/*--------------------------------*- C++ -*----------------------------------*\
  =========                 |
  \\      /  F ield         | OpenFOAM: The Open Source CFD Toolbox
   \\    /   O peration     | Website:  https://openfoam.org
    \\  /    A nd           | Version:  8
     \\/     M anipulation  |
\*---------------------------------------------------------------------------*/
FoamFile
{
    version     2.0;
    format      ascii;
    class       volScalarField;
    location    "0.18001";
    object      alphat;
}
// * * * * * * * * * * * * * * * * * * * * * * * * * * * * * * * * * * * * * //

dimensions      [1 -1 -1 0 0 0 0];

internalField   nonuniform List<scalar> 
20000
(
0.0010583625
0.0026476708
0.0035549344
0.003887814
0.0035014202
0.0020272915
0.00027698663
1.49405e-08
5.0973211e-09
5.0786534e-09
4.9608382e-09
4.9937711e-09
4.9356302e-09
4.9776526e-09
4.9835582e-09
5.0266709e-09
5.0619554e-09
5.1220133e-09
5.1867528e-09
5.2729216e-09
5.3714564e-09
5.4934868e-09
5.6377026e-09
5.8114586e-09
6.0055365e-09
6.2252228e-09
6.4641837e-09
6.7211565e-09
6.9864737e-09
7.2497878e-09
7.5003548e-09
7.7297109e-09
7.9316347e-09
8.104051e-09
8.2467718e-09
8.3599129e-09
8.4458368e-09
8.5185777e-09
8.5663588e-09
8.5878313e-09
8.5926109e-09
8.5829928e-09
8.5627241e-09
8.5347921e-09
8.4932451e-09
8.4589407e-09
8.4453289e-09
8.4413364e-09
8.4414607e-09
8.538035e-09
0.0010411024
0.0025947408
0.0034738349
0.0037769064
0.0033617983
0.0018230209
0.00020207338
1.0158803e-08
5.0440733e-09
5.0328919e-09
4.9174195e-09
4.9524714e-09
4.895335e-09
4.9384583e-09
4.9454821e-09
4.9899092e-09
5.0265152e-09
5.0878582e-09
5.1540163e-09
5.2419879e-09
5.3439473e-09
5.4717909e-09
5.6242121e-09
5.8044737e-09
6.0051723e-09
6.2286059e-09
6.4741643e-09
6.7356647e-09
7.0043526e-09
7.2691862e-09
7.5193737e-09
7.7467913e-09
7.9458987e-09
8.1152503e-09
8.255138e-09
8.3654716e-09
8.4506237e-09
8.5230504e-09
8.5670958e-09
8.5863715e-09
8.591389e-09
8.5807482e-09
8.5602117e-09
8.5310984e-09
8.487881e-09
8.4588406e-09
8.4449375e-09
8.4414454e-09
8.4405048e-09
8.5379039e-09
0.0010389515
0.0025640584
0.0034057426
0.0036688472
0.0032126386
0.0016042188
0.00012764776
7.7458795e-09
4.9996275e-09
4.9922305e-09
4.8793057e-09
4.9153806e-09
4.8591732e-09
4.9029277e-09
4.9111143e-09
4.9565408e-09
4.9942565e-09
5.0567292e-09
5.1250012e-09
5.2163683e-09
5.324864e-09
5.4618538e-09
5.6203715e-09
5.8041998e-09
6.0076836e-09
6.2378764e-09
6.4890574e-09
6.7556268e-09
7.0274429e-09
7.2933431e-09
7.5426014e-09
7.7674046e-09
7.9629738e-09
8.1285597e-09
8.2648453e-09
8.371816e-09
8.4566869e-09
8.5276206e-09
8.5679842e-09
8.5841122e-09
8.5882146e-09
8.5775181e-09
8.5565173e-09
8.5256105e-09
8.4809623e-09
8.4547367e-09
8.4438414e-09
8.4391157e-09
8.4423135e-09
8.5380929e-09
0.0010347903
0.0025304425
0.003336244
0.0035600693
0.0030657454
0.0014019531
6.816729e-05
6.5446559e-09
4.9583183e-09
4.9551136e-09
4.8449942e-09
4.8825016e-09
4.8275258e-09
4.8720519e-09
4.8813383e-09
4.9277028e-09
4.9668867e-09
5.0314211e-09
5.1036558e-09
5.2023199e-09
5.3176719e-09
5.4584706e-09
5.6195718e-09
5.8058791e-09
6.0174822e-09
6.2542589e-09
6.5118816e-09
6.7831897e-09
7.0577526e-09
7.3240686e-09
7.5715638e-09
7.7929298e-09
7.9842113e-09
8.1453719e-09
8.2773441e-09
8.3805666e-09
8.4651862e-09
8.5326996e-09
8.5694592e-09
8.5835862e-09
8.586854e-09
8.5746092e-09
8.5531247e-09
8.5197931e-09
8.4768097e-09
8.4527775e-09
8.4420041e-09
8.4384837e-09
8.443679e-09
8.5382826e-09
0.0010313038
0.0024990576
0.0032693806
0.003451848
0.0029203805
0.0012118331
2.9022107e-05
5.91496e-09
4.9238212e-09
4.9238461e-09
4.816189e-09
4.8547689e-09
4.8009999e-09
4.8462591e-09
4.85683e-09
4.9045552e-09
4.9465494e-09
5.0162486e-09
5.0943851e-09
5.1969547e-09
5.3154753e-09
5.4582838e-09
5.6229785e-09
5.8160114e-09
6.034136e-09
6.2780721e-09
6.5418408e-09
6.817725e-09
7.0944977e-09
7.3604966e-09
7.6054039e-09
7.8225095e-09
8.008731e-09
8.1647786e-09
8.2917234e-09
8.3908377e-09
8.4749886e-09
8.5382463e-09
8.5713361e-09
8.5832127e-09
8.5847729e-09
8.5716046e-09
8.549346e-09
8.5137548e-09
8.4728945e-09
8.4503556e-09
8.4403853e-09
8.4367021e-09
8.4461284e-09
8.5384982e-09
0.0010278973
0.0024690764
0.0032054941
0.0033446968
0.0027730272
0.0010352266
1.0094442e-05
5.5722015e-09
4.8948654e-09
4.8979504e-09
4.7928033e-09
4.8325537e-09
4.7803765e-09
4.826561e-09
4.8393534e-09
4.8909415e-09
4.9374025e-09
5.0103827e-09
5.0910319e-09
5.195803e-09
5.3158297e-09
5.4629944e-09
5.6337871e-09
5.8330426e-09
6.0587892e-09
6.309837e-09
6.5797759e-09
6.8598056e-09
7.1381385e-09
7.4029746e-09
7.6443693e-09
7.8563289e-09
8.0367318e-09
8.1869771e-09
8.3082393e-09
8.4030656e-09
8.4861295e-09
8.5442875e-09
8.5734645e-09
8.583136e-09
8.58328e-09
8.5690231e-09
8.5454706e-09
8.5079163e-09
8.4696205e-09
8.4484122e-09
8.4387716e-09
8.4351888e-09
8.4490605e-09
8.5389638e-09
0.0010247203
0.0024401221
0.0031445798
0.0032464272
0.0026226648
0.00087314091
3.1254447e-06
5.3813688e-09
4.871702e-09
4.8778689e-09
4.7751526e-09
4.816034e-09
4.7673462e-09
4.816078e-09
4.8318665e-09
4.8855583e-09
4.9339827e-09
5.0088493e-09
5.0907468e-09
5.1972832e-09
5.3223472e-09
5.4748634e-09
5.6518422e-09
5.8583291e-09
6.0915306e-09
6.349815e-09
6.6256557e-09
6.9093412e-09
7.1884623e-09
7.4512062e-09
7.6881245e-09
7.8940572e-09
8.0678707e-09
8.2116244e-09
8.3266368e-09
8.4173159e-09
8.4980739e-09
8.5506503e-09
8.5756858e-09
8.5832602e-09
8.5815711e-09
8.5665663e-09
8.5414129e-09
8.50218e-09
8.4663493e-09
8.4464607e-09
8.4373672e-09
8.4338144e-09
8.4527568e-09
8.5396906e-09
0.0010215813
0.0024111738
0.0030831723
0.0031416376
0.0024665761
0.00072674023
9.4338719e-07
5.272125e-09
4.8596629e-09
4.8629677e-09
4.7635664e-09
4.8018916e-09
4.7616389e-09
4.8117428e-09
4.8290946e-09
4.8840367e-09
4.9335182e-09
5.0093776e-09
5.0947885e-09
5.2058607e-09
5.3356318e-09
5.4939844e-09
5.6778729e-09
5.8917539e-09
6.1327978e-09
6.3982666e-09
6.6797164e-09
6.9664147e-09
7.2454388e-09
7.5050753e-09
7.7365044e-09
7.9355089e-09
8.1019906e-09
8.2385557e-09
8.346853e-09
8.4338844e-09
8.5104681e-09
8.5572154e-09
8.5780984e-09
8.5839849e-09
8.5804139e-09
8.5638183e-09
8.537223e-09
8.4965332e-09
8.4631389e-09
8.4446335e-09
8.4362287e-09
8.4328065e-09
8.4571348e-09
8.5407427e-09
0.0010187189
0.0023829735
0.0030215836
0.0030403697
0.0023057879
0.00059867087
2.9919773e-07
5.2114757e-09
4.8493892e-09
4.8515853e-09
4.7515242e-09
4.7936723e-09
4.7598145e-09
4.8104655e-09
4.8287923e-09
4.8848514e-09
4.9370427e-09
5.016414e-09
5.1054401e-09
5.2207592e-09
5.3561512e-09
5.5208127e-09
5.7119542e-09
5.9337043e-09
6.1827051e-09
6.4552922e-09
6.741926e-09
7.0308912e-09
7.3088342e-09
7.5642865e-09
7.7891952e-09
7.9803902e-09
8.1388055e-09
8.2674882e-09
8.3687088e-09
8.4525006e-09
8.5231916e-09
8.5639375e-09
8.5806435e-09
8.5851927e-09
8.5792891e-09
8.5609546e-09
8.5328713e-09
8.4910184e-09
8.4598635e-09
8.442833e-09
8.4353791e-09
8.4323709e-09
8.4622316e-09
8.5421662e-09
0.0010162884
0.0023555096
0.0029609877
0.0029388328
0.0021387725
0.00048537038
1.0510625e-07
5.1761247e-09
4.845033e-09
4.8418715e-09
4.7459242e-09
4.7864721e-09
4.7600142e-09
4.8124608e-09
4.8331906e-09
4.8917413e-09
4.9467509e-09
5.0292267e-09
5.1225093e-09
5.2427951e-09
5.3840777e-09
5.5554984e-09
5.7543738e-09
5.9842949e-09
6.2414301e-09
6.5209646e-09
6.8122563e-09
7.1026169e-09
7.378396e-09
7.6285291e-09
7.8458716e-09
8.0283917e-09
8.1780245e-09
8.2981606e-09
8.3920882e-09
8.4726962e-09
8.5362315e-09
8.5708101e-09
8.5834919e-09
8.5867577e-09
8.578044e-09
8.5580392e-09
8.528368e-09
8.4858019e-09
8.456651e-09
8.4411515e-09
8.434717e-09
8.4322896e-09
8.4678441e-09
8.5439375e-09
0.0010139697
0.0023280043
0.0029003867
0.0028380486
0.0019660007
0.00038301454
4.2624839e-08
5.1537563e-09
4.8452945e-09
4.8436292e-09
4.7480631e-09
4.7895e-09
4.7664567e-09
4.8203502e-09
4.8432443e-09
4.9040745e-09
4.9623117e-09
5.04851e-09
5.1463194e-09
5.2718387e-09
5.4195375e-09
5.5981787e-09
5.805199e-09
6.0436357e-09
6.3089877e-09
6.595228e-09
6.8905351e-09
7.1813198e-09
7.4537764e-09
7.6974206e-09
7.9061576e-09
8.0791653e-09
8.2193087e-09
8.3303128e-09
8.4169847e-09
8.4939859e-09
8.5494045e-09
8.5777955e-09
8.5870084e-09
8.5884156e-09
8.5766452e-09
8.5549448e-09
8.5237003e-09
8.4810773e-09
8.4536533e-09
8.4395878e-09
8.4341892e-09
8.4323624e-09
8.4740299e-09
8.5459925e-09
0.0010117173
0.0023003056
0.0028388909
0.0027334402
0.0017892348
0.00029193331
2.0883202e-08
5.1430018e-09
4.8486155e-09
4.8497109e-09
4.7561429e-09
4.7991499e-09
4.7778616e-09
4.8333081e-09
4.8587614e-09
4.9222572e-09
4.983988e-09
5.0740893e-09
5.1768755e-09
5.3081111e-09
5.4626553e-09
5.6489821e-09
5.8645785e-09
6.1118135e-09
6.3854159e-09
6.6780069e-09
6.9765605e-09
7.2666804e-09
7.5345798e-09
7.770534e-09
7.9696353e-09
8.1323174e-09
8.2622793e-09
8.3637118e-09
8.4435524e-09
8.5157614e-09
8.5625181e-09
8.5846421e-09
8.5912714e-09
8.5899871e-09
8.575373e-09
8.5517001e-09
8.5188612e-09
8.4769621e-09
8.4510173e-09
8.4381312e-09
8.4338321e-09
8.4325096e-09
8.4808037e-09
8.5482632e-09
0.0010096045
0.0022725483
0.0027762768
0.0026265142
0.001610905
0.00021032724
1.241814e-08
5.1387202e-09
4.8562715e-09
4.8587582e-09
4.7688693e-09
4.8132503e-09
4.7944336e-09
4.8516256e-09
4.87981e-09
4.9461861e-09
5.0117205e-09
5.1061312e-09
5.2142425e-09
5.3515928e-09
5.5134635e-09
5.7079443e-09
5.9325316e-09
6.1888229e-09
6.4706312e-09
6.7691111e-09
7.0700288e-09
7.3582985e-09
7.6203514e-09
7.8474008e-09
8.0358579e-09
8.1874286e-09
8.3065529e-09
8.3981843e-09
8.4719516e-09
8.5373567e-09
8.5754469e-09
8.5918255e-09
8.596124e-09
8.5916201e-09
8.5742068e-09
8.548279e-09
8.5138688e-09
8.4734285e-09
8.4489108e-09
8.4369845e-09
8.4336725e-09
8.4335722e-09
8.487817e-09
8.5507275e-09
0.0010077212
0.0022447415
0.0027113384
0.0025210952
0.0014338378
0.00013701083
8.762721e-09
5.1414589e-09
4.8681189e-09
4.8730735e-09
4.7861575e-09
4.8322702e-09
4.8161134e-09
4.8752134e-09
4.906423e-09
4.9759356e-09
5.0455828e-09
5.1446001e-09
5.2584557e-09
5.4023776e-09
5.5720513e-09
5.7751709e-09
6.00915e-09
6.274709e-09
6.5645746e-09
6.8683536e-09
7.1706138e-09
7.4557416e-09
7.710593e-09
7.9275063e-09
8.1043346e-09
8.2440407e-09
8.3517621e-09
8.4336267e-09
8.5018133e-09
8.5583981e-09
8.5880924e-09
8.5993655e-09
8.6013187e-09
8.5932827e-09
8.5729184e-09
8.5446899e-09
8.5087895e-09
8.47039e-09
8.4473611e-09
8.4363752e-09
8.433546e-09
8.4356051e-09
8.4950379e-09
8.5533457e-09
0.0010059501
0.0022177256
0.0026482606
0.0024152812
0.001259845
7.5130152e-05
7.0442518e-09
5.149558e-09
4.8845766e-09
4.8915187e-09
4.8083805e-09
4.856288e-09
4.8429618e-09
4.9041699e-09
4.9386015e-09
5.0114986e-09
5.0855399e-09
5.1895048e-09
5.3095047e-09
5.4604464e-09
5.6384255e-09
5.8506655e-09
6.0944265e-09
6.3694056e-09
6.6670831e-09
6.9754392e-09
7.2778963e-09
7.5585001e-09
7.8047433e-09
8.0102966e-09
8.1745637e-09
8.3017052e-09
8.3976198e-09
8.4700504e-09
8.5322539e-09
8.578791e-09
8.6003844e-09
8.6076977e-09
8.6065446e-09
8.5950338e-09
8.5715522e-09
8.5409447e-09
8.5038107e-09
8.4677713e-09
8.446208e-09
8.4360992e-09
8.4335132e-09
8.4386911e-09
8.5023695e-09
8.5560638e-09
0.0010042879
0.0021913458
0.0025868114
0.0023068722
0.0010912706
3.2409993e-05
6.1985257e-09
5.1622971e-09
4.9055852e-09
4.9156436e-09
4.8354781e-09
4.8853317e-09
4.8750029e-09
4.9384489e-09
4.9763489e-09
5.0528059e-09
5.1315723e-09
5.2408425e-09
5.3674292e-09
5.5258795e-09
5.7126777e-09
5.9345372e-09
6.1884441e-09
6.472917e-09
6.7780314e-09
7.0900808e-09
7.3914425e-09
7.6660189e-09
7.9021801e-09
8.0951748e-09
8.2460267e-09
8.3599937e-09
8.4439228e-09
8.5075068e-09
8.5623688e-09
8.5984138e-09
8.6126678e-09
8.6165278e-09
8.6116762e-09
8.5968341e-09
8.5700347e-09
8.5370617e-09
8.4989683e-09
8.4655948e-09
8.4454853e-09
8.4360156e-09
8.4335682e-09
8.4430532e-09
8.5096959e-09
8.5587728e-09
0.0010025602
0.0021645996
0.0025240038
0.0021940613
0.00093093069
1.1071997e-05
5.7773818e-09
5.1806043e-09
4.9315259e-09
4.944299e-09
4.8675032e-09
4.919385e-09
4.9121635e-09
4.9780043e-09
5.0195411e-09
5.0998611e-09
5.1836562e-09
5.2986053e-09
5.4322312e-09
5.5986956e-09
5.7948467e-09
6.026816e-09
6.2911918e-09
6.5851406e-09
6.8971842e-09
7.211888e-09
7.5107196e-09
7.7776493e-09
8.0022245e-09
8.1815458e-09
8.318243e-09
8.4185626e-09
8.4905662e-09
8.5458604e-09
8.5912921e-09
8.6172185e-09
8.6253842e-09
8.6254656e-09
8.616594e-09
8.5984188e-09
8.5683438e-09
8.533063e-09
8.4942685e-09
8.4637209e-09
8.4451711e-09
8.4359976e-09
8.433907e-09
8.4488299e-09
8.5168895e-09
8.5614431e-09
0.0010009505
0.0021381559
0.0024605456
0.0020762918
0.00078103951
3.2426573e-06
5.5730738e-09
5.2054909e-09
4.9626319e-09
4.9778193e-09
4.9043066e-09
4.9582656e-09
4.9543173e-09
5.0226914e-09
5.0681731e-09
5.1525646e-09
5.2417787e-09
5.3628306e-09
5.5039939e-09
5.6790214e-09
5.8850798e-09
6.1276506e-09
6.4027598e-09
6.7060511e-09
7.0243451e-09
7.34048e-09
7.6351567e-09
7.8926927e-09
8.1041953e-09
8.2688585e-09
8.3907709e-09
8.4771348e-09
8.537453e-09
8.5842334e-09
8.618741e-09
8.635453e-09
8.6386802e-09
8.6341536e-09
8.6211671e-09
8.5991646e-09
8.5664432e-09
8.5289634e-09
8.489778e-09
8.4619016e-09
8.4450601e-09
8.4365633e-09
8.4349052e-09
8.4563716e-09
8.5238312e-09
8.5640295e-09
0.00099946735
0.0021120776
0.002396277
0.0019570457
0.00064369845
9.0820465e-07
5.4831415e-09
5.2341769e-09
4.9978962e-09
5.0156626e-09
4.9456155e-09
5.0018211e-09
5.0013471e-09
5.0724771e-09
5.1221416e-09
5.210969e-09
5.3059697e-09
5.4335596e-09
5.5827778e-09
5.7669333e-09
5.9834627e-09
6.237103e-09
6.5231393e-09
6.8355067e-09
7.1591939e-09
7.4753384e-09
7.7640502e-09
8.0103907e-09
8.2074887e-09
8.3566723e-09
8.4632186e-09
8.5354653e-09
8.5844008e-09
8.6214858e-09
8.6447829e-09
8.6538084e-09
8.6519363e-09
8.6425548e-09
8.6253227e-09
8.5994738e-09
8.5643102e-09
8.5247747e-09
8.4857368e-09
8.4600885e-09
8.4450622e-09
8.4377891e-09
8.4366429e-09
8.4657956e-09
8.5304236e-09
8.5664699e-09
0.00099820495
0.0020868835
0.0023317488
0.0018307686
0.00052007272
2.7015134e-07
5.452804e-09
5.2670611e-09
5.0374258e-09
5.05785e-09
4.9914257e-09
5.050017e-09
5.0532428e-09
5.127312e-09
5.181513e-09
5.2750468e-09
5.376283e-09
5.5108985e-09
5.6687372e-09
5.8626235e-09
6.0902024e-09
6.355352e-09
6.6524219e-09
6.9734376e-09
7.3014391e-09
7.6159166e-09
7.8966625e-09
8.1300469e-09
8.3116786e-09
8.4446433e-09
8.535177e-09
8.5932124e-09
8.6308989e-09
8.6568351e-09
8.6698123e-09
8.6724571e-09
8.6647917e-09
8.6505873e-09
8.6291017e-09
8.5995267e-09
8.5619247e-09
8.5205055e-09
8.4824497e-09
8.4584342e-09
8.44519e-09
8.439555e-09
8.4392339e-09
8.4767319e-09
8.5366007e-09
8.5688198e-09
0.00099725865
0.0020628728
0.0022723927
0.0016975734
0.00041407915
9.3839564e-08
5.4544754e-09
5.304178e-09
5.0812171e-09
5.1043783e-09
5.0417037e-09
5.1028277e-09
5.109982e-09
5.1872368e-09
5.2462708e-09
5.3449182e-09
5.4528138e-09
5.5949623e-09
5.7620036e-09
5.9662404e-09
6.2054333e-09
6.4824848e-09
6.7905732e-09
7.1196394e-09
7.4506194e-09
7.7615044e-09
8.0321975e-09
8.2511158e-09
8.4165033e-09
8.5323802e-09
8.606164e-09
8.6498893e-09
8.6758568e-09
8.6903643e-09
8.6946718e-09
8.6906608e-09
8.6771683e-09
8.6582336e-09
8.6326686e-09
8.5994932e-09
8.5592514e-09
8.516167e-09
8.4800603e-09
8.4577661e-09
8.445477e-09
8.4415135e-09
8.4430475e-09
8.4881929e-09
8.5426895e-09
8.5711169e-09
0.00099648542
0.0020386752
0.0022132856
0.0015566689
0.00031948026
3.929393e-08
5.4747139e-09
5.345567e-09
5.1292277e-09
5.1552028e-09
5.0964191e-09
5.1602634e-09
5.1716109e-09
5.252294e-09
5.3165357e-09
5.4206321e-09
5.5356962e-09
5.6859351e-09
5.8628151e-09
6.0780454e-09
6.3294276e-09
6.6187044e-09
6.9376716e-09
7.2739352e-09
7.6062729e-09
7.9113847e-09
8.1699926e-09
8.3733204e-09
8.521648e-09
8.6191168e-09
8.6755814e-09
8.7048987e-09
8.71872e-09
8.7227955e-09
8.7190622e-09
8.7081928e-09
8.6889444e-09
8.6654593e-09
8.6362281e-09
8.5993023e-09
8.5562339e-09
8.5119406e-09
8.4781288e-09
8.4575006e-09
8.4461535e-09
8.4428386e-09
8.448864e-09
8.4998097e-09
8.5486997e-09
8.5733795e-09
0.00099597839
0.0020141292
0.0021521039
0.001409304
0.00023432588
2.0243855e-08
5.5063473e-09
5.3908958e-09
5.1813449e-09
5.210266e-09
5.1556298e-09
5.2223649e-09
5.2382175e-09
5.3225612e-09
5.3923735e-09
5.5023645e-09
5.6250955e-09
5.7840134e-09
5.9713789e-09
6.1982599e-09
6.4623677e-09
6.764119e-09
7.0936364e-09
7.4359737e-09
7.7677253e-09
8.0647463e-09
8.3095646e-09
8.4964747e-09
8.6261358e-09
8.7037844e-09
8.7427193e-09
8.7578261e-09
8.7599166e-09
8.754473e-09
8.7424742e-09
8.7249218e-09
8.700044e-09
8.6721907e-09
8.639829e-09
8.5986703e-09
8.5527729e-09
8.5078725e-09
8.4764252e-09
8.4574467e-09
8.4472121e-09
8.4443691e-09
8.4565919e-09
8.5112504e-09
8.5545744e-09
8.5756154e-09
0.00099569204
0.0019891745
0.0020904163
0.001258673
0.00015818943
1.2769509e-08
5.545978e-09
5.4404609e-09
5.2376735e-09
5.269778e-09
5.2194051e-09
5.2892563e-09
5.3098586e-09
5.3981409e-09
5.4739335e-09
5.5902467e-09
5.7212277e-09
5.8894698e-09
6.0880105e-09
6.327223e-09
6.6045726e-09
6.9189436e-09
7.2584627e-09
7.6054122e-09
7.9343073e-09
8.2209325e-09
8.4507289e-09
8.6200309e-09
8.7284824e-09
8.7855047e-09
8.8072555e-09
8.809014e-09
8.7998006e-09
8.7847281e-09
8.764868e-09
8.7407687e-09
8.7104121e-09
8.6783135e-09
8.642976e-09
8.5976008e-09
8.5487595e-09
8.504075e-09
8.4749039e-09
8.4574902e-09
8.4488555e-09
8.446609e-09
8.4663684e-09
8.5222612e-09
8.5602638e-09
8.5778357e-09
0.00099565016
0.0019635904
0.0020270258
0.0011119244
9.257934e-05
9.5060687e-09
5.5920992e-09
5.4943444e-09
5.2983756e-09
5.3337264e-09
5.2878223e-09
5.3609434e-09
5.3866363e-09
5.4791443e-09
5.5613721e-09
5.6845312e-09
5.8243488e-09
6.0025765e-09
6.2130007e-09
6.465218e-09
6.7562659e-09
7.0832438e-09
7.4319234e-09
7.7816566e-09
8.1052088e-09
8.3794361e-09
8.5932599e-09
8.7422714e-09
8.8276075e-09
8.8637482e-09
8.8698873e-09
8.8583697e-09
8.8378097e-09
8.8136159e-09
8.7861009e-09
8.7556742e-09
8.7200444e-09
8.6837649e-09
8.6442051e-09
8.5960532e-09
8.5441823e-09
8.5007184e-09
8.4737134e-09
8.4583539e-09
8.4510796e-09
8.4494666e-09
8.4779937e-09
8.5326508e-09
8.5657874e-09
8.5800792e-09
0.00099565966
0.0019353086
0.0019605811
0.00097300926
4.4010995e-05
7.9745434e-09
5.6432465e-09
5.5524192e-09
5.3633496e-09
5.4021227e-09
5.3609022e-09
5.4375318e-09
5.4687028e-09
5.5657695e-09
5.6549281e-09
5.7854438e-09
5.9347583e-09
6.1236899e-09
6.3467538e-09
6.6126577e-09
6.9178034e-09
7.2571731e-09
7.6138277e-09
7.9641193e-09
8.279777e-09
8.5400769e-09
8.7362366e-09
8.8616007e-09
8.9225453e-09
8.9393306e-09
8.930413e-09
8.90537e-09
8.8739663e-09
8.8409629e-09
8.8061182e-09
8.7695917e-09
8.7289693e-09
8.6886775e-09
8.6447216e-09
8.5940083e-09
8.5392777e-09
8.4980142e-09
8.4731699e-09
8.4595207e-09
8.4536065e-09
8.4527427e-09
8.492063e-09
8.5422092e-09
8.5712399e-09
8.5824369e-09
0.00099531779
0.0019030568
0.0018895294
0.00084181775
1.6668777e-05
7.2311162e-09
5.6991241e-09
5.6148218e-09
5.4326781e-09
5.4750477e-09
5.438762e-09
5.5191638e-09
5.5562536e-09
5.6582392e-09
5.7548458e-09
5.8933112e-09
6.0527796e-09
6.2531707e-09
6.4896417e-09
6.7698904e-09
7.0894048e-09
7.4406805e-09
7.8037067e-09
8.1520145e-09
8.4574087e-09
8.702621e-09
8.8776361e-09
8.9766321e-09
9.0134751e-09
9.0128616e-09
8.9880121e-09
8.9499744e-09
8.9081141e-09
8.8667369e-09
8.8248519e-09
8.7824744e-09
8.7372029e-09
8.6933379e-09
8.6447738e-09
8.5914119e-09
8.5345909e-09
8.4958021e-09
8.4729722e-09
8.4606008e-09
8.4560867e-09
8.456806e-09
8.505863e-09
8.5514838e-09
8.5768089e-09
8.5850446e-09
0.00099467027
0.0018669471
0.0018124834
0.00071899661
5.3165585e-06
6.8742847e-09
5.7595012e-09
5.6814175e-09
5.5063884e-09
5.552614e-09
5.5216047e-09
5.6060879e-09
5.6494574e-09
5.7568006e-09
5.8614054e-09
6.0084159e-09
6.1787969e-09
6.3914757e-09
6.6421614e-09
6.9373914e-09
7.271398e-09
7.6337614e-09
8.0011121e-09
8.3446971e-09
8.6378185e-09
8.8661195e-09
9.0155868e-09
9.0864229e-09
9.1018398e-09
9.0831129e-09
9.0426699e-09
8.9920228e-09
8.9402196e-09
8.8908753e-09
8.8422682e-09
8.7942888e-09
8.7446973e-09
8.697942e-09
8.6447108e-09
8.5881274e-09
8.5304612e-09
8.4939412e-09
8.4729532e-09
8.4617643e-09
8.4578483e-09
8.4624522e-09
8.5185854e-09
8.5601526e-09
8.582444e-09
8.5881042e-09
0.00099338356
0.001826032
0.0017233297
0.00060552961
1.5766374e-06
6.7163274e-09
5.8244165e-09
5.7524969e-09
5.5847659e-09
5.6351541e-09
5.6097326e-09
5.6985519e-09
5.7485992e-09
5.8616399e-09
5.9748912e-09
6.1311603e-09
6.3132487e-09
6.5390746e-09
6.8047801e-09
7.1155336e-09
7.4639163e-09
7.8361113e-09
8.2053251e-09
8.5414747e-09
8.820757e-09
9.0282991e-09
9.1485669e-09
9.1917955e-09
9.1871368e-09
9.1498098e-09
9.0941638e-09
9.0314727e-09
8.9702295e-09
8.9133546e-09
8.8583451e-09
8.8050311e-09
8.7513495e-09
8.7019687e-09
8.6442159e-09
8.5840484e-09
8.5271203e-09
8.4923615e-09
8.4729612e-09
8.4630366e-09
8.4595894e-09
8.4699217e-09
8.5296189e-09
8.5676938e-09
8.5877821e-09
8.5919573e-09
0.00099173281
0.0017813955
0.0016208482
0.00050233268
4.7729654e-07
6.6636653e-09
5.8943701e-09
5.8284936e-09
5.6681792e-09
5.7228946e-09
5.7033565e-09
5.7967227e-09
5.8538763e-09
5.9731406e-09
6.0956755e-09
6.2619623e-09
6.4566578e-09
6.6965597e-09
6.9780799e-09
7.3048146e-09
7.6671368e-09
8.0474533e-09
8.4157243e-09
8.7419515e-09
9.0056176e-09
9.186861e-09
9.2754113e-09
9.2941739e-09
9.2683355e-09
9.2127163e-09
9.1424414e-09
9.0682716e-09
8.9981293e-09
8.9341585e-09
8.8730809e-09
8.8147494e-09
8.7571476e-09
8.7034842e-09
8.6430376e-09
8.5793635e-09
8.524437e-09
8.4915831e-09
8.4734332e-09
8.4646643e-09
8.4617451e-09
8.4793271e-09
8.538852e-09
8.5741883e-09
8.5925586e-09
8.5961938e-09
0.00098973666
0.0017341925
0.0015069271
0.00040664999
1.6060838e-07
6.6682763e-09
5.9692207e-09
5.9095385e-09
5.7566468e-09
5.8159275e-09
5.8025337e-09
5.9007791e-09
5.9655104e-09
6.0916695e-09
6.2241878e-09
6.4014094e-09
6.6096166e-09
6.8645056e-09
7.1625978e-09
7.505542e-09
7.8809721e-09
8.2671545e-09
8.6315679e-09
8.9457409e-09
9.1899886e-09
9.3401367e-09
9.3970477e-09
9.3927435e-09
9.3451023e-09
9.2717114e-09
9.1874379e-09
9.1024125e-09
9.0239182e-09
8.9532881e-09
8.8864752e-09
8.8235101e-09
8.7623587e-09
8.7041142e-09
8.6411463e-09
8.5743085e-09
8.5220691e-09
8.4912792e-09
8.4742705e-09
8.4667362e-09
8.4644196e-09
8.4898495e-09
8.5467293e-09
8.5799995e-09
8.5969898e-09
8.6002477e-09
0.00098774118
0.0016851618
0.0013849989
0.00032316224
6.5638082e-08
6.7042639e-09
6.0490422e-09
5.9953737e-09
5.8502378e-09
5.9142299e-09
5.9074811e-09
6.0109536e-09
6.0839271e-09
6.2177003e-09
6.3610369e-09
6.5500714e-09
6.7727844e-09
7.0436112e-09
7.3589633e-09
7.7181234e-09
8.1053368e-09
8.4946961e-09
8.852326e-09
9.1525146e-09
9.371332e-09
9.4865836e-09
9.5149103e-09
9.4864441e-09
9.4172236e-09
9.3267136e-09
9.2291411e-09
9.1338999e-09
9.0476149e-09
8.9707592e-09
8.8985367e-09
8.8313444e-09
8.767312e-09
8.7041761e-09
8.6384365e-09
8.5690755e-09
8.5197856e-09
8.4912294e-09
8.4757539e-09
8.4692411e-09
8.4676012e-09
8.5008796e-09
8.5542064e-09
8.5853561e-09
8.6010688e-09
8.6040269e-09
0.00098562157
0.0016326
0.001268077
0.000246439
3.1904605e-08
6.7577672e-09
6.1332741e-09
6.0861131e-09
5.9490146e-09
6.0181227e-09
6.0185105e-09
6.1277366e-09
6.2096347e-09
6.351828e-09
6.5068277e-09
6.708693e-09
6.9468592e-09
7.2345428e-09
7.567693e-09
7.9426837e-09
8.339792e-09
8.7293096e-09
9.0773931e-09
9.3603234e-09
9.5474188e-09
9.626655e-09
9.6284718e-09
9.5747477e-09
9.4845618e-09
9.3776891e-09
9.2675613e-09
9.162765e-09
9.06925e-09
8.9866003e-09
8.9092924e-09
8.8382158e-09
8.7717681e-09
8.7041254e-09
8.6347259e-09
8.5639675e-09
8.5176144e-09
8.491276e-09
8.4777003e-09
8.4721531e-09
8.4711641e-09
8.5119799e-09
8.5614129e-09
8.5903501e-09
8.6048436e-09
8.607561e-09
0.00098368966
0.0015754775
0.001147953
0.00017565633
1.8733163e-08
6.8228831e-09
6.2224925e-09
6.1821557e-09
6.0534213e-09
6.1280784e-09
6.1362128e-09
6.2517349e-09
6.3433099e-09
6.494704e-09
6.6623009e-09
6.877934e-09
7.1326079e-09
7.4380608e-09
7.7893834e-09
8.1793783e-09
8.5839512e-09
8.9704549e-09
9.3064793e-09
9.566453e-09
9.7163654e-09
9.7618103e-09
9.7365119e-09
9.6574686e-09
9.5470477e-09
9.4246437e-09
9.3027362e-09
9.1890574e-09
9.088874e-09
9.0008517e-09
8.9188153e-09
8.8441497e-09
8.7740593e-09
8.7033465e-09
8.629842e-09
8.5593378e-09
8.5158068e-09
8.4917132e-09
8.4797805e-09
8.4752719e-09
8.4752509e-09
8.5228405e-09
8.5683845e-09
8.5950641e-09
8.6083767e-09
8.6108925e-09
0.00098300642
0.0015249939
0.0010270439
0.00011167645
1.3019341e-08
6.8953729e-09
6.3169809e-09
6.2839542e-09
6.1640468e-09
6.2447475e-09
6.2612818e-09
6.3836292e-09
6.4856104e-09
6.647029e-09
6.8281276e-09
7.0586468e-09
7.3308194e-09
7.6548593e-09
8.0243905e-09
8.4279762e-09
8.837083e-09
9.2173821e-09
9.5385614e-09
9.7678235e-09
9.8774605e-09
9.8924017e-09
9.8381146e-09
9.7344235e-09
9.6046567e-09
9.4676193e-09
9.3347362e-09
9.2128548e-09
9.106549e-09
9.0135558e-09
8.9272031e-09
8.8494199e-09
8.7749715e-09
8.7016318e-09
8.6238136e-09
8.55547e-09
8.5144542e-09
8.4924932e-09
8.4819885e-09
8.4781463e-09
8.4802629e-09
8.5334169e-09
8.5751015e-09
8.5995344e-09
8.6117167e-09
8.6140488e-09
0.00098284636
0.0014708487
0.00090647597
5.9450207e-05
1.0344048e-08
6.9738677e-09
6.417461e-09
6.3923169e-09
6.2816929e-09
6.3688808e-09
6.3943871e-09
6.5240628e-09
6.6371611e-09
6.8094904e-09
7.0051387e-09
7.2516059e-09
7.5423738e-09
7.8857209e-09
8.2731117e-09
8.6882763e-09
9.0986456e-09
9.4695978e-09
9.7708475e-09
9.9624135e-09
1.0032082e-08
1.001693e-08
9.9331325e-09
9.8055494e-09
9.6574238e-09
9.5066966e-09
9.363662e-09
9.2342556e-09
9.1223512e-09
9.0247666e-09
8.9345452e-09
8.8543623e-09
8.7751921e-09
8.6990054e-09
8.617352e-09
8.5520533e-09
8.5135511e-09
8.4935213e-09
8.484106e-09
8.4805814e-09
8.4868404e-09
8.5435196e-09
8.5814884e-09
8.6037496e-09
8.6148509e-09
8.6169827e-09
0.00098366488
0.0014141074
0.00078912092
2.5446281e-05
9.0444565e-09
7.0589995e-09
6.5249404e-09
6.5080493e-09
6.4070923e-09
6.5009652e-09
6.5360784e-09
6.6735429e-09
6.7986411e-09
6.9828738e-09
7.1941582e-09
7.4578234e-09
7.7681666e-09
8.1312691e-09
8.5355847e-09
8.9596568e-09
9.3677905e-09
9.7263295e-09
9.99991e-09
1.0148025e-08
1.0181837e-08
1.0133961e-08
1.0021298e-08
9.8708188e-09
9.7054205e-09
9.5419919e-09
9.3896391e-09
9.253366e-09
9.1363541e-09
9.0345645e-09
8.9409125e-09
8.858684e-09
8.7752034e-09
8.6955396e-09
8.6107257e-09
8.5490295e-09
8.5130221e-09
8.4946948e-09
8.4862684e-09
8.4829535e-09
8.495456e-09
8.5527519e-09
8.5873954e-09
8.6076301e-09
8.6177222e-09
8.6196915e-09
0.00098580228
0.0013544372
0.00067686707
8.9652438e-06
8.4190036e-09
7.1538794e-09
6.6396421e-09
6.6314478e-09
6.5403821e-09
6.6413985e-09
6.6867523e-09
6.8327519e-09
6.9707983e-09
7.1680805e-09
7.3962163e-09
7.6782334e-09
8.0091713e-09
8.3921486e-09
8.811889e-09
9.2416415e-09
9.6438958e-09
9.9858047e-09
1.0222843e-08
1.0325715e-08
1.0324999e-08
1.0243303e-08
1.0102547e-08
9.9302955e-09
9.7487751e-09
9.5736548e-09
9.4127972e-09
9.2702646e-09
9.1486123e-09
9.0430763e-09
8.9464682e-09
8.8605364e-09
8.7748853e-09
8.6912064e-09
8.6041748e-09
8.5463041e-09
8.512855e-09
8.4960084e-09
8.4887104e-09
8.4857614e-09
8.5058578e-09
8.5607707e-09
8.59271e-09
8.6111557e-09
8.6203087e-09
8.6221238e-09
0.00098948249
0.001296021
0.00057115925
2.8138791e-06
8.1397014e-09
7.2594229e-09
6.7615907e-09
6.7623431e-09
6.6819482e-09
6.7906204e-09
6.8471423e-09
7.0024584e-09
7.1545932e-09
7.36614e-09
7.6123418e-09
7.9140399e-09
8.2662481e-09
8.6687096e-09
9.1015727e-09
9.5334341e-09
9.9260384e-09
1.0244381e-08
1.0436898e-08
1.0496811e-08
1.0460153e-08
1.0344586e-08
1.0176824e-08
9.9840771e-09
9.78765e-09
9.601848e-09
9.4332385e-09
9.2849825e-09
9.159159e-09
9.050446e-09
8.9515095e-09
8.861328e-09
8.7736651e-09
8.6857679e-09
8.5980265e-09
8.5438097e-09
8.5128984e-09
8.4975392e-09
8.4915313e-09
8.4891402e-09
8.5166769e-09
8.5680138e-09
8.5975126e-09
8.6143356e-09
8.6226399e-09
8.6243219e-09
0.00099368711
0.0012275046
0.00047245804
8.7298601e-07
8.0389448e-09
7.3704837e-09
6.8911773e-09
6.9015319e-09
6.8325314e-09
6.9495009e-09
7.0181662e-09
7.1836416e-09
7.3510679e-09
7.578188e-09
7.8437801e-09
8.1662327e-09
8.5403001e-09
8.9612529e-09
9.4042993e-09
9.8343746e-09
1.0213485e-08
1.0498348e-08
1.0641164e-08
1.0661407e-08
1.0586263e-08
1.0437725e-08
1.0244214e-08
1.0032346e-08
9.822249e-09
9.6267214e-09
9.4510161e-09
9.2975408e-09
9.1680772e-09
9.0568217e-09
8.9559344e-09
8.8615075e-09
8.7714869e-09
8.6789624e-09
8.5926335e-09
8.5416252e-09
8.5132171e-09
8.4995431e-09
8.4947289e-09
8.4931251e-09
8.5280356e-09
8.5749242e-09
8.6019279e-09
8.6172004e-09
8.6247395e-09
8.6263103e-09
0.00099836281
0.0011525636
0.00038238546
2.9383952e-07
8.0353795e-09
7.4897458e-09
7.0292967e-09
7.0499111e-09
6.99312e-09
7.1190056e-09
7.2008961e-09
7.3775255e-09
7.5614438e-09
7.8054734e-09
8.0917183e-09
8.4361073e-09
8.831995e-09
9.2696405e-09
9.7192463e-09
1.0143271e-08
1.0502919e-08
1.0744366e-08
1.0836691e-08
1.0817481e-08
1.0703046e-08
1.0522619e-08
1.0304839e-08
1.0075312e-08
9.8527693e-09
9.6483851e-09
9.466178e-09
9.3080728e-09
9.1756189e-09
9.0623875e-09
8.9583993e-09
8.8615274e-09
8.7682146e-09
8.6712203e-09
8.587938e-09
8.5399582e-09
8.5140861e-09
8.5020761e-09
8.498126e-09
8.4973457e-09
8.5391804e-09
8.5815365e-09
8.6060084e-09
8.6197696e-09
8.6265844e-09
8.628044e-09
0.0010030643
0.0010691727
0.00030121482
1.1631035e-07
8.08534e-09
7.6177317e-09
7.1770974e-09
7.2083443e-09
7.1647065e-09
7.3002408e-09
7.3964708e-09
7.5853766e-09
7.7869573e-09
8.0493464e-09
8.3575541e-09
8.7246416e-09
9.1419423e-09
9.593754e-09
1.0045851e-08
1.0459289e-08
1.0790336e-08
1.0979508e-08
1.102561e-08
1.0963231e-08
1.0810285e-08
1.0599374e-08
1.0358936e-08
1.0113228e-08
9.8793812e-09
9.6669317e-09
9.4789007e-09
9.3169738e-09
9.1822556e-09
9.0673793e-09
8.9593972e-09
8.8610676e-09
8.763935e-09
8.6631012e-09
8.5838326e-09
8.538895e-09
8.5153776e-09
8.5047471e-09
8.5014138e-09
8.5020986e-09
8.5498477e-09
8.5877767e-09
8.6097402e-09
8.6220103e-09
8.6281814e-09
8.6295261e-09
0.0010073886
0.00097831356
0.00023056198
5.7095806e-08
8.1672045e-09
7.7555307e-09
7.3354633e-09
7.3780319e-09
7.3484539e-09
7.4943813e-09
7.6061531e-09
7.8084884e-09
8.0290258e-09
8.3112041e-09
8.6426144e-09
9.0330602e-09
9.4703604e-09
9.9328944e-09
1.038295e-08