/*--------------------------------*- C++ -*----------------------------------*\
  =========                 |
  \\      /  F ield         | OpenFOAM: The Open Source CFD Toolbox
   \\    /   O peration     | Website:  https://openfoam.org
    \\  /    A nd           | Version:  8
     \\/     M anipulation  |
\*---------------------------------------------------------------------------*/
FoamFile
{
    version     2.0;
    format      ascii;
    class       volVectorField;
    location    "0.18001";
    object      cellDisplacement;
}
// * * * * * * * * * * * * * * * * * * * * * * * * * * * * * * * * * * * * * //

dimensions      [0 1 0 0 0 0 0];

internalField   nonuniform List<vector> 
20000
(
(-0.0026150394 0 -0.0019073224)
(-0.0026150185 0 -0.0019075817)
(-0.0026149789 0 -0.0019085447)
(-0.0026148949 0 -0.0019097499)
(-0.0026147465 0 -0.0019112411)
(-0.0026145059 0 -0.0019130898)
(-0.0026141348 0 -0.0019153881)
(-0.0026135805 0 -0.0019182579)
(-0.0026127717 0 -0.0019218602)
(-0.0026116113 0 -0.0019264128)
(-0.0026099695 0 -0.0019322103)
(-0.0026076728 0 -0.001939654)
(-0.002604492 0 -0.0019492899)
(-0.0026001267 0 -0.0019618613)
(-0.0025941871 0 -0.0019783767)
(-0.0025861748 0 -0.0020002011)
(-0.0025754606 0 -0.00202917)
(-0.0025612671 0 -0.0020677557)
(-0.0025426544 0 -0.0021192208)
(-0.0025185228 0 -0.0021878424)
(-0.0024876354 0 -0.0022791022)
(-0.0024486755 0 -0.0023998351)
(-0.002400347 0 -0.0025582196)
(-0.0023415203 0 -0.0027634834)
(-0.0022714142 0 -0.0030251466)
(-0.0021897839 0 -0.0033516883)
(-0.0020970687 0 -0.0037487294)
(-0.0019944659 0 -0.0042166695)
(-0.0018838518 0 -0.004748867)
(-0.0017676875 0 -0.0053302601)
(-0.0016487119 0 -0.005938334)
(-0.0015297157 0 -0.0065451656)
(-0.0014132752 0 -0.0071214062)
(-0.0013015601 0 -0.0076399596)
(-0.0011960481 0 -0.0080805816)
(-0.0010976892 0 -0.0084293514)
(-0.001006726 0 -0.0086800115)
(-0.00092298862 0 -0.0088311343)
(-0.00084585528 0 -0.0088838134)
(-0.00077450834 0 -0.0088393096)
(-0.00070801087 0 -0.0086996042)
(-0.00064517784 0 -0.0084616875)
(-0.00058442625 0 -0.0081172945)
(-0.00052527124 0 -0.0076620054)
(-0.00046610108 0 -0.0070816323)
(-0.00040394068 0 -0.0063477039)
(-0.00033758026 0 -0.0054411445)
(-0.00026120635 0 -0.0042974969)
(-0.00017245987 0 -0.0028678999)
(-6.1769748e-05 0 -0.0010280191)
(-0.0026060106 0 -0.0015479722)
(-0.0026059984 0 -0.0015485071)
(-0.0026059539 0 -0.001549161)
(-0.0026058629 0 -0.0015499698)
(-0.0026057053 0 -0.0015509889)
(-0.0026054526 0 -0.0015522817)
(-0.002605066 0 -0.001553933)
(-0.0026044916 0 -0.0015560559)
(-0.0026036568 0 -0.0015588022)
(-0.002602463 0 -0.0015623774)
(-0.0026007782 0 -0.0015670591)
(-0.0025984264 0 -0.0015732268)
(-0.0025951752 0 -0.0015813991)
(-0.0025907205 0 -0.0015922887)
(-0.0025846681 0 -0.0016068735)
(-0.0025765146 0 -0.0016264916)
(-0.0025656259 0 -0.0016529676)
(-0.0025512199 0 -0.0016887669)
(-0.0025323542 0 -0.0017371853)
(-0.0025079302 0 -0.0018025572)
(-0.002476719 0 -0.001890472)
(-0.0024374223 0 -0.0020079327)
(-0.0023887764 0 -0.0021633553)
(-0.002329701 0 -0.0023662767)
(-0.0022594801 0 -0.0026265883)
(-0.0021779406 0 -0.0029531942)
(-0.0020855885 0 -0.0033521543)
(-0.0019836541 0 -0.0038243621)
(-0.0018740105 0 -0.0043636344)
(-0.0017590537 0 -0.0049553713)
(-0.0016414216 0 -0.0055774084)
(-0.0015237812 0 -0.0062019757)
(-0.0014085984 0 -0.0067995141)
(-0.001297963 0 -0.0073423855)
(-0.0011933293 0 -0.0078093404)
(-0.0010956396 0 -0.0081854668)
(-0.0010051737 0 -0.0084634257)
(-0.00092179607 0 -0.0086409457)
(-0.00084492722 0 -0.0087185826)
(-0.00077378334 0 -0.0086973496)
(-0.00070743889 0 -0.008578906)
(-0.0006447387 0 -0.008360452)
(-0.00058414965 0 -0.0080341532)
(-0.0005250915 0 -0.0075950623)
(-0.00046597016 0 -0.0070291044)
(-0.00040392554 0 -0.006308682)
(-0.00033753552 0 -0.0054128991)
(-0.0002612573 0 -0.0042794394)
(-0.00017235577 0 -0.0028562202)
(-6.1447809e-05 0 -0.0010203525)
(-0.0025957817 0 -0.0011964148)
(-0.0025957642 0 -0.0011967294)
(-0.0025957126 0 -0.0011971145)
(-0.0025956128 0 -0.0011976103)
(-0.0025954438 0 -0.0011982542)
(-0.0025951765 0 -0.0011990963)
(-0.002594771 0 -0.0012002071)
(-0.0025941725 0 -0.0012016832)
(-0.0025933065 0 -0.0012036588)
(-0.0025920727 0 -0.0012063208)
(-0.0025903369 0 -0.0012099275)
(-0.0025879199 0 -0.0012148383)
(-0.0025845861 0 -0.0012215506)
(-0.0025800268 0 -0.0012307561)
(-0.0025738435 0 -0.0012434101)
(-0.0025655269 0 -0.0012608316)
(-0.0025544381 0 -0.0012848348)
(-0.0025397898 0 -0.0013178865)
(-0.0025206374 0 -0.0013633083)
(-0.0024958839 0 -0.0014254955)
(-0.0024643095 0 -0.0015101485)
(-0.0024246363 0 -0.0016244399)
(-0.0023756365 0 -0.0017770239)
(-0.0023162835 0 -0.0019777383)
(-0.0022459313 0 -0.0022368268)
(-0.0021644834 0 -0.0025635861)
(-0.0020725159 0 -0.0029644646)
(-0.001971295 0 -0.0034407915)
(-0.0018626895 0 -0.0039867796)
(-0.0017490299 0 -0.0045882486)
(-0.0016328482 0 -0.0052233816)
(-0.0015166849 0 -0.0058645881)
(-0.0014028887 0 -0.0064821825)
(-0.0012934639 0 -0.007048081)
(-0.0011898327 0 -0.0075401519)
(-0.0010929281 0 -0.0079425523)
(-0.001003061 0 -0.0082469236)
(-0.00092013087 0 -0.0084501581)
(-0.00084359983 0 -0.0085522555)
(-0.00077271989 0 -0.0085539417)
(-0.00070657986 0 -0.0084565496)
(-0.00064405462 0 -0.0082574266)
(-0.00058365836 0 -0.0079491154)
(-0.00052472954 0 -0.0075262103)
(-0.00046568733 0 -0.0069747178)
(-0.00040377628 0 -0.006267826)
(-0.00033738759 0 -0.0053830364)
(-0.00026121855 0 -0.0042599299)
(-0.00017220117 0 -0.0028436112)
(-6.1126206e-05 0 -0.0010126194)
(-0.0025843861 0 -0.00085245637)
(-0.0025843611 0 -0.00085254087)
(-0.0025843 0 -0.00085265272)
(-0.0025841883 0 -0.0008528252)
(-0.0025840045 0 -0.0008530871)
(-0.0025837188 0 -0.00085347807)
(-0.0025832899 0 -0.00085405509)
(-0.002582662 0 -0.00085489958)
(-0.0025817587 0 -0.00085612865)
(-0.0025804778 0 -0.0008579079)
(-0.002578682 0 -0.00086047472)
(-0.0025761893 0 -0.00086416416)
(-0.0025727598 0 -0.00086945098)
(-0.0025680805 0 -0.00087700277)
(-0.0025617471 0 -0.00088775461)
(-0.0025532451 0 -0.00090301252)
(-0.002541929 0 -0.00092457728)
(-0.0025270071 0 -0.00095492773)
(-0.0025075321 0 -0.00099741264)
(-0.0024824092 0 -0.0010564956)
(-0.0024504291 0 -0.001137992)
(-0.0024103369 0 -0.0012492484)
(-0.0023609442 0 -0.0013991565)
(-0.0023012826 0 -0.0015978478)
(-0.0022307809 0 -0.0018558986)
(-0.0021494249 0 -0.0021829584)
(-0.002057864 0 -0.0025858169)
(-0.0019574024 0 -0.0030661696)
(-0.0018499034 0 -0.0036185681)
(-0.0017376297 0 -0.00422921)
(-0.0016230044 0 -0.0048766135)
(-0.0015084363 0 -0.0055334017)
(-0.0013961522 0 -0.006169833)
(-0.0012880651 0 -0.0067574748)
(-0.001185559 0 -0.0072734282)
(-0.0010895528 0 -0.007700994)
(-0.0010003854 0 -0.0080308523)
(-0.00091798985 0 -0.0082590741)
(-0.0008418704 0 -0.0083850888)
(-0.00077131515 0 -0.0084092988)
(-0.00070543171 0 -0.0083327086)
(-0.00064312371 0 -0.0081527506)
(-0.00058295156 0 -0.0078622978)
(-0.0005241841 0 -0.007455539)
(-0.00046525175 0 -0.006918543)
(-0.00040349232 0 -0.0062251901)
(-0.00033713647 0 -0.0053516004)
(-0.00026109065 0 -0.0042389999)
(-0.0001719965 0 -0.0028300914)
(-6.0804339e-05 0 -0.0010048053)
(-0.002571864 0 -0.00051595413)
(-0.0025718305 0 -0.00051582496)
(-0.0025717587 0 -0.00051568131)
(-0.0025716332 0 -0.00051554625)
(-0.0025714317 0 -0.00051543644)
(-0.0025711236 0 -0.00051538187)
(-0.0025706664 0 -0.00051542651)
(-0.0025700028 0 -0.00051563877)
(-0.0025690548 0 -0.00051611904)
(-0.0025677177 0 -0.00051701649)
(-0.0025658515 0 -0.00051854756)
(-0.0025632707 0 -0.00052102642)
(-0.0025597311 0 -0.00052490432)
(-0.0025549147 0 -0.00053082554)
(-0.0025484114 0 -0.00053970516)
(-0.0025397 0 -0.00055282881)
(-0.0025281292 0 -0.00057199904)
(-0.0025129014 0 -0.00059969623)
(-0.002493067 0 -0.00063930853)
(-0.0024675342 0 -0.00069537084)
(-0.0024351057 0 -0.00077382016)
(-0.002394552 0 -0.00088218313)
(-0.0023447279 0 -0.0010295916)
(-0.0022847281 0 -0.001226463)
(-0.0022140614 0 -0.0014836866)
(-0.0021328009 0 -0.0018112253)
(-0.0020416713 0 -0.0022161612)
(-0.0019420169 0 -0.0027004923)
(-0.001835693 0 -0.0032590475)
(-0.0017248925 0 -0.0038783586)
(-0.0016119247 0 -0.0045372712)
(-0.0014990642 0 -0.0052086407)
(-0.0013884108 0 -0.0058627412)
(-0.0012817825 0 -0.0064708777)
(-0.0011805172 0 -0.0070094992)
(-0.0010855187 0 -0.007461118)
(-0.00099714825 0 -0.0078155172)
(-0.00091537272 0 -0.008067968)
(-0.00083973714 0 -0.008217321)
(-0.00076956746 0 -0.0082636257)
(-0.00070399197 0 -0.0082075497)
(-0.00064194402 0 -0.0080465614)
(-0.00058202782 0 -0.0077738122)
(-0.00052345406 0 -0.0073831368)
(-0.0004646617 0 -0.0068606427)
(-0.00040307378 0 -0.0061808327)
(-0.00033678035 0 -0.0053186148)
(-0.00026087385 0 -0.0042166813)
(-0.00017174084 0 -0.0028156682)
(-6.0480945e-05 0 -0.00099690649)
(-0.0025582476 0 -0.0001867347)
(-0.0025582026 0 -0.000186373)
(-0.0025581164 0 -0.00018595388)
(-0.0025579733 0 -0.00018549494)
(-0.0025577504 0 -0.00018500664)
(-0.0025574157 0 -0.00018450683)
(-0.0025569257 0 -0.00018402791)
(-0.0025562213 0 -0.00018362217)
(-0.0025552223 0 -0.00018337381)
(-0.0025538214 0 -0.00018341137)
(-0.0025518756 0 -0.000183931)
(-0.0025491953 0 -0.00018522342)
(-0.0025455317 0 -0.00018771722)
(-0.0025405611 0 -0.00019203455)
(-0.0025338673 0 -0.0001990691)
(-0.0025249225 0 -0.00021009665)
(-0.002513068 0 -0.00022690755)
(-0.0024975013 0 -0.00025200338)
(-0.0024772701 0 -0.00028880835)
(-0.0024512865 0 -0.00034193885)
(-0.0024183669 0 -0.0004174616)
(-0.00237731 0 -0.00052309034)
(-0.0023270179 0 -0.00066819844)
(-0.002266653 0 -0.00086348235)
(-0.0021958094 0 -0.0011201206)
(-0.0021146515 0 -0.001448352)
(-0.0020239818 0 -0.0018555003)
(-0.001925185 0 -0.0023437987)
(-0.0018201056 0 -0.0029082994)
(-0.0017108632 0 -0.0035358269)
(-0.0015996502 0 -0.004205538)
(-0.0014886033 0 -0.0048905451)
(-0.001379692 0 -0.0055611941)
(-0.0012746355 0 -0.0061886121)
(-0.0011747212 0 -0.0067486992)
(-0.001080834 0 -0.0072232572)
(-0.00099335434 0 -0.0076012324)
(-0.00091228121 0 -0.0078771245)
(-0.00083720051 0 -0.0080492007)
(-0.0007674759 0 -0.0081171327)
(-0.00070225962 0 -0.0080812466)
(-0.00064051407 0 -0.0079389983)
(-0.00058088622 0 -0.007683773)
(-0.00052253799 0 -0.0073090905)
(-0.00046391606 0 -0.0068010833)
(-0.0004025196 0 -0.0061348021)
(-0.00033631884 0 -0.0052841175)
(-0.00026056851 0 -0.0041930031)
(-0.00017143443 0 -0.0028003579)
(-6.0155703e-05 0 -0.00098891335)
(-0.0025435688 0 0.00013533275)
(-0.0025435116 0 0.00013590696)
(-0.0025434102 0 0.00013658039)
(-0.0025432479 0 0.00013734488)
(-0.0025430008 0 0.00013820198)
(-0.0025426359 0 0.00013914301)
(-0.0025421082 0 0.00014014849)
(-0.0025413566 0 0.00014117817)
(-0.002540299 0 0.00014216386)
(-0.0025388254 0 0.00014299299)
(-0.0025367891 0 0.00014348907)
(-0.0025339965 0 0.00014338134)
(-0.0025301937 0 0.0001422637)
(-0.002525051 0 0.00013953631)
(-0.0025181455 0 0.00013432379)
(-0.0025089417 0 0.00012536863)
(-0.0024967744 0 0.00011087543)
(-0.0024808346 0 8.8334149e-05)
(-0.0024601684 0 5.4270238e-05)
(-0.0024336924 0 3.9809428e-06)
(-0.0024002387 0 -6.874043e-05)
(-0.0023586375 0 -0.00017180267)
(-0.0023078421 0 -0.00031482456)
(-0.002247088 0 -0.00050877253)
(-0.0021760588 0 -0.00076509124)
(-0.0020950149 0 -0.0010942545)
(-0.0020048377 0 -0.0015037793)
(-0.0019069516 0 -0.0019960698)
(-0.001803187 0 -0.0025663444)
(-0.0016955864 0 -0.0032016795)
(-0.0015862213 0 -0.0038815321)
(-0.0014770882 0 -0.0045792845)
(-0.0013700233 0 -0.0052654109)
(-0.0012666452 0 -0.0059109355)
(-0.0011681851 0 -0.0064913115)
(-0.0010755077 0 -0.0069877)
(-0.00098900851 0 -0.0073882763)
(-0.0009087178 0 -0.0076867995)
(-0.00083426098 0 -0.0078809554)
(-0.00076504038 0 -0.0079700182)
(-0.00070023349 0 -0.0079539644)
(-0.00063883278 0 -0.0078301985)
(-0.00057952589 0 -0.0075922931)
(-0.00052143511 0 -0.0072334903)
(-0.00046301346 0 -0.0067399303)
(-0.00040182987 0 -0.0060871568)
(-0.00033575045 0 -0.0052481374)
(-0.00026017471 0 -0.0041679968)
(-0.00017107656 0 -0.0027841721)
(-5.9827317e-05 0 -0.00098082061)
(-0.0025278602 0 0.00045041595)
(-0.0025277877 0 0.00045122029)
(-0.0025276675 0 0.00045216539)
(-0.0025274823 0 0.0004532494)
(-0.0025272072 0 0.00045448025)
(-0.0025268081 0 0.00045586157)
(-0.002526238 0 0.00045738554)
(-0.0025254341 0 0.00045902745)
(-0.0025243116 0 0.00046073471)
(-0.0025227574 0 0.00046241403)
(-0.0025206208 0 0.00046390839)
(-0.0025177039 0 0.00046496886)
(-0.002513747 0 0.00046521081)
(-0.0025084141 0 0.00046405502)
(-0.0025012749 0 0.00046064553)
(-0.0024917863 0 0.00045373236)
(-0.0024792751 0 0.00044152819)
(-0.0024629272 0 0.00042149467)
(-0.0024417868 0 0.0003901071)
(-0.0024147767 0 0.00034256282)
(-0.0023807467 0 0.00027250529)
(-0.0023385615 0 0.00017182324)
(-0.0022872305 0 3.0648852e-05)
(-0.0022260663 0 -0.00016224362)
(-0.0021548475 0 -0.00041853736)
(-0.0020739338 0 -0.00074890226)
(-0.0019842863 0 -0.0011609963)
(-0.0018873674 0 -0.0016573301)
(-0.0017849887 0 -0.0022332393)
(-0.0016791119 0 -0.0028760129)
(-0.001571684 0 -0.003565392)
(-0.0014645588 0 -0.0042750475)
(-0.0013594376 0 -0.0049756244)
(-0.0012578363 0 -0.0056381181)
(-0.0011609275 0 -0.0062376247)
(-0.0010695524 0 -0.0067547421)
(-0.00098411897 0 -0.0071769351)
(-0.00090468711 0 -0.0074972587)
(-0.00083092116 0 -0.0077128219)
(-0.00076226174 0 -0.0078224866)
(-0.00069791388 0 -0.0078258748)
(-0.00063689961 0 -0.0077203017)
(-0.00057794649 0 -0.0074994878)
(-0.00052014449 0 -0.0071564249)
(-0.00046195307 0 -0.0066772524)
(-0.00040100365 0 -0.0060379471)
(-0.00033507483 0 -0.0052107132)
(-0.00025969283 0 -0.0041416921)
(-0.00017066742 0 -0.0027671269)
(-5.9495599e-05 0 -0.00097262126)
(-0.0025111577 0 0.00075864244)
(-0.0025110692 0 0.00075965944)
(-0.002510929 0 0.00076085844)
(-0.0025107189 0 0.00076224761)
(-0.0025104127 0 0.00076384626)
(-0.0025099749 0 0.00076566679)
(-0.0025093568 0 0.00076771383)
(-0.0025084937 0 0.00076997449)
(-0.0025072978 0 0.00077241186)
(-0.0025056529 0 0.00077494779)
(-0.0025034044 0 0.00077744455)
(-0.0025003492 0 0.00077967265)
(-0.0024962219 0 0.00078126877)
(-0.0024906795 0 0.00078167467)
(-0.0024832836 0 0.00078005165)
(-0.0024734827 0 0.00077516499)
(-0.0024605961 0 0.00076521771)
(-0.0024438036 0 0.00074765325)
(-0.002422149 0 0.00071887863)
(-0.0023945628 0 0.00067398058)
(-0.0023599145 0 0.00060644236)
(-0.002317107 0 0.00050794297)
(-0.0022652102 0 0.00036835945)
(-0.0022036189 0 0.0001762214)
(-0.0021322107 0 -8.0363651e-05)
(-0.0020514488 0 -0.00041222074)
(-0.0019623727 0 -0.00082709838)
(-0.0018664808 0 -0.0013275528)
(-0.0017655606 0 -0.0019089849)
(-0.0016614885 0 -0.0025588611)
(-0.0015560831 0 -0.0032571949)
(-0.0014510543 0 -0.0039779556)
(-0.001347967 0 -0.0046920022)
(-0.0012482342 0 -0.0053703669)
(-0.0011529666 0 -0.0059878764)
(-0.0010629807 0 -0.0065246333)
(-0.00097869382 0 -0.006967457)
(-0.0009001942 0 -0.0073087364)
(-0.00082718365 0 -0.0075450137)
(-0.00075914145 0 -0.0076747273)
(-0.00069530086 0 -0.0076971388)
(-0.00063471437 0 -0.0076094432)
(-0.00057614772 0 -0.0074054697)
(-0.00051866577 0 -0.0070779853)
(-0.00046073391 0 -0.0066131171)
(-0.00040004109 0 -0.0059872318)
(-0.0003342907 0 -0.0051718768)
(-0.00025912274 0 -0.0041141192)
(-0.00017020637 0 -0.002749236)
(-5.9159233e-05 0 -0.00096430932)
(-0.0024934908 0 0.0010601722)
(-0.0024933828 0 0.0010614186)
(-0.0024932187 0 0.0010628895)
(-0.0024929795 0 0.0010645982)
(-0.002492638 0 0.0010665704)
(-0.0024921569 0 0.0010688299)
(-0.002491486 0 0.0010713922)
(-0.0024905578 0 0.0010742604)
(-0.0024892817 0 0.0010774126)
(-0.0024875377 0 0.0010807899)
(-0.0024851668 0 0.0010842735)
(-0.0024819603 0 0.0010876556)
(-0.0024776464 0 0.0010905935)
(-0.0024718746 0 0.0010925491)
(-0.0024641981 0 0.0010927016)
(-0.0024540567 0 0.0010898221)
(-0.0024407611 0 0.0010821161)
(-0.0024234864 0 0.0010669866)
(-0.0024012771 0 0.0010407634)
(-0.0023730732 0 0.00099840404)
(-0.0023377663 0 0.00093322336)
(-0.0022943002 0 0.00083668776)
(-0.0022418114 0 0.00069841059)
(-0.0021797805 0 0.00050669708)
(-0.0021081888 0 0.00024947988)
(-0.0020276055 0 -8.4184456e-05)
(-0.0019391481 0 -0.00050208053)
(-0.0018443465 0 -0.00100675)
(-0.0017449588 0 -0.0015936157)
(-0.0016427705 0 -0.0022502882)
(-0.001539469 0 -0.0029570381)
(-0.0014366188 0 -0.0036881494)
(-0.0013356486 0 -0.0044147259)
(-0.0012378683 0 -0.0051079011)
(-0.001144325 0 -0.005742309)
(-0.0010558089 0 -0.0062976302)
(-0.0009727444 0 -0.0067600977)
(-0.00089524635 0 -0.0071214758)
(-0.00082305317 0 -0.007377752)
(-0.00075568205 0 -0.0075269352)
(-0.00069239601 0 -0.0075679234)
(-0.00063227749 0 -0.0074977614)
(-0.00057412985 0 -0.0073103538)
(-0.0005169985 0 -0.0069982615)
(-0.00045935545 0 -0.0065475947)
(-0.0003989414 0 -0.0059350629)
(-0.00033339777 0 -0.0051316682)
(-0.00025846486 0 -0.0040853094)
(-0.00016969357 0 -0.0027305156)
(-5.8818121e-05 0 -0.00095587976)
(-0.0024748877 0 0.0013551255)
(-0.0024747597 0 0.0013565833)
(-0.0024745707 0 0.001358307)
(-0.0024743007 0 0.0013603193)
(-0.002473921 0 0.0013626569)
(-0.0024733926 0 0.0013653529)
(-0.0024726633 0 0.0013684348)
(-0.002471663 0 0.0013719171)
(-0.0024702981 0 0.0013757937)
(-0.0024684447 0 0.0013800212)
(-0.002465939 0 0.0013844992)
(-0.0024625665 0 0.0013890392)
(-0.0024580485 0 0.0013933196)
(-0.0024520262 0 0.001396823)
(-0.0024440439 0 0.0013987449)
(-0.0024335316 0 0.0013978702)
(-0.0024197922 0 0.0013923915)
(-0.0024019957 0 0.001379679)
(-0.0023791913 0 0.0013559454)
(-0.0023503291 0 0.001316006)
(-0.0023143241 0 0.0012530068)
(-0.0022701654 0 0.0011582033)
(-0.0022170619 0 0.0010209242)
(-0.0021545835 0 0.00082928403)
(-0.0020828193 0 0.00057107519)
(-0.0020024479 0 0.00023527374)
(-0.0019146615 0 -0.00018589116)
(-0.001821017 0 -0.00069488534)
(-0.0017232367 0 -0.0012871125)
(-0.0016230103 0 -0.0019502982)
(-0.0015218902 0 -0.0026649602)
(-0.0014212954 0 -0.0034057053)
(-0.0013225183 0 -0.0041439144)
(-0.0012267673 0 -0.0048508791)
(-0.0011350246 0 -0.0055011142)
(-0.0010480529 0 -0.0060739431)
(-0.00096628171 0 -0.0065550734)
(-0.00088985104 0 -0.0069356872)
(-0.00081853433 0 -0.0072112336)
(-0.0007518865 0 -0.0073792886)
(-0.00068920065 0 -0.0074383833)
(-0.00062958966 0 -0.0073853881)
(-0.0005718932 0 -0.0072142512)
(-0.00051514276 0 -0.0069173448)
(-0.00045781707 0 -0.0064807547)
(-0.00039770478 0 -0.0058814997)
(-0.00033239504 0 -0.0050901231)
(-0.00025771898 0 -0.004055293)
(-0.00016912845 0 -0.002710981)
(-5.8471001e-05 0 -0.00094732739)
(-0.0024553791 0 0.0016436559)
(-0.0024552274 0 0.0016453412)
(-0.0024550096 0 0.0016473333)
(-0.0024547046 0 0.0016496612)
(-0.0024542824 0 0.0016523681)
(-0.0024537022 0 0.0016554988)
(-0.0024529094 0 0.0016590924)
(-0.002451831 0 0.0016631789)
(-0.00245037 0 0.001667767)
(-0.002448398 0 0.0016728326)
(-0.002445746 0 0.0016782938)
(-0.0024421933 0 0.0016839832)
(-0.0024374534 0 0.0016896001)
(-0.0024311588 0 0.0016946471)
(-0.0024228441 0 0.001698338)
(-0.002411929 0 0.0016994659)
(-0.0023977079 0 0.0016962224)
(-0.0023793481 0 0.0016859321)
(-0.0023559094 0 0.0016646167)
(-0.0023263508 0 0.0016269511)
(-0.0022896108 0 0.0015659306)
(-0.002244728 0 0.0014726086)
(-0.0021909927 0 0.0013359838)
(-0.0021280644 0 0.0011440371)
(-0.002056145 0 0.00088445884)
(-0.001976025 0 0.00054617166)
(-0.0018889677 0 0.00012147736)
(-0.0017965508 0 -0.00039196052)
(-0.001700454 0 -0.00098948953)
(-0.0016022655 0 -0.0016589251)
(-0.0015034003 0 -0.0023810202)
(-0.0014051316 0 -0.0031307198)
(-0.0013086165 0 -0.003879701)
(-0.001214964 0 -0.0045994715)
(-0.0011250911 0 -0.0052644896)
(-0.0010397321 0 -0.0058537886)
(-0.00095931981 0 -0.0063526067)
(-0.00088401794 0 -0.0067515883)
(-0.00081363376 0 -0.0070456616)
(-0.00074775895 0 -0.0072319703)
(-0.00068571755 0 -0.0073086784)
(-0.00062665226 0 -0.0072724582)
(-0.00056943864 0 -0.0071172751)
(-0.00051309861 0 -0.0068353254)
(-0.0004561186 0 -0.0064126684)
(-0.00039633068 0 -0.0058265958)
(-0.00033128231 0 -0.0050472825)
(-0.0002568855 0 -0.0040241023)
(-0.0001685112 0 -0.0026906498)
(-5.8117796e-05 0 -0.00093864797)
(-0.0024349938 0 0.0019258799)
(-0.0024348178 0 0.0019277763)
(-0.0024345701 0 0.0019300204)
(-0.002434228 0 0.0019326506)
(-0.00243376 0 0.0019357213)
(-0.0024331232 0 0.001939286)
(-0.0024322607 0 0.0019433966)
(-0.0024310965 0 0.0019480945)
(-0.0024295299 0 0.001953404)
(-0.0024274282 0 0.001959316)
(-0.0024246166 0 0.0019657681)
(-0.0024208677 0 0.0019726118)
(-0.0024158865 0 0.0019795685)
(-0.0024092963 0 0.001986162)
(-0.0024006204 0 0.0019916263)
(-0.0023892681 0 0.0019947675)
(-0.002374524 0 0.0019937823)
(-0.0023555539 0 0.0019859903)
(-0.0023314475 0 0.0019669782)
(-0.0023011576 0 0.0019313992)
(-0.0022636473 0 0.0018721306)
(-0.0022180109 0 0.0017800374)
(-0.0021636329 0 0.0016436857)
(-0.0021002576 0 0.0014510333)
(-0.002028206 0 0.0011896969)
(-0.0019483839 0 0.00084856663)
(-0.0018621192 0 0.00042007395)
(-0.0017710036 0 -9.7930999e-05)
(-0.0016766674 0 -0.00070070977)
(-0.0015805915 0 -0.0013761468)
(-0.0014840505 0 -0.002105222)
(-0.0013881727 0 -0.0028632285)
(-0.0012939818 0 -0.0036221596)
(-0.00120249 0 -0.0043537902)
(-0.001114549 0 -0.0050325828)
(-0.0010308649 0 -0.0056373374)
(-0.00095187206 0 -0.0061528805)
(-0.00087775656 0 -0.0065693632)
(-0.00080835782 0 -0.0068812128)
(-0.00074330375 0 -0.0070851443)
(-0.0006819492 0 -0.0071789545)
(-0.0006234668 0 -0.0071590982)
(-0.00056676709 0 -0.0070195339)
(-0.00051086653 0 -0.0067522935)
(-0.00045425977 0 -0.0063434059)
(-0.00039481938 0 -0.0057704111)
(-0.0003300588 0 -0.0050031849)
(-0.00025596416 0 -0.003991768)
(-0.00016784125 0 -0.002669538)
(-5.7757306e-05 0 -0.00092983751)
(-0.0024137573 0 0.0022019422)
(-0.0024135537 0 0.0022040623)
(-0.0024132721 0 0.0022065714)
(-0.0024128889 0 0.0022095147)
(-0.0024123706 0 0.0022129542)
(-0.0024116725 0 0.0022169541)
(-0.0024107349 0 0.0022215774)
(-0.0024094785 0 0.0022268805)
(-0.0024077986 0 0.0022329023)
(-0.0024055572 0 0.0022396521)
(-0.0024025736 0 0.0022470864)
(-0.0023986126 0 0.0022550782)
(-0.0023933707 0 0.002263371)
(-0.0023864602 0 0.0022715116)
(-0.0023773931 0 0.002278753)
(-0.0023655658 0 0.0022839218)
(-0.0023502542 0 0.0022851955)
(-0.0023306829 0 0.002279316)
(-0.002305899 0 0.002262287)
(-0.0022748472 0 0.0022285637)
(-0.0022365296 0 0.0021708494)
(-0.0021901067 0 0.0020798287)
(-0.0021350155 0 0.0019440879)
(-0.0020712023 0 0.001750305)
(-0.0019990484 0 0.0014868141)
(-0.0019195777 0 0.0011424714)
(-0.0018341748 0 0.00070991034)
(-0.0017444377 0 0.00018721429)
(-0.0016519397 0 -0.00042076652)
(-0.0015580487 0 -0.0011019681)
(-0.0014638966 0 -0.0018375889)
(-0.0013704687 0 -0.002603286)
(-0.0012786566 0 -0.0033713781)
(-0.0011893803 0 -0.0041139599)
(-0.0011034266 0 -0.0048055471)
(-0.0010214731 0 -0.0054247663)
(-0.00094395475 0 -0.0059560835)
(-0.00087107862 0 -0.0063892024)
(-0.00080271487 0 -0.0067180702)
(-0.00073852648 0 -0.0069389794)
(-0.00067789949 0 -0.0070493622)
(-0.00062003561 0 -0.0070454378)
(-0.00056388003 0 -0.0069211379)
(-0.00050844712 0 -0.006668339)
(-0.00045224073 0 -0.0062730395)
(-0.00039317055 0 -0.0057130004)
(-0.00032872439 0 -0.0049578725)
(-0.00025495539 0 -0.0039583238)
(-0.00016711882 0 -0.0026476642)
(-5.7389523e-05 0 -0.00092089332)
(-0.0023917024 0 0.0024719619)
(-0.002391469 0 0.0024743017)
(-0.002391151 0 0.0024770718)
(-0.0023907233 0 0.0024803251)
(-0.0023901505 0 0.0024841322)
(-0.0023893857 0 0.0024885674)
(-0.0023883663 0 0.0024937054)
(-0.0023870096 0 0.0024996151)
(-0.0023852064 0 0.0025063515)
(-0.0023828135 0 0.0025139405)
(-0.0023796436 0 0.0025223582)
(-0.0023754532 0 0.0025314989)
(-0.0023699291 0 0.0025411296)
(-0.0023626719 0 0.0025508222)
(-0.0023531801 0 0.0025598594)
(-0.0023408396 0 0.0025670671)
(-0.0023249907 0 0.0025700799)
(-0.0023048188 0 0.002565795)
(-0.0022793081 0 0.0025504861)
(-0.0022474494 0 0.0025184249)
(-0.0022082814 0 0.0024620804)
(-0.0021610257 0 0.0023718855)
(-0.0021052095 0 0.0022365552)
(-0.0020409349 0 0.0020419048)
(-0.001968715 0 0.0017758616)
(-0.001889657 0 0.0014279331)
(-0.0018051906 0 0.00099103292)
(-0.0017169119 0 0.0004635267)
(-0.00162633 0 -0.00014960715)
(-0.001534694 0 -0.00083634351)
(-0.0014429913 0 -0.0015780937)
(-0.0013520662 0 -0.0023508926)
(-0.0012626811 0 -0.0031273903)
(-0.0011756681 0 -0.0038800508)
(-0.0010917502 0 -0.0045834888)
(-0.001011577 0 -0.0052162082)
(-0.00093558312 0 -0.0057623657)
(-0.00086399529 0 -0.0062112634)
(-0.00079671275 0 -0.00655639)
(-0.00073343271 0 -0.0067936243)
(-0.00067357193 0 -0.0069200372)
(-0.00061636096 0 -0.006931597)
(-0.00056077895 0 -0.0068221916)
(-0.00050584123 0 -0.0065835502)
(-0.00045006159 0 -0.0062016396)
(-0.0003913846 0 -0.0056544241)
(-0.00032727856 0 -0.0049113868)
(-0.00025385893 0 -0.0039238018)
(-0.00016634339 0 -0.0026250463)
(-5.7013255e-05 0 -0.00091181185)
(-0.0023688507 0 0.0027360654)
(-0.0023685854 0 0.0027386236)
(-0.0023682283 0 0.0027416534)
(-0.0023677526 0 0.002745215)
(-0.0023671213 0 0.0027493879)
(-0.0023662847 0 0.0027542565)
(-0.0023651774 0 0.0027599073)
(-0.0023637127 0 0.0027664224)
(-0.0023617769 0 0.0027738722)
(-0.0023592209 0 0.0027822995)
(-0.0023558501 0 0.0027916999)
(-0.0023514124 0 0.0028019896)
(-0.0023455835 0 0.0028129609)
(-0.0023379507 0 0.0028242184)
(-0.0023279996 0 0.002835066)
(-0.0023151728 0 0.0028438945)
(-0.002298782 0 0.00284841)
(-0.0022779249 0 0.0028459396)
(-0.0022516363 0 0.0028323419)
(-0.0022189229 0 0.0028018152)
(-0.0021788646 0 0.0027466353)
(-0.0021307573 0 0.0026569555)
(-0.0020742502 0 0.0025211517)
(-0.0020094718 0 0.0023258659)
(-0.0019372553 0 0.002056854)
(-0.0018586794 0 0.0017049589)
(-0.0017752292 0 0.0012634579)
(-0.0016884913 0 0.00073103102)
(-0.0015999035 0 0.0001127972)
(-0.0015105898 0 -0.00057924957)
(-0.0014213919 0 -0.0013267255)
(-0.0013330165 0 -0.0021060642)
(-0.001246099 0 -0.0028902418)
(-0.0011613902 0 -0.003652144)
(-0.0010795496 0 -0.0043665194)
(-0.0010012001 0 -0.0050118007)
(-0.00092677514 0 -0.0055718819)
(-0.00085651995 0 -0.0060357086)
(-0.00079036127 0 -0.0063963332)
(-0.00072802929 0 -0.0066492317)
(-0.00066897143 0 -0.0067911193)
(-0.000612446 0 -0.0068176989)
(-0.00055746592 0 -0.0067228015)
(-0.00050304997 0 -0.006498016)
(-0.00044772284 0 -0.0061292788)
(-0.00038946144 0 -0.0055947383)
(-0.0003257213 0 -0.0048637713)
(-0.00025267517 0 -0.0038882358)
(-0.00016551516 0 -0.0026017031)
(-5.6628555e-05 0 -0.00090259178)
(-0.0023452263 0 0.0029943745)
(-0.0023449266 0 0.0029971515)
(-0.0023445273 0 0.0030004411)
(-0.0023440002 0 0.003004311)
(-0.002343306 0 0.0030088493)
(-0.0023423925 0 0.0030141506)
(-0.0023411908 0 0.0030203124)
(-0.0023396104 0 0.0030274308)
(-0.0023375325 0 0.0030355905)
(-0.0023348016 0 0.0030448519)
(-0.0023312155 0 0.0030552293)
(-0.0023265122 0 0.0030666613)
(-0.0023203554 0 0.0030789671)
(-0.0023123173 0 0.003091793)
(-0.0023019248 0 0.0031041561)
(-0.0022886093 0 0.0031143968)
(-0.0022715964 0 0.0031206446)
(-0.0022500121 0 0.0031199214)
(-0.0022228984 0 0.0031079642)
(-0.0021892838 0 0.0030788429)
(-0.0021482974 0 0.0030246288)
(-0.0020993214 0 0.0029351509)
(-0.0020421121 0 0.0027985044)
(-0.0019769203 0 0.0026016318)
(-0.0019047179 0 0.0023298401)
(-0.0018267001 0 0.0019735915)
(-0.0017443501 0 0.0015272366)
(-0.0016592374 0 0.00098979326)
(-0.001572721 0 0.00036651982)
(-0.001485794 0 -0.0003306141)
(-0.0013991515 0 -0.0010834252)
(-0.0013133667 0 -0.0018687656)
(-0.001228951 0 -0.0026599271)
(-0.0011465805 0 -0.0034302692)
(-0.0010668525 0 -0.0041547047)
(-0.0009903642 0 -0.0048116396)
(-0.00091754743 0 -0.0053847487)
(-0.0008486651 0 -0.0058626673)
(-0.0007836695 0 -0.0062380337)
(-0.00072232284 0 -0.0065059334)
(-0.00066410245 0 -0.0066627323)
(-0.00060829373 0 -0.0067038555)
(-0.00055394296 0 -0.0066230672)
(-0.00050007458 0 -0.0064118223)
(-0.00044522493 0 -0.0060560275)
(-0.00038740163 0 -0.0055340039)
(-0.00032405229 0 -0.0048150697)
(-0.00025140391 0 -0.00385166)
(-0.00016463367 0 -0.0025776543)
(-5.6234285e-05 0 -0.00089323078)
(-0.0023208533 0 0.0032470077)
(-0.0023205167 0 0.0032500029)
(-0.0023200724 0 0.0032535514)
(-0.0023194903 0 0.0032577286)
(-0.0023187288 0 0.0032626311)
(-0.0023177329 0 0.0032683632)
(-0.0023164304 0 0.0032750342)
(-0.0023147264 0 0.0032827529)
(-0.0023124966 0 0.0032916186)
(-0.0023095789 0 0.0033017075)
(-0.0023057629 0 0.0033130507)
(-0.0023007766 0 0.0033256031)
(-0.0022942715 0 0.0033391939)
(-0.0022858278 0 0.0033534619)
(-0.0022749908 0 0.0033671671)
(-0.0022611198 0 0.0033790142)
(-0.0022434468 0 0.0033869358)
(-0.002221093 0 0.0033878792)
(-0.0021931077 0 0.0033774669)
(-0.0021585469 0 0.0033496109)
(-0.0021165975 0 0.0032961643)
(-0.0020667435 0 0.0032065563)
(-0.0020088486 0 0.0030686774)
(-0.0019433304 0 0.0028692144)
(-0.0018711358 0 0.0025948122)
(-0.0017937813 0 0.0022338321)
(-0.0017126196 0 0.0017823903)
(-0.0016292178 0 0.0012398521)
(-0.001544849 0 0.00061160987)
(-0.0014603695 0 -9.0388421e-05)
(-0.0013763275 0 -0.00084815148)
(-0.001293168 0 -0.0016389791)
(-0.001211281 0 -0.0024364539)
(-0.001131276 0 -0.0032144685)
(-0.0010536892 0 -0.0039481181)
(-0.00097909362 0 -0.0046158263)
(-0.00090791911 0 -0.0052010878)
(-0.0008404453 0 -0.0056922745)
(-0.00077664837 0 -0.0060816301)
(-0.00071632123 0 -0.006363865)
(-0.00065897073 0 -0.006535004)
(-0.00060390803 0 -0.006590182)
(-0.00055021269 0 -0.0065230902)
(-0.00049691661 0 -0.0063250557)
(-0.00044256864 0 -0.0059819578)
(-0.00038520531 0 -0.0054722781)
(-0.00032227168 0 -0.0047653273)
(-0.00025004562 0 -0.0038141098)
(-0.00016369913 0 -0.0025529194)
(-5.5830521e-05 0 -0.00088372834)
(-0.0022957543 0 0.0034940818)
(-0.0022953783 0 0.0034972954)
(-0.0022948858 0 0.0035011033)
(-0.002294245 0 0.0035055877)
(-0.0022934117 0 0.003510854)
(-0.0022923281 0 0.0035170165)
(-0.0022909181 0 0.0035241955)
(-0.0022890821 0 0.0035325127)
(-0.0022866904 0 0.0035420818)
(-0.0022835735 0 0.0035529955)
(-0.0022795124 0 0.0035653033)
(-0.0022742242 0 0.0035789816)
(-0.0022673482 0 0.003593893)
(-0.0022584979 0 0.0036093761)
(-0.0022471763 0 0.003624507)
(-0.0022327187 0 0.0036378908)
(-0.0022143471 0 0.0036474121)
(-0.0021911795 0 0.0036499374)