/*--------------------------------*- C++ -*----------------------------------*\
  =========                 |
  \\      /  F ield         | OpenFOAM: The Open Source CFD Toolbox
   \\    /   O peration     | Website:  https://openfoam.org
    \\  /    A nd           | Version:  8
     \\/     M anipulation  |
\*---------------------------------------------------------------------------*/
FoamFile
{
    version     2.0;
    format      ascii;
    class       volScalarField;
    location    "0.18001";
    object      Ma;
}
// * * * * * * * * * * * * * * * * * * * * * * * * * * * * * * * * * * * * * //

dimensions      [0 0 0 0 0 0 0];

internalField   nonuniform List<scalar> 
20000
(
0.59630763
0.69653744
0.7629256
0.82157428
0.87758299
0.9321469
0.95670402
0.96192583
0.95807311
0.95905294
0.95630041
0.95586656
0.95328362
0.95166513
0.9487656
0.94599197
0.94228983
0.93820072
0.93328007
0.92764012
0.92110417
0.91358959
0.9050042
0.89505476
0.88391005
0.8717318
0.85886453
0.8455803
0.83226825
0.81941777
0.80746973
0.79674704
0.7874721
0.77970595
0.77340865
0.76847015
0.7647632
0.76179988
0.75964713
0.75840324
0.75785515
0.75776055
0.75796517
0.75832563
0.75900652
0.75962688
0.75989022
0.75930571
0.75960157
0.75612475
0.59897839
0.70002962
0.76738988
0.82676246
0.88317339
0.93788764
0.95974128
0.96459872
0.96067114
0.96167656
0.9588606
0.95840957
0.95576863
0.95409342
0.95112802
0.94826706
0.94448293
0.94028985
0.935265
0.92948494
0.92274479
0.91489576
0.90574789
0.89530334
0.88392021
0.87156545
0.8584754
0.84495197
0.83148426
0.81856924
0.80664423
0.79601408
0.78686744
0.77923716
0.77306239
0.76824328
0.76459439
0.76156567
0.75954386
0.75847046
0.75793811
0.75783205
0.75805819
0.75844623
0.75928918
0.75986475
0.75985544
0.75948373
0.75949456
0.75611336
0.60276016
0.70503156
0.7730955
0.83300937
0.88971951
0.94411143
0.96276343
0.96713709
0.96309835
0.96410111
0.9612083
0.96072352
0.95802406
0.95628597
0.95325788
0.95031097
0.94645059
0.9421496
0.93698928
0.93099613
0.92393981
0.91566353
0.90612269
0.89538977
0.88372635
0.87108552
0.85768554
0.84393397
0.83032779
0.81737756
0.80551122
0.79501098
0.78602969
0.77856953
0.77255301
0.76787944
0.76427204
0.76128953
0.75942966
0.75847649
0.75796241
0.75788624
0.75813576
0.75858337
0.75949686
0.75994314
0.75988784
0.75953037
0.75946443
0.75612228
0.60609548
0.70940281
0.77816722
0.83865519
0.89570809
0.94960341
0.9652325
0.96930903
0.96519736
0.96621949
0.96326859
0.9627565
0.96000633
0.95820593
0.95511896
0.95208806
0.94814025
0.94369509
0.93832838
0.93200706
0.92457344
0.91592835
0.90613712
0.8952009
0.88324088
0.87025125
0.85655845
0.84258939
0.82887448
0.81592678
0.8041604
0.79382998
0.78505038
0.77779161
0.77196351
0.76745595
0.76387935
0.76100558
0.75930329
0.75846105
0.75798851
0.7579469
0.75822342
0.75874941
0.75966902
0.76003366
0.75994314
0.75959807
0.75940994
0.75613188
0.60941097
0.71374662
0.78317203
0.8442048
0.90160629
0.95471214
0.96728163
0.97121558
0.96701453
0.96804392
0.96502897
0.96447191
0.96168001
0.95980947
0.95665583
0.95351842
0.94943389
0.94475479
0.93910799
0.93245328
0.92473932
0.91590059
0.90591232
0.89470903
0.88236192
0.86902741
0.85504346
0.84088174
0.82709206
0.81418884
0.8025667
0.79244803
0.78390745
0.77688241
0.77127397
0.76695232
0.76341005
0.76069872
0.75915551
0.75841223
0.7579891
0.75800157
0.75831194
0.75892526
0.75979277
0.76010365
0.76000885
0.75965196
0.75934571
0.75613456
0.61251495
0.71781418
0.7878699
0.84942501
0.90720659
0.95922676
0.96889945
0.97274663
0.9684561
0.96950224
0.96642335
0.96577316
0.9629923
0.96103889
0.95778845
0.95447891
0.95019655
0.94525609
0.93937414
0.93252624
0.92465542
0.91561309
0.90534718
0.89378632
0.88107516
0.86739654
0.85314191
0.83881644
0.8249923
0.8121796
0.80074824
0.79088391
0.78261894
0.77585899
0.77049871
0.76637698
0.76288552
0.76037242
0.75899516
0.75835147
0.75798694
0.75804137
0.75840544
0.75909954
0.75990254
0.76017362
0.76007138
0.75971462
0.75925918
0.7561278
0.61540317
0.72163627
0.79230609
0.85435634
0.91254573
0.96312243
0.97011558
0.97391986
0.96948708
0.97056742
0.96738245
0.96672943
0.96387584
0.96180416
0.95842232
0.95491937
0.95046595
0.94535945
0.93935757
0.9323623
0.92429709
0.9149658
0.90435888
0.8924387
0.87935429
0.86534457
0.85084136
0.83638871
0.82257558
0.80990305
0.79871078
0.78914359
0.78119004
0.77472607
0.76963946
0.76572062
0.76231697
0.76003002
0.75882697
0.75827737
0.75797073
0.75807927
0.75850195
0.7592687
0.76000268
0.76023852
0.76012922
0.75976979
0.75915219
0.75610836
0.61808143
0.72521021
0.79647518
0.85900339
0.91762604
0.96648024
0.97095849
0.9747353
0.97025825
0.97125435
0.96810296
0.96738091
0.96430933
0.96211053
0.9586193
0.95499637
0.95045823
0.94523524
0.9390934
0.93189607
0.9235492
0.91389569
0.90293643
0.89064042
0.87719076
0.86286468
0.84814261
0.83360453
0.81985254
0.80737251
0.79646846
0.78724058
0.77963292
0.77349514
0.76870398
0.76497739
0.76172136
0.75967713
0.75865116
0.75818269
0.75794536
0.75812539
0.75860214
0.75943402
0.76010056
0.76030215
0.76017904
0.75981462
0.75901988
0.75607567
0.6205359
0.72852601
0.80038473
0.86335945
0.92240997
0.96930942
0.97145801
0.97527612
0.97068898
0.97174675
0.96838349
0.96761841
0.96440627
0.96212409
0.95857432
0.95485154
0.9502141
0.94483761
0.93848796
0.93102246
0.92238467
0.91239236
0.90106416
0.88838924
0.87457837
0.85995613
0.84504942
0.83047302
0.81683603
0.80460268
0.79403599
0.78518821
0.77795934
0.77217695
0.76769926
0.76414828
0.76110898
0.75931676
0.7584638
0.75806543
0.75791678
0.7581666
0.75870587
0.75959445
0.76020037
0.7603634
0.76021958
0.75984412
0.75887194
0.7560296
0.62272968
0.73158379
0.80403629
0.86743461
0.92688546
0.97153076
0.97144934
0.97527501
0.97069014
0.97160824
0.96832482
0.96747411
0.96428737
0.96191401
0.95829034
0.95443471
0.94964692
0.94405696
0.93748337
0.92974314
0.92079006
0.91044427
0.89873755
0.8856796
0.8715173
0.85662298
0.84157134
0.82700824
0.81354313
0.80161164
0.79143069
0.783002
0.77618318
0.77078361
0.76663239
0.76324785
0.76048424
0.75895015
0.75826237
0.75793178
0.75788929
0.75821074
0.75881342
0.75974633
0.7602976
0.76042019
0.76025175
0.75986219
0.75870231
0.75597147
0.62479995
0.73452081
0.80757106
0.8713694
0.93114231
0.97324713
0.97131919
0.97519238
0.97046439
0.97144397
0.96802015
0.96706991
0.96390249
0.96140882
0.95767685
0.95365401
0.94870388
0.9428974
0.93607934
0.92804465
0.91876259
0.90805029
0.89595565
0.88251475
0.86801306
0.85287537
0.83772314
0.82322877
0.80999446
0.7984201
0.78867176
0.7806989
0.77431977
0.76932699
0.76550641
0.76229576
0.75985239
0.75857937
0.75804372
0.75778664
0.75786209
0.75825758
0.75892517
0.75988412
0.76038752
0.7604727
0.76027671
0.75987267
0.75851327
0.75590345
0.6267736
0.73734526
0.81099234
0.87517669
0.93512336
0.97450903
0.97090362
0.97481514
0.97002667
0.97095949
0.96746291
0.96643197
0.96317247
0.96055468
0.95671282
0.95251811
0.94738992
0.94134874
0.93427111
0.92592842
0.91630112
0.90521013
0.89272059
0.87889881
0.86407409
0.84872638
0.83352266
0.81915582
0.80621263
0.79505026
0.78577955
0.778297
0.77238549
0.76781808
0.76431907
0.76131484
0.75922127
0.75820435
0.75779814
0.75763512
0.75782325
0.7583079
0.75904151
0.76000377
0.76046622
0.76052105
0.76029372
0.75987724
0.7583089
0.75582821
0.62857495
0.73997207
0.81422825
0.87880692
0.93871157
0.97522582
0.97018927
0.97410512
0.96926923
0.97013436
0.96659042
0.9654586
0.96212525
0.95936927
0.95540446
0.95102261
0.9457032
0.93941509
0.93206204
0.92339617
0.91340959
0.90192889
0.8890389
0.8748415
0.85971395
0.84419433
0.82899243
0.8148145
0.80222333
0.79152663
0.78277616
0.77581594
0.77039743
0.76626638
0.76306698
0.76033038
0.75859692
0.75782532
0.75752592
0.75748342
0.75778962
0.75836228
0.75916229
0.76010482
0.76053045
0.76056276
0.76030219
0.75986594
0.75809212
0.75574792
0.63017922
0.74239831
0.81727976
0.88228366
0.94185728
0.9753814
0.96919561
0.97311862
0.96821089
0.96902313
0.96541379
0.96417723
0.96075716
0.95785028
0.95375221
0.94917225
0.94364794
0.93709913
0.92945549
0.92045246
0.91009239
0.89821179
0.88491765
0.87035286
0.85494728
0.83929893
0.82415637
0.81023111
0.79805318
0.78787443
0.77968422
0.77327575
0.76837156
0.7646787
0.76175734
0.75936298
0.75798318
0.75743245
0.7572359
0.757329
0.75775422
0.7584212
0.75928603
0.76018945
0.76057867
0.76058838
0.76030457
0.75982416
0.75786595
0.75566426
0.63164164
0.74465567
0.8201656
0.88564931
0.94453873
0.97499991
0.96792447
0.97184334
0.96685842
0.9675942
0.96393466
0.9625803
0.95906948
0.95600074
0.9517598
0.94697016
0.9412286
0.93440691
0.92645822
0.91710424
0.90635733
0.8940676
0.88036758
0.8654471
0.84979306
0.83406411
0.81904211
0.80543504
0.79373156
0.78412088
0.77652742
0.77069677
0.76632187
0.76305869
0.760416
0.75842282
0.75738152
0.7570175
0.75693832
0.75717164
0.75772233
0.75848476
0.75940911
0.76025957
0.7606127
0.7605983
0.76030269
0.75974702
0.75763316
0.75557894
0.63293257
0.74671037
0.82286167
0.88891889
0.94670198
0.97406318
0.96637733
0.97027812
0.96521401
0.96588765
0.96215258
0.96067096
0.95706422
0.95382454
0.94943219
0.94442363
0.93845249
0.93134568
0.92307703
0.91335806
0.90221103
0.88950381
0.87539854
0.86013793
0.84427033
0.82851405
0.81367775
0.80045649
0.78928865
0.7802932
0.77332868
0.76809755
0.76425884
0.76140767
0.75907831
0.75751423
0.75678577
0.75657953
0.75664214
0.75701212
0.75769455
0.75855289
0.75952843
0.76031526
0.76063406
0.76059943
0.76029613
0.75962809
0.7573974
0.75549359
0.63404024
0.7485526
0.82535447
0.89210898
0.94830297
0.97254818
0.96455617
0.96842651
0.96328473
0.96387525
0.960072
0.958454
0.95474835
0.95132985
0.94677847
0.94154111
0.93532808
0.92792367
0.91931991
0.90922182
0.89766185
0.88453013
0.87002301
0.85444245
0.83840163
0.82267657
0.80809485
0.79532904
0.7847569
0.7764191
0.7701102
0.76549449
0.7621903
0.75973187
0.7577774
0.75663862
0.75618217
0.75613154
0.75635288
0.75685795
0.75767275
0.75862534
0.7596432
0.76035797
0.76064234
0.76059433
0.76028122
0.75945975
0.75716293
0.75540983
0.6349804
0.75018654
0.82763876
0.89523294
0.94931207
0.97049899
0.96245557
0.96628591
0.96107873
0.96157379
0.95770191
0.95594061
0.95213309
0.94852806
0.94380837
0.93833262
0.93186386
0.92414824
0.91519333
0.90470148
0.89271596
0.8791542
0.86425195
0.8483768
0.83220918
0.81657957
0.80232578
0.79008688
0.78016742
0.77252335
0.76689157
0.76290076
0.76012271
0.75805371
0.75653387
0.7557898
0.75556254
0.75568745
0.75607542
0.7567231
0.75765785
0.75870171
0.75975161
0.7603935
0.7606354
0.76057566
0.76024888
0.75923134
0.75693397
0.75532883
0.63574112
0.75160899
0.82969818
0.89827962
0.94970338
0.96832278
0.96008584
0.96387164
0.95860282
0.9589967
0.95505854
0.95314528
0.94923107
0.94543001
0.94053175
0.934806
0.92806708
0.92002616
0.91070376
0.89980343
0.88738054
0.8733853
0.85809869
0.84196007
0.82571857
0.81025469
0.79640665
0.7847658
0.77554883
0.76862744
0.76369105
0.76032876
0.7580655
0.75641125
0.75534979
0.75495137
0.75493602
0.75525512
0.75581282
0.75661112
0.75765064
0.75878169
0.75984823
0.76042771
0.76062624
0.76053439
0.76019354
0.75894157
0.75671395
0.75525113
0.63636987
0.75287411
0.83156471
0.90127475
0.94950853
0.9659514
0.95747918
0.96120942
0.95588164
0.95616194
0.95215509
0.95007907
0.94605155
0.94204457
0.9369557
0.93096863
0.92394382
0.91556246
0.90585546
0.89453166
0.88166053
0.86723084
0.85157527
0.83521057
0.81895557
0.80373447
0.79037391
0.77939798
0.77092253
0.76474833
0.76052602
0.75779255
0.75603581
0.7548372
0.75421412
0.75411088
0.75432056
0.75483687
0.75556443
0.75651137
0.7576521
0.75886516
0.75992512
0.76045697
0.7606127
0.76047427
0.76011334
0.75860369
0.75650468
0.75517678
0.63686729
0.75399057
0.83324926
0.90419785
0.94870609
0.96320384
0.9546444
0.95830617
0.95291996
0.95307515
0.94899845
0.94674925
0.94260159
0.93837831
0.93308651
0.92682527
0.91949849
0.91076109
0.9006522
0.88889031
0.87556166
0.86069983
0.84469612
0.82814997
0.81194987
0.79705564
0.78426492
0.7740104
0.76630454
0.76090419
0.75741649
0.75531092
0.75406295
0.75334091
0.75310675
0.75327853
0.75372513
0.75443455
0.75532596
0.75641882
0.7576637
0.75895203
0.75997739
0.7604704
0.76059143
0.76040247
0.75999489
0.7582361
0.75630283
0.75510602
0.6372059
0.75494381
0.83475903
0.90700426
0.94732264
0.96024669
0.95158069
0.95516453
0.94972349
0.94974301
0.94559533
0.94316233
0.93888649
0.93443637
0.92892802
0.92238009
0.91473415
0.90562409
0.89509552
0.88288124
0.86908757
0.85379955
0.83747469
0.82080007
0.80473247
0.79025517
0.77811159
0.76862042
0.76171086
0.75712109
0.75438509
0.75290452
0.75217292
0.75190718
0.75201973
0.75247221
0.75315356
0.75404961
0.75509148
0.75633307
0.75768775
0.75904033
0.76001049
0.76046469
0.76055663
0.76033035
0.75981828
0.75785707
0.7561044
0.755038
0.6373927
0.75575511
0.83613352
0.90964497
0.94542456
0.95706188
0.94829848
0.95179418
0.94630081
0.94617243
0.94195101
0.93932284
0.93490979
0.9302223
0.9244834
0.91763505
0.9096522
0.90015234
0.88918643
0.87650639
0.86224257
0.84653889
0.8299272
0.81318686
0.79733884
0.7833709
0.77193887
0.76324163
0.75717258
0.75343645
0.75145594
0.75058897
0.75036623
0.75051971
0.75096732
0.75169884
0.75260943
0.75368472
0.75485936
0.75626017
0.75772758
0.75912707
0.76003397
0.76044673
0.76050344
0.76025642
0.75957996
0.75747847
0.75591108
0.75497263
0.63742233
0.75643891
0.83740693
0.91202551
0.94300698
0.95364659
0.94480704
0.94820109
0.94265625
0.94236579
0.93806794
0.93523332
0.93067425
0.92573868
0.91975431
0.91259122
0.90425249
0.89434485
0.88292394
0.86976568
0.8550292
0.83892578
0.82207023
0.80533802
0.78980513
0.77643506
0.76576172
0.75789579
0.75273853
0.74988571
0.74864338
0.7483644
0.74863072
0.74918373
0.74996025
0.7509621
0.75209493
0.75334371
0.75464168
0.75620509
0.75778688
0.75920902
0.76005117
0.76041613
0.76042962
0.76016631
0.75927642
0.75711035
0.75572465
0.75490968
0.63730699
0.75700775
0.8386323
0.91414158
0.94013865
0.95000899
0.94110295
0.94438235
0.93878936
0.93832464
0.93394829
0.93089732
0.92618221
0.92098745
0.91474104
0.90724741
0.89853327
0.88819965
0.87630653
0.86265902
0.84745104
0.83097063
0.8139249
0.79728641
0.78216921
0.76947329
0.75959482
0.75263147
0.74845803
0.74648873
0.7459406
0.74622719
0.7469697
0.74791099
0.74900166
0.75026453
0.75161088
0.7530291
0.75446775
0.75616829
0.75786698
0.75928033
0.76005996
0.76036846
0.76033617
0.76006449
0.75889257
0.75676033
0.75554505
0.75484816
0.63697568
0.75742286
0.83979313
0.91590601
0.93684684
0.94615012
0.93718825
0.94034241
0.9347047
0.93405412
0.92959606
0.92631798
0.92143486
0.91596816
0.90944182
0.90160118
0.89249139
0.88171305
0.86933078
0.85518451
0.83951056
0.82268435
0.80551444
0.78906658
0.77446454
0.76250143
0.75346853
0.74751255
0.74436279
0.74323659
0.74333982
0.74418767
0.74539315
0.74670354
0.74809495
0.7496081
0.75115701
0.75273795
0.75434289
0.7561499
0.75796303
0.75933488
0.76005446
0.76030974
0.76023061
0.75994679
0.75844853
0.75643308
0.75536965
0.75478593
0.63647564
0.75772561
0.84093581
0.91729324
0.93319289
0.94208679
0.93307422
0.936088
0.93040836
0.92955818
0.92501334
0.92149578
0.91643042
0.91067831
0.90385332
0.89564855
0.88612262
0.87488044
0.86199269
0.84734061
0.83121217
0.81408189
0.79686756
0.78071571
0.76671965
0.7555349
0.74744353
0.74259328
0.74045869
0.74010706
0.74085773
0.7422563
0.74390322
0.74556465
0.74724209
0.7489944
0.75073306
0.75246155
0.75424113
0.75615155
0.75806275
0.75937187
0.76003471
0.76024754
0.7601233
0.75980992
0.75797981
0.75612486
0.75519454
0.75472018
0.63582431
0.75790709
0.84206064
0.91824311
0.92920498
0.937819
0.92876207
0.93162147
0.92590196
0.92483702
0.920198
0.91642763
0.91116487
0.90511398
0.89797162
0.88938503
0.87942127
0.8676953
0.85428647
0.8391247
0.8225606
0.80518059
0.78801536
0.77226824
0.75895401
0.74860543
0.74159268
0.73790571
0.73671724
0.73710865
0.73850969
0.74043578
0.7425027
0.74449576
0.74644458
0.74842465
0.75034028
0.75219417
0.75415326
0.7561771
0.75815301
0.75939565
0.76000648
0.76018344
0.76002418
0.75963234
0.75752967
0.75583401
0.75502
0.75464679
0.63504325
0.75797793
0.84316102
0.91869622
0.92492076
0.93335714
0.92425605
0.92694343
0.92118304
0.9198862
0.91514433
0.91110908
0.90563406
0.89927166
0.89179227
0.88280424
0.87237974
0.86014969
0.84620586
0.83053528
0.81356416
0.79600352
0.77899321
0.76375564
0.75118444
0.74177922
0.73597613
0.73344394
0.73312238
0.73426784
0.73629896
0.73872892
0.74119265
0.74349789
0.74570303
0.74789903
0.7499815
0.75194678
0.75407951
0.75623101
0.75822552
0.75940862
0.75997308
0.76011267
0.75992986
0.75939115
0.75712192
0.75557309
0.75485361
0.75455963
0.63420399
0.75798692
0.84423497
0.91844131
0.92040619
0.92869305
0.91954815
0.92204304
0.91624271
0.9146994
0.90984766
0.90553766
0.89983548
0.89314759
0.88530916
0.87589776
0.8649881
0.8522337
0.83774333
0.82157107
0.80423372
0.7865776
0.76983577
0.75520225
0.74343789
0.73513978
0.73062992
0.72916947
0.72969792
0.73159309
0.73422891
0.73713649
0.7399735
0.74257128
0.74501752
0.74741637
0.74965751
0.75175576
0.75402853
0.75631261
0.75827943
0.75940553
0.7599323
0.76002975
0.75982641
0.75908409
0.75676753
0.75534695
0.75470321
0.75446046
0.63333752
0.75796007
0.84523894
0.91752765
0.91561744
0.92381166
0.91462821
0.91691439
0.91107811
0.90927702
0.90430843
0.8997132
0.8937662
0.88673541
0.87851276
0.86865358
0.85723413
0.84393638
0.82889184
0.81223362
0.79458596
0.77693523
0.76057708
0.74662863
0.73577748
0.72875722
0.72554933
0.72507058
0.72646766
0.72908889
0.73230048
0.73565855
0.73884482
0.74171557
0.74438773
0.74697472
0.74936167
0.75162821
0.75400359
0.75641573
0.75832197
0.75938323
0.75986927
0.75993036
0.75970751
0.75872826
0.75646065
0.75514697
0.75456763
0.75436361
0.63244384
0.75791191
0.84609255
0.91592157
0.91057952
0.91871598
0.90950292
0.91156559
0.90569481
0.90362389
0.8985269
0.89363282
0.88741837
0.88002385
0.87138929
0.8610571
0.84910378
0.83524553
0.81964438
0.80252678
0.78464182
0.76710998
0.75124653
0.73805808
0.72829344
0.72267615
0.72069261
0.72117611
0.72343949
0.72675684
0.73051346
0.73429406
0.73780552
0.74092986
0.74381305
0.7465729
0.74908306
0.75153049
0.75400754
0.75653375
0.75836019
0.75935106
0.75978407
0.75981449
0.75957624
0.75833993
0.75618161
0.75496536
0.75444466
0.75427496
0.63151305
0.75787331
0.84675002
0.91361891
0.9053322
0.91342111
0.90418378
0.90600442
0.90009569
0.89773816
0.89249677
0.88728588
0.88077809
0.87299666
0.86392219
0.85309176
0.84058211
0.82614925
0.80999592
0.79245988
0.7744285
0.75713697
0.74187095
0.72954254
0.72106964
0.71690451
0.71604284
0.71751229
0.72061729
0.72459717
0.72886652
0.73304129
0.73685386
0.74021267
0.74329212
0.74621123
0.74882504
0.75145055
0.75404607
0.75665763
0.75839534
0.75931386
0.75969163
0.75968465
0.75943349
0.75794599
0.75591686
0.75479785
0.75433179
0.75419475
0.63059922
0.75788001
0.84726794
0.91062396
0.89989414
0.90792561
0.89866799
0.90022466
0.89427184
0.89160762
0.88620223
0.88065503
0.87382663
0.86563539
0.85609352
0.84474079
0.83165379
0.81663564
0.79994377
0.78204681
0.76397667
0.74704829
0.73247459
0.72116931
0.71416855
0.71140501
0.71162582
0.71408929
0.71800198
0.72260827
0.7273572
0.73189762
0.73598755
0.73956216
0.74282249
0.74588898
0.748618
0.75139043
0.75412555
0.75677572
0.75842255
0.75926885
0.75959065
0.75954578
0.75927762
0.75755377
0.75566374
0.7546419
0.75422535
0.7541217
0.62980553
0.75801032
0.84751138
0.90689771
0.89425945
0.90221466
0.89294009
0.89420844
0.88820434
0.88521202
0.87962151
0.87371959
0.86654448
0.85792129
0.84788557
0.83598655
0.82230315
0.80669414
0.78948995
0.77130871
0.75332096
0.73687554
0.72309447
0.7130388
0.70762112
0.70614671
0.70747475
0.71091075
0.71559284
0.72078739
0.72598207
0.73085962
0.73520373
0.73897618
0.74240086
0.74559907
0.74847797
0.75136121
0.75424716
0.7568782
0.75843667
0.75921273
0.75948661
0.75940847
0.75909932
0.7571659
0.75542183
0.75449587
0.7541237
0.75405466
0.62900981
0.75825797
0.84741058
0.90240906
0.88842238
0.89626878
0.88697916
0.88793242
0.88186817
0.87852847
0.87273269
0.86646046
0.85891376
0.84983649
0.83927993
0.82681088
0.81251387
0.7963156
0.77864096
0.76027178
0.74249567
0.72664831
0.71380554
0.70523339
0.70140554
0.70114421
0.70360521
0.70797719
0.71338687
0.71913021
0.72473649
0.72992303
0.73449915
0.73845232
0.74202406
0.74533039
0.74837953
0.75136412
0.75440015
0.75696457
0.75843695
0.75914856
0.75938136
0.75928758
0.75887588
0.75678894
0.7551934
0.75435971
0.75403027
0.75399329
0.62817159
0.75862218
0.84684195
0.89714106
0.88235764
0.89005702
0.88075779
0.88137026
0.87523975
0.87153895
0.86551949
0.85886261
0.85091799
0.84136233
0.83025687
0.8171937
0.80226965
0.78549418
0.76741014
0.74896806
0.73153618
0.71640096
0.70471701
0.69780913
0.69547364
0.6964407
0.70002102
0.70528714
0.71137978
0.71763136
0.72361507
0.72908334
0.73387043
0.73798721
0.74168905
0.74508637
0.74830283
0.75139733
0.75457037
0.75703978
0.75842473
0.75907853
0.75927424
0.75916385
0.7585891
0.75643458
0.75498207
0.75423494
0.75394655
0.75393751
0.62724812
0.75911468
0.84570297
0.89128802
0.87603516
0.8835489
0.87425686
0.87450717
0.86830837
0.8642342
0.85797091
0.85091125
0.84253892
0.83247736
0.8207939
0.80711392
0.79155492
0.77422815
0.75581674
0.73743133
0.72047725
0.70618986
0.69593244
0.6907723
0.68982127
0.69206058
0.69672309
0.70283645
0.70956541
0.71628422
0.72261204
0.72833659
0.73331472
0.73757646
0.74139085
0.74489886
0.74824232
0.75146184
0.75474926
0.75710611
0.75840191
0.75900323
0.75915834
0.75902536
0.75825645
0.75611489
0.75479089
0.75412311
0.75387347
0.75389105
0.62618968
0.75974306
0.84389874
0.8854863
0.86945304
0.87674632
0.86747706
0.86734657
0.86107006
0.85660653
0.85007202
0.84258695
0.83375347
0.82315662
0.81086665
0.79654956
0.78035667
0.7625227
0.74388772
0.72569775
0.70935561
0.69611399
0.68753607
0.68408032
0.68449391
0.68800966
0.69370964
0.70061936
0.70793647
0.71508182
0.72172238
0.72768
0.73282949
0.7372151
0.74112098
0.74477824
0.74820681
0.75156404
0.75492684
0.75716508
0.75837023
0.75891806
0.75902872
0.7588717
0.75787608
0.75582924
0.7546194
0.75402408
0.75380977
0.75384783
0.62493615
0.76052514
0.84138744
0.87925788
0.86264312
0.86966448
0.86042235
0.85988349
0.85351146
0.84863726
0.84179949
0.83386338
0.82453422
0.81337243
0.80044897
0.78547943
0.76866548
0.75038976
0.73165492
0.71380456
0.69821433
0.68629411
0.67957124
0.67770685
0.67952625
0.68429013
0.69097566
0.69862772
0.7064843
0.71401725
0.72094221
0.72711111
0.73241102
0.73689806
0.74087693
0.74469335
0.74820617
0.75171233
0.75509137
0.75721511
0.75832964
0.75880909
0.75888533
0.75870839
0.75748071
0.75556413
0.75446448
0.75393701
0.75375474
0.75381091
0.62352653
0.7614423
0.8381271
0.8724893
0.85559076
0.86228403
0.8530709
0.85209237
0.84560495
0.84029857
0.83312378
0.82471028
0.81485087
0.80309522
0.78951409
0.77388305
0.75647769
0.73784919
0.71915505
0.70179435
0.68713394
0.67684087
0.67202429
0.67167633
0.67493602
0.68090014
0.68851393
0.69685215
0.70520028
0.71308463
0.72026783
0.72662456
0.73205114
0.73661916
0.7406804
0.74462877
0.74824182
0.75190508
0.75523677
0.75725087
0.75827672
0.75869529
0.75873253
0.758537
0.75708392
0.75531501
0.75432412
0.75386123
0.75370835
0.75378012
0.62195651
0.76242575
0.83406221
0.86539812
0.84825307
0.85457159
0.84538991
0.84394343
0.83731925
0.83155955
0.82401296
0.81509527
0.80467191
0.79229429
0.77803461
0.76174333
0.74379607
0.7249275
0.70642599
0.68971373
0.67623806
0.66783697
0.66484556
0.6660399
0.67072588
0.67783422
0.68631443
0.69528216
0.70407632
0.71227846
0.71969232
0.7262083
0.73173641
0.73637138
0.74054651
0.74458
0.74831279
0.75212802
0.75536455
0.75726798
0.75820764
0.7585724
0.75857659
0.75835497
0.75669692
0.75508318
0.75419796
0.75379583
0.75367039
0.75375561
0.62024624
0.76338054
0.8291536
0.85791285
0.84060783
0.84649819
0.83735041
0.8354071
0.82862216
0.8223881
0.81443404
0.80498545
0.79396491
0.78093821
0.76598405
0.74904713
0.73063188
0.71165849
0.69351105
0.67762484
0.6656647
0.65930841
0.65803317
0.66082963
0.66689544
0.67508393
0.68436604
0.69390797
0.70310547
0.71159136
0.71920175
0.7258443
0.73145384
0.7361549
0.74045596
0.74455323
0.74841476
0.7523689
0.755476
0.75726596
0.75812627
0.75844614
0.75842335
0.75814302
0.75632708
0.7548717
0.75408638
0.75374132
0.75364032
0.7537369
0.61844107
0.76420556
0.82344047
0.84999401
0.83262636
0.83803467
0.82891858
0.82645124
0.81948037
0.8127518
0.8043538
0.79434694
0.78269617
0.76899414
0.75333698
0.73578802
0.71700447
0.69807987
0.68046011
0.66563531
0.65553011
0.65121919
0.65164228
0.65605202
0.66343895
0.67263776
0.68265687
0.69272047
0.70227949
0.71101003
0.71877609
0.72552
0.73120586
0.73599076
0.7403878
0.74455152
0.7485459
0.75261787
0.7555739
0.75725084
0.75803701
0.75831579
0.75827132
0.75787303
0.75598724
0.754684
0.7539904
0.75369693
0.75361776
0.75372391
0.61658512
0.76470638
0.81695837
0.84163169
0.82428071
0.8291503
0.82006572
0.817046
0.80986217
0.80261849
0.79373822
0.78314321
0.77082865
0.75642747
0.74007073
0.72196682
0.70294242
0.68423595
0.66733524
0.65389425
0.64590526
0.64354352
0.64571921
0.65170947
0.66034746
0.67048318
0.68117608
0.6917103
0.70158483
0.71051428
0.71840135
0.7252473
0.73102065
0.73588592
0.7403318
0.74457754
0.74871232
0.7528632
0.75566137
0.75722882
0.75794322
0.75817692
0.7581202
0.7575357
0.75569077
0.75452248
0.75391065
0.75366295
0.75360349
0.75371593
0.61461521
0.76489382
0.80977586
0.83281764
0.81553897
0.81981512
0.81076527
0.80716414
0.79973443
0.79195437
0.78254904
0.77133308
0.75832097
0.74320236
0.72616719
0.70759448
0.68848207
0.67017974
0.65422686
0.64254776
0.63679578
0.63630985
0.64028786
0.64779684
0.6576083
0.66860681
0.67991215
0.69086274
0.7009994
0.71008467
0.71808974
0.7250596
0.73090806
0.73581461
0.7402913
0.74463609
0.7489261
0.7530915
0.75573861
0.75719883
0.7578447
0.75802617
0.75794463
0.75717442
0.75543451
0.75438523
0.75384633
0.75363727
0.75359385
0.75371263
0.61228212
0.76468897
0.80191302
0.82353439
0.80637581
0.81000331
0.80098548
0.79677618
0.78906062
0.78071835
0.77074155
0.75886811
0.74512739
0.72928412
0.71161627
0.69269184
0.67366755
0.65597803
0.64127903
0.6317192
0.62815786
0.62958471
0.63535239
0.64430547
0.65520754
0.66699537
0.67884981
0.69015435
0.70049945
0.70972226
0.7178765
0.72495382
0.73083824
0.73576187
0.74027108
0.74473043
0.74918903
0.75329791
0.75580343
0.7571565
0.75773865
0.75786503
0.75776446
0.75680635
0.75520276
0.75426708
0.75379412
0.75361783
0.75358951
0.75371301
0.60953289
0.76407034
0.7934196
0.81376545
0.79676841
0.79968579
0.79069284
0.78584456
0.77779466
0.76885935
0.75826141
0.74569363
0.7312002
0.71464314
0.69641871
0.67729186
0.65855255
0.64171451
0.62866505
0.62145818
0.61999459
0.62341025
0.63091046
0.64122198
0.65312981
0.66563263
0.67796489
0.68955718
0.70007954
0.70946203
0.71775864
0.72488967
0.73079132
0.73572052
0.74027175
0.74485982
0.7494876
0.75348843
0.75585364
0.75709902
0.75760989
0.75769644
0.75758133
0.7564532
0.7549922
0.75416326
0.75375071
0.75360319
0.75359043
0.75371733
0.6062448
0.76298785
0.78430695
0.80347782
0.78668087
0.78882167
0.77983577
0.77431775
0.76587618
0.75631353
0.74504544
0.7317499
0.71649316
0.69925839
0.68058812
0.66143763
0.6432075
0.62752157
0.61654425
0.61174486
0.61237692
0.61779856
0.62695414
0.63853107
0.65135829
0.66449615
0.67722668
0.68905928
0.69976994
0.70931364
0.71769063
0.72484951
0.73075942
0.73569167
0.74029222
0.74502055
0.74981023
0.75366446
0.75588663
0.75702862
0.75748101
0.75752601
0.75739751
0.7561162
0.75480112
0.75407141
0.75371505
0.75359242
0.75359492
0.75372345
0.60230682
0.76090395
0.77455585
0.79262167
0.77606442
0.77735246
0.76834708
0.76212731
0.75323111
0.74300635
0.73102441
0.71697667
0.70096551
0.68312084
0.6641513
0.64518471
0.6277216
0.61358107
0.60502221
0.6025625
0.60536472
0.61275171
0.62346994
0.63621425
0.64987023
0.66355441
0.67661367
0.68868525
0.69958593
0.70923271
0.71765231
0.72483378
0.73074543
0.73567691
0.74033186
0.74521074
0.75014578
0.75382112
0.75589862
0.7569429
0.75734701
0.75735966
0.7572023
0.7558024
0.75463017
0.75399094
0.75368657
0.75358472
0.75360299
0.75373101
0.59771374
0.75824541
0.76409659
0.78110858
0.764842
0.76520052
0.75613983
0.74919181
0.73977635
0.72885866
0.71612837
0.7013179
0.6845865
0.66623593
0.64715002
0.62860565
0.61221915
0.6000883
0.59412502
0.59395954
0.5989912
0.60826384
0.62044091
0.63424975
0.64863486
0.6627753
0.67613798
0.68845566
0.69948988
0.70919193
0.71764473
0.72484599
0.73075067
0.73567597
0.74039332
0.74543771
0.75047529
0.75395393
0.75589141
0.7568484
0.75721322
0.75719773
0.75695531
0.75551909
0.75448125
0.75392215
0.75366475
0.75358055
0.75361283
0.7537393
0.59249303
0.75475257
0.75291681
0.76883693
0.75292158
0.75227949
0.74311705
0.73542238
0.72542932
0.71379163
0.70029149
0.68472499
0.66733799
0.64862469
0.62964056
0.61179873
0.59688631
0.58720642
0.58382252
0.5860231
0.59326301
0.60432209
0.6178451
0.63260859
0.64761605
0.66214729
0.67582728
0.68833759
0.69944579
0.70918684
0.7176715
0.72488297
0.73077166
0.73568844
0.74048231
0.74571568
0.75077433
0.75406442
0.75587399
0.7567491
0.75707432
0.75702956
0.75665757
0.75527577
0.75435544
0.75386479
0.75364849
0.7535802
0.75362232
0.75374801
0.58664036
0.75008084
0.74102138
0.75571762
0.74019384
0.7385007
0.72917901
0.72073245
0.71011104
0.69773172
0.68345142
0.66715786
0.64921603
0.63032492
0.61169945
0.59489375
0.58195113
0.57500575
0.57414809
0.57880879
0.58817852
0.60090814
0.61565544
0.63125457
0.64678803
0.66170132
0.67566391
0.68828604
0.69944433
0.70922073
0.71772883
0.72494108
0.73080606
0.73571497
0.74060262
0.74604238
0.75103559
0.75415627
0.75584799
0.75664464
0.7569287
0.75685076
0.75636624
0.75506771
0.75424854
0.75381704
0.75363585
0.75358346
0.75363172
0.75375671
0.5801577
0.74384187
0.72835691
0.74168204
0.72655448
0.7237893
0.71424095
0.70503997
0.6937471
0.68060586
0.66554845
0.64858516
0.63023244
0.61139367
0.59343379
0.57808403
0.56761937
0.56347644
0.56520833
0.57233078
0.58372593
0.5979966
0.61383685
0.63014913
0.64615453
0.66144488
0.67559008
0.68828639
0.69948796
0.70929114
0.71781273
0.72501652
0.73085152
0.73575564
0.74075178
0.74639713
0.75127229
0.75423203
0.75581052
0.75653053