/*--------------------------------*- C++ -*----------------------------------*\
  =========                 |
  \\      /  F ield         | OpenFOAM: The Open Source CFD Toolbox
   \\    /   O peration     | Website:  https://openfoam.org
    \\  /    A nd           | Version:  8
     \\/     M anipulation  |
\*---------------------------------------------------------------------------*/
FoamFile
{
    version     2.0;
    format      ascii;
    class       surfaceScalarField;
    location    "0.18001";
    object      meshPhi;
}
// * * * * * * * * * * * * * * * * * * * * * * * * * * * * * * * * * * * * * //

dimensions      [0 3 -1 0 0 0 0];

internalField   nonuniform List<scalar> 
39600
(
1.4744391e-05
9.7540392e-07
-1.0163655e-06
1.4784401e-05
1.1633653e-06
-1.1912502e-06
1.4833337e-05
1.394216e-06
-1.4271953e-06
1.4891682e-05
1.6704375e-06
-1.7100962e-06
1.4957251e-05
2.0013139e-06
-2.0490424e-06
1.5031737e-05
2.3976795e-06
-2.4551095e-06
1.5113989e-05
2.8724236e-06
-2.9415016e-06
1.5207464e-05
3.4409158e-06
-3.5239809e-06
1.5316488e-05
4.1215198e-06
-4.2213489e-06
1.5446564e-05
4.9360555e-06
-5.0559687e-06
1.5605914e-05
5.9103922e-06
-6.0544307e-06
1.5802753e-05
7.0750906e-06
-7.248199e-06
1.6052711e-05
8.4662415e-06
-8.6744721e-06
1.6369617e-05
1.0126193e-05
-1.0377034e-05
1.6773255e-05
1.2104578e-05
-1.2407211e-05
1.7288754e-05
1.4459039e-05
-1.4825019e-05
1.7991125e-05
1.7255344e-05
-1.7699481e-05
1.8976705e-05
2.0566314e-05
-2.1106532e-05
2.030547e-05
2.4469027e-05
-2.5128328e-05
2.2049892e-05
2.9041877e-05
-2.985029e-05
2.4311533e-05
3.4355617e-05
-3.535287e-05
2.7205032e-05
4.0483063e-05
-4.1724905e-05
3.1002579e-05
4.7463025e-05
-4.9021326e-05
3.5723431e-05
5.5325386e-05
-5.7288462e-05
4.1535242e-05
6.4033151e-05
-6.6499844e-05
4.8122755e-05
7.3595117e-05
-7.6689501e-05
5.6695634e-05
8.4011965e-05
-8.7891035e-05
6.75918e-05
9.5253374e-05
-0.0001001758
8.1601167e-05
0.00010700284
-0.00011331634
9.7871756e-05
0.0001193438
-0.00012744058
0.00011740751
0.00013235572
-0.0001426904
0.00014254404
0.00014342606
-0.00015652839
0.00016958487
0.00015192555
-0.00016829402
0.0001951214
0.00016294709
-0.00018322943
0.00022115878
0.00017940041
-0.00020418057
0.000256359
0.00019269561
-0.00022240041
0.00029401174
0.00019931628
-0.00023456329
0.00033208548
0.00020244247
-0.00024356427
0.00036754171
0.0002004696
-0.00024723761
0.00040212205
0.00019602347
-0.00024820329
0.00043681667
0.00019115277
-0.00024873553
0.00046434901
0.00016791042
-0.00022954194
0.00048503547
0.00010983885
-0.00017326629
0.00049475556
3.2684765e-05
-9.6038188e-05
0.00047481886
-7.161426e-05
1.2212159e-05
0.00040843198
-0.00022966115
0.00018433655
0.00039770563
-0.00038014316
0.00034698214
0.00036248271
-0.00048041834
0.00044920059
0.00027249025
-0.0006115759
0.00059288828
-0.00038072448
0.00038013032
1.1820209e-05
9.5658413e-07
1.1835883e-05
1.140741e-06
1.185124e-05
1.3666788e-06
1.1869301e-05
1.6373521e-06
1.1893442e-05
1.9616148e-06
1.1927045e-05
2.3499849e-06
1.1974685e-05
2.8151434e-06
1.2039322e-05
3.3720949e-06
1.2126876e-05
4.0388138e-06
1.2240898e-05
4.8365775e-06
1.2388164e-05
5.7906671e-06
1.2574635e-05
6.9309299e-06
1.280977e-05
8.292621e-06
1.3103783e-05
9.9169717e-06
1.34645e-05
1.1852371e-05
1.3924376e-05
1.4154179e-05
1.4556899e-05
1.6884746e-05
1.544774e-05
2.0113115e-05
1.6657877e-05
2.391345e-05
1.8249214e-05
2.8358975e-05
2.0322336e-05
3.3512295e-05
2.3002463e-05
3.9429357e-05
2.6545287e-05
4.613322e-05
3.0995631e-05
5.3639394e-05
3.6515749e-05
6.1897893e-05
4.2946401e-05
7.0888951e-05
5.1366298e-05
8.0578416e-05
6.2378638e-05
9.0812581e-05
7.6486315e-05
0.00010117221
9.2737239e-05
0.00011177241
0.00011230206
0.0001225448
0.00013724214
0.00013085492
0.00016415702
0.00013616241
0.00019001275
0.00014337778
0.00021662394
0.00015514058
0.00025175383
0.00016324465
0.00028957917
0.00016428204
0.00032800189
0.00016144156
0.00036438753
0.00015366913
0.00039979479
0.00014360634
0.00043551362
0.00013298301
0.00046349995
0.00010507814
0.00048498998
4.5108113e-05
0.00049622586
-3.1423298e-05
0.00047827879
-0.00013184826
0.00041988789
-0.0002766084
0.00040798363
-0.0004135465
0.00036732738
-0.00051133897
0.00027854661
-0.0006294489
-0.00038022919
9.090925e-06
9.4119059e-07
9.0661327e-06
1.1222442e-06
9.0406976e-06
1.3444617e-06
9.0250319e-06
1.6106789e-06
9.0230005e-06
1.9295957e-06
9.0358461e-06
2.311572e-06
9.0654918e-06
2.7690353e-06
9.1140236e-06
3.3167442e-06
9.1857385e-06
3.9723182e-06
9.282908e-06
4.756678e-06
9.4127851e-06
5.6946035e-06
9.578457e-06
6.8154711e-06
9.7888104e-06
8.1537531e-06
1.0046283e-05
9.7499678e-06
1.0358759e-05
1.1651504e-05
1.0764317e-05
1.3911436e-05
1.1324007e-05
1.658931e-05
1.2112499e-05
1.9751315e-05
1.3184556e-05
2.3468932e-05
1.4599408e-05
2.7811375e-05
1.6460216e-05
3.2833811e-05
1.8901427e-05
3.8577836e-05
2.2154693e-05
4.5050821e-05
2.628828e-05
5.2254546e-05
3.148698e-05
6.0121313e-05
3.7724316e-05
6.8601669e-05
4.5967533e-05
7.7624711e-05
5.7054127e-05
8.6889951e-05
7.1195489e-05
9.5889615e-05
8.7376442e-05
0.0001047858
0.00010697418
0.00011336347
0.00013167386
0.0001189664
0.00015843908
0.00012110947
0.00018453202
0.00012451701
0.00021178589
0.00013158505
0.00024685034
0.0001344854
0.00028483583
0.00012991403
0.00032367823
0.00012103274
0.00036091032
0.00010727091
0.00039723815
9.1330786e-05
0.0004339282
7.4724277e-05
0.00046258124
4.198037e-05
0.00048471447
-2.0144528e-05
0.00049800864
-9.6629084e-05
0.00048161808
-0.00019375127
0.0004316144
-0.00032708653
0.00041863609
-0.00045216315
0.00037253421
-0.00054546761
0.00028502475
-0.0006494286
-0.00038142769
6.5663212e-06
9.2942581e-07
6.5423354e-06
1.1081992e-06
6.5175415e-06
1.3276786e-06
6.4991258e-06
1.5906073e-06
6.4884324e-06
1.9055594e-06
6.4873358e-06
2.2827561e-06
6.4960379e-06
2.7344293e-06
6.5195514e-06
3.275159e-06
6.5614382e-06
3.9223097e-06
6.6269255e-06
4.6965061e-06
6.722244e-06
5.6221894e-06
6.8499281e-06
6.728345e-06
7.0195675e-06
8.0488803e-06
7.2284659e-06
9.6238647e-06
7.4907561e-06
1.1499679e-05
7.8392855e-06
1.3727829e-05
8.3290981e-06
1.6365345e-05
9.0190153e-06
1.9476045e-05
9.9501913e-06
2.3129867e-05
1.1191622e-05
2.7392302e-05
1.2846092e-05
3.2311585e-05
1.5050716e-05
3.7917289e-05
1.8019149e-05
4.4202658e-05
2.1833219e-05
5.1156128e-05
2.6725936e-05
5.8688227e-05
3.2743471e-05
6.6718474e-05
4.0807834e-05
7.5130029e-05
5.1925887e-05
8.3466483e-05
6.6018704e-05
9.1153325e-05
8.2103697e-05
9.8393312e-05
0.00010166252
0.0001048329
0.00012609299
0.00010779473
0.00015269138
0.00010681693
0.00017898579
0.00010643029
0.00020677684
0.00010882606
0.00024179032
0.00010653519
0.00027993378
9.633615e-05
0.0003191735
8.1352695e-05
0.0003572306
6.1433137e-05
0.00039445734
3.9383839e-05
0.00043211131
1.6579723e-05
0.00046155196
-2.1211471e-05
0.00048446929
-8.5840833e-05
0.00049963612
-0.00016291938
0.00048497574
-0.00025735225
0.00044242102
-0.00038075463
0.00042831014
-0.00049519945
0.00037802222
-0.00058250641
0.00029142852
-0.00067159223
-0.00038419894
4.2296892e-06
9.2109846e-07
4.2354549e-06
1.0981654e-06
4.2353274e-06
1.315613e-06
4.2295823e-06
1.5761223e-06
4.2188949e-06
1.8881733e-06
4.2076612e-06
2.2619178e-06
4.1978517e-06
2.7094757e-06
4.1964475e-06
3.2452911e-06
4.2068244e-06
3.8865608e-06
4.2364181e-06
4.6537371e-06
4.2900306e-06
5.5709884e-06
4.3722599e-06
6.6670171e-06
4.4921078e-06
7.9753648e-06
4.6494981e-06
9.5356154e-06
4.8578424e-06
1.1393577e-05
5.1494637e-06
1.3599355e-05
5.5690642e-06
1.620808e-05
6.1551072e-06
1.9282178e-05
6.9485754e-06
2.2889827e-05
8.0217429e-06
2.7093187e-05
9.4767824e-06
3.1935323e-05
1.145024e-05
3.7435568e-05
1.4141038e-05
4.3574446e-05
1.7640031e-05
5.0328087e-05
2.2233422e-05
5.7582006e-05
2.8001309e-05
6.5223088e-05
3.5886293e-05
7.3081017e-05
4.7004167e-05
8.0534582e-05
6.0982143e-05
8.6959471e-05
7.6944924e-05
9.2600469e-05
9.6402159e-05
9.6962501e-05
0.00012053591
9.735655e-05
0.00014694972
9.3320599e-05
0.00017341035
8.9175161e-05
0.0002016561
8.6910716e-05
0.00023662704
7.9427555e-05
0.00027492122
6.3593054e-05
0.00031452889
4.2456432e-05
0.00035339299
1.6228764e-05
0.000391502
-1.2149781e-05
0.00043010674
-4.1377116e-05
0.00046045023
-8.4480294e-05
0.00048429961
-0.00015198296
0.00050115206
-0.000230213
0.00048836178
-0.00032253872
0.00045242636
-0.00043736072
0.0004372613
-0.00054211552
0.00038374538
-0.00062206303
0.00029781934
-0.00069563422
-0.00038835183
2.0031761e-06
9.1615008e-07
2.0027108e-06
1.0922543e-06
1.996256e-06
1.3085793e-06
1.9862521e-06
1.5677378e-06
1.9740981e-06
1.8781563e-06
1.9633825e-06
2.2499169e-06
1.9551472e-06
2.6950739e-06
1.95378e-06
3.2279782e-06
1.9603526e-06
3.8657353e-06
1.9797695e-06
4.6286898e-06
2.0151523e-06
5.5408705e-06
2.0702462e-06
6.6308462e-06
2.1542079e-06
7.9319276e-06
2.2694036e-06
9.483422e-06
2.4319495e-06
1.1330682e-05
2.670724e-06
1.3522879e-05
3.0189491e-06
1.6113793e-05
3.5043453e-06
1.916456e-05
4.1653092e-06
2.2742181e-05
5.075699e-06
2.6906485e-05
6.3381868e-06
3.1695963e-05
8.0874848e-06
3.7121238e-05
1.0510271e-05
4.3152538e-05
1.3704402e-05
4.975367e-05
1.7998352e-05
5.6785233e-05
2.3497525e-05
6.410165e-05
3.1207324e-05
7.1461288e-05
4.2295783e-05
7.8075556e-05
5.611167e-05
8.3297122e-05
7.1927527e-05
8.7403403e-05
9.123414e-05
8.9758428e-05
0.00011505007
8.7664214e-05
0.00014126338
8.0636676e-05
0.0001678545
7.2776517e-05
0.0001964908
6.5891759e-05
0.00023142333
5.3240421e-05
0.00026985846
3.176961e-05
0.00030980735
4.4413172e-06
0.00034945581
-2.8225384e-05
0.00038842861
-6.3133806e-05
0.00042796854
-9.8989487e-05
0.00045931011
-0.00014766795
0.00048421267
-0.00021846638
0.0005026121
-0.0002983975
0.00049178142
-0.00038918274
0.00046172067
-0.0004965942
0.0004456659
-0.00059243635
0.00038969247
-0.00066404935
0.0003042678
-0.00072171241
-0.00039386442
-7.8827833e-08
9.1440587e-07
-8.0609589e-08
1.0900826e-06
-8.6852145e-08
1.3059232e-06
-9.5273241e-08
1.5644948e-06
-1.0434659e-07
1.8742237e-06
-1.1174603e-07
2.2451727e-06
-1.1769251e-07
2.6893806e-06
-1.1952122e-07
3.221183e-06
-1.1782181e-07
3.8576706e-06
-1.0900924e-07
4.6191695e-06
-9.0950313e-08
5.529659e-06
-6.0213028e-08
6.6176618e-06
-7.7172878e-09
7.9163832e-06
7.049231e-08
9.464956e-06
1.9147309e-07
1.1308464e-05
3.8074951e-07
1.3495382e-05
6.6067835e-07
1.6078563e-05
1.0493148e-06
1.9118433e-05
1.5826019e-06
2.2681208e-05
2.3353943e-06
2.682526e-05
3.4121455e-06
3.1585379e-05
4.945818e-06
3.696511e-05
7.1125098e-06
4.2925737e-05
1.0014877e-05
4.9419793e-05
1.4008827e-05
5.6284077e-05
1.9229462e-05
6.3339618e-05
2.677231e-05
7.0257621e-05
3.7804174e-05
7.6077504e-05
5.1421319e-05
8.015188e-05
6.7067743e-05
8.2789133e-05
8.6184104e-05
8.3207153e-05
0.00010966677
7.8706105e-05
0.00013566508
6.8762561e-05
0.0001623528
5.7242699e-05
0.00019132526
4.5766039e-05
0.00022621998
2.7958995e-05
0.00026478613
8.5807108e-07
0.00030505202
-3.269383e-05
0.00034545951
-7.1918183e-05
0.0003852721
-0.00011354997
0.00042573409
-0.00015624458
0.00045814768
-0.00021078808
0.00048420873
-0.00028530039
0.00050405132
-0.00036742558
0.00049524234
-0.00045720911
0.00047042804
-0.00055826905
0.00045369515
-0.00064581932
0.00039583447
-0.0007082753
0.00031079623
-0.00074970591
-0.00040065383
-2.0207218e-06
9.1581287e-07
-2.0149266e-06
1.0917309e-06
-2.0099555e-06
1.3078788e-06
-2.0073632e-06
1.5667899e-06
-2.0078559e-06
1.8769113e-06
-2.0111708e-06
2.2483362e-06
-2.0183263e-06
2.6931287e-06
-2.0269025e-06
3.2256716e-06
-2.0371828e-06
3.8630882e-06
-2.045036e-06
4.6257425e-06
-2.047824e-06
5.5376624e-06
-2.041493e-06
6.6274033e-06
-2.0167427e-06
7.928176e-06
-1.9687323e-06
9.4790849e-06
-1.8815577e-06
1.1325023e-05
-1.7356647e-06
1.3514162e-05
-1.5201097e-06
1.6098886e-05
-1.2256447e-06
1.9139394e-05
-8.1776931e-07
2.2702025e-05
-2.1860179e-07
2.6844386e-05
6.7883177e-07
3.1597857e-05
2.0065652e-06
3.6959983e-05
3.9309276e-06
4.288485e-05
6.5576593e-06
4.931373e-05
1.0257507e-05
5.6062791e-05
1.5197813e-05
6.2917496e-05
2.2579154e-05
6.9441199e-05
3.3530535e-05
7.4511521e-05
4.6921302e-05
7.750376e-05
6.2379603e-05
7.8741544e-05
8.1276912e-05
7.7297453e-05
0.00010441636
7.0472704e-05
0.00013018779
5.7688612e-05
0.0001569407
4.2568191e-05
0.00018620457
2.6548278e-05
0.00022106065
3.616816e-06
0.00025974816
-2.9103587e-05
0.00030031018
-6.8902574e-05
0.00034144954
-0.00011478938
0.00038207682
-0.00016331969
0.00042344739
-0.00021304684
0.00045698748
-0.0002737353
0.00048428606
-0.00035240159
0.00050550232
-0.00043720683
0.00049874625
-0.0005265194
0.00047864551
-0.00062218889
0.00046145152
-0.00070204374
0.0004021609
-0.00075478197
0.00031741279
-0.0007797888
-0.00040876333
-3.8418592e-06
9.2023205e-07
-3.8379671e-06
1.0969802e-06
-3.8346937e-06
1.3141616e-06
-3.8341833e-06
1.5743437e-06
-3.8379505e-06
1.8860095e-06
-3.8457524e-06
2.2592964e-06
-3.8582837e-06
2.7063287e-06
-3.8730276e-06
3.2415484e-06
-3.8898061e-06
3.882128e-06
-3.9047977e-06
4.648551e-06
-3.9153624e-06
5.5649105e-06
-3.9179958e-06
6.659879e-06
-3.9040541e-06
7.9667493e-06
-3.8688219e-06
9.5246428e-06
-3.7998146e-06
1.1378529e-05
-3.6868298e-06
1.3576492e-05
-3.5327184e-06
1.6171123e-05
-3.3344932e-06
1.9223416e-05
-3.0533621e-06
2.2800476e-05
-2.6053875e-06
2.6959206e-05
-1.8802357e-06
3.1728419e-05
-7.4764201e-07
3.7100072e-05
9.4976874e-07
4.302212e-05
3.3207593e-06
4.9425187e-05
6.7361015e-06
5.6108307e-05
1.1397656e-05
6.2818749e-05
1.8620121e-05
6.899665e-05
2.9470207e-05
7.3362311e-05
4.2614485e-05
7.5332968e-05
5.7869728e-05
7.5239937e-05
7.6525966e-05
7.2005283e-05
9.9315735e-05
6.2939428e-05
0.00012484982
4.7395483e-05
0.00015164037
2.8737861e-05
0.00018115704
8.2100858e-06
0.00021597185
-1.9825986e-05
0.00025477099
-5.8149903e-05
0.00029561064
-0.00010421526
0.00033745482
-0.00015686162
0.00037886944
-0.00021246088
0.00042113592
-0.00026941769
0.00045584103
-0.00033654434
0.0004844413
-0.00041979279
0.000506979
-0.00050773503
0.00050229349
-0.00059708947
0.00048646903
-0.00068824403
0.00046900671
-0.00076089701
0.00040863741
-0.00080346356
0.0003241007
-0.00081187142
-0.0004181188
-5.5488543e-06
9.2762859e-07
-5.5573483e-06
1.1058706e-06
-5.5695426e-06
1.3249176e-06
-5.5840406e-06
1.5873634e-06
-5.600495e-06
1.9017306e-06
-5.6171618e-06
2.2782024e-06
-5.6344153e-06
2.7289968e-06
-5.6500082e-06
3.2686337e-06
-5.6644495e-06
3.9144269e-06
-5.6752081e-06
4.6869298e-06
-5.6803132e-06
5.6104556e-06
-5.6780815e-06
6.7137898e-06
-5.6607957e-06
8.0304763e-06
-5.6247567e-06
9.5996818e-06
-5.5598904e-06
1.1466294e-05
-5.4721883e-06
1.3678721e-05
-5.3844444e-06
1.6290891e-05
-5.2918262e-06
1.9366179e-05
-5.142361e-06
2.2973097e-05
-4.843405e-06
2.716733e-05
-4.2826792e-06
3.1974671e-05
-3.3324142e-06
3.7381904e-05
-1.845853e-06
4.3332262e-05
2.9142462e-07
4.9745144e-05
3.437465e-06
5.6404514e-05
7.8304718e-06
6.3021936e-05
1.4895214e-05
6.8895777e-05
2.5619027e-05
7.2600776e-05
3.8502735e-05
7.3616894e-05
5.3542947e-05
7.2262803e-05
7.1943241e-05
6.7311058e-05
9.4380317e-05
5.6083651e-05
0.00011966912
3.7854932e-05
0.00014647118
1.5726033e-05
0.00017620544
-9.2504716e-06
0.00021097513
-4.2349403e-05
0.00024987634
-8.6257474e-05
0.00029097724
-0.0001386022
0.00033349724
-0.0001980915
0.00037567198
-0.00026090808
0.00041882036
-0.00032527015
0.00045471329
-0.00039910554
0.00048465846
-0.00048735719
0.00050848635
-0.00057887632
0.00050587338
-0.00066877871
0.00049394877
-0.00075625363
0.00047639004
-0.00082225538
0.00041523912
-0.00085438149
0.00033084409
-0.00084608709
-0.00042876927
-7.1335382e-06
9.3780659e-07
-7.1436212e-06
1.1179105e-06
-7.1569118e-06
1.3392356e-06
-7.1719268e-06
1.6043785e-06
-7.1884033e-06
1.9219496e-06
-7.2048595e-06
2.3023303e-06
-7.2221679e-06
2.7578072e-06
-7.2383116e-06
3.303135e-06
-7.2542466e-06
3.9558093e-06
-7.2671521e-06
4.73666e-06
-7.2747756e-06
5.6701458e-06
-7.2766824e-06
6.7854938e-06
-7.2665094e-06
8.1164353e-06
-7.230539e-06
9.701842e-06
-7.1687385e-06
1.1586151e-05
-7.1076246e-06
1.3818027e-05
-7.0920992e-06
1.6454678e-05
-7.1209512e-06
1.9565142e-05
-7.1092155e-06
2.3218981e-05
-6.9526816e-06
2.7468009e-05
-6.5450516e-06
3.2335102e-05
-5.7617048e-06
3.7802157e-05
-4.4695361e-06
4.3809596e-05
-2.5418416e-06
5.0264759e-05
3.5749737e-07
5.6938871e-05
4.4994714e-06
6.3511077e-05
1.1406325e-05
6.9122796e-05
2.1974783e-05
7.2210515e-05
3.458507e-05
7.2334594e-05
4.9400503e-05
6.9786256e-05
6.7534591e-05
6.3186012e-05
8.9618725e-05
4.9874831e-05
0.00011465532
2.9038766e-05
0.00014144557
3.5054917e-06
0.00017136339
-2.5873454e-05
0.00020608457
-6.4004594e-05
0.00024507834
-0.00011347415
0.00028642581
-0.0001721079
0.00032959193
-0.00023851759
0.00037249872
-0.00030869659
0.00041651573
-0.0003806409
0.00045360635
-0.00046146102
0.00048492758
-0.00055512441
0.00051002543
-0.00065064608
0.00050948238
-0.00074159043
0.0005011361
-0.00082615917
0.00048363807
-0.00088598026
0.00042193453
-0.00090746065
0.00033761523
-0.00088237218
-0.00044066143
-8.6031228e-06
9.5076408e-07
-8.6050909e-06
1.1333595e-06
-8.6061262e-06
1.3576736e-06
-8.6077695e-06
1.626343e-06
-8.6118873e-06
1.9481003e-06
-8.6189116e-06
2.3334126e-06
-8.6311169e-06
2.7948286e-06
-8.6470154e-06
3.3472804e-06
-8.6677184e-06
4.0085405e-06
-8.6908221e-06
4.799818e-06
-8.7139818e-06
5.746024e-06
-8.7422382e-06
6.8771763e-06
-8.7521814e-06
8.2269566e-06
-8.7291029e-06
9.8334834e-06
-8.6824447e-06
1.17405e-05
-8.6476332e-06
1.3997233e-05
-8.7088976e-06
1.6666476e-05
-8.8614784e-06
1.9824656e-05
-8.981668e-06
2.3541892e-05
-8.9534756e-06
2.7864399e-05
-8.6815818e-06
3.2810639e-05
-8.0481708e-06
3.8359669e-05
-6.9334792e-06
4.4450828e-05
-5.1920073e-06
5.0977462e-05
-2.5169631e-06
5.7699376e-05
1.3951085e-06
6.4262543e-05
8.1453026e-06
6.9644763e-05
1.8531989e-05
7.2162558e-05
3.0857774e-05
7.1461931e-05
4.544147e-05
6.7786225e-05
6.3303544e-05
5.9605821e-05
8.5036868e-05
4.4284099e-05
0.00010981627
2.0913486e-05
0.00013657396
-7.9566139e-06
0.0001666454
-4.1675203e-05
0.00020131436
-8.4792665e-05
0.0002403917
-0.00013979828
0.00028197233
-0.00020472584
0.00032575632
-0.0002781226
0.00036936863
-0.00035578942
0.00041423998
-0.00043547588
0.00045253017
-0.00052353657
0.00048524597
-0.00062300572
0.00051160285
-0.00072294268
0.00051311813
-0.00081542078
0.0005080781
-0.00089782508
0.00049077073
-0.00095199191
0.00042870212
-0.00096275606
0.0003443937
-0.0009208253
-0.0004538429
-9.9504484e-06
9.6625829e-07
-9.930165e-06
1.1514563e-06
-9.9100158e-06
1.3789801e-06
-9.8968065e-06
1.6515407e-06
-9.8934101e-06
1.978082e-06
-9.8991955e-06
2.3693427e-06
-9.9165814e-06
2.8380746e-06
-9.9425529e-06
3.3994595e-06
-9.979828e-06
4.0717239e-06
-1.0024555e-05
4.8764068e-06
-1.0079322e-05
5.8392913e-06
-1.0141369e-05
6.9906829e-06
-1.0165097e-05
8.3631281e-06
-1.0167706e-05
9.9945824e-06
-1.0164044e-05
1.1931612e-05
-1.0192708e-05
1.4226904e-05
-1.0344546e-05
1.6946101e-05
-1.0581159e-05
2.0166116e-05
-1.0788428e-05
2.3956439e-05
-1.0860156e-05
2.8362516e-05
-1.0701792e-05
3.3401966e-05
-1.0200723e-05
3.9051335e-05
-9.2470499e-06
4.5250395e-05
-7.6700508e-06
5.1875415e-05
-5.2001985e-06
5.8674908e-05
-1.4952704e-06
6.5262441e-05
5.1018978e-06
7.0447993e-05
1.5282409e-05
7.2441099e-05
2.7315833e-05
7.097907e-05
4.1663009e-05
6.6239521e-05
5.9250303e-05
5.6542224e-05
8.0635961e-05
3.9281701e-05
0.00010515447
1.3450987e-05
0.00013186168
-1.8689413e-05
0.00016205962
-5.6699465e-05
0.00019667242
-0.00010476825
0.00023582462
-0.00016528231
0.00027762625
-0.00023650584
0.00032200051
-0.00031695229
0.00036629229
-0.00040223135
0.00041200358
-0.00048982118
0.00045148818
-0.00058538194
0.00048561026
-0.00069104333
0.00051321739
-0.00079580348
0.00051677814
-0.00089029733
0.00051481167
-0.00097122964
0.00049779992
-0.0010201787
0.00043551734
-0.0010201719
0.00035115171
-0.00096135214
-0.00046824278
-1.1228846e-05
9.8466929e-07
-1.1216881e-05
1.1738636e-06
-1.1206446e-05
1.4063211e-06
-1.1203314e-05
1.6847702e-06
-1.1208857e-05
2.0182859e-06
-1.122166e-05
2.4176396e-06
-1.1244328e-05
2.8957927e-06
-1.1273912e-05
3.4682525e-06
-1.1316899e-05
4.1533939e-06
-1.136813e-05
4.9734598e-06
-1.14391e-05
5.9549411e-06
-1.1502057e-05
7.1280401e-06
-1.1532809e-05
8.5254973e-06
-1.1562061e-05
1.0186457e-05
-1.164087e-05
1.216141e-05
-1.1830892e-05
1.4515192e-05
-1.2073178e-05
1.7310826e-05
-1.2316667e-05
2.0606668e-05
-1.254719e-05
2.4472778e-05
-1.2678407e-05
2.8966274e-05
-1.2610047e-05
3.4108227e-05
-1.2226449e-05
3.9874168e-05
-1.1418962e-05
4.6203266e-05
-9.9911766e-06
5.2953029e-05
-7.7125969e-06
5.986072e-05
-4.1931211e-06
6.6499894e-05
2.2560746e-06
7.151461e-05
1.2214078e-05
7.3027608e-05
2.3952448e-05
7.0865134e-05
3.8060124e-05
6.512349e-05
5.537237e-05
5.3972036e-05
7.6414819e-05
3.4839127e-05
0.00010066999
6.6161282e-06
0.00012731015
-2.8726362e-05
0.00015760918
-7.0958669e-05
0.00019216154
-0.00012392505
0.00023137976
-0.00018991575
0.00027339003
-0.00026743107
0.00031832718
-0.00035497611
0.00036327363
-0.00044796849
0.00040980913
-0.00054360144
0.00045047691
-0.00064689392
0.00048600755
-0.00075910544
0.0005148624
-0.00086907571
0.00052045155
-0.00096606249
0.00052135443
-0.0010461971
0.00050472618
-0.0010904522
0.00044236464
-0.0010797459
0.00035786736
-0.0010040143
-0.00048389485
-1.2436401e-05
1.0054288e-06
-1.2454111e-05
1.198665e-06
-1.2472989e-05
1.4360924e-06
-1.2494008e-05
1.7205965e-06
-1.2516453e-05
2.0613534e-06
-1.2541154e-05
2.4695036e-06
-1.2569409e-05
2.9582639e-06
-1.2601375e-05
3.5433823e-06
-1.2641786e-05
4.2437776e-06
-1.2690113e-05
5.0818668e-06
-1.2755431e-05
6.084721e-06
-1.2819553e-05
7.2836396e-06
-1.2888621e-05
8.7143182e-06
-1.2971195e-05
1.0416813e-05
-1.3151826e-05
1.2442739e-05
-1.3475776e-05
1.4860891e-05
-1.3765778e-05
1.7734945e-05
-1.3994585e-05
2.1117725e-05
-1.4227047e-05
2.5073683e-05
-1.4396791e-05
2.9665516e-05
-1.4403908e-05
3.4923078e-05
-1.4127652e-05
4.0822876e-05
-1.3455731e-05
4.7303069e-05
-1.2168137e-05
5.4203057e-05
-1.0069169e-05
6.1248471e-05
-6.7137971e-06
6.7965872e-05
-4.0618565e-07
7.2835526e-05
9.3195391e-06
7.3908489e-05
2.0761725e-05
7.1101162e-05
3.4628091e-05
6.4415352e-05
5.1666497e-05
5.1867525e-05
7.2371307e-05
3.0926572e-05
9.6361565e-05
3.7971162e-07
0.0001229197
-3.8099407e-05
0.0001532949
-8.4498831e-05
0.00018778295
-0.00014231989
0.00022705796
-0.00021375427
0.00026926578
-0.00029755562
0.00031473793
-0.00039224537
0.00036031424
-0.00049305185
0.00040765814
-0.00059686882
0.00044949253
-0.00070812624
0.00048642836
-0.00082724135
0.00051653147
-0.00094280787
0.00052413341
-0.0010427565
0.00052772158
-0.0011227348
0.00051155658
-0.0011627363
0.00044921869
-0.0011413888
0.00036451778
-0.0010487226
-0.00050073311
-1.3529403e-05
1.0286174e-06
-1.3551873e-05
1.2263485e-06
-1.3577709e-05
1.4693178e-06
-1.3608003e-05
1.7604274e-06
-1.3642164e-05
2.1091704e-06
-1.3681945e-05
2.5269846e-06
-1.3726534e-05
3.0273842e-06
-1.3778549e-05
3.6266591e-06
-1.3837169e-05
4.3441788e-06
-1.3907039e-05
5.202936e-06
-1.3988021e-05
6.2305936e-06
-1.4094485e-05
7.4600578e-06
-1.4239824e-05
8.9303367e-06
-1.441916e-05
1.0684754e-05
-1.4662077e-05
1.2772454e-05
-1.4954738e-05
1.5250784e-05
-1.523822e-05
1.819037e-05
-1.550917e-05
2.1663959e-05
-1.5779037e-05
2.5730719e-05
-1.5999724e-05
3.044376e-05
-1.6081633e-05
3.5836955e-05
-1.5906456e-05
4.1891027e-05
-1.5362337e-05
4.8543705e-05
-1.4210995e-05
5.5619506e-05
-1.2282193e-05
6.2833438e-05
-9.0728569e-06
6.9653061e-05
-2.8986739e-06
7.4396772e-05
6.5908472e-06
7.5065844e-05
1.7736981e-05
7.1667489e-05
3.1361557e-05
6.4093333e-05
4.8128838e-05
5.0205503e-05
6.8502051e-05
2.7515996e-05
9.2226863e-05
-5.2915378e-06
0.0001186898
-4.6840812e-05
0.00014911923
-9.7337981e-05
0.00018353857
-0.00015995773
0.00022286197
-0.00023680036
0.00026525632
-0.00032687724
0.00031123707
-0.00042874661
0.00035742039
-0.00053744965
0.00040555579
-0.00064957457
0.00044853814
-0.00076900855
0.00048687134
-0.00089535608
0.00051822423
-0.0010168893
0.00052782021
-0.0011202677
0.0005339323
-0.0012007068
0.00051828937
-0.0012369587
0.00045605942
-0.0012051283
0.00037108558
-0.0010955202
-0.00051878477
-1.4537935e-05
1.0541651e-06
-1.4563653e-05
1.2568858e-06
-1.4593846e-05
1.5059209e-06
-1.462982e-05
1.804341e-06
-1.4671835e-05
2.1618656e-06
-1.4722003e-05
2.5902444e-06
-1.4780562e-05
3.1033657e-06
-1.4850924e-05
3.7181269e-06
-1.4932834e-05
4.4543322e-06
-1.5031411e-05
5.335945e-06
-1.5146847e-05
6.3912967e-06
-1.5296803e-05
7.6541864e-06
-1.5501518e-05
9.1650271e-06
-1.5756909e-05
1.0970888e-05
-1.6012732e-05
1.3120337e-05
-1.6238259e-05
1.5666333e-05
-1.6514067e-05
1.8682439e-05
-1.685388e-05
2.2252643e-05
-1.7194184e-05
2.6440269e-05
-1.7483569e-05
3.129268e-05
-1.7645427e-05
3.6841984e-05
-1.7568022e-05
4.3071066e-05
-1.7145076e-05
4.9918546e-05
-1.6127985e-05
5.71956e-05
-1.4364398e-05
6.4606867e-05
-1.1285919e-05
7.1553634e-05
-5.235064e-06
7.6190066e-05
4.0175844e-06
7.6486933e-05
1.4870608e-05
7.2546976e-05
2.8254027e-05
6.4136471e-05
4.475391e-05
4.8960074e-05
6.4801971e-05
2.4579901e-05
8.8261506e-05
-1.0424509e-05
0.00011461795
-5.498155e-05
0.00014508162
-0.00010952242
0.00017942873
-0.00017689641
0.00021879199
-0.00025911134
0.00026136221
-0.00035545178
0.0003078266
-0.00046453547
0.00035459439
-0.0005812186
0.00040350444
-0.00070177685
0.00044761379
-0.00082960105
0.00048733357
-0.00096351005
0.00051993781
-0.0010913833
0.00053150972
-0.0011986506
0.00053999968
-0.0012801401
0.0005249234
-0.0013130441
0.0004628695
-0.0012708477
0.00037754701
-0.0011442868
-0.00053796861
-1.5466248e-05
1.0820476e-06
-1.5494906e-05
1.2901851e-06
-1.5528805e-05
1.5458329e-06
-1.5569203e-05
1.8521541e-06
-1.5617025e-05
2.2192488e-06
-1.5674205e-05
2.6590026e-06
-1.5742568e-05
3.1859187e-06
-1.5825111e-05
3.8171671e-06
-1.5924287e-05
4.5733328e-06
-1.6043932e-05
5.4789616e-06
-1.6188044e-05
6.563298e-06
-1.6364015e-05
7.8611221e-06
-1.6590543e-05
9.4136379e-06
-1.6864915e-05
1.1268968e-05
-1.7134812e-05
1.3479439e-05
-1.7383618e-05
1.6103432e-05
-1.7693541e-05
1.9214074e-05
-1.8085711e-05
2.28928e-05
-1.8493006e-05
2.7208391e-05
-1.8855469e-05
3.2211841e-05
-1.9098891e-05
3.7933893e-05
-1.9117173e-05
4.4357457e-05
-1.8808234e-05
5.1419992e-05
-1.7921443e-05
5.8920297e-05
-1.6323918e-05
6.6560921e-05
-1.336641e-05
7.3661699e-05
-7.429159e-06
7.8207115e-05
1.5898646e-06
7.8161205e-05
1.2155453e-05
7.3723664e-05
2.5299128e-05
6.4526408e-05
4.1535788e-05
4.8112972e-05
6.1265313e-05
2.2095887e-05
8.4460435e-05
-1.5047236e-05
0.0001106999
-6.2546827e-05
0.00014117926
-0.00012105831
0.00017544985
-0.00019312551
0.00021484431
-0.00028067116
0.00025757978
-0.0003832563
0.00030450225
-0.00049957277
0.00035183275
-0.00062429718
0.00040149936
-0.00075339311
0.00044671259
-0.00088979313
0.00048780375
-0.0010315569
0.00052165974
-0.0011661197
0.00053518837
-0.0012777292
0.000545926
-0.0013608393
0.00053145293
-0.0013908921
0.00046963757
-0.0013385607
0.00038388308
-0.0011950447
-0.00055829848
-1.6319182e-05
1.1121934e-06
-1.6350564e-05
1.3261406e-06
-1.6387755e-05
1.5889587e-06
-1.643205e-05
1.9038594e-06
-1.648448e-05
2.2812402e-06
-1.6546999e-05
2.7333454e-06
-1.6621727e-05
3.2750941e-06
-1.6711469e-05
3.9240611e-06
-1.681967e-05
4.7014973e-06
-1.6950299e-05
5.6326233e-06
-1.7108481e-05
6.747528e-06
-1.7299447e-05
8.0819295e-06
-1.7533265e-05
9.6785881e-06
-1.7810015e-05
1.1586732e-05
-1.8108239e-05
1.3862247e-05
-1.8422886e-05
1.6569132e-05
-1.8792893e-05
1.9781775e-05
-1.9231862e-05
2.3579742e-05
-1.9696365e-05
2.8034092e-05
-2.0127671e-05
3.3200377e-05
-2.0449385e-05
3.9109399e-05
-2.0560258e-05
4.5744619e-05
-2.0356774e-05
5.3040359e-05
-1.9594748e-05
6.0786782e-05
-1.816642e-05
6.8687754e-05
-1.5324885e-05
7.5969051e-05
-9.4913715e-06
8.043994e-05
-6.9953767e-07
8.0075379e-05
9.5846536e-06
7.5180373e-05
2.2490371e-05
6.5242436e-05
3.8468219e-05
4.7638762e-05
5.7885837e-05
2.0037217e-05
8.0817902e-05
-1.9186032e-05
0.00010693121
-6.956848e-05
0.00013740834
-0.00013199313
0.00017159849
-0.00020870381
0.00021101531
-0.00030154028
0.00025390466
-0.00041034992
0.00030126033
-0.00053391938
0.00034913163
-0.0006667481
0.00039953612
-0.00080448714
0.00044582785
-0.00094965059
0.00048827236
-0.0010995647
0.0005233824
-0.0012411686
0.00053884811
-0.0013575657
0.0005517086
-0.0014428465
0.00053787194
-0.0014704505
0.00047634313
-0.0014081563
0.00039007412
-0.0012476698
-0.00057969182
-1.7100425e-05
1.1445022e-06
-1.7134468e-05
1.3646933e-06
-1.7174773e-05
1.6351747e-06
-1.7222743e-05
1.959313e-06
-1.7279413e-05
2.3476813e-06
-1.7346768e-05
2.8130393e-06
-1.742684e-05
3.3706352e-06
-1.7522301e-05
4.0385927e-06
-1.7636993e-05
4.8388171e-06
-1.7774992e-05
5.797237e-06
-1.7942023e-05
6.9448099e-06
-1.8144263e-05
8.3187073e-06
-1.8388615e-05
9.9628682e-06
-1.8677501e-05
1.1928245e-05
-1.9008048e-05
1.4274014e-05
-1.9380623e-05
1.7068575e-05
-1.9809231e-05
2.0388452e-05
-2.0297869e-05
2.4313534e-05
-2.0815506e-05
2.8917013e-05
-2.1309461e-05
3.4257753e-05
-2.1703325e-05
4.0365919e-05
-2.1901769e-05
4.7227376e-05
-2.1794409e-05
5.4770278e-05
-2.1153143e-05
6.278016e-05
-1.9893265e-05
7.0971526e-05
-1.7161837e-05
7.8456917e-05
-1.1427287e-05
8.2868772e-05
-2.856675e-06
8.221433e-05
7.1516868e-06
7.6901389e-05
1.9820992e-05
6.626834e-05
3.5544391e-05
4.7522244e-05
5.4657423e-05
1.8384694e-05
7.732894e-05
-2.2866249e-05
0.00010330898
-7.6071492e-05
0.00013376822
-0.00014233982
0.00016787427
-0.00022363418
0.00020730421
-0.00032171839
0.00025033625
-0.00043672757
0.00029810041
-0.00056755642
0.00034649169
-0.00070853494
0.00039761524
-0.00085500774
0.00044495945
-0.0010091006
0.00048873672
-0.0011674332
0.00052510127
-0.0013164134
0.00054248206
-0.0014380385
0.0005573572
-0.0015260172
0.00054417386
-0.0015516386
0.00048296385
-0.0014796413
0.0003961048
-0.0013021746
-0.0006021577
-1.7813357e-05
1.1788837e-06
-1.7850018e-05
1.4058136e-06
-1.7893403e-05
1.68448e-06
-1.7944873e-05
2.0183773e-06
-1.8005676e-05
2.4185377e-06
-1.8077789e-05
2.8980414e-06
-1.816331e-05
3.4725034e-06
-1.8265092e-05
4.1608474e-06
-1.8387155e-05
4.9854043e-06
-1.8534004e-05
5.9731107e-06
-1.8711641e-05
7.1559433e-06
-1.8927906e-05
8.5724601e-06
-1.9188154e-05
1.0268178e-05
-1.9498553e-05
1.2295911e-05
-1.9862245e-05
1.4717666e-05
-2.0280639e-05
1.7604507e-05