/*--------------------------------*- C++ -*----------------------------------*\
  =========                 |
  \\      /  F ield         | OpenFOAM: The Open Source CFD Toolbox
   \\    /   O peration     | Website:  https://openfoam.org
    \\  /    A nd           | Version:  8
     \\/     M anipulation  |
\*---------------------------------------------------------------------------*/
FoamFile
{
    version     2.0;
    format      ascii;
    class       volScalarField;
    location    "0.18001";
    object      nut;
}
// * * * * * * * * * * * * * * * * * * * * * * * * * * * * * * * * * * * * * //

dimensions      [0 2 -1 0 0 0 0];

internalField   nonuniform List<scalar> 
20000
(
0.0011023537
0.0027558545
0.0036932688
0.0040220668
0.0035905595
0.0020423896
0.00027445218
1.4758521e-08
5.0401507e-09
5.0155913e-09
4.8998314e-09
4.9259506e-09
4.8657933e-09
4.8991399e-09
4.8985543e-09
4.9299139e-09
4.9536708e-09
4.9970891e-09
5.0436374e-09
5.1061801e-09
5.1775363e-09
5.2657326e-09
5.3691649e-09
5.4927854e-09
5.6295771e-09
5.7829582e-09
5.9482327e-09
6.1243529e-09
6.3046133e-09
6.4819409e-09
6.6492468e-09
6.8011733e-09
6.93394e-09
7.0465711e-09
7.1393895e-09
7.2127198e-09
7.2682832e-09
7.3152999e-09
7.3461602e-09
7.3600007e-09
7.3630841e-09
7.3567342e-09
7.3435637e-09
7.3255468e-09
7.2988026e-09
7.2768079e-09
7.2680404e-09
7.2652864e-09
7.2656898e-09
7.3283426e-09
0.0010874481
0.0027081972
0.0036187154
0.0039170087
0.0034545651
0.0018383599
0.00020066417
1.0058954e-08
4.998982e-09
4.9813593e-09
4.867402e-09
4.8953586e-09
4.83588e-09
4.8701104e-09
4.8704034e-09
4.9028026e-09
4.9276223e-09
4.9720648e-09
5.0197374e-09
5.0836897e-09
5.1576345e-09
5.2501204e-09
5.3595205e-09
5.4878295e-09
5.6293197e-09
5.785316e-09
5.9551182e-09
6.1342558e-09
6.3166848e-09
6.4949154e-09
6.6618491e-09
6.8124017e-09
6.9432526e-09
7.0538377e-09
7.14479e-09
7.2162874e-09
7.2713447e-09
7.318154e-09
7.3466089e-09
7.3590419e-09
7.3622924e-09
7.3552894e-09
7.341937e-09
7.3231551e-09
7.2953281e-09
7.2767351e-09
7.2677835e-09
7.2653318e-09
7.2650238e-09
7.3282453e-09
0.0010872827
0.0026812179
0.00355392
0.0038104447
0.0033044259
0.0016173624
0.00012694963
7.6841905e-09
4.964437e-09
4.9504996e-09
4.838862e-09
4.867751e-09
4.8089795e-09
4.8436862e-09
4.8449347e-09
4.878133e-09
4.90386e-09
4.9492114e-09
4.9985173e-09
5.0650349e-09
5.1438102e-09
5.2429605e-09
5.3567697e-09
5.4876318e-09
5.631088e-09
5.7917798e-09
5.9653995e-09
6.1478933e-09
6.3322952e-09
6.5110909e-09
6.6772758e-09
6.8259939e-09
6.9544437e-09
7.0625135e-09
7.1510851e-09
7.2203883e-09
7.2752539e-09
7.3210907e-09
7.3471767e-09
7.3575886e-09
7.3602576e-09
7.3532275e-09
7.3395627e-09
7.319618e-09
7.290863e-09
7.2740797e-09
7.2670746e-09
7.2638184e-09
7.2661228e-09
7.3283608e-09
0.0010851616
0.00265133
0.0034877652
0.0037031992
0.0031565601
0.001413389
6.7903756e-05
6.5043564e-09
4.932296e-09
4.9222579e-09
4.8130866e-09
4.8432118e-09
4.7853961e-09
4.8206749e-09
4.8228283e-09
4.8567702e-09
4.8836679e-09
4.9306024e-09
4.9828855e-09
5.0547909e-09
5.1385933e-09
5.2405175e-09
5.3561926e-09
5.4888177e-09
5.6379735e-09
5.8031858e-09
5.9811319e-09
6.1666962e-09
6.3527631e-09
6.531646e-09
6.696486e-09
6.8428e-09
6.968344e-09
7.0734622e-09
7.1591907e-09
7.2260429e-09
7.2807288e-09
7.3243533e-09
7.3481205e-09
7.357247e-09
7.3593879e-09
7.3513696e-09
7.3373823e-09
7.3158695e-09
7.2881824e-09
7.2728087e-09
7.2658776e-09
7.2634077e-09
7.2669363e-09
7.3284844e-09
0.0010831822
0.0026224022
0.0034225709
0.0035944669
0.0030084389
0.0012212231
2.8948224e-05
5.8872518e-09
4.905259e-09
4.8982758e-09
4.7913642e-09
4.8224521e-09
4.7655924e-09
4.8013994e-09
4.8045982e-09
4.8395869e-09
4.8686392e-09
4.9194252e-09
4.976084e-09
5.0508685e-09
5.1369941e-09
5.2403759e-09
5.3586216e-09
5.4959943e-09
5.6496706e-09
5.8197516e-09
6.0017614e-09
6.1902302e-09
6.3775495e-09
6.5559899e-09
6.7189134e-09
6.8622659e-09
6.9843852e-09
7.0860971e-09
7.1685139e-09
7.2326811e-09
7.2870453e-09
7.3279178e-09
7.3493239e-09
7.3570045e-09
7.358047e-09
7.3494521e-09
7.3349558e-09
7.3119791e-09
7.2856539e-09
7.2712384e-09
7.2648323e-09
7.2622614e-09
7.2684665e-09
7.3286112e-09
0.0010809916
0.002594139
0.0033593648
0.0034855973
0.0028570814
0.0010426757
1.0079733e-05
5.5528124e-09
4.8823629e-09
4.8782241e-09
4.7736349e-09
4.8057567e-09
4.7501533e-09
4.7866294e-09
4.7915695e-09
4.8294437e-09
4.8618606e-09
4.9150861e-09
4.9736142e-09
5.0500149e-09
5.1372437e-09
5.2437591e-09
5.3663373e-09
5.5080533e-09
5.6669709e-09
5.8418222e-09
6.0278463e-09
6.2188633e-09
6.4069448e-09
6.5843386e-09
6.7447054e-09
6.8844956e-09
7.0026872e-09
7.1005387e-09
7.1792172e-09
7.240581e-09
7.2942219e-09
7.3317996e-09
7.3506886e-09
7.3569518e-09
7.35707e-09
7.3478038e-09
7.3324686e-09
7.3082173e-09
7.283536e-09
7.2699776e-09
7.2637849e-09
7.2612866e-09
7.270317e-09
7.3288853e-09
0.0010787068
0.0025660892
0.0032980942
0.0033846781
0.0027014267
0.00087885806
3.1234905e-06
5.3674478e-09
4.8638288e-09
4.8623904e-09
4.7600556e-09
4.7927403e-09
4.7403209e-09
4.778699e-09
4.7859528e-09
4.8253886e-09
4.8593083e-09
4.913932e-09
4.9733916e-09
5.0510798e-09
5.1419597e-09
5.2522918e-09
5.3792219e-09
5.5259438e-09
5.6899198e-09
5.869559e-09
6.0593426e-09
6.2525121e-09
6.4407858e-09
6.616478e-09
6.7736296e-09
6.9092694e-09
7.0230217e-09
7.1165624e-09
7.1911338e-09
7.2497844e-09
7.3019144e-09
7.3358878e-09
7.3521127e-09
7.3570282e-09
7.3559596e-09
7.346227e-09
7.329867e-09
7.3045216e-09
7.2814193e-09
7.2687108e-09
7.262876e-09
7.260398e-09
7.2726717e-09
7.3293141e-09
0.001076151
0.0025373164
0.003235374
0.0032759874
0.002539004
0.00073090433
9.4337616e-07
5.2618342e-09
4.854468e-09
4.8500213e-09
4.7501902e-09
4.7801253e-09
4.7359447e-09
4.7753355e-09
4.7838377e-09
4.8241908e-09
4.8589381e-09
4.9142943e-09
4.9763393e-09
5.0573166e-09
5.1515751e-09
5.2660333e-09
5.3977827e-09
5.549564e-09
5.7188004e-09
5.9031152e-09
6.0963839e-09
6.2912057e-09
6.479029e-09
6.6523127e-09
6.8055632e-09
6.9364528e-09
7.0452804e-09
7.1340569e-09
7.2042209e-09
7.2604805e-09
7.3098941e-09
7.3401053e-09
7.3536596e-09
7.3574907e-09
7.3552149e-09
7.3444586e-09
7.3271814e-09
7.3008845e-09
7.2793417e-09
7.2675237e-09
7.2621392e-09
7.2597436e-09
7.2754771e-09
7.3299386e-09
0.0010734959
0.0025083131
0.003171163
0.003169672
0.0023707512
0.00060146638
2.992654e-07
5.2025306e-09
4.8453198e-09
4.839337e-09
4.7391306e-09
4.7724871e-09
4.7344888e-09
4.7742422e-09
4.7835585e-09
4.8247224e-09
4.8615144e-09
4.9194436e-09
4.9841266e-09
5.0681535e-09
5.1664186e-09
5.2852966e-09
5.4220537e-09
5.5791629e-09
5.753663e-09
5.9425275e-09
6.1389148e-09
6.3348221e-09
6.5214923e-09
6.6916271e-09
6.840286e-09
6.9658461e-09
7.0692707e-09
7.1528355e-09
7.2183607e-09
7.2724927e-09
7.318083e-09
7.344423e-09
7.3552917e-09
7.3582636e-09
7.3544916e-09
7.3426222e-09
7.3243913e-09
7.2973321e-09
7.2772223e-09
7.2663539e-09
7.2615884e-09
7.2594575e-09
7.2787589e-09
7.3308026e-09
0.001070928
0.0024793642
0.0031070793
0.0030623058
0.0021956246
0.00048707121
1.0514475e-07
5.167869e-09
4.8414414e-09
4.8302111e-09
4.7337983e-09
4.7654825e-09
4.7344957e-09
4.7755801e-09
4.786773e-09
4.8297525e-09
4.8686553e-09
4.9288366e-09
4.9966051e-09
5.0841743e-09
5.1865998e-09
5.3101694e-09
5.4522136e-09
5.6147894e-09
5.7945949e-09
5.9878075e-09
6.1868789e-09
6.3832245e-09
6.5679799e-09
6.7341952e-09
6.87757e-09
6.9972371e-09
7.0947978e-09
7.1727254e-09
7.233476e-09
7.2855169e-09
7.3264728e-09
7.3488368e-09
7.3571189e-09
7.3592659e-09
7.3536869e-09
7.3407496e-09
7.3215026e-09
7.2939704e-09
7.2751445e-09
7.2652607e-09
7.2611581e-09
7.2594009e-09
7.2823714e-09
7.3318929e-09
0.0010683611
0.0024499575
0.0030425131
0.0029553643
0.0020145887
0.00038391365
4.2637233e-08
5.1448086e-09
4.8411229e-09
4.8309391e-09
4.7349905e-09
4.7672069e-09
4.7392071e-09
4.7813015e-09
4.7941873e-09
4.8388083e-09
4.8801096e-09
4.9429749e-09
5.0139991e-09
5.1052685e-09
5.2121892e-09
5.3407235e-09
5.4882777e-09
5.6564827e-09
5.8415643e-09
6.0388732e-09
6.2401175e-09
6.4361942e-09
6.6182323e-09
6.7797443e-09
6.9171548e-09
7.03039e-09
7.121636e-09
7.193555e-09
7.2495607e-09
7.2992384e-09
7.3349452e-09
7.353322e-09
7.3593755e-09
7.3603286e-09
7.3527749e-09
7.3387566e-09
7.3185055e-09
7.2909241e-09
7.2732059e-09
7.2642423e-09
7.2608139e-09
7.2594461e-09
7.2863531e-09
7.3331698e-09
0.001065586
0.0024197263
0.0029762278
0.0028437616
0.001829452
0.00029223344
2.0882978e-08
5.1320534e-09
4.8423758e-09
4.8345766e-09
4.7407022e-09
4.7741208e-09
4.7476478e-09
4.7907852e-09
4.8056517e-09
4.8521827e-09
4.8960608e-09
4.9617169e-09
5.0362954e-09
5.1315754e-09
5.24325e-09
5.3770183e-09
5.5303128e-09
5.7042593e-09
5.8945493e-09
6.0956248e-09
6.29845e-09
6.4934805e-09
6.6719591e-09
6.8279734e-09
6.958754e-09
7.0650405e-09
7.1495346e-09
7.2151712e-09
7.266712e-09
7.3132644e-09
7.3433764e-09
7.3577172e-09
7.3621115e-09
7.3613366e-09
7.3519436e-09
7.3366634e-09
7.315394e-09
7.2882693e-09
7.271501e-09
7.2632911e-09
7.2605793e-09
7.2595438e-09
7.2907134e-09
7.3345914e-09
0.0010626763
0.0023887115
0.0029079519
0.0027291729
0.0016429641
0.00021024855
1.2411369e-08
5.1248946e-09
4.8469341e-09
4.8404742e-09
4.7499023e-09
4.7843081e-09
4.759942e-09
4.8042399e-09
4.821207e-09
4.8697878e-09
4.9164508e-09
4.9851674e-09
5.0635195e-09
5.1630544e-09
5.2797735e-09
5.4190408e-09
5.5782873e-09
5.7580651e-09
5.9534394e-09
6.1578808e-09
6.3616255e-09
6.554779e-09
6.7288317e-09
6.8785562e-09
7.0020639e-09
7.1009085e-09
7.1782411e-09
7.2374596e-09
7.2850307e-09
7.3271656e-09
7.3516858e-09
7.3623278e-09
7.3652254e-09
7.3623835e-09
7.351195e-09
7.3344551e-09
7.3121797e-09
7.285989e-09
7.270138e-09
7.2625383e-09
7.2604717e-09
7.2602255e-09
7.2952274e-09
7.3361452e-09
0.0010596888
0.0023571107
0.0028365301
0.0026156624
0.0014582986
0.00013676003
8.7511298e-09
5.1233593e-09
4.8546094e-09
4.850265e-09
4.7624917e-09
4.7981445e-09
4.7760291e-09
4.8215882e-09
4.8408642e-09
4.8916646e-09
4.941315e-09
5.0132781e-09
5.0956708e-09
5.199742e-09
5.3217864e-09
5.4668221e-09
5.6322154e-09
5.817876e-09
6.0181366e-09
6.2254597e-09
6.4293778e-09
6.6197653e-09
6.7884957e-09
6.9311386e-09
7.0467541e-09
7.1376905e-09
7.2075148e-09
7.2603512e-09
7.3042764e-09
7.3407019e-09
7.3598101e-09
7.3671665e-09
7.3685588e-09
7.36345e-09
7.3503636e-09
7.3321388e-09
7.3089062e-09
7.284028e-09
7.2691349e-09
7.2621331e-09
7.2603858e-09
7.2615291e-09
7.299874e-09
7.3378073e-09
0.0010566162
0.0023258367
0.0027664743
0.0025013456
0.0012774536
7.4876395e-05
7.027817e-09
5.1259206e-09
4.8657139e-09
4.8631078e-09
4.7787456e-09
4.8156748e-09
4.7959366e-09
4.8428886e-09
4.8646078e-09
4.9177862e-09
4.9706053e-09
5.0460295e-09
5.132711e-09
5.2415879e-09
5.3692512e-09
5.5203151e-09
5.6920361e-09
5.8835858e-09
6.0884686e-09
6.2981057e-09
6.5013798e-09
6.6880666e-09
6.850558e-09
6.9853439e-09
7.09249e-09
7.1750915e-09
7.2371679e-09
7.2838516e-09
7.323878e-09
7.3538131e-09
7.3677045e-09
7.3725129e-09
7.3719113e-09
7.3645733e-09
7.349484e-09
7.3297239e-09
7.305696e-09
7.2823389e-09
7.2683881e-09
7.2619443e-09
7.2603612e-09
7.2635109e-09
7.3045907e-09
7.339541e-09
0.0010534146
0.0022947145
0.0026975303
0.0023839391
0.0011029478
3.2247265e-05
6.1763908e-09
5.1319193e-09
4.8801924e-09
4.8801439e-09
4.798605e-09
4.8369055e-09
4.8196684e-09
4.8680896e-09
4.8924204e-09
4.9480798e-09
5.0042813e-09
5.0833897e-09
5.1746338e-09
5.2886091e-09
5.4221831e-09
5.5795425e-09
5.7577467e-09
5.9551332e-09
6.164287e-09
6.3755688e-09
6.5772967e-09
6.7592836e-09
6.9145898e-09
7.0407709e-09
7.1389287e-09
7.2128309e-09
7.267068e-09
7.3079921e-09
7.3432529e-09
7.3664218e-09
7.3755906e-09
7.3781778e-09
7.3752028e-09
7.3657283e-09
7.3485073e-09
7.3272228e-09
7.3025741e-09
7.2809364e-09
7.2679186e-09
7.2618809e-09
7.2603942e-09
7.2663177e-09
7.3093027e-09
7.3412638e-09
0.001049946
0.0022628056
0.0026267246
0.0022617209
0.00093772534
1.0997321e-05
5.7483005e-09
5.1422205e-09
4.898319e-09
4.900506e-09
4.8220946e-09
4.8618093e-09
4.8471517e-09
4.897137e-09
4.9241872e-09
4.9825229e-09
5.0422964e-09
5.1253198e-09
5.2214017e-09
5.340774e-09
5.4805587e-09
5.6444658e-09
5.8292741e-09
6.0323798e-09
6.2453667e-09
6.4575311e-09
6.6567317e-09
6.8329601e-09
6.9801301e-09
7.0970237e-09
7.1857548e-09
7.2506855e-09
7.2971463e-09
7.3326835e-09
7.3618451e-09
7.3784976e-09
7.3837517e-09
7.3839104e-09
7.3783562e-09
7.3667448e-09
7.3474195e-09
7.3246496e-09
7.2995459e-09
7.2797306e-09
7.2677106e-09
7.2618606e-09
7.2606069e-09
7.2700397e-09
7.3139277e-09
7.342961e-09
0.0010463103
0.0022306838
0.0025547307
0.0021341052
0.00078398186
3.2147254e-06
5.5354924e-09
5.1577534e-09
4.9202502e-09
4.9244244e-09
4.8490856e-09
4.8902315e-09
4.8782726e-09
4.9299014e-09
4.9598792e-09
5.0210142e-09
5.0846088e-09
5.1718098e-09
5.2730321e-09
5.3981236e-09
5.5444254e-09
5.7151254e-09
5.9066118e-09
6.1152378e-09
6.33151e-09
6.5436836e-09
6.7392674e-09
6.9086129e-09
7.0467218e-09
7.153739e-09
7.2326808e-09
7.2884762e-09
7.32734e-09
7.3573599e-09
7.379475e-09
7.3902007e-09
7.3922819e-09
7.3894814e-09
7.3812876e-09
7.3672225e-09
7.346197e-09
7.3220132e-09
7.2966545e-09
7.2785606e-09
7.2676317e-09
7.2622156e-09
7.2612395e-09
7.2748999e-09
7.318389e-09
7.3445993e-09
0.0010426234
0.002198669
0.0024816783
0.0020049589
0.00064382773
8.9850698e-07
5.4357075e-09
5.1759279e-09
4.9452182e-09
4.9514821e-09
4.8793568e-09
4.9220403e-09
4.912922e-09
4.9663344e-09
4.9993927e-09
5.0635616e-09
5.1312052e-09
5.2228495e-09
5.3295215e-09
5.4606584e-09
5.613782e-09
5.7914958e-09
5.9896804e-09
6.2035377e-09
6.4224357e-09
6.6336296e-09
6.824405e-09
6.9857264e-09
7.1139638e-09
7.2106287e-09
7.2794537e-09
7.3260461e-09
7.3575316e-09
7.3812896e-09
7.396188e-09
7.4019749e-09
7.4007834e-09
7.3948669e-09
7.3839505e-09
7.3674196e-09
7.3448251e-09
7.3193202e-09
7.294054e-09
7.2773946e-09
7.2676269e-09
7.2629946e-09
7.2623466e-09
7.2809733e-09
7.3226244e-09
7.3461271e-09
0.0010389882
0.0021673167
0.0024082325
0.0018687552
0.00051832749
2.6667692e-07
5.3942569e-09
5.197163e-09
4.9732854e-09
4.981676e-09
4.9128848e-09
4.9571881e-09
4.9510681e-09
5.0063731e-09
5.0427463e-09
5.1101118e-09
5.1820863e-09
5.2784716e-09
5.3909299e-09
5.528457e-09
5.688708e-09
5.8736285e-09
6.0784667e-09
6.2971592e-09
6.5178852e-09
6.7269594e-09
6.9116307e-09
7.063833e-09
7.1815754e-09
7.2674704e-09
7.3258119e-09
7.3631771e-09
7.3873934e-09
7.4039729e-09
7.4122391e-09
7.4139308e-09
7.4090247e-09
7.4000146e-09
7.3863712e-09
7.367452e-09
7.3432907e-09
7.3165756e-09
7.2919404e-09
7.2763297e-09
7.2677058e-09
7.2641193e-09
7.2640024e-09
7.2880203e-09
7.3265917e-09
7.3475894e-09
0.0010354758
0.0021368882
0.0023400088
0.0017258016
0.00041122411
9.2428901e-08
5.3835317e-09
5.2214487e-09
5.0044306e-09
5.0149853e-09
4.949623e-09
4.995633e-09
4.9926683e-09
5.0500192e-09
5.0898954e-09
5.160716e-09
5.2372797e-09
5.3387116e-09
5.4572966e-09
5.6015614e-09
5.7692266e-09
5.9615066e-09
6.1728675e-09
6.3958913e-09
6.6174896e-09
6.8231617e-09
7.0004011e-09
7.1425696e-09
7.2493853e-09
7.3240136e-09
7.3714486e-09
7.3995595e-09
7.4162279e-09
7.4254668e-09
7.4281695e-09
7.4255951e-09
7.4169562e-09
7.4049134e-09
7.3886552e-09
7.3674288e-09
7.3415711e-09
7.3137861e-09
7.2904058e-09
7.2758986e-09
7.2678877e-09
7.265366e-09
7.2664486e-09
7.2954039e-09
7.3305018e-09
7.3490148e-09
0.0010319626
0.0021060361
0.0022720156
0.0015755667
0.00031614773
3.8607877e-08
5.3900993e-09
5.2488098e-09
5.0386027e-09
5.0513577e-09
4.9895258e-09
5.0373582e-09
5.0377287e-09
5.0972733e-09
5.140893e-09
5.2153711e-09
5.2968375e-09
5.4036504e-09
5.5287317e-09
5.6800885e-09
5.855452e-09
6.0551888e-09
6.2728552e-09
6.4995407e-09
6.7208851e-09
6.9217298e-09
7.0902686e-09
7.2217524e-09
7.3171906e-09
7.3797695e-09
7.4159853e-09
7.4348143e-09
7.4436841e-09
7.446237e-09
7.4437882e-09
7.436823e-09
7.4245002e-09
7.4095415e-09
7.390934e-09
7.3673044e-09
7.3396299e-09
7.3110685e-09
7.2891666e-09
7.2757234e-09
7.2683209e-09
7.2662042e-09
7.2701883e-09
7.3028859e-09
7.3343612e-09
7.350419e-09
0.0010285463
0.0020746084
0.0022019001
0.0014196211
0.00023105466
1.9837716e-08
5.4068962e-09
5.2789764e-09
5.0756966e-09
5.0907281e-09
5.0326109e-09
5.0823666e-09
5.0862836e-09
5.148159e-09
5.1957494e-09
5.2741623e-09
5.3608303e-09
5.4733729e-09
5.6053183e-09
5.764121e-09
5.9474301e-09
6.1546641e-09
6.3782921e-09
6.6078004e-09
6.8275742e-09
7.0221048e-09
7.1809093e-09
7.301259e-09
7.3843658e-09
7.4340604e-09
7.4589748e-09
7.468682e-09
7.4700406e-09
7.4665058e-09
7.4587702e-09
7.4475314e-09
7.4316082e-09
7.4138518e-09
7.3932387e-09
7.3668961e-09
7.3374031e-09
7.3084521e-09
7.2880745e-09
7.2756799e-09
7.2690017e-09
7.2671735e-09
7.2751582e-09
7.3102521e-09
7.3381335e-09
7.3518087e-09
0.0010252467
0.0020426766
0.0021314254
0.0012614881
0.00015543649
1.2478545e-08
5.4305187e-09
5.3121599e-09
5.1157685e-09
5.1332305e-09
5.0789027e-09
5.1307216e-09
5.1383425e-09
5.202716e-09
5.2545326e-09
5.3371393e-09
5.4293609e-09
5.5480134e-09
5.6872103e-09
5.8538177e-09
6.0452957e-09
6.2599903e-09
6.4890917e-09
6.7203742e-09
6.9370723e-09
7.1238387e-09
7.2721976e-09
7.3807365e-09
7.4499681e-09
7.4863365e-09
7.5002206e-09
7.5013878e-09
7.4955276e-09
7.4858474e-09
7.4730912e-09
7.4576705e-09
7.4382457e-09
7.4177711e-09
7.3952516e-09
7.3662061e-09
7.3348198e-09
7.3060093e-09
7.2870994e-09
7.2757006e-09
7.2700607e-09
7.2686022e-09
7.2814482e-09
7.3173394e-09
7.3417868e-09
7.3531915e-09
0.0010220333
0.0020098562
0.0020592013
0.0011084205
9.0647504e-05
9.2620188e-09
5.4593203e-09
5.348382e-09
5.1589105e-09
5.1788261e-09
5.128429e-09
5.1823958e-09
5.1939457e-09
5.260987e-09
5.3173121e-09
5.4044346e-09
5.5025559e-09
5.6277e-09
5.7745376e-09
5.9492923e-09
6.1491117e-09
6.3711198e-09
6.6050174e-09
6.8368056e-09
7.048813e-09
7.2265885e-09
7.363984e-09
7.4590889e-09
7.513323e-09
7.5362746e-09
7.5401767e-09
7.5328776e-09
7.5197894e-09
7.5042996e-09
7.4866615e-09
7.4672032e-09
7.4444102e-09
7.4212593e-09
7.3960335e-09
7.3652084e-09
7.3318718e-09
7.3038497e-09
7.2863364e-09
7.2762563e-09
7.2714957e-09
7.2704315e-09
7.2889312e-09
7.3240249e-09
7.3453337e-09
7.354593e-09
0.0010186707
0.0019741391
0.0019839865
0.00096453658
4.2941921e-05
7.7457761e-09
5.4919519e-09
5.3875425e-09
5.2050247e-09
5.2275005e-09
5.1811751e-09
5.2374352e-09
5.2531723e-09
5.3230748e-09
5.3842135e-09
5.4761569e-09
5.5805673e-09
5.7126142e-09
5.8675029e-09
6.0507407e-09
6.2590257e-09
6.4880618e-09
6.7258608e-09
6.9566512e-09
7.162343e-09
7.3302285e-09
7.4556766e-09
7.5353127e-09
7.5738354e-09
7.5844094e-09
7.578722e-09
7.5628235e-09
7.5428443e-09
7.5217538e-09
7.4994474e-09
7.4761006e-09
7.4501204e-09
7.4244018e-09
7.3963582e-09
7.3638907e-09
7.3287111e-09
7.3021094e-09
7.2859894e-09
7.2770113e-09
7.273128e-09
7.2725374e-09
7.2979817e-09
7.3301735e-09
7.3488351e-09
7.356072e-09
0.0010149185
0.0019344035
0.0019043265
0.00082971253
1.6206913e-05
7.0008592e-09
5.5280472e-09
5.4297129e-09
5.2541441e-09
5.2792847e-09
5.2371946e-09
5.295908e-09
5.3161193e-09
5.3890958e-09
5.4553612e-09
5.5524821e-09
5.6635579e-09
5.8029336e-09
5.9662783e-09
6.1583066e-09
6.3750863e-09
6.6106857e-09
6.8512335e-09
7.0793483e-09
7.2772511e-09
7.4346012e-09
7.5459905e-09
7.6085498e-09
7.6316426e-09
7.6311399e-09
7.6153428e-09
7.5912061e-09
7.5645964e-09
7.5381917e-09
7.511407e-09
7.4843331e-09
7.4553869e-09
7.4273821e-09
7.396385e-09
7.3622181e-09
7.3256914e-09
7.3006854e-09
7.2858618e-09
7.2777092e-09
7.2747326e-09
7.2751596e-09
7.3068477e-09
7.3361377e-09
7.3524113e-09
7.3577168e-09
0.0010106364
0.0018906398
0.0018187681
0.00070452262
5.1510617e-06
6.6328064e-09
5.5673679e-09
5.474767e-09
5.3062599e-09
5.33423e-09
5.2966002e-09
5.3579558e-09
5.3828459e-09
5.4591752e-09
5.5308995e-09
5.6335485e-09
5.7517272e-09
5.8988949e-09
6.0711145e-09
6.2722127e-09
6.4974097e-09
6.7388927e-09
6.9807687e-09
7.2044379e-09
7.3933388e-09
7.5390964e-09
7.633757e-09
7.6782327e-09
7.6876794e-09
7.6756971e-09
7.650039e-09
7.6179296e-09
7.5850287e-09
7.5535758e-09
7.5225199e-09
7.4918802e-09
7.4601793e-09
7.4303258e-09
7.396338e-09
7.3601029e-09
7.3230296e-09
7.2994869e-09
7.2858452e-09
7.2784604e-09
7.2758739e-09
7.2788132e-09
7.315008e-09
7.34171e-09
7.3560302e-09
7.3596578e-09
0.0010056549
0.0018421465
0.0017214174
0.00058989653
1.5221716e-06
6.4575592e-09
5.6099199e-09
5.5228964e-09
5.3615499e-09
5.3925452e-09
5.3595731e-09
5.4237153e-09
5.4535204e-09
5.5333824e-09
5.6109721e-09
5.7195734e-09
5.8453046e-09
6.0007355e-09
6.182232e-09
6.3926035e-09
6.6259764e-09
6.8723863e-09
7.1139313e-09
7.3314411e-09
7.5104348e-09
7.6422742e-09
7.7180451e-09
7.7449141e-09
7.7416424e-09
7.7179203e-09
7.6826788e-09
7.6429729e-09
7.6041102e-09
7.5678931e-09
7.5327734e-09
7.4987401e-09
7.4644322e-09
7.4328993e-09
7.396014e-09
7.3574763e-09
7.3208751e-09
7.298469e-09
7.2858418e-09
7.2792817e-09
7.2769992e-09
7.283635e-09
7.3220786e-09
7.3465552e-09
7.3594586e-09
7.3621137e-09
0.0010000805
0.0017899147
0.0016111698
0.00048654368
4.5910554e-07
6.383343e-09
5.656011e-09
5.5743783e-09
5.4202457e-09
5.4543568e-09
5.4262242e-09
5.4932627e-09
5.5282329e-09
5.6119639e-09
5.6957785e-09
5.8107772e-09
5.94457e-09
6.1087671e-09
6.29992e-09
6.5196993e-09
6.7607933e-09
7.0108942e-09
7.2502624e-09
7.4600799e-09
7.6281446e-09
7.742704e-09
7.79816e-09
7.8095184e-09
7.7928972e-09
7.7576736e-09
7.7132377e-09
7.6663082e-09
7.6218354e-09
7.5811354e-09
7.5421675e-09
7.5049441e-09
7.468138e-09
7.4338641e-09
7.3952516e-09
7.3544596e-09
7.3191437e-09
7.2979671e-09
7.2861329e-09
7.2803324e-09
7.2783898e-09
7.2896941e-09
7.3279878e-09
7.350726e-09
7.3625266e-09
7.3648217e-09
0.00099412809
0.001735358
0.0014902227
0.00039158283
1.5389561e-07
6.3631784e-09
5.7054777e-09
5.6292751e-09
5.4823252e-09
5.5196944e-09
5.4965522e-09
5.5666798e-09
5.6070876e-09
5.6951163e-09
5.7855518e-09
5.9074903e-09
6.0498413e-09
6.2232785e-09
6.424426e-09
6.6535846e-09
6.9016901e-09
7.1539187e-09
7.3892368e-09
7.5900889e-09
7.7449417e-09
7.8393747e-09
7.8747289e-09
7.8715524e-09
7.8412521e-09
7.7948936e-09
7.7416832e-09
7.6879365e-09
7.6382069e-09
7.5933051e-09
7.5507032e-09
7.5105352e-09
7.4714677e-09
7.434262e-09
7.3940312e-09
7.351204e-09
7.317615e-09
7.2977706e-09
7.2866518e-09
7.2816702e-09
7.2801147e-09
7.2964655e-09
7.3330276e-09
7.3544574e-09
7.3653721e-09
7.3674172e-09
0.00098791378
0.0016789429
0.0013621424
0.00030942193
6.2646809e-08
6.37199e-09
5.7583117e-09
5.6873675e-09
5.5478006e-09
5.5885028e-09
5.5706668e-09
5.644083e-09
5.6903281e-09
5.7831128e-09
5.880642e-09
6.0100204e-09
6.1614709e-09
6.3446312e-09
6.5560489e-09
6.7944038e-09
7.0485002e-09
7.3010475e-09
7.5304775e-09
7.7212461e-09
7.8592498e-09
7.9313684e-09
7.9486863e-09
7.930373e-09
7.8865916e-09
7.8295414e-09
7.7680156e-09
7.7078653e-09
7.6532397e-09
7.6044139e-09
7.5583868e-09
7.5155336e-09
7.474632e-09
7.4342959e-09
7.3922849e-09
7.347833e-09
7.3161407e-09
7.2977382e-09
7.2875978e-09
7.2832875e-09
7.2821647e-09
7.303564e-09
7.3378166e-09
7.3578948e-09
7.3679906e-09
7.3698397e-09
0.00098142614
0.0016193031
0.001239939
0.00023462137
3.0327622e-08
6.3963989e-09
5.8140643e-09
5.7487081e-09
5.6166789e-09
5.66097e-09
5.6487409e-09
5.7257654e-09
5.7782497e-09
5.8762838e-09
5.9813854e-09
6.1187841e-09
6.2798249e-09
6.4731512e-09
6.6950003e-09
6.9421086e-09
7.2008303e-09
7.4517192e-09
7.6735692e-09
7.8523157e-09
7.969714e-09
8.0190245e-09
8.0197292e-09
7.9856747e-09
7.9288472e-09
7.8616073e-09
7.7922487e-09
7.7261189e-09
7.6669552e-09
7.6144816e-09
7.5652366e-09
7.5199169e-09
7.4774783e-09
7.4342576e-09
7.389895e-09
7.344541e-09
7.3147385e-09
7.2977686e-09
7.2888561e-09
7.2851672e-09
7.2844562e-09
7.3107079e-09
7.3424478e-09
7.3610986e-09
7.3704123e-09
7.3721076e-09
0.00097503276
0.0015554656
0.001115694
0.00016630401
1.7733096e-08
6.430498e-09
5.8731041e-09
5.8135457e-09
5.6892346e-09
5.7373846e-09
5.7311381e-09
5.8120927e-09
5.8712554e-09
5.9750032e-09
6.088201e-09
6.234127e-09
6.4053024e-09
6.6092141e-09
6.841534e-09
7.0966683e-09
7.3583307e-09
7.6055327e-09
7.8183061e-09
7.9816069e-09
8.075219e-09
8.1033005e-09
8.0871252e-09
8.0373666e-09
7.9679923e-09
7.8911057e-09
7.814413e-09
7.7427325e-09
7.6793884e-09
7.6235349e-09
7.5712997e-09
7.5237017e-09
7.4789408e-09
7.4337528e-09
7.3867507e-09
7.3415549e-09
7.3135704e-09
7.2980508e-09
7.2901996e-09
7.287179e-09
7.287082e-09
7.317695e-09
7.3469283e-09
7.3641219e-09
7.3726778e-09
7.374248e-09
0.00096970863
0.0014984606
0.00099189938
0.00010515715
1.2271461e-08
6.4702446e-09
5.9355834e-09
5.8821551e-09
5.7658364e-09
5.8181518e-09
5.8182844e-09
5.9034723e-09
5.9697234e-09
6.0796653e-09
6.2014466e-09
6.3565116e-09
6.5383023e-09
6.7531367e-09
6.9957354e-09
7.2578008e-09
7.5204402e-09
7.761965e-09
7.9640287e-09
8.1072403e-09
8.1753913e-09
8.1844529e-09
8.1503367e-09
8.0853585e-09
8.0040272e-09
7.9180726e-09
7.8345585e-09
7.7577588e-09
7.6905806e-09
7.6316019e-09
7.576639e-09
7.527063e-09
7.4795218e-09
7.4326482e-09
7.3828706e-09
7.3390574e-09
7.312694e-09
7.2985539e-09
7.2916251e-09
7.2890328e-09
7.290303e-09
7.324496e-09
7.3512444e-09
7.3669886e-09
7.3748182e-09
7.3762783e-09
0.0009647272
0.0014380905
0.00086973364
5.5681755e-05
9.7065874e-09
6.5141007e-09
6.0019672e-09
5.9550563e-09
5.8469937e-09
5.9037374e-09
5.9105783e-09
6.000275e-09
6.0739984e-09
6.1906436e-09
6.3215756e-09
6.486332e-09
6.6792683e-09
6.9052796e-09
7.1577097e-09
7.4252486e-09
7.6867329e-09
7.9206682e-09
8.1089932e-09
8.2280269e-09
8.2711493e-09
8.2615877e-09
8.2093056e-09
8.1296336e-09
8.0369883e-09
7.9425674e-09
7.8527542e-09
7.7712631e-09
7.7005818e-09
7.638718e-09
7.5813118e-09
7.5302149e-09
7.4796606e-09
7.4309596e-09
7.3787114e-09
7.3368493e-09
7.3121064e-09
7.299215e-09
7.2929919e-09
7.2906012e-09
7.294533e-09
7.3309887e-09
7.355348e-09
7.3696917e-09
7.3768261e-09
7.378165e-09
0.00096050332
0.0013754391
0.00075204094
2.3708361e-05
8.4478921e-09
6.5623831e-09
6.0729194e-09
6.0327596e-09
5.9331568e-09
5.9944139e-09
6.0083248e-09
6.1027666e-09
6.184451e-09
6.3083651e-09
6.4490208e-09
6.6241252e-09
6.8286366e-09
7.0658845e-09
7.3273239e-09
7.5984928e-09
7.856602e-09
8.0811301e-09
8.251103e-09
8.3426862e-09
8.3635374e-09
8.3338593e-09
8.2638973e-09
8.1701956e-09
8.0669329e-09
7.9646704e-09
7.8690831e-09
7.783315e-09
7.70944e-09
7.644935e-09
7.5853635e-09
7.5329706e-09
7.4796658e-09
7.428733e-09
7.3744453e-09
7.3348937e-09
7.3117597e-09
7.2999605e-09
7.2943868e-09
7.2921212e-09
7.3000759e-09
7.3369174e-09
7.3591427e-09
7.3721805e-09
7.378666e-09
7.3799054e-09
0.00095733366
0.0013102074
0.00064061402
8.3088452e-06
7.8256217e-09
6.6176683e-09
6.148543e-09
6.1154073e-09
6.0243529e-09
6.0903833e-09
6.1117132e-09
6.211323e-09
6.3014864e-09
6.4333196e-09
6.5843367e-09
6.7703563e-09
6.9868761e-09
7.2351942e-09
7.5044718e-09
7.777121e-09
8.0295993e-09
8.2422338e-09
8.3886289e-09
8.4519556e-09
8.4515348e-09
8.4011929e-09
8.3141025e-09
8.2071028e-09
8.0939523e-09
7.9844822e-09
7.8836305e-09
7.7939664e-09
7.7171913e-09
7.6503342e-09
7.5888982e-09
7.5341516e-09
7.479461e-09
7.4259502e-09
7.3702265e-09
7.3331301e-09
7.3116429e-09
7.3007838e-09
7.295962e-09
7.2939207e-09
7.3067721e-09
7.3420635e-09
7.3625566e-09
7.3744421e-09
7.3803233e-09
7.3814658e-09
0.00095547588
0.001246493
0.00053678003
2.5936046e-06
7.5282485e-09
6.6809178e-09
6.228798e-09
6.2028183e-09
6.1207767e-09
6.1918689e-09
6.2211537e-09
6.3263613e-09
6.4256366e-09
6.5660654e-09
6.7280564e-09
6.9256482e-09
7.1543622e-09
7.4132498e-09
7.6887114e-09
7.9605319e-09
8.2051034e-09
8.4017415e-09
8.5199716e-09
8.55672e-09
8.5343279e-09
8.463402e-09
8.3599133e-09
8.2404324e-09
8.1181577e-09
8.0021103e-09
7.8964639e-09
7.8032389e-09
7.7238577e-09
7.6550073e-09
7.5921053e-09
7.5346567e-09
7.47868e-09
7.4224587e-09
7.3662651e-09
7.3315157e-09
7.3116632e-09
7.3017398e-09
7.2977832e-09
7.2960894e-09
7.3137408e-09
7.3467125e-09
7.3656415e-09
7.3764821e-09
7.3818167e-09
7.3828781e-09
0.0009539227
0.0011734207
0.00044089255
8.0024884e-07
7.3968947e-09
6.7473413e-09
6.3138849e-09
6.2954762e-09
6.222859e-09
6.2993778e-09
6.3371744e-09
6.4484171e-09
6.5574709e-09
6.7072108e-09
6.8808341e-09
7.0904596e-09
7.3314801e-09
7.6000556e-09
7.8796848e-09
8.1482268e-09
8.3826285e-09
8.5574289e-09
8.6446767e-09
8.6570995e-09
8.6113379e-09
8.5204724e-09
8.4014067e-09
8.2703119e-09
8.1396844e-09
8.0176533e-09
7.9076196e-09
7.8111475e-09
7.7294927e-09
7.6590488e-09
7.5949202e-09
7.5347718e-09
7.4772868e-09
7.4180907e-09
7.3627874e-09
7.3301011e-09
7.3118626e-09
7.303001e-09
7.2998482e-09
7.298649e-09
7.321054e-09
7.3511479e-09
7.368477e-09
7.37832e-09
7.383162e-09
7.3841526e-09
0.0009526787
0.0010947106
0.00035432488
2.679387e-07
7.3540611e-09
6.8190268e-09
6.4043601e-09
6.3939185e-09
6.3311865e-09
6.4134673e-09
6.4603864e-09
6.5782156e-09
6.6976581e-09
6.8574157e-09
7.0432607e-09
7.2654258e-09
7.5184463e-09
7.7953345e-09
8.0767408e-09
8.3393942e-09
8.5601239e-09
8.7073466e-09
8.763482e-09
8.7519186e-09
8.6824422e-09
8.5723786e-09
8.4386783e-09
8.2968833e-09
8.1586622e-09
8.0311841e-09
7.9171298e-09
7.8177775e-09
7.734256e-09
7.6625756e-09
7.5964887e-09
7.5347853e-09
7.4751941e-09
7.4131216e-09
7.3597563e-09
7.3290194e-09
7.3124199e-09
7.3046287e-09
7.3020376e-09
7.3013614e-09
7.3282277e-09
7.3553914e-09
7.3710966e-09
7.3799683e-09
7.3843448e-09
7.3852608e-09
0.00095126886
0.00100855
0.0002771448
1.0546526e-07
7.3587271e-09
6.8962182e-09
6.5009274e-09
6.4986453e-09
6.4463312e-09
6.5347719e-09
6.5914254e-09
6.7164558e-09
6.8468528e-09
7.0173805e-09
7.216038e-09
7.4509507e-09
7.7154273e-09
7.9988275e-09
8.2794092e-09
8.5334655e-09
8.7351775e-09
8.8498348e-09
8.8777578e-09
8.840152e-09
8.7475597e-09
8.6192143e-09
8.4718923e-09
8.3203133e-09
8.175203e-09
8.0427642e-09
7.9251071e-09
7.8233788e-09
7.7384461e-09
7.6657377e-09
7.5971241e-09
7.5344928e-09
7.4724576e-09
7.40791e-09
7.3571026e-09
7.3283253e-09
7.3132505e-09
7.3063432e-09
7.3041499e-09
7.3044179e-09
7.3350925e-09
7.3593967e-09
7.3734914e-09
7.3814057e-09
7.3853692e-09
7.3862051e-09
0.00094933803
0.00091613208
0.00021065083
5.1472e-08
7.3904276e-09
6.9796013e-09
6.6040972e-09
6.6103718e-09
6.5689623e-09
6.6639516e-09
6.7309882e-09
6.8638375e-09
7.0058021e-09
7.1878072e-09
7.3997921e-09
7.6475745e-09
7.9223331e-09
8.2099218e-09
8.4868664e-09
8.729249e-09
8.9049352e-09
8.9852839e-09
8.9860583e-09
8.9216118e-09