/*--------------------------------*- C++ -*----------------------------------*\
  =========                 |
  \\      /  F ield         | OpenFOAM: The Open Source CFD Toolbox
   \\    /   O peration     | Website:  https://openfoam.org
    \\  /    A nd           | Version:  8
     \\/     M anipulation  |
\*---------------------------------------------------------------------------*/
FoamFile
{
    version     2.0;
    format      ascii;
    class       volScalarField;
    location    "0.18001";
    object      nuTilda;
}
// * * * * * * * * * * * * * * * * * * * * * * * * * * * * * * * * * * * * * //

dimensions      [0 2 -1 0 0 0 0];

internalField   nonuniform List<scalar> 
20000
(
0.0011043488
0.0027561746
0.0036934461
0.0040222143
0.0035907397
0.0020429166
0.00029642539
1.3230142e-05
1.0127131e-05
1.0105566e-05
1.0047661e-05
1.0051223e-05
1.0016051e-05
1.0020781e-05
1.0010679e-05
1.0009898e-05
1.0005515e-05
1.0004332e-05
1.0002862e-05
1.0002543e-05
1.000248e-05
1.0002931e-05
1.0003127e-05
1.0003126e-05
1.000277e-05
1.0002162e-05
1.0001486e-05
1.0000944e-05
1.0000707e-05
1.0000663e-05
1.0000705e-05
1.000075e-05
1.0000706e-05
1.0000577e-05
1.0000528e-05
1.0000538e-05
1.00006e-05
1.0000773e-05
1.0000927e-05
1.0000978e-05
1.0000995e-05
1.0000765e-05
1.0000575e-05
1.0000511e-05
1.0000529e-05
1.0000696e-05
1.0000717e-05
1.0000473e-05
1.0000917e-05
1.0001479e-05
0.0010895151
0.0027085315
0.0036189015
0.0039171654
0.003454761
0.0018390118
0.00023366534
1.2044401e-05
1.0123826e-05
1.0104951e-05
1.0047178e-05
1.0051202e-05
1.0015859e-05
1.0020632e-05
1.0010562e-05
1.0009797e-05
1.0005479e-05
1.0004302e-05
1.0002844e-05
1.0002523e-05
1.0002471e-05
1.0002914e-05
1.0003114e-05
1.0003118e-05
1.0002768e-05
1.0002164e-05
1.0001485e-05
1.0000931e-05
1.000067e-05
1.0000622e-05
1.0000649e-05
1.0000694e-05
1.0000654e-05
1.0000528e-05
1.0000486e-05
1.0000499e-05
1.0000563e-05
1.0000737e-05
1.0000893e-05
1.000095e-05
1.0000986e-05
1.0000763e-05
1.000056e-05
1.0000492e-05
1.0000504e-05
1.0000685e-05
1.0000711e-05
1.0000439e-05
1.0000851e-05
1.0001461e-05
0.0010893621
0.0026815608
0.003554114
0.0038106111
0.0033046407
0.0016182035
0.00017600523
1.1277785e-05
1.0120819e-05
1.0103627e-05
1.0046719e-05
1.0051021e-05
1.0015678e-05
1.0020374e-05
1.0010427e-05
1.0009669e-05
1.0005422e-05
1.0004255e-05
1.0002817e-05
1.00025e-05
1.0002458e-05
1.0002898e-05
1.0003103e-05
1.0003112e-05
1.0002773e-05
1.0002178e-05
1.0001505e-05
1.0000947e-05
1.0000673e-05
1.0000617e-05
1.0000651e-05
1.00007e-05
1.0000662e-05
1.0000532e-05
1.000048e-05
1.0000495e-05
1.0000559e-05
1.000073e-05
1.0000888e-05
1.0000948e-05
1.0000993e-05
1.0000782e-05
1.0000562e-05
1.0000486e-05
1.0000497e-05
1.0000674e-05
1.0000709e-05
1.0000425e-05
1.0000757e-05
1.0001453e-05
0.0010872619
0.0026516828
0.0034879677
0.0037033761
0.0031567961
0.001414489
0.00013133492
1.0833395e-05
1.0118053e-05
1.0102366e-05
1.0046227e-05
1.005081e-05
1.0015518e-05
1.0020127e-05
1.00103e-05
1.0009538e-05
1.0005371e-05
1.000421e-05
1.0002793e-05
1.0002478e-05
1.0002446e-05
1.0002884e-05
1.0003093e-05
1.0003104e-05
1.0002773e-05
1.0002184e-05
1.0001513e-05
1.0000952e-05
1.0000671e-05
1.0000612e-05
1.0000641e-05
1.0000689e-05
1.0000657e-05
1.0000529e-05
1.0000477e-05
1.000049e-05
1.0000549e-05
1.000072e-05
1.0000882e-05
1.0000943e-05
1.0000999e-05
1.0000799e-05
1.0000565e-05
1.0000482e-05
1.0000492e-05
1.0000665e-05
1.0000694e-05
1.0000422e-05
1.0000664e-05
1.0001455e-05
0.0010852999
0.0026227644
0.003422782
0.0035946552
0.0030086991
0.0012226924
9.6776545e-05
1.0579245e-05
1.0115412e-05
1.0100982e-05
1.0045708e-05
1.0050569e-05
1.0015367e-05
1.0019867e-05
1.0010175e-05
1.0009405e-05
1.0005319e-05
1.0004164e-05
1.0002769e-05
1.0002453e-05
1.0002432e-05
1.000287e-05
1.0003082e-05
1.0003095e-05
1.0002774e-05
1.0002191e-05
1.0001524e-05
1.000096e-05
1.0000671e-05
1.0000609e-05
1.0000636e-05
1.0000686e-05
1.0000658e-05
1.0000531e-05
1.0000476e-05
1.0000488e-05
1.0000543e-05
1.0000713e-05
1.0000877e-05
1.000094e-05
1.0000994e-05
1.0000818e-05
1.0000571e-05
1.0000479e-05
1.0000486e-05
1.0000654e-05
1.0000693e-05
1.0000427e-05
1.0000594e-05
1.0001438e-05
0.001083126
0.0025945105
0.0033595846
0.0034857981
0.0028573699
0.0010446828
7.0738547e-05
1.0435603e-05
1.0112828e-05
1.009949e-05
1.0045136e-05
1.0050281e-05
1.0015201e-05
1.00196e-05
1.0010054e-05
1.0009268e-05
1.0005266e-05
1.0004114e-05
1.0002742e-05
1.0002425e-05
1.0002418e-05
1.0002855e-05
1.000307e-05
1.0003085e-05
1.0002773e-05
1.0002197e-05
1.0001532e-05
1.0000966e-05
1.0000671e-05
1.0000605e-05
1.0000629e-05
1.0000678e-05
1.0000656e-05
1.000053e-05
1.0000475e-05
1.0000484e-05
1.0000535e-05
1.0000705e-05
1.0000872e-05
1.0000935e-05
1.000097e-05
1.0000834e-05
1.000058e-05
1.0000477e-05
1.0000477e-05
1.0000645e-05
1.0000685e-05
1.000043e-05
1.0000537e-05
1.0001404e-05
0.0010808564
0.00256647
0.0032983228
0.0033848913
0.0027017492
0.0008816658
5.1618552e-05
1.0354611e-05
1.0110339e-05
1.0097773e-05
1.0044313e-05
1.0048831e-05
1.0014948e-05
1.0019323e-05
1.0009936e-05
1.0009127e-05
1.0005211e-05
1.0004061e-05
1.0002714e-05
1.0002398e-05
1.0002405e-05
1.0002839e-05
1.0003057e-05
1.0003075e-05
1.0002773e-05
1.0002203e-05
1.0001541e-05
1.0000972e-05
1.000067e-05
1.0000601e-05
1.0000622e-05
1.0000674e-05
1.0000654e-05
1.0000531e-05
1.0000473e-05
1.0000481e-05
1.0000529e-05
1.0000697e-05
1.0000867e-05
1.000093e-05
1.0000954e-05
1.0000837e-05
1.0000593e-05
1.0000476e-05
1.0000467e-05
1.0000634e-05
1.0000682e-05
1.0000428e-05
1.0000495e-05
1.0001351e-05
0.0010783153
0.0025377066
0.0032356119
0.003276215
0.0025393682
0.0007349245
3.7931388e-05
1.0308358e-05
1.0109624e-05
1.0095225e-05
1.0041771e-05
1.0044512e-05
1.0014695e-05
1.0019035e-05
1.0009819e-05
1.000898e-05
1.0005155e-05
1.0004007e-05
1.0002688e-05
1.0002371e-05
1.0002393e-05
1.0002822e-05
1.0003043e-05
1.0003064e-05
1.0002772e-05
1.0002208e-05
1.0001548e-05
1.0000978e-05
1.0000669e-05
1.0000597e-05
1.0000615e-05
1.0000667e-05
1.0000652e-05
1.0000531e-05
1.0000472e-05
1.0000479e-05
1.0000522e-05
1.000069e-05
1.0000861e-05
1.0000926e-05
1.0000953e-05
1.0000836e-05
1.0000608e-05
1.0000478e-05
1.0000458e-05
1.0000623e-05
1.0000679e-05
1.0000423e-05
1.0000469e-05
1.0001279e-05
0.0010756729
0.0025087127
0.0031714108
0.003169915
0.0023711673
0.00060730929
2.8372417e-05
1.0281083e-05
1.0106605e-05
1.0090708e-05
1.0037428e-05
1.0041353e-05
1.0014494e-05
1.0018736e-05
1.0009704e-05
1.0008831e-05
1.00051e-05
1.0003954e-05
1.0002663e-05
1.0002346e-05
1.0002381e-05
1.0002806e-05
1.0003029e-05
1.0003053e-05
1.0002771e-05
1.0002212e-05
1.0001555e-05
1.0000983e-05
1.0000668e-05
1.0000593e-05
1.0000608e-05
1.0000662e-05
1.0000649e-05
1.000053e-05
1.0000471e-05
1.0000476e-05
1.0000516e-05
1.0000682e-05
1.0000856e-05
1.0000921e-05
1.0000952e-05
1.0000843e-05
1.0000622e-05
1.000048e-05
1.0000448e-05
1.0000613e-05
1.0000676e-05
1.0000416e-05
1.0000461e-05
1.0001208e-05
0.0010731153
0.0024797731
0.0031073373
0.0030625658
0.0021961073
0.00049573522
2.1818981e-05
1.0264896e-05
1.0105317e-05
1.0086826e-05
1.0035e-05
1.0037924e-05
1.0014194e-05
1.0018427e-05
1.0009595e-05
1.0008681e-05
1.0005047e-05
1.00039e-05
1.0002638e-05
1.0002321e-05
1.0002369e-05
1.0002789e-05
1.0003014e-05
1.0003042e-05
1.000277e-05
1.0002217e-05
1.0001562e-05
1.0000988e-05
1.0000667e-05
1.0000588e-05
1.0000601e-05
1.0000656e-05
1.0000646e-05
1.000053e-05
1.0000469e-05
1.0000473e-05
1.0000511e-05
1.0000675e-05
1.0000851e-05
1.0000917e-05
1.0000946e-05
1.0000846e-05
1.0000636e-05
1.000048e-05
1.0000441e-05
1.0000602e-05
1.0000671e-05
1.000041e-05
1.0000451e-05
1.000114e-05
0.0010705581
0.002450376
0.0030427819
0.0029556428
0.0020151586
0.00039714272
1.7405287e-05
1.0252363e-05
1.010425e-05
1.0085601e-05
1.0034131e-05
1.0036788e-05
1.0013996e-05
1.0018116e-05
1.0009489e-05
1.000853e-05
1.0004993e-05
1.0003845e-05
1.0002613e-05
1.0002297e-05
1.0002358e-05
1.0002771e-05
1.0002999e-05
1.000303e-05
1.0002768e-05
1.000222e-05
1.0001568e-05
1.0000993e-05
1.0000666e-05
1.0000583e-05
1.0000595e-05
1.000065e-05
1.0000644e-05
1.000053e-05
1.0000468e-05
1.0000471e-05
1.0000505e-05
1.0000667e-05
1.0000847e-05
1.0000913e-05
1.0000929e-05
1.0000842e-05
1.0000646e-05
1.0000479e-05
1.0000434e-05
1.0000589e-05
1.0000667e-05
1.0000408e-05
1.0000441e-05
1.0001078e-05
0.0010677919
0.0024201548
0.0029765082
0.0028440615
0.0018301382
0.000312757
1.4558583e-05
1.0242993e-05
1.0101672e-05
1.0083702e-05
1.0033433e-05
1.0036186e-05
1.0013868e-05
1.0017799e-05
1.0009385e-05
1.0008379e-05
1.000494e-05
1.0003791e-05
1.0002589e-05
1.0002274e-05
1.0002348e-05
1.0002753e-05
1.0002982e-05
1.0003017e-05
1.0002765e-05
1.0002224e-05
1.0001573e-05
1.0000997e-05
1.0000664e-05
1.0000579e-05
1.0000588e-05
1.0000644e-05
1.0000641e-05
1.000053e-05
1.0000467e-05
1.0000469e-05
1.00005e-05
1.000066e-05
1.0000842e-05
1.000091e-05
1.000091e-05
1.0000833e-05
1.0000652e-05
1.0000476e-05
1.0000428e-05
1.0000574e-05
1.0000661e-05
1.0000411e-05
1.0000432e-05
1.0001025e-05
0.0010648899
0.0023891501
0.0029082448
0.0027294973
0.0016438078
0.00024197689
1.2780379e-05
1.0235104e-05
1.0099226e-05
1.0081901e-05
1.003278e-05
1.0035498e-05
1.0013764e-05
1.0017477e-05
1.0009285e-05
1.0008229e-05
1.0004887e-05
1.0003736e-05
1.0002565e-05
1.0002252e-05
1.0002339e-05
1.0002735e-05
1.0002965e-05
1.0003004e-05
1.0002763e-05
1.0002227e-05
1.0001579e-05
1.0001001e-05
1.0000663e-05
1.0000574e-05
1.0000581e-05
1.0000638e-05
1.0000637e-05
1.000053e-05
1.0000465e-05
1.0000468e-05
1.0000495e-05
1.0000652e-05
1.0000836e-05
1.0000907e-05
1.0000912e-05
1.0000823e-05
1.0000653e-05
1.0000473e-05
1.0000423e-05
1.0000557e-05
1.0000655e-05
1.0000405e-05
1.0000423e-05
1.0000981e-05
0.0010619084
0.0023575598
0.0028368367
0.002616014
0.0014593596
0.00018369667
1.1706947e-05
1.0227954e-05
1.0096752e-05
1.0080031e-05
1.0032111e-05
1.0034799e-05
1.0013671e-05
1.0017151e-05
1.0009188e-05
1.0008083e-05
1.0004836e-05
1.0003681e-05
1.0002542e-05
1.0002231e-05
1.0002331e-05
1.0002717e-05
1.0002947e-05
1.000299e-05
1.000276e-05
1.0002231e-05
1.0001584e-05
1.0001004e-05
1.0000662e-05
1.0000569e-05
1.0000574e-05
1.0000632e-05
1.0000634e-05
1.000053e-05
1.0000464e-05
1.0000466e-05
1.0000491e-05
1.0000645e-05
1.0000831e-05
1.0000905e-05
1.0000908e-05
1.0000814e-05
1.000065e-05
1.0000471e-05
1.0000419e-05
1.000054e-05
1.0000649e-05
1.0000393e-05
1.0000414e-05
1.0000951e-05
0.0010588409
0.0023262962
0.0027667952
0.0025017279
0.0012788217
0.00013679052
1.1075836e-05
1.0220999e-05
1.0094267e-05
1.0078128e-05
1.003144e-05
1.0034085e-05
1.0013577e-05
1.0016821e-05
1.0009095e-05
1.0007935e-05
1.0004784e-05
1.0003626e-05
1.0002519e-05
1.0002211e-05
1.0002325e-05
1.0002698e-05
1.0002928e-05
1.0002975e-05
1.0002756e-05
1.0002234e-05
1.0001589e-05
1.0001008e-05
1.000066e-05
1.0000565e-05
1.0000567e-05
1.0000626e-05
1.0000631e-05
1.000053e-05
1.0000463e-05
1.0000465e-05
1.0000486e-05
1.0000637e-05
1.0000825e-05
1.0000902e-05
1.0000906e-05
1.0000808e-05
1.0000646e-05
1.0000471e-05
1.0000415e-05
1.0000525e-05
1.0000644e-05
1.0000379e-05
1.0000404e-05
1.0000931e-05
0.0010556435
0.0022951844
0.0026978661
0.0023843571
0.0011047614
0.00010004267
1.0715212e-05
1.021402e-05
1.0091772e-05
1.0076189e-05
1.0030767e-05
1.0033357e-05
1.0013487e-05
1.0016488e-05
1.0009005e-05
1.0007789e-05
1.0004732e-05
1.0003572e-05
1.0002497e-05
1.0002192e-05
1.0002316e-05
1.0002678e-05
1.0002908e-05
1.0002959e-05
1.0002752e-05
1.0002237e-05
1.0001594e-05
1.0001012e-05
1.0000659e-05
1.000056e-05
1.000056e-05
1.000062e-05
1.0000628e-05
1.000053e-05
1.0000463e-05
1.0000463e-05
1.0000482e-05
1.0000629e-05
1.0000819e-05
1.00009e-05
1.0000905e-05
1.0000805e-05
1.0000643e-05
1.0000472e-05
1.0000411e-05
1.0000512e-05
1.0000641e-05
1.0000368e-05
1.0000394e-05
1.0000904e-05
0.001052179
0.0022632863
0.0026270765
0.0022621818
0.00094020049
7.2190626e-05
1.0513669e-05
1.0207398e-05
1.0089274e-05
1.0074224e-05
1.0030094e-05
1.0032618e-05
1.0013402e-05
1.0016153e-05
1.0008918e-05
1.0007643e-05
1.0004681e-05
1.0003518e-05
1.0002475e-05
1.0002174e-05
1.0002307e-05
1.0002659e-05
1.0002888e-05
1.0002942e-05
1.0002747e-05
1.0002239e-05
1.00016e-05
1.0001015e-05
1.0000658e-05
1.0000555e-05
1.0000554e-05
1.0000614e-05
1.0000625e-05
1.000053e-05
1.0000462e-05
1.0000462e-05
1.0000478e-05
1.0000622e-05
1.0000813e-05
1.0000898e-05
1.0000904e-05
1.0000806e-05
1.0000643e-05
1.0000476e-05
1.0000403e-05
1.00005e-05
1.0000633e-05
1.000036e-05
1.0000383e-05
1.0000876e-05
0.0010485462
0.0022311755
0.0025551001
0.0021346181
0.00078746531
5.1683983e-05
1.0401985e-05
1.0201502e-05
1.0086773e-05
1.007223e-05
1.0029422e-05
1.003187e-05
1.0013322e-05
1.0015817e-05
1.0008834e-05
1.0007499e-05
1.0004629e-05
1.0003465e-05
1.0002454e-05
1.0002157e-05
1.0002298e-05
1.0002639e-05
1.0002866e-05
1.0002923e-05
1.0002742e-05
1.0002242e-05
1.0001605e-05
1.0001019e-05
1.0000657e-05
1.0000551e-05
1.0000547e-05
1.0000608e-05
1.0000622e-05
1.0000531e-05
1.0000461e-05
1.0000459e-05
1.0000473e-05
1.0000614e-05
1.0000807e-05
1.0000896e-05
1.0000904e-05
1.0000809e-05
1.0000647e-05
1.0000481e-05
1.0000393e-05
1.0000487e-05
1.0000617e-05
1.0000352e-05
1.0000372e-05
1.0000842e-05
0.0010448613
0.0021991717
0.0024820668
0.0020055342
0.00064888377
3.7153405e-05
1.0340105e-05
1.0195347e-05
1.0084269e-05
1.0070216e-05
1.0028753e-05
1.0031115e-05
1.0013248e-05
1.0015481e-05
1.0008753e-05
1.0007357e-05
1.0004578e-05
1.0003413e-05
1.0002433e-05
1.0002141e-05
1.0002288e-05
1.0002619e-05
1.0002844e-05
1.0002903e-05
1.0002736e-05
1.0002245e-05
1.0001611e-05
1.0001023e-05
1.0000656e-05
1.0000546e-05
1.0000541e-05
1.0000602e-05
1.0000619e-05
1.0000533e-05
1.000046e-05
1.0000457e-05
1.0000469e-05
1.0000607e-05
1.00008e-05
1.0000894e-05
1.0000903e-05
1.0000814e-05
1.0000652e-05
1.0000486e-05
1.0000385e-05
1.000047e-05
1.0000597e-05
1.0000345e-05
1.000036e-05
1.0000786e-05
0.0010412267
0.0021678305
0.0024086416
0.00186941
0.00052588911
2.7284005e-05
1.0304167e-05
1.0189209e-05
1.0081766e-05
1.0068185e-05
1.0028087e-05
1.0030355e-05
1.0013181e-05
1.0015145e-05
1.0008674e-05
1.0007217e-05
1.0004528e-05
1.0003363e-05
1.0002414e-05
1.0002126e-05
1.0002278e-05
1.0002598e-05
1.0002821e-05
1.0002883e-05
1.000273e-05
1.0002247e-05
1.0001617e-05
1.0001028e-05
1.0000655e-05
1.0000542e-05
1.0000535e-05
1.0000596e-05
1.0000616e-05
1.0000534e-05
1.0000459e-05
1.0000454e-05
1.0000466e-05
1.00006e-05
1.0000793e-05
1.0000891e-05
1.0000903e-05
1.000082e-05
1.000066e-05
1.0000489e-05
1.000038e-05
1.0000449e-05
1.0000574e-05
1.0000339e-05
1.0000349e-05
1.000072e-05
0.001037713
0.0021374127
0.0023404383
0.0017265596
0.00042265548
2.0879698e-05
1.0281383e-05
1.0183058e-05
1.0079267e-05
1.0066142e-05
1.0027427e-05
1.0029593e-05
1.001312e-05
1.0014812e-05
1.0008598e-05
1.000708e-05
1.0004477e-05
1.0003314e-05
1.0002395e-05
1.0002112e-05
1.0002267e-05
1.0002576e-05
1.0002796e-05
1.0002864e-05
1.0002723e-05
1.000225e-05
1.0001623e-05
1.0001032e-05
1.0000655e-05
1.0000538e-05
1.000053e-05
1.000059e-05
1.0000614e-05
1.0000535e-05
1.0000458e-05
1.0000451e-05
1.0000462e-05
1.0000593e-05
1.0000786e-05
1.0000889e-05
1.0000903e-05
1.0000826e-05
1.0000667e-05
1.0000489e-05
1.0000375e-05
1.0000425e-05
1.0000553e-05
1.0000333e-05
1.0000338e-05
1.0000649e-05
0.0010341973
0.0021065716
0.0022724669
0.0015764635
0.00033378889
1.6751865e-05
1.026541e-05
1.0176926e-05
1.0076776e-05
1.0064096e-05
1.0026774e-05
1.0028832e-05
1.0013067e-05
1.0014482e-05
1.0008522e-05
1.0006947e-05
1.0004428e-05
1.0003266e-05
1.0002378e-05
1.0002099e-05
1.0002256e-05
1.0002555e-05
1.0002771e-05
1.0002844e-05
1.0002715e-05
1.0002252e-05
1.0001629e-05
1.0001037e-05
1.0000655e-05
1.0000534e-05
1.0000524e-05
1.0000585e-05
1.0000611e-05
1.0000536e-05
1.0000456e-05
1.0000448e-05
1.0000458e-05
1.0000585e-05
1.0000778e-05
1.0000887e-05
1.0000902e-05
1.0000832e-05
1.0000676e-05
1.0000484e-05
1.0000371e-05
1.0000402e-05
1.0000534e-05
1.0000328e-05
1.0000327e-05
1.0000581e-05
0.001030777
0.0020751554
0.0022023758
0.001420709
0.00025850269
1.4157141e-05
1.0253024e-05
1.017081e-05
1.0074296e-05
1.0062048e-05
1.002613e-05
1.0028073e-05
1.0013022e-05
1.0014156e-05
1.0008449e-05
1.0006816e-05
1.0004379e-05
1.000322e-05
1.0002361e-05
1.0002088e-05
1.0002245e-05
1.0002533e-05
1.0002746e-05
1.0002823e-05
1.0002707e-05
1.0002255e-05
1.0001636e-05
1.0001042e-05
1.0000656e-05
1.0000531e-05
1.000052e-05
1.0000579e-05
1.0000609e-05
1.0000537e-05
1.0000455e-05
1.0000446e-05
1.0000454e-05
1.0000578e-05
1.000077e-05
1.0000884e-05
1.0000902e-05
1.0000837e-05
1.0000684e-05
1.0000472e-05
1.0000368e-05
1.0000377e-05
1.0000512e-05
1.0000323e-05
1.0000318e-05
1.0000516e-05
0.0010274722
0.0020432356
0.0021319278
0.0012628433
0.00019681777
1.2584682e-05
1.0242596e-05
1.0164742e-05
1.0071831e-05
1.006001e-05
1.0025497e-05
1.0027321e-05
1.0012987e-05
1.0013836e-05
1.0008376e-05
1.000669e-05
1.000433e-05
1.0003176e-05
1.0002345e-05
1.0002078e-05
1.0002233e-05
1.0002511e-05
1.000272e-05
1.0002802e-05
1.0002698e-05
1.0002257e-05
1.0001643e-05
1.0001049e-05
1.0000658e-05
1.0000528e-05
1.0000515e-05
1.0000574e-05
1.0000606e-05
1.0000537e-05
1.0000454e-05
1.0000443e-05
1.0000451e-05
1.0000571e-05
1.0000762e-05
1.000088e-05
1.00009e-05
1.0000842e-05
1.0000692e-05
1.0000461e-05
1.0000366e-05
1.0000354e-05
1.000049e-05
1.0000319e-05
1.000031e-05
1.0000455e-05
0.0010242521
0.002010428
0.0020597336
0.0011101448
0.00014743355
1.1657503e-05
1.0233174e-05
1.0158696e-05
1.0069382e-05
1.0057978e-05
1.0024877e-05
1.0026576e-05
1.0012962e-05
1.0013521e-05
1.0008305e-05
1.0006568e-05
1.0004283e-05
1.0003134e-05
1.0002331e-05
1.000207e-05
1.000222e-05
1.0002488e-05
1.0002694e-05
1.000278e-05
1.0002688e-05
1.0002259e-05
1.0001651e-05
1.0001057e-05
1.0000661e-05
1.0000525e-05
1.000051e-05
1.0000568e-05
1.0000603e-05
1.0000539e-05
1.0000453e-05
1.0000441e-05
1.0000447e-05
1.0000563e-05
1.0000753e-05
1.0000875e-05
1.0000896e-05
1.0000846e-05
1.0000698e-05
1.0000459e-05
1.0000366e-05
1.0000334e-05
1.0000472e-05
1.0000315e-05
1.0000303e-05
1.00004e-05
0.0010208821
0.0019747256
0.0019845532
0.00096677
0.00010892664
1.1123753e-05
1.0224295e-05
1.015271e-05
1.0066954e-05
1.0055964e-05
1.002427e-05
1.0025843e-05
1.001296e-05
1.0013213e-05
1.0008236e-05
1.000645e-05
1.0004236e-05
1.0003094e-05
1.0002317e-05
1.0002062e-05
1.0002207e-05
1.0002465e-05
1.0002668e-05
1.0002757e-05
1.0002677e-05
1.000226e-05
1.000166e-05
1.0001066e-05
1.0000664e-05
1.0000523e-05
1.0000505e-05
1.0000563e-05
1.00006e-05
1.000054e-05
1.0000452e-05
1.000044e-05
1.0000444e-05
1.0000556e-05
1.0000744e-05
1.000087e-05
1.000089e-05
1.0000849e-05
1.0000703e-05
1.0000462e-05
1.0000369e-05
1.0000323e-05
1.0000447e-05
1.0000311e-05
1.0000297e-05
1.0000351e-05
0.0010171239
0.0019350078
0.0019049339
0.00083266727
7.9524064e-05
1.0820685e-05
1.0215735e-05
1.0146783e-05
1.0064552e-05
1.0053972e-05
1.002368e-05
1.0025123e-05
1.001297e-05
1.0012913e-05
1.0008168e-05
1.0006337e-05
1.0004191e-05
1.0003057e-05
1.0002305e-05
1.0002056e-05
1.0002194e-05
1.0002442e-05
1.0002641e-05
1.0002734e-05
1.0002666e-05
1.0002262e-05
1.0001671e-05
1.0001077e-05
1.0000668e-05
1.000052e-05
1.0000501e-05
1.0000557e-05
1.0000597e-05
1.0000541e-05
1.0000451e-05
1.0000438e-05
1.0000441e-05
1.0000548e-05
1.0000735e-05
1.0000864e-05
1.0000885e-05
1.000085e-05
1.0000703e-05
1.0000464e-05
1.0000375e-05
1.0000324e-05
1.0000413e-05
1.0000307e-05
1.0000291e-05
1.0000308e-05
0.0010128367
0.0018912654
0.0018194253
0.00070852265
5.7587949e-05
1.0648994e-05
1.0207415e-05
1.0140916e-05
1.0062177e-05
1.0052007e-05
1.0023107e-05
1.0024417e-05
1.0012957e-05
1.0012613e-05
1.00081e-05
1.0006229e-05
1.0004147e-05
1.0003021e-05
1.0002294e-05
1.0002051e-05
1.000218e-05
1.0002418e-05
1.0002614e-05
1.000271e-05
1.0002652e-05
1.0002265e-05
1.0001683e-05
1.0001088e-05
1.0000672e-05
1.0000517e-05
1.0000496e-05
1.0000552e-05
1.0000594e-05
1.0000542e-05
1.0000451e-05
1.0000436e-05
1.0000438e-05
1.0000541e-05
1.0000726e-05
1.0000858e-05
1.000088e-05
1.0000851e-05
1.0000697e-05
1.0000465e-05
1.0000382e-05
1.000034e-05
1.0000367e-05
1.0000302e-05
1.0000287e-05
1.0000274e-05
0.0010078527
0.0018427979
0.0017221406
0.00059543984
4.1756628e-05
1.0550308e-05
1.0199349e-05
1.0135129e-05
1.0059833e-05
1.0050073e-05
1.0022555e-05
1.0023725e-05
1.001294e-05
1.001229e-05
1.0008031e-05
1.0006125e-05
1.0004105e-05
1.0002988e-05
1.0002285e-05
1.0002048e-05
1.0002166e-05
1.0002394e-05
1.0002586e-05
1.0002684e-05
1.0002638e-05
1.0002269e-05
1.0001697e-05
1.00011e-05
1.0000676e-05
1.0000515e-05
1.0000492e-05
1.0000546e-05
1.000059e-05
1.0000544e-05
1.0000451e-05
1.0000434e-05
1.0000435e-05
1.0000533e-05
1.0000717e-05
1.0000851e-05
1.0000875e-05
1.0000851e-05
1.0000686e-05
1.0000465e-05
1.0000385e-05
1.0000346e-05
1.0000322e-05
1.0000297e-05
1.0000284e-05
1.0000247e-05
0.001002277
0.0017905962
0.001611983
0.00049439228
3.0695835e-05
1.0490987e-05
1.0191495e-05
1.0129419e-05
1.0057525e-05
1.0048176e-05
1.0022024e-05
1.002305e-05
1.0012919e-05
1.0011998e-05
1.0007963e-05
1.0006027e-05
1.0004064e-05
1.0002958e-05
1.0002276e-05
1.0002045e-05
1.0002153e-05
1.000237e-05
1.0002557e-05
1.0002658e-05
1.0002624e-05
1.0002274e-05
1.0001711e-05
1.0001112e-05
1.0000681e-05
1.0000513e-05
1.0000487e-05
1.000054e-05
1.0000587e-05
1.0000545e-05
1.000045e-05
1.0000433e-05
1.0000432e-05
1.0000525e-05
1.0000709e-05
1.0000844e-05
1.000087e-05
1.0000851e-05
1.0000668e-05
1.0000467e-05
1.0000385e-05
1.0000339e-05
1.0000277e-05
1.000029e-05
1.0000283e-05
1.0000228e-05
0.00099632462
0.0017360741
0.001491158
0.00040303716
2.324757e-05
1.0452517e-05
1.0183807e-05
1.0123794e-05
1.0055256e-05
1.004632e-05
1.0021517e-05
1.0022393e-05
1.0012891e-05
1.0011732e-05
1.0007895e-05
1.0005935e-05
1.0004025e-05
1.0002929e-05
1.0002269e-05
1.0002043e-05
1.0002139e-05
1.0002346e-05
1.0002527e-05
1.0002632e-05
1.000261e-05
1.000228e-05
1.0001725e-05
1.0001125e-05
1.0000687e-05
1.0000512e-05
1.0000483e-05
1.0000535e-05
1.0000583e-05
1.0000546e-05
1.000045e-05
1.0000431e-05
1.0000428e-05
1.0000517e-05
1.0000699e-05
1.0000835e-05
1.0000864e-05
1.000085e-05
1.0000638e-05
1.0000469e-05
1.0000385e-05
1.0000324e-05
1.0000237e-05
1.0000285e-05
1.0000281e-05
1.0000216e-05
0.0009901097
0.0016796978
0.0013632427
0.00032619716
1.850468e-05
1.0424876e-05
1.0176238e-05
1.0118259e-05
1.005303e-05
1.0044511e-05
1.0021035e-05
1.0021758e-05
1.0012858e-05
1.00115e-05
1.0007827e-05
1.0005848e-05
1.0003988e-05
1.0002904e-05
1.0002263e-05
1.0002043e-05
1.0002125e-05
1.0002321e-05
1.0002497e-05
1.0002606e-05
1.0002596e-05
1.0002285e-05
1.0001739e-05
1.0001139e-05
1.0000694e-05
1.0000511e-05
1.0000479e-05
1.0000529e-05
1.000058e-05
1.0000547e-05
1.000045e-05
1.0000429e-05
1.0000425e-05
1.000051e-05
1.0000689e-05
1.0000827e-05
1.0000859e-05
1.000085e-05
1.0000624e-05
1.0000472e-05
1.0000382e-05
1.0000312e-05
1.0000209e-05
1.0000278e-05
1.0000278e-05
1.0000209e-05
0.00098362161
0.0016201036
0.0012412429
0.00025946174
1.5388319e-05
1.0402642e-05
1.0168766e-05
1.011283e-05
1.0050852e-05
1.0042755e-05
1.0020581e-05
1.0021147e-05
1.0012822e-05
1.0011279e-05
1.000776e-05
1.0005766e-05
1.0003953e-05
1.000288e-05
1.0002257e-05
1.0002042e-05
1.0002111e-05
1.0002296e-05
1.0002466e-05
1.0002582e-05
1.0002581e-05
1.000229e-05
1.0001753e-05
1.0001155e-05
1.0000703e-05
1.0000511e-05
1.0000476e-05
1.0000523e-05
1.0000575e-05
1.0000548e-05
1.0000451e-05
1.0000427e-05
1.0000422e-05
1.0000502e-05
1.0000677e-05
1.0000817e-05
1.0000853e-05
1.000085e-05
1.0000628e-05
1.0000474e-05
1.0000374e-05
1.0000304e-05
1.0000203e-05
1.000027e-05
1.0000274e-05
1.0000206e-05
0.00097722674
0.0015563212
0.0011172732
0.00020263649
1.3416438e-05
1.0383173e-05
1.0161384e-05
1.0107515e-05
1.0048727e-05
1.0041056e-05
1.0020156e-05
1.002056e-05
1.0012782e-05
1.001107e-05
1.0007694e-05
1.000569e-05
1.000392e-05
1.0002859e-05
1.0002253e-05
1.0002043e-05
1.0002098e-05
1.0002271e-05
1.0002434e-05
1.0002556e-05
1.0002565e-05
1.0002292e-05
1.0001769e-05
1.0001173e-05
1.0000712e-05
1.0000511e-05
1.0000472e-05
1.0000517e-05
1.0000571e-05
1.0000548e-05
1.0000451e-05
1.0000426e-05
1.0000419e-05
1.0000494e-05
1.0000664e-05
1.0000805e-05
1.0000848e-05
1.0000851e-05
1.0000632e-05
1.0000476e-05
1.0000361e-05
1.0000295e-05
1.00002e-05
1.0000263e-05
1.0000269e-05
1.0000207e-05
0.00097189513
0.0014993692
0.00099385605
0.00015532376
1.2199567e-05
1.0364884e-05
1.0154077e-05
1.0102313e-05
1.0046658e-05
1.0039416e-05
1.0019761e-05
1.0019999e-05
1.0012738e-05
1.0010875e-05
1.000763e-05
1.000562e-05
1.000389e-05
1.0002839e-05
1.0002249e-05
1.0002043e-05
1.0002085e-05
1.0002246e-05
1.0002402e-05
1.0002532e-05
1.0002547e-05
1.0002293e-05
1.0001785e-05
1.0001192e-05
1.0000723e-05
1.0000511e-05
1.000047e-05
1.0000511e-05
1.0000566e-05
1.0000548e-05
1.0000452e-05
1.0000426e-05
1.0000416e-05
1.0000485e-05
1.000065e-05
1.0000792e-05
1.000084e-05
1.0000851e-05
1.0000635e-05
1.0000477e-05
1.0000347e-05
1.0000285e-05
1.0000197e-05
1.0000256e-05
1.0000263e-05
1.0000212e-05
0.00096690353
0.0014390621
0.00087222159
0.00011693171
1.1468448e-05
1.0346937e-05
1.0146849e-05
1.0097227e-05
1.0044649e-05
1.0037838e-05
1.0019399e-05
1.0019464e-05
1.0012691e-05
1.0010692e-05
1.0007568e-05
1.0005555e-05
1.0003861e-05
1.0002822e-05
1.0002245e-05
1.0002044e-05
1.0002073e-05
1.000222e-05
1.0002372e-05
1.0002506e-05
1.0002524e-05
1.0002293e-05
1.0001802e-05
1.0001212e-05
1.0000736e-05
1.0000513e-05
1.0000468e-05
1.0000505e-05
1.0000562e-05
1.0000547e-05
1.0000453e-05
1.0000426e-05
1.0000413e-05
1.0000477e-05
1.0000635e-05
1.0000778e-05
1.0000832e-05
1.0000849e-05
1.0000637e-05
1.0000475e-05
1.0000334e-05
1.0000273e-05
1.0000195e-05
1.000025e-05
1.0000257e-05
1.0000216e-05
0.00096266475
0.0013764844
0.00075528664
8.6691403e-05
1.1039874e-05
1.032922e-05
1.013972e-05
1.0092268e-05
1.0042705e-05
1.0036328e-05
1.001907e-05
1.0018956e-05
1.0012642e-05
1.0010521e-05
1.0007508e-05
1.0005496e-05
1.0003835e-05
1.0002806e-05
1.0002242e-05
1.0002045e-05
1.0002062e-05
1.0002196e-05
1.0002342e-05
1.0002476e-05
1.0002497e-05
1.0002293e-05
1.000182e-05
1.0001235e-05
1.0000751e-05
1.0000515e-05
1.0000466e-05
1.0000499e-05
1.0000557e-05
1.0000546e-05
1.0000454e-05
1.0000426e-05
1.0000411e-05
1.0000468e-05
1.000062e-05
1.0000764e-05
1.0000824e-05
1.0000835e-05
1.0000638e-05
1.0000462e-05
1.0000321e-05
1.0000258e-05
1.0000193e-05
1.0000245e-05
1.0000252e-05
1.0000218e-05
0.0009594741
0.0013113402
0.00064496164
6.3524337e-05
1.0792094e-05
1.0312486e-05
1.0132707e-05
1.008744e-05
1.0040832e-05
1.0034888e-05
1.0018775e-05
1.0018475e-05
1.0012591e-05
1.0010364e-05
1.0007451e-05
1.0005442e-05
1.0003812e-05
1.0002792e-05
1.0002239e-05
1.0002046e-05
1.000205e-05
1.0002174e-05
1.0002314e-05
1.0002442e-05
1.0002465e-05
1.0002291e-05
1.000184e-05
1.000126e-05
1.0000767e-05
1.0000517e-05
1.0000465e-05
1.0000493e-05
1.0000552e-05
1.0000545e-05
1.0000454e-05
1.0000425e-05
1.0000409e-05
1.0000459e-05
1.0000605e-05
1.000075e-05
1.0000812e-05
1.0000804e-05
1.000064e-05
1.0000448e-05
1.0000314e-05
1.0000243e-05
1.0000191e-05
1.0000241e-05
1.0000247e-05
1.0000216e-05
0.00095758861
0.0012477225
0.00054276304
4.6323377e-05
1.0648474e-05
1.0297333e-05
1.0125823e-05
1.008275e-05
1.0039034e-05
1.0033521e-05
1.0018511e-05
1.0018013e-05
1.0012538e-05
1.0010218e-05
1.0007396e-05
1.0005393e-05
1.000379e-05
1.0002778e-05
1.0002236e-05
1.0002046e-05
1.0002039e-05
1.0002154e-05
1.0002286e-05
1.0002404e-05
1.0002434e-05
1.0002288e-05
1.0001859e-05
1.0001287e-05
1.0000786e-05
1.0000521e-05
1.0000464e-05
1.0000487e-05
1.0000548e-05
1.0000543e-05
1.0000455e-05
1.0000426e-05
1.0000407e-05
1.000045e-05
1.0000589e-05
1.0000737e-05
1.0000801e-05
1.0000762e-05
1.0000645e-05
1.0000435e-05
1.0000315e-05
1.0000231e-05
1.000019e-05
1.0000239e-05
1.0000243e-05
1.0000218e-05
0.00095600546
0.0011747819
0.00044936724
3.40984e-05
1.0561104e-05
1.0281979e-05
1.0119063e-05
1.007821e-05
1.0037316e-05
1.0032226e-05
1.0018287e-05
1.0017549e-05
1.001248e-05
1.0010085e-05
1.0007345e-05
1.000535e-05
1.000377e-05
1.0002765e-05
1.0002232e-05
1.0002047e-05
1.000203e-05
1.0002136e-05
1.0002256e-05
1.0002364e-05
1.0002403e-05
1.0002283e-05
1.000188e-05
1.0001317e-05
1.0000808e-05
1.0000527e-05
1.0000463e-05
1.0000482e-05
1.0000543e-05
1.000054e-05
1.0000457e-05
1.0000427e-05
1.0000406e-05
1.0000441e-05
1.0000572e-05
1.0000725e-05
1.0000793e-05
1.000072e-05
1.0000651e-05
1.0000424e-05
1.0000315e-05
1.0000221e-05
1.0000189e-05
1.0000237e-05
1.0000239e-05
1.0000215e-05
0.00095472981
0.0010962433
0.00036660221
2.5756553e-05
1.0503568e-05
1.0266893e-05
1.0112456e-05
1.0073826e-05
1.0035683e-05
1.0031007e-05
1.0018102e-05
1.001713e-05
1.0012421e-05
1.0009964e-05
1.0007297e-05
1.0005311e-05
1.0003752e-05
1.0002754e-05
1.0002229e-05
1.0002047e-05
1.0002023e-05
1.000212e-05
1.0002223e-05
1.0002322e-05
1.0002368e-05
1.0002276e-05
1.00019e-05
1.0001349e-05
1.0000832e-05
1.0000533e-05
1.0000462e-05
1.0000477e-05
1.0000538e-05
1.0000537e-05
1.0000458e-05
1.0000428e-05
1.0000405e-05
1.0000433e-05
1.0000553e-05
1.0000713e-05
1.000079e-05
1.0000714e-05
1.0000651e-05
1.0000414e-05
1.0000316e-05
1.0000212e-05
1.0000188e-05
1.0000235e-05
1.0000237e-05
1.0000209e-05
0.00095328838
0.0010103165
0.00029515632
2.0295909e-05
1.0461557e-05
1.0252024e-05
1.0106007e-05
1.0069605e-05
1.003414e-05
1.0029863e-05
1.0017959e-05
1.0016755e-05
1.0012359e-05
1.0009855e-05
1.0007253e-05
1.0005277e-05
1.0003736e-05
1.0002743e-05
1.0002224e-05
1.0002046e-05
1.000202e-05
1.0002105e-05
1.0002186e-05
1.0002279e-05
1.0002331e-05
1.0002266e-05
1.0001921e-05
1.0001383e-05
1.000086e-05
1.0000541e-05
1.0000462e-05
1.0000472e-05
1.0000532e-05
1.0000534e-05
1.0000459e-05
1.0000429e-05
1.0000404e-05
1.0000424e-05
1.0000532e-05
1.0000699e-05
1.0000788e-05
1.0000706e-05
1.0000642e-05
1.0000406e-05
1.0000317e-05
1.0000205e-05
1.0000185e-05
1.0000234e-05
1.0000237e-05
1.00002e-05
0.00095132769
0.00091822266
0.00023665947
1.6887164e-05
1.0427585e-05
1.0237429e-05
1.0099733e-05
1.0065562e-05
1.0032692e-05
1.0028798e-05
1.0017858e-05
1.0016433e-05
1.0012297e-05
1.0009757e-05
1.0007213e-05
1.0005247e-05
1.000372e-05
1.0002732e-05
1.0002218e-05
1.0002043e-05
1.0002017e-05
1.0002087e-05