/*--------------------------------*- C++ -*----------------------------------*\
  =========                 |
  \\      /  F ield         | OpenFOAM: The Open Source CFD Toolbox
   \\    /   O peration     | Website:  https://openfoam.org
    \\  /    A nd           | Version:  8
     \\/     M anipulation  |
\*---------------------------------------------------------------------------*/
FoamFile
{
    version     2.0;
    format      ascii;
    class       volScalarField;
    location    "0.18001";
    object      p;
}
// * * * * * * * * * * * * * * * * * * * * * * * * * * * * * * * * * * * * * //

dimensions      [1 -1 -2 0 0 0 0];

internalField   nonuniform List<scalar> 
20000
(
80960.329
80974.617
80991.273
81013.666
81043.907
81083.853
81136.962
81198.794
81276.391
81370.586
81480.017
81619.795
81774.138
81974.873
82194.01
82475.521
82786.561
83174.077
83607.561
84128.661
84717.565
85409.642
86205.647
87139.181
88173.54
89313.101
90520.019
91776.427
93037.776
94257.273
95391.151
96407.971
97287.186
98025.081
98625.137
99095.156
99447.165
99733.659
99927.598
100018.77
100036.77
99996.214
99914.846
99802.12
99639.6
99495.599
99418.729
99408.173
99374.864
99770.175
80673.308
80688.664
80705.86
80729.758
80762.649
80806.534
80865.79
80933.885
81017.457
81117.446
81231.686
81377.231
81535.925
81743.123
81967.911
82257.612
82576.017
82972.222
83414.604
83947.216
84555.014
85279.019
86125.586
87101.004
88164.804
89321.526
90555.576
91834.299
93110.958
94336.831
95468.663
96476.65
97343.527
98068.356
98656.639
99114.942
99462.486
99752.548
99931.959
100009.19
100026.23
99984.59
99901.821
99785.319
99610.007
99480.266
99418.55
99400.889
99378.267
99773.025
80440.382
80456.141
80473.723
80498.107
80531.769
80576.341
80636.532
80705.277
80790.021
80892.1
81008.398
81157.946
81320.066
81533.135
81763.066
82059.966
82384.581
82788.995
83243.45
83795.294
84436.954
85208.389
86090.724
87089.094
88172.172
89359.37
90621.54
91922.514
93212.321
94441.526
95567.782
96563.407
97414.608
98123.454
98696.981
99141.59
99486.943
99771.959
99936.143
100001.51
100016.35
99972.464
99887.934
99765.046
99583.681
99467.592
99414.135
99394.312
99383.885
99774.782
80224.622
80240.701
80258.639
80283.639
80318.404
80364.178
80426.199
80496.789
80583.971
80689.431
80808.734
80963.084
81129.184
81348.449
81583.124
81886.647
82218.768
82635.277
83110.719
83700.131
84380.15
85179.907
86080.676
87093.888
88211.871
89431.643
90722.676
92044.357
93344.673
94573.67
95690.424
96669.864
97501.88
98191.669
98747.272
99176.282
99520.052
99793.072
99942.14
99997.818
100008.55
99960.243
99873.612
99741.823
99563.892
99457.31
99406.977
99390.008
99390.743
99776.149
80038.92
80055.512
80074.034
80099.885
80136.077
80183.223
80247.214
80319.593
80408.878
80517.203
80638.568
80796.98
80966.953
81192.612
81432.759
81744.773
82090.844
82534.16
83040.846
83657.587
84359.754
85173.045
86091.782
87135.11
88287.698
89540.831
90859.568
92199.904
93507.474
94732.284
95835.33
96794.62
97603.956
98271.654
98806.286
99218.004
99559.645
99816.137
99949.942
99996.297
100001.69
99948.023
99858.465
99717.606
99547.71
99447.909
99399.815
99383.529
99400.415
99777.969
79886.209
79903.335
79922.471
79949.192
79986.879
80035.362
80101.427
80175.388
80266.352
80377.413
80500.965
80664.406
80838.239
81071.095
81321.146
81653.455
82022.188
82487.686
83012.651
83644.248
84356.615
85190.917
86138.863
87214.76
88403.018
89688.924
91033.891
92390.043
93701.053
94917.276
96002.163
96937.242
97720.432
98363.033
98873.864
99267.183
99604.718
99841.155
99958.777
99995.902
99995.446
99936.971
99842.675
99693.714
99533.634
99439.439
99392.897
99376.827
99412.436
99780.811
79766.121
79783.857
79803.698
79831.406
79870.822
79920.841
79989.25
80065.244
80158.584
80273.45
80401.297
80571.981
80752.999
80999.643
81264.074
81611.907
81994.033
82472.433
83005.514
83647.967
84383.308
85245.397
86225.247
87335.895
88559.465
89877.253
91246.233
92614.795
93924.901
95127.79
96189.895
97096.688
97850.346
98464.883
98949.447
99324.488
99653.653
99867.574
99968.106
99996.484
99989.253
99926.78
99826.235
99670.204
99520.138
99431.393
99386.685
99370.797
99427.17
99784.972
79674.39
79692.78
79713.283
79741.899
79783.153
79835.096
79906.736
79986.681
80085.37
80207.892
80342.73
80522.942
80711.63
80968.623
81241.759
81598.553
81986.475
82472.184
83021.536
83685.97
84447.023
85339.346
86353.13
87499.337
88758.19
90106.467
91496.77
92873.766
94178.181
95362.724
96397.345
97271.84
97992.708
98576.251
99032.507
99390.897
99704.789
99894.863
99978.13
99999.214
99984.005
99916.021
99809.214
99646.931
99506.807
99423.669
99381.555
99366.226
99444.936
99790.614
79619.31
79638.53
79659.973
79689.855
79733.597
79787.971
79863.079
79946.47
80048.812
80176.495
80315.578
80502.868
80697.037
80959.627
81236.741
81601.048
82000.885
82503.633
83072.602
83760.942
84550.342
85474.616
86523.612
87706.165
88999.82
90376.813
91785.19
93166.13
94459.679
95620.671
96623.093
97461.402
98146.353
98696.023
99122.347
99465.866
99757.374
99922.783
99989.05
100003.87
99979.349
99904.571
99791.607
99624.093
99493.288
99416.098
99377.638
99364.043
99465.616
99797.73
79594.213
79614.406
79636.959
79668.2
79714.497
79770.477
79847.86
79932.953
80036.465
80166.813
80307.571
80498.991
80697.889
80969.92
81256.466
81634.231
82048.581
82569.731
83160.542
83874.736
84694.082
85651.784
86737.186
87956.496
89284.274
90687.784
92110.51
93490.467
94767.701
95899.852
96865.451
97663.879
98309.94
98823.022
99218.34
99547.664
99811.226
99951.281
100001.24
100009.94
99974.594
99892.776
99773.404
99602.332
99479.885
99408.934
99374.588
99363.163
99488.704
99806.186
79587.434
79608.478
79631.829
79664.003
79712.678
79770.083
79850.442
79938.737
80045.349
80181.026
80325.36
80524.213
80729.443
81011.664
81308.424
81700.35
82130.803
82671.959
83286.284
84027.809
84878.813
85871.359
86994.151
88250.44
89611.281
91038.662
92471.509
93845.157
95100.391
96198.374
97122.65
97877.699
98482.014
98956.118
99320.303
99634.345
99865.706
99980.112
100015.28
100016.71
99969.498
99880.473
99754.583
99582.452
99467.234
99402.26
99372.136
99362.904
99514.196
99815.719
79603.528
79625.797
79650.443
79684.192
79736.255
79795.78
79879.509
79971.678
80082.071
80223.481
80372.813
80579.772
80791.515
81084.598
81392.659
81800.011
82247.954
82810.426
83449.84
84220.266
85104.442
86133.129
87294.153
88587.369
89979.867
91428.017
92866.319
94228.018
95455.457
96514.016
97392.674
98101.071
98660.93
99094.26
99428.686
99723.53
99920.002
100008.97
100032.28
100023.6
99964.648
99867.591
99735.124
99565.003
99455.976
99396.097
99370.333
99362.884
99541.628
99826.015
79649.539
79672.881
79698.593
79733.604
79788.447
79849.869
79936.35
80032.101
80145.843
80293.287
80447.792
80663.636
80883.357
81188.568
81509.129
81933.034
82399.882
82985.059
83651.177
84452.027
85370.905
86436.97
87636.912
88966.73
90389.055
91854.372
93292.995
94636.809
95830.572
96844.531
97673.479
98332.153
98845.04
99236.621
99544.125
99812.53
99973.557
100038.43
100051.79
100030.55
99960.009
99854.042
99715.059
99549.978
99446.832
99391.104
99369.34
99365.968
99570.253
99836.922
79719.291
79743.911
79770.887
79807.403
79865.457
79929.348
80019.176
80119.297
80236.829
80390.956
80551.082
80776.616
81005.1
81323.471
81657.676
82099.311
82586.393
83195.598
83889.878
84722.601
85677.62
86782.193
88021.576
89387.355
90837.247
92315.631
93749.052
95068.845
96223.045
97187.388
97962.805
98568.932
99032.735
99382.632
99665.606
99899.506
100025.96
100069.27
100072.9
100037.57
99955.076
99839.808
99694.596
99537.034
99440
99388.153
99368.642
99372.963
99599.838
99848.247
79813.764
79839.927
79868.472
79906.977
79968.623
80035.267
80128.66
80233.515
80355.163
80516.542
80682.792
80918.759
81156.795
81489.236
81838.129
82298.486
82807.074
83441.558
84165.497
85031.575
86024.168
87168.337
88447.482
89848.265
91322.937
92809.779
94232.062
95521.484
96630.192
97540.07
98258.438
98809.477
99222.728
99532.167
99789.999
99983.793
100076.9
100102.83
100094.43
100044.88
99949.763
99824.904
99674.364
99525.805
99434.835
99386.761
99368.329
99384.13
99630.017
99859.797
79934.799
79962.433
79992.421
80032.886
80097.969
80167.109
80263.993
80374.032
80500.374
80669.849
80842.831
81090.002
81338.279
81685.519
82049.969
82529.995
83061.28
83722.267
84477.343
85378.24
86409.787
87594.518
88913.517
90347.939
91844.096
93334.274
94739.124
95991.638
97048.938
97899.818
98558.073
99051.922
99414.056
99685.342
99913.656
100064.9
100127.41
100138.64
100115.68
100052.42
99943.88
99809.386
99654.576
99516.292
99431.31
99386.249
99368.253
99400.272
99660.329
99871.368
80079.093
80108.496
80140.234
80183.029
80251.699
80323.913
80425.061
80541.152
80672.828
80850.945
81031.06
81289.94
81548.91
81911.529
82292.408
82792.962
83348.249
84037.086
84824.885
85762.132
86834.032
88060.183
89418.86
90885.086
92398.863
93886.692
95267.403
96476.213
97476.238
98264.03
98859.64
99294.768
99606.171
99841.755
100033.03
100142.59
100179.16
100175.2
100136.15
100059.33
99937.287
99793.332
99635.244
99508.126
99429.623
99386.148
99369.036
99422.471
99690.256
99882.762
80250.856
80281.992
80315.375
80360.442
80432.687
80508.422
80613.683
80735.686
80872.426
81059.246
81246.44
81517.36
81787.521
82166.213
82564.489
83086.653
83667.301
84385.368
85207.489
86182.625
87296.209
88564.466
89962.292
91457.951
92984.883
94464.125
95813.558
96971.685
97908.893
98630.202
99161.197
99536.773
99798.606
99998.534
100146.44
100217.62
100233.02
100211.04
100155.3
100063.41
99929.862
99776.818
99616.609
99500.384
99428.966
99387.998
99372.381
99452.186
99719.286
99893.849
80445.92
80478.962
80514.142
80561.817
80637.918
80717.912
80826.988
80954.848
81096.571
81292.545
81487.243
81770.911
82053.031
82448.644
82865.481
83410.319
84017.825
84766.64
85624.779
86639.406
87795.963
89106.835
90542.875
92065.021
93599.953
95063.749
96374.248
97474.677
98344.242
98996.417
99461.121
99776.927
99990.658
100151.32
100253.88
100292.36
100287.21
100245.71
100172.81
100065.29
99921.524
99759.9
99599.543
99492.65
99428.828
99392.706
99378.729
99489.699
99746.961
99904.582
80661.17
80696.337
80733.543
80784.284
80864.31
80948.541
81062.044
81196.575
81343.84
81549.789
81752.592
82049.796
82344.7
82758.127
83194.718
83763.482
84399.385
85180.486
86076.353
87132.045
88332.736
89686.444
91159.285
92704.318
94241.365
95682.164
96945.671
97981.851
98780.192
99361.097
99757.723
100013.89
100180.55
100296.7
100356.68
100367.97
100340.03
100278.94
100188.78
100066.02
99912.193
99742.604
99585.313
99485.508
99429.142
99399.749
99388.391
99533.027
99773.013
99915.001
80898.556
80935.832
80975.029
81028.666
81112.617
81200.989
81319.152
81460.975
81614.116
81830.62
82041.962
82353.401
82661.951
83094.122
83551.796
84145.703
84811.647
85626.698
86562.082
87660.424
88906.281
90302.734
91810.423
93374.019
94906.461
96315.945
97524.272
98490.755
99215.561
99722.745
100049.17
100245.86
100364.47
100434.29
100457.79
100442.33
100390.9
100310.6
100203.76
100066.24
99901.737
99724.982
99574.659
99481.958
99430.111
99407.762
99402.65
99579.251
99798.438
99925.142
81155.341
81195.086
81236.773
81293.834
81382.351
81475.506
81598.302
81747.658
81906.72
82134.316
82354.669
82681.171
83004.361
83456.279
83936.386
84556.792
85254.446
86105.15
87081.831
88224.334
89516.164
90954.884
92494.808
94071.798
95591.969
96961.2
98106.728
98999.805
99648.98
100078.57
100333.18
100470.55
100539.82
100566.46
100557.07
100514.05
100439.38
100340.57
100218.58
100065.86
99889.932
99707.631
99566.215
99480.47
99432.42
99413.833
99424.448
99626.476
99823.513
99935.061
81434.058
81476.029
81519.881
81579.973
81673.032
81770.641
81897.956
82055.304
82220.743
82460.274
82690.38
83032.853
83371.73
83844.381
84348.335
84996.582
85727.749
86615.919
87635.723
88823.825
90162.248
91642.286
93211.135
94795.322
96294.575
97614.326
98690.858
99508.214
100077.21
100424.67
100607.11
100686.27
100707.51
100694.95
100652.68
100582.53
100485.14
100368.59
100233.54
100063.9
99876.4
99690.832
99558.843
99480.061
99436.291
99420.113
99454.107
99673.339
99848.03
99944.763
81727.588
81772.39
81819.234
81883.25
81981.635
82084.867
82217.57
82383.915
82556.219
82808.611
83049.059
83408.304
83763.878
84258.236
84787.528
85465.148
86231.687
87159.166
88223.863
89458.875
90844.196
92364.044
93957.59
95541.647
97010.438
98271.936
99275.395
100013.93
100494.73
100757.45
100869.49
100893.81
100869.09
100818.02
100744.01
100647.43
100527.95
100394.2
100247.11
100060.15
99860.704
99674.962
99552.209
99480.159
99442.483
99428.818
99492.012
99718.743
99871.775
99954.273
82043.201
82090.784
82140.687
82208.378
82311.847
82420.489
82558.459
82734.033
82913.299
83179.131
83430.459
83807.212
84180.587
84697.757
85254.053
85962.657
86766.532
87735.235
88846.577
90129.703
91561.875
93119.352
94732.286
96307.67
97735.912
98931.759
99859.503
100511.3
100897.12
101074.84
101122.34
101093.31
101023.2
100935.23
100830.65
100708.5
100567.76
100417.11
100254.35
100054.52
99842.695
99660.707
99546.889
99483.068
99451.104
99439.815
99539.335
99761.74
99894.76
99963.718
82376.979
82427.438
82480.549
82551.991
82660.79
82775.386
82919.081
83104.686
83291.252
83571.303
83834.201
84229.336
84621.839
85163.096
85748.194
86489.511
87332.687
88344.522
89504.2
90836.442
92314.94
93906.973
95532.695
97089.684
98467.452
99592.426
100439.89
100993.89
101280.77
101379.02
101365.81
101283.17
101169.4
101046.17
100912.31
100765.57
100604.66
100437.71
100257.56
100046.97
99823.109
99648.981
99543.951
99487.471
99461.25
99452.259
99595.06
99801.545
99917.34
99973.426
82727.773
82781.545
82838.52
82914.275
83028.717
83150.061
83299.488
83495.828
83689.824
83984.884
84260.178
84674.761
85087.931
85654.651
86270.379
87046.125
87930.645
88987.598
90197.278
91579.408
93103.139
94725.587
96356.098
97884.067
99202.454
100253.1
101009.8
101456.52
101645.82
101672.82
101597.38
101462.85
101307.34
101150.6
100988.76
100818.47
100638.73
100457.11
100258.71
100037.32
99803.918
99639.383
99542.689
99491.709
99471.393
99467.311
99651.628
99839.724
99940.224
99983.912
83097.857
83154.88
83215.832
83295.761
83415.599
83543.924
83699.024
83906.699
84108.673
84419.849
84708.732
85143.95
85579.395
86172.877
86821.038
87633.05
88561.019
89665.115
90926.344
92358.773
93925.849
95573.259
97199.098
98687.134
99939.058
100910.39
101561.82
101895.55
101996.98
101953.28
101816.32
101631.95
101436.81
101248.35
101059.87
100867.05
100669.83
100476.16
100259.03
100025.08
99786.629
99631.318
99542.303
99496.118
99478.981
99487.674
99704.741
99875.641
99963.396
99995.986
83484.214
83544.693
83609.966
83694.185
83819.55
83955.882
84117.272
84337.666
84548.42
84877.014
85180.651
85637.503
86096.671
86718.169
87400.644
88250.912
89224.62
90377.958
91692.134
93174.812
94782.371
96447.774
98058.223
99495.914
100676.27
101556.85
102090.37
102313.22
102334.4
102218.65
102022.15
101790.28
101557.69
101339.33
101125.57
100911.3
100697.58
100493.36
100257.86
100009.74
99772.303
99624.517
99542.271
99500.94
99485.919
99515.068
99751.61
99907.39
99985.674
100010.81
83886.881
83951.06
84021.521
84111.037
84242.534
84387.773
84556.005
84790.275
85010.28
85357.073
85676.372
86155.603
86639.961
87290.891
88009.829
88900.643
89922.475
91127.088
92495.319
94027.504
95671.398
97346.125
98929.699
100307.92
101411.63
102183.7
102591.22
102714.74
102654.79
102468.13
102214.63
101937.75
101669.94
101423.5
101185.84
100951.37
100721.83
100502.32
100254.13
99991.714
99760.768
99620.601
99543.937
99507.115
99494.24
99550.625
99791.379
99934.702
100005.58
100027.62
84307.363
84375.674
84452.491
84548.963
84686.992
84841.299
85016.02
85264.876
85494.225
85859.782
86195.699
86698.209
87209.562
87891.72
88649.619
89583.45
90655.836
91913.65
93336.653
94916.768
96591.283
98265.079
99810.206
101121.64
102137.69
102784.77
103066.85
103099.48
102956.53
102701.42
102393.68
102074.36
101773.6
101500.89
101240.72
100987.52
100743.47
100506.21
100247.66
99971.924
99750.744
99618.846
99547.32
99515.142
99504.552
99592.507
99825.263
99959.025
100024.01
100043.89
84747.893
84820.87
84903.489
85006.21
85151.469
85315.175
85496.159
85760.233
85999.457
86384.601
86738.557
87265.701
87806.306
88521.889
89321.424
90300.875
91426.106
92738.772
94216.708
95841.986
97539.626
99200.887
100696.63
101935.22
102844.94
103354.83
103522.67
103463.91
103238.93
102918.32
102559.31
102200.21
101868.77
101571.58
101290.24
101019.91
100763.86
100507.53
100238.09
99951.084
99741.227
99618.24
99553.023
99525.065
99516.461
99636.915
99856.778
99981.391
100041.02
100059.02
85211.226
85288.881
85375.204
85481.029
85633.288
85807.574
85995.245
86275.656
86525.889
86931.844
87305.727
87859.241
88431.7
89183.064
90026.952
91054.496
92234.736
93603.635
95135.97
96802.206
98513.625
100150.05
101586.56
102742.84
103525.57
103894.8
103959.01
103805.98
103501.73
103118.89
102711.67
102315.48
101955.62
101635.7
101334.51
101048.44
100782.58
100507.89
100224.73
99930.313
99732.156
99618.189
99560.473
99536.717
99529.942
99681.307
99886.763
100002.23
100056.77
100073.07
85687.674
85770.247
85862.926
85975.071
86133.261
86319.444
86514.071
86812.166
87074.555
87502.893
87898.885
88480.69
89087.647
89877.116
90767.928
91845.986
93083.167
94509.275
96094.491
97795.696
99509.789
101109.09
102477.92
103534.86
104173
104409.83
104372.31
104125
103744.84
103303.25
102850.98
102420.39
102034.36
101693.43
101373.8
101073.12
100794.34
100505.88
100206.78
99911.059
99724.402
99619.503
99568.694
99549.454
99545.238
99725.104
99915.664
100021.85
100071.48
100086.22
86180.541
86268.812
86368.402
86487.525
86651.95
86851.859
87054.093
87371.365
87647.387
88099.863
88520.319
89132.18
89776.086
90605.849
91546.078
92676.953
93972.874
95456.658
97091.961
98820.188
100524.52
102074.96
103367.62
104301.06
104784.81
104902.96
104759.5
104420.71
103968.4
103471.72
102977.6
102515.3
102105.26
101744.97
101408.49
101094.85
100799.84
100500.37
100184.15
99894.568
99718.447
99622.233
99577.368
99561.602
99563.58
99768.167
99943.491
100040.44
100085.38
100098.6
86693.498
86787.878
86894.333
87020.676
87191.748
87406.396
87617.507
87955.716
88247.134
88725.215
89172.212
89815.55
90498.68
91370.946
92363.101
93549.169
94905.341
96446.467
98127.359
99872.562
101554
103044.68
104246.44
105033.84
105365.08
105370.8
105119.73
104693.07
104172.68
103624.7
103091.96
102600.61
102168.64
101790.52
101438.94
101115.04
100801.93
100491.39
100159.1
99880.039
99714.284
99626.085
99585.772
99571.923
99587.629
99809.801
99969.973
100057.99
100098.44
100110.11
87227.885
87328.744
87442.02
87576.727
87755.622
87986.615
88207.585
88568.333
88876.181
89380.659
89855.929
90532.133
91256.92
92174.176
93220.905
94464.446
95882.037
97479.108
99199.119
100949.35
102594.66
104015.55
105103.25
105726.9
105920.44
105808.85
105452.71
104942.34
104358.18
103762.73
103194.61
102676.77
102224.81
101830.39
101465.43
101133.15
100802.65
100479.21
100132.99
99867.112
99711.628
99630.755
99594.261
99581.831
99619.217
99848.521
99994.551
100074.18
100110.46
100120.8
87786.045
87893.976
88014.854
88160.562
88348.332
88596.187
88826.34
89210.121
89535.116
90066.673
90572.348
91283.264
92052.572
93017.606
94121.588
95424.776
96904.269
98554.366
100304.78
102046.66
103642.71
104981.38
105927.67
106382.29
106448.11
106215.83
105758.39
105168.89
104525.44
103886.45
103286.11
102744.15
102274.03
101865.07
101488.49
101143.34
100802.1
100463.76
100106.77
99855.494
99710.489
99636.236
99603.759
99593.14
99658.406
99882.708
100016.77
100088.88
100121.34
100130.46
88368.646
88484.482
88613.94
88771.655
88967.018
89232.879
89472.1
89879.912
90223.869
90784.024
91322.92
92070.93
92887.877
93903.622
95067.44
96432.044
97973.058
99671.36
101441.27
103160.68
104694.87
105931.21
106711.48
107005.75
106943.76
106591.31
106037.08
105373.38
104675.26
103996.57
103366.92
102802.95
102316.46
101895.11
101509.23
101147.96
100798.54
100444.21
100081.67
99844.9
99710.223
99642.674
99614.838
99606.418
99701.637
99913.262
100036.8
100102.16
100131.15
100139.13
88973.803
89098.157
89236.239
89406.267
89608.743
89895.142
90145
90578.766
90944.188
91534.803
92110.044
92897.727
93765.481
94834.803
96060.785
97488.141
99088.896
100828.28
102604.65
104287.28
105747.35
106852.3
107451.16
107599.39
107404.03
106935.19
106289.28
105556.59
104808.44
104093.74
103437.34
102853.28
102352.39
101921.05
101527.78
101149.68
100791.32
100419.43
100059.14
99835.561
99710.915
99650.817
99627.606
99621.297
99746.557
99942.205
100055.17
100114.15
100140.02
100147.04
89602.792
89736.703
89883.839
90067.422
90277.359
90586.214
90848.054
91309.581
91698.883
92321.776
92936.55
93766.572
94688.206
95813.854
97104.024
98594.616
100251.68
102022.6
103790.86
105422.07
106790.93
107734.42
108150.42
108159.15
107828.23
107247.81
106515.79
105719.51
104925.87
104178.47
103497.61
102895.59
102382.69
101943.56
101540.05
101150.24
100780.05
100390.33
100039.44
99828.257
99713.749
99660.686
99641.496
99637.218
99791.039
99969.827
100072.15
100124.92
100147.84
100154.03
90258.042
90402.809
90559.496
90758.501
90976.276
91309.136
91584.066
92074.865
92490.852
93147.903
93805.456
94680.489
95658.951
96843.498
98199.451
99752.769
101460.43
103250.83
104995.51
106560.48
107812.19
108568.48
108816.58
108679.46
108216.1
107529.74
106717.61
105863.13
105028.27
104251.17
103548.34
102931.21
102409
101963.54
101546.16
101149.21
100764.92
100359.04
100022.07
99823.345
99718.452
99671.386
99655.491
99654.774
99834.121
99995.902
100087.67
100134.48
100154.63
100160.06
90939.848
91097.76
91264.75
91480.665
91707.232
92066.277
92355.821
92877.711
93323.177
94016.306
94719.813
95642.498
96680.563
97926.453
99349.228
100963.18
102713.29
104508.89
106214
107696.99
108796.93
109355.39
109446.39
109158.85
108567.98
107781.97
106895.9
105988.44
105116.22
104312.5
103591.05
102962.36
102433.01
101980.77
101548.71
101145.84
100746.46
100326.88
100006.9
99821.082
99724.689
99682.392
99668.339
99676.874
99874.694
100019.78
100101.47
100142.75
100160.39
100165.15
91657.442
91828.612
92004.642
92238.653
92473.571
92860.519
93167.068
93721.065
94198.942
94929.954
95682.592
96655.587
97755.958
99065.42
100555.21
102225.78
104007.32
105792.13
107440.87
108818.47
109734.23
110100.45
110034.42
109596.83
108884.49
108005.63
107051.79
106096.18
105190.39
104363.79
103628.16
102990.62
102454.31
101991.16
101549.85
101140.03
100724.89
100294.94
99993.414
99820.333
99731.812
99693.742
99681.325
99706.123
99911.014
100040.73
100113.24
100149.71
100165.24
100169.41
92404.719
92590.974
92777.406
93033.198
93277.775
93694.807
94019.491
94607.814
95120.942
95891.76
96696.806
97722.941
98888.292
100263.24
101818.93
103539.4
105338.68
107095.62
108670.44
109909.88
110617.95
110806.67
110576.39
109993.6
109166.72
108202.05
107186.31
106187.16
105252.11
104407.4
103661.34
103013.88
102467.63
101996.38
101550.05
101131.38
100699.34
100264.57
99981.167
99820.327
99739.704
99705.862
99695.194
99744.752
99941.223
100058.39
100123.07
100155.44
100169.26
100173.04
93190.842
93393.351
93590.317
93868.717
94123.038
94571.734
94916.489
95540.299
96092.055
96904.731
97765.687
98848.125
100081.02
101522.69
103141.16
104901.84
106702.51
108413.21
109892.95
110956.3
111450.54
111468.81
111071.34
110349.77
109415.96
108372.46
107300.4
106262.76
105303.86
104445.67
103688.36
103026.84
102474.24
101998.75
101548.59
101119.18
100668.16
100237.4
99970.235
99821.245
99748.532
99719.214
99710.721
99786.964
99967.6
100073.56
100131.51
100160.3
100172.31
100175.5
94013.773
94234.452
94442.307
94745.707
95010.439
95493.195
95860.077
96521.109
97115.357
97972.452
98893.152
100035.26
101337.92
102846.23
104521.68
106309.54
108093.44
109738.04
111092.32
111945.7
112239.85
112080.17
111519.26
110666.5
109633.68
108518.11
107395.51
106325.55
105348.51
104478.25
103703.58
103032.74
102477.09
101999.93
101545.1
101102.84
100632.15
100213.18
99960.83
99823.332
99758.397
99733.947
99727.814
99828.176
99991.881
100087.29
100138.95
100164.07
100174.43
100177.4
94876.526
95117.116
95336.714
95667.57
95942.77
96461.852
96853.547
97553.597
98194.886
99099.489
100083.89
101288.96
102662.69
104235.49
105958.85
107757.74
109505.06
111061.99
112250.51
112876.92
112981.7
112638.53
111920.69
110945.16
109821.26
108640.4
107474.14
106378.81
105386.49
104498.4
103710.55
103035.22
102478.26
102000.27
101539.56
101082.31
100593.4
100190.72
99953.143
99827.124
99769.681
99749.593
99745.515
99867.983
100014.7
100099.8
100145.24
100167.06
100176.05
100178.51
95782.236
96043.507
96273.978
96635.659
96922.188
97480.801
97901.204
98642.505
99335.995
100291.55
101343.34
102614.08
104058.59
105690.91
107449.5
109240.41
110929.45
112369.97
113352.41
113755.12
113669.35
113143.5
112276.77
111187.39
109980.31
108741.6
107539.83
106423.79
105411.94
104508.41
103713.5
103035.67
102478.25
101999.61
101532.14
101057.99
100553.15
100169.96
99947.49
99832.76
99782.122
99765.332
99763.5
99905.493
100035.82
100110.91
100150.56
100169.45
100177.27
100179.69
96729.987
97015.844
97258.837
97655.318
97954.239
98555.92
99009.31
99794.28
100545.31
101555.21
102677.26
104015.18
105527.94
107211.36
108988.85
110750.74
112357.4
113642.72
114389.25
114582.32
114297.5
113595.4
112588.99
111394.92
110112.93
108825.09
107594.94
106455.44
105425.33
104512.82
103713.91
103033.51
102476.35
101997.74
101522.89
101030.06
100512.67
100151.6
99944.655
99839.83
99794.683
99779.931
99783.32
99939.895
100054.77
100120.55
100155.04
100171.4
100178.27
100180.27
97726.206
98041.799
98297.879
98733.905
99046.011
99694.117
100185.6
101016.36
101830
102897.12
104090.99
105495.93
107071.63
108793.87
110570.5
112279.85
113776.19
114860.58
115362.98
115351.53
114865.19
113995.3
112859.18
111569.84
110222.39
108894.64
107636.52
106472.75
105431.38
104513.91
103710.96
103028.64
102472.83
101994.81
101511.35
100997.43
100474.44
100135.86
99943.872
99847.685
99806.827
99793.4
99808.61
99969.784
100071.13
100128.77
100158.84
100173.1
100178.99
100180.61
98775.956
99127.292
99398.083
99879.959
100206.05
100903.26
101438.93
102316.62
103196.86
104323.28
105589.04
107058.73
108688.73
110433.55
112186.63
113816.98
115164.51
116008.3
116280.79
116054.21
115372.3
114344.73
113089.45
111714.95
110312.64
108951.13
107660.65
106480.73
105433.19
104511.4
103704.68
103021.36
102467.96
101990.82
101496.56
100958.13
100441.44
100122.54
99944.098
99856.049
99819.27
99807.362
99841.856
99993.8
100084.78
100135.8
100162.19
100174.58
100179.51
100180.81
99890.303
100281.44
100564.7
101101.03
101443.69
102191.59
102777.48
103702.28
104651.49
105838.63
107174.87
108704.59
110376.42
112123.55
113827.59
115348.98
116499.37
117084.89
117134.91
116688.52
115819.83
114645.79
113282.49
111834.11
110386.43
108987.42
107672.15
106483.27
105430.92
104505.06
103695.4
103012.06
102462.04
101985.72
101477.69
100914.47
100412.88
100111.34
99945.492
99865.286
99832.92
99822.953
99877.087
100015.04
100096.68
100142
100165.19
100175.81
100179.9
100180.96
101094
101524.36
101805.14
102402.85
102768.49
103564.74
104207.08
105179.12
106198.54
107447.33
108851.23
110432.98
112129.76
113854.99
115480.68
116853.95
117761.08
118096.35
117915.73
117253.89
116209.35
114900.94
113441.74
111931.54
110441.57
109006.29
107676.46
106480.93
105424.27
104495.28
103683.54
103001.09
102455.28
101979.51
101454.71
100869.23
100386.91
100101.89
99948.158
99875.765
99847.974
99840.075
99910.602
100034.4
100107.27
100147.4
100167.7
100176.83
100180.23
100181.08
102375.86
102857.54
103134.8
103793.82
104186.85
105027.77
105732.04
106752.49
107842.87
109153.62
110620.03
112241.48
113941.37
115616.56
117130.38
118306.19
118943.62
119037.09
118619.17
117751.13
116543.25
115113.51
113571.56
112009.57
110474.72
109014.84
107674.99
106473.4
105413.71
104482.53
103669.51
102988.8
102447.92
101972.45
101428.33
100823.49
100362.6
100094.02
99952.25
99887.524
99864.086
99858.183
99941.75
100052
100116.69
100152.04
100169.7
100177.6
100180.44
100181.17
103739.88
104280.09
104550.41
105271.36
105699.11
106583.4
107356.19
108428.8
109590.94
110962.1
112481.93
114125.05
115800.92
117393.37
118754.13
119681.48
120050.47
119896.45
119244.13
118181.93
116824.64
115287.95
113676.42
112063.73
110491.3
109016.09
107667.21
106461.3
105399.81
104467.29
103653.7
102975.52
102440.26
101965
101399.03
100777.81
100339.88
100087.79
99957.864
99900.316
99880.784
99876.578
99970.646
100068
100124.91
100155.79
100171.12
100177.98
100180.58
100181.23
105190.59
105794.05
106057.81
106839.63
107312.3
108240.79
109087.35
110216.43
111450.33
112876.72
114434.67
116074.91
117694.53
119166.38
120322.73
120968.72
121077.51
120668.19
119791.2
118549.04
117057.68
115429.54
113758.7
112094.83
110497.6
109009.92
107653.92
106445.34
105383.13
104450
103636.49
102961.59
102432.54
101957.25
101365.11
100733.75
100319.59
100084.19
99965.233
99914.102
99897.744
99894.781
99997.267
100082.34
100131.99
100158.88
100172.21
100178.09
100180.6
100181.3
106743.5
107410.87
107678.48
108518.28
109045.71
110018.51
110941.24
112125.92
113427.9
114898.28
116471.46
118077.49
119603.63
120910.1
121807.06
122169.45
122012.37
121350.51
120262.19
118856.27
117247.59
115542.41
113812.67
112110.12
110495.54
108996.99
107635.99
106426.2
105364.21
104431.1
103618.26
102947.34
102424.85
101948.31
101323.28
100694.47
100302.54
100083.4
99974.214
99928.672
99914.936
99913.73
100020.96
100094.99
100138.01
100161.19
100172.73
100178
100180
100180.6
108411.99
109148.03
109432.72
110326.02
110921.87
111937.96
112931.68
114171.25
115527.98
117021.79
118579.55
120114.4
121504.27
122590.82
123192.88
123278.09
122847.5
121943.77
120660.41
119108.75
117400.2
115626.52
113842.23
112114.43
110485.15
108978.37
107614.3
106404.57
105343.56
104411
103599.38
102933.11
102417
101936.46
101275.23
100661.1
100288.65
100084.15
99984.449
99943.534
99931.396
99935.783
100040.73
100105.65
100143.13
100163.13
100172.87
100177.34
100179.01
100179.53
110224.99
111034.06
111347.17
112281.43
112945.54
114009.8
115073.88
116354.27
117744.64
119234.27
120740.11
122161.48
123365.05
124174.76
124480.47
124280.22
123580.42
122450.1