/*--------------------------------*- C++ -*----------------------------------*\
  =========                 |
  \\      /  F ield         | OpenFOAM: The Open Source CFD Toolbox
   \\    /   O peration     | Website:  https://openfoam.org
    \\  /    A nd           | Version:  8
     \\/     M anipulation  |
\*---------------------------------------------------------------------------*/
FoamFile
{
    version     2.0;
    format      ascii;
    class       surfaceScalarField;
    location    "0.18001";
    object      phi;
}
// * * * * * * * * * * * * * * * * * * * * * * * * * * * * * * * * * * * * * //

dimensions      [1 0 -1 0 0 0 0];

internalField   nonuniform List<scalar> 
39600
(
-0.00021204055
-0.0083188447
0.0085151533
-0.00026366355
-0.011607287
0.011657169
-0.00031258893
-0.015258922
0.015305743
-0.00036464385
-0.019737447
0.019787106
-0.00042321525
-0.025379398
0.025434888
-0.00048519663
-0.032600162
0.032658301
-0.00073405999
-0.04036344
0.040608207
-0.001080527
-0.048712347
0.049054275
-0.0014928016
-0.058130631
0.058537537
-0.0019786513
-0.069818398
0.070297906
-0.0025562216
-0.083464981
0.084035032
-0.0032440147
-0.10013334
0.10081215
-0.0040621232
-0.11980726
0.12061461
-0.0050405349
-0.14363818
0.14460365
-0.0062044567
-0.17194936
0.17309757
-0.0075956787
-0.20607386
0.2074463
-0.0092508448
-0.24675429
0.24838652
-0.011227399
-0.29564012
0.29758943
-0.013580574
-0.35402387
0.35634366
-0.016391067
-0.42402994
0.42679994
-0.019737207
-0.50769365
0.51099075
-0.02372386
-0.60784538
0.61177286
-0.028444151
-0.72743554
0.73208249
-0.034004487
-0.8702796
0.87575662
-0.040688905
-1.0407338
1.0473169
-0.04871451
-1.2437023
1.2516108
-0.058368861
-1.4851069
1.4946217
-0.069959447
-1.7720448
1.7834726
-0.083856682
-2.1129996
2.1267083
-0.10046981
-2.5183592
2.5347562
-0.12024572
-3.0008486
3.0203764
-0.14367217
-3.5760722
3.5992152
-0.17129172
-4.2631594
4.2904672
-0.20371775
-5.0853501
5.1174464
-0.24163565
-6.0705041
6.1080779
-0.28575633
-7.2518552
7.2956078
-0.33679542
-8.6694335
8.7200818
-0.39617638
-10.369654
10.428571
-0.46359003
-12.408616
12.475409
-0.53802701
-14.856127
14.929687
-0.62040095
-17.793176
17.874351
-0.70881164
-21.315181
21.401992
-0.79933523
-25.539438
25.6279
-0.88564645
-30.602723
30.686411
-0.95518626
-36.67661
36.743169
-0.98897734
-43.970798
44.00218
-0.97228546
-52.719678
52.70097
-0.84575445
-63.208891
63.081466
-0.56425879
-75.858294
75.577039
-90.973273
90.43512
-4.136252e-05
-0.0082914335
-7.917501e-05
-0.011572231
-0.00012325305
-0.01521749
-0.00017200541
-0.019691652
-0.00022950353
-0.0253252
-0.00030074097
-0.032533072
-0.00054730222
-0.040120949
-0.0008747907
-0.048389428
-0.0012695604
-0.057741251
-0.0017422263
-0.069352165
-0.0023087708
-0.082906168
-0.0029872676
-0.099464111
-0.0037966118
-0.11900915
-0.0047657709
-0.14268251
-0.0059189286
-0.17081237
-0.0072987334
-0.20471357
-0.0089410188
-0.24513543
-0.01090649
-0.29370333
-0.013243948
-0.35172115
-0.016032984
-0.42128272
-0.019340534
-0.50443599
-0.023277447
-0.60396866
-0.027919719
-0.72286689
-0.033426641
-0.86485975
-0.040050121
-1.0342098
-0.048012519
-1.2358591
-0.057562949
-1.4756961
-0.069023871
-1.7607477
-0.08275635
-2.0994563
-0.099157093
-2.5021743
-0.1186569
-2.9815956
-0.14172698
-3.5532828
-0.16889279
-4.2363008
-0.20074903
-5.0538174
-0.23796927
-6.03362
-0.28125431
-7.2089295
-0.33133678
-8.6197278
-0.38960073
-10.311857
-0.45541059
-12.343437
-0.52880787
-14.78361
-0.60983526
-17.713376
-0.69694694
-21.229691
-0.78643355
-25.452038
-0.87227267
-30.519575
-0.94135989
-36.610384
-0.98045145
-43.934238
-0.96580966
-52.736333
-0.84867844
-63.326855
-0.58054589
-76.12615
-91.486624
-3.8089961e-05
-0.0082647754
-7.0313955e-05
-0.0115427
-0.00010533544
-0.015185109
-0.00014382177
-0.01965623
-0.0001881998
-0.025284161
-0.00025341511
-0.032471996
-0.00049916493
-0.03987937
-0.00082135403
-0.048071966
-0.0012075754
-0.057360671
-0.0016684221
-0.068897965
-0.0022183218
-0.082364282
-0.0028761573
-0.098815818
-0.0036586324
-0.11823815
-0.0045956576
-0.1417592
-0.0057105043
-0.16971407
-0.0070462577
-0.20339769
-0.008636668
-0.24356916
-0.010542142
-0.29182696
-0.012799106
-0.34949948
-0.015491379
-0.41863296
-0.018677062
-0.50130186
-0.022450611
-0.60025699
-0.026938745
-0.71845328
-0.032292822
-0.85959059
-0.038751626
-1.0278533
-0.046509498
-1.2282215
-0.055841758
-1.4665048
-0.067073217
-1.7496806
-0.080560719
-2.0861579
-0.096693979
-2.4862556
-0.11589027
-2.9626433
-0.13860642
-3.5308425
-0.16534906
-4.2098589
-0.19669775
-5.0227837
-0.23330881
-5.9973358
-0.27586357
-7.1667245
-0.32530063
-8.5706595
-0.38241163
-10.255215
-0.44695446
-12.279547
-0.51934939
-14.712166
-0.59927614
-17.634733
-0.68533539
-21.145274
-0.77404932
-25.365466
-0.85967298
-30.436744
-0.92954788
-36.543263
-0.97195432
-43.894196
-0.96038176
-52.749917
-0.85388644
-63.434348
-0.599172
-76.37974
-91.976491
-3.2290313e-05
-0.0082404683
-6.2331056e-05
-0.01151451
-9.5405391e-05
-0.015154238
-0.00013078247
-0.019623336
-0.0001700584
-0.025248101
-0.00023802874
-0.032408024
-0.00048165972
-0.039639854
-0.00079103309
-0.047767355
-0.0011615522
-0.056995782
-0.0016045319
-0.068461728
-0.0021335656
-0.081843264
-0.002769196
-0.09818978
-0.0035241943
-0.11749465
-0.0044295072
-0.14086768
-0.0055070849
-0.16865315
-0.0068021076
-0.20212269
-0.0083377587
-0.24205772
-0.010175394
-0.29001871
-0.012354099
-0.34735612
-0.014928534
-0.41610103
-0.017981916
-0.49829965
-0.021625371
-0.5966752
-0.025978614
-0.71417226
-0.031203377
-0.85445252
-0.037483017
-1.0216761
-0.045047609
-1.2207776
-0.054176655
-1.4575167
-0.065194726
-1.7388267
-0.078457828
-2.073083
-0.094344456
-2.4705817
-0.11326163
-2.9439671
-0.13564954
-3.5087258
-0.16199959
-4.1838032
-0.19287433
-4.9922161
-0.22892013
-5.961608
-0.27080161
-7.1251838
-0.31956265
-8.5222601
-0.37564675
-10.199604
-0.43917757
-12.216681
-0.51052364
-14.641773
-0.58952097
-17.557059
-0.67468454
-21.061777
-0.76278416
-25.279545
-0.84785925
-30.354555
-0.91961422
-36.474009
-0.96411982
-43.851736
-0.95652647
-52.759307
-0.8608741
-63.53155
-0.62029515
-76.618496
-92.441636
-2.8034339e-05
-0.0082188977
-5.5112421e-05
-0.01148983
-8.4258417e-05
-0.01512765
-0.00011456246
-0.019595853
-0.00014533679
-0.025220715
-0.00021404367
-0.032343314
-0.00045336039
-0.039404654
-0.0007509309
-0.047474468
-0.00110817
-0.056644134
-0.0015356797
-0.068040865
-0.0020463342
-0.081340583
-0.0026631436
-0.097582504
-0.0033918742
-0.11677735
-0.0042686455
-0.14000462
-0.0053078287
-0.16763049
-0.0065591623
-0.20089146
-0.0080413678
-0.2405996
-0.0097973146
-0.28829148
-0.011873883
-0.34531423
-0.014350307
-0.41366645
-0.017296837
-0.49540365
-0.020832939
-0.59319885
-0.025064287
-0.710013
-0.030137369
-0.84946498
-0.03624754
-1.0156675
-0.043631644
-1.2135126
-0.052572835
-1.4487145
-0.063397133
-1.7281639
-0.076455092
-2.0602096
-0.092118081
-2.4551268
-0.11077921
-2.925541
-0.13286606
-3.4869026
-0.15885354
-4.1581011
-0.18929305
-4.9620733
-0.22480927
-5.926399
-0.26606826
-7.0842552
-0.3141618
-8.474524
-0.36935918
-10.144885
-0.43202873
-12.154688
-0.50234539
-14.57242
-0.5805768
-17.480176
-0.66500192
-20.979081
-0.75267553
-25.194084
-0.83778251
-30.272359
-0.91110405
-36.403032
-0.95823196
-43.806451
-0.95580334
-52.763373
-0.8694547
-63.619429
-0.64406625
-76.841378
-92.881815
-2.4117404e-05
-0.0081990904
-4.9088636e-05
-0.011467283
-7.5622652e-05
-0.015103733
-0.00010239743
-0.01957189
-0.00012628496
-0.025200288
-0.00020046156
-0.032273038
-0.00043375151
-0.039175441
-0.00072070193
-0.047192129
-0.0010670003
-0.056303321
-0.0014799655
-0.067634441
-0.0019734219
-0.080854936
-0.002564317
-0.09700096
-0.0032663518
-0.11608675
-0.0041138807
-0.13917072
-0.0051205115
-0.16664018
-0.0063121574
-0.19971905
-0.0077205843
-0.23921448
-0.0094012651
-0.28663883
-0.011402668
-0.3433469
-0.013793066
-0.41131693
-0.016656415
-0.49258962
-0.02008104
-0.5898338
-0.024178741
-0.70598668
-0.029106895
-0.84462199
-0.035057604
-1.0098176
-0.042275183
-1.2064131
-0.051045322
-1.4400821
-0.061694886
-1.7176744
-0.074569888
-2.0475168
-0.090031618
-2.4398697
-0.10846189
-2.907341
-0.13027363
-3.4653482
-0.15592924
-4.1327231
-0.18596771
-4.9323225
-0.22099969
-5.8916644
-0.26169199
-7.0438826
-0.30916636
-8.4274054
-0.36357331
-10.090962
-0.42542335
-12.093523
-0.49488538
-14.503918
-0.57248567
-17.403945
-0.6563256
-20.89705
-0.74375531
-25.108905
-0.82933755
-30.189712
-0.90418054
-36.330452
-0.95419183
-43.758139
-0.95728861
-52.761714
-0.88059009
-63.697656
-0.67063975
-77.048147
-93.296711
-2.0686672e-05
-0.0081802502
-4.3823075e-05
-0.011446184
-6.7958343e-05
-0.015081919
-9.1797344e-05
-0.0195506
-0.0001095563
-0.025185819
-0.00018973019
-0.032196582
-0.00041846251
-0.038950691
-0.00069692619
-0.046918366
-0.0010297509
-0.055976038
-0.0014301153
-0.067240598
-0.0019006027
-0.080392135
-0.0024663698
-0.09644432
-0.00314459
-0.11541932
-0.0039508098
-0.13837741
-0.004904037
-0.16570258
-0.0060432478
-0.19859859
-0.0073995591
-0.23788081
-0.0090179566
-0.28504777
-0.010956102
-0.34144179
-0.013276827
-0.40903606
-0.016041421
-0.489873
-0.019350854
-0.58658196
-0.023321269
-0.70208532
-0.02810984
-0.83991559
-0.033913254
-1.0041115
-0.040978649
-1.1994617
-0.04959588
-1.4315981
-0.060091446
-1.7073337
-0.072805124
-2.0349791
-0.088089989
-2.4247823
-0.1063137
-2.8893393
-0.12787728
-3.4440322
-0.15323272
-4.1076344
-0.18290798
-4.9029232
-0.21750457
-5.8573533
-0.25767077
-7.004022
-0.30458668
-8.3808465
-0.35828912
-10.03775
-0.41936163
-12.033146
-0.48828005
-14.435975
-0.56525763
-17.328382
-0.64867512
-20.815467
-0.73604916
-25.023816
-0.82233475
-30.106389
-0.89884441
-36.25611
-0.95210726
-43.706488
-0.96103727
-52.754034
-0.89424165
-63.765578
-0.7001064
-77.238468
-93.685935
-1.670643e-05
-0.0081634879
-3.7470907e-05
-0.011427261
-5.8708969e-05
-0.015062843
-7.9365806e-05
-0.019532364
-9.1688729e-05
-0.025176719
-0.00017643641
-0.03211534
-0.00040051702
-0.038730375
-0.00067043025
-0.046652616
-0.000988696
-0.0556628
-0.0013687813
-0.066866494
-0.0018190741
-0.079949072
-0.0023566727
-0.095915435
-0.0030010222
-0.11478531
-0.0037721869
-0.13761872
-0.0046873185
-0.1648025
-0.0057846455
-0.19751958
-0.0070949893
-0.23659261
-0.0086689764
-0.28350041
-0.010538719
-0.33960436
-0.012774122
-0.40683964
-0.015442226
-0.48725199
-0.018642585
-0.58343823
-0.022491553
-0.69830432
-0.027149259
-0.83533871
-0.032817157
-0.99853933
-0.039745995
-1.192645
-0.048229488
-1.4232456
-0.058592401
-1.6971227
-0.071168613
-2.022575
-0.086299425
-2.4098441
-0.10434263
-2.8715119
-0.12568625
-3.4229285
-0.15077197
-4.0828065
-0.18011805
-4.8738433
-0.21432323
-5.823423
-0.25410704
-6.964529
-0.30045477
-8.3348596
-0.3535066
-9.9851941
-0.41395781
-11.9734
-0.48241858
-14.368507
-0.55891896
-17.253354
-0.64208731
-20.73414
-0.72959105
-24.938627
-0.81673464
-30.022213
-0.89513865
-36.179866
-0.95201085
-43.651181
-0.96712533
-52.739972
-0.91058979
-63.822738
-0.7326035
-77.412031
-94.049175
-1.3734557e-05
-0.0081474643
-3.2289014e-05
-0.011410334
-4.9873916e-05
-0.015047215
-6.5411661e-05
-0.01951909
-6.8300555e-05
-0.025176802
-0.00015186518
-0.032035063
-0.00036433682
-0.038521394
-0.00061941399
-0.046401638
-0.00092226087
-0.055364842
-0.0012879187
-0.066506681
-0.0017226411
-0.079521333
-0.0022439383
-0.095402447
-0.0028577821
-0.11418172
-0.0036026771
-0.13688609
-0.004487021
-0.16393297
-0.0055531344
-0.19647121
-0.0068168663
-0.2353503
-0.0083306104
-0.28201245
-0.01013123
-0.33783473
-0.012286576
-0.40472152
-0.014862106
-0.48472129
-0.017957443
-0.58039666
-0.021691661
-0.69463454
-0.026228771
-0.83087817
-0.031773827
-0.99308504
-0.038583134
-1.1859419
-0.046953534
-1.4149997
-0.057205785
-1.6870152
-0.069667511
-2.0102772
-0.084669397
-2.3950259
-0.10255685
-2.8538302
-0.12370838
-3.4020056
-0.14855691
-4.0582038
-0.17761595
-4.8450382
-0.21147652
-5.7898252
-0.25097691
-6.9253085
-0.296773
-8.2894249
-0.34925484
-9.9332135
-0.40922558
-11.914146
-0.47732019
-14.301426
-0.55349461
-17.178692
-0.63658416
-20.652944
-0.72442348
-24.853134
-0.81252642
-29.937011
-0.89309553
-36.101513
-0.95391069
-43.591914
-0.97572208
-52.719065
-0.92966702
-63.869347
-0.76826795
-77.568432
-94.386044
-1.0766549e-05
-0.0081333721
-2.5868959e-05
-0.011396887
-3.8585489e-05
-0.015036613
-4.7570887e-05
-0.019512245
-4.0536579e-05
-0.02518684
-0.00012526978
-0.031953474
-0.00032836902
-0.038321821
-0.00057248863
-0.046161571
-0.00086272892
-0.05507945
-0.0012158131
-0.066159362
-0.0016325982
-0.079111454
-0.0021429218
-0.094900419
-0.0027389497
-0.11359552
-0.003457564
-0.13617928
-0.0043092569
-0.16309553
-0.0053332299
-0.19546432
-0.0065499135
-0.23415416
-0.0080074413
-0.28057953
-0.0097422708
-0.33612981
-0.011819284
-0.40268065
-0.014306451
-0.48227777
-0.017302745
-0.57745289
-0.020930211
-0.69107007
-0.025356804
-0.8265265
-0.030794157
-0.98773642
-0.037502146
-1.1793378
-0.045779263
-1.4068442
-0.055944492
-1.6769912
-0.068315301
-1.9980659
-0.083212746
-2.3803067
-0.10097065
-2.8362713
-0.1219582
-3.3812385
-0.14660191
-4.0337964
-0.17540764
-4.8164762
-0.20897523
-5.7565099
-0.24820407
-6.8863509
-0.29355672
-8.2444352
-0.34558341
-9.8816942
-0.40516114
-11.855293
-0.47302057
-14.234598
-0.54901198
-17.104227
-0.63220029
-20.571693
-0.72057551
-24.767143
-0.80979109
-29.850534
-0.89282082
-36.020687
-0.95792286
-43.528327
-0.98688572
-52.690901
-0.95161853
-63.905158
-0.80719224
-77.707301
-94.69608
-6.3530099e-06
-0.0081217558
-1.8293889e-05
-0.011386418
-2.6876542e-05
-0.015029984
-3.1429264e-05
-0.019509616
-2.2266085e-05
-0.025199015
-0.00011509554
-0.03186356
-0.00031239904
-0.038127786
-0.00054773317
-0.045930047
-0.00082814008
-0.054803572
-0.001164058
-0.065828883
-0.0015658471
-0.078716192
-0.00205363
-0.094420428
-0.0026265589
-0.11303206
-0.0033187313
-0.13549844
-0.0041389167
-0.16228901
-0.0051253606
-0.19449426
-0.0062971678
-0.23300203
-0.0077004446
-0.27919986
-0.0093712617
-0.33448733
-0.011373815
-0.40071216
-0.01377682
-0.47991578
-0.01668033
-0.57459861
-0.020209758
-0.68759961
-0.024538276
-0.82226808
-0.029882478
-0.98247528
-0.036508158
-1.1728095
-0.044714379
-1.3987524
-0.054815624
-1.6670233
-0.067120084
-1.9859121
-0.081937458
-2.3656579
-0.099591784
-2.8188052
-0.12044399
-3.3605949
-0.1449162
-4.0095482
-0.17350955
-4.7881142
-0.20682978
-5.7234292
-0.24582593
-6.8476204
-0.29081632
-8.199811
-0.34253701
-9.8304896
-0.40176337
-11.796794
-0.46953604
-14.16788
-0.54551015
-17.029799
-0.62896757
-20.490219
-0.71809973
-24.680434
-0.80863653
-29.762503
-0.89435336
-35.937096
-0.96414618
-43.460035
-1.0006111
-52.655186
-0.97653525
-63.929481
-0.849662
-77.827944
-94.978991
-2.8571059e-06
-0.0081122435
-1.1784625e-05
-0.011378802
-1.6033942e-05
-0.015027514
-1.5220034e-05
-0.019512434
-1.976869e-06
-0.025215057
-9.7768761e-05
-0.031770545
-0.00028755654
-0.037941082
-0.00051589779
-0.045705345
-0.00078389015
-0.054539913
-0.0011107248
-0.065507234
-0.0014955096
-0.07833765
-0.0019625838
-0.093960832
-0.002514404
-0.11248927
-0.0031809918
-0.13484266
-0.0039701811
-0.16151295
-0.0049197748
-0.19356027
-0.0060492763
-0.23189129
-0.0074012012
-0.27787023
-0.009010471
-0.33290525
-0.010941728
-0.39881382
-0.013266355
-0.47763096
-0.016083842
-0.57182904
-0.019524576
-0.68421635
-0.023767098
-0.81809392
-0.029035807
-0.97728752
-0.035598945
-1.1663411
-0.043757094
-1.3907056
-0.053818088
-1.6570916
-0.066080748
-1.9737951
-0.080843138
-2.3510581
-0.098419498
-2.8014099
-0.119166
-3.3400485
-0.14350018
-3.9854284
-0.17192263
-4.7599129
-0.20503747
-5.6905414
-0.24384848
-6.8090731
-0.28853589
-8.1554937
-0.33998712
-9.7795623
-0.39917615
-11.738333
-0.46688395
-14.101253
-0.54299536
-16.955257
-0.62691625
-20.408325
-0.71702582
-24.592791
-0.80919726
-29.672597
-0.89772839
-35.850511
-0.97260971
-43.386791
-1.0170755
-52.611434
-1.0045351
-63.94175
-0.89586684
-77.930127
-95.234358
-1.592026e-08
-0.0081035957
-7.117044e-06
-0.011372863
-7.7601883e-06
-0.015028234
-1.6567556e-06
-0.01952013
1.2215603e-05
-0.025231419
-8.9790176e-05
-0.031671094
-0.00027224116
-0.037761452
-0.00049307151
-0.045487996
-0.00075161504
-0.054285427
-0.0010676901
-0.065196124
-0.0014373332
-0.077973898
-0.0018869752
-0.093518282
-0.0024166462
-0.11196818
-0.0030577047
-0.13421196
-0.0038168039
-0.16076624
-0.0047314401
-0.19266055
-0.0058157086
-0.23082482
-0.007112571
-0.27659472
-0.0086604755
-0.33138298
-0.010524922
-0.39698021
-0.012777662
-0.4754154
-0.015524492
-0.56912678
-0.01889216
-0.68090214
-0.023063971
-0.81398556
-0.028274171
-0.97215258
-0.034796159
-1.1599072
-0.042929174
-1.3826764
-0.052974066
-1.6471678
-0.065218647
-1.961687
-0.079950769
-2.3364787
-0.097476218
-2.7840546
-0.11814613
-3.3195669
-0.14237657
-3.9614004
-0.17067282
-4.7318255
-0.20369123
-5.6577354
-0.24230755
-6.7707223
-0.28677613
-8.1113999
-0.33809506
-9.7287734
-0.39733929
-11.679824
-0.46511892
-14.034572
-0.54152395
-16.880446
-0.62609503
-20.325816
-0.71738536
-24.504
-0.81152949
-29.580529
-0.90317619
-35.760554
-0.98313238
-43.308332
-1.0364479
-52.558981
-1.0357772
-63.941388
-0.94591175
-78.013293
-95.4617
2.1641929e-06
-0.0080964495
-2.8578771e-06
-0.011369211
-1.140264e-07
-0.015032634
1.2054778e-05
-0.019534162
2.5606859e-05
-0.025247501
-8.1646487e-05
-0.031566354
-0.00025620071
-0.037589661
-0.00046740704
-0.045280097
-0.00071607726
-0.054040696
-0.0010199623
-0.064896935
-0.001374836
-0.07762468
-0.0018071123
-0.093092758
-0.002315977
-0.11146752
-0.0029327433
-0.13360498
-0.0036634745
-0.16004734
-0.0045401792
-0.19179784
-0.0055740492
-0.22980795
-0.0068142367
-0.27537498
-0.0083045168
-0.3299174
-0.010107128
-0.39520746
-0.012295469
-0.47326309
-0.014981786
-0.56648388
-0.018296399
-0.6776395
-0.022416999
-0.80992688
-0.027588169
-0.96705455
-0.034090978
-1.1534901
-0.042222736
-1.3746456
-0.052276318
-1.6372315
-0.064527137
-1.9495681
-0.079253415
-2.3218994
-0.096754474
-2.7667167
-0.11737826
-3.2991232
-0.14153987
-3.9374323
-0.16975435
-4.7038097
-0.20278508
-5.6249077
-0.24120173
-6.7325713
-0.28558013
-8.0674008
-0.33682549
-9.6780638
-0.39625056
-11.621146
-0.46424026
-13.9677
-0.54111119
-16.805192
-0.62652531
-20.242494
-0.71913696
-24.413885
-0.81561081
-29.486024
-0.91095675
-35.666712
-0.99642601
-43.223726
-1.0584241
-52.497899
-1.0703411
-63.927633
-0.99990674
-78.076902
-95.660543
5.5010634e-06
-0.0080913081
3.2730029e-06
-0.011368151
1.0243037e-05
-0.015041094
3.002311e-05
-0.019555636
4.2009071e-05
-0.025261869
-7.0460473e-05
-0.03145618
-0.00023767513
-0.03742504
-0.00044129687
-0.045079608
-0.00068015063
-0.053805569
-0.00097229835
-0.064609238
-0.0013128056
-0.077289541
-0.0017286578
-0.092683325
-0.0022177463
-0.11098621
-0.0028117485
-0.13302031
-0.0035121298
-0.15935806
-0.0043476123
-0.19097573
-0.0053383583
-0.22883337
-0.0065341555
-0.27419861
-0.0079738691
-0.32850099
-0.0097219832
-0.3934873
-0.011852007
-0.47116663
-0.014476477
-0.56389972
-0.017745382
-0.67441872
-0.021837586
-0.805892
-0.026989465
-0.96197033
-0.033495506
-1.1470635
-0.041650673
-1.3665842
-0.051736298
-1.6272553
-0.06401819
-1.9374094
-0.078763491
-2.3072917
-0.096266882
-2.7493662
-0.11687449
-3.2786847
-0.14100407
-3.9134845
-0.16918054
-4.6758189
-0.20223362
-5.5920511
-0.24053587
-6.6945363
-0.28486554
-8.0234549
-0.33628879
-9.6271807
-0.39593531
-11.562262
-0.46428974
-13.900483
-0.5417962
-16.729324
-0.62826015
-20.158147
-0.72251743
-24.322111
-0.82153196
-29.388894
-0.92100814
-35.568628
-1.012314
-43.133287
-1.0832122
-52.427973
-1.1083749
-63.899874
-1.057939
-78.120482
-95.830252
7.5666672e-06
-0.0080869807
6.9034966e-06
-0.011368453
1.6962092e-05
-0.015052456
4.3969097e-05
-0.019584209
5.167012e-05
-0.025271733
-6.7287054e-05
-0.03133933
-0.00022766054
-0.037267078
-0.00042359663
-0.044886619
-0.00065251455
-0.053580176
-0.00093250043
-0.064333473
-0.0012591925
-0.076967973
-0.0016592886
-0.092289313
-0.002129759
-0.11052312
-0.0026998504
-0.13245899
-0.0033676731
-0.15870092
-0.004168671
-0.19018727
-0.0051273331
-0.22789004
-0.0062859708
-0.2730585
-0.0076819551
-0.32712744
-0.0093805928
-0.39181569
-0.011459426
-0.4691204
-0.014031081
-0.56136726
-0.017257186
-0.67123953
-0.021332555
-0.8018725
-0.026491027
-0.95687775
-0.033024386
-1.1406073
-0.041226197
-1.3584734
-0.051369256
-1.617218
-0.063705003
-1.9251921
-0.07849458
-2.292634
-0.096026604
-2.7319805
-0.11664937
-3.2582235
-0.14078601
-3.8895208
-0.16896717
-4.6478117
-0.20207031
-5.5591422
-0.24035211
-6.6565243
-0.28472535
-7.9794679
-0.33647429
-9.5759783
-0.39643255
-11.503085
-0.46530077
-13.832771
-0.54362218
-16.652664
-0.6313354
-20.07257
-0.72754064
-24.228375
-0.829486
-29.288728
-0.93326844
-35.465961
-1.0307941
-43.036619
-1.1111007
-52.348616
-1.1499986
-63.857562
-1.120259
-78.143441
-95.970219
1.0498108e-05
-0.008084474
1.2177117e-05
-0.011370993
2.5849473e-05
-0.015067336
6.1715538e-05
-0.019621556
6.4760889e-05
-0.025276786
-5.8939997e-05
-0.031217557
-0.00021174971
-0.037116519
-0.00039965475
-0.044701495
-0.00061813577
-0.053365016
-0.00088769041
-0.064067917
-0.0012012929
-0.076659208
-0.0015862963
-0.091910072
-0.0020381945
-0.11007816
-0.0025833374
-0.13192219
-0.0032238743
-0.15807038
-0.003999167
-0.18942419
-0.004927576
-0.22697629
-0.0060492891
-0.27195428
-0.0074054809
-0.32579231
-0.0090610275
-0.3901854
-0.011097002
-0.4671148
-0.013630572
-0.55887006
-0.016823414
-0.66809015
-0.020895928
-0.7978516
-0.02608714
-0.95174743
-0.032671007
-1.1340948
-0.040945338
-1.3502835
-0.051168667
-1.6070929
-0.063582764
-1.9128883
-0.078440104
-2.2778998
-0.096028927
-2.7145286
-0.11669883
-3.2377049
-0.14088336
-3.8654972
-0.16917447
-4.6196813
-0.20229261
-5.52622
-0.24065084
-6.6184394
-0.28520471
-7.9353013
-0.33734521
-9.5243933
-0.39775337
-11.443479
-0.46729185
-13.764417
-0.54661067
-16.575024
-0.63579625
-19.985532
-0.73419497
-24.13241
-0.83954835
-29.185097
-0.94762137
-35.358919
-1.0520951
-42.932997
-1.1422479
-52.259075
-1.1953638
-63.800076
-1.1869105
-78.145293
-96.079719
1.233645e-05
-0.0080829793
1.5301592e-05
-0.011374905
3.1360449e-05
-0.015084606
7.5127887e-05
-0.019666845
7.1093099e-05
-0.025274662
-5.0681197e-05
-0.031097711
-0.00019753414
-0.036971846
-0.0003793081
-0.044522395
-0.00058938448
-0.053158108
-0.00084977002
-0.063811324
-0.0011518111
-0.076361772
-0.0015234318
-0.091543918
-0.0019564761
-0.10965176
-0.0024793853
-0.13140716
-0.0030987692
-0.15746066
-0.0038490535
-0.18868533
-0.0047474254
-0.22609183
-0.0058358472
-0.27088261
-0.0071561176
-0.32449229
-0.0087760969
-0.38858989
-0.010777837
-0.46514253
-0.013284808
-0.55639859
-0.016463107
-0.66495418
-0.020547317
-0.79381786
-0.025789378
-0.9465646
-0.032453064
-1.1275007
-0.040823083
-1.3419956
-0.051150533
-1.5968605
-0.063665527
-1.9004793
-0.078615543
-2.2630681
-0.096288525
-2.6969869
-0.11703894
-3.2170988
-0.14131171
-3.8413759
-0.16977745
-4.5913687
-0.20293958
-5.4932542
-0.24139973
-6.5802536
-0.28639407
-7.8906989
-0.33894405
-9.4724081
-0.39992668
-11.38332
-0.47030182
-13.69527
-0.55081158
-16.49621
-0.64169523
-19.896797
-0.74245162
-24.034008
-0.85149527
-29.0778
-0.96442536
-35.246981
-1.0762727
-42.821647
-1.1767263
-52.158836
-1.2446632
-63.726675
-1.2583151
-78.125341
-96.158099
1.4351506e-05
-0.0080825161
1.8703842e-05
-0.011380078
3.683274e-05
-0.015103816
8.8363819e-05
-0.019719839
7.5990445e-05
-0.025264069
-3.9517264e-05
-0.030984026
-0.00018123437
-0.036832153
-0.00035736209
-0.044348782
-0.00055968552
-0.052958772
-0.00081133666
-0.063563279
-0.0011022029
-0.076075273
-0.0014610619
-0.091190267
-0.0018775154
-0.10924161
-0.0023817391
-0.13091051
-0.0029807281
-0.15687073
-0.0037062673
-0.1879708
-0.0045774925
-0.22523388
-0.005636383
-0.26983958
-0.0069262682
-0.32322148
-0.0085115252
-0.38702755
-0.010483155
-0.46319839
-0.012975467
-0.55393927
-0.016167093
-0.66180177
-0.020283289
-0.78974832
-0.025593754
-0.94130877
-0.032366403
-1.1207924
-0.04085672
-1.3335813
-0.051310947
-1.5864946
-0.063949724
-1.8879394
-0.079016667
-2.2481118
-0.096802088
-2.679324
-0.11766372
-3.196371
-0.14205856
-3.8171208
-0.17070509
-4.5628708
-0.20400498
-5.4601521
-0.24270764
-6.5418241
-0.28820597
-7.8456003
-0.34127492
-9.4199147
-0.40298032
-11.32246
-0.47436137
-13.625135
-0.55625706
-16.416025
-0.64906732
-19.806128
-0.75231935
-23.932933
-0.86526519
-28.966565
-0.98383162
-35.129406
-1.1034759
-42.702279
-1.2146878
-52.047347
-1.2981284
-63.636454
-1.3345829
-78.082886
-96.204649
1.693669e-05
-0.0080837626
2.348844e-05
-0.011387341
4.4212591e-05
-0.015125538
0.00010391981
-0.019780955
8.3332984e-05
-0.025245076
-3.1421085e-05
-0.03087092
-0.00016742263
-0.036698074
-0.00033759855
-0.044181027
-0.00053207874
-0.052767156
-0.00077527617
-0.063323528
-0.0010558719
-0.075798869
-0.0014009345
-0.090850176
-0.0018022941
-0.10884631
-0.0022907021
-0.13042928
-0.002870839
-0.15629935
-0.003574225
-0.18727773
-0.0044218708
-0.22439885
-0.0054554383
-0.26882123
-0.0067159413
-0.32197941
-0.008268201
-0.38549752
-0.01021721
-0.46127618
-0.012709211
-0.55147949
-0.015931833
-0.65861751
-0.020111773
-0.78561401
-0.025520211
-0.93595369
-0.032420962
-1.1139544
-0.041054696
-1.3250215
-0.051658718
-1.5759758
-0.064443479
-1.8752499
-0.079647134
-2.2330149
-0.097568427
-2.6615197
-0.11857614
-3.175489
-0.14319242
-3.7926346
-0.17199475
-4.5342162
-0.20543196
-5.4269121
-0.24465957
-6.5028706
-0.29064772
-7.8000198
-0.34437381
-9.3667753
-0.40694331
-11.260753
-0.47949931
-13.553838
-0.56298575
-16.334265
-0.65795443
-19.713279
-0.7639708
-23.828826
-0.88091159
-28.851003
-1.005676
-35.005616
-1.1339876
-42.574207
-1.2562521
-51.924086
-1.3567628
-63.528672
-1.4159869
-78.017846
-96.21851
1.840139e-05
-0.0080857144
2.6363511e-05
-0.011395984
4.9144432e-05
-0.015149297
0.00011565594
-0.019848838
8.6216128e-05
-0.025217144
-2.7358787e-05
-0.030758945
-0.00015800726
-0.036569254
-0.00032266546
-0.044018685
-0.00051002032
-0.052582528
-0.00074562148
-0.063091218
-0.0010167637
-0.075531721
-0.0013499431
-0.090521736
-0.0017374461
-0.10846456
-0.0022110051
-0.1299626
-0.0027740737
-0.15574454
-0.0034581533
-0.18660364
-0.004285675
-0.22358339
-0.0052945633
-0.2678268
-0.0065259311
-0.32076544
-0.0080592213
-0.38398515
-0.010006496
-0.45935394
-0.012513324
-0.54900271
-0.015776971
-0.65538938
-0.020043329
-0.78138989
-0.025575149
-0.93047098
-0.032623093
-1.1069642
-0.041427279
-1.3162858
-0.052202523
-1.5652799
-0.065149653
-1.8623917
-0.080518082
-2.2177464
-0.098598592
-2.6435473
-0.11979825
-3.1544041
-0.14466421
-3.7678917
-0.17361834
-4.505408
-0.20743795
-5.3932877
-0.24718019
-6.4634059
-0.29375986
-7.7538568
-0.34826237
-9.3128715
-0.41185368
-11.198035
-0.48576147
-13.481196
-0.57104272
-16.250731
-0.66831267
-19.618075
-0.77771299
-23.721119
-0.89866541
-28.731329
-1.0297943
-34.875485
-1.168056
-42.436476
-1.3015302
-51.788624
-1.4194952
-63.403185
-1.5025343
-77.928931
-96.198766
2.0440908e-05
-0.0080891953
3.0283329e-05
-0.011406648
5.5825306e-05
-0.015175907
0.00012813927
-0.019922613
9.1123552e-05
-0.025181601
-1.8291359e-05
-0.030651141
-0.00014451929
-0.036444796
-0.00030470451
-0.043860755
-0.00048573429
-0.052404115
-0.00071412095
-0.062865998
-0.00097560729
-0.075274053
-0.0012986321
-0.090203258
-0.0016751647
-0.10809354
-0.0021348165
-0.12950954
-0.0026829519
-0.15520439
-0.0033496498
-0.18594638
-0.0041579051
-0.22278668
-0.0051429201
-0.26685571
-0.006356916
-0.31956835
-0.0078884546
-0.38247394
-0.0098476721
-0.45741927
-0.012386668
-0.54649306
-0.015710342
-0.65210067
-0.020076475
-0.77706504
-0.025746335
-0.9248492
-0.032970352
-1.0997967
-0.041970318
-1.3073524
-0.052932905
-1.5543947
-0.06607474
-1.8493367
-0.081645186
-2.2022716
-0.09993345
-2.6253611
-0.12137361
-3.1330719
-0.14644102
-3.7429431
-0.17564887
-4.4763436
-0.20999233
-5.3591389
-0.25028643
-6.4233932
-0.29756232
-7.7070066
-0.35296091
-9.2580838
-0.4177263
-11.134148
-0.49317219
-13.40704
-0.58047483
-16.165202
-0.6803381
-19.520198
-0.79343428
-23.609608
-0.91909
-28.606903
-1.0572159
-34.738275
-1.2047706
-42.289809
-1.3506559
-51.639451
-1.4865953
-63.259641
-1.5944585
-77.815181
-96.144365
2.0852687e-05
-0.0080923889
3.1475931e-05
-0.011417998
5.9116881e-05
-0.015204564
0.00013413466
-0.019998968
8.8682681e-05
-0.025137597
-1.8706319e-05
-0.030545264
-0.00014090444
-0.036324301
-0.00029697686
-0.043706835
-0.00047225632
-0.05223138
-0.00069491194
-0.06264636
-0.00094764815
-0.075025025
-0.001260104
-0.08989512
-0.0016263882
-0.1077326
-0.0020738255
-0.12906839
-0.0026089353
-0.15467689
-0.0032617889
-0.18530268
-0.0040512525
-0.2220083
-0.0050191068
-0.26590114
-0.0062289229
-0.31837457
-0.00776657
-0.38095547
-0.009747406
-0.45546145
-0.012334569
-0.54393326
-0.015742827
-0.64872488
-0.020228512
-0.77261748
-0.026060184
-0.91906183
-0.033485912
-1.0924233
-0.04269472
-1.2982057
-0.053858917
-1.5433032
-0.067237717
-1.8360383
-0.083025709
-2.186572
-0.10155897
-2.606922
-0.12321695
-3.1115147
-0.14852276
-3.7177517
-0.17821569
-4.4467911
-0.213065
-5.3244845
-0.25399477
-6.3827502
-0.30207763
-7.6593592
-0.35851513
-9.2022716
-0.42460791
-11.068949
-0.50177918
-13.331178
-0.59132666
-16.077459
-0.6940569
-19.419375
-0.8110878
-23.494108
-0.94207795
-28.477149
-1.087515
-34.593652
-1.2446553
-42.133549
-1.4037794
-51.47619
-1.5584719
-63.097416
-1.6920281
-77.675826
-96.054341
2.3049914e-05
-0.008097254
3.6189734e-05
-0.011431846
6.8566151e-05
-0.015237913
0.00014634604
-0.020078143
9.4966623e-05
-0.025087443
-9.788369e-06
-0.030441995
-0.00012747653
-0.036208166
-0.00027959818
-0.043556803
-0.00044958475
-0.052063765
-0.00066704941
-0.062431817
-0.00091292638
-0.074782665
-0.0012167314
-0.089595498
-0.001573512
-0.10738091
-0.0020104163
-0.12863753
-0.0025346524
-0.15415997
-0.003175235
-0.18467079
-0.0039520473
-0.22124211
-0.004912489
-0.26495358
-0.0061245949
-0.31717804
-0.0076747693
-0.37942407
-0.0096859141
-0.45347287
-0.012334324
-0.54131177
-0.015850565
-0.64524058
-0.020488593
-0.76801692
-0.026513629
-0.91308009
-0.034154894
-1.0848329
-0.043578646
-1.2888428
-0.055002924