/*--------------------------------*- C++ -*----------------------------------*\
  =========                 |
  \\      /  F ield         | OpenFOAM: The Open Source CFD Toolbox
   \\    /   O peration     | Website:  https://openfoam.org
    \\  /    A nd           | Version:  8
     \\/     M anipulation  |
\*---------------------------------------------------------------------------*/
FoamFile
{
    version     2.0;
    format      ascii;
    class       pointVectorField;
    location    "0.18001";
    object      pointDisplacement;
}
// * * * * * * * * * * * * * * * * * * * * * * * * * * * * * * * * * * * * * //

dimensions      [0 1 0 0 0 0 0];

internalField   nonuniform List<vector> 
40800
(
(-0.0026192578 0 -0.0020889352)
(-0.0026108362 0 -0.0017256787)
(-0.0026105163 0 -0.0017278296)
(-0.002619063 0 -0.0020990058)
(-0.0026104871 0 -0.0017284333)
(-0.002619039 0 -0.0020999399)
(-0.0026104223 0 -0.0017293409)
(-0.0026189771 0 -0.0021010178)
(-0.002610302 0 -0.0017304718)
(-0.0026188614 0 -0.0021023525)
(-0.0026101022 0 -0.0017318846)
(-0.0026186682 0 -0.0021040048)
(-0.0026097894 0 -0.0017336572)
(-0.0026183648 0 -0.00210606)
(-0.0026093178 0 -0.0017358925)
(-0.0026179061 0 -0.0021086301)
(-0.0026086248 0 -0.0017387275)
(-0.0026172308 0 -0.0021118626)
(-0.0026076253 0 -0.0017423462)
(-0.0026162553 0 -0.0021159538)
(-0.0026062051 0 -0.0017469974)
(-0.0026148671 0 -0.0021211658)
(-0.0026042114 0 -0.0017530192)
(-0.0026129158 0 -0.0021278505)
(-0.0026014413 0 -0.001760873)
(-0.0026102016 0 -0.0021364819)
(-0.0025976285 0 -0.0017711886)
(-0.0026064616 0 -0.0021477002)
(-0.0025924258 0 -0.0017848265)
(-0.0026013531 0 -0.0021623709)
(-0.0025853869 0 -0.0018029584)
(-0.0025944346 0 -0.0021816632)
(-0.0025759459 0 -0.0018271742)
(-0.0025851455 0 -0.0022071533)
(-0.0025633975 0 -0.0018596217)
(-0.0025727855 0 -0.0022409595)
(-0.0025468821 0 -0.0019031718)
(-0.0025564988 0 -0.0022858998)
(-0.0025253811 0 -0.0019616114)
(-0.0025352673 0 -0.0023456775)
(-0.0024977312 0 -0.0020398512)
(-0.0025079224 0 -0.0024250804)
(-0.0024626666 0 -0.0021441004)
(-0.0024731839 0 -0.0025301444)
(-0.0024189005 0 -0.0022819361)
(-0.0024297375 0 -0.0026682186)
(-0.0023652512 0 -0.0024621464)
(-0.0023763577 0 -0.0028478121)
(-0.0023008066 0 -0.0026941951)
(-0.0023120726 0 -0.0030780735)
(-0.0022251066 0 -0.002987167)
(-0.0022363508 0 -0.0033677598)
(-0.0021383032 0 -0.0033481885)
(-0.0021492743 0 -0.0037236848)
(-0.0020412559 0 -0.0037803712)
(-0.0020516534 0 -0.0041486669)
(-0.0019355141 0 -0.0042807731)
(-0.0019450267 0 -0.0046394965)
(-0.001823214 0 -0.0048388799)
(-0.0018315709 0 -0.0051854164)
(-0.0017068749 0 -0.0054364376)
(-0.0017138962 0 -0.0057679573)
(-0.001589146 0 -0.0060488975)
(-0.0015947726 0 -0.0063624502)
(-0.0014725861 0 -0.0066482197)
(-0.0014768822 0 -0.0069409488)
(-0.0013594664 0 -0.0072064821)
(-0.0013625945 0 -0.0074759126)
(-0.0012515621 0 -0.0076997765)
(-0.001253735 0 -0.0079441713)
(-0.0011500794 0 -0.0081104272)
(-0.0011515213 0 -0.0083289674)
(-0.0010556539 0 -0.008427461)
(-0.0010565673 0 -0.008620271)
(-0.00096837461 0 -0.0086461784)
(-0.00096892153 0 -0.0088142155)
(-0.00088790762 0 -0.0087657623)
(-0.00088820628 0 -0.0089105449)
(-0.00081358276 0 -0.0087870223)
(-0.00081371152 0 -0.0089103363)
(-0.00074455747 0 -0.0087112752)
(-0.00074456957 0 -0.0088150812)
(-0.00067980686 0 -0.008538146)
(-0.00067973373 0 -0.008624352)
(-0.00061799741 0 -0.0082623748)
(-0.00061783148 0 -0.0083325282)
(-0.00055803113 0 -0.0078773393)
(-0.00055779107 0 -0.0079330196)
(-0.00049890282 0 -0.0073740923)
(-0.00049863115 0 -0.0074169697)
(-0.00043842476 0 -0.0067322312)
(-0.00043810397 0 -0.0067635016)
(-0.00037438351 0 -0.0059271246)
(-0.00037405097 0 -0.0059484859)
(-0.00030350875 0 -0.0049191931)
(-0.00030316206 0 -0.0049320942)
(-0.00022148303 0 -0.0036502026)
(-0.00022118913 0 -0.0036567923)
(-0.00012259228 0 -0.0020357696)
(-0.00012249004 0 -0.0020389864)
(0 0 0)
(0 0 0)
(-0.0026012007 0 -0.0013702723)
(-0.0026008883 0 -0.0013723917)
(-0.0026008569 0 -0.0013728637)
(-0.0026007851 0 -0.0013734495)
(-0.0026006558 0 -0.0013741913)
(-0.0026004441 0 -0.0013751407)
(-0.0026001161 0 -0.0013763648)
(-0.0025996249 0 -0.0013779549)
(-0.0025989064 0 -0.0013800349)
(-0.0025978743 0 -0.0013827743)
(-0.0025964123 0 -0.0013864052)
(-0.002594365 0 -0.0013912462)
(-0.0025915266 0 -0.0013977361)
(-0.002587627 0 -0.0014064796)
(-0.0025823148 0 -0.0014183109)
(-0.002575139 0 -0.0014343773)
(-0.0025655283 0 -0.0014562515)
(-0.0025527725 0 -0.001486075)
(-0.0025360085 0 -0.001526732)
(-0.0025142171 0 -0.001582054)
(-0.00248624 0 -0.0016570359)
(-0.0024508251 0 -0.0017580263)
(-0.0024067127 0 -0.0018928054)
(-0.0023527635 0 -0.0020704326)
(-0.0022881248 0 -0.0023007039)
(-0.0022124069 0 -0.0025930872)
(-0.0021258324 0 -0.0029551156)
(-0.0020293119 0 -0.0033903324)
(-0.00192441 0 -0.0038962315)
(-0.0018132292 0 -0.0044627198)
(-0.0016982063 0 -0.0050719277)
(-0.0015818782 0 -0.0056995623)
(-0.0014666863 0 -0.0063175963)
(-0.0013548034 0 -0.0068978022)
(-0.0012479482 0 -0.0074155923)
(-0.001147308 0 -0.0078523601)
(-0.0010535283 0 -0.0081961453)
(-0.00096673205 0 -0.0084413002)
(-0.00088662296 0 -0.0085863)
(-0.00081256935 0 -0.00863153)
(-0.00074375367 0 -0.0085780113)
(-0.00067917155 0 -0.0084252665)
(-0.00061752785 0 -0.0081683142)
(-0.00055771244 0 -0.0078005392)
(-0.00049867825 0 -0.0073127689)
(-0.00043829578 0 -0.0066850351)
(-0.00037432457 0 -0.0058924218)
(-0.00030350031 0 -0.0048953423)
(-0.00022149151 0 -0.0036353934)
(-0.00012248041 0 -0.0020273409)
(0 0 0)
(-0.0025903784 0 -0.0010225528)
(-0.0025900728 0 -0.0010245222)
(-0.002590034 0 -0.0010247461)
(-0.002589953 0 -0.0010250373)
(-0.0025898119 0 -0.0010254308)
(-0.0025895854 0 -0.0010259654)
(-0.0025892386 0 -0.0010266956)
(-0.0025887234 0 -0.0010276975)
(-0.0025879745 0 -0.0010290786)
(-0.0025869035 0 -0.0010309898)
(-0.0025853919 0 -0.0010336431)
(-0.0025832816 0 -0.001037336)
(-0.0025803635 0 -0.0010424851)
(-0.0025763631 0 -0.001049673)
(-0.0025709246 0 -0.001059712)
(-0.0025635914 0 -0.0010737304)
(-0.0025537867 0 -0.0010932875)
(-0.0025407951 0 -0.0011205218)
(-0.0025237498 0 -0.0011583345)
(-0.0025016314 0 -0.0012106026)
(-0.0024732872 0 -0.0012824102)
(-0.0024374812 0 -0.0013802483)
(-0.0023929829 0 -0.001512102)
(-0.0023386999 0 -0.0016872981)
(-0.0022738431 0 -0.0019159516)
(-0.0021980983 0 -0.002207886)
(-0.0021117632 0 -0.0025709995)
(-0.002015802 0 -0.0030092114)
(-0.0019117954 0 -0.0035203899)
(-0.0018018111 0 -0.0040948123)
(-0.0016882006 0 -0.0047149672)
(-0.0015733852 0 -0.0053568269)
(-0.0014596836 0 -0.0059924276)
(-0.0013491653 0 -0.0065933217)
(-0.0012434858 0 -0.0071343475)
(-0.0011438074 0 -0.0075960639)
(-0.0010507824 0 -0.0079655878)
(-0.00096456462 0 -0.0082363617)
(-0.000884895 0 -0.0084061525)
(-0.0008111808 0 -0.0084748957)
(-0.00074263177 0 -0.0084432941)
(-0.00067826583 0 -0.0083107384)
(-0.00061682507 0 -0.0080724682)
(-0.00055719204 0 -0.0077218749)
(-0.00049828345 0 -0.0072495824)
(-0.00043802133 0 -0.0066360016)
(-0.00037414387 0 -0.0058559802)
(-0.00030339296 0 -0.00486993)
(-0.00022142565 0 -0.0036193282)
(-0.00012233656 0 -0.0020182876)
(0 0 0)
(-0.0025784101 0 -0.00068236035)
(-0.00257811 0 -0.0006841818)
(-0.0025780621 0 -0.00068416262)
(-0.0025779696 0 -0.00068416399)
(-0.002577814 0 -0.00068421132)
(-0.0025775692 0 -0.00068433338)
(-0.0025771992 0 -0.00068457282)
(-0.0025766548 0 -0.00068499232)
(-0.0025758691 0 -0.0006856837)
(-0.0025747518 0 -0.00068678001)
(-0.0025731818 0 -0.00068847337)
(-0.002570998 0 -0.0006910395)
(-0.0025679874 0 -0.00069487214)
(-0.0025638713 0 -0.00070053063)
(-0.0025582885 0 -0.00070880524)
(-0.0025507766 0 -0.00072080601)
(-0.0025407527 0 -0.00073808092)
(-0.0025274958 0 -0.00076276917)
(-0.0025101351 0 -0.00079779205)
(-0.0024876514 0 -0.0008470783)
(-0.0024588989 0 -0.00091580606)
(-0.0024226592 0 -0.0010106142)
(-0.0023777345 0 -0.0011396959)
(-0.0023230831 0 -0.0013126419)
(-0.0022579847 0 -0.0015398727)
(-0.0021822058 0 -0.0018315381)
(-0.0020961226 0 -0.0021958577)
(-0.0020007557 0 -0.0026370704)
(-0.0018977018 0 -0.0031533566)
(-0.0017889917 0 -0.0037353135)
(-0.0016768888 0 -0.0043657623)
(-0.0015636945 0 -0.0050209474)
(-0.0014516009 0 -0.0056730149)
(-0.0013425693 0 -0.0062933761)
(-0.0012381864 0 -0.0068563961)
(-0.0011395849 0 -0.0073418921)
(-0.0010474198 0 -0.0077361253)
(-0.00096187348 0 -0.00803167)
(-0.00088272339 0 -0.0082255907)
(-0.00080941604 0 -0.0083173518)
(-0.00074119033 0 -0.0083073183)
(-0.00067708814 0 -0.0081947209)
(-0.00061588794 0 -0.0079749678)
(-0.00055646905 0 -0.0076414524)
(-0.00049771738 0 -0.0071846146)
(-0.00043760077 0 -0.0065851955)
(-0.00037384098 0 -0.0058178481)
(-0.00030318656 0 -0.0048429926)
(-0.00022128562 0 -0.0036020321)
(-0.00012216019 0 -0.0020086135)
(0 0 0)
(-0.002565334 0 -0.00034953738)
(-0.0025650357 0 -0.00035121028)
(-0.0025649766 0 -0.00035094682)
(-0.0025648699 0 -0.0003506576)
(-0.0025646967 0 -0.00035035955)
(-0.0025644299 0 -0.0003500714)
(-0.0025640324 0 -0.00034982419)
(-0.0025634536 0 -0.00034966718)
(-0.0025626248 0 -0.0003496767)
(-0.0025614536 0 -0.00034996829)
(-0.0025598161 0 -0.00035071452)
(-0.0025575479 0 -0.00035216972)
(-0.0025544319 0 -0.00035470499)
(-0.0025501845 0 -0.0003588568)
(-0.0025444388 0 -0.00036539375)
(-0.002536726 0 -0.000375408)
(-0.0025264569 0 -0.00039043741)
(-0.0025129042 0 -0.00041262431)
(-0.0024951933 0 -0.00044491467)
(-0.0024723054 0 -0.00049129438)
(-0.0024431028 0 -0.00055704276)
(-0.002406387 0 -0.00064895344)
(-0.0023609961 0 -0.00077543182)
(-0.0023059436 0 -0.00094632999)
(-0.0022405828 0 -0.0011723596)
(-0.0021647654 0 -0.0014639665)
(-0.0020789502 0 -0.0018296482)
(-0.0019842155 0 -0.0022739059)
(-0.0018821731 0 -0.0027951718)
(-0.0017748143 0 -0.0033843135)
(-0.001664311 0 -0.0040244577)
(-0.0015528411 0 -0.0046921252)
(-0.0014424665 0 -0.0053596128)
(-0.0013350368 0 -0.0059982627)
(-0.0012320649 0 -0.0065820613)
(-0.0011346496 0 -0.0070901758)
(-0.0010434455 0 -0.0075080786)
(-0.00095866053 0 -0.0078275219)
(-0.00088010819 0 -0.0080448782)
(-0.00080727407 0 -0.0081591263)
(-0.00073942782 0 -0.0081702752)
(-0.00067563674 0 -0.0080773705)
(-0.00061471495 0 -0.0078759405)
(-0.00055554224 0 -0.0075593739)
(-0.00049697869 0 -0.0071179433)
(-0.00043703309 0 -0.0065326769)
(-0.00037341513 0 -0.0057780693)
(-0.00030288056 0 -0.0048145603)
(-0.00022107131 0 -0.0035835263)
(-0.00012195077 0 -0.0019983231)
(0 0 0)
(-0.0025511783 0 -2.3931012e-05)
(-0.0025508822 0 -2.5456381e-05)
(-0.0025508097 0 -2.494923e-05)
(-0.0025506865 0 -2.4370233e-05)
(-0.0025504926 0 -2.3728021e-05)
(-0.0025502002 0 -2.3031452e-05)
(-0.0025497709 0 -2.2300125e-05)
(-0.0025491525 0 -2.1570145e-05)
(-0.0025482743 0 -2.0902731e-05)
(-0.0025470416 0 -2.039625e-05)
(-0.0025453274 0 -2.0204123e-05)
(-0.0025429637 0 -2.055985e-05)
(-0.002539729 0 -2.1812415e-05)
(-0.0025353342 0 -2.4475894e-05)
(-0.0025294064 0 -2.9297871e-05)
(-0.0025214701 0 -3.7353585e-05)
(-0.0025109287 0 -5.0172121e-05)
(-0.0024970488 0 -6.9901524e-05)
(-0.0024789521 0 -9.9516849e-05)
(-0.0024556204 0 -0.00014306767)
(-0.0024259259 0 -0.00020594281)
(-0.0023886919 0 -0.00029509894)
(-0.0023427962 0 -0.0004191587)
(-0.0022873118 0 -0.00058823286)
(-0.0022216706 0 -0.00081330845)
(-0.0021458144 0 -0.0011050963)
(-0.0020602871 0 -0.0014723277)
(-0.0019662257 0 -0.0019197093)
(-0.0018652554 0 -0.0024458651)
(-0.0017593246 0 -0.0030418857)
(-0.0016505098 0 -0.003691176)
(-0.0015408628 0 -0.0043705357)
(-0.0014323119 0 -0.0050524477)
(-0.001326592 0 -0.0057082508)
(-0.0012251387 0 -0.0063116413)
(-0.0011290131 0 -0.0068412244)
(-0.0010388664 0 -0.007281752)
(-0.00095492945 0 -0.007624202)
(-0.00087705079 0 -0.0078642715)
(-0.00080475494 0 -0.0080004428)
(-0.00073734346 0 -0.0080323541)
(-0.00067391045 0 -0.0079588434)
(-0.00061330499 0 -0.0077755143)
(-0.0005544106 0 -0.0074757426)
(-0.00049606617 0 -0.0070496476)
(-0.00043631736 0 -0.0064785067)
(-0.00037286559 0 -0.0057366889)
(-0.00030247459 0 -0.0047846666)
(-0.00022078281 0 -0.0035638356)
(-0.00012170781 0 -0.001987422)
(0 0 0)
(-0.002535976 0 0.00029460789)
(-0.0025356816 0 0.00029322886)
(-0.0025355937 0 0.00029397815)
(-0.0025354515 0 0.00029484489)
(-0.0025352341 0 0.00029582899)
(-0.0025349125 0 0.00029693156)
(-0.0025344471 0 0.0002981445)
(-0.0025337837 0 0.00029944475)
(-0.0025328499 0 0.00030078588)
(-0.0025315479 0 0.00030208625)
(-0.0025297477 0 0.00030321103)
(-0.0025272772 0 0.00030394693)
(-0.0025239099 0 0.00030396639)
(-0.0025193513 0 0.00030277706)
(-0.0025132216 0 0.00029965149)
(-0.002505038 0 0.0002935303)
(-0.0024941965 0 0.00028289155)
(-0.0024799572 0 0.00026557872)
(-0.0024614379 0 0.00023858235)
(-0.0024376224 0 0.00019778107)
(-0.0024073936 0 0.00013766695)
(-0.0023696001 0 5.1111425e-05)
(-0.0023231626 0 -7.0731046e-05)
(-0.0022672182 0 -0.00023822687)
(-0.0022012823 0 -0.00046262083)
(-0.002125391 0 -0.00075485631)
(-0.002040176 0 -0.0011238534)
(-0.0019468325 0 -0.0015744676)
(-0.0018469968 0 -0.0021054566)
(-0.0017425704 0 -0.0027080885)
(-0.0016355308 0 -0.0033660202)
(-0.0015278 0 -0.0040563306)
(-0.001421171 0 -0.00475172)
(-0.0013172617 0 -0.0054235834)
(-0.0012174277 0 -0.0060454096)
(-0.0011226892 0 -0.0065953263)
(-0.0010336912 0 -0.0070574332)
(-0.00095068535 0 -0.0074219835)
(-0.00087355382 0 -0.0076840189)
(-0.00080185965 0 -0.0078415202)
(-0.00073493728 0 -0.0078937423)
(-0.00067190865 0 -0.0078392953)
(-0.00061165732 0 -0.0076738173)
(-0.00055307341 0 -0.0073906621)
(-0.00049497887 0 -0.0069798075)
(-0.00043545277 0 -0.0064227469)
(-0.0003721917 0 -0.0056937525)
(-0.00030196825 0 -0.0047533445)
(-0.00022042003 0 -0.0035429828)
(-0.00012143081 0 -0.0019759157)
(0 0 0)
(-0.002519762 0 0.00060622725)
(-0.0025194682 0 0.0006049937)
(-0.0025193628 0 0.00060598507)
(-0.0025191989 0 0.00060713936)
(-0.0025189548 0 0.000608465)
(-0.0025186002 0 0.00060997281)
(-0.002518094 0 0.00061166599)
(-0.0025173802 0 0.00061353434)
(-0.0025163838 0 0.00061554611)
(-0.0025150045 0 0.00061763605)
(-0.0025131084 0 0.00061968762)
(-0.0025105192 0 0.00062150756)
(-0.0025070052 0 0.0006227893)
(-0.0025022655 0 0.00062306157)
(-0.0024959133 0 0.00062161647)
(-0.0024874578 0 0.00061740946)
(-0.0024762873 0 0.00060892386)
(-0.002461655 0 0.00059399107)
(-0.0024426755 0 0.00056956031)
(-0.0024183354 0 0.00053142791)
(-0.0023875306 0 0.0004739557)
(-0.0023491369 0 0.00038983456)
(-0.0023021224 0 0.00026998998)
(-0.0022456931 0 0.00010380385)
(-0.0021794522 0 -0.00012020584)
(-0.0021035342 0 -0.00041318095)
(-0.0020186605 0 -0.00078418505)
(-0.0019260836 0 -0.001238166)
(-0.0018274474 0 -0.0017739594)
(-0.0017246018 0 -0.002382968)
(-0.0016194213 0 -0.0030490755)
(-0.0015136954 0 -0.0037496396)
(-0.00140908 0 -0.0044576053)
(-0.001307075 0 -0.0051444781)
(-0.001208954 0 -0.0057836162)
(-0.0011156937 0 -0.0063527494)
(-0.0010279307 0 -0.0068353928)
(-0.00094593495 0 -0.0072211262)
(-0.00086962112 0 -0.0075043599)
(-0.00079859013 0 -0.0076825715)
(-0.00073220997 0 -0.0077546237)
(-0.00066963126 0 -0.0077188802)
(-0.00060977159 0 -0.0075709773)
(-0.00055153018 0 -0.0073042363)
(-0.000493716 0 -0.0069085039)
(-0.00043443863 0 -0.0063654604)
(-0.00037139287 0 -0.0056493067)
(-0.00030136109 0 -0.0047206271)
(-0.00021998299 0 -0.0035209925)
(-0.00012111937 0 -0.0019638109)
(0 0 0)
(-0.0025025708 0 0.00091107065)
(-0.0025022747 0 0.00090998168)
(-0.0025021494 0 0.00091121499)
(-0.002501961 0 0.00091265691)
(-0.0025016868 0 0.00091432405)
(-0.0025012951 0 0.00091623672)
(-0.0025007432 0 0.00091840902)
(-0.0024999731 0 0.0009208435)
(-0.0024989072 0 0.00092352303)
(-0.002497442 0 0.00092639863)
(-0.00249544 0 0.00092937196)
(-0.0024927198 0 0.00093226953)
(-0.0024890442 0 0.00093480555)
(-0.0024841056 0 0.00093652952)
(-0.0024775093 0 0.00093675254)
(-0.0024687563 0 0.00093444413)
(-0.0024572265 0 0.00092809109)
(-0.0024421665 0 0.00091550823)
(-0.0024226881 0 0.00089359371)
(-0.0023977825 0 0.00085804746)
(-0.0023663601 0 0.00080308918)
(-0.0023273271 0 0.000721222)
(-0.0022797029 0 0.00060313632)
(-0.0022227671 0 0.00043796743)
(-0.0021562153 0 0.00021402072)
(-0.0020802844 0 -8.0008876e-05)
(-0.0019957864 0 -0.00045328311)
(-0.0019040291 0 -0.00091078621)
(-0.0018066595 0 -0.0014513786)
(-0.001705471 0 -0.0020665569)
(-0.0016022308 0 -0.0027404088)
(-0.0014985936 0 -0.0034505702)
(-0.0013960772 0 -0.0041702547)
(-0.0012960631 0 -0.004871127)
(-0.0011997417 0 -0.005526486)
(-0.0011080444 0 -0.0061137394)
(-0.0010215972 0 -0.0066158834)
(-0.00094068635 0 -0.0070218763)
(-0.00086525772 0 -0.007325524)
(-0.00079494932 0 -0.0075238033)
(-0.00072916299 0 -0.0076151785)
(-0.00066707878 0 -0.0075977505)
(-0.00060764785 0 -0.0074671213)
(-0.00054978072 0 -0.0072165692)
(-0.00049227698 0 -0.0068358183)
(-0.00043327437 0 -0.0063067106)
(-0.00037046856 0 -0.0056033989)
(-0.00030065274 0 -0.0046865487)
(-0.0002194716 0 -0.0034978884)
(-0.00012077304 0 -0.0019511149)
(0 0 0)
(-0.0024844294 0 0.0012092781)
(-0.0024841298 0 0.0012083328)
(-0.0024839825 0 0.0012098075)
(-0.0024837669 0 0.0012115363)
(-0.0024834593 0 0.001213544)
(-0.0024830266 0 0.0012158602)
(-0.0024824242 0 0.0012185101)
(-0.0024815921 0 0.0012215087)
(-0.0024804497 0 0.0012248534)
(-0.0024788901 0 0.0012285117)
(-0.0024767716 0 0.0012324031)
(-0.0024739078 0 0.0012363739)
(-0.0024700552 0 0.0012401589)
(-0.0024648989 0 0.0012433281)
(-0.0024580361 0 0.0012452116)
(-0.0024489587 0 0.0012447921)
(-0.0024370378 0 0.0012405588)
(-0.0024215137 0 0.0012303055)
(-0.002401497 0 0.0012108634)
(-0.0023759851 0 0.001177816)
(-0.0023439046 0 0.0011252308)
(-0.0023041948 0 0.0010454208)
(-0.0022559312 0 0.00092883355)
(-0.0021984717 0 0.00076436402)
(-0.0021316081 0 0.0005401357)
(-0.0020556835 0 0.00024471616)
(-0.001971601 0 -0.00013111007)
(-0.0018807205 0 -0.00059230781)
(-0.0017846873 0 -0.0011377112)
(-0.0016852321 0 -0.0017588753)
(-0.0015840109 0 -0.0024400698)
(-0.0014825414 0 -0.0031592091)
(-0.001382203 0 -0.0038897957)
(-0.001284259 0 -0.0046036977)
(-0.0011898166 0 -0.0052742206)
(-0.0010997605 0 -0.0058785208)
(-0.0010147045 0 -0.0063991401)
(-0.00093494901 0 -0.0068244661)
(-0.00086046978 0 -0.0071477304)
(-0.00079094102 0 -0.0073654153)
(-0.00072579853 0 -0.0074755822)
(-0.00066425225 0 -0.0074760563)
(-0.00060528653 0 -0.0073623753)
(-0.0005478251 0 -0.0071277645)
(-0.00049066146 0 -0.0067618326)
(-0.00043195954 0 -0.0062465617)
(-0.0003694183 0 -0.0055560775)
(-0.00029984293 0 -0.0046511452)
(-0.00021888585 0 -0.0034736957)
(-0.00012039139 0 -0.0019378344)
(0 0 0)
(-0.0024653642 0 0.0015009866)
(-0.002465063 0 0.0015001838)
(-0.0024648913 0 0.0015018985)
(-0.0024646459 0 0.0015039125)
(-0.0024643017 0 0.0015062586)
(-0.0024638241 0 0.0015089763)
(-0.0024631664 0 0.0015121017)
(-0.0024622662 0 0.0015156627)
(-0.0024610401 0 0.001519671)
(-0.0024593773 0 0.0015241102)
(-0.0024571315 0 0.0015289181)
(-0.0024541109 0 0.00153396)
(-0.0024500653 0 0.0015389915)
(-0.0024446718 0 0.0015436032)
(-0.0024375187 0 0.0015471439)
(-0.0024280884 0 0.0015486106)
(-0.0024157428 0 0.0015464943)
(-0.0023997161 0 0.0015385659)
(-0.0023791208 0 0.0015215599)
(-0.0023529629 0 0.001490912)
(-0.0023201858 0 0.001440539)
(-0.0022797636 0 0.0013625711)
(-0.0022308343 0 0.0012471993)
(-0.0021728386 0 0.0010830839)
(-0.0021056678 0 0.00085820765)
(-0.0020297747 0 0.00056104512)
(-0.0019461535 0 0.00018237025)
(-0.0018562117 0 -0.00028270699)
(-0.0017615866 0 -0.00083294684)
(-0.0016639409 0 -0.0014599305)
(-0.0015648146 0 -0.0021480913)
(-0.0014655872 0 -0.002875622)
(-0.0013674993 0 -0.0036163324)
(-0.0012716976 0 -0.0043423334)
(-0.0011792066 0 -0.0050269978)
(-0.0010908633 0 -0.0056472964)
(-0.0010072679 0 -0.0061853785)
(-0.00092873371 0 -0.0066291126)
(-0.0008552646 0 -0.0069711871)
(-0.00078656993 0 -0.007207599)
(-0.00072211947 0 -0.0073360056)
(-0.0006611533 0 -0.0073539448)
(-0.00060268847 0 -0.0072568639)
(-0.00054566369 0 -0.0070379255)
(-0.00048886929 0 -0.0066866292)
(-0.00043049384 0 -0.0061850786)
(-0.00036824171 0 -0.0055073914)
(-0.00029893133 0 -0.0046144522)
(-0.00021822567 0 -0.0034484395)
(-0.00011997413 0 -0.0019239792)
(0 0 0)
(-0.0024454133 0 0.0017863317)
(-0.002445104 0 0.0017856701)
(-0.0024449057 0 0.0017876246)
(-0.0024446276 0 0.0017899231)
(-0.0024442433 0 0.0017926069)
(-0.0024437165 0 0.0017957251)
(-0.0024429984 0 0.0017993249)
(-0.0024420239 0 0.0018034469)
(-0.0024407064 0 0.0018081172)
(-0.0024389311 0 0.0018133358)
(-0.0024365469 0 0.0018190583)
(-0.0024333556 0 0.0018251696)
(-0.0024291001 0 0.001831446)
(-0.0024234489 0 0.0018374992)
(-0.0024159804 0 0.0018426978)
(-0.0024061667 0 0.0018460538)
(-0.00239336 0 0.0018460646)
(-0.0023767888 0 0.0018404891)
(-0.0023555747 0 0.001825893)
(-0.0023287346 0 0.0017975146)
(-0.0022952244 0 0.0017491634)
(-0.0022540566 0 0.0016728046)
(-0.0022044394 0 0.0015583416)
(-0.0021459006 0 0.001394205)
(-0.0020784328 0 0.0011682951)
(-0.0020026028 0 0.00086902232)
(-0.0019194946 0 0.00048719056)
(-0.0018305578 0 1.8040817e-05)
(-0.0017374151 0 -0.00053706943)
(-0.0016416546 0 -0.00116972)
(-0.0015446965 0 -0.0018644917)
(-0.0014477802 0 -0.0025998571)
(-0.0013520092 0 -0.0033499488)
(-0.0012584148 0 -0.0040871554)
(-0.0011679403 0 -0.0047849736)
(-0.0010813748 0 -0.0054202491)
(-0.00099930405 0 -0.005974797)
(-0.00092205228 0 -0.0064360182)
(-0.00084965031 0 -0.0067960908)
(-0.00078184153 0 -0.0070505376)
(-0.00071812932 0 -0.0071966136)
(-0.000657784 0 -0.0072315596)
(-0.00059985487 0 -0.0071507094)
(-0.0005432971 0 -0.0069471545)
(-0.00048690052 0 -0.0066102903)
(-0.00042887707 0 -0.0061223264)
(-0.00036693851 0 -0.0054573905)
(-0.00029791775 0 -0.004576507)
(-0.00021749102 0 -0.0034221456)
(-0.00011952084 0 -0.0019095572)
(0 0 0)
(-0.0024245934 0 0.0020654438)
(-0.0024242802 0 0.0020649215)
(-0.0024240529 0 0.0020671139)
(-0.0024237393 0 0.0020696955)
(-0.0024233114 0 0.0020727163)
(-0.0024227311 0 0.0020762349)
(-0.0024219474 0 0.0020803094)
(-0.0024208922 0 0.002084993)
(-0.0024194755 0 0.0020903259)
(-0.0024175781 0 0.0020963239)
(-0.0024150436 0 0.0021029607)
(-0.0024116674 0 0.0021101408)
(-0.0024071843 0 0.0021176616)
(-0.0024012536 0 0.0021251571)
(-0.0023934431 0 0.0021320166)
(-0.0023832133 0 0.0021372702)
(-0.002369906 0 0.0021394201)
(-0.0023527593 0 0.0021360763)
(-0.0023309062 0 0.0021236538)
(-0.0023033567 0 0.0020973319)
(-0.0022690789 0 0.0020507919)
(-0.002227132 0 0.001975834)
(-0.0021767909 0 0.0018621665)
(-0.0021176917 0 0.0016977933)
(-0.002049943 0 0.0014704483)
(-0.0019742142 0 0.0011686882)
(-0.0018916772 0 0.00078338392)
(-0.0018038162 0 0.00030996517)
(-0.0017122322 0 -0.00025005339)
(-0.0016184323 0 -0.00088822732)
(-0.0015237123 0 -0.0015892721)
(-0.0014291714 0 -0.0023319418)
(-0.0013357769 0 -0.0030907057)
(-0.0012444478 0 -0.003838261)
(-0.0011560479 0 -0.0045482801)
(-0.0010713188 0 -0.005197539)
(-0.00099083063 0 -0.0057675745)
(-0.00091491769 0 -0.0062453693)
(-0.00084363616 0 -0.0066226254)
(-0.00077676213 0 -0.0068944054)
(-0.00071383229 0 -0.0070575648)
(-0.000654147 0 -0.0071090403)
(-0.00059678735 0 -0.0070440322)
(-0.00054072623 0 -0.0068555529)
(-0.00048475543 0 -0.0065328983)
(-0.0004271092 0 -0.006058371)
(-0.00036550847 0 -0.0054061254)
(-0.00029680192 0 -0.0045373465)
(-0.00021668189 0 -0.0033948409)
(-0.00011903117 0 -0.0018945779)
(0 0 0)
(-0.0024029411 0 0.0023384527)
(-0.0024026201 0 0.0023380729)
(-0.002402361 0 0.0023405076)
(-0.0024020083 0 0.0023433765)
(-0.0024015328 0 0.0023467372)
(-0.0024008944 0 0.0023506575)
(-0.0024000394 0 0.0023552065)
(-0.0023988969 0 0.0023604498)
(-0.0023973729 0 0.0023664423)
(-0.0023953436 0 0.0023732163)
(-0.0023926467 0 0.0023807637)
(-0.0023890705 0 0.0023890094)
(-0.0023843414 0 0.0023977729)
(-0.0023781082 0 0.0024067115)
(-0.0023699271 0 0.0024152388)
(-0.0023592462 0 0.0024224021)
(-0.0023454157 0 0.0024265679)
(-0.0023276925 0 0.0024251)
(-0.002305188 0 0.0024144795)
(-0.0022768953 0 0.0023899621)
(-0.0022418112 0 0.0023450318)
(-0.0021990453 0 0.0022712787)
(-0.00214794 0 0.0021583402)
(-0.0020882562 0 0.0019937246)
(-0.0020202395 0 0.0017647072)
(-0.0019446571 0 0.0014600766)
(-0.0018627559 0 0.0010709795)
(-0.0017760458 0 0.00059309589)
(-0.0016860985 0 2.8131463e-05)
(-0.0015943335 0 -0.00061542771)
(-0.0015019186 0 -0.001322421)
(-0.0014098121 0 -0.0020718883)
(-0.0013188476 0 -0.0028386462)
(-0.0012298347 0 -0.0035957282)
(-0.0011435606 0 -0.0043170299)
(-0.0010607195 0 -0.0049793078)
(-0.0009818663 0 -0.0055638728)
(-0.00090734378 0 -0.0060573378)
(-0.00083723204 0 -0.0064509636)
(-0.00077133873 0 -0.0067393674)
(-0.00070923309 0 -0.0069190116)
(-0.00065024537 0 -0.0069865227)
(-0.00059348783 0 -0.00693695)
(-0.00053795225 0 -0.0067632204)
(-0.00048243448 0 -0.0064545349)
(-0.00042519033 0 -0.0059932782)
(-0.00036395148 0 -0.0053536472)
(-0.00029558376 0 -0.00449701)
(-0.00021579825 0 -0.0033665521)
(-0.00011850488 0 -0.0018790521)
(0 0 0)
(-0.002380484 0 0.0026054839)
(-0.0023801514 0 0.0026052436)
(-0.002379858 0 0.002607918)
(-0.0023794633 0 0.0026110716)
(-0.0023789365 0 0.0026147702)
(-0.0023782351 0 0.0026190911)
(-0.0023773031 0 0.0026241141)
(-0.0023760661 0 0.0026299173)
(-0.002374426 0 0.0026365698)
(-0.0023722541 0 0.0026441201)
(-0.0023693818 0 0.0026525783)
(-0.0023655897 0 0.00266189)
(-0.0023605946 0 0.0026718975)
(-0.0023540341 0 0.0026822849)
(-0.0023454514 0 0.0026924928)
(-0.0023342997 0 0.0027014724)
(-0.0023199496 0 0.0027073633)
(-0.0023016352 0 0.0027075577)
(-0.0022784332 0 0.0026986469)
(-0.0022493492 0 0.0026757858)
(-0.0022134147 0 0.0026322876)
(-0.0021697928 0 0.0025595028)
(-0.0021179127 0 0.0024468838)
(-0.0020576335 0 0.0022818769)
(-0.0019893586 0 0.0020511099)
(-0.0019139815 0 0.0017432175)
(-0.0018327872 0 0.0013500066)
(-0.0017473071 0 0.00086746759)
(-0.001659076 0 0.00029752445)
(-0.0015694192 0 -0.00035128337)
(-0.0014793725 0 -0.0010639115)
(-0.0013897543 0 -0.0018196903)
(-0.0013012667 0 -0.0025937932)
(-0.001214614 0 -0.003359613)
(-0.0011305099 0 -0.0040913139)
(-0.0010496023 0 -0.0047656765)
(-0.00097243062 0 -0.0053638349)
(-0.00089934516 0 -0.0058720797)
(-0.0008304487 0 -0.0062812649)
(-0.00076557896 0 -0.0065855793)
(-0.00070433708 0 -0.0067810993)
(-0.00064608266 0 -0.0068641377)
(-0.00058995862 0 -0.0068295778)
(-0.00053497657 0 -0.0066702558)
(-0.00047993834 0 -0.0063752818)
(-0.00042312068 0 -0.0059271142)
(-0.00036226751 0 -0.0053000081)
(-0.00029426313 0 -0.0044555359)
(-0.0002148401 0 -0.0033373069)
(-0.00011794159 0 -0.0018629897)
(0 0 0)
(-0.0023572383 0 0.0028666605)
(-0.0023568968 0 0.0028665588)
(-0.0023565664 0 0.0028694724)
(-0.0023561267 0 0.00287291)
(-0.0023555446 0 0.0028769456)
(-0.0023547757 0 0.0028816657)
(-0.0023537609 0 0.0028871612)
(-0.0023524224 0 0.0028935225)
(-0.0023506578 0 0.0029008329)
(-0.0023483327 0 0.0029091572)
(-0.0023452718 0 0.0029185234)
(-0.0023412474 0 0.0029288978)
(-0.0023359659 0 0.0029401469)
(-0.0023290521 0 0.0029519862)
(-0.002320049 0 0.0029638088)
(-0.0023084285 0 0.002974378)
(-0.0022935436 0 0.0029818356)
(-0.0022745853 0 0.0029837288)
(-0.0022506296 0 0.0029765459)
(-0.002220706 0 0.0029552573)
(-0.0021838783 0 0.0029130261)
(-0.002139372 0 0.002840953)
(-0.0020867136 0 0.0027281849)
(-0.0020258567 0 0.0025622939)
(-0.0019573557 0 0.0023295401)
(-0.0018822403 0 0.0020181395)
(-0.0018018301 0 0.0016204947)
(-0.0017176625 0 0.00113312)
(-0.0016312279 0 0.00055817422)
(-0.001543751 0 -9.5744228e-05)
(-0.001456132 0 -0.00081370091)
(-0.0013690505 0 -0.001575324)
(-0.0012830803 0 -0.0023561501)
(-0.0011988248 0 -0.0031299513)
(-0.0011169283 0 -0.003871202)
(-0.0010379932 0 -0.0045567457)
(-0.00096254377 0 -0.005167586)
(-0.00089093724 0 -0.0056897353)
(-0.00082329757 0 -0.0061136761)
(-0.00075949111 0 -0.0064331863)
(-0.00069915008 0 -0.0066439661)
(-0.00064166287 0 -0.0067420113)
(-0.00058620236 0 -0.0067220272)
(-0.00053180088 0 -0.0065767557)
(-0.00047726789 0 -0.0062952199)
(-0.00042090064 0 -0.0058599455)
(-0.00036045662 0 -0.0052452606)
(-0.00029283998 0 -0.0044129644)
(-0.00021380743 0 -0.0033071336)
(-0.00011734113 0 -0.0018464033)
(0 0 0)
(-0.0023332357 0 0.0031221028)
(-0.0023328803 0 0.0031221388)
(-0.0023325103 0 0.0031252913)
(-0.0023320221 0 0.0031290125)
(-0.0023313809 0 0.0031333844)
(-0.0023305396 0 0.0031385028)
(-0.0023294363 0 0.0031444691)
(-0.0023279891 0 0.0031513864)
(-0.0023260911 0 0.0031593517)
(-0.0023236021 0 0.0031684453)
(-0.0023203395 0 0.0031787126)
(-0.0023160667 0 0.0031901383)
(-0.002310479 0 0.0032026079)
(-0.0023031934 0 0.0032158546)
(-0.0022937662 0 0.0032291442)
(-0.0022816632 0 0.0032411822)
(-0.0022661968 0 0.0032502458)
(-0.0022465438 0 0.0032538436)
(-0.0022217899 0 0.0032483101)
(-0.0021909806 0 0.003228485)
(-0.0021532185 0 0.0031873545)
(-0.0021078031 0 0.0031157328)
(-0.0020543612 0 0.003002465)
(-0.0019929721 0 0.0028350137)
(-0.0019242906 0 0.0025998707)
(-0.0018494829 0 0.0022848636)
(-0.0017699451 0 0.0018824724)
(-0.0016871754 0 0.001390097)
(-0.0016026183 0 0.00081013703)
(-0.0015173909 0 0.0001512501)
(-0.0014322549 0 -0.0005717344)
(-0.0013477528 0 -0.0013387508)
(-0.0012643341 0 -0.0021257039)
(-0.0011825062 0 -0.0029067608)
(-0.0011028482 0 -0.0036567461)
(-0.0010259184 0 -0.0043525989)
(-0.00095222646 0 -0.0049752344)
(-0.00088213591 0 -0.0055104299)
(-0.00081579056 0 -0.0059483316)
(-0.00075308392 0 -0.0062823242)
(-0.0006936784 0 -0.0065077423)
(-0.00063699035 0 -0.0066202644)
(-0.000582222 0 -0.0066144065)
(-0.00052842709 0 -0.0064828148)
(-0.00047442421 0 -0.0062144295)
(-0.00041853071 0 -0.0057918387)
(-0.000358519 0 -0.0051894579)
(-0.00029131437 0 -0.004369337)
(-0.00021270026 0 -0.003276061)
(-0.00011670312 0 -0.001829303)
(0 0 0)
(-0.0023084929 0 0.0033719279)
(-0.0023081252 0 0.0033721013)
(-0.0023077129 0 0.0033754925)
(-0.0023071729 0 0.0033794969)
(-0.0023064685 0 0.0033842043)
(-0.00230555 0 0.0033897201)
(-0.002304352 0 0.003396156)
(-0.0023027889 0 0.0034036272)
(-0.0023007486 0 0.0034122446)
(-0.0022980846 0 0.0034221036)
(-0.0022946067 0 0.0034332666)
(-0.002290069 0 0.0034457364)
(-0.0022841553 0 0.0034594189)
(-0.0022764869 0 0.0034739813)