/*--------------------------------*- C++ -*----------------------------------*\
  =========                 |
  \\      /  F ield         | OpenFOAM: The Open Source CFD Toolbox
   \\    /   O peration     | Website:  https://openfoam.org
    \\  /    A nd           | Version:  8
     \\/     M anipulation  |
\*---------------------------------------------------------------------------*/
FoamFile
{
    version     2.0;
    format      ascii;
    class       volScalarField;
    location    "0.18001";
    object      rho;
}
// * * * * * * * * * * * * * * * * * * * * * * * * * * * * * * * * * * * * * //

dimensions      [1 -3 0 0 0 0 0];

internalField   nonuniform List<scalar> 
20000
(
0.96006268
0.96072479
0.96252615
0.96661034
0.97516125
0.99260039
1.0092262
1.0123244
1.0113386
1.0125701
1.0124492
1.0137671
1.0143523
1.0160257
1.0173522
1.0196265
1.0218587
1.0250001
1.0283753
1.0326545
1.0374535
1.0432516
1.0500135
1.0580172
1.0667824
1.0764771
1.08674
1.0974475
1.1081525
1.1184594
1.1280007
1.1365261
1.1438857
1.1500702
1.1551088
1.1590514
1.1620126
1.1644878
1.1661002
1.1668248
1.1669853
1.1666852
1.1660175
1.1650724
1.1636491
1.1624521
1.1619816
1.1618725
1.1618251
1.1650704
0.95727827
0.95802892
0.95991779
0.96419849
0.97312514
0.99163997
1.0070139
1.0099207
1.0090169
1.010343
1.0102747
1.011666
1.0122936
1.0140335
1.0154151
1.0177664
1.0200694
1.0232883
1.0267497
1.0311381
1.0361241
1.0422224
1.0493868
1.0576988
1.0667674
1.0766234
1.0871597
1.098041
1.1088653
1.1192118
1.1287217
1.1371601
1.1444058
1.150473
1.1554066
1.1592487
1.1621817
1.1646448
1.1661293
1.1667785
1.1669448
1.1666092
1.1659337
1.1649485
1.163468
1.16245
1.1619688
1.1618802
1.1618
1.165068
0.95543862
0.95622854
0.95825934
0.962802
0.97220111
0.9918588
1.0054891
1.0080216
1.0070834
1.0084268
1.0083555
1.0097833
1.0104364
1.0122302
1.0136591
1.0160733
1.0184333
1.0217242
1.0253039
1.0298777
1.0351977
1.0417494
1.0492078
1.0576877
1.0668777
1.0770223
1.0877824
1.0988523
1.1097782
1.1201415
1.1295926
1.1379156
1.1450195
1.1509443
1.155747
1.159469
1.1623906
1.1648019
1.1661601
1.1667018
1.1668361
1.166497
1.1658075
1.1647617
1.1632316
1.1623102
1.1619313
1.1618016
1.1618732
1.1650754
0.95354557
0.95438134
0.95653495
0.96133896
0.97121614
0.99190009
1.003874
1.0061903
1.0052725
1.0066718
1.0066277
1.0081112
1.0088031
1.0106573
1.0121315
1.0146046
1.01704
1.0204469
1.0242366
1.0291855
1.0348493
1.041589
1.0491729
1.0577647
1.0673127
1.0777284
1.0887372
1.0999713
1.1109735
1.1213204
1.1306771
1.138851
1.1457831
1.1515396
1.1561843
1.1597726
1.1626839
1.1649765
1.166211
1.1666845
1.1667892
1.1663961
1.1656916
1.1645633
1.1630897
1.1622439
1.1618698
1.1617803
1.1619311
1.1650816
0.95201261
0.95290704
0.95520189
0.96029765
0.9707103
0.99230076
1.0025443
1.0047023
1.0037811
1.0052181
1.0051795
1.0067002
1.0074292
1.0093426
1.0108707
1.013423
1.0160016
1.0196817
1.0237737
1.0289225
1.0347436
1.0415827
1.049333
1.0582274
1.068051
1.0787527
1.089987
1.1013687
1.1124176
1.1227133
1.1319396
1.139931
1.1466623
1.1522251
1.1566865
1.1601283
1.1630213
1.1651668
1.1662754
1.1666722
1.166719
1.1662916
1.165562
1.1643571
1.162956
1.1621618
1.1618142
1.1617183
1.1620234
1.1650909
0.9507909
0.95172792
0.95415176
0.95955002
0.97055764
0.9928448
1.0014505
1.0034879
1.0025582
1.0040416
1.0040141
1.0055749
1.0063601
1.0083406
1.0099712
1.0127341
1.0155374
1.0193887
1.0236076
1.0288685
1.0347626
1.0418082
1.0498378
1.059002
1.0691402
1.0801141
1.0915629
1.1030639
1.1141249
1.1243306
1.133388
1.1411625
1.1476639
1.1530078
1.1572625
1.1605513
1.1634043
1.1653738
1.1663485
1.1666702
1.166671
1.1662019
1.1654289
1.1641575
1.1628446
1.162096
1.1617596
1.1616659
1.162131
1.1651108
0.94989173
0.95086893
0.95342094
0.95913652
0.97082595
0.9934863
1.0006167
1.0025857
1.0016128
1.0031795
1.0031692
1.0048585
1.0057008
1.0078219
1.0095931
1.0124694
1.0153674
1.0193161
1.0235967
1.028945
1.0350816
1.0423763
1.0506805
1.0601503
1.0705832
1.0818218
1.0934614
1.1050506
1.1160848
1.1261591
1.1350082
1.1425315
1.1487749
1.1538752
1.1579032
1.1610436
1.1638145
1.1655918
1.1664247
1.1666749
1.1666148
1.1661178
1.1652889
1.1639612
1.1627334
1.1620301
1.1617116
1.1616188
1.1622629
1.1651419
0.94923212
0.9502536
0.95293076
0.9589757
0.97145639
0.99429653
1.000005
1.0019559
1.0010698
1.0026696
1.0028157
1.0045529
1.0054261
1.0076244
1.0094608
1.0124052
1.0153488
1.0193485
1.023802
1.0293715
1.0357275
1.0432863
1.051889
1.06166
1.0723916
1.0838791
1.0956845
1.1073255
1.1182906
1.1281902
1.1367911
1.1440297
1.1499883
1.1548205
1.1586059
1.1616152
1.1642396
1.1658164
1.1665074
1.1667001
1.1665756
1.1660245
1.1651442
1.1637677
1.1626242
1.1619685
1.1616727
1.1615846
1.1624165
1.1651861
0.94895062
0.95000891
0.95281279
0.95919619
0.97258766
0.99534778
0.99977109
1.0017175
1.0008391
1.0025303
1.0026153
1.0044399
1.0053481
1.0075868
1.0094556
1.0124625
1.0155357
1.0197114
1.02434
1.030111
1.0367246
1.0445611
1.0534674
1.063548
1.074569
1.0862878
1.0982281
1.1098802
1.1207306
1.1304109
1.1387238
1.1456456
1.1512936
1.1558337
1.1593642
1.1622563
1.1646754
1.1660463
1.1665946
1.1667417
1.1665373
1.1659261
1.1649939
1.1635785
1.1625127
1.1619078
1.1616438
1.1615704
1.1625927
1.165243
0.94890295
0.95001917
0.95294995
0.95967307
0.97409307
0.99650523
0.99962754
1.001595
1.0007399
1.0024125
1.0025604
1.0044033
1.0053896
1.0077225
1.0096966
1.0128346
1.0160404
1.0203683
1.0251975
1.0311982
1.0380738
1.046199
1.0554188
1.0658085
1.0771116
1.0890398
1.1010807
1.1127
1.1233886
1.1328046
1.1407911
1.1473659
1.1526789
1.1569048
1.1601736
1.1629506
1.1651216
1.1662812
1.166692
1.1667954
1.1664957
1.1658263
1.1648385
1.1633996
1.1624032
1.1618512
1.1616215
1.1615683
1.1627866
1.1653113
0.94904437
0.95020428
0.95326044
0.9603046
0.97586454
0.99765755
0.99970625
1.0017379
1.0008618
1.0026264
1.0027608
1.0046765
1.0057492
1.0081668
1.0102324
1.0134879
1.0168442
1.0213504
1.0263904
1.0326276
1.039782
1.0482068
1.0577458
1.0684449
1.0800175
1.0921296
1.1042321
1.1157715
1.1262491
1.1353558
1.1429784
1.1491775
1.1541322
1.1580245
1.1610338
1.1636811
1.1655717
1.1665198
1.1668121
1.1668522
1.1664501
1.1657213
1.1646777
1.1632376
1.1623008
1.1617988
1.1616038
1.161571
1.1630002
1.1653886
0.94939611
0.95063572
0.95383631
0.96119858
0.97800491
0.99897162
1.0000086
1.0021324
1.0012884
1.0031303
1.0032567
1.0052425
1.0063636
1.008876
1.0110508
1.014442
1.0179586
1.0226485
1.027913
1.0344012
1.0418444
1.050578
1.0604415
1.0714465
1.0832738
1.0955404
1.1076625
1.1190728
1.1292901
1.1380437
1.1452674
1.1510644
1.1556387
1.1591841
1.1619495
1.1644268
1.1660192
1.1667535
1.1669575
1.1669059
1.166409
1.1656116
1.1645116
1.1630967
1.1622108
1.1617504
1.1615922
1.1615757
1.1632337
1.1654723
0.95006614
0.95136872
0.95472171
0.96239366
0.98048391
1.0003735
1.0005464
1.0026955
1.0019271
1.0037762
1.0039932
1.0060491
1.007246
1.0098629
1.0121554
1.015688
1.0193777
1.0242646
1.0297668
1.0365174
1.044262
1.0533135
1.0635048
1.0748104
1.0868734
1.0992606
1.1113563
1.1225858
1.1324928
1.1408502
1.1476415
1.1530115
1.1571851
1.1603774
1.162926
1.165165
1.1664599
1.1669985
1.167123
1.1669618
1.1663691
1.1654961
1.1643408
1.1629758
1.162139
1.1617129
1.1615874
1.161613
1.1634753
1.1655614
0.95091082
0.95230491
0.95584349
0.96383656
0.9832162
1.0018289
1.0013223
1.0035303
1.0027816
1.0047019
1.0049683
1.0071121
1.0083924
1.011122
1.0135422
1.0172276
1.0211007
1.0261945
1.0319452
1.0389696
1.0470257
1.0564027
1.0669239
1.0785214
1.0907978
1.1032678
1.1152883
1.1262844
1.135832
1.1437521
1.1500804
1.155001
1.1587575
1.1616003
1.1639501
1.1658828
1.1668905
1.1672555
1.1673
1.1670185
1.1663258
1.1653748
1.1641673
1.1628717
1.1620862
1.1616938
1.1615837
1.1616844
1.1637239
1.1656542
0.95201101
0.95350432
0.9572547
0.96558945
0.98620785
1.0033869
1.0023378
1.0046099
1.0038763
1.0058419
1.006201
1.0084336
1.0098049
1.0126536
1.0152107
1.0190551
1.0231224
1.0284333
1.0344448
1.0417548
1.0501333
1.0598434
1.0706945
1.0825728
1.0950353
1.1075462
1.1194393
1.1301477
1.1392861
1.1467292
1.1525663
1.1570174
1.1603462
1.1628533
1.1649913
1.1665772
1.1673085
1.1675392
1.167478
1.1670783
1.1662795
1.1652478
1.1639973
1.1627818
1.1620469
1.161686
1.1615831
1.1617923
1.1639762
1.1657492
0.95334069
0.95495214
0.9589491
0.96767273
0.98940919
1.0050457
1.0035846
1.0059185
1.0052032
1.0072743
1.0076835
1.0100119
1.0114804
1.0144534
1.0171539
1.0211658
1.0254363
1.0309738
1.0372572
1.0448638
1.0535745
1.0636235
1.0748023
1.0869466
1.0995639
1.1120697
1.1237807
1.1341462
1.1428267
1.1497567
1.1550789
1.1590446
1.1619435
1.1641374
1.1660185
1.1672443
1.1677259
1.1678396
1.1676528
1.1671397
1.166228
1.1651156
1.1638318
1.1627069
1.1620225
1.1616847
1.1615854
1.1619438
1.1642281
1.1658446
0.95485371
0.95660392
0.96089139
0.97008758
0.99275318
1.0067921
1.0050613
1.0074641
1.0067796
1.0089364
1.0094165
1.0118426
1.0134121
1.0165128
1.0193649
1.0235496
1.0280346
1.0338099
1.0403783
1.0482935
1.0573467
1.0677397
1.0792418
1.0916331
1.1043689
1.1168189
1.12829
1.1382552
1.1464295
1.1528139
1.157602
1.1610714
1.1635462
1.1654479
1.1670026
1.1678825
1.1681574
1.1681433
1.1678203
1.1671938
1.1661705
1.164979
1.1636708
1.1626421
1.1620126
1.1616854
1.1615981
1.1621436
1.1644755
1.1659388
0.9566193
0.95851262
0.96312573
0.97290708
0.9962444
1.0086853
1.0067896
1.009254
1.0086136
1.0108429
1.0113873
1.0139124
1.0155878
1.018822
1.0218332
1.0262009
1.030911
1.0369348
1.0438002
1.0520356
1.0614402
1.0721805
1.083998
1.0966124
1.1094259
1.1217651
1.1329352
1.1424421
1.1500657
1.1558791
1.1601189
1.1630873
1.1651503
1.1667546
1.1679342
1.1685005
1.1686081
1.1684384
1.167976
1.1672193
1.1661058
1.1648386
1.1635165
1.162579
1.1620099
1.1617065
1.1616343
1.1624038
1.1647141
1.1660309
0.95859046
0.96061687
0.96558698
0.97610171
0.99979831
1.0107907
1.0087288
1.0112535
1.010653
1.012962
1.0135791
1.016209
1.0179981
1.0213722
1.0245533
1.0291113
1.0340591
1.0403441
1.0475199
1.0560881
1.065853
1.0769423
1.0890639
1.1018731
1.1147172
1.1268857
1.1376895
1.14668
1.1537155
1.1589383
1.1626174
1.1650849
1.1667502
1.1680189
1.168816
1.1691216
1.1690568
1.1687235
1.1681176
1.1672301
1.1660332
1.1646949
1.1633773
1.1625161
1.162011
1.1617507
1.1616965
1.1627286
1.1649408
1.1661206
0.96073512
0.96289449
0.96824296
0.97967287
1.00337
1.0130289
1.0108563
1.0134483
1.0128973
1.0152909
1.0159861
1.0187263
1.0206363
1.0241573
1.0275176
1.0322773
1.0374747
1.0440329
1.0515319
1.0604442
1.0705768
1.0820138
1.0944236
1.1073934
1.1202153
1.1321479
1.1425176
1.1509395
1.1573612
1.1619781
1.1650826
1.1670522
1.168328
1.1692148
1.1696617
1.1697516
1.1694915
1.168996
1.1682464
1.1672321
1.165952
1.1645483
1.1632637
1.1624589
1.1620159
1.1618139
1.1617884
1.1631049
1.1651531
1.1662083
0.96308081
0.9653693
0.971105
0.98364455
1.006945
1.0152612
1.0131808
1.0158429
1.0153441
1.0178252
1.0186031
1.021458
1.0234969
1.0271718
1.0307232
1.0356932
1.0411539
1.0479988
1.0558352
1.0651035
1.0756099
1.0873909
1.1000688
1.1131589
1.125899
1.1375238
1.1473915
1.1552031
1.1609958
1.1649871
1.1674999
1.1689737
1.1698477
1.1703459
1.1704999
1.1703656
1.1699096
1.1692552
1.168368
1.1672313
1.165861
1.1643992
1.1631809
1.1624359
1.1620264
1.1618841
1.1619221
1.1634987
1.1653622
1.1662947
0.96558771
0.96800481
0.97414021
0.98799884
1.0105386
1.0177649
1.0156996
1.0184313
1.0179861
1.0205573
1.021423
1.0243988
1.0265757
1.0304125
1.0341656
1.0393579
1.0450946
1.0522395
1.0604262
1.0700613
1.0809452
1.0930626
1.1059822
1.1191453
1.1317361
1.1429774
1.1522821
1.1594579
1.1646062
1.1679383
1.1698487
1.1708293
1.171291
1.1714367
1.1713206
1.170956
1.170307
1.1695001
1.1684894
1.1672251
1.1657582
1.164254
1.1631136
1.1624275
1.1620502
1.1619325
1.1621245
1.1638974
1.1655684
1.1663797
0.96830595
0.97084292
0.9773752
0.99273166
1.0141528
1.02047
1.0183951
1.0211991
1.0208139
1.0234817
1.0244431
1.0275467
1.0298704
1.033877
1.0378434
1.0432682
1.0492956
1.0567551
1.0653061
1.075318
1.086582
1.099024
1.1121536
1.1253335
1.1376998
1.1484804
1.1571748
1.1637003
1.1681623
1.1707983
1.1721075
1.1726067
1.1726732
1.1724993
1.1721067
1.1715186
1.1706812
1.1697281
1.1686122
1.167204
1.1656403
1.1641142
1.1630541
1.162427
1.162087
1.1619881
1.1623929
1.1642896
1.1657698
1.1664634
0.9711353
0.97380168
0.98075063
0.99776049
1.0177134
1.0233117
1.0212661
1.0241493
1.0238305
1.0266002
1.0276634
1.0308993
1.0333791
1.0375624
1.0417546
1.0474247
1.0537572
1.0615455
1.0704735
1.0808706
1.0925136
1.1052636
1.1185629
1.1316941
1.1437538
1.1540027
1.1620595
1.1679089
1.1716131
1.1735384
1.1742662
1.1743179
1.1740068
1.1735115
1.1728571
1.1720508
1.1710304
1.1699355
1.1687197
1.1671681
1.1655037
1.1639836
1.163001
1.1624297
1.1621437
1.1620679
1.1627314
1.1646667
1.1659646
1.1665459
0.97418555
0.97698391
0.9843735
1.0031584
1.0213129
1.0263437
1.0243263
1.0272869
1.0270352
1.0299094
1.0310796
1.0344531
1.0370984
1.0414675
1.0458992
1.0518274
1.0584807
1.0666129
1.0759307
1.0867209
1.0987391
1.1117744
1.1251943
1.1382014
1.1498694
1.1595292
1.1669313
1.1720298
1.1749274
1.1761448
1.1763502
1.175961
1.1752736
1.1744755
1.1735673
1.1725507
1.1713546
1.1701201
1.1687623
1.1671161
1.165348
1.1638682
1.1629594
1.1624596
1.1622203
1.1621685
1.1631326
1.1650221
1.1661536
1.1666287
0.97735252
0.98030907
0.98818223
1.0087718
1.0248958
1.0295263
1.0275528
1.0305985
1.0304189
1.0334036
1.0346878
1.0382053
1.041028
1.0455932
1.0502791
1.0564797
1.0634686
1.0719591
1.0816783
1.0928669
1.1052516
1.1185419
1.1320218
1.1448203
1.1560146
1.1650487
1.1717558
1.1760093
1.1780748
1.1786454
1.1783533
1.1775192
1.1764748
1.1753858
1.1742356
1.1730168
1.1716548
1.1702865
1.1687808
1.1670472
1.1651814
1.1637752
1.1629402
1.1624993
1.1623069
1.1622825
1.163618
1.1653488
1.1663399
1.1667146
0.98068845
0.98380644
0.99222974
1.0145881
1.0285026
1.0328815
1.030954
1.0340869
1.0339811
1.0370805
1.0384869
1.0421568
1.0451701
1.0499426
1.0548972
1.0613834
1.0687239
1.077588
1.0877204
1.0993109
1.1120489
1.1255543
1.1390228
1.1515213
1.1621713
1.170557
1.176471
1.1798088
1.1810665
1.1810637
1.1802506
1.1789925
1.177606
1.1762419
1.17486
1.1734478
1.1719315
1.1704444
1.1687836
1.1669597
1.1650219
1.1636993
1.1629334
1.1625363
1.1623914
1.1624221
1.1640948
1.1656657
1.1665301
1.1668082
0.98417633
0.98746895
0.99653759
1.0205368
1.0321356
1.0363959
1.0345177
1.0377408
1.0377168
1.0409392
1.0424799
1.0463111
1.0495288
1.0545185
1.0597559
1.0665427
1.0742506
1.0835036
1.094059
1.106051
1.1191216
1.1327909
1.146164
1.1582713
1.1683239
1.1760182
1.1810153
1.1834002
1.1839513
1.1833599
1.1820423
1.1803762
1.1786666
1.1770419
1.1754397
1.1738427
1.1721833
1.1706004
1.1687826
1.1668488
1.1648814
1.1636354
1.1629335
1.1625761
1.1624512
1.1626143
1.1645354
1.1659617
1.1667222
1.1669162
0.98780826
0.9912714
1.0011057
1.0265019
1.0357936
1.0400622
1.0382421
1.0415668
1.0416338
1.0449883
1.0466739
1.0506732
1.0541067
1.0593232
1.0648583
1.0719614
1.0800547
1.0897123
1.1006997
1.1130891
1.1264632
1.1402324
1.1534169
1.1650481
1.1744676
1.1813635
1.185348
1.1868174
1.186717
1.185528
1.1837231
1.1816702
1.1796554
1.1777855
1.1759739
1.1742014
1.1724066
1.1707368
1.1687668
1.166711
1.1647679
1.1635812
1.1629351
1.1626197
1.1625107
1.1628702
1.1649177
1.1662192
1.166904
1.1670503
0.99158696
0.9952203
1.0059766
1.0324329
1.0396294
1.0439024
1.0421475
1.0455795
1.0457426
1.0492323
1.0510706
1.0552424
1.0589037
1.0643587
1.0702087
1.0776469
1.0861436
1.0962205
1.1076452
1.120421
1.1340579
1.1478487
1.1607468
1.1718302
1.1805769
1.1865179
1.1894357
1.1901082
1.189331
1.1875616
1.1852923
1.1828733
1.1805725
1.1784724
1.176463
1.1745257
1.1726012
1.1707887
1.168728
1.1665525
1.1646768
1.1635546
1.1629534
1.1626755
1.1625848
1.1631938
1.1652383
1.166441
1.1670666
1.1671965
0.99558301
0.99935354
1.011201
1.038438
1.0436183
1.047931
1.0462362
1.0497777
1.0500391
1.0536659
1.0556664
1.0600171
1.063922
1.0696301
1.0758155
1.0836085
1.0925269
1.1030367
1.1149009
1.1280451
1.1418908
1.1556128
1.1681279
1.178609
1.1865799
1.1914394
1.1933175
1.1932519
1.1917872
1.1894598
1.1867495
1.1839865
1.1814184
1.1791029
1.176907
1.1748178
1.1727761
1.1708108
1.1686651
1.1663815
1.1645965
1.1635443
1.1629855
1.1627465
1.1626767
1.1635565
1.1655117
1.1666394
1.1672173
1.1673355
0.99977589
1.0036652
1.016764
1.04443
1.0477499
1.0521279
1.0504936
1.0541475
1.0545137
1.0582839
1.0604594
1.065001
1.0691682
1.0751482
1.08169
1.0898587
1.0992148
1.1101679
1.1224684
1.1359518
1.1499369
1.163489
1.1755326
1.1853666
1.1923946
1.1960839
1.1970416
1.1962164
1.1940801
1.1912208
1.188095
1.1850103
1.1821941
1.1796779
1.1773063
1.1750788
1.1729423
1.1708138
1.1685746
1.1662044
1.1645191
1.1635426
1.1630381
1.1628322
1.1627863
1.1639358
1.16577
1.1668224
1.1673561
1.1674646
1.0042331
1.0082146
1.0226763
1.0503546
1.0520084
1.0564764
1.0549106
1.0586833
1.0591678
1.0630896
1.065458
1.0702042
1.0746557
1.0809265
1.087846
1.0964087
1.106218
1.1176227
1.1303501
1.1441315
1.1581717
1.1714497
1.1829438
1.192047
1.1979631
1.2004778
1.2005984
1.1989907
1.1962096
1.1928464
1.1893308
1.1859467
1.1829011
1.1801986
1.1776621
1.1753076
1.1730918
1.170813
1.1684504
1.1660317
1.1644455
1.1635442
1.1631043
1.1629319
1.1629096
1.1643168
1.1660162
1.1669929
1.1674847
1.1675848
1.0088397
1.0128637
1.0289
1.0562126
1.056413
1.0609908
1.0594967
1.0633967
1.0640115
1.0680957
1.0706768
1.0756428
1.0803998
1.08698
1.0942962
1.1032716
1.1135464
1.1254067
1.1385423
1.1525646
1.1665614
1.1794633
1.1903438
1.1985615
1.2032321
1.2046705
1.2039519
1.201571
1.1981747
1.1943375
1.1904587
1.1867977
1.1835414
1.1806664
1.1779768
1.1755051
1.1731687
1.1707877
1.1682866
1.1658753
1.1643843
1.1635591
1.1631754
1.1630388
1.1630514
1.1646892
1.166254
1.167154
1.1676052
1.1676977
1.0136781
1.0177013
1.0354195
1.0619713
1.0609634
1.065679
1.0642639
1.0683006
1.0690614
1.0733209
1.0761354
1.0813346
1.0864159
1.0933222
1.1010539
1.1104582
1.1212106
1.1335261
1.1470405
1.1612304
1.1750762
1.1875069
1.1977065
1.2048278
1.2081949
1.2086825
1.2070811
1.2039571
1.1999781
1.1956975
1.1914821
1.1875665
1.1841172
1.1810831
1.1782537
1.1756803
1.1731995
1.170731
1.1680841
1.1657451
1.1643389
1.1635857
1.1632508
1.1631373
1.163225
1.1650518
1.166483
1.1673066
1.1677192
1.1678042
1.018758
1.0227648
1.0422371
1.0676522
1.0656963
1.0705528
1.0692326
1.0734169
1.0743424
1.0787862
1.081851
1.0872932
1.0927161
1.0999656
1.108131
1.1179824
1.1292204
1.1419829
1.155831
1.1700976
1.1836809
1.1955543
1.2049387
1.2107898
1.2129002
1.21247
1.2099843
1.2061488
1.2016221
1.1969299
1.1924048
1.1882567
1.1846314
1.1814504
1.178496
1.1758446
1.1732073
1.1706436
1.1678668
1.1656302
1.164309
1.1636212
1.1633231
1.1632211
1.1634522
1.165398
1.1667005
1.1674504
1.1678262
1.1679032
1.0240884
1.0280816
1.0493019
1.0732754
1.0706374
1.0756462
1.074433
1.0787739
1.0798724
1.0845036
1.0878318
1.0935279
1.0993107
1.1069236
1.1155425
1.1258567
1.137586
1.1507781
1.1648984
1.1791363
1.1923475
1.2035858
1.2119495
1.2163987
1.2174086
1.2159991
1.2126603
1.2081498
1.2031117
1.1980398
1.1932317
1.1888721
1.1850866
1.1817712
1.1787059
1.1759881
1.173208
1.170528
1.1676438
1.1655287
1.1642918
1.1636631
1.1633971
1.163304
1.163749
1.1657146
1.1669016
1.1675827
1.1679241
1.1679948
1.029687
1.0337107
1.056594
1.0789425
1.0758358
1.0809891
1.0798803
1.0843721
1.0856523
1.0904724
1.0940836
1.1000478
1.106214
1.1142123
1.1233038
1.1340961
1.1463149
1.1599051
1.1742166
1.1883102
1.201042
1.2115396
1.2186541
1.2216953
1.2216709
1.2192674
1.2151095
1.2099634
1.2044517
1.1990326
1.1939673
1.1894155
1.1854847
1.1820499
1.1788889
1.1760496
1.1731976
1.1703831
1.1674234
1.1654374
1.1642876
1.1637118
1.1634806
1.1634019
1.1641061
1.1659897
1.1670824
1.1677027
1.1680123
1.1680775
1.0355497
1.0396902
1.064054
1.0848653
1.0812471
1.0865473
1.085546
1.0901961
1.0916776
1.0966995
1.1006177
1.1068701
1.1134435
1.1218503
1.1314324
1.1427129
1.1554127
1.1693533
1.1837581
1.1975883
1.2097407
1.2193172
1.2249933
1.2267336
1.2256568
1.2222732
1.2173363
1.2115964
1.2056493
1.1999145
1.1946156
1.1898883
1.185827
1.182291
1.179055
1.1760759
1.1731569
1.1702009
1.1672166
1.1653538
1.1642903
1.1637691
1.1635768
1.1635192
1.1644762
1.1662378
1.1672456
1.1678108
1.1680918
1.1681517
1.0416157
1.0460234
1.0715947
1.0908145
1.0868465
1.0923116
1.091437
1.0962595
1.0979664
1.103204
1.1074547
1.1140157
1.1210204
1.1298571
1.1399448
1.1517209
1.1648789
1.1791019
1.1934848
1.2069332
1.2184088
1.2268101
1.2309497
1.2315213
1.2293397
1.2250168
1.2193449
1.2130552
1.2067112
1.2006906
1.1951784
1.1902913
1.1861163
1.1824996
1.1792006
1.1760817
1.1730842
1.1699725
1.1670354
1.1652807
1.1643021
1.1638425
1.1636857
1.1636572
1.1648645
1.1664742
1.1673956
1.1679082
1.1681634
1.1682194
1.0479124
1.0527876
1.0792062
1.0965847
1.0926786
1.0983173
1.0975859
1.1025887
1.1045428
1.1100086
1.1146172
1.121508
1.1289662
1.1382531
1.1488589
1.1611283
1.1747089
1.1891267
1.2033627
1.2163092
1.2269593
1.233944
1.2365749
1.2360132
1.2327235
1.2275032
1.221144
1.2143492
1.2076453
1.2013653
1.1956578
1.190629
1.1863609
1.1826816
1.1792816
1.1760823
1.1729748
1.1697124
1.166878
1.1652252
1.1643322
1.1639299
1.163802
1.1638029
1.165245
1.1667002
1.1675343
1.1679955
1.1682261
1.1682789
1.0544284
1.0600292
1.086868
1.1027549
1.098772
1.1045857
1.1040112
1.1092013
1.1114295
1.1171368
1.1221289
1.1293703
1.137303
1.1470582
1.1581901
1.170943
1.1848891
1.199393
1.2133516
1.2256771
1.2352721
1.2406454
1.2419357
1.2401627
1.2358054
1.2297376
1.2227415
1.2154863
1.2084569
1.2019414
1.1960596
1.1909143
1.1865762
1.182845
1.1793143
1.1760669
1.1728317
1.1694393
1.1667409
1.1651905
1.1643766
1.1640224
1.1639156
1.1639666
1.1656087
1.1669131
1.1676613
1.1680716
1.1682803
1.1683301
1.0611509
1.0677798
1.0945515
1.1091759
1.1051398
1.1111329
1.1107376
1.116124
1.1186512
1.1246137
1.1300132
1.1376255
1.1460511
1.156292
1.1679528
1.1811639
1.1953993
1.209865
1.223414
1.2349915
1.2432328
1.2469538
1.2469777
1.2439724
1.2385918
1.2317303
1.2241487
1.2164751
1.2091511
1.2024251
1.1963984
1.191167
1.1867762
1.1829837
1.1793233
1.1760297
1.1726592
1.1691643
1.1666223
1.1651778
1.1644318
1.1641163
1.1640174
1.1641798
1.1659447
1.1671077
1.1677736
1.1681376
1.1683261
1.1683736
1.068188
1.0761343
1.1023143
1.1158337
1.1118109
1.117984
1.1177968
1.1233789
1.1262312
1.1324617
1.138292
1.1462956
1.1552324
1.1659733
1.1781581
1.1917865
1.2062094
1.2204994
1.2335013
1.2441228
1.2507606
1.2529192
1.251659
1.2474375
1.2410881
1.2334905
1.225374
1.2173211
1.209733
1.2028288
1.1966956
1.1913987
1.186953
1.1830541
1.1793251
1.1759706
1.1724582
1.1688968
1.1665175
1.1651772
1.164493
1.1642146
1.1641243
1.1644617
1.1662384
1.1672773
1.1678692
1.1681927
1.168364
1.1684096
1.0755107
1.0849799
1.1101175
1.1227538
1.1188025
1.1251624
1.1251943
1.1309882
1.1341906
1.1407022
1.1469884
1.1554043
1.1648699
1.1761223
1.1888143
1.2027938
1.2172834
1.2312555
1.2435685
1.2529503
1.2578205
1.2585633
1.2559489
1.2505649
1.2433061
1.2350308
1.2264267
1.2180315
1.2102157
1.2031739
1.1969633
1.1915833
1.1870513
1.1830897
1.1793188
1.1758854
1.1722195
1.1686493
1.1664228
1.1651834
1.1645613
1.1643208
1.16424
1.1648251
1.1664754
1.167419
1.1679484
1.1682373
1.1683949
1.1684401
1.0831499
1.0944163
1.1180877
1.129996
1.1261407
1.1326864
1.1329629
1.1389695
1.1425496
1.1493591
1.1561251
1.164979
1.174989
1.1867579
1.1999219
1.2141629
1.2285758
1.2420769
1.2535234
1.2613502
1.2644566
1.2638219
1.2598497
1.2533596
1.2452562
1.2363606
1.227314
1.2186186
1.2106214
1.20348
1.1971739
1.1916732
1.1871018
1.1831047
1.1792958
1.1757678
1.1719293
1.1684344
1.1663395
1.1652003
1.1646391
1.1644345
1.1643733
1.1651962
1.1666876
1.1675405
1.1680161
1.1682753
1.1684185
1.1684613
1.0910043
1.1043547
1.126193
1.1375502
1.1338307
1.140566
1.1411134
1.1473414
1.151332
1.1584594
1.1657334
1.1750505
1.1856175
1.1978953
1.2114729
1.2258568
1.2400402
1.2529087
1.2632225
1.2692376
1.2707472
1.2686447
1.2633641
1.2558349
1.2469526
1.2374912
1.2280494
1.2191065
1.2109749
1.2037377
1.1972752
1.1917161
1.1871253
1.1831136
1.1792541
1.1756123
1.1716036
1.1682438
1.1662691
1.1652281
1.1647286
1.1645623
1.1645249
1.1655459
1.1668826
1.167651
1.1680766
1.1683049
1.168434
1.168477
1.0991028
1.1148241
1.1345139
1.1454586
1.141898
1.1488239
1.1496746
1.1561306
1.1605697
1.1680394
1.1758489
1.1856538
1.1967811
1.2095414
1.2234457
1.2378317
1.2516187
1.2636793
1.2725149
1.2766327
1.2766231
1.2730269
1.2664983
1.2580017
1.2484057
1.2384339
1.2286554
1.2195231
1.2112739
1.2038758
1.1973211
1.1917359
1.1871391
1.1831159
1.179194
1.1754181
1.1712615
1.1680669
1.1662127
1.1652702
1.1648317
1.164695
1.1646852
1.1658883
1.1670667
1.167752
1.1681277
1.1683279
1.1684458
1.1684863
1.1074418
1.1258001
1.1430538
1.1537264
1.1503504
1.1574814
1.1586782
1.1653766
1.1703053
1.1781452
1.186514
1.1968243
1.2085007
1.221692
1.2358077
1.2500312
1.2632445
1.2742506
1.2812895
1.2835954
1.2820354
1.2769706
1.2692656
1.2598762
1.2496303
1.2392098
1.2291638
1.2198743
1.2114557
1.2039413
1.1973401
1.1917405
1.1871441
1.1831098
1.1791166
1.1751891
1.1709137
1.1679043
1.1661724
1.1653255
1.1649435
1.1648244
1.1648551
1.166203
1.1672375
1.1678418
1.1681711
1.1683462
1.1684543
1.1684961
1.1159865
1.1371223
1.1518658
1.1624095
1.159245
1.1665917
1.1681776
1.175133
1.1805919
1.1888279
1.1977718
1.2085937
1.2207878
1.2343295
1.2485111
1.262397
1.2748385
1.2844563
1.2894929
1.2901324
1.286944
1.2804808
1.2716784
1.2614716
1.2506443
1.2398488
1.2295901
1.2201036
1.2115436
1.2039681
1.1973394
1.1917215
1.1871327
1.1830939
1.1790218
1.1749255
1.1705726
1.167763
1.1661575
1.1653889
1.1650528
1.1649381
1.165046
1.1664862
1.1673907
1.1679195
1.1682075
1.1683614
1.1684609
1.1685008
1.1248204
1.1490483
1.1610115
1.1715633
1.1686396
1.1762112
1.1782335
1.1854602
1.1914832
1.2001388
1.2096588
1.2209846
1.2336409
1.2474203
1.2614974
1.2748499
1.2862909
1.2941406
1.2971752
1.2961683
1.291358
1.2835707
1.2737549
1.2628076
1.2514775
1.2403831
1.2298985
1.220217
1.2115815
1.2039707
1.1973083
1.1916812
1.1871098
1.1830696
1.1789043
1.174615
1.1702623
1.1676433
1.1661577
1.1654555
1.1651568
1.1650392
1.1652878
1.1667258
1.167522
1.1679854
1.1682387
1.1683745
1.1684653
1.1685033
1.1340107
1.1616414
1.1705759
1.1812407
1.1786038
1.1864006
1.1889194
1.1964174
1.2030315
1.2121175
1.2222052
1.2340074
1.2470427
1.2609155
1.274696
1.2872991
1.2974056
1.303193
1.3044061
1.301635
1.2952766
1.286254
1.2755118
1.2639076
1.2521632
1.240812
1.2300558
1.2202668
1.2115891
1.2039417
1.1972504
1.1916219
1.1870773
1.1830368
1.1787545
1.1742419
1.1700069
1.1675436
1.1661654
1.1655259
1.1652595
1.1651469
1.165606
1.1669098
1.1676304
1.1680414
1.1682661
1.168386
1.168468
1.1685046
1.143617
1.1748319
1.1806953
1.191517
1.1891978
1.1972243
1.2002912
1.20806
1.2152712
1.2247971
1.2354294
1.2476606
1.26096
1.2747505
1.2880234
1.2996325
1.3080001
1.3116511
1.3110831
1.3065433
1.2987147
1.2885513
1.2769742
1.2648068
1.252722
1.2410575
1.2301266
1.2202784
1.2115624
1.2038811
1.197168
1.1915468
1.1870376
1.1829946
1.1785644
1.1738417
1.1697861
1.1674618
1.1661845
1.1656089
1.1653833
1.1652749
1.1659286
1.1670778
1.1677255
1.1680912
1.168291
1.1683957
1.1684695
1.1685053
1.1539761
1.1887013
1.1913968
1.2024514
1.2005014
1.2087196
1.2123848
1.220425
1.2282313
1.2382013
1.2493459
1.2619293
1.2753419
1.2888451
1.3013682
1.3116528
1.3179241
1.3195792
1.3171349
1.3108878
1.3016861
1.2904829
1.2781711
1.2655396
1.2531231
1.2411732
1.2301483
1.2202497
1.2114994
1.2037929
1.1970649
1.1914589
1.1869926
1.1829433
1.1783326
1.1734373
1.1695853
1.167395
1.1662148
1.1657021
1.1655206
1.1654227
1.1662235
1.1672312
1.1678103
1.1681344
1.1683114
1.1684033
1.1684704
1.1685055
1.1650617
1.2032644
1.2027464
1.2140755
1.2125703
1.2209207
1.2252257
1.2335486
1.2419434
1.2523579
1.263959
1.2767828
1.2901183
1.3030998
1.3146014
1.3231465
1.3271737
1.3269038
1.3225492
1.3146845
1.3042157
1.2920799
1.2791415
1.2661214
1.2533365
1.2412215
1.2301237
1.2201785
1.211406
1.2036809
1.1969443
1.1913609
1.1869441
1.1828856
1.178066
1.1730382
1.169396
1.167342
1.1662576
1.1658056
1.1656662
1.1655844
1.1664937
1.1673713
1.1678856
1.1681715
1.1683275
1.1684089
1.1684701
1.1685051
1.176913
1.2183312
1.2148017
1.2263287
1.2253714
1.2338357
1.2388316
1.2474754
1.2564552
1.2672943
1.2792646
1.2921664
1.3051942
1.3173851
1.3275243
1.3339269
1.3358022
1.3335332
1.3273239
1.3179483
1.3063291
1.2933797
1.2799212
1.2664962
1.2534329
1.241214
1.2300462
1.2200722
1.2112863
1.2035491
1.1968094
1.1912555
1.1868943
1.1828257
1.1777658
1.1726506
1.1692188
1.1673032
1.1663133
1.1659155
1.1658123
1.1657493
1.1667277
1.1674996
1.1679512
1.1682014
1.1683387
1.1684112
1.1684693
1.1685042
1.1898171
1.2335684
1.2276199
1.2392754
1.2389735
1.247549
1.2532604
1.2622694
1.2718193
1.283033
1.2952272
1.3079958
1.3204472
1.3315406
1.3398896
1.3439458
1.3437593
1.3394389
1.3314735
1.3207083
1.3080651
1.2944289
1.2805254
1.266689
1.2534596
1.2411448
1.229927
1.2199358
1.2111454
1.2034013
1.1966634
1.1911453
1.1868449
1.1827641
1.1774126
1.172291
1.1690617
1.1672881
1.1663839
1.1660318
1.165954
1.165908
1.1669518
1.1676143
1.1680077
1.168226
1.1683472
1.1684117
1.1684675
1.1685029
1.2043091
1.2486544
1.2413662
1.2530751
1.2535466
1.2622166
1.2686176
1.2780081
1.2880792
1.2995618
1.3117762
1.3241448
1.3357171
1.3453489
1.351469
1.3532548
1.3509295
1.3446185
1.3350155
1.3229966
1.3094672
1.2952569
1.2808822
1.2667745
1.2534201
1.2410227
1.2297711
1.2197751
1.2109873
1.2032412
1.1965097
1.1910332
1.1867956
1.1826918
1.1769786
1.1719867
1.1689318
1.1672961
1.1664682
1.1661544
1.1660955
1.1660836
1.1671406
1.1677156
1.1680558
1.1682446
1.1683504
1.1684103
1.1684599
1.1684939
1.2203964
1.2638763
1.2561938
1.2678547
1.2692667
1.2779635
1.285096
1.2947976
1.3052549
1.3168167
1.3287884
1.3404538
1.350802
1.3585229
1.3621972
1.3617895
1.3572786
1.3490856
1.3379847
1.3248608
1.3105864
1.2958553
1.2810577
1.2667805
1.2533127
1.240857
1.2295867
1.2195953
1.2108163
1.2030724
1.1963515
1.1909222
1.1867438
1.1825903
1.1764988
1.1717349
1.1688287
1.1673151
1.166563
1.1662796
1.166229
1.166311
1.1672897
1.1678001
1.1680966
1.1682609
1.1683503
1.1684045