/*--------------------------------*- C++ -*----------------------------------*\
  =========                 |
  \\      /  F ield         | OpenFOAM: The Open Source CFD Toolbox
   \\    /   O peration     | Website:  https://openfoam.org
    \\  /    A nd           | Version:  8
     \\/     M anipulation  |
\*---------------------------------------------------------------------------*/
FoamFile
{
    version     2.0;
    format      ascii;
    class       surfaceVectorField;
    location    "0.18001";
    object      rhoUf;
}
// * * * * * * * * * * * * * * * * * * * * * * * * * * * * * * * * * * * * * //

dimensions      [1 -2 -1 0 0 0 0];

internalField   nonuniform List<vector> 
39600
(
(211.77332 3.754927e-17 -9.4904851)
(196.59243 -1.5033021e-16 -9.4641077)
(196.2873 -1.6046467e-16 -8.679809)
(239.80792 1.5978533e-16 -10.819523)
(229.85725 2.18991e-16 -10.746315)
(229.20468 3.3124607e-16 -9.8203317)
(260.96775 -9.7889217e-17 -11.869227)
(252.14459 -8.8945461e-17 -11.911187)
(251.21614 -1.7450458e-16 -10.86992)
(280.88777 5.6004439e-19 -12.90385)
(272.21974 7.9397015e-17 -12.968545)
(271.0701 3.1682047e-19 -11.84018)
(301.24995 5.336274e-17 -14.00921)
(292.15263 5.5297968e-19 -14.072536)
(290.8272 2.724043e-19 -12.851371)
(317.68494 1.851077e-17 -14.989911)
(313.21531 5.7229803e-17 -15.249793)
(311.67295 1.1303853e-16 -13.949702)
(324.77786 -1.616275e-17 -15.366069)
(323.6648 -1.0091363e-16 -16.114973)
(323.45439 -9.6693905e-17 -14.829897)
(325.48619 -4.9996027e-17 -15.380277)
(326.01729 -3.2916249e-19 -15.75482)
(326.10844 4.3663798e-17 -14.518165)
(325.09953 -6.1874292e-17 -15.337783)
(324.69098 3.0367401e-18 -16.311467)
(324.7862 -1.0969379e-16 -15.022425)
(325.15719 6.2530067e-17 -15.322949)
(325.47409 -6.1886084e-17 -15.580102)
(325.51653 8.7116715e-17 -14.343129)
(324.91277 -1.9657701e-18 -15.292671)
(324.70545 5.1213414e-17 -16.347313)
(324.74958 -4.5609721e-17 -15.057288)
(324.88178 -2.2646871e-18 -15.274589)
(325.10218 4.1465367e-17 -15.540799)
(325.12021 1.7535184e-17 -14.293638)
(324.67452 -2.6600059e-18 -15.247838)
(324.58907 -3.4346032e-17 -16.260713)
(324.60898 -1.681356e-17 -14.975088)
(324.57915 -1.9075105e-18 -15.224107)
(324.7418 7.1946561e-20 -15.581115)
(324.7508 -1.8356002e-18 -14.319202)
(324.37847 -1.3819983e-19 -15.195103)
(324.37099 -2.9905336e-18 -16.11133)
(324.38039 -3.2472395e-20 -14.829162)
(324.22052 1.457913e-17 -15.163162)
(324.36404 -1.504464e-19 -15.63376)
(324.36852 9.378061e-18 -14.359897)
(323.9858 5.5324749e-18 -15.12575)
(324.04293 -6.0734374e-19 -15.946925)
(324.04702 1.6517967e-17 -14.667788)
(323.75153 -1.4723945e-17 -15.078838)
(323.90156 4.9755886e-19 -15.644383)
(323.90594 -2.0750228e-17 -14.369197)
(323.44698 0 -15.018977)
(323.56327 2.3134341e-17 -15.772669)
(323.57034 5.6683945e-18 -14.504354)
(323.10818 0 -14.93736)
(323.28254 -3.8392149e-17 -15.570917)
(323.29442 0 -14.307751)
(322.69448 7.3293388e-19 -14.830843)
(322.86677 2.3879259e-17 -15.561712)
(322.88336 1.0288469e-18 -14.306158)
(322.2337 1.5512241e-17 -14.692542)
(322.43664 1.41299e-17 -15.386593)
(322.45835 7.8562942e-19 -14.13028)
(321.69149 1.0729258e-17 -14.537301)
(321.86993 -4.7203523e-19 -15.282372)
(321.8862 1.5406246e-17 -14.016032)
(321.00251 -1.8371357e-18 -14.37836)
(321.22483 1.0606843e-17 -15.116537)
(321.22854 -8.5359595e-18 -13.84632)
(320.15049 -4.3290394e-18 -14.095646)
(320.48787 -2.6083248e-19 -14.897699)
(320.51843 6.7498265e-18 -13.653949)
(319.15992 -2.4287638e-17 -13.675348)
(319.5935 -3.8617912e-17 -14.507929)
(319.64838 -1.034983e-17 -13.313124)
(318.04134 1.1018131e-17 -13.083768)
(318.53973 1.8830373e-19 -13.967995)
(318.62034 -8.7943769e-18 -12.843275)
(316.80938 1.2208624e-17 -12.315932)
(317.3487 7.4944024e-17 -13.23678)
(317.44976 1.7673168e-17 -12.196901)
(315.48551 -1.5862737e-17 -11.369388)
(316.04699 -3.0022748e-17 -12.312278)
(316.16423 -6.8837886e-18 -11.375973)
(314.12395 1.036283e-18 -10.269345)
(314.68523 4.682042e-17 -11.206254)
(314.81173 -2.4374181e-18 -10.388036)
(312.7835 -1.4760734e-17 -9.0697119)
(313.32199 1.5598791e-17 -9.9689091)
(313.4487 1.4028806e-18 -9.2748488)
(311.52317 -2.5043764e-17 -7.8437195)
(312.01685 -2.7665848e-17 -8.6717644)
(312.13503 -9.5169155e-18 -8.100108)
(310.39492 2.931462e-18 -6.6624257)
(310.8268 6.6214695e-17 -7.3955804)
(310.93077 -7.4546943e-18 -6.9377652)
(309.42953 1.7172446e-17 -5.5819988)
(309.79302 8.0704079e-18 -6.2099127)
(309.88011 1.0428129e-17 -5.8524586)
(308.63347 1.7090836e-17 -4.6323515)
(308.93071 1.3055941e-16 -5.1544754)
(309.00111 -1.1933655e-18 -4.8829735)
(308.00108 -3.4016074e-18 -3.8339855)
(308.23405 -6.970916e-17 -4.2463117)
(308.28811 7.0302082e-18 -4.0470607)
(307.51744 -4.369292e-17 -3.1757989)
(307.69854 -3.012132e-17 -3.5072543)
(307.73945 -1.4008594e-17 -3.3599778)
(307.19201 -8.7393839e-17 -2.4407478)
(307.26744 3.4608806e-17 -2.9167109)
(307.32032 -4.7737295e-18 -2.8070791)
(306.91007 -6.1544952e-17 -1.8210835)
(306.91537 1.3764589e-16 -2.3687533)
(306.95513 -3.2287766e-17 -2.2963737)
(306.62054 1.1648648e-16 -1.4903862)
(306.67454 8.8778966e-17 -1.8139683)
(306.68004 1.2803342e-17 -1.772029)
(306.43501 9.4073289e-17 -1.1110262)
(306.50762 -5.1181487e-19 -1.3094874)
(306.51511 2.5286861e-17 -1.2884388)
(306.30159 -8.5243991e-18 -0.70657711)
(306.36219 1.4260015e-17 -0.88305832)
(306.36939 -3.0550874e-18 -0.87536731)
(306.1638 -4.6627173e-18 -0.32063477)
(306.23651 -1.0155249e-17 -0.49725129)
(306.23909 -5.136808e-18 -0.4968311)
(306.00648 -3.0832425e-17 0.06255466)
(306.0847 1.3085756e-20 -0.10810441)
(306.08382 3.8749191e-18 -0.11502849)
(305.8097 -9.9789072e-17 0.25204262)
(305.94174 1.0739494e-17 0.28437021)
(305.92426 -8.2198644e-18 0.27327697)
(305.60858 -7.3441234e-17 0.12195621)
(305.84485 -1.3845757e-16 0.56652293)
(305.81003 -6.2235395e-18 0.56260026)
(305.59733 -6.3361528e-18 0.67726823)
(305.70557 1.028322e-16 0.6780181)
(305.72862 -3.6150575e-18 0.68359104)
(305.42843 0 0.41149353)
(305.48838 7.7116658e-17 0.65069133)
(305.46405 0 0.65905959)
(305.35056 0 0.57766833)
(305.47836 -5.8885061e-17 0.61506993)
(305.48732 -4.767234e-22 0.63823521)
(305.13669 -4.5854979e-17 0.38088864)
(305.12783 -6.5697788e-18 0.42210941)
(211.99987 3.3295631e-19 -10.333874)
(197.1789 -1.3084629e-20 -10.262845)
(240.31526 0 -11.769576)
(230.65968 0 -11.688127)
(261.70799 7.1100407e-17 -12.901962)
(253.16795 0 -12.962526)
(281.80414 8.5494733e-17 -14.012544)
(273.43291 1.5804536e-16 -14.105341)
(302.32789 -6.2459756e-20 -15.1936)
(293.50498 -6.926528e-17 -15.302425)
(318.36108 -4.7087499e-17 -16.198625)
(314.68527 5.2803124e-19 -16.552653)
(324.78227 -9.3266611e-17 -16.566622)
(323.88785 -4.9845469e-17 -17.407467)
(325.41194 5.1193212e-17 -16.602357)
(326.04174 -1.2901787e-16 -17.000975)
(325.04246 8.0808404e-18 -16.58078)
(324.67646 1.7800699e-16 -17.620447)
(325.11885 -8.1759043e-17 -16.582191)
(325.47377 -1.1635557e-16 -16.832643)
(324.8827 9.4393886e-17 -16.562791)
(324.6793 4.9169003e-17 -17.664848)
(324.86161 1.6067062e-17 -16.552646)
(325.0876 4.4335285e-17 -16.807222)
(324.65724 -3.4389135e-17 -16.530381)
(324.56226 -3.2603891e-17 -17.574059)
(324.56633 -7.4413156e-19 -16.509985)
(324.72197 1.7576377e-18 -16.863295)
(324.36792 -3.2282799e-18 -16.483379)
(324.34771 1.1915866e-19 -17.419904)
(324.21291 -1.4959655e-17 -16.452246)
(324.34334 0 -16.927421)
(323.97977 -5.6175192e-18 -16.413826)
(324.01988 -4.1632812e-17 -17.247338)
(323.74655 3.5689419e-17 -16.36107)
(323.87474 1.3440839e-17 -16.936422)
(323.44204 -9.3925231e-18 -16.29697)
(323.53587 3.4299779e-17 -17.061238)
(323.10335 -2.0151499e-17 -16.210724)
(323.25035 -1.8025554e-17 -16.859616)
(322.68932 3.7812157e-17 -16.110122)
(322.83627 1.540208e-17 -16.857679)
(322.2117 -2.9457968e-19 -15.976962)
(322.40072 -3.525338e-19 -16.702371)
(321.62701 -1.5220704e-18 -15.836671)
(321.84456 -1.614654e-17 -16.609372)
(320.91999 1.3097154e-17 -15.653548)
(321.19641 -6.5744293e-19 -16.421631)
(320.0739 -3.0544508e-17 -15.332433)
(320.42681 -7.4236375e-18 -16.157692)
(319.0855 -1.8029603e-17 -14.846811)
(319.50376 8.2744979e-19 -15.718371)
(317.96019 5.6269826e-17 -14.186943)
(318.4267 2.0575464e-17 -15.112067)
(316.70826 4.3054383e-17 -13.328041)
(317.21402 7.144297e-18 -14.29449)
(315.37237 2.4523931e-17 -12.272655)
(315.89584 -1.3352772e-17 -13.26299)
(314.00698 6.417117e-17 -11.052643)
(314.52616 -1.2028091e-18 -12.03614)
(312.67196 7.0428898e-18 -9.7301155)
(313.1654 1.7519337e-17 -10.672804)
(311.4246 5.3251036e-17 -8.3851289)
(311.87227 -2.8021028e-17 -9.2523764)
(310.31346 7.7230852e-17 -7.0949969)
(310.70042 -1.752465e-18 -7.8621301)
(309.36601 1.0783463e-16 -5.9188618)
(309.68743 -8.5699071e-18 -6.5760936)
(308.58685 6.5375137e-17 -4.8882657)
(308.84553 2.4311634e-17 -5.4343541)
(307.97014 -1.0046587e-16 -4.0238232)
(308.16859 1.1671124e-17 -4.4538794)
(307.48948 4.0728759e-17 -3.3021355)
(307.6478 -1.385839e-16 -3.6633638)
(307.16061 2.4851994e-16 -2.5190627)
(307.20784 5.7272023e-17 -3.0327752)
(306.87382 2.9393873e-16 -1.9474086)
(306.88002 7.5403048e-17 -2.445752)
(306.62737 -1.7968519e-17 -1.5376213)
(306.65994 -5.1513892e-17 -1.8624289)
(306.44219 -8.1769616e-17 -1.1355057)
(306.49817 -6.5510146e-17 -1.3379722)
(306.30518 1.5361932e-17 -0.71942674)
(306.35423 -2.3553527e-16 -0.89717567)
(306.17054 -6.6263762e-18 -0.32560819)
(306.23336 1.0157098e-17 -0.50345472)
(306.02939 4.0453695e-17 0.061872783)
(306.08543 2.1603674e-16 -0.10612419)
(305.83738 -1.3899522e-17 0.15977324)
(305.96557 7.6890791e-17 0.29014154)
(305.70312 9.6157478e-18 0.3214172)
(305.85758 3.9498871e-17 0.5657281)
(305.61519 1.8987506e-16 0.66492145)
(305.69724 -1.7184301e-16 0.66905902)
(305.45964 3.0157523e-17 0.46682829)
(305.50791 1.6700493e-18 0.64271363)
(305.32865 -1.0656043e-16 0.54486798)
(305.47443 -1.176794e-16 0.58152285)
(305.14204 -2.9834227e-18 0.34139938)
(212.87358 -3.3915729e-19 -11.234484)
(197.79148 -1.6348368e-16 -11.099708)
(241.44905 0 -12.80678)
(231.57303 9.2402421e-19 -12.675116)
(263.02506 7.2650068e-17 -14.043863)
(254.27488 0 -14.057523)
(283.27566 2.456164e-17 -15.252929)
(274.71559 8.0193389e-17 -15.29385)
(303.89668 -7.409923e-17 -16.53359)
(294.93009 -6.9030913e-17 -16.597483)
(319.3425 1.7510268e-18 -17.571965)
(316.12874 1.8853557e-18 -17.919665)
(324.92319 -7.8601573e-17 -17.907617)
(324.01527 7.9349347e-19 -18.755012)
(325.41403 -2.9087587e-17 -17.929713)
(326.00153 -1.746845e-16 -18.294698)
(325.02753 7.9448168e-17 -17.899011)
(324.61084 2.1926402e-16 -18.969266)
(325.09868 -1.416649e-18 -17.895216)
(325.43493 -1.2642878e-16 -18.117548)
(324.85407 6.5365774e-19 -17.871807)
(324.62475 4.9529637e-17 -19.00954)
(324.83251 2.8260369e-18 -17.859982)
(325.0503 -1.0505816e-19 -18.099197)
(324.62584 0 -17.837898)
(324.51801 0 -18.908914)
(324.53607 2.731077e-18 -17.818718)
(324.68596 0 -18.168163)
(324.33752 3.2835387e-18 -17.792971)
(324.3075 2.9725019e-18 -18.74687)
(324.18222 -2.2741364e-17 -17.760792)
(324.30283 0 -18.240011)
(323.9475 -2.7452401e-17 -17.719983)
(323.97621 -1.6206167e-17 -18.563703)
(323.71312 1.0392797e-17 -17.661586)
(323.82398 2.8480645e-17 -18.249938)
(323.40899 3.015102e-17 -17.600481)
(323.49225 -1.2294469e-17 -18.379324)
(323.07623 1.4013999e-17 -17.518856)
(323.20179 1.9057556e-17 -18.191738)
(322.67682 -2.0647178e-17 -17.43138)
(322.79338 2.5112343e-17 -18.208661)
(322.1954 -1.4544769e-17 -17.327595)
(322.36055 -2.6760782e-17 -18.069931)
(321.58341 -1.6619369e-17 -17.178604)
(321.79739 0 -17.969439)
(320.83932 -2.0185794e-17 -16.954265)
(321.13445 3.8489194e-17 -17.74694)
(319.96823 2.265899e-17 -16.573749)
(320.33012 -1.5501361e-17 -17.434706)
(318.96226 3.6991491e-17 -16.033694)
(319.38206 2.4909669e-17 -16.944843)
(317.81038 -2.6538747e-17 -15.296251)
(318.27927 1.0316118e-17 -16.267384)
(316.53956 -4.6488612e-17 -14.338301)
(317.04326 -4.1884292e-17 -15.355519)
(315.19111 -3.9871091e-17 -13.166219)
(315.70878 1.4157336e-17 -14.209579)
(313.82366 -4.9021954e-17 -11.820071)
(314.33308 4.6897231e-17 -12.85576)
(312.49731 -1.2681725e-17 -10.370867)
(312.97806 -9.0151266e-18 -11.362399)
(311.26712 -8.5017581e-17 -8.9058457)
(311.70098 -2.8512657e-17 -9.8171267)
(310.17788 -8.5938172e-17 -7.5079192)
(310.55167 -6.599213e-17 -8.3134228)
(309.25359 -9.4722804e-17 -6.2384979)
(309.56359 0 -6.9288878)
(308.49646 -2.7599154e-17 -5.1302227)
(308.74595 9.6171729e-17 -5.7030154)
(307.89792 -1.0258457e-17 -4.2021936)
(308.09207 1.1128377e-16 -4.6539923)
(307.44665 -1.4327765e-16 -3.3727453)
(307.58134 -1.3666619e-17 -3.8146639)
(307.1132 -1.1616527e-16 -2.6015594)
(307.14762 1.1509614e-17 -3.1427972)
(306.83076 -2.5321271e-16 -2.0450922)
(306.84592 -1.2856555e-16 -2.5156764)
(306.60418 -9.6887783e-17 -1.5832128)
(306.64104 9.0450005e-17 -1.9065189)
(306.4262 -1.9995197e-16 -1.1554584)
(306.48689 1.8796835e-17 -1.3644359)
(306.29606 -2.6841234e-16 -0.72758134)
(306.3452 -2.3511622e-16 -0.90939658)
(306.16668 2.0959918e-16 -0.32606574)
(306.23003 -3.2503979e-16 -0.50736788)
(306.03419 2.6838959e-16 0.066157071)
(306.0866 2.2369517e-16 -0.1012411)
(305.84554 1.2926569e-16 0.17222307)
(305.98786 3.2829183e-17 0.29623806)
(305.73019 -1.1613723e-16 0.41698934)
(305.86211 3.6988109e-16 0.56280687)
(305.60459 -3.8155939e-16 0.61448206)
(305.69911 -9.3333671e-17 0.65980175)
(305.48026 -1.3690354e-16 0.54008042)
(305.51994 -7.2566793e-17 0.63455815)
(305.33548 -2.5115103e-17 0.50758563)
(305.47328 4.8459217e-17 0.54977952)
(305.14957 4.2111829e-17 0.30246319)
(213.56498 -1.7462159e-16 -12.14197)
(198.41385 -3.264208e-16 -11.953295)
(242.37133 9.9553839e-19 -13.84464)
(232.4597 1.1941979e-16 -13.675966)
(264.13689 1.1533464e-18 -15.180824)
(255.35062 -9.7954106e-17 -15.167108)
(284.55766 3.7925089e-19 -16.483721)
(275.97481 -8.3741014e-17 -16.495873)
(305.25558 -3.3911058e-19 -17.856281)
(296.35051 7.1487969e-17 -17.910644)
(320.10976 1.0353851e-18 -18.914816)
(317.47703 -2.984304e-18 -19.291827)
(324.93357 -7.9384318e-17 -19.220108)
(324.07099 1.0551389e-16 -20.104821)
(325.34589 3.715607e-17 -19.242571)
(325.95977 -1.7579504e-16 -19.5937)
(324.96251 4.5180788e-17 -19.214608)
(324.54236 1.4385557e-16 -20.33287)
(325.04295 -9.042154e-17 -19.215313)
(325.39098 -1.1960032e-16 -19.416572)
(324.79956 5.2682049e-17 -19.194711)
(324.56034 -2.0143773e-18 -20.372944)
(324.78394 -2.8740454e-18 -19.184282)
(324.99609 -2.6905571e-18 -19.409927)
(324.57892 0 -19.164087)
(324.45812 3.5972223e-17 -20.263717)
(324.49115 0 -19.14632)
(324.63281 7.4983193e-18 -19.491754)
(324.29176 0 -19.121137)
(324.24862 0 -20.090214)
(324.13608 7.6898438e-18 -19.085377)
(324.23798 0 -19.570736)
(323.90091 3.4877954e-17 -19.047304)
(323.91576 -8.9868926e-18 -19.903416)
(323.66886 9.6016616e-18 -18.99428)
(323.75789 1.3433566e-17 -19.598276)
(323.37994 -2.5726887e-17 -18.938312)
(323.43006 1.29924e-17 -19.747186)
(323.05793 2.9424211e-17 -18.887414)
(323.15156 -6.0457222e-17 -19.582155)
(322.63715 2.3486333e-17 -18.822442)
(322.74311 6.5693475e-17 -19.609204)
(322.11688 -1.4777357e-17 -18.71347)
(322.29899 -5.5008619e-17 -19.468179)
(321.47538 5.0745305e-17 -18.537451)
(321.71913 4.622848e-17 -19.344303)
(320.72519 4.7791586e-17 -18.256856)
(321.03271 1.732409e-17 -19.087471)
(319.84631 -1.6873783e-17 -17.83772)
(320.20226 -1.5223389e-17 -18.732157)
(318.81396 0 -17.236348)
(319.2262 0 -18.188099)
(317.63804 0 -16.41486)
(318.09524 8.6154827e-17 -17.431995)
(316.34619 1.2628298e-17 -15.350563)
(316.83482 0 -16.418004)
(314.98663 9.6608421e-17 -14.055632)
(315.48472 -4.1792183e-19 -15.15036)
(313.6198 9.1743475e-17 -12.578955)
(314.10546 2.0779432e-17 -13.664143)
(312.30572 -2.2738571e-17 -11.000782)
(312.75993 -1.8042582e-17 -12.037627)
(311.0967 -5.8633879e-18 -9.4155028)
(311.50325 -1.4265808e-17 -10.366753)
(310.03328 1.2359602e-17 -7.910916)
(310.38097 1.1104004e-17 -8.7507476)
(309.13555 1.7928486e-16 -6.5501773)
(309.42195 1.4151011e-16 -7.2697843)
(308.40373 2.3236456e-16 -5.3667661)
(308.63242 -2.3428689e-16 -5.9620871)
(307.82395 1.2127122e-16 -4.3767429)
(308.00472 1.7562167e-16 -4.8487435)
(307.39316 1.3746878e-16 -3.4670444)
(307.50274 1.3891732e-16 -3.9618471)
(307.06238 1.5344628e-17 -2.6939722)
(307.08554 -1.1679585e-17 -3.2476799)
(306.79837 1.9051801e-16 -2.1180639)
(306.80888 1.7255844e-17 -2.5813379)
(306.58607 2.1378222e-16 -1.6377283)
(306.61964 -2.6997395e-17 -1.9484831)
(306.41862 1.2301358e-17 -1.1758901)
(306.47261 -9.4591257e-18 -1.3900245)
(306.29134 -2.8158203e-16 -0.73563387)
(306.33515 1.3922381e-17 -0.921143)
(306.16764 -3.7338792e-16 -0.3274082)
(306.22633 -2.684842e-19 -0.5104614)
(306.02705 9.6061082e-18 0.012184247)
(306.09351 -2.5230137e-16 -0.096320449)
(305.87529 2.3081002e-16 0.21266603)
(306.00005 3.689593e-16 0.30125361)
(305.74053 4.4602562e-16 0.41529829)
(305.86752 2.4963865e-16 0.55858062)
(305.59381 2.1546518e-16 0.52184701)
(305.70651 1.9120531e-16 0.64978355)
(305.49883 1.0113712e-16 0.57295569)
(305.52639 4.4758457e-18 0.62601718)
(305.33639 1.1740136e-16 0.46949835)
(305.47346 1.0881378e-16 0.51826879)
(305.15574 1.5834512e-16 0.26399356)
(214.34441 -7.2851799e-17 -13.069797)
(199.05741 5.9694114e-18 -12.8269)
(243.37798 3.9633749e-17 -14.907416)
(233.36751 1.1668858e-16 -14.69958)
(265.32741 -1.8195279e-16 -16.347892)
(256.44353 -9.4096932e-17 -16.303199)
(285.92455 -2.6347645e-17 -17.750316)
(277.25202 -8.2999837e-17 -17.726379)
(306.65536 7.4688093e-17 -19.218482)
(297.81001 7.3184962e-17 -19.261163)
(320.84831 9.0612985e-17 -20.290927)
(318.74793 -3.8272139e-18 -20.688306)
(324.93058 3.3250275e-17 -20.563996)
(324.07452 1.0135599e-16 -21.47774)
(325.29279 -9.651499e-17 -20.587298)
(325.90982 -1.7838953e-16 -20.912451)
(324.90321 3.4969203e-18 -20.559188)
(324.45888 7.5767445e-17 -21.718805)
(324.98502 -4.2441038e-17 -20.561911)
(325.33223 -5.5411141e-17 -20.732714)
(324.73425 -5.6073942e-17 -20.54152)
(324.47855 1.8677246e-18 -21.754183)
(324.71992 3.2237917e-17 -20.529052)
(324.91536 -8.5499688e-20 -20.7395)
(324.51649 4.5552135e-17 -20.510485)
(324.38068 -1.4416327e-18 -21.638273)
(324.42925 8.0940525e-18 -20.491655)
(324.55666 3.0121702e-17 -20.835489)
(324.22822 0 -20.469815)
(324.17407 0 -21.454653)
(324.07411 -1.5586457e-17 -20.435671)
(324.15382 -2.1212485e-17 -20.931122)
(323.85179 -3.1770006e-17 -20.40181)
(323.83601 1.8279274e-17 -21.285917)
(323.63602 1.6787697e-17 -20.375219)
(323.6912 -1.4175009e-17 -21.001453)
(323.34085 -1.4955286e-17 -20.351116)
(323.36987 1.0884964e-17 -21.168606)
(322.98998 -3.5402116e-17 -20.308475)
(323.08545 -3.8675208e-17 -21.014715)
(322.54132 -1.0545655e-18 -20.240735)
(322.67088 6.6754472e-17 -21.032966)
(322.00389 -3.8187358e-18 -20.107348)
(322.20425 -4.0843777e-17 -20.878206)
(321.3615 1.5925753e-17 -19.899435)
(321.60637 -1.6083127e-18 -20.732918)
(320.59817 -4.167874e-17 -19.587211)
(320.89891 4.035327e-17 -20.448715)
(319.68677 0 -19.120557)
(320.04064 -6.4551631e-17 -20.050531)
(318.62553 7.6948202e-17 -18.450782)
(319.03359 0 -19.444637)
(317.42161 9.4062978e-17 -17.536582)
(317.87234 -1.362196e-17 -18.601552)
(316.10944 -1.2819479e-17 -16.357868)
(316.58692 8.8646992e-18 -17.476605)
(314.74056 -7.7244675e-17 -14.933309)
(315.22254 -1.4171886e-17 -16.079597)
(313.37783 -8.3870796e-17 -13.321556)
(313.84284 -6.8136916e-17 -14.455534)
(312.08043 -1.0038682e-17 -11.612397)
(312.51105 -9.0291175e-18 -12.693089)
(310.89729 0 -9.9071962)
(311.2795 0 -10.896445)
(309.86422 1.2570202e-16 -8.2978226)
(310.18891 1.15571e-17 -9.1699589)
(308.99724 -2.2954667e-16 -6.8485256)
(309.26315 -2.9720149e-16 -7.5952262)
(308.29462 -3.3385565e-16 -5.5934736)
(308.50557 -4.3148409e-16 -6.208693)
(307.73536 1.9706307e-16 -4.544375)
(307.90701 -2.3114352e-17 -5.0361186)
(307.32401 7.555207e-18 -3.5708731)
(307.4143 3.1222843e-17 -4.1029165)
(307.00657 -1.2964636e-17 -2.7831407)
(307.02034 -3.878978e-16 -3.3456261)
(306.7635 -1.9356557e-16 -2.1756081)
(306.76769 -2.7947764e-16 -2.6419707)
(306.5557 -2.516553e-16 -1.695274)
(306.59806 -2.1803261e-16 -1.987872)
(306.4031 -1.0467293e-17 -1.1947371)
(306.45463 -3.1274521e-16 -1.4138605)
(306.28382 2.968403e-16 -0.74228939)
(306.32459 6.8017128e-16 -0.93168427)
(306.16764 1.4968488e-16 -0.32798289)
(306.22229 3.3519192e-16 -0.51220224)
(306.02936 3.7626307e-17 0.0012822679)
(306.10156 2.1328637e-16 -0.091353325)
(305.89017 3.992632e-16 0.24149682)
(306.00749 1.3646675e-17 0.30504218)
(305.75081 -2.5542347e-20 0.42432575)
(305.87268 -2.8839988e-20 0.55360945)
(305.60022 0 0.51246248)
(305.71419 0 0.63997297)
(305.50187 0 0.55610118)
(305.53322 -2.765068e-16 0.61578718)
(305.33901 1.4524743e-16 0.42961835)
(305.47222 -3.2464358e-18 0.48635389)
(305.16082 1.6673281e-16 0.2260351)
(215.10442 1.8272186e-16 -14.019789)
(199.69832 6.8230822e-16 -13.721135)
(244.3606 2.4307263e-18 -15.995129)
(234.2672 -4.9704319e-16 -15.746107)
(266.4936 1.6771923e-18 -17.541626)
(257.52726 -1.2602789e-19 -17.465602)
(287.28039 2.0740781e-18 -19.045786)
(278.52099 1.7336778e-16 -18.983221)
(308.00319 2.4894418e-18 -20.607077)
(299.28928 -9.8638882e-20 -20.645957)
(321.49986 -1.5212641e-18 -21.680716)
(319.89528 -1.2779067e-16 -22.100428)
(324.89095 -8.3567465e-17 -21.921493)
(324.03997 1.1572285e-16 -22.867469)
(325.21563 -2.9943952e-17 -21.945394)
(325.84722 -1.8112827e-16 -22.241796)
(324.82078 2.8481311e-17 -21.914914)
(324.34941 1.5091344e-16 -23.118936)
(324.90669 -1.6596802e-17 -21.919585)
(325.25688 -6.5858752e-17 -22.060962)
(324.64252 5.6710048e-17 -21.898512)
(324.37666 1.1150759e-16 -23.152202)
(324.63073 -3.2874894e-17 -21.894233)
(324.83337 -3.8893478e-17 -22.089085)
(324.43927 -1.9039762e-17 -21.880147)
(324.28926 -3.5767332e-17 -23.034242)
(324.35393 2.4608167e-17 -21.862519)
(324.4599 2.2282605e-17 -22.207394)
(324.16419 -1.9044285e-17 -21.83974)
(324.07251 2.5838973e-17 -22.857584)
(324.02511 8.7310561e-18 -21.83022)
(324.07413 -4.219963e-17 -22.343347)
(323.802 3.8109455e-17 -21.826237)
(323.76342 -1.4101517e-18 -22.720643)
(323.56542 -2.1985461e-17 -21.817303)
(323.6175 1.4895315e-17 -22.449693)
(323.24834 -8.2293994e-18 -21.79583)
(323.28954 -2.4081154e-17 -22.618283)
(322.87605 5.257633e-17 -21.751054)
(322.99636 4.0648223e-17 -22.462064)
(322.4169 3.6842471e-17 -21.658911)
(322.56262 -1.22164e-18 -22.467235)
(321.87958 -4.2043795e-17 -21.511859)
(322.08061 4.3139837e-17 -22.304497)
(321.2229 1.8748368e-17 -21.286268)
(321.46467 1.8509696e-18 -22.142774)
(320.43304 2.7098357e-17 -20.938457)
(320.73191 -1.1165209e-16 -21.831542)
(319.49336 -7.0309288e-17 -20.419203)
(319.84319 6.7503899e-17 -21.385684)
(318.39995 -8.7880729e-17 -19.672951)
(318.80229 -9.4948445e-17 -20.710431)
(317.16764 -9.9554919e-17 -18.657338)
(317.60898 -9.6863299e-17 -19.771157)
(315.83539 9.6959086e-18 -17.355725)
(316.29859 8.7346564e-18 -18.526072)
(314.45966 0 -15.794856)
(314.92193 0 -16.991991)
(313.10487 0 -14.043916)
(313.5455 0 -15.225003)
(311.82877 0 -12.202408)
(312.23219 -1.5127418e-16 -13.324504)
(310.67624 1.0274161e-17 -10.378291)
(311.03074 0 -11.402668)
(309.6779 -3.758714e-16 -8.6666044)
(309.97652 1.1448798e-17 -9.5682022)
(308.84553 -4.8332375e-16 -7.1319789)
(309.08815 -4.3416668e-16 -7.9028943)
(308.17556 -1.6643027e-16 -5.8090388)
(308.36626 4.4189389e-16 -6.4411455)
(307.63856 -1.9375704e-16 -4.7046803)
(307.79957 -1.8629478e-16 -5.2146825)
(307.24676 -3.159056e-16 -3.6753207)
(307.31724 3.1421819e-17 -4.2365796)
(306.9472 -6.6530781e-16 -2.869535)
(306.95187 3.5781371e-16 -3.435725)
(306.72206 -3.1067755e-16 -2.2427861)
(306.72387 5.3659687e-16 -2.69751)
(306.52609 -2.684997e-16 -1.7496153)
(306.57474 -3.7492311e-16 -2.0244906)
(306.38818 2.6446385e-16 -1.2118339)
(306.43303 -8.678749e-18 -1.4358727)
(306.27516 7.5788384e-16 -0.74793008)
(306.31388 2.219368e-16 -0.94076711)
(306.16832 4.1303638e-16 -0.32775962)
(306.21796 1.0118939e-17 -0.51251364)
(306.04044 2.1309946e-16 0.015155536)
(306.10843 -4.9946977e-18 -0.086582648)
(305.90566 -3.8580924e-16 0.26595545)
(306.01303 -3.5778958e-16 0.30748978)
(305.76161 -2.3470887e-20 0.42889615)
(305.87807 -2.4364023e-16 0.54807697)
(305.60799 -2.4684332e-16 0.50105654)
(305.72174 0 0.62962182)
(305.50595 -3.1169823e-16 0.53841718)
(305.54039 -2.7954709e-16 0.60370849)
(305.33947 -1.6548895e-18 0.39063891)
(305.46956 2.007152e-16 0.4538886)
(305.16446 -1.5255162e-16 0.18884474)
(215.8554 1.0713439e-16 -14.989001)
(200.3159 5.0508355e-16 -14.632903)
(245.33673 -5.3808214e-16 -17.105838)
(235.14635 -4.8636962e-16 -16.812679)
(267.65613 1.5409132e-16 -18.761311)
(258.59115 -1.6075222e-18 -18.652821)
(288.64744 1.8472604e-16 -20.370635)
(279.77021 -7.3154027e-18 -20.264998)
(309.30499 -1.1741667e-16 -22.021667)
(300.77719 1.5080846e-16 -22.065771)
(322.06336 -3.2250112e-17 -23.087346)
(320.91092 -2.568752e-16 -23.528582)
(324.83056 4.3576637e-17 -23.293698)
(323.95691 2.1986534e-16 -24.277312)
(325.12181 -3.0394027e-17 -23.315979)
(325.76017 -8.4315794e-17 -23.586202)
(324.71515 7.5719918e-17 -23.286579)
(324.23094 7.5128666e-17 -24.541228)
(324.80821 4.540177e-17 -23.291844)
(325.15752 6.1332205e-17 -23.411299)
(324.54695 2.9945166e-17 -23.279768)
(324.27887 4.5709144e-18 -24.579327)
(324.55347 -4.1966003e-17 -23.28555)
(324.74912 -4.3667964e-17 -23.46672)
(324.3673 0 -23.273139)
(324.17423 0 -24.463648)
(324.29091 2.3203731e-17 -23.274527)
(324.36929 1.5711754e-17 -23.624316)
(324.09717 8.6651109e-18 -23.27761)
(323.98395 3.8366775e-17 -24.307346)
(323.9416 -5.5401952e-17 -23.283295)
(323.98945 -2.0985021e-17 -23.798465)
(323.70266 -2.5457278e-17 -23.283717)
(323.67172 -1.6901389e-17 -24.183972)
(323.45022 1.6039552e-17 -23.279547)
(323.52528 1.4578938e-17 -23.914425)
(323.11783 1.8415142e-17 -23.250272)
(323.1808 -7.6071288e-17 -24.075626)
(322.74434 -8.5571857e-18 -23.189682)
(322.87304 4.1213662e-17 -23.920286)
(322.28671 1.2066882e-18 -23.097118)
(322.42984 -1.6205746e-17 -23.920235)
(321.73254 8.9737596e-17 -22.941572)
(321.92937 1.3124069e-17 -23.753943)
(321.05292 -1.163016e-16 -22.694377)
(321.29129 1.0575014e-17 -23.574773)
(320.23462 -8.7725616e-17 -22.308522)
(320.52954 -1.7486145e-16 -23.232948)
(319.26028 5.7806473e-17 -21.729246)
(319.60692 3.7008852e-17 -22.733797)
(318.13271 -1.035876e-16 -20.89791)
(318.5295 3.0174573e-17 -21.98057)
(316.87097 0 -19.771393)
(317.30282 -1.137864e-17 -20.935305)
(315.52012 0 -18.338223)
(315.96822 1.5704704e-16 -19.560541)
(314.14077 0 -16.634537)
(314.58211 1.5044413e-17 -17.881803)
(312.79852 -1.3469869e-16 -14.740846)
(313.21343 -1.9246898e-16 -15.967319)
(311.54887 -1.6631785e-16 -12.766371)
(311.92387 3.1966719e-16 -13.927402)
(310.43195 0 -10.825106)
(310.75782 -1.5011465e-17 -11.881775)
(309.47283 -2.773755e-19 -9.0143101)
(309.74475 3.7703752e-16 -9.9425411)
(308.67894 3.9195569e-16 -7.3982506)
(308.89791 5.8193614e-16 -8.1904611)
(308.04474 4.8916682e-16 -6.011154)
(308.21525 2.3024248e-16 -6.6579612)
(307.53176 1.4022021e-17 -4.8566336)
(307.68315 3.5968153e-20 -5.3826662)
(307.16253 6.6701645e-16 -3.7746821)
(307.21225 7.8097772e-18 -4.3613451)
(306.88386 1.5347345e-15 -2.953813)
(306.88068 -1.8007169e-17 -3.5171719)
(306.67335 5.7333622e-16 -2.3208719)
(306.67918 1.3843994e-15 -2.7478068)
(306.49975 -1.5692285e-16 -1.7784159)
(306.54625 -3.7420234e-16 -2.0577197)
(306.37022 -7.7757661e-17 -1.2268822)
(306.41045 8.7335104e-16 -1.4562303)
(306.26677 -5.017211e-16 -0.75237386)
(306.30228 -4.3038362e-16 -0.94812404)
(306.16824 -4.0704815e-16 -0.32652444)
(306.21339 -1.0068859e-17 -0.51124629)
(306.0505 -5.3646895e-16 0.031476628)
(306.11399 -9.3638349e-16 -0.082125762)
(305.91671 -2.2695417e-16 0.28297269)
(306.01738 -3.6379138e-16 0.30844138)
(305.77177 -2.721788e-16 0.43432129)
(305.88341 -2.2950742e-16 0.54200385)
(305.61542 1.3001288e-20 0.48998569)
(305.72926 -5.7167554e-18 0.61915334)
(305.50901 1.8260505e-16 0.51979203)
(305.54605 2.6964385e-16 0.58966599)
(305.33877 8.8726621e-17 0.35240154)
(305.46558 9.6903712e-18 0.42088147)
(305.16667 -1.6058697e-16 0.15155722)
(216.59538 -1.3485899e-21 -15.977384)
(200.94066 3.5414095e-16 -15.564364)
(246.29727 0 -18.23988)
(236.02042 -2.5776525e-16 -17.899088)
(268.80289 -1.5882343e-16 -20.008197)
(259.64813 2.0876763e-16 -19.86454)
(290.01347 -5.275212e-17 -21.727369)
(281.00602 -3.5247625e-16 -21.571098)
(310.56851 4.6320812e-17 -23.465537)
(302.26764 -4.0391181e-18 -23.523182)
(322.55354 -4.7785046e-17 -24.516803)
(321.80845 5.2444587e-18 -24.97706)
(324.73902 1.1867267e-16 -24.687115)
(323.82449 1.0634904e-16 -25.716915)
(325.03209 6.3086942e-18 -24.710817)
(325.6446 -6.1785731e-18 -24.960576)
(324.62873 6.2152413e-17 -24.685754)
(324.1056 0 -26.004908)
(324.74097 2.5872573e-17 -24.703719)
(325.06839 1.4593861e-18 -24.802208)
(324.50987 -6.3542595e-17 -24.700517)
(324.17294 -4.8151475e-18 -26.046327)
(324.49414 -6.0991236e-18 -24.718479)
(324.67256 -5.5247202e-18 -24.882743)
(324.27447 1.4112536e-17 -24.71903)
(324.06566 9.5717504e-18 -25.929937)
(324.18837 2.872914e-17 -24.731639)
(324.27307 1.5354962e-17 -25.076809)
(323.98412 1.4150568e-17 -24.742636)
(323.88243 2.6166637e-17 -25.780766)
(323.81742 1.6344592e-17 -24.752925)
(323.88699 5.8679087e-20 -25.26745)
(323.56495 1.9692924e-17 -24.753616)
(323.55776 3.6371391e-17 -25.653412)
(323.30908 -6.8150496e-17 -24.73623)
(323.39676 -1.5372692e-17 -25.387408)
(322.98498 -6.3482819e-17 -24.710667)
(323.0494 -4.8713857e-17 -25.547769)
(322.60658 3.8539256e-17 -24.655951)
(322.72852 4.207054e-17 -25.399819)
(322.13069 -7.0163885e-18 -24.560313)
(322.27123 -4.6387924e-19 -25.397716)
(321.55589 -6.4322752e-17 -24.393821)
(321.74923 -2.8635552e-17 -25.226532)
(320.84945 -3.0705506e-17 -24.122416)
(321.08537 -3.5771454e-17 -25.027048)
(319.9977 -7.1120243e-17 -23.692984)
(320.29046 8.1325983e-17 -24.64997)
(318.98694 1.0503797e-17 -23.046299)
(319.33041 5.4201989e-17 -24.09036)
(317.82303 1.2470573e-16 -22.120405)
(318.21387 1.2160385e-16 -23.249794)
(316.53184 1.2771373e-16 -20.87309)
(316.95297 -1.9544448e-16 -22.08809)
(315.16434 1.8531064e-16 -19.299603)
(315.59555 5.0020527e-18 -20.573923)
(313.7853 -1.5503759e-16 -17.446952)
(314.20359 1.4849192e-17 -18.743242)
(312.46068 2.0644449e-16 -15.407629)
(312.84772 1.6929241e-17 -16.677371)