/*--------------------------------*- C++ -*----------------------------------*\
  =========                 |
  \\      /  F ield         | OpenFOAM: The Open Source CFD Toolbox
   \\    /   O peration     | Website:  https://openfoam.org
    \\  /    A nd           | Version:  8
     \\/     M anipulation  |
\*---------------------------------------------------------------------------*/
FoamFile
{
    version     2.0;
    format      ascii;
    class       volScalarField;
    location    "0.18001";
    object      T;
}
// * * * * * * * * * * * * * * * * * * * * * * * * * * * * * * * * * * * * * //

dimensions      [0 0 0 1 0 0 0];

internalField   nonuniform List<scalar> 
20000
(
293.11358
292.96327
292.47514
291.31988
288.87317
283.93779
279.44316
278.80024
279.33868
279.3223
279.73135
279.84696
280.21438
280.4396
280.82262
281.15592
281.59974
282.0508
282.59026
283.17324
283.8364
284.56476
285.36724
286.27539
287.29344
288.38564
289.52245
290.67699
291.82537
292.926
293.94224
294.84705
295.62168
296.26213
296.77546
297.1755
297.47114
297.69399
297.86046
297.94708
297.95972
297.91553
297.84356
297.74888
297.6276
297.5035
297.39403
297.39036
297.30284
297.65408
292.92398
292.75018
292.23639
291.02512
288.47297
283.24074
279.12107
278.55207
279.08946
279.06715
279.47906
279.59476
279.96632
280.19617
280.5844
280.92557
281.37627
281.83699
282.38446
282.97803
283.65528
284.41012
285.27246
286.23612
287.26902
288.37366
289.52436
290.70306
291.86719
292.97615
293.99317
294.89261
295.65846
296.28913
296.79373
297.18425
297.47368
297.71023
297.86602
297.93037
297.93866
297.9003
297.82615
297.73041
297.58552
297.45819
297.39676
297.36659
297.31944
297.66319
292.64062
292.45615
291.90014
290.61094
287.9217
282.37157
278.75184
278.28857
278.8403
278.8207
279.24129
279.36124
279.73834
279.97426
280.36805
280.71756
281.17494
281.64509
282.20241
282.8116
283.51271
284.3036
285.20564
286.19998
287.26333
288.38899
289.5694
290.76749
291.94458
293.05786
294.07149
294.96182
295.71575
296.3342
296.82765
297.20768
297.49334
297.728
297.87063
297.92706
297.93697
297.89281
297.81698
297.71767
297.56733
297.45607
297.39315
297.36704
297.31752
297.66654
292.4351
292.23757
291.64479
290.27777
287.45009
281.61634
278.47205
278.07483
278.63016
278.60698
279.03116
279.15272
279.53357
279.77483
280.17325
280.53013
280.99345
281.47404
282.04606
282.68044
283.41737
284.25233
285.18186
286.19488
287.27551
288.43314
289.63835
290.85671
292.04454
293.15938
294.16647
295.04447
295.78342
296.38693
296.86658
297.23384
297.51728
297.74638
297.87549
297.92048
297.92572
297.88216
297.80389
297.69906
297.5445
297.44228
297.38746
297.35962
297.32323
297.66903
292.22798
292.0142
291.38004
289.92742
286.94701
280.86877
278.22083
277.87366
278.43785
278.41437
278.84474
278.97049
279.35506
279.60258
280.00566
280.37063
280.843
281.34058
281.93635
282.60895
283.3778
284.23116
285.17513
286.20515
287.32372
288.51107
289.74279
290.97856
292.17411
293.28672
294.28332
295.14532
295.86606
296.45188
296.91502
297.26772
297.54931
297.76657
297.88229
297.91909
297.92323
297.87243
297.79182
297.67949
297.53035
297.43517
297.38028
297.35609
297.32853
297.67209
292.0452
291.82021
291.14861
289.60745
286.45782
280.19722
278.01872
277.71045
278.28334
278.25668
278.69202
278.8244
279.20725
279.46154
279.87092
280.24792
280.73637
281.26297
281.88636
282.57873
283.36206
284.22926
285.19387
286.25723
287.40593
288.624
289.87956
291.13054
292.33031
293.43675
294.41888
295.26124
295.96062
296.5261
296.97021
297.30666
297.586
297.78828
297.88996
297.91844
297.91687
297.8624
297.77875
297.65918
297.51677
297.42667
297.37357
297.34947
297.33697
297.67547
291.88222
291.64709
290.93877
289.30545
285.96313
279.61562
277.86072
277.57847
278.172
278.13558
278.5814
278.7035
279.09569
279.35894
279.77925
280.17855
280.68701
281.23101
281.86513
282.57028
283.36435
284.25601
285.2509
286.34434
287.52647
288.77348
290.05126
291.31407
292.5141
293.61005
294.57353
295.39253
296.06748
296.61002
297.03278
297.35214
297.62728
297.81139
297.8983
297.91896
297.91278
297.85351
297.76547
297.63918
297.50488
297.41948
297.36726
297.34348
297.34727
297.67996
291.74914
291.50279
290.75863
289.02955
285.46387
279.08802
277.74387
277.48041
278.06869
278.04976
278.47663
278.61858
279.02892
279.30668
279.73908
280.15048
280.66626
281.22122
281.863
282.58155
283.40149
284.32109
285.34576
286.47227
287.68572
288.96043
290.25753
291.5285
292.72439
293.80528
294.74585
295.53783
296.18537
296.70241
297.10181
297.40454
297.67127
297.83535
297.90704
297.92067
297.90715
297.84529
297.75168
297.61918
297.49297
297.41215
297.36187
297.33854
297.36111
297.68548
291.63394
291.37939
290.60016
288.77451
284.95473
278.62869
277.65708
277.40692
278.00582
277.97954
278.43813
278.58048
279.00011
279.28609
279.72324
280.1432
280.66394
281.22832
281.88824
282.63166
283.47531
284.42421
285.48072
286.63967
287.88437
289.18474
290.49812
291.77308
292.96011
294.02126
294.93466
295.69612
296.31344
296.8025
297.17684
297.46469
297.71681
297.85987
297.91732
297.92391
297.90303
297.83629
297.73756
297.59935
297.48107
297.40504
297.35755
297.33566
297.37789
297.69219
291.55666
291.28798
290.47439
288.55258
284.44619
278.24404
277.64403
277.39396
277.9905
277.97863
278.42563
278.57719
278.99154
279.28398
279.72438
280.15413
280.6877
281.27245
281.95061
282.71723
283.58817
284.56757
285.65628
286.84812
288.12274
289.44649
290.77248
292.04683
293.22
294.25658
295.13863
295.86617
296.45061
296.90928
297.2571
297.53158
297.76347
297.88481
297.92876
297.92828
297.89951
297.8266
297.72297
297.5801
297.46903
297.3981
297.35414
297.33357
297.39729
297.69996
291.48839
291.20955
290.36107
288.34763
283.92336
277.92129
277.63115
277.37444
277.9875
277.96862
278.43166
278.58871
279.00086
279.30483
279.75477
280.20032
280.74687
281.34989
282.04875
282.84115
283.73981
284.7506
285.87226
287.09659
288.39995
289.74435
291.07899
292.34783
293.50203
294.5093
295.35598
296.04648
296.59556
297.02169
297.34213
297.60372
297.81095
297.9098
297.93991
297.93396
297.89596
297.81676
297.7079
297.56211
297.45739
297.39154
297.35131
297.33208
297.41888
297.70864
291.43932
291.1407
290.2536
288.15245
283.38579
277.64512
277.64822
277.37952
277.99654
277.97608
278.45843
278.62397
279.04492
279.35975
279.81791
280.27826
280.83955
281.46338
282.18401
283.00289
283.93088
284.97396
286.12889
287.38532
288.71568
290.0776
291.41643
292.67456
293.80453
294.77775
295.58518
296.2357
296.74704
297.1388
297.43202
297.67934
297.8585
297.93611
297.95343
297.94075
297.89201
297.80636
297.69228
297.54602
297.44675
297.38549
297.3489
297.33083
297.44113
297.71797
291.40211
291.08841
290.15972
287.97309
282.85432
277.44399
277.69646
277.43318
278.04055
278.03894
278.51373
278.69032
279.11739
279.4446
279.91253
280.38966
280.96663
281.6119
282.35562
283.20228
284.16048
285.23654
286.42496
287.71271
289.06808
290.44402
291.78233
293.02443
294.12496
295.05959
295.82419
296.43206
296.90351
297.25965
297.5273
297.75627
297.90555
297.96128
297.9693
297.94718
297.88837
297.79547
297.67607
297.53206
297.4378
297.38014
297.34715
297.33051
297.46488
297.72774
291.39823
291.06151
290.08208
287.80812
282.34053
277.31669
277.76879
277.50443
278.11899
278.12067
278.60075
278.7861
279.2197
279.56037
280.03894
280.53346
281.12742
281.79543
282.56358
283.43907
284.42863
285.53831
286.76026
288.07834
289.45628
290.84229
292.17496
293.39547
294.46132
295.35291
296.07129
296.63401
297.06364
297.38361
297.62829
297.83225
297.95171
297.98752
297.98696
297.95359
297.88474
297.78401
297.65933
297.52
297.43087
297.37621
297.346
297.33316
297.48971
297.73781
291.4064
291.0454
290.00877
287.64409
281.84766
277.25298
277.86704
277.6014
278.22544
278.23941
278.71441
278.91069
279.35129
279.70653
280.19655
280.70973
281.32163
282.01326
282.80691
283.71219
284.73399
285.87774
287.13305
288.4801
289.87784
291.2696
292.59131
293.78468
294.81075
295.65515
296.32426
296.83969
297.22603
297.51016
297.73344
297.90609
297.99671
298.01503
298.00562
297.96011
297.88073
297.77201
297.64237
297.50943
297.42547
297.37403
297.34521
297.33896
297.51536
297.74799
291.44125
291.05004
289.94562
287.47709
281.39011
277.25137
277.99057
277.7258
278.3603
278.37277
278.85642
279.06417
279.51222
279.88283
280.38515
280.91752
281.54849
282.26474
283.08512
284.02122
285.0762
286.25447
287.54278
288.91715
290.33143
291.72418
293.02931
294.1898
295.17099
295.96422
296.58135
297.04758
297.38979
297.63935
297.83976
297.97737
298.04054
298.04496
298.02427
297.9669
297.87635
297.7595
297.62559
297.50017
297.42117
297.37285
297.3444
297.34847
297.54146
297.75811
291.50471
291.07821
289.89423
287.29944
280.98053
277.31178
278.13914
277.87633
278.51985
278.53807
279.02582
279.24611
279.70185
280.0886
280.60368
281.15629
281.80715
282.54886
283.39701
284.36486
285.45381
286.66683
287.98749
289.38713
290.81427
292.20292
293.48565
294.60755
295.53892
296.27748
296.84041
297.25606
297.55407
297.77114
297.94417
298.04576
298.08443
298.07624
298.04246
297.97366
297.87138
297.74652
297.60904
297.49234
297.41868
297.37235
297.34351
297.36376
297.56759
297.76802
291.59079
291.12773
289.85379
287.10068
280.62732
277.4271
278.31288
278.05348
278.70127
278.72901
279.22231
279.45568
279.9193
280.32267
280.85138
281.42465
282.09661
282.86483
283.74204
284.74267
285.8664
287.11434
288.46644
289.88889
291.3247
292.70373
293.95792
295.03533
295.91211
296.59293
297.09991
297.46407
297.71847
297.90472
298.04403
298.11131
298.12969
298.10758
298.05972
297.97929
297.86576
297.73314
297.59284
297.48533
297.41739
297.37249
297.34423
297.38603
297.59325
297.77756
291.6985
291.20272
289.83047
286.87814
280.3433
277.56964
278.51285
278.257
278.90975
278.94644
279.44429
279.69136
280.16309
280.58391
281.12688
281.72196
282.41604
283.21171
284.11911
285.15343
286.31261
287.59533
288.97762
290.41989
291.85975
293.22321
294.44253
295.46961
296.2876
296.90836
297.35811
297.6705
297.88239
298.03692
298.13868
298.17514
298.17636
298.13797
298.07569
297.98216
297.85945
297.71938
297.57746
297.4783
297.41671
297.37526
297.34731
297.41512
297.61794
297.78665
291.82609
291.2986
289.82306
286.6217
280.12962
277.7477
278.73494
278.48345
279.14029
279.18727
279.69007
279.9518
280.43222
280.87123
281.42959
282.04708
282.76461
283.58889
284.52778
285.5968
286.79207
288.1093
289.5201
290.97878
292.41747
293.75895
294.93669
295.90779
296.66357
297.2225
297.61381
297.87451
298.04501
298.16427
298.22858
298.23923
298.2225
298.16727
298.09032
297.98381
297.85238
297.70524
297.56399
297.47159
297.41637
297.38015
297.3527
297.44838
297.64143
297.7953
291.97207
291.41414
289.83324
286.32797
279.9922
278.00129
278.9775
278.73166
279.39284
279.45115
279.95893
280.23624
280.72583
281.18392
281.7585
282.3996
283.14171
283.99563
284.96718
286.07177
287.3035
288.65459
290.09178
291.56283
292.99459
294.30724
295.43663
296.3469
297.03828
297.53384
297.86532
298.07462
298.20434
298.28475
298.31527
298.30362
298.26706
298.19529
298.10388
297.98467
297.84447
297.69074
297.55336
297.46684
297.41661
297.38615
297.36114
297.48579
297.66385
297.80346
292.1384
291.55165
289.86412
285.99895
279.92431
278.25492
279.24094
279.0017
279.66683
279.73739
280.25015
280.54389
281.04329
281.52124
282.11323
282.77867
283.54677
284.43156
285.43706
286.5781
287.84656
289.23062
290.6916
292.17041
293.58881
294.86525
295.9397
296.78546
297.41101
297.84098
298.1111
298.26925
298.35723
298.39916
298.4009
298.36607
298.30979
298.22194
298.11699
297.98512
297.83553
297.67608
297.54533
297.46457
297.41742
297.39194
297.37455
297.52492
297.68596
297.81132
292.3188
291.70519
289.91153
285.63732
279.92297
278.52258
279.5246
279.29265
279.96137
280.04508
280.56302
280.87408
281.38407
281.88267
282.49317
283.18404
283.9794
284.89617
285.93677
287.11496
288.42009
289.83578
291.31732
292.79855
294.19644
295.42908
296.44301
297.22208
297.77981
298.1409
298.34895
298.45657
298.5026
298.50963
298.48428
298.42597
298.35031
298.24705
298.13016
297.98468
297.8253
297.66167
297.53851
297.46346
297.41958
297.3965
297.39459
297.5646
297.70763
297.81887
292.51774
291.87671
289.97468
285.25419
279.99762
278.81647
279.8266
279.60337
280.27541
280.3738
280.897
281.22656
281.74769
282.26785
282.89797
283.61521
284.4393
285.38933
286.46622
287.6822
289.02379
290.46938
291.96765
293.44516
294.81472
295.99606
296.94536
297.65611
298.14143
298.43044
298.57715
298.63597
298.64191
298.6167
298.56397
298.48294
298.3884
298.27029
298.14309
297.98268
297.81341
297.64767
297.53228
297.46307
297.42357
297.40212
297.42131
297.60377
297.72867
297.82612
292.72794
292.05877
290.04253
284.84581
280.13462
279.12945
280.14736
279.93405
280.60936
280.7234
281.25205
281.60079
282.13388
282.67633
283.32734
284.07211
284.92631
285.91075
287.02496
288.27912
289.65657
291.12971
292.64005
294.10676
295.43975
296.56323
297.44549
298.08458
298.49085
298.70708
298.79532
298.80838
298.77579
298.71849
298.6399
298.53674
298.42393
298.29127
298.15377
297.97918
297.79947
297.63461
297.52702
297.46411
297.42977
297.40925
297.46013
297.64125
297.74894
297.83314
292.96645
292.26179
290.12007
284.44472
280.33872
279.46475
280.48755
280.28463
280.96281
281.09329
281.62757
281.99628
282.54219
283.10788
283.78114
284.55456
285.4404
286.46046
287.61304
288.90569
290.3181
291.81585
293.33271
294.78069
296.0688
297.12931
297.94246
298.50225
298.82534
298.97038
299.00554
298.97341
298.90269
298.81519
298.71165
298.58722
298.45695
298.31004
298.1586
297.97427
297.78364
297.62336
297.52315
297.46711
297.43795
297.4173
297.50251
297.67652
297.76866
297.84012
293.21322
292.47391
290.19061
284.05523
280.59906
279.81782
280.84475
280.65386
281.3347
281.48284
282.02306
282.41268
282.97252
283.56242
284.2594
285.06271
285.98155
287.03839
288.23015
289.56134
291.00718
292.52576
294.04247
295.46312
296.69862
297.69294
298.4321
298.90391
299.14272
299.22288
299.20687
299.12954
299.0227
298.90631
298.77909
298.63423
298.48752
298.3274
298.1613
297.96788
297.76714
297.61413
297.52111
297.47033
297.44664
297.4266
297.54957
297.70946
297.78831
297.84746
293.48113
292.70326
290.25222
283.69879
280.91425
280.18989
281.2197
281.04185
281.72486
281.89182
282.43841
282.85002
283.42497
284.04011
284.76222
285.59655
286.54989
287.64474
288.87652
290.24601
291.72329
293.25803
294.76693
296.15122
297.32762
298.25321
298.90849
299.28631
299.44476
299.46609
299.39715
299.27682
299.13545
298.99181
298.84203
298.67763
298.51564
298.34423
298.16253
297.95974
297.75146
297.60637
297.51994
297.47331
297.45404
297.4383
297.59553
297.74095
297.8083
297.85586
293.76157
292.94734
290.29623
283.39932
281.27775
280.57894
281.61113
281.44771
282.13287
282.32018
282.87387
283.30851
283.89979
284.54102
285.2897
286.15631
287.14564
288.27961
289.55197
290.95906
292.46496
294.00999
295.50237
296.84154
297.95409
298.80576
299.36578
299.6478
299.73523
299.69643
299.57642
299.41484
299.24087
299.07154
298.90043
298.71736
298.54103
298.36053
298.16305
297.94924
297.73773
297.59992
297.51943
297.47656
297.45956
297.45473
297.6377
297.76983
297.82826
297.86579
294.0536
293.20423
290.31262
283.17467
281.65414
280.98485
282.01911
281.87221
282.5595
282.76857
283.32993
283.78834
284.39702
285.0652
285.84196
286.74224
287.76917
288.94345
290.25676
291.70034
293.23118
294.7795
296.24597
297.53209
298.57726
299.34403
299.80059
299.99195
300.01278
299.91344
299.74427
299.54361
299.3389
299.14548
298.95426
298.75347
298.56339
298.3739
298.16186
297.936
297.72659
297.59501
297.51972
297.48075
297.46549
297.47822
297.67444
297.7946
297.84607
297.87856
294.34136
293.46842
290.29413
283.00297
282.05793
281.40893
282.44525
282.3164
283.00529
283.2371
283.8064
284.28931
284.91648
285.61278
286.41933
287.35493
288.42102
289.63653
290.99077
292.46893
294.01983
295.56305
296.99411
298.22059
299.19359
299.86109
300.21078
300.32232
300.2745
300.11655
299.90062
299.66306
299.42955
299.21365
299.00355
298.78616
298.58299
298.37982
298.15865
297.92071
297.7172
297.59241
297.52162
297.4866
297.4728
297.51062
297.70567
297.81643
297.8625
297.89151
294.63852
293.74948
290.24762
282.90107
282.48656
281.85194
282.88925
282.77946
283.46977
283.72486
284.30298
284.81105
285.45848
286.18416
287.02259
287.99507
289.10188
290.35944
291.75416
293.26428
294.82909
296.35793
297.74436
298.90613
299.79624
300.3533
300.60036
300.63697
300.51993
300.30577
300.04553
299.7733
299.51291
299.27608
299.04832
298.8156
298.60111
298.38298
298.15328
297.90383
297.70858
297.59103
297.52522
297.49433
297.48035
297.54627
297.73367
297.83635
297.87773
297.90363
294.93449
294.0375
290.1729
282.87664
282.93501
282.31183
283.34925
283.26016
283.95176
284.23157
284.81947
285.35407
286.02363
286.78042
287.65266
288.66371
289.81245
291.11244
292.5466
294.0848
295.65595
297.16032
298.49387
299.58596
300.37755
300.81742
300.97307
300.93301
300.74859
300.48097
300.17904
299.87443
299.58909
299.33291
299.08865
298.84178
298.61854
298.38425
298.14523
297.88605
297.70033
297.59049
297.53053
297.50365
297.4891
297.58143
297.76019
297.85487
297.89181
297.91478
295.22931
294.33976
290.06529
282.93357
283.40037
282.78754
283.82485
283.75827
284.45149
284.75772
285.35681
285.91944
286.61325
287.4027
288.31072
289.36169
290.55348
291.89603
293.36789
294.92916
296.4978
297.9676
299.24102
300.25453
300.93244
301.25646
301.32797
301.20961
300.96058
300.64239
300.30141
299.96666
299.65828
299.38426
299.12468
298.86456
298.63378
298.38471
298.13365
297.86859
297.69282
297.59059
297.53694
297.51437
297.49855
297.61698
297.7856
297.87221
297.90486
297.92513
295.51017
294.64343
289.93577
283.07659
283.88418
283.28004
284.3172
284.27517
284.97028
285.30469
285.91657
286.50862
287.22868
288.0523
288.99774
290.09002
291.32556
292.71027
294.21703
295.7948
297.35092
298.77643
299.98349
300.90333
301.45645
301.67462
301.66175
301.46638
301.15583
300.79015
300.41284
300.05024
299.72067
299.43031
299.15673
298.88426
298.64223
298.38281
298.11798
297.85271
297.68665
297.59193
297.54356
297.52547
297.50895
297.65285
297.81007
297.88864
297.91714
297.93479
295.78678
294.94875
289.79321
283.30611
284.38402
283.79085
284.82753
284.81241
285.50991
285.8742
286.50047
287.1231
287.87117
288.73025
289.71479
290.84944
292.12935
293.55534
295.0931
296.67939
298.21238
299.58464
300.7181
301.52532
301.9499
302.07344
301.97278
301.70348
301.33474
300.9247
300.51375
300.12551
299.77653
299.47121
299.18505
298.90219
298.64647
298.37844
298.09891
297.83873
297.68188
297.59437
297.55017
297.53487
297.52271
297.68859
297.83343
297.90417
297.92873
297.9438
296.06097
295.25204
289.65632
283.62258
284.90221
284.32199
285.35787
285.37196
286.07257
286.4678
287.10995
287.7638
288.54171
289.43756
290.46277
291.64097
292.96537
294.43079
295.99409
297.57935
299.07848
300.38931
301.43585
302.11538
302.41732
302.44891
302.26081
301.92091
301.49755
301.04637
300.60451
300.19285
299.82615
299.50721
299.20987
298.91923
298.64843
298.37174
298.0781
297.82611
297.67833
297.5976
297.55661
297.54329
297.54118
297.72319
297.85533
297.91863
297.93951
297.95225
296.3354
295.54482
289.5417
284.01372
285.44052
284.87674
285.91004
285.9559
286.65921
287.08645
287.74541
288.43162
289.24114
290.17532
291.24287
292.46544
293.83414
295.33619
296.9181
298.49168
299.94652
301.18818
302.12887
302.67025
302.86352
302.79838
302.52599
302.1192
301.64485
301.15577
300.68567
300.25261
299.86976
299.53859
299.2314
298.9337
298.64944
298.36279
298.05633
297.8148
297.67602
297.60152
297.56363
297.55203
297.56692
297.75485
297.87535
297.93178
297.94937
297.95991
296.61324
295.81926
289.46873
284.42106
286.00086
285.45625
286.48551
286.56376
287.27003
287.72993
288.40752
289.12734
289.97071
290.94488
292.05621
293.32393
294.73575
296.27017
297.8619
299.41249
300.81286
301.97465
302.78944
303.19367
303.28423
303.12152
302.76835
302.29865
301.77712
301.25342
300.75765
300.30507
299.90757
299.5658
299.25042
298.9407
298.64923
298.35117
298.03438
297.80457
297.67454
297.60609
297.57213
297.5617
297.60139
297.78259
297.89336
297.94372
297.9583
297.96676
296.90528
296.0674
289.45027
284.89205
286.57973
286.05724
287.08219
287.19463
287.90498
288.39897
289.09748
289.8525
290.73193
291.74773
292.90418
294.21703
295.67015
297.23114
298.8226
300.33877
301.67527
302.74
303.41292
303.69044
303.67702
303.41836
302.9885
302.46007
301.89518
301.33997
300.82082
300.35035
299.93973
299.58921
299.26814
298.94431
298.64635
298.33578
298.01356
297.7954
297.67357
297.61164
297.58242
297.57087
297.63622
297.80849
297.90977
297.95454
297.96643
297.97304
297.20755
296.27338
289.49459
285.48862
287.17702
286.6801
287.70035
287.84991
288.56575
289.09534
289.81716
290.6089
291.52662
292.58545
293.78782
295.14556
296.63654
298.21641
299.79602
301.26648
302.52933
303.47458
303.99821
304.16093
304.03953
303.68899
303.18687
302.6041
301.99965
301.4159
300.87541
300.38867
299.96666
299.60924
299.28375
298.94581
298.64079
298.31566
297.99504
297.78779
297.67434
297.61876
297.59416
297.58115
297.67172
297.83309
297.92491
297.96435
297.97372
297.97867
297.53091
296.43357
289.6146
286.06951
287.79541
287.32809
288.3432
288.532
289.25451
289.82109
290.56855
291.39856
292.35646
293.45958
294.70838
296.1096
297.63382
299.22323
300.77887
302.19226
303.36711
304.17209
304.55044
304.60152
304.37225
303.93408
303.36445
302.73173
302.09135
301.48167
300.92175
300.42068
299.9893
299.62657
299.29345
298.94667
298.6324
298.29233
297.97834
297.78201
297.67704
297.62707
297.60692
297.59173
297.7073
297.8564
297.93875
297.97336
297.98009
297.98352
297.87931
296.54407
289.8212
286.67655
288.43611
288.00354
289.01213
289.24266
289.97336
290.57822
291.35374
292.22332
293.22327
294.37151
295.66673
297.10922
298.65989
300.24763
301.76688
303.11181
304.17775
304.82677
305.07457
305.0082
304.675
304.15416
303.52199
302.84369
302.17077
301.53768
300.96062
300.44785
300.00907
299.64208
299.2987
298.94619
298.62162
298.26688
297.96344
297.7785
297.68153
297.63593
297.61926
297.60321
297.74246
297.87788
297.95114
297.98116
297.98556
297.9876
298.25197
296.60252
290.11326
287.3272
289.10125
288.70797
289.70957
289.98413
290.72456
291.36879
292.17463
293.085
294.12852
295.32265
296.6636
298.14344
299.71225
301.28607
302.7563
304.02035
304.95179
305.44238
305.56654
305.38132
304.94863
304.35038
303.66067
302.94087
302.23851
301.58472
300.99365
300.47189
300.02675
299.65476
299.30156
298.94404
298.60886
298.24015
297.95001
297.77642
297.68715
297.64468
297.63069
297.61847
297.77573
297.89696
297.9618
297.9878
297.99032
297.99109
298.63637
296.62668
290.49357
288.01605
289.79309
289.44336
290.43813
290.75837
291.50993
292.19467
293.0329
293.98545
295.07384
296.31425
297.69926
299.21112
300.78728
302.33388
303.74211
304.90615
305.68222
306.02303
306.02273
305.72042
305.19364
304.5236
303.78126
303.02381
302.29525
301.62416
301.0227
300.49315
300.04091
299.66109
299.30378
298.94011
298.59391
298.213
297.93771
297.77481
297.69326
297.65371
297.64251
297.6409
297.80524
297.91339
297.97083
297.99347
297.99439
297.99411
299.05285
296.61742
290.94997
288.7402
290.51365
290.21172
291.19856
291.56659
292.33156
293.05727
293.93066
294.92636
296.06098
297.34748
298.77364
300.30976
301.88113
303.387
304.7198
305.7592
306.36666
306.57079
306.44078
306.02647
305.41138
304.67515
303.88476
303.09345
302.34251
301.65801
301.04819
300.50832
300.0475
299.66425
299.30531
298.93394
298.57536
298.18702
297.92641
297.77323
297.69972
297.6645
297.65479
297.67201
297.82967
297.92755
297.97869
297.99823
297.99742
297.99602
299.52171
296.5954
291.48556
289.50244
291.26371
291.01494
291.99285
292.41045
293.19098
293.95878
294.86978
295.91014
297.09178
298.42334
299.88584
301.43646
302.98901
304.43954
305.68031
306.56865
307.00907
307.08035
306.82068
306.29993
305.60278
304.8059
303.97197
303.15118
302.38241
301.68751
301.06692
300.5147
300.04989
299.66545
299.30559
298.92519
298.55155
298.16362
297.91635
297.77236
297.70628
297.67581
297.66706
297.70562
297.85223
297.94024
297.98539
298.00192
297.99977
297.99765
300.04315
296.56207
292.08795
290.30106
292.04395
291.85385
292.8221
293.29162
294.09045
294.90164
295.85296
296.93918
298.1681
299.5423
301.03417
302.58692
304.1063
305.48638
306.61171
307.32823
307.61582
307.54783
307.16309
306.54228
305.76935
304.91712
304.04449
303.19942
302.41675
301.71107
301.07559
300.51693
300.04983
299.66588
299.30453
298.91384
298.52376
298.1419
297.90787
297.77291
297.71359
297.6886
297.67892
297.73686
297.8732
297.9517
297.99106
298.00494
298.0016
297.99861
300.62655
296.53092
292.75581
291.1373
292.85748
292.73075
293.68954
294.21246
295.0331
295.889
296.88318
298.01618
299.29143
300.70398
302.21552
303.75662
305.22683
306.51992
307.50114
308.03926
308.18153
307.97253
307.46853
306.75451
305.91209
305.01004
304.10452
303.24029
302.4444
301.72355
301.0794
300.51711
300.04856
299.66547
299.30229
298.90015
298.49292
298.12165
297.90131
297.77559
297.72215
297.70248
297.68918
297.76832
297.8925
297.96185
297.99585
298.00735
298.00308
297.99962
301.27665
296.55055
293.48808
292.01153
293.70495
293.64803
294.59842
295.17657
296.0229
296.9248
297.96376
299.14356
300.46269
301.90687
303.42609
304.93966
306.34428
307.52863
308.33975
308.70707
308.70266
308.35496
307.73854
306.93835
306.03267
305.08691
304.15486
303.27345
302.46085
301.72957
301.08074
300.51556
300.04589
299.66403
299.29908
298.88462
298.45972
298.10308
297.89667
297.78048
297.73169
297.71698
297.69953
297.79853
297.90985
297.97071
297.99986
298.00929
298.00433
298.00013
301.989
296.57618
294.28688
292.92997
294.59112
294.61001
295.55426
296.18835
297.06472
298.01287
299.09801
300.32313
301.68166
303.14813
304.66053
306.13012
307.45067
308.49832
309.12283
309.33226
309.17549
308.69556
307.97419
307.0951
306.13293
305.1504
304.1961
303.2946
302.46876
301.73205
301.08004
300.51151
300.04135
299.66157
299.2949
298.86705
298.42529
298.08678
297.89428
297.78689
297.74133
297.73134
297.71319
297.82643
297.92503
297.97837
298.00323
298.01099
298.00537
298.00049
302.7592
296.60907
295.14927
293.90246
295.5217
295.62224
296.562
297.25334
298.16231
299.15742
300.28798
301.55575
302.94687
304.42361
305.91287
307.32001
308.53621
309.41659
309.85494
309.90952
309.60098
308.99589
308.17748
307.22689
306.21581
305.20315
304.22538
303.30494
302.47207
301.73206
301.07635
300.50526
300.03533
299.65818
299.28933
298.84567
298.3924
298.07259
297.89298
297.79384
297.75221
297.74548
297.73107
297.851
297.93799
297.98498
298.00621
298.01247
298.00624
298.00077
303.60296
296.69353
296.05405
294.92976
296.50649
296.68999
297.62855
298.37544
299.31983
300.36085
301.5354
302.84101
304.25538
305.72779
307.17585
308.50092
309.5844
310.2743
310.54132
310.43279
309.97913
309.2571
308.34997
307.33594
306.28395
305.24442
304.24037
303.30931
302.47222
301.72896
301.07014
300.49706
300.02799
299.65387
299.28197
298.81829
298.36387
298.06011
297.89224
297.8002
297.7613
297.75927
297.7537
297.87138
297.94916
297.99073
298.00877
298.01366
298.00699
298.00104
304.50318
296.86622
297.01373
296.01094
297.55042
297.81711
298.75832
299.55855
300.53956
301.62522
302.84048
304.17745
305.60294
307.05389
308.44122
309.66192
310.58084
311.07441
311.17505
310.90306
310.31164
309.48143
308.4943
307.42557
306.33887
305.26881
304.2472
303.30977
302.46886
301.72282
301.06162
300.48723
300.01958
299.6486
299.27302
298.78728
298.33791
298.04903
297.89247
297.80763
297.77111
297.77256
297.7783
297.88988
297.95904
297.99578
298.01103
298.01477
298.00776
298.00134
305.43016
297.1244
298.05365
297.15914
298.65463
299.00604
299.95339
300.80499
301.82339
302.95138
304.2034
305.56221
306.9836
308.39381
309.69822
310.78696
311.51333
311.82157
311.74991
311.31985
310.59967
309.67077
308.61305
307.49854
306.37863
305.28088
304.2491
303.30602
302.46188
301.71409
301.05121
300.47608
300.0103
299.64249
299.26295
298.75339
298.31395
298.03911
297.89372
297.81624
297.78196
297.78527
297.80213
297.90653
297.9679
298.00014
298.01287
298.01562
298.00845
298.00168
306.38299
297.50844
299.14629
298.37787
299.82433
300.25864
301.21601
302.11753
303.17326
304.34098
305.62273
306.99112
308.3899
309.73773
310.93494
311.85894
312.38127
312.51131
312.26504
311.68505
310.8459
309.82834
308.70979
307.55618
306.40105
305.28623
304.24628
303.29798
302.45187
301.7031
301.03921
300.46393
300.00043
299.63577
299.25273
298.71674
298.29164
298.03051
297.89624
297.82632
297.79443
297.798
297.82851
297.92144
297.9756
298.00366
298.01425
298.01616
298.00908
298.00212
307.29815
298.09951
300.29078
299.65935
301.05842
301.5759
302.54944
303.49921
304.59251
305.7946
307.09655
308.45746
309.81219
311.07321
312.1346
312.86328
313.1881
313.13612
312.71999
311.99987
311.05261
309.95744
308.7875
307.5947
306.41199
305.28595
304.23824
303.2864
302.43921
301.69024
301.02595
300.45108
299.99031
299.62858
299.24235
298.67773
298.27139
298.02362
297.90017
297.83769
297.80882
297.81171
297.85061
297.93485
297.98227
298.00656
298.01533
298.01638
298.0096
298.00267
308.08227
298.99866
301.50342
301.01564
302.3649
302.96685
303.96637
304.95494
306.08398
307.31226
308.61925
309.95233
311.23837
312.38554
313.27781
313.7952
313.93119
313.6937
313.11659
312.26739
311.22363
310.06216
308.84792
307.61591
306.41594
305.27978
304.22612
303.27183
302.42439
301.67578
301.01167
300.43777
299.98025
299.62063
299.22918
298.63878
298.25382
298.01922
297.90538
297.84981
297.82391
297.82336
297.87297
297.94667
297.98792
298.00872
298.01607
298.01646
298.00975
298.00287
308.77325
300.17506
302.79855
302.46265
303.75789
304.45435
305.45236
306.49127
307.64872
308.89058
310.18247
311.46303
312.65337
313.65646
314.34668
314.65829
314.60135
314.18351
313.45624
312.49042
311.36261
310.1446
308.88582
307.62627
306.41337
305.26839
304.21044
303.25486
302.40781
301.66005
300.99663
300.42424
299.97035
299.61153
299.20928
298.60396
298.23881
298.01661
297.91167
297.86213
297.83887
297.83101
297.89382
297.95684
297.99272
298.01034
298.0165
298.01599
298.00943
298.00272
309.41445
301.62185
304.18231
304.00408
305.24592
306.00306
307.03539
308.11143
309.28553
310.52039
311.77318
312.97379
314.03859
314.86348