/*--------------------------------*- C++ -*----------------------------------*\
  =========                 |
  \\      /  F ield         | OpenFOAM: The Open Source CFD Toolbox
   \\    /   O peration     | Website:  https://openfoam.org
    \\  /    A nd           | Version:  8
     \\/     M anipulation  |
\*---------------------------------------------------------------------------*/
FoamFile
{
    version     2.0;
    format      ascii;
    class       volVectorField;
    location    "0.18001";
    object      U;
}
// * * * * * * * * * * * * * * * * * * * * * * * * * * * * * * * * * * * * * //

dimensions      [0 1 -1 0 0 0 0];

internalField   nonuniform List<vector> 
20000
(
(204.75095 -3.1810956e-16 -9.4572769)
(239.1199 4.6144626e-16 -10.71624)
(261.68709 -1.8706708e-16 -11.848813)
(281.24131 6.204282e-19 -12.854139)
(299.14264 5.2553435e-19 -13.832891)
(315.00773 1.1758904e-16 -14.742758)
(320.72094 -9.833923e-17 -15.358311)
(322.12164 8.2449541e-17 -14.97207)
(321.11413 -2.0770932e-16 -15.496536)
(321.4677 1.1446162e-16 -14.777862)
(320.7442 -1.4902136e-18 -15.499043)
(320.70204 -2.4801364e-18 -14.707179)
(320.01224 -1.9372035e-18 -15.381809)
(319.62822 -3.4396829e-18 -14.703834)
(318.84748 0 -15.190906)
(318.12549 -2.985147e-19 -14.696686)
(317.11579 3.1792153e-17 -14.966042)
(316.00566 -2.628397e-17 -14.629984)
(314.64215 0 -14.708988)
(313.07149 0 -14.455646)
(311.22901 0 -14.380058)
(309.0929 1.5521491e-18 -14.125291)
(306.6235 3.0796627e-17 -13.927841)
(303.74028 -1.4642815e-17 -13.67295)
(300.49803 1.3829012e-17 -13.373314)
(296.93389 -2.559496e-17 -12.91319)
(293.14512 -1.869052e-17 -12.324469)
(289.20975 4.4918285e-17 -11.575814)
(285.24707 -2.9948391e-17 -10.67674)
(281.40375 4.8250596e-18 -9.6424676)
(277.8136 -3.836024e-18 -8.5192685)
(274.5762 -2.4307441e-17 -7.3682885)
(271.76194 -1.9154163e-17 -6.2555862)
(269.3936 2.9231355e-17 -5.2354139)
(267.46458 -2.8201119e-18 -4.3370309)
(265.94676 3.6604358e-17 -3.5709937)
(264.80295 -5.2025088e-17 -2.9490832)
(263.88064 -1.9552355e-17 -2.4527554)
(263.21231 -1.4682766e-16 -1.9958763)
(262.82261 6.502782e-17 -1.5320496)
(262.64036 1.4428744e-16 -1.1087952)
(262.58937 7.3905609e-19 -0.74986946)
(262.62928 -1.7407788e-17 -0.42274979)
(262.71274 1.2838453e-17 -0.092344043)
(262.89497 -7.5765052e-17 0.24250359)
(263.05464 -9.8340945e-17 0.48757945)
(263.09721 -9.8468794e-18 0.5878683)
(262.89327 0 0.56345823)
(262.95704 0 0.54419994)
(261.90835 0 0.34380387)
(205.56383 6.3914016e-19 -10.278991)
(240.18875 0 -11.677767)
(263.06315 0 -12.924775)
(282.82303 1.6211955e-16 -14.001837)
(300.78494 6.0949213e-19 -15.047748)
(316.50148 -8.5554792e-19 -15.986391)
(321.49385 -1.0182538e-16 -16.600208)
(322.81629 -8.133835e-17 -16.179368)
(321.77831 2.0923247e-16 -16.784947)
(322.14219 -2.3308819e-16 -16.01688)
(321.39336 1.0165781e-16 -16.814809)
(321.35148 8.344748e-17 -15.971099)
(320.64013 -6.5176323e-17 -16.69844)
(320.2448 3.5072704e-18 -15.983761)
(319.44242 -5.8230538e-18 -16.498891)
(318.69932 0 -15.983777)
(317.66549 -3.2313041e-17 -16.259751)
(316.52885 2.6708249e-17 -15.90827)
(315.13595 4.4573208e-17 -15.977638)
(313.52664 -7.3670153e-17 -15.711413)
(311.62479 4.5611295e-17 -15.627235)
(309.39187 2.5316197e-17 -15.375044)
(306.76555 -3.1082284e-17 -15.179256)
(303.74636 3.4229699e-17 -14.897096)
(300.43415 -1.4047812e-17 -14.547062)
(296.82028 -4.5965268e-17 -14.029578)
(292.9673 1.8712124e-17 -13.36761)
(288.96759 9.1237362e-17 -12.532404)
(284.96518 -2.4264203e-17 -11.530472)
(281.10969 7.8324425e-17 -10.383845)
(277.53344 3.1242925e-17 -9.1459392)
(274.33029 -2.4363479e-17 -7.8841264)
(271.56021 1.3401828e-16 -6.6695348)
(269.23733 -1.4970252e-17 -5.5600203)
(267.3489 2.2778089e-16 -4.5851557)
(265.86962 -1.5609571e-16 -3.7546948)
(264.74406 0 -3.0863625)
(263.80572 7.8699748e-17 -2.5559141)
(263.17844 3.8156549e-16 -2.0666001)
(262.83827 8.7089385e-17 -1.5770829)
(262.65972 -1.4476173e-16 -1.1353377)
(262.6074 2.3685911e-17 -0.76390564)
(262.65382 -1.7049485e-20 -0.43012824)
(262.74637 -1.282581e-17 -0.093204444)
(262.97428 9.4442499e-17 0.2463274)
(263.11698 -1.397494e-16 0.48743198)
(263.0864 1.8749926e-16 0.57910437)
(262.94441 1.3340025e-16 0.55667412)
(262.9274 -1.0209157e-16 0.51431753)
(261.90846 -7.9526559e-17 0.30967918)
(206.71834 -6.5234533e-19 -11.170854)
(241.73401 0 -12.731918)
(264.81137 0 -14.091497)
(284.69714 1.6589357e-16 -15.261735)
(302.65929 -1.4139662e-16 -16.400198)
(318.04377 1.8872553e-18 -17.376026)
(322.2208 1.5972926e-18 -17.982116)
(323.44538 -1.7339465e-16 -17.505276)
(322.37461 1.4464669e-16 -18.159387)
(322.74602 0 -17.321301)
(321.9711 -3.0908044e-18 -18.174384)
(321.92715 5.1292628e-18 -17.272995)
(321.19501 0 -18.040755)
(320.78727 0 -17.292164)
(319.96458 5.9326863e-18 -17.828078)
(319.2011 0 -17.294431)
(318.14515 -4.920401e-17 -17.570292)
(316.98041 -1.4034684e-19 -17.206324)
(315.54847 2.2512383e-17 -17.267059)
(313.87804 3.7560234e-17 -16.997958)
(311.88351 -1.5246491e-17 -16.916276)
(309.5268 -2.5484221e-17 -16.67349)
(306.79025 0 -16.469099)
(303.69276 -3.4783003e-17 -16.145064)
(300.3053 0 -15.733859)
(296.60903 4.6662562e-17 -15.154453)
(292.67021 1.9125139e-17 -14.416493)
(288.60782 -7.6830672e-17 -13.486493)
(284.57051 0 -12.374844)
(280.71128 -7.9312041e-17 -11.110173)
(277.15941 0 -9.7539845)
(274.00176 -2.4899202e-17 -8.3802055)
(271.28721 -1.3556195e-16 -7.0647168)
(269.02048 0 -5.8681201)
(267.18384 -1.8386514e-16 -4.8192869)
(265.75165 1.7493485e-16 -3.928032)
(264.63962 -2.3766062e-16 -3.2169011)
(263.71698 1.9814491e-17 -2.6515769)
(263.14041 -2.50747e-16 -2.1279374)
(262.83866 -1.7488924e-16 -1.61557)
(262.6673 3.225503e-17 -1.1579189)
(262.62284 -4.271744e-16 -0.77426239)
(262.67665 1.7439112e-17 -0.43353838)
(262.78825 3.8398616e-16 -0.089017983)
(263.03816 3.7665777e-17 0.25239481)
(263.14319 2.0853497e-16 0.48597301)
(263.09603 -4.856154e-16 0.57244438)
(262.96077 -1.3185976e-16 0.54963646)
(262.91617 -1.0044398e-16 0.48655915)
(261.91306 7.5960945e-17 0.27601444)
(207.74156 -3.3819352e-16 -12.078007)
(243.08784 1.9134258e-18 -13.793525)
(266.37205 0 -15.262534)
(286.39768 2.6377258e-18 -16.518722)
(304.37651 -2.2712071e-18 -17.746761)
(319.39284 1.9143868e-18 -18.741211)
(322.80862 0 -19.339229)
(323.97573 -1.735097e-16 -18.812771)
(322.87716 2.8960831e-16 -19.532248)
(323.26017 -2.482562e-16 -18.628922)
(322.46128 1.0029012e-16 -19.547843)
(322.4163 -5.224886e-18 -18.590755)
(321.66424 0 -19.402666)
(321.24418 0 -18.619361)
(320.40172 0 -19.174625)
(319.61813 0 -18.621222)
(318.53571 1.6662018e-17 -18.897291)
(317.3308 5.534851e-17 -18.527915)
(315.83781 -4.5801549e-17 -18.591329)
(314.07175 -1.4967647e-19 -18.332045)
(311.96966 6.2970986e-17 -18.259859)
(309.51359 -2.5892253e-17 -18.011927)
(306.70941 0 -17.775349)
(303.55641 1.0621707e-16 -17.401079)
(300.08104 -2.8785137e-17 -16.932183)
(296.28665 0 -16.291205)
(292.26568 0 -15.470459)
(288.14511 0 -14.439586)
(284.08248 2.530209e-17 -13.212652)
(280.23156 1.6124822e-16 -11.826195)
(276.71713 -1.5847596e-17 -10.349903)
(273.61746 -2.5192135e-17 -8.8641866)
(270.96971 1.9479515e-17 -7.4492245)
(268.76878 0 -6.1675528)
(266.9932 3.4796344e-16 -5.0467506)
(265.61418 1.758608e-17 -4.0980181)
(264.51268 2.1269885e-16 -3.3452016)
(263.6258 0 -2.7440634)
(263.09829 2.9651001e-17 -2.1863055)
(262.83017 3.2911624e-16 -1.6530202)
(262.67128 0 -1.1807282)
(262.63914 2.3801078e-17 -0.7849805)
(262.70124 -5.7512712e-16 -0.43688944)
(262.83756 -9.723673e-20 -0.084929973)
(263.08769 1.8753066e-17 0.25715641)
(263.16844 4.2848776e-16 0.4825739)
(263.11268 3.2788338e-16 0.56317103)
(262.98095 7.6642563e-18 0.54279788)
(262.89988 1.8592981e-16 0.45958655)
(261.91751 -4.4893715e-18 0.24283491)
(208.75195 -3.4686673e-16 -13.003716)
(244.42381 2.4580416e-16 -14.876391)
(267.8979 -2.0267385e-16 -16.459224)
(288.04795 -1.7492981e-16 -17.804217)
(306.03515 1.4777721e-16 -19.130012)
(320.60471 -7.8128266e-18 -20.133024)
(323.26393 2.0802952e-16 -20.726838)
(324.4171 -1.7614809e-16 -20.148164)
(323.2874 0 -20.935348)
(323.68086 7.6525454e-18 -19.960661)
(322.85686 -1.0207873e-16 -20.944317)
(322.80699 -1.7184569e-19 -19.929932)
(322.0376 7.0599123e-17 -20.784337)
(321.6035 1.4689531e-17 -19.964495)
(320.73854 0 -20.535551)
(319.92746 0 -19.967051)
(318.80307 -3.380905e-17 -20.250564)
(317.53049 -2.8108138e-17 -19.88825)
(315.95542 6.9938562e-17 -19.968486)
(314.09878 -1.1610467e-16 -19.718825)
(311.92063 6.3987474e-17 -19.632078)
(309.41121 -7.9198076e-17 -19.359962)
(306.55066 8.7262366e-17 -19.085732)
(303.31914 -7.1758842e-17 -18.669298)
(299.73567 0 -18.146186)
(295.8436 0 -17.435198)
(291.74225 1.5681249e-16 -16.524475)
(287.57102 0 -15.38529)
(283.49365 -2.5657929e-17 -14.03714)
(279.66401 -1.2216408e-16 -12.525021)
(276.20066 -1.6047812e-17 -10.927043)
(273.17185 0 -9.3299244)
(270.60235 0 -7.8175704)
(268.47714 2.4453953e-16 -6.4534839)
(266.77222 -7.4859628e-16 -5.2634798)
(265.45239 2.8426711e-16 -4.2617047)
(264.36279 2.6798381e-17 -3.4683559)
(263.52751 -1.9999046e-17 -2.8307959)
(263.04963 0 -2.2402801)
(262.81243 -3.7424435e-16 -1.6878985)
(262.67029 -1.6199567e-17 -1.2019371)
(262.65376 6.0857305e-20 -0.79463317)
(262.72658 5.7495828e-16 -0.43897232)
(262.88984 -4.3363417e-16 -0.080559724)
(263.12429 6.1676452e-16 0.26102713)
(263.18953 -3.9511118e-20 0.47866981)
(263.13227 0 0.555327)
(262.99806 0 0.53480993)
(262.88003 0 0.43230216)
(261.91982 2.7918967e-16 0.20996827)
(209.69259 3.5158179e-16 -13.950655)
(245.67044 1.9878341e-18 -15.983019)
(269.326 3.2240868e-18 -17.681892)
(289.59184 0 -19.114087)
(307.58885 4.698683e-18 -20.541523)
(321.64902 6.4972719e-21 -21.536379)
(323.59595 -3.3482648e-18 -22.127799)
(324.74855 -1.7914361e-16 -21.491787)
(323.58653 1.4939873e-16 -22.350041)
(323.9929 -1.1658831e-16 -21.29967)
(323.1422 1.035292e-16 -22.350536)
(323.07295 0 -21.28237)
(322.30004 -7.1902783e-17 -22.182181)
(321.84799 4.4702523e-17 -21.328634)
(320.95079 0 -21.918477)
(320.09164 -4.142889e-17 -21.346045)
(318.90729 6.8666993e-17 -21.652301)
(317.56387 0 -21.303408)
(315.9247 -4.7387177e-17 -21.381966)
(314.01534 3.9276603e-17 -21.122269)
(311.7937 6.5026761e-17 -21.010346)
(309.22502 -2.2927416e-20 -20.712954)
(306.28351 -8.8590886e-17 -20.40858)
(302.95108 1.4590519e-16 -19.951721)
(299.26326 -1.1969515e-16 -19.369391)
(295.27453 0 -18.581946)
(291.09885 -1.7887267e-16 -17.573355)
(286.88624 1.5953691e-17 -16.318572)
(282.80676 0 -14.843485)
(279.01274 0 -13.202399)
(275.61487 0 -11.481894)
(272.67005 0 -9.7746589)
(270.19004 2.0043979e-17 -8.1676329)
(268.15019 -7.5563317e-16 -6.7242497)
(266.52461 -2.7324927e-19 -5.4682738)
(265.26802 -3.2202672e-16 -4.4182739)
(264.19584 2.6885145e-17 -3.5855905)
(263.42318 -6.4430326e-16 -2.9111956)
(262.99702 -4.7839048e-16 -2.2900449)
(262.79087 0 -1.7203985)
(262.66665 -5.1955031e-16 -1.2216781)
(262.66311 1.1661637e-15 -0.80311013)
(262.75321 -2.0660318e-20 -0.43995801)
(262.94124 8.0144264e-16 -0.076344017)
(263.15629 -5.9567673e-16 0.26373904)
(263.21001 -3.628614e-20 0.47411697)
(263.15097 0 0.5463225)
(263.01684 -4.7867015e-16 0.52526885)
(262.85385 -5.6289455e-18 0.40455705)
(261.91899 4.2982646e-18 0.17767328)
(210.56058 1.076036e-15 -14.915077)
(246.83501 -1.0351364e-15 -17.10907)
(270.6667 -3.412103e-18 -18.927876)
(291.0373 3.5728941e-16 -20.44593)
(309.03975 -4.7886244e-18 -21.979813)
(322.52676 -2.5427421e-16 -22.951138)
(323.81166 2.3189482e-16 -23.543897)
(324.97224 -1.8198401e-16 -22.842137)
(323.76596 1.5177383e-16 -23.776172)
(324.18805 -1.5781632e-17 -22.649301)
(323.29845 1.1852166e-16 -23.773278)
(323.23073 -7.6531662e-17 -22.652187)
(322.43186 0 -23.598351)
(321.95068 0 -22.722193)
(321.01065 5.0619245e-17 -23.346849)
(320.10145 -4.1914829e-17 -22.778947)
(318.86901 -6.9938737e-17 -23.091198)
(317.48122 2.8914471e-17 -22.736962)
(315.80783 -1.640563e-19 -22.802043)
(313.85746 3.9731083e-17 -22.527602)
(311.57717 -6.6036333e-17 -22.394804)
(308.92531 8.1987538e-17 -22.080894)
(305.88634 9.0347746e-17 -21.744873)
(302.45054 -3.518424e-16 -21.243948)
(298.65704 2.4248318e-16 -20.597533)
(294.57544 -1.7409365e-16 -19.725877)
(290.33262 0 -18.611333)
(286.09003 0 -17.233549)
(282.02263 0 -15.62615)
(278.27959 0 -13.853385)
(274.96211 -2.6504792e-16 -12.010268)
(272.11442 0 -10.19497)
(269.73484 0 -8.4966473)
(267.78981 -5.3910372e-19 -6.9776214)
(266.25133 7.6083582e-16 -5.6595329)
(265.05854 0 -4.5660565)
(264.01571 2.7121687e-17 -3.6956878)
(263.31394 1.2542384e-15 -2.9843823)
(262.94202 1.3954745e-15 -2.3353253)
(262.76522 -6.4202599e-16 -1.750268)
(262.65914 5.0409272e-16 -1.2399579)
(262.6723 -7.8561247e-16 -0.81016253)
(262.78079 1.7397855e-17 -0.43961079)
(262.991 -8.1218339e-16 -0.072380905)
(263.18571 -1.8523897e-17 0.2652211)
(263.22931 -4.2055722e-16 0.46917352)
(263.16822 0 0.53756487)
(263.03332 2.5236897e-20 0.5140286)
(262.82141 3.5371864e-16 0.37634298)
(261.91425 -2.6887047e-16 0.14612395)
(211.36152 -2.6119279e-21 -15.897)
(247.92 0 -18.254319)
(271.92187 0 -20.197933)
(292.39002 -3.6413885e-16 -21.800539)
(310.38876 3.1155241e-16 -23.447552)
(323.24528 -2.6252761e-16 -24.379793)
(323.91832 2.0797029e-16 -24.981446)
(325.08897 1.1544914e-17 -24.209916)
(323.85462 0 -25.227199)
(324.26929 1.3636843e-16 -24.025502)
(323.36923 -1.0685291e-16 -25.227216)
(323.29888 -1.1125731e-17 -24.053667)
(322.42915 0 -25.052691)
(321.91885 3.0838748e-17 -24.159341)
(320.94453 2.5666634e-17 -24.803843)
(320.00496 0 -24.226677)
(318.74662 3.5484624e-17 -24.536151)
(317.32765 0 -24.172451)
(315.61162 -1.4689399e-16 -24.221545)
(313.60112 4.0354185e-17 -23.943328)
(311.24031 3.370532e-17 -23.795928)
(308.49572 -5.5425671e-17 -23.462112)
(305.35498 -6.8647435e-17 -23.091374)
(301.81171 1.8603081e-17 -22.541879)
(297.91424 -1.6952227e-16 -21.824885)
(293.74453 2.2619044e-16 -20.861144)
(289.44381 -2.061222e-17 -19.632296)
(285.18432 2.8163858e-16 -18.124286)
(281.14459 2.6729178e-17 -16.379701)
(277.46875 -3.39139e-16 -14.473312)
(274.24678 8.2104756e-16 -12.508357)
(271.50911 -2.6113313e-17 -10.587858)
(269.24048 6.5283615e-16 -8.8022471)
(267.3995 1.0044837e-15 -7.2117881)
(265.95465 -3.5916794e-16 -5.8362496)
(264.82213 6.1751668e-20 -4.7032834)
(263.82744 -1.359979e-17 -3.7975025)
(263.20151 -1.2801599e-15 -3.0498795)
(262.88459 9.7878922e-16 -2.3759921)
(262.73298 -2.5103312e-20 -1.7771365)
(262.64779 9.9299464e-16 -1.256553)
(262.68464 4.7603888e-17 -0.81594848)
(262.80942 -3.4722913e-17 -0.43787594)
(263.03942 -7.9688703e-16 -0.068747009)
(263.21433 -6.0858675e-16 0.2653877)
(263.2481 2.6950994e-17 0.46371638)
(263.1831 -9.8845766e-18 0.52836345)
(263.04667 4.6682122e-16 0.5010281)
(262.78175 -3.4232831e-16 0.34768977)
(261.90537 -4.0999314e-18 0.11364988)
(212.08647 7.3773747e-16 -16.893097)
(248.91891 -5.3636271e-16 -19.414285)
(273.09067 4.3313665e-16 -21.487515)
(293.64539 -3.7079779e-16 -23.174217)
(311.61984 -3.1222707e-16 -24.946313)
(323.81609 2.6663299e-16 -25.829817)
(323.91798 7.053121e-18 -26.45573)
(325.11916 -2.3467724e-17 -25.617795)
(323.84198 0 -26.728816)
(324.28498 -1.3041152e-16 -25.447011)
(323.32112 9.4973275e-17 -26.7199)
(323.24671 0 -25.486146)
(322.32725 1.8829299e-17 -26.524815)
(321.79949 2.9267737e-22 -25.607772)
(320.80398 2.6181399e-17 -26.264788)
(319.83904 1.1465951e-19 -25.674659)
(318.54871 3.6144661e-17 -25.977095)
(317.08419 -2.9834711e-17 -25.61492)
(315.30753 4.9659482e-17 -25.658216)
(313.2207 4.1345971e-17 -25.374528)
(310.77487 -3.3899905e-17 -25.209301)
(307.9323 0 -24.854018)
(304.68513 0 -24.444382)
(301.03299 1.3334609e-16 -23.840655)
(297.03312 2.6638835e-16 -23.045924)
(292.78159 0 -21.981562)
(288.43377 -3.3302189e-16 -20.629925)
(284.17213 -2.6815597e-16 -18.984728)
(280.17684 0 -17.098745)
(276.58495 3.6430018e-16 -15.05766)
(273.47358 1.8481016e-17 -12.972563)
(270.8584 -2.6395841e-17 -10.950537)
(268.71072 -6.7864867e-16 -9.0822431)
(266.98267 -4.5866182e-16 -7.4251256)
(265.63682 -7.9672112e-16 -5.9977803)
(264.55952 0 -4.8282859)
(263.63412 0 -3.8896411)
(263.08679 6.3242137e-16 -3.1074426)
(262.82386 -1.9177713e-15 -2.4120526)
(262.69362 2.2191127e-17 -1.8007945)
(262.636 -2.0690293e-15 -1.2708913)
(262.69493 -4.758232e-17 -0.8204054)
(262.83913 1.7341988e-17 -0.43489902)
(263.08623 -2.5021587e-17 -0.065420452)
(263.24364 1.7799628e-15 0.26419371)
(263.26618 8.5616725e-16 0.4576606)
(263.19525 0 0.51927867)
(263.05564 -1.4408806e-17 0.48614194)
(262.73799 1.0681559e-17 0.31858078)
(261.89237 0 0.081855753)
(212.72973 7.5334346e-16 -17.90688)
(249.83584 -5.5042213e-16 -20.597486)
(274.17792 4.4799733e-16 -22.807657)
(294.81224 0 -24.578466)
(312.73384 -3.2772496e-16 -26.482821)
(324.21711 5.4225877e-16 -27.297781)
(323.78179 -4.5872601e-16 -27.951169)
(324.99634 3.9336239e-16 -27.035329)
(323.70515 -1.5914076e-16 -28.239436)
(324.12266 0 -26.875439)
(323.16656 1.2430554e-16 -28.220539)
(323.0792 -1.8366357e-16 -26.929834)
(322.15739 5.727482e-17 -28.000646)
(321.60912 -3.1826371e-17 -27.054656)
(320.58612 0 -27.723922)
(319.5844 1.102684e-19 -27.132234)
(318.24856 -1.0977338e-16 -27.434982)
(316.72418 -6.0851354e-17 -27.073836)
(314.88146 -1.0099219e-16 -27.107264)
(312.71466 4.2004197e-17 -26.818411)
(310.17723 -3.4427479e-17 -26.633456)
(307.23212 0 -26.253125)
(303.87534 0 -25.799755)
(300.11322 -1.9522795e-17 -25.135296)
(296.01391 -2.0613909e-16 -24.254776)
(291.68818 -2.5732792e-17 -23.080809)
(287.30573 3.3673179e-16 -21.597827)
(283.05809 3.4254556e-17 -19.808901)
(279.12492 -5.4539418e-17 -17.778106)
(275.63402 3.6959615e-16 -15.602224)
(272.64806 -5.8195631e-16 -13.399639)
(270.16721 2.6674788e-17 -11.280557)
(268.14998 -2.0817136e-17 -9.3347396)
(266.54313 1.5909226e-17 -7.6162841)
(265.29998 7.7730133e-16 -6.14358)
(264.27533 1.8379103e-17 -4.9399658)
(263.43711 -1.3741291e-17 -3.9707681)
(262.97017 -2.0485012e-17 -3.1569059)
(262.75881 1.5137428e-17 -2.4433833)
(262.64909 7.34778e-16 -1.8211577)
(262.62486 1.0594013e-15 -1.2827714)
(262.70594 -4.7544105e-17 -0.8233284)
(262.86995 1.7305282e-17 -0.43083868)
(263.13032 1.6079794e-15 -0.062275094)
(263.27198 -1.1864681e-15 0.26175156)
(263.28278 -1.6865051e-15 0.45086839)
(263.20489 0 0.5099021)
(263.061 0 0.46926199)
(262.68786 0 0.28905586)
(261.87567 -4.9905535e-16 0.051169447)
(213.32732 7.6337731e-16 -18.942966)
(250.70934 -5.5144754e-16 -21.807304)
(275.22217 4.5288813e-16 -24.159741)
(295.93049 -5.8229763e-18 -26.01092)
(313.75391 -3.2795372e-16 -28.043159)
(324.47763 0 -28.763093)
(323.59763 2.3316634e-16 -29.44981)
(324.83679 -1.9356336e-16 -28.444381)
(323.49281 -1.820793e-16 -29.743118)
(323.94059 1.3432956e-16 -28.296803)
(322.93367 -1.4012565e-17 -29.714186)
(322.82628 -9.3391441e-17 -28.37457)
(321.9005 1.5541933e-16 -29.487692)
(321.32435 -1.2929824e-16 -28.520602)
(320.26573 5.369717e-17 -29.199952)
(319.21899 0 -28.605777)
(317.83371 1.8606734e-16 -28.904532)
(316.24676 3.0957879e-17 -28.54592)
(314.3321 1.5357299e-16 -28.5687)
(312.07972 4.2272657e-17 -28.273011)
(309.44605 -3.5341473e-17 -28.06519)
(306.39423 1.4522965e-16 -27.655894)
(302.92501 0 -27.153147)
(299.0529 1.982999e-17 -26.420598)
(294.85809 2.1025914e-16 -25.445503)
(290.46728 2.61186e-17 -24.152474)
(286.06423 3.4299824e-16 -22.529644)
(281.84798 0 -20.591006)
(277.99527 4.4335615e-16 -18.412904)
(274.62241 -3.5117949e-16 -16.10317)
(271.77622 0 -13.786724)
(269.44085 0 -11.575814)
(267.56302 -2.0998898e-17 -9.5581708)
(266.08454 1.0458288e-15 -7.7842261)
(264.945 7.8328807e-16 -6.2728829)
(263.97571 0 -5.0376715)
(263.23812 -2.7660945e-17 -4.0399542)
(262.85221 2.053681e-17 -3.198253)
(262.68771 0 -2.4696646)
(262.60117 0 -1.8380589)
(262.61383 3.2585919e-17 -1.2920709)
(262.71783 -1.5196306e-15 -0.82467893)
(262.90202 -1.121196e-15 -0.42587662)
(263.17009 -8.0086833e-16 -0.059160323)
(263.29797 -1.814389e-17 0.25831441)
(263.29807 1.3237522e-17 0.44332208)
(263.2123 0 0.50011765)
(263.064 0 0.45020391)
(262.63197 0 0.25913266)
(261.85592 9.8025716e-16 0.021714423)
(213.89267 -7.7636916e-16 -19.994196)
(251.54176 1.1271239e-15 -23.029968)
(276.22248 -9.2230295e-16 -25.528611)
(297.00143 5.9182629e-18 -27.462549)
(314.66053 3.3349074e-16 -29.622694)
(324.60543 0 -30.232351)
(323.32595 1.4804839e-17 -30.971144)
(324.58514 0 -29.869853)
(323.20719 -1.2331722e-16 -31.266781)
(323.65343 -1.7322998e-17 -29.73335)
(322.61957 2.5622116e-16 -31.221164)
(322.50059 2.4586886e-19 -29.833714)
(321.5396 -7.8804778e-17 -30.983935)
(320.93377 -6.5784599e-17 -29.99808)
(319.83798 1.0922162e-16 -30.685929)
(318.74353 0 -30.092625)
(317.30426 -7.5490973e-17 -30.386506)
(315.64957 -3.148069e-17 -30.03053)
(313.65827 -7.8094546e-17 -30.040279)
(311.31572 -1.2976426e-16 -29.735863)
(308.58096 -1.0755663e-16 -29.501706)
(305.41862 -1.1783821e-16 -29.058621)
(301.83481 0 -28.500089)
(297.85351 0 -27.691246)
(293.56847 -2.6168338e-16 -26.612047)
(289.12325 -4.2888564e-16 -25.190146)
(284.71513 -3.4651131e-16 -23.41915)
(280.54871 -5.4363576e-16 -21.325521)
(276.79522 -4.6135656e-16 -18.998641)
(273.55727 2.2336819e-17 -16.557094)
(270.86454 5.4379259e-16 -14.131389)
(268.68507 -2.7398761e-17 -11.834588)
(266.95503 2.1067677e-17 -9.7513536)
(265.61034 -1.0360124e-15 -7.9283368)
(264.57115 -1.5263572e-15 -6.3845473)
(263.6678 -3.705526e-17 -5.1210172)
(263.03955 0 -4.0967451)
(262.73343 1.2987531e-15 -3.2317057)
(262.60836 -9.2766971e-16 -2.4903853)
(262.55157 1.4057777e-15 -1.851254)
(262.59859 0 -1.2984847)
(262.73067 1.5175059e-15 -0.82449044)
(262.93543 1.1010204e-15 -0.42032133)
(263.20441 0 -0.055999308)
(263.32051 -1.1545856e-15 0.25420663)
(263.31214 1.6735006e-15 0.43505964)
(263.21714 -1.2154565e-15 0.48994195)
(263.06507 0 0.42891295)
(262.57106 -1.0173399e-17 0.22881584)
(261.83396 -4.7392384e-16 -0.0063757036)
(214.39616 7.9252627e-16 -21.067868)
(252.30539 5.804296e-16 -24.279614)
(277.1562 1.7642391e-19 -26.929947)
(298.00939 -3.9925822e-16 -28.951405)
(315.42453 -1.0602358e-17 -31.231206)
(324.58687 0 -31.707185)
(322.96297 -1.5028582e-17 -32.510209)
(324.24272 1.249033e-17 -31.307953)
(322.82576 -2.0839978e-17 -32.803852)
(323.27634 1.7326029e-17 -31.183374)
(322.20738 5.794737e-17 -32.740962)
(322.07215 -1.9241709e-16 -31.304174)
(321.08012 8.0025219e-17 -32.488975)
(320.44033 0 -31.489095)
(319.30363 -5.5461168e-17 -32.183652)
(318.15701 0 -31.593009)
(316.6597 1.1530319e-16 -31.879517)
(314.93305 -3.1740714e-17 -31.525985)
(312.86025 -2.6552489e-17 -31.520289)
(310.42278 1.9712474e-16 -31.204502)
(307.58249 1.0838644e-16 -30.939875)
(304.30616 2.9765822e-17 -30.457508)
(300.60616 0 -29.835978)
(296.51749 3.2576158e-16 -28.941804)
(292.1489 -3.3523355e-17 -27.748304)
(287.66155 2.4806684e-17 -26.187469)
(283.26533 0 -24.260332)
(279.16807 5.6647511e-16 -22.007288)
(275.53274 -2.8510164e-17 -19.531273)
(272.44622 -6.765541e-16 -16.961085)
(269.91991 -1.1326104e-15 -14.431666)
(267.90596 -1.3742584e-17 -12.05557)
(266.33129 -6.6118803e-16 -9.9135211)
(265.12341 -1.6278303e-17 -8.0484864)
(264.17756 7.6728094e-16 -6.4771347)
(263.35941 1.8621285e-17 -5.1897702)
(262.84325 -2.7873427e-17 -4.1411073)
(262.61285 -1.3018146e-15 -3.2574855)
(262.52087 -1.9784134e-19 -2.505311)
(262.50176 -1.428698e-15 -1.8603477)
(262.58532 1.0421463e-15 -1.3017902)
(262.74471 0 -0.82266364)
(262.97012 1.0973063e-15 -0.41449673)
(263.23323 1.5872559e-15 -0.052865588)
(263.33879 1.1654149e-15 0.24976682)
(263.32423 -2.5027343e-15 0.4262871)
(263.21932 1.1839607e-15 0.47943634)
(263.06105 2.7338907e-17 0.40644307)
(262.5065 -1.288932e-15 0.198087)
(261.81044 7.3674491e-18 -0.032965015)
(214.83804 0 -22.153139)
(253.00455 0 -25.538812)
(278.02652 7.4769637e-18 -28.344742)
(298.96331 -4.1307776e-16 -30.458007)
(316.03739 6.998703e-16 -32.850488)
(324.41689 -5.78306e-16 -33.17799)
(322.51155 2.4417576e-16 -34.058352)
(323.81048 -1.2669052e-17 -32.751801)
(322.35444 0 -34.351258)
(322.80596 0 -32.645631)
(321.70232 2.933451e-17 -34.273396)
(321.54838 7.3390523e-17 -32.790073)
(320.52087 -8.1263574e-17 -34.006459)
(319.84325 0 -32.994561)
(318.66259 1.1293413e-16 -33.692623)
(317.45995 -9.3749627e-17 -33.106117)
(315.90062 -3.9003396e-17 -33.382721)
(314.09762 -3.2486412e-17 -33.03086)
(311.93876 5.3707295e-17 -33.006774)
(309.40189 -1.5577592e-16 -32.676432)
(306.45177 3.6619458e-17 -32.376639)
(303.05834 0 -31.848714)
(299.24121 0 -31.156136)
(295.04809 -6.601875e-16 -30.166746)
(290.60413 2.3701823e-16 -28.848135)
(286.08862 9.0897266e-16 -27.1382)
(281.72263 0 -25.047458)
(277.71457 0 -22.631571)
(274.2164 0 -20.007273)
(271.29731 1.4570986e-15 -17.312765)
(268.94949 5.7136805e-16 -14.68608)
(267.10984 0 -12.23789)
(265.69677 6.8664789e-16 -10.044318)
(264.62584 -1.0519487e-15 -8.1448824)
(263.76688 2.4932808e-17 -6.5495929)
(263.0567 3.4903888e-20 -5.2435639)
(262.65039 -1.3969951e-17 -4.1735152)
(262.48802 0 -3.2754678)
(262.42804 9.4533825e-16 -2.5145629)
(262.45103 4.4650391e-17 -1.8649521)
(262.57145 -2.0985086e-15 -1.3019938)
(262.76009 -1.511114e-15 -0.81913)
(263.00559 -1.0936775e-15 -0.40865047)
(263.2572 -1.5796601e-15 -0.049950166)
(263.35243 1.1399252e-15 0.2451915)
(263.33137 3.6015436e-20 0.41739277)
(263.21966 -1.8592842e-17 0.46858949)
(263.0478 1.3479542e-17 0.38262128)
(262.43915 -3.7718466e-19 0.16715965)
(261.78588 0 -0.057509158)
(215.22844 -6.4047786e-18 -23.25787)
(253.64245 0 -26.819277)
(278.83283 -7.6009724e-18 -29.783915)
(299.86906 -4.0740418e-16 -31.995876)
(316.49272 3.6081182e-16 -34.490259)
(324.09647 0 -34.655387)
(321.97202 -2.4829841e-16 -35.624349)
(323.28811 4.1186458e-16 -34.207754)
(321.79105 -1.5030814e-16 -35.911392)
(322.24172 1.7891946e-17 -34.121523)
(321.1015 2.9836077e-17 -35.818468)
(320.9259 2.4786628e-17 -34.291071)
(319.86154 8.2804667e-17 -35.535671)
(319.14268 2.8689911e-19 -34.514537)
(317.91526 -5.6903161e-17 -35.212491)
(316.65292 -1.9057652e-16 -34.63113)
(315.02788 3.9441111e-17 -34.894729)
(313.14446 0 -34.543351)
(310.8951 -2.7403342e-17 -34.497633)
(308.25441 2.2483294e-17 -34.149048)
(305.19037 3.7650939e-17 -33.808833)
(301.67707 -2.7868757e-16 -33.228318)
(297.7426 0 -32.455778)
(293.44915 3.3433982e-16 -31.360429)
(288.93973 -2.7374066e-16 -29.905381)
(284.41171 2.4551786e-18 -28.036233)
(280.09555 0 -25.775125)
(276.19733 0 -23.194107)
(272.85532 4.6642148e-16 -20.423672)
(270.11898 2.6902786e-18 -17.61032)
(267.96061 0 -14.89365)
(266.30297 0 -12.381126)
(265.05573 0 -10.143764)
(264.11867 -1.6085767e-18 -8.2175637)
(263.34737 8.0174912e-16 -6.6019781)
(262.7627 0 -5.2819073)
(262.46134 0 -4.1947134)
(262.35619 1.3284684e-15 -3.2852771)
(262.33308 0 -2.5183148)
(262.39937 0 -1.8647224)
(262.55865 1.0721888e-15 -1.2990707)
(262.77683 2.9911238e-15 -0.81389615)
(263.04074 0 -0.40287679)
(263.27681 2.4541715e-17 -0.047422794)
(263.36183 -2.2997882e-15 0.24051249)
(263.33386 1.6443983e-15 0.4085297)
(263.21868 -1.1769886e-15 0.45733779)
(263.02369 0 0.35759055)
(262.36987 1.2457239e-15 0.13630167)
(261.76079 -9.1010718e-16 -0.078529262)
(215.56204 -8.2625319e-16 -24.384418)
(254.21121 -6.0669505e-16 -28.124105)
(279.56886 4.9526802e-16 -31.251743)
(300.72883 -4.2106608e-16 -33.569298)
(316.78093 -1.1398889e-17 -36.146434)
(323.6185 5.8780438e-16 -36.13757)
(321.34419 -2.5180249e-16 -37.206179)
(322.67582 -2.0922402e-16 -35.675535)
(321.136 1.5263728e-16 -37.484799)
(321.58342 -1.813228e-17 -35.611674)
(320.40526 -1.817561e-16 -37.376199)
(320.20523 1.5105948e-16 -35.807441)
(319.10232 3.0249689e-19 -37.076297)
(318.33925 -6.9699695e-17 -36.048355)
(317.06272 0 -36.742147)
(315.73735 4.8205915e-17 -36.166703)
(314.04302 -1.2057282e-16 -36.414141)
(312.07518 -3.3522182e-17 -36.061732)
(309.7308 -5.5640416e-17 -35.990881)
(306.98189 -2.2832429e-17 -35.619805)
(303.79999 -1.5244124e-16 -35.233298)
(300.16447 2.8229648e-16 -34.592327)
(296.11335 -5.1757748e-17 -33.730008)
(291.7251 3.6252164e-16 -32.517121)
(287.1619 3.5085536e-17 -30.913889)
(282.63875 -4.8079646e-16 -28.875664)
(278.39324 2.3104541e-17 -26.438316)
(274.62614 -1.8328416e-17 -23.691174)
(271.45919 -4.7003325e-16 -20.778139)
(268.91987 2.7535164e-18 -17.852555)
(266.96049 -1.8277149e-17 -15.053896)
(265.49114 1.4122277e-17 -12.485286)
(264.4114 -2.182432e-17 -10.212227)
(263.60239 1.1133941e-15 -8.2660698)
(262.92993 -8.2984481e-16 -6.6352005)
(262.47873 0 -5.3047177)
(262.27395 0 -4.2051337)
(262.21753 4.8063291e-19 -3.2869143)
(262.23865 0 -2.5166096)
(262.34711 -1.4054813e-15 -1.8596117)
(262.54712 -1.6226781e-17 -1.2929305)
(262.79493 -1.5030669e-15 -0.80702452)
(263.07467 2.1693932e-15 -0.39725608)
(263.292 0 -0.045339085)
(263.36732 1.141752e-15 0.23590804)
(263.33374 -1.2636876e-17 0.39965319)
(263.21607 1.1821602e-15 0.44549531)
(262.98675 -1.3113977e-17 0.3317432)
(262.29975 -1.2156908e-15 0.10582451)
(261.73566 8.8413407e-16 -0.098094135)
(215.836 -1.6931378e-15 -25.52568)
(254.70953 6.1212376e-16 -29.44305)
(280.23144 -5.0422874e-16 -32.739073)
(301.54458 4.2796704e-16 -35.170842)
(316.89582 0 -37.807588)
(322.97525 9.470289e-18 -37.620359)
(320.62803 0 -38.803674)
(321.97326 0 -37.157667)
(320.3886 -1.7744021e-16 -39.074208)
(320.831 1.4725355e-16 -37.117461)
(319.61394 1.5378617e-16 -38.946535)
(319.38719 -1.5352075e-16 -37.33856)
(318.24476 -4.299511e-17 -38.627058)
(317.43482 7.0736955e-17 -37.59476)
(316.10696 5.8885931e-17 -38.2803)
(314.71524 -4.9586643e-17 -37.711509)
(312.94792 1.2216534e-16 -37.93953)
(310.89145 0 -37.584233)
(308.44741 2.2514037e-16 -37.484465)
(305.58587 -2.3399238e-16 -37.086063)
(302.28231 1.9244455e-16 -36.646719)
(298.52277 0 -35.936558)
(294.3567 -1.8453101e-16 -34.973718)
(289.88084 -3.6611032e-16 -33.630954)
(285.27744 -2.4817651e-16 -31.867523)
(280.77832 -2.8536338e-17 -29.650827)
(276.62555 2.3420501e-17 -27.032456)
(273.01144 -6.185343e-16 -24.119661)
(270.03805 9.5537883e-16 -21.069024)
(267.70851 -7.5130186e-16 -18.03889)
(265.95594 1.1798904e-15 -15.166833)
(264.67935 9.1481105e-16 -12.550765)
(263.76613 2.1971082e-17 -10.250362)
(263.07919 -2.1591682e-15 -8.2898858)
(262.52468 0 -6.6503867)
(262.20514 -1.1939992e-15 -5.3126334)
(262.08403 -1.4087068e-17 -4.2045455)
(262.07606 -1.3316246e-15 -3.2809321)
(262.14645 0 -2.5095067)