/*--------------------------------*- C++ -*----------------------------------*\
  =========                 |
  \\      /  F ield         | OpenFOAM: The Open Source CFD Toolbox
   \\    /   O peration     | Website:  https://openfoam.org
    \\  /    A nd           | Version:  8
     \\/     M anipulation  |
\*---------------------------------------------------------------------------*/
FoamFile
{
    version     2.0;
    format      ascii;
    class       volVectorField;
    location    "0.18001";
    object      wallShearStress;
}
// * * * * * * * * * * * * * * * * * * * * * * * * * * * * * * * * * * * * * //

dimensions      [1 -1 -2 0 0 0 0];

internalField   uniform (0 0 0);

boundaryField
{
    aerofoil
    {
        type            calculated;
        value           nonuniform List<vector> 
300
(
(-135.63317 2.1073605e-16 8.2791064)
(-135.64929 -4.2171899e-19 8.7929282)
(-137.06959 4.7248111e-19 9.4401996)
(-138.31953 2.2523036e-16 10.095952)
(-139.59312 2.3193423e-16 10.771438)
(-140.81934 -2.3618889e-16 11.465559)
(-141.99643 -7.2601952e-16 12.176129)
(-143.12189 -3.0452126e-20 12.903204)
(-144.20037 -5.0187701e-16 13.64506)
(-145.20871 -5.1455209e-16 14.402397)
(-146.18453 -5.2368604e-16 15.180541)
(-147.14644 5.3464102e-16 15.975953)
(-148.07128 -5.4781032e-16 16.792075)
(-148.94254 -1.3760311e-19 17.620933)
(-149.78157 4.4594442e-18 18.470081)
(-150.57919 5.779278e-16 19.339263)
(-151.32658 1.1888671e-15 20.224359)
(-152.03403 -4.7423168e-18 21.128959)
(-152.69121 -6.1386793e-16 22.048362)
(-153.31203 -3.8518599e-34 22.988131)
(-153.89827 0 23.949057)
(-154.43495 -6.5578436e-16 24.92749)
(-154.92557 1.3382975e-15 25.926994)
(-155.36023 5.1668215e-18 26.942986)
(-155.74933 -1.6076241e-19 27.984943)
(-156.05882 -5.52575e-18 29.042081)
(-156.30469 -7.2222904e-16 30.1216)
(-156.49544 1.1532953e-17 31.22799)
(-156.63579 3.6365139e-16 32.361104)
(-156.75404 3.8262891e-16 33.529411)
(-156.86343 -4.993619e-22 34.738216)
(-156.96589 0 35.991088)
(-157.05899 7.9784076e-16 37.29)
(-157.15222 1.2872295e-17 38.639351)
(-157.29035 -3.9300414e-21 40.057661)
(-157.42277 -4.1474297e-16 41.54037)
(-157.5325 -1.3622402e-17 43.085598)
(-157.60197 1.3972253e-17 44.691355)
(-157.60537 -4.8302493e-16 46.357769)
(-157.50717 4.7816834e-16 48.088495)
(-157.32193 -8.069235e-19 49.89376)
(-157.04439 -4.6572356e-16 51.779846)
(-156.67648 4.7192952e-16 53.762364)
(-156.23863 -1.5716151e-17 55.853)
(-155.74748 5.2530331e-16 58.040107)
(-155.17175 5.3839849e-16 60.326723)
(-154.39056 -2.2098222e-17 62.68717)
(-153.36562 5.3631425e-16 65.128704)
(-152.02906 -4.4484376e-18 67.638006)
(-150.316 -7.5420004e-19 70.196168)
(-148.19395 -5.6793353e-16 72.847802)
(-145.64228 -1.9281394e-18 75.624547)
(-142.63568 -1.3300164e-17 78.549885)
(-139.15831 5.146267e-17 81.640224)
(-135.17019 5.8232966e-16 84.786755)
(-130.78594 1.8608011e-19 88.027505)
(-126.20849 -4.7019774e-34 91.286264)
(-121.86687 -7.9924741e-18 94.480461)
(-117.5502 -6.7794545e-16 97.511934)
(-112.9845 1.7595178e-17 100.20728)
(-107.77498 3.3456713e-17 102.36575)
(-101.68316 -4.3181125e-17 103.75553)
(-94.63235 2.4215344e-17 104.11979)
(-86.518647 -7.1112181e-16 103.22475)
(-77.337254 -1.183081e-19 100.81098)
(-67.13822 -3.8669062e-34 96.483796)
(-56.165036 -9.1481672e-34 89.90483)
(-44.811298 1.1428669e-17 80.716263)
(-33.564718 -2.3307315e-17 68.69026)
(-22.725297 1.0192382e-17 53.873613)
(-12.617785 -3.0814879e-33 36.62096)
(-6.1793923 2.9689273e-16 18.246288)
(-2.5704491 -1.2066767e-16 6.6128333)
(-0.8209699 -1.8235437e-18 0.13635941)
(-1.5130905 -2.2654001e-19 -5.4070337)
(-44.531187 9.0611471e-16 -6.1128497)
(-70.17735 2.615256e-20 -5.7926762)
(-73.622416 4.3187335e-36 -6.1276656)
(-77.469322 2.5037089e-33 -6.3276244)
(-80.261126 -8.618078e-16 -6.4214845)
(-82.730449 -8.6369969e-16 -6.4852531)
(-84.795126 -2.1447811e-19 -6.5122863)
(-86.610012 -3.2954883e-21 -6.5166048)
(-88.197986 1.651576e-21 -6.5001978)
(-89.610431 4.317891e-16 -6.4693582)
(-90.876635 4.3085643e-16 -6.4253885)
(-92.018001 8.614367e-16 -6.3709141)
(-93.051393 -4.2996541e-16 -6.3087972)
(-94.000031 6.1060371e-19 -6.2405166)
(-94.875379 4.2871164e-16 -6.1655692)
(-95.684253 1.0173148e-25 -6.0862067)
(-96.436977 -2.2238567e-19 -6.0026429)
(-97.138387 -2.2416725e-19 -5.9142389)
(-97.792889 4.2562791e-16 -5.8229719)
(-98.410025 -4.248683e-16 -5.7279158)
(-98.993023 1.615852e-21 -5.6306538)
(-99.547726 4.2353983e-16 -5.5299975)
(-100.07398 1.6158515e-21 -5.4278745)
(-100.57712 1.8294991e-19 -5.3221402)
(-101.05665 -4.2140953e-16 -5.2148084)
(-101.51961 -4.2037773e-16 -5.1042546)
(-101.96508 4.1958627e-16 -4.9926683)
(-102.39882 -1.6003006e-21 -4.8777267)
(-102.81964 4.1799202e-16 -4.7614123)
(-103.2367 -4.1720512e-16 -4.6421049)
(-103.64879 2.5138819e-19 -4.5204865)
(-104.06049 4.1561688e-16 -4.3985962)
(-104.47477 3.1602477e-21 -4.272724)
(-104.88349 -8.285265e-16 -4.1441692)
(-105.2908 -4.1352479e-16 -4.0128546)
(-105.69866 -2.281733e-25 -3.8792138)
(-106.10982 -3.1361045e-21 -3.7421685)
(-106.52222 4.1093174e-16 -3.601923)
(-106.9351 -2.3291636e-25 -3.4575438)
(-107.34809 -8.1921203e-16 -3.3101182)
(-107.76712 -1.3367946e-19 -3.1582853)
(-108.18978 -2.0381271e-16 -3.0021633)
(-108.61659 -2.0335562e-16 -2.8413139)
(-109.05028 4.0827063e-22 -2.6765731)
(-109.49841 -3.5719397e-19 -2.505971)
(-109.96327 2.0263788e-16 -2.3307386)
(-110.44997 2.2028107e-19 -2.1497612)
(-110.9517 2.019589e-16 -1.9626061)
(-111.4669 1.357882e-19 -1.7690629)
(-111.99952 2.0136592e-16 -1.5698305)
(-112.55483 2.0067372e-16 -1.3627207)
(-113.12518 -7.928679e-20 -1.147217)
(-113.70785 2.3161084e-19 -0.92473322)
(-114.30415 -1.5334273e-19 -0.6935697)
(-114.91218 -9.9790627e-17 -0.45241812)
(-115.53581 9.9428457e-17 -0.20233383)
(-116.1869 9.9542924e-17 0.056678173)
(-116.86784 9.9429044e-17 0.32095767)
(-117.58048 -4.9921168e-17 0.59327524)
(-118.32044 6.0717019e-21 0.88279023)
(-119.08509 2.6275857e-19 1.2224327)
(-119.86933 -1.2403677e-17 1.5563184)
(-120.67528 -1.560676e-18 1.9113802)
(-121.50064 -2.4883667e-17 2.2868813)
(-122.3464 4.9446581e-17 2.6641127)
(-123.20529 -9.8815686e-17 3.0387929)
(-124.07734 7.9951867e-20 3.4381073)
(-124.96801 -1.9733795e-16 3.8591782)
(-125.88974 -9.8644157e-17 4.3022931)
(-126.8628 -2.708339e-33 4.7692177)
(-127.8983 1.1998351e-20 5.262805)
(-128.98696 1.9677601e-16 5.7824058)
(-130.12787 -2.1871086e-20 6.3343369)
(-131.33467 -2.3933872e-20 6.9234736)
(-134.01935 1.1972281e-20 7.6275409)
(-150.9484 1.7167947e-19 8.0549507)
(-154.74451 1.8104509e-16 7.6539732)
(-156.58878 3.8660462e-19 7.1199989)
(-158.22305 -7.3976286e-19 6.5431672)
(-159.73887 -5.4970615e-20 5.9377932)
(-161.22822 -1.2484618e-20 5.3157645)
(-162.64304 -1.0111122e-19 4.6912821)
(-163.97405 5.1882579e-17 3.9824636)
(-165.22535 1.1074097e-33 3.1967111)
(-166.44437 -1.18557e-17 2.4227476)
(-167.60436 -1.805999e-19 1.6119851)
(-168.73839 5.4347998e-18 0.77268566)
(-169.86584 -5.7626499e-17 -0.0085350339)
(-170.96193 -1.3573419e-19 -0.80928246)
(-172.03691 5.6815516e-17 -1.6463045)
(-173.08808 2.1700358e-19 -2.5142563)
(-174.10711 3.9436011e-18 -3.409537)
(-175.10483 1.2468752e-16 -4.3328235)
(-176.07031 -4.4410898e-18 -5.2818183)
(-177.01866 -1.2995512e-16 -6.2606906)
(-177.94357 2.7800256e-16 -7.2699535)
(-178.82871 -4.2594617e-18 -8.3089441)
(-179.68483 2.8237495e-20 -9.3845978)
(-180.49895 -1.4523735e-16 -10.495138)
(-181.28459 -1.5279203e-16 -11.644247)
(-182.00814 1.5571208e-16 -12.825874)
(-182.68849 -3.0807826e-16 -14.044371)
(-183.33814 9.8552936e-18 -15.306482)
(-183.9562 -9.8417352e-18 -16.61041)
(-184.57522 1.6630523e-19 -17.966126)
(-185.20012 1.0428913e-17 -19.376572)
(-185.83955 3.2861245e-16 -20.845542)
(-186.49885 3.4594337e-16 -22.376357)
(-187.19216 0 -23.977094)
(-187.94457 2.9841977e-20 -25.65856)
(-188.73319 -1.2190568e-17 -27.422903)
(-189.53181 -4.1499431e-20 -29.27162)
(-190.34005 1.1833085e-17 -31.215106)
(-191.15143 1.6100551e-18 -33.270788)
(-191.95741 1.0571045e-17 -35.456322)
(-192.7148 -1.0431223e-17 -37.76735)
(-193.41497 -1.2903462e-17 -40.214686)
(-194.0579 -3.9978312e-16 -42.819481)
(-194.6619 -8.4961509e-16 -45.565309)
(-195.23513 -1.3660632e-17 -48.468596)
(-195.7667 1.3698979e-17 -51.518449)
(-196.16517 -4.5903511e-16 -54.7172)
(-196.36187 4.5660505e-16 -58.070241)
(-196.28632 3.3008832e-17 -61.58691)
(-195.84153 -9.7355559e-16 -65.257996)
(-194.92452 4.9413213e-16 -69.075552)
(-193.40347 9.6006175e-16 -73.064642)
(-191.23567 -4.8672235e-16 -77.236344)
(-188.35332 4.7301979e-16 -81.613404)
(-184.72852 5.3418347e-16 -86.248872)
(-180.31954 -1.6559902e-17 -91.164509)
(-175.10065 5.4266324e-16 -96.409186)
(-169.15252 1.0268524e-17 -102.02971)
(-162.59785 2.8355911e-19 -107.98127)
(-156.0333 1.8594631e-18 -114.11691)
(-150.17051 1.8291551e-17 -120.24204)
(-144.57122 -5.0612036e-17 -126.29341)
(-138.59593 -5.5760086e-16 -131.97088)
(-131.49585 -6.0738501e-16 -136.78998)
(-122.8577 -1.388387e-17 -140.12852)
(-112.5729 -1.2384365e-15 -141.85145)
(-100.70403 -6.5369315e-16 -141.40644)
(-86.99419 0 -137.87757)
(-71.968317 -3.4215372e-16 -130.906)
(-56.196314 3.517058e-16 -119.66012)
(-40.617397 -1.540744e-33 -103.89886)
(-26.250828 -8.1008175e-18 -84.014494)
(-14.599173 3.4579271e-16 -61.256347)
(-7.3812206 -3.2468403e-16 -37.263967)
(-3.2704993 2.884026e-19 -17.348271)
(-5.2587856 -8.6163502e-16 1.1335905)
(-9.2239072 -1.3059875e-20 1.8444634)
(-11.429848 -9.341004e-16 2.3075082)
(-14.070605 -9.9663194e-16 2.8163524)
(-16.511575 3.9998577e-21 3.2760199)
(-18.964992 -2.1773851e-15 3.7295542)
(-21.331985 -5.036736e-20 4.1579729)
(-23.630087 5.791934e-16 4.5659493)
(-25.8382 -2.2703392e-21 4.9495556)
(-27.962771 6.0608012e-16 5.3114784)
(-30.012407 -2.5944159e-20 5.6527414)
(-31.989698 -6.2698485e-16 5.9745263)
(-33.89621 1.3972269e-25 6.2782066)
(-35.736226 2.3810603e-19 6.5650522)
(-37.513602 6.5146549e-16 6.8350787)
(-39.226609 -6.5812127e-16 7.0893673)
(-40.877318 -1.3336277e-19 7.3283133)
(-42.466081 1.0287213e-20 7.551891)
(-43.998281 6.7461372e-16 7.7620751)
(-45.484721 1.5002108e-19 7.9601907)
(-46.933955 -1.3693326e-25 8.1484107)
(-48.351415 6.8731285e-16 8.326987)
(-49.734799 6.9094541e-16 8.496854)
(-51.087635 -5.8020475e-21 8.6573168)
(-52.410549 1.12391e-37 8.8097386)
(-53.707399 1.333103e-21 8.9536118)
(-54.974915 1.7379007e-19 9.0899499)
(-56.216319 -7.0567434e-16 9.2175872)
(-57.429117 7.0802442e-16 9.3376123)
(-58.616972 -1.868208e-19 9.4495505)
(-59.780581 2.0098465e-19 9.5541333)
(-60.934158 -5.4028353e-21 9.6543811)
(-62.087851 -7.1582165e-16 9.7493031)
(-63.230804 -7.176845e-16 9.8386375)
(-64.359469 1.4378177e-15 9.921847)
(-65.476054 -2.086291e-19 9.9992333)
(-66.584404 2.9460103e-24 10.070575)
(-67.681262 -7.2297005e-16 10.135533)
(-68.761729 -6.9223527e-22 10.193072)
(-69.822579 1.4499361e-15 10.243621)
(-70.871283 7.2584342e-16 10.287132)
(-71.914237 1.2055881e-19 10.324205)
(-72.956429 1.1514665e-19 10.355484)
(-73.99625 -7.2805687e-16 10.381298)
(-75.032497 7.283445e-16 10.400027)
(-76.062779 7.2914816e-16 10.41202)
(-77.087342 -7.2923651e-16 10.416398)
(-78.097757 7.2973577e-16 10.411627)
(-79.079462 1.308368e-19 10.39606)
(-80.015134 1.4595975e-15 10.368004)
(-80.888048 -7.2971258e-16 10.325182)
(-81.692509 1.4521203e-20 10.266955)
(-82.449037 -1.4769892e-20 10.197018)
(-83.206994 -1.4192017e-19 10.119915)
(-84.025411 -1.3472184e-19 10.040151)
(-84.974731 -7.2610297e-16 9.9638192)
(-86.071302 -7.2524993e-16 9.8906677)
(-87.199829 -2.5896904e-25 9.8099894)
(-88.123485 -7.2433427e-16 9.6991518)
(-88.525135 1.1789811e-19 9.5269267)
(-88.122999 1.1716718e-19 9.2684575)
(-86.778382 -1.5351883e-25 8.9165194)
(-84.56473 3.7103365e-20 8.488932)
(-81.664553 -5.2447779e-20 8.0147331)
(-78.488872 3.4651947e-16 7.5314666)
(-76.233709 3.4140263e-16 7.1195)
(-76.615827 -3.3723551e-16 6.8879808)
(-81.19614 -3.3381049e-16 6.9799721)
(-90.681145 -2.8407467e-33 7.3633299)
(-103.64155 3.3019186e-16 7.9410168)
(-117.43334 -3.2920898e-16 8.5055554)
(-129.49423 -4.2608608e-20 8.8979884)
(-138.75895 3.2783206e-16 9.0368435)
(-145.37351 -3.279551e-16 8.9203879)
(-148.19101 0 8.4962257)
)
;
    }
    inlet
    {
        type            calculated;
        value           uniform (0 0 0);
    }
    outlet
    {
        type            calculated;
        value           uniform (0 0 0);
    }
    back
    {
        type            empty;
    }
    front
    {
        type            empty;
    }
}


// ************************************************************************* //
