/*--------------------------------*- C++ -*----------------------------------*\
  =========                 |
  \\      /  F ield         | OpenFOAM: The Open Source CFD Toolbox
   \\    /   O peration     | Website:  https://openfoam.org
    \\  /    A nd           | Version:  8
     \\/     M anipulation  |
\*---------------------------------------------------------------------------*/
FoamFile
{
    version     2.0;
    format      ascii;
    class       volScalarField;
    location    "0.18001";
    object      yPlus;
}
// * * * * * * * * * * * * * * * * * * * * * * * * * * * * * * * * * * * * * //

dimensions      [0 0 0 0 0 0 0];

internalField   uniform 0;

boundaryField
{
    aerofoil
    {
        type            calculated;
        value           nonuniform List<scalar> 
300
(
131.76241
131.11257
130.77861
130.39003
130.06096
129.75529
129.47331
129.20799
128.97065
128.7422
128.53649
128.36152
128.21604
128.0813
127.97232
127.88412
127.80765
127.75314
127.71137
127.68616
127.68008
127.68256
127.7002
127.71713
127.74984
127.77445
127.79905
127.82847
127.86103
127.90955
127.98284
128.08097
128.2056
128.3515
128.5447
128.76676
129.00903
129.2648
129.52545
129.7759
130.02263
130.26661
130.50757
130.77299
131.05341
131.35569
131.62008
131.84336
132.00633
132.08173
132.07635
132.0074
131.88197
131.73112
131.53826
131.37074
131.31352
131.57749
132.05279
132.65434
133.17454
133.46902
133.43195
132.91676
131.75475
129.66197
126.31972
121.20561
113.57621
102.30219
85.644793
61.623045
37.801791
10.065811
33.530556
97.223607
105.94235
108.16108
110.61838
112.24802
113.67414
114.80704
115.7769
116.59598
117.30303
117.91693
118.45485
118.92553
119.34488
119.72133
120.05852
120.3624
120.63789
120.88543
121.1121
121.31829
121.50991
121.68414
121.84702
121.99509
122.13529
122.26441
122.38845
122.5035
122.61656
122.72653
122.83377
122.94352
123.04896
123.15326
123.25609
123.35976
123.4629
123.56625
123.66707
123.7706
123.87455
123.97996
124.08686
124.20051
124.31932
124.4487
124.58472
124.72673
124.87422
125.03228
125.19682
125.36547
125.53887
125.7171
125.89917
126.09291
126.29685
126.5154
126.74415
126.98534
127.23199
127.49116
127.7594
128.0383
128.32229
128.61107
128.90622
129.2118
129.53345
129.88581
130.25787
130.65989
131.06754
131.65608
124.64911
124.77074
124.56797
124.35611
124.14264
123.97283
123.8147
123.69021
123.5708
123.4872
123.40838
123.35275
123.32974
123.32584
123.34018
123.37727
123.42899
123.50349
123.59029
123.69602
123.82026
123.95317
124.10255
124.254
124.42442
124.59516
124.77036
124.96157
125.16079
125.38562
125.63731
125.92127
126.23682
126.5874
126.98724
127.43125
127.90657
128.41109
128.94528
129.51815
130.11164
130.72559
131.35236
132.01707
132.71245
133.45154
134.19445
134.92802
135.63977
136.29726
136.87748
137.36145
137.74676
138.03057
138.24791
138.41516
138.55589
138.78767
139.15868
139.9402
141.36993
143.37575
145.7753
148.24215
150.42324
152.23882
153.54414
153.65943
152.25664
148.41473
141.11479
129.30181
112.07765
88.14977
60.165126
26.484443
39.248673
43.629825
48.310394
52.204241
55.814292
59.054449
62.007273
64.690594
67.144099
69.407402
71.500595
73.443033
75.250969
76.940956
78.519038
79.995298
81.376711
82.673285
83.89931
85.065428
86.180307
87.243333
88.260822
89.233757
90.16855
91.062684
91.921721
92.743392
93.533069
94.290764
95.026691
95.750768
96.455029
97.137036
97.798395
98.442364
99.067857
99.672067
100.25221
100.81384
101.3608
101.89621
102.42009
102.93144
103.42809
103.91012
104.37364
104.81003
105.21053
105.56415
105.86924
106.1329
106.38346
106.65015
106.96772
107.35407
107.75167
108.04733
108.07985
107.69043
106.79486
105.36727
103.50828
101.34686
99.493523
99.020407
100.60057
104.44833
109.31458
114.1361
118.02614
120.86429
122.92902
124.09473
)
;
    }
    inlet
    {
        type            calculated;
        value           uniform 0;
    }
    outlet
    {
        type            calculated;
        value           uniform 0;
    }
    back
    {
        type            empty;
    }
    front
    {
        type            empty;
    }
}


// ************************************************************************* //
