/*--------------------------------*- C++ -*----------------------------------*\
  =========                 |
  \\      /  F ield         | OpenFOAM: The Open Source CFD Toolbox
   \\    /   O peration     | Website:  https://openfoam.org
    \\  /    A nd           | Version:  8
     \\/     M anipulation  |
\*---------------------------------------------------------------------------*/
FoamFile
{
    version     2.0;
    format      ascii;
    class       volScalarField;
    location    "0.210011";
    object      alphat;
}
// * * * * * * * * * * * * * * * * * * * * * * * * * * * * * * * * * * * * * //

dimensions      [1 -1 -1 0 0 0 0];

internalField   nonuniform List<scalar> 
20000
(
0.0010861278
0.0024708227
0.0030855417
0.0030432537
0.0022175898
0.00051758163
1.4682003e-07
6.0088352e-09
5.5831696e-09
5.5689383e-09
5.4452148e-09
5.4799251e-09
5.4063814e-09
5.4508338e-09
5.4540383e-09
5.4994119e-09
5.5332384e-09
5.5938996e-09
5.6582584e-09
5.7447196e-09
5.8432121e-09
5.9653924e-09
6.1116264e-09
6.2812878e-09
6.4741522e-09
6.6891626e-09
6.9239111e-09
7.1728821e-09
7.4263149e-09
7.6740038e-09
7.9052276e-09
8.1117054e-09
8.288198e-09
8.4330287e-09
8.5457991e-09
8.6295646e-09
8.6955967e-09
8.7389126e-09
8.7594405e-09
8.764587e-09
8.7620945e-09
8.7505981e-09
8.731977e-09
8.7093552e-09
8.6965664e-09
8.683948e-09
8.6324129e-09
8.5749862e-09
8.5184813e-09
8.4689239e-09
0.0010690821
0.002406737
0.0029808046
0.0029016618
0.0020056432
0.00040163383
5.2350971e-08
5.9313442e-09
5.537025e-09
5.5269775e-09
5.4068127e-09
5.4434287e-09
5.3710845e-09
5.416674e-09
5.4212248e-09
5.4679931e-09
5.5034595e-09
5.5655258e-09
5.6313935e-09
5.7197396e-09
5.8220361e-09
5.9511097e-09
6.1031947e-09
6.2795274e-09
6.4752269e-09
6.6963353e-09
6.9363688e-09
7.1896644e-09
7.4459355e-09
7.6945984e-09
7.9250547e-09
8.129396e-09
8.3030826e-09
8.4448394e-09
8.5543496e-09
8.6366571e-09
8.7023231e-09
8.7424427e-09
8.760805e-09
8.765637e-09
8.7627481e-09
8.7506827e-09
8.7292616e-09
8.7074793e-09
8.6948742e-09
8.6804246e-09
8.6310167e-09
8.5768976e-09
8.5273328e-09
8.4676228e-09
0.0010574445
0.0023521822
0.0028793357
0.0027586436
0.001785258
0.00029108183
2.2764322e-08
5.8706645e-09
5.4969138e-09
5.4894512e-09
5.3730201e-09
5.4109132e-09
5.3397812e-09
5.3861495e-09
5.3922123e-09
5.4401374e-09
5.4769415e-09
5.5401494e-09
5.6080317e-09
5.6999809e-09
5.8100179e-09
5.9461258e-09
6.1024439e-09
6.2801586e-09
6.4822051e-09
6.7086996e-09
6.9542817e-09
7.2118494e-09
7.4707079e-09
7.719914e-09
7.9490279e-09
8.1505928e-09
8.3208217e-09
8.4588291e-09
8.5645635e-09
8.6456556e-09
8.7099475e-09
8.7470974e-09
8.7629718e-09
8.7673021e-09
8.7640148e-09
8.7509058e-09
8.7276112e-09
8.7044851e-09
8.6934756e-09
8.6760673e-09
8.6241153e-09
8.5727855e-09
8.52444e-09
8.4764179e-09
0.0010454435
0.0022984103
0.002781091
0.0026138064
0.0015702394
0.0001964384
1.2870075e-08
5.8173689e-09
5.4594027e-09
5.455078e-09
5.342519e-09
5.3820035e-09
5.3122631e-09
5.3595502e-09
5.3669992e-09
5.4159328e-09
5.4542155e-09
5.5193743e-09
5.5913223e-09
5.6905236e-09
5.8057119e-09
5.9449314e-09
6.10269e-09
6.2869356e-09
6.4951936e-09
6.7280616e-09
6.9792219e-09
7.2409051e-09
7.5018858e-09
7.7509578e-09
7.9779138e-09
8.1758744e-09
8.3418502e-09
8.475298e-09
8.5767493e-09
8.6566264e-09
8.7178525e-09
8.7517433e-09
8.7656717e-09
8.7694376e-09
8.7653053e-09
8.7511219e-09
8.7272759e-09
8.7033283e-09
8.6914643e-09
8.6721741e-09
8.6205082e-09
8.5692964e-09
8.5248304e-09
8.4980523e-09
0.0010340105
0.0022467141
0.0026882165
0.0024739194
0.0013629495
0.00011484995
9.0138009e-09
5.7721661e-09
5.426795e-09
5.4253919e-09
5.3163443e-09
5.3573571e-09
5.2889695e-09
5.3370525e-09
5.3458548e-09
5.3960128e-09
5.4368907e-09
5.5069309e-09
5.5846865e-09
5.6871222e-09
5.8049572e-09
5.9461021e-09
6.1097886e-09
6.2997434e-09
6.514813e-09
6.7540222e-09
7.0107719e-09
7.2763148e-09
7.5389006e-09
7.7871306e-09
8.0111302e-09
8.2047067e-09
8.3656917e-09
8.4938429e-09
8.5905982e-09
8.6690411e-09
8.7263337e-09
8.7567593e-09
8.7686553e-09
8.7719806e-09
8.7668221e-09
8.7515263e-09
8.7272344e-09
8.7034376e-09
8.6891646e-09
8.6675813e-09
8.6147606e-09
8.563005e-09
8.5222653e-09
8.5011346e-09
0.0010228346
0.0021967117
0.0025969295
0.0023354933
0.0011655306
5.2547309e-05
7.3409248e-09
5.7326606e-09
5.3984634e-09
5.4001933e-09
5.2941093e-09
5.3368186e-09
5.270058e-09
5.3190953e-09
5.3298142e-09
5.3829556e-09
5.4285479e-09
5.5021678e-09
5.5825855e-09
5.6867795e-09
5.8070952e-09
5.9535835e-09
6.122587e-09
6.319269e-09
6.5412639e-09
6.7871097e-09
7.0493657e-09
7.3184213e-09
7.5819867e-09
7.828569e-09
8.048744e-09
8.2371184e-09
8.3923433e-09
8.5144716e-09
8.6062385e-09
8.6827224e-09
8.7353001e-09
8.7619501e-09
8.7720663e-09
8.7748216e-09
8.7684236e-09
8.7519827e-09
8.7272683e-09
8.7036489e-09
8.6864837e-09
8.6616764e-09
8.6085413e-09
8.5557142e-09
8.5195879e-09
8.4889918e-09
0.0010119693
0.0021478928
0.0025074325
0.0021968742
0.00098119853
1.7983404e-05
6.555457e-09
5.6997622e-09
5.3755993e-09
5.3798366e-09
5.2772785e-09
5.3213687e-09
5.2565387e-09
5.3074828e-09
5.3216436e-09
5.3776179e-09
5.4255449e-09
5.5009967e-09
5.5827675e-09
5.689935e-09
5.8151566e-09
5.9666663e-09
6.1420889e-09
6.3455929e-09
6.574844e-09
6.8273888e-09
7.0950011e-09
7.3671145e-09
7.6309431e-09
7.8750075e-09
8.0904667e-09
8.2728246e-09
8.4215206e-09
8.5369782e-09
8.6237199e-09
8.6972809e-09
8.7447659e-09
8.7677911e-09
8.7757586e-09
8.7778699e-09
8.7700662e-09
8.752486e-09
8.7274857e-09
8.7042519e-09
8.6836431e-09
8.6513514e-09
8.6011252e-09
8.5481882e-09
8.5109985e-09
8.4676943e-09
0.0010015386
0.0021002681
0.0024194422
0.0020571077
0.0008122698
5.0045354e-06
6.1672634e-09
5.6744716e-09
5.3579964e-09
5.3639983e-09
5.2659834e-09
5.3084685e-09
5.2497688e-09
5.3024154e-09
5.318526e-09
5.3759359e-09
5.4251286e-09
5.5018383e-09
5.5872878e-09
5.6985964e-09
5.8287035e-09
5.9861232e-09
6.1681903e-09
6.3790278e-09
6.6157602e-09
6.8750823e-09
7.147801e-09
7.4224096e-09
7.6856846e-09
7.9262923e-09
8.136116e-09
8.311632e-09
8.4530097e-09
8.5612304e-09
8.6431917e-09
8.712412e-09
8.7545831e-09
8.7738777e-09
8.7798818e-09
8.7809812e-09
8.771678e-09
8.7529952e-09
8.7274696e-09
8.7048322e-09
8.6811112e-09
8.6265357e-09
8.5916464e-09
8.5414414e-09
8.5066527e-09
8.4684014e-09
0.00099147275
0.0020538204
0.0023327757
0.0019198865
0.00066039498
1.3077379e-06
5.979565e-09
5.6524854e-09
5.3483735e-09
5.3518136e-09
5.2546809e-09
5.2956276e-09
5.2471171e-09
5.3005317e-09
5.3178404e-09
5.3759337e-09
5.4276768e-09
5.5077408e-09
5.5968841e-09
5.7126407e-09
5.8483336e-09
6.0119648e-09
6.2012479e-09
6.4197552e-09
6.6642153e-09
6.9302894e-09
7.2077658e-09
7.4841917e-09
7.7460019e-09
7.982159e-09
8.1854105e-09
8.3532503e-09
8.4865119e-09
8.5870404e-09
8.6645177e-09
8.7279401e-09
8.7645966e-09
8.7801705e-09
8.7846269e-09
8.7840735e-09
8.7732392e-09
8.7531058e-09
8.727369e-09
8.7049257e-09
8.6792792e-09
8.6185695e-09
8.5762112e-09
8.5317977e-09
8.5069379e-09
8.4733826e-09
0.00098195884
0.0020091708
0.0022471371
0.0017790684
0.00052607135
3.6290269e-07
5.8861166e-09
5.6374852e-09
5.3382436e-09
5.3415544e-09
5.2427572e-09
5.2873967e-09
5.24626e-09
5.3002145e-09
5.3196106e-09
5.380157e-09
5.4350017e-09
5.5183186e-09
5.6118306e-09
5.7325036e-09
5.8741318e-09
6.0445143e-09
6.2414285e-09
6.4680027e-09
6.7203747e-09
6.993103e-09
7.2748727e-09
7.5523208e-09
7.8116666e-09
8.0423315e-09
8.2380562e-09
8.3973681e-09
8.5217358e-09
8.614273e-09
8.687278e-09
8.7438359e-09
8.7747426e-09
8.7867117e-09
8.7898629e-09
8.787286e-09
8.7747418e-09
8.7530066e-09
8.7271403e-09
8.7050434e-09
8.6779118e-09
8.6218744e-09
8.560549e-09
8.5240375e-09
8.5060208e-09
8.4771359e-09
0.00097288895
0.0019669067
0.0021644693
0.0016351314
0.00041214158
1.1793478e-07
5.8316643e-09
5.6272519e-09
5.3290814e-09
5.3314875e-09
5.2340846e-09
5.280073e-09
5.2477413e-09
5.3038153e-09
5.3258914e-09
5.3888187e-09
5.4471202e-09
5.5341996e-09
5.6323429e-09
5.7583121e-09
5.9063668e-09
6.0839484e-09
6.2889697e-09
6.5239558e-09
6.7843769e-09
7.0635592e-09
7.3490349e-09
7.6265941e-09
7.8823931e-09
8.1064786e-09
8.2936994e-09
8.4436157e-09
8.5583931e-09
8.6428863e-09
8.7110485e-09
8.759914e-09
8.7849759e-09
8.7936149e-09
8.7954166e-09
8.7904245e-09
8.7761432e-09
8.7528933e-09
8.7266809e-09
8.7050371e-09
8.6760212e-09
8.6207942e-09
8.5569704e-09
8.5224306e-09
8.5063904e-09
8.4806667e-09
0.00096421599
0.001926663
0.002092144
0.0014873443
0.00031386144
4.6898202e-08
5.8076444e-09
5.6145036e-09
5.3271754e-09
5.3294831e-09
5.2318862e-09
5.2785349e-09
5.2536749e-09
5.3118691e-09
5.3367943e-09
5.4024222e-09
5.4643963e-09
5.5554365e-09
5.6586172e-09
5.7903037e-09
5.9452305e-09
6.1305056e-09
6.3440745e-09
6.5877968e-09
6.8563255e-09
7.1416489e-09
7.4301126e-09
7.7067595e-09
7.9578502e-09
8.174221e-09
8.3519361e-09
8.4915979e-09
8.5962532e-09
8.6729559e-09
8.7352839e-09
8.7759654e-09
8.795238e-09
8.8010601e-09
8.8011003e-09
8.7937041e-09
8.7774135e-09
8.7525804e-09
8.72595e-09
8.7046847e-09
8.6730701e-09
8.6178974e-09
8.5527649e-09
8.5215893e-09
8.5088933e-09
8.4836826e-09
0.0009558303
0.0018868361
0.0020168587
0.0013352754
0.00022616558
2.326184e-08
5.7935453e-09
5.6090707e-09
5.3317986e-09
5.3337941e-09
5.2381187e-09
5.2857932e-09
5.2646476e-09
5.3247351e-09
5.3525887e-09
5.4210151e-09
5.4869098e-09
5.5822418e-09
5.6908141e-09
5.8286437e-09
5.9909252e-09
6.184381e-09
6.4069412e-09
6.6596807e-09
6.9362919e-09
7.2273185e-09
7.517918e-09
7.792514e-09
8.037648e-09
8.2451142e-09
8.4123113e-09
8.5409254e-09
8.6351658e-09
8.7045171e-09
8.7593877e-09
8.791821e-09
8.8055685e-09
8.809101e-09
8.8067336e-09
8.796937e-09
8.7786532e-09
8.7519715e-09
8.7249151e-09
8.7037793e-09
8.6693839e-09
8.6126165e-09
8.5480354e-09
8.5213983e-09
8.508461e-09
8.4864852e-09
0.0009478969
0.0018483788
0.0019445719
0.0011830606
0.00014915371
1.4305516e-08
5.7810364e-09
5.6059341e-09
5.337131e-09
5.3415304e-09
5.249446e-09
5.2989366e-09
5.2803592e-09
5.3422632e-09
5.3732495e-09
5.4446998e-09
5.5148046e-09
5.6147368e-09
5.7291094e-09
5.8735317e-09
6.0436546e-09
6.2457884e-09
6.4777586e-09
6.739741e-09
7.0243051e-09
7.3204582e-09
7.6122019e-09
7.8834877e-09
8.1213214e-09
8.3186505e-09
8.4743561e-09
8.5912804e-09
8.6750707e-09
8.7371404e-09
8.7829843e-09
8.8073968e-09
8.816222e-09
8.8174272e-09
8.8122897e-09
8.8000823e-09
8.7799509e-09
8.751163e-09
8.723639e-09
8.7024521e-09
8.6640106e-09
8.604794e-09
8.5457827e-09
8.5210811e-09
8.5006983e-09
8.4887084e-09
0.00094035448
0.0018108961
0.001872437
0.0010365983
8.4663659e-05
1.0442222e-08
5.7719102e-09
5.6077056e-09
5.3469391e-09
5.3530502e-09
5.2650526e-09
5.316059e-09
5.3005829e-09
5.3645296e-09
5.3988563e-09
5.4735745e-09
5.5481832e-09
5.6530669e-09
5.773653e-09
5.9251364e-09
6.1036086e-09
6.314922e-09
6.5567049e-09
6.8280882e-09
7.1203623e-09
7.4209172e-09
7.7126632e-09
7.9792394e-09
8.2083273e-09
8.3942891e-09
8.5376449e-09
8.6424551e-09
8.7159411e-09
8.7699655e-09
8.8059059e-09
8.8226694e-09
8.8274701e-09
8.8257644e-09
8.8177059e-09
8.8030596e-09
8.781041e-09
8.7502401e-09
8.7220129e-09
8.700984e-09
8.6532646e-09
8.5942646e-09
8.5436345e-09
8.5193786e-09
8.4982402e-09
8.4924248e-09
0.00093290831
0.0017712965
0.0018000377
0.00090071932
3.913407e-05
8.6125309e-09
5.7695591e-09
5.6140295e-09
5.3603389e-09
5.3689637e-09
5.2847186e-09
5.3377639e-09
5.3254553e-09
5.3915749e-09
5.429495e-09
5.5077202e-09
5.5871681e-09
5.6973731e-09
5.8246148e-09
5.9836514e-09
6.170992e-09
6.3919873e-09
6.6439474e-09
6.9248036e-09
7.2244063e-09
7.5284777e-09
7.8189161e-09
8.0792299e-09
8.2980616e-09
8.4715289e-09
8.6018646e-09
8.6943317e-09
8.7576056e-09
8.8021333e-09
8.8280092e-09
8.8379499e-09
8.8391512e-09
8.8339538e-09
8.8229424e-09
8.8058084e-09
8.7815856e-09
8.7491209e-09
8.7211671e-09
8.6997763e-09
8.6380844e-09
8.5800241e-09
8.5398715e-09
8.511652e-09
8.5001018e-09
8.512148e-09
0.00092550188
0.0017304405
0.00172606
0.00077458178
1.4778212e-05
7.6951981e-09
5.7716106e-09
5.6248646e-09
5.3779664e-09
5.3892854e-09
5.3088804e-09
5.3639399e-09
5.3549967e-09
5.4234859e-09
5.4652378e-09
5.5472639e-09
5.6318789e-09
5.74779e-09
5.8821457e-09
6.0492525e-09
6.2460026e-09
6.4771861e-09
6.7396481e-09
7.0299541e-09
7.3363518e-09
7.6428742e-09
7.9305002e-09
8.1828441e-09
8.3899362e-09
8.5499987e-09
8.6668224e-09
8.7467462e-09
8.7994137e-09
8.8330269e-09
8.8493176e-09
8.8536645e-09
8.8508086e-09
8.8419578e-09
8.8279728e-09
8.8083132e-09
8.7819003e-09
8.7484404e-09
8.7213489e-09
8.6991263e-09
8.6390149e-09
8.5748572e-09
8.5343211e-09
8.5093757e-09
8.5019263e-09
8.5221747e-09
0.00091798275
0.0016875132
0.0016491311
0.00065831261
4.8955348e-06
7.2156013e-09
5.7787733e-09
5.6399463e-09
5.3997111e-09
5.4142263e-09
5.337423e-09
5.3946878e-09
5.3893112e-09
5.4603344e-09
5.5061937e-09
5.5922945e-09
5.6824298e-09
5.8044616e-09
5.9464234e-09
6.1221411e-09
6.3288607e-09
6.5707186e-09
6.8439521e-09
7.143556e-09
7.4560456e-09
7.7637375e-09
8.046837e-09
8.2894194e-09
8.483484e-09
8.6294934e-09
8.7323248e-09
8.799255e-09
8.8401887e-09
8.8626177e-09
8.87037e-09
8.8695308e-09
8.8622307e-09
8.8497191e-09
8.8327835e-09
8.8106959e-09
8.7820846e-09
8.7485681e-09
8.7217461e-09
8.6986382e-09
8.6382229e-09
8.5716462e-09
8.5316793e-09
8.5123539e-09
8.5036422e-09
8.5081705e-09
0.00091008574
0.0016417481
0.0015653684
0.00055225078
1.5651933e-06
6.9594188e-09
5.7906462e-09
5.6594099e-09
5.4257929e-09
5.4434637e-09
5.3705033e-09
5.4300886e-09
5.4284557e-09
5.5022004e-09
5.5524216e-09
5.6429122e-09
5.7389381e-09
5.8675288e-09
6.0176123e-09
6.2025213e-09
6.4197849e-09
6.6727988e-09
6.956997e-09
7.265617e-09
7.5832889e-09
7.8906251e-09
8.1672761e-09
8.3983647e-09
8.5784606e-09
8.7098487e-09
8.7978904e-09
8.8508737e-09
8.8793267e-09
8.8910531e-09
8.8916943e-09
8.8850235e-09
8.8733214e-09
8.8571792e-09
8.8373433e-09
8.8131891e-09
8.7822223e-09
8.7486936e-09
8.7224015e-09
8.6974912e-09
8.6336789e-09
8.5660325e-09
8.5265067e-09
8.5194976e-09
8.5069844e-09
8.4913663e-09
0.00090187445
0.0015934956
0.0014718819
0.00045713058
5.2284229e-07
6.8217145e-09
5.8075519e-09
5.6834173e-09
5.45654e-09
5.4772278e-09
5.4081411e-09
5.4701554e-09
5.4724766e-09
5.5491204e-09
5.6040114e-09
5.6991918e-09
5.8015233e-09
5.9371557e-09
6.0959206e-09
6.2906339e-09
6.5190225e-09
6.7836346e-09
7.0788914e-09
7.3960686e-09
7.71777e-09
8.0229566e-09
8.2911171e-09
8.509267e-09
8.6747714e-09
8.7905576e-09
8.8623834e-09
8.9007955e-09
8.9168373e-09
8.9192197e-09
8.9125091e-09
8.9000954e-09
8.8840033e-09
8.8642837e-09
8.841561e-09
8.8156883e-09
8.7822995e-09
8.7488291e-09
8.7228034e-09
8.6947456e-09
8.6256812e-09
8.5532167e-09
8.5254186e-09
8.5187964e-09
8.5168832e-09
8.4945162e-09
0.00089350685
0.001543821
0.001371292
0.0003739462
1.9343221e-07
6.7478568e-09
5.8292054e-09
5.7117621e-09
5.4916802e-09
5.5153559e-09
5.4503044e-09
5.5148875e-09
5.5213915e-09
5.6011573e-09
5.6610209e-09
5.7612538e-09
5.8703262e-09
6.0135156e-09
6.181568e-09
6.3867293e-09
6.6268388e-09
6.9034503e-09
7.2097492e-09
7.5348148e-09
7.8591076e-09
8.160086e-09
8.4177607e-09
8.621965e-09
8.772106e-09
8.8702733e-09
8.9249724e-09
8.9487173e-09
8.9534574e-09
8.9467271e-09
8.932642e-09
8.9146058e-09
8.894224e-09
8.8709961e-09
8.8453455e-09
8.8172754e-09
8.7822935e-09
8.7492046e-09
8.7228147e-09
8.6896825e-09
8.6148347e-09
8.5494414e-09
8.5251303e-09
8.5100644e-09
8.5146968e-09
8.4989904e-09
0.00088487721
0.0014927205
0.001264807
0.000302978
8.2266119e-08
6.710875e-09
5.8555888e-09
5.7444164e-09
5.5310611e-09
5.5578771e-09
5.4969998e-09
5.5643126e-09
5.5752633e-09
5.6583691e-09
5.7235524e-09
5.8292031e-09
5.9455108e-09
6.0968397e-09
6.2748273e-09
6.4911085e-09
6.7435137e-09
7.032456e-09
7.3496161e-09
7.681642e-09
8.0067613e-09
8.3012954e-09
8.546797e-09
8.7363454e-09
8.8691574e-09
8.9479917e-09
8.9850242e-09
8.9952084e-09
8.9892432e-09
8.973162e-09
8.9519366e-09
8.9284909e-09
8.9039302e-09
8.8773013e-09
8.848779e-09
8.8178276e-09
8.7822615e-09
8.7496765e-09
8.7226938e-09
8.681896e-09
8.6026081e-09
8.5494423e-09
8.5234659e-09
8.5070221e-09
8.5056002e-09
8.5040237e-09
0.00087609881
0.0014394271
0.0011593863
0.0002344607
4.016821e-08
6.6958545e-09
5.8865547e-09
5.7813219e-09
5.5747133e-09
5.6047737e-09
5.5482704e-09
5.6184827e-09
5.6341421e-09
5.7208327e-09
5.7916958e-09
5.903208e-09
6.0272889e-09
6.1873844e-09
6.3759948e-09
6.6040875e-09
6.8693525e-09
7.1708733e-09
7.4985236e-09
7.8362708e-09
8.160125e-09
8.4459604e-09
8.6780869e-09
8.8517858e-09
8.9643936e-09
9.0227562e-09
9.0428672e-09
9.0407867e-09
9.0234712e-09
8.9984341e-09
8.970315e-09
8.9416733e-09
8.9130685e-09
8.8831851e-09
8.8521104e-09
8.8180219e-09
8.7820349e-09
8.7497611e-09
8.7215134e-09
8.6711366e-09
8.591074e-09
8.5473756e-09
8.5212389e-09
8.5092521e-09
8.5064321e-09
8.5172715e-09
0.00086735008
0.0013836732
0.0010572416
0.00017132611
2.3136846e-08
6.6953476e-09
5.9213756e-09
5.8225362e-09
5.6226636e-09
5.6561444e-09
5.6041728e-09
5.6774456e-09
5.6980941e-09
5.788639e-09
5.8656066e-09
5.9834689e-09
6.1159285e-09
6.2854687e-09
6.4854215e-09
6.7260197e-09
7.0046613e-09
7.3188714e-09
7.6563802e-09
7.9982419e-09
8.3184846e-09
8.5936046e-09
8.8115005e-09
8.9665249e-09
9.0566278e-09
9.0942789e-09
9.0996779e-09
9.084381e-09
9.0561419e-09
9.0224091e-09
8.987702e-09
8.9541026e-09
8.9215929e-09
8.8886105e-09
8.8554298e-09
8.8180083e-09
8.7815858e-09
8.7497324e-09
8.7191469e-09
8.6572332e-09
8.5816073e-09
8.5437059e-09
8.5178585e-09
8.5162765e-09
8.5084798e-09
8.5372882e-09
0.0008596976
0.0013349299
0.00095461106
0.00011396923
1.5554101e-08
6.7046359e-09
5.9609624e-09
5.868081e-09
5.67504e-09
5.7119648e-09
5.6647277e-09
5.7412216e-09
5.7672079e-09
5.8619388e-09
5.9455034e-09
6.0702709e-09
6.2117428e-09
6.3914385e-09
6.6034772e-09
6.8572785e-09
7.1497689e-09
7.4766187e-09
7.8230458e-09
8.1670264e-09
8.4811979e-09
8.7440276e-09
8.9462393e-09
9.0788647e-09
9.1449622e-09
9.1638153e-09
9.1544182e-09
9.1259694e-09
9.0870531e-09
9.0450147e-09
9.0040439e-09
8.9657375e-09
8.929482e-09
8.8935254e-09
8.8583353e-09
8.8179645e-09
8.7808239e-09
8.7492644e-09
8.715084e-09
8.6417236e-09
8.573547e-09
8.5381472e-09
8.5182209e-09
8.5222615e-09
8.5114317e-09
8.5298649e-09
0.00085237901
0.0012849121
0.00085312306
6.6337306e-05
1.1857383e-08
6.7210802e-09
6.0046914e-09
5.9178044e-09
5.731674e-09
5.7722375e-09
5.7299602e-09
5.8099404e-09
5.8416823e-09
5.9409948e-09
6.0316799e-09
6.1639322e-09
6.3150901e-09
6.5056952e-09
6.7305749e-09
6.9982716e-09
7.3049683e-09
7.6441837e-09
7.9981841e-09
8.3419501e-09
8.6476866e-09
8.8971018e-09
9.0802947e-09
9.1874646e-09
9.2296899e-09
9.2315881e-09
9.2065921e-09
9.1652953e-09
9.1161407e-09
9.0661835e-09
9.0192997e-09
8.9765488e-09
8.9367435e-09
8.8979585e-09
8.8599443e-09
8.8175585e-09
8.7796751e-09
8.7479426e-09
8.7088055e-09
8.6266445e-09
8.5653151e-09
8.5309548e-09
8.5184562e-09
8.5177826e-09
8.5243538e-09
8.5148405e-09
0.00084553562
0.0012346407
0.00075447816
3.2940807e-05
9.9426335e-09
6.743514e-09
6.052586e-09
5.9718876e-09
5.7926669e-09
5.8370873e-09
5.8000831e-09
5.8838539e-09
5.9218963e-09
6.0261197e-09
6.1244662e-09
6.2648119e-09
6.4263606e-09
6.6286558e-09
6.8671663e-09
7.1494217e-09
7.4705817e-09
7.8215831e-09
8.181403e-09
8.5223749e-09
8.8176332e-09
9.052201e-09
9.2116296e-09
9.2912947e-09
9.3121813e-09
9.2964906e-09
9.2560158e-09
9.2022783e-09
9.1433183e-09
9.0858749e-09
9.0334436e-09
8.9865092e-09
8.9433951e-09
8.9020837e-09
8.8606839e-09
8.8167791e-09
8.7781321e-09
8.745398e-09
8.7001223e-09
8.6131181e-09
8.5554855e-09
8.5245369e-09
8.5167792e-09
8.5145827e-09
8.5265566e-09
8.51651e-09
0.00083935754
0.001183465
0.00065997918
1.4150452e-05
8.9087898e-09
6.7722715e-09
6.104769e-09
6.0302448e-09
5.8582456e-09
5.9067757e-09
5.8754367e-09
5.9633128e-09
6.0080068e-09
6.1176386e-09
6.2241953e-09
6.3732797e-09
6.5459811e-09
6.7607932e-09
7.013731e-09
7.3111453e-09
7.6468302e-09
8.0086522e-09
8.3720975e-09
8.7076582e-09
8.9908448e-09
9.2071373e-09
9.3387791e-09
9.3909052e-09
9.3921685e-09
9.3580855e-09
9.3025111e-09
9.236816e-09
9.1685461e-09
9.1040691e-09
9.0464636e-09
8.9955971e-09
8.949442e-09
8.9060527e-09
8.860916e-09
8.8156786e-09
8.776298e-09
8.7415882e-09
8.6890461e-09
8.601192e-09
8.5462398e-09
8.5227518e-09
8.5165931e-09
8.5155385e-09
8.5185693e-09
8.52108e-09
0.00083390249
0.0011318241
0.00057084671
5.557809e-06
8.3384709e-09
6.809445e-09
6.1614547e-09
6.093426e-09
5.9288371e-09
5.9817842e-09
5.9564179e-09
6.0486429e-09
6.1003484e-09
6.2158495e-09
6.3312202e-09
6.4897637e-09
6.6744229e-09
6.902627e-09
7.1707873e-09
7.4839e-09
7.8339215e-09
8.2051672e-09
8.5696858e-09
8.8973576e-09
9.1670034e-09
9.3595551e-09
9.4604177e-09
9.4876716e-09
9.4685623e-09
9.4161571e-09
9.3459686e-09
9.2688586e-09
9.1918044e-09
9.1207665e-09
9.0583532e-09
9.0038056e-09
8.9548742e-09
8.9096443e-09
8.8609714e-09
8.8143578e-09
8.7743789e-09
8.7367625e-09
8.6762558e-09
8.5910036e-09
8.5431589e-09
8.5221362e-09
8.5179271e-09
8.5159409e-09
8.5188487e-09
8.5356179e-09
0.00082927008
0.0010838583
0.00048767991
2.1208873e-06
8.0233936e-09
6.8535293e-09
6.2233471e-09
6.1619953e-09
6.004896e-09
6.0623757e-09
6.0432322e-09
6.1400303e-09
6.199164e-09
6.3210726e-09
6.4459376e-09
6.6147315e-09
6.8122194e-09
7.0547079e-09
7.3388764e-09
7.668067e-09
8.0318855e-09
8.4106514e-09
8.77349e-09
9.0910926e-09
9.3441172e-09
9.5076654e-09
9.5768659e-09
9.5814014e-09
9.5408028e-09
9.4705327e-09
9.3863113e-09
9.2983836e-09
9.213106e-09
9.1359771e-09
9.0691037e-09
9.0111614e-09
8.9597396e-09
8.9119663e-09
8.8609606e-09
8.8129487e-09
8.7726512e-09
8.7317023e-09
8.6629322e-09
8.5838192e-09
8.5403658e-09
8.5221903e-09
8.5239265e-09
8.517972e-09
8.5206801e-09
8.5498685e-09
0.00082443755
0.0010275717
0.00041054151
8.3115717e-07
7.8557275e-09
6.9032057e-09
6.2905919e-09
6.2359911e-09
6.0864271e-09
6.1485295e-09
6.1359738e-09
6.2376653e-09
6.3047783e-09
6.4336534e-09
6.5688275e-09
6.7487324e-09
6.9599531e-09
7.217651e-09
7.5185695e-09
7.8640486e-09
8.2406926e-09
8.624626e-09
8.9829721e-09
9.2886404e-09
9.5196893e-09
9.6497944e-09
9.6895245e-09
9.6708968e-09
9.6086835e-09
9.5211037e-09
9.423507e-09
9.325405e-09
9.2324773e-09
9.1497e-09
9.0786968e-09
9.0177275e-09
8.9642132e-09
8.9129658e-09
8.8607296e-09
8.8115862e-09
8.7713837e-09
8.7273027e-09
8.6510297e-09
8.5791721e-09
8.5371345e-09
8.5224958e-09
8.5232159e-09
8.5285727e-09
8.5229893e-09
8.5404578e-09
0.00081975062
0.0009700743
0.00034041708
3.5071713e-07
7.7746706e-09
6.9581864e-09
6.3628478e-09
6.3149141e-09
6.1733334e-09
6.2403772e-09
6.2348838e-09
6.3419296e-09
6.4176249e-09
6.5541565e-09
6.700442e-09
6.8923617e-09
7.1182575e-09
7.3920866e-09
7.7104218e-09
8.0720656e-09
8.460069e-09
8.8464168e-09
9.1975717e-09
9.4888452e-09
9.6911694e-09
9.7854254e-09
9.79884e-09
9.7553101e-09
9.6719997e-09
9.5678051e-09
9.4575643e-09
9.3499589e-09
9.2499355e-09
9.1619106e-09
9.087128e-09
9.0236027e-09
8.9684552e-09
8.9133527e-09
8.8600804e-09
8.8103762e-09
8.7705223e-09
8.7230114e-09
8.639778e-09
8.5725353e-09
8.5334586e-09
8.5224737e-09
8.5185308e-09
8.5287589e-09
8.5267805e-09
8.5308233e-09
0.00081459572
0.00090729724
0.00027677921
1.6515005e-07
7.7434103e-09
7.0179819e-09
6.43996e-09
6.3991933e-09
6.2659391e-09
6.3383615e-09
6.3404627e-09
6.4533154e-09
6.5382209e-09
6.6831933e-09
6.8413862e-09
7.0462734e-09
7.2878206e-09
7.5787174e-09
7.9149949e-09
8.2923318e-09
8.6896703e-09
9.0754988e-09
9.416964e-09
9.6890674e-09
9.8567659e-09
9.915906e-09
9.903389e-09
9.8344628e-09
9.7306449e-09
9.610625e-09
9.4885228e-09
9.3720802e-09
9.2654585e-09
9.1725747e-09
9.0944591e-09
9.0289042e-09
8.9721258e-09
8.9134536e-09
8.8591145e-09
8.8093803e-09
8.7695429e-09
8.7165108e-09
8.6280855e-09
8.5651124e-09
8.5326234e-09
8.5224271e-09
8.5192537e-09
8.5245589e-09
8.536275e-09
8.5338012e-09
0.00080884942
0.00084169861
0.00021982258
8.8325182e-08
7.7425825e-09
7.0834391e-09
6.5227753e-09
6.4895311e-09
6.3648874e-09
6.4430355e-09
6.4532318e-09
6.5723427e-09
6.6671066e-09
6.8213744e-09
6.9923046e-09
7.2111686e-09
7.4693708e-09
7.7782351e-09
8.1327408e-09
8.5247758e-09
8.9288928e-09
9.3111688e-09
9.6405826e-09
9.8861959e-09
1.0014732e-08
1.0042739e-08
1.0001887e-08
9.9080912e-09
9.7845595e-09
9.6495957e-09
9.5164386e-09
9.3917753e-09
9.2790034e-09
9.1817227e-09
9.1008797e-09
9.0337576e-09
8.9738229e-09
8.9134592e-09
8.8579261e-09
8.8085874e-09
8.7678313e-09
8.7059924e-09
8.6152145e-09
8.5576859e-09
8.5331099e-09
8.5234575e-09
8.5194523e-09
8.5260877e-09
8.5469096e-09
8.5368356e-09
0.00080191916
0.00077191142
0.00017024708
5.3481161e-08
7.7630789e-09
7.1551121e-09
6.6118673e-09
6.5863204e-09
6.470658e-09
6.5548162e-09
6.5736592e-09
6.6995253e-09
6.8048671e-09
6.969272e-09
7.1538979e-09
7.3878011e-09
7.6637149e-09
7.991377e-09
8.3641026e-09
8.7692955e-09
9.1772349e-09
9.5528706e-09
9.8664131e-09
1.0077878e-08
1.0166168e-08
1.0164301e-08
1.0094134e-08
9.9760865e-09
9.8337551e-09
9.6847878e-09
9.541358e-09
9.4090258e-09
9.2905886e-09
9.1895564e-09
9.1066907e-09
9.0382115e-09
8.9746062e-09
8.9132198e-09
8.8565631e-09
8.8078822e-09
8.7648467e-09
8.6913221e-09
8.6019444e-09
8.5532349e-09
8.5341853e-09
8.527258e-09
8.5198885e-09
8.5293759e-09
8.5427148e-09
8.542006e-09
0.00079452782
0.00069348944
0.00012711145
3.6066597e-08
7.7989926e-09
7.2331993e-09
6.707462e-09
6.689789e-09
6.5836122e-09
6.6741318e-09
6.7022512e-09
6.8354276e-09
6.9521239e-09
7.1275984e-09
7.3269291e-09
7.5769998e-09
7.8716805e-09
8.2188099e-09
8.6092683e-09
9.0254532e-09
9.4340239e-09
9.8000175e-09
1.0091178e-08
1.026178e-08
1.0312425e-08
1.0279333e-08
1.017979e-08
1.003838e-08
9.8782893e-09
9.7162781e-09
9.5632991e-09
9.4238532e-09
9.3004438e-09
9.1964961e-09
9.1121407e-09
9.0418507e-09
8.9748456e-09
8.9125044e-09
8.8550455e-09
8.8069764e-09
8.7598215e-09
8.6729641e-09
8.5908754e-09
8.5510306e-09
8.5356729e-09
8.5268228e-09
8.5211155e-09
8.5333677e-09
8.5421884e-09
8.5531829e-09
0.00078935497
0.00062961143
9.1820003e-05
2.6631161e-08
7.847221e-09
7.3181401e-09
6.8098763e-09
6.8004346e-09
6.7041686e-09
6.8015409e-09
6.8395576e-09
6.9806917e-09
7.1095545e-09
7.297115e-09
7.5122525e-09
7.7796913e-09
8.0941902e-09
8.4612194e-09
8.8684031e-09
9.2928533e-09
9.6987144e-09
1.005193e-08
1.031143e-08
1.0437341e-08
1.0453471e-08
1.0386896e-08
1.0258737e-08
1.0095e-08
9.9182604e-09
9.7441267e-09
9.5822814e-09
9.4364457e-09
9.3090811e-09
9.2029807e-09
9.1170675e-09
9.0434144e-09
8.9749434e-09
8.9113494e-09
8.8533648e-09
8.8054394e-09
8.7518103e-09
8.6540213e-09
8.582354e-09
8.5493251e-09
8.535507e-09
8.5255988e-09
8.5230651e-09
8.5375495e-09
8.5442963e-09
8.5640452e-09
0.00078540933
0.00058010721
6.3714291e-05
2.1101204e-08
7.9058942e-09
7.4099749e-09
6.9195379e-09
6.9187547e-09
6.8329463e-09
6.9375504e-09
6.9862329e-09
7.1359578e-09
7.2779257e-09
7.478702e-09
7.7108174e-09
7.9968715e-09
8.3321274e-09
8.7190875e-09
9.1412873e-09
9.5708176e-09
9.9704153e-09
1.0305292e-08
1.0524667e-08
1.0605708e-08
1.058756e-08
1.0486759e-08
1.0330874e-08
1.014602e-08
9.9537607e-09
9.7683708e-09
9.5984242e-09
9.447253e-09
9.3170482e-09
9.208905e-09
9.1204477e-09
9.0441506e-09
8.9748616e-09
8.9098184e-09
8.8515052e-09
8.8028591e-09
8.7403339e-09
8.6371641e-09
8.5762955e-09
8.5485169e-09
8.5347227e-09
8.5261014e-09
8.5260175e-09
8.5416722e-09
8.5481422e-09
8.5546695e-09
0.00078239529
0.00053546551
4.2190626e-05
1.766788e-08
7.9741561e-09
7.5094201e-09
7.0370077e-09
7.0452668e-09
6.9704772e-09
7.0827806e-09
7.1428908e-09
7.3020058e-09
7.4581095e-09
7.6733121e-09
7.9236828e-09
8.2296254e-09
8.5864323e-09
8.9928479e-09
9.4277261e-09
9.8588117e-09
1.0248478e-08
1.0556509e-08
1.0728354e-08
1.0768788e-08
1.0713003e-08
1.0578673e-08
1.0396241e-08
1.0191557e-08
9.9848684e-09
9.7890974e-09
9.6120896e-09
9.4568623e-09
9.3242125e-09
9.2128931e-09
9.121989e-09
9.0444033e-09
8.9742642e-09
8.9079866e-09
8.8494745e-09
8.7988852e-09
8.7247294e-09
8.625168e-09
8.5720432e-09
8.5472186e-09
8.533606e-09
8.527499e-09
8.5301575e-09
8.5454581e-09
8.5527771e-09
8.5478163e-09
0.00078054732
0.00049740875
2.6916092e-05
1.5450716e-08
8.051824e-09
7.6168559e-09
7.162695e-09
7.1803969e-09
7.117296e-09
7.2378407e-09
7.3103105e-09
7.4797231e-09
7.6511161e-09
7.8820844e-09
8.1520214e-09
8.47908e-09
8.8578735e-09
9.2826059e-09
9.7270932e-09
1.0155915e-08
1.0531097e-08
1.0801591e-08
1.0923178e-08
1.0924405e-08
1.0829502e-08
1.0662528e-08
1.0454913e-08
1.0231718e-08
1.0011661e-08
9.8065804e-09
9.6238972e-09
9.4654807e-09
9.3288805e-09
9.2147355e-09
9.1226903e-09
9.0445221e-09
8.9732259e-09
8.9059346e-09
8.847276e-09
8.7932496e-09
8.7072874e-09
8.615809e-09
8.5684073e-09
8.5458171e-09
8.5337608e-09
8.5294322e-09
8.5352529e-09
8.5496198e-09
8.5568286e-09
8.5507947e-09
0.00078012685
0.00046513483
1.6625029e-05
1.3974407e-08
8.1386535e-09
7.7324785e-09
7.2970378e-09
7.3247468e-09
7.2740979e-09
7.4035943e-09
7.4894436e-09
7.6701949e-09
7.8580996e-09
8.1062296e-09
8.3971159e-09
8.7464076e-09
9.1472104e-09
9.5883936e-09
1.0038974e-08
1.0461301e-08
1.0814485e-08
1.1037708e-08
1.1110537e-08
1.1071014e-08
1.0936692e-08
1.073834e-08
1.0507032e-08
1.0266615e-08
1.0034336e-08
9.8213953e-09
9.6343905e-09
9.4721083e-09
9.3309746e-09
9.2155789e-09
9.1230149e-09
9.0443333e-09
8.9717496e-09
8.9037239e-09
8.8448735e-09
8.7859845e-09
8.6897956e-09
8.607133e-09
8.5648468e-09
8.545196e-09
8.53413e-09
8.531843e-09
8.5430409e-09
8.5551349e-09
8.5600933e-09
8.5544377e-09
0.00078122062
0.00043869607
9.9871762e-06
1.297246e-08
8.2347031e-09
7.8572175e-09
7.440597e-09
7.4790862e-09
7.4418937e-09
7.5811004e-09
7.681415e-09
7.8746086e-09
8.0803392e-09
8.347147e-09
8.6603349e-09
9.0327054e-09
9.4548658e-09
9.9097841e-09
1.0362442e-08
1.0773671e-08
1.1094133e-08
1.1262987e-08
1.1290669e-08
1.1207064e-08
1.1034412e-08
1.0806177e-08
1.0552722e-08
1.0296404e-08
1.0053362e-08
9.8342698e-09
9.6432412e-09
9.475029e-09
9.3318401e-09
9.216023e-09
9.123163e-09
9.0436397e-09
8.9698928e-09
8.9013889e-09
8.8421082e-09
8.7770641e-09
8.6732403e-09
8.5995568e-09
8.5617366e-09
8.5449678e-09
8.5367702e-09
8.5356484e-09
8.5626696e-09
8.5663555e-09
8.5631337e-09
8.5572264e-09
0.00078363039
0.0004181634
5.834851e-06
1.2289896e-08
8.3407312e-09
7.991442e-09
7.5948891e-09
7.6445725e-09
7.6217624e-09
7.771505e-09
7.8874382e-09
8.0942882e-09
8.3192488e-09
8.6063026e-09
8.9430959e-09
9.3390514e-09