/*--------------------------------*- C++ -*----------------------------------*\
  =========                 |
  \\      /  F ield         | OpenFOAM: The Open Source CFD Toolbox
   \\    /   O peration     | Website:  https://openfoam.org
    \\  /    A nd           | Version:  8
     \\/     M anipulation  |
\*---------------------------------------------------------------------------*/
FoamFile
{
    version     2.0;
    format      ascii;
    class       volVectorField;
    location    "0.210011";
    object      cellDisplacement;
}
// * * * * * * * * * * * * * * * * * * * * * * * * * * * * * * * * * * * * * //

dimensions      [0 1 0 0 0 0 0];

internalField   nonuniform List<vector> 
20000
(
(-0.0012683138 0 -0.00094653365)
(-0.0012683012 0 -0.00094656915)
(-0.0012682736 0 -0.00094677658)
(-0.0012682223 0 -0.00094704376)
(-0.0012681373 0 -0.0009473885)
(-0.0012680045 0 -0.00094783395)
(-0.0012678045 0 -0.00094841239)
(-0.001267511 0 -0.00094916706)
(-0.0012670877 0 -0.00095015549)
(-0.0012664862 0 -0.00095145922)
(-0.0012656407 0 -0.00095318917)
(-0.0012644643 0 -0.00095550235)
(-0.0012628411 0 -0.00095861765)
(-0.0012606197 0 -0.00096284189)
(-0.0012576038 0 -0.00096859958)
(-0.0012535403 0 -0.0009764756)
(-0.0012481118 0 -0.00098728709)
(-0.0012409235 0 -0.001002093)
(-0.0012314972 0 -0.0010223923)
(-0.0012192698 0 -0.0010501231)
(-0.0012035993 0 -0.0010878381)
(-0.0011837999 0 -0.0011387532)
(-0.0011591927 0 -0.0012067636)
(-0.0011291621 0 -0.0012963652)
(-0.0010933026 0 -0.0014121653)
(-0.0010514131 0 -0.0015585753)
(-0.0010037778 0 -0.0017382455)
(-0.00095091422 0 -0.001952234)
(-0.00089391937 0 -0.0021972494)
(-0.00083387261 0 -0.0024671555)
(-0.00077227922 0 -0.0027509475)
(-0.00071033487 0 -0.0030361106)
(-0.00064976752 0 -0.0033066482)
(-0.00059144374 0 -0.0035498501)
(-0.00053649929 0 -0.0037543971)
(-0.00048496552 0 -0.0039145303)
(-0.00043735181 0 -0.0040253925)
(-0.00039326412 0 -0.0040856451)
(-0.00035268484 0 -0.0040945118)
(-0.00031501341 0 -0.0040533037)
(-0.00028010786 0 -0.0039629392)
(-0.00024661559 0 -0.003817518)
(-0.00021733338 0 -0.0036292168)
(-0.00018717351 0 -0.00337376)
(-0.00015830154 0 -0.0030642917)
(-0.00012807011 0 -0.0026698119)
(-9.9423604e-05 0 -0.0022199266)
(-7.290332e-05 0 -0.0017164115)
(-4.3563091e-05 0 -0.0011051203)
(-4.2045355e-06 0 -0.00022821254)
(-0.0012658255 0 -0.00077079842)
(-0.0012658133 0 -0.00077084886)
(-0.0012657841 0 -0.00077091862)
(-0.0012657307 0 -0.00077101843)
(-0.0012656426 0 -0.0007711613)
(-0.0012655056 0 -0.00077136531)
(-0.0012652998 0 -0.00077165684)
(-0.0012649983 0 -0.00077207196)
(-0.0012645642 0 -0.00077266467)
(-0.0012639482 0 -0.00077350772)
(-0.0012630835 0 -0.00077470752)
(-0.001261882 0 -0.00077640972)
(-0.0012602262 0 -0.00077882331)
(-0.001257963 0 -0.00078223997)
(-0.0012548932 0 -0.00078707072)
(-0.001250762 0 -0.00079389222)
(-0.0012452483 0 -0.00080349318)
(-0.0012379558 0 -0.00081697888)
(-0.0012284036 0 -0.00083581327)
(-0.0012160281 0 -0.00086199299)
(-0.001200191 0 -0.00089811999)
(-0.0011802141 0 -0.00094749825)
(-0.0011554316 0 -0.0010141486)
(-0.0011252563 0 -0.0011027082)
(-0.0010893035 0 -0.001218002)
(-0.0010474253 0 -0.001364592)
(-0.00099991244 0 -0.0015454366)
(-0.00094733819 0 -0.0017616205)
(-0.00089075781 0 -0.0020102511)
(-0.0008312556 0 -0.0022852902)
(-0.00077025784 0 -0.0025760165)
(-0.00070894413 0 -0.002869836)
(-0.00064892109 0 -0.0031508957)
(-0.00059106842 0 -0.0034060927)
(-0.00053645831 0 -0.003623707)
(-0.00048519138 0 -0.003797327)
(-0.00043774153 0 -0.0039217067)
(-0.0003937719 0 -0.0039951335)
(-0.00035326008 0 -0.0040165811)
(-0.00031564076 0 -0.0039871184)
(-0.00028075576 0 -0.0039074393)
(-0.00024739492 0 -0.0037725459)
(-0.00021791337 0 -0.0035925226)
(-0.00018788111 0 -0.0033462511)
(-0.00015899214 0 -0.0030439623)
(-0.00012892041 0 -0.0026580473)
(-0.00010025456 0 -0.0022139992)
(-7.3425772e-05 0 -0.0017123995)
(-4.3938978e-05 0 -0.001102649)
(-5.155218e-06 0 -0.00023967094)
(-0.0012627085 0 -0.00059885906)
(-0.001262694 0 -0.00059879844)
(-0.0012626617 0 -0.00059873439)
(-0.0012626043 0 -0.00059867561)
(-0.0012625112 0 -0.00059863143)
(-0.0012623677 0 -0.00059861479)
(-0.0012621537 0 -0.00059864573)
(-0.0012618415 0 -0.00059875381)
(-0.0012613936 0 -0.00059898233)
(-0.0012607598 0 -0.00059939495)
(-0.0012598719 0 -0.00060008643)
(-0.0012586404 0 -0.00060119159)
(-0.001256946 0 -0.00060290972)
(-0.0012546333 0 -0.00060552083)
(-0.0012515008 0 -0.00060942747)
(-0.0012472906 0 -0.0006151916)
(-0.0012416791 0 -0.00062361241)
(-0.0012342663 0 -0.00063576457)
(-0.0012245709 0 -0.00065316656)
(-0.0012120283 0 -0.00067782779)
(-0.0011960041 0 -0.00071241437)
(-0.0011758291 0 -0.00076031739)
(-0.0011508527 0 -0.00082567988)
(-0.0011205162 0 -0.00091328149)
(-0.0010844624 0 -0.0010281415)
(-0.0010425926 0 -0.0011749765)
(-0.0009952165 0 -0.0013569947)
(-0.00094295289 0 -0.0015753191)
(-0.00088682437 0 -0.0018273956)
(-0.0008279132 0 -0.0021072854)
(-0.00076756917 0 -0.0024045272)
(-0.00070694792 0 -0.0027064792)
(-0.00064753949 0 -0.0029974498)
(-0.00059022699 0 -0.0032639993)
(-0.00053602001 0 -0.0034940704)
(-0.00048507953 0 -0.0036806428)
(-0.00043784729 0 -0.0038180955)
(-0.0003940413 0 -0.0039043428)
(-0.00035363419 0 -0.0039381034)
(-0.00031609916 0 -0.0039202018)
(-0.00028126248 0 -0.0038511075)
(-0.0002480417 0 -0.0037265954)
(-0.00021840727 0 -0.0035549366)
(-0.00018849793 0 -0.0033177212)
(-0.00015961194 0 -0.0030226996)
(-0.00012969926 0 -0.0026452367)
(-0.0001010282 0 -0.0022071104)
(-7.3928264e-05 0 -0.0017078179)
(-4.4305374e-05 0 -0.0010999277)
(-6.0412867e-06 0 -0.00025012321)
(-0.0012589806 0 -0.000430635)
(-0.0012589631 0 -0.00043047254)
(-0.0012589272 0 -0.00043029048)
(-0.0012588651 0 -0.00043008901)
(-0.0012587658 0 -0.00042987094)
(-0.0012586143 0 -0.00042964157)
(-0.0012583897 0 -0.00042941417)
(-0.0012580639 0 -0.00042921093)
(-0.0012575986 0 -0.00042906872)
(-0.0012569425 0 -0.00042904462)
(-0.0012560263 0 -0.00042922373)
(-0.0012547589 0 -0.00042973378)
(-0.0012530189 0 -0.00043075956)
(-0.0012506487 0 -0.00043257248)
(-0.0012474437 0 -0.0004355604)
(-0.0012431432 0 -0.0004402834)
(-0.0012374196 0 -0.00044751874)
(-0.0012298716 0 -0.00045838126)
(-0.0012200143 0 -0.0004743659)
(-0.0012072841 0 -0.00049754142)
(-0.0011910508 0 -0.00053062808)
(-0.0011706552 0 -0.00057710882)
(-0.0011454646 0 -0.00064125056)
(-0.0011149493 0 -0.00072797761)
(-0.0010787857 0 -0.00084248367)
(-0.0010369221 0 -0.00098963853)
(-0.00098969635 0 -0.0011728415)
(-0.00093776471 0 -0.0013932696)
(-0.00088212672 0 -0.0016486385)
(-0.00082385166 0 -0.0019331248)
(-0.00076422016 0 -0.0022364839)
(-0.0007043494 0 -0.0025460813)
(-0.00064562626 0 -0.0028463611)
(-0.00058891872 0 -0.0031236466)
(-0.0005351843 0 -0.0033655632)
(-0.00048462683 0 -0.0035645584)
(-0.00043766751 0 -0.0037146302)
(-0.00039406859 0 -0.003813338)
(-0.00035380569 0 -0.0038591284)
(-0.00031638552 0 -0.003852592)
(-0.00028162573 0 -0.0037939716)
(-0.00024855379 0 -0.0036796904)
(-0.00021881255 0 -0.0035164609)
(-0.00018902341 0 -0.003288175)
(-0.00016016197 0 -0.0030005157)
(-0.00013040715 0 -0.002631386)
(-0.00010174623 0 -0.0021993146)
(-7.4408026e-05 0 -0.001702676)
(-4.466104e-05 0 -0.0010969569)
(-6.8669104e-06 0 -0.00025963238)
(-0.0012546615 0 -0.00026603991)
(-0.0012546397 0 -0.00026575888)
(-0.001254598 0 -0.00026543095)
(-0.0012545288 0 -0.00026505918)
(-0.0012544209 0 -0.00026464544)
(-0.0012542588 0 -0.00026419208)
(-0.0012540213 0 -0.00026370828)
(-0.0012536794 0 -0.00026320722)
(-0.0012531938 0 -0.00026271722)
(-0.0012525121 0 -0.00026228135)
(-0.0012515633 0 -0.00026197465)
(-0.0012502545 0 -0.00026190914)
(-0.0012484622 0 -0.0002622614)
(-0.001246026 0 -0.00026328885)
(-0.0012427386 0 -0.0002653735)
(-0.0012383355 0 -0.00026906221)
(-0.0012324866 0 -0.00027514694)
(-0.0012247857 0 -0.00028471388)
(-0.0012147484 0 -0.00029931967)
(-0.0012018102 0 -0.00032104897)
(-0.0011853464 0 -0.00035269298)
(-0.001164709 0 -0.00039782817)
(-0.0011392853 0 -0.00046084325)
(-0.0011085757 0 -0.00054680532)
(-0.0010722954 0 -0.00066106434)
(-0.0010304378 0 -0.00080863653)
(-0.0009833774 0 -0.0009930629)
(-0.00093180114 0 -0.0012155847)
(-0.00087669028 0 -0.0014741302)
(-0.00081909676 0 -0.0017629824)
(-0.00076023149 0 -0.0020720976)
(-0.00070116844 0 -0.0023888662)
(-0.00064319369 0 -0.0026978909)
(-0.00058715465 0 -0.0029852972)
(-0.0005339557 0 -0.0032384583)
(-0.00048383777 0 -0.0034493281)
(-0.00043720244 0 -0.0036115517)
(-0.00039385498 0 -0.0037223328)
(-0.00035377323 0 -0.0037798507)
(-0.00031649977 0 -0.003784456)
(-0.00028184475 0 -0.0037361756)
(-0.00024893334 0 -0.0036319627)
(-0.00021912507 0 -0.0034771904)
(-0.00018945828 0 -0.0032577139)
(-0.00016063939 0 -0.0029774642)
(-0.00013104423 0 -0.002616563)
(-0.00010240727 0 -0.0021906058)
(-7.4864193e-05 0 -0.0016969625)
(-4.5004988e-05 0 -0.0010937142)
(-7.6352984e-06 0 -0.00026825104)
(-0.001249769 0 -0.00010501244)
(-0.0012497425 0 -0.00010463311)
(-0.0012496952 0 -0.00010419212)
(-0.0012496188 0 -0.00010368248)
(-0.0012495015 0 -0.00010309775)
(-0.0012493274 0 -0.00010243338)
(-0.0012490744 0 -0.00010169074)
(-0.0012487129 0 -0.00010087857)
(-0.0012482026 0 -0.00010001815)
(-0.00124749 0 -9.9148511e-05)
(-0.0012465027 0 -9.8335064e-05)
(-0.0012451458 0 -9.7683162e-05)
(-0.0012432934 0 -9.7355169e-05)
(-0.0012407823 0 -9.7599701e-05)
(-0.0012374018 0 -9.87845e-05)
(-0.001232884 0 -0.00010145457)
(-0.0012268942 0 -0.0001063832)
(-0.0012190248 0 -0.00011469933)
(-0.0012087875 0 -0.00012793964)
(-0.0011956203 0 -0.00014825732)
(-0.0011789037 0 -0.0001785059)
(-0.0011580023 0 -0.00022236103)
(-0.0011323258 0 -0.00028433715)
(-0.0011014067 0 -0.00036963998)
(-0.0010650025 0 -0.00048376338)
(-0.0010231531 0 -0.00063185379)
(-0.00097627337 0 -0.00081755649)
(-0.00092507717 0 -0.0010421693)
(-0.00087053128 0 -0.0013037889)
(-0.00081366329 0 -0.0015968015)
(-0.00075561762 0 -0.0019113335)
(-0.0006974156 0 -0.0022348355)
(-0.00064025128 0 -0.0025520565)
(-0.00058493936 0 -0.0028490005)
(-0.00053233776 0 -0.0031128131)
(-0.00048271223 0 -0.0033350214)
(-0.00043645221 0 -0.0035089248)
(-0.00039339812 0 -0.0036313902)
(-0.00035353564 0 -0.0037003204)
(-0.00031643917 0 -0.0037158345)
(-0.00028191701 0 -0.0036777432)
(-0.00024917818 0 -0.0035834325)
(-0.00021934233 0 -0.003437124)
(-0.00018980159 0 -0.0032263378)
(-0.00016104468 0 -0.0029535493)
(-0.00013161096 0 -0.0026007707)
(-0.00010301227 0 -0.0021810313)
(-7.5294815e-05 0 -0.00169069)
(-4.5335813e-05 0 -0.0010901957)
(-8.3502991e-06 0 -0.00027603648)
(-0.0012443181 0 5.2536292e-05)
(-0.0012442853 0 5.303252e-05)
(-0.0012442299 0 5.3616831e-05)
(-0.0012441437 0 5.4293648e-05)
(-0.0012440145 0 5.5070733e-05)
(-0.001243826 0 5.5955714e-05)
(-0.0012435553 0 5.6952004e-05)
(-0.0012431721 0 5.8059292e-05)
(-0.0012426347 0 5.9265234e-05)
(-0.0012418881 0 6.0544123e-05)
(-0.0012408581 0 6.1840027e-05)
(-0.0012394475 0 6.3061986e-05)
(-0.001237528 0 6.4055485e-05)
(-0.0012349332 0 6.4585043e-05)
(-0.001231449 0 6.4288813e-05)
(-0.0012268032 0 6.2633868e-05)
(-0.0012206582 0 5.8831375e-05)
(-0.0012126013 0 5.1777326e-05)
(-0.0012021451 0 3.9864998e-05)
(-0.001188728 0 2.0916954e-05)
(-0.0011717373 0 -8.0022695e-06)
(-0.0011505517 0 -5.0667518e-05)
(-0.0011246047 0 -0.00011172018)
(-0.0010934635 0 -0.0001964956)
(-0.0010569309 0 -0.00031061946)
(-0.0010150945 0 -0.00045934983)
(-0.00096841269 0 -0.00064640267)
(-0.00091762302 0 -0.00087312879)
(-0.00086367904 0 -0.0011377469)
(-0.0008075806 0 -0.0014347334)
(-0.00075040361 0 -0.0017543719)
(-0.00069311423 0 -0.0020841827)
(-0.00063681549 0 -0.0024090848)
(-0.00058228708 0 -0.0027149885)
(-0.00053033863 0 -0.0029888715)
(-0.00048125728 0 -0.0032218705)
(-0.0004354197 0 -0.0034069736)
(-0.00039270096 0 -0.0035407128)
(-0.00035309332 0 -0.0036207237)
(-0.0003162048 0 -0.0036468894)
(-0.00028184267 0 -0.003618817)
(-0.0002492906 0 -0.0035342294)
(-0.00021946161 0 -0.0033963604)
(-0.00019005398 0 -0.0031941455)
(-0.00016137563 0 -0.0029288293)
(-0.00013210746 0 -0.0025840758)
(-0.00010356055 0 -0.0021705916)
(-7.5698392e-05 0 -0.0016838446)
(-4.5652947e-05 0 -0.0010863896)
(-9.0142132e-06 0 -0.00028302901)
(-0.0012383269 0 0.00020666472)
(-0.0012382875 0 0.00020726139)
(-0.0012382242 0 0.00020796254)
(-0.0012381279 0 0.0002087811)
(-0.001237986 0 0.00020973224)
(-0.0012377814 0 0.00021082914)
(-0.0012374905 0 0.0002120829)
(-0.0012370819 0 0.00021349787)
(-0.0012365129 0 0.00021506865)
(-0.001235727 0 0.00021677412)
(-0.0012346481 0 0.00021856849)
(-0.0012331771 0 0.00022036792)
(-0.0012311823 0 0.0002220321)
(-0.0012284943 0 0.00022333427)
(-0.0012248948 0 0.00022392587)
(-0.0012201079 0 0.00022327526)
(-0.0012137908 0 0.00022060987)
(-0.0012055298 0 0.00021477944)
(-0.001194834 0 0.00020418597)
(-0.0011811456 0 0.0001865691)
(-0.0011638587 0 0.00015892175)
(-0.0011423677 0 0.00011736482)
(-0.0011161323 0 5.7124406e-05)
(-0.0010847566 0 -2.7254409e-05)
(-0.001048092 0 -0.00014151766)
(-0.0010062752 0 -0.00029101611)
(-0.00095981007 0 -0.00047950355)
(-0.00090945531 0 -0.00070836796)
(-0.00085615148 0 -0.00097591895)
(-0.00080086553 0 -0.0012767127)
(-0.00074460583 0 -0.0016011661)
(-0.0006882773 0 -0.0019368918)
(-0.00063289804 0 -0.0022689753)
(-0.00057920485 0 -0.0025832917)
(-0.00052796383 0 -0.0028666755)
(-0.0004794747 0 -0.0031099325)
(-0.00043410633 0 -0.0033057542)
(-0.0003917624 0 -0.0034503578)
(-0.00035244575 0 -0.003541108)
(-0.00031579463 0 -0.0035776615)
(-0.00028161966 0 -0.0035594202)
(-0.00024926875 0 -0.003484373)
(-0.00021948086 0 -0.0033549009)
(-0.00019021445 0 -0.0031611377)
(-0.0001616326 0 -0.0029033076)
(-0.00013253417 0 -0.0025664814)
(-0.00010405268 0 -0.0021593323)
(-7.6073691e-05 0 -0.0016764441)
(-4.5954885e-05 0 -0.0010822894)
(-9.6306527e-06 0 -0.00028928141)
(-0.0012318124 0 0.00035745614)
(-0.0012317649 0 0.00035816657)
(-0.0012316913 0 0.00035900577)
(-0.0012315825 0 0.00035998585)
(-0.0012314254 0 0.0003611239)
(-0.0012312023 0 0.00036243814)
(-0.0012308887 0 0.00036394351)
(-0.0012304522 0 0.00036565337)
(-0.0012298486 0 0.00036757031)
(-0.0012290196 0 0.00036968589)
(-0.001227887 0 0.0003719631)
(-0.0012263489 0 0.00037433184)
(-0.001224271 0 0.0003766591)
(-0.0012214799 0 0.000378731)
(-0.0012177534 0 0.00038020516)
(-0.0012128109 0 0.00038056191)
(-0.0012063061 0 0.00037901346)
(-0.0011978203 0 0.00037442825)
(-0.0011868658 0 0.00036511736)
(-0.0011728855 0 0.00034878049)
(-0.001155282 0 0.00032232444)
(-0.0011334665 0 0.00028176887)
(-0.0011069278 0 0.0002221992)
(-0.0010753082 0 0.00013806144)
(-0.001038511 0 2.3495794e-05)
(-0.00099672395 0 -0.00012691593)
(-0.00095049631 0 -0.0003169377)
(-0.00090060648 0 -0.00054798517)
(-0.00084798084 0 -0.0008184219)
(-0.00079355022 0 -0.0011228707)
(-0.0007382526 0 -0.0014518697)
(-0.00068293084 0 -0.0017931288)
(-0.00062851861 0 -0.0021319234)
(-0.00057570955 0 -0.002454113)
(-0.00052522444 0 -0.0027464415)
(-0.00047737377 0 -0.0029994174)
(-0.00043251725 0 -0.0032054727)
(-0.000390587 0 -0.003360515)
(-0.00035159484 0 -0.0034616503)
(-0.00031521078 0 -0.0035083063)
(-0.00028124902 0 -0.003499693)
(-0.0002491151 0 -0.0034339904)
(-0.00021939848 0 -0.0033128463)
(-0.00019028365 0 -0.003127411)
(-0.0001618139 0 -0.0028770463)
(-0.00013289116 0 -0.0025480532)
(-0.00010448828 0 -0.0021472562)
(-7.641895e-05 0 -0.0016684743)
(-4.6241249e-05 0 -0.0010778894)
(-1.0201336e-05 0 -0.00029482641)
(-0.0012247912 0 0.00050496844)
(-0.0012247351 0 0.00050577916)
(-0.0012246512 0 0.00050673457)
(-0.0012245295 0 0.00050785567)
(-0.0012243562 0 0.00050916658)
(-0.0012241127 0 0.00051069096)
(-0.0012237735 0 0.00051245196)
(-0.0012233052 0 0.00051446745)
(-0.001222662 0 0.00051674786)
(-0.0012217842 0 0.00051928842)
(-0.0012205913 0 0.00052206296)
(-0.0012189788 0 0.00052500745)
(-0.0012168089 0 0.00052800328)
(-0.0012139042 0 0.00053084536)
(-0.0012100381 0 0.00053320481)
(-0.0012049252 0 0.00053456573)
(-0.0011982139 0 0.00053415629)
(-0.0011894854 0 0.00053079812)
(-0.0011782513 0 0.0005227596)
(-0.0011639587 0 0.00050764847)
(-0.0011460174 0 0.00048230633)
(-0.0011238576 0 0.00044265373)
(-0.0010970009 0 0.00038361119)
(-0.0010651282 0 0.00029956063)
(-0.0010281996 0 0.00018452853)
(-0.00098645424 0 3.3053535e-05)
(-0.00094048742 0 -0.00015860833)
(-0.00089109466 0 -0.00039188233)
(-0.00083918651 0 -0.0006651639)
(-0.00078565317 0 -0.00097313097)
(-0.00073136187 0 -0.0013064213)
(-0.0006770897 0 -0.0016528583)
(-0.00062369064 0 -0.0019979086)
(-0.00057181021 0 -0.0023274616)
(-0.00052212762 0 -0.0026281926)
(-0.00047495797 0 -0.0028903658)
(-0.00043065509 0 -0.0031061725)
(-0.00038917481 0 -0.0032712323)
(-0.00035054077 0 -0.0033823917)
(-0.00031445188 0 -0.0034388612)
(-0.00028072919 0 -0.0034396569)
(-0.00024882811 0 -0.0033830995)
(-0.00021921285 0 -0.0032701994)
(-0.00019026056 0 -0.0030929663)
(-0.00016191979 0 -0.0028500483)
(-0.00013317877 0 -0.0025287935)
(-0.0001048678 0 -0.0021344086)
(-7.6733438e-05 0 -0.0016599566)
(-4.6510571e-05 0 -0.0010731822)
(-1.0729601e-05 0 -0.00029971124)
(-0.0012172763 0 0.00064928037)
(-0.00121721 0 0.000650204)
(-0.0012171133 0 0.00065129669)
(-0.001216976 0 0.00065257867)
(-0.0012167838 0 0.00065407605)
(-0.0012165174 0 0.00065581766)
(-0.0012161502 0 0.00065783057)
(-0.0012156476 0 0.0006601412)
(-0.0012149619 0 0.00066276809)
(-0.0012140315 0 0.00066571875)
(-0.0012127732 0 0.00066897551)
(-0.0012110795 0 0.00067248759)
(-0.0012088091 0 0.00067614474)
(-0.0012057803 0 0.00067975484)
(-0.0012017615 0 0.00068299859)
(-0.0011964619 0 0.00068537369)
(-0.0011895259 0 0.0006861023)
(-0.0011805307 0 0.0006840408)
(-0.0011690008 0 0.00067721682)
(-0.0011543775 0 0.00066324823)
(-0.001136079 0 0.00063891436)
(-0.0011135578 0 0.00060004714)
(-0.001086372 0 0.00054134917)
(-0.0010542407 0 0.00045721394)
(-0.0010171849 0 0.00034152735)
(-0.00097549796 0 0.00018882448)
(-0.00092981708 0 -4.5931827e-06)
(-0.00088095511 0 -0.00024015012)
(-0.00082980394 0 -0.00051624676)
(-0.00077720944 0 -0.00082760527)
(-0.00072396506 0 -0.0011649494)
(-0.00067078247 0 -0.0015162194)
(-0.00061843678 0 -0.0018670965)
(-0.00056752614 0 -0.0022035119)
(-0.00051868723 0 -0.0025121178)
(-0.00047223869 0 -0.002782965)
(-0.00042852719 0 -0.0030080412)
(-0.000387532 0 -0.0031826854)
(-0.00034928706 0 -0.0033034985)
(-0.00031352119 0 -0.0033694748)
(-0.00028006219 0 -0.0033794481)
(-0.00024841059 0 -0.0033318237)
(-0.00021892344 0 -0.0032270617)
(-0.00019014605 0 -0.003057898)
(-0.00016194917 0 -0.0028223788)
(-0.00013339717 0 -0.0025087673)
(-0.00010519093 0 -0.0021207934)
(-7.7015373e-05 0 -0.0016508784)
(-4.67625e-05 0 -0.0010681657)
(-1.1216812e-05 0 -0.00030396499)
(-0.0012092848 0 0.00079044795)
(-0.001209208 0 0.00079147361)
(-0.0012090983 0 0.00079268605)
(-0.0012089449 0 0.00079411296)
(-0.0012087325 0 0.00079578743)
(-0.001208441 0 0.00079774227)
(-0.0012080427 0 0.00080001246)
(-0.0012075015 0 0.00080262864)
(-0.0012067683 0 0.00080561637)
(-0.0012057793 0 0.00080898827)
(-0.0012044489 0 0.00081273701)
(-0.0012026662 0 0.00081681998)
(-0.0012002859 0 0.00082114136)
(-0.0011971215 0 0.00082552105)
(-0.0011929357 0 0.00082965419)
(-0.0011874321 0 0.00083304729)
(-0.0011802491 0 0.00083493372)
(-0.0011709873 0 0.00083387942)
(-0.0011591524 0 0.00082813325)
(-0.0011441811 0 0.00081520271)
(-0.0011255047 0 0.00079179607)
(-0.0011026017 0 0.00075365858)
(-0.001075051 0 0.00069550517)
(-0.0010426548 0 0.00061111955)
(-0.0010054795 0 0.00049459169)
(-0.00096386889 0 0.00034049389)
(-0.00091850249 0 0.00014520375)
(-0.00087020739 0 -9.2690118e-05)
(-0.00081985371 0 -0.00037157488)
(-0.00076823882 0 -0.00068620938)
(-0.00071608118 0 -0.0010273813)
(-0.00066402528 0 -0.0013831613)
(-0.0006127716 0 -0.0017394497)
(-0.00056286784 0 -0.0020822545)
(-0.00051491157 0 -0.0023982232)
(-0.00046922074 0 -0.0026772398)
(-0.00042613715 0 -0.0029111093)
(-0.00038565964 0 -0.003094912)
(-0.00034783444 0 -0.0032250049)
(-0.00031241788 0 -0.0033001798)
(-0.00027924688 0 -0.0033190864)
(-0.00024786123 0 -0.0032801801)
(-0.00021852891 0 -0.0031834374)
(-0.00018993907 0 -0.0030222079)
(-0.00016190214 0 -0.0027940404)
(-0.00013354652 0 -0.0024879765)
(-0.00010545803 0 -0.0021064555)
(-7.7264385e-05 0 -0.0016412644)
(-4.6995624e-05 0 -0.0010628326)
(-1.166605e-05 0 -0.00030762981)
(-0.0012008304 0 0.00092854571)
(-0.0012007411 0 0.00092968401)
(-0.0012006159 0 0.00093103357)
(-0.0012004437 0 0.00093262121)
(-0.0012002085 0 0.00093448238)
(-0.0011998893 0 0.00093665436)
(-0.0011994573 0 0.00093917631)
(-0.0011988749 0 0.00094208669)
(-0.001198091 0 0.00094541941)
(-0.0011970393 0 0.00094919861)
(-0.0011956312 0 0.0009534266)
(-0.0011937521 0 0.00095807404)
(-0.0011912524 0 0.00096305602)
(-0.0011879403 0 0.00096820574)
(-0.0011835725 0 0.00097323441)
(-0.0011778467 0 0.00097765738)
(-0.0011704256 0 0.00098045767)
(-0.0011608929 0 0.00098028333)
(-0.00114873 0 0.00097547538)
(-0.0011333872 0 0.00096348955)
(-0.0011143096 0 0.00094092121)
(-0.0010909984 0 0.00090339686)
(-0.001063072 0 0.00084568865)
(-0.0010303957 0 0.00076124399)
(-0.00099311273 0 0.00064366032)
(-0.00095160097 0 0.00048799434)
(-0.00090657966 0 0.00029070646)
(-0.00085888902 0 5.0415423e-05)
(-0.0008093736 0 -0.00023123562)
(-0.00075877842 0 -0.00054903711)
(-0.00070774369 0 -0.00089382299)
(-0.00065684843 0 -0.001253798)
(-0.00060671977 0 -0.0016151063)
(-0.00055785638 0 -0.0019638368)
(-0.00051081653 0 -0.0022866718)
(-0.00046591718 0 -0.0025733547)
(-0.00042349407 0 -0.0028155453)
(-0.0003835652 0 -0.0030080733)
(-0.00034618774 0 -0.0031470657)
(-0.00031114619 0 -0.0032311167)
(-0.00027828612 0 -0.0032587029)
(-0.00024718321 0 -0.0032282877)
(-0.00021802959 0 -0.0031394274)
(-0.00018964073 0 -0.0029859883)
(-0.00016177806 0 -0.0027651003)
(-0.0001336271 0 -0.0024664854)
(-0.00010566879 0 -0.0020913988)
(-7.7478747e-05 0 -0.0016311033)
(-4.7209586e-05 0 -0.001057183)
(-1.2078406e-05 0 -0.00031073219)
(-0.0011919272 0 0.0010636286)
(-0.0011918251 0 0.0010648706)
(-0.0011916842 0 0.0010663419)
(-0.0011914927 0 0.0010680753)
(-0.0011912337 0 0.0010701119)
(-0.001190885 0 0.0010724939)
(-0.0011904165 0 0.0010752674)
(-0.001189789 0 0.0010784775)
(-0.0011889493 0 0.0010821646)
(-0.0011878288 0 0.0010863604)
(-0.0011863357 0 0.0010910766)
(-0.0011843516 0 0.0010962936)
(-0.0011817221 0 0.0011019384)
(-0.0011782492 0 0.0011078609)
(-0.0011736829 0 0.0011137956)
(-0.0011677411 0 0.0011190719)
(-0.0011600767 0 0.0011226926)
(-0.0011502389 0 0.001123478)
(-0.0011377219 0 0.0011196251)
(-0.0011219819 0 0.001108541)
(-0.0011024789 0 0.0010867339)
(-0.0010787438 0 0.0010496918)
(-0.0010504453 0 0.00099198155)
(-0.00101749 0 0.0009073256)
(-0.000980098 0 0.00078882533)
(-0.00093870949 0 0.00063141497)
(-0.00089406705 0 0.00043201206)
(-0.0008470208 0 0.00018926879)
(-0.00079838521 0 -9.5126532e-05)
(-0.00074884899 0 -0.00041599455)
(-0.00069897226 0 -0.00076418903)
(-0.00064926886 0 -0.0011280621)
(-0.00060029657 0 -0.0014940115)
(-0.00055250325 0 -0.0018482304)
(-0.00050641131 0 -0.0021774515)
(-0.00046233386 0 -0.0024713177)
(-0.00042060231 0 -0.0027213656)
(-0.00038125063 0 -0.0029221949)
(-0.00034434824 0 -0.0030697063)
(-0.00030970584 0 -0.0031623118)
(-0.0002771792 0 -0.0031983142)
(-0.0002463755 0 -0.0031761612)
(-0.00021742437 0 -0.0030950362)
(-0.00018925003 0 -0.0029492411)
(-0.00016157691 0 -0.0027355609)
(-0.0001336389 0 -0.0024442955)
(-0.0001058236 0 -0.0020756688)
(-7.7658335e-05 0 -0.001620422)
(-4.7403111e-05 0 -0.0010512108)
(-1.2456696e-05 0 -0.00031330887)
(-0.0011825914 0 0.0011957636)
(-0.001182475 0 0.0011971123)
(-0.0011823167 0 0.0011987098)
(-0.0011821037 0 0.0012005932)
(-0.0011818185 0 0.0012028075)
(-0.0011814375 0 0.0012054007)
(-0.0011809294 0 0.0012084248)
(-0.0011802531 0 0.0012119299)
(-0.0011793534 0 0.0012159661)
(-0.0011781587 0 0.0012205724)
(-0.001176574 0 0.0012257703)
(-0.0011744767 0 0.0012315494)
(-0.0011717071 0 0.0012378461)
(-0.0011680616 0 0.0012445132)
(-0.0011632959 0 0.0012512696)
(-0.0011571335 0 0.0012573215)
(-0.0011491942 0 0.0012618461)
(-0.0011390304 0 0.0012635771)
(-0.0011261366 0 0.0012606423)
(-0.0011099754 0 0.0012503996)
(-0.0010900258 0 0.0012292636)
(-0.0010658538 0 0.0011925606)
(-0.001037177 0 0.0011346987)
(-0.0010039664 0 0.0010493318)
(-0.00096645579 0 0.0009300236)
(-0.00092523124 0 0.00077068498)
(-0.00088100316 0 0.00056904787)
(-0.00083464264 0 0.00032379605)
(-0.00078692849 0 3.6678958e-05)
(-0.00073848944 0 -0.00028715879)
(-0.000689802 0 -0.00063856402)
(-0.00064131816 0 -0.0010060448)
(-0.00059352828 0 -0.0013762781)
(-0.0005468309 0 -0.0017355575)
(-0.00050171347 0 -0.0020706999)
(-0.00045848526 0 -0.0023712706)
(-0.00041747259 0 -0.0026287187)
(-0.00037872464 0 -0.0028374224)
(-0.00034232208 0 -0.0029930684)
(-0.000308102 0 -0.0030938963)
(-0.00027592983 0 -0.0031380444)
(-0.00024544169 0 -0.0031239145)
(-0.00021671448 0 -0.0030503624)
(-0.0001887684 0 -0.0029120559)
(-0.00016129861 0 -0.0027054902)
(-0.0001335824 0 -0.0024214703)
(-0.00010592209 0 -0.0020592691)
(-7.7801519e-05 0 -0.0016092115)
(-4.7575811e-05 0 -0.0010449179)
(-1.2801793e-05 0 -0.00031538476)
(-0.0011728343 0 0.0013250104)
(-0.0011727025 0 0.001326465)
(-0.0011725254 0 0.0013281886)
(-0.0011722894 0 0.0013302215)
(-0.0011719758 0 0.0013326136)
(-0.0011715601 0 0.0013354171)
(-0.0011710093 0 0.0013386903)
(-0.0011702805 0 0.001342491)
(-0.0011693159 0 0.0013468758)
(-0.0011680414 0 0.0013518921)
(-0.001166358 0 0.0013575714)
(-0.0011641388 0 0.0013639129)
(-0.0011612189 0 0.0013708672)
(-0.0011573886 0 0.0013783075)
(-0.0011524212 0 0.0013857491)
(-0.001146018 0 0.0013926091)
(-0.0011377862 0 0.0013980148)
(-0.0011272759 0 0.0014006449)
(-0.0011139813 0 0.0013985901)
(-0.0010973737 0 0.0013891387)
(-0.0010769553 0 0.0013686014)
(-0.0010523337 0 0.0013321014)
(-0.0010232747 0 0.001273929)
(-0.00098981108 0 0.0011876342)
(-0.00095223012 0 0.0010670462)
(-0.00091118356 0 0.00090588837)
(-0.00086740777 0 0.00070191028)
(-0.00082177655 0 0.00045410116)
(-0.00077502588 0 0.00016428814)
(-0.00072772118 0 -0.00016242957)
(-0.00068025275 0 -0.00051685338)
(-0.00063303609 0 -0.00088797954)
(-0.00058645223 0 -0.0012621768)
(-0.00054087017 0 -0.0016261006)
(-0.00049674774 0 -0.0019666839)
(-0.00045438956 0 -0.0022734591)
(-0.00041410981 0 -0.00253761)
(-0.00037598981 0 -0.0027537706)
(-0.00034011087 0 -0.0029171693)
(-0.00030633484 0 -0.0030258904)
(-0.00027453764 0 -0.0030779075)
(-0.00024438099 0 -0.0030715604)
(-0.00021589891 0 -0.0030054109)
(-0.00018819485 0 -0.0028744352)
(-0.00016094293 0 -0.002674891)
(-0.00013345742 0 -0.0023980114)
(-0.0001059647 0 -0.0020422454)
(-7.7908345e-05 0 -0.0015975001)
(-4.7726512e-05 0 -0.0010382993)
(-1.3116274e-05 0 -0.00031699199)
(-0.0011626684 0 0.0014514286)
(-0.0011625199 0 0.0014529901)
(-0.0011623224 0 0.0014548406)
(-0.0011620614 0 0.0014570242)
(-0.0011617173 0 0.0014595947)
(-0.0011612642 0 0.0014626099)
(-0.0011606675 0 0.0014661331)
(-0.0011598822 0 0.0014702278)
(-0.0011588482 0 0.001474959)
(-0.0011574879 0 0.0014803823)
(-0.0011556987 0 0.0014865381)
(-0.0011533486 0 0.0014934352)
(-0.0011502666 0 0.0015010302)
(-0.0011462488 0 0.0015091991)
(-0.0011410722 0 0.0015173475)
(-0.0011344067 0 0.0015250032)
(-0.0011258624 0 0.001531249)
(-0.0011149831 0 0.0015347438)
(-0.0011012632 0 0.0015335245)
(-0.0010841854 0 0.0015248019)
(-0.0010632786 0 0.0015047843)
(-0.001038201 0 0.0014683189)
(-0.0010087607 0 0.0014096514)
(-0.00097506263 0 0.0013221954)
(-0.00093745728 0 0.0011998332)
(-0.00089659719 0 0.0010369501)
(-0.00085332139 0 0.00083053614)
(-0.00080846434 0 0.00058012301)
(-0.0007627188 0 0.00028764391)
(-0.00071658426 0 -4.1867422e-05)
(-0.00067039667 0 -0.00039950062)
(-0.00062446881 0 -0.00077404457)
(-0.00057910238 0 -0.0011518861)
(-0.00053464834 0 -0.0015200253)
(-0.00049153523 0 -0.0018655672)
(-0.00045006253 0 -0.00217805)
(-0.00041053419 0 -0.0024484057)
(-0.00037305588 0 -0.0026713702)
(-0.0003377218 0 -0.0028421375)
(-0.00030441031 0 -0.0029584154)
(-0.00027300708 0 -0.0030180204)
(-0.0002431974 0 -0.0030192072)
(-0.00021497959 0 -0.0029602775)
(-0.00018753115 0 -0.0028364659)
(-0.00016051025 0 -0.0026438317)
(-0.00013326461 0 -0.0023739817)
(-0.00010595097 0 -0.0020246015)
(-7.7977283e-05 0 -0.0015852807)
(-4.7854816e-05 0 -0.0010313586)
(-1.3400828e-05 0 -0.00031815419)
(-0.001152106 0 0.0015750756)
(-0.0011519397 0 0.0015767431)
(-0.0011517204 0 0.0015787196)
(-0.0011514328 0 0.0015810529)
(-0.001151056 0 0.0015838013)
(-0.0011505629 0 0.0015870267)
(-0.001149917 0 0.0015907988)
(-0.0011490712 0 0.0015951884)
(-0.0011479626 0 0.001600267)
(-0.0011465105 0 0.0016060986)
(-0.0011446079 0 0.0016127338)
(-0.0011421176 0 0.0016201934)
(-0.001138863 0 0.0016284549)
(-0.0011346577 0 0.0016372058)
(-0.0011292519 0 0.0016460958)
(-0.0011223093 0 0.001654527)
(-0.0011134317 0 0.0016615968)
(-0.0011021597 0 0.0016659216)
(-0.0010879877 0 0.0016655056)
(-0.0010704148 0 0.0016574501)
(-0.0010490308 0 0.0016375685)
(-0.0010234968 0 0.001600936)
(-0.00099367806 0 0.0015416126)
(-0.00095973114 0 0.0014530961)
(-0.00092212491 0 0.0013287568)
(-0.00088148715 0 0.0011639855)
(-0.00083876523 0 0.00095502349)
(-0.00079472885 0 0.00070196658)
(-0.00075006652 0 0.00040649516)
(-0.0007051512 0 7.4167442e-05)
(-0.00066026899 0 -0.00028653577)
(-0.00061561718 0 -0.00066397516)
(-0.00057147711 0 -0.0010450703)
(-0.00052816192 0 -0.0014170055)
(-0.00048607261 0 -0.0017670567)
(-0.00044550213 0 -0.0020847959)
(-0.00040675194 0 -0.0023611135)
(-0.00036992434 0 -0.0025902291)
(-0.00033515675 0 -0.0027679809)
(-0.00030232893 0 -0.0028914842)
(-0.00027133801 0 -0.0029583925)
(-0.00024189031 0 -0.0029668647)
(-0.00021395565 0 -0.0029149663)
(-0.00018677636 0 -0.0027981505)
(-0.00016000021 0 -0.0026123145)
(-0.00013300363 0 -0.0023493824)
(-0.00010588147 0 -0.0020063834)
(-7.800853e-05 0 -0.0015725833)
(-4.7959717e-05 0 -0.0010240928)
(-1.3657781e-05 0 -0.00031889839)
(-0.0011411589 0 0.0016960087)
(-0.0011409735 0 0.0016977829)
(-0.0011407308 0 0.0016998864)
(-0.0011404146 0 0.0017023702)
(-0.0011400028 0 0.0017052967)