/*--------------------------------*- C++ -*----------------------------------*\
  =========                 |
  \\      /  F ield         | OpenFOAM: The Open Source CFD Toolbox
   \\    /   O peration     | Website:  https://openfoam.org
    \\  /    A nd           | Version:  8
     \\/     M anipulation  |
\*---------------------------------------------------------------------------*/
FoamFile
{
    version     2.0;
    format      ascii;
    class       volScalarField;
    location    "0.210011";
    object      Ma;
}
// * * * * * * * * * * * * * * * * * * * * * * * * * * * * * * * * * * * * * //

dimensions      [0 0 0 0 0 0 0];

internalField   nonuniform List<scalar> 
20000
(
0.57667956
0.68390134
0.75578791
0.81883503
0.87783216
0.92209894
0.92360744
0.92734286
0.92332366
0.92455202
0.92178632
0.92153975
0.91903851
0.91758236
0.91485959
0.91227546
0.90882219
0.90498545
0.90038529
0.89509692
0.88900109
0.88197985
0.87386324
0.86452406
0.85415088
0.84294967
0.83115271
0.81902398
0.80702559
0.79560628
0.78518327
0.7760552
0.76839184
0.76222597
0.75753272
0.75419557
0.75174504
0.75013197
0.74939572
0.74932638
0.74957949
0.75010042
0.75090334
0.75179975
0.75261657
0.75335522
0.75506353
0.75659685
0.75704581
0.75820146
0.58229159
0.69017329
0.76251182
0.82576992
0.88486544
0.92622837
0.92584298
0.92963258
0.92556972
0.92679779
0.92398703
0.92371352
0.9211654
0.91964877
0.916866
0.9141926
0.91065846
0.90671826
0.90201961
0.89659909
0.89030002
0.8829041
0.87430502
0.86470339
0.85417912
0.84277222
0.83072937
0.81840081
0.80627207
0.79480759
0.78441596
0.77537618
0.76782724
0.76178073
0.75720604
0.75394369
0.75145108
0.74992896
0.74932115
0.7492623
0.74949817
0.75004632
0.75089145
0.75175613
0.75255694
0.75343371
0.75539541
0.75693428
0.75759502
0.75797672
0.58867708
0.69710381
0.76984995
0.83326442
0.89222649
0.93011516
0.92799884
0.93179829
0.92765771
0.92887758
0.92600561
0.92569577
0.9230963
0.92151264
0.9186686
0.91590541
0.91229714
0.90825589
0.9034376
0.89781618
0.89120093
0.88343809
0.87457228
0.86473123
0.85396177
0.84226085
0.82995793
0.81743452
0.8051955
0.7937152
0.78339065
0.77447665
0.76707929
0.76119018
0.75676601
0.75357183
0.75112435
0.74973004
0.74920994
0.74917931
0.74942644
0.75000727
0.75090002
0.75171951
0.75252053
0.75351719
0.75546454
0.75698326
0.75778795
0.75802071
0.59468403
0.70359616
0.77674671
0.84033167
0.89891795
0.9333571
0.92986223
0.9337011
0.92950271
0.9307212
0.92779721
0.92745109
0.92480324
0.92315125
0.92024965
0.91740028
0.91371466
0.90954539
0.90454126
0.89861651
0.89166425
0.88362897
0.87458753
0.86452259
0.85343098
0.84143892
0.82887991
0.81617827
0.8038567
0.79239528
0.78217566
0.77342388
0.76621133
0.76051097
0.75625953
0.75312939
0.75078069
0.74951692
0.74908516
0.74908008
0.74935027
0.74996992
0.75090416
0.75168607
0.75246433
0.75357737
0.75553638
0.75707421
0.75796544
0.75797726
0.60058858
0.709974
0.7835325
0.84730973
0.90516623
0.93611478
0.93153326
0.93539901
0.93113155
0.93234165
0.9293585
0.92896855
0.92627373
0.92454995
0.92159118
0.91864369
0.91484264
0.91046432
0.90520234
0.89898843
0.89182642
0.88362565
0.87437638
0.86398794
0.85257025
0.84027471
0.8274681
0.81460751
0.80223441
0.7908298
0.78075546
0.77220409
0.76521119
0.75973285
0.75567692
0.75261674
0.75041597
0.74929777
0.74894027
0.74896532
0.74927369
0.74993773
0.75089706
0.75166048
0.75239477
0.75360576
0.75557089
0.75713267
0.75804617
0.75786733
0.6062422
0.71606175
0.79004603
0.85409134
0.91079494
0.93836653
0.93292378
0.93682024
0.93247808
0.93369249
0.93064272
0.93020897
0.92748393
0.92568015
0.92264674
0.91955446
0.91557418
0.91095371
0.9054748
0.89910273
0.89178736
0.88337559
0.87382587
0.86311417
0.85136186
0.83876609
0.82572449
0.8127296
0.80034006
0.78903301
0.77914537
0.7708322
0.76409283
0.75886732
0.75502422
0.75204928
0.75003013
0.74906162
0.74878332
0.74883727
0.74919512
0.74990787
0.75088483
0.75164304
0.7523186
0.7535986
0.75562502
0.75718837
0.75806745
0.75768435
0.61162636
0.7218544
0.79627629
0.86069431
0.91575271
0.94014814
0.93402316
0.93796268
0.93353886
0.93475375
0.93161876
0.93110445
0.92839936
0.92648752
0.92333867
0.92006668
0.91591731
0.91113503
0.90553871
0.89901517
0.8914945
0.88279544
0.87293772
0.8618848
0.849796
0.83690304
0.82364344
0.81054353
0.79817664
0.78701066
0.77735221
0.76931499
0.76286297
0.75791897
0.75429795
0.75143816
0.74962403
0.74880066
0.74861306
0.74869961
0.7491152
0.7498779
0.75087187
0.75163227
0.75225135
0.75352145
0.75567674
0.75726825
0.75805939
0.75750678
0.61672996
0.72735514
0.80221637
0.86713438
0.92000632
0.94151315
0.93478805
0.93882549
0.93428212
0.93551378
0.93236329
0.93179099
0.92897589
0.92693756
0.92367576
0.92026572
0.91602932
0.91113389
0.90540063
0.89866519
0.89088001
0.8818837
0.87169297
0.86029185
0.84786384
0.83468231
0.8212262
0.80805548
0.79575414
0.78477482
0.77538839
0.76766433
0.76153318
0.75689603
0.75349575
0.75079681
0.74920067
0.74853438
0.7484282
0.74855774
0.74903371
0.74984349
0.75086052
0.75162153
0.75220931
0.75349587
0.75571388
0.75734468
0.75804118
0.75736084
0.62160826
0.73262622
0.80789969
0.87345698
0.92358113
0.94254247
0.93545758
0.93942724
0.93489394
0.93602284
0.93287038
0.93221908
0.92925302
0.92711444
0.92379442
0.92029032
0.91596333
0.91091922
0.90498634
0.89800407
0.88994029
0.88062345
0.87008657
0.85832688
0.84555985
0.83210163
0.81847544
0.80527285
0.79308343
0.78233804
0.77326648
0.7658924
0.76011519
0.75580636
0.75261921
0.75013512
0.74876596
0.74825522
0.74822384
0.74840676
0.74895069
0.74980857
0.75085156
0.7516107
0.7522066
0.75361089
0.75574871
0.75741123
0.75803378
0.75728064
0.62628711
0.73768393
0.81331732
0.87966119
0.92648889
0.94328157
0.93591207
0.93985006
0.93527898
0.93639925
0.93313346
0.93240528
0.92934934
0.92713198
0.92375207
0.92012946
0.91566306
0.91041817
0.90426989
0.89702401
0.88866002
0.87900755
0.86810913
0.85598387
0.84288046
0.82916216
0.81539747
0.80220662
0.7901785
0.77971538
0.77100133
0.76401363
0.75862198
0.75465743
0.75167972
0.74945871
0.74832412
0.74796674
0.74800001
0.74825757
0.74886626
0.74978013
0.75084163
0.75160375
0.75224208
0.75384984
0.75587119
0.75750712
0.75803329
0.75720392
0.63077193
0.74252231
0.81846164
0.88571105
0.92872956
0.94374866
0.93613171
0.94001601
0.93541536
0.93644858
0.9331898
0.93243047
0.92929469
0.92697237
0.92349497
0.91970746
0.91507954
0.90962448
0.90323959
0.89571272
0.88703209
0.87702722
0.86575483
0.85325833
0.83982477
0.82586771
0.81200135
0.79887013
0.78705519
0.77692349
0.76860935
0.76204391
0.75706614
0.75345352
0.75069437
0.74877336
0.74787749
0.74766422
0.74776163
0.74810389
0.7487814
0.74975607
0.75082697
0.75159975
0.75229448
0.75414689
0.75608739
0.75763214
0.75802493
0.75713096
0.63509925
0.74720115
0.82339088
0.89161282
0.93041945
0.94398827
0.93612342
0.94002469
0.93533828
0.93634874
0.93303463
0.93214095
0.929022
0.92655725
0.92296512
0.91900627
0.91420341
0.90852248
0.90188631
0.89406272
0.88504804
0.87467591
0.86301808
0.85014764
0.83639417
0.82222504
0.80829909
0.79527939
0.78373167
0.77398121
0.76610904
0.76000036
0.75545886
0.7521952
0.74968307
0.74808722
0.74742781
0.7473428
0.74751517
0.74794964
0.7486971
0.74972977
0.75080694
0.7515931
0.75234762
0.75446146
0.75636405
0.75775534
0.75800507
0.7570513
0.6392859
0.75172272
0.8281383
0.8973115
0.93157487
0.94396139
0.93589326
0.93985673
0.93503869
0.93606157
0.93261938
0.93160756
0.92847225
0.92586519
0.92215314
0.91801307
0.91302449
0.90710644
0.9002032
0.89206712
0.88270203
0.87194826
0.85989551
0.84665125
0.83259269
0.81824364
0.80430534
0.79145266
0.78022829
0.77090952
0.76352044
0.75789983
0.75380876
0.75088345
0.74866803
0.74740743
0.7469746
0.747
0.74726647
0.74779517
0.74861293
0.74970026
0.75078121
0.75158037
0.75242737
0.7547853
0.75666719
0.75785594
0.7579602
0.75695286
0.64325066
0.75601653
0.83264464
0.90255018
0.93217583
0.94352803
0.93541157
0.9394001
0.93454148
0.93548231
0.93198749
0.9308678
0.92764513
0.92489184
0.92105417
0.91672496
0.91153876
0.90537059
0.89818473
0.88972047
0.87998878
0.86884014
0.85638493
0.84277054
0.8284268
0.81393577
0.80003738
0.78741084
0.77656809
0.76773157
0.76086416
0.75575709
0.75212164
0.74952922
0.74766796
0.74673815
0.74651251
0.74664136
0.74701892
0.74764299
0.74852749
0.74967039
0.75074856
0.7515675
0.7525966
0.7550995
0.75696437
0.75794075
0.75790857
0.75684955
0.64696594
0.7600787
0.83696008
0.9073289
0.93227415
0.94283046
0.93475526
0.93869122
0.93378417
0.93463142
0.93109313
0.92984584
0.92654854
0.92364025
0.91966812
0.9151393
0.9097426
0.90331114
0.89582666
0.88701851
0.87690456
0.86534882
0.85248595
0.83850906
0.82390545
0.80931619
0.79551504
0.78317759
0.77277671
0.76447142
0.75815929
0.75358335
0.75040213
0.74815879
0.74669359
0.74607983
0.74603427
0.74627714
0.74677407
0.7474952
0.74844591
0.74964167
0.7507139
0.75156764
0.75288325
0.75539345
0.75720829
0.75798501
0.75784975
0.75681375
0.65037498
0.76387515
0.84107909
0.9116605
0.93190321
0.94200185
0.93382291
0.93772369
0.93276152
0.93352277
0.92993823
0.92856515
0.92518243
0.92210959
0.91799314
0.91325429
0.90763332
0.90092484
0.89312554
0.88395779
0.8734463
0.8614725
0.84819943
0.83387225
0.81904002
0.80440235
0.79076108
0.77877975
0.76888165
0.76115187
0.75542138
0.75138697
0.74865847
0.74680481
0.74575024
0.74542635
0.74554003
0.74591543
0.74653351
0.74735434
0.74838043
0.74961889
0.75068615
0.75159276
0.75329952
0.75572413
0.75740869
0.75801462
0.75781538
0.75680166
0.65349658
0.76741293
0.84501752
0.91550247
0.93112747
0.94090315
0.932643
0.93651362
0.93149291
0.93216102
0.92852875
0.92701775
0.92354589
0.9202992
0.91602803
0.91106807
0.90520882
0.89820945
0.89007896
0.88053584
0.86961199
0.8572105
0.84352781
0.82886747
0.81384413
0.79921429
0.78580131
0.77424668
0.76490967
0.75779132
0.75266194
0.74917726
0.74691055
0.74549356
0.74483784
0.74476662
0.74504134
0.74556038
0.74629854
0.74722132
0.74833363
0.74960871
0.75066792
0.75165197
0.75374958
0.75609381
0.75758825
0.75803918
0.75778676
0.75672792
0.65635878
0.77071119
0.84880461
0.91882713
0.92999919
0.93956326
0.93122729
0.93505726
0.92997936
0.93055233
0.92686352
0.92520599
0.92163826
0.91820838
0.91377159
0.90857974
0.90246783
0.89516332
0.88668499
0.8767505
0.86539999
0.8525629
0.83847485
0.82350405
0.808334
0.79377524
0.78066505
0.76960883
0.76088347
0.75440285
0.74989215
0.74697107
0.74519253
0.74423551
0.74394575
0.74410008
0.74455015
0.74521446
0.74607036
0.74709282
0.74829585
0.74960884
0.7506604
0.75175195
0.75421581
0.75645671
0.75772348
0.75808783
0.75775724
0.75655134
0.65897203
0.77375829
0.85242547
0.92157226
0.92856549
0.93798818
0.9295758
0.93335689
0.9282238
0.92868764
0.92494307
0.92312883
0.91945916
0.91583722
0.91122385
0.905789
0.89940976
0.89178548
0.88294221
0.87260009
0.86080922
0.84753069
0.83304567
0.81779328
0.80252838
0.78811175
0.77538405
0.76489412
0.7568185
0.75099765
0.74713065
0.74479772
0.74353472
0.74302561
0.74305895
0.74344119
0.74407215
0.74488023
0.74585057
0.74696262
0.74826436
0.74961385
0.75066771
0.7518958
0.75463724
0.75673872
0.75782932
0.75810797
0.75774714
0.75638867
0.6613841
0.77658324
0.8558798
0.92376447
0.92676295
0.93617367
0.92768802
0.93140892
0.92622849
0.92656874
0.92276731
0.92078783
0.91700986
0.91318724
0.90838567
0.90269654
0.89603458
0.88807505
0.87884892
0.86808266
0.8558386
0.84211549
0.82724677
0.81174883
0.79644942
0.78225418
0.76999088
0.76012438
0.75272514
0.74759539
0.74441099
0.74268935
0.74194448
0.74184805
0.74218231
0.74280117
0.74361037
0.74455999
0.74564231
0.74683135
0.74824022
0.74962425
0.75069443
0.75209074
0.75500672
0.75698488
0.75792471
0.75809266
0.7577042
0.75627
0.66361067
0.77919842
0.8591259
0.9253829
0.92476427
0.93411664
0.92556526
0.92921503
0.92399405
0.92419859
0.92034009
0.91818671
0.91429319
0.91026076
0.90525861
0.89930311
0.89234219
0.88403082
0.87440313
0.86319604
0.85048717
0.8363195
0.82108606
0.80538674
0.79012277
0.77623538
0.76451473
0.75531338
0.74861877
0.74423475
0.74177036
0.74066213
0.74040886
0.740696
0.74133351
0.74218364
0.7431673
0.74425537
0.74544911
0.74671781
0.74822477
0.74963889
0.75074301
0.75234334
0.75533023
0.75720865
0.75799613
0.75805284
0.75761936
0.75618859
0.665685
0.78163957
0.86213483
0.92636626
0.92247896
0.93182955
0.92322101
0.9267844
0.92152584
0.92158426
0.91766629
0.91532954
0.91131188
0.90706015
0.90184411
0.89560936
0.88833183
0.87965052
0.86960179
0.85793732
0.84475394
0.8301457
0.81457343
0.79872643
0.78357818
0.77008923
0.75897798
0.75047239
0.74453652
0.74096167
0.73923177
0.73870964
0.73891676
0.73958399
0.74051898
0.74159251
0.74274505
0.74396725
0.7452703
0.74664015
0.74821707
0.74965288
0.75080746
0.75264709
0.75562024
0.75739738
0.75803916
0.75800889
0.75751673
0.75612709
0.66764262
0.78394898
0.86488151
0.92670495
0.91997426
0.92931861
0.92065993
0.92412221
0.91882959
0.91872984
0.9147491
0.91221933
0.90806832
0.90358753
0.8981432
0.89161468
0.88400132
0.87493069
0.86444096
0.85230323
0.83863797
0.8235981
0.80772098
0.79179099
0.77684834
0.76384669
0.75339464
0.74562461
0.74053437
0.73781006
0.73679575
0.73681657
0.73747976
0.73852189
0.73974297
0.74103049
0.74234574
0.74369638
0.74509913
0.74658903
0.74821617
0.74966651
0.75088401
0.75298224
0.75589057
0.7575252
0.75805537
0.75798498
0.75741906
0.75610669
0.66951515
0.78612648
0.86732131
0.92642216
0.91725012
0.9265919
0.91788496
0.92123316
0.915908
0.91563831
0.91159116
0.9088591
0.90456481
0.89984433
0.89415539
0.88731675
0.87934666
0.86986626
0.85891567
0.84628996
0.83213873
0.81668223
0.80054428
0.78460804
0.76996777
0.75753275
0.7477772
0.74082087
0.73666313
0.73479529
0.73443982
0.73499201
0.73611179
0.73751382
0.73900851
0.74049993
0.7419712
0.7434442
0.74493167
0.74654782
0.74822132
0.74968286
0.75097135
0.75333729
0.75613887
0.7575942
0.75805746
0.75797214
0.75734189
0.75601626
0.67135503
0.78820881
0.86943428
0.925516
0.91432409
0.9236468
0.91489916
0.91811822
0.91276319
0.91231264
0.90819557
0.9052519
0.90080256
0.89582983
0.88987768
0.88271072
0.87436207
0.8644511
0.85302026
0.8398936
0.82525618
0.8094056
0.79306241
0.77720881
0.76296921
0.75116414
0.74215336
0.73612758
0.73295512
0.73189967
0.732162
0.73325621
0.73481657
0.73656355
0.73831798
0.74000253
0.7416226
0.74321266
0.74477822
0.74651158
0.74823014
0.74969728
0.75106563
0.75371077
0.75635261
0.75761904
0.75802699
0.75793484
0.75728247
0.75585977
0.67307221
0.79020607
0.87116901
0.92399534
0.91119975
0.92048387
0.91170233
0.91478282
0.90939952
0.90875776
0.90456504
0.90139866
0.89677939
0.89153968
0.88530412
0.87778983
0.8690404
0.85867798
0.84674839
0.83311011
0.81799131
0.80177867
0.78529919
0.76962732
0.75588103
0.7447544
0.73658205
0.73160006
0.72941401
0.72910069
0.72998895
0.73161444
0.73359866
0.73567358
0.73767315
0.73953961
0.74130023
0.7430015
0.74466034
0.74648229
0.74823994
0.74970061
0.75117536
0.75409274
0.75651303
0.75762284
0.75799916
0.75787199
0.75719246
0.75569955
0.67470939
0.79216985
0.87249208
0.92191285
0.90789406
0.91711934
0.90830516
0.91123287
0.90582189
0.90497466
0.90069762
0.89729479
0.89248855
0.88696641
0.88042704
0.87254618
0.86337377
0.85253906
0.84009332
0.82593551
0.8103465
0.79381531
0.77728261
0.76189719
0.74872446
0.73832921
0.73113922
0.72727329
0.72601174
0.72641291
0.72793364
0.73007204
0.7324606
0.7348457
0.73707516
0.73911223
0.74100393
0.74280611
0.74458349
0.74646478
0.7482484
0.74969444
0.7513252
0.75445595
0.75662813
0.75763668
0.75795664
0.75778179
0.75705773
0.75556831
0.6762547
0.79411738
0.87334933
0.91930149
0.90439627
0.91354986
0.90470578
0.90746572
0.9020251
0.90095684
0.89658425
0.89293113
0.88792085
0.88210173
0.87523854
0.86697159
0.85735349
0.84602563
0.83304782
0.81836626
0.80232667
0.78553419
0.76904477
0.75404958
0.74151584
0.73194836
0.72588817
0.7231485
0.72273107
0.7238633
0.72600179
0.72863196
0.73140425
0.73408077
0.73652466
0.73872116
0.74073375
0.74262151
0.74453085
0.74645881
0.74825508
0.74969515
0.75155381
0.75478179
0.75674985
0.75766071
0.75790222
0.75766524
0.75689443
0.7555055
0.67769055
0.79605065
0.8736858
0.91619875
0.90070477
0.90977111
0.90089845
0.90347209
0.89799787
0.89669223
0.89221331
0.88829844
0.88306847
0.8769385
0.86973088
0.86105701
0.85096992
0.83912829
0.82560431
0.81039971
0.7939397
0.77695853
0.76061891
0.74611048
0.73427643
0.72569635
0.7208705
0.71919261
0.71959416
0.72146338
0.7241976
0.72729616
0.73043022
0.73337887
0.73602188
0.73836667
0.74048991
0.74245288
0.74449339
0.7464641
0.74826169
0.74972378
0.75189645
0.7550988
0.75688534
0.75767618
0.75785134
0.75752827
0.7567232
0.75546327
0.67900867
0.79798465
0.87347914
0.91261777
0.89680777
0.90576532
0.89686712
0.89923296
0.89372589
0.89217036
0.8875774
0.8833917
0.87792616
0.87147005
0.86389541
0.85479214
0.84421214
0.8318368
0.81775518
0.80203511
0.78519806
0.76811671
0.75203803
0.73810155
0.72705831
0.7196482
0.71609513
0.71538662
0.71662906
0.7192189
0.72252346
0.72606521
0.72953817
0.73273962
0.73556706
0.73804811
0.7402712
0.74231943
0.74446637
0.74648116
0.74827272
0.74979837
0.75236461
0.75544385
0.75701248
0.75766417
0.7577908
0.75739844
0.75656801
0.7553704
0.68011999
0.79987797
0.87268404
0.90862885
0.89268028
0.90151104
0.89259665
0.89474188
0.8892049
0.88739181
0.88267577
0.87820846
0.87248818
0.86568763
0.85772127
0.84816471
0.83706809
0.82414023
0.80949327
0.79327415
0.776119
0.75904002
0.74333225
0.73004356
0.71994686
0.71385841
0.71153009
0.71175275
0.71384866
0.71713345
0.72098022
0.72493846
0.72872701
0.73216273
0.73516044
0.7377637
0.74007294
0.74223437
0.74445143
0.74651102
0.74829638
0.74993694
0.75292528
0.75578109
0.75711082
0.75762534
0.75772629
0.75723933
0.75641206
0.75524389
0.68103846
0.80168401
0.87126343
0.90455132
0.88832683
0.89701689
0.8880975
0.89001086
0.88444205
0.88235992
0.87750623
0.87274232
0.86674458
0.85957915
0.8511952
0.84116105
0.82952472
0.81602731
0.80081245
0.78412263
0.76672541
0.74976163
0.73452895
0.72197439
0.71303174
0.70835407
0.70714596
0.70832413
0.71125857
0.71520867
0.71956724
0.72391436
0.72799578
0.73164846
0.73480183
0.73751053
0.73989006
0.74218492
0.7444539
0.74655447
0.74834491
0.75016247
0.75350952
0.75605276
0.75718147
0.75757424
0.7576448
0.75705692
0.7562708
0.75512022
0.68178204
0.80339575
0.86924745
0.90031826
0.88377442
0.89230442
0.88338216
0.88504613
0.87943619
0.8770674
0.87205791
0.86698071
0.86068169
0.85313017
0.84430254
0.83376648
0.82156823
0.80748663
0.79170846
0.77459095
0.7570449
0.74031361
0.72565218
0.71396974
0.70638528
0.70311407
0.70295742
0.70511775
0.70886215
0.7134443
0.71828262
0.72299113
0.72734428
0.73119714
0.73448904
0.73728477
0.73972901
0.74215528
0.74447398
0.74661086
0.74843166
0.75050206
0.75403228
0.7562552
0.75721164
0.75750271
0.75753222
0.75685096
0.75614606
0.75502186
0.68243933
0.80498118
0.86666267
0.89569327
0.87902163
0.88736592
0.87843829
0.87982988
0.87417106
0.87149793
0.86631498
0.86090882
0.85428466
0.84632546
0.83702789
0.82596557
0.81318419
0.79850719
0.78218012
0.76469544
0.74710929
0.73072782
0.71673092
0.70613196
0.70005578
0.6980941
0.69900617
0.70213932
0.70666034
0.71183847
0.71712374
0.72216756
0.72677286
0.73080738
0.73421645
0.73708248
0.73961532
0.74213815
0.74450921
0.74667703
0.74856071
0.75094899
0.75443752
0.75639031
0.75722018
0.75743493
0.75736113
0.75665845
0.75599396
0.7549521
0.68303599
0.80633726
0.86351977
0.89085883
0.87403665
0.88217256
0.87324227
0.87434055
0.86862857
0.86563711
0.8602631
0.85451254
0.8475387
0.8391493
0.82935516
0.81774212
0.80435763
0.78907895
0.77223033
0.75445765
0.73695124
0.7210349
0.70782272
0.69855342
0.69404493
0.69329286
0.69531646
0.6993923
0.70465185
0.71038791
0.71608797
0.72144296
0.72628018
0.73047301
0.7339753
0.73690184
0.73955539
0.74213257
0.74455667
0.74674758
0.74871947
0.75144446
0.75473973
0.75648368
0.75721166
0.75733966
0.75712767
0.75648173
0.75583585
0.75489503
0.68356985
0.80735118
0.85981852
0.88573876
0.8687987
0.87670937
0.86778153
0.86856973
0.86279732
0.85947408
0.85388924
0.84777778
0.84042837
0.83158496
0.82126706
0.80907864
0.79507301
0.77919392
0.76186753
0.74390478
0.72660329
0.7112651
0.69902555
0.69130493
0.68831091
0.68875405
0.69189513
0.69687716
0.70283352
0.70908887
0.71517323
0.72081552
0.72585926
0.73018196
0.73375795
0.73675038
0.73952432
0.74214342
0.74461339
0.74681871
0.74889498
0.75194033
0.7549969
0.75657133
0.75718434
0.75722433
0.75690269
0.75630893
0.75567757
0.75485234
0.68405852
0.80800643
0.85558933
0.88033505
0.86330666
0.87097219
0.86205113
0.8625098
0.85666736
0.85299672
0.84717932
0.84068929
0.83293705
0.82361419
0.81274455
0.79995604
0.78531451
0.7688471
0.7511058
0.73306747
0.71609775
0.70145628
0.69045162
0.6844221
0.68283093
0.68451093
0.68874654
0.69459179
0.70120082
0.70793772
0.71437716
0.72027887
0.72549539
0.72992126
0.73356654
0.73665124
0.73950943
0.7421716
0.74467667
0.74689342
0.74909712
0.75243442
0.75524108
0.75664697
0.75715232
0.75712358
0.75670455
0.75613976
0.75554672
0.75478609
0.68443849
0.80842218
0.85087307
0.87464938
0.85755803
0.86495274
0.85604231
0.85614786
0.85022564
0.84619132
0.84011823
0.83323055
0.82504643
0.8152167
0.80376648
0.79035374
0.77506725
0.75803835
0.73996605
0.72197898
0.70547038
0.69168778
0.68219753
0.67788662
0.67763036
0.68058065
0.68587101
0.692532
0.69974886
0.7069312
0.71369467
0.71981959
0.72517215
0.7296909
0.7334204
0.73660537
0.73950405
0.74221494
0.74474467
0.74698184
0.74935723
0.75292412
0.75546268
0.7566919
0.75710564
0.75701937
0.75652814
0.75597186
0.75542657
0.75469677
0.68465213
0.8084997
0.84571709
0.86867273
0.85154279
0.85863764
0.84974242
0.84947021
0.84345761
0.83904425
0.8326899
0.82538302
0.81673567
0.8063696
0.79430937
0.78025019
0.76431837
0.74677338
0.72847456
0.71067354
0.69476075
0.68207895
0.67433112
0.67165205
0.67275774
0.67696779
0.68326611
0.69069219
0.69847291
0.70606461
0.71311431
0.71942026
0.72488868
0.72951602
0.73333694
0.7365861
0.73951274
0.74227072
0.74481667
0.74709761
0.74971957
0.75337853
0.75564681
0.75670212
0.75703493
0.75689125
0.7563628
0.75580793
0.75530918
0.75460994
0.68461443
0.80822202
0.84013998
0.86239642
0.84524798
0.85201273
0.84313924
0.84246616
0.83634895
0.8315404
0.82487547
0.81712446
0.80798012
0.7970466
0.78434734
0.76962363
0.75305899
0.73506494
0.71666268
0.69918899
0.68402642
0.67275168
0.66687161
0.66571728
0.66824331
0.67367375
0.68092682
0.6890664
0.6973679
0.70532835
0.7126179
0.71907213
0.72467508
0.72941902
0.73330264
0.73658092
0.73953926
0.74233614
0.74489322
0.74725386
0.75019923
0.75377572
0.75579704
0.75669161
0.75694496
0.75675092
0.75621463
0.75565916
0.75519061
0.75454689
0.68425517
0.80758157
0.83415161
0.85581127
0.83866377
0.84506781
0.836222
0.83512489
0.8288828
0.82365939
0.81665083
0.80842778
0.79875119
0.78721841
0.77385269
0.75845332
0.74128552
0.72293256
0.7045641
0.68756738
0.67336877
0.66380706
0.65978244
0.6601341
0.66409413
0.67069594
0.6788465
0.68764829
0.69642558
0.70470515
0.71218867
0.71879231
0.72455667
0.729381
0.73329226
0.73658648
0.73958216
0.74240907
0.74497664
0.74745666
0.75076134
0.75412883
0.75592062
0.75666566
0.75683561
0.75660759
0.75611407
0.75553859
0.75507441
0.75449878
0.68351627
0.80659651
0.82777741
0.84891423
0.83178488
0.83779179
0.82897437
0.8274261
0.82103478
0.8153741
0.80798651
0.79926178
0.78901705
0.7768531
0.76279679
0.74672151
0.72900173
0.71040326
0.6922171
0.67585965
0.66292331
0.65530612
0.65303672
0.65494592
0.66031414
0.66802921
0.67701787
0.68642991
0.69563088
0.70417359
0.71182931
0.71861727
0.72450971
0.7293711
0.73329563
0.7366079
0.73963991
0.74248836
0.74507249
0.74770989
0.75135423
0.75444136
0.75600762
0.75662571
0.75672328
0.75647513
0.75598708
0.75541764
0.75496705
0.75445391
0.68233044
0.80522241
0.82102117
0.84169014
0.82459278
0.83016086
0.8213678
0.81934029
0.81277391
0.80665323
0.79884956
0.78959229
0.77874319
0.76591683
0.75115134
0.73441513
0.71621899
0.69750947
0.67966677
0.6641457
0.65282043
0.64725065
0.64665909
0.65017639
0.65690137
0.66566609
0.67543255
0.68539835
0.69496108
0.70372244
0.71157467
0.71854109
0.72449692
0.72937852
0.7333145
0.73664728
0.73970982
0.74257357
0.74519264
0.74803709
0.75193151
0.75469026
0.75604184
0.75655262
0.75662844
0.75635922
0.75584303
0.75526796
0.75487189
0.75441468
0.68063035
0.80321743
0.8138691
0.83410163
0.81705816
0.82214161
0.81336996
0.8108366
0.80406713
0.79746318
0.78920422
0.77938188
0.76789183
0.75437373
0.73888971
0.72152807
0.70295735
0.68428887
0.66696755
0.65255574
0.64316796
0.63959756
0.64070979
0.64583091
0.65385108
0.6635977
0.67407922
0.68453325
0.69439474
0.70337025
0.7114405
0.71851486
0.72450765
0.72940837
0.73335352
0.73670258
0.73978884
0.74266462
0.74535322
0.74848057
0.75244311
0.75488638
0.75605512
0.75649497
0.75650258
0.7562377
0.75565185
0.75512085
0.75476893
0.75439118
0.6783641
0.80077119
0.80629802
0.8261207
0.80915243
0.81370434
0.80495083
0.80188407
0.79487919
0.78776671
0.77901094
0.76858884
0.75642203
0.74218707
0.72598917
0.70806248
0.68924512
0.67078535
0.65418648
0.64124484
0.63401377
0.63234134
0.63522987
0.64191026
0.65115512
0.66181279
0.67293995
0.68380925
0.69393162
0.70315319
0.71138788
0.71851978
0.72454892
0.72946491
0.73341167
0.73677187
0.73987408
0.74276231
0.74556375
0.74903898
0.75287579
0.75506315
0.75606407
0.75640966
0.75636189
0.75605861
0.75546439
0.75498047
0.75469093
0.75434825
0.6755717
0.79787254
0.79831262
0.81771215
0.80085053
0.80481556
0.79607776
0.7924471
0.78516971
0.77752154
0.76822511
0.75716735
0.74429001
0.72932112
0.71243335
0.69403042
0.67511873
0.65705611
0.64143437
0.63035494
0.62534002
0.62553938
0.63023379
0.63841021
0.64880297
0.66029605
0.67198886
0.68320875
0.69360805
0.70305996
0.71138019
0.71856031
0.72462355
0.72954509
0.73348742
0.73685296
0.73996385
0.74286974
0.74582313
0.74965879
0.75325157
0.75521118
0.75605307
0.75629854
0.75618922
0.75586089
0.75529616
0.75486508
0.75461665
0.75430557
0.67219723
0.79436698
0.78989146
0.80883973
0.79211385
0.79543934
0.78670645
0.78248492
0.77489209
0.76667909
0.75679673
0.74506743
0.7314505
0.71574324
0.69821413
0.6794535
0.66062147
0.64317162
0.62887111
0.61998613
0.6171168
0.61925129
0.62572608
0.63532244
0.64678041
0.65902534
0.67119875
0.68274198
0.69343784
0.70303313
0.71141215
0.71864206
0.72472799
0.72964704
0.73357872
0.7369437
0.74005799
0.74299574
0.74613808
0.75029573
0.75357097
0.75529573
0.75600321
0.7561684
0.75601663
0.75565984
0.7551523
0.75477109
0.75455135
0.75425864
0.66823072
0.79027177
0.78102397
0.79946478
0.78290523
0.78553231
0.77679121
0.77194958
0.76399366
0.75518434
0.74467127
0.73223626
0.71785878
0.70142675
0.68333414
0.66436431
0.64580943
0.62922725
0.61667246
0.61016854
0.60937239
0.6135132
0.62170453
0.63263509
0.6450682
0.65797195
0.67055885
0.68244484
0.69337255
0.70305187
0.71149097
0.71876036
0.72485959
0.72976826
0.73368343
0.73704162
0.74015708
0.743156
0.74653897
0.75089641
0.75382849
0.75532938
0.7559358
0.75602763
0.75585627
0.75548811
0.75503475
0.75469239
0.75448962
0.7542111
0.66364236
0.78549937
0.77166875
0.78952945
0.77317351
0.77504485
0.76627498
0.76078587
0.75241419
0.74297645
0.73179044
0.71862
0.7034729
0.68635331
0.66780744
0.64880556
0.63075702
0.6153757
0.60499044
0.6008696
0.60218537
0.6083335
0.6181617
0.63033143
0.64364026
0.65710724
0.67009303
0.68230892
0.69337002
0.70312273
0.7116145
0.71891203
0.72501521
0.72990654
0.73379914
0.73714387
0.74026094
0.7433637
0.74706092
0.75140183
0.75403186
0.75533176
0.75584083
0.75588343
0.75570889
0.75533571
0.75493335
0.75462361
0.7544306
0.75418067
0.65841214
0.77995251
0.76180474
0.77898867
0.76286854
0.76392163
0.75509336
0.74892999
0.74008833
0.72999115
0.71809437
0.70416472
0.68825534
0.670515
0.65166092
0.63283375
0.6155623
0.60181387
0.59390385
0.59209409
0.59561211
0.60371461
0.61508444
0.62838806
0.64246541
0.6564212
0.66982062
0.68226897
0.69342576
0.70324783
0.71177828
0.71909314
0.72519202
0.73005966
0.7339234
0.73724782
0.74036922
0.74361794
0.7476793
0.75182013
0.75419525
0.75531537
0.75572256
0.75574102
0.75557022
0.75519323
0.75483122
0.75455862
0.75437893
0.75415388
0.65255877
0.77355933
0.75139893
0.7677784
0.75192233
0.75209296
0.74317126
0.73631364
0.72695009
0.71616339
0.70352159
0.68881771
0.67217556
0.65391632
0.63493518
0.6165263
0.60036701
0.58873067
0.58341537
0.58391725
0.58967556
0.59964996
0.61245285
0.6267734
0.6415136
0.65594313
0.66970303
0.68229709
0.6935455
0.70342078
0.71197784
0.71930017
0.72538729
0.73022552
0.73405379
0.73735207
0.74048606
0.74391369
0.74833199
0.75219389
0.75432635
0.7552808
0.75560826
0.75560026
0.75543034
0.75506172
0.75472773
0.75450029
0.75434054
0.75413567
0.64606587
0.76616229
0.74039044
0.7558179
0.74025552
0.73949459
0.73043695
0.72287119
0.71293418
0.70142487
0.6880069
0.67252729
0.65521218
0.63657606
0.61768663
0.59998782
0.58537382
0.57627022
0.57351421
0.57641851
0.58438386
0.5961261
0.61023931
0.6254521
0.640773
0.65568326
0.66968318
0.68239708
0.69372281
0.70363648
0.71220879
0.71952972
0.72559841
0.73040202
0.73418801
0.7374569
0.74062504
0.74426803
0.74897777
0.75251611
0.75441879
0.75522626
0.75548949
0.75545957
0.75528517
0.75494002
0.7546343
0.75443982
0.75430543
0.75411935
0.63891514
0.75757928
0.72871698
0.74303773
0.72779443
0.72607564
0.71682743
0.70853291
0.69796639
0.68569653
0.67147874
0.65524548
0.63735687
0.6185301
0.5999941
0.58335873
0.57081249
0.56448388
0.56425656
0.56964505
0.57973348
0.59312037
0.60840781
0.6243945
0.64027118
0.65558082
0.66974512
0.68256797
0.69395103
0.70388924
0.71246698
0.71977867
0.72582285
0.73058699
0.73432387
0.73756314
0.74080451
0.74471439
0.74956208
0.75277346
0.75446424
0.75515843
0.755369
0.75532098
0.75514407
0.75482385
0.75454927
0.75439019
0.75426235
0.75409178
0.63115008
0.74762187
0.71633055
0.72938819
0.71447716
0.71177242
0.70226583
0.69320959
0.68195266
0.66888621
0.65386285
0.63693387
0.61861923
0.59983606
0.58197244
0.56685284
0.55688528
0.55335651
0.55575175
0.56361211
0.57571127
0.59060088
0.60691919
0.62359266
0.64000985
0.65558151
0.66989149
0.68280046
0.69422324
0.70417388
0.71274856
0.72004416
0.72605821
0.7307781
0.73445927
0.73767042
0.7410326
0.74526466
0.75005237
0.75297028