/*--------------------------------*- C++ -*----------------------------------*\
  =========                 |
  \\      /  F ield         | OpenFOAM: The Open Source CFD Toolbox
   \\    /   O peration     | Website:  https://openfoam.org
    \\  /    A nd           | Version:  8
     \\/     M anipulation  |
\*---------------------------------------------------------------------------*/
FoamFile
{
    version     2.0;
    format      ascii;
    class       surfaceScalarField;
    location    "0.210011";
    object      meshPhi;
}
// * * * * * * * * * * * * * * * * * * * * * * * * * * * * * * * * * * * * * //

dimensions      [0 3 -1 0 0 0 0];

internalField   nonuniform List<scalar> 
39600
(
-6.3796244e-05
-4.150871e-06
4.2745901e-06
-6.3917235e-05
-4.9605277e-06
5.0643078e-06
-6.4065131e-05
-5.9434085e-06
6.0672101e-06
-6.4243798e-05
-7.1204628e-06
7.2688156e-06
-6.4457531e-05
-8.5302785e-06
8.7081726e-06
-6.4714436e-05
-1.0218957e-05
1.0432211e-05
-6.5019375e-05
-1.224133e-05
1.2496955e-05
-6.5385294e-05
-1.4662767e-05
1.4969287e-05
-6.5823991e-05
-1.7561348e-05
1.7928924e-05
-6.6358812e-05
-2.1029924e-05
2.1470695e-05
-6.7021558e-05
-2.5178463e-05
2.5707167e-05
-6.7849786e-05
-3.0136942e-05
3.0771405e-05
-6.8885478e-05
-3.605786e-05
3.6819929e-05
-7.0190673e-05
-4.3119129e-05
4.4035275e-05
-7.1845821e-05
-5.1525796e-05
5.2628953e-05
-7.3952115e-05
-6.1511872e-05
6.284224e-05
-7.6513792e-05
-7.3337341e-05
7.4943848e-05
-7.9570743e-05
-8.7286287e-05
8.9235351e-05
-8.3436041e-05
-0.00010366086
0.00010604091
-8.846073e-05
-0.0001227817
0.00012570804
-9.5030935e-05
-0.00014500936
0.00014862399
-0.00010377337
-0.00017062458
0.00017509855
-0.00011476302
-0.00019994395
0.00020550858
-0.00012940145
-0.00023302323
0.00023995985
-0.00014706691
-0.00027008375
0.00027876223
-0.00017007866
-0.00031179731
0.0003227539
-0.00019700981
-0.00035903975
0.0003730448
-0.00022609368
-0.00041342063
0.00043106533
-0.00025725697
-0.00047802859
0.00049957428
-0.00030009806
-0.00055159567
0.00057774002
-0.00035531507
-0.00062829409
0.00066079991
-0.0004252295
-0.00070571807
0.00074652682
-0.00050575147
-0.00078551333
0.00083652771
-0.0005849755
-0.00087872744
0.00094126964
-0.00068043915
-0.00098547525
0.0010607536
-0.00077866033
-0.0011073392
0.0011972931
-0.00089283702
-0.0012489838
0.001355474
-0.0010297712
-0.0014110992
0.0015368033
-0.0011884225
-0.0015952474
0.0017429175
-0.0013590487
-0.0018241141
0.0019977238
-0.0015452121
-0.0021150745
0.0023178758
-0.0017381631
-0.0024084755
0.002635919
-0.0019405814
-0.0026825878
0.0029294977
-0.0020440209
-0.0029685479
0.0032264215
-0.0020762647
-0.0032570746
0.0035085755
-0.0021956683
-0.003616082
0.0038723856
-0.001957081
-0.0038790437
0.0041094843
-0.0013013515
-0.0036240935
0.0037485025
-0.00034050361
-0.0029452782
0.0029727439
-0.0013668495
0.0013662938
-5.1225394e-05
-4.0810116e-06
-5.1330314e-05
-4.8767984e-06
-5.1461777e-05
-5.8426643e-06
-5.1620871e-05
-6.9996888e-06
-5.1812635e-05
-8.3857137e-06
-5.2044398e-05
-1.0045659e-05
-5.2324005e-05
-1.2033728e-05
-5.2663394e-05
-1.4413994e-05
-5.3075435e-05
-1.7263349e-05
-5.3579778e-05
-2.0672725e-05
-5.4201945e-05
-2.4750136e-05
-5.4972584e-05
-2.9622556e-05
-5.5934013e-05
-3.5439291e-05
-5.7147945e-05
-4.2373668e-05
-5.8715258e-05
-5.0624509e-05
-6.0701411e-05
-6.0420498e-05
-6.3094085e-05
-7.201621e-05
-6.5943414e-05
-8.5681281e-05
-6.9514667e-05
-0.00010169452
-7.4174025e-05
-0.00012035265
-8.0305072e-05
-0.00014198125
-8.8470896e-05
-0.00016684472
-9.8842883e-05
-0.00019520166
-0.00011260446
-0.00022706489
-0.00012925017
-0.00026261465
-0.00015074066
-0.00030231754
-0.00017592234
-0.00034683251
-0.00020240259
-0.00039805815
-0.00023096326
-0.0004594437
-0.0002716901
-0.00052906115
-0.00032564172
-0.0006000041
-0.00039390139
-0.00066948474
-0.00047232241
-0.00073990345
-0.00055038912
-0.00082241315
-0.00064445299
-0.00091705132
-0.00074260216
-0.001024722
-0.0008563031
-0.0011501333
-0.00099253721
-0.0012933415
-0.0011497518
-0.0014558184
-0.0013209324
-0.0016593948
-0.0015088016
-0.0019196601
-0.0017034266
-0.0021859323
-0.0019046613
-0.0024412847
-0.0020165629
-0.0027162151
-0.002057758
-0.0030088808
-0.0021656331
-0.0033626143
-0.0019470619
-0.0036411284
-0.0012996082
-0.0034881129
-0.00032505568
-0.0029111532
-0.0013640955
-3.9728806e-05
-4.0264985e-06
-3.9980416e-05
-4.8112844e-06
-4.0244746e-05
-5.7639294e-06
-4.0495795e-05
-6.9050777e-06
-4.0735223e-05
-8.2720756e-06
-4.0976497e-05
-9.9093616e-06
-4.1237453e-05
-1.187028e-05
-4.1530426e-05
-1.4218143e-05
-4.1871951e-05
-1.7028627e-05
-4.2282813e-05
-2.0391353e-05
-4.2784067e-05
-2.4412605e-05
-4.3413113e-05
-2.9216998e-05
-4.4211202e-05
-3.4951119e-05
-4.5260789e-05
-4.1783902e-05
-4.6654464e-05
-4.9909245e-05
-4.8426371e-05
-5.9552342e-05
-5.0586608e-05
-7.0961581e-05
-5.3186452e-05
-8.4395032e-05
-5.6456904e-05
-0.00010011033
-6.0742161e-05
-0.00011837938
-6.6403972e-05
-0.00013950027
-7.3934424e-05
-0.00016371862
-8.362513e-05
-0.00019124558
-9.6451619e-05
-0.00022205266
-0.00011200222
-0.00025628846
-0.00013193449
-0.00029424988
-0.00015525162
-0.00033639966
-0.00017908919
-0.00038500118
-0.00020502129
-0.00044374413
-0.00024353933
-0.0005099385
-0.00029597711
-0.00057570648
-0.00036247585
-0.00063793434
-0.00043828604
-0.00069972515
-0.00051512297
-0.00077219102
-0.000607368
-0.00085524875
-0.00070517228
-0.00094920405
-0.0008180894
-0.001058772
-0.00095345476
-0.0011834273
-0.00110893
-0.0013245911
-0.0012806271
-0.0015030874
-0.0014696676
-0.0017328545
-0.0016653567
-0.0019716939
-0.0018655512
-0.0022075823
-0.0019844318
-0.0024703628
-0.0020366422
-0.0027642905
-0.0021325439
-0.0031142477
-0.0019320157
-0.0034079166
-0.001293853
-0.0033470541
-0.0003064107
-0.0028721273
-0.0013616882
-2.8781362e-05
-3.9870775e-06
-2.9033971e-05
-4.7642519e-06
-2.9314214e-05
-5.7077104e-06
-2.9600404e-05
-6.8378183e-06
-2.9889901e-05
-8.1914272e-06
-3.0187047e-05
-9.8125166e-06
-3.0500339e-05
-1.1753638e-05
-3.082673e-05
-1.4077586e-05
-3.1174507e-05
-1.6859089e-05
-3.1552464e-05
-2.0186702e-05
-3.1982285e-05
-2.4165588e-05
-3.2504204e-05
-2.8918587e-05
-3.3161983e-05
-3.4590129e-05
-3.4054909e-05
-4.1345837e-05
-3.5252043e-05
-4.9376069e-05
-3.679518e-05
-5.8902357e-05
-3.869481e-05
-7.0168661e-05
-4.1019898e-05
-8.3422612e-05
-4.4005879e-05
-9.8900646e-05
-4.792258e-05
-0.0001168555
-5.3114708e-05
-0.00013756136
-6.0038241e-05
-0.00016124228
-6.9051856e-05
-0.00018806969
-8.1017793e-05
-0.00021797334
-9.5531752e-05
-0.000251077
-0.00011409882
-0.00028753697
-0.0001356979
-0.00032768647
-0.00015712196
-0.00037416789
-0.00018077784
-0.00043074939
-0.00021725788
-0.00049396186
-0.00026820543
-0.0005550681
-0.00033287015
-0.00061071306
-0.00040627325
-0.000664575
-0.00048191067
-0.00072758556
-0.00057245026
-0.00079953456
-0.00066978045
-0.00088021389
-0.00078181719
-0.00097433238
-0.00091627857
-0.0010807762
-0.0010701481
-0.0012009421
-0.0012420184
-0.0013545946
-0.001431577
-0.0015543557
-0.0016280944
-0.0017658224
-0.0018274362
-0.0019816172
-0.0019529328
-0.0022311332
-0.0020153321
-0.002523817
-0.0021027256
-0.0028704741
-0.0019182975
-0.0031781637
-0.0012887883
-0.0032014731
-0.00028917781
-0.0028291292
-0.0013594946
-1.8347737e-05
-3.9623611e-06
-1.844021e-05
-4.7347282e-06
-1.8579569e-05
-5.6724689e-06
-1.8772987e-05
-6.7957403e-06
-1.9019665e-05
-8.1410088e-06
-1.9311472e-05
-9.7520268e-06
-1.9645319e-05
-1.1680945e-05
-2.0007553e-05
-1.3990012e-05
-2.0400198e-05
-1.6753272e-05
-2.0817423e-05
-2.005853e-05
-2.1277355e-05
-2.4009781e-05
-2.1803625e-05
-2.8728573e-05
-2.2433475e-05
-3.4357816e-05
-2.3246056e-05
-4.1060907e-05
-2.4308346e-05
-4.9025268e-05
-2.5651726e-05
-5.8470245e-05
-2.7306094e-05
-6.9636152e-05
-2.9384839e-05
-8.2759986e-05
-3.2083229e-05
-9.8063452e-05
-3.5631615e-05
-0.0001157812
-4.0357654e-05
-0.00013616522
-4.6696596e-05
-0.00015941693
-5.504975e-05
-0.00018567244
-6.6218587e-05
-0.00021481995
-7.9781618e-05
-0.00024696402
-9.7185569e-05
-0.0002821479
-0.00011718555
-0.00032061822
-0.00013636664
-0.00036542157
-0.00015803222
-0.00042029033
-0.00019263137
-0.00048094204
-0.00024212002
-0.00053788093
-0.0003049071
-0.00058755412
-0.00037607107
-0.00063416201
-0.00045054464
-0.00068829379
-0.00053946841
-0.00074961099
-0.00063622179
-0.00081747182
-0.00074729925
-0.00089654155
-0.00088083917
-0.00098514428
-0.0010332073
-0.0010846395
-0.0012048807
-0.0012137726
-0.0013943033
-0.0013840677
-0.0015914281
-0.0015682987
-0.0017900227
-0.0017635142
-0.0019218415
-0.0019987262
-0.0019938336
-0.0022877593
-0.0020756528
-0.0026312787
-0.0019055731
-0.0029514581
-0.0012845978
-0.0030511397
-0.00027354255
-0.0027816385
-0.0013573771
-8.7225839e-06
-3.9515821e-06
-8.8077649e-06
-4.7215171e-06
-8.934098e-06
-5.6563864e-06
-9.098981e-06
-6.7761932e-06
-9.2973197e-06
-8.1173972e-06
-9.5239915e-06
-9.7236471e-06
-9.7788206e-06
-1.1646983e-05
-1.0057714e-05
-1.3949403e-05
-1.0370072e-05
-1.6704635e-05
-1.0716958e-05
-1.9999977e-05
-1.1118878e-05
-2.3938704e-05
-1.1594334e-05
-2.8641398e-05
-1.2171248e-05
-3.4249599e-05
-1.2905139e-05
-4.0925135e-05
-1.3836341e-05
-4.8853651e-05
-1.4994294e-05
-5.825286e-05
-1.6427402e-05
-6.9360296e-05
-1.8257987e-05
-8.2405566e-05
-2.0661069e-05
-9.759801e-05
-2.3840448e-05
-0.00011515543
-2.8107804e-05
-0.00013531025
-3.3886036e-05
-0.00015824106
-4.1604142e-05
-0.00018405003
-5.2029402e-05
-0.00021258671
-6.4743379e-05
-0.00024393123
-8.1140379e-05
-0.00027802834
-9.9618527e-05
-0.00031513457
-0.00011670869
-0.00035869149
-0.00013659656
-0.00041224256
-0.0001694479
-0.00047070718
-0.00021750626
-0.00052391992
-0.00027840092
-0.00056819036
-0.00034744934
-0.00060815424
-0.00042078062
-0.00065393491
-0.00050815315
-0.00070505887
-0.00060424325
-0.00076052417
-0.00071429409
-0.00082495075
-0.00084690102
-0.00089607608
-0.00099784372
-0.00097519603
-0.0011690055
-0.0010801749
-0.0013577597
-0.0012217647
-0.0015552837
-0.0013790589
-0.0017532108
-0.0015531802
-0.0018910531
-0.0017729958
-0.0019721522
-0.0020561313
-0.0020508039
-0.0023959279
-0.0018936492
-0.0027268945
-0.0012812504
-0.0028966529
-0.00025953137
-0.0027303197
-0.0013552225
3.0668856e-07
-3.95463e-06
2.4935481e-07
-4.7253363e-06
1.6359038e-07
-5.6613122e-06
5.164603e-08
-6.7824758e-06
-7.9974344e-08
-8.1253033e-06
-2.3102163e-07
-9.7334054e-06
-4.0549853e-07
-1.1658766e-05
-6.0500501e-07
-1.3963294e-05
-8.438585e-07
-1.6720546e-05
-1.1250694e-06
-2.0017607e-05
-1.4695215e-06
-2.3957387e-05
-1.890022e-06
-2.8660071e-05
-2.4067347e-06
-3.4266617e-05
-3.0570033e-06
-4.093822e-05
-3.8609314e-06
-4.8859506e-05
-4.8391676e-06
-5.8247759e-05
-6.0523618e-06
-6.9339301e-05
-7.6285764e-06
-8.2357772e-05
-9.7285161e-06
-9.7502179e-05
-1.2539696e-05
-0.00011497569
-1.635927e-05
-0.00013499215
-2.1599411e-05
-0.00015770819
-2.8709503e-05
-0.00018319315
-3.8437517e-05
-0.0002112583
-5.0400507e-05
-0.00024195273
-6.5904369e-05
-0.00027513913
-8.2908473e-05
-0.00031116241
-9.8046483e-05
-0.0003538657
-0.00011632832
-0.0004064873
-0.00014754857
-0.00046313912
-0.00019420598
-0.00051305772
-0.00025321037
-0.00055245514
-0.000320243
-0.00058637524
-0.00039244254
-0.0006243372
-0.00047831637
-0.00066572176
-0.00057366137
-0.00070923947
-0.00068262572
-0.00075944365
-0.00081429057
-0.00081348566
-0.00096386719
-0.00087255882
-0.001134253
-0.00095380326
-0.0013218974
-0.001067433
-0.0015196341
-0.0011981306
-0.001716949
-0.0013507751
-0.0018605282
-0.0015542
-0.0019502664
-0.0018292596
-0.0020276616
-0.002164521
-0.0018822891
-0.002504359
-0.0012787289
-0.0027381802
-0.00024707641
-0.0026750431
-0.0013529353
8.7818554e-06
-3.9707637e-06
8.7889391e-06
-4.7446349e-06
8.7884281e-06
-5.6846526e-06
8.7663958e-06
-6.81079e-06
8.7210056e-06
-8.1596543e-06
8.6444621e-06
-9.7749525e-06
8.5309548e-06
-1.1708717e-05
8.3795642e-06
-1.402301e-05
8.1796332e-06
-1.6791514e-05
7.9339711e-06
-2.0101451e-05
7.6275351e-06
-2.4055956e-05
7.2567298e-06
-2.8775325e-05
6.808413e-06
-3.440058e-05
6.2580615e-06
-4.1092983e-05
5.5965943e-06
-4.9037225e-05
4.8057749e-06
-5.8450729e-05
3.8184937e-06
-6.9568925e-05
2.505542e-06
-8.2612533e-05
7.1302124e-07
-9.7770458e-05
-1.7325973e-06
-0.00011523327
-5.1169275e-06
-0.00013519951
-9.8414271e-06
-0.0001578043
-1.6369503e-05
-0.00018308544
-2.543502e-05
-0.00021082034
-3.6713199e-05
-0.00024101278
-5.1402889e-05
-0.00027346374
-6.6980833e-05
-0.00030870365
-8.0292298e-05
-0.00035092287
-9.7109289e-05
-0.00040293918
-0.00012679542
-0.00045811295
-0.00017207748
-0.00050513083
-0.0002292055
-0.0005401558
-0.00029429428
-0.00056858446
-0.00036536175
-0.00059922805
-0.00044977015
-0.00063130362
-0.00054429681
-0.00066330213
-0.00065212016
-0.00069971583
-0.00078282701
-0.00073707414
-0.00093107629
-0.00077641802
-0.0011004829
-0.00083437395
-0.0012866859
-0.00092089931
-0.0014844656
-0.0010254107
-0.0016812104
-0.0011561831
-0.0018302366
-0.0013422055
-0.0019281909
-0.0016071713
-0.0020058646
-0.0019366747
-0.0018713633
-0.0022834612
-0.0012769498
-0.0025763176
-0.00023610546
-0.0026163433
-0.0013504771
1.6677507e-05
-3.9996834e-06
1.6706733e-05
-4.7792684e-06
1.6733639e-05
-5.7260681e-06
1.6742396e-05
-6.8602548e-06
1.672911e-05
-8.2186457e-06
1.6686833e-05
-9.8452709e-06
1.6613145e-05
-1.1792636e-05
1.6509075e-05
-1.4123288e-05
1.6368163e-05
-1.6911385e-05
1.6195441e-05
-2.0244926e-05
1.5978643e-05
-2.4227627e-05
1.5716843e-05
-2.8980578e-05
1.5397657e-05
-3.4645453e-05
1.500117e-05
-4.1384222e-05
1.4519905e-05
-4.9381972e-05
1.3936229e-05
-5.8856362e-05
1.318398e-05
-7.004382e-05
1.2137891e-05
-8.3161987e-05
1.0655511e-05
-9.839348e-05
8.5723892e-06
-0.00011591794
5.6128145e-06
-0.00013592013
1.385241e-06
-0.00015851507
-4.5820024e-06
-0.00018371028
-1.3002636e-05
-0.00021125216
-2.3643983e-05
-0.00024108747
-3.7584269e-05
-0.0002729731
-5.1788897e-05
-0.00030769698
-6.33903e-05
-0.00034977136
-7.8856705e-05
-0.00040150813
-0.00010709159
-0.00045553802
-0.0001510226
-0.00050004444
-0.0002062923
-0.00053117284
-0.00026949471
-0.00055466421
-0.00033942656
-0.00057849511
-0.00042239476
-0.00060170902
-0.00051603183
-0.00062264162
-0.00062265964
-0.00064571851
-0.000752389
-0.00066682624
-0.00089933696
-0.0006868023
-0.0010675984
-0.00072195496
-0.0012520969
-0.00078219352
-0.0014497703
-0.00086098
-0.0016459686
-0.00096962637
-0.0018001671
-0.0011373571
-0.0019059303
-0.0013902775
-0.0019850425
-0.0017126461
-0.0018607067
-0.0020642247
-0.0012758105
-0.0024112301
-0.00022650882
-0.0025540558
-0.0013476367
2.4017433e-05
-4.0408136e-06
2.402255e-05
-4.8280492e-06
2.4016659e-05
-5.783984e-06
2.3999842e-05
-6.9290779e-06
2.3977412e-05
-8.300608e-06
2.39496e-05
-9.9431096e-06
2.391709e-05
-1.190982e-05
2.3881066e-05
-1.4264014e-05
2.3835475e-05
-1.7080916e-05
2.3781618e-05
-2.0449298e-05
2.3705486e-05
-2.4474346e-05
2.3601455e-05
-2.9277995e-05
2.3453101e-05
-3.5003229e-05
2.3237195e-05
-4.1812893e-05
2.2945783e-05
-4.9892554e-05
2.2559773e-05
-5.9460714e-05
2.2032704e-05
-7.0755726e-05
2.1258858e-05
-8.3996709e-05
2.0091116e-05
-9.9359419e-05
1.8369138e-05
-0.00011701426
1.5824686e-05
-0.00013713424
1.2080232e-05
-0.00015981895
6.655325e-06
-0.00018504451
-1.1243124e-06
-0.00021253431
-1.1152192e-05
-0.00024217306
-2.4373236e-05
-0.00027366926
-3.7262728e-05
-0.00030815039
-4.72923e-05
-0.0003503947
-6.1502326e-05
-0.00040211774
-8.8356067e-05
-0.00045529988
-0.0001309564
-0.00049765183
-0.00018439131
-0.00052533283
-0.0002457519
-0.00054438717
-0.00031453684
-0.00056188124
-0.00039608081
-0.00057665947
-0.00048876132
-0.00058696459
-0.00059414159
-0.00059716571
-0.00072286823
-0.00060245854
-0.00086852873
-0.00060341805
-0.0010355325
-0.00061624834
-0.0012181542
-0.00065102918
-0.0014155912
-0.00070450486
-0.0016112612
-0.00079069152
-0.0017703429
-0.00093920321
-0.0018835093
-0.0011782857
-0.0019649388
-0.0014920042
-0.0018501778
-0.0018464682
-0.001275148
-0.0022435025
-0.0002181748
-0.0024886237
-0.0013444034
3.0889336e-05
-4.0942386e-06
3.0916475e-05
-4.8923827e-06
3.0939874e-05
-5.8618278e-06
3.0960452e-05
-7.0232562e-06
3.0983928e-05
-8.4142869e-06
3.1010432e-05
-1.00803e-05
3.1040746e-05
-1.207484e-05
3.1075931e-05
-1.446218e-05
3.111077e-05
-1.7318351e-05
3.1148178e-05
-2.0733421e-05
3.1173535e-05
-2.4813542e-05
3.1183535e-05
-2.9682636e-05
3.1156217e-05
-3.5484901e-05
3.1071322e-05
-4.2384694e-05
3.091192e-05
-5.0568258e-05
3.0689076e-05
-6.0257788e-05
3.0382844e-05
-7.1698528e-05
2.9875853e-05
-8.5108156e-05
2.9023559e-05
-0.00010065688
2.7658792e-05
-0.00011850909
2.551911e-05
-0.00013882637
2.224952e-05
-0.00016169771
1.7351825e-05
-0.00018706789
1.022028e-05
-0.00021464586
8.155964e-07
-0.00024424869
-1.1686487e-05
-0.00027552543
-2.3324906e-05
-0.00031001046
-3.1940587e-05
-0.00035271555
-4.4987751e-05
-0.00040469038
-7.0524083e-05
-0.00045732093
-0.00011181288
-0.00049787063
-0.00016343932
-0.00052253829
-0.00022299729
-0.00053766143
-0.00029062134
-0.0005493004
-0.00037075499
-0.00055608188
-0.00046241762
-0.00055621565
-0.00056649958
-0.00055402271
-0.00069419287
-0.00054396919
-0.00083857557
-0.00052630942
-0.0010042422
-0.00051732217
-0.0011848848
-0.0005274373
-0.0013819735
-0.00055607362
-0.0015771283
-0.00061960443
-0.0017407988
-0.00074810684
-0.0018609391
-0.00097164391
-0.0019453595
-0.0012751493
-0.0018396696
-0.0016304525
-0.0012748535
-0.0020734405
-0.00021098247
-0.0024200409
-0.0013406408
3.7318149e-05
-4.1591243e-06
3.7409527e-05
-4.9701948e-06
3.752039e-05
-5.9555043e-06
3.7639368e-05
-7.1363385e-06
3.7765113e-05
-8.5510834e-06
3.7889237e-05
-1.0245654e-05
3.8010705e-05
-1.2274751e-05
3.8127148e-05
-1.4703482e-05
3.8235188e-05
-1.7609018e-05
3.833619e-05
-2.1082832e-05
3.8420425e-05
-2.5232231e-05
3.8486599e-05
-3.0182622e-05
3.8518307e-05
-3.607962e-05
3.8498227e-05
-4.3088549e-05
3.8438997e-05
-5.1400292e-05
3.838901e-05
-6.1245401e-05
3.8320018e-05
-7.2872717e-05
3.8074396e-05
-8.6496497e-05
3.7496028e-05
-0.00010228028
3.6455902e-05
-0.00012038739
3.4702956e-05
-0.00014097588
3.1899514e-05
-0.00016412765
2.7521094e-05
-0.00018975449
2.1047705e-05
-0.00021756403
1.2275309e-05
-0.00024729686
5.0768558e-07
-0.0002785512
-9.9351198e-06
-0.0003133011
-1.7286545e-05
-0.00035671547
-2.9260099e-05
-0.00040915784
-5.3535792e-05
-0.00046150149
-9.3530385e-05
-0.00050057693
-0.0001433777
-0.00052264232
-0.00020116428
-0.00053429957
-0.00026761265
-0.00054054119
-0.00034634414
-0.0005397497
-0.00043693209
-0.00053015645
-0.00053966547
-0.00051606029
-0.00066628894
-0.00049113757
-0.00080939758
-0.00045525263
-0.00097367394
-0.00042494825
-0.0011522784
-0.00041116105
-0.0013489211
-0.00041537238
-0.0015435637
-0.00045601843
-0.0017115307
-0.00056373395
-0.0018382426
-0.00077019322
-0.0019261701
-0.001061904
-0.0018291276
-0.0014162182
-0.0012748345
-0.0019016119
-0.00020484212
-0.0023487264
-0.0013363897
4.3373558e-05
-4.2361187e-06
4.3591248e-05
-5.0641596e-06
4.3829691e-05
-6.0703025e-06
4.4057099e-05
-7.275931e-06
4.4267482e-05
-8.7196664e-06
4.4459702e-05
-1.0448388e-05
4.4633173e-05
-1.2517618e-05
4.4791029e-05
-1.4993466e-05
4.4934509e-05
-1.7954852e-05
4.5067062e-05
-2.1494534e-05
4.5186998e-05
-2.572221e-05
4.5294976e-05
-3.076551e-05
4.5385267e-05
-3.6772659e-05
4.545819e-05
-4.3913045e-05
4.5568602e-05
-5.2386011e-05
4.5761647e-05
-6.2427539e-05
4.5946419e-05
-7.4283551e-05
4.5927558e-05
-8.8159618e-05
4.556093e-05
-0.00010422133
4.4783645e-05
-0.00012263921
4.3387498e-05
-0.00014357143
4.1033671e-05
-0.00016709418
3.716839e-05
-0.00019308464
3.1364344e-05
-0.00022126152
2.3223711e-05
-0.0002512903
1.2214126e-05
-0.000282712
2.9240988e-06
-0.00031796358
-3.3054121e-06
-0.00036232174
-1.4281942e-05
-0.00041544819
-3.7347384e-05
-0.00046777
-7.6065228e-05
-0.00050569523
-0.00012416233
-0.00052555922
-0.00018020589
-0.00053422411
-0.00024546488
-0.00053552913
-0.00032280155
-0.00052759477
-0.00041226071
-0.00050873495
-0.00051359532
-0.00048324421
-0.00063910961
-0.00044396315
-0.00078093852
-0.00039029829
-0.00094378568
-0.00033920597
-0.0011203178
-0.00030227601
-0.0013164253
-0.00028255951
-0.0015105472
-0.00030024319
-0.0016825301
-0.00038653736
-0.0018154255
-0.00057446132
-0.0019072361
-0.00085276317
-0.0018184811
-0.0012040323
-0.0012749915
-0.001728172
-0.0001996774
-0.0022745173
-0.0013314149
4.8879581e-05
-4.3223586e-06
4.909199e-05
-5.1651319e-06
4.9324071e-05
-6.1889047e-06
4.9553344e-05
-7.4157817e-06
4.9777014e-05
-8.8860529e-06
5.000171e-05
-1.064756e-05
5.0223856e-05
-1.2757531e-05
5.0450743e-05
-1.5284302e-05
5.0678129e-05
-1.8308009e-05
5.0911438e-05
-2.1924491e-05
5.1148323e-05
-2.6245157e-05
5.1391876e-05
-3.1400918e-05
5.1644014e-05
-3.7543254e-05
5.1935462e-05
-4.4847751e-05
5.231911e-05
-5.352042e-05
5.2797945e-05
-6.3796361e-05
5.3236019e-05
-7.5914243e-05
5.3400084e-05
-9.0077027e-05
5.3206148e-05
-0.00010645839
5.2664662e-05
-0.00012524576
5.1602783e-05
-0.00014659974
4.9674547e-05
-0.00017058319
4.6308127e-05
-0.00019704172
4.1165783e-05
-0.00022570995
3.3642411e-05
-0.00025617556
2.3412544e-05
-0.00028795897
1.5237765e-05
-0.00032395415
1.0017503e-05
-0.0003694683
-1.9793234e-08
-0.00042347525
-2.1918886e-05
-0.00047601647
-5.9376855e-05
-0.00051309116
-0.00010575525
-0.00053112393
-0.00016008262
-0.00053721424
-0.00022414016
-0.00053401079
-0.00030008843
-0.00051934151
-0.00038837078
-0.00049165338
-0.00048825748
-0.0004552723
-0.00061262
-0.0004021418
-0.00075316275
-0.00033112334
-0.00091455966
-0.00025973841
-0.0010890209
-0.00020033298
-0.0012845141
-0.0001570604
-0.0014781024
-0.00015161998
-0.0016538163
-0.00021585207
-0.0017925148
-0.00038396125
-0.0018884658
-0.00064736118
-0.0018076623
-0.00099395229
-0.0012752075
-0.0015537076
-0.00019542315
-0.0021978283
-0.001325774
5.3883236e-05
-4.4200855e-06
5.3995923e-05
-5.2819102e-06
5.4134802e-05
-6.3286514e-06
5.4302929e-05
-7.5831157e-06
5.4502409e-05
-9.0859787e-06
5.4737607e-05
-1.0886565e-05
5.5005643e-05
-1.304336e-05
5.5310268e-05
-1.5625979e-05
5.5647068e-05
-1.8717698e-05
5.6016657e-05
-2.2415966e-05
5.6419981e-05
-2.6836597e-05
5.6858308e-05
-3.2114408e-05
5.7346377e-05
-3.8406834e-05
5.7911313e-05
-4.5896271e-05
5.8590172e-05
-5.4791919e-05
5.9347342e-05
-6.5327274e-05
6.0009184e-05
-7.7733246e-05
6.0361788e-05
-9.2214214e-05
6.0376723e-05
-0.00010896853
6.0096972e-05
-0.00012819661
5.9368086e-05
-0.00015005125
5.7846175e-05
-0.00017458283
5.495836e-05
-0.00020160897
5.0444806e-05
-0.00023088115
4.352069e-05
-0.00026191597
3.4095765e-05
-0.00029424159
2.7004666e-05
-0.00033120437
2.2707284e-05
-0.00037808575
1.3557161e-05
-0.00043317502
-7.2163055e-06
-0.00048617633
-4.3433305e-05
-0.00052269335
-8.812915e-05
-0.00053925124
-0.00014077191
-0.00054318345
-0.0002036186
-0.00053589301
-0.00027818851
-0.00051489355
-0.00036524682
-0.00047882572
-0.00046363211
-0.00043208918
-0.00058680218
-0.00036565628
-0.00072605036
-0.00027775837
-0.00088598812
-0.00018660651
-0.0010584082
-0.00010540822
-0.0012532185
-3.9041774e-05
-0.0014462546
-1.0462768e-05
-0.0016254158
-5.2133244e-05
-0.0017695261
-0.00019922875
-0.0018697996
-0.00044623851
-0.0017966328
-0.00078632595
-0.0012753915
-0.0013784275
-0.00019197601
-0.0021186191
-0.0013193161
5.8610351e-05
-4.5280988e-06
5.8729351e-05
-5.4111393e-06
5.8871772e-05
-6.4837314e-06
5.9041433e-05
-7.7689407e-06
5.9242357e-05
-9.3087869e-06
5.9480174e-05
-1.1153795e-05
5.9757859e-05
-1.3363635e-05
6.0081753e-05
-1.601e-05
6.0455896e-05
-1.9178038e-05
6.0885363e-05
-2.2967847e-05
6.1381329e-05
-2.7499084e-05
6.1951376e-05
-3.2910557e-05
6.2615935e-05
-3.9365708e-05
6.3397671e-05
-4.705425e-05
6.4309862e-05
-5.6189873e-05
6.5292378e-05
-6.7002005e-05
6.6162341e-05
-7.9720045e-05
6.6755004e-05
-9.4563475e-05
6.7054481e-05
-0.00011174969
6.7078611e-05
-0.00013148496
6.6691894e-05
-0.00015391584
6.5565775e-05
-0.00017907973
6.3136619e-05
-0.00020677073
5.9201291e-05
-0.00023674525
5.2847994e-05
-0.00026844965
4.4248244e-05
-0.00030148601
3.8222887e-05
-0.00033965222
3.4785923e-05
-0.00038810963
2.6477337e-05
-0.00044446608
6.7907914e-06
-0.00049814766
-2.8211123e-05
-0.00053437228
-7.1268285e-05
-0.00054977256
-0.00012226076
-0.00055190788
-0.00018389257
-0.0005409164
-0.0002570957
-0.00051396509
-0.00034288011
-0.0004699476
-0.00043970225
-0.00041339409
-0.00056162974
-0.00033422855
-0.00069957133
-0.00022992954
-0.00085803593
-0.00011952613
-0.0010284448
-1.7169209e-05
-0.0012225198
7.1933025e-05
-0.0014149791
0.00012373001
-0.0015973097
0.00010508807
-0.0017464662
-1.9969429e-05
-0.0018511743
-0.00024924208
-0.0017853694
-0.00058134285
-0.0012754957
-0.001202916
-0.00018927542
-0.0020373207
-0.0013121348
6.2977658e-05
-4.6460837e-06
6.3108641e-05
-5.5524156e-06
6.3264609e-05
-6.6530714e-06
6.3450105e-05
-7.9720675e-06
6.3669559e-05
-9.5524342e-06
6.3929051e-05
-1.1446058e-05
6.4233456e-05
-1.3714152e-05
6.4590366e-05
-1.6430891e-05
6.5007064e-05
-1.9682941e-05
6.549322e-05
-2.357437e-05
6.6064333e-05
-2.8227443e-05
6.673577e-05
-3.3786143e-05
6.7525643e-05
-4.0419335e-05
6.84586e-05
-4.8322942e-05
6.9534472e-05
-5.7713523e-05
7.0684506e-05
-6.8822691e-05
7.1765071e-05
-8.1884358e-05
7.263882e-05
-9.713233e-05
7.3262416e-05
-0.00011480157
7.3622697e-05
-0.00013510644
7.358782e-05
-0.00015818425
7.2850708e-05
-0.00018406008
7.0861568e-05
-0.00021250475
6.7447948e-05
-0.00024327156
6.1621376e-05
-0.00027574351
5.3860104e-05
-0.00030964337
4.8894543e-05
-0.00034923241
4.6270672e-05
-0.00039947668
3.8766503e-05
-0.00045728539
2.012502e-05
-0.00051185968
-1.369429e-05
-0.00054804283
-5.515499e-05
-0.00056259827
-0.00010452987
-0.00056331543
-0.00016494456
-0.00054901216
-0.00023679189
-0.00051648835
-0.00032126551
-0.00046494724
-0.00041646119
-0.00039911655
-0.00053707878
-0.00030783445
-0.00067369828
-0.00018768129
-0.00083066401
-5.8594043e-05
-0.00099908639
6.4225589e-05
-0.0011923918
0.00017559114
-0.00138424
0.00025053982
-0.0015694778
0.00025525994
-0.0017233297
0.00015319404
-0.0018325472
-5.6946816e-05
-0.0017738725
-0.00037922571
-0.001275456
-0.0010271701
-0.00018727099
-0.0019537085
-0.0013039796
6.6998138e-05
-4.7739226e-06
6.7141206e-05
-5.7054277e-06
6.7311867e-05
-6.8365441e-06
6.7514789e-05
-8.1919738e-06
6.7755861e-05
-9.8164688e-06
6.8041323e-05
-1.1762626e-05
6.837855e-05
-1.4094398e-05
6.8775656e-05
-1.6887239e-05
6.9243663e-05
-2.0231258e-05
6.979435e-05
-2.4233157e-05
7.0444415e-05
-2.901925e-05
7.1212111e-05
-3.4738428e-05
7.2112589e-05
-4.1565501e-05
7.315904e-05
-4.9701036e-05
7.4350889e-05
-5.9366175e-05
7.56408e-05
-7.0795679e-05
7.6919916e-05
-8.4231296e-05
7.8071666e-05
-9.992225e-05
7.9029564e-05
-0.00011812299
7.9736118e-05
-0.00013905337
8.0056037e-05
-0.00016284282
7.9698097e-05
-0.00018950264
7.8137482e-05
-0.00021878624
7.5206813e-05
-0.00025043539
6.9847224e-05
-0.00028374106
6.2915394e-05
-0.00031862571
5.9006833e-05
-0.00035985184
5.716032e-05
-0.00041208134
5.0428402e-05
-0.00047151376
3.2790087e-05
-0.00052716896
1.2838522e-07
-0.00056354215
-3.9769145e-05
-0.00057753956
-8.7554573e-05
-0.00057716485
-0.00014675139
-0.00055990261
-0.00021725527
-0.00052215599
-0.00030039132
-0.00046348633
-0.00039391231
-0.00038888821
-0.00051315613
-0.0002860591
-0.00064842825
-0.00015057041
-0.00080386558
-3.3436035e-06
-0.00097033153
0.00013933924
-0.00116285
0.00027266275
-0.0013540502
0.0003708132
-0.0015419312
0.00039922356
-0.0017001438
0.0003209428
-0.0018138924
0.00013109499
-0.0017621085
-0.00018010722
-0.0012752029
-0.00085184289
-0.00018593344
-0.0018682531
-0.0012949506
7.0692404e-05
-4.9113177e-06
7.0847105e-05
-5.8696366e-06
7.1032223e-05
-7.0335281e-06
7.1252829e-05
-8.4282066e-06
7.1515815e-05
-1.0099816e-05
7.1828493e-05
-1.2102648e-05
7.2200079e-05
-1.4502681e-05
7.2640283e-05
-1.7377489e-05
7.3162213e-05
-2.0820452e-05
7.3779756e-05
-2.4941609e-05
7.4508744e-05
-2.9871367e-05
7.5367896e-05
-3.5763439e-05
7.6367413e-05
-4.2798742e-05
7.7511991e-05
-5.1182442e-05
7.880402e-05
-6.114101e-05
8.0218681e-05
-7.2915171e-05
8.1683412e-05
-8.6756355e-05
8.3101792e-05
-0.00010292947
8.438375e-05
-0.00012170746
8.543196e-05
-0.00014331503
8.610608e-05
-0.00016787777
8.6116548e-05
-0.00019539256
8.4977324e-05
-0.000225596
8.2502381e-05
-0.00025820784
7.754248e-05
-0.00029240707
7.1414134e-05
-0.00032838487
6.8561544e-05
-0.00037144499
6.7460369e-05
-0.00042585458
6.1468492e-05
-0.00048707771
4.4802485e-05
-0.00054400588
1.3283618e-05
-0.0005808041
-2.5081353e-05
-0.00059453105
-7.1306689e-05
-0.00059340038
-0.00012928814
-0.00057352746
-0.00019846647
-0.0005308976
-0.00028023647
-0.00046550142
-0.00037205174
-0.00038265974
-0.00048987144
-0.0002688695
-0.00062376237
-0.00011860695
-0.00077763709
4.6143679e-05
-0.00094218419
0.00020801315
-0.0011339116
0.00036287089
-0.0013244274
0.00048414071
-0.0015146953
0.00053644147
-0.0016769306
0.00048266651
-0.0017951891
0.00031429574
-0.0017500626
1.5770365e-05
-0.0012746614
-0.00067696144
-0.00018516516
-0.0017808922
-0.0012849185
7.4076227e-05
-5.0578696e-06
7.4242441e-05
-6.0448827e-06
7.4441842e-05
-7.2437062e-06
7.4680093e-05
-8.6805374e-06
7.496513e-05
-1.0402399e-05
7.5305073e-05
-1.2465964e-05
7.5710944e-05
-1.4938861e-05
7.6193777e-05
-1.7901336e-05
7.6766981e-05
-2.144993e-05
7.7445645e-05
-2.5698126e-05
7.8244366e-05
-3.0780456e-05
7.9182256e-05
-3.6856745e-05
8.0263977e-05
-4.411195e-05
8.1494902e-05
-5.2757604e-05
8.2878967e-05
-6.3026936e-05
8.4416535e-05
-7.51689e-05
8.6070601e-05
-8.9447283e-05
8.774794e-05
-0.00010614371
8.9338172e-05
-0.00012554332
9.0720759e-05
-0.00014787633
9.1748273e-05
-0.00017327245
9.2116657e-05
-0.00020170791
9.1396584e-05
-0.00023291561
8.9340941e-05
-0.00026657127
8.4731715e-05
-0.0003017084
7.9390586e-05
-0.00033888865
7.7565027e-05
-0.00038396089
7.7176614e-05
-0.00044070035
7.1904021e-05
-0.00050386978
5.6189807e-05
-0.00056225658
2.5799531e-05
-0.00059969692
-1.1064421e-05
-0.0006134099
-5.5759267e-05
-0.00061181373
-0.00011253425
-0.00058964213
-0.00018040753
-0.0005424336
-0.00026078248
-0.0004706834
-0.00035085838
-0.00038011636
-0.00046721968
-0.0002559321
-0.00059969172
-9.1414349e-05
-0.00075195393
9.0260325e-05
-0.00091461365
0.00027068895
-0.0011055534
0.0004467879
-0.0012953363
0.00059116206
-0.0014877424
0.00066751031