/*--------------------------------*- C++ -*----------------------------------*\
  =========                 |
  \\      /  F ield         | OpenFOAM: The Open Source CFD Toolbox
   \\    /   O peration     | Website:  https://openfoam.org
    \\  /    A nd           | Version:  8
     \\/     M anipulation  |
\*---------------------------------------------------------------------------*/
FoamFile
{
    version     2.0;
    format      ascii;
    class       volScalarField;
    location    "0.210011";
    object      nut;
}
// * * * * * * * * * * * * * * * * * * * * * * * * * * * * * * * * * * * * * //

dimensions      [0 2 -1 0 0 0 0];

internalField   nonuniform List<scalar> 
20000
(
0.0011120881
0.0025263431
0.003141565
0.0030716612
0.0022014596
0.00050203579
1.4192131e-07
5.7991941e-09
5.3939976e-09
5.3735029e-09
5.255359e-09
5.2820674e-09
5.2089676e-09
5.2436235e-09
5.2408476e-09
5.2735461e-09
5.2956168e-09
5.3385742e-09
5.3838293e-09
5.4452768e-09
5.5151899e-09
5.6015336e-09
5.7041477e-09
5.8223182e-09
5.9556548e-09
6.1031495e-09
6.2628742e-09
6.4308476e-09
6.6003947e-09
6.7647551e-09
6.9169962e-09
7.0519636e-09
7.1665944e-09
7.2601539e-09
7.3327084e-09
7.3864932e-09
7.4288265e-09
7.4565863e-09
7.4697709e-09
7.4730569e-09
7.4714369e-09
7.4640786e-09
7.4521797e-09
7.4376736e-09
7.4294943e-09
7.4213787e-09
7.3883268e-09
7.3516314e-09
7.3159217e-09
7.2848631e-09
0.0010975318
0.0024664756
0.0030407262
0.0029327203
0.001991129
0.00038989832
5.0703176e-08
5.7350491e-09
5.3591352e-09
5.3423509e-09
5.2272402e-09
5.2555722e-09
5.183325e-09
5.2188619e-09
5.217121e-09
5.2508702e-09
5.27421e-09
5.3182376e-09
5.3646392e-09
5.4274989e-09
5.50019e-09
5.591473e-09
5.698245e-09
5.821095e-09
5.9563953e-09
6.1080549e-09
6.2713207e-09
6.4421245e-09
6.61346e-09
6.7783515e-09
6.9299853e-09
7.0634757e-09
7.1762284e-09
7.2677661e-09
7.3381964e-09
7.391034e-09
7.4331266e-09
7.4588321e-09
7.4706402e-09
7.4737275e-09
7.4718475e-09
7.4641253e-09
7.4504337e-09
7.4364642e-09
7.4283985e-09
7.4191111e-09
7.3874271e-09
7.3528705e-09
7.3215891e-09
7.2839546e-09
0.0010877334
0.0024144172
0.0029407051
0.0027898804
0.0017708108
0.00028268121
2.2081868e-08
5.6850797e-09
5.3285567e-09
5.3141335e-09
5.2024308e-09
5.2318599e-09
5.1605445e-09
5.1966336e-09
5.1961063e-09
5.2307222e-09
5.2551151e-09
5.300022e-09
5.3479337e-09
5.4134252e-09
5.4916657e-09
5.5879498e-09
5.6977113e-09
5.8215277e-09
5.9612038e-09
6.1165073e-09
6.2834618e-09
6.4570301e-09
6.6299581e-09
6.7950722e-09
6.9457048e-09
7.0772891e-09
7.1877323e-09
7.2768047e-09
7.3447728e-09
7.3968082e-09
7.4380087e-09
7.4618074e-09
7.4720201e-09
7.4748071e-09
7.4726564e-09
7.464264e-09
7.4493759e-09
7.4345474e-09
7.4274993e-09
7.4163153e-09
7.3830045e-09
7.3502833e-09
7.3196671e-09
7.2895695e-09
0.0010775684
0.0023629473
0.0028436372
0.0026449695
0.0015562263
0.00019088254
1.2503085e-08
5.6416859e-09
5.2998405e-09
5.288208e-09
5.1799679e-09
5.2107239e-09
5.1404758e-09
5.1772309e-09
5.1778149e-09
5.2131826e-09
5.2387296e-09
5.285089e-09
5.3359716e-09
5.406679e-09
5.4886089e-09
5.5871045e-09
5.6978779e-09
5.8262337e-09
5.970155e-09
6.1297372e-09
6.3003508e-09
6.4765286e-09
6.650698e-09
6.8155553e-09
6.9646264e-09
7.0937468e-09
7.2013527e-09
7.2874312e-09
7.3526107e-09
7.4038447e-09
7.4430691e-09
7.464775e-09
7.4737456e-09
7.4761876e-09
7.473485e-09
7.4643975e-09
7.4491615e-09
7.4338058e-09
7.4262016e-09
7.4138214e-09
7.3807103e-09
7.3480976e-09
7.3198441e-09
7.3034245e-09
0.0010676132
0.0023127028
0.0027508862
0.0025040465
0.0013492472
0.00011166356
8.7679199e-09
5.6047193e-09
5.2746672e-09
5.2656473e-09
5.1606175e-09
5.1926518e-09
5.1234529e-09
5.1607723e-09
5.1624505e-09
5.1987194e-09
5.226221e-09
5.276129e-09
5.3312133e-09
5.4042455e-09
5.4880694e-09
5.5879228e-09
5.7028402e-09
5.8351264e-09
5.9836688e-09
6.1474615e-09
6.3216946e-09
6.5002654e-09
6.6752933e-09
6.8393972e-09
6.9863649e-09
7.1125024e-09
7.2167867e-09
7.2993929e-09
7.361517e-09
7.4118056e-09
7.4484974e-09
7.4679803e-09
7.4756463e-09
7.4778245e-09
7.4744654e-09
7.4646512e-09
7.4491315e-09
7.4338751e-09
7.4247277e-09
7.4108832e-09
7.3770492e-09
7.3440989e-09
7.3181244e-09
7.3053193e-09
0.0010575974
0.0022634855
0.0026588362
0.0023637939
0.0011523185
5.1115627e-05
7.1483256e-09
5.5720528e-09
5.2525907e-09
5.2463228e-09
5.1441047e-09
5.1775374e-09
5.1096022e-09
5.1475921e-09
5.1507725e-09
5.1892044e-09
5.2201807e-09
5.2726826e-09
5.3296992e-09
5.4039907e-09
5.4895808e-09
5.5931879e-09
5.7117887e-09
5.8486778e-09
6.0018732e-09
6.1700275e-09
6.3477707e-09
6.5284525e-09
6.7038834e-09
6.8666743e-09
7.0109526e-09
7.1335651e-09
7.2340247e-09
7.3126887e-09
7.37157e-09
7.4205752e-09
7.4542344e-09
7.4712953e-09
7.4778166e-09
7.4796434e-09
7.475505e-09
7.4649417e-09
7.4491482e-09
7.4340087e-09
7.4230129e-09
7.4071178e-09
7.3730879e-09
7.3394333e-09
7.3163501e-09
7.29741e-09
0.0010476278
0.002214763
0.0025676792
0.002222496
0.00096867903
1.7500601e-05
6.3888381e-09
5.5444093e-09
5.2345009e-09
5.2304851e-09
5.1314875e-09
5.1660803e-09
5.0996783e-09
5.1390067e-09
5.1447944e-09
5.1852653e-09
5.2179887e-09
5.2718158e-09
5.3298192e-09
5.4062291e-09
5.4952898e-09
5.6023955e-09
5.725419e-09
5.8669323e-09
6.0249585e-09
6.1974617e-09
6.3785584e-09
6.5609979e-09
6.7363188e-09
6.8971992e-09
7.0381923e-09
7.1567446e-09
7.2528801e-09
7.3271849e-09
7.3828008e-09
7.4299035e-09
7.4602894e-09
7.4750253e-09
7.4801652e-09
7.4815914e-09
7.4765703e-09
7.4652631e-09
7.4492802e-09
7.434393e-09
7.421198e-09
7.4005201e-09
7.3683503e-09
7.3345931e-09
7.3107765e-09
7.2835949e-09
0.0010378007
0.0021666648
0.0024773485
0.0020794003
0.00080071184
4.8716979e-06
6.0145304e-09
5.5229672e-09
5.2203614e-09
5.2178382e-09
5.1227514e-09
5.1553455e-09
5.0946562e-09
5.1351681e-09
5.1424787e-09
5.1839667e-09
5.2176615e-09
5.272395e-09
5.3330453e-09
5.4123896e-09
5.5048825e-09
5.6160832e-09
5.7436472e-09
5.8900921e-09
6.053048e-09
6.2298939e-09
6.4141179e-09
6.5978902e-09
6.7725247e-09
6.9308567e-09
7.0679547e-09
7.1819085e-09
7.2732105e-09
7.3427938e-09
7.3953029e-09
7.439595e-09
7.4665678e-09
7.4789153e-09
7.4827894e-09
7.4835759e-09
7.47761e-09
7.4655882e-09
7.4492618e-09
7.434764e-09
7.4195809e-09
7.3846183e-09
7.3622716e-09
7.3302392e-09
7.3079467e-09
7.2839712e-09
0.0010281714
0.0021193531
0.0023878346
0.001938441
0.00065005442
1.2733224e-06
5.8337614e-09
5.5038003e-09
5.2126281e-09
5.2073916e-09
5.1127629e-09
5.1436411e-09
5.0926566e-09
5.1336366e-09
5.1419277e-09
5.1838789e-09
5.2194727e-09
5.2766106e-09
5.339903e-09
5.4223799e-09
5.518775e-09
5.6342471e-09
5.7667075e-09
5.9182633e-09
6.0862575e-09
6.2673656e-09
6.4544232e-09
6.6390288e-09
6.8123432e-09
6.9674587e-09
7.1000464e-09
7.2088622e-09
7.2948193e-09
7.3593923e-09
7.408987e-09
7.4495368e-09
7.4729706e-09
7.482936e-09
7.485812e-09
7.48554e-09
7.4786106e-09
7.4656578e-09
7.4491901e-09
7.434824e-09
7.4184109e-09
7.3795186e-09
7.3523468e-09
7.324012e-09
7.3081096e-09
7.2871096e-09
0.001018809
0.0020733857
0.0022988325
0.0017934448
0.00051709253
3.5338005e-07
5.7437942e-09
5.4900925e-09
5.2034243e-09
5.1976599e-09
5.1015822e-09
5.1357868e-09
5.0919164e-09
5.1332378e-09
5.1431593e-09
5.1868467e-09
5.2247279e-09
5.2841825e-09
5.3505837e-09
5.4365028e-09
5.5370164e-09
5.6570999e-09
5.7946966e-09
5.9515792e-09
6.1246723e-09
6.3099098e-09
6.4994297e-09
6.6842949e-09
6.8556032e-09
7.0068096e-09
7.1342661e-09
7.2373978e-09
7.3175152e-09
7.3768914e-09
7.4235816e-09
7.4597096e-09
7.4794564e-09
7.487115e-09
7.4891503e-09
7.4875833e-09
7.4795712e-09
7.4655929e-09
7.4490387e-09
7.4349004e-09
7.4175351e-09
7.3816449e-09
7.3422588e-09
7.3189882e-09
7.3075042e-09
7.2894637e-09
0.0010097546
0.002029497
0.0022125413
0.0016451537
0.00040457529
1.1483465e-07
5.6909949e-09
5.4802971e-09
5.194747e-09
5.1881492e-09
5.0932356e-09
5.1284784e-09
5.0928415e-09
5.1356822e-09
5.1476624e-09
5.193022e-09
5.2334354e-09
5.2955563e-09
5.3652337e-09
5.4548378e-09
5.5597822e-09
5.6847462e-09
5.8277561e-09
5.990139e-09
6.1683544e-09
6.3575172e-09
6.5490473e-09
6.7335268e-09
6.9020958e-09
7.0486782e-09
7.1703744e-09
7.2672707e-09
7.3411095e-09
7.3952623e-09
7.4388134e-09
7.4699947e-09
7.4859962e-09
7.491524e-09
7.492693e-09
7.4895793e-09
7.4804654e-09
7.4655199e-09
7.4487429e-09
7.434899e-09
7.4163213e-09
7.3809496e-09
7.3399234e-09
7.3179036e-09
7.3077387e-09
7.2916923e-09
0.0010009535
0.0019874392
0.0021366641
0.0014931105
0.00030772335
4.5661169e-08
5.6675648e-09
5.4676741e-09
5.1926318e-09
5.1856097e-09
5.090376e-09
5.1259285e-09
5.0969873e-09
5.1413563e-09
5.1555142e-09
5.2027642e-09
5.2458515e-09
5.3107617e-09
5.383982e-09
5.4775395e-09
5.5871889e-09
5.7173297e-09
5.8659983e-09
6.0340344e-09
6.2173376e-09
6.4101441e-09
6.6031486e-09
6.7865296e-09
6.9515828e-09
7.0928031e-09
7.2081005e-09
7.2982206e-09
7.3654513e-09
7.4145512e-09
7.454332e-09
7.4802581e-09
7.4925526e-09
7.496278e-09
7.4963193e-09
7.4916687e-09
7.4812764e-09
7.4653213e-09
7.4482747e-09
7.4346797e-09
7.4144269e-09
7.3790816e-09
7.3371814e-09
7.3172944e-09
7.3093506e-09
7.2936108e-09
0.00099225847
0.0019454173
0.002057464
0.0013369667
0.00022147926
2.2642813e-08
5.6526936e-09
5.4606637e-09
5.195666e-09
5.1877633e-09
5.0944961e-09
5.1306064e-09
5.1048617e-09
5.1505206e-09
5.1669042e-09
5.216101e-09
5.2620248e-09
5.3299397e-09
5.4069291e-09
5.5047066e-09
5.6193563e-09
5.7549588e-09
5.9095266e-09
6.0833332e-09
6.271629e-09
6.4677142e-09
6.6615728e-09
6.843075e-09
7.0037886e-09
7.1388821e-09
7.2471421e-09
7.3299926e-09
7.3904416e-09
7.4347786e-09
7.4697553e-09
7.4903919e-09
7.4991507e-09
7.5014111e-09
7.4999137e-09
7.49373e-09
7.4820733e-09
7.4649362e-09
7.4476146e-09
7.4341115e-09
7.4120624e-09
7.3756783e-09
7.3341133e-09
7.3171006e-09
7.3090604e-09
7.2954036e-09
0.00098379463
0.0019044287
0.0019810823
0.0011811528
0.00014589247
1.3919684e-08
5.6383028e-09
5.4552535e-09
5.1981987e-09
5.1923808e-09
5.10239e-09
5.1398169e-09
5.1162189e-09
5.163057e-09
5.1818065e-09
5.2330972e-09
5.2820471e-09
5.3531632e-09
5.4341822e-09
5.5364587e-09
5.6564003e-09
5.7977499e-09
5.9584329e-09
6.1380836e-09
6.3312032e-09
6.5301109e-09
6.724118e-09
6.9028916e-09
7.0583905e-09
7.1865741e-09
7.2871901e-09
7.3623791e-09
7.4160398e-09
7.4556672e-09
7.4848435e-09
7.5003423e-09
7.505953e-09
7.5067251e-09
7.5034589e-09
7.4957332e-09
7.482912e-09
7.4644249e-09
7.4468087e-09
7.4332771e-09
7.4086201e-09
7.3706424e-09
7.3326516e-09
7.3168341e-09
7.304026e-09
7.2968187e-09
0.0009755379
0.0018640634
0.0019045583
0.0010315766
8.2714594e-05
1.0154654e-08
5.6257479e-09
5.4533593e-09
5.2040277e-09
5.1997429e-09
5.1133749e-09
5.1518657e-09
5.1308364e-09
5.1790112e-09
5.2002681e-09
5.2538114e-09
5.3059774e-09
5.3805183e-09
5.4658263e-09
5.5728886e-09
5.698422e-09
5.8457998e-09
6.0127962e-09
6.1983131e-09
6.3960097e-09
6.5971891e-09
6.7905482e-09
6.9656635e-09
7.1150178e-09
7.2355195e-09
7.3279652e-09
7.3952441e-09
7.4422268e-09
7.4766653e-09
7.4994902e-09
7.5100946e-09
7.5131327e-09
7.5120452e-09
7.5069145e-09
7.4976271e-09
7.4836139e-09
7.4638421e-09
7.4457819e-09
7.4323532e-09
7.401747e-09
7.3638705e-09
7.3312671e-09
7.3156965e-09
7.3024032e-09
7.2991828e-09
0.0009671587
0.0018211296
0.0018274977
0.00089326253
3.8186298e-05
8.3684886e-09
5.6187969e-09
5.4548188e-09
5.2124638e-09
5.2102856e-09
5.127302e-09
5.1672315e-09
5.1488159e-09
5.1984035e-09
5.2223383e-09
5.2782876e-09
5.3338859e-09
5.4120846e-09
5.5019565e-09
5.6141025e-09
5.7455283e-09
5.8992082e-09
6.0726829e-09
6.2640248e-09
6.4659586e-09
6.6687576e-09
6.8605729e-09
7.0310132e-09
7.1732634e-09
7.285387e-09
7.3692626e-09
7.4285102e-09
7.4688908e-09
7.4972239e-09
7.5136047e-09
7.5198475e-09
7.5205864e-09
7.51727e-09
7.5102557e-09
7.4993775e-09
7.4839629e-09
7.4631389e-09
7.4452555e-09
7.4315921e-09
7.3920304e-09
7.3547165e-09
7.3288469e-09
7.3106845e-09
7.3035707e-09
7.3118482e-09
0.00095866428
0.0017766551
0.0017486887
0.00076540769
1.4402164e-05
7.4696854e-09
5.6152289e-09
5.4595568e-09
5.2239706e-09
5.2240152e-09
5.1444838e-09
5.185819e-09
5.170158e-09
5.2212831e-09
5.2480536e-09
5.3066004e-09
5.3658371e-09
5.4479336e-09
5.5426504e-09
5.6601889e-09
5.7978157e-09
5.9580667e-09
6.1381502e-09
6.3352079e-09
6.540939e-09
6.7445947e-09
6.9338553e-09
7.0985178e-09
7.2327349e-09
7.335932e-09
7.4109561e-09
7.462071e-09
7.4956149e-09
7.5169506e-09
7.5272032e-09
7.5298729e-09
7.5280224e-09
7.5223758e-09
7.5134661e-09
7.5009755e-09
7.4841607e-09
7.4627217e-09
7.4453862e-09
7.4311825e-09
7.3926509e-09
7.3513971e-09
7.3252731e-09
7.3091858e-09
7.3047156e-09
7.3182592e-09
0.00094985089
0.0017297556
0.0016667112
0.00064810974
4.7645477e-06
6.9959424e-09
5.6155728e-09
5.4673795e-09
5.2384571e-09
5.2410729e-09
5.1648251e-09
5.2076888e-09
5.1949248e-09
5.2476869e-09
5.2774745e-09
5.3387949e-09
5.4018884e-09
5.4881396e-09
5.5880002e-09
5.7112499e-09
5.8553914e-09
6.0224603e-09
6.2092391e-09
6.411814e-09
6.6207934e-09
6.824411e-09
7.0099847e-09
7.1677285e-09
7.293122e-09
7.3870187e-09
7.4529198e-09
7.4956421e-09
7.5216483e-09
7.535829e-09
7.5406301e-09
7.5399904e-09
7.5353059e-09
7.5273262e-09
7.5165374e-09
7.5024962e-09
7.4842724e-09
7.4628155e-09
7.4456504e-09
7.4308768e-09
7.3921688e-09
7.3493392e-09
7.3235611e-09
7.3110817e-09
7.3057921e-09
7.3092008e-09
0.00094050432
0.001679794
0.0015777897
0.00054169979
1.5211524e-06
6.7384451e-09
5.6194876e-09
5.4783778e-09
5.2560742e-09
5.2612153e-09
5.1884272e-09
5.2328868e-09
5.2231412e-09
5.2776548e-09
5.3106229e-09
5.3749162e-09
5.4420962e-09
5.5327706e-09
5.6380842e-09
5.7673841e-09
5.9183555e-09
6.0924778e-09
6.2859803e-09
6.4937857e-09
6.7053337e-09
6.9078719e-09
7.088509e-09
7.2382484e-09
7.3542609e-09
7.4385388e-09
7.4948453e-09
7.5285957e-09
7.5466083e-09
7.5539551e-09
7.5542223e-09
7.5498653e-09
7.5423755e-09
7.5320836e-09
7.5194496e-09
7.5040861e-09
7.4843575e-09
7.4628998e-09
7.446074e-09
7.4301493e-09
7.3892824e-09
7.3457404e-09
7.3202118e-09
7.3156672e-09
7.3079204e-09
7.2983412e-09
0.00093065371
0.0016271118
0.0014790687
0.00044675513
5.073568e-07
6.5948942e-09
5.6271625e-09
5.4926491e-09
5.2770459e-09
5.2845937e-09
5.2152898e-09
5.2614054e-09
5.2548225e-09
5.3111928e-09
5.3475401e-09
5.4149916e-09
5.486515e-09
5.5819074e-09
5.6930071e-09
5.8287107e-09
5.9868227e-09
6.1681984e-09
6.3683808e-09
6.5810126e-09
6.7942981e-09
6.9945567e-09
7.1689497e-09
7.3097999e-09
7.4160859e-09
7.4901661e-09
7.5360089e-09
7.5604208e-09
7.5705046e-09
7.5718953e-09
7.5674819e-09
7.559468e-09
7.5491824e-09
7.5366134e-09
7.5221432e-09
7.5056778e-09
7.4844048e-09
7.4629869e-09
7.4463312e-09
7.4284e-09
7.3841743e-09
7.3375096e-09
7.3194972e-09
7.3152025e-09
7.3142765e-09
7.3003421e-09
0.00092045032
0.0015728429
0.0013733519
0.00036411034
1.8737322e-07
6.5122137e-09
5.6383418e-09
5.5100298e-09
5.30116e-09
5.3110766e-09
5.2453727e-09
5.2932267e-09
5.2899608e-09
5.3483239e-09
5.3882414e-09
5.4590779e-09
5.5352108e-09
5.6356331e-09
5.7528768e-09
5.8953501e-09
6.0609137e-09
6.2497068e-09
6.4564466e-09
6.6733646e-09
6.8873814e-09
7.0840077e-09
7.2509002e-09
7.3822711e-09
7.4783939e-09
7.5410418e-09
7.575886e-09
7.5909295e-09
7.5938093e-09
7.5894018e-09
7.5802999e-09
7.5687094e-09
7.5556931e-09
7.5408918e-09
7.5245582e-09
7.5066857e-09
7.4843986e-09
7.463228e-09
7.4463369e-09
7.4251687e-09
7.3772185e-09
7.3350848e-09
7.3192997e-09
7.3095598e-09
7.3128565e-09
7.3031974e-09
0.00090982288
0.0015170747
0.0012620695
0.00029393065
7.9542695e-08
6.4642115e-09
5.6529819e-09
5.5304909e-09
5.3282913e-09
5.3406705e-09
5.2786631e-09
5.3283514e-09
5.3285791e-09
5.3890652e-09
5.4327714e-09
5.5072176e-09
5.5882624e-09
5.6940668e-09
5.8178327e-09
5.9674514e-09
6.1407535e-09
6.3370725e-09
6.5501348e-09
6.7706335e-09
6.9841782e-09
7.1757278e-09
7.3340821e-09
7.4555821e-09
7.5403487e-09
7.590533e-09
7.614081e-09
7.6204885e-09
7.6165602e-09
7.6062131e-09
7.5925776e-09
7.5775495e-09
7.5618741e-09
7.5449086e-09
7.526747e-09
7.5070334e-09
7.4843762e-09
7.463534e-09
7.4462566e-09
7.4201899e-09
7.3693639e-09
7.3350756e-09
7.3182087e-09
7.3075779e-09
7.3069944e-09
7.3064115e-09
0.00089884251
0.0014590037
0.0011522718
0.00022663223
3.8759969e-08
6.43639e-09
5.6709358e-09
5.5539699e-09
5.3584447e-09
5.3733445e-09
5.3151718e-09
5.366795e-09
5.3706885e-09
5.4334443e-09
5.4811628e-09
5.559495e-09
5.6457783e-09
5.7573406e-09
5.8880252e-09
6.045168e-09
6.2264775e-09
6.4303674e-09
6.64939e-09
6.8725693e-09
7.0842467e-09
7.2692883e-09
7.4183946e-09
7.5293296e-09
7.6009802e-09
7.6380417e-09
7.6508107e-09
7.6494305e-09
7.6383e-09
7.6222733e-09
7.6042663e-09
7.5859395e-09
7.5676918e-09
7.5486544e-09
7.528869e-09
7.5071548e-09
7.4842317e-09
7.4635944e-09
7.445499e-09
7.4132966e-09
7.3619266e-09
7.3337263e-09
7.3167527e-09
7.3089987e-09
7.3075321e-09
7.3149139e-09
0.00088776781
0.0013985389
0.0010463292
0.00016500828
2.2277694e-08
6.4215311e-09
5.6916611e-09
5.5805011e-09
5.3916231e-09
5.4091529e-09
5.3549181e-09
5.4085697e-09
5.4163101e-09
5.481497e-09
5.5334923e-09
5.6160134e-09
5.7079019e-09
5.8256246e-09
5.9636361e-09
6.1286717e-09
6.3182157e-09
6.5296231e-09
6.7540736e-09
6.9788073e-09
7.1870822e-09
7.3643628e-09
7.5037446e-09
7.6023914e-09
7.6595471e-09
7.683398e-09
7.6868275e-09
7.6770792e-09
7.659032e-09
7.637499e-09
7.6153192e-09
7.593848e-09
7.5731174e-09
7.5521074e-09
7.5309832e-09
7.5071462e-09
7.483947e-09
7.4635809e-09
7.443986e-09
7.4043762e-09
7.3557973e-09
7.3313484e-09
7.3145574e-09
7.3135164e-09
7.3088469e-09
7.3277664e-09
0.00087759719
0.0013451377
0.00094051293
0.00010937586
1.4941593e-08
6.4149965e-09
5.7157749e-09
5.6100694e-09
5.4278968e-09
5.4480548e-09
5.3978934e-09
5.4536636e-09
5.4654783e-09
5.5332987e-09
5.5898776e-09
5.6769312e-09
5.7748031e-09
5.8991019e-09
6.0448532e-09
6.2181413e-09
6.4161059e-09
6.6348659e-09
6.8640146e-09
7.0889432e-09
7.292236e-09
7.4608071e-09
7.5896152e-09
7.6736994e-09
7.7154976e-09
7.7274082e-09
7.7214786e-09
7.7034256e-09
7.6786307e-09
7.6518463e-09
7.6257032e-09
7.6012492e-09
7.5781381e-09
7.5552355e-09
7.5328338e-09
7.5071209e-09
7.4834626e-09
7.4632853e-09
7.441389e-09
7.394408e-09
7.3505786e-09
7.3277601e-09
7.3147804e-09
7.3173685e-09
7.3107248e-09
7.3229463e-09
0.00086759978
0.0012905201
0.00083657832
6.3441727e-05
1.136233e-08
6.4143027e-09
5.7428171e-09
5.6425612e-09
5.4671264e-09
5.4900347e-09
5.444091e-09
5.5021438e-09
5.5183045e-09
5.5890006e-09
5.6504854e-09
5.7424249e-09
5.8466771e-09
5.9779865e-09
6.1318867e-09
6.3137708e-09
6.5202557e-09
6.7460522e-09
6.9789154e-09
7.2024858e-09
7.3993081e-09
7.558526e-09
7.6747304e-09
7.742424e-09
7.7690359e-09
7.7702217e-09
7.7544571e-09
7.7283118e-09
7.6970587e-09
7.665274e-09
7.6353934e-09
7.6081249e-09
7.5827593e-09
7.5580573e-09
7.5338579e-09
7.5068656e-09
7.4827305e-09
7.4624444e-09
7.4373703e-09
7.3847075e-09
7.3452629e-09
7.3231197e-09
7.314926e-09
7.3144778e-09
7.3190025e-09
7.3132207e-09
0.00085797698
0.0012357502
0.00073626949
3.1395244e-05
9.5025301e-09
6.4183363e-09
5.7727795e-09
5.6780814e-09
5.5093621e-09
5.5351571e-09
5.4936358e-09
5.5541592e-09
5.57504e-09
5.6487852e-09
5.7155027e-09
5.8126943e-09
5.9237351e-09
6.0624965e-09
6.2249649e-09
6.4157572e-09
6.6307852e-09
6.8631017e-09
7.0984458e-09
7.3189766e-09
7.5080733e-09
7.6571099e-09
7.7578144e-09
7.8079398e-09
7.8210425e-09
7.8111481e-09
7.7856544e-09
7.7516918e-09
7.7142641e-09
7.677758e-09
7.6443745e-09
7.6144583e-09
7.5869928e-09
7.5606838e-09
7.5343276e-09
7.5063715e-09
7.4817477e-09
7.4608236e-09
7.4318088e-09
7.3760021e-09
7.3389298e-09
7.3189735e-09
7.3138513e-09
7.312405e-09
7.3203685e-09
7.3142343e-09
0.00084883704
0.0011801297
0.00064085128
1.3440764e-05
8.4908111e-09
6.4273358e-09
5.8057236e-09
5.7165445e-09
5.5547413e-09
5.5835818e-09
5.5467399e-09
5.6099251e-09
5.6357146e-09
5.7128371e-09
5.7851135e-09
5.8879399e-09
6.0062062e-09
6.1528797e-09
6.3243263e-09
6.5242816e-09
6.7477413e-09
6.9858142e-09
7.222144e-09
7.4379637e-09
7.6183897e-09
7.7551701e-09
7.8379689e-09
7.8706204e-09
7.8713599e-09
7.8499224e-09
7.8149654e-09
7.7735053e-09
7.7302245e-09
7.6892874e-09
7.6526398e-09
7.6202363e-09
7.5908419e-09
7.5632117e-09
7.5344741e-09
7.5056704e-09
7.4805851e-09
7.4583961e-09
7.4247141e-09
7.3683257e-09
7.3329792e-09
7.3178015e-09
7.3137426e-09
7.3130043e-09
7.3151775e-09
7.3171121e-09
0.00084032576
0.0011241969
0.00055153077
5.2613414e-06
7.9240986e-09
6.4432572e-09
5.8417911e-09
5.7583259e-09
5.6035426e-09
5.6356235e-09
5.6036509e-09
5.6696356e-09
5.7005338e-09
5.7813189e-09
5.8595103e-09
5.9683959e-09
6.094342e-09
6.249407e-09
6.4302262e-09
6.6395463e-09
6.871157e-09
7.113953e-09
7.3495726e-09
7.559132e-09
7.7300392e-09
7.851235e-09
7.914394e-09
7.9313513e-09
7.9193163e-09
7.8864199e-09
7.8423278e-09
7.7937251e-09
7.74493e-09
7.6998636e-09
7.660186e-09
7.6254549e-09
7.5943006e-09
7.5655026e-09
7.5345093e-09
7.5048265e-09
7.4793746e-09
7.4553199e-09
7.4165167e-09
7.3617694e-09
7.3309983e-09
7.3173754e-09
7.3146058e-09
7.3132468e-09
7.3153198e-09
7.326407e-09
0.0008324712
0.0010719998
0.00046879863
2.0009431e-06
7.6011644e-09
6.4644052e-09
5.8814388e-09
5.8037877e-09
5.6560561e-09
5.6914324e-09
5.6644766e-09
5.7333803e-09
5.7696231e-09
5.8544019e-09
5.9389072e-09
6.0543166e-09
6.1884284e-09
6.3523604e-09
6.5429252e-09
6.7616944e-09
7.0009447e-09
7.2471217e-09
7.4802417e-09
7.6822125e-09
7.8417552e-09
7.9442112e-09
7.9873271e-09
7.9900283e-09
7.9645762e-09
7.9205431e-09
7.8677001e-09
7.8123413e-09
7.7583914e-09
7.7094942e-09
7.6670082e-09
7.6301318e-09
7.5973992e-09
7.5669854e-09
7.534504e-09
7.5039258e-09
7.478286e-09
7.4520973e-09
7.407967e-09
7.3571448e-09
7.3292009e-09
7.3173845e-09
7.3184569e-09
7.3145449e-09
7.3164741e-09
7.3355157e-09
0.00082428771
0.0010117109
0.00039264142
7.814331e-07
7.4179509e-09
6.4894067e-09
5.9247342e-09
5.8529242e-09
5.7122508e-09
5.750959e-09
5.7292428e-09
5.8012481e-09
5.8431598e-09
5.9322558e-09
6.0235708e-09
6.1460032e-09
6.2887742e-09
6.4620547e-09
6.6626932e-09
6.8908746e-09
7.1369769e-09
7.3849303e-09
7.6137619e-09
7.8070417e-09
7.9519781e-09
8.0330927e-09
8.0576747e-09
8.0459205e-09
8.007026e-09
7.9522345e-09
7.8910689e-09
7.8293663e-09
7.7706274e-09
7.7181794e-09
7.6730953e-09
7.6343074e-09
7.6002488e-09
7.5676256e-09
7.5343592e-09
7.5030548e-09
7.477486e-09
7.4493033e-09
7.400323e-09
7.3541492e-09
7.3271095e-09
7.3175718e-09
7.3179842e-09
7.3213684e-09
7.3179443e-09
7.3294055e-09
0.00081609495
0.00095043233
0.00032391781
3.2853575e-07
7.316268e-09
6.5181047e-09
5.9714058e-09
5.9053549e-09
5.7720239e-09
5.8142599e-09
5.7980756e-09
5.8734579e-09
5.9213903e-09
6.0152235e-09
6.1138085e-09
6.2437785e-09
6.3957122e-09
6.5788032e-09
6.7897784e-09
7.0271095e-09
7.278969e-09
7.5268727e-09
7.7497383e-09
7.9328746e-09
8.059143e-09
8.1176049e-09
8.1257388e-09
8.0985199e-09
8.0465529e-09
7.981463e-09
7.9124459e-09
7.8448265e-09
7.7816508e-09
7.7259047e-09
7.6784447e-09
7.6380443e-09
7.6029516e-09
7.5678758e-09
7.5339456e-09
7.5022774e-09
7.4769286e-09
7.4465774e-09
7.393105e-09
7.3498702e-09
7.3246918e-09
7.317563e-09
7.3149656e-09
7.3214906e-09
7.3203709e-09
7.323157e-09
0.00080736215
0.00088433963
0.00026204151
1.5412901e-07
7.2609064e-09
6.5501202e-09
6.0213184e-09
5.9613546e-09
5.8355675e-09
5.8816049e-09
5.8712776e-09
5.9502996e-09
6.0046106e-09
6.1036693e-09
6.2099543e-09
6.3479943e-09
6.5095995e-09
6.7029547e-09
6.9244219e-09
7.1704125e-09
7.4265959e-09
7.6725493e-09
7.8879332e-09
8.058057e-09
8.1621821e-09
8.1986304e-09
8.1906574e-09
8.1477376e-09
8.0831057e-09
8.0082303e-09
7.9318614e-09
7.8587466e-09
7.7914489e-09
7.7326493e-09
7.6830955e-09
7.6414168e-09
7.6052912e-09
7.5679437e-09
7.5333278e-09
7.5016328e-09
7.476271e-09
7.4424186e-09
7.3856065e-09
7.3450841e-09
7.3241097e-09
7.3175381e-09
7.3154319e-09
7.3187896e-09
7.3264678e-09
7.325032e-09
0.00079800878
0.00081595232
0.00020708047
8.2132831e-08
7.2331867e-09
6.5860266e-09
6.0750341e-09
6.0213759e-09
5.9032893e-09
5.9533329e-09
5.9491577e-09
6.0320744e-09
6.0931253e-09
6.1979355e-09
6.3123582e-09
6.4590222e-09
6.6308074e-09
6.8348373e-09
7.0667827e-09
7.3206092e-09
7.5793743e-09
7.821458e-09
8.0279641e-09
8.1806756e-09
8.2600701e-09
8.2771346e-09
8.2516616e-09
8.193431e-09
8.1166608e-09
8.0325647e-09
7.9493551e-09
7.8711336e-09
7.7999963e-09
7.7384334e-09
7.687168e-09
7.6445045e-09
7.6063764e-09
7.5679501e-09
7.5325675e-09
7.5011163e-09
7.4751399e-09
7.4356154e-09
7.3773172e-09
7.3402976e-09
7.3244049e-09
7.3182015e-09
7.3155592e-09
7.3197728e-09
7.3332957e-09
7.3269459e-09
0.00078734815
0.00074402618
0.00015958877
4.9536289e-08
7.2240737e-09
6.6261351e-09
6.1329047e-09
6.0856437e-09
5.9754748e-09
6.0296807e-09
6.0319806e-09
6.1190709e-09
6.1872614e-09
6.2983139e-09
6.4213963e-09
6.5772554e-09
6.7597446e-09
6.9747952e-09
7.2170045e-09
7.477507e-09
7.736897e-09
7.9732015e-09
8.1685586e-09
8.2993219e-09
8.3535483e-09
8.3521435e-09
8.3086581e-09
8.2355528e-09
8.1472381e-09
8.0545177e-09
7.9649603e-09
7.8819783e-09
7.8073065e-09
7.7433853e-09
7.690853e-09
7.6473383e-09
7.606881e-09
7.5678011e-09
7.531696e-09
7.5006567e-09
7.4732088e-09
7.4261572e-09
7.3687521e-09
7.3374209e-09
7.3250889e-09
7.3206324e-09
7.3158542e-09
7.3218803e-09
7.3305761e-09
7.3302358e-09
0.00077610618
0.00066443961
0.00011856709
3.326868e-08
7.2278626e-09
6.6705446e-09
6.1950446e-09
6.1542729e-09
6.0523223e-09
6.110888e-09
6.1200296e-09
6.2116034e-09
6.2873597e-09
6.4051928e-09
6.5374734e-09
6.7031228e-09
6.8968178e-09
7.1231119e-09
7.375059e-09
7.6407029e-09
7.8986597e-09
8.1273734e-09
8.3076935e-09
8.4126228e-09
8.4434979e-09
8.4229167e-09
8.3614658e-09
8.274079e-09
8.1748846e-09
8.0741436e-09
7.978692e-09
7.8912964e-09
7.8135255e-09
7.7477717e-09
7.6943081e-09
7.6496548e-09
7.6070402e-09
7.5673513e-09
7.5307268e-09
7.5000709e-09
7.4699888e-09
7.4143714e-09
7.361618e-09
7.3359753e-09
7.326044e-09
7.3203373e-09
7.3166602e-09
7.3244392e-09
7.3302109e-09
7.3373929e-09
0.00076679173
0.0005994416
8.5235778e-05
2.4461419e-08
7.2415526e-09
6.7195318e-09
6.2616315e-09
6.2275623e-09
6.1340645e-09
6.197277e-09
6.2136093e-09
6.3100295e-09
6.3937878e-09
6.5189803e-09
6.6610411e-09
6.8371015e-09
7.0424792e-09
7.2800699e-09
7.5408997e-09
7.8098298e-09
8.0642509e-09
8.2835208e-09
8.4432865e-09
8.5203111e-09
8.5299397e-09
8.4889158e-09
8.4100384e-09
8.3090443e-09
8.1996713e-09
8.0914856e-09
7.9905654e-09
7.8992079e-09
7.8189771e-09
7.7518711e-09
7.6974309e-09
7.6506543e-09
7.6071094e-09
7.5666208e-09
7.5296552e-09
7.4990836e-09
7.4648539e-09
7.4022399e-09
7.3561221e-09
7.3348501e-09
7.3259352e-09
7.3195516e-09
7.3179303e-09
7.3271238e-09
7.3315377e-09
7.3443499e-09
0.00075874825
0.00054874728
5.8846494e-05
1.9296915e-08
7.2632765e-09
6.7730639e-09
6.332906e-09
6.3057965e-09
6.2210629e-09
6.2891243e-09
6.3130855e-09
6.4146941e-09
6.506961e-09
6.6401495e-09
6.7925967e-09
6.9796957e-09
7.197137e-09
7.4458076e-09
7.7142339e-09
7.9843528e-09
8.2330562e-09
8.4395833e-09
8.5738717e-09
8.6231587e-09
8.6118478e-09
8.5500366e-09
8.4543394e-09
8.3405087e-09
8.2216641e-09
8.1065721e-09
8.0006573e-09
7.9059963e-09
7.8240068e-09
7.7556182e-09
7.6995736e-09
7.6511284e-09
7.6070651e-09
7.5656497e-09
7.5284713e-09
7.497431e-09
7.4574798e-09
7.3913774e-09
7.3522147e-09
7.3343271e-09
7.3254261e-09
7.3198718e-09
7.3198372e-09
7.32977e-09
7.333985e-09
7.3382928e-09
0.00075139035
0.00050312723
3.877415e-05
1.608332e-08
7.2920706e-09
6.8315673e-09
6.4091917e-09
6.3892657e-09
6.3136096e-09
6.3867744e-09
6.4187855e-09
6.5260237e-09
6.6273512e-09
6.7692047e-09
6.9326915e-09
7.1314476e-09
7.3612179e-09
7.620423e-09
7.8947904e-09
8.163841e-09
8.4046275e-09
8.5933821e-09
8.6979918e-09
8.7223868e-09
8.6882395e-09
8.6061641e-09
8.4944157e-09
8.3685583e-09
8.2409189e-09
8.1194613e-09
8.0091963e-09
7.912031e-09
7.8285311e-09
7.7581446e-09
7.7005518e-09
7.6512951e-09
7.6066943e-09
7.564487e-09
7.5271815e-09
7.4948926e-09
7.4474788e-09
7.3836454e-09
7.3494787e-09
7.3335059e-09
7.3246958e-09
7.3207653e-09
7.3224995e-09
7.3321989e-09
7.3369459e-09
7.3338578e-09
0.0007450907
0.00046414913
2.4610412e-05
1.3998103e-08
7.3275516e-09
6.8952337e-09
6.490702e-09
6.4781923e-09
6.4119904e-09
6.4905547e-09
6.5311361e-09
6.6445029e-09
6.755506e-09
6.9067543e-09
7.0819298e-09
7.2929041e-09
7.5350203e-09
7.8037994e-09
8.0820346e-09
8.3476382e-09
8.5778218e-09
8.7425456e-09
8.8161573e-09
8.8167218e-09
8.7589837e-09
8.6572643e-09
8.5303342e-09
8.3932699e-09
8.2574899e-09
8.130327e-09
8.0165708e-09
7.9174417e-09
7.8314841e-09
7.7593185e-09
7.7009983e-09
7.6513758e-09
7.606044e-09
7.5631848e-09
7.5257847e-09
7.4912956e-09
7.4363036e-09
7.3776365e-09
7.3471457e-09
7.332632e-09
7.3247812e-09
7.3219944e-09
7.3257629e-09
7.3348706e-09
7.3395363e-09
7.3357483e-09
0.00074003196
0.00043096442
1.5122077e-05
1.2598025e-08
7.3693867e-09
6.9641458e-09
6.5776715e-09
6.5729146e-09
6.5165904e-09
6.6009533e-09
6.6506656e-09
6.770732e-09
6.8920453e-09
7.0534312e-09
7.2409627e-09
7.464618e-09
7.7188206e-09
7.9957734e-09
8.2755771e-09
8.5351619e-09
8.7503251e-09
8.8854535e-09
8.9292954e-09
8.9052884e-09
8.8239072e-09
8.7033768e-09
8.5621986e-09
8.414722e-09
8.2715049e-09
8.1395296e-09
8.0231211e-09
7.9216017e-09
7.832818e-09
7.7598649e-09
7.7012074e-09
7.6512599e-09
7.6051152e-09
7.5617829e-09
7.5242546e-09
7.4866577e-09
7.4250819e-09
7.3720536e-09
7.3448616e-09
7.3322446e-09
7.3250129e-09
7.3235379e-09
7.3307457e-09
7.3384136e-09
7.3416251e-09
7.3380667e-09
0.00073630699
0.00040352069
9.0361819e-06
1.163485e-08
7.4174656e-09
7.0388618e-09
6.6704054e-09
6.67387e-09
6.6279933e-09
6.7185756e-09
6.7779988e-09
6.9053561e-09
7.0376502e-09
7.2099659e-09
7.4104704e-09
7.6470696e-09
7.9126689e-09
8.195898e-09
8.4747254e-09
8.7255599e-09
8.9194483e-09
9.0210894e-09
9.0376172e-09
8.9872136e-09
8.8829559e-09
8.74457e-09
8.5901003e-09
8.4330198e-09
8.2832575e-09
8.1475229e-09
8.0286427e-09
7.9234354e-09
7.8333794e-09
7.7601621e-09
7.7013074e-09
7.6508223e-09
7.6039428e-09
7.560304e-09
7.522493e-09
7.4809642e-09
7.4144682e-09
7.3671759e-09
7.3428597e-09
7.332057e-09
7.3267187e-09
7.3259889e-09
7.3433514e-09
7.3456259e-09
7.3435743e-09
7.3398363e-09
0.00073373924
0.00038179481
5.2506428e-06
1.096407e-08
7.4721867e-09
7.119556e-09
6.7698403e-09
6.7817417e-09
6.7468103e-09
6.8440598e-09
6.9137965e-09
7.0490818e-09
7.1930636e-09
7.3771026e-09
7.5911349e-09