/*--------------------------------*- C++ -*----------------------------------*\
  =========                 |
  \\      /  F ield         | OpenFOAM: The Open Source CFD Toolbox
   \\    /   O peration     | Website:  https://openfoam.org
    \\  /    A nd           | Version:  8
     \\/     M anipulation  |
\*---------------------------------------------------------------------------*/
FoamFile
{
    version     2.0;
    format      ascii;
    class       volScalarField;
    location    "0.210011";
    object      nuTilda;
}
// * * * * * * * * * * * * * * * * * * * * * * * * * * * * * * * * * * * * * //

dimensions      [0 2 -1 0 0 0 0];

internalField   nonuniform List<scalar> 
20000
(
0.0011139516
0.0025267044
0.0031417957
0.0030718963
0.0022018947
0.00050949945
2.2957928e-05
1.0299949e-05
1.0122937e-05
1.0103785e-05
1.0049529e-05
1.0052591e-05
1.0014412e-05
1.0019325e-05
1.0009607e-05
1.0009677e-05
1.0005455e-05
1.0004482e-05
1.0003109e-05
1.0002875e-05
1.000297e-05
1.0003129e-05
1.000305e-05
1.0002763e-05
1.0002402e-05
1.0002044e-05
1.0001736e-05
1.00015e-05
1.0001357e-05
1.0001299e-05
1.0001249e-05
1.0001148e-05
1.0000989e-05
1.0000791e-05
1.0000619e-05
1.0000557e-05
1.0000545e-05
1.0000582e-05
1.0000656e-05
1.0000649e-05
1.0000613e-05
1.0000605e-05
1.0000625e-05
1.0000592e-05
1.0000607e-05
1.0000566e-05
1.0000564e-05
1.0000826e-05
1.0001708e-05
1.0002916e-05
0.0010994599
0.0024668572
0.0030409738
0.0029329792
0.0019916607
0.00040174815
1.7761419e-05
1.0285659e-05
1.0120299e-05
1.0102345e-05
1.0048951e-05
1.0052414e-05
1.0014182e-05
1.0019134e-05
1.0009484e-05
1.0009551e-05
1.0005416e-05
1.0004449e-05
1.0003091e-05
1.0002852e-05
1.0002962e-05
1.0003128e-05
1.0003049e-05
1.0002763e-05
1.0002401e-05
1.0002042e-05
1.0001734e-05
1.0001496e-05
1.0001346e-05
1.0001281e-05
1.0001226e-05
1.0001124e-05
1.0000968e-05
1.0000776e-05
1.0000601e-05
1.0000542e-05
1.0000533e-05
1.0000565e-05
1.0000651e-05
1.0000649e-05
1.0000603e-05
1.0000595e-05
1.0000614e-05
1.0000581e-05
1.0000591e-05
1.0000553e-05
1.000056e-05
1.0000841e-05
1.0001663e-05
1.0002821e-05
0.0010897076
0.0024148173
0.0029409708
0.002790167
0.001771481
0.00030277102
1.4442099e-05
1.0274972e-05
1.0117565e-05
1.0100457e-05
1.0048389e-05
1.0052121e-05
1.0013968e-05
1.0018829e-05
1.0009363e-05
1.0009406e-05
1.0005367e-05
1.000441e-05
1.0003077e-05
1.0002838e-05
1.0002947e-05
1.0003108e-05
1.0003035e-05
1.0002753e-05
1.0002393e-05
1.0002037e-05
1.0001734e-05
1.0001503e-05
1.0001355e-05
1.0001287e-05
1.0001234e-05
1.0001134e-05
1.0000982e-05
1.0000793e-05
1.0000611e-05
1.0000542e-05
1.0000532e-05
1.0000562e-05
1.0000644e-05
1.000067e-05
1.0000602e-05
1.0000589e-05
1.0000612e-05
1.0000582e-05
1.0000587e-05
1.0000549e-05
1.000057e-05
1.0000918e-05
1.0001581e-05
1.0002742e-05
0.0010795918
0.002363367
0.0028439223
0.0026452889
0.0015570915
0.00022430634
1.254165e-05
1.0266519e-05
1.0114845e-05
1.0098638e-05
1.0047806e-05
1.0051812e-05
1.0013749e-05
1.0018547e-05
1.0009245e-05
1.0009257e-05
1.0005319e-05
1.0004368e-05
1.0003061e-05
1.0002821e-05
1.000294e-05
1.0003102e-05
1.0003025e-05
1.0002746e-05
1.0002387e-05
1.0002032e-05
1.0001731e-05
1.0001504e-05
1.0001358e-05
1.0001292e-05
1.000124e-05
1.0001138e-05
1.0000987e-05
1.00008e-05
1.0000616e-05
1.0000541e-05
1.0000531e-05
1.0000557e-05
1.0000642e-05
1.000069e-05
1.0000608e-05
1.0000583e-05
1.0000612e-05
1.0000581e-05
1.0000575e-05
1.0000552e-05
1.00006e-05
1.0000997e-05
1.000148e-05
1.0002616e-05
0.0010696849
0.0023131425
0.0027511916
0.0025044031
0.001350393
0.00016283477
1.1488058e-05
1.0259084e-05
1.0112126e-05
1.0096787e-05
1.0047207e-05
1.0051488e-05
1.0013533e-05
1.001825e-05
1.000913e-05
1.0009108e-05
1.0005272e-05
1.0004326e-05
1.0003045e-05
1.0002803e-05
1.0002931e-05
1.000309e-05
1.0003013e-05
1.0002736e-05
1.000238e-05
1.0002026e-05
1.0001729e-05
1.0001506e-05
1.0001363e-05
1.0001298e-05
1.0001247e-05
1.0001145e-05
1.0000995e-05
1.0000811e-05
1.0000623e-05
1.0000542e-05
1.000053e-05
1.0000553e-05
1.0000632e-05
1.0000704e-05
1.0000623e-05
1.0000577e-05
1.0000607e-05
1.000058e-05
1.0000575e-05
1.0000561e-05
1.000064e-05
1.000106e-05
1.0001388e-05
1.0002491e-05
0.0010597174
0.0022639459
0.0026591636
0.0023641939
0.0011538806
0.00011599685
1.0925241e-05
1.025195e-05
1.0109406e-05
1.0094914e-05
1.0046584e-05
1.0051141e-05
1.0013324e-05
1.0017952e-05
1.0009018e-05
1.0008956e-05
1.0005223e-05
1.0004281e-05
1.0003026e-05
1.0002783e-05
1.0002924e-05
1.0003078e-05
1.0003e-05
1.0002727e-05
1.0002373e-05
1.000202e-05
1.0001725e-05
1.0001506e-05
1.0001367e-05
1.0001304e-05
1.0001254e-05
1.0001151e-05
1.0001001e-05
1.0000819e-05
1.000063e-05
1.0000542e-05
1.0000528e-05
1.0000547e-05
1.0000619e-05
1.0000707e-05
1.0000644e-05
1.0000575e-05
1.00006e-05
1.0000578e-05
1.0000579e-05
1.0000589e-05
1.0000684e-05
1.0001091e-05
1.000132e-05
1.0002375e-05
0.0010497957
0.002215245
0.0025680304
0.0022229478
0.00097087359
8.1533665e-05
1.0629623e-05
1.0245212e-05
1.0106705e-05
1.0092985e-05
1.0045902e-05
1.0050726e-05
1.0013145e-05
1.0017649e-05
1.000891e-05
1.0008802e-05
1.0005173e-05
1.0004233e-05
1.0003007e-05
1.0002765e-05
1.0002915e-05
1.0003066e-05
1.0002987e-05
1.0002716e-05
1.0002365e-05
1.0002014e-05
1.0001721e-05
1.0001506e-05
1.000137e-05
1.0001308e-05
1.0001261e-05
1.0001157e-05
1.0001007e-05
1.0000828e-05
1.0000638e-05
1.0000543e-05
1.0000526e-05
1.0000541e-05
1.0000603e-05
1.0000707e-05
1.0000664e-05
1.0000574e-05
1.000059e-05
1.0000575e-05
1.0000586e-05
1.0000622e-05
1.0000719e-05
1.0001093e-05
1.0001262e-05
1.0002261e-05
0.0010400156
0.002167169
0.0024777257
0.0020799151
0.00080389234
5.7020642e-05
1.047576e-05
1.0239678e-05
1.0104211e-05
1.009087e-05
1.0044938e-05
1.0048122e-05
1.0012957e-05
1.0017339e-05
1.0008802e-05
1.0008643e-05
1.0005121e-05
1.0004184e-05
1.0002989e-05
1.0002747e-05
1.0002907e-05
1.0003055e-05
1.0002974e-05
1.0002706e-05
1.0002357e-05
1.0002007e-05
1.0001717e-05
1.0001505e-05
1.0001372e-05
1.0001313e-05
1.0001267e-05
1.0001163e-05
1.0001012e-05
1.0000836e-05
1.0000645e-05
1.0000544e-05
1.0000525e-05
1.000054e-05
1.0000589e-05
1.0000701e-05
1.0000676e-05
1.0000573e-05
1.000058e-05
1.0000574e-05
1.0000594e-05
1.0000651e-05
1.0000733e-05
1.0001075e-05
1.0001221e-05
1.0002151e-05
0.0010304328
0.0021198805
0.0023882402
0.0019390312
0.00065481025
4.0198725e-05
1.0399248e-05
1.0233892e-05
1.010286e-05
1.0087861e-05
1.0041523e-05
1.0043529e-05
1.0012819e-05
1.001702e-05
1.0008698e-05
1.0008477e-05
1.000507e-05
1.0004136e-05
1.0002971e-05
1.000273e-05
1.0002899e-05
1.0003043e-05
1.0002961e-05
1.0002695e-05
1.0002348e-05
1.0002e-05
1.0001711e-05
1.0001503e-05
1.0001374e-05
1.0001316e-05
1.0001274e-05
1.0001168e-05
1.0001017e-05
1.0000843e-05
1.0000653e-05
1.0000545e-05
1.0000525e-05
1.0000539e-05
1.0000576e-05
1.0000684e-05
1.0000679e-05
1.0000572e-05
1.000057e-05
1.0000575e-05
1.0000599e-05
1.0000671e-05
1.0000726e-05
1.0001046e-05
1.0001192e-05
1.000205e-05
0.0010211152
0.0020739368
0.0022992692
0.0017941308
0.00052442421
2.9035085e-05
1.0360599e-05
1.0228762e-05
1.009938e-05
1.0083512e-05
1.0036643e-05
1.0039898e-05
1.0012591e-05
1.0016692e-05
1.0008597e-05
1.0008312e-05
1.000502e-05
1.0004087e-05
1.0002953e-05
1.0002713e-05
1.0002892e-05
1.0003031e-05
1.0002947e-05
1.0002683e-05
1.0002339e-05
1.0001992e-05
1.0001706e-05
1.0001501e-05
1.0001375e-05
1.0001319e-05
1.000128e-05
1.0001174e-05
1.0001022e-05
1.0000849e-05
1.000066e-05
1.0000547e-05
1.0000525e-05
1.0000537e-05
1.0000566e-05
1.0000672e-05
1.0000679e-05
1.000057e-05
1.0000563e-05
1.0000576e-05
1.00006e-05
1.0000676e-05
1.0000702e-05
1.0001008e-05
1.0001173e-05
1.0001959e-05
0.0010121043
0.0020300719
0.0022130117
0.0016459639
0.00041602062
2.1885387e-05
1.0337167e-05
1.0224435e-05
1.0095521e-05
1.0079305e-05
1.0032663e-05
1.0036034e-05
1.001229e-05
1.0016359e-05
1.00085e-05
1.0008147e-05
1.000497e-05
1.0004038e-05
1.0002936e-05
1.0002696e-05
1.0002884e-05
1.0003018e-05
1.0002933e-05
1.0002672e-05
1.0002329e-05
1.0001984e-05
1.0001699e-05
1.0001498e-05
1.0001375e-05
1.0001322e-05
1.0001286e-05
1.0001181e-05
1.0001027e-05
1.0000855e-05
1.0000667e-05
1.000055e-05
1.0000525e-05
1.0000536e-05
1.000056e-05
1.000066e-05
1.0000677e-05
1.0000569e-05
1.0000561e-05
1.000058e-05
1.0000597e-05
1.0000674e-05
1.0000656e-05
1.0000939e-05
1.0001168e-05
1.0001895e-05
0.0010033458
0.0019880382
0.002137167
0.0014940869
0.00032578001
1.7368257e-05
1.032652e-05
1.0218247e-05
1.0094108e-05
1.0077195e-05
1.0030183e-05
1.0033227e-05
1.0011952e-05
1.0016022e-05
1.0008405e-05
1.0007983e-05
1.000492e-05
1.0003989e-05
1.0002918e-05
1.000268e-05
1.0002876e-05
1.0003005e-05
1.000292e-05
1.0002659e-05
1.0002319e-05
1.0001976e-05
1.0001693e-05
1.0001494e-05
1.0001375e-05
1.0001324e-05
1.0001292e-05
1.0001187e-05
1.0001031e-05
1.0000861e-05
1.0000674e-05
1.0000552e-05
1.0000525e-05
1.0000533e-05
1.0000554e-05
1.0000652e-05
1.0000676e-05
1.0000572e-05
1.0000561e-05
1.0000589e-05
1.0000594e-05
1.0000662e-05
1.0000606e-05
1.0000847e-05
1.0001167e-05
1.000186e-05
0.00099469255
0.0019460416
0.0020580046
0.0013381738
0.00025009449
1.4570101e-05
1.0318238e-05
1.0212555e-05
1.009345e-05
1.0075272e-05
1.0029336e-05
1.0032035e-05
1.0011743e-05
1.0015689e-05
1.0008313e-05
1.000782e-05
1.0004871e-05
1.000394e-05
1.0002901e-05
1.0002665e-05
1.0002869e-05
1.0002992e-05
1.0002906e-05
1.0002647e-05
1.0002308e-05
1.0001968e-05
1.0001686e-05
1.000149e-05
1.0001374e-05
1.0001326e-05
1.0001297e-05
1.0001193e-05
1.0001036e-05
1.0000866e-05
1.000068e-05
1.0000555e-05
1.0000525e-05
1.0000531e-05
1.000055e-05
1.0000647e-05
1.0000683e-05
1.0000578e-05
1.0000564e-05
1.0000605e-05
1.0000592e-05
1.0000645e-05
1.0000571e-05
1.000075e-05
1.000115e-05
1.0001841e-05
0.00098626866
0.0019050787
0.001981663
0.001182684
0.00018923568
1.2897755e-05
1.0308679e-05
1.0206715e-05
1.0090809e-05
1.0073284e-05
1.0028622e-05
1.0031347e-05
1.0011619e-05
1.0015354e-05
1.0008223e-05
1.0007658e-05
1.0004822e-05
1.0003891e-05
1.0002885e-05
1.0002651e-05
1.0002861e-05
1.0002979e-05
1.0002891e-05
1.0002634e-05
1.0002298e-05
1.0001959e-05
1.0001679e-05
1.0001486e-05
1.0001374e-05
1.0001328e-05
1.0001303e-05
1.0001199e-05
1.000104e-05
1.0000871e-05
1.0000685e-05
1.0000557e-05
1.0000525e-05
1.0000528e-05
1.0000546e-05
1.0000639e-05
1.0000695e-05
1.0000585e-05
1.0000579e-05
1.0000626e-05
1.0000596e-05
1.0000629e-05
1.0000555e-05
1.0000666e-05
1.0001104e-05
1.0001816e-05
0.00097804999
0.0018647399
0.0019051834
0.0010335609
0.00014140733
1.1915175e-05
1.0297918e-05
1.0200753e-05
1.0088224e-05
1.0071282e-05
1.0027864e-05
1.0030566e-05
1.0011483e-05
1.0015016e-05
1.0008135e-05
1.0007499e-05
1.0004773e-05
1.0003842e-05
1.0002869e-05
1.0002637e-05
1.0002853e-05
1.0002967e-05
1.0002877e-05
1.0002621e-05
1.0002287e-05
1.000195e-05
1.0001672e-05
1.0001481e-05
1.0001372e-05
1.0001329e-05
1.0001307e-05
1.0001205e-05
1.0001044e-05
1.0000876e-05
1.000069e-05
1.0000559e-05
1.0000525e-05
1.0000526e-05
1.0000543e-05
1.0000629e-05
1.0000701e-05
1.0000596e-05
1.0000599e-05
1.0000648e-05
1.0000622e-05
1.0000619e-05
1.0000552e-05
1.000061e-05
1.0001051e-05
1.0001773e-05
0.0009697088
0.0018218358
0.0018281729
0.00089587353
0.00010469742
1.1345995e-05
1.0288337e-05
1.0194861e-05
1.0085629e-05
1.0069263e-05
1.0027104e-05
1.0029789e-05
1.0011358e-05
1.0014678e-05
1.0008049e-05
1.0007343e-05
1.0004725e-05
1.0003794e-05
1.0002853e-05
1.0002625e-05
1.0002845e-05
1.0002954e-05
1.0002862e-05
1.0002607e-05
1.0002276e-05
1.0001941e-05
1.0001664e-05
1.0001476e-05
1.0001371e-05
1.000133e-05
1.0001312e-05
1.0001211e-05
1.0001048e-05
1.0000881e-05
1.0000695e-05
1.0000561e-05
1.0000524e-05
1.0000524e-05
1.0000542e-05
1.0000623e-05
1.0000702e-05
1.0000613e-05
1.0000619e-05
1.0000664e-05
1.0000652e-05
1.0000616e-05
1.0000554e-05
1.000056e-05
1.0001008e-05
1.0001714e-05
0.00096125263
0.0017773939
0.0017494213
0.00076890799
7.7064055e-05
1.102023e-05
1.0279062e-05
1.0188971e-05
1.0083038e-05
1.0067234e-05
1.0026348e-05
1.0029009e-05
1.0011239e-05
1.001434e-05
1.0007964e-05
1.0007191e-05
1.0004678e-05
1.0003746e-05
1.0002838e-05
1.0002614e-05
1.0002837e-05
1.0002941e-05
1.0002847e-05
1.0002594e-05
1.0002264e-05
1.0001931e-05
1.0001656e-05
1.000147e-05
1.0001369e-05
1.000133e-05
1.0001316e-05
1.0001217e-05
1.0001052e-05
1.0000886e-05
1.0000699e-05
1.0000563e-05
1.0000524e-05
1.0000523e-05
1.0000542e-05
1.0000621e-05
1.0000697e-05
1.0000637e-05
1.0000638e-05
1.0000673e-05
1.0000684e-05
1.0000619e-05
1.0000551e-05
1.0000516e-05
1.0000966e-05
1.0001651e-05
0.00095247843
0.0017305311
0.0016675116
0.00065289697
5.6674084e-05
1.0831807e-05
1.0270134e-05
1.01831e-05
1.0080449e-05
1.0065195e-05
1.0025599e-05
1.0028226e-05
1.0011127e-05
1.0014004e-05
1.0007881e-05
1.0007048e-05
1.000463e-05
1.00037e-05
1.0002824e-05
1.0002605e-05
1.0002828e-05
1.0002927e-05
1.0002832e-05
1.000258e-05
1.0002253e-05
1.0001922e-05
1.0001648e-05
1.0001465e-05
1.0001366e-05
1.0001331e-05
1.000132e-05
1.0001224e-05
1.0001056e-05
1.000089e-05
1.0000703e-05
1.0000564e-05
1.0000524e-05
1.0000522e-05
1.0000543e-05
1.000062e-05
1.0000689e-05
1.0000653e-05
1.0000651e-05
1.0000682e-05
1.000072e-05
1.0000628e-05
1.0000535e-05
1.0000485e-05
1.0000926e-05
1.0001599e-05
0.00094317371
0.0016806117
0.0015786753
0.00054837816
4.2018309e-05
1.0719944e-05
1.0261486e-05
1.0177255e-05
1.0077868e-05
1.0063152e-05
1.0024856e-05
1.0027445e-05
1.0011024e-05
1.001367e-05
1.0007799e-05
1.0006908e-05
1.0004583e-05
1.0003655e-05
1.000281e-05
1.0002596e-05
1.0002819e-05
1.0002913e-05
1.0002816e-05
1.0002566e-05
1.0002241e-05
1.0001912e-05
1.0001641e-05
1.0001459e-05
1.0001363e-05
1.0001331e-05
1.0001324e-05
1.0001231e-05
1.000106e-05
1.0000894e-05
1.0000707e-05
1.0000566e-05
1.0000523e-05
1.0000522e-05
1.0000547e-05
1.0000617e-05
1.0000686e-05
1.0000658e-05
1.0000656e-05
1.0000692e-05
1.000076e-05
1.0000642e-05
1.0000508e-05
1.0000465e-05
1.0000892e-05
1.0001556e-05
0.00093336728
0.0016279779
0.0014800669
0.00045621529
3.1732093e-05
1.0650069e-05
1.025306e-05
1.0171426e-05
1.0075292e-05
1.0061106e-05
1.0024123e-05
1.0026664e-05
1.001093e-05
1.0013339e-05
1.000772e-05
1.0006771e-05
1.0004536e-05
1.0003611e-05
1.0002798e-05
1.0002589e-05
1.0002809e-05
1.0002899e-05
1.0002801e-05
1.0002552e-05
1.000223e-05
1.0001902e-05
1.0001632e-05
1.0001452e-05
1.0001361e-05
1.0001331e-05
1.0001329e-05
1.0001239e-05
1.0001064e-05
1.0000898e-05
1.0000712e-05
1.0000567e-05
1.0000522e-05
1.0000522e-05
1.0000551e-05
1.0000612e-05
1.0000683e-05
1.0000658e-05
1.0000656e-05
1.0000706e-05
1.0000794e-05
1.0000658e-05
1.000049e-05
1.0000447e-05
1.0000866e-05
1.0001516e-05
0.00092320952
0.0015737634
0.0013744973
0.00037756056
2.4653764e-05
1.0602782e-05
1.0244797e-05
1.0165615e-05
1.0072726e-05
1.005906e-05
1.00234e-05
1.0025886e-05
1.0010845e-05
1.0013012e-05
1.0007642e-05
1.0006637e-05
1.000449e-05
1.0003569e-05
1.0002786e-05
1.0002583e-05
1.0002799e-05
1.0002885e-05
1.0002785e-05
1.0002539e-05
1.0002218e-05
1.0001893e-05
1.0001624e-05
1.0001445e-05
1.0001358e-05
1.0001332e-05
1.0001333e-05
1.0001247e-05
1.0001068e-05
1.0000901e-05
1.0000716e-05
1.0000569e-05
1.0000521e-05
1.0000521e-05
1.0000552e-05
1.0000605e-05
1.000068e-05
1.000066e-05
1.0000654e-05
1.0000723e-05
1.0000803e-05
1.0000663e-05
1.0000473e-05
1.000042e-05
1.000085e-05
1.0001478e-05
0.00091263001
0.0015180566
0.00126341
0.00031281338
1.9856818e-05
1.056811e-05
1.0236672e-05
1.0159837e-05
1.0070173e-05
1.0057022e-05
1.002269e-05
1.0025115e-05
1.001077e-05
1.001269e-05
1.0007566e-05
1.0006506e-05
1.0004444e-05
1.0003528e-05
1.0002775e-05
1.0002579e-05
1.0002789e-05
1.0002871e-05
1.000277e-05
1.0002525e-05
1.0002206e-05
1.0001883e-05
1.0001616e-05
1.0001439e-05
1.0001356e-05
1.0001332e-05
1.0001338e-05
1.0001255e-05
1.0001072e-05
1.0000904e-05
1.000072e-05
1.0000572e-05
1.000052e-05
1.0000518e-05
1.0000549e-05
1.0000598e-05
1.0000678e-05
1.0000666e-05
1.000065e-05
1.0000738e-05
1.00008e-05
1.0000649e-05
1.0000446e-05
1.000039e-05
1.0000846e-05
1.0001438e-05
0.0009016991
0.0014600566
0.0011538592
0.00025364266
1.6560006e-05
1.0540331e-05
1.0228646e-05
1.0154088e-05
1.0067636e-05
1.0054993e-05
1.0021994e-05
1.0024351e-05
1.0010706e-05
1.0012374e-05
1.0007491e-05
1.000638e-05
1.0004398e-05
1.0003489e-05
1.0002765e-05
1.0002576e-05
1.0002778e-05
1.0002856e-05
1.0002754e-05
1.0002511e-05
1.0002195e-05
1.0001873e-05
1.0001607e-05
1.0001432e-05
1.0001354e-05
1.0001333e-05
1.0001342e-05
1.0001263e-05
1.0001076e-05
1.0000907e-05
1.0000724e-05
1.0000575e-05
1.0000518e-05
1.0000513e-05
1.0000546e-05
1.0000595e-05
1.0000678e-05
1.0000674e-05
1.0000647e-05
1.0000741e-05
1.0000761e-05
1.0000622e-05
1.0000416e-05
1.0000369e-05
1.0000849e-05
1.0001396e-05
0.00089067455
0.0013996748
0.0010482275
0.00020297332
1.4394373e-05
1.0516602e-05
1.0220723e-05
1.0148389e-05
1.006512e-05
1.0052983e-05
1.0021314e-05
1.0023599e-05
1.0010652e-05
1.0012065e-05
1.0007417e-05
1.0006257e-05
1.0004354e-05
1.0003452e-05
1.0002756e-05
1.0002573e-05
1.0002767e-05
1.0002841e-05
1.0002739e-05
1.0002498e-05
1.0002184e-05
1.0001864e-05
1.0001599e-05
1.0001427e-05
1.0001352e-05
1.0001333e-05
1.0001346e-05
1.0001272e-05
1.0001081e-05
1.000091e-05
1.0000728e-05
1.0000579e-05
1.0000517e-05
1.0000508e-05
1.0000542e-05
1.0000596e-05
1.0000682e-05
1.000068e-05
1.000065e-05
1.0000733e-05
1.0000699e-05
1.00006e-05
1.0000391e-05
1.0000361e-05
1.0000843e-05
1.0001349e-05
0.00088054737
0.001346354
0.00094282614
0.00016009834
1.3003416e-05
1.0494979e-05
1.0212865e-05
1.0142722e-05
1.0062625e-05
1.0050989e-05
1.0020651e-05
1.0022859e-05
1.0010611e-05
1.0011762e-05
1.0007344e-05
1.0006139e-05
1.000431e-05
1.0003417e-05
1.0002748e-05
1.0002573e-05
1.0002755e-05
1.0002826e-05
1.0002723e-05
1.0002484e-05
1.0002172e-05
1.0001854e-05
1.0001591e-05
1.0001422e-05
1.000135e-05
1.0001332e-05
1.000135e-05
1.0001281e-05
1.0001086e-05
1.0000914e-05
1.0000733e-05
1.0000583e-05
1.0000516e-05
1.0000504e-05
1.0000539e-05
1.0000599e-05
1.0000685e-05
1.0000685e-05
1.0000656e-05
1.0000707e-05
1.0000649e-05
1.0000584e-05
1.0000377e-05
1.0000359e-05
1.000081e-05
1.0001292e-05
0.00087059135
0.0012918282
0.00083945231
0.00012484003
1.2120665e-05
1.0474582e-05
1.0205094e-05
1.0137119e-05
1.0060158e-05
1.0049024e-05
1.0020008e-05
1.0022134e-05
1.0010583e-05
1.0011468e-05
1.0007272e-05
1.0006026e-05
1.0004268e-05
1.0003385e-05
1.0002741e-05
1.0002573e-05
1.0002744e-05
1.0002811e-05
1.0002708e-05
1.0002471e-05
1.0002161e-05
1.0001844e-05
1.0001585e-05
1.0001418e-05
1.0001347e-05
1.0001331e-05
1.0001354e-05
1.0001291e-05
1.0001092e-05
1.0000917e-05
1.0000738e-05
1.0000588e-05
1.0000517e-05
1.0000502e-05
1.0000537e-05
1.0000605e-05
1.0000688e-05
1.0000692e-05
1.0000658e-05
1.0000675e-05
1.0000619e-05
1.0000569e-05
1.0000369e-05
1.0000349e-05
1.000075e-05
1.0001221e-05
0.00086100701
0.0012371615
0.00073990958
9.6502612e-05
1.1568369e-05
1.0455009e-05
1.0197403e-05
1.0131576e-05
1.0057722e-05
1.0047088e-05
1.0019387e-05
1.0021425e-05
1.0010602e-05
1.0011183e-05
1.0007201e-05
1.0005917e-05
1.0004226e-05
1.0003354e-05
1.0002735e-05
1.0002576e-05
1.0002732e-05
1.0002796e-05
1.0002693e-05
1.0002458e-05
1.000215e-05
1.0001836e-05
1.0001579e-05
1.0001414e-05
1.0001343e-05
1.000133e-05
1.0001358e-05
1.0001301e-05
1.0001098e-05
1.0000922e-05
1.0000743e-05
1.0000593e-05
1.000052e-05
1.0000501e-05
1.0000534e-05
1.0000609e-05
1.0000693e-05
1.0000701e-05
1.0000657e-05
1.0000647e-05
1.0000604e-05
1.0000549e-05
1.0000377e-05
1.0000332e-05
1.0000679e-05
1.0001137e-05
0.00085190078
0.0011816592
0.0006455507
7.4181262e-05
1.1224065e-05
1.0436308e-05
1.0189786e-05
1.0126092e-05
1.005532e-05
1.0045185e-05
1.0018789e-05
1.0020734e-05
1.0010589e-05
1.0010905e-05
1.0007132e-05
1.0005814e-05
1.0004186e-05
1.0003326e-05
1.000273e-05
1.0002578e-05
1.0002719e-05
1.0002781e-05
1.0002678e-05
1.0002445e-05
1.0002139e-05
1.0001828e-05
1.0001575e-05
1.0001408e-05
1.0001339e-05
1.0001328e-05
1.0001362e-05
1.0001311e-05
1.0001105e-05
1.0000927e-05
1.000075e-05
1.0000599e-05
1.0000524e-05
1.0000501e-05
1.0000533e-05
1.0000611e-05
1.0000707e-05
1.0000715e-05
1.0000659e-05
1.0000625e-05
1.0000601e-05
1.0000518e-05
1.0000392e-05
1.000031e-05
1.0000613e-05
1.0001048e-05
0.00084341804
0.0011258616
0.00055770892
5.7039442e-05
1.1007894e-05
1.0419301e-05
1.0182269e-05
1.0120688e-05
1.0052956e-05
1.0043322e-05
1.0018215e-05
1.0020064e-05
1.0010568e-05
1.0010635e-05
1.0007065e-05
1.0005715e-05
1.0004147e-05
1.00033e-05
1.0002726e-05
1.0002579e-05
1.0002707e-05
1.0002767e-05
1.0002663e-05
1.0002432e-05
1.0002129e-05
1.0001823e-05
1.000157e-05
1.0001402e-05
1.0001335e-05
1.0001326e-05
1.0001365e-05
1.0001321e-05
1.0001113e-05
1.0000931e-05
1.0000757e-05
1.0000606e-05
1.0000529e-05
1.0000507e-05
1.0000533e-05
1.000061e-05
1.0000729e-05
1.000073e-05
1.0000658e-05
1.0000611e-05
1.0000603e-05
1.0000477e-05
1.0000397e-05
1.0000287e-05
1.0000562e-05
1.0000961e-05
0.00083558561
0.0010738063
0.00047706188
4.4121713e-05
1.0868847e-05
1.0403032e-05
1.0174825e-05
1.011535e-05
1.0050632e-05
1.0041498e-05
1.0017668e-05
1.0019415e-05
1.001054e-05
1.0010375e-05
1.0006997e-05
1.0005621e-05
1.000411e-05
1.0003276e-05
1.0002724e-05
1.0002579e-05
1.0002695e-05
1.0002752e-05
1.0002649e-05
1.000242e-05
1.000212e-05
1.0001818e-05
1.0001565e-05
1.0001396e-05
1.0001331e-05
1.0001324e-05
1.0001367e-05
1.0001331e-05
1.0001121e-05
1.0000936e-05
1.0000766e-05
1.0000614e-05
1.0000535e-05
1.0000512e-05
1.0000535e-05
1.0000609e-05
1.0000749e-05
1.0000752e-05
1.0000647e-05
1.00006e-05
1.0000602e-05
1.0000442e-05
1.000038e-05
1.0000274e-05
1.0000528e-05
1.0000876e-05
0.00082742542
0.0010137096
0.0004038744
3.4586389e-05
1.0776254e-05
1.038686e-05
1.016745e-05
1.0110083e-05
1.0048352e-05
1.0039719e-05
1.0017148e-05
1.0018787e-05
1.0010508e-05
1.0010099e-05
1.000693e-05
1.0005533e-05
1.0004075e-05
1.0003254e-05
1.0002722e-05
1.0002579e-05
1.0002683e-05
1.0002737e-05
1.0002634e-05
1.0002408e-05
1.0002114e-05
1.0001815e-05
1.0001559e-05
1.000139e-05
1.0001326e-05
1.0001322e-05
1.0001369e-05
1.000134e-05
1.000113e-05
1.000094e-05
1.0000774e-05
1.0000623e-05
1.0000543e-05
1.0000518e-05
1.0000538e-05
1.0000607e-05
1.0000762e-05
1.0000781e-05
1.0000633e-05
1.0000588e-05
1.0000585e-05
1.0000431e-05
1.000036e-05
1.0000272e-05
1.0000505e-05
1.0000801e-05
0.00081925441
0.00095266138
0.00033930758
2.7699683e-05
1.0711557e-05
1.0370913e-05
1.0160152e-05
1.0104898e-05
1.0046119e-05
1.0037989e-05
1.0016658e-05
1.001818e-05
1.0010471e-05
1.0009832e-05
1.0006863e-05
1.0005449e-05
1.0004041e-05
1.0003235e-05
1.0002721e-05
1.0002579e-05
1.0002671e-05
1.0002723e-05
1.000262e-05
1.0002398e-05
1.0002109e-05
1.000181e-05
1.0001553e-05
1.0001384e-05
1.0001321e-05
1.0001319e-05
1.0001371e-05
1.0001349e-05
1.000114e-05
1.0000944e-05
1.0000783e-05
1.0000633e-05
1.0000551e-05
1.0000523e-05
1.0000538e-05
1.00006e-05
1.000075e-05
1.0000808e-05
1.0000635e-05
1.0000571e-05
1.0000513e-05
1.0000438e-05
1.0000358e-05
1.0000276e-05
1.0000486e-05
1.0000737e-05
0.00081054669
0.00088687052
0.00028314686
2.2833812e-05
1.0662697e-05
1.0355196e-05
1.0152946e-05
1.0099809e-05
1.0043941e-05
1.0036313e-05
1.0016198e-05
1.0017597e-05
1.0010428e-05
1.0009597e-05
1.0006797e-05
1.0005371e-05
1.0004009e-05
1.0003217e-05
1.0002722e-05
1.0002579e-05
1.0002659e-05
1.0002708e-05
1.0002606e-05
1.000239e-05
1.0002106e-05
1.0001805e-05
1.0001546e-05
1.0001378e-05
1.0001316e-05
1.0001315e-05
1.0001373e-05
1.0001358e-05
1.000115e-05
1.0000947e-05
1.0000791e-05
1.0000643e-05
1.0000559e-05
1.0000527e-05
1.0000535e-05
1.0000588e-05
1.0000707e-05
1.0000809e-05
1.0000642e-05
1.0000553e-05
1.0000454e-05
1.0000445e-05
1.0000359e-05
1.0000279e-05
1.0000466e-05
1.000068e-05
0.00080122312
0.00081887061
0.00023560254
1.9445389e-05
1.0622857e-05
1.0339729e-05
1.0145837e-05
1.0094819e-05
1.004182e-05
1.0034695e-05
1.0015771e-05
1.0017037e-05
1.0010379e-05
1.0009393e-05
1.0006732e-05
1.0005298e-05
1.0003979e-05
1.0003202e-05
1.0002723e-05
1.0002578e-05
1.0002647e-05
1.0002694e-05
1.0002593e-05
1.0002384e-05
1.0002103e-05
1.0001799e-05
1.0001541e-05
1.0001373e-05
1.0001311e-05
1.0001312e-05
1.0001375e-05
1.0001366e-05
1.0001161e-05
1.0000949e-05
1.0000798e-05
1.0000654e-05
1.0000567e-05
1.0000531e-05
1.0000532e-05
1.0000575e-05
1.0000658e-05
1.0000715e-05
1.0000604e-05
1.0000539e-05
1.000043e-05
1.0000445e-05
1.0000358e-05
1.0000278e-05
1.0000445e-05
1.0000626e-05
0.00079060139
0.00074746498
0.00019676923
1.7081257e-05
1.0588469e-05
1.032446e-05
1.0138816e-05
1.0089924e-05
1.0039758e-05
1.0033134e-05
1.0015377e-05
1.0016504e-05
1.0010325e-05
1.0009202e-05
1.0006668e-05
1.000523e-05
1.0003951e-05
1.0003187e-05
1.0002724e-05
1.0002579e-05
1.0002635e-05
1.000268e-05
1.0002582e-05
1.000238e-05
1.0002098e-05
1.0001793e-05
1.0001535e-05
1.0001367e-05
1.0001305e-05
1.0001307e-05
1.0001377e-05
1.0001374e-05
1.0001172e-05
1.0000951e-05
1.0000804e-05
1.0000664e-05
1.0000576e-05
1.0000536e-05
1.0000529e-05
1.0000562e-05
1.0000629e-05
1.0000636e-05
1.0000547e-05
1.000052e-05
1.000042e-05
1.0000422e-05
1.0000378e-05
1.0000265e-05
1.0000417e-05
1.0000575e-05
0.00077940222
0.00066865256
0.0001648547
1.5413269e-05
1.0557423e-05
1.0309403e-05
1.0131894e-05
1.0085134e-05
1.0037761e-05
1.0031637e-05
1.0015017e-05
1.0015996e-05
1.0010269e-05
1.0009022e-05
1.0006605e-05
1.0005168e-05
1.0003925e-05
1.0003174e-05
1.0002726e-05
1.0002579e-05
1.0002624e-05
1.0002667e-05
1.0002574e-05
1.0002376e-05
1.0002092e-05
1.0001788e-05
1.000153e-05
1.0001362e-05
1.00013e-05
1.0001302e-05
1.0001379e-05
1.0001382e-05
1.0001185e-05
1.0000954e-05
1.0000809e-05
1.0000674e-05
1.0000585e-05
1.0000543e-05
1.0000527e-05
1.0000553e-05
1.000062e-05
1.0000612e-05
1.0000516e-05
1.0000482e-05
1.0000418e-05
1.0000402e-05
1.00004e-05
1.0000251e-05
1.0000381e-05
1.0000529e-05
0.00077011206
0.00060449095
0.00013944249
1.4226448e-05
1.0528636e-05
1.0294593e-05
1.0125085e-05
1.0080466e-05
1.0035835e-05
1.0030208e-05
1.0014693e-05
1.0015516e-05
1.0010209e-05
1.0008855e-05
1.0006545e-05
1.000511e-05
1.0003901e-05
1.0003162e-05
1.0002728e-05
1.000258e-05
1.0002613e-05
1.0002656e-05
1.0002568e-05
1.0002372e-05
1.0002086e-05
1.0001783e-05
1.0001525e-05
1.0001356e-05
1.0001294e-05
1.0001296e-05
1.000138e-05
1.0001389e-05
1.0001199e-05
1.0000958e-05
1.0000813e-05
1.0000684e-05
1.0000595e-05
1.0000549e-05
1.0000528e-05
1.0000545e-05
1.0000603e-05
1.0000631e-05
1.0000489e-05
1.0000445e-05
1.0000414e-05
1.0000406e-05
1.000042e-05
1.0000241e-05
1.000034e-05
1.0000489e-05
0.00076208295
0.00055461759
0.00011866599
1.3362825e-05
1.0501398e-05
1.0280022e-05
1.0118395e-05
1.0075925e-05
1.0033984e-05
1.0028849e-05
1.0014405e-05
1.0015062e-05
1.0010147e-05
1.0008699e-05
1.0006487e-05
1.0005057e-05
1.0003878e-05
1.0003151e-05
1.0002729e-05
1.0002582e-05
1.0002603e-05
1.0002647e-05
1.0002563e-05
1.0002366e-05
1.000208e-05
1.0001778e-05
1.0001521e-05
1.0001351e-05
1.0001289e-05
1.000129e-05
1.000138e-05
1.0001397e-05
1.0001215e-05
1.0000966e-05
1.0000817e-05
1.0000693e-05
1.0000605e-05
1.0000554e-05
1.0000531e-05
1.0000539e-05
1.000056e-05
1.0000564e-05
1.0000472e-05
1.0000442e-05
1.0000407e-05
1.0000401e-05
1.0000428e-05
1.0000232e-05
1.0000303e-05
1.0000452e-05
0.0007547305
0.00050991481
0.0001012651
1.2723753e-05
1.0475273e-05
1.0265677e-05
1.0111824e-05
1.0071512e-05
1.0032211e-05
1.0027561e-05
1.0014155e-05
1.0014635e-05
1.0010083e-05
1.0008554e-05
1.0006431e-05
1.0005008e-05
1.0003856e-05
1.0003139e-05
1.0002731e-05
1.0002585e-05
1.0002596e-05
1.0002642e-05
1.0002559e-05
1.0002358e-05
1.0002075e-05
1.0001775e-05
1.0001517e-05
1.0001346e-05
1.0001283e-05
1.0001284e-05
1.0001379e-05
1.0001403e-05
1.0001232e-05
1.0000976e-05
1.000082e-05
1.0000701e-05
1.0000617e-05
1.0000559e-05
1.0000538e-05
1.0000539e-05
1.0000543e-05
1.0000521e-05
1.000047e-05
1.0000462e-05
1.0000391e-05
1.0000392e-05
1.0000423e-05
1.0000222e-05
1.0000275e-05
1.0000416e-05
0.00074842616
0.0004718888
8.6750796e-05
1.2245556e-05
1.0450006e-05
1.0251558e-05
1.0105375e-05
1.0067236e-05
1.003052e-05
1.0026347e-05
1.0013941e-05
1.0014235e-05
1.001002e-05
1.000842e-05
1.0006377e-05
1.0004964e-05
1.0003835e-05
1.0003128e-05
1.0002732e-05
1.0002589e-05
1.000259e-05
1.0002638e-05
1.0002552e-05
1.0002349e-05
1.000207e-05
1.0001771e-05
1.0001513e-05
1.0001341e-05
1.0001278e-05
1.0001277e-05
1.0001377e-05
1.0001409e-05
1.0001251e-05
1.000099e-05
1.0000823e-05
1.0000708e-05
1.000063e-05
1.0000565e-05
1.0000545e-05
1.0000543e-05
1.0000531e-05
1.0000523e-05
1.0000477e-05
1.00005e-05
1.0000372e-05
1.0000371e-05
1.00004e-05
1.0000215e-05
1.0000254e-05
1.0000381e-05
0.00074335008
0.00043966366
7.4496118e-05
1.1882788e-05
1.0425469e-05
1.0237693e-05
1.0099067e-05
1.0063112e-05
1.0028918e-05
1.0025212e-05
1.0013765e-05
1.0013862e-05
1.0009955e-05
1.0008297e-05
1.0006327e-05
1.0004923e-05
1.0003815e-05
1.0003117e-05
1.0002732e-05
1.0002595e-05
1.0002587e-05
1.0002635e-05
1.0002542e-05
1.000234e-05
1.0002065e-05
1.0001769e-05
1.000151e-05
1.0001337e-05
1.0001272e-05
1.000127e-05
1.0001373e-05
1.0001413e-05
1.0001271e-05
1.0001009e-05
1.0000828e-05
1.0000713e-05
1.0000642e-05
1.0000573e-05
1.0000548e-05
1.0000548e-05
1.0000508e-05
1.0000507e-05
1.0000484e-05
1.0000516e-05
1.0000364e-05
1.000036e-05
1.0000361e-05
1.0000208e-05
1.0000239e-05
1.0000347e-05
0.00073959477
0.00041312799
6.4032253e-05
1.1603957e-05
1.0401561e-05
1.0224092e-05
1.0092908e-05
1.0059147e-05
1.0027407e-05
1.0024164e-05
1.0013627e-05
1.0013516e-05
1.0009887e-05
1.0008184e-05
1.0006278e-05
1.0004884e-05
1.0003795e-05
1.0003105e-05
1.000273e-05
1.0002597e-05
1.0002587e-05
1.0002632e-05
1.0002529e-05
1.0002331e-05
1.0002061e-05
1.0001767e-05
1.0001508e-05
1.0001333e-05
1.0001266e-05
1.0001262e-05
1.0001368e-05
1.0001416e-05
1.0001292e-05
1.0001031e-05
1.0000837e-05
1.0000716e-05
1.0000652e-05
1.0000584e-05
1.0000552e-05
1.0000558e-05
1.0000503e-05
1.0000492e-05
1.0000481e-05
1.0000459e-05
1.0000374e-05
1.0000363e-05
1.0000333e-05
1.0000203e-05
1.0000231e-05
1.0000314e-05
0.00073698585
0.00039218794
5.4965241e-05
1.1387278e-05
1.0378243e-05
1.0210773e-05
1.0086913e-05
1.0055352e-05
1.0025994e-05
1.0023201e-05
1.0013523e-05
1.0013188e-05
1.0009819e-05
1.0008081e-05
1.0006232e-05
1.0004848e-05