/*--------------------------------*- C++ -*----------------------------------*\
  =========                 |
  \\      /  F ield         | OpenFOAM: The Open Source CFD Toolbox
   \\    /   O peration     | Website:  https://openfoam.org
    \\  /    A nd           | Version:  8
     \\/     M anipulation  |
\*---------------------------------------------------------------------------*/
FoamFile
{
    version     2.0;
    format      ascii;
    class       volScalarField;
    location    "0.210011";
    object      p;
}
// * * * * * * * * * * * * * * * * * * * * * * * * * * * * * * * * * * * * * //

dimensions      [1 -1 -2 0 0 0 0];

internalField   nonuniform List<scalar> 
20000
(
83651.175
83666.638
83682.855
83704.933
83737.957
83775.464
83829.02
83888.549
83961.637
84054.354
84154.717
84291.419
84433.371
84627.421
84831.081
85100.816
85393.212
85763.316
86174.223
86670.178
87227.201
87885.478
88652.832
89532.16
90510.314
91571.291
92696.4
93858.698
95012.593
96114.54
97123.392
98010.174
98758.577
99365.712
99833.499
100175.14
100437.33
100612.64
100698.58
100717.84
100705.71
100659.66
100586.27
100494.5
100437.31
100387.44
100196.73
99950.916
99725.365
99502.293
83417.547
83433.566
83450.598
83474.001
83509.846
83550.513
83608.723
83672.449
83749.288
83846.624
83950.461
84092.296
84238.09
84438.481
84647.817
84925.921
85226.135
85605.128
86024.624
86531.554
87107.674
87802.46
88608.969
89518.646
90510.047
91595.622
92744.856
93926.339
95092.501
96198.342
97203.599
98081.169
98817.807
99412.486
99867.341
100202.01
100466.16
100630.11
100703.48
100722.01
100709.7
100660.85
100575.48
100486.58
100432.11
100372.6
100169.46
99936.873
99723.853
99517.005
83220.922
83237.257
83254.947
83278.965
83316.078
83357.69
83417.339
83482.654
83560.773
83660.953
83766.919
83913.171
84062.491
84269.213
84484.238
84770.125
85076.889
85463.522
85893.588
86419.318
87032.261
87764.051
88594.09
89517.313
90535.877
91647.94
92821.83
94021.421
95197.604
96304.383
97302.663
98167.668
98889.404
99468.575
99908.259
100237.3
100496.64
100648.28
100711.94
100728.15
100714.56
100661.89
100568.96
100474.16
100425.64
100356.49
100147.36
99926.114
99723.04
99551.776
83038.417
83055.267
83073.556
83098.347
83137.322
83180.179
83241.555
83309.313
83389.597
83493.641
83602.616
83754.138
83907.498
84120.765
84341.045
84633.917
84947.458
85344.765
85794.539
86355.412
86998.829
87751.672
88592.536
89542.422
90591.187
91731.596
92929.79
94146.104
95329.716
96434.108
97421.73
98270.596
98974.11
99534.488
99956.776
100280.36
100528.93
100667.58
100722.74
100736.2
100719.96
100663.28
100566.96
100469.33
100417.68
100340.08
100127.45
99907.459
99722.275
99641.305
82878.165
82895.688
82914.714
82940.439
82981.198
83025.518
83088.722
83158.947
83241.225
83349.027
83460.705
83617.465
83774.889
83994.457
84219.63
84520.262
84845.434
85266.616
85745.236
86328.88
86988.765
87753.244
88618.907
89598.074
90678.226
91847.21
93068.909
94300.055
95488.124
96586.509
97559.644
98388.79
99070.825
99609.243
100012.21
100329.75
100563.22
100687.96
100735.1
100745.98
100725.94
100665.32
100566.36
100469.9
100408.36
100321.84
100104.63
99880.406
99712.821
99654.904
82742.384
82760.649
82780.507
82807.304
82849.995
82895.895
82960.853
83033.593
83117.65
83228.878
83342.694
83504.371
83666.109
83892.491
84124.946
84441.16
84787.968
85230.791
85726.978
86321.897
86994.713
87782.878
88675.901
89686.312
90798.232
91995.897
93239.919
94483.57
95672.731
96761.192
97715.866
98521.693
99178.998
99692.43
100074.63
100384.41
100599.55
100709.36
100748.84
100757.19
100732.25
100667.58
100566.36
100470.86
100397.67
100297.67
100078.26
99851.139
99700.254
99603.594
82634.66
82653.67
82674.301
82702.114
82746.596
82793.868
82860.208
82935.365
83021.069
83135.855
83252.199
83419.024
83585.588
83823.474
84070.155
84403.281
84764.153
85219.25
85723.598
86333.112
87028.293
87842.543
88765.659
89808.179
90952.308
92178.245
93442.992
94696.339
95882.841
96957.21
97889.377
98668.322
99297.666
99783.378
100144.3
100442.98
100637.83
100732.59
100763.83
100769.4
100738.72
100669.89
100567.26
100473.21
100386.64
100255.68
100047.87
99821.132
99665.477
99519.552
82550.466
82570.33
82591.859
82620.932
82667.527
82716.514
82784.661
82862.552
82950.42
83069.577
83190.457
83366.385
83540.813
83790.318
84046.738
84390.415
84757.669
85220.673
85741.1
86371.291
87091.29
87934.056
88888.816
89964.592
91141.197
92394.702
93678.142
94937.912
96117.634
97173.536
98079.115
98827.654
99425.802
99881.414
100221.75
100504.11
100677.58
100757.37
100780.38
100782.04
100745.22
100672.07
100567.32
100475.23
100377.01
100153.43
100008.32
99792.398
99648.649
99528.111
82485.835
82506.66
82529.164
82559.567
82608.194
82659.197
82729.839
82811.875
82904.258
83030.778
83157.364
83341.705
83521.75
83778.956
84039.761
84389.328
84767.012
85245.858
85785.24
86438.332
87185.379
88058.316
89046.366
90156.327
91365.489
92645.446
93945.051
95207.498
96375.98
97408.892
98283.814
98998.462
99562.189
99985.76
100306.67
100566.94
100718.17
100782.88
100799.24
100794.88
100751.65
100672.9
100567.04
100475.31
100370.39
100123.87
99944.165
99751.136
99650.864
99550.182
82442.547
82464.438
82488.064
82520.074
82571.192
82624.829
82698.417
82784.913
82880.736
83013.023
83143.251
83333.373
83516.045
83778.411
84046.412
84408.397
84800.416
85297.101
85857.768
86535.584
87311.391
88216.244
89238.987
90383.971
91625.501
92930.379
94243.13
95504.062
96656.558
97661.858
98502.078
99179.364
99705.564
100095.74
100397.64
100631.21
100759.29
100809.27
100820.15
100807.94
100757.93
100673.09
100566
100475.5
100365.91
100140.03
99882.299
99719.5
99647.183
99567.999
82419.926
82442.862
82467.583
82501.215
82554.838
82610.807
82686.093
82775.128
82871.914
83007.342
83139.313
83334.874
83523.712
83796.845
84075.538
84451.849
84860.078
85376.249
85959.821
86663.969
87470.284
88408.64
89467.393
90647.996
91921.364
93249.139
94571.49
95826.286
96957.814
97930.812
98732.306
99368.783
99854.686
100211.06
100492.94
100696.28
100800.74
100836.93
100842.46
100821.13
100763.88
100672.98
100563.94
100475.18
100358.9
100136.18
99870.136
99713.674
99648.548
99584.055
82409.907
82434.109
82460.146
82495.318
82550.998
82608.892
82685.688
82777.82
82876.619
83017.569
83153.041
83356.98
83554.193
83839.544
84130.156
84521.789
84947.399
85484.202
86092.203
86824.262
87662.745
88636.153
89732.074
90948.667
92252.949
93601.087
94928.984
96172.647
97278.021
98213.962
98972.714
99565.035
100008.51
100331.86
100590.5
100761.3
100842.29
100866.58
100865.4
100834.52
100769.35
100671.8
100560.8
100473.25
100347.12
100125.42
99853.298
99711.027
99658.692
99597.511
82419.28
82444.651
82471.902
82508.549
82566.712
82626.485
82705.609
82802.127
82904.567
83052.283
83192.772
83406.176
83611.011
83908.397
84211.368
84618.954
85063.009
85621.664
86255.596
87017.142
87889.439
88899.354
90033.441
91286.086
92619.895
93985.305
95314.182
96541.364
97615.201
98509.254
99221.32
99766.442
100166.3
100458.31
100687.93
100825.56
100884
100898.54
100888.26
100847.83
100774.52
100669.41
100556.4
100468.81
100333.33
100104.11
99835.527
99712.029
99656.072
99609.143
82447.927
82474.672
82503.375
82541.74
82602.728
82665.131
82747.47
82849.219
82955.888
83111.016
83257.321
83480.576
83693.349
84003.166
84319.251
84743.67
85207.36
85789.122
86450.519
87243.134
88150.85
89198.65
90371.711
91660.146
93021.608
94400.639
95725.442
96930.449
97967.143
98814.438
99476.103
99971.596
100327.66
100589.09
100783.5
100888.67
100926.71
100931.87
100910.8
100860.81
100779.67
100666.15
100550.71
100462.68
100316.15
100071.97
99825.46
99712.92
99623.363
99619.206
82499.298
82527.709
82558.328
82598.764
82662.91
82728.641
82814.132
82920.992
83031.25
83193.892
83345.656
83579.099
83800.749
84123.801
84453.965
84896.165
85380.792
85986.998
86677.441
87502.718
88447.428
89534.381
90746.997
92070.545
93457.235
94845.647
96160.831
97337.584
98331.309
99127.116
99735.187
100179.5
100492.4
100721.11
100876.34
100950.48
100971.51
100965.46
100932.8
100873.18
100784.29
100662.25
100543.59
100456.47
100277.07
100028.46
99814.185
99706.57
99615.051
99637.066
82575.289
82605.264
82637.694
82679.973
82747.136
82815.859
82904.089
83016.158
83129.99
83300.538
83457.992
83702.192
83933.344
84270.395
84615.665
85076.696
85583.604
86215.621
86936.7
87796.237
88779.481
89906.754
91159.251
92516.801
93925.716
95318.685
96618.182
97760.176
98705.001
99445.073
99997.144
100389.56
100659.9
100850.96
100965.86
101011.93
101018.12
100998.55
100954.07
100884.63
100787.33
100657.47
100539.46
100451.57
100214.67
99970.5
99797.376
99674.148
99623.684
99720.598
82671.012
82702.837
82737.481
82781.956
82852.407
82924.55
83016.014
83133.914
83251.635
83430.737
83594.264
83849.796
84091.203
84443.069
84804.55
85285.456
85816.035
86475.276
87228.612
88124.022
89147.299
90315.916
91608.301
92998.23
94425.728
95817.791
97094.948
98195.291
99085.544
99766.568
100261.03
100601.09
100827.95
100975.97
101052.04
101074.62
101064.97
101030.92
100974.5
100895.03
100789.02
100654.25
100539.48
100449.63
100218.78
99949.647
99776.032
99664.935
99632.159
99761.64
82789.236
82822.864
82859.711
82906.27
82979.998
83055.53
83150.113
83274.197
83396.002
83584.26
83754.408
84022.005
84274.473
84641.96
85020.752
85522.614
86078.261
86766.155
87553.382
88486.306
89551.072
90761.912
92093.834
93513.987
94955.75
96340.754
97588.283
98639.931
99470.786
100090.57
100526.02
100812.51
100992.36
101095.55
101136.56
101138.07
101111
101062.33
100994.03
100904.82
100790.09
100654.26
100540.55
100448.95
100215.31
99935.831
99763.686
99677.459
99639.753
99701.961
82927.114
82962.729
83002.021
83050.893
83128.038
83207.713
83305.753
83436.876
83563.188
83761.312
83938.609
84218.943
84483.241
84867.105
85264.329
85788.219
86370.381
87088.423
87911.25
88883.349
89991.008
91244.705
92615.4
94062.972
95513.946
96884.926
98094.989
99091.308
99859.396
100416.28
100790.37
101020.34
101150.27
101210.17
101221.52
101200.4
101155.72
101092.57
101012.55
100914.83
100790.95
100654.44
100542.94
100446.07
100195.28
99911.484
99741.332
99706.301
99655.353
99635.131
83086.011
83123.873
83166.013
83217.56
83298.26
83382.716
83484.15
83622.785
83753.679
83962.126
84146.878
84440.482
84717.376
85118.39
85535.215
86082.29
86692.461
87442.215
88302.41
89315.388
90467.26
91764.21
93172.427
94643.92
96098.201
97447.357
98611.856
99547.424
100250.78
100741.93
101050.15
101221.29
101301.28
101322.67
101305
101260.97
101198.84
101121.41
101029.77
100925
100791.57
100654.67
100544.82
100437.21
100161.47
99856.964
99736.96
99702.498
99696.464
99650.708
83267.114
83307.209
83352.213
83406.426
83490.541
83579.996
83684.69
83831.192
83966.784
84186.077
84378.757
84686.252
84976.65
85395.657
85833.337
86404.789
87044.562
87827.737
88727.162
89782.739
90980.004
92320.261
93764.157
95255.244
96705.939
98024.709
99135.956
100007.22
100643.75
101062.86
101301.79
101413.83
101447.68
101432.68
101385.73
101319.34
101240.13
101148.72
101045.38
100932.55
100791.9
100655.9
100545.58
100419.34
100115.86
99841.306
99735.68
99665.866
99685.911
99669.381
83466.861
83509.567
83557.89
83615.245
83702.967
83798.357
83906.438
84061.449
84201.885
84432.691
84633.88
84955.985
85260.87
85698.759
86158.597
86755.744
87426.839
88245.266
89185.864
90285.737
91529.405
92912.634
94389.699
95895.097
97334.26
98613.642
99665.266
100470.09
101033.98
101374.85
101542.8
101599.53
101590.35
101538.54
101463.12
101375.18
101279.38
101174.43
101059.55
100936.18
100792.08
100657.33
100545.73
100390.05
100064.83
99840.306
99728.874
99654.719
99649.395
99690.19
83689.014
83734.07
83785.335
83845.472
83936.369
84037.664
84149.183
84313.068
84458.642
84701.598
84912.041
85249.472
85569.876
86027.549
86510.96
87135.262
87839.575
88695.246
89678.999
90824.794
92115.604
93540.96
95047.832
96561.139
97979.808
99211.017
100198.73
100933.83
101415.58
101674.24
101773.76
101780.52
101727.12
101639.64
101536.81
101428.22
101316.39
101198.49
101073.12
100937.62
100791.51
100657.33
100542.17
100347.89
100016.69
99830.061
99719.356
99664.414
99653.853
99747.672
83926.838
83974.867
84029.884
84093.896
84188.497
84296.373
84411.56
84585.691
84736.793
84992.73
85213.063
85566.504
85903.466
86381.938
86890.529
87543.673
88283.252
89178.239
90207.113
91400.331
92738.719
94204.751
95737.085
97250.659
98639.17
99814.527
100735.71
101392.51
101783.78
101959.58
101998.62
101954.1
101857.38
101735.52
101606.52
101478.23
101350.98
101220.76
101086.66
100938.06
100789.97
100657.12
100533.83
100292.52
99977.095
99813.436
99704.635
99694.498
99662.616
99829.672
84186.52
84237.45
84296.195
84363.988
84461.674
84576.545
84695.072
84879.592
85036.521
85305.759
85536.647
85906.754
86261.543
86762.07
87297.69
87981.534
88758.522
89694.93
90770.835
92012.783
93398.767
94903.239
96455.484
97960.416
99308.99
100422.78
101273.39
101839.44
102135.09
102234.57
102215.42
102119.23
101980.56
101825.87
101672.02
101525.07
101383.02
101241
101099.06
100938.14
100787.14
100655.11
100518.74
100230.51
99943.406
99789.416
99705.907
99718.708
99675.879
99796.277
84464.595
84518.526
84580.993
84652.695
84753.329
84876.272
84998.234
85193.676
85356.857
85640.12
85882.455
86270.217
86644.421
87168.504
87733.138
88449.612
89266.155
90246.076
91370.829
92662.585
94095.703
95635.43
97200.691
98687.014
99986.572
101035.07
101805.02
102269.43
102469.95
102501.13
102421.79
102275.23
102096.35
101910.44
101733.17
101568.61
101412.53
101259.22
101107.12
100937.06
100782.67
100649.28
100495.08
100169.64
99908.794
99759.233
99706.508
99699.091
99729.863
99735.597
84759.16
84816.625
84883.334
84959.699
85063.593
85194.87
85320.7
85527.863
85697.692
85995.886
86250.856
86657.518
87052.921
87602.103
88197.702
88948.728
89806.976
90832.508
92007.799
93350.156
94829.247
96399.869
97969.744
99426.971
100669.93
101649.05
102322.79
102678.6
102792.9
102756.29
102616.85
102421.71
102204.46
101989.08
101789.84
101608.75
101439.56
101276.03
101111.06
100934.51
100776.48
100638.63
100462.25
100113.92
99867.259
99733.824
99699.35
99685.65
99738.142
99744.785
85073.199
85134.186
85204.88
85285.896
85392.913
85532.647
85662.609
85882.018
86059.531
86373.779
86642.929
87069.736
87488.048
88063.735
88692.187
89479.726
90381.874
91455.101
92682.481
94075.854
95598.939
97194.678
98759.412
100177.24
101358.01
102257.66
102821.01
103068.14
103104.61
102997.91
102800.04
102558.36
102304.76
102061.72
101842.01
101645.4
101464.16
101292.13
101112.81
100930.72
100768.84
100623.33
100420.69
100063.47
99830.052
99727.581
99698.413
99689.324
99706.423
99765.517
85403.22
85468.157
85542.965
85629.329
85740.233
85889.551
86024.364
86257.603
86443.807
86775.414
87059.996
87507.865
87950.551
88554.096
89217.36
90043.52
90991.842
92114.818
93395.634
94839.907
96403.895
98017.365
99566.181
100935.26
102049.27
102852.05
103294.97
103442.86
103401.81
103225.12
102970.98
102685.03
102397.17
102128.36
101889.64
101678.54
101486.27
101306.98
101113.52
100926.05
100760.53
100604.24
100372.59
100021.04
99817.457
99725.436
99704.522
99690.839
99708.781
99827.246
85751.518
85820.897
85900.098
85992.842
86108.295
86268.529
86408.76
86656.958
86852.292
87201.754
87502.656
87972.262
88440.862
89073.829
89774.104
90641.179
91637.979
92812.675
94147.995
95642.377
97242.827
98865.022
100386.76
101699.2
102737.52
103425.46
103745.08
103803.73
103682.14
103437.43
103129.49
102801.67
102481.77
102189.06
101932.73
101708.25
101506.04
101317.69
101113.82
100920.97
100752.82
100584.72
100322.04
99993.141
99804.781
99726.161
99729.299
99699.578
99717.24
99885.172
86121.842
86196.035
86279.892
86380.091
86500.093
86671.704
86816.953
87080.267
87284.86
87652.367
87970.72
88463.117
88959.575
89623.875
90363.552
91273.94
92321.49
93549.726
94940.227
96482.968
98113.814
99734.247
101218.05
102467.54
103413.67
103972.04
104176.08
104147.38
103944.72
103634.5
103275.48
102908.37
102558.68
102243.85
101971.22
101734.75
101524.07
101323.06
101113.43
100915.99
100746.99
100568.42
100276.36
99972.3
99791.497
99727.553
99724.633
99742.704
99728.078
99845.209
86514.752
86594.095
86682.799
86790.514
86913.601
87096.783
87246.861
87525.507
87740.45
88126.902
88464.503
88981.222
89507.789
90205.51
90987.05
91943.166
93043.649
94327.059
95772.875
97361.033
99014.439
100621.66
102057.45
103236.62
104068.78
104489.69
104590.9
104470.68
104189.04
103816.23
103409.06
103005.31
102628.01
102292.67
102005.09
101758.38
101541.09
101325.42
101111.51
100911.55
100743.34
100554.12
100231.08
99944.011
99776.325
99727.086
99704.165
99741.019
99744.132
99806.802
86925.658
87010.667
87104.128
87219.129
87345.48
87541.539
87697.42
87992.591
88219.599
88626.511
88985.35
89527.983
90086.919
90820.186
91646.047
92650.285
93805.775
95145.713
96646.237
98275.28
99941.631
101523.85
102902.85
103997.57
104696.14
104982.39
104986.25
104772.66
104414.83
103982.66
103530.43
103092.68
102689.73
102335.43
102034.56
101779.59
101556.2
101326.33
101108.35
100907.89
100740.35
100533.58
100181.33
99912.103
99772.887
99726.691
99706.075
99723.851
99784.952
99819.932
87352.184
87444.312
87543.623
87667.12
87797.41
88008.003
88170.856
88484.116
88724.345
89152.971
89534.857
90104.87
90698.41
91469.392
92342.041
93396.778
94609.227
96006.694
97560.301
99223.908
100892
102437.67
103752.13
104739.81
105290.34
105456.08
105357.76
105052.76
104622.06
104134.03
103639.88
103170.56
102743.73
102372.19
102060.25
101798.87
101564.91
101326.69
101104.23
100904.91
100735.15
100497.73
100125.52
99879.295
99774.652
99731.355
99705.298
99731.192
99827.943
99833.117
87798.884
87899.225
88005.283
88139.337
88273.289
88499.087
88669.63
89001.816
89256.318
89707.536
90114.326
90713.236
91343.69
92154.658
93076.569
94184.168
95455.371
96910.831
98514.503
100204.38
101861.94
103359.93
104598.59
105454.65
105853.72
105908
105704.12
105310.74
104810.89
104270.67
103737.66
103238.95
102790.04
102403.6
102083.26
101816.52
101568.93
101326.23
101099.35
100902.13
100724.83
100441.9
100069.23
99860.501
99779.097
99746.613
99705.623
99745.99
99810.706
99853.787
88272.331
88379.823
88490.432
88636.506
88774.179
89015.569
89194.464
89546.154
89816.419
90291.252
90725.006
91354.473
92024.253
92877.582
93851.264
95014.074
96345.613
97858.735
99507.759
101213.71
102848.16
104288.16
105431.71
106134.81
106391.78
106333.92
106024.71
105546.63
104981.69
104392.98
103823.92
103297.95
102829.41
102431.13
102104.58
101831.38
101570.49
101323.96
101093.74
100898.54
100706.49
100368.93
100023.07
99851.841
99785.77
99744.327
99709.111
99763.342
99809.628
99901.805
88772.966
88886.593
88998.474
89157.757
89300.093
89557.865
89745.838
90118.091
90405.669
90905.408
91368.295
92030.075
92741.689
93639.901
94667.91
95888.243
97281.321
98850.596
100538.22
102248.32
103847.21
105219.24
106239.61
106777.79
106906.13
106730.71
106319.24
105760.68
105134.92
104501.28
103898.8
103348.16
102863.56
102456.41
102123.91
101839.24
101571.06
101319.97
101087.38
100892.69
100677.32
100291.66
99987.713
99845.153
99785.245
99739.109
99716.942
99780.866
99819.853
99944.34
89292.693
89415.714
89532.102
89703.941
89851.622
90126.912
90324.795
90719.017
91025.422
91551.365
92045.621
92741.623
93497.711
94443.508
95528.458
96808.53
98263.743
99886.105
101603.41
103304.65
104855.57
106143.54
107013.87
107387.39
107392.83
107097.54
106587.77
105953.4
105271.09
104595.83
103962.74
103391.12
102894.57
102479.46
102138.05
101842.76
101570.97
101314.45
101080.24
100882.97
100635.3
100223.37
99961.841
99840.732
99781.477
99740.591
99730.215
99797.888
99837.381
99904.257
89836.298
89969.568
90090.544
90276.05
90429.778
90723.969
90932.695
91350.263
91677.074
92230.384
92758.455
93490.852
94294.279
95290.542
96435.042
97776.812
99293.784
100964.18
102700.08
104378.91
105869.64
107048.6
107746.78
107970.34
107846.57
107434
106830.64
106125.34
105390.61
104676.97
104016.94
103428.95
102922.51
102496.07
102145.23
101844.07
101569.15
101307.71
101072.35
100867.95
100577.57
100173.01
99943.101
99834.139
99776.277
99745.273
99748.108
99813.673
99856.713
99876.846
90406.338
90550.538
90676.565
90876.372
91036.413
91350.58
91570.754
92012.615
92361.835
92943.877
93508.553
94279.894
95133.71
96183.408
97389.974
98794.928
100371.93
102083.02
103824.64
105467.17
106883.93
107922.1
108439.57
108523.48
108265.93
107740.16
107048.44
106277.11
105493.87
104745.64
104063.54
103462.75
102942.24
102504.36
102148.27
101844.54
101565.58
101300.01
101063.81
100846.87
100512.03
100132.72
99927.59
99827.087
99775.518
99752.005
99769.892
99831.54
99873.419
99889.831
91002.56
91158.603
91290.064
91505.183
91671.811
92007.192
92239.524
92707.035
93081.227
93693.865
94298.239
95111.327
96018.659
97124.771
98395.676
99864.5
101497.91
103239.96
104973.13
106565.06
107886.41
108754.49
109097.42
109041.78
108650.27
108016.36
107241.84
106409.24
105581.6
104803.77
104104.64
103489.77
102952.01
102507.69
102149.42
101844
101560.31
101291.61
101054.55
100819.8
100444.35
100096.4
99912.618
99823.461
99776.064
99760.905
99804.214
99855.431
99886.914
99904.282
91625.819
91794.43
91931.229
92162.844
92336.485
92694.679
92941.007
93435.702
93837.74
94483.041
95130.31
95988.061
96952.01
98117.436
99454.566
100986.76
102670.7
104431.57
106141.42
107668.16
108863.29
109540.48
109723.31
109521.07
108999.57
108263.25
107411.55
106522.43
105655.38
104853.95
104139.75
103504.21
102955.79
102508.88
102149.63
101841.68
101553.56
101282.62
101043.96
100786.57
100378.67
100063.51
99898.27
99822.842
99785.517
99776.421
99885.397
99901.569
99899.763
99915.53
92274.446
92457.097
92600.106
92850.732
93032.603
93415.764
93677.964
94201.655
94634.304
95314.362
96007.776
96913.19
97936.829
99164.338
100568.92
102162.29
103888.26
105653.73
107324.45
108767.65
109801.62
110282.56
110312.55
109960.3
109314.13
108481.6
107558.32
106617.9
105717.83
104897.51
104162.47
103510.35
102957.09
102508.69
102148.13
101837.6
101545.59
101273.12
101030.5
100743.99
100318.36
100037.42
99892.027
99827.733
99809.893
99804.527
99892.102
99933.848
99930.92
99927.729
92956.799
93154.229
93303.314
93573.895
93763.812
94173.493
94453.788
95007.56
95473.899
96190.881
96933.844
97890.064
98976.393
100268.47
101740.68
103390.85
105147.67
106902.11
108516.78
109849.11
110690.73
110987.91
110858.99
110359.21
109594.63
108672.29
107683.17
106697.88
105771.57
104931.13
104173.55
103512.55
102956.16
102505.99
102144.72
101831.92
101536.77
101263.2
101012.12
100686.87
100267.13
100016.05
99890.613
99843.813
99868.777
99854.527
99882.722
99928.589
99966.324
99944.591
93668.866
93883.52
94039.282
94332.522
94531.577
94970.36
95270.26
95856.401
96359.652
97116.042
97912.064
98922.371
100074.24
101432.79
102971.26
104671.12
106444.93
108171.6
109712.2
110896.37
111528.85
111654.12
111360.07
110718.02
109841.92
108836.36
107787.89
106765.3
105816.34
104949.32
104177.88
103512.18
102951.99
102500.87
102139.46
101824.85
101527.47
101252.95
100987.62
100619.84
100222.69
99997.631
99892.869
99862.254
99876.441
99903.952
99888.672
99933.125
99956.027
99999.487
94416.315
94650.506
94813.986
95131.776
95339.852
95809.399
96131.523
96751.39
97295.279
98093.66
98946.374
100014.07
101233.98
102659.97
104261.19
106000.65
107775.34
109455.88
110897.93
111896.15
112320.38
112275.29
111815.11
111037.37
110057.08
108975.27
107875.39
106822.24
105845.09
104956.95
104178.81
103507.79
102944.71
102493.5
102132.54
101816.64
101517.91
101242.13
100956.94
100548.22
100184.56
99986.637
99900.538
99875.082
99874.041
99896.492
99899.746
99939.514
99961.821
100008.18
95200.841
95456.139
95626.548
95972.52
96190.778
96693.605
97040.779
97696.385
98284.839
99128.129
100041.13
101169.42
102459.23
103952.14
105609.92
107375.81
109133.55
110747.77
112056.97
112839.2
113069.81
112845.47
112224.12
111318.22
110241.45
109091.27
107948.85
106866.44
105859.27
104959.67
104175.52
103499.57
102934.57
102484.12
102124.13
101807.52
101508.13
101229.54
100919.17
100477.07
100152.8
99980.915
99908.26
99885.786
99879.947
99896.673
99911.813
99948.924
99975.909
99976.345
96026.522
96305.475
96482.627
96859.949
97089.36
97627.377
98002.609
98695.747
99333.037
100224.31
101200.99
102392.67
103753.24
105310.53
107015.55
108791.82
110513.09
112038.01
113171.32
113726.59
113771.3
113363.38
112587.64
111561.83
110396.94
109187.57
108009.24
106891.46
105864.96
104958.12
104167.69
103487.8
102921.85
102472.93
102114.47
101797.84
101498.13
101213.06
100869.9
100414.43
100127.32
99977.569
99915.323
99895.919
99888.625
99902.409
99925.296
99962.99
99981.812
99976.956
96898.61
97203.464
97386.484
97797.934
98039.346
98614.48
99021.699
99754.423
100445.11
101387.48
102430.7
103687.94
105118.73
106735.2
108474.77
110242.82
111905.55
113308.52
114226.69
114565.25
114417.15
113828.59
112906.64
111769.81
110526.22
109267.47
108051.3
106902.53
105865.64
104951.2
104155.59
103472.85
102906.84
102460.15
102103.8
101787.98
101488.07
101190.99
100805.31
100365.58
100107.1
99976.25
99922.787
99905.711
99898.383
99911.503
99942.731
99977.778
99985.668
99988.529
97818.227
98152.209
98340.562
98789.766
99045.215
99660.236
100103.99
100878.41
101626.74
102622.96
103734.88
105058.96
106557.56
108224.84
109982.81
111721.82
113301.34
114539.47
115219.18
115352.1
115003.96
114241.55
113182.58
111944.52
110632.76
109331.73
108073.87
106906.35
105860.18
104939.26
104139.67
103455.05
102889.8
102445.98
102092.38
101778.32
101478.17
101163.21
100734.45
100323.57
100090.27
99976.223
99930.954
99915.736
99909.191
99925.633
99964.878
99988.496
99990.739
99995.079
98789.318
99156.826
99350.368
99841.339
100113.8
100771.5
101256.37
102073.64
102883.05
103935.61
105117.85
106509
108070.52
109776.45
111533.29
113219.51
114684.62
115712.18
116152.5
116079.23
115530.77
114603.18
113417.48
112089.27
110719.88
109373.21
108083.63
106903.75
105848.76
104922.77
104120.35
103434.75
102870.96
102430.62
102080.48
101769.05
101467.9
101129.63
100662.02
100286.12
100077.22
99978.24
99939.636
99926.575
99920.902
99944.467
99985.506
99997.94
99999.949
100003.5
99821.386
100226.48
100423.97
100960.04
101252.66
101953.15
102484.09
103345.09
104218.63
105330.28
106583.95
108040.71
109656.9
111385.32
113118.5
114724.73
116033.71
116815
117029.54
116739.92
115997.67
114915.16
113614.17
112207.96
110788.43
109394.26
108085.57
106893.96
105831.91
104902.29
104098.06
103412.26
102850.56
102414.28
102068.36
101760.14
101455.49
101087.71
100593.69
100254.01
100068.48
99982.471
99949.041
99938.487
99934.213
99967.031
100000.7
100026.94
100025.11
100013.9
100920.25
101367.15
101566.91
102150.81
102467.1
103208.91
103791.1
104697.75
105638.77
106812.52
108137.72
109655.86
111314.2
113044.67
114728.47
116223.2
117325.15
117848.21
117841.82
117332.44
116405.54
115179.84
113776.4
112303.67
110830.77
109402.95
108079.33
106877.63
105810.29
104878.32
104073.19
103387.87
102828.8
102397.16
102056.35
101751.5
101438.45
101033.02
100535.56
100228.8
100064.67
99988.881
99959.926
99951.463
99949.528
99986.249
100015.6
100033.56
100049.63
100042.79
102089.49
102582.59
102783.11
103416.58
103760.78
104543.75
105182.88
106138.45
107150.45
108388.75
109783.27
111354.41
113037.51
114745.6
116349.93
117690.43
118540.95
118819.03
118579.37
117856.41
116756.24
115400.6
113908.47
112376.07
110851.57
109403
108065.13
106855.53
105784.55
104851.35
104046.11
103361.86
102805.89
102379.51
102044.82
101743.29
101415.55
100966.75
100489.36
100209.49
100063.62
99997.075
99972.382
99965.56
99970.83
100006.37
100025.43
100028.06
100041.36
100055.05
103333.74
103875.98
104076.16
104760.23
105138.84
105965.01
106668.2
107676.79
108762.06
110065.11
111523.02
113133.71
114819.08
116476.37
117966.51
119099.99
119678.53
119717.63
119239.5
118312.65
117052.55
115581.72
114013.51
112420.21
110859.66
109393.28
108043.86
106828.44
105755.29
104821.84
104017.18
103334.48
102782.01
102361.59
102034.11
101735.59
101386.81
100896.55
100449.65
100193.98
100063.81
100006.38
99985.898
99980.896
100012.32
100028.52
100031.78
100031.93
100042.45
100040.89
104655.53
105249.29
105452.32
106189.32
106611.3
107484.72
108258.91
109323.64
110481.71
111846.08
113356.67
114987.85
116648.08
118221.11
119552.44
120428.8
120743.6
120532.82
119821.34
118703.17
117298.45
115727.96
114090.33
112442.06
110857.34
109374.86
108016.5
106797.15
105723.09
104790.23
103986.7
103305.97
102757.37
102343.61
102024.34
101727.87
101351.98
100826.15
100414.37
100181.83
100065.88
100016.36
99999.788
99995.969
100016.43
100031.66
100038.05
100040.43
100044.49
100043.12
106059.72
106712.35
106930.46
107723.29
108195.38
109116.7
109965.1
111087.07
112315.06
113733.41
115280.5
116907.23
118509.97
119959.88
121077.94
121670.01
121727.06
121259.85
120325.55
119031.25
117498.83
115842.73
114136.67
112449.65
110844.24
109348.85
107983.99
106762.35
105688.49
104756.91
103954.99
103276.53
102732.13
102325.8
102015.33
101718.34
101309.31
100759.78
100383.25
100172.53
100069.29
100026.53
100012.58
100008.83
100018.65
100035.67
100044.83
100048.69
100047.79
100048.53
107580.26
108298.7
108539.47
109383.27
109909.46
110873.73
111795.18
112972.32
114265.36
115725.89
117286.68
118877.89
120385.21
121664.17
122515
122827.13
122616.06
121897.26
120754.43
119301.7
117659.01
115924
114159.69
112445.03
110821.73
109316.48
107947.25
106724.75
105651.98
104722.26
103922.34
103246.39
102706.52
102308.41
102006.8
101704.5
101255.82
100702.22
100356.74
100165.85
100073.68
100035.94
100023.28
100019.75
100026.4
100041.99
100051.35
100054.53
100053.66
100055.13
109235.5
110018.71
110279.98
111170.37
111764.69
112769.87
113758.87
114987.68
116334.48
117817.89
119362.29
120880.9
122249.08
123299.99
123853.26
123890.14
123404.45
122445.66
121111.92
119520.31
117782.83
115972.21
114166.71
112428.59
110791.19
109278.86
107907.12
106684.95
105614.04
104686.64
103888.99
103215.75
102680.75
102291.71
101998.72
101685.03
101192.51
100656.41
100335.35
100161.5
100078.37
100044.14
100032.5
100029.41
100035.45
100049.36
100056.65
100058.61
100058.7
100058.64
111034.19
111882.41
112171.98
113099.67
113757.17
114807.36
115866.02
117138.99
118518.78
119996.82
121487.99
122890.79
124067.42
124835.14