/*--------------------------------*- C++ -*----------------------------------*\
  =========                 |
  \\      /  F ield         | OpenFOAM: The Open Source CFD Toolbox
   \\    /   O peration     | Website:  https://openfoam.org
    \\  /    A nd           | Version:  8
     \\/     M anipulation  |
\*---------------------------------------------------------------------------*/
FoamFile
{
    version     2.0;
    format      ascii;
    class       surfaceScalarField;
    location    "0.210011";
    object      phi;
}
// * * * * * * * * * * * * * * * * * * * * * * * * * * * * * * * * * * * * * //

dimensions      [1 0 -1 0 0 0 0];

internalField   nonuniform List<scalar> 
39600
(
-2.2997701e-06
-0.008249559
0.0083145986
1.9833448e-06
-0.011705257
0.011701569
9.2719593e-06
-0.015533305
0.015526797
1.7382194e-05
-0.020252362
0.020245241
3.4643216e-05
-0.026237198
0.026220755
-8.0600053e-05
-0.033347603
0.033463933
-0.00035205962
-0.040048018
0.040320808
-0.00067790217
-0.048236713
0.048564088
-0.0010653974
-0.057536207
0.057925593
-0.0015260703
-0.069115397
0.069578255
-0.0020732308
-0.082598338
0.083148209
-0.0027283509
-0.099090723
0.099749037
-0.003506549
-0.11852629
0.11930848
-0.0044402671
-0.14207382
0.14301232
-0.0055502553
-0.17002696
0.1711429
-0.006880347
-0.20370096
0.20503826
-0.008463438
-0.24382319
0.24541512
-0.010358864
-0.29199432
0.29390028
-0.01262022
-0.34949061
0.35176504
-0.015329046
-0.41836172
0.42108663
-0.018567049
-0.50060945
0.50386744
-0.022434041
-0.59895201
0.60284517
-0.026986958
-0.71632431
0.72090934
-0.032445502
-0.8565257
0.86202246
-0.039010895
-1.0236517
1.0302636
-0.046919273
-1.222665
1.2306296
-0.056433391
-1.4595431
1.4691226
-0.067872575
-1.7414048
1.7529163
-0.081600363
-2.0768874
2.0906948
-0.097997305
-2.4765379
2.4930327
-0.11748973
-2.9532621
2.9728707
-0.14054131
-3.522812
3.5460001
-0.16768577
-4.2043497
4.2316445
-0.19954135
-5.0210454
5.0530493
-0.23674519
-6.0008458
6.0382153
-0.28001902
-7.1774761
7.2209016
-0.33049865
-8.5895567
8.6402001
-0.38845504
-10.284266
10.342364
-0.45349736
-12.320203
12.385321
-0.52670572
-14.765053
14.838256
-0.6075145
-17.69938
17.780042
-0.69401333
-21.220848
21.307285
-0.78266664
-25.4492
25.537983
-0.8673806
-30.523609
30.60868
-0.93690583
-36.622442
36.692687
-0.97441059
-43.947879
43.982652
-0.95433177
-52.760854
52.73314
-0.83697362
-63.297211
63.162462
-0.54880153
-75.793519
75.52289
-91.027884
90.498041
6.250854e-05
-0.0082617849
7.1027185e-05
-0.011713279
7.8895085e-05
-0.015540455
8.4811061e-05
-0.02025749
9.5209416e-05
-0.026246709
-3.5940413e-05
-0.033215421
-0.00029337884
-0.039789271
-0.00060303727
-0.047925541
-0.00097314562
-0.057164193
-0.0014189966
-0.068667337
-0.0019505613
-0.082063972
-0.002590152
-0.098447829
-0.0033508921
-0.11776145
-0.0042649515
-0.14115482
-0.0053512621
-0.16893452
-0.0066544453
-0.20239033
-0.0082064081
-0.24226221
-0.010069237
-0.2901207
-0.012292122
-0.34725459
-0.014950007
-0.41568762
-0.01812106
-0.49741837
-0.021886729
-0.59516041
-0.026344586
-0.71183449
-0.031702083
-0.85112862
-0.038176673
-1.0171312
-0.045958186
-1.2148272
-0.055325809
-1.4501103
-0.066599559
-1.7300593
-0.080132238
-2.063275
-0.09629516
-2.460276
-0.11549917
-2.9339393
-0.1381934
-3.499979
-0.16489425
-4.1774959
-0.1961996
-4.9895877
-0.23273364
-5.9641416
-0.27521493
-7.1348261
-0.3247831
-8.5398248
-0.38137791
-10.227533
-0.44540905
-12.256096
-0.51730806
-14.693167
-0.59674885
-17.620138
-0.6819506
-21.136288
-0.76949857
-25.359845
-0.85370686
-30.437593
-0.9237003
-36.551773
-0.9635324
-43.910911
-0.94871272
-52.780245
-0.8393858
-63.419334
-0.56690495
-76.133187
-91.540487
5.2697472e-05
-0.0082753674
6.4050883e-05
-0.011723952
7.6840733e-05
-0.015552304
8.9159862e-05
-0.020268619
0.00010161971
-0.026258476
-3.8542812e-05
-0.033074228
-0.00029096508
-0.039535368
-0.0005941304
-0.047620837
-0.00095505464
-0.056801311
-0.0013887172
-0.068231435
-0.001903971
-0.081545904
-0.002523391
-0.097825118
-0.0032586084
-0.1170221
-0.0041423892
-0.14026607
-0.0051926794
-0.167878
-0.0064546139
-0.20112084
-0.0079590013
-0.2407487
-0.009766908
-0.28830186
-0.011917727
-0.34509084
-0.01449362
-0.41309525
-0.017538346
-0.49435228
-0.02116614
-0.59150607
-0.02549518
-0.70747282
-0.030730326
-0.84585456
-0.037038167
-1.0107765
-0.044639082
-1.2071697
-0.053813443
-1.4408706
-0.064882073
-1.7189192
-0.078191238
-2.0498861
-0.094104435
-2.4442629
-0.1130184
-2.9149047
-0.13536946
-3.4774868
-0.16165754
-4.1510526
-0.19246215
-4.9586274
-0.22839321
-5.9280369
-0.27026046
-7.0927759
-0.31886732
-8.4910505
-0.37438594
-10.171884
-0.4374098
-12.193006
-0.50818808
-14.622416
-0.58645448
-17.542181
-0.67056178
-21.05301
-0.75715168
-25.274738
-0.84113749
-30.348783
-0.9118727
-36.479709
-0.95410962
-43.87084
-0.94405541
-52.791244
-0.84358668
-63.524703
-0.58703279
-76.434244
-92.118266
4.1946734e-05
-0.0082892029
5.3457586e-05
-0.011734833
6.6984351e-05
-0.015565043
8.1155357e-05
-0.02028191
8.8465156e-05
-0.026264708
-6.0083231e-05
-0.032924502
-0.00030327057
-0.039290839
-0.00059510526
-0.047327356
-0.00094235704
-0.056452083
-0.0013603038
-0.067811203
-0.0018569392
-0.081046425
-0.0024551722
-0.097223552
-0.003164727
-0.1163084
-0.0040191805
-0.1394066
-0.0050356844
-0.16685524
-0.0062603162
-0.19988864
-0.0077171342
-0.23928257
-0.0094655787
-0.28654242
-0.011545469
-0.34299678
-0.014006748
-0.41061665
-0.016940778
-0.49139686
-0.020455313
-0.58796583
-0.024687198
-0.70320938
-0.029783211
-0.84071937
-0.035931907
-1.0045811
-0.043363583
-1.1996817
-0.052358976
-1.4318101
-0.063237941
-1.7079695
-0.076343146
-2.0367013
-0.092026514
-2.4284792
-0.11067398
-2.8961351
-0.13270699
-3.455311
-0.15861177
-4.1249909
-0.18894784
-4.9281329
-0.22431923
-5.8924891
-0.2655767
-7.0513228
-0.31331654
-8.4431418
-0.36789666
-10.117183
-0.42996036
-12.1309
-0.49973035
-14.552687
-0.57694881
-17.465354
-0.66013365
-20.970873
-0.74589038
-25.190754
-0.8298946
-30.267348
-0.90156766
-36.405425
-0.9465094
-43.825924
-0.94164104
-52.794094
-0.84872286
-63.618437
-0.61049572
-76.703654
-92.72956
3.3008282e-05
-0.0083036484
4.5923466e-05
-0.011746966
6.2244802e-05
-0.01558052
8.1888542e-05
-0.02030055
8.4222665e-05
-0.026266063
-6.9528137e-05
-0.032769463
-0.00030357818
-0.039055265
-0.0005848447
-0.04704432
-0.00092002821
-0.056114728
-0.0013236139
-0.067405157
-0.0018043186
-0.080562721
-0.002384346
-0.096640049
-0.0030701156
-0.11561833
-0.0038980741
-0.13857348
-0.0048820702
-0.16586489
-0.006067707
-0.19869557
-0.007479791
-0.23786124
-0.0091551977
-0.28485517
-0.011139749
-0.3409978
-0.013514552
-0.4082241
-0.016358254
-0.488532
-0.019787005
-0.58451078
-0.023899929
-0.69906415
-0.02886038
-0.83571925
-0.034860118
-0.99853404
-0.042134701
-1.1923503
-0.050966038
-1.4229137
-0.061674064
-1.6971912
-0.074593813
-2.0237019
-0.090069626
-2.4129028
-0.10847326
-2.8776082
-0.13021532
-3.433425
-0.15576656
-4.0992813
-0.18567201
-4.8980667
-0.22051937
-5.8574623
-0.2611942
-7.0104423
-0.30814752
-8.3960162
-0.36189369
-10.063327
-0.42308189
-12.069684
-0.49195761
-14.483866
-0.56827018
-17.389497
-0.65067744
-20.88966
-0.736045
-25.10752
-0.82000225
-30.186485
-0.8928241
-36.328917
-0.94064844
-43.774716
-0.94108269
-52.791116
-0.85443837
-63.695809
-0.63630133
-76.934585
-93.118405
2.3209494e-05
-0.0083182171
3.6493486e-05
-0.011759621
5.4546312e-05
-0.015597866
7.975655e-05
-0.02032478
7.4462396e-05
-0.026259876
-8.2414916e-05
-0.032611282
-0.00030819618
-0.038827994
-0.00057946006
-0.046771275
-0.00090300362
-0.055789082
-0.0012927506
-0.067012951
-0.0017573092
-0.080095123
-0.0023209284
-0.096072856
-0.0029825577
-0.11495229
-0.0037843703
-0.13776658
-0.0047383384
-0.16490454
-0.0058790824
-0.1975468
-0.0072218926
-0.23650864
-0.0088291549
-0.28323604
-0.010743081
-0.33906928
-0.013050005
-0.40590001
-0.01581838
-0.48574239
-0.019142543
-0.58116048
-0.023140556
-0.69503397
-0.027973236
-0.83084691
-0.033834361
-0.99262566
-0.040965316
-1.1851627
-0.049648784
-1.4141655
-0.060204123
-1.6865662
-0.072959726
-2.0108667
-0.08824957
-2.397512
-0.10643395
-2.8592996
-0.12791076
-3.4118034
-0.15313869
-4.0738938
-0.18264672
-4.8683956
-0.21701349
-5.8229121
-0.25715177
-6.9700919
-0.30339548
-8.3495965
-0.35639713
-10.010215
-0.41680307
-12.009267
-0.48488839
-14.415846
-0.56043982
-17.314435
-0.64222476
-20.809108
-0.72744696
-25.024466
-0.81149196
-30.105494
-0.88567212
-36.250763
-0.93665891
-43.713527
-0.94271213
-52.780966
-0.86477643
-63.763691
-0.66388369
-77.130526
-93.299568
1.4510195e-05
-0.0083322423
2.7909854e-05
-0.011772136
4.7188337e-05
-0.015616293
7.793662e-05
-0.020354493
6.2675717e-05
-0.026243585
-9.60263e-05
-0.032451293
-0.0003157814
-0.038606753
-0.00057790148
-0.046507414
-0.0008911559
-0.05547365
-0.0012688785
-0.066632738
-0.0017132093
-0.079647673
-0.002255669
-0.095526809
-0.0028983243
-0.11430519
-0.0036709182
-0.13698849
-0.0045781477
-0.16399059
-0.0056657512
-0.19645111
-0.0069588468
-0.23520572
-0.0085108985
-0.28167241
-0.010376174
-0.33718979
-0.012614799
-0.40364384
-0.015295376
-0.48304028
-0.018519607
-0.57790967
-0.022407118
-0.69111378
-0.027119292
-0.82609456
-0.032853919
-0.9868433
-0.039855185
-1.1781043
-0.048408364
-1.4055478
-0.058830912
-1.6760747
-0.071443151
-1.998175
-0.086570617
-2.3822836
-0.10455954
-2.8411861
-0.12579779
-3.3904199
-0.15073379
-4.0487976
-0.17988224
-4.8390819
-0.21381278
-5.7887902
-0.25345171
-6.9302396
-0.29907603
-8.3037947
-0.35140712
-9.9577734
-0.41112311
-11.949552
-0.47854913
-14.348502
-0.55347351
-17.240009
-0.63479334
-20.729078
-0.71998314
-24.941236
-0.80440128
-30.025252
-0.88010741
-36.17202
-0.93451288
-43.62124
-0.94661339
-52.761076
-0.87892678
-63.82359
-0.69270369
-77.248732
-93.554637
5.4576929e-06
-0.0083456822
1.8628874e-05
-0.0117847
3.85865e-05
-0.015635488
7.4811246e-05
-0.02038993
4.7443773e-05
-0.026215311
-0.00011229703
-0.0322904
-0.00032306274
-0.038394538
-0.00057793767
-0.046250856
-0.00087794148
-0.055171538
-0.0012449001
-0.066263316
-0.0016725919
-0.079216804
-0.002186863
-0.095008763
-0.0027990138
-0.11368842
-0.0035352873
-0.13624669
-0.0044081275
-0.16311099
-0.0054553372
-0.19539596
-0.006710726
-0.23394076
-0.0082236357
-0.28014779
-0.010026864
-0.33537219
-0.012191241
-0.40146199
-0.014787287
-0.48042274
-0.017916633
-0.57475387
-0.021700213
-0.68729759
-0.026300715
-0.82145397
-0.031920725
-0.98117547
-0.038807565
-1.1711604
-0.04724908
-1.3970423
-0.057559393
-1.6656961
-0.070051245
-1.9856038
-0.085038364
-2.3671956
-0.10285734
-2.8232419
-0.12388487
-3.3692469
-0.14855888
-4.0239628
-0.17738325
-4.8100901
-0.21095164
-5.7550191
-0.25011374
-6.8908677
-0.29520746
-8.2585243
-0.34696644
-9.9059134
-0.40604102
-11.89048
-0.47295054
-14.281695
-0.54739076
-17.166057
-0.62841114
-20.649123
-0.71368521
-24.857498
-0.79878243
-29.942539
-0.87607392
-36.093763
-0.93417316
-43.478177
-0.95245
-52.726505
-0.8963884
-63.868803
-0.72478132
-77.433293
-93.938802
-1.3564659e-06
-0.0083596409
1.2855367e-05
-0.011798287
3.3910435e-05
-0.015655755
7.6237903e-05
-0.020431438
3.6075494e-05
-0.026174238
-0.00012389725
-0.032129253
-0.00032593501
-0.038191004
-0.00057440536
-0.046000637
-0.00086065514
-0.054883013
-0.0012070362
-0.06591433
-0.001614305
-0.078806365
-0.0021053958
-0.094513897
-0.0026935954
-0.11309558
-0.0034018422
-0.13553304
-0.0042464472
-0.16225989
-0.0052692323
-0.19436542
-0.0064848417
-0.23271557
-0.0079445785
-0.27867635
-0.0096867005
-0.3336156
-0.011780491
-0.39935049
-0.014295846
-0.47788563
-0.017335014
-0.57168793
-0.02102102
-0.6835786
-0.025520417
-0.81691414
-0.031038422
-0.9756093
-0.037827492
-1.1643141
-0.0461774
-1.3886289
-0.056396675
-1.6554094
-0.068790266
-1.9731313
-0.08366138
-2.3522239
-0.10133469
-2.8054434
-0.12217902
-3.3482571
-0.14662284
-3.9993584
-0.17516711
-4.7813761
-0.20845873
-5.7215177
-0.24716118
-6.8519561
-0.29176344
-8.2137464
-0.34301418
-9.8545557
-0.40164976
-11.831839
-0.46810931
-14.215365
-0.54221589
-17.092413
-0.62310621
-20.569048
-0.70863421
-24.773374
-0.79467505
-29.858642
-0.87404412
-36.016108
-0.93622577
-43.455609
-0.96035909
-52.642013
-0.91662874
-63.864626
-0.76066417
-77.599023
-94.298302
-8.5578104e-06
-0.0083739412
6.1040909e-06
-0.011812425
2.7426978e-05
-0.015676444
7.6017657e-05
-0.020479259
2.5268606e-05
-0.026122732
-0.00012875957
-0.031973982
-0.0003197242
-0.037998545
-0.00055347738
-0.045765118
-0.000827778
-0.054606539
-0.0011622631
-0.065577368
-0.0015559308
-0.078409551
-0.0020325836
-0.094033705
-0.0026010417
-0.11252273
-0.0032929056
-0.13483598
-0.0041107911
-0.1614355
-0.0050958427
-0.19337255
-0.0062689509
-0.23153282
-0.0076784024
-0.27725513
-0.0093618561
-0.3319177
-0.011387188
-0.39730753
-0.01382645
-0.47542473
-0.016781221
-0.56870651
-0.020377799
-0.67994917
-0.024786191
-0.81246543
-0.030217204
-0.9701301
-0.036926355
-1.1575477
-0.045203938
-1.3802883
-0.055354979
-1.6451916
-0.067673029
-1.9607345
-0.082451881
-2.3373446
-0.10000529
-2.7877645
-0.12069411
-3.327423
-0.14493937
-3.9749528
-0.17323802
-4.7529056
-0.20628226
-5.6882581
-0.24459363
-6.8134365
-0.28877811
-8.1693855
-0.33962918
-9.8035931
-0.39793163
-11.773528
-0.46406369
-14.149385
-0.53797311
-17.018922
-0.61891252
-20.488804
-0.70489374
-24.688479
-0.79216049
-29.773464
-0.87418613
-35.937182
-0.94063732
-43.425448
-0.97001422
-52.615262
-0.93967163
-63.905431
-0.80016833
-77.745816
-94.625551
-1.5368766e-05
-0.0083876602
6.9895575e-08
-0.011827201
2.2623455e-05
-0.015698239
7.7870864e-05
-0.020533642
1.9317568e-05
-0.026063168
-0.00012785946
-0.031825621
-0.00031012308
-0.037814842
-0.00053507267
-0.045538583
-0.00079973925
-0.054339851
-0.001126876
-0.065247968
-0.0015099317
-0.078023532
-0.0019807149
-0.093559451
-0.00252892
-0.1119701
-0.0031929341
-0.13416667
-0.0039796467
-0.16064225
-0.0049295754
-0.19241475
-0.0060602017
-0.23039258
-0.007418454
-0.27588513
-0.0090445563
-0.33027708
-0.011005184
-0.39532914
-0.013373283
-0.47303483
-0.016253549
-0.56579942
-0.019772512
-0.67639716
-0.024102395
-0.80809515
-0.02946074
-0.9647235
-0.036108597
-1.1508427
-0.044335578
-1.3719991
-0.054440547
-1.6350208
-0.066706746
-1.9483902
-0.081416994
-2.3225345
-0.098876106
-2.7701802
-0.11943764
-3.3067169
-0.14351723
-3.9507134
-0.17161004
-4.7246372
-0.20443862
-5.6552121
-0.24243256
-6.7752365
-0.28629525
-8.1253462
-0.33682015
-9.752938
-0.39489067
-11.715446
-0.46082618
-14.083605
-0.53470313
-16.945399
-0.6158621
-20.408297
-0.70251496
-24.602482
-0.79126311
-29.686474
-0.8762487
-35.854621
-0.94694493
-43.38087
-0.98263297
-52.603464
-0.96569818
-63.938153
-0.84351338
-77.889804
-94.92044
-1.8532377e-05
-0.0084045024
2.8961181e-07
-0.01184541
2.6067235e-05
-0.015723336
8.6512091e-05
-0.020593431
1.9170208e-05
-0.02599495
-0.0001277028
-0.031677697
-0.00030805614
-0.037633137
-0.00052600098
-0.045319029
-0.00078407634
-0.054079716
-0.0010962702
-0.06493333
-0.0014659018
-0.077650865
-0.0019204682
-0.093101326
-0.0024460528
-0.11144002
-0.0030855798
-0.13352177
-0.0038442807
-0.15987695
-0.0047590705
-0.19149209
-0.0058458792
-0.22929617
-0.0071534837
-0.27456576
-0.0087248072
-0.32869127
-0.010624849
-0.39341144
-0.012928033
-0.47071
-0.015741657
-0.56295916
-0.019196488
-0.67290946
-0.023462842
-0.80378862
-0.028765877
-0.95937229
-0.035371831
-1.1441798
-0.043570334
-1.3637389
-0.053652066
-1.6248738
-0.065890083
-1.9360742
-0.080556132
-2.3077688
-0.097946097
-2.7526651
-0.11840949
-3.2861096
-0.14235743
-3.9266061
-0.17028142
-4.6965323
-0.20293154
-5.6223456
-0.24066487
-6.7373005
-0.28429462
-8.0815449
-0.33459932
-9.7024683
-0.39254672
-11.657485
-0.45841425
-14.017901
-0.53241213
-16.871702
-0.61398114
-20.327098
-0.70152458
-24.5151
-0.79201549
-29.596969
-0.88023882
-35.768663
-0.95421956
-43.32691
-0.99809924
-52.578649
-0.99468292
-63.967836
-0.89038098
-78.015851
-95.182514
-2.4721075e-05
-0.008420691
-6.1009141e-06
-0.01186342
1.9924838e-05
-0.015748705
7.9668344e-05
-0.020652546
3.2793916e-06
-0.025917487
-0.00014391525
-0.031529489
-0.0003180665
-0.037457556
-0.00052864141
-0.045106837
-0.00077474861
-0.053831454
-0.0010752714
-0.064630353
-0.0014293001
-0.077293722
-0.0018632544
-0.092663712
-0.0023707759
-0.11092796
-0.0029882882
-0.13289889
-0.0037192526
-0.15913942
-0.004598666
-0.19060491
-0.0056458709
-0.22823939
-0.0069099616
-0.27328991
-0.0084308911
-0.32715573
-0.010275542
-0.39154899
-0.012518516
-0.46844527
-0.015268432
-0.56018258
-0.018664133
-0.66948088
-0.022884952
-0.79952784
-0.028151996
-0.95405729
-0.034736963
-1.1375383
-0.042929217
-1.3554859
-0.053010879
-1.6147278
-0.065243535
-1.9237645
-0.079889437
-2.2930241
-0.097236787
-2.7351934
-0.11763061
-3.265573
-0.1414829
-3.9025943
-0.16931652
-4.6685109
-0.20179723
-5.5896548
-0.23932516
-6.6995726
-0.28278445
-8.0379102
-0.33305354
-9.6520134
-0.39093176
-11.599577
-0.45687368
-13.952122
-0.53114807
-16.797725
-0.61331749
-20.24506
-0.70197346
-24.426054
-0.79449067
-29.504708
-0.88624031
-35.681126
-0.96304765
-43.262742
-1.0170093
-52.544992
-1.0267364
-63.984275
-0.94095384
-78.079953
-95.411432
-3.0001905e-05
-0.0084372068
-1.0307241e-05
-0.011882676
1.8149192e-05
-0.015776632
7.6920853e-05
-0.020710639
-5.5796772e-06
-0.02583434
-0.0001500232
-0.031383896
-0.00031500743
-0.037291177
-0.00051888214
-0.0449014
-0.00075366117
-0.053594608
-0.0010458626
-0.064335823
-0.0013847598
-0.076951783
-0.0018013767
-0.092243574
-0.0022908049
-0.11043412
-0.0028861025
-0.13229836
-0.0035892877
-0.15842985
-0.004436719
-0.1897498
-0.0054500729
-0.22721658
-0.0066747996
-0.2720534
-0.0081508519
-0.32566508
-0.0099445962
-0.3897375
-0.012133765
-0.46623451
-0.014827507
-0.55746235
-0.018171069
-0.6661047
-0.022357195
-0.79530203
-0.027609897
-0.94875685
-0.03419532
-1.1308965
-0.042404438
-1.3472165
-0.052509824
-1.6045584
-0.064760543
-1.9114368
-0.079410012
-2.2782763
-0.09674064
-2.7177388
-0.1170949
-3.2450769
-0.14088739
-3.8786414
-0.16870312
-4.6405045
-0.20102696
-5.5571259
-0.2384462
-6.6619556
-0.28179858
-7.9943727
-0.33211891
-9.6014924
-0.3900597
-11.541585
-0.45620945
-13.886135
-0.53093084
-16.723309
-0.6138942
-20.162078
-0.70390626
-24.335098
-0.79874719
-29.41009
-0.89425285
-35.589992
-0.97517683
-43.187119
-1.0401549
-52.502423
-1.0606202
-63.982833
-0.99594787
-78.068386
-95.615985
-3.4774582e-05
-0.0084537415
-1.3796852e-05
-0.011903033
1.8096938e-05
-0.015807844
7.5527813e-05
-0.020767372
-1.1073618e-05
-0.025746835
-0.00014856075
-0.031245333
-0.00030586454
-0.037132491
-0.00050279289
-0.044702962
-0.00072951721
-0.053365903
-0.0010124271
-0.064050664
-0.0013390274
-0.076622294
-0.0017413952
-0.091837839
-0.0022132908
-0.10995797
-0.0027863891
-0.13172024
-0.0034635036
-0.15774652
-0.0042829516
-0.18892291
-0.0052641849
-0.22622596
-0.00645083
-0.27085496
-0.0078848428
-0.32421639
-0.0096338822
-0.38797064
-0.011776237
-0.46407055
-0.014425403
-0.55478676
-0.017730102
-0.66276754
-0.021893453
-0.79109941
-0.027148608
-0.94345448
-0.033758652
-1.1242311
-0.042008428
-1.3389078
-0.052159842
-1.5943441
-0.064452503
-1.8990683
-0.07912959
-2.2635019
-0.09646731
-2.700278
-0.1168094
-3.2245938
-0.14057685
-3.8547117
-0.16839346
-4.6124976
-0.20062461
-5.524696
-0.23799418
-6.62439
-0.28139651
-7.9507692
-0.33183158
-9.5508492
-0.38995216
-11.483386
-0.4564611
-13.819777
-0.53179754
-16.648244
-0.61576458
-20.077991
-0.70739319
-24.241169
-0.80482297
-29.313579
-0.90433643
-35.464751
-0.99130267
-43.093948
-1.066221
-52.445389
-1.0958743
-63.948463
-1.0555665
-78.122389
-95.830153
-4.03949e-05
-0.0084692016
-1.9350935e-05
-0.01192343
1.5245285e-05
-0.015841743
6.9196605e-05
-0.020820612
-2.1105542e-05
-0.025655561
-0.00015255951
-0.031112817
-0.00030501908
-0.036978618
-0.00049524142
-0.044511233
-0.0007142311
-0.053144929
-0.00098723973
-0.063775468
-0.0013020997
-0.076304578
-0.0016904158
-0.091446227
-0.0021456777
-0.10949858
-0.0026983377
-0.13116268
-0.0033523002
-0.15708654
-0.0041450969
-0.18812274
-0.0050954149
-0.22526634
-0.0062472307
-0.26969148
-0.0076437152
-0.32280541
-0.0093525405
-0.38624419
-0.011455433
-0.46194623
-0.014070092
-0.55214589
-0.017351274
-0.6594541
-0.021505487
-0.78690621
-0.026781201
-0.93813179
-0.033441675
-1.1175156
-0.041754455
-1.3305367
-0.051976195
-1.5840599
-0.06433258
-1.8866364
-0.079058775
-2.248679
-0.096425997
-2.6827883
-0.11678763
-3.2040915
-0.14058334
-3.8307512
-0.16840887
-4.5844849
-0.20063548
-5.4922752
-0.23798596
-6.5868415
-0.28159925
-7.9069454
-0.33221768
-9.5000161
-0.39064667
-11.424849
-0.45766129
-13.752889
-0.53379279
-16.572526
-0.61897689
-19.992049
-0.71251504
-24.148344
-0.81279733
-29.215928
-0.91665867
-35.365834
-1.0116464
-42.993128
-1.0948892
-52.371582
-1.1365692
-63.858925
-1.1193134
-78.160289
-96.27342
-4.4584354e-05
-0.0084847185
-2.2518338e-05
-0.011944838
1.5980702e-05
-0.015879557
6.5860203e-05
-0.020869763
-2.5563889e-05
-0.025563137
-0.00015302986
-0.030984289
-0.00029993555
-0.036830329
-0.00048372661
-0.044325966
-0.00069469318
-0.052931992
-0.00095803458
-0.063509931
-0.0012616075
-0.075998182
-0.0016369736
-0.091067625
-0.0020753043
-0.10905617
-0.0026085324
-0.13062465
-0.003241743
-0.15644735
-0.0040093569
-0.18734788
-0.0049315422
-0.22433495
-0.0060519019
-0.26855956
-0.0074154109
-0.32142748
-0.0090875864
-0.38455445
-0.011156147
-0.45985631
-0.013746332
-0.5495297
-0.017021532
-0.65614692
-0.021189977
-0.78269937
-0.026507167
-0.93276833
-0.033238138
-1.110731
-0.041638504
-1.3220795
-0.051949523
-1.5736876
-0.064389503
-1.8741219
-0.0791861
-2.2337868
-0.096614438
-2.6652384
-0.11703315
-3.1835324
-0.140941
-3.8066794
-0.16875738
-4.5564847
-0.2010021
-5.4598381
-0.23852718
-6.5491137
-0.28237454
-7.8628832
-0.33328371
-9.4488885
-0.39215619
-11.365841
-0.45983263
-13.68531
-0.53694547
-16.495939
-0.62358996
-19.906449
-0.71932988
-24.054213
-0.82298209
-29.117239
-0.93170753
-35.294156
-1.0346146
-42.912483
-1.1252205
-52.286835
-1.1829277
-63.822202
-1.1869126
-78.174947
-96.321194
-4.898537e-05
-0.0084998377
-2.6680632e-05
-0.011966541
1.5253543e-05
-0.015920853
5.8105165e-05
-0.020911886
-3.3981889e-05
-0.025470148
-0.00015803441
-0.030859219
-0.00029963914
-0.03668734
-0.00047778299
-0.04414635
-0.00068102521
-0.052726785
-0.00093538725
-0.063253418
-0.0012281572
-0.075702609
-0.0015909768
-0.090701602
-0.0020139035
-0.10862923
-0.002529201
-0.13010459
-0.0031427342
-0.15582792
-0.0038873589
-0.186596
-0.0047841583
-0.22342905
-0.0058769423
-0.26745539
-0.0072093778
-0.32008089
-0.0088489448
-0.38289755
-0.010890519
-0.45779366
-0.013467539
-0.54692684
-0.016751728
-0.65283103
-0.02095888
-0.77845397
-0.026340599
-0.92734063
-0.033163693
-1.1038547
-0.041672752
-1.3135145
-0.052091336
-1.5632083
-0.064634515
-1.8615047
-0.079530343
-2.2187956
-0.0970537
-2.6475937
-0.11759361
-3.1628518
-0.1415977
-3.7825139
-0.16948571
-4.5284155
-0.20177459
-5.4273543
-0.23962206
-6.5110608
-0.28374742
-7.8185423
-0.33506736
-9.3973485
-0.39451525
-11.306237
-0.46301649
-13.616899
-0.54131267
-16.418242
-0.62965268
-19.819676
-0.72789402
-23.958092
-0.83525921
-29.016039
-0.94881253
-35.208561
-1.0597634
-42.81933
-1.1591426
-52.184967
-1.2333674
-63.80154
-1.2583423
-78.16874
-96.090786
-5.2181509e-05
-0.008515369
-2.9201296e-05
-0.011988886
1.672928e-05
-0.015966123
5.2145796e-05
-0.020946617
-4.0014346e-05
-0.025377051
-0.00015977276
-0.030738435
-0.00029574928
-0.036549959
-0.00046807438
-0.043972585
-0.00066333902
-0.052529566
-0.00090956866
-0.063005069
-0.001192368
-0.075417053
-0.001542597
-0.090348235
-0.0019515643
-0.10821628
-0.0024513503
-0.1296001
-0.003046771
-0.1552266
-0.0037704651
-0.18586515
-0.00464446
-0.22254604
-0.0057116994
-0.26637687
-0.0070163857
-0.31876216
-0.008632121
-0.3812646
-0.010660764
-0.45574412
-0.013237227
-0.54432482
-0.016543247
-0.64949378
-0.020806582
-0.77415306
-0.0262751
-0.921827
-0.033210724
-1.0968675
-0.041848929
-1.3048221
-0.052399288
-1.5525985
-0.065073842
-1.8487572
-0.080097661
-2.2036774
-0.097777683
-2.6297932
-0.11845228
-3.1420385
-0.14255401
-3.7582538
-0.17047513
-4.5003151
-0.20309734
-5.3945325
-0.24123076
-6.4727204
-0.28573891
-7.7738193
-0.3375708
-9.3452978
-0.39774939
-11.24589
-0.46724444
-13.547508
-0.54692261
-16.339249
-0.63719363
-19.731004
-0.73824909
-23.859951
-0.84962705
-28.911422
-0.96775835
-35.108911
-1.0851749
-42.69931
-1.1987012
-52.063576
-1.2871279
-63.750701
-1.3338866
-78.200611
-96.05689
-5.4496682e-05
-0.0085319137
-3.0368439e-05
-0.012012366
1.9346564e-05
-0.016015152
4.765002e-05
-0.020974211
-4.2277326e-05
-0.025286079
-0.00015863863
-0.030621104
-0.00028961298
-0.036417591
-0.0004570192
-0.04380378
-0.0006452618
-0.052339396
-0.00088422721
-0.062764042
-0.0011581226
-0.075140441
-0.0014971197
-0.090006144
-0.0018933623
-0.10781612
-0.0023786835
-0.1291101
-0.0029579813
-0.15464148
-0.0036630274
-0.18515297
-0.0045176487
-0.2216825
-0.005561351
-0.2653221
-0.0068445681
-0.31746513
-0.0084479462
-0.37964429
-0.010474067
-0.45369735
-0.013065123
-0.54170844
-0.016409237
-0.64611865
-0.020744918
-0.76978
-0.026324051
-0.91620287
-0.033391719
-1.0897488
-0.042177585
-1.2959831
-0.05288882
-1.5418284
-0.06571952
-1.8358538
-0.080934871
-2.188368
-0.09876251
-2.6118458
-0.11958133
-3.1210828
-0.14376115
-3.7339181
-0.1719274
-4.4719683
-0.20487518
-5.3613844
-0.24337322
-6.4340128
-0.28835847
-7.7286198
-0.3408344
-9.2926063
-0.40188311
-11.184664
-0.472546
-13.47694
-0.55381597
-16.258708
-0.64627022
-19.640257
-0.75042993
-23.758699
-0.86605232
-28.802606
-0.98774876
-34.995179
-1.1134844
-42.545023
-1.2413646
-51.954072
-1.346643
-63.626535
-1.4134901
-78.184735
-96.093248
-5.7023741e-05
-0.0085490249
-3.2065634e-05
-0.01203666
2.0102632e-05
-0.01606664
3.940088e-05
-0.020992788
-4.8298179e-05
-0.025197374
-0.00016167124
-0.030506782
-0.0002880531
-0.036289824
-0.00045091218
-0.043639557
-0.00063290701
-0.052155495
-0.00086512298
-0.062529796
-0.0011299649
-0.074872922
-0.0014591338
-0.08967393
-0.001844741
-0.10742663
-0.002316777
-0.12863343
-0.0028815499
-0.15407091
-0.003570379
-0.18445713
-0.0044077254
-0.22083638
-0.0054331838
-0.26428569
-0.0067028714
-0.31618179
-0.0083004116
-0.37802999
-0.010333937
-0.45164345
-0.012953338
-0.5390641
-0.016356791
-0.64268484
-0.020784978
-0.76531519
-0.026494273
-0.91044958
-0.033717629
-1.0824762
-0.042676889
-1.2869724
-0.053570712
-1.5308769
-0.066611424
-1.8227414
-0.082003518
-2.1728836
-0.099999551
-2.5937318
-0.1209477
-3.1
-0.14531588
-3.7093947
-0.17382632
-4.4432781
-0.20712694
-5.3278831
-0.24606937
-6.3948585
-0.29163894
-7.6828363
-0.34487912
-9.2391553
-0.40694506
-11.122424
-0.47896385
-13.405002
-0.56203962
-16.176411
-0.65694353
-19.547564
-0.76449037
-23.654108
-0.8845853
-28.688828
-1.00975
-34.868863
-1.1480195
-42.433796
-1.2854652
-51.828472
-1.4105928
-63.433881
-1.4986678
-78.011162
-96.092075
-5.7651917e-05
-0.0085684042
-3.0404631e-05
-0.012063276
2.4431738e-05
-0.016120823
3.4289976e-05
-0.021001923
-5.1257193e-05
-0.025110834
-0.00016158509
-0.030395525
-0.00028324544
-0.036166789
-0.00044193283
-0.043479519
-0.00061832215
-0.051977224
-0.00084445804
-0.062301668
-0.0011014253
-0.074613309
-0.0014212459
-0.089351098
-0.0017971017
-0.10704693
-0.0022574339
-0.12816852
-0.002810062
-0.15351258
-0.0034853704
-0.18377488
-0.0043068807
-0.22000624
-0.0053192371
-0.26326262
-0.0065833756
-0.31490425
-0.0081830432
-0.37641387
-0.010232915
-0.44957345
-0.012894341
-0.53637799
-0.016376853
-0.63917216
-0.020923037
-0.76073256
-0.026781178
-0.90454748
-0.034185558
-1.0750231
-0.043346126
-1.2777613
-0.054448402
-1.5197172
-0.067717763
-1.8094008
-0.083293284
-2.1572169
-0.10146331
-2.5754456
-0.12256159
-3.0787673
-0.14728395
-3.6845188
-0.17613029
-4.4142524
-0.20984785
-5.293965
-0.24933325
-6.3551602
-0.29559353
-7.6363624
-0.34972231
-9.1848218
-0.41295403
-11.059038
-0.48652146
-13.331517
-0.57163588
-16.092094
-0.6692582
-19.451496
-0.78048076
-23.545827
-0.90541532
-28.568761
-1.0369749
-34.73327
-1.186386
-42.307079
-1.3329829
-51.685151
-1.4784014
-63.30254
-1.5911669
-77.846804
-96.071483
-5.9226137e-05
-0.0085887615
-3.0902376e-05
-0.012090913
2.4362623e-05
-0.016175424
2.3605094e-05
-0.021000403
-5.9868814e-05
-0.025026384
-0.00016808305
-0.030286343
-0.00028637442
-0.036047268
-0.00044146422
-0.043323144
-0.00061261219
-0.051804246
-0.00083288443
-0.062079472
-0.0010832437
-0.074360364
-0.0013952227
-0.089036175
-0.0017625111
-0.10667586
-0.0022126793
-0.12771383
-0.002754753
-0.15296487
-0.0034184424
-0.18310436
-0.004228535
-0.21918764
-0.0052330329
-0.26224753
-0.0064971193
-0.31362693
-0.0081067982
-0.37478797
-0.010183439
-0.44747704
-0.012902743
-0.53363453
-0.016484967
-0.63556056
-0.021173005
-0.75600901
-0.027206432
-0.89847115
-0.034816434
-1.067366
-0.044199198
-1.2683297
-0.055561369
-1.508299
-0.069036925
-1.7958557
-0.084821666
-2.1413426
-0.10311376
-2.5570387
-0.12457328
-3.0571749
-0.149617
-3.6593231
-0.17885948
-4.3848314
-0.2130754
-5.2595489
-0.25318754
-6.3148348
-0.30024818
-7.5890885
-0.35541101
-9.1294608
-0.41996509
-10.99435
-0.49526641
-13.256287
-0.5826429
-16.00552
-0.68326144
-19.352156
-0.79845919
-23.433142
-0.92832548
-28.440966
-1.0686109
-34.590758
-1.2274346
-42.160496
-1.3855362
-51.515869
-1.5504132
-63.163526
-1.6892871
-77.718413
-96.261814
-5.8425196e-05
-0.0086123259
-2.7436583e-05
-0.012121162
2.891483e-05
-0.01623107
1.8618239e-05
-0.020989402
-6.1661506e-05
-0.024945067
-0.00016711832
-0.030180064
-0.00028096337
-0.035931934
-0.00043245816
-0.043170394
-0.00059888016
-0.051635956
-0.00081366181
-0.061862776
-0.0010580031
-0.074113448
-0.0013633479
-0.088727915
-0.001723444
-0.10631202
-0.0021651758
-0.12726763
-0.0026990617
-0.15242539
-0.003352099
-0.18244453
-0.0041551007
-0.21837624
-0.0051584771
-0.26123374
-0.0064281084
-0.31234432
-0.0080551234
-0.37314499
-0.010175757
-0.44533688
-0.012975491
-0.53081083
-0.016678487
-0.63182842
-0.021527763
-0.75112436
-0.02776263
-0.89219352
-0.035603615
-1.0594786
-0.045235238
-1.2586497
-0.056856496
-1.4966224
-0.070550502
-1.7820931
-0.086486946