/*--------------------------------*- C++ -*----------------------------------*\
  =========                 |
  \\      /  F ield         | OpenFOAM: The Open Source CFD Toolbox
   \\    /   O peration     | Website:  https://openfoam.org
    \\  /    A nd           | Version:  8
     \\/     M anipulation  |
\*---------------------------------------------------------------------------*/
FoamFile
{
    version     2.0;
    format      ascii;
    class       pointVectorField;
    location    "0.210011";
    object      pointDisplacement;
}
// * * * * * * * * * * * * * * * * * * * * * * * * * * * * * * * * * * * * * //

dimensions      [0 1 0 0 0 0 0];

internalField   nonuniform List<vector> 
40800
(
(-0.0012694036 0 -0.0010353537)
(-0.001267233 0 -0.00085770633)
(-0.0012670633 0 -0.00085867988)
(-0.0012692532 0 -0.0010401547)
(-0.001267043 0 -0.00085877086)
(-0.0012692342 0 -0.0010403646)
(-0.0012670026 0 -0.00085893188)
(-0.0012691955 0 -0.0010406126)
(-0.0012669331 0 -0.00085914549)
(-0.0012691285 0 -0.0010409285)
(-0.0012668224 0 -0.00085942971)
(-0.0012690213 0 -0.0010413326)
(-0.0012666535 0 -0.0008598095)
(-0.0012688573 0 -0.001041853)
(-0.0012664033 0 -0.00086031936)
(-0.0012686139 0 -0.0010425281)
(-0.0012660402 0 -0.00086100699)
(-0.00126826 0 -0.0010434101)
(-0.0012655215 0 -0.00086193882)
(-0.0012677535 0 -0.0010445709)
(-0.0012647896 0 -0.00086320775)
(-0.001267038 0 -0.0010461095)
(-0.0012637676 0 -0.00086494375)
(-0.0012660377 0 -0.0010481623)
(-0.0012623534 0 -0.00086732941)
(-0.0012646521 0 -0.001050918)
(-0.0012604126 0 -0.00087062125)
(-0.0012627487 0 -0.0010546385)
(-0.0012577701 0 -0.00087517766)
(-0.0012601547 0 -0.0010596847)
(-0.0012542004 0 -0.00088149769)
(-0.0012566472 0 -0.0010665543)
(-0.0012494167 0 -0.00089027279)
(-0.0012519429 0 -0.0010759337)
(-0.0012430621 0 -0.0009024448)
(-0.0012456873 0 -0.0010887468)
(-0.0012346993 0 -0.00091929418)
(-0.0012374456 0 -0.0011062499)
(-0.0012238078 0 -0.00094254292)
(-0.0012266985 0 -0.0011301262)
(-0.0012097871 0 -0.00097445892)
(-0.001212844 0 -0.0011625771)
(-0.0011919785 0 -0.0010179528)
(-0.0011952178 0 -0.0012064242)
(-0.0011697081 0 -0.0010766195)
(-0.0011731341 0 -0.0012651453)
(-0.0011423448 0 -0.0011546975)
(-0.0011459403 0 -0.0013428386)
(-0.0011093977 0 -0.001256791)
(-0.0011131179 0 -0.0014439459)
(-0.0010705921 0 -0.0013874469)
(-0.0010743551 0 -0.0015728575)
(-0.0010259944 0 -0.0015502461)
(-0.0010296858 0 -0.0017329918)
(-0.00097603087 0 -0.0017470556)
(-0.00097950563 0 -0.0019261211)
(-0.00092151328 0 -0.0019768401)
(-0.00092462024 0 -0.0021510986)
(-0.000863517 0 -0.0022350405)
(-0.00086612458 0 -0.0024032355)
(-0.00080329228 0 -0.0025133521)
(-0.00080531237 0 -0.0026741227)
(-0.00074214214 0 -0.0028003019)
(-0.00074353817 0 -0.0029522507)
(-0.00068144325 0 -0.0030820182)
(-0.00068225016 0 -0.0032237463)
(-0.00062245437 0 -0.00334427)
(-0.00062275773 0 -0.003474532)
(-0.00056613088 0 -0.0035749869)
(-0.00056604623 0 -0.0036928899)
(-0.00051308929 0 -0.0037652269)
(-0.00051272338 0 -0.0038703808)
(-0.00046359092 0 -0.0039093612)
(-0.00046303725 0 -0.0040018242)
(-0.00041774722 0 -0.0040038726)
(-0.00041707928 0 -0.0040840486)
(-0.00037535892 0 -0.0040474354)
(-0.0003746287 0 -0.0041159683)
(-0.00033616384 0 -0.0040400092)
(-0.00033540163 0 -0.0040977426)
(-0.00029978063 0 -0.0039825485)
(-0.00029901241 0 -0.004030483)
(-0.00026556288 0 -0.0038730365)
(-0.00026474721 0 -0.0039118079)
(-0.00023394493 0 -0.0037133409)
(-0.00023319768 0 -0.0037441892)
(-0.00020425292 0 -0.0034995601)
(-0.00020354114 0 -0.0035230035)
(-0.00017469391 0 -0.0032242001)
(-0.00017396301 0 -0.0032409246)
(-0.00014524046 0 -0.0028807254)
(-0.00014446258 0 -0.0028909249)
(-0.00011573631 0 -0.0024649969)
(-0.00011493181 0 -0.0024695263)
(-8.7937093e-05 0 -0.0019927914)
(-8.7291116e-05 0 -0.0019944065)
(-6.0000931e-05 0 -0.0014412122)
(-5.9555867e-05 0 -0.0014417196)
(-2.6185015e-05 0 -0.00071278704)
(-2.5583867e-05 0 -0.00070742802)
(0 0 0)
(0 0 0)
(-0.0012644269 0 -0.0006838905)
(-0.0012642602 0 -0.0006848193)
(-0.0012642381 0 -0.00068481816)
(-0.0012641951 0 -0.00068482982)
(-0.001264122 0 -0.00068486473)
(-0.0012640067 0 -0.00068493621)
(-0.0012638316 0 -0.00068506362)
(-0.0012635732 0 -0.00068527499)
(-0.0012631993 0 -0.00068561101)
(-0.0012626663 0 -0.00068613013)
(-0.0012619158 0 -0.00068691671)
(-0.0012608694 0 -0.00068809115)
(-0.0012594236 0 -0.0006898256)
(-0.0012574421 0 -0.00069236497)
(-0.0012547478 0 -0.00069605549)
(-0.0012511122 0 -0.00070138499)
(-0.0012462461 0 -0.00070903476)
(-0.0012397896 0 -0.00071994607)
(-0.0012313035 0 -0.00073540828)
(-0.0012202659 0 -0.00075716614)
(-0.0012060779 0 -0.00078753382)
(-0.0011880868 0 -0.00082949415)
(-0.0011656302 0 -0.00088674775)
(-0.0011380978 0 -0.00096366593)
(-0.0011050251 0 -0.0010650262)
(-0.0010661747 0 -0.001195554)
(-0.001021645 0 -0.001359043)
(-0.00097189309 0 -0.0015575148)
(-0.00091773839 0 -0.0017901262)
(-0.00086023788 0 -0.0020525486)
(-0.00080060556 0 -0.0023366534)
(-0.00074009518 0 -0.002631076)
(-0.00068001762 0 -0.0029219851)
(-0.00062157304 0 -0.0031950672)
(-0.00056569206 0 -0.003437897)
(-0.00051298657 0 -0.0036410545)
(-0.00046373733 0 -0.0037984013)
(-0.00041806235 0 -0.0039060447)
(-0.00037579074 0 -0.00396234)
(-0.00033667414 0 -0.0039669976)
(-0.00030034446 0 -0.0039207356)
(-0.00026620665 0 -0.0038217843)
(-0.00023458643 0 -0.0036716084)
(-0.00020485298 0 -0.0034665252)
(-0.00017536181 0 -0.0031994754)
(-0.00014597736 0 -0.0028638458)
(-0.00011655825 0 -0.0024555203)
(-8.8625246e-05 0 -0.0019876026)
(-6.0471112e-05 0 -0.0014381071)
(-2.6838206e-05 0 -0.00071708365)
(0 0 0)
(-0.0012609993 0 -0.00051382661)
(-0.0012608364 0 -0.00051468484)
(-0.0012608114 0 -0.00051456753)
(-0.0012607644 0 -0.00051444093)
(-0.0012606864 0 -0.00051431029)
(-0.0012605646 0 -0.00051418321)
(-0.0012603812 0 -0.00051407256)
(-0.0012601121 0 -0.00051399962)
(-0.0012597243 0 -0.00051399736)
(-0.0012591735 0 -0.00051411599)
(-0.0012584 0 -0.00051443066)
(-0.0012573243 0 -0.00051505194)
(-0.001255841 0 -0.00051614148)
(-0.0012538117 0 -0.00051793307)
(-0.0012510568 0 -0.00052076209)
(-0.0012473451 0 -0.00052510647)
(-0.0012423842 0 -0.00053164048)
(-0.0012358114 0 -0.000541305)
(-0.0012271851 0 -0.00055539955)
(-0.0012159825 0 -0.00057569473)
(-0.0012016068 0 -0.00060455241)
(-0.001183412 0 -0.00064502978)
(-0.0011607485 0 -0.00070093375)
(-0.0011330288 0 -0.0007767688)
(-0.0010998178 0 -0.00087747593)
(-0.0010609172 0 -0.001007949)
(-0.0010164608 0 -0.0011721665)
(-0.00096693802 0 -0.0013722817)
(-0.0009131754 0 -0.0016076194)
(-0.00085621209 0 -0.0018740529)
(-0.00079722364 0 -0.0021636182)
(-0.00073741173 0 -0.0024650621)
(-0.00067801997 0 -0.0027646137)
(-0.00062018815 0 -0.003047911)
(-0.00056481742 0 -0.0033022337)
(-0.00051251196 0 -0.0035177341)
(-0.00046356828 0 -0.0036877984)
(-0.00041811203 0 -0.0038081656)
(-0.00037599892 0 -0.0038768724)
(-0.00033699608 0 -0.0038933756)
(-0.00030074994 0 -0.0038581593)
(-0.00026671157 0 -0.003769643)
(-0.00023511456 0 -0.0036289375)
(-0.00020536365 0 -0.0034325357)
(-0.0001759475 0 -0.0031737645)
(-0.00014664302 0 -0.0028459759)
(-0.00011731505 0 -0.0024450366)
(-8.9272256e-05 0 -0.0019816303)
(-6.0924329e-05 0 -0.0014345582)
(-2.745525e-05 0 -0.00072074636)
(0 0 0)
(-0.001256971 0 -0.00034743661)
(-0.0012568111 0 -0.00034822061)
(-0.0012567819 0 -0.00034798223)
(-0.0012567296 0 -0.00034771142)
(-0.001256645 0 -0.00034741016)
(-0.0012565148 0 -0.00034708151)
(-0.0012563209 0 -0.00034673302)
(-0.0012560384 0 -0.00034637913)
(-0.0012556338 0 -0.00034604498)
(-0.0012550616 0 -0.00034577189)
(-0.0012542609 0 -0.00034562493)
(-0.0012531506 0 -0.00034570406)
(-0.0012516236 0 -0.00034615953)
(-0.001249539 0 -0.00034721384)
(-0.0012467144 0 -0.00034919158)
(-0.0012429158 0 -0.0003525618)
(-0.0012378473 0 -0.00035799321)
(-0.0012311431 0 -0.00036642778)
(-0.0012223593 0 -0.00037917751)
(-0.0012109724 0 -0.00039804143)
(-0.0011963879 0 -0.00042543154)
(-0.0011779675 0 -0.0004644827)
(-0.0011550765 0 -0.00051910959)
(-0.0011271514 0 -0.00059394984)
(-0.00109379 0 -0.00069409857)
(-0.0010548346 0 -0.00082460634)
(-0.0010104581 0 -0.00098960807)
(-0.00096118279 0 -0.0011913678)
(-0.00090784206 0 -0.0014293543)
(-0.00085145719 0 -0.0016996131)
(-0.00079316289 0 -0.0019943325)
(-0.00073410602 0 -0.0023023724)
(-0.00067546158 0 -0.0026100411)
(-0.00061830772 0 -0.0029029581)
(-0.00056351184 0 -0.0031681649)
(-0.00051166791 0 -0.0033954342)
(-0.00046308455 0 -0.0035777136)
(-0.00041789589 0 -0.0037103833)
(-0.00037598251 0 -0.0037911642)
(-0.00033712844 0 -0.0038192571)
(-0.00030099567 0 -0.0037949152)
(-0.00026707692 0 -0.0037166957)
(-0.00023552787 0 -0.0035853935)
(-0.0002057832 0 -0.0033976429)
(-0.00017645064 0 -0.003147112)
(-0.00014723714 0 -0.0028271516)
(-0.00011800696 0 -0.0024335769)
(-8.9877404e-05 0 -0.0019748882)
(-6.1359067e-05 0 -0.0014305601)
(-2.8037415e-05 0 -0.0007237993)
(0 0 0)
(-0.0012523617 0 -0.00018464376)
(-0.001252203 0 -0.00018535554)
(-0.0012521687 0 -0.00018499821)
(-0.00125211 0 -0.00018458564)
(-0.0012520173 0 -0.00018411567)
(-0.001251877 0 -0.00018358663)
(-0.0012516703 0 -0.00018300059)
(-0.0012513718 0 -0.00018236567)
(-0.001250947 0 -0.00018169976)
(-0.0012503495 0 -0.00018103576)
(-0.0012495169 0 -0.00018042932)
(-0.0012483664 0 -0.00017996987)
(-0.0012467889 0 -0.00017979647)
(-0.001244641 0 -0.00018012034)
(-0.0012417374 0 -0.00018125533)
(-0.0012378405 0 -0.00018366171)
(-0.0012326512 0 -0.00018800346)
(-0.0012258001 0 -0.00019522512)
(-0.0012168409 0 -0.00020665268)
(-0.0012052498 0 -0.00022411677)
(-0.0011904352 0 -0.00025008387)
(-0.0011717676 0 -0.00028777039)
(-0.0011486286 0 -0.00034120103)
(-0.0011204808 0 -0.00041514552)
(-0.0010869577 0 -0.00051484396)
(-0.0010479446 0 -0.00064549033)
(-0.0010036561 0 -0.00081134871)
(-0.00095464778 0 -0.0010147729)
(-0.0009017594 0 -0.001255352)
(-0.00084599373 0 -0.0015292749)
(-0.00078844231 0 -0.0018288685)
(-0.00073019451 0 -0.0021431066)
(-0.00067235569 0 -0.002458392)
(-0.0006159412 0 -0.0027603556)
(-0.00056178148 0 -0.0030358507)
(-0.00051045759 0 -0.0032743189)
(-0.00046228742 0 -0.003468305)
(-0.00041741373 0 -0.0036128448)
(-0.00037574062 0 -0.0037053472)
(-0.00033706989 0 -0.0037447568)
(-0.00030108013 0 -0.0037310989)
(-0.00026730177 0 -0.0036630234)
(-0.00023582491 0 -0.0035410399)
(-0.00020610972 0 -0.0033618957)
(-0.00017687065 0 -0.0031195593)
(-0.00014775918 0 -0.0028074048)
(-0.00011863405 0 -0.0024211708)
(-9.0439852e-05 0 -0.0019673873)
(-6.1773969e-05 0 -0.0014261065)
(-2.8585837e-05 0 -0.00072626382)
(0 0 0)
(-0.0012471858 0 -2.537345e-05)
(-0.0012470285 0 -2.6014028e-05)
(-0.0012469881 0 -2.5538815e-05)
(-0.0012469217 0 -2.4985887e-05)
(-0.0012468195 0 -2.4348834e-05)
(-0.0012466672 0 -2.3621059e-05)
(-0.0012464456 0 -2.2799007e-05)
(-0.0012461285 0 -2.1884426e-05)
(-0.0012456804 0 -2.0887986e-05)
(-0.0012450537 0 -1.9834279e-05)
(-0.0012441846 0 -1.8769814e-05)
(-0.0012429884 0 -1.7774e-05)
(-0.0012413536 0 -1.6975116e-05)
(-0.0012391342 0 -1.6573374e-05)
(-0.0012361418 0 -1.6872128e-05)
(-0.001232135 0 -1.8323127e-05)
(-0.0012268111 0 -2.1586114e-05)
(-0.0012197969 0 -2.760933e-05)
(-0.0012106441 0 -3.7735786e-05)
(-0.0011988285 0 -5.3831865e-05)
(-0.0011837625 0 -7.8423357e-05)
(-0.0011648261 0 -0.00011481236)
(-0.0011414192 0 -0.0001671363)
(-0.0011130325 0 -0.00024029496)
(-0.0010793379 0 -0.00033966407)
(-0.0010402659 0 -0.00047056626)
(-0.00099607526 0 -0.00063736854)
(-0.00094735481 0 -0.00084249388)
(-0.00089495013 0 -0.0010856271)
(-0.00083984416 0 -0.001363074)
(-0.00078308288 0 -0.0016672854)
(-0.00072569566 0 -0.0019873485)
(-0.00066871739 0 -0.0023097752)
(-0.00061309995 0 -0.0026202336)
(-0.0005596341 0 -0.0029054361)
(-0.00050888579 0 -0.0031545384)
(-0.00046117948 0 -0.0033597203)
(-0.00041666656 0 -0.0035156891)
(-0.00037527325 0 -0.0036195477)
(-0.00033681985 0 -0.0036699853)
(-0.00030100232 0 -0.0036668036)
(-0.0002673855 0 -0.0036087054)
(-0.00023600449 0 -0.0034959402)
(-0.00020634169 0 -0.0033253435)
(-0.00017720702 0 -0.0030911477)
(-0.00014820882 0 -0.002786769)
(-0.00011919651 0 -0.0024078482)
(-9.095888e-05 0 -0.0019591408)
(-6.216765e-05 0 -0.0014211944)
(-2.9101532e-05 0 -0.00072816106)
(0 0 0)
(-0.0012414604 0 0.00013044707)
(-0.0012413043 0 0.00012987852)
(-0.0012412566 0 0.00013047311)
(-0.0012411813 0 0.0001311683)
(-0.0012410679 0 0.00013197417)
(-0.0012409018 0 0.00013290167)
(-0.0012406631 0 0.00013395963)
(-0.0012403248 0 0.00013515267)
(-0.0012398502 0 0.00013647738)
(-0.0012391905 0 0.00013791761)
(-0.0012382802 0 0.00013943623)
(-0.0012370326 0 0.00014096412)
(-0.0012353336 0 0.00014238387)
(-0.0012330345 0 0.00014350626)
(-0.001229943 0 0.00014403817)
(-0.0012258143 0 0.00014353598)
(-0.0012203412 0 0.00014134343)
(-0.0012131474 0 0.00013650714)
(-0.001203782 0 0.00012766337)
(-0.0011917216 0 0.00011290358)
(-0.0011763828 0 8.963677e-05)
(-0.0011571564 0 5.4471585e-05)
(-0.0011334623 0 3.1549278e-06)
(-0.0011048216 0 -6.9339996e-05)
(-0.0010709473 0 -0.00016851385)
(-0.0010318171 0 -0.00029980271)
(-0.00098773624 0 -0.00046765078)
(-0.00093932637 0 -0.00067452878)
(-0.00088743776 0 -0.00092019361)
(-0.00083303183 0 -0.0012010429)
(-0.00077710656 0 -0.0015096373)
(-0.00072062897 0 -0.0018351752)
(-0.00066456296 0 -0.0021642903)
(-0.00060979647 0 -0.0024827135)
(-0.00055707861 0 -0.0027770576)
(-0.00050695827 0 -0.0030362368)
(-0.00045976415 0 -0.0032521025)
(-0.00041565594 0 -0.0034190522)
(-0.00037458087 0 -0.00353389)
(-0.00033637805 0 -0.003595053)
(-0.00030076155 0 -0.0036021228)
(-0.00026732767 0 -0.0035538217)
(-0.00023606568 0 -0.0034501585)
(-0.0002064777 0 -0.0032880366)
(-0.00017745926 0 -0.0030619191)
(-0.00014858564 0 -0.0027652773)
(-0.00011969448 0 -0.0023936393)
(-9.1433807e-05 0 -0.0019501622)
(-6.2538849e-05 0 -0.0014158201)
(-2.9585405e-05 0 -0.0007295098)
(0 0 0)
(-0.0012352033 0 0.00028288993)
(-0.0012350477 0 0.00028239166)
(-0.0012349918 0 0.00028310351)
(-0.0012349063 0 0.00028393823)
(-0.0012347803 0 0.00028491016)
(-0.0012345986 0 0.0002860352)
(-0.0012343405 0 0.00028732774)
(-0.0012339781 0 0.00028879868)
(-0.0012334737 0 0.00029045176)
(-0.0012327768 0 0.00029227889)
(-0.0012318203 0 0.00029425198)
(-0.0012305152 0 0.00029631185)
(-0.0012287448 0 0.00029835168)
(-0.0012263569 0 0.00030019302)
(-0.0012231558 0 0.00030155301)
(-0.0012188923 0 0.00030199618)
(-0.0012132552 0 0.00030086987)
(-0.0012058642 0 0.00029721398)
(-0.0011962671 0 0.00028963736)
(-0.0011839413 0 0.00027618015)
(-0.0011683085 0 0.00025418118)
(-0.0011487715 0 0.00022015829)
(-0.001124772 0 0.0001697388)
(-0.0010958637 0 9.7773107e-05)
(-0.0010618031 0 -1.3522303e-06)
(-0.001022618 0 -0.00013317123)
(-0.00097866092 0 -0.00030217925)
(-0.00093058605 0 -0.00051087347)
(-0.00087924707 0 -0.00075906006)
(-0.00082558153 0 -0.0010432058)
(-0.00077053679 0 -0.0013559666)
(-0.00071501545 0 -0.0016866498)
(-0.00065991011 0 -0.0020220227)
(-0.00060604472 0 -0.0023479015)
(-0.00055412527 0 -0.0026508375)
(-0.00050468204 0 -0.002919545)
(-0.0004580459 0 -0.0031455839)
(-0.00041438448 0 -0.0033230616)
(-0.00037366474 0 -0.0034484928)
(-0.00033574489 0 -0.0035200659)
(-0.00030035762 0 -0.0035371475)
(-0.00026712811 0 -0.0034984502)
(-0.00023600783 0 -0.0034037582)
(-0.00020651664 0 -0.003250025)
(-0.00017762695 0 -0.0030319152)
(-0.00014888941 0 -0.0027429633)
(-0.00012012812 0 -0.0023785739)
(-9.186397e-05 0 -0.0019404656)
(-6.2886323e-05 0 -0.0014099826)
(-3.0038268e-05 0 -0.00073032875)
(0 0 0)
(-0.001228432 0 0.00043202515)
(-0.0012282757 0 0.00043159671)
(-0.0012282104 0 0.00043242563)
(-0.0012281134 0 0.00043339955)
(-0.0012279732 0 0.00043453705)
(-0.0012277739 0 0.0004358589)
(-0.0012274941 0 0.0004373851)
(-0.0012271047 0 0.00043913297)
(-0.0012265668 0 0.00044111357)
(-0.0012258284 0 0.00044332686)
(-0.0012248204 0 0.00044575374)
(-0.0012234514 0 0.00044834488)
(-0.0012216018 0 0.00045100384)
(-0.001219116 0 0.00045356299)
(-0.0012157942 0 0.00045574982)
(-0.0012113825 0 0.00045713771)
(-0.0012055653 0 0.00045707806)
(-0.0011979589 0 0.00045460394)
(-0.0011881104 0 0.00044828373)
(-0.001175499 0 0.00043609117)
(-0.0011595517 0 0.00041529426)
(-0.0011396839 0 0.00038232294)
(-0.001115362 0 0.00033267822)
(-0.0010861739 0 0.00026109338)
(-0.0010519226 0 0.00016185781)
(-0.0010126883 0 2.9353476e-05)
(-0.00096887151 0 -0.00014093945)
(-0.00092115818 0 -0.00035152331)
(-0.00087040357 0 -0.00060223248)
(-0.00081751883 0 -0.00088958223)
(-0.00076339785 0 -0.0012063097)
(-0.00070887692 0 -0.0015418275)
(-0.00065477746 0 -0.0018830478)
(-0.00060185958 0 -0.0022158934)
(-0.00055078531 0 -0.0025268881)
(-0.00050206499 0 -0.0028045856)
(-0.00045603002 0 -0.0030402899)
(-0.00041285533 0 -0.0032278399)
(-0.00037252659 0 -0.0033634707)
(-0.00033492113 0 -0.0034451278)
(-0.00029979059 0 -0.0034719677)
(-0.0002667869 0 -0.0034426686)
(-0.00023583048 0 -0.0033568033)
(-0.00020645752 0 -0.0032113597)
(-0.00017770967 0 -0.003001178)
(-0.0001491198 0 -0.0027198608)
(-0.00012049756 0 -0.0023626825)
(-9.2248801e-05 0 -0.001930066)
(-6.3208934e-05 0 -0.0014036806)
(-3.0460866e-05 0 -0.00073063482)
(0 0 0)
(-0.0012211606 0 0.00057792104)
(-0.0012210029 0 0.00057756183)
(-0.0012209272 0 0.00057850742)
(-0.0012208173 0 0.00057962018)
(-0.0012206612 0 0.00058092298)
(-0.0012204423 0 0.0005824415)
(-0.0012201383 0 0.00058420142)
(-0.0012197189 0 0.00058622635)
(-0.001219144 0 0.00058853462)
(-0.0012183597 0 0.00059113415)
(-0.0012172949 0 0.00059401466)
(-0.0012158556 0 0.00059713648)
(-0.001213919 0 0.0006004137)
(-0.0012113257 0 0.00060368981)
(-0.0012078713 0 0.0006067035)
(-0.0012032973 0 0.00060903823)
(-0.001197283 0 0.00061005224)
(-0.0011894415 0 0.00060877803)
(-0.0011793219 0 0.00060371014)
(-0.001166406 0 0.00059273091)
(-0.0011501242 0 0.00057305602)
(-0.0011299064 0 0.00054103663)
(-0.0011052462 0 0.00049203137)
(-0.0010757683 0 0.00042066464)
(-0.001041324 0 0.00032114975)
(-0.0010020491 0 0.00018779379)
(-0.00095839178 0 1.6082212e-05)
(-0.0009110685 0 -0.00019647163)
(-0.00086093434 0 -0.00044971133)
(-0.00080887082 0 -0.0007401831)
(-0.00075571551 0 -0.0010606914)
(-0.00070223669 0 -0.0014007502)
(-0.00064918502 0 -0.0017474269)
(-0.00059725733 0 -0.0020867705)
(-0.00054707119 0 -0.0024053076)
(-0.00049911624 0 -0.0026914678)
(-0.00045372281 0 -0.0029363351)
(-0.00041107264 0 -0.0031335009)
(-0.00037116898 0 -0.0032789321)
(-0.0003339082 0 -0.0033703378)
(-0.0002990611 0 -0.0034066702)
(-0.00026630441 0 -0.0033865521)
(-0.00023553348 0 -0.0033093562)
(-0.00020629972 0 -0.003172091)
(-0.00017770718 0 -0.0029697492)
(-0.00014927671 0 -0.002696004)
(-0.00012080296 0 -0.0023459943)
(-9.2587766e-05 0 -0.0019189795)
(-6.3505576e-05 0 -0.0013969149)
(-3.0853829e-05 0 -0.00073044433)
(0 0 0)
(-0.0012134028 0 0.00072064444)
(-0.0012132446 0 0.00072035505)
(-0.0012131572 0 0.00072141863)
(-0.0012130329 0 0.00072267209)
(-0.0012128591 0 0.00072414223)
(-0.0012126185 0 0.00072585925)
(-0.0012122876 0 0.00072785407)
(-0.0012118353 0 0.00073015646)
(-0.0012112196 0 0.00073279172)
(-0.0012103851 0 0.00073577589)
(-0.0012092581 0 0.00073910776)
(-0.0012077419 0 0.00074275772)
(-0.0012057102 0 0.00074665091)
(-0.0012029993 0 0.00075064275)
(-0.0011994001 0 0.00075448416)
(-0.0011946485 0 0.00075777024)
(-0.0011884186 0 0.00075986607)
(-0.0011803259 0 0.00075974159)
(-0.0011699228 0 0.00075582241)
(-0.0011566871 0 0.00074596098)
(-0.0011400519 0 0.00072731457)
(-0.0011194646 0 0.0006961572)
(-0.0010944452 0 0.00064775237)
(-0.0010646629 0 0.00057652436)
(-0.0010300256 0 0.00047655245)
(-0.00099072152 0 0.00034216864)
(-0.00094724583 0 0.00016889769)
(-0.00090034341 0 -4.5711758e-05)
(-0.00085086705 0 -0.00030149596)
(-0.00079966523 0 -0.00059501644)
(-0.00074751612 0 -0.00091913216)
(-0.0006951186 0 -0.001263453)
(-0.00064315339 0 -0.001615213)
(-0.00059225485 0 -0.0019606051)
(-0.0005429961 0 -0.002286185)
(-0.00049584553 0 -0.002580293)
(-0.00045113123 0 -0.0028338267)
(-0.00040904107 0 -0.0030401528)
(-0.00036959486 0 -0.0031949811)
(-0.00033270781 0 -0.0032957923)
(-0.00029817002 0 -0.0033413404)
(-0.00026568125 0 -0.0033301759)
(-0.00023511684 0 -0.0032614799)
(-0.00020604267 0 -0.0031322702)
(-0.00017761922 0 -0.0029376712)
(-0.00014935993 0 -0.002671427)
(-0.00012104444 0 -0.0023285398)
(-9.2880369e-05 0 -0.001907222)
(-6.3775237e-05 0 -0.0013896866)
(-3.121778e-05 0 -0.00072977325)
(0 0 0)
(-0.0012051777 0 0.00086026141)
(-0.0012050159 0 0.00086004113)
(-0.0012049156 0 0.00086122259)
(-0.0012047755 0 0.00086261668)
(-0.0012045822 0 0.00086425417)
(-0.0012043176 0 0.00086616973)
(-0.0012039574 0 0.00086839939)
(-0.0012034689 0 0.00087097898)
(-0.0012028087 0 0.00087394062)
(-0.0012019193 0 0.00087730837)
(-0.0012007245 0 0.00088109016)
(-0.0011991245 0 0.00088526673)
(-0.0011969892 0 0.00088977493)
(-0.0011941501 0 0.00089448282)
(-0.0011903928 0 0.00089915528)
(-0.0011854475 0 0.00090339943)
(-0.0011789898 0 0.00090652502)
(-0.0011706415 0 0.00090739005)
(-0.0011599458 0 0.00090444636)
(-0.001146372 0 0.00089558422)
(-0.0011293623 0 0.00087787438)
(-0.0011083828 0 0.00084749357)
(-0.0010829809 0 0.00079967114)
(-0.0010528771 0 0.00072861346)
(-0.0010180463 0 0.00062809163)
(-0.00097872809 0 0.00049249489)
(-0.00093545886 0 0.00031751924)
(-0.00088901043 0 0.00010076518)
(-0.00084023052 0 -0.00015758043)
(-0.00078993083 0 -0.00045408265)
(-0.00073882703 0 -0.00078164248)
(-0.0006875474 0 -0.0011299599)
(-0.00063670406 0 -0.0014864468)
(-0.00058686995 0 -0.0018374562)
(-0.00053857409 0 -0.0021695967)
(-0.00049226347 0 -0.0024711507)
(-0.000448263 0 -0.002732862)
(-0.000406766 0 -0.0029478951)
(-0.00036780781 0 -0.0031117151)
(-0.00033132227 0 -0.0032215822)
(-0.00029711867 0 -0.00327606)
(-0.00026491829 0 -0.0032736121)
(-0.00023458085 0 -0.0032132357)
(-0.00020568609 0 -0.0030919474)
(-0.00017744567 0 -0.0029049857)
(-0.00014936941 0 -0.0026461642)
(-0.0001212221 0 -0.0023103481)
(-9.3126152e-05 0 -0.0018948108)
(-6.4016933e-05 0 -0.0013819982)
(-3.1553213e-05 0 -0.00072863627)
(0 0 0)
(-0.0011964945 0 0.00099683559)
(-0.0011963307 0 0.00099668528)
(-0.0011962164 0 0.00099798554)
(-0.0011960589 0 0.00099952098)
(-0.0011958444 0 0.0010013256)
(-0.0011955539 0 0.0010034385)
(-0.0011951618 0 0.0010059008)
(-0.0011946342 0 0.0010087547)
(-0.0011939259 0 0.0010120396)
(-0.001192977 0 0.0010157882)
(-0.0011917086 0 0.0010200178)
(-0.0011900176 0 0.0010247197)
(-0.0011877696 0 0.0010298422)
(-0.0011847911 0 0.0010352666)
(-0.0011808616 0 0.0010407751)
(-0.0011757116 0 0.0010459403)
(-0.0011690241 0 0.0010499702)
(-0.0011604114 0 0.0010517285)
(-0.0011494012 0 0.0010497177)
(-0.0011354648 0 0.0010417902)
(-0.0011180565 0 0.0010249414)
(-0.0010966625 0 0.00099523391)
(-0.0010708656 0 0.00094779584)
(-0.001040435 0 0.00087678113)
(-0.0010054098 0 0.00077570057)
(-0.00096609178 0 0.00063878581)
(-0.00092305679 0 0.00046195777)
(-0.00087709777 0 0.00024296973)
(-0.00082905419 0 -1.7955569e-05)
(-0.00077969698 0 -0.00031737736)
(-0.00072967606 0 -0.00064822672)
(-0.00067954832 0 -0.0010002867)
(-0.00062985899 0 -0.0013611594)
(-0.00058112094 0 -0.0017173733)
(-0.00053381978 0 -0.002055609)
(-0.00048838125 0 -0.0023641209)
(-0.00044512639 0 -0.0026335298)
(-0.00040425329 0 -0.002856821)
(-0.00036581185 0 -0.0030292261)
(-0.00032975416 0 -0.0031477951)
(-0.00029590863 0 -0.0032109087)
(-0.00026401663 0 -0.003216932)
(-0.00023392594 0 -0.0031646846)
(-0.0002052298 0 -0.0030511734)
(-0.00017718642 0 -0.0028717348)
(-0.00014930502 0 -0.0026202501)
(-0.00012133605 0 -0.002291449)
(-9.3324694e-05 0 -0.0018817628)
(-6.4229781e-05 0 -0.0013738531)
(-3.1860614e-05 0 -0.00072704757)
(0 0 0)
(-0.0011873715 0 0.0011304303)
(-0.0011872045 0 0.0011303466)
(-0.001187075 0 0.0011317614)
(-0.0011868991 0 0.0011334328)
(-0.0011866619 0 0.0011353997)
(-0.0011863435 0 0.0011377061)
(-0.0011859169 0 0.0011403992)
(-0.0011853468 0 0.0011435273)
(-0.001184586 0 0.0011471368)
(-0.0011835724 0 0.001151268)
(-0.0011822242 0 0.0011559469)
(-0.0011804344 0 0.0011611741)
(-0.0011780644 0 0.0011669082)
(-0.0011749352 0 0.0011730406)
(-0.0011708228 0 0.0011793603)
(-0.0011654642 0 0.0011853646)
(-0.001158538 0 0.0011902326)
(-0.0011496381 0 0.0011928981)
(-0.0011382875 0 0.0011918318)
(-0.0011239638 0 0.0011848079)
(-0.001106133 0 0.0011687527)
(-0.0010843059 0 0.0011396083)
(-0.0010581064 0 0.0010923373)
(-0.0010273545 0 0.0010210539)
(-0.00099213846 0 0.00091931233)
(-0.000952834 0 0.00078105316)
(-0.00091006683 0 0.00060222379)
(-0.00086463479 0 0.0003809149)
(-0.00081736858 0 0.00011739279)
(-0.00076899394 0 -0.00018488917)
(-0.00072009182 0 -0.00051888051)
(-0.00067114719 0 -0.00087443902)
(-0.00062264075 0 -0.0012393709)
(-0.00057502679 0 -0.0016003936)
(-0.00052874844 0 -0.0019442763)
(-0.00048421076 0 -0.0022592719)
(-0.00044173035 0 -0.0025359086)
(-0.00040150948 0 -0.0027670142)
(-0.00036361154 0 -0.0029475991)
(-0.00032800662 0 -0.0030745124)
(-0.00029454193 0 -0.0031459615)
(-0.00026297765 0 -0.0031602033)
(-0.00023315284 0 -0.0031158855)
(-0.00020467392 0 -0.0030099974)
(-0.00017684156 0 -0.00283796)
(-0.00014916686 0 -0.002593719)
(-0.00012138642 0 -0.0022718717)
(-9.3475618e-05 0 -0.0018680962)
(-6.4412913e-05 0 -0.0013652555)
(-3.2140408e-05 0 -0.00072502147)
(0 0 0)
(-0.001177823 0 0.0012611067)
(-0.0011776506 0 0.0012610905)
(-0.0011775047 0 0.0012626215)
(-0.0011773086 0 0.0012644308)
(-0.0011770466 0 0.0012665614)
(-0.0011766978 0 0.0012690621)
(-0.0011762339 0 0.0012719855)
(-0.0011756179 0 0.0012753862)
(-0.0011748006 0 0.0012793178)
(-0.0011737172 0 0.0012838285)
(-0.0011722829 0 0.0012889532)
(-0.0011703868 0 0.0012947023)
(-0.0011678854 0 0.0013010449)
(-0.0011645943 0 0.001307884)
(-0.0011602923 0 0.0013149598)
(-0.0011547181 0 0.0013217367)
(-0.0011475347 0 0.0013274468)
(-0.0011383249 0 0.0013310196)
(-0.0011266118 0 0.0013308637)
(-0.0011118769 0 0.0013246973)
(-0.0010936005 0 0.0013093673)
(-0.0010713231 0 0.0012806758)
(-0.0010447119 0 0.001233425)
(-0.0010136428 0 0.0011616174)
(-0.00097825197 0 0.001058945)
(-0.00093898444 0 0.00091923137)
(-0.00089651707 0 0.00073832653)
(-0.00085165149 0 0.00051461412)
(-0.00080520472 0 0.0002484806)
(-0.00075785238 0 -5.6603681e-05)
(-0.00071010317 0 -0.00039359525)
(-0.00066237536 0 -0.00075249097)
(-0.00061508318 0 -0.0011212574)
(-0.0005686169 0 -0.001486714)
(-0.0005233842 0 -0.0018358008)
(-0.00047977094 0 -0.0021568023)
(-0.00043808737 0 -0.002440139)
(-0.00039854141 0 -0.0026785534)
(-0.00036121175 0 -0.002866914)
(-0.000326083 0 -0.0030018123)
(-0.00029302079 0 -0.0030812915)
(-0.00026180291 0 -0.003103493)
(-0.00023226238 0 -0.0030668968)
(-0.00020401861 0 -0.0029684688)
(-0.00017641116 0 -0.0028037027)
(-0.00014895489 0 -0.0025666053)
(-0.00012137331 0 -0.002251646)
(-9.3578563e-05 0 -0.0018538292)
(-6.4565537e-05 0 -0.0013562105)
(-3.2392964e-05 0 -0.00072257093)
(0 0 0)
(-0.0011678576 0 0.0013889249)
(-0.0011676811 0 0.001388976)
(-0.0011675173 0 0.0013906235)
(-0.0011672994 0 0.0013925711)
(-0.0011670108 0 0.0013948658)
(-0.0011666292 0 0.001397561)
(-0.0011661251 0 0.0014007147)
(-0.0011654597 0 0.0014043875)
(-0.0011645816 0 0.0014086402)
(-0.0011634232 0 0.001413529)
(-0.0011618964 0 0.0014190974)
(-0.001159886 0 0.0014253655)
(-0.0011572433 0 0.0014323121)
(-0.0011537809 0 0.0014398512)
(-0.0011492832 0 0.0014476504)
(-0.0011434805 0 0.0014551761)
(-0.0011360201 0 0.0014617173)
(-0.0011264802 0 0.0014661612)
(-0.0011143818 0 0.0014668749)
(-0.0010992114 0 0.0014615172)
(-0.0010804667 0 0.0014468466)
(-0.0010577237 0 0.0014184942)
(-0.0010306953 0 0.0013711019)
(-0.00099931337 0 0.0012985719)
(-0.00096377653 0 0.0011946159)
(-0.00092457529 0 0.0010532549)
(-0.00088243456 0 0.00087027653)
(-0.0008381789 0 0.0006440865)
(-0.00079259456 0 0.00037533132)
(-0.00074630366 0 6.7502001e-05)
(-0.00069974813 0 -0.00027244367)
(-0.00065327738 0 -0.00063463141)
(-0.00060722581 0 -0.0010070332)
(-0.00056192386 0 -0.0013765584)
(-0.00051775331 0 -0.0017304023)
(-0.00047508205 0 -0.0020569229)
(-0.00043421245 0 -0.0023464189)
(-0.00039535875 0 -0.0025915733)
(-0.00035861788 0 -0.0027872438)
(-0.00032398711 0 -0.0029297668)
(-0.00029134784 0 -0.0030169673)
(-0.00026049427 0 -0.0030468644)
(-0.00023125566 0 -0.0030177749)
(-0.00020326431 0 -0.0029266359)
(-0.00017589546 0 -0.0027690041)
(-0.00014866927 0 -0.0025389437)
(-0.00012129685 0 -0.0022308007)
(-9.3633193e-05 0 -0.0018389805)
(-6.4686887e-05 0 -0.0013467241)
(-3.2618631e-05 0 -0.00071970966)
(0 0 0)
(-0.0011574914 0 0.0015139436)
(-0.0011573083 0 0.0015140616)
(-0.0011571254 0 0.0015158256)
(-0.0011568841 0 0.0015179115)
(-0.0011565667 0 0.0015203704)
(-0.0011561499 0 0.0015232601)
(-0.0011556027 0 0.001526644)
(-0.0011548843 0 0.0015305888)
(-0.0011539409 0 0.0015351622)
(-0.0011527022 0 0.0015404282)
(-0.0011510762 0 0.0015464394)
(-0.0011489432 0 0.001553226)
(-0.001146149 0 0.0015607788)
(-0.0011425093 0 0.0015689723)
(-0.0011378082 0 0.0015774613)
(-0.0011317611 0 0.0015857419)
(-0.0011240045 0 0.0015930917)
(-0.0011141127 0 0.0015983751)
(-0.0011016046 0 0.001599922)
(-0.0010859737 0 0.0015953227)
(-0.0010667463 0 0.0015811651)
(-0.001043534 0 0.0015529436)
(-0.0010160877 0 0.0015052309)
(-0.00098439495 0 0.0014318591)
(-0.00094873034 0 0.0013264132)
(-0.00090962387 0 0.0011832126)
(-0.00086784608 0 0.00099809251)
(-0.00082424857 0 0.00076935158)
(-0.00077957913 0 0.00049788117)
(-0.00073440092 0 0.00018724637)
(-0.00068908169 0 -0.00015564916)
(-0.00064389259 0 -0.00052096496)
(-0.00059908868 0 -0.00089663851)
(-0.00055496183 0 -0.0012698476)
(-0.00051186625 0 -0.001628008)
(-0.00047015202 0 -0.0019595805)
(-0.0004301153 0 -0.0022548106)
(-0.00039197134 0 -0.0025062088)
(-0.00035583505 0 -0.0027086575)
(-0.0003217229 0 -0.0028584439)
(-0.00028952582 0 -0.0029530544)
(-0.00025905367 0 -0.0029903792)
(-0.00023013386 0 -0.002968575)
(-0.00020241148 0 -0.0028845465)
(-0.00017529471 0 -0.002733905)
(-0.00014831009 0 -0.0025107683)
(-0.00012115716 0 -0.0022093654)
(-9.3639253e-05 0 -0.0018235695)
(-6.477627e-05 0 -0.0013368029)
(-3.281769e-05 0 -0.0007164496)
(0 0 0)