/*--------------------------------*- C++ -*----------------------------------*\
  =========                 |
  \\      /  F ield         | OpenFOAM: The Open Source CFD Toolbox
   \\    /   O peration     | Website:  https://openfoam.org
    \\  /    A nd           | Version:  8
     \\/     M anipulation  |
\*---------------------------------------------------------------------------*/
FoamFile
{
    version     2.0;
    format      ascii;
    class       volScalarField;
    location    "0.210011";
    object      rho;
}
// * * * * * * * * * * * * * * * * * * * * * * * * * * * * * * * * * * * * * //

dimensions      [1 -3 0 0 0 0 0];

internalField   nonuniform List<scalar> 
20000
(
0.97665808
0.97802029
0.98216872
0.99075789
1.0073266
1.0309693
1.0345187
1.0361505
1.0350717
1.03637
1.0361264
1.0374579
1.037899
1.0395164
1.0406788
1.0428298
1.0448715
1.0478263
1.050973
1.0549915
1.0594764
1.0649582
1.0714365
1.078829
1.0870599
1.0960182
1.1055486
1.1153868
1.1251319
1.1344097
1.14287
1.1502761
1.1565044
1.1615496
1.1654356
1.1682898
1.1705209
1.1719723
1.1726518
1.1728249
1.1727456
1.1723615
1.1717346
1.1709784
1.1705462
1.170126
1.1683855
1.1664061
1.1643727
1.162537
0.9740731
0.97577016
0.98029176
0.989408
1.0072898
1.0300997
1.0324985
1.0342261
1.0331935
1.0345579
1.0343534
1.0357438
1.0362239
1.0379031
1.039122
1.0413498
1.0434661
1.0464981
1.0497245
1.0538443
1.0585148
1.0643185
1.0710655
1.0787539
1.0871048
1.0963121
1.1060459
1.1160393
1.1258759
1.1351725
1.143589
1.1509059
1.157026
1.1619581
1.1657292
1.1685316
1.1707487
1.1720927
1.172698
1.1728601
1.1727686
1.1723655
1.1716444
1.1709178
1.1704911
1.1700087
1.1683387
1.1664693
1.1646836
1.1625035
0.97215494
0.97421603
0.97913152
0.988811
1.0081532
1.0297172
1.0309068
1.0326429
1.0315955
1.0329899
1.0327905
1.034223
1.0347323
1.0364687
1.0377411
1.0400356
1.0422114
1.0453068
1.0486343
1.0529339
1.0579705
1.0640985
1.0710349
1.078782
1.0873988
1.0968188
1.1067597
1.1168989
1.1268107
1.1361048
1.1444523
1.1516546
1.1576421
1.1624373
1.166076
1.168836
1.1710053
1.1722492
1.1727714
1.1729135
1.1728112
1.1723736
1.1715902
1.1708145
1.1704445
1.1698623
1.1681038
1.1663204
1.1645939
1.1628081
0.97016357
0.97267344
0.97799542
0.98821166
1.0090055
1.0291057
1.0293478
1.0311388
1.0301059
1.0315538
1.0313807
1.03287
1.0334188
1.0352153
1.0365377
1.0388917
1.0411335
1.0443288
1.0478549
1.0524989
1.057775
1.0640449
1.0710458
1.0790736
1.0879437
1.0976101
1.1077513
1.1180225
1.1279847
1.1372452
1.1454906
1.1525467
1.1583727
1.1630021
1.1664903
1.1692069
1.1712712
1.1724055
1.1728619
1.1729825
1.1728538
1.1723815
1.1715781
1.1707769
1.1703782
1.1697306
1.1679781
1.1661925
1.1646193
1.1635772
0.96854485
0.97147176
0.97721891
0.98797185
1.0101546
1.0285371
1.0280427
1.0298752
1.0288416
1.0303365
1.0301762
1.0317183
1.032306
1.0341577
1.0355268
1.0379493
1.0403095
1.0437452
1.0475455
1.0523442
1.0577413
1.0640991
1.0713591
1.0796243
1.0887658
1.0986686
1.109002
1.1193874
1.1293737
1.1385697
1.1466807
1.1535612
1.159199
1.1636369
1.1669603
1.1696261
1.1715562
1.172574
1.1729628
1.1730659
1.1729029
1.1723959
1.1715774
1.1707807
1.1703008
1.1695747
1.1677787
1.1659708
1.1645423
1.1636911
0.96710431
0.97049378
0.9767095
0.98802969
1.0114628
1.0280105
1.0269418
1.0288233
1.0277707
1.0293281
1.0291606
1.0307634
1.0314032
1.0333158
1.0347596
1.0373378
1.0399162
1.0435239
1.0474492
1.0523293
1.0578393
1.0644346
1.071921
1.080461
1.0898703
1.1000128
1.1105262
1.121004
1.1309843
1.1400816
1.1480243
1.1546987
1.1601209
1.1643421
1.1674906
1.1700875
1.1718574
1.1727485
1.1730786
1.1731604
1.172954
1.1724114
1.1715792
1.1707881
1.17021
1.1693722
1.1675625
1.1657186
1.164459
1.1632886
0.96598124
0.96982018
0.97653913
0.98847887
1.012928
1.0275903
1.0260796
1.028019
1.0269565
1.0285531
1.0284116
1.0300579
1.0307585
1.0327841
1.0343749
1.0370965
1.0397777
1.0434726
1.047459
1.0524778
1.0582076
1.0650208
1.0727756
1.0815864
1.091268
1.1016429
1.1123205
1.1228649
1.1328061
1.1417689
1.1495092
1.155948
1.1611278
1.1651102
1.1680824
1.1705779
1.1721752
1.1729447
1.1732038
1.1732624
1.1730066
1.1724283
1.171588
1.1708086
1.1701134
1.1690333
1.1673068
1.1654618
1.1641713
1.1625704
0.96505286
0.96935282
0.97662804
0.98927921
1.0144366
1.027267
1.025394
1.02743
1.0263643
1.02801
1.0279604
1.0297018
1.0304467
1.0325694
1.0342349
1.0370314
1.0397625
1.0435179
1.047673
1.0528798
1.0588242
1.0658892
1.0739152
1.0830097
1.0929634
1.1035633
1.1143857
1.1249672
1.134833
1.1436238
1.1511274
1.1573013
1.1622116
1.1659364
1.1687407
1.1710869
1.1725043
1.1731484
1.1733434
1.173367
1.173059
1.1724455
1.1715885
1.1708283
1.1700271
1.1681622
1.166983
1.1652336
1.1640277
1.1626077
0.96432337
0.96907902
0.97694716
0.99043154
1.015911
1.0270289
1.0249949
1.027015
1.0260446
1.0277346
1.0277586
1.029549
1.0303315
1.0325102
1.0342114
1.0370481
1.0398899
1.0438027
1.0481248
1.0535303
1.0597161
1.0670398
1.0753535
1.0847364
1.0949612
1.1057739
1.1167173
1.1273022
1.1370539
1.1456342
1.1528672
1.1587474
1.1633615
1.1668138
1.1694605
1.1716084
1.1728397
1.173359
1.1735035
1.1734722
1.1731109
1.1724494
1.1715863
1.1708314
1.1699647
1.167904
1.1664594
1.1649073
1.1640408
1.1627906
0.96380423
0.96901801
0.9775051
0.99198277
1.0173593
1.0269491
1.0247799
1.0268474
1.0259118
1.027684
1.0276749
1.0295194
1.0303117
1.0325278
1.0343082
1.0372692
1.0402461
1.044309
1.0488259
1.0544468
1.0608838
1.0684828
1.0770932
1.0867708
1.0972628
1.108273
1.1193094
1.1298605
1.1394573
1.147788
1.1547167
1.1602745
1.1645669
1.1677375
1.1702273
1.1721416
1.1731792
1.1735778
1.1736796
1.1735811
1.1731611
1.1724463
1.1715794
1.1708352
1.1699185
1.1680153
1.1659282
1.1646473
1.1640118
1.16293
0.96349782
0.96916056
0.97827543
0.99391447
1.0187075
1.0269978
1.0247194
1.0268128
1.0258598
1.0276257
1.0276544
1.0295582
1.0304158
1.032738
1.0346236
1.0377038
1.0408308
1.0450648
1.0497854
1.0556342
1.062338
1.0702236
1.079141
1.089116
1.0998683
1.1110562
1.1221532
1.1326299
1.1420289
1.1500707
1.156662
1.1618689
1.1658174
1.1687059
1.1710266
1.1726801
1.1735213
1.1738085
1.1738659
1.1736874
1.1732082
1.1724426
1.1715643
1.1708346
1.1698551
1.167979
1.165812
1.1646
1.1640249
1.1630588
0.96329588
0.96942202
0.97916679
0.99613982
1.0199498
1.0270913
1.0247167
1.0268534
1.0259117
1.0277445
1.0278003
1.0297708
1.030742
1.0331648
1.0351627
1.0383752
1.0416606
1.0460716
1.0510097
1.0570993
1.0640825
1.0722672
1.0814995
1.0917732
1.1027752
1.1141168
1.1252379
1.1355966
1.1447538
1.152467
1.1586876
1.1635162
1.1671048
1.1697209
1.17184
1.1732169
1.173864
1.1740573
1.1740562
1.1737978
1.1732508
1.1724318
1.1715397
1.1708218
1.1697559
1.1678821
1.1656744
1.164582
1.1641102
1.1631663
0.9633123
0.96989811
0.9802737
0.99874217
1.0211705
1.0273396
1.0249215
1.027177
1.0262044
1.0281485
1.0281934
1.0302471
1.0313016
1.0338243
1.0359376
1.0392846
1.0427375
1.0473368
1.0525042
1.0588475
1.0661232
1.0746179
1.0841718
1.0947421
1.1059793
1.1174455
1.1285499
1.1387444
1.1476143
1.1549587
1.1607764
1.1652024
1.1684235
1.1707837
1.1726472
1.1737465
1.1742088
1.1743259
1.1742447
1.1739063
1.1732915
1.1724108
1.1715047
1.1707895
1.1696318
1.167705
1.1655172
1.1645868
1.1641018
1.1632647
0.96350776
0.97056607
0.98157185
1.0016254
1.0223505
1.0277239
1.025319
1.0276215
1.0267299
1.028724
1.0288229
1.0309577
1.032083
1.0347091
1.0369454
1.0404355
1.0440658
1.0488634
1.0542726
1.0608823
1.068463
1.077278
1.0871582
1.0980205
1.1094741
1.1210313
1.1320745
1.1420559
1.1505912
1.1575266
1.1629114
1.1669163
1.1697713
1.1718791
1.1734359
1.174266
1.174564
1.1746037
1.1744303
1.1740122
1.1733334
1.1723828
1.1714601
1.1707423
1.16945
1.1674415
1.1654424
1.1645859
1.1638339
1.1633437
0.96393538
0.97148059
0.98313809
1.004874
1.0235686
1.0283199
1.0259845
1.0283022
1.0274642
1.0294827
1.0296644
1.0318699
1.0330845
1.0358207
1.0381886
1.0418289
1.0456479
1.0506549
1.0563187
1.0632076
1.0711052
1.0802496
1.0904586
1.1016043
1.1132507
1.1248604
1.1357938
1.1455102
1.1536622
1.1601501
1.1650771
1.1686504
1.1711469
1.1729782
1.1742006
1.1747747
1.1749387
1.1748817
1.1746112
1.1741127
1.1733691
1.1723506
1.1714035
1.1706907
1.1690866
1.1670882
1.1653694
1.1645374
1.1637594
1.1634756
0.96459228
0.97264156
0.98497881
1.0083551
1.0248253
1.0291628
1.0268358
1.0291862
1.0283721
1.0304533
1.0307032
1.0330019
1.0343074
1.0371595
1.0396676
1.0434673
1.0474857
1.0527132
1.0586443
1.065825
1.0740513
1.0835331
1.0940713
1.105488
1.1172988
1.1289177
1.1396886
1.1490848
1.1568043
1.1628111
1.1672626
1.1704005
1.1725444
1.1740523
1.1749366
1.1752831
1.1753274
1.1751545
1.1747859
1.1742052
1.1733871
1.1723115
1.1713721
1.1706474
1.1685638
1.1665986
1.1652409
1.1642724
1.1638282
1.1641586
0.9654146
0.97399484
0.98706453
1.0119948
1.026117
1.0301917
1.0278532
1.030277
1.0294814
1.0316354
1.0319575
1.0343468
1.035752
1.0387262
1.0413843
1.0453514
1.0495809
1.0550405
1.0612517
1.068737
1.0773029
1.0871289
1.0979935
1.1096642
1.1216053
1.1331849
1.1437359
1.1527538
1.1599949
1.1654959
1.1694607
1.1721607
1.1739415
1.1750811
1.1756448
1.1758053
1.175715
1.1754209
1.1749534
1.174289
1.1733981
1.1722852
1.1713763
1.1706247
1.1685958
1.1664255
1.1650516
1.1642029
1.1638956
1.1645085
0.96645029
0.97558156
0.98945505
1.0157517
1.0274942
1.031398
1.0290665
1.0315618
1.030786
1.0330364
1.0334199
1.0359076
1.0374193
1.0405218
1.0433389
1.0474826
1.0519342
1.0576375
1.0641416
1.0719443
1.0808604
1.0910358
1.1022209
1.1141243
1.1261561
1.1376423
1.1479109
1.1564919
1.1632171
1.1681971
1.171665
1.1739162
1.1752994
1.1760641
1.1763433
1.1763318
1.1760944
1.175679
1.1751134
1.1743686
1.1734053
1.1722879
1.1713881
1.1706073
1.168564
1.1663154
1.1649649
1.1643082
1.163959
1.1640357
0.96766295
0.97735722
0.99213293
1.0194833
1.0289573
1.0327935
1.0304637
1.0330432
1.0322938
1.0346386
1.0350947
1.0376842
1.0393096
1.042546
1.0455317
1.0498602
1.0545457
1.0605049
1.0673154
1.0754482
1.0847245
1.0952522
1.1067481
1.1188569
1.1309337
1.1422655
1.1521852
1.1602758
1.1664612
1.1709085
1.1738588
1.1756341
1.1765983
1.1770063
1.1770496
1.1768453
1.1764624
1.1759268
1.1752646
1.174452
1.1734104
1.1722914
1.1714095
1.1705675
1.1684056
1.166129
1.1647872
1.1645545
1.1640774
1.1634653
0.96908767
0.97934878
0.99515009
1.0232319
1.0305326
1.0343919
1.0320631
1.0347293
1.0340181
1.0364502
1.0369802
1.0396748
1.0414207
1.0447971
1.0479609
1.052484
1.0574153
1.0636428
1.0707735
1.0792497
1.0888953
1.0997759
1.1115687
1.1238499
1.1359189
1.1470288
1.1565318
1.1640904
1.1697238
1.1736133
1.176005
1.1772884
1.1778392
1.1779375
1.1777377
1.1773442
1.1768166
1.1761627
1.1754045
1.1745359
1.1734131
1.1722959
1.1714229
1.1704735
1.1681309
1.1656765
1.1647553
1.1645371
1.1644191
1.1635778
0.97074234
0.9815595
0.9985103
1.0270222
1.032346
1.036183
1.0338581
1.0366091
1.0359437
1.038461
1.0390711
1.0418753
1.0437501
1.047273
1.0506255
1.0553527
1.0605428
1.0670526
1.0745181
1.0833506
1.0933729
1.1046039
1.1166743
1.1290878
1.1410876
1.1519023
1.1609262
1.1679284
1.1729932
1.1762662
1.1780764
1.1788697
1.1790469
1.1788448
1.1784022
1.1778238
1.1771553
1.1763855
1.1755302
1.1745897
1.1734134
1.1723083
1.1714236
1.170301
1.1677618
1.1655551
1.1647468
1.1642346
1.1643462
1.1637355
0.97259392
0.98395521
1.0021781
1.0307892
1.0342482
1.038156
1.035848
1.0386782
1.0380599
1.0406682
1.0413645
1.0442832
1.0462955
1.049972
1.0535238
1.0584661
1.0639287
1.0707356
1.0785509
1.0877523
1.0981575
1.1097329
1.122056
1.1345533
1.1464144
1.1568578
1.1653535
1.171786
1.1762265
1.1788358
1.1800537
1.1803979
1.1802235
1.1797148
1.1790379
1.1782821
1.1774766
1.1765949
1.1756445
1.1746088
1.1734126
1.1723236
1.17142
1.1700369
1.1673474
1.1655562
1.1646929
1.164137
1.1640354
1.1639125
0.97471332
0.98659245
1.0061835
1.0345511
1.0363424
1.0403112
1.0380275
1.0409314
1.0403657
1.0430677
1.043858
1.0468962
1.0490551
1.0528921
1.056655
1.0618244
1.0675748
1.0746951
1.0828753
1.0924575
1.1032486
1.1151576
1.1277008
1.1402242
1.1518688
1.1618688
1.1698064
1.1756405
1.1793733
1.1812918
1.1819488
1.1818902
1.1813455
1.1805447
1.1796424
1.1787167
1.177779
1.1767905
1.1757557
1.1746157
1.173405
1.1723254
1.1713807
1.1696736
1.1669599
1.1654889
1.1646207
1.1642158
1.1640636
1.1643706
0.97702082
0.98938493
1.0104395
1.038291
1.0385767
1.042632
1.0403727
1.0433661
1.0428577
1.0456593
1.0465497
1.0497119
1.0520263
1.0560321
1.0600195
1.0654301
1.0714848
1.0789349
1.0874948
1.097468
1.1086457
1.1208724
1.1335948
1.1460762
1.1574219
1.1669178
1.1742807
1.1794349
1.1823974
1.1836272
1.1838015
1.1833122
1.1824134
1.1813303
1.1802134
1.1791259
1.1780608
1.1769709
1.1758664
1.1746152
1.1733896
1.1723236
1.1713008
1.1692049
1.1666454
1.1653664
1.1645074
1.1644572
1.1641344
1.1650601
0.97963333
0.99242577
1.0150011
1.042003
1.041003
1.0451459
1.0429086
1.0459853
1.0455383
1.0484387
1.0494359
1.0527265
1.0552077
1.059393
1.0636202
1.0692874
1.0756635
1.08346
1.0924135
1.1027862
1.114347
1.1268681
1.1397183
1.1520794
1.1630445
1.1719946
1.1787473
1.1831143
1.1852718
1.1858847
1.1855784
1.1846638
1.183421
1.1820696
1.1807493
1.1795084
1.1783214
1.1771341
1.1759632
1.1746134
1.1733638
1.1723074
1.1711636
1.1686836
1.1663773
1.1651783
1.1645215
1.1646621
1.1642348
1.1648133
0.98246749
0.99566421
1.0197829
1.0456465
1.043581
1.0478203
1.0456114
1.0487749
1.0483952
1.0513999
1.0525132
1.0559402
1.0586023
1.0629796
1.0674629
1.0734025
1.0801166
1.0882755
1.0976358
1.1084141
1.1203505
1.1331347
1.1460502
1.1582046
1.1687159
1.1770951
1.1831421
1.1866394
1.1880097
1.1880727
1.1872646
1.1859376
1.1843668
1.1827605
1.1812489
1.1798635
1.1785609
1.1772812
1.1760169
1.1745992
1.173325
1.1722624
1.1709523
1.1681768
1.1661007
1.1649344
1.1645314
1.16451
1.1646922
1.1643079
0.98553488
0.99912261
1.0247472
1.0492383
1.0463275
1.050659
1.0484823
1.0517377
1.0514299
1.0545448
1.0557855
1.059359
1.0622173
1.0667991
1.071554
1.0777812
1.0848499
1.0933876
1.103166
1.1143536
1.1266512
1.1396569
1.1525624
1.1644213
1.17442
1.1821952
1.1873999
1.1899802
1.1906572
1.1901567
1.1888552
1.1871316
1.1852483
1.1834021
1.1817113
1.1801902
1.17878
1.1774178
1.1760418
1.1745727
1.1732729
1.172176
1.1706601
1.1677218
1.1657674
1.1647177
1.164472
1.1644024
1.1647717
1.1643748
0.98886385
1.0028446
1.0298634
1.0528088
1.0492416
1.0536623
1.0515214
1.0548698
1.0546466
1.0578799
1.0592629
1.0629923
1.0660609
1.0708581
1.0758992
1.0824298
1.08987
1.098802
1.1090089
1.1206058
1.1332435
1.1464169
1.1592266
1.1707049
1.1801506
1.187226
1.1914796
1.1931595
1.1932079
1.1921246
1.1903458
1.1882434
1.1860647
1.1839939
1.1821363
1.180488
1.1789788
1.1775491
1.1760497
1.1745358
1.1732101
1.1720467
1.170287
1.1673198
1.1654526
1.1646599
1.1644644
1.1644379
1.1645063
1.1645414
0.99240558
1.0068094
1.0350449
1.0563583
1.0523093
1.0568276
1.054733
1.0581879
1.0580595
1.0614206
1.0629565
1.0668477
1.0701379
1.0751611
1.080504
1.0873549
1.095184
1.1045256
1.1151693
1.1271703
1.1401168
1.1533902
1.1660113
1.1770339
1.1858932
1.1921122
1.1953431
1.1962237
1.1956287
1.193971
1.191734
1.1892719
1.1868157
1.1845361
1.1825239
1.1807565
1.1791572
1.1776672
1.1760515
1.1744919
1.1731434
1.171883
1.1698559
1.1669754
1.1653473
1.1646438
1.1645091
1.1644542
1.1645213
1.1650482
0.99618654
1.011077
1.0402955
1.0599498
1.0555646
1.0601886
1.0581474
1.0617128
1.0616838
1.0651727
1.0668687
1.0709259
1.0744504
1.0797126
1.085375
1.0925648
1.1008001
1.1105655
1.1216513
1.1340458
1.147258
1.1605511
1.1728891
1.1833954
1.1915854
1.1968044
1.1990076
1.19917
1.1979047
1.1956924
1.1930185
1.1902173
1.1875021
1.1850294
1.1828739
1.1809968
1.1793167
1.1777433
1.176051
1.1744451
1.1730831
1.1717107
1.1694075
1.1667325
1.165252
1.1646498
1.1647156
1.1645228
1.1645883
1.1655443
1.0002266
1.015697
1.0456186
1.0636417
1.0590328
1.0637589
1.0617675
1.0654405
1.0655125
1.0691284
1.0709955
1.0752275
1.0790029
1.0845203
1.0905211
1.0980688
1.1067271
1.1169288
1.1284585
1.1412264
1.1546475
1.1678677
1.1798334
1.1897767
1.197147
1.2012549
1.202521
1.2019627
1.2000315
1.1972866
1.194199
1.1910804
1.1881251
1.1854739
1.1831857
1.1812109
1.1794631
1.1777757
1.1760429
1.1743998
1.1730391
1.1715596
1.1690071
1.1665758
1.1651451
1.1646617
1.1646955
1.16489
1.1646699
1.1652321
1.0045206
1.0206752
1.0509701
1.0675199
1.0626808
1.0675071
1.0655684
1.0693473
1.0695347
1.0732849
1.0753401
1.0797599
1.0838049
1.0895945
1.0959528
1.1038771
1.112974
1.1236228
1.1355932
1.1487045
1.1622625
1.1753118
1.186824
1.1961427
1.2025064
1.2054573
1.2059016
1.2045795
1.2020054
1.1987533
1.195277
1.1918631
1.1886855
1.185869
1.1834595
1.1814022
1.1796018
1.1777879
1.1760213
1.1743602
1.1730114
1.1714122
1.1686265
1.166352
1.1650246
1.1646603
1.1645346
1.1648941
1.1648017
1.1649106
1.0090043
1.0259652
1.0562805
1.0715182
1.0664808
1.071416
1.0695442
1.0734378
1.0737584
1.0776548
1.0799152
1.0845353
1.0888678
1.0949465
1.1016812
1.1100003
1.1195504
1.130654
1.1430552
1.1564652
1.170074
1.1828528
1.1938437
1.202407
1.2076136
1.2094586
1.2091078
1.2070175
1.203825
1.2000935
1.1962542
1.1925668
1.189183
1.1862137
1.1836973
1.1815746
1.1797216
1.1777907
1.1759895
1.1743284
1.1729836
1.1711933
1.1682299
1.1661012
1.1650049
1.1646577
1.1645592
1.1647498
1.1651283
1.165019
1.0136824
1.0315604
1.0615452
1.0753922
1.0704596
1.0755127
1.0737203
1.0777393
1.0782028
1.0822529
1.0847336
1.0895649
1.0942026
1.1005877
1.1077173
1.1164493
1.1264657
1.1380288
1.1508416
1.164491
1.178052
1.1904653
1.2008758
1.2084821
1.212427
1.2133112
1.2121059
1.2092726
1.2054908
1.2013095
1.1971334
1.1931922
1.1896164
1.1865092
1.1839054
1.1817323
1.1797763
1.1777904
1.1759504
1.1743035
1.172932
1.1708503
1.1677979
1.1658494
1.1650243
1.1646927
1.1645661
1.1648022
1.1654947
1.1651288
1.0186039
1.0374827
1.0668221
1.0796165
1.07465
1.0798203
1.0781162
1.0822613
1.0828792
1.0870874
1.0898045
1.094859
1.0998199
1.1065296
1.1140725
1.123235
1.1337292
1.1457514
1.158944
1.1727565
1.1861642
1.1981219
1.2078518
1.2143011
1.2169875
1.2169689
1.2148932
1.2113438
1.2070047
1.2024044
1.1979166
1.1937391
1.1899864
1.1867621
1.1840937
1.1818768
1.179801
1.177782
1.1759056
1.1742815
1.1728358
1.1703662
1.1673542
1.1657009
1.1650622
1.1648251
1.1645788
1.1649162
1.1653527
1.1653112
1.0238533
1.0437377
1.0721062
1.0840598
1.0790522
1.0843392
1.0827338
1.0870048
1.0877932
1.0921664
1.0951373
1.1004283
1.1057311
1.1127841
1.1207591
1.1303692
1.1413507
1.1538241
1.1673502
1.1812345
1.1943834
1.2058046
1.2146792
1.2198076
1.2213454
1.2204008
1.2174649
1.2132324
1.2083705
1.2033819
1.1986049
1.1942085
1.1903006
1.1869859
1.1842703
1.1819946
1.1798078
1.1777575
1.1758553
1.1742524
1.1726686
1.1697505
1.1669818
1.1656296
1.1651137
1.1648133
1.1646182
1.1650541
1.1653401
1.1656977
1.0294321
1.0502998
1.0774001
1.0886844
1.0836675
1.0890718
1.0875766
1.0919787
1.092953
1.0975002
1.1007429
1.1062842
1.1119483
1.1193646
1.1277902
1.1378645
1.1493389
1.1622449
1.1760404
1.1898917
1.2026793
1.2134849
1.2212573
1.2249948
1.2255032
1.2235832
1.2198204
1.2149411
1.2095924
1.2042444
1.1991994
1.1946066
1.1905753
1.1871947
1.18443
1.1820446
1.17981
1.1777185
1.1757995
1.1742021
1.1724021
1.1691085
1.1666953
1.165576
1.1651084
1.1647706
1.1646825
1.1651979
1.1654166
1.1660726
1.0352544
1.057153
1.0827462
1.0935017
1.0885033
1.0940272
1.0926537
1.0971949
1.0983695
1.1030993
1.106632
1.1124388
1.1184842
1.1262851
1.1351804
1.1457343
1.1577017
1.1710077
1.1849911
1.1986978
1.211023
1.2210675
1.227528
1.22991
1.2294182
1.2265164
1.2219612
1.216475
1.2106747
1.204994
1.1997045
1.1949478
1.1908282
1.1873851
1.1845393
1.1820675
1.1798061
1.1776673
1.1757374
1.1741167
1.1720225
1.1685459
1.1664914
1.165549
1.1650822
1.1647883
1.1647824
1.1653397
1.1655523
1.1657575
1.0413394
1.0642669
1.0881801
1.0985186
1.0935656
1.0992146
1.0979758
1.1026626
1.104053
1.1089725
1.1128154
1.1189053
1.1253541
1.1335623
1.1429455
1.1539916
1.1664427
1.1800988
1.1941703
1.207619
1.2193842
1.2284458
1.233428
1.2346145
1.2330462
1.229197
1.2238911
1.217839
1.2116207
1.2056338
1.2001316
1.1952509
1.1910552
1.1875124
1.184589
1.1820748
1.1797851
1.1776062
1.1756691
1.1739842
1.1715011
1.1681449
1.1663471
1.1655025
1.1650457
1.1648371
1.1649243
1.16547
1.1657135
1.165528
1.0476906
1.071647
1.0937527
1.1037696
1.0988713
1.104647
1.103552
1.1083856
1.1100118
1.1151309
1.1193067
1.1257007
1.1325761
1.1412141
1.1511027
1.162649
1.1755626
1.1894998
1.2035469
1.2166223
1.2277134
1.2355207
1.2389953
1.2390555
1.2363881
1.231628
1.225616
1.2190384
1.2124339
1.206173
1.2005005
1.1955227
1.1912021
1.1875702
1.1846114
1.1820779
1.1797494
1.1775376
1.1755952
1.1737956
1.1709161
1.1678277
1.1662226
1.1654502
1.1650533
1.1649056
1.1651009
1.1656129
1.1658541
1.1656336
1.0542823
1.0792732
1.0994593
1.1092494
1.1044173
1.1103239
1.1093831
1.1143718
1.1162578
1.1215914
1.1261249
1.1328455
1.1401707
1.1492611
1.1596696
1.1717164
1.1850541
1.199183
1.2130845
1.22567
1.2358946
1.2422212
1.2442786
1.2431949
1.2394384
1.2338129
1.2271418
1.2200776
1.2131209
1.2066293
1.2008282
1.1957314
1.1912666
1.1875953
1.1846214
1.1820711
1.1796994
1.1774636
1.1755149
1.1735523
1.1703299
1.1675353
1.1661006
1.165427
1.1650669
1.1649893
1.1653677
1.1658017
1.1659671
1.1657618
1.0611018
1.0871499
1.1053226
1.1149627
1.1102084
1.1162516
1.1154902
1.120641
1.1228125
1.1283763
1.1332923
1.1403627
1.1481599
1.157724
1.1686632
1.1812001
1.1949043
1.209117
1.2227484
1.2347267
1.2438147
1.2485174
1.2492975
1.2470012
1.2422006
1.2357587
1.2284749
1.2209629
1.2136967
1.2070258
1.2011049
1.1958233
1.1912917
1.187607
1.1846252
1.1820481
1.1796371
1.1773851
1.1754226
1.1732531
1.1697724
1.16728
1.1659949
1.1654257
1.165156
1.1651188
1.1660475
1.1661846
1.1660716
1.1658607
1.0681054
1.095233
1.1113464
1.1209224
1.1162653
1.1224566
1.1218952
1.1272188
1.129699
1.1355089
1.1408321
1.1482758
1.1565671
1.1666246
1.1780988
1.1910998
1.2050907
1.219263
1.2324927
1.243707
1.2513697
1.2544507
1.2539951
1.2504756
1.2446776
1.237472
1.2296215
1.2217054
1.2141851
1.2073703
1.2012632
1.1958614
1.1913017
1.1876081
1.184613
1.1820107
1.1795651
1.1773028
1.175303
1.1728622
1.1692761
1.1670847
1.165962
1.1654691
1.165356
1.165347
1.1661146
1.1664537
1.166325
1.1659696
1.0753731
1.1035446
1.1176189
1.1271795
1.1226221
1.1289627
1.1286264
1.1341247
1.1369404
1.143013
1.1487689
1.1566108
1.1654165
1.1759843
1.1879883
1.2014087
1.2155847
1.2295841
1.2422736
1.2524818
1.2584805
1.260092
1.2583234
1.2536174
1.2468772
1.2389611
1.2305909
1.2223257
1.2146077
1.2076244
1.201332
1.195873
1.1912922
1.1875859
1.1845854
1.18196
1.1794868
1.1772177
1.1751364
1.1723302
1.1688772
1.1669194
1.1659566
1.1656069
1.1658576
1.1657592
1.166036
1.1664074
1.1666184
1.1661115
1.0828183
1.1121279
1.1240998
1.1337171
1.1292828
1.1357882
1.1356901
1.1413827
1.1445605
1.1509157
1.15713
1.1653955
1.174735
1.1858239
1.1983384
1.2121093
1.2263476
1.2400337
1.2520369
1.2609157
1.265159
1.2653933
1.2622727
1.2564306
1.248807
1.2402346
1.2313996
1.2228497
1.2149556
1.2077391
1.2013556
1.1958648
1.191254
1.1875454
1.1845428
1.1818981
1.1794053
1.1771301
1.1749132
1.1717323
1.1685289
1.1667656
1.1659707
1.1657649
1.165929
1.1661872
1.1660816
1.1664376
1.1665305
1.1665788
1.0905419
1.1211155
1.1308747
1.140589
1.1362884
1.142955
1.1431294
1.1490174
1.152589
1.1592467
1.165946
1.1746604
1.1845485
1.1961607
1.2091476
1.2231761
1.2373376
1.2505582
1.2616618
1.2689106
1.271457
1.2703065
1.2658425
1.2589228
1.2504771
1.241306
1.232074
1.2232924
1.2151537
1.2077835
1.2013561
1.195819
1.1911914
1.1874868
1.1844869
1.1818268
1.1793223
1.1770368
1.1746317
1.1711137
1.1682298
1.1666926
1.1660459
1.1658778
1.1659097
1.1661379
1.1661681
1.1664834
1.1665673
1.1666741
1.0984918
1.1304039
1.1379272
1.1477863
1.143646
1.1504855
1.1509633
1.1570608
1.1610571
1.1680412
1.1752501
1.1844374
1.194883
1.207007
1.2204045
1.2345723
1.2485062
1.2610958
1.2710009
1.2764029
1.2774107
1.2747838
1.2690351
1.2611028
1.2518991
1.2421956
1.2326407
1.2236245
1.2152411
1.2077969
1.2013179
1.1957434
1.1911054
1.1874123
1.1844192
1.1817486
1.1792379
1.1769255
1.1742805
1.1705116
1.1679861
1.1666673
1.1661218
1.1659721
1.1659589
1.1661382
1.1662611
1.1665537
1.1666814
1.1664217
1.1067265
1.1400875
1.1453264
1.1553664
1.1514079
1.1584184
1.1592312
1.1655472
1.170002
1.1773367
1.1850781
1.194757
1.2057599
1.2183661
1.2320869
1.2462538
1.2597976
1.2715669
1.2799081
1.2834336
1.2829463
1.2788316
1.2718579
1.2629827
1.2530904
1.2429321
1.2331027
1.2237833
1.2152725
1.207774
1.2012425
1.1956384
1.1909989
1.1873237
1.1843418
1.1816663
1.1791516
1.1767754
1.1738148
1.1700086
1.1677903
1.1666484
1.1661894
1.1660604
1.1660294
1.166184
1.1663658
1.1666621
1.1667301
1.1664255
1.1152987
1.1501906
1.153102
1.1633455
1.1595969
1.166778
1.1679678
1.1745157
1.179464
1.1871741
1.1954641
1.2056486
1.2171956
1.2302315
1.2441598
1.2581669
1.2711373
1.2817999
1.2882788
1.2900724
1.2880041
1.2824466
1.2743204
1.2645765
1.2540747
1.2435428
1.2334006
1.2238466
1.2152678
1.2077045
1.2011326
1.1955077
1.1908739
1.1872226
1.1842567
1.1815838
1.1790649
1.1765719
1.1732087
1.1696409
1.1676386
1.1666465
1.1662575
1.1661436
1.166109
1.166257
1.1665083
1.1667757
1.1667609
1.1665367
1.1242025
1.1606132
1.1612852
1.1717475
1.1682514
1.1756096
1.1772226
1.1840151
1.1894866
1.1975923
1.2064413
1.2171362
1.2291982
1.242584
1.2565774
1.2702506
1.2824468
1.2916357
1.2961139
1.2962666
1.2925716
1.2856377
1.2764371
1.265906
1.2548826
1.2440275
1.2335393
1.2238631
1.215208
1.2075957
1.2009919
1.1953539
1.1907326
1.1871108
1.1841664
1.1815041
1.178979
1.1763139
1.1725808
1.1693103
1.1675126
1.166658
1.1663303
1.1662262
1.1661999
1.1663739
1.1666931
1.1668643
1.1667998
1.1665963
1.1335134
1.1714298
1.1699373
1.1806221
1.1774298
1.1849697
1.1870503
1.1940898
1.2001057
1.2086249
1.2180387
1.2292401
1.2417661
1.2553907
1.2692804
1.282422
1.2935786
1.3009251
1.3034641
1.3019471
1.2966469
1.2884139
1.2782257
1.2670003
1.2555413
1.2443056
1.2335923
1.2238259
1.2151013
1.2074502
1.200824
1.1951799
1.1905768
1.1869899
1.184073
1.1814288
1.1788872
1.1759953
1.1719562
1.1690166
1.1674169
1.1666849
1.1664062
1.1663153
1.1663023
1.1665252
1.1668637
1.1669361
1.1668732
1.1666738
1.1433454
1.1826868
1.1791356
1.1900274
1.1871942
1.1948875
1.1974823
1.2047748
1.2113515
1.2203064
1.230286
1.2419742
1.2548845
1.2686045
1.2822008
1.2945879
1.3043468
1.3095997
1.3103511
1.3070672
1.3002364
1.2907925
1.2797121
1.2678931
1.2560511
1.2444292
1.2335899
1.2237281
1.2149511
1.207273
1.2006323
1.1949881
1.1904083
1.1868615
1.1839793
1.1813571
1.1787715
1.1755887
1.1713921
1.168769
1.1673616
1.1667284
1.1664869
1.1664142
1.1664191
1.1667103
1.1669834
1.167172
1.1670797
1.1667745
1.1537698
1.1943641
1.1889259
1.1999906
1.1975756
1.2053908
1.2085436
1.216105
1.2232635
1.232677
1.2432141
1.2553446
1.268523
1.2821612
1.2952501
1.3066236
1.3145581
1.3176968
1.316676
1.3116301
1.3033496
1.2927945
1.2809291
1.2686079
1.2563241
1.2444731
1.2335168
1.2235792
1.2147632
1.2070681
1.2004201
1.194781
1.1902287
1.1867278
1.183888
1.1812881
1.1786094
1.1750564
1.1709377
1.1685806
1.1673471
1.166789
1.1665789
1.1665225
1.1665485
1.166871
1.1671016
1.1672275
1.1672835
1.167019
1.164863
1.2064195
1.1993421
1.2105291
1.208595
1.2165195
1.2202762
1.2281351
1.2358949
1.2457836
1.2568478
1.2693393
1.2826307
1.2959807
1.3083141
1.3183074
1.3240892
1.3252942
1.3223658
1.3156369
1.3060065
1.2944507
1.2819135
1.2691332
1.2564414
1.2444517
1.2333808
1.2233844
1.2145427
1.2068395
1.2001905
1.1945607
1.1900395
1.1865906
1.1838028
1.1812225
1.1783917
1.1744322
1.1705907
1.1684389
1.1673495
1.1668627
1.166684
1.1666395
1.1667195
1.1670348
1.1671796
1.1671788
1.1672161
1.1671385
1.1767267
1.2187773
1.2103986
1.2216576
1.2202889
1.2283338
1.2327494
1.2409423
1.2493091
1.2596667
1.271195
1.2839248
1.2971334
1.3099592
1.3212543
1.3294253
1.3329643
1.3322619
1.3274235
1.3190985
1.3082321
1.2957985
1.2826884
1.2694136
1.2564773
1.2443456
1.2331894
1.2231505
1.2142945
1.2065909
1.1999462
1.1943295
1.1898423
1.1864523
1.183727
1.1811598
1.1781148
1.1738017
1.1702857
1.1683259
1.1673584
1.1669443
1.1667982
1.1667639
1.1670704
1.1672161
1.1672279
1.1672047
1.1672241
1.1670342
1.1894455
1.2313211
1.2221465
1.233448
1.2327372
1.2409397
1.246056
1.2546096
1.2635613
1.2743501
1.2862392
1.2990383
1.3119329
1.3239593
1.3338404
1.3398043
1.3412558
1.3385231
1.3318466
1.3220372
1.3100631
1.2968783
1.2832315
1.2695347
1.2564304
1.2441734
1.2329503
1.2228837
1.2140232
1.2063257
1.1996901
1.1940893
1.1896385
1.1863145
1.1836616
1.1810933
1.1777718
1.1731915
1.1700136
1.1682411
1.1673857
1.1670307
1.1669151
1.1668859
1.1671081
1.1672365
1.1672745
1.1672695
1.1672398
1.1670613
1.2030828
1.2440706
1.234761
1.246107
1.2460818
1.2544433
1.260257
1.2691826
1.2786818
1.2898322
1.301935
1.3145898
1.3269016
1.3378129
1.3458267
1.3494413
1.3488446
1.3440607
1.3356469
1.3244829
1.3115412
1.2977143
1.2835214
1.2695604
1.2562941
1.2439415
1.2326712
1.2225897
1.2137329
1.206047
1.1994245
1.1938421
1.1894297
1.1861789
1.1836049
1.1810054
1.177343
1.1726444
1.1697723
1.1681775
1.1674211
1.1671182
1.1670223
1.1669923
1.1671248
1.1672625
1.1673267
1.1673349
1.1672641
1.1671132
1.2180344
1.2572115
1.248374
1.2597855
1.2604641
1.2689256
1.2753915
1.2846869
1.2946809
1.3060878
1.3182027
1.3304525
1.3418711
1.3512723
1.3569989
1.3583974
1.3556338
1.348875
1.3388503
1.3264804
1.3127119
1.2982738
1.2836469
1.2694887
1.2560861
1.2436607
1.2323596
1.222274
1.2134279
1.205758
1.1991517
1.1935897
1.189218
1.1860474
1.1835542
1.1808751
1.176804
1.1721975
1.1695676
1.1681341
1.1674642
1.1671993
1.1671118
1.1670839
1.1671847
1.167308
1.1673775
1.1673817
1.167315
1.1671818
1.2342625
1.2715809
1.2629671
1.2743944
1.2759494
1.2844672
1.2915639
1.3011899
1.3115603
1.323051
1.3349212
1.3464605
1.3566341
1.3640549
1.3673317
1.3665497
1.3615992
1.3529773
1.3414934
1.3280783
1.3136021
1.2985692
1.2836611
1.269322
1.255816
1.2433394
1.232022
1.2219415
1.2131119
1.2054613
1.1988735
1.1933341
1.1890057
1.1859219
1.183508
1.1806938
1.1761825
1.1718606
1.1694062
1.1681091
1.1675096
1.1672695
1.1671876
1.167164
1.1672581
1.1673656
1.1674168
1.1674088
1.1673528
1.1672155
1.2516429
1.2869232
1.278883
1.2900364
1.292463