/*--------------------------------*- C++ -*----------------------------------*\
  =========                 |
  \\      /  F ield         | OpenFOAM: The Open Source CFD Toolbox
   \\    /   O peration     | Website:  https://openfoam.org
    \\  /    A nd           | Version:  8
     \\/     M anipulation  |
\*---------------------------------------------------------------------------*/
FoamFile
{
    version     2.0;
    format      ascii;
    class       surfaceVectorField;
    location    "0.210011";
    object      rhoUf;
}
// * * * * * * * * * * * * * * * * * * * * * * * * * * * * * * * * * * * * * //

dimensions      [1 -2 -1 0 0 0 0];

internalField   nonuniform List<vector> 
39600
(
(211.69442 -8.6491728e-17 -4.8986851)
(195.67593 -7.8400116e-17 -5.1700997)
(194.13872 -8.3620307e-17 -4.3828915)
(242.82822 -4.8596643e-22 -5.7375482)
(232.22696 4.5598977e-19 -5.8216366)
(230.52578 -5.1243273e-17 -4.8807189)
(266.69445 3.773987e-17 -6.4492845)
(257.19664 4.9307759e-17 -6.6672369)
(255.31214 8.41984e-17 -5.6134431)
(289.33494 1.2726604e-17 -7.1827271)
(279.88437 3.9994653e-17 -7.3451797)
(277.85458 7.3113167e-18 -6.2169515)
(310.31327 -3.8969919e-17 -7.9464655)
(302.63387 -3.4736066e-17 -8.3578154)
(300.36342 -5.9032462e-18 -7.0945955)
(321.19476 0 -8.3621778)
(321.05157 9.8815147e-19 -8.7243319)
(319.95363 -2.7320539e-17 -7.4967328)
(322.59803 0 -8.407783)
(321.80114 0 -9.3801082)
(321.77366 0 -8.113025)
(322.85892 5.1422961e-19 -8.4245548)
(323.52573 0 -8.512228)
(323.47719 -1.9611829e-17 -7.3147402)
(322.44694 6.1675356e-19 -8.4266227)
(322.07076 -1.1864422e-18 -9.6491676)
(322.03537 1.7036314e-17 -8.3700139)
(322.51804 -2.2134208e-17 -8.449289)
(322.92904 3.2941489e-17 -8.4329797)
(322.85324 0 -7.2280485)
(322.24954 -7.5926409e-18 -8.4695739)
(322.08483 -5.067787e-17 -9.6940861)
(322.01743 -3.6910674e-17 -8.4245283)
(322.21219 2.2777749e-17 -8.5022631)
(322.50728 4.2158358e-17 -8.5675915)
(322.42006 2.1655499e-17 -7.3474403)
(321.97032 -5.1662799e-20 -8.5396118)
(321.9417 -1.7909327e-17 -9.6296894)
(321.85906 8.1458747e-18 -8.3700613)
(321.84974 -1.1081618e-17 -8.5859681)
(322.07761 -5.6193866e-20 -8.8054777)
(321.98746 -6.8112573e-18 -7.5699227)
(321.60724 -2.2460351e-17 -8.64241)
(321.66692 1.2931788e-17 -9.5616972)
(321.57861 -6.7060826e-18 -8.30824)
(321.40592 4.2885573e-18 -8.7071236)
(321.61482 -2.554078e-17 -9.0762785)
(321.5243 -1.0294469e-17 -7.8287835)
(321.11738 1.5300751e-17 -8.784781)
(321.24828 2.1030835e-17 -9.5588213)
(321.15907 1.2960403e-17 -8.3077533)
(320.82201 -1.4251284e-17 -8.8689237)
(321.04226 1.3969e-19 -9.3431014)
(320.95625 -3.3297221e-18 -8.0938018)
(320.44767 -3.5432381e-18 -8.9605403)
(320.64226 -1.7389205e-17 -9.6328419)
(320.56286 -1.1901662e-17 -8.3929637)
(320.02928 1.1357061e-17 -9.0502077)
(320.27865 1.9773444e-17 -9.5804297)
(320.20859 1.1749404e-17 -8.3481542)
(319.53331 -5.8799882e-18 -9.1342331)
(319.77837 -1.6094995e-17 -9.7538218)
(319.71997 -1.6331196e-18 -8.5326506)
(318.98336 -1.7864313e-17 -9.2113982)
(319.23566 2.7242279e-17 -9.7843998)
(319.18669 -6.4377529e-18 -8.5566831)
(318.31265 -4.4767528e-18 -9.3295384)
(318.56315 -1.1034459e-17 -9.9293113)
(318.49761 -9.0762062e-18 -8.6956716)
(317.48937 9.3964326e-18 -9.397147)
(317.83706 3.6825554e-17 -10.004107)
(317.79157 8.6778049e-18 -8.7802962)
(316.52779 1.0645232e-17 -9.3799382)
(316.9706 -2.3325339e-17 -10.018868)
(316.95241 0 -8.8336222)
(315.4428 4.9314173e-18 -9.2421186)
(315.94985 -1.2083092e-18 -9.9045854)
(315.96184 1.1523478e-17 -8.7771808)
(314.24445 -9.7293828e-18 -8.9690541)
(314.79298 1.2194403e-17 -9.6675414)
(314.8314 -1.2062519e-17 -8.613176)
(312.95198 -4.8848149e-17 -8.5419189)
(313.52249 -8.5447872e-18 -9.261735)
(313.58492 1.583411e-18 -8.2983269)
(311.61276 -3.0507952e-17 -7.9600486)
(312.18207 4.3385967e-17 -8.6871543)
(312.26397 -4.7081169e-17 -7.8337116)
(310.28523 3.6239379e-17 -7.2533696)
(310.82945 2.1464882e-17 -7.959342)
(310.92255 2.7555664e-17 -7.2279455)
(309.03145 0 -6.4761425)
(309.52789 -2.6856095e-17 -7.1311661)
(309.62291 0 -6.5261609)
(307.90644 0 -5.6945706)
(308.33714 2.8269872e-17 -6.271627)
(308.4258 0 -5.7888687)
(306.95077 -1.4192573e-17 -4.9669387)
(307.30415 7.7633884e-17 -5.4512547)
(307.3813 0 -5.079924)
(306.18722 4.1169757e-17 -4.333701)
(306.45731 5.2959738e-17 -4.7204985)
(306.521 -1.2062255e-17 -4.4465841)
(305.62547 7.3642766e-17 -3.8199614)
(305.81032 1.2771237e-17 -4.1049635)
(305.8605 3.4088201e-17 -3.9135399)
(305.246 4.0798765e-17 -3.4256879)
(305.36859 8.1102606e-17 -3.6315396)
(305.4066 -3.7166074e-18 -3.5005704)
(305.03547 7.9992671e-17 -3.0025559)
(305.06007 -3.1076139e-17 -3.2921017)
(305.10566 2.0894851e-17 -3.20438)
(304.9207 2.4109825e-17 -2.655773)
(304.86006 -4.569783e-17 -3.0060345)
(304.89882 1.4371075e-17 -2.9566518)
(304.84097 -1.9659252e-17 -2.5419595)
(304.79704 -1.7318146e-17 -2.7276777)
(304.80921 -3.9951007e-18 -2.7089967)
(304.86381 -1.65648e-17 -2.3911166)
(304.82298 -3.8976238e-19 -2.4825819)
(304.83834 2.0696937e-18 -2.4816653)
(304.94754 -8.1433479e-18 -2.1872699)
(304.89283 4.0505134e-19 -2.2754123)
(304.91174 -7.3429549e-18 -2.2842204)
(305.05949 1.501116e-17 -1.9604362)
(304.98462 -1.0926696e-16 -2.0654079)
(305.00749 3.6350058e-18 -2.0824373)
(305.18713 -7.1881266e-20 -1.7048452)
(305.1161 -1.6052391e-16 -1.8103972)
(305.14307 1.318568e-18 -1.8313835)
(305.34846 1.2805202e-19 -1.4192264)
(305.24391 1.1787151e-16 -1.5241087)
(305.27608 2.4188661e-20 -1.5457374)
(305.53093 -7.2747185e-18 -1.1730311)
(305.42973 -9.7498632e-17 -1.2784991)
(305.4609 0 -1.2982532)
(305.69737 -3.616147e-18 -0.91150896)
(305.61626 1.2787973e-16 -1.0390459)
(305.62076 2.7505604e-19 -1.0691943)
(305.77756 1.0712157e-17 -0.58513167)
(305.86276 1.0100688e-19 -0.6989568)
(305.84478 8.9888484e-19 -0.734516)
(305.59396 1.9802045e-18 -0.11679668)
(305.82126 7.1480733e-17 -0.29839489)
(305.76795 6.1524369e-19 -0.3172781)
(305.1963 -3.8343732e-18 -0.40126752)
(305.11743 3.2976751e-18 0.092981272)
(305.1707 -4.3695519e-19 0.079184974)
(305.18924 3.3205689e-19 0.84005015)
(305.20688 0 0.86356267)
(213.07378 5.6684695e-19 -5.7636124)
(197.27238 -8.2973523e-19 -5.9921797)
(244.40052 4.4815782e-17 -6.7201616)
(233.9616 1.2265265e-16 -6.7931238)
(268.39321 5.2229265e-17 -7.5206997)
(259.07241 -5.2356595e-17 -7.7412397)
(291.18683 -5.5371333e-19 -8.336892)
(281.86676 8.614002e-17 -8.4987258)
(311.76462 1.5069464e-18 -9.1569875)
(304.80249 -1.4881171e-16 -9.641836)
(321.65363 1.0647872e-18 -9.5618851)
(321.95806 6.4345251e-17 -9.9528149)
(322.62313 0 -9.6113394)
(321.88789 5.6219298e-17 -10.663178)
(322.90619 -1.5682394e-18 -9.6429757)
(323.63058 -4.5319951e-17 -9.7199666)
(322.50369 2.7720929e-17 -9.6573299)
(322.1479 -5.2151732e-19 -10.945847)
(322.58449 1.1584171e-17 -9.6891334)
(323.01944 3.0202591e-17 -9.6552101)
(322.32029 -9.3609015e-18 -9.7160624)
(322.15492 -2.5999825e-17 -10.986975)
(322.28843 7.1180758e-18 -9.7534895)
(322.58736 2.102897e-17 -9.8065594)
(322.04752 -1.9319398e-17 -9.7939145)
(322.0117 -2.204187e-17 -10.914469)
(321.92902 2.2381339e-17 -9.8425467)
(322.15227 1.1393934e-17 -10.061285)
(321.68711 1.2984879e-17 -9.9011704)
(321.73881 1.1739088e-17 -10.840443)
(321.48616 -1.288411e-17 -9.9667918)
(321.68663 6.5167349e-19 -10.343898)
(321.19667 7.8867716e-18 -10.04358)
(321.3167 -1.7666815e-17 -10.830108)
(320.89836 -1.5101357e-18 -10.121711)
(321.1027 3.5179169e-18 -10.607573)
(320.52021 2.3812118e-18 -10.205875)
(320.69628 2.1459402e-19 -10.889437)
(320.09671 -4.1419216e-18 -10.289938)
(320.32569 -1.0501994e-17 -10.835391)
(319.59225 1.2725006e-17 -10.372224)
(319.81687 -7.8802963e-18 -11.015533)
(319.00565 3.7153826e-17 -10.464386)
(319.27499 1.9599689e-17 -11.065043)
(318.30276 2.5369307e-17 -10.572077)
(318.60656 2.3155606e-17 -11.201882)
(317.47454 9.9272944e-18 -10.615454)
(317.85475 -1.01282e-18 -11.242046)
(316.50904 -3.6908924e-17 -10.538278)
(316.95158 8.0727663e-19 -11.213367)
(315.41528 4.7365555e-18 -10.342922)
(315.90467 -6.4857601e-17 -11.045682)
(314.19424 1.5240774e-17 -9.9919854)
(314.72002 -1.136218e-17 -10.735399)
(312.88083 7.7469427e-17 -9.4664339)
(313.42455 7.0226615e-17 -10.235577)
(311.5268 9.6644954e-17 -8.7703345)
(312.06531 1.1163319e-17 -9.5479821)
(310.19351 -3.6143307e-17 -7.9402494)
(310.70357 -7.9311332e-17 -8.6956629)
(308.94297 -4.298956e-18 -7.0386888)
(309.40351 -3.5525924e-17 -7.7396089)
(307.82805 1.0006919e-16 -6.1390841)
(308.22329 4.2308044e-17 -6.7572026)
(306.88565 1.4657961e-16 -5.3052123)
(307.20627 -1.277772e-17 -5.8253007)
(306.13548 2.8975748e-17 -4.580483)
(306.37728 -1.002462e-17 -4.9970023)
(305.58714 1.3031429e-17 -3.9919755)
(305.74777 5.4334373e-17 -4.299228)
(305.21128 2.1657661e-17 -3.533286)
(305.32062 -1.2776338e-18 -3.7663662)
(304.99959 -1.5550624e-16 -3.0520314)
(305.00687 -7.5489455e-17 -3.3822246)
(304.87376 -8.8487578e-17 -2.7416174)
(304.82536 9.3451703e-19 -3.0559859)
(304.82355 0 -2.5597493)
(304.77744 2.5598419e-17 -2.7484448)
(304.84476 1.6435226e-17 -2.3920166)
(304.80648 -1.2628073e-17 -2.486823)
(304.92545 -8.8241777e-17 -2.1795422)
(304.87444 -1.1179315e-16 -2.2695247)
(305.03377 -2.7881067e-16 -1.947851)
(304.97014 -2.6932177e-17 -2.0514577)
(305.15024 -7.3922732e-17 -1.6948964)
(305.06981 1.6075251e-16 -1.7933759)
(305.31019 4.4403271e-17 -1.4027476)
(305.19712 2.5007202e-16 -1.5066659)
(305.50587 1.2564587e-17 -1.1548841)
(305.39876 1.5059201e-16 -1.2608981)
(305.73307 1.4611276e-16 -0.88284927)
(305.61078 -1.1804429e-16 -1.0108869)
(305.89058 5.348751e-17 -0.5246388)
(305.85958 -1.9462028e-16 -0.6671889)
(305.77736 8.0386538e-17 -0.11168667)
(305.85469 -3.3051266e-18 -0.28297022)
(305.3185 7.8566945e-18 -0.30617005)
(305.40047 1.1055476e-16 0.10011258)
(305.19426 1.6334344e-18 0.81264334)
(214.84162 1.0894255e-16 -6.6753816)
(198.87986 -2.915164e-19 -6.8468766)
(246.31374 4.131935e-17 -7.7662049)
(235.7195 1.1785925e-16 -7.7947048)
(270.43165 -2.9968768e-17 -8.6724788)
(260.97614 -9.8119411e-17 -8.8570331)
(293.35859 -4.0405523e-17 -9.5914056)
(283.87704 -3.065707e-18 -9.699446)
(313.39737 -1.0397802e-16 -10.477755)
(306.93645 5.7327683e-18 -10.985787)
(322.17218 1.1883036e-16 -10.868058)
(322.69665 -5.6342358e-18 -11.228263)
(322.71623 1.9852116e-17 -10.902718)
(321.92136 5.3167786e-17 -11.995216)
(322.99192 -4.7784197e-17 -10.930929)
(323.6905 -4.4257921e-17 -10.963819)
(322.57967 -4.9396906e-19 -10.940024)
(322.18562 1.1550183e-18 -12.27568)
(322.65809 -2.1221121e-18 -10.96977)
(323.07984 -5.9105564e-18 -10.90609)
(322.38789 0 -10.994918)
(322.20007 -2.3315203e-17 -12.305687)
(322.35593 -4.0836614e-18 -11.032427)
(322.64683 2.7687716e-17 -11.070867)
(322.11252 5.3303022e-18 -11.073867)
(322.0637 -1.8316282e-17 -12.221919)
(321.9939 9.5605879e-19 -11.124086)
(322.20928 4.5776743e-17 -11.341938)
(321.7506 5.8360789e-19 -11.183944)
(321.79197 -2.5140053e-17 -12.140142)
(321.54722 -2.572912e-18 -11.248803)
(321.73681 1.546389e-17 -11.632244)
(321.25364 -2.3643952e-17 -11.322563)
(321.36142 -2.1398049e-17 -12.11742)
(320.95008 5.4747818e-18 -11.394294)
(321.13676 0 -11.8916)
(320.56806 -1.1517139e-17 -11.47782)
(320.72987 1.8345076e-17 -12.173439)
(320.14886 -1.4373564e-17 -11.5574)
(320.34812 -4.0240488e-17 -12.133527)
(319.64482 -3.4418513e-18 -11.664134)
(319.84798 -1.7449413e-17 -12.328333)
(319.03912 5.5989964e-18 -11.76746)
(319.29967 4.4106585e-19 -12.384523)
(318.29867 -6.4669175e-19 -11.851495)
(318.62093 -1.2662048e-17 -12.497248)
(317.44178 -1.0106834e-17 -11.83794)
(317.83294 -2.8370879e-17 -12.497769)
(316.45871 -2.0854751e-17 -11.717622)
(316.9003 3.1267939e-17 -12.42594)
(315.33386 -8.5481134e-17 -11.45832)
(315.82477 1.718882e-18 -12.202775)
(314.08545 3.5300273e-17 -11.022442)
(314.61048 1.0009453e-18 -11.813105)
(312.74939 1.0387498e-17 -10.390901)
(313.28926 3.3259868e-17 -11.212186)
(311.38165 -1.5367541e-16 -9.5736089)
(311.91228 -9.7810386e-17 -10.404902)
(310.04577 -8.2939629e-17 -8.6149521)
(310.5441 -7.911821e-17 -9.4227619)
(308.80324 2.8868318e-18 -7.5862484)
(309.24947 -1.4694913e-16 -8.3356758)
(307.70418 -6.3832154e-17 -6.5681702)
(308.08435 -3.4660186e-19 -7.2295419)
(306.78161 -1.680792e-16 -5.6293329)
(307.08797 -7.7333961e-17 -6.1869403)
(306.05181 8.4814105e-18 -4.8156899)
(306.28134 -7.7385532e-17 -5.2627211)
(305.5213 4.5946999e-17 -4.1547825)
(305.67324 -1.8292225e-18 -4.4859959)
(305.16845 -8.9782453e-17 -3.6026681)
(305.25857 6.2659765e-17 -3.8966665)
(304.95655 7.111543e-17 -3.1140294)
(304.95143 3.083153e-17 -3.4676144)
(304.83577 1.1121788e-16 -2.8003063)
(304.79025 5.677087e-17 -3.1005194)
(304.79951 1.760841e-17 -2.5801694)
(304.7541 3.0843965e-16 -2.7657646)
(304.82788 -1.2941748e-16 -2.3901381)
(304.7882 2.0290167e-16 -2.4892409)
(304.91057 -6.0133596e-17 -2.1685315)
(304.85742 2.8984519e-16 -2.2618768)
(305.02019 3.9078409e-16 -1.9317984)
(304.95835 -8.2383564e-17 -2.0351553)
(305.1181 4.7439141e-16 -1.6886186)
(305.0648 1.6011621e-16 -1.7757301)
(305.27091 3.6791706e-16 -1.3828822)
(305.11944 -1.1779946e-16 -1.4874295)
(305.48397 4.990681e-17 -1.1316074)
(305.36197 7.6917476e-17 -1.240196)
(305.71126 -4.5192519e-16 -0.85147597)
(305.60012 -1.2143568e-16 -0.97944589)
(305.86329 -2.7315451e-16 -0.49821821)
(305.83616 -8.7496464e-18 -0.63378002)
(305.79657 1.4729087e-17 -0.10389149)
(305.85042 -2.1058304e-16 -0.26568656)
(305.41305 1.2116184e-16 -0.24255962)
(305.58726 1.4585452e-18 0.10803541)
(305.4957 7.9839277e-17 0.78107786)
(216.47916 -5.9700527e-19 -7.6042281)
(200.46222 6.486128e-19 -7.729527)
(248.09128 -1.5702511e-18 -8.8280277)
(237.44298 -1.2807351e-16 -8.8172663)
(272.33961 -7.9215613e-17 -9.8378899)
(262.85178 2.0870313e-16 -9.9990397)
(295.36258 4.1305375e-17 -10.855569)
(285.8693 -8.6012732e-17 -10.926789)
(314.80335 1.0264441e-16 -11.794162)
(308.94966 7.0229135e-17 -12.355499)
(322.52795 -7.432389e-17 -12.164498)
(323.27655 -6.3857408e-17 -12.509794)
(322.74524 -1.8654121e-18 -12.19044)
(321.94252 -1.690319e-18 -13.344452)
(323.02886 0 -12.222264)
(323.74137 4.6725037e-17 -12.222246)
(322.61762 -3.5839944e-18 -12.232501)
(322.21204 -3.8926061e-17 -13.625988)
(322.70129 -2.5250958e-17 -12.265216)
(323.12811 1.6005903e-19 -12.177172)
(322.43104 -2.7860488e-19 -12.292118)
(322.23026 -5.3202992e-17 -13.646999)
(322.40255 1.7400243e-17 -12.331739)
(322.68978 3.8283011e-17 -12.357396)
(322.15865 1.6135423e-17 -12.37527)
(322.09902 -3.2340399e-17 -13.550917)
(322.0399 2.5874224e-17 -12.426823)
(322.24724 5.7279739e-17 -12.643332)
(321.79439 -1.3829577e-17 -12.486436)
(321.82341 -1.2521354e-17 -13.457334)
(321.58777 0 -12.547436)
(321.76067 0 -12.937968)
(321.29068 0 -12.619937)
(321.38345 -1.8071595e-17 -13.424263)
(320.98588 1.1100977e-17 -12.692461)
(321.14989 4.1520789e-20 -13.205717)
(320.61267 -4.9535663e-18 -12.778224)
(320.7411 -2.5459804e-17 -13.50214)
(320.18728 -4.5142176e-17 -12.890494)
(320.37013 8.5746983e-19 -13.483621)
(319.65178 -1.5145419e-17 -13.004436)
(319.86275 -7.8325743e-18 -13.680139)
(319.01005 -1.6348268e-17 -13.096031)
(319.29947 -6.5327091e-19 -13.723981)
(318.25652 -3.8491227e-17 -13.129023)
(318.59357 1.3181931e-17 -13.80561)
(317.38974 7.0350067e-18 -13.081423)
(317.77865 9.8521088e-18 -13.772489)
(316.37799 5.6071641e-17 -12.914241)
(316.81587 -2.7474574e-19 -13.657588)
(315.22477 8.6800179e-17 -12.586062)
(315.70851 6.5640152e-17 -13.372954)
(313.9478 -3.9864873e-18 -12.058838)
(314.46294 9.8357602e-17 -12.897443)
(312.58967 -6.10779e-17 -11.315072)
(313.11554 -1.0672128e-16 -12.188251)
(311.21012 -2.606369e-17 -10.371217)
(311.72232 -1.4056011e-17 -11.254957)
(309.87474 -1.3575223e-16 -9.2803738)
(310.35081 7.0256675e-17 -10.138373)
(308.6441 -1.645864e-16 -8.1229021)
(309.06593 2.1887551e-17 -8.9179005)
(307.56493 -5.9479917e-18 -6.9864836)
(307.92069 -1.4391885e-17 -7.6878758)
(306.66593 1.2447032e-17 -5.9440264)
(306.94971 -1.7239389e-16 -6.5358275)
(305.95985 -9.55023e-17 -5.0437605)
(306.17001 -1.7761426e-17 -5.51767)
(305.44844 8.0002291e-18 -4.3121911)
(305.5871 -3.1050537e-16 -4.6659065)
(305.11444 1.8547882e-16 -3.6842397)
(305.18491 -2.2692785e-17 -4.0219733)
(304.90734 1.4394183e-17 -3.1805128)
(304.89313 3.0644734e-17 -3.5479108)
(304.79851 2.2452651e-16 -2.8483642)
(304.753 1.6269263e-16 -3.1409917)
(304.7744 5.0508453e-16 -2.6007771)
(304.72851 2.3458564e-17 -2.7808451)
(304.80957 6.1128076e-16 -2.3876498)
(304.76812 1.135576e-17 -2.4902209)
(304.89565 3.0947751e-16 -2.1567814)
(304.84122 4.0961574e-16 -2.2529863)
(305.01231 -3.4025396e-16 -1.9151546)
(304.94956 -1.9145231e-16 -2.0176815)
(305.09916 -4.0051673e-16 -1.6897919)
(305.0656 -1.7039719e-16 -1.7583022)
(305.23731 -4.3072398e-16 -1.3631949)
(305.11504 -2.2052048e-16 -1.4710064)
(305.45152 -7.21929e-17 -1.1066003)
(305.31432 -1.9410161e-16 -1.2180742)
(305.69389 3.113531e-16 -0.81764685)
(305.57388 1.4306176e-16 -0.94649699)
(305.85145 7.7333542e-17 -0.46511181)
(305.79582 1.8254027e-16 -0.6000264)
(305.80408 -2.4677606e-16 -0.19380562)
(305.83428 -1.1351925e-17 -0.24830477)
(305.56496 -4.6389841e-17 -0.13627574)
(305.7075 -1.0019105e-16 0.11689245)
(305.98516 7.8337622e-18 0.7441462)
(218.12649 -1.1401525e-16 -8.5590629)
(202.02442 0 -8.6389886)
(249.89044 5.1169897e-17 -9.9206928)
(239.14997 -1.2166517e-16 -9.8675925)
(274.28194 2.2491221e-16 -11.039497)
(264.72561 3.1016288e-16 -11.173617)
(297.35649 -6.9890727e-17 -12.160749)
(287.88535 -9.1473151e-17 -12.1916)
(316.11268 -8.1966668e-17 -13.144064)
(310.84622 -1.5527218e-16 -13.7607)
(322.81761 2.2453021e-18 -13.490928)
(323.72608 -1.2492664e-19 -13.81006)
(322.77885 4.199849e-17 -13.509171)
(321.95111 5.7009163e-17 -14.721259)
(323.06499 1.5377889e-17 -13.544139)
(323.77991 4.5640323e-17 -13.503363)
(322.64929 -3.8322342e-17 -13.554095)
(322.21956 1.5343802e-18 -15.00111)
(322.7342 -2.2968343e-17 -13.588864)
(323.15983 4.0064847e-18 -13.470712)
(322.4597 -2.27364e-17 -13.614927)
(322.23667 -2.2827996e-17 -15.010771)
(322.43312 -4.7582815e-18 -13.653874)
(322.70787 -2.9012713e-17 -13.666377)
(322.18761 7.6056126e-19 -13.698179)
(322.11385 6.7150548e-19 -14.900108)
(322.06679 2.5281766e-17 -13.748861)
(322.26129 1.4951787e-17 -13.963704)
(321.81773 0 -13.807939)
(321.83202 0 -14.792161)
(321.60864 -1.6222673e-17 -13.868591)
(321.76192 1.1020628e-17 -14.268611)
(321.31779 -1.9494285e-17 -13.938775)
(321.37911 1.9117215e-17 -14.76721)
(321.02107 -3.36656e-17 -14.031992)
(321.15692 5.736462e-20 -14.569256)
(320.63401 -2.1937168e-17 -14.147605)
(320.75295 -2.4051449e-17 -14.878731)
(320.17735 3.8099886e-17 -14.263027)
(320.37231 4.165084e-17 -14.86726)
(319.61646 5.7510862e-18 -14.365714)
(319.85032 -3.6050911e-17 -15.048659)
(318.9662 2.7131897e-17 -14.421768)
(319.25982 2.9680398e-17 -15.075485)
(318.20193 6.0888758e-17 -14.43077)
(318.53464 -1.3897918e-17 -15.13292)
(317.30424 3.5592246e-18 -14.346436)
(317.69106 1.1052026e-16 -15.069098)
(316.26087 3.2649597e-18 -14.126577)
(316.69594 4.8905765e-19 -14.906321)
(315.0742 7.4057334e-17 -13.722729)
(315.55403 -1.0997819e-16 -14.553603)
(313.76762 1.609442e-17 -13.096616)
(314.2757 -3.5727929e-17 -13.984555)
(312.38804 -6.9075588e-17 -12.233426)
(312.90227 1.4814302e-16 -13.159194)
(310.99929 7.2912659e-17 -11.157107)
(311.49487 1.470308e-17 -12.093152)
(309.66852 2.3067056e-16 -9.9303675)
(310.12375 8.0768442e-17 -10.837516)
(308.45469 1.7389153e-16 -8.6428107)
(308.85333 -1.3823313e-17 -9.4816651)
(307.40054 -1.6314876e-16 -7.3887466)
(307.73301 1.4803352e-17 -8.1281426)
(306.5301 -2.1816456e-16 -6.2447353)
(306.79229 -7.9955252e-18 -6.8684595)
(305.85246 -2.0035255e-16 -5.2610193)
(306.04407 -2.9528036e-16 -5.7590393)
(305.36281 -3.7152162e-16 -4.4617381)
(305.48989 3.0571396e-17 -4.8370424)
(305.04899 -1.8259602e-16 -3.7686112)
(305.10123 1.5829534e-16 -4.1403778)
(304.85517 1.6442935e-16 -3.2465028)
(304.8316 -2.3440555e-16 -3.6213823)
(304.76037 -2.2654915e-17 -2.8911687)
(304.7133 -1.3456673e-17 -3.1767431)
(304.7464 -4.6695154e-16 -2.6181453)
(304.70069 -2.4007908e-16 -2.793401)
(304.79083 -2.3455581e-16 -2.3834305)
(304.74632 -2.4116257e-16 -2.4891533)
(304.88335 -2.2516397e-17 -2.143314)
(304.82551 2.8162677e-17 -2.2420742)
(305.00616 -2.4092743e-17 -1.8971782)
(304.94283 1.9190257e-16 -1.99881)
(305.0974 1.5352609e-17 -1.660523)
(305.06998 -5.2336027e-21 -1.7407843)
(305.20913 1.3705349e-17 -1.343955)
(305.11766 -4.4528084e-16 -1.4560157)
(305.40595 -1.6952866e-17 -1.0792942)
(305.25772 3.1984396e-16 -1.1947392)
(305.65245 8.7745293e-18 -0.78480649)
(305.52369 2.577879e-16 -0.91143046)
(305.80449 1.1528724e-16 -0.43893101)
(305.75327 0 -0.56662578)
(305.73929 1.5165682e-16 -0.39133676)
(305.78495 -1.4975204e-16 -0.23090632)
(305.57941 -6.3685479e-17 -0.038332124)
(305.73621 9.6505978e-18 0.12645772)
(305.82075 7.5127168e-17 0.71054838)
(219.74073 1.8138726e-18 -9.5413328)
(203.55447 -1.7834622e-16 -9.5753631)
(251.65804 9.7786479e-17 -11.043165)
(240.82462 -1.3138373e-16 -10.946453)
(276.21709 3.2328983e-17 -12.273843)
(266.58394 2.1222895e-16 -12.381099)
(299.28865 -1.6989866e-16 -13.49892)
(289.92936 3.9372002e-18 -13.492782)
(317.28252 -8.7389961e-17 -14.515458)
(312.59198 -2.3894464e-16 -15.195148)
(323.02731 4.8912234e-17 -14.836177)
(324.06695 1.3774565e-16 -15.125574)
(322.79012 6.1451709e-17 -14.846425)
(321.94159 -5.8054745e-18 -16.119877)
(323.07743 3.5556814e-17 -14.8845)
(323.80525 4.8146405e-17 -14.800872)
(322.65724 4.2703776e-17 -14.894289)
(322.20906 -4.1626733e-17 -16.394031)
(322.74316 6.2341867e-18 -14.931306)
(323.17551 3.3430272e-17 -14.779739)
(322.46054 -2.8475034e-17 -14.957542)
(322.22279 -2.2577823e-19 -16.391744)
(322.43987 -2.603168e-17 -14.9947)
(322.69676 -3.90793e-17 -14.995282)
(322.19674 1.3398895e-17 -15.041775)
(322.1111 2.8266057e-17 -16.269994)
(322.07441 -8.5732433e-18 -15.092337)
(322.25212 -2.3883453e-17 -15.307272)
(321.82802 9.8957179e-18 -15.149787)
(321.8138 0 -16.156121)
(321.62714 4.4925578e-17 -15.21995)
(321.74871 -2.287612e-17 -15.642692)
(321.33487 3.9775336e-17 -15.319093)
(321.38062 5.4603837e-17 -16.159472)
(321.0176 1.1408917e-17 -15.42734)
(321.15396 -3.1065028e-17 -15.975874)
(320.60675 3.2771716e-17 -15.547075)
(320.74543 2.5434635e-17 -16.280794)
(320.13208 -2.4515288e-17 -15.647972)
(320.34314 -4.3899499e-17 -16.263317)
(319.56544 -1.8126672e-17 -15.727432)
(319.80197 -8.7782534e-17 -16.429934)
(318.90342 -6.8523151e-18 -15.771733)
(319.19228 4.3027557e-17 -16.446447)
(318.11225 2.4063433e-17 -15.754242)
(318.44345 -1.0916679e-16 -16.482411)
(317.18482 1.1715983e-16 -15.63039)
(317.56889 1.7052065e-17 -16.385218)
(316.10656 -1.009703e-16 -15.351452)
(316.53865 8.3263079e-18 -16.169403)
(314.88532 -2.2471549e-16 -14.864783)
(315.35963 -9.9278254e-18 -15.741099)
(313.54852 7.7378193e-17 -14.131694)
(314.04736 -1.9089523e-16 -15.070102)
(312.14875 2.4324408e-16 -13.141572)
(312.64853 5.8687385e-17 -14.120211)
(310.75387 1.610961e-17 -11.92698)
(311.22963 -1.059083e-16 -12.914617)
(309.43206 -1.5149755e-16 -10.561048)
(309.86317 0 -11.515664)
(308.23999 -1.7387759e-16 -9.1426881)
(308.61235 -3.4453468e-17 -10.023051)
(307.21577 1.7074157e-16 -7.7722953)
(307.52219 1.4539725e-17 -8.5470896)
(306.37842 -5.4851931e-17 -6.5293614)
(306.61662 1.8383342e-16 -7.1821693)
(305.73328 -1.0023747e-16 -5.4657663)
(305.9044 -2.7563554e-16 -5.9848648)
(305.26771 5.4304876e-16 -4.6026333)
(305.3823 2.4487793e-16 -4.99788)
(304.97537 1.491195e-16 -3.8508805)
(305.00868 -2.5048462e-17 -4.2504949)
(304.79797 -4.3498562e-16 -3.3099392)
(304.76698 2.5592288e-18 -3.6869562)
(304.71973 -2.0482706e-16 -2.9293312)
(304.67063 1.7765793e-16 -3.2075809)
(304.7174 -1.4458065e-17 -2.6326821)
(304.67094 8.5554579e-18 -2.8033753)
(304.77105 -9.3881016e-18 -2.3772627)
(304.72289 -4.4739499e-16 -2.485903)
(304.87169 2.2373374e-16 -2.1280159)
(304.80977 -2.5328463e-16 -2.2288471)
(305.00049 2.3794123e-16 -1.8782417)
(304.93673 -2.1940966e-16 -1.9785393)
(305.09993 -4.0965396e-16 -1.6228257)
(305.07322 1.2128955e-20 -1.7229244)
(305.1804 -2.2658003e-16 -1.325591)
(305.12235 -9.0775736e-18 -1.442607)
(305.34368 6.0297313e-16 -1.0503206)
(305.19889 3.4261565e-16 -1.1713316)
(305.59504 2.7895295e-16 -0.74954628)
(305.42572 -4.37619e-18 -0.8732391)
(305.75342 -2.5012382e-16 -0.41539342)
(305.70271 3.5797757e-16 -0.53273551)
(305.68599 -3.0146351e-16 -0.44172575)
(305.73711 -1.4340704e-17 -0.21459661)
(305.48204 1.4643292e-16 0.0060833481)
(305.68895 2.1264979e-16 0.13431631)
(305.06064 4.9213927e-18 0.6863845)
(221.30972 -3.1202367e-16 -10.549687)
(205.03491 -1.7418036e-16 -10.535777)
(253.39619 -4.6268438e-17 -12.19571)
(242.45564 -1.2917253e-16 -12.05031)
(278.15738 2.0067092e-16 -13.542505)
(268.41418 -4.6145377e-18 -13.618514)
(301.16493 -4.4616703e-17 -14.870457)
(292.00246 9.1148781e-17 -14.828894)
(318.31789 -4.832096e-17 -15.907712)
(314.15564 -1.5775683e-16 -16.65285)
(323.17422 9.5474878e-17 -16.199624)
(324.31243 1.366231e-16 -16.452093)
(322.78602 -2.3011001e-17 -16.200242)
(321.89803 -5.2728138e-17 -17.536567)
(323.07686 -2.025435e-17 -16.240908)
(323.81352 1.0202485e-16 -16.112502)
(322.64897 -5.6564066e-17 -16.249042)
(322.1733 -1.1916214e-16 -17.803208)
(322.73348 2.9745405e-17 -16.286494)
(323.16786 2.4144876e-17 -16.103782)
(322.43536 -7.5154133e-18 -16.318438)
(322.20603 -3.512089e-17 -17.791328)
(322.42098 8.6866948e-18 -16.360974)
(322.67439 1.176052e-17 -16.344852)
(322.19379 -4.0456846e-18 -16.406061)
(322.07705 -4.9550849e-17 -17.666324)
(322.07754 -1.7402799e-17 -16.462341)
(322.22563 5.347406e-19 -16.689675)
(321.83298 -3.0212613e-17 -16.54089)
(321.80052 1.3554722e-17 -17.564594)
(321.61979 -1.9626882e-17 -16.631523)
(321.73609 -1.0201298e-17 -17.060882)
(321.3093 -7.7455354e-18 -16.736911)
(321.36455 3.7229614e-17 -17.582462)
(320.97316 -2.1955711e-17 -16.84686)
(321.12963 -1.4550387e-17 -17.400072)
(320.55112 -4.3933476e-17 -16.948665)
(320.7012 3.9041177e-17 -17.692476)
(320.07336 -1.0221334e-16 -17.03982)
(320.28336 -1.9547747e-17 -17.673876)
(319.49479 -3.8891185e-17 -17.114118)
(319.72712 1.2804103e-18 -17.831978)
(318.80901 -4.4304161e-17 -17.143348)
(319.09451 0 -17.84027)
(317.9906 -1.2702248e-16 -17.098563)
(318.31885 1.4328923e-17 -17.852606)
(317.02817 -8.9064049e-17 -16.930421)
(317.41013 -1.8461506e-16 -17.718711)
(315.91247 9.9497125e-17 -16.585725)
(316.34185 8.5436508e-18 -17.443621)
(314.65441 3.9805036e-17 -16.008042)
(315.12342 2.2301947e-16 -16.931509)
(313.28732 -2.3249671e-16 -15.159268)
(313.77649 -8.9764808e-18 -16.149371)
(311.86928 -2.6996381e-16 -14.034392)
(312.35358 -1.370774e-16 -15.066193)
(310.47204 -1.3197767e-16 -12.675846)
(310.92658 -1.2181194e-17 -13.714286)
(309.16417 1.1907201e-16 -11.167898)
(309.56966 -1.2427624e-19 -12.168198)
(307.99927 1.4705313e-16 -9.6186726)
(308.34399 4.4277606e-16 -10.538127)
(307.01014 1.0290745e-17 -8.1339759)
(307.28939 7.4760017e-18 -8.9414772)
(306.21061 1.2643575e-17 -6.7954388)
(306.42389 3.9087462e-16 -7.4743595)
(305.60187 1.1964488e-17 -5.6557123)
(305.75196 5.8355376e-16 -6.1934026)
(305.1628 -2.9066119e-16 -4.7338338)
(305.2651 2.7669533e-17 -5.1466701)
(304.89422 -1.7363408e-16 -3.9293948)
(304.9085 -1.640118e-17 -4.35094)
(304.73793 5.9314343e-16 -3.3637889)
(304.69887 2.1875339e-16 -3.7437858)
(304.67572 4.0869476e-16 -2.9633504)
(304.62577 3.8541431e-16 -3.23288)
(304.68626 -3.7198458e-16 -2.645667)
(304.6394 8.7612408e-18 -2.8105064)
(304.75039 -7.1284554e-16 -2.368829)
(304.69787 -1.113977e-17 -2.4803433)
(304.86008 -7.0005081e-16 -2.110625)
(304.79364 -2.9043383e-16 -2.2131417)
(304.99581 -4.8263157e-16 -1.8581534)
(304.93161 2.7197435e-17 -1.9568316)
(305.10332 4.0180063e-16 -1.5944793)
(305.07334 -2.9969909e-17 -1.7043569)
(305.15636 5.2013083e-16 -1.3085536)
(305.14013 4.8903046e-16 -1.4314489)
(305.24863 -2.2736729e-16 -1.0200863)
(305.14867 -3.5930268e-16 -1.1502286)
(305.48962 3.2624991e-17 -0.71028342)
(305.13445 -2.4981867e-16 -0.82615194)
(305.69932 6.39615e-16 -0.39048918)
(305.63122 6.9557653e-19 -0.49607584)
(305.62369 4.8973096e-16 -0.39995632)
(305.69927 2.7137162e-16 -0.19872119)
(305.29239 9.4597425e-17 -0.041074692)
(305.39895 3.6554596e-18 0.14644439)
(304.63011 -4.4773603e-16 0.66169917)
(222.84072 1.0153508e-18 -11.580784)
(206.46499 1.4588732e-18 -11.519957)
(255.10026 -9.8160019e-17 -13.373914)
(244.04381 1.053461e-18 -13.179081)
(280.09716 -1.1904275e-16 -14.841034)
(270.20897 -1.0790402e-16 -14.886302)
(302.97219 0 -16.269117)
(294.10622 0 -16.202015)
(319.20902 0 -17.313253)
(315.51106 8.6396548e-17 -18.131529)
(323.25341 6.6059653e-18 -17.574172)
(324.47218 -7.1093289e-17 -17.791136)
(322.74794 5.7351068e-17 -17.569988)
(321.84635 3.4481928e-18 -18.973929)
(323.05162 2.2668926e-17 -17.611846)
(323.79362 -2.1068897e-18 -17.441316)
(322.61364 -5.1540208e-17 -17.62276)
(322.1319 -3.9851836e-17 -19.234439)
(322.7183 -3.4590568e-17 -17.661041)
(323.13236 2.6147158e-17 -17.450815)
(322.43577 -1.999207e-17 -17.697036)
(322.17316 8.2682127e-18 -19.219862)
(322.42023 -4.03183e-17 -17.755256)
(322.66451 -4.3965328e-19 -17.727557)
(322.18147 -4.9082046e-17 -17.813197)
(322.04454 -3.7714603e-17 -19.09827)
(322.05717 2.9783033e-17 -17.885187)
(322.20053 -7.1808996e-19 -18.111992)
(321.80014 3.50135e-17 -17.970082)
(321.77113 2.7173845e-17 -19.003188)
(321.5728 4.1609671e-17 -18.067243)
(321.70737 -8.5421102e-19 -18.49924)
(321.24926 3.4788799e-17 -18.167439)
(321.31983 3.7921818e-17 -19.013558)
(320.90844 4.0760216e-17 -18.2631)
(321.06761 -4.9296515e-19 -18.833944)
(320.48549 6.7781513e-17 -18.366284)
(320.63286 -1.4378134e-17 -19.121162)
(319.99362 8.0122966e-17 -18.457001)
(320.19866 8.7394534e-17 -19.107275)
(319.39468 3.9514505e-17 -18.523753)
(319.62398 1.1909575e-16 -19.257794)
(318.68347 5.6305221e-17 -18.53687)
(318.96573 1.5479311e-17 -19.25627)
(317.83268 -2.4904974e-17 -18.461298)
(318.15944 4.9020196e-17 -19.242358)
(316.83289 -1.0578751e-16 -18.243698)
(317.21311 -7.0628498e-18 -19.066902)
(315.67695 1.1073512e-16 -17.82568)
(316.10363 -1.4054881e-16 -18.725458)
(314.38077 1.9624418e-16 -17.148034)
(314.84373 -3.4518214e-18 -18.120399)
(312.98382 9.696844e-17 -16.174312)
(313.46185 2.8084696e-16 -17.217234)
(311.55013 1.0533451e-16 -14.906708)