/*--------------------------------*- C++ -*----------------------------------*\
  =========                 |
  \\      /  F ield         | OpenFOAM: The Open Source CFD Toolbox
   \\    /   O peration     | Website:  https://openfoam.org
    \\  /    A nd           | Version:  8
     \\/     M anipulation  |
\*---------------------------------------------------------------------------*/
FoamFile
{
    version     2.0;
    format      ascii;
    class       volScalarField;
    location    "0.210011";
    object      T;
}
// * * * * * * * * * * * * * * * * * * * * * * * * * * * * * * * * * * * * * //

dimensions      [0 0 0 1 0 0 0];

internalField   nonuniform List<scalar> 
20000
(
297.70955
297.34985
296.15131
293.66134
288.9451
282.44531
281.65619
281.41231
281.95106
281.9088
282.31178
282.40744
282.76283
282.97172
283.33588
283.6505
284.06894
284.49559
285.00276
285.55121
286.16988
286.84535
287.60038
288.46273
289.40623
290.40551
291.43943
292.49086
293.52222
294.49805
295.38625
296.16404
296.81839
297.34598
297.74967
298.03868
298.24918
298.39975
298.48157
298.49461
298.47886
298.44011
298.38208
298.30235
298.24266
298.20165
298.07852
297.85183
297.69866
297.50178
297.66593
297.20529
295.89482
293.25072
288.16852
281.92471
281.46566
281.20967
281.74921
281.70467
282.10931
282.20658
282.56488
282.77882
283.14735
283.46986
283.89499
284.33125
284.84638
285.40482
286.03735
286.74664
287.55764
288.43927
289.39343
290.40478
291.46067
292.53051
293.57496
294.55676
295.44433
296.21639
296.86252
297.38136
297.77559
298.05694
298.27676
298.42092
298.48434
298.49799
298.48481
298.44262
298.37303
298.29429
298.24129
298.18744
298.00933
297.79385
297.6147
297.55435
297.55024
296.97901
295.5509
292.74218
287.25365
281.37855
281.25495
281.00198
281.55049
281.50753
281.9185
282.01956
282.38232
282.60251
282.97622
283.30737
283.739
284.18444
284.70819
285.2811
285.93675
286.68047
287.51758
288.42747
289.39773
290.43643
291.51444
292.60128
293.65561
294.63948
295.52232
296.28487
296.91949
297.42648
297.80898
298.08425
298.30185
298.43497
298.49074
298.50261
298.4884
298.44364
298.36747
298.28372
298.23394
298.1769
298.00349
297.79979
297.63518
297.58033
297.50712
296.79966
295.24956
292.28443
286.39521
280.94619
281.08735
280.82754
281.38002
281.33566
281.75012
281.85379
282.21994
282.44624
282.82458
283.1636
283.60065
284.0553
284.59141
285.18796
285.87974
286.65448
287.5096
288.43041
289.42949
290.49198
291.59225
292.69484
293.75708
294.7405
295.61577
296.36597
296.9864
297.47902
297.84778
298.11772
298.32996
298.4524
298.4997
298.50891
298.49353
298.44572
298.36466
298.27895
298.22717
298.1617
297.9763
297.77684
297.62641
297.65109
297.42924
296.59582
294.91918
291.79983
285.53221
280.57883
280.92747
280.6646
281.22453
281.1802
281.60075
281.70797
282.07766
282.31055
282.69313
283.04009
283.48442
283.95388
284.51186
285.14225
285.85578
286.64501
287.51108
288.46245
289.48884
290.57786
291.69941
292.81601
293.88334
294.86288
295.72698
296.46147
297.06471
297.54005
297.89295
298.15764
298.35912
298.46991
298.51065
298.51667
298.49875
298.44815
298.36303
298.2797
298.21924
298.14723
297.95927
297.75283
297.61786
297.66258
297.38426
296.41106
294.59538
291.31438
284.71205
280.28429
280.79582
280.52807
281.09963
281.04994
281.48008
281.58759
281.95797
282.19758
282.58467
282.94189
283.39954
283.89478
284.47744
285.12322
285.84884
286.65143
287.54519
288.52293
289.57818
290.6926
291.83432
292.96275
294.03218
295.00443
295.85388
296.56948
297.15273
297.60816
297.94347
298.20243
298.39019
298.48892
298.52193
298.52583
298.50444
298.45088
298.36257
298.28066
298.21061
298.12703
297.93592
297.72998
297.60164
297.61224
297.34239
296.23351
294.26875
290.81211
283.94539
280.0538
280.69083
280.4154
280.99561
280.94732
281.37923
281.49244
281.86279
282.11057
282.50564
282.88076
283.35769
283.87028
284.46354
285.12004
285.85964
286.68837
287.60694
288.61437
289.69804
290.83782
291.99813
293.13585
294.204
295.16522
295.99637
296.68987
297.2503
297.68329
297.99984
298.25142
298.42281
298.50785
298.53444
298.53606
298.51025
298.45343
298.36301
298.2824
298.20247
298.08862
297.91068
297.70608
297.57135
297.54483
297.32518
296.0775
293.94855
290.2916
283.2522
279.88019
280.62243
280.32985
280.9185
280.87165
281.29395
281.41209
281.79705
282.05764
282.4652
282.85541
283.34016
283.86271
284.4635
285.13722
285.89998
286.75323
287.70037
288.73706
289.84937
291.01348
292.19045
293.33447
294.39767
295.34397
296.1532
296.82147
297.35631
297.76462
298.0623
298.30324
298.45686
298.52943
298.54797
298.54687
298.51615
298.45552
298.36306
298.28339
298.19584
298.00663
297.87554
297.67867
297.55781
297.56087
297.31715
295.93279
293.62947
289.7385
282.63813
279.75109
280.54577
280.27162
280.84962
280.81571
281.23726
281.37054
281.76424
282.03557
282.44816
282.8472
283.33667
283.86911
284.48726
285.18232
285.96796
286.84879
287.8248
288.89182
290.03253
291.21987
292.41116
293.55811
294.61239
295.53976
296.32344
296.96341
297.4699
297.85155
298.13127
298.35686
298.49183
298.55141
298.5631
298.55814
298.52203
298.45696
298.36277
298.28283
298.19208
297.98456
297.81809
297.63893
297.56108
297.58005
297.32118
295.79997
293.31573
289.14704
282.10933
279.65651
280.49805
280.22608
280.8063
280.76949
281.21243
281.3505
281.7504
282.02892
282.44408
282.85083
283.35125
283.90205
284.53748
285.25504
286.06607
286.97516
287.98152
289.07913
290.24783
291.45681
292.65962
293.80573
294.84689
295.75125
296.50581
297.11449
297.58993
297.94331
298.20609
298.41174
298.52728
298.57392
298.58024
298.56913
298.52784
298.45834
298.36146
298.28242
298.19054
298.00424
297.76936
297.61097
297.55752
297.59764
297.33412
295.67908
293.01199
288.51912
281.68019
279.5958
280.47283
280.2024
280.79064
280.76619
281.20472
281.34496
281.74782
282.03355
282.45582
282.8779
283.39134
283.95996
284.6153
285.35692
286.19437
287.13323
288.17072
289.29927
290.49526
291.72393
292.93505
294.07621
295.09985
295.97708
296.69901
297.27345
297.71533
298.0394
298.28544
298.46757
298.56303
298.59713
298.59891
298.58116
298.53348
298.45896
298.35919
298.28164
298.18588
298.00205
297.76278
297.60568
297.55822
297.61267
297.3603
295.56795
292.71885
287.854
281.32401
279.56386
280.4722
280.20044
280.79237
280.76833
281.21122
281.36149
281.76144
282.06069
282.49212
282.9291
283.45695
284.04538
284.72158
285.48848
286.35385
287.32349
288.39295
289.55241
290.77463
292.02057
293.23631
294.36811
295.36968
296.21566
296.90151
297.43884
297.84505
298.13973
298.36778
298.52364
298.59888
298.62162
298.61842
298.59273
298.53886
298.45818
298.35612
298.27917
298.17618
297.99475
297.74769
297.60237
297.56673
297.62536
297.38905
295.46064
292.43
287.15001
281.04121
279.55582
280.48371
280.19442
280.80696
280.77536
281.23804
281.3974
281.80005
282.11225
282.5533
283.00651
283.54958
284.15845
284.85689
285.6503
286.54481
287.54631
288.6483
289.83848
291.08548
292.34581
293.56212
294.67984
295.6547
296.46528
297.11168
297.60921
297.97828
298.24453
298.45118
298.57925
298.63467
298.64795
298.63816
298.60451
298.54381
298.45647
298.352
298.27422
298.16682
297.97652
297.73487
297.60415
297.56105
297.63495
297.43207
295.36482
292.15471
286.43861
280.83927
279.58197
280.51686
280.2325
280.83698
280.81674
281.28404
281.45428
281.86399
282.18938
282.64033
283.1101
283.6694
284.29981
285.02172
285.84283
286.76774
287.80197
288.93693
290.15722
291.42711
292.69848
293.91086
295.00958
295.95295
296.72401
297.32773
297.78319
298.11443
298.35363
298.53366
298.63394
298.67078
298.67593
298.65766
298.61602
298.54841
298.45394
298.34649
298.26804
298.16212
297.94806
297.72396
297.60703
297.53184
297.64479
297.48536
295.27653
291.88356
285.70984
280.70944
279.6346
280.56076
280.28961
280.89121
280.8896
281.35236
281.53736
281.9521
282.29134
282.7529
283.24023
283.81673
284.46968
285.21633
286.06633
287.02276
288.09054
289.25864
290.50819
291.79861
293.07722
294.28084
295.35536
296.26233
296.98981
297.54797
297.9597
298.25319
298.46529
298.61408
298.6875
298.70804
298.70463
298.67676
298.62708
298.55304
298.45057
298.33976
298.26275
298.13861
297.90867
297.70896
297.60045
297.52608
297.66442
297.5566
295.20123
291.61816
285.00345
280.65089
279.70014
280.63267
280.37026
280.97696
280.98475
281.44761
281.643
282.06432
282.41825
282.89127
283.39687
283.99175
284.66833
285.441
286.32103
287.31007
288.41205
289.61322
290.8907
292.19883
293.48036
294.66999
295.71486
296.58046
297.2606
297.77092
298.13801
298.39425
298.57666
298.69186
298.74005
298.7471
298.73317
298.69529
298.63743
298.55743
298.44634
298.3355
298.25923
298.08637
297.86103
297.69166
297.57141
297.53426
297.73917
297.64779
295.13928
291.35335
284.32869
280.65417
279.78752
280.73339
280.47069
281.08491
281.10147
281.56453
281.77282
282.20067
282.57009
283.05538
283.58021
284.19459
284.89582
285.69577
286.60695
287.62963
288.76632
290.00023
291.30396
292.62644
293.90613
295.07617
296.08565
296.90498
297.53466
297.99555
298.31757
298.5367
298.68504
298.76672
298.7927
298.78713
298.76118
298.71315
298.64692
298.55964
298.4435
298.33449
298.25924
298.09045
297.84308
297.67635
297.56166
297.54235
297.77223
297.75401
295.0869
291.07882
283.70245
280.70963
279.90171
280.85534
280.59404
281.21597
281.2368
281.70471
281.92611
282.36117
282.74685
283.24536
283.79021
284.42528
285.15224
285.98074
286.92417
287.98142
289.15314
290.41911
291.74687
293.07984
294.3524
295.49679
296.465
297.23369
297.8107
298.22106
298.49743
298.67802
298.7888
298.83907
298.84644
298.82677
298.78847
298.73026
298.65565
298.56101
298.44285
298.33466
298.26169
298.08822
297.83004
297.66166
297.57214
297.54882
297.71496
297.87613
295.0482
290.79174
283.15711
280.81058
280.03567
280.9995
280.73904
281.36815
281.39609
281.86747
282.1031
282.54582
282.94852
283.46109
284.02688
284.68376
285.4375
286.29579
287.27258
288.36525
289.57217
290.86918
292.21832
293.55733
294.81692
295.92919
296.85038
297.56504
298.08796
298.44647
298.67573
298.81479
298.8881
298.91062
298.90014
298.86542
298.81486
298.74656
298.66406
298.56223
298.44246
298.33631
298.26327
298.06905
297.80506
297.64038
297.59528
297.56514
297.66128
298.00813
295.02013
290.4829
282.68591
280.95546
280.19102
281.16485
280.90609
281.5393
281.57771
282.05307
282.30363
282.75452
283.17488
283.7025
284.28999
284.9699
285.75156
286.64093
287.65215
288.78098
290.02297
291.34956
292.71681
294.05679
295.29698
296.3704
297.23955
297.89809
298.36544
298.66964
298.84932
298.9456
298.98378
298.98235
298.95231
298.90282
298.84017
298.76195
298.67281
298.56337
298.44201
298.33848
298.2609
298.03853
297.7581
297.63547
297.58839
297.60054
297.67902
298.14862
295.0049
290.15353
282.28184
281.10935
280.36846
281.35091
281.0955
281.73101
281.78207
282.26115
282.52732
282.98691
283.42566
283.96926
284.5794
285.28355
286.09425
287.01603
288.06275
289.22838
290.50506
291.85934
293.24085
294.57604
295.7898
296.81774
297.63115
298.23224
298.64086
298.88695
299.01613
299.071
299.07803
299.05189
299.00282
298.93874
298.86425
298.77617
298.68151
298.56429
298.44249
298.34054
298.25179
297.997
297.74241
297.63384
297.55635
297.58765
297.69445
298.29488
295.00146
289.80496
281.95441
281.30623
280.56671
281.55452
281.30608
281.94388
282.00813
282.4911
282.77367
283.24266
283.7005
284.26117
284.89481
285.62455
286.46557
287.42111
288.50437
289.70718
291.01782
292.39729
293.78849
295.11233
296.29224
297.26887
298.02436
298.56558
298.9098
299.09603
299.17585
299.19302
299.16939
299.11881
299.05125
298.97303
298.88701
298.789
298.68737
298.56503
298.44286
298.34193
298.2321
297.95084
297.73916
297.6273
297.54799
297.55808
297.71132
298.43848
295.00385
289.43703
281.70265
281.52059
280.78503
281.7762
281.53736
282.17681
282.25549
282.74253
283.0423
283.52142
283.99909
284.57791
285.23611
285.99284
286.8655
287.85619
288.97692
290.21716
291.5606
292.96221
294.3577
295.6629
296.80149
297.72239
298.41831
298.89362
299.16929
299.29566
299.3304
299.3113
299.25676
299.18266
299.0974
299.0055
298.90842
298.80088
298.6899
298.56526
298.44238
298.34137
298.19945
297.90639
297.72579
297.61734
297.5568
297.56418
297.76579
298.57972
295.01718
289.05915
281.51962
281.75878
281.02252
282.01762
281.78862
282.42963
282.52368
283.01509
283.33286
283.82286
284.3211
284.9193
285.60319
286.3885
287.29423
288.3214
289.4804
290.75794
292.13253
293.5524
294.94588
296.22452
297.31496
298.17746
298.81001
299.21156
299.41695
299.48747
299.48057
299.42387
299.33986
299.2432
299.14104
299.03601
298.92838
298.81277
298.6913
298.56462
298.44221
298.33694
298.15436
297.86872
297.70752
297.60234
297.58493
297.57226
297.83422
298.70485
295.0329
288.67205
281.41771
282.01418
281.27833
282.2768
282.05965
282.70194
282.81249
283.30847
283.64493
284.14665
284.66632
285.28534
285.99625
286.81172
287.75195
288.81685
290.01476
291.32917
292.73268
294.16613
295.55035
296.79426
297.83101
298.63308
299.19379
299.51617
299.65296
299.67424
299.62337
299.53074
299.41832
299.30022
299.18203
299.06441
298.94669
298.8248
298.69202
298.56281
298.44039
298.32711
298.10294
297.8368
297.68392
297.60255
297.60483
297.58619
297.79765
298.82697
295.05453
288.28916
281.39682
282.28895
281.55467
282.55491
282.35036
282.99363
283.12133
283.62218
283.97809
284.49265
285.03484
285.67625
286.41556
287.26285
288.23899
289.34273
290.57994
291.93029
293.35976
294.80101
296.16789
297.36922
298.34852
299.08564
299.56449
299.80565
299.88095
299.85281
299.75878
299.63135
299.49194
299.35356
299.22026
299.09065
298.96316
298.835
298.69243
298.55942
298.43456
298.31074
298.05115
297.80428
297.65617
297.60182
297.58514
297.63043
297.74578
298.93579
295.07028
287.9181
281.45054
282.57865
281.84798
282.85025
282.65942
283.30357
283.44964
283.95596
284.3324
284.86116
285.42707
286.09251
286.86159
287.74228
288.75562
289.89921
291.17582
292.56076
294.01236
295.45463
296.79552
297.94741
298.86661
299.52884
299.91865
300.0818
300.10105
300.02192
299.88616
299.72557
299.56055
299.40312
299.25564
299.11479
298.97808
298.84032
298.69162
298.55434
298.42497
298.2877
298.00142
297.76558
297.63573
297.59563
297.57252
297.63481
297.75611
299.03328
295.07583
287.57299
281.57297
282.8848
282.1589
283.16297
282.9871
283.63205
283.79768
284.31033
284.70846
285.25284
285.84359
286.53458
287.33476
288.25041
289.30222
290.48645
291.8022
293.21967
294.6885
296.12387
297.4301
298.52719
299.38202
299.95665
300.25429
300.34833
300.31015
300.18113
300.00532
299.81318
299.62406
299.44885
299.2881
299.13684
298.99228
298.84346
298.68978
298.5477
298.41251
298.25937
297.95383
297.73504
297.63186
297.59476
297.57441
297.60797
297.77538
299.12197
295.06681
287.26876
281.75689
283.20736
282.48763
283.4929
283.33346
283.97955
284.16621
284.68621
285.10703
285.66832
286.28485
287.00288
287.83553
288.78765
289.87914
291.10459
292.45889
293.90603
295.38608
296.80579
298.06927
299.10768
299.88801
300.36537
300.57397
300.60421
300.50721
300.33006
300.11606
299.89413
299.68245
299.49072
299.31759
299.15678
299.00611
298.84511
298.68715
298.54007
298.39759
298.22636
297.91541
297.72438
297.62959
297.60157
297.57478
297.61117
297.83002
299.20195
295.03401
287.0121
281.99426
283.54593
282.8346
283.84083
283.70022
284.34746
284.55648
285.08445
285.52859
286.10792
286.75117
287.49782
288.36438
289.35454
290.48678
291.75378
293.14538
294.61831
296.10223
297.49711
298.71081
299.6865
300.3776
300.75221
300.8815
300.84648
300.69176
300.46851
300.21832
299.96841
299.73575
299.52872
299.34412
299.17459
299.0184
298.84614
298.68402
298.53255
298.38355
298.19048
297.8943
297.71093
297.63022
297.62275
297.58334
297.61931
297.87599
299.28033
294.9758
286.81348
282.28096
283.90329
283.20271
284.20935
284.08861
284.73682
284.96863
285.50504
285.97308
286.57173
287.24291
288.01989
288.92195
289.95162
291.12554
292.43406
293.86111
295.35479
296.83419
298.19513
299.35335
300.25741
300.84629
301.11931
301.1762
301.07386
300.86351
300.5964
300.31215
300.03613
299.78402
299.56285
299.36782
299.1906
299.026
298.84705
298.68077
298.52646
298.37369
298.15677
297.87222
297.6986
297.63133
297.61399
297.61821
297.6308
297.8366
299.36057
294.89268
286.68557
282.59179
284.28123
283.59242
284.59794
284.49794
285.14663
285.40182
285.94762
286.44051
287.0602
287.76068
288.56987
289.50896
290.5795
291.7958
293.14534
294.60501
296.11306
297.57858
298.89708
299.99504
300.81281
301.29013
301.47085
301.45483
301.28595
301.02232
300.71377
300.39765
300.09738
299.82725
299.59305
299.38887
299.20556
299.02989
298.84684
298.6777
298.52271
298.36879
298.1192
297.84507
297.68412
297.6303
297.59399
297.61213
297.64502
297.80419
299.44581
294.78349
286.63073
282.92771
284.67588
284.00065
285.00425
284.92627
285.57605
285.85597
286.41259
286.93161
287.57415
288.30538
289.14859
290.12618
291.23878
292.49791
293.88744
295.37585
296.89056
298.33256
299.60096
300.63182
301.34636
301.70932
301.80793
301.71552
301.48251
301.16822
300.82077
300.47502
300.15224
299.86538
299.61939
299.40758
299.21972
299.03187
298.84557
298.67498
298.52093
298.36361
298.07238
297.81402
297.67891
297.62977
297.59341
297.59776
297.68337
297.81567
299.52643
294.64576
286.64825
283.35646
285.08523
284.42639
285.42838
285.37431
286.02607
286.3323
286.90116
287.44742
288.11457
288.87796
289.75691
290.7744
291.93005
293.23211
294.65976
296.17164
297.68402
299.09297
300.30476
301.25539
301.85349
302.10831
302.12679
301.95798
301.66342
301.30133
300.91763
300.54439
300.20066
299.89838
299.64215
299.42435
299.23147
299.03299
298.84335
298.67248
298.51865
298.34459
298.01655
297.78052
297.67921
297.63475
297.58933
297.60628
297.718
297.82693
299.60354
294.4879
286.73454
283.76808
285.51276
284.87252
285.87263
285.8446
286.49841
286.83209
287.4144
287.98888
288.68237
289.47932
290.39569
291.45436
292.65389
293.99856
295.46157
296.99023
298.49043
299.8572
301.0062
301.85795
302.33142
302.49105
302.42458
302.18194
301.82883
301.42195
301.00461
300.60584
300.2426
299.9265
299.66204
299.43965
299.23706
299.03377
298.84031
298.66985
298.51256
298.30217
297.9622
297.76242
297.6828
297.64646
297.58707
297.62133
297.70285
297.84197
299.67472
294.32356
286.8942
284.19908
285.96144
285.34094
286.33833
286.33784
286.9939
287.35592
287.95306
288.55681
289.27843
290.11036
291.06577
292.16682
293.41081
294.79713
296.2914
297.82865
299.30641
300.62241
301.69833
302.43343
302.78397
302.8535
302.70103
302.38737
301.97897
301.53039
301.0819
300.6594
300.27831
299.95053
299.67992
299.45351
299.23992
299.0333
298.83649
298.66663
298.50074
298.24235
297.91979
297.75481
297.68954
297.64263
297.58741
297.63786
297.70288
297.88639
299.74108
294.16178
287.12355
284.65605
286.43041
285.83175
286.82548
286.85412
287.51297
287.90444
288.51798
289.15209
289.90365
290.77205
291.76806
292.91262
294.20133
295.62756
297.1476
298.68403
300.12924
301.38667
302.3727
302.9772
303.21552
303.193
302.95578
302.57448
302.11426
301.62702
301.14968
300.70533
300.30872
299.9718
299.69626
299.46396
299.24107
299.0314
298.83189
298.66212
298.48214
298.1764
297.88761
297.74854
297.68933
297.63799
297.59435
297.65339
297.71381
297.9174
299.80034
293.99455
287.41894
285.13815
286.91908
286.34503
287.33445
287.39409
288.05639
288.47853
289.11004
289.77561
290.55903
291.46541
292.50356
293.69259
295.02574
296.489
298.02761
299.55283
300.95557
302.14622
303.02044
303.48917
303.62598
303.5075
303.18886
302.7436
302.23512
301.71211
301.20815
300.74442
300.33546
299.99121
299.71009
299.46848
299.24179
299.02814
298.82656
298.65504
298.45418
298.11684
297.8626
297.74228
297.68478
297.63788
297.60843
297.66794
297.73143
297.87842
299.86295
293.83827
287.76747
285.64618
287.42855
286.8817
287.86612
287.95886
288.6251
289.07898
289.73013
290.42839
291.24562
292.19157
293.27335
294.50759
295.8843
297.38029
298.92882
300.43195
301.78256
302.89231
303.63635
303.97394
304.01169
303.79704
303.40054
302.89527
302.342
301.78592
301.25792
300.77817
300.35974
300.00764
299.71859
299.4705
299.24177
299.02374
298.8206
298.64431
298.41574
298.06933
297.8436
297.7345
297.6786
297.63939
297.62557
297.68174
297.74789
297.85534
299.93634
293.69906
288.16366
286.17772
287.95962
287.44256
288.42126
288.54914
289.21994
289.70647
290.3792
291.11155
291.96468
292.95188
294.07861
295.35837
296.77668
298.29942
299.84766
301.31778
302.60679
303.61527
304.21554
304.43616
304.36889
304.06143
303.59121
303.02998
302.43526
301.84893
301.30028
300.80806
300.38029
300.01732
299.72185
299.47112
299.24027
299.01845
298.81413
298.62987
298.37028
298.03035
297.82916
297.72681
297.67438
297.64197
297.64544
297.69853
297.7618
297.86707
300.02674
293.58209
288.6075
286.73438
288.51333
288.02843
289.00061
289.16508
289.84169
290.36198
291.05851
291.82656
292.71774
293.74776
294.92053
296.24559
297.70231
299.24411
300.78097
302.20701
303.42306
304.30669
304.76152
304.87161
304.69766
304.30108
303.76153
303.14831
302.51536
301.90221
301.33701
300.83408
300.39254
300.02072
299.72269
299.47122
299.23746
299.01245
298.80714
298.61159
298.31871
297.99687
297.81569
297.72191
297.67255
297.64715
297.67968
297.72156
297.77317
297.8774
300.14015
293.48789
289.09281
287.31533
289.08935
288.63964
289.60423
289.80749
290.49161
291.04704
291.76975
292.57518
293.50648
294.58079
295.80032
297.1695
298.65972
300.21109
301.72485
303.09564
304.22089
304.96032
305.27854
305.27699
304.99753
304.51638
303.91209
303.25074
302.58313
301.94756
301.36919
300.85295
300.39723
300.02124
299.72232
299.47024
299.23335
299.00585
298.7993
298.58931
298.26573
297.96413
297.79994
297.7204
297.67799
297.66034
297.74811
297.76132
297.78478
297.88567
300.28292
293.42492
289.61785
287.9208
289.68835
289.27698
290.23409
290.47822
291.17166
291.76357
292.51488
293.35935
294.33268
295.4525
296.71899
298.13004
299.64704
301.19706
302.67571
303.97995
304.99056
305.57407
305.76823
305.6497
305.269
304.70807
304.04359
303.33807
302.64019
301.98681
301.39522
300.86121
300.39849
300.02041
299.72102
299.46772
299.22813
298.99868
298.78992
298.56263
298.21302
297.93628
297.78972
297.72391
297.69961
297.68588
297.75097
297.7888
297.81295
297.89421
300.45902
293.41071
290.17942
288.55254
290.31195
289.94281
290.89245
291.1794
291.88396
292.51356
293.29593
294.18101
295.19822
296.36446
297.67732
299.1263
300.6614
302.19782
303.62876
304.85153
305.72295
306.15171
306.22589
305.98973
305.5124
304.87684
304.15671
303.41154
302.68868
302.02003
301.41001
300.86468
300.39818
300.0181
299.71797
299.46386
299.222
298.991
298.77788
298.52873
298.16245
297.91484
297.78689
297.73667
297.74705
297.72971
297.74308
297.78497
297.84354
297.90821
300.67891
293.42554
290.78212
289.21447
290.9628
290.63907
291.58206
291.91277
292.6306
293.29911
294.11509
295.0424
296.10496
297.31818
298.67567
300.15691
301.69955
303.20965
304.57979
305.69939
306.41175
306.6991
306.64759
306.29722
305.72859
305.02359
304.25257
303.47319
302.7301
302.04369
301.41663
300.86567
300.39564
300.01335
299.71334
299.45878
299.21526
298.983
298.76217
298.48223
298.11913
297.89923
297.79001
297.7513
297.75168
297.76776
297.74918
297.79076
297.83528
297.95244
300.93172
293.45118
291.42122
289.90766
291.6414
291.36828
292.30328
292.68055
293.41381
294.12256
294.97466
295.94573
297.05491
298.31485
299.71374
301.21932
302.7572
304.22748
305.52289
306.51191
307.05779
307.21254
307.03234
306.57259
305.91834
305.14928
304.33289
303.52514
302.76298
302.05456
301.41919
300.86443
300.3902
300.00662
299.70717
299.45266
299.20814
298.97473
298.74299
298.42732
298.08203
297.8851
297.79366
297.76072
297.74946
297.75812
297.7601
297.79811
297.84316
297.95401
301.23624
293.51716
292.09711
290.63581
292.35134
292.1325
293.05967
293.48478
294.23629
294.98643
295.87723
296.89332
298.04989
299.35528
300.79054
302.31048
303.83015
305.24614
306.44765
307.28082
307.66591
307.68823
307.38016
306.81672
306.08275
305.25536
304.40011
303.56831
302.78177
302.05903
301.41926
300.85957
300.38229
299.99796
299.69963
299.44568
299.20076
298.96583
298.72056
298.36958
298.04971
297.87451
297.7973
297.76854
297.7545
297.75858
297.77231
297.8082
297.85599
297.92363
301.58807
293.61352
292.80812
291.39882
293.09318
292.93378
293.85347
294.32817
295.1008
295.89365
296.8254
297.88767
299.09152
300.43965
301.90397
303.42617
304.91319
306.25943
307.34125
308.0008
308.23894
308.12199
307.69142
307.03049
306.22305
305.34377
304.45627
303.59999
302.79022
302.06028
301.4155
300.85179
300.37204
299.9876
299.69087
299.43803
299.19317
298.95529
298.69316
298.31173
298.02383
297.86937
297.80108
297.7762
297.76237
297.76398
297.78577
297.82244
297.86116
297.92446
301.98796
293.74818
293.55822
292.20271
293.87092
293.77561
294.68823
295.21376
296.0107
296.84736
297.82207
298.93086
300.18086
301.56721
303.0511
304.56174
306.00071
307.25971
308.19174
308.67544
308.77148
308.51433
307.96693
307.21518
306.34105
305.41714
304.50127
303.61574
302.79335
302.05775
301.40808
300.84119
300.35975
299.97572
299.68108
299.42995
299.18551
298.9418
298.65612
298.26033
298.00235
297.86594
297.80594
297.78413
297.77113
297.77243
297.80134
297.83749
297.86477
297.93055
302.43949
293.95161
294.34527
293.04964
294.68664
294.66059
295.56708
296.14491
296.96939
297.85083
298.8697
300.02482
301.3184
302.73625
304.22775
305.71155
307.08526
308.23248
308.99034
309.31033
309.25838
308.86503
308.20767
307.37224
306.43892
305.47768
304.53063
303.62247
302.79263
302.05059
301.39731
300.82813
300.34565
299.96249
299.67042
299.42171
299.17812
298.92527
298.60598
298.2198
297.9844
297.86292
297.81169
297.79292
297.78012
297.78471
297.82015
297.84681
297.86995
297.93486
302.93301
294.21825
295.1686
293.94276
295.54403
295.59273
296.49442
297.12547
297.98033
298.90701
299.97057
301.17079
302.5037
303.94397
305.42897
306.86941
308.15954
309.16482
309.73676
309.90206
309.69857
309.17511
308.41517
307.50387
306.51932
305.52528
304.54507
303.62433
302.78652
302.03955
301.38354
300.8129
300.32996
299.94807
299.6591
299.41354
299.17114
298.90701
298.55031
298.18339
297.97
297.86205
297.81817
297.80247
297.78887
297.8022
297.83805
297.85661
297.87866
297.94013
303.46556
294.56151
296.03081
294.88713
296.44761
296.5766
297.47509
298.15853
299.04629
300.0182
301.1265
302.3696
303.73545
305.18624
306.6485
308.027
309.21058
310.04399
310.43528
310.44504
310.09174
309.44548
308.59116
307.61273
306.58463
305.55374
304.55112
303.6208
302.77575
302.0249
301.36713
300.79576
300.31289
299.93263
299.64727
299.40548
299.1639
298.88643
298.49131
298.15106
297.95808
297.86356
297.8256
297.81271
297.79873
297.82218
297.85274
297.88278
297.90087
297.94542
304.03419
295.00118
296.93454
295.88791
297.4026
297.61346
298.51149
299.24681
300.16952
301.18695
302.33928
303.62124
305.01099
306.45785
307.87955
309.17586
310.22343
310.86424
311.08838
310.93526
310.4388
309.67794
308.7382
307.70162
306.63515
305.56724
304.55155
303.61135
302.76073
302.00714
301.34839
300.77696
300.29466
299.91631
299.63511
299.39757
299.15478
298.86007
298.4346
298.12412
297.95044
297.86717
297.83456
297.82372
297.81133
297.83841
297.86695
297.88832
297.92188
297.96906
304.62776
295.55518
297.88042
296.9465
298.41161
298.70484
299.60579
300.39305
301.35313
302.41606
303.61047
304.92496
306.32626
307.75193
309.11308
310.30424
311.18198
311.62834
311.68851
311.37262
310.74061
309.87447
308.8592
307.77258
306.66406
305.57263
304.54513
303.5969
302.74202
301.98667
301.32763
300.75673
300.27547
299.89928
299.62281
299.39002
299.14253
298.82276
298.3859
298.10284
297.9467
297.87277
297.84482
297.83586
297.83116
297.85653
297.87635
297.88439
297.91446
297.97504
305.23182
296.24706
298.87261
298.06447
299.47722
299.85365
300.76233
301.60167
302.60132
303.70872
304.94086
306.27796
307.67535
309.06037
310.33845
311.39459
312.07646
312.34299
312.2295
311.75771
310.99926
310.03803
308.95728
307.82545
306.67768
305.57153
304.53246
303.57798
302.72017
301.9639
301.30513
300.73528
300.2555
299.88173
299.61055
299.38325
299.12802
298.77541
298.3457
298.08553
297.94499
297.87968
297.85594
297.84979
297.86517
297.87623
297.88292
297.88927
297.91566
297.95951
305.83056
297.10579
299.91359
299.24247
300.60486
301.06434
301.98779
302.8787
303.91865
305.06702
306.32935
307.67575
309.05035
310.37281
311.54291
312.42966
312.90736
312.99884
312.71107
312.09148
311.21702
310.17182
309.0346
307.85589
306.6827
305.56236
304.51438
303.55526
302.69564
301.93919
301.28117
300.71277
300.23493
299.86388
299.5984
299.37739
299.11237
298.72223
298.31028
298.07103
297.94419
297.88734
297.86748
297.86355
297.8678
297.88038
297.8897
297.89807
297.91773
297.95922
306.4208
298.14871
301.01061
300.48137
301.8043
302.34545
303.29067
304.23043
305.30843
306.49128
307.7725
309.11095
310.44127
311.67639
312.70813
313.39554
313.6812
313.58944
313.13346
312.37617
311.39734
310.27941
309.0903
307.87046
306.67974
305.54665
304.49165
303.52935
302.66892
301.91292
301.256
300.68935
300.21389
299.84596
299.58629
299.37163
299.09531
298.66487
298.27935
298.05956
297.94529
297.89528
297.87822
297.87471
297.87013
297.88566
297.89656
297.90598
297.92135
297.96208
306.99853
299.41817
302.20821
301.79884
303.08737
303.70766
304.67921
305.65957
306.77158
307.97921
309.26428
310.57394
311.83554
312.95588
313.81454
314.2901
314.38965
314.11273
313.49767
312.61446
311.54374
310.36327
309.12241
307.87518
306.66821
305.52518
304.46503
303.5008
302.64042
301.88542
301.22989
300.66514
300.19248
299.82825
299.57407
299.36394
299.07433
298.60808
298.25277
298.05079
297.94738
297.9026
297.88724
297.88385
297.87793
297.89288
297.90301
297.91141
297.92585
297.96422
307.62352
300.73627
303.50644
303.21345
304.46293
305.16401
306.14885
307.16653
308.30706
309.52657
310.79554
312.05225
313.21758
314.19153
314.84502
315.11898
315.02484
314.56916
313.80627
312.81048
311.66024
310.42173
309.13798
307.87061
306.64966
305.49894
304.43525
303.47017
302.61055
301.85702
301.20308
300.64029
300.17074
299.81105
299.56206
299.3526
299.04526
298.55803
298.23035
298.0442
297.94977
297.90911
297.89535
297.89218
297.88614
297.90014
297.90877
297.91667
297.93121
297.96608
308.34688
302.1847
304.8715
304.73523
305.9313
306.69221
307.6963
308.75555
309.91174
311.1248
312.35371
313.52994
314.56882
315.36114