/*--------------------------------*- C++ -*----------------------------------*\
  =========                 |
  \\      /  F ield         | OpenFOAM: The Open Source CFD Toolbox
   \\    /   O peration     | Website:  https://openfoam.org
    \\  /    A nd           | Version:  8
     \\/     M anipulation  |
\*---------------------------------------------------------------------------*/
FoamFile
{
    version     2.0;
    format      ascii;
    class       volVectorField;
    location    "0.210011";
    object      U;
}
// * * * * * * * * * * * * * * * * * * * * * * * * * * * * * * * * * * * * * //

dimensions      [0 1 -1 0 0 0 0];

internalField   nonuniform List<vector> 
20000
(
(199.71085 -1.6294157e-16 -4.880153)
(236.70748 -9.1148271e-22 -5.464476)
(261.0553 0 -6.254384)
(281.63835 8.3747386e-17 -6.8485207)
(299.48609 -7.0958533e-17 -7.6829325)
(311.03227 0 -7.8878279)
(311.09045 0 -8.4657645)
(312.23537 0 -7.6449306)
(311.15111 1.0926092e-18 -8.7035086)
(311.57204 0 -7.5521929)
(310.83059 -4.6992823e-17 -8.7334755)
(310.82833 4.0243583e-17 -7.6620637)
(310.15306 0 -8.6578932)
(309.79682 -1.093865e-19 -7.8666638)
(309.05701 -2.33117e-17 -8.5720471)
(308.36745 -1.9448008e-17 -8.0948696)
(307.41407 3.236716e-17 -8.5373937)
(306.35146 -6.6736168e-18 -8.3110683)
(305.05779 -2.1881413e-17 -8.5661211)
(303.55872 1.8889973e-17 -8.4879282)
(301.81284 9.5103427e-19 -8.6161566)
(299.78136 -1.3340084e-17 -8.5918086)
(297.40879 -2.0806213e-17 -8.6768261)
(294.66809 1.5880465e-17 -8.699416)
(291.6065 0 -8.6659795)
(288.28034 2.153225e-17 -8.5156863)
(284.75588 -1.6130416e-17 -8.25985)
(281.1145 1.552526e-19 -7.8641329)
(277.49586 -9.6768407e-17 -7.3344631)
(274.03782 5.7903005e-17 -6.6869756)
(270.87014 0 -5.9684507)
(268.08734 0 -5.236367)
(265.74489 0 -4.5475809)
(263.85582 -2.7368669e-17 -3.9413785)
(262.41591 1.1306655e-16 -3.4363242)
(261.39128 1.062418e-18 -3.0492099)
(260.63695 7.7029978e-17 -2.772616)
(260.14562 5.8386814e-17 -2.5420328)
(259.92801 -2.9611311e-17 -2.31612)
(259.91136 -6.6600203e-19 -2.1143432)
(259.99364 -3.100262e-17 -1.9421873)
(260.15869 2.3225183e-17 -1.7669423)
(260.41324 -2.6709119e-19 -1.5515242)
(260.69062 1.966937e-19 -1.3084242)
(260.94872 0 -1.0987594)
(261.18763 -1.3986436e-17 -0.89885901)
(261.72668 1.0306252e-17 -0.61064538)
(262.15902 7.7693259e-18 -0.26147427)
(262.24724 -5.9862461e-18 0.076217766)
(262.55969 0 0.73358274)
(201.61885 3.0998419e-19 -5.7134286)
(238.79689 9.243864e-19 -6.4448599)
(263.23738 9.9402114e-17 -7.3246338)
(283.79676 -1.9835002e-18 -7.9775076)
(301.44754 1.1267237e-18 -8.8980739)
(312.10681 1.8958417e-18 -9.0317673)
(311.70325 0 -9.6740143)
(312.86394 0 -8.7890504)
(311.75972 -3.3382248e-18 -9.9448669)
(312.1856 6.2935729e-17 -8.7237079)
(311.42393 -5.0871083e-17 -9.9814207)
(311.41944 4.1087561e-17 -8.8553303)
(310.72539 -3.41669e-17 -9.8999516)
(310.35603 0 -9.0750857)
(309.59562 4.7420441e-17 -9.8045157)
(308.88317 -2.9463448e-17 -9.3116318)
(307.90499 8.1727631e-18 -9.758735)
(306.81459 6.7986104e-18 -9.5209406)
(305.4921 -1.1339688e-17 -9.7638116)
(303.95517 1.8618923e-17 -9.6722376)
(302.14826 -3.1024338e-17 -9.7933801)
(300.00777 6.3735432e-17 -9.7782035)
(297.50056 0 -9.8516067)
(294.68147 5.2041654e-17 -9.8378673)
(291.57523 -4.2515247e-17 -9.7566959)
(288.18694 -2.332896e-17 -9.5463022)
(284.59172 3.7714155e-17 -9.2168898)
(280.8939 -1.5341156e-17 -8.7308638)
(277.2403 1.7173789e-16 -8.096283)
(273.77324 -1.9500087e-17 -7.3359139)
(270.6196 -4.6660733e-17 -6.5031936)
(267.86769 4.883015e-17 -5.6623697)
(265.5635 1.3345624e-16 -4.8753975)
(263.71362 1.1778669e-16 -4.1837493)
(262.31186 -9.0220272e-17 -3.6064223)
(261.31058 1.3720465e-16 -3.1664296)
(260.54621 -1.2938862e-16 -2.8515106)
(260.08399 -1.3577302e-16 -2.5875028)
(259.90317 0 -2.3358779)
(259.89056 0 -2.1190893)
(259.96805 3.1598518e-17 -1.9383005)
(260.14109 -2.0940686e-16 -1.7566758)
(260.40524 -2.7365081e-16 -1.5387657)
(260.67204 2.0120158e-16 -1.2947812)
(260.92749 -1.6678301e-16 -1.0857792)
(261.20869 2.3310362e-16 -0.87718635)
(261.81139 -1.0201918e-17 -0.58546319)
(262.25042 1.1531888e-16 -0.25035069)
(262.40048 1.1773204e-17 0.08087242)
(262.50512 5.7715828e-19 0.71137592)
(203.76544 -1.9902282e-18 -6.5912653)
(241.07483 2.4790823e-16 -7.4774619)
(265.58413 -2.0284168e-16 -8.4646713)
(286.08941 1.7410787e-16 -9.1920907)
(303.43245 -2.9282676e-16 -10.220564)
(313.07512 1.216503e-16 -10.280423)
(312.26943 1.0778387e-16 -10.982024)
(313.44091 -8.6743698e-17 -10.008116)
(312.30929 2.2660117e-18 -11.245406)
(312.74076 -3.7664443e-18 -9.9423618)
(311.9556 0 -11.26479)
(311.94754 0 -10.081559)
(311.23378 -8.6851081e-18 -11.167463)
(310.84994 2.1734707e-17 -10.31279)
(310.06879 -2.4038695e-17 -11.060614)
(309.33373 3.0076862e-17 -10.554074)
(308.33303 -4.1526279e-17 -10.998762)
(307.21539 0 -10.750601)
(305.8572 1.1513273e-17 -10.982279)
(304.26104 -3.7976228e-17 -10.88881)
(302.35905 1.5653455e-17 -11.014969)
(300.11218 -2.59706e-17 -11.007059)
(297.52852 4.2814268e-17 -11.056518)
(294.64405 -5.2899301e-17 -10.994337)
(291.46411 4.3194735e-17 -10.860109)
(287.9911 -9.4318945e-17 -10.590326)
(284.32054 -5.7422345e-17 -10.180726)
(280.56758 1.3984914e-16 -9.597589)
(276.88474 -1.4938487e-16 -8.8517458)
(273.41726 -1.1944111e-16 -7.9735464)
(270.28833 -1.5657186e-17 -7.0238161)
(267.57872 2.4816506e-17 -6.0736725)
(265.32423 -1.5391658e-16 -5.1896057)
(263.52536 -1.337668e-16 -4.4143291)
(262.17183 1.8220738e-16 -3.7678109)
(261.19227 -1.3830545e-16 -3.2785876)
(260.44305 0 -2.9254934)
(260.02072 1.365773e-16 -2.6266345)
(259.86724 4.3552832e-17 -2.3512776)
(259.86376 -2.1493313e-17 -2.1214226)
(259.94478 -2.219034e-16 -1.932)
(260.12808 1.6313293e-16 -1.743165)
(260.40587 5.4748161e-16 -1.5236145)
(260.6548 2.2604188e-16 -1.2789806)
(260.91173 4.248993e-16 -1.0686931)
(261.2331 -4.3645052e-16 -0.85088391)
(261.83285 -3.2411569e-16 -0.5568364)
(262.27002 -1.21564e-16 -0.23570639)
(262.47634 1.7928821e-16 0.087440039)
(262.53188 2.2494761e-18 0.6860858)
(205.80083 1.3531776e-18 -7.4999682)
(243.21414 -2.961314e-18 -8.5261376)
(267.78982 0 -9.6248365)
(288.25074 -1.7623909e-16 -10.418557)
(305.20569 2.969293e-16 -11.548206)
(313.88273 -1.2968539e-16 -11.520725)
(312.7551 -3.3234611e-18 -12.292967)
(313.94275 0 -11.228954)
(312.78645 0 -12.557276)
(313.2248 -7.6423275e-18 -11.174775)
(312.41679 -4.4688582e-17 -12.567545)
(312.405 5.2995887e-17 -11.328145)
(311.67139 -2.6545378e-17 -12.457111)
(311.2728 6.6167259e-17 -11.572725)
(310.47169 -2.4436926e-17 -12.336692)
(309.71498 0 -11.814002)
(308.69006 0 -12.253904)
(307.53587 0 -12.000627)
(306.12101 2.336442e-17 -12.232915)
(304.43497 -3.8469554e-17 -12.153645)
(302.43737 -4.7987546e-17 -12.284033)
(300.11486 2.6271877e-17 -12.261425)
(297.48201 -6.5381562e-17 -12.269771)
(294.52847 -1.9859997e-19 -12.161758)
(291.25486 1.4568416e-17 -11.978289)
(287.69654 9.5727169e-17 -11.64334)
(283.95236 5.8222063e-17 -11.148439)
(280.14977 -7.8510559e-17 -10.462403)
(276.44671 -2.5101435e-17 -9.6005367)
(272.98996 -2.0485772e-17 -8.6012585)
(269.8978 -2.3952649e-16 -7.5331264)
(267.24199 -2.5113222e-17 -6.4739549)
(265.04763 1.9399277e-17 -5.4941136)
(263.30959 0 -4.6369341)
(262.0111 -1.8376679e-16 -3.9242743)
(261.05216 2.4405668e-16 -3.3874501)
(260.33534 5.2481861e-17 -2.9960758)
(259.95402 -3.9249679e-17 -2.6627781)
(259.82773 4.8146945e-16 -2.3650947)
(259.83207 3.6680855e-16 -2.1229848)
(259.92064 7.1508401e-16 -1.9251326)
(260.11613 -3.0339743e-16 -1.7288708)
(260.40617 -2.7375736e-16 -1.5090607)
(260.64119 -4.2635628e-16 -1.2644615)
(260.88935 -2.9458064e-16 -1.0504769)
(261.24739 2.3055113e-16 -0.82350518)
(261.84586 3.1138759e-16 -0.52837637)
(262.29144 -2.4018559e-16 -0.22099807)
(262.53395 -1.7632416e-16 0.095197391)
(262.54811 1.3634808e-16 0.65803598)
(207.78369 0 -8.437817)
(245.29729 -2.5767599e-16 -9.6032104)
(269.93574 4.2212186e-16 -10.817924)
(290.35796 7.0527718e-20 -11.683811)
(306.81178 -1.5222678e-16 -12.91155)
(314.55642 4.0036902e-18 -12.783714)
(313.17312 0 -13.63693)
(314.37589 8.9683389e-17 -12.478388)
(313.19203 -7.4791926e-17 -13.899996)
(313.6366 7.7813072e-18 -12.434947)
(312.80403 -5.8389164e-17 -13.897159)
(312.78712 2.1522636e-17 -12.599778)
(312.03382 -3.5974399e-17 -13.768415)
(311.61992 4.4785885e-17 -12.852662)
(310.79867 0 -13.628588)
(310.01628 0 -13.092116)
(308.95495 -3.4361843e-17 -13.532264)
(307.73915 7.8701245e-20 -13.28723)
(306.2475 -7.0966172e-17 -13.533712)
(304.48168 3.9255645e-17 -13.462194)
(302.42467 3.2352135e-17 -13.573087)
(300.0546 -2.696505e-17 -13.522468)
(297.35779 8.8476648e-17 -13.494387)
(294.31103 1.8276487e-17 -13.347063)
(290.94175 -1.4798411e-17 -13.10892)
(287.29549 2.4465078e-17 -12.702793)
(283.48044 1.1873231e-16 -12.115821)
(279.6344 -1.1200662e-16 -11.32037)
(275.92087 0 -10.337219)
(272.4867 1.4279655e-16 -9.2135231)
(269.44385 2.7433471e-16 -8.0258536)
(266.85367 0 -6.8584462)
(264.73023 -3.1514761e-16 -5.7847216)
(263.06328 -3.0391482e-17 -4.84809)
(261.82678 -3.4781943e-16 -4.0734107)
(260.89054 -2.8097191e-16 -3.4906858)
(260.22081 0 -3.0612155)
(259.8853 3.1586936e-16 -2.694964)
(259.78213 -4.3962268e-16 -2.3766497)
(259.79564 -3.4637855e-16 -2.1228108)
(259.89642 -1.5896806e-17 -1.9166709)
(260.10613 -2.335795e-17 -1.7132858)
(260.40308 -1.7076916e-17 -1.4940189)
(260.63271 5.006605e-17 -1.2508687)
(260.86184 -3.6681312e-17 -1.0309775)
(261.25099 1.3486936e-17 -0.79465481)
(261.8504 0 -0.49965033)
(262.30113 2.2252044e-16 -0.20587501)
(262.55813 5.6053324e-18 0.10407136)
(262.51517 -1.3537542e-16 0.62954837)
(209.68586 0 -9.4044569)
(247.2812 4.1033071e-18 -10.709671)
(271.98217 2.1522428e-16 -12.042569)
(292.38701 -1.8307034e-16 -12.980548)
(308.21733 -1.5495997e-16 -14.298647)
(315.09401 -4.1527373e-18 -14.062667)
(313.50545 1.0973777e-16 -15.003058)
(314.72484 0 -13.744646)
(313.51271 7.6092441e-17 -15.261712)
(313.96566 8.5359229e-20 -13.712376)
(313.10715 1.3253902e-17 -15.245124)
(313.08378 -7.6704882e-17 -13.891398)
(312.31444 3.6478051e-17 -15.097989)
(311.88279 -1.5198964e-17 -14.150352)
(311.03536 0 -14.938907)
(310.21233 2.1013737e-17 -14.399608)
(309.09536 6.9970263e-17 -14.855051)
(307.81209 9.8417958e-21 -14.625699)
(306.25947 2.4001451e-17 -14.867063)
(304.449 3.9896461e-17 -14.783696)
(302.34682 -9.9157936e-17 -14.8681)
(299.91279 8.164564e-17 -14.795319)
(297.12886 -1.1243058e-16 -14.736243)
(293.98678 1.847793e-16 -14.546175)
(290.51981 1.5413709e-17 -14.248688)
(286.7864 -2.22315e-16 -13.764564)
(282.90467 -1.8053074e-16 -13.078489)
(279.02308 3.7252828e-16 -12.166946)
(275.31023 2.5820597e-17 -11.057421)
(271.91148 0 -9.8064477)
(268.93092 -2.9473948e-16 -8.4987499)
(266.41815 2.5503546e-17 -7.2245399)
(264.37617 2.9816686e-16 -6.0593374)
(262.78984 -4.7492757e-16 -5.0462521)
(261.62054 3.9722582e-16 -4.2141745)
(260.71207 5.487329e-16 -3.5872631)
(260.09984 -3.9895958e-16 -3.1199859)
(259.81137 -3.3728562e-16 -2.7230616)
(259.73251 2.9433001e-17 -2.3860797)
(259.75522 -6.514181e-17 -2.1208218)
(259.87171 6.3852757e-17 -1.906363)
(260.09707 3.5061409e-16 -1.6966106)
(260.39873 1.7081033e-17 -1.4786759)
(260.62714 -8.1163109e-16 -1.2386022)
(260.83174 5.8447711e-16 -1.0108011)
(261.23975 4.28572e-16 -0.76363761)
(261.85894 0 -0.47121898)
(262.31037 -4.8335544e-16 -0.19143685)
(262.55834 1.1009745e-17 0.11264485)
(262.42966 2.6869024e-16 0.60198612)
(211.49044 -3.6495944e-16 -10.397575)
(249.15924 -2.7180204e-16 -11.843223)
(273.92085 2.1934444e-16 -13.297345)
(294.33568 1.8660827e-16 -14.309345)
(309.41194 -3.1517136e-16 -15.707478)
(315.50311 2.6904836e-16 -15.355124)
(313.74762 -1.1847687e-16 -16.388491)
(314.98752 9.2588751e-17 -15.024678)
(313.74204 -1.5454021e-16 -16.637772)
(314.20681 6.4177055e-17 -15.001513)
(313.31084 -1.3395046e-17 -16.606374)
(313.27193 0 -15.200507)
(312.50241 1.8548656e-17 -16.447574)
(312.04431 -3.0866953e-17 -15.47415)
(311.15796 0 -16.285509)
(310.28595 -6.4175798e-17 -15.756739)
(309.12006 3.5427768e-17 -16.218438)
(307.79254 -5.8900646e-17 -15.986074)
(306.20558 2.4543133e-17 -16.20846)
(304.35022 -1.216369e-16 -16.11082)
(302.1858 -6.7107417e-17 -16.176653)
(299.66825 0 -16.085286)
(296.79305 -9.1379641e-17 -15.992288)
(293.55118 -1.500039e-16 -15.756554)
(289.98582 0 -15.393777)
(286.16662 2.0046417e-16 -14.82445)
(282.22373 -1.6313191e-16 -14.031656)
(278.31596 -2.6274041e-16 -12.997177)
(274.61614 -2.1115234e-16 -11.756372)
(271.26646 0 -10.375753)
(268.36143 2.3141443e-16 -8.9481952)
(265.93779 -1.8686439e-19 -7.5692623)
(263.98776 2.002449e-17 -6.3155557)
(262.49086 -4.682451e-19 -5.2296829)
(261.39141 2.3590707e-17 -4.3449872)
(260.52033 -5.8784174e-16 -3.6760035)
(259.97258 4.0117404e-16 -3.1714627)
(259.72883 6.381355e-16 -2.746593)
(259.67882 -1.4775115e-17 -2.393235)
(259.71195 -6.9682771e-16 -2.1168891)
(259.84661 -4.9538612e-16 -1.8939456)
(260.0879 -7.2485906e-16 -1.6786374)
(260.39451 -1.7079589e-17 -1.4628887)
(260.62422 7.9704107e-16 -1.2277184)
(260.80494 -5.9884228e-20 -0.99124059)
(261.19627 -4.3919995e-16 -0.72900066)
(261.86583 6.1588001e-16 -0.44169791)
(262.32752 4.6304023e-16 -0.17802375)
(262.54219 3.5691347e-16 0.11798212)
(262.3385 -2.6285269e-16 0.57588853)
(213.20124 4.0707143e-20 -11.414319)
(250.93868 2.1992235e-18 -12.99946)
(275.75384 -2.235822e-16 -14.577192)
(296.20851 0 -15.66496)
(310.39695 0 -17.13016)
(315.79822 0 -16.655111)
(313.89069 1.4167375e-17 -17.788379)
(315.16551 1.0580721e-16 -16.316177)
(313.87254 -7.8453956e-17 -18.028424)
(314.35547 -1.6309677e-17 -16.30601)
(313.43818 -5.4459747e-17 -17.985659)
(313.39131 2.2585218e-17 -16.530085)
(312.58481 -1.1322735e-16 -17.827144)
(312.09605 3.1192082e-17 -16.842622)
(311.17391 2.5923867e-17 -17.671592)
(310.26606 4.332417e-17 -17.138712)
(309.07328 3.61754e-17 -17.591713)
(307.71412 3.0053239e-17 -17.350821)
(306.08438 4.9727443e-17 -17.556651)
(304.16647 8.236641e-17 -17.45448)
(301.92434 6.8135094e-17 -17.502552)
(299.31885 0 -17.390318)
(296.34573 1.1602778e-16 -17.260717)
(293.0015 -1.9075531e-16 -16.97453)
(289.33714 1.550108e-17 -16.540092)
(285.435 2.0403351e-16 -15.877746)
(281.43793 1.4437075e-16 -14.970264)
(277.51491 1.655576e-17 -13.805993)
(273.84168 1.8668144e-16 -12.429363)
(270.55539 -2.1602325e-19 -10.917375)
(267.73924 5.3651153e-16 -9.3708684)
(265.41629 1.3040441e-17 -7.8899528)
(263.56858 6.4983912e-16 -6.5513234)
(262.16887 9.9758943e-16 -5.39713)
(261.1387 2.3771236e-17 -4.4642131)
(260.31941 5.5629944e-16 -3.7558495)
(259.84003 -2.6910169e-17 -3.215206)
(259.64565 2.0180826e-17 -2.7652079)
(259.62054 2.9645463e-17 -2.3977532)
(259.66748 6.7655127e-16 -2.1110231)
(259.82101 0 -1.8794186)
(260.077 7.7153907e-16 -1.6592177)
(260.39069 -3.4094403e-17 -1.4465162)
(260.62097 3.7247605e-17 -1.2176951)
(260.78753 -6.1540998e-16 -0.97496797)
(261.15158 1.3229223e-17 -0.69297341)
(261.86331 -6.1994871e-16 -0.40850161)
(262.34193 0 -0.16391497)
(262.52991 -3.4567709e-16 0.12027892)
(262.29509 -5.0988467e-16 0.54946798)
(214.83159 2.9510062e-18 -12.457655)
(252.63648 0 -14.182793)
(277.48974 0 -15.887806)
(298.01284 0 -17.054712)
(311.18494 1.6813172e-16 -18.573453)
(315.99914 -1.3685598e-16 -17.972398)
(313.98935 -7.1969276e-18 -19.211496)
(315.26462 -1.0748951e-16 -17.627808)
(313.95566 -1.0377684e-19 -19.444071)
(314.42363 6.6246266e-17 -17.639048)
(313.49303 6.9151094e-17 -19.402389)
(313.43736 -2.2938982e-17 -17.897991)
(312.57662 3.8316097e-17 -19.2356)
(312.06542 -3.1881181e-17 -18.232804)
(311.12217 2.6627813e-17 -19.067768)
(310.19013 -4.4017664e-17 -18.525827)
(308.96775 3.6757022e-17 -18.965817)
(307.56416 -3.0350498e-17 -18.727133)
(305.87517 -7.5837377e-17 -18.923683)
(303.88486 8.3579599e-17 -18.815747)
(301.55991 1.5582545e-16 -18.844403)
(298.86001 2.8738706e-17 -18.708919)
(295.78461 -2.3417696e-17 -18.538646)
(292.33511 1.7420282e-16 -18.196561)
(288.572 -2.6978854e-16 -17.68323)
(284.59094 -2.0659935e-16 -16.919469)
(280.54826 3.5731983e-16 -15.889013)
(276.62241 2.3728656e-16 -14.588205)
(272.99043 -1.3764418e-17 -13.071711)
(269.78233 -3.4493634e-16 -11.427376)
(267.06841 1.8032775e-17 -9.7636253)
(264.85755 0 -8.184127)
(263.12238 -6.5515523e-16 -6.7648038)
(261.82636 -5.0274435e-16 -5.5476882)
(260.86317 -7.6569451e-16 -4.5702876)
(260.1123 -5.9554416e-16 -3.8256046)
(259.70401 -8.7903987e-16 -3.2509747)
(259.55822 -1.890698e-15 -2.7788703)
(259.5562 1.4869045e-17 -2.3991452)
(259.62007 -2.1869477e-17 -2.1031461)
(259.79489 0 -1.8629433)
(260.06565 0 -1.6384421)
(260.38755 1.7008881e-17 -1.4294801)
(260.61702 -3.7125176e-17 -1.2078822)
(260.78499 1.8019418e-17 -0.96079101)
(261.18186 0 -0.66290059)
(261.85017 6.1357293e-16 -0.37290943)
(262.34748 -8.8818442e-16 -0.14661646)
(262.52878 -1.0463255e-17 0.12126048)
(262.27582 1.0050501e-15 0.52102385)
(216.39122 3.8124289e-16 -13.528692)
(254.25835 4.4958606e-18 -15.393769)
(279.12733 -4.6436777e-16 -17.228381)
(299.74491 1.9676112e-16 -18.474637)
(311.7844 -5.1808188e-18 -20.036168)
(316.11501 -1.3920371e-16 -19.313378)
(314.02306 1.0955211e-16 -20.669859)
(315.30285 0 -18.97855)
(313.96721 0 -20.906063)
(314.44451 -5.0557007e-17 -19.011727)
(313.47517 -1.4146146e-17 -20.846845)
(313.40673 4.6668446e-17 -19.284627)
(312.51106 -1.9461998e-17 -20.651863)
(311.98303 -3.4982311e-21 -19.627624)
(311.01695 0 -20.462974)
(310.05117 4.4911391e-17 -19.921826)
(308.78541 -7.4493354e-17 -20.358157)
(307.32403 3.0828823e-17 -20.123076)
(305.57034 1.0268217e-16 -20.307777)
(303.50222 -8.498187e-17 -20.193948)
(301.0883 -1.4059104e-16 -20.200859)
(298.28907 0 -20.038716)
(295.10692 0 -19.823094)
(291.55005 0 -19.418681)
(287.68928 -3.3191171e-17 -18.818476)
(283.63481 5.2471105e-17 -17.944329)
(279.55673 -1.9994381e-17 -16.782419)
(275.64198 -2.7407641e-16 -15.338607)
(272.06684 0 -13.678866)
(268.95208 3.6998538e-16 -11.902057)
(266.35363 -1.1142495e-15 -10.123591)
(264.26613 -2.6807087e-17 -8.4495737)
(262.65321 4.1329403e-17 -6.9544556)
(261.4656 -1.5812377e-17 -5.6806394)
(260.56851 2.339587e-17 -4.6620905)
(259.90074 3.3680761e-20 -3.8840635)
(259.5658 8.829544e-16 -3.2785485)
(259.46782 6.0541457e-16 -2.7875942)
(259.48602 9.69174e-16 -2.3971153)
(259.57317 0 -2.0930167)
(259.76826 0 -1.844521)
(260.05652 7.4729876e-16 -1.6166342)
(260.38363 0 -1.4115124)
(260.61447 7.8926751e-16 -1.1976783)
(260.79668 0 -0.94426129)
(261.27335 1.3009067e-17 -0.63969368)
(261.87122 -1.8516077e-15 -0.34215041)
(262.36838 1.8513669e-19 -0.12734337)
(262.52705 -6.3747488e-16 0.12145551)
(262.25706 -4.9534069e-16 0.49077)
(217.8806 3.8754698e-16 -14.627532)
(255.80204 -2.9241888e-16 -16.632988)
(280.66578 4.7306214e-16 -18.603154)
(301.39235 -2.0009516e-16 -19.930406)
(312.20362 0 -21.525847)
(316.15118 1.4145182e-16 -20.68098)
(313.98147 1.4959032e-17 -22.157261)
(315.25982 -9.8465978e-17 -20.350043)
(313.90249 0 -22.384257)
(314.37243 0 -20.397486)
(313.38989 2.8517986e-17 -22.299352)
(313.32335 -2.3731692e-17 -20.677)
(312.39428 7.9176253e-17 -22.069044)
(311.84008 -3.2781417e-17 -21.032742)
(310.84022 0 -21.876856)
(309.82885 4.5621965e-17 -21.34012)
(308.51341 -7.5666054e-17 -21.768745)
(306.99044 9.4181564e-17 -21.537728)
(305.1661 -2.0850048e-16 -21.709182)
(303.01488 0 -21.587618)
(300.50681 -3.5902025e-17 -21.569933)
(297.60322 5.8999088e-17 -21.377153)
(294.31055 1.706177e-16 -21.110678)
(290.64481 0 -20.636685)
(286.68867 2.6118606e-16 -19.940821)
(282.56786 -2.1361287e-16 -18.946799)
(278.46631 -3.4503858e-16 -17.644892)
(274.57792 0 -16.052045)
(271.07601 0 -14.246469)
(268.06996 -3.5333669e-16 -12.33799)
(265.60014 5.714374e-16 -10.448187)
(263.64706 1.3613068e-17 -8.6844025)
(262.165 -4.1699289e-17 -7.119071)
(261.08788 1.0706159e-15 -5.7951472)
(260.26008 7.5134925e-16 -4.7389294)
(259.68662 0 -3.9303622)
(259.42614 8.7361397e-16 -3.29781)
(259.37292 6.6842259e-16 -2.7911677)
(259.41147 -1.8978902e-15 -2.3914926)
(259.52519 1.3818092e-15 -2.0804008)
(259.74142 0 -1.8241295)
(260.04859 -7.6978366e-16 -1.5937884)
(260.37766 -1.0671017e-15 -1.3924276)
(260.6128 -1.5723501e-15 -1.1865898)
(260.81288 -1.122122e-15 -0.92406121)
(261.3754 -1.2940096e-17 -0.61720054)
(261.94326 1.2219712e-15 -0.31736762)
(262.40936 1.7445275e-15 -0.10947862)
(262.52446 1.3040879e-15 0.11973823)
(262.23847 -1.128059e-17 0.46038688)
(219.31382 3.1018796e-18 -15.752976)
(257.2873 0 -17.897277)
(282.12531 0 -20.010769)
(302.95662 0 -21.415513)
(312.4682 -1.6067188e-16 -23.033085)
(316.12064 1.4357823e-16 -22.057228)
(313.86955 -1.2814557e-16 -23.648098)
(315.17041 9.9975126e-17 -21.717193)
(313.76886 8.3594789e-17 -23.858358)
(314.2471 -5.2027489e-17 -21.781687)
(313.23412 2.9023072e-17 -23.755579)
(313.13859 -2.4036579e-17 -22.087284)
(312.20446 8.0409538e-17 -23.511535)
(311.61497 -6.6692112e-17 -22.464284)
(310.57679 -5.5623126e-17 -23.310406)
(309.51713 -4.6261829e-17 -22.77905)
(308.14816 -3.853334e-17 -23.197947)
(306.55905 -6.3989439e-17 -22.970458)
(304.65947 2.6185685e-17 -23.126376)
(302.4202 0 -22.995048)
(299.81275 0 -22.949411)
(296.80021 0 -22.721318)
(293.39367 -1.9724561e-16 -22.397729)
(289.6185 2.0415053e-17 -21.846014)
(285.5706 -2.8263497e-16 -21.044948)
(281.39227 -2.1771499e-16 -19.921139)
(277.28085 0 -18.47079)
(273.43538 -1.7728105e-17 -16.723486)
(270.02374 -4.3754994e-16 -14.770418)
(267.14194 3.5653333e-16 -12.732081)
(264.81378 0 -10.735187)
(263.00572 0 -8.8871094)
(261.66122 0 -7.2578418)
(260.69339 -2.0594073e-15 -5.8901522)
(259.94411 7.8124035e-16 -4.8003616)
(259.47246 -1.1751853e-15 -3.9640994)
(259.28556 -8.7684971e-16 -3.3088427)
(259.27205 0 -2.7892534)
(259.33453 9.5821456e-16 -2.3821067)
(259.47682 -2.8098112e-15 -2.0650638)
(259.71467 -9.9316804e-16 -1.8019102)
(260.03927 -2.330542e-17 -1.5696501)
(260.36948 4.0513367e-20 -1.372182)
(260.60947 2.3240453e-15 -1.1744347)
(260.82715 1.1509852e-15 -0.89933992)
(261.48128 8.2048349e-16 -0.59340964)
(262.0325 -1.8592782e-17 -0.29660193)
(262.45057 -8.5398854e-16 -0.093771052)
(262.52134 -1.282095e-15 0.11603633)
(262.21651 7.354646e-18 0.43136609)
(220.69217 4.0342537e-16 -16.909345)
(258.7119 4.6558621e-18 -19.189902)
(283.51408 7.6618626e-18 -21.451099)
(304.41831 0 -22.917728)
(312.58503 -1.8517871e-16 -24.546592)
(316.00761 1.4583467e-16 -23.438506)
(313.68151 0 -25.151299)
(315.01235 0 -23.096257)
(313.55887 0 -25.350957)
(314.05379 -3.5262363e-17 -23.184613)
(312.99357 0 -25.229948)
(312.87399 -9.7988648e-17 -23.522509)
(311.92637 8.1412785e-17 -24.975786)
(311.30129 0 -23.918687)
(310.22331 -6.348029e-20 -24.76254)
(309.11242 -4.7127261e-17 -24.237574)
(307.68668 3.8909826e-17 -24.644089)
(306.02762 3.2515108e-17 -24.419693)
(304.04807 1.883177e-16 -24.557869)
(301.71579 -1.1160362e-16 -24.414238)
(299.00396 -1.8722436e-17 -24.336818)
(295.87812 6.0867958e-17 -24.068059)
(292.35501 -5.0141324e-17 -23.68028)
(288.47083 -2.9077651e-19 -23.041818)
(284.33633 2.8589233e-16 -22.125278)
(280.1111 4.3841296e-16 -20.861466)
(276.00509 0 -19.254503)
(272.22023 1.7967161e-17 -17.348099)
(268.91654 4.7019016e-16 -15.246931)
(266.17473 -2.2463159e-17 -13.081618)
(264.00089 0 -10.982767)
(262.34737 0 -9.05661)
(261.14453 -7.0061592e-16 -7.370349)
(260.2826 4.7288451e-17 -5.9644436)
(259.62748 -8.0967497e-16 -4.8461148)
(259.26045 1.1801225e-15 -3.98529)
(259.14381 0 -3.3118468)
(259.16462 -1.3041707e-15 -2.7815376)
(259.25693 -9.8997737e-16 -2.3687458)
(259.42849 1.4275214e-15 -2.0468204)
(259.68779 -5.247293e-20 -1.7779241)
(260.02844 0 -1.5442371)
(260.35887 5.4015519e-20 -1.3508365)
(260.60295 -3.1170256e-15 -1.1609451)
(260.8508 -1.7577882e-17 -0.87183654)
(261.58557 8.2619455e-16 -0.56691149)
(262.13189 1.8398595e-17 -0.27941672)
(262.4862 -2.6755924e-17 -0.081416794)
(262.50329 6.3514585e-16 0.11156495)
(262.18669 7.2074622e-18 0.40424048)
(221.99218 0 -18.087589)
(260.05554 2.9355412e-16 -20.497935)
(284.81651 -5.0677109e-16 -22.917079)
(305.70653 2.0334594e-16 -24.434047)
(312.55147 1.1076337e-17 -26.070318)
(315.77027 -1.4823003e-16 -24.829857)
(313.41144 1.24134e-16 -26.678228)
(314.77406 0 -24.497705)
(313.28151 0 -26.867819)
(313.77315 1.7892829e-17 -24.609338)
(312.68175 0 -26.724278)
(312.54306 -2.4861084e-17 -24.977235)
(311.56028 -4.1413851e-17 -26.454478)
(310.898 0 -25.392237)
(309.77844 5.7208137e-17 -26.230805)
(308.61341 4.7397532e-17 -25.713889)
(307.12734 3.950834e-17 -26.105879)
(305.39415 0 -25.883931)
(303.32988 2.6664094e-19 -26.00192)
(300.89967 2.7166012e-16 -25.843008)
(298.07855 3.7639959e-17 -25.729436)
(294.83544 -3.0718878e-17 -25.41393)
(291.19375 2.5634398e-17 -24.954048)
(287.20217 -2.0757498e-17 -24.218931)
(282.98791 0 -23.175982)
(278.7283 4.4689007e-16 -21.761802)
(274.6446 0 -19.990523)
(270.93918 0 -17.921318)
(267.76176 -4.6307717e-16 -15.67262)
(265.17562 -7.3185579e-16 -13.384353)
(263.16793 5.7322194e-16 -11.189561)
(261.67659 -8.8994969e-16 -9.1922248)
(260.61671 6.8363326e-16 -7.456407)
(259.85925 -1.3636709e-18 -6.0172093)
(259.31583 1.5559164e-15 -4.8758993)
(259.05183 3.7047484e-17 -3.994313)
(258.9992 1.3804697e-17 -3.3068357)
(259.05246 2.6139597e-15 -2.768009)
(259.17966 9.7598136e-16 -2.3511159)
(259.38086 -2.1972779e-17 -2.0255761)
(259.66033 2.0470766e-15 -1.7520617)
(260.01714 -2.3187989e-17 -1.5177262)
(260.34526 1.0907576e-15 -1.3284144)
(260.59586 1.5509356e-15 -1.1451044)
(260.9075 -1.7461888e-17 -0.84563323)
(261.68204 -5.7869367e-19 -0.53634375)
(262.23005 2.7320355e-17 -0.26405727)
(262.51685 -1.3551689e-20 -0.074302234)
(262.47253 -9.6103999e-18 0.10607067)
(262.15528 0 0.37853745)
(223.20218 6.5088059e-18 -19.291621)
(261.31446 -3.0330847e-16 -21.828303)
(286.04433 2.6173123e-16 -24.417492)
(306.81601 -2.0662413e-16 -25.965518)
(312.37933 1.687745e-16 -27.613465)
(315.45103 -9.4082708e-18 -26.241049)
(313.07834 -1.4190738e-16 -28.232702)
(314.45313 1.0457025e-16 -25.922386)
(312.92023 6.5599857e-17 -28.407831)
(313.40992 -7.2610869e-17 -26.056913)
(312.28453 1.5167999e-16 -28.238049)
(312.12266 -2.5049927e-17 -26.451719)
(311.1078 4.1992885e-17 -27.947471)
(310.40534 7.0019413e-17 -26.884163)
(309.24159 1.8421091e-19 -27.714355)
(308.01894 4.8657899e-17 -27.206982)
(306.46867 -4.0205373e-17 -27.582074)
(304.65704 2.5037371e-19 -27.361607)
(302.50318 -1.3837322e-16 -27.456701)
(299.97012 5.8127998e-19 -27.279003)
(297.03499 1.5238407e-16 -27.124339)
(293.67103 -2.5173772e-16 -26.755233)
(289.90954 2.3345489e-16 -26.214456)
(285.81356 -4.2461727e-17 -25.371898)
(281.52821 2.9591563e-16 -24.191032)
(277.24865 -4.5135821e-16 -22.616133)
(273.2058 3.6674778e-16 -20.673492)
(269.59985 -5.7033388e-16 -18.438911)
(266.56759 4.2312879e-16 -16.04456)
(264.15223 1.5238223e-15 -13.638528)
(262.32087 -6.1352802e-16 -11.354645)
(260.99685 1.8075671e-15 -9.293592)
(260.07925 -6.6835417e-16 -7.5157062)
(259.4317 1.0335985e-15 -6.0485654)
(259.0124 1.4352836e-18 -4.8895048)
(258.84664 1.1909628e-15 -3.991745)
(258.84956 -8.5844161e-16 -3.2935417)
(258.93872 -1.3297657e-15 -2.7488251)
(259.10319 0 -2.3290293)
(259.33458 0 -2.001283)
(259.63423 -9.9022416e-16 -1.7245527)
(260.00587 -4.628571e-17 -1.4902542)
(260.33042 1.672741e-17 -1.3050566)
(260.59368 1.5668569e-15 -1.1255742)
(260.99666 -1.1280651e-15 -0.8215235)
(261.76666 -1.5998595e-15 -0.5030492)
(262.30796 0 -0.24778405)
(262.52928 0 -0.07053105)
(262.44962 0 0.097782062)
(262.15155 0 0.35191498)
(224.30474 -6.6059058e-18 -20.524308)
(262.47868 3.1330185e-16 -23.185669)
(287.19548 -5.2451276e-16 -25.958959)
(307.77251 4.3965293e-16 -27.515615)
(312.07874 -1.7152438e-16 -29.180015)
(315.0869 1.9092104e-17 -27.669409)
(312.65795 -1.9494549e-20 -29.80598)
(314.05034 0 -27.360493)
(312.47759 2.2158786e-17 -29.962938)
(312.96361 7.3850193e-17 -27.521763)
(311.80509 2.2195012e-19 -29.766578)
(311.61821 -1.5345779e-16 -27.945707)
(310.56839 0 -29.455255)
(309.82257 -7.1022428e-17 -28.394156)
(308.61184 5.8886668e-17 -29.21238)
(307.32793 4.923805e-17 -28.715767)
(305.7094 2.0443823e-16 -29.071515)
(303.81488 -6.7865937e-17 -28.851123)
(301.5665 -8.4790454e-17 -28.920276)
(298.92572 -1.6292227e-16 -28.719723)
(295.87201 -3.281636e-16 -28.518389)
(292.38407 2.8669904e-16 -28.087996)
(288.50253 -2.6221067e-16 -27.456598)
(284.3067 2.1396482e-17 -26.494964)
(279.96089 -2.8149127e-16 -25.164227)
(275.67782 0 -23.418473)
(271.69604 -3.9341162e-16 -21.298287)
(268.21083 1.2088519e-15 -18.897069)
(265.34271 0 -16.360378)
(263.11167 -7.4563565e-16 -13.842881)
(261.46451 1.8273237e-17 -11.477472)
(260.31074 -8.8917056e-16 -9.3606125)
(259.53489 6.7205742e-16 -7.5478097)
(259.01003 1.0576644e-15 -6.05931)
(258.71879 -1.6200338e-15 -4.88718)
(258.64284 -1.1759683e-15 -3.9779153)
(258.69524 2.6649488e-15 -3.271978)
(258.82583 -2.0489285e-17 -2.7239829)
(259.02799 -1.5024633e-17 -2.3024465)
(259.29041 4.389742e-17 -1.9738236)
(259.61361 -1.5952909e-17 -1.6960172)
(259.99628 1.4767314e-15 -1.462229)
(260.31906 1.6640999e-17 -1.281157)
(260.60095 -1.5463181e-15 -1.1028208)
(261.11815 1.1033599e-15 -0.8010187)
(261.86037 -2.474649e-17 -0.47259316)
(262.36977 1.1398283e-15 -0.23209356)
(262.52673 2.5679359e-17 -0.067502347)
(262.44133 -9.2872073e-18 0.088792675)
(262.18032 0 0.32267926)
(225.30733 4.2968305e-16 -21.779654)
(263.55157 0 -24.558507)
(288.27315 8.2123744e-18 -27.533019)
(308.56787 -6.8584495e-18 -29.075662)
(311.66635 -1.1617369e-17 -30.762784)
(314.63651 -1.6477059e-16 -29.106039)
(312.16009 1.4597581e-16 -31.395268)
(313.56864 0 -28.811665)
(311.95443 -9.0099577e-17 -31.53339)
(312.43489 1.1229665e-16 -29.004046)
(311.2421 -9.3857043e-17 -31.309387)
(311.02743 5.1768628e-17 -29.458436)
(309.94138 0 -30.976849)
(309.14896 -1.4422414e-16 -29.921533)
(307.88828 -5.9931444e-17 -30.72417)
(306.53936 -4.9648916e-17 -30.239171)
(304.84839 -1.2420097e-16 -30.572912)
(302.86648 -1.3807387e-16 -30.350745)
(300.51861 1.1418312e-16 -30.39057)
(297.76522 0 -30.162503)
(294.58858 3.1378938e-16 -29.908246)
(290.97406 -2.271589e-16 -29.407979)
(286.97334 -5.3333668e-17 -28.675262)
(282.68392 3.9519115e-16 -27.5821)
(278.29042 -3.2302731e-16 -26.089249)
(274.02237 1.4437161e-17 -24.162922)
(270.1237 7.540954e-16 -21.860097)
(266.78153 -6.0146238e-16 -19.292504)
(264.09558 3.0031528e-17 -16.618258)