/*--------------------------------*- C++ -*----------------------------------*\
  =========                 |
  \\      /  F ield         | OpenFOAM: The Open Source CFD Toolbox
   \\    /   O peration     | Website:  https://openfoam.org
    \\  /    A nd           | Version:  8
     \\/     M anipulation  |
\*---------------------------------------------------------------------------*/
FoamFile
{
    version     2.0;
    format      ascii;
    class       volVectorField;
    location    "0.210011";
    object      wallShearStress;
}
// * * * * * * * * * * * * * * * * * * * * * * * * * * * * * * * * * * * * * //

dimensions      [1 -1 -2 0 0 0 0];

internalField   uniform (0 0 0);

boundaryField
{
    aerofoil
    {
        type            calculated;
        value           nonuniform List<vector> 
300
(
(-130.78624 1.0671171e-16 4.19447)
(-132.53275 -2.0373371e-19 4.7660834)
(-135.05912 1.3410413e-18 5.3988118)
(-137.46027 -9.0394697e-19 6.0594925)
(-139.8522 -5.0386393e-20 6.7503556)
(-142.18177 5.3670373e-22 7.468534)
(-144.44281 2.4929376e-16 8.2134142)
(-146.62549 -6.6779967e-20 8.9824357)
(-148.74532 -2.0438415e-18 9.7788977)
(-150.81416 -2.6579815e-16 10.603246)
(-152.83219 -2.7209524e-16 11.455838)
(-154.80363 -2.1563925e-18 12.337446)
(-156.74266 -2.8665529e-16 13.249647)
(-158.61604 -2.5368613e-20 14.186818)
(-160.41488 -4.6808611e-18 15.151552)
(-162.11551 4.7878275e-18 16.143867)
(-163.71882 -3.1218817e-16 17.160987)
(-165.23823 -2.9543497e-22 18.207851)
(-166.67366 3.3096839e-16 19.281922)
(-168.04592 -1.039531e-17 20.388252)
(-169.36212 5.2999058e-18 21.529227)
(-170.63107 -3.4079913e-16 22.705999)
(-171.87168 -5.1052176e-18 23.924186)
(-173.08909 3.6100964e-16 25.181636)
(-174.31152 -2.1952927e-21 26.490405)
(-175.49513 3.131727e-21 27.84095)
(-176.65443 0 29.240074)
(-177.78587 -4.0277338e-16 30.692724)
(-178.87622 -3.8580258e-16 32.197043)
(-179.9221 4.0582701e-16 33.759086)
(-180.88641 4.1357337e-16 35.376359)
(-181.77457 4.0807458e-16 37.048858)
(-182.58536 4.2919817e-16 38.781946)
(-183.35175 1.3846216e-17 40.592312)
(-184.08666 1.3938623e-17 42.500385)
(-184.79507 8.9636737e-16 44.51253)
(-185.48727 -1.4500395e-17 46.612659)
(-186.12538 4.856642e-16 48.76132)
(-186.6785 -1.4605215e-18 50.989637)
(-187.10622 4.8956664e-16 53.288066)
(-187.36963 1.3821094e-17 55.651625)
(-187.43374 -1.5653076e-17 58.078143)
(-187.25563 -2.0983262e-17 60.567105)
(-186.80294 -5.0511095e-16 63.109292)
(-186.03859 -4.8966662e-19 65.709111)
(-184.96974 -5.5151175e-16 68.380257)
(-183.56035 1.0416764e-17 71.128798)
(-181.79609 -2.8297192e-18 73.948845)
(-179.65317 -4.6423664e-18 76.835173)
(-177.10816 5.7375654e-16 79.783413)
(-174.15361 -6.0023756e-16 82.799707)
(-170.77177 -5.9452848e-16 85.875203)
(-166.94761 6.2359598e-16 88.984244)
(-162.69648 3.0988179e-17 92.097895)
(-158.05688 -4.9413842e-18 95.162882)
(-153.10282 -1.9483473e-17 98.098545)
(-147.90914 1.3083734e-15 100.84844)
(-142.37506 -6.6156859e-16 103.35793)
(-136.2831 6.4333866e-16 105.51637)
(-129.51632 -5.6275986e-19 107.13878)
(-121.98783 1.0196154e-17 108.12752)
(-113.6568 -7.1413199e-16 108.34535)
(-104.52185 7.2203339e-16 107.57705)
(-94.563373 3.1790556e-19 105.56514)
(-83.672408 7.1664704e-16 102.11067)
(-72.020244 1.135909e-17 96.904405)
(-59.799864 7.1150142e-16 89.449291)
(-47.428581 -1.4275624e-15 79.524353)
(-35.32541 -2.2971107e-17 66.911117)
(-23.313267 3.5667023e-16 51.646156)
(-12.97718 -3.2699059e-16 34.459135)
(-6.2284669 -2.9008842e-16 16.703665)
(-2.4967404 -1.1153736e-16 5.5612846)
(-0.79841692 5.7729386e-17 -0.1638626)
(-1.4776937 9.3473127e-19 -6.5584703)
(-0.049545907 0 -0.37704162)
(-2.0960686 2.5019482e-16 -0.2192728)
(-2.1159028 2.4740866e-16 -0.24096961)
(-3.0501764 -2.7619459e-16 -0.33800827)
(-3.8319751 2.9540906e-16 -0.41726808)
(-4.8088586 -1.8925219e-20 -0.5158416)
(-5.8310621 -4.8136157e-20 -0.61716522)
(-6.9506388 1.05141e-23 -0.72237849)
(-8.139705 3.7232281e-16 -0.83001891)
(-9.3831468 -4.5097398e-20 -0.94316358)
(-10.658498 1.2923052e-19 -1.0566119)
(-11.961896 -4.5002683e-20 -1.1690586)
(-13.287875 4.3357462e-16 -1.280169)
(-14.633721 -4.4652287e-16 -1.389761)
(-15.995005 4.5883199e-16 -1.497008)
(-17.365132 4.7038315e-16 -1.6016794)
(-18.740062 -1.053869e-19 -1.703297)
(-20.113369 9.8300927e-16 -1.8012163)
(-21.485913 -1.101763e-19 -1.8955677)
(-22.865647 -5.104371e-16 -1.9866613)
(-24.254592 -5.194362e-16 -2.0751166)
(-25.651377 -5.2797082e-16 -2.1604897)
(-27.054827 1.9136324e-25 -2.2430005)
(-28.467432 -1.4984573e-19 -2.3222251)
(-29.884895 -5.5181866e-16 -2.3984744)
(-31.304747 -3.6111186e-33 -2.4710472)
(-32.723895 -2.8304213e-16 -2.5402174)
(-34.149478 -2.7283036e-22 -2.60552)
(-35.585003 2.7679678e-22 -2.667749)
(-37.037933 2.9299299e-16 -2.7266959)
(-38.505822 1.3970286e-19 -2.7825722)
(-39.990724 -1.3743749e-21 -2.8360903)
(-41.493477 -3.0225413e-16 -2.8856742)
(-43.007276 -3.0519949e-16 -2.9313044)
(-44.530822 -3.0822364e-16 -2.9729522)
(-46.063605 -1.1842942e-25 -3.0105112)
(-47.61334 3.136161e-16 -3.0436572)
(-49.185578 -2.028657e-21 -3.0726488)
(-50.780803 3.189374e-16 -3.0971094)
(-52.398014 -1.749291e-20 -3.1173123)
(-54.041769 -7.7774788e-20 -3.1324977)
(-55.710835 -3.265148e-16 -3.1423681)
(-57.400746 1.6018159e-20 -3.1465629)
(-59.107493 -3.3146301e-16 -3.1449657)
(-60.833778 -1.0242488e-19 -3.1363472)
(-62.583591 8.1771266e-20 -3.1210955)
(-64.369257 2.452891e-20 -3.0988216)
(-66.196181 8.4656847e-20 -3.0693725)
(-68.065781 8.5426059e-20 -3.0329384)
(-69.978762 -3.4470774e-16 -2.9894643)
(-71.935107 -8.5501005e-20 -2.937339)
(-73.924007 3.4825686e-16 -2.8747642)
(-75.930402 -3.4964348e-16 -2.8009423)
(-77.94265 -3.5131891e-16 -2.7131711)
(-79.959411 1.6087587e-25 -2.6114531)
(-81.998714 -4.9118463e-20 -2.4976279)
(-84.076247 3.5715024e-16 -2.3711015)
(-86.195085 3.5926195e-16 -2.2305665)
(-88.348634 -1.8074518e-16 -2.075086)
(-90.527971 1.8172479e-16 -1.9041724)
(-92.728614 1.828071e-16 -1.7150704)
(-94.942764 -1.8374527e-16 -1.5082722)
(-97.178368 4.8262442e-21 -1.2813505)
(-99.442935 -9.2907892e-17 -1.0341102)
(-101.74979 -1.8677249e-16 -0.76743581)
(-104.09927 9.3911775e-17 -0.4862201)
(-106.48375 -4.7125121e-17 -0.1819175)
(-108.9035 4.7457618e-17 0.19218529)
(-111.37258 -4.5523095e-21 0.57516468)
(-113.89328 4.2244328e-39 0.9970655)
(-116.47249 2.1263308e-38 1.462105)
(-119.09815 -6.9188442e-21 1.9536437)
(-121.76235 -2.7114246e-20 2.4533506)
(-124.45779 -9.7875878e-17 3.0014802)
(-127.87331 6.0057614e-21 3.6050896)
(-160.79343 -1.6644157e-16 3.981226)
(-161.24215 -8.4976586e-17 3.3735903)
(-161.07108 8.7624994e-17 2.6974973)
(-160.94689 -2.2929491e-17 1.9654448)
(-160.85376 -7.3636937e-19 1.2601857)
(-160.7791 7.2580262e-19 0.52952874)
(-160.72438 -4.6086077e-17 -0.21547769)
(-160.70324 -4.6091026e-20 -0.90056609)
(-160.70766 4.8165282e-17 -1.5918779)
(-160.74064 -1.0199338e-20 -2.305586)
(-160.79238 1.0378343e-16 -3.0342391)
(-160.85823 -1.076382e-16 -3.7767389)
(-160.9452 1.1347636e-16 -4.534446)
(-161.03711 -3.5985492e-18 -5.3046659)
(-161.15823 1.6898486e-19 -6.0937293)
(-161.30027 2.1021487e-19 -6.9114854)
(-161.44532 1.1766254e-16 -7.7433174)
(-161.60578 2.8985551e-22 -8.593544)
(-161.76683 2.4484785e-16 -9.4592825)
(-161.94373 -2.4993839e-16 -10.345431)
(-162.13308 4.07598e-18 -11.253615)
(-162.32921 2.5597464e-16 -12.183219)
(-162.54392 -1.56661e-19 -13.137541)
(-162.75352 0 -14.111528)
(-162.976 2.7592578e-16 -15.114596)
(-163.1906 -4.4144067e-21 -16.141413)
(-163.42258 -5.3482172e-33 -17.197811)
(-163.67484 8.8431744e-21 -18.287625)
(-163.91992 -1.0511979e-20 -19.40546)
(-164.16622 -9.5283222e-18 -20.559648)
(-164.41099 1.9364443e-17 -21.753332)
(-164.64262 3.0593643e-16 -22.986589)
(-164.8396 -3.2188228e-16 -24.256236)
(-164.99634 -3.2812774e-16 -25.566507)
(-165.13295 3.3452237e-16 -26.929827)
(-165.2643 6.8187766e-16 -28.352121)
(-165.40238 -1.0644497e-17 -29.836844)
(-165.56821 1.1042347e-17 -31.392711)
(-165.76786 1.2202081e-17 -33.030948)
(-166.00364 3.6832175e-16 -34.758795)
(-166.2771 -1.0619062e-17 -36.582811)
(-166.62772 -3.8373345e-16 -38.522887)
(-166.99303 -9.701265e-18 -40.585999)
(-167.36062 -3.866455e-16 -42.775898)
(-167.64876 -4.2039242e-16 -45.074194)
(-167.85293 -6.4367074e-19 -47.506672)
(-167.90221 -4.0816626e-16 -50.085225)
(-167.83806 4.320923e-16 -52.843443)
(-167.61556 3.0433042e-18 -55.780318)
(-167.22471 -4.6222319e-33 -58.887886)
(-166.64856 -4.4511703e-16 -62.175688)
(-165.76536 -4.8161192e-16 -65.63781)
(-164.398 -1.9896459e-17 -69.264391)
(-162.42541 2.5951817e-18 -73.07105)
(-159.70508 6.9396679e-18 -77.065708)
(-156.12858 -5.0328277e-16 -81.334597)
(-151.67582 -5.1126502e-16 -86.007149)
(-146.41846 1.1068757e-17 -91.243529)
(-140.49055 -5.2817801e-16 -97.104847)
(-134.2113 1.8979521e-17 -103.31926)
(-129.23811 -1.1036272e-15 -110.10684)
(-125.55779 -5.1152516e-17 -117.21413)
(-122.13578 3.6039944e-17 -124.16894)
(-117.72703 -1.8353206e-17 -130.45483)
(-111.60915 6.081491e-16 -135.48154)
(-103.52903 6.3835963e-16 -138.68015)
(-93.595241 -2.6000054e-33 -139.64754)
(-81.489271 6.5914191e-16 -137.41403)
(-67.618165 -5.7541018e-18 -131.21978)
(-52.820945 -3.3333156e-16 -120.73521)
(-38.02844 -3.3999339e-16 -105.55099)
(-24.358711 2.659172e-18 -86.107884)
(-13.525009 -1.7216721e-16 -63.717713)
(-6.7457472 3.2073274e-16 -39.838326)
(-3.0007799 3.7613848e-17 -19.062824)
(-169.28844 9.9986421e-16 27.268938)
(-161.92815 -1.08244e-15 27.771213)
(-163.57665 6.360295e-19 27.880962)
(-165.49911 -2.059563e-21 27.913191)
(-166.33591 1.7744469e-20 27.769036)
(-166.86092 -1.070768e-15 27.579393)
(-166.89827 -8.0357628e-20 27.322375)
(-166.56861 -2.1342876e-15 27.012716)
(-165.82273 2.0303681e-21 26.638131)
(-164.72779 4.2108549e-19 26.211655)
(-163.44238 -3.0158193e-19 25.75839)
(-162.05663 4.1215806e-19 25.296565)
(-160.58256 -1.0396696e-15 24.832302)
(-159.04833 -1.0327332e-15 24.367543)
(-157.47732 -1.0267496e-15 23.901749)
(-155.85826 1.0202637e-15 23.435599)
(-154.19516 -1.0463813e-19 22.969303)
(-152.4926 3.5160795e-22 22.504674)
(-150.76531 1.0005177e-15 22.043278)
(-149.02378 9.940747e-16 21.585725)
(-147.26088 9.8742079e-16 21.130989)
(-145.48634 9.8085768e-16 20.677279)
(-143.69212 1.8458551e-25 20.228079)
(-141.88485 2.677245e-19 19.781838)
(-140.05957 0 19.338836)
(-138.22105 9.5464052e-16 18.898895)
(-136.39155 3.4894783e-19 18.467167)
(-134.54565 -8.7201945e-26 18.036957)
(-132.66982 -9.3433355e-16 17.608333)
(-130.76865 9.2665681e-16 17.179767)
(-128.92429 5.5209233e-20 16.762014)
(-127.08852 8.7207373e-22 16.349828)
(-125.25581 4.4462132e-26 15.940664)
(-123.41489 -3.4246478e-19 15.534134)
(-121.56368 -6.0025485e-20 15.130235)
(-119.70506 -3.1800301e-19 14.7293)
(-117.83793 0 14.330496)
(-115.95494 6.7426966e-26 13.932784)
(-114.04055 -7.5797158e-26 13.534076)
(-112.07719 -2.7639384e-19 13.132976)
(-110.03773 -4.2967715e-20 12.726064)
(-107.88679 4.5231579e-20 12.3107)
(-105.58145 1.2180835e-19 11.884733)
(-103.10896 -1.6318987e-15 11.449323)
(-100.50326 -1.6352086e-19 11.007512)
(-97.85113 4.8119413e-20 10.56776)
(-95.274453 7.8523472e-16 10.135708)
(-92.821195 -7.7444432e-16 9.7102791)
(-90.275424 5.5078565e-20 9.2710988)
(-87.012602 7.7584411e-20 8.7797551)
(-82.547389 -7.3889705e-16 8.1843358)
(-76.739471 7.2254418e-16 7.4857196)
(-69.041626 -3.5027793e-16 6.672299)
(-59.871882 -8.4878007e-20 5.7707217)
(-50.817507 -3.1803278e-16 4.8623636)
(-43.202692 2.9911671e-16 4.1142714)
(-39.967314 5.7250578e-16 3.6946245)
(-48.441757 -2.9222934e-16 4.1683471)
(-71.694777 -3.0942862e-16 5.6146023)
(-102.82097 1.3037025e-19 7.7689463)
(-131.00087 -3.1596623e-16 9.5944094)
(-149.72056 -3.1425027e-16 10.678734)
(-158.64375 -3.1133484e-16 10.974778)
(-162.55433 -5.9669018e-20 10.842123)
(-164.06081 -4.5004982e-20 10.483775)
(-164.52747 3.073275e-16 10.026482)
(-164.54819 -3.0685448e-16 9.5179996)
(-164.40966 -3.0662635e-16 8.9778297)
(-164.21934 -3.0675945e-16 8.4215992)
(-163.89078 1.5354506e-16 7.8399015)
(-163.51534 1.5382546e-16 7.2377532)
(-163.11891 -1.5410681e-16 6.6190441)
(-162.75856 -3.0869696e-16 5.9830482)
(-162.42675 1.5457356e-16 5.3328614)
(-161.2453 -1.5451246e-16 4.6413558)
)
;
    }
    inlet
    {
        type            calculated;
        value           uniform (0 0 0);
    }
    outlet
    {
        type            calculated;
        value           uniform (0 0 0);
    }
    back
    {
        type            empty;
    }
    front
    {
        type            empty;
    }
}


// ************************************************************************* //
