/*--------------------------------*- C++ -*----------------------------------*\
  =========                 |
  \\      /  F ield         | OpenFOAM: The Open Source CFD Toolbox
   \\    /   O peration     | Website:  https://openfoam.org
    \\  /    A nd           | Version:  8
     \\/     M anipulation  |
\*---------------------------------------------------------------------------*/
FoamFile
{
    version     2.0;
    format      ascii;
    class       volScalarField;
    location    "0.210011";
    object      yPlus;
}
// * * * * * * * * * * * * * * * * * * * * * * * * * * * * * * * * * * * * * //

dimensions      [0 0 0 0 0 0 0];

internalField   uniform 0;

boundaryField
{
    aerofoil
    {
        type            calculated;
        value           nonuniform List<scalar> 
300
(
130.79711
130.79158
131.00996
131.17181
131.36325
131.54756
131.7336
131.90978
132.08454
132.26603
132.45554
132.64716
132.85707
133.06705
133.27827
133.48305
133.67611
133.86846
134.05676
134.25252
134.46035
134.68029
134.92661
135.19107
135.49787
135.82095
136.16505
136.53351
136.91502
137.31174
137.71034
138.11318
138.51421
138.92558
139.3591
139.82421
140.32143
140.82723
141.33598
141.83473
142.30605
142.73993
143.1163
143.4409
143.68202
143.86773
143.97723
144.01765
143.99154
143.89084
143.72533
143.50996
143.24655
142.9493
142.64411
142.35824
142.11423
141.92934
141.68198
141.32067
140.76896
139.99373
138.92414
137.4216
135.27441
132.30693
128.05341
122.05118
113.5232
101.13716
83.759885
59.392471
34.98696
9.6264174
36.81158
6.9681453
18.642953
18.671482
22.397065
25.061049
28.033545
30.821474
33.597491
36.300417
38.912457
41.407494
43.797079
46.088453
48.290058
50.407994
52.44185
54.395656
56.268984
58.070434
59.816816
61.515734
63.169831
64.780368
66.354392
67.888751
69.384757
70.840189
72.26587
73.665591
75.049493
76.415407
77.765476
79.1022
80.419855
81.718297
82.997354
84.263732
85.523089
86.775887
88.020554
89.261391
90.49831
91.727477
92.946062
94.15656
95.361199
96.568808
97.783503
99.005557
100.23524
101.47202
102.70955
103.9356
105.14265
106.32883
107.50633
108.68568
109.87006
111.05538
112.23564
113.40877
114.56904
115.72218
116.87209
118.02524
119.18477
120.34505
121.50903
122.67951
123.85884
125.05249
126.25421
127.46064
128.66843
129.96825
125.33978
124.61859
123.88857
123.21545
122.58893
122.00661
121.46455
120.96685
120.50993
120.09735
119.7228
119.38244
119.08406
118.81121
118.5754
118.37696
118.2032
118.06266
117.94253
117.85017
117.7851
117.74172
117.73045
117.73227
117.76515
117.8119
117.88024
117.97894
118.08956
118.21914
118.36538
118.52773
118.6968
118.86675
119.0482
119.25071
119.47645
119.73481
120.03182
120.3734
120.75348
121.19465
121.67309
122.20695
122.74634
123.30885
123.85579
124.42167
125.00002
125.58778
126.18909
126.77975
127.30111
127.72781
128.03919
128.24513
128.38849
128.61668
129.04025
129.76761
131.49122
134.25412
137.67817
141.27541
144.67822
147.57902
149.92749
151.0538
150.37634
147.33165
140.81512
129.83578
113.59658
90.70144
62.847714
152.71506
160.48543
160.54601
161.04093
160.89834
160.72547
160.3232
159.7907
159.08429
158.23521
157.31208
156.35796
155.37361
154.37118
153.36099
152.33542
151.29508
150.24099
149.17672
148.11061
147.03508
145.95781
144.86969
143.7763
142.67165
141.56206
140.45519
139.34013
138.2059
137.05726
135.93441
134.81171
133.6884
132.55771
131.41781
130.26991
129.11206
127.94155
126.74897
125.52465
124.25284
122.91742
121.49169
119.96172
118.33369
116.63885
114.93273
113.25109
111.5084
109.40156
106.52835
102.80279
97.720699
91.159145
83.998281
77.352211
73.823481
79.527727
92.974163
106.48299
115.92315
121.68988
124.13984
125.19172
125.58703
125.7228
125.74587
125.73159
125.74997
125.7312
125.71605
125.69896
125.70839
125.7378
125.71557
)
;
    }
    inlet
    {
        type            calculated;
        value           uniform 0;
    }
    outlet
    {
        type            calculated;
        value           uniform 0;
    }
    back
    {
        type            empty;
    }
    front
    {
        type            empty;
    }
}


// ************************************************************************* //
