/*--------------------------------*- C++ -*----------------------------------*\
  =========                 |
  \\      /  F ield         | OpenFOAM: The Open Source CFD Toolbox
   \\    /   O peration     | Website:  https://openfoam.org
    \\  /    A nd           | Version:  8
     \\/     M anipulation  |
\*---------------------------------------------------------------------------*/
FoamFile
{
    version     2.0;
    format      ascii;
    class       volScalarField;
    location    "0.149996";
    object      alphat;
}
// * * * * * * * * * * * * * * * * * * * * * * * * * * * * * * * * * * * * * //

dimensions      [1 -1 -1 0 0 0 0];

internalField   nonuniform List<scalar> 
20000
(
0.00097265075
0.0025101627
0.0034934163
0.0040039302
0.003925286
0.0030449096
0.0010581953
5.6540416e-06
2.3329555e-09
2.2341127e-09
2.1688386e-09
2.1907702e-09
2.1670764e-09
2.196679e-09
2.2030837e-09
2.2381325e-09
2.265811e-09
2.3143089e-09
2.366482e-09
2.4393665e-09
2.5248163e-09
2.6360497e-09
2.771196e-09
2.9421263e-09
3.1518176e-09
3.4114818e-09
3.7270359e-09
4.1064552e-09
4.5490095e-09
5.0449084e-09
5.5638042e-09
6.0688752e-09
6.5248794e-09
6.9177857e-09
7.2449137e-09
7.5115453e-09
7.7217972e-09
7.8881774e-09
8.0161349e-09
8.1166208e-09
8.1933976e-09
8.2554118e-09
8.3054896e-09
8.3511069e-09
8.3939685e-09
8.4319848e-09
8.4686286e-09
8.5035561e-09
8.5283885e-09
8.6268726e-09
0.00096558422
0.0024950134
0.0034607582
0.0039494172
0.0038388466
0.0029243671
0.00093265744
2.1634779e-06
2.3056868e-09
2.2555454e-09
2.189041e-09
2.2124389e-09
2.188939e-09
2.2199483e-09
2.2270942e-09
2.2637984e-09
2.2930113e-09
2.3436769e-09
2.398257e-09
2.4742261e-09
2.5633584e-09
2.6790362e-09
2.8194367e-09
2.9962932e-09
3.2123961e-09
3.4781054e-09
3.7979553e-09
4.1771644e-09
4.6133084e-09
5.0955502e-09
5.5994393e-09
6.0900374e-09
6.5360317e-09
6.9229296e-09
7.2466636e-09
7.5122497e-09
7.7222134e-09
7.8878395e-09
8.0155453e-09
8.1155171e-09
8.1924906e-09
8.2548043e-09
8.3056248e-09
8.3516844e-09
8.3953109e-09
8.4331282e-09
8.4682068e-09
8.5051845e-09
8.527996e-09
8.6292405e-09
0.00096487956
0.0024855909
0.0034316463
0.0038938173
0.0037508051
0.0027898795
0.00080283697
7.6809127e-07
2.2975141e-09
2.2774573e-09
2.2104908e-09
2.2349751e-09
2.2117904e-09
2.2440574e-09
2.2520943e-09
2.2904414e-09
2.3213003e-09
2.3742284e-09
2.4314139e-09
2.5107145e-09
2.603866e-09
2.7244342e-09
2.8706571e-09
3.0542024e-09
3.2776813e-09
3.5506001e-09
3.8760006e-09
4.2566477e-09
4.6874787e-09
5.1573811e-09
5.644365e-09
6.1197498e-09
6.5548491e-09
6.9341357e-09
7.2528242e-09
7.5148529e-09
7.7223626e-09
7.8873138e-09
8.0149969e-09
8.1148474e-09
8.1919066e-09
8.2543177e-09
8.305349e-09
8.352029e-09
8.3961218e-09
8.434123e-09
8.4719599e-09
8.5068989e-09
8.5464397e-09
8.6277493e-09
0.00096551829
0.0024761391
0.0034021473
0.0038355176
0.0036613064
0.0026491674
0.00068685521
2.7667187e-07
2.3010696e-09
2.3003389e-09
2.233092e-09
2.2588412e-09
2.2361106e-09
2.2696661e-09
2.2786299e-09
2.3186626e-09
2.3512414e-09
2.406537e-09
2.4664731e-09
2.549273e-09
2.6466511e-09
2.7723461e-09
2.9246953e-09
3.1153381e-09
3.3467322e-09
3.6276406e-09
3.9597507e-09
4.3435075e-09
4.7716321e-09
5.2318015e-09
5.7042027e-09
6.1635125e-09
6.5849344e-09
6.9539435e-09
7.2653821e-09
7.5224999e-09
7.7266489e-09
7.8890092e-09
8.0151738e-09
8.1147197e-09
8.1917921e-09
8.2542313e-09
8.3053683e-09
8.3531129e-09
8.3975686e-09
8.4355713e-09
8.4736255e-09
8.509494e-09
8.5549074e-09
8.6276593e-09
0.00096693446
0.00246759
0.0033741151
0.0037813544
0.0035710257
0.0025012001
0.00057951137
1.0376504e-07
2.3130579e-09
2.3247604e-09
2.2571349e-09
2.2840472e-09
2.2618276e-09
2.2966276e-09
2.3066083e-09
2.3484054e-09
2.3828603e-09
2.4406929e-09
2.5036117e-09
2.5901724e-09
2.6921065e-09
2.8233212e-09
2.9822934e-09
3.1806374e-09
3.4206572e-09
3.7103249e-09
4.0499051e-09
4.4375797e-09
4.8638083e-09
5.3152289e-09
5.773337e-09
6.216506e-09
6.623315e-09
6.9805449e-09
7.2831362e-09
7.5338315e-09
7.733405e-09
7.8927241e-09
8.0170514e-09
8.1153864e-09
8.1919698e-09
8.2542387e-09
8.3059021e-09
8.3544831e-09
8.399106e-09
8.4371956e-09
8.4762533e-09
8.5124457e-09
8.5665982e-09
8.6273672e-09
0.00096862666
0.0024590385
0.003345399
0.0037257113
0.003479437
0.0023457297
0.00047996061
4.2146938e-08
2.3303758e-09
2.350058e-09
2.28237e-09
2.3104993e-09
2.288909e-09
2.3250353e-09
2.3361597e-09
2.3798357e-09
2.416328e-09
2.4768739e-09
2.5429981e-09
2.6335679e-09
2.740369e-09
2.8774769e-09
3.0435449e-09
3.2501539e-09
3.4994432e-09
3.7985443e-09
4.1462555e-09
4.5385177e-09
4.9636945e-09
5.4073037e-09
5.851931e-09
6.2787825e-09
6.6698561e-09
7.0138493e-09
7.3061378e-09
7.549234e-09
7.7432929e-09
7.8986767e-09
8.0204707e-09
8.1173306e-09
8.1931703e-09
8.2550725e-09
8.3070236e-09
8.3563431e-09
8.4009828e-09
8.4390907e-09
8.4787243e-09
8.5162555e-09
8.5752072e-09
8.6272439e-09
0.0009704647
0.0024505625
0.0033162677
0.0036693974
0.0033869863
0.002183047
0.00038878071
1.931357e-08
2.351589e-09
2.3762894e-09
2.3088688e-09
2.3382312e-09
2.3173726e-09
2.3549034e-09
2.3673156e-09
2.4129925e-09
2.4517008e-09
2.5151456e-09
2.5847151e-09
2.6795678e-09
2.7915891e-09
2.935026e-09
3.1087332e-09
3.3242417e-09
3.5834805e-09
3.8926455e-09
4.2489488e-09
4.6460914e-09
5.0704343e-09
5.5065425e-09
5.9379139e-09
6.3484081e-09
6.7231514e-09
7.0529064e-09
7.3337603e-09
7.5681937e-09
7.7558495e-09
7.9067082e-09
8.0255e-09
8.1204516e-09
8.195226e-09
8.2565832e-09
8.3087429e-09
8.3585961e-09
8.4030934e-09
8.4412207e-09
8.4816013e-09
8.5214218e-09
8.5830661e-09
8.6276522e-09
0.00097237034
0.0024419533
0.0032861676
0.0036118246
0.0032934678
0.0020135971
0.00030557704
1.0262523e-08
2.3754956e-09
2.4035637e-09
2.336614e-09
2.367271e-09
2.3472831e-09
2.3863188e-09
2.400167e-09
2.4479655e-09
2.4890596e-09
2.5555859e-09
2.6288434e-09
2.7282597e-09
2.8458773e-09
2.9961037e-09
3.1780258e-09
3.403076e-09
3.6729349e-09
3.9927195e-09
4.3579511e-09
4.7600637e-09
5.1835697e-09
5.6122325e-09
6.030473e-09
6.4244948e-09
6.7823815e-09
7.0970947e-09
7.3655971e-09
7.590509e-09
7.7710206e-09
7.9167423e-09
8.032041e-09
8.1247605e-09
8.1982113e-09
8.2588586e-09
8.3110613e-09
8.3612692e-09
8.4054767e-09
8.4435761e-09
8.4847204e-09
8.5283647e-09
8.5889655e-09
8.6285516e-09
0.0009743534
0.0024332705
0.0032551843
0.0035526681
0.0031986817
0.0018387932
0.00022963851
6.374255e-09
2.4016167e-09
2.4320714e-09
2.365711e-09
2.3977116e-09
2.3787243e-09
2.4193469e-09
2.434766e-09
2.4847945e-09
2.5284484e-09
2.5982473e-09
2.6754484e-09
2.7797363e-09
2.9033637e-09
3.0608905e-09
3.2516431e-09
3.4869138e-09
3.7680556e-09
4.098951e-09
4.4732833e-09
4.880211e-09
5.3025554e-09
5.723503e-09
6.1284726e-09
6.5058826e-09
6.8465618e-09
7.1456627e-09
7.4011174e-09
7.6158028e-09
7.7885392e-09
7.9286298e-09
8.0400297e-09
8.1301896e-09
8.2020651e-09
8.2618548e-09
8.3139701e-09
8.3643224e-09
8.4080972e-09
8.4461264e-09
8.4881811e-09
8.5363607e-09
8.5940991e-09
8.6297781e-09
0.00097652963
0.0024247036
0.0032237445
0.0034914765
0.0031019496
0.001661196
0.00016036668
4.5675931e-09
2.4296211e-09
2.4618552e-09
2.3962237e-09
2.4296181e-09
2.4117544e-09
2.45403e-09
2.4711463e-09
2.5235184e-09
2.5699156e-09
2.643189e-09
2.7246058e-09
2.8341046e-09
2.9641965e-09
3.1295776e-09
3.3298105e-09
3.5760001e-09
3.8690657e-09
4.2114774e-09
4.5949247e-09
5.0063038e-09
5.4269273e-09
5.8396662e-09
6.2310688e-09
6.5916621e-09
6.9148483e-09
7.1979272e-09
7.4398204e-09
7.6437369e-09
7.80819e-09
7.9422199e-09
8.0493619e-09
8.1366825e-09
8.2067633e-09
8.2655598e-09
8.3174494e-09
8.3677427e-09
8.4109407e-09
8.4488403e-09
8.4919639e-09
8.5447103e-09
8.5986572e-09
8.6314211e-09
0.00097895724
0.0024163251
0.0031915682
0.0034276622
0.0030021948
0.001487605
9.9311693e-05
3.6757281e-09
2.4593417e-09
2.4930095e-09
2.4282291e-09
2.4630339e-09
2.4463856e-09
2.4903707e-09
2.5093227e-09
2.5641702e-09
2.6135102e-09
2.6904718e-09
2.7764055e-09
2.8914934e-09
3.0285525e-09
3.2023796e-09
3.4127769e-09
3.6705971e-09
3.9761991e-09
4.3304309e-09
4.7228412e-09
5.1380933e-09
5.5562138e-09
5.9600462e-09
6.3374344e-09
6.680962e-09
6.986441e-09
7.2532293e-09
7.4812068e-09
7.6739491e-09
7.8297198e-09
7.9573447e-09
8.0599333e-09
8.144169e-09
8.2122594e-09
8.2699435e-09
8.3214786e-09
8.3715006e-09
8.4139791e-09
8.4516998e-09
8.4961715e-09
8.5530464e-09
8.6030593e-09
8.6334335e-09
0.00098169224
0.0024082951
0.0031591057
0.0033609996
0.0028983088
0.0013191003
5.1439033e-05
3.2202855e-09
2.4907616e-09
2.525571e-09
2.4617095e-09
2.4979132e-09
2.4825889e-09
2.5283705e-09
2.5493321e-09
2.6067994e-09
2.6592906e-09
2.7401715e-09
2.8309594e-09
2.9520633e-09
3.0966368e-09
3.2795422e-09
3.5008222e-09
3.7709975e-09
4.0897063e-09
4.4559409e-09
4.8569719e-09
5.2753048e-09
5.6899434e-09
6.0840031e-09
6.4468171e-09
6.7729897e-09
7.0605944e-09
7.3109379e-09
7.5247857e-09
7.7060791e-09
7.8528745e-09
7.9738255e-09
8.0716229e-09
8.1525714e-09
8.2185057e-09
8.2749754e-09
8.3260356e-09
8.3755672e-09
8.4171818e-09
8.4547431e-09
8.5010293e-09
8.561103e-09
8.6072736e-09
8.6355077e-09
0.00098475043
0.0024008933
0.0031271383
0.0032927723
0.0027903093
0.001157257
2.1592668e-05
2.9874961e-09
2.5236246e-09
2.5593725e-09
2.4965497e-09
2.5342163e-09
2.5203752e-09
2.5680867e-09
2.5912293e-09
2.6514649e-09
2.7073207e-09
2.7923834e-09
2.8884121e-09
3.0160051e-09
3.168678e-09
3.3613253e-09
3.5942356e-09
3.8774884e-09
4.209814e-09
4.5880922e-09
4.9972068e-09
5.4176267e-09
5.8276301e-09
6.2109229e-09
6.5585225e-09
6.8670285e-09
7.1366375e-09
7.3704796e-09
7.5701012e-09
7.7397813e-09
7.8774019e-09
7.991484e-09
8.084309e-09
8.1618079e-09
8.2254487e-09
8.2806105e-09
8.3310962e-09
8.3799251e-09
8.420507e-09
8.4580067e-09
8.5068874e-09
8.5686313e-09
8.6111926e-09
8.6376047e-09
0.00098789308
0.0023935592
0.003095143
0.0032286717
0.0026750749
0.0010032935
7.5805987e-06
2.8747647e-09
2.5577588e-09
2.594381e-09
2.5328074e-09
2.5720211e-09
2.5598463e-09
2.6095872e-09
2.6350711e-09
2.698212e-09
2.7576744e-09
2.8472355e-09
2.9489408e-09
3.0835372e-09
3.2449283e-09
3.4480252e-09
3.693346e-09
3.9904019e-09
4.3367709e-09
4.726969e-09
5.1434163e-09
5.5647203e-09
5.968768e-09
6.3401956e-09
6.6718837e-09
6.9624019e-09
7.213936e-09
7.4313072e-09
7.6167112e-09
7.7747149e-09
7.9030486e-09
8.010136e-09
8.0978618e-09
8.1717898e-09
8.2330293e-09
8.2868153e-09
8.3366283e-09
8.3845646e-09
8.4239227e-09
8.4615639e-09
8.5140377e-09
8.5754097e-09
8.6149301e-09
8.6396526e-09
0.0009911341
0.0023862773
0.0030627375
0.0031567018
0.0025507246
0.00085836005
2.3611907e-06
2.8288655e-09
2.593332e-09
2.6307977e-09
2.5706216e-09
2.6114473e-09
2.6010645e-09
2.6529041e-09
2.680886e-09
2.747085e-09
2.8104715e-09
2.9048986e-09
3.0127561e-09
3.1548963e-09
3.3256556e-09
3.5399471e-09
3.7984837e-09
4.1100447e-09
4.4707722e-09
4.8725821e-09
5.2953931e-09
5.716188e-09
6.112831e-09
6.4712288e-09
6.7862849e-09
7.0585033e-09
7.2919285e-09
7.4929347e-09
7.664218e-09
7.8105667e-09
7.9295763e-09
8.0296059e-09
8.1121553e-09
8.1824285e-09
8.2411881e-09
8.2935475e-09
8.3425891e-09
8.3894302e-09
8.4274094e-09
8.4654877e-09
8.5223843e-09
8.581477e-09
8.6184339e-09
8.6417077e-09
0.00099449838
0.0023789531
0.0030306647
0.0030845457
0.0024177238
0.00072391742
7.0017068e-07
2.8206285e-09
2.6304458e-09
2.668714e-09
2.6100572e-09
2.6525092e-09
2.6440178e-09
2.6980364e-09
2.728711e-09
2.7982117e-09
2.865878e-09
2.9655745e-09
3.0800825e-09
3.2303336e-09
3.411158e-09
3.6374403e-09
3.9100365e-09
4.2367676e-09
4.6120388e-09
5.0249316e-09
5.4528978e-09
5.8715979e-09
6.2592726e-09
6.6034228e-09
6.901124e-09
7.1547524e-09
7.3700833e-09
7.5549034e-09
7.7122433e-09
7.8470337e-09
7.9567501e-09
8.049717e-09
8.1270606e-09
8.1936324e-09
8.2498615e-09
8.3007569e-09
8.3489212e-09
8.3944472e-09
8.4309952e-09
8.4699565e-09
8.5311999e-09
8.5872815e-09
8.6217409e-09
8.6436874e-09
0.00099789062
0.002370735
0.00299494
0.0030086713
0.0022750927
0.00060285427
2.1432141e-07
2.8341254e-09
2.6691615e-09
2.708127e-09
2.6510532e-09
2.6951452e-09
2.6886832e-09
2.745022e-09
2.7786625e-09
2.8517628e-09
2.9241e-09
3.0294813e-09
3.1511523e-09
3.3101138e-09
3.5017492e-09
3.7408632e-09
4.0283773e-09
4.3708698e-09
4.7607061e-09
5.1839105e-09
5.6155989e-09
6.0304553e-09
6.4075193e-09
6.7361937e-09
7.0158427e-09
7.2506316e-09
7.4479354e-09
7.6168147e-09
7.7604558e-09
7.8838455e-09
7.9843563e-09
8.0703059e-09
8.1424566e-09
8.2053134e-09
8.2589885e-09
8.3083949e-09
8.3555623e-09
8.399555e-09
8.4347401e-09
8.4750958e-09
8.5401758e-09
8.5928581e-09
8.6248644e-09
8.6455739e-09
0.0010015076
0.002362495
0.0029588738
0.0029320059
0.0021231932
0.00049317282
7.2197176e-08
2.8598468e-09
2.7092555e-09
2.7488629e-09
2.6935199e-09
2.7393409e-09
2.7351237e-09
2.7940066e-09
2.830934e-09
2.9079575e-09
2.9853476e-09
3.0968297e-09
3.2261985e-09
3.3945317e-09
3.5977816e-09
3.8506439e-09
4.1539298e-09
4.512707e-09
4.9169121e-09
5.3494104e-09
5.783137e-09
6.1922432e-09
6.5569828e-09
6.8689588e-09
7.1298969e-09
7.3456484e-09
7.5250493e-09
7.6782984e-09
7.8085455e-09
7.9207449e-09
8.0121879e-09
8.0912132e-09
8.158223e-09
8.2173834e-09
8.2685079e-09
8.3164104e-09
8.3624497e-09
8.4047365e-09
8.4387429e-09
8.4810876e-09
8.5490138e-09
8.5981879e-09
8.6277905e-09
8.6473569e-09
0.0010051798
0.0023532651
0.0029208388
0.0028529825
0.0019623613
0.00039224541
2.784535e-08
2.8927511e-09
2.750662e-09
2.7909604e-09
2.7375373e-09
2.7852432e-09
2.7835382e-09
2.8452174e-09
2.8857534e-09
2.9669938e-09
3.0498121e-09
3.1678244e-09
3.3054808e-09
3.4839019e-09
3.6996435e-09
3.9671968e-09
4.2870963e-09
4.6625324e-09
5.0806864e-09
5.521182e-09
5.9550455e-09
6.3563738e-09
6.7070513e-09
7.0011462e-09
7.2427819e-09
7.4393674e-09
7.6010518e-09
7.7390416e-09
7.8562475e-09
7.9575083e-09
8.0400609e-09
8.1122956e-09
8.1742501e-09
8.2297607e-09
8.278362e-09
8.3247512e-09
8.3695198e-09
8.4099671e-09
8.4431234e-09
8.4881987e-09
8.5574683e-09
8.6031974e-09
8.6304972e-09
8.6490127e-09
0.0010088419
0.0023427712
0.0028800336
0.0027651166
0.0017940795
0.00030046042
1.2945137e-08
2.9303864e-09
2.7935549e-09
2.8345951e-09
2.7833185e-09
2.8331015e-09
2.8341761e-09
2.8988853e-09
2.9433032e-09
3.0290398e-09
3.1176616e-09
3.2426804e-09
3.3892863e-09
3.5785913e-09
3.8077775e-09
4.0910139e-09
4.4283355e-09
4.8206458e-09
5.2520576e-09
5.6989564e-09
6.1308348e-09
6.5222359e-09
6.8571044e-09
7.1321903e-09
7.3540113e-09
7.5313785e-09
7.6756e-09
7.7987581e-09
7.9033161e-09
7.9939266e-09
8.0678004e-09
8.1334167e-09
8.1904313e-09
8.2423659e-09
8.2884935e-09
8.3333615e-09
8.3767006e-09
8.4151992e-09
8.4479891e-09
8.4966923e-09
8.5652807e-09
8.6078382e-09
8.6329869e-09
8.6505357e-09
0.0010124289
0.0023308295
0.0028368252
0.0026751654
0.0016213243
0.00021667699
7.3880231e-09
2.9712829e-09
2.8381107e-09
2.8800143e-09
2.8311354e-09
2.883179e-09
2.887253e-09
2.9551586e-09
3.0037069e-09
3.0942216e-09
3.1890755e-09
3.3216587e-09
3.4779466e-09
3.6790103e-09
3.9226399e-09
4.2225724e-09
4.5780275e-09
4.9872192e-09
5.4308892e-09
5.8823119e-09
6.3098872e-09
6.6891448e-09
7.0064951e-09
7.2615451e-09
7.4631466e-09
7.621326e-09
7.7484103e-09
7.8572126e-09
7.9495462e-09
8.029824e-09
8.0952573e-09
8.1544568e-09
8.2066731e-09
8.255128e-09
8.298849e-09
8.3421845e-09
8.3839174e-09
8.4203913e-09
8.4533974e-09
8.5065531e-09
8.5723062e-09
8.6121122e-09
8.6352869e-09
8.6519266e-09
0.001015837
0.0023171538
0.0027880023
0.0025826192
0.0014462106
0.00014037337
5.0935481e-09
3.0148284e-09
2.8847059e-09
2.9275811e-09
2.8812357e-09
2.9356368e-09
2.9428418e-09
3.0141032e-09
3.0670405e-09
3.1626981e-09
3.2642799e-09
3.4050583e-09
3.5718483e-09
3.7856149e-09
4.044766e-09
4.3624163e-09
4.7366259e-09
5.162447e-09
5.6170468e-09
6.0708e-09
6.4915574e-09
6.8564001e-09
7.1545811e-09
7.3886942e-09
7.5697909e-09
7.7088843e-09
7.8192277e-09
7.9141898e-09
7.9947519e-09
8.0650394e-09
8.1222972e-09
8.1753031e-09
8.2228881e-09
8.2679804e-09
8.3093768e-09
8.351161e-09
8.391104e-09
8.4255305e-09
8.4593562e-09
8.5169723e-09
8.578996e-09
8.6160757e-09
8.6374241e-09
8.6531865e-09
0.0010194007
0.0023035679
0.0027373243
0.0024861991
0.001271308
7.5069706e-05
4.0711699e-09
3.0606854e-09
2.9335592e-09
2.9773773e-09
2.9336412e-09
2.9904215e-09
3.0009485e-09
3.0757527e-09
3.133444e-09
3.234661e-09
3.343562e-09
3.4932451e-09
3.6714202e-09
3.8988987e-09
4.1746851e-09
4.5110428e-09
4.9044508e-09
5.3463427e-09
5.8101891e-09
6.26379e-09
6.6750631e-09
7.0232244e-09
7.3007181e-09
7.5131642e-09
7.6736121e-09
7.7937825e-09
7.887842e-09
7.9695135e-09
8.0387907e-09
8.0994404e-09
8.1488142e-09
8.1958588e-09
8.2390012e-09
8.2808658e-09
8.3200288e-09
8.3602323e-09
8.3982099e-09
8.4306477e-09
8.4658603e-09
8.5275661e-09
8.5854108e-09
8.6197547e-09
8.6393462e-09
8.6543185e-09
0.0010229364
0.0022893762
0.0026874226
0.0023834613
0.001099973
3.0384662e-05
3.6065642e-09
3.1085247e-09
2.9844457e-09
3.0292458e-09
2.9881784e-09
3.0475217e-09
3.0615997e-09
3.1402569e-09
3.2031133e-09
3.3103819e-09
3.4272571e-09
3.5866214e-09
3.7771324e-09
4.0194163e-09
4.3130082e-09
4.6690355e-09
5.0818826e-09
5.5389428e-09
6.0099559e-09
6.4606194e-09
6.8595959e-09
7.1888535e-09
7.4443174e-09
7.6345417e-09
7.7743219e-09
7.8757855e-09
7.9540541e-09
8.0230249e-09
8.0815482e-09
8.1329057e-09
8.1747126e-09
8.2160357e-09
8.2549443e-09
8.2937325e-09
8.3307531e-09
8.3693394e-09
8.405203e-09
8.4358252e-09
8.4729358e-09
8.5380247e-09
8.591534e-09
8.6231549e-09
8.6410902e-09
8.6553314e-09
0.0010264367
0.002273845
0.0026337827
0.0022725658
0.00093526476
9.2006683e-06
3.4052057e-09
3.1584129e-09
3.0370454e-09
3.0829818e-09
3.0449008e-09
3.1070314e-09
3.1249869e-09
3.2078278e-09
3.2763202e-09
3.3901837e-09
3.5157568e-09
3.6856358e-09
3.8894983e-09
4.1477437e-09
4.4603219e-09
4.8368752e-09
5.2691079e-09
5.7400372e-09
6.2157321e-09
6.6604104e-09
7.0442254e-09
7.3525328e-09
7.584862e-09
7.752478e-09
7.8716525e-09
7.9547127e-09
8.0176923e-09
8.0746162e-09
8.1229534e-09
8.1653386e-09
8.1999013e-09
8.2357646e-09
8.2706605e-09
8.3065371e-09
8.3415007e-09
8.3784243e-09
8.4120691e-09
8.4411937e-09
8.4806807e-09
8.5481151e-09
8.5972878e-09
8.6262674e-09
8.6426523e-09
8.6562329e-09
0.001029854
0.0022572717
0.002577046
0.0021541396
0.00078129126
2.3142544e-06
3.3326326e-09
3.210582e-09
3.0916009e-09
3.1388431e-09
3.1040258e-09
3.1691786e-09
3.1913346e-09
3.2787328e-09
3.3533803e-09
3.4744312e-09
3.6094757e-09
3.7907596e-09
4.0090871e-09
4.2845244e-09
4.6173298e-09
5.0151119e-09
5.4663854e-09
5.9494056e-09
6.4268978e-09
6.8622791e-09
7.2280978e-09
7.5136746e-09
7.7219732e-09
7.8666769e-09
7.9652879e-09
8.0304061e-09
8.0786054e-09
8.1242364e-09
8.1629416e-09
8.1966597e-09
8.2242647e-09
8.2549915e-09
8.2860994e-09
8.31924e-09
8.3522319e-09
8.3874289e-09
8.4188081e-09
8.4469172e-09
8.4893045e-09
8.5575931e-09
8.6026053e-09
8.6290838e-09
8.6440569e-09
8.6570191e-09
0.001033356
0.0022402975
0.0025174697
0.0020299454
0.00064020065
5.5155462e-07
3.3249582e-09
3.2647537e-09
3.1483023e-09
3.1970595e-09
3.1657386e-09
3.2341725e-09
3.2608981e-09
3.3532798e-09
3.4346359e-09
3.5635163e-09
3.7088595e-09
3.9025265e-09
4.1364936e-09
4.4304389e-09
4.7846364e-09
5.2041502e-09
5.6736665e-09
6.1665331e-09
6.6425297e-09
7.0651852e-09
7.4104259e-09
7.6718469e-09
7.8553432e-09
7.9768246e-09
8.0548406e-09
8.1027117e-09
8.1367226e-09
8.1719298e-09
8.2014331e-09
8.2268237e-09
8.2476756e-09
8.2736793e-09
8.301222e-09
8.3318066e-09
8.3629077e-09
8.3962955e-09
8.4254268e-09
8.4531542e-09
8.4990996e-09
8.5662232e-09
8.6074445e-09
8.6316079e-09
8.6453188e-09
8.6576817e-09
0.0010371081
0.0022235989
0.0024566607
0.0018956689
0.00051338706
1.4453144e-07
3.3498398e-09
3.3210371e-09
3.2071954e-09
3.2577713e-09
3.2302422e-09
3.3022721e-09
3.333986e-09
3.4317978e-09
3.5204604e-09
3.6578498e-09
3.8143853e-09
4.0215057e-09
4.2724036e-09
4.5862572e-09
4.9629791e-09
5.4044545e-09
5.8909541e-09
6.3908832e-09
6.8617129e-09
7.2682223e-09
7.5907273e-09
7.8267933e-09
7.9846091e-09
8.0824931e-09
8.139943e-09
8.1714247e-09
8.192096e-09
8.2177885e-09
8.2382899e-09
8.2557981e-09
8.2700469e-09
8.2917866e-09
8.3159965e-09
8.3442049e-09
8.3734769e-09
8.4049678e-09
8.4319316e-09
8.4599975e-09
8.5101368e-09
8.5739027e-09
8.6118401e-09
8.6338382e-09
8.6463169e-09
8.6581693e-09
0.0010411016
0.0022068116
0.0024033179
0.0017516815
0.00040509048
4.9059163e-08
3.3912799e-09
3.3794023e-09
3.2683728e-09
3.3213119e-09
3.2978206e-09
3.3738099e-09
3.4109194e-09
3.5146251e-09
3.6112302e-09
3.7578618e-09
3.926592e-09
4.1483278e-09
4.4175557e-09
4.7527237e-09
5.152955e-09
5.6162095e-09
6.1178789e-09
6.6215469e-09
7.0833075e-09
7.4705344e-09
7.7686828e-09
7.9780509e-09
8.1090126e-09
8.1830201e-09
8.2205921e-09
8.2363221e-09
8.2449483e-09
8.261826e-09
8.2733769e-09
8.2835261e-09
8.2914578e-09
8.3092536e-09
8.3304008e-09
8.3564074e-09
8.3838903e-09
8.4133951e-09
8.4383282e-09
8.4674375e-09
8.5217274e-09
8.5810624e-09
8.6158666e-09
8.6358267e-09
8.6471105e-09
8.6583737e-09
0.0010449863
0.0021876133
0.0023403641
0.0015969318
0.00030657224
2.0274543e-08
3.4417344e-09
3.4402429e-09
3.3323925e-09
3.3878522e-09
3.3687861e-09
3.4490741e-09
3.4920066e-09
3.6020831e-09
3.7073361e-09
3.8640499e-09
4.0460606e-09
4.2837208e-09
4.5727796e-09
4.9307298e-09
5.355255e-09
5.8396777e-09
6.3540727e-09
6.8576465e-09
7.3063507e-09
7.6716392e-09
7.9439731e-09
8.1244026e-09
8.2276221e-09
8.2780164e-09
8.2969302e-09
8.2973501e-09
8.2955646e-09
8.3036906e-09
8.3067526e-09
8.3098504e-09
8.3122197e-09
8.326e-09
8.3444174e-09
8.3683889e-09
8.3941005e-09
8.4215374e-09
8.4446327e-09
8.4753996e-09
8.5333349e-09
8.587887e-09
8.6196011e-09
8.6376238e-09
8.6477707e-09
8.6584561e-09
0.0010492133
0.0021676658
0.0022776059
0.0014351654
0.00021814878
1.0620009e-08
3.498587e-09
3.5040021e-09
3.3994955e-09
3.4578345e-09
3.4433838e-09
3.5283351e-09
3.5775347e-09
3.6944755e-09
3.8092468e-09
3.9769638e-09
4.1734747e-09
4.4284732e-09
4.7389532e-09
5.1210492e-09
5.5703345e-09
6.0746923e-09
6.5987239e-09
7.0979677e-09
7.5298476e-09
7.8711761e-09
8.115313e-09
8.2646521e-09
8.3396273e-09
8.3673841e-09
8.3692958e-09
8.3547076e-09
8.3439773e-09
8.3429849e-09
8.3385562e-09
8.3345591e-09
8.3326841e-09
8.3419892e-09
8.3580367e-09
8.380128e-09
8.4040611e-09
8.4293712e-09
8.4508921e-09
8.4838154e-09
8.5446344e-09
8.5943757e-09
8.6230596e-09
8.6392569e-09
8.6483431e-09
8.6584817e-09
0.0010536547
0.0021459861
0.0022108264
0.0012696069
0.00013867819
6.9366304e-09
3.5605628e-09
3.5708042e-09
3.4699079e-09
3.5313031e-09
3.5218121e-09
3.6118033e-09
3.6678549e-09
3.7923138e-09
3.9174696e-09
4.0972336e-09
4.3095832e-09
4.5835017e-09
4.9170581e-09
5.3246242e-09
5.7987052e-09
6.3211655e-09
6.8510361e-09
7.3414905e-09
7.7532004e-09
8.0687244e-09
8.2809278e-09
8.39761e-09
8.444766e-09
8.4523692e-09
8.437647e-09
8.409133e-09
8.3893576e-09
8.3803744e-09
8.3684435e-09
8.3577363e-09
8.3525352e-09
8.3573243e-09
8.3712538e-09
8.3916037e-09
8.4137247e-09
8.4368933e-09
8.4572047e-09
8.4927027e-09
8.5553962e-09
8.6004239e-09
8.6262135e-09
8.6407167e-09
8.648832e-09
8.6584846e-09
0.0010581247
0.0021204957
0.0021402261
0.001110869
7.2382043e-05
5.388142e-09
3.6264824e-09
3.6406745e-09
3.5435641e-09
3.6084421e-09
3.6042885e-09
3.6998398e-09
3.7634074e-09
3.8960645e-09
4.0326026e-09
4.2255845e-09
4.4552593e-09
4.7497698e-09
5.1080809e-09
5.542138e-09
6.0405127e-09
6.5784229e-09
7.1097908e-09
7.5870187e-09
7.9758721e-09
8.2623675e-09
8.4393382e-09
8.5224575e-09
8.5443063e-09
8.532963e-09
8.5016852e-09
8.4605827e-09
8.4318854e-09
8.4157233e-09
8.3965922e-09
8.3796654e-09
8.3712531e-09
8.3722726e-09
8.3840658e-09
8.4027947e-09
8.4230476e-09
8.4441212e-09
8.4637285e-09
8.5022296e-09
8.5653721e-09
8.6059168e-09
8.6290079e-09
8.641984e-09
8.6492633e-09
8.6584789e-09
0.0010622633
0.0020896745
0.002063558
0.00095951682
2.8443742e-05
4.7068058e-09
3.6958789e-09
3.7136967e-09
3.620752e-09
3.6895821e-09
3.6911872e-09
3.7928546e-09
3.8646694e-09
4.0063066e-09
4.1553209e-09
4.3628297e-09
4.6114695e-09
4.9283802e-09
5.3131234e-09
5.7744181e-09
6.2959342e-09
6.8458694e-09
7.3739225e-09
7.833767e-09
8.1973906e-09
8.449906e-09
8.5890385e-09
8.6397243e-09
8.6393244e-09
8.6084479e-09
8.5616227e-09
8.5089773e-09
8.4716946e-09
8.4491791e-09
8.423137e-09
8.4005278e-09
8.3883993e-09
8.3870182e-09
8.3964592e-09
8.4136767e-09
8.4320028e-09
8.4510908e-09
8.4706541e-09
8.5127176e-09
8.5742569e-09
8.6107701e-09
8.6314056e-09
8.6430519e-09
8.649669e-09
8.6584418e-09
0.0010658884
0.0020534514
0.0019790294
0.0008161227
8.4623201e-06
4.4184751e-09
3.7689082e-09
3.7902666e-09
3.7018592e-09
3.7751278e-09
3.7830042e-09
3.8912707e-09
3.9721903e-09
4.1236715e-09
4.2863973e-09
4.5099305e-09
4.779284e-09
5.1204726e-09
5.5331426e-09
6.0218988e-09
6.5645605e-09
7.1222942e-09
7.6420484e-09
8.0809321e-09
8.4156702e-09
8.6293676e-09
8.7291712e-09
8.7515222e-09
8.7286063e-09
8.6790473e-09
8.6175287e-09
8.5543066e-09
8.5089686e-09
8.4807745e-09
8.4481207e-09
8.4201477e-09
8.4044594e-09
8.4013888e-09
8.4084021e-09
8.4242248e-09
8.4405657e-09
8.4578509e-09
8.478127e-09
8.524287e-09
8.5818515e-09
8.6150305e-09
8.6334588e-09
8.6438381e-09
8.6498677e-09
8.6583732e-09
0.0010689308
0.0020109628
0.0018773042
0.00068216916
2.1175666e-06
4.3190455e-09
3.8457601e-09
3.8707759e-09
3.7873011e-09
3.86552e-09
3.8801891e-09
3.9956118e-09
4.0865307e-09
4.248908e-09
4.4267501e-09
4.6679395e-09
4.9599064e-09
5.3273185e-09
5.7692407e-09
6.2851129e-09
6.8460528e-09
7.4066727e-09
7.9131695e-09
8.3280171e-09
8.6281068e-09
8.7990802e-09
8.8610437e-09
8.8576685e-09
8.8120896e-09
8.7447511e-09
8.6695636e-09
8.5966125e-09
8.5438546e-09
8.5105835e-09
8.4715001e-09
8.4384923e-09
8.419637e-09
8.4153793e-09
8.4198596e-09
8.4344127e-09
8.4487206e-09
8.4644574e-09
8.4861636e-09
8.5359788e-09
8.5887641e-09
8.6188446e-09
8.6352639e-09
8.6444542e-09
8.6499666e-09
8.6582726e-09
0.0010716676
0.0019638686
0.0017601011
0.00056020508
5.1354498e-07
4.3137137e-09
3.9268701e-09
3.9556376e-09
3.8775544e-09
3.9611056e-09
3.9831739e-09
4.1063678e-09
4.2084623e-09
4.3828861e-09
4.5774269e-09
4.8380564e-09
5.1546109e-09
5.5501331e-09
6.022187e-09
6.5639921e-09
7.1393471e-09
7.6974834e-09
8.1861026e-09
8.573206e-09
8.8319913e-09
8.9578344e-09
8.9867882e-09
8.957159e-09
8.8897669e-09
8.8057306e-09
8.7178591e-09
8.63598e-09
8.5765071e-09
8.5386552e-09
8.4932562e-09
8.4556384e-09
8.434077e-09
8.4288922e-09
8.430867e-09
8.4442156e-09
8.4564722e-09
8.4709687e-09
8.4946737e-09
8.5473985e-09
8.5951731e-09
8.6222805e-09
8.6368973e-09
8.6450389e-09
8.6500146e-09
8.6580373e-09
0.0010742256
0.0019132333
0.00162877
0.0004499883
1.400068e-07
4.35689e-09
4.0124952e-09
4.0453125e-09
3.972752e-09
4.0622924e-09
4.0924522e-09
4.2243385e-09
4.3388688e-09
4.5266605e-09
4.7395901e-09
5.021563e-09
5.3648256e-09
5.7902581e-09
6.292898e-09
6.8585279e-09
7.4435743e-09
7.9936068e-09
8.4602176e-09
8.8135294e-09
9.0254254e-09
9.1070239e-09
9.1060496e-09
9.049842e-09
8.9617707e-09
8.8621332e-09
8.7625686e-09
8.6725002e-09
8.607085e-09
8.5650418e-09
8.5134374e-09
8.4717178e-09
8.4477974e-09
8.4417114e-09
8.4415852e-09
8.4536136e-09
8.4638333e-09
8.477459e-09
8.5035591e-09
8.5583081e-09
8.6011768e-09
8.6253421e-09
8.6382166e-09
8.6453492e-09
8.6500261e-09
8.6576116e-09
0.0010766966
0.0018590605
0.0014923467
0.00035448463
5.0431769e-08
4.425291e-09
4.1027445e-09
4.139721e-09
4.0733299e-09
4.1696006e-09
4.2088845e-09
4.3504526e-09
4.4788071e-09
4.6813853e-09
4.9145052e-09
5.2198902e-09
5.5919587e-09
6.0488362e-09
6.5816586e-09
7.1679333e-09
7.7571126e-09
8.293561e-09
8.7342172e-09
9.0453059e-09
9.2066221e-09
9.2488663e-09
9.2177383e-09
9.1357591e-09
9.0282537e-09
8.9141476e-09
8.8038471e-09
8.7063081e-09
8.6357282e-09
8.5898037e-09
8.5321566e-09
8.4868912e-09
8.4608382e-09
8.4535413e-09
8.4521938e-09
8.4625924e-09
8.4708287e-09
8.484099e-09
8.5128591e-09
8.5684931e-09
8.6067087e-09
8.6280764e-09
8.6393058e-09
8.645465e-09
8.6498036e-09
8.6570456e-09
0.00107934
0.0017979321
0.0013564571
0.00026722526
2.2293249e-08
4.5069814e-09
4.1974409e-09
4.2395691e-09
4.1801138e-09
4.2840084e-09
4.3335078e-09
4.4857605e-09
4.6294272e-09
4.8482822e-09
5.1035511e-09
5.4345624e-09
5.8376274e-09
6.3270948e-09
6.8889179e-09
7.4915062e-09
8.0788256e-09
8.5963671e-09
9.0049497e-09
9.2663635e-09
9.3763715e-09
9.3835886e-09
9.3214657e-09
9.21506e-09
9.0894274e-09
8.9619742e-09
8.8418626e-09
8.7375744e-09
8.6625434e-09
8.6130062e-09
8.5495361e-09
8.501231e-09
8.4732511e-09
8.4645826e-09
8.4625048e-09
8.4711378e-09
8.4775217e-09
8.4907329e-09
8.5227921e-09
8.5776758e-09
8.6116682e-09
8.6304931e-09
8.640238e-09
8.6454956e-09
8.6494847e-09
8.656369e-09
0.0010832737
0.0017364072
0.001216917
0.00018730114
1.235099e-08
4.5983326e-09
4.297823e-09
4.3456167e-09
4.2941582e-09
4.4065888e-09
4.4673254e-09
4.6313449e-09
4.7917542e-09
5.028715e-09
5.3082623e-09
5.6672652e-09
6.1032787e-09
6.6258301e-09
7.214177e-09
7.827723e-09
8.4068645e-09
8.9006369e-09
9.2683078e-09
9.4741701e-09
9.5369743e-09
9.5098575e-09
9.4173242e-09
9.2879285e-09
9.1455144e-09
9.005825e-09
8.8767924e-09
8.7664681e-09
8.6876447e-09
8.6347281e-09
8.5656822e-09
8.5147157e-09
8.4849233e-09
8.4750679e-09
8.4725155e-09
8.4792178e-09
8.4839652e-09
8.4980021e-09
8.5335999e-09
8.5856356e-09
8.6159516e-09
8.6325455e-09
8.6410586e-09
8.6455203e-09
8.6490998e-09
8.6556255e-09
0.001088831
0.0016767525
0.0010760981
0.00011501734
8.3937529e-09
4.6972121e-09
4.4047936e-09
4.4592407e-09
4.4165587e-09
4.5382717e-09
4.6113157e-09
4.7882919e-09
4.9671547e-09
5.224192e-09
5.530335e-09
5.919822e-09
6.3905455e-09
6.9458902e-09
7.5571354e-09
8.1753901e-09
8.7399895e-09
9.2041447e-09
9.5209328e-09
9.668255e-09
9.6899183e-09
9.6268432e-09
9.5054638e-09
9.3546278e-09
9.1967735e-09
9.045924e-09
8.9088217e-09
8.7931575e-09
8.7111372e-09
8.6550462e-09
8.5806531e-09
8.5273377e-09
8.4959294e-09
8.485099e-09
8.4822032e-09
8.4868153e-09
8.4902346e-09
8.5054971e-09
8.5450959e-09
8.5924218e-09
8.619609e-09
8.6341958e-09
8.6415302e-09
8.6454011e-09
8.6486337e-09
8.6548523e-09
0.0010957378
0.0016115853
0.00093663742
5.6638009e-05
6.68748e-09
4.8037608e-09
4.5197508e-09
4.5814101e-09
4.5480842e-09
4.6798343e-09
4.7664732e-09
4.957835e-09
5.1571359e-09
5.4364415e-09
5.7716785e-09
6.1940527e-09
6.7006816e-09
7.2872643e-09
7.9163949e-09
8.5325021e-09
9.0763707e-09
9.5021708e-09
9.7598906e-09