/*--------------------------------*- C++ -*----------------------------------*\
  =========                 |
  \\      /  F ield         | OpenFOAM: The Open Source CFD Toolbox
   \\    /   O peration     | Website:  https://openfoam.org
    \\  /    A nd           | Version:  8
     \\/     M anipulation  |
\*---------------------------------------------------------------------------*/
FoamFile
{
    version     2.0;
    format      ascii;
    class       volVectorField;
    location    "0.149996";
    object      cellDisplacement;
}
// * * * * * * * * * * * * * * * * * * * * * * * * * * * * * * * * * * * * * //

dimensions      [0 1 0 0 0 0 0];

internalField   nonuniform List<vector> 
20000
(
(-0.00024082366 0 -0.00018292634)
(-0.00024082118 0 -0.00018292388)
(-0.00024081546 0 -0.00018292998)
(-0.00024080506 0 -0.00018294169)
(-0.00024078807 0 -0.00018295866)
(-0.00024076164 0 -0.00018298336)
(-0.00024072209 0 -0.00018301892)
(-0.00024066405 0 -0.00018307043)
(-0.00024058068 0 -0.00018314864)
(-0.00024046211 0 -0.00018326635)
(-0.00024029588 0 -0.00018344703)
(-0.00024006449 0 -0.00018372038)
(-0.00023974556 0 -0.00018413048)
(-0.00023930932 0 -0.00018473662)
(-0.00023871676 0 -0.00018562273)
(-0.00023791882 0 -0.00018690928)
(-0.00023685166 0 -0.00018874128)
(-0.00023543571 0 -0.0001913834)
(-0.00023357572 0 -0.0001951088)
(-0.00023115869 0 -0.00020034289)
(-0.00022806264 0 -0.00020761524)
(-0.00022415286 0 -0.00021759955)
(-0.00021929157 0 -0.00023110922)
(-0.00021337342 0 -0.00024907319)
(-0.00020628447 0 -0.00027252032)
(-0.00019805099 0 -0.00030232428)
(-0.00018861512 0 -0.00033944245)
(-0.00017822777 0 -0.00038368233)
(-0.00016689672 0 -0.00043541747)
(-0.00015518561 0 -0.00049295789)
(-0.00014315379 0 -0.00055564961)
(-0.00013145795 0 -0.00062070665)
(-0.00012006717 0 -0.00068675574)
(-0.0001095866 0 -0.00075063905)
(-9.9769525e-05 0 -0.00081200457)
(-9.11056e-05 0 -0.00086823444)
(-8.3522216e-05 0 -0.0009172482)
(-7.7737161e-05 0 -0.00095845873)
(-7.2423133e-05 0 -0.00099484936)
(-6.8631454e-05 0 -0.0010240084)
(-6.4737866e-05 0 -0.0010395482)
(-6.2183655e-05 0 -0.0010545079)
(-5.969923e-05 0 -0.0010556392)
(-5.7931871e-05 0 -0.0010592196)
(-5.3734289e-05 0 -0.0010260675)
(-5.1406948e-05 0 -0.0010031975)
(-4.7328597e-05 0 -0.00094395263)
(-3.9539866e-05 0 -0.00080335751)
(-3.1609886e-05 0 -0.00063881056)
(-1.9828875e-05 0 -0.00034789187)
(-0.00024063306 0 -0.00014934051)
(-0.00024063037 0 -0.00014931583)
(-0.00024062433 0 -0.0001492876)
(-0.00024061349 0 -0.00014925665)
(-0.0002405959 0 -0.0001492255)
(-0.00024056867 0 -0.00014919663)
(-0.00024052805 0 -0.00014917389)
(-0.00024046856 0 -0.00014916348)
(-0.00024038324 0 -0.00014917254)
(-0.00024026202 0 -0.0001492143)
(-0.0002400923 0 -0.00014930588)
(-0.00023985616 0 -0.00014947534)
(-0.0002395312 0 -0.00014976187)
(-0.00023908687 0 -0.00015022335)
(-0.00023848429 0 -0.00015094213)
(-0.00023767335 0 -0.00015203169)
(-0.00023659019 0 -0.0001536635)
(-0.00023515436 0 -0.00015604639)
(-0.00023327007 0 -0.00015951451)
(-0.00023082544 0 -0.00016446751)
(-0.00022769791 0 -0.00017145028)
(-0.00022375476 0 -0.00018115016)
(-0.00021886299 0 -0.00019440214)
(-0.00021291555 0 -0.00021216557)
(-0.0002058168 0 -0.00023548675)
(-0.00019757836 0 -0.00026530162)
(-0.00018818152 0 -0.00030253169)
(-0.00017782863 0 -0.00034721971)
(-0.0001665877 0 -0.00039958778)
(-0.00015495403 0 -0.00045814961)
(-0.00014303708 0 -0.00052203535)
(-0.00013141979 0 -0.00058859548)
(-0.00012011774 0 -0.00065630546)
(-0.00010967187 0 -0.00072211172)
(-9.9899383e-05 0 -0.00078539238)
(-9.123645e-05 0 -0.00084362746)
(-8.3639497e-05 0 -0.00089482471)
(-7.7742085e-05 0 -0.00093822505)
(-7.2409775e-05 0 -0.00097637341)
(-6.8500583e-05 0 -0.0010071408)
(-6.462157e-05 0 -0.001024959)
(-6.1963081e-05 0 -0.0010408269)
(-5.9440344e-05 0 -0.0010436277)
(-5.7560513e-05 0 -0.0010470802)
(-5.3521076e-05 0 -0.001016586)
(-5.1034997e-05 0 -0.00099260745)
(-4.6906279e-05 0 -0.00093293863)
(-3.9291583e-05 0 -0.00079611797)
(-3.1181063e-05 0 -0.00062894187)
(-1.9018614e-05 0 -0.00033505817)
(-0.00024031618 0 -0.00011648114)
(-0.00024031318 0 -0.00011644034)
(-0.00024030669 0 -0.00011639368)
(-0.00024029525 0 -0.00011634032)
(-0.00024027681 0 -0.00011627949)
(-0.00024024843 0 -0.00011621155)
(-0.00024020625 0 -0.00011613901)
(-0.00024014471 0 -0.00011606537)
(-0.00024005669 0 -0.00011599945)
(-0.00023993201 0 -0.00011595279)
(-0.00023975779 0 -0.00011594345)
(-0.00023951596 0 -0.00011599833)
(-0.00023918362 0 -0.00011615375)
(-0.00023872998 0 -0.00011646658)
(-0.00023811548 0 -0.00011701443)
(-0.00023728966 0 -0.00011791613)
(-0.0002361877 0 -0.00011932228)
(-0.00023472934 0 -0.00012148345)
(-0.00023281733 0 -0.00012468491)
(-0.00023034088 0 -0.0001293585)
(-0.00022717765 0 -0.00013605052)
(-0.00022319673 0 -0.00014546556)
(-0.0002182695 0 -0.00015846271)
(-0.00021229032 0 -0.000176031)
(-0.0002051773 0 -0.00019923866)
(-0.00019693652 0 -0.00022906692)
(-0.00018757607 0 -0.00026642416)
(-0.00017726517 0 -0.00031154669)
(-0.00016611954 0 -0.00036452402)
(-0.00015457626 0 -0.00042404289)
(-0.00014278515 0 -0.00048905616)
(-0.00013126215 0 -0.00055703124)
(-0.00012006334 0 -0.00062630755)
(-0.00010966913 0 -0.00069393154)
(-9.9953531e-05 0 -0.00075904389)
(-9.1304983e-05 0 -0.00081919864)
(-8.3705789e-05 0 -0.00087248746)
(-7.7714138e-05 0 -0.00091800241)
(-7.2365263e-05 0 -0.00095789421)
(-6.8352773e-05 0 -0.00099024885)
(-6.4481964e-05 0 -0.0010102311)
(-6.1731445e-05 0 -0.0010270835)
(-5.9171741e-05 0 -0.0010314974)
(-5.7188204e-05 0 -0.0010349402)
(-5.3286495e-05 0 -0.0010068912)
(-5.0660964e-05 0 -0.00098198972)
(-4.6486423e-05 0 -0.00092200259)
(-3.9026597e-05 0 -0.00078855989)
(-3.0757464e-05 0 -0.00061914546)
(-1.825609e-05 0 -0.00032280708)
(-0.00023987647 0 -8.4326022e-05)
(-0.00023987277 0 -8.4256555e-05)
(-0.00023986533 0 -8.4172227e-05)
(-0.00023985273 0 -8.4076617e-05)
(-0.00023983294 0 -8.3970781e-05)
(-0.00023980293 0 -8.3856978e-05)
(-0.00023975883 0 -8.3737063e-05)
(-0.00023969487 0 -8.3613376e-05)
(-0.00023960386 0 -8.3491137e-05)
(-0.00023947522 0 -8.3376585e-05)
(-0.00023929595 0 -8.3285533e-05)
(-0.00023904747 0 -8.3238233e-05)
(-0.00023870667 0 -8.3272908e-05)
(-0.00023824217 0 -8.3441214e-05)
(-0.00023761402 0 -8.3824449e-05)
(-0.00023677098 0 -8.4532488e-05)
(-0.00023564806 0 -8.5737971e-05)
(-0.00023416335 0 -8.7646378e-05)
(-0.00023222059 0 -9.0596669e-05)
(-0.0002297084 0 -9.4997302e-05)
(-0.00022650563 0 -0.00010141419)
(-0.00022248324 0 -0.00011056735)
(-0.00021751662 0 -0.00012333611)
(-0.0002115038 0 -0.0001407362)
(-0.00020437348 0 -0.00016385925)
(-0.00019613264 0 -0.00019372059)
(-0.00018680721 0 -0.00023123597)
(-0.00017654779 0 -0.00027677902)
(-0.00016549941 0 -0.00033036423)
(-0.00015406033 0 -0.00039078694)
(-0.00014240182 0 -0.00045687495)
(-0.00013099061 0 -0.00052617068)
(-0.00011990487 0 -0.00059692653)
(-0.00010958072 0 -0.00066625288)
(-9.9931928e-05 0 -0.00073310757)
(-9.1312377e-05 0 -0.00079508699)
(-8.3720582e-05 0 -0.0008503699)
(-7.7653755e-05 0 -0.00089791244)
(-7.2288426e-05 0 -0.0009395138)
(-6.8187445e-05 0 -0.00097342641)
(-6.4320205e-05 0 -0.00099546246)
(-6.1489902e-05 0 -0.00101336)
(-5.8892589e-05 0 -0.0010192924)
(-5.6814604e-05 0 -0.0010228367)
(-5.3032757e-05 0 -0.00099701074)
(-5.0285661e-05 0 -0.00097136607)
(-4.6065612e-05 0 -0.00091111069)
(-3.874403e-05 0 -0.00078073082)
(-3.0334675e-05 0 -0.00060944223)
(-1.75319e-05 0 -0.00031118075)
(-0.00023931809 0 -5.2872606e-05)
(-0.00023931392 0 -5.279548e-05)
(-0.00023930596 0 -5.2707761e-05)
(-0.00023929257 0 -5.2604299e-05)
(-0.00023927158 0 -5.2480979e-05)
(-0.00023923983 0 -5.2336177e-05)
(-0.00023919329 0 -5.2168647e-05)
(-0.00023912611 0 -5.1981387e-05)
(-0.00023903093 0 -5.177934e-05)
(-0.00023889711 0 -5.1572806e-05)
(-0.00023871135 0 -5.1375993e-05)
(-0.00023845487 0 -5.1212901e-05)
(-0.00023810402 0 -5.1115793e-05)
(-0.00023762702 0 -5.1137552e-05)
(-0.00023698317 0 -5.1352014e-05)
(-0.00023612078 0 -5.187455e-05)
(-0.00023497355 0 -5.2855329e-05)
(-0.00023346032 0 -5.4543906e-05)
(-0.00023148271 0 -5.722951e-05)
(-0.00022893083 0 -6.1358143e-05)
(-0.00022568399 0 -6.75001e-05)
(-0.00022161571 0 -7.639445e-05)
(-0.00021660497 0 -8.8943322e-05)
(-0.00021055573 0 -0.00010618825)
(-0.00020340465 0 -0.00012924683)
(-0.00019516558 0 -0.00015915651)
(-0.00018587444 0 -0.00019685752)
(-0.00017567313 0 -0.00024281786)
(-0.00016472899 0 -0.00029699113)
(-0.00015340525 0 -0.00035826614)
(-0.00014189028 0 -0.00042536771)
(-0.00013060431 0 -0.00049590578)
(-0.0001196452 0 -0.00056805123)
(-0.00010940584 0 -0.00063898113)
(-9.9835961e-05 0 -0.00070749022)
(-9.1257217e-05 0 -0.00077121309)
(-8.3683605e-05 0 -0.00082839763)
(-7.755794e-05 0 -0.00087788751)
(-7.2180031e-05 0 -0.00092116181)
(-6.8002879e-05 0 -0.00095660721)
(-6.4135803e-05 0 -0.00098059622)
(-6.1235291e-05 0 -0.0009995826)
(-5.8602699e-05 0 -0.0010069885)
(-5.6438468e-05 0 -0.0010107284)
(-5.2760068e-05 0 -0.00098694982)
(-4.990678e-05 0 -0.00096071311)
(-4.5646001e-05 0 -0.00090027586)
(-3.8447328e-05 0 -0.00077263929)
(-2.991649e-05 0 -0.00059980307)
(-1.6849539e-05 0 -0.00030007705)
(-0.00023864409 0 -2.2089042e-05)
(-0.00023863875 0 -2.1980174e-05)
(-0.00023862921 0 -2.1849917e-05)
(-0.00023861396 0 -2.1700047e-05)
(-0.00023859085 0 -2.1530354e-05)
(-0.00023855669 0 -2.1340286e-05)
(-0.00023850737 0 -2.1129824e-05)
(-0.00023843683 0 -2.0897801e-05)
(-0.0002383375 0 -2.0646611e-05)
(-0.00023819833 0 -2.0378977e-05)
(-0.00023800576 0 -2.0107183e-05)
(-0.00023774049 0 -1.9848083e-05)
(-0.00023737852 0 -1.9635757e-05)
(-0.00023688745 0 -1.951809e-05)
(-0.00023622606 0 -1.9571874e-05)
(-0.00023534171 0 -1.9903977e-05)
(-0.00023416812 0 -2.0685065e-05)
(-0.00023262201 0 -2.2121798e-05)
(-0.00023060659 0 -2.4560353e-05)
(-0.00022801119 0 -2.8425738e-05)
(-0.00022471658 0 -3.4311414e-05)
(-0.00022059876 0 -4.2973909e-05)
(-0.00021554066 0 -5.5333127e-05)
(-0.00020945277 0 -7.2456094e-05)
(-0.00020227952 0 -9.548328e-05)
(-0.00019404359 0 -0.00012547209)
(-0.00018478786 0 -0.00016338907)
(-0.00017465255 0 -0.00020976778)
(-0.00016381692 0 -0.00026453018)
(-0.00015261997 0 -0.0003266164)
(-0.00014125611 0 -0.00039468103)
(-0.00013010977 0 -0.00046637778)
(-0.00011928686 0 -0.00053983009)
(-0.00010914775 0 -0.00061225639)
(-9.9666599e-05 0 -0.00068232961)
(-9.1141428e-05 0 -0.00074770339)
(-8.3595413e-05 0 -0.00080669427)
(-7.7427325e-05 0 -0.00085804217)
(-7.2039351e-05 0 -0.00090294359)
(-6.7798479e-05 0 -0.0009398864)
(-6.3929892e-05 0 -0.00096573125)
(-6.0968829e-05 0 -0.00098583527)
(-5.8301597e-05 0 -0.00099463565)
(-5.605928e-05 0 -0.00099865192)
(-5.2470554e-05 0 -0.00097674007)
(-4.952504e-05 0 -0.00095004847)
(-4.5224443e-05 0 -0.00088947093)
(-3.8135115e-05 0 -0.00076431938)
(-2.9498657e-05 0 -0.00059024543)
(-1.6200754e-05 0 -0.00028953206)
(-0.00023785804 0 8.0202342e-06)
(-0.00023785196 0 8.1377706e-06)
(-0.00023784159 0 8.2733405e-06)
(-0.00023782516 0 8.4332781e-06)
(-0.00023780034 0 8.6225176e-06)
(-0.00023776374 0 8.845039e-06)
(-0.0002377111 0 9.1033485e-06)
(-0.0002376362 0 9.3980353e-06)
(-0.00023753136 0 9.7263839e-06)
(-0.00023738538 0 1.0082089e-05)
(-0.00023718437 0 1.0454747e-05)
(-0.00023690876 0 1.0824733e-05)
(-0.00023653391 0 1.1164113e-05)
(-0.00023602695 0 1.1424474e-05)
(-0.00023534575 0 1.1535926e-05)
(-0.00023443719 0 1.1386883e-05)
(-0.00023323352 0 1.0828128e-05)
(-0.00023165241 0 9.609113e-06)
(-0.0002295948 0 7.4317721e-06)
(-0.0002269517 0 3.8270681e-06)
(-0.00022360499 0 -1.8058817e-06)
(-0.00021943309 0 -1.0245799e-05)
(-0.00021432354 0 -2.2428053e-05)
(-0.00020819392 0 -3.944946e-05)
(-0.00020099667 0 -6.2469649e-05)
(-0.00019276487 0 -9.2563389e-05)
(-0.00018354608 0 -0.00013072699)
(-0.00017348291 0 -0.00017752824)
(-0.00016276367 0 -0.00023286362)
(-0.00015170348 0 -0.00029572089)
(-0.00014050127 0 -0.00036469368)
(-0.00012950616 0 -0.00043747926)
(-0.0001188318 0 -0.00051215438)
(-0.00010880564 0 -0.00058598524)
(-9.9424586e-05 0 -0.00065753473)
(-9.0963558e-05 0 -0.0007244794)
(-8.3455324e-05 0 -0.00078518596)
(-7.7259132e-05 0 -0.00083831039)
(-7.1866568e-05 0 -0.00088478989)
(-6.7572581e-05 0 -0.00092319828)
(-6.3701553e-05 0 -0.0009508103)
(-6.068764e-05 0 -0.0009720496)
(-5.7988705e-05 0 -0.00098220482)
(-5.5675677e-05 0 -0.00098656746)
(-5.216393e-05 0 -0.00096637871)
(-4.9138201e-05 0 -0.00093934897)
(-4.4802794e-05 0 -0.00087870363)
(-3.7810954e-05 0 -0.00075578689)
(-2.908438e-05 0 -0.00058074089)
(-1.5589419e-05 0 -0.00027946304)
(-0.00023696291 0 3.7486064e-05)
(-0.00023695532 0 3.7632317e-05)
(-0.00023694298 0 3.7805057e-05)
(-0.00023692423 0 3.8005729e-05)
(-0.00023689677 0 3.8236152e-05)
(-0.00023685709 0 3.8500977e-05)
(-0.00023680086 0 3.880157e-05)
(-0.00023672158 0 3.914228e-05)
(-0.0002366113 0 3.9522781e-05)
(-0.00023645838 0 3.9943278e-05)
(-0.00023624859 0 4.039452e-05)
(-0.00023596177 0 4.0862986e-05)
(-0.00023557287 0 4.1318809e-05)
(-0.00023504828 0 4.171839e-05)
(-0.00023434529 0 4.1989673e-05)
(-0.00023340966 0 4.2029471e-05)
(-0.00023217369 0 4.1669903e-05)
(-0.00023055268 0 4.0701542e-05)
(-0.00022844968 0 3.8768544e-05)
(-0.0002257553 0 3.5412518e-05)
(-0.00022235299 0 3.0009174e-05)
(-0.00021812394 0 2.1758164e-05)
(-0.00021295992 0 9.7199318e-06)
(-0.00020678698 0 -7.2380561e-06)
(-0.00019956527 0 -3.0288644e-05)
(-0.00019133925 0 -6.0522218e-05)
(-0.00018216019 0 -9.8962707e-05)
(-0.00017217628 0 -0.00014619605)
(-0.00016157914 0 -0.00020210811)
(-0.00015066586 0 -0.00026570464)
(-0.00013963296 0 -0.00033553907)
(-0.00012880115 0 -0.00040933877)
(-0.00011828416 0 -0.00048515921)
(-0.00010838391 0 -0.00056029556)
(-9.9112132e-05 0 -0.00063323292)
(-9.0726432e-05 0 -0.00070165786)
(-8.3264889e-05 0 -0.00076398805)
(-7.7054641e-05 0 -0.00081879988)
(-7.1661538e-05 0 -0.00086680445)
(-6.7325032e-05 0 -0.00090663664)
(-6.3452021e-05 0 -0.00093592902)
(-6.0393123e-05 0 -0.00095830837)
(-5.7663914e-05 0 -0.00096974865)
(-5.5287344e-05 0 -0.00097451268)
(-5.1842213e-05 0 -0.00095589932)
(-4.8747159e-05 0 -0.00092863302)
(-4.4378129e-05 0 -0.00086795221)
(-3.7473078e-05 0 -0.00074706589)
(-2.8669824e-05 0 -0.00057130839)
(-1.5007638e-05 0 -0.00026989746)
(-0.00023596268 0 6.6307121e-05)
(-0.00023595394 0 6.6465659e-05)
(-0.00023594029 0 6.6649439e-05)
(-0.00023591978 0 6.6866336e-05)
(-0.00023588988 0 6.7121982e-05)
(-0.00023584695 0 6.7421987e-05)
(-0.00023578643 0 6.777119e-05)
(-0.00023570168 0 6.81726e-05)
(-0.00023558454 0 6.8626766e-05)
(-0.00023542322 0 6.9130522e-05)
(-0.00023520304 0 6.9677451e-05)
(-0.00023490353 0 7.0251953e-05)
(-0.00023449882 0 7.0830703e-05)
(-0.00023395474 0 7.1369915e-05)
(-0.00023322751 0 7.1804549e-05)
(-0.00023226231 0 7.2027126e-05)
(-0.00023098978 0 7.188951e-05)
(-0.00022932648 0 7.1140746e-05)
(-0.0002271731 0 6.9474663e-05)
(-0.00022442366 0 6.6359662e-05)
(-0.0002209616 0 6.1177757e-05)
(-0.00021667135 0 5.3094875e-05)
(-0.00021144878 0 4.1186712e-05)
(-0.00020523023 0 2.4264392e-05)
(-0.00019798321 0 1.1566558e-06)
(-0.00018976431 0 -2.9248244e-05)
(-0.0001806284 0 -6.7998158e-05)
(-0.00017072996 0 -0.00011567255)
(-0.00016026321 0 -0.00017214826)
(-0.00014950605 0 -0.0002364521)
(-0.0001386524 0 -0.00030709918)
(-0.00012799391 0 -0.00038185025)
(-0.00011764529 0 -0.00045873801)
(-0.00010788178 0 -0.0005350948)
(-9.8729609e-05 0 -0.00060933447)
(-9.0428611e-05 0 -0.00067916094)
(-8.302319e-05 0 -0.0007430269)
(-7.6811307e-05 0 -0.00079944526)
(-7.1424066e-05 0 -0.00084891837)
(-6.7054266e-05 0 -0.00089013614)
(-6.3180101e-05 0 -0.00092102946)
(-6.008261e-05 0 -0.00094454677)
(-5.7326458e-05 0 -0.00095723538)
(-5.4892856e-05 0 -0.00096244892)
(-5.1504805e-05 0 -0.00094529425)
(-4.8349737e-05 0 -0.0009178778)
(-4.3952216e-05 0 -0.00085722313)
(-3.7125044e-05 0 -0.0007381744)
(-2.8257977e-05 0 -0.00056192161)
(-1.4459409e-05 0 -0.00026076433)
(-0.00023485996 0 9.4510365e-05)
(-0.00023484927 0 9.4696993e-05)
(-0.00023483306 0 9.4918012e-05)
(-0.00023480955 0 9.517569e-05)
(-0.00023477624 0 9.5473217e-05)
(-0.00023472936 0 9.5816604e-05)
(-0.0002346643 0 9.6208779e-05)
(-0.00023457406 0 9.6656805e-05)
(-0.00023445022 0 9.7162561e-05)
(-0.00023428038 0 9.7730315e-05)
(-0.00023404949 0 9.8354129e-05)
(-0.0002337363 0 9.9025578e-05)
(-0.00023331448 0 9.9719529e-05)
(-0.00023274895 0 0.00010039755)
(-0.00023199517 0 0.00010099313)
(-0.00023099712 0 0.00010140609)
(-0.00022968539 0 0.00010147165)
(-0.00022797394 0 0.00010097481)
(-0.00022577002 0 9.9500668e-05)
(-0.00022296357 0 9.6593831e-05)
(-0.00021943876 0 9.1611021e-05)
(-0.00021508127 0 8.3725087e-05)
(-0.00020979708 0 7.1920181e-05)
(-0.00020353254 0 5.4987254e-05)
(-0.00019626044 0 3.1783693e-05)
(-0.00018805147 0 1.1687124e-06)
(-0.00017896283 0 -3.7920723e-05)
(-0.00016915677 0 -8.605197e-05)
(-0.00015882705 0 -0.00014309646)
(-0.00014823531 0 -0.00020808172)
(-0.00013756823 0 -0.00027949875)
(-0.00012709317 0 -0.00035513379)
(-0.00011692067 0 -0.00043301673)
(-0.00010730467 0 -0.00051050227)
(-9.8280305e-05 0 -0.00058595903)
(-9.00737e-05 0 -0.0006570988)
(-8.273259e-05 0 -0.00072241199)
(-7.6531058e-05 0 -0.00078034927)
(-7.1154548e-05 0 -0.00083123305)
(-6.6760604e-05 0 -0.00087378897)
(-6.2887158e-05 0 -0.00090620394)
(-5.9757678e-05 0 -0.00093084621)
(-5.6976525e-05 0 -0.00094471904)
(-5.4492166e-05 0 -0.00095041552)
(-5.115361e-05 0 -0.00093459782)
(-4.7947043e-05 0 -0.00090710366)
(-4.3522242e-05 0 -0.00084649752)
(-3.6764799e-05 0 -0.00072912973)
(-2.7845319e-05 0 -0.00055259996)
(-1.393724e-05 0 -0.00025208363)
(-0.00023365808 0 0.00012209506)
(-0.00023364592 0 0.00012229415)
(-0.00023362805 0 0.00012252647)
(-0.00023360233 0 0.00012280041)
(-0.00023356603 0 0.00012312274)
(-0.00023351521 0 0.00012350039)
(-0.00023344495 0 0.00012393971)
(-0.00023334813 0 0.00012444651)
(-0.00023321603 0 0.00012502381)
(-0.00023303605 0 0.00012567305)
(-0.00023279261 0 0.00012639141)
(-0.00023246401 0 0.00012716924)
(-0.00023202304 0 0.00012798738)
(-0.00023143379 0 0.00012880833)
(-0.00023065066 0 0.00012957068)
(-0.00022961676 0 0.00013017225)
(-0.00022826105 0 0.00013046332)
(-0.00022650426 0 0.00013013427)
(-0.00022424721 0 0.00012884099)
(-0.00022137762 0 0.00012612241)
(-0.00021778338 0 0.00012132462)
(-0.000213354 0 0.00011362507)
(-0.00020800726 0 0.00010192292)
(-0.00020169126 0 8.5011411e-05)
(-0.00019439481 0 6.168756e-05)
(-0.00018619727 0 3.0827827e-05)
(-0.00017716095 0 -8.635734e-06)
(-0.00016745414 0 -5.7235656e-05)
(-0.00015726976 0 -0.00011483904)
(-0.00014685211 0 -0.00018047942)
(-0.00013638068 0 -0.00025262279)
(-0.00012609778 0 -0.0003290848)
(-0.00011611088 0 -0.00040789111)
(-0.00010665154 0 -0.00048642633)
(-9.7764027e-05 0 -0.00056301824)
(-8.9660088e-05 0 -0.00063539423)
(-8.2391782e-05 0 -0.00070207006)
(-7.6211401e-05 0 -0.00076144693)
(-7.0852316e-05 0 -0.00081368057)
(-6.6442411e-05 0 -0.00085753098)
(-6.2571695e-05 0 -0.00089139483)
(-5.9415762e-05 0 -0.00091714563)
(-5.6613097e-05 0 -0.00093216584)
(-5.4083726e-05 0 -0.00093837498)
(-5.0787722e-05 0 -0.000923798)
(-4.7536888e-05 0 -0.00089628796)
(-4.3090036e-05 0 -0.00083578339)
(-3.6395837e-05 0 -0.00071994963)
(-2.7434815e-05 0 -0.00054332064)
(-1.3445012e-05 0 -0.00024379292)
(-0.0002323597 0 0.00014908655)
(-0.00023234524 0 0.0001493117)
(-0.00023232445 0 0.0001495768)
(-0.00023229532 0 0.00014988648)
(-0.00023225514 0 0.00015024518)
(-0.00023219974 0 0.00015066172)
(-0.00023212413 0 0.00015114123)
(-0.00023202073 0 0.00015169377)
(-0.00023188047 0 0.00015232442)
(-0.00023169009 0 0.00015304081)
(-0.0002314335 0 0.00015384114)
(-0.00023108829 0 0.00015472086)
(-0.00023062646 0 0.00015566016)
(-0.0002300113 0 0.0001566247)
(-0.00022919602 0 0.00015755468)
(-0.00022812253 0 0.00015835298)
(-0.00022672515 0 0.00015880612)
(-0.00022491943 0 0.00015865377)
(-0.00022260324 0 0.00015754256)
(-0.00021966644 0 0.0001550024)
(-0.00021599949 0 0.00015036183)
(-0.00021149821 0 0.00014276369)
(-0.00020608518 0 0.00013112724)
(-0.00019971415 0 0.00011426822)
(-0.0001923965 0 9.078602e-05)
(-0.00018421471 0 5.9638998e-05)
(-0.0001752362 0 1.9771529e-05)
(-0.00016563551 0 -2.9315561e-05)
(-0.00015560366 0 -8.7482089e-05)
(-0.00014536874 0 -0.0001537551)
(-0.00013509972 0 -0.00022658567)
(-0.00012501739 0 -0.00030381343)
(-0.00011522267 0 -0.00038347657)
(-0.00010592876 0 -0.00046297664)
(-9.7185145e-05 0 -0.00054062276)
(-8.9192133e-05 0 -0.00061414989)
(-8.2003961e-05 0 -0.00068210376)
(-7.5854926e-05 0 -0.0007428351)
(-7.0518422e-05 0 -0.00079635767)
(-6.6100558e-05 0 -0.00084145069)
(-6.2235315e-05 0 -0.00087668959)
(-5.9058632e-05 0 -0.00090352313)
(-5.6236711e-05 0 -0.00091963009)
(-5.3667827e-05 0 -0.00092636771)
(-5.040901e-05 0 -0.00091292991)
(-4.7120628e-05 0 -0.00088545331)
(-4.2652865e-05 0 -0.00082506406)
(-3.6015882e-05 0 -0.0007106464)
(-2.7023187e-05 0 -0.00053410392)
(-1.2975548e-05 0 -0.00023590753)
(-0.00023096823 0 0.00017548547)
(-0.00023095197 0 0.00017572312)
(-0.00023092916 0 0.00017599937)
(-0.00023089737 0 0.00017632485)
(-0.00023085362 0 0.00017670747)
(-0.0002307935 0 0.0001771575)
(-0.00023071167 0 0.0001776834)
(-0.00023060032 0 0.00017829489)
(-0.00023045012 0 0.00017899784)
(-0.00023024745 0 0.00017979768)
(-0.00022997577 0 0.00018069488)
(-0.00022961199 0 0.00018168395)
(-0.00022912725 0 0.00018274937)
(-0.00022848359 0 0.00018386057)
(-0.00022763307 0 0.0001849615)
(-0.00022652128 0 0.00018591749)
(-0.00022507984 0 0.00018653182)
(-0.00022321963 0 0.00018655065)
(-0.00022083887 0 0.00018563017)
(-0.00021783043 0 0.00018326118)
(-0.00021408623 0 0.0001787686)
(-0.00020950827 0 0.00017126502)
(-0.00020402523 0 0.00015966239)
(-0.00019760185 0 0.00014277483)
(-0.00019026295 0 0.0001191729)
(-0.00018210041 0 8.7694085e-05)
(-0.00017318538 0 4.7392015e-05)
(-0.00016369846 0 -2.19324e-06)
(-0.00015382745 0 -6.0914481e-05)
(-0.00014378341 0 -0.00012779712)
(-0.00013372497 0 -0.00020127538)
(-0.00012385066 0 -0.00027921672)
(-0.00011425608 0 -0.00035967083)
(-0.00010513514 0 -0.00044006228)
(-9.6543117e-05 0 -0.0005186851)
(-8.8668148e-05 0 -0.00059328876)
(-8.1567603e-05 0 -0.0006624398)
(-7.5459213e-05 0 -0.0007244486)
(-7.0151917e-05 0 -0.00077919679)
(-6.5733384e-05 0 -0.00082548454)
(-6.1876345e-05 0 -0.0008620306)
(-5.8683805e-05 0 -0.00088992007)
(-5.5846191e-05 0 -0.00090707662)
(-5.324286e-05 0 -0.00091435713)
(-5.0016339e-05 0 -0.0009019784)
(-4.6696085e-05 0 -0.00087457743)
(-4.2212659e-05 0 -0.00081434948)
(-3.5628374e-05 0 -0.00070123683)
(-2.6613429e-05 0 -0.00052492957)
(-1.2532654e-05 0 -0.00022837105)
(-0.00022948584 0 0.00020131432)
(-0.00022946696 0 0.00020157569)
(-0.00022944085 0 0.00020188181)
(-0.00022940511 0 0.00020224149)
(-0.00022935666 0 0.00020266167)
(-0.0002292909 0 0.00020315392)
(-0.00022920229 0 0.00020372592)
(-0.00022908276 0 0.00020438912)
(-0.00022892244 0 0.00020515154)
(-0.00022870724 0 0.00020602187)
(-0.00022841987 0 0.00020700269)
(-0.00022803651 0 0.00020809187)
(-0.00022752714 0 0.00020927724)
(-0.00022685281 0 0.00021053024)
(-0.00022596755 0 0.00021177794)
(-0.00022481636 0 0.00021287951)
(-0.00022332507 0 0.00021365863)
(-0.00022140505 0 0.00021386421)
(-0.00021895677 0 0.00021310965)
(-0.00021587286 0 0.00021089454)
(-0.00021204844 0 0.00020652629)
(-0.00020739139 0 0.0001990878)
(-0.00020183817 0 0.00018747552)
(-0.00019536595 0 0.00017046011)
(-0.00018800883 0 0.00014669608)
(-0.00017986807 0 0.00011490621)
(-0.00017102317 0 7.4142013e-05)
(-0.00016165731 0 2.403959e-05)
(-0.00015195463 0 -3.5238242e-05)
(-0.00014210939 0 -0.00010270932)
(-0.00013226752 0 -0.00017679867)
(-0.00012260801 0 -0.00025539715)
(-0.00011321889 0 -0.00033658109)
(-0.00010427781 0 -0.00041778543)
(-9.5843205e-05 0 -0.00049730879)
(-8.8093125e-05 0 -0.00057290765)
(-8.1086587e-05 0 -0.00064317531)
(-7.5027429e-05 0 -0.00070637955)
(-6.9754437e-05 0 -0.00076229061)
(-6.5342248e-05 0 -0.00080971798)
(-6.1496627e-05 0 -0.00084750147)
(-5.8293238e-05 0 -0.00087641188)
(-5.5442371e-05 0 -0.00089455974)
(-5.2809424e-05 0 -0.00090238472)
(-4.9611574e-05 0 -0.00089097914)
(-4.6264827e-05 0 -0.00086368496)
(-4.176671e-05 0 -0.00080362406)
(-3.5230879e-05 0 -0.00069172994)
(-2.6202385e-05 0 -0.00051581732)
(-1.2109654e-05 0 -0.00022119589)
(-0.00022791607 0 0.00022657904)
(-0.00022789456 0 0.00022686051)
(-0.00022786519 0 0.00022719093)
(-0.00022782545 0 0.00022757946)
(-0.00022777208 0 0.00022803414)
(-0.00022770031 0 0.00022856624)
(-0.00022760436 0 0.00022918489)
(-0.00022747567 0 0.00022990367)
(-0.00022730412 0 0.00023073028)
(-0.00022707501 0 0.00023167568)
(-0.00022677046 0 0.00023274359)
(-0.00022636573 0 0.00023393442)
(-0.00022582987 0 0.00023523693)
(-0.00022512395 0 0.00023662614)
(-0.00022420317 0 0.00023800757)
(-0.00022300804 0 0.00023925784)
(-0.000221463 0 0.0002402089)
(-0.00021947987 0 0.00024057692)
(-0.00021695875 0 0.00023999029)
(-0.00021379416 0 0.00023792866)
(-0.00020988457 0 0.00023368001)
(-0.00020514507 0 0.00022628999)
(-0.00019952034 0 0.00021463943)
(-0.00019299927 0 0.00019747073)
(-0.00018563135 0 0.0001734457)
(-0.00017751192 0 0.00014136242)
(-0.00016874558 0 0.00010010897)
(-0.00015950915 0 4.9481988e-05)
(-0.00014998306 0 -1.0344824e-05)
(-0.00014034426 0 -7.8383335e-05)
(-0.00013072608 0 -0.00015304765)
(-0.0001212876 0 -0.00023225454)
(-0.00011211037 0 -0.00031410825)
(-0.00010335786 0 -0.00039611423)
(-9.5086586e-05 0 -0.00047646462)
(-8.7466963e-05 0 -0.00055298199)
(-8.0559022e-05 0 -0.00062423822)
(-7.4557069e-05 0 -0.00068856338)
(-6.9324613e-05 0 -0.00074557299)
(-6.4925324e-05 0 -0.00079408897)
(-6.1094235e-05 0 -0.00083304556)
(-5.7884447e-05 0 -0.00086294281)
(-5.5023823e-05 0 -0.00088204328)
(-5.2365775e-05 0 -0.00089041495)
(-4.9193305e-05 0 -0.00087991402)
(-4.582461e-05 0 -0.00085275377)
(-4.1317081e-05 0 -0.00079290016)
(-3.4826774e-05 0 -0.00068214137)
(-2.57931e-05 0 -0.0005067498)
(-1.1710144e-05 0 -0.00021433076)
(-0.00022626112 0 0.00025129254)
(-0.00022623673 0 0.00025159435)
(-0.00022620383 0 0.00025194902)
(-0.00022615976 0 0.00025236628)
(-0.00022610111 0 0.00025285483)
(-0.00022602282 0 0.00025342733)
(-0.00022591886 0 0.00025409343)
(-0.00022578042 0 0.00025486647)
(-0.00022559682 0 0.00025575678)
(-0.0002253528 0 0.00025677667)
(-0.00022502979 0 0.00025793137)
(-0.00022460213 0 0.00025922453)
(-0.00022403789 0 0.00026064693)
(-0.0002232996 0 0.00026215651)
(-0.00022234114 0 0.00026366577)
(-0.0002210985 0 0.00026507247)
(-0.00021949654 0 0.00026617499)
(-0.00021744577 0 0.00026670807)
(-0.00021484737 0 0.00026628046)
(-0.00021159799 0 0.00026435742)
(-0.00020760001 0 0.00026020932)
(-0.00020277732 0 0.00025283078)
(-0.00019708132 0 0.00024109945)
(-0.00019051399 0 0.00022373877)
(-0.00018313859 0 0.0001994004)
(-0.00017504604 0 0.00016698807)
(-0.00016636824 0 0.00012521392)
(-0.000157269 0 7.4046211e-05)
(-0.00014792722 0 1.3671384e-05)
(-0.00013850206 0 -5.4913804e-05)
(-0.00012911268 0 -0.00013011877)
(-0.00011990476 0 -0.0002099489)
(-0.00011094383 0 -0.00029242042)
(-0.00010238452 0 -0.00037515604)
(-9.4279931e-05 0 -0.00045626024)
(-8.6795387e-05 0 -0.0005336135)
(-7.9990924e-05 0 -0.00060577175)
(-7.4051861e-05 0 -0.00067108636)
(-6.8864726e-05 0 -0.0007291307)
(-6.4484481e-05 0 -0.0007786783)
(-6.0671334e-05 0 -0.00081874157)
(-5.7459593e-05 0 -0.00084958433)
(-5.4591728e-05 0 -0.00086958081)
(-5.1912845e-05 0 -0.00087848956)
(-4.8763475e-05 0 -0.00086881932)
(-4.5377234e-05 0 -0.0008418103)
(-4.0861075e-05 0 -0.00078216307)
(-3.4413496e-05 0 -0.0006724777)
(-2.5382482e-05 0 -0.0004977463)
(-1.1327858e-05 0 -0.00020778702)
(-0.00022452347 0 0.00027546588)
(-0.00022449603 0 0.00027578724)
(-0.00022445941 0 0.00027616499)
(-0.00022441077 0 0.00027660971)
(-0.0002243465 0 0.000277131)
(-0.00022426133 0 0.00027774191)
(-0.0002241489 0 0.00027845353)
(-0.00022399987 0 0.00027928168)
(-0.00022380325 0 0.00028023643)
(-0.00022354312 0 0.00028133163)
(-0.00022320013 0 0.00028257418)
(-0.00022274778 0 0.00028396818)
(-0.0002221539 0 0.00028550902)
(-0.0002213824 0 0.00028713328)
(-0.00022038236 0 0.00028878134)
(-0.00021909041 0 0.00029031965)
(-0.00021742754 0 0.00029157716)
(-0.00021530485 0 0.00029226622)
(-0.00021262373 0 0.00029199634)
(-0.00020928376 0 0.00029020826)
(-0.00020519836 0 0.00028609206)
(-0.00020029097 0 0.00027869312)
(-0.0001945235 0 0.0002668531)
(-0.00018791087 0 0.00024927477)
(-0.00018052762 0 0.00022463664)
(-0.00017247224 0 0.00019180633)
(-0.00016388739 0 0.0001495406)
(-0.00015493378 0 9.783058e-05)
(-0.00014578456 0 3.691597e-05)
(-0.00013658 0 -3.2195719e-05)
(-0.00012743221 0 -0.00010798429)
(-0.00011846014 0 -0.00018840556)
(-0.00010971891 0 -0.00027144357)
(-0.00010135369 0 -0.00035478673)
(-9.3419952e-05 0 -0.00043656713)
(-8.6074997e-05 0 -0.00051468276)
(-7.9380417e-05 0 -0.00058770948)
(-7.3510596e-05 0 -0.00065393165)
(-6.8373151e-05 0 -0.00071289859)
(-6.4017797e-05 0 -0.00076342478)
(-6.022584e-05 0 -0.00080453336)
(-5.7016201e-05 0 -0.00083628259)
(-5.4144491e-05 0 -0.00085713536)
(-5.1448808e-05 0 -0.00086657376)
(-4.8320473e-05 0 -0.00085767478)
(-4.4920411e-05 0 -0.00083083261)
(-4.0400891e-05 0 -0.00077142722)
(-3.3994396e-05 0 -0.00066275366)
(-2.4973634e-05 0 -0.00048879143)
(-1.0966263e-05 0 -0.00020151746)
(-0.00022270557 0 0.00029911061)
(-0.00022267479 0 0.00029945221)
(-0.00022263409 0 0.0002998539)
(-0.00022258047 0 0.00030032689)
(-0.00022251014 0 0.00030088136)
(-0.00022241748 0 0.00030153188)
(-0.00022229588 0 0.00030228999)
(-0.00022213564 0 0.00030317157)
(-0.00022192517 0 0.00030418926)
(-0.00022164787 0 0.00030535832)
(-0.00022128369 0 0.00030668653)
(-0.00022080508 0 0.00030817961)
(-0.00022018037 0 0.00030983051)
(-0.00021937291 0 0.00031157756)
(-0.00021833014 0 0.00031334553)
(-0.00021698416 0 0.00031503053)
(-0.00021525724 0 0.00031642905)
(-0.0002130582 0 0.00031726745)
(-0.00021028971 0 0.00031714539)
(-0.00020686278 0 0.00031542013)
(-0.00020269015 0 0.0003112909)
(-0.00019769591 0 0.00030382687)
(-0.00019185754 0 0.00029183894)
(-0.00018520218 0 0.00027400168)
(-0.00017781149 0 0.00024907856)
(-0.00016980608 0 0.0002157431)