/*--------------------------------*- C++ -*----------------------------------*\
  =========                 |
  \\      /  F ield         | OpenFOAM: The Open Source CFD Toolbox
   \\    /   O peration     | Website:  https://openfoam.org
    \\  /    A nd           | Version:  8
     \\/     M anipulation  |
\*---------------------------------------------------------------------------*/
FoamFile
{
    version     2.0;
    format      ascii;
    class       volScalarField;
    location    "0.149996";
    object      Ma;
}
// * * * * * * * * * * * * * * * * * * * * * * * * * * * * * * * * * * * * * //

dimensions      [0 0 0 0 0 0 0];

internalField   nonuniform List<scalar> 
20000
(
0.75294221
0.87068005
0.94591275
1.010918
1.0727693
1.1333144
1.1857725
1.2013239
1.1965804
1.1980495
1.1939747
1.1936476
1.189844
1.1878398
1.1835917
1.179841
1.1744161
1.168546
1.1611298
1.1524989
1.1421041
1.1297828
1.1152118
1.0980363
1.0780356
1.0549185
1.0286565
0.99938147
0.96774506
0.9351302
0.90363404
0.87535466
0.85133833
0.83153727
0.81562954
0.80306582
0.79316158
0.78541202
0.77938814
0.77466262
0.77094066
0.76793249
0.76546441
0.7633034
0.76133726
0.75966775
0.75845673
0.75694754
0.75734296
0.75299425
0.74998875
0.86857478
0.94455177
1.0102318
1.0727608
1.1339425
1.185047
1.1989729
1.1940121
1.1955469
1.1913404
1.1910027
1.1870805
1.1849958
1.1806227
1.176731
1.171152
1.1650824
1.1574574
1.148562
1.1378827
1.1252325
1.1103196
1.0928088
1.0725311
1.0492858
1.0231661
0.99444449
0.96383292
0.93250053
0.90219887
0.87464166
0.85097659
0.83137154
0.81556912
0.80305841
0.79318321
0.78545923
0.77944743
0.77473346
0.77100947
0.7679966
0.76551614
0.76334412
0.76136352
0.759689
0.75825947
0.75700436
0.75642305
0.75320823
0.74742368
0.86696354
0.94366603
1.0100277
1.07325
1.1351609
1.1844323
1.1965453
1.1913732
1.1929389
1.1886001
1.1882327
1.1842
1.1820277
1.1775395
1.1735053
1.16778
1.1615103
1.15368
1.1445165
1.1335514
1.1205642
1.1053001
1.0874299
1.0668343
1.0433799
1.0172675
0.98890128
0.95905393
0.92881585
0.89963582
0.87300771
0.8499686
0.83076024
0.81520178
0.80284005
0.79305971
0.78539568
0.77941453
0.7747305
0.77101682
0.76800962
0.76552504
0.76334466
0.76134653
0.75967617
0.75822212
0.75696567
0.75613227
0.75323724
0.74478964
0.8652221
0.94262641
1.0096521
1.0735454
1.1362334
1.1834034
1.193868
1.1885761
1.1901861
1.1857268
1.1853346
1.1811956
1.1789348
1.1743319
1.1701521
1.1642774
1.1578006
1.1497556
1.1403118
1.1290468
1.1157057
1.10007
1.0818137
1.060866
1.0371576
1.0109954
0.98290198
0.95372571
0.9244949
0.89644666
0.87081106
0.8485064
0.82980852
0.81459071
0.80246756
0.79285059
0.78528413
0.77935844
0.77470521
0.77100727
0.76801192
0.76553346
0.76333632
0.7613283
0.75965859
0.75816407
0.75692082
0.755653
0.75328781
0.74227583
0.86359855
0.94169721
1.0093727
1.0739079
1.1374149
1.1821437
1.1911003
1.1856659
1.1873055
1.1827236
1.1822969
1.1780534
1.1756981
1.1709817
1.1666489
1.1606202
1.1539255
1.1456557
1.1359193
1.1243414
1.1106325
1.0946083
1.0759453
1.0546199
1.0306249
1.0043686
0.97648504
0.94789155
0.91958411
0.89262642
0.86803378
0.84657218
0.82849563
0.81371303
0.80189791
0.79249566
0.78507925
0.77924818
0.77464736
0.77097726
0.76799975
0.76552442
0.76330686
0.76129474
0.75962925
0.75811681
0.75685637
0.75530473
0.75333096
0.73979273
0.8619811
0.9407668
1.0090928
1.0742428
1.138582
1.1805582
1.1882154
1.1826148
1.1842837
1.1795879
1.1791243
1.1747796
1.1723231
1.1674901
1.1629939
1.1568022
1.1498765
1.1413688
1.1313252
1.1194184
1.1053242
1.0888902
1.0697979
1.0480708
1.0237675
0.99739682
0.96969717
0.94164888
0.91421942
0.88833203
0.86480198
0.84424597
0.8268698
0.81259759
0.80115371
0.79201512
0.78478037
0.77906751
0.77454405
0.77091776
0.76796621
0.76549154
0.7632609
0.76125139
0.75959118
0.75805669
0.75676901
0.75496567
0.75337394
0.73737078
0.86041243
0.93988668
1.0088638
1.0746014
1.1397556
1.1786793
1.1851989
1.179455
1.1811437
1.1763347
1.1758243
1.1713767
1.1688082
1.1638531
1.1591811
1.1528172
1.1456477
1.1368896
1.1265254
1.1142736
1.0997766
1.0829119
1.0633693
1.0412205
1.0165946
0.99010103
0.96257604
0.93505254
0.9084711
0.88363197
0.86117647
0.84157375
0.82496074
0.81126116
0.8002411
0.7914083
0.7843883
0.77881879
0.77438865
0.77081873
0.76790159
0.76543405
0.76319666
0.7611963
0.75954426
0.75798941
0.75663925
0.75469444
0.75340733
0.73500978
0.85889126
0.93905398
1.0086882
1.0749924
1.1408947
1.1765012
1.1820679
1.1761844
1.1778841
1.1729635
1.1723965
1.167844
1.1651519
1.160069
1.1552093
1.1486643
1.1412389
1.1322179
1.1215189
1.1089047
1.0939853
1.0766673
1.0566527
1.034065
1.0091094
0.98249691
0.95515526
0.92815827
0.90241412
0.8786113
0.85723398
0.8386133
0.82280797
0.80972911
0.7991768
0.79068642
0.78390851
0.7785036
0.77418319
0.77068204
0.76780715
0.76535192
0.76311526
0.76113073
0.75948955
0.75791036
0.75645166
0.75447649
0.75342209
0.73273164
0.85743491
0.93827952
1.0085798
1.075441
1.1419653
1.1740236
1.1788212
1.1728057
1.1745057
1.1694736
1.1688383
1.1641782
1.1613513
1.1561357
1.1510779
1.1443436
1.1366508
1.1273544
1.1163064
1.1033112
1.0879488
1.0701544
1.0496479
1.0266079
1.0013223
0.97460523
0.94746804
0.92101253
0.89610705
0.87333362
0.85303501
0.83541433
0.82044768
0.80802554
0.79797582
0.78985832
0.78334688
0.77812588
0.77392941
0.77050805
0.76768274
0.76524568
0.76301689
0.76105491
0.75942787
0.75782087
0.7562127
0.75431129
0.75341995
0.73052384
0.85603511
0.93755131
1.0085285
1.075956
1.1429211
1.1712233
1.1754551
1.1693126
1.1710023
1.1658603
1.1651459
1.1603772
1.1574059
1.1520545
1.1467889
1.1398571
1.1318855
1.1223005
1.110888
1.0974909
1.0816633
1.0633692
1.0423519
1.0188498
0.99324149
0.96644393
0.93954403
0.91365719
0.88960263
0.86785791
0.84863647
0.83202456
0.81791594
0.80617573
0.79665523
0.78893526
0.7827105
0.77768982
0.77363016
0.7702986
0.76752954
0.76511616
0.76290243
0.76096966
0.75935981
0.75772027
0.75594806
0.75417074
0.75339718
0.72835521
0.85467622
0.93685246
1.0085188
1.0765353
1.1437258
1.1680591
1.1719685
1.1657037
1.1673715
1.1621218
1.1613189
1.1564425
1.1533188
1.1478283
1.1423448
1.1352065
1.1269446
1.1170567
1.1052623
1.0914407
1.075125
1.0563084
1.0347637
1.0107947
0.98487852
0.9580342
0.93141394
0.90613195
0.88294797
0.86223531
0.84408841
0.82848752
0.81524687
0.8042044
0.79523208
0.78792862
0.78200698
0.77720038
0.77328852
0.77005548
0.76734866
0.76496434
0.76277275
0.76087574
0.75928514
0.7576062
0.7556773
0.75404211
0.75336618
0.72621336
0.85336588
0.93618365
1.008546
1.0771917
1.1443263
1.1645096
1.1683579
1.161977
1.1636128
1.1582606
1.1573623
1.1523799
1.1490947
1.14346
1.1377478
1.1303935
1.1218293
1.1116219
1.0994259
1.0851555
1.0683284
1.0489671
1.0268806
1.002445
0.97624384
0.94939569
0.92310604
0.89847253
0.87618465
0.8565108
0.83943514
0.82484252
0.8124722
0.80213531
0.79372339
0.78685023
0.78124434
0.7766628
0.77290792
0.76978087
0.76714153
0.76479138
0.76262902
0.76077428
0.75920232
0.75747146
0.75541235
0.75392017
0.75333002
0.72410958
0.85210026
0.93555661
1.008616
1.0779492
1.1446708
1.160915
1.1646232
1.158139
1.1597355
1.1542865
1.153284
1.1481943
1.1447359
1.1389508
1.1329992
1.1254192
1.1165391
1.1059929
1.0933737
1.0786293
1.0612679
1.0413408
1.0187014
0.99380574
0.96735121
0.94055115
0.91465052
0.89071443
0.86935189
0.85072542
0.83471678
0.82112556
0.80962154
0.79999119
0.79214582
0.78571191
0.78043082
0.77608269
0.7724921
0.76947713
0.76690972
0.76459853
0.7624726
0.76066661
0.75910896
0.75730494
0.75516276
0.75380377
0.75329293
0.72205245
0.85088083
0.93498079
1.008732
1.0788235
1.1447149
1.1572482
1.1607854
1.1542055
1.155752
1.1502063
1.1490864
1.1438854
1.1402421
1.1343011
1.1281004
1.1202834
1.1110712
1.1001643
1.0870987
1.071855
1.0539364
1.0334238
1.0102235
0.98488127
0.95821393
0.93152259
0.90607579
0.88289014
0.86248464
0.84491509
0.82996839
0.81736847
0.8067216
0.79779302
0.79051518
0.78452524
0.77957464
0.77546573
0.77204494
0.7691468
0.76665497
0.76438721
0.76230503
0.76055396
0.75900264
0.75709616
0.75493587
0.75369437
0.75325284
0.7200883
0.84974256
0.93448335
1.0089247
1.0798463
1.1444418
1.153412
1.1568513
1.1501781
1.1516589
1.1460157
1.1447651
1.1394513
1.1356139
1.129513
1.1230524
1.1149835
1.1054201
1.0941284
1.0805935
1.0648254
1.0463273
1.0252111
1.0014465
0.9756791
0.94884904
0.92233514
0.89741221
0.87503251
0.85561648
0.83911313
0.82522191
0.81360017
0.80379688
0.79556036
0.78884651
0.78330145
0.77868398
0.77481768
0.77157045
0.7687926
0.76637913
0.76415903
0.76212795
0.760437
0.75888124
0.75684394
0.75473322
0.75359238
0.75321295
0.71817245
0.84864915
0.9340458
1.0091675
1.080957
1.1438322
1.149403
1.1528076
1.146045
1.1474476
1.14171
1.1403196
1.1348946
1.1308552
1.1245881
1.1178531
1.1095136
1.0995778
1.087877
1.07385
1.0575325
1.0384327
1.0166964
0.99236911
0.96620684
0.93927368
0.91301352
0.88868869
0.86717194
0.84877754
0.83334877
0.82050509
0.80984591
0.80086898
0.79331079
0.78715366
0.78205113
0.77776668
0.77414419
0.77107262
0.76841726
0.76608419
0.7639158
0.76194311
0.76031535
0.75874267
0.75656231
0.75454708
0.75349751
0.75317444
0.71627928
0.8475878
0.93366407
1.0094617
1.0821348
1.1426478
1.1452474
1.1486494
1.1418044
1.1431205
1.1372942
1.135757
1.1302212
1.1259686
1.1195239
1.112496
1.1038643
1.0935354
1.0814018
1.0668603
1.0499681
1.0302447
1.0078745
0.98299302
0.95647581
0.92950913
0.90358575
0.87993608
0.85933913
0.84199707
0.82764933
0.81584321
0.80612844
0.79795738
0.79106029
0.78544948
0.78078432
0.77683031
0.77345079
0.77055542
0.76802358
0.76577224
0.76365963
0.76175228
0.76018731
0.75858329
0.75626871
0.75436979
0.75340901
0.7531379
0.71442722
0.84658296
0.93336629
1.009833
1.0833673
1.1410446
1.141066
1.1443841
1.1374668
1.1386886
1.1327789
1.1310841
1.1254327
1.1209501
1.1143116
1.1069704
1.098026
1.0872848
1.0746954
1.0596164
1.0421231
1.0217542
0.99873944
0.97331992
0.94649809
0.9195771
0.89407948
0.87118381
0.8515625
0.83530134
0.82203874
0.81125802
0.80246726
0.79507884
0.78882286
0.78374547
0.77951024
0.77588192
0.77274273
0.77002268
0.76761428
0.76544546
0.76339288
0.76155725
0.76005002
0.75839677
0.755974
0.75420109
0.75332715
0.75310397
0.71259392
0.84562745
0.93315363
1.0103003
1.0846089
1.1389873
1.1367524
1.1400351
1.1330468
1.1341613
1.1281667
1.126298
1.1205206
1.1157878
1.1089387
1.1012663
1.0919907
1.0808194
1.0677502
1.0521089
1.0339874
1.0129521
0.98928736
0.96335513
0.93629038
0.90950335
0.88452517
0.86246273
0.84387075
0.82871578
0.81653933
0.80676916
0.79887965
0.79224812
0.78661097
0.78205211
0.77823744
0.77492815
0.77202498
0.76947807
0.76719203
0.76510612
0.76311817
0.76135979
0.75989995
0.75817501
0.75568776
0.75404251
0.75325231
0.75307324
0.71081889
0.84475578
0.93306114
1.0109151
1.0858273
1.1364884
1.1323578
1.1356021
1.1285421
1.1295316
1.123447
1.1213844
1.1154698
1.110468
1.1033948
1.0953768
1.0857529
1.074133
1.0605577
1.0443274
1.0255497
1.0038284
0.97951444
0.95310485
0.92587066
0.89931416
0.87495283
0.85380229
0.83629045
0.82226312
0.81117035
0.80239318
0.79537997
0.78947756
0.78443529
0.78037851
0.77697359
0.77397499
0.77130216
0.76892502
0.76675938
0.76475654
0.76283831
0.76116158
0.75973388
0.75791
0.75541843
0.75389575
0.75318395
0.75304617
0.70908771
0.84394493
0.933082
1.0116854
1.0869319
1.1334883
1.1278566
1.1310688
1.1239364
1.1247829
1.1186019
1.1163264
1.1102665
1.1049823
1.0976747
1.089299
1.0793081
1.0672183
1.0531077
1.0362597
1.016798
0.99437442
0.96941979
0.94258018
0.91526175
0.88904014
0.86539527
0.84523351
0.82884828
0.81596508
0.80594934
0.79814479
0.79198059
0.78677783
0.78230515
0.77873274
0.77572558
0.77302797
0.77057851
0.76836672
0.76631871
0.76439906
0.76255605
0.76096397
0.75955009
0.75759942
0.75517164
0.75376123
0.75312206
0.75302284
0.70739364
0.84317464
0.93319317
1.0126285
1.0878479
1.1299621
1.1232493
1.1264199
1.1192097
1.1198956
1.1136159
1.1111134
1.1049058
1.0993295
1.091778
1.0830303
1.0726499
1.0600653
1.0453874
1.0278922
1.0077193
0.98458107
0.95900345
0.93179389
0.90448794
0.8787124
0.85588492
0.83678617
0.82156872
0.8098404
0.80089053
0.79403594
0.78869142
0.78415763
0.78022824
0.77712161
0.77449926
0.772092
0.76985787
0.76780607
0.7658723
0.76403602
0.7622739
0.76076757
0.75934868
0.75725651
0.75494337
0.75363802
0.75306665
0.75300313
0.70572866
0.84242506
0.93336488
1.0137555
1.0884866
1.1258767
1.1185125
1.1216351
1.1143438
1.1148581
1.1084852
1.1057477
1.0993916
1.0935126
1.0857037
1.0765658
1.0657689
1.0526614
1.0373829
1.0192103
0.99830083
0.9744415
0.94827
0.92076432
0.89357895
0.86836635
0.8464572
0.8284911
0.81447553
0.80390596
0.79600591
0.79007681
0.7855209
0.78162441
0.77821086
0.77555104
0.77329962
0.77117149
0.76914368
0.7672457
0.76542224
0.76366967
0.76199387
0.76057185
0.75913031
0.75690124
0.7547258
0.75352504
0.75301693
0.75298687
0.7040393
0.84166278
0.93355882
1.0150633
1.0887422
1.1214055
1.1136308
1.1167108
1.1093435
1.1096804
1.1032213
1.1002385
1.0937287
1.0875315
1.0794463
1.0698959
1.058652
1.0449918
1.0290786
1.0101988
0.98852957
0.96394972
0.93722574
0.90951219
0.88256617
0.85803819
0.83714708
0.82037679
0.80758884
0.79817496
0.79130448
0.78627501
0.78247587
0.77918398
0.77625752
0.77402589
0.77213079
0.77027026
0.76843893
0.76668793
0.76497054
0.76330226
0.76171734
0.76037468
0.75889425
0.75654473
0.75451891
0.75342183
0.75297258
0.75297388
0.70236392
0.84091489
0.93380082
1.016613
1.0885864
1.1172037
1.1086177
1.1116683
1.1042317
1.1043809
1.097834
1.0945888
1.0879141
1.0813793
1.072995
1.0630073
1.0512841
1.0370407
1.0204585
1.0008421
0.97839375
0.95310305
0.92588298
0.89806448
0.87148687
0.84776819
0.82799093
0.81246994
0.80092555
0.79265827
0.7867946
0.78263653
0.7795624
0.77684059
0.77437138
0.77255031
0.77099675
0.76939147
0.76774622
0.76613484
0.76451911
0.76293595
0.76144507
0.76017223
0.75863722
0.75619546
0.75432437
0.75332837
0.75293236
0.752964
0.70070306
0.84018576
0.93407602
1.0184051
1.0879514
1.1125216
1.1035165
1.1065278
1.0990152
1.09896
1.0923187
1.0887912
1.0819377
1.0750444
1.0663358
1.0558849
1.043649
1.0287914
1.011506
0.99112376
0.96788161
0.94190058
0.9142567
0.88645097
0.86037999
0.83759631
0.81902101
0.80479022
0.7944967
0.78736391
0.78248494
0.77916548
0.77678491
0.77459581
0.77255456
0.77112738
0.76990178
0.76853754
0.76706771
0.7655882
0.76406982
0.76257293
0.7611773
0.7599595
0.75835273
0.75586091
0.75414441
0.75324484
0.752895
0.75295734
0.69911041
0.8395187
0.93440702
1.0204566
1.0867859
1.1076881
1.0983206
1.1012778
1.0936794
1.0934023
1.0866638
1.0828342
1.075787
1.0685127
1.0594532
1.0485129
1.0357304
1.020227
1.0022036
0.98102782
0.95698383
0.93034688
0.90236906
0.87470868
0.84928968
0.82756375
0.81026471
0.79735069
0.78831065
0.78230044
0.77838653
0.7758658
0.7741455
0.77244833
0.77080973
0.76975914
0.7688506
0.76771022
0.76640512
0.7650496
0.7636245
0.76221534
0.760914
0.75973149
0.75803208
0.75554958
0.75398057
0.75317107
0.75286327
0.75295461
0.69755586
0.83889144
0.93475648
1.0227061
1.085024
1.102588
1.0930055
1.0959024
1.0882157
1.0877
1.0808584
1.076706
1.0694477
1.0617694
1.0523314
1.0408756
1.0275116
1.0113297
0.99253275
0.97053764
0.94569204
0.91844975
0.89024584
0.86287775
0.83826027
0.81770631
0.80173836
0.79015799
0.78237663
0.77747889
0.77450933
0.77274184
0.77164151
0.77039455
0.76914087
0.76844672
0.76784653
0.76691107
0.7657598
0.76452039
0.76318501
0.76186531
0.76065512
0.75948504
0.75767082
0.75526764
0.75383256
0.75310665
0.75283817
0.75295637
0.69599499
0.83829884
0.93512703
1.0250928
1.0826233
1.0974183
1.0875773
1.0904018
1.0826213
1.0818441
1.0748893
1.0703916
1.0629044
1.0548
1.0449555
1.0329573
1.0189753
1.0020802
0.98247403
0.95963742
0.93400248
0.90622409
0.87792144
0.85100494
0.82733803
0.80805342
0.79345061
0.78322377
0.77671371
0.77291566
0.7708556
0.76979879
0.76926503
0.76843292
0.76755253
0.76719178
0.76688809
0.76614215
0.7651327
0.7640017
0.76275315
0.76152478
0.76040066
0.7592203
0.7572798
0.75501085
0.75369815
0.75305061
0.75281955
0.75296423
0.69445246
0.83775519
0.93557126
1.0275795
1.0795694
1.0920865
1.0820309
1.0847636
1.0768776
1.0758206
1.0687416
1.0638764
1.0561435
1.0475915
1.0373106
1.0247415
1.0101028
0.99245763
0.97200677
0.94831175
0.92191439
0.89368952
0.86543472
0.83913831
0.81656374
0.7986222
0.78540997
0.77657668
0.77134945
0.76862369
0.76741651
0.76703813
0.76700504
0.76656953
0.76604557
0.76599849
0.76596629
0.76540626
0.76452443
0.76349448
0.76233064
0.76119537
0.76015045
0.75893989
0.75687918
0.75476934
0.753575
0.75300175
0.75280569
0.75297672
0.69290769
0.8372611
0.93609529
1.0300312
1.0757919
1.08659
1.076345
1.0789628
1.070964
1.0696135
1.0624029
1.0571499
1.0491531
1.0401317
1.029381
1.0162099
1.0008727
0.98243893
0.96110959
0.93654846
0.90943372
0.8808751
0.85283287
0.82732912
0.80597214
0.78942285
0.77764612
0.77025919
0.76630862
0.76460145
0.76417846
0.76445312
0.76485655
0.76481508
0.76461665
0.7648735
0.76506906
0.7647055
0.76393534
0.7629995
0.76191912
0.76087817
0.75990339
0.75864622
0.75648203
0.75454129
0.75346213
0.75295876
0.75279575
0.7529919
0.69129888
0.83677896
0.93671885
1.0323117
1.0712711
1.0809085
1.0704974
1.0729842
1.0648723
1.0632125
1.0558652
1.050204
1.0419214
1.0324059
1.0211486
1.0073412
0.99126177
0.97199914
0.94976094
0.92433766
0.89657175
0.86781553
0.84016606
0.81562421
0.79558589
0.78046887
0.7702124
0.76430778
0.7615965
0.76082294
0.76113188
0.76202591
0.76283064
0.76316538
0.76326658
0.76381941
0.76419574
0.7640381
0.76336565
0.7625175
0.76152005
0.76057352
0.7596568
0.75833919
0.75609794
0.75432888
0.75335998
0.75292195
0.75279034
0.75300824
0.68957314
0.83629555
0.93746522
1.0342948
1.0663618
1.0750411
1.0644853
1.0668272
1.0586039
1.0566159
1.0491224
1.0430282
1.034433
1.0243972
1.0125927
0.99811151
0.98124369
0.96111188
0.93794088
0.91167569
0.88334957
0.85455586
0.82748974
0.80406639
0.78542126
0.77180397
0.76316514
0.75874491
0.75718407
0.7572626
0.7582791
0.75974185
0.76093799
0.76160877
0.76199668
0.76283017
0.76336182
0.76339641
0.76281574
0.76204922
0.76113469
0.76028092
0.75940616
0.7580143
0.75573571
0.75413559
0.7532701
0.75289086
0.75278662
0.75302507
0.68775932
0.83583973
0.93837686
1.0358959
1.0612956
1.069015
1.0583195
1.0604966
1.0521571
1.0498151
1.0421622
1.0356071
1.0266692
1.0160854
1.0036896
0.98849377
0.97078999
0.94974983
0.92563146
0.89856413
0.86979576
0.84114621
0.81485733
0.79268767
0.77549655
0.7634996
0.75654697
0.75355706
0.75302638
0.75392734
0.75561977
0.75759959
0.75917198
0.76014309
0.76080015
0.76189775
0.76258365
0.76277142
0.76228655
0.76159552
0.76076407
0.75999908
0.75914598
0.75766275
0.75540501
0.75396413
0.75319369
0.75286598
0.75278516
0.75304187
0.68592042
0.8354336
0.93948123
1.0370348
1.0557317
1.0628386
1.0519946
1.0539798
1.0455171
1.0427931
1.034965
1.0279232
1.0186093
1.007448
0.99441266
0.97845766
0.95986999
0.93788633
0.9128195
0.88501459
0.85595042
0.82764519
0.80232079
0.78151351
0.76586019
0.75562603
0.75038043
0.74869
0.74911852
0.7508237
0.75314596
0.75559832
0.75752521
0.7587638
0.75967311
0.76102074
0.7618616
0.76216089
0.76177967
0.76115723
0.76040892
0.7597261
0.75887198
0.75727875
0.75511339
0.75381437
0.75313008
0.75284776
0.75278759
0.75305849
0.68407426
0.83506282
0.94075725
1.0375971
1.049843
1.0564915
1.0454913
1.0472549
1.0386654
1.0355315
1.0275099
1.0199593
1.010231
0.99845823
0.9847309
0.96796987
0.94845169
0.9254957
0.89949664
0.87104642
0.841861
0.81411169
0.78992361
0.77056639
0.7565935
0.74823472
0.74463737
0.74410309
0.74547877
0.74794323
0.75085052
0.75373474
0.75599023
0.75746758
0.75861517
0.76020118
0.76118353
0.76156746
0.76129648
0.76073508
0.76006964
0.75946
0.75858357
0.75687495
0.75485562
0.75368278
0.75307657
0.75283517
0.7527944
0.753075
0.68225442
0.83476084
0.94216766
1.0373134
1.0435888
1.0499591
1.0387949
1.0403019
1.0315851
1.0280144
1.0197797
1.0116958
1.001508
0.98908411
0.97460954
0.95699479
0.9365029
0.91255569
0.88566333
0.85669147
0.82758541
0.80060581
0.77770368
0.75989144
0.74778448
0.74135347
0.73924965
0.73980906
0.74210469
0.74527889
0.74872555
0.75200435
0.75456012
0.75625109
0.75762665
0.75943728
0.76054309
0.76099298
0.7608366
0.76032962
0.75974631
0.75919924
0.7582836
0.75647282
0.75461894
0.75356568
0.75303104
0.75282529
0.752804
0.75309281
0.68052367
0.83459848
0.94368173
1.0360328
1.0370398
1.0432161
1.031886
1.0331052
1.0242643
1.0202277
1.0117561
1.0031061
0.99240693
0.97928848
0.96401126
0.94549611
0.92399198
0.89904837
0.87132807
0.84199109
0.813185
0.78718085
0.76569097
0.74957277
0.73950026
0.73495606
0.7341774
0.73582324
0.73898824
0.74282102
0.74676303
0.7504017
0.7532278
0.7551112
0.75670597
0.75872408
0.75993749
0.76044341
0.76039575
0.75994121
0.75943855
0.75894294
0.75797469
0.7560817
0.75440005
0.75346166
0.75299441
0.75281916
0.75281621
0.75311371
0.6789136
0.83462508
0.94520074
1.033895
1.0302128
1.0362477
1.0247576
1.0256581
1.0166925
1.0121534
1.0034083
0.99415464
0.98288865
0.96903181
0.95289799
0.933437
0.91088971
0.88496293
0.85651263
0.82699948
0.7987265
0.77388633
0.75392518
0.73971956
0.73178093
0.72896924
0.72943646
0.73214265
0.73611963
0.74056006
0.74495488
0.74892081
0.75198657
0.75404463
0.75584933
0.75805548
0.75936558
0.75992755
0.75996741
0.7595703
0.75914533
0.75869033
0.75765592
0.75570949
0.75419887
0.75336982
0.75296709
0.75281877
0.75283271
0.75313697
0.67740389
0.83485871
0.94652016
1.0308438
1.0230919
1.0290664
1.0174146
1.0179456
1.0088438
1.0037569
0.99469421
0.98480037
0.97291255
0.95827443
0.94123125
0.9207808
0.89716928
0.87029648
0.84124935
0.81177817
0.78427268
0.76076442
0.74248531
0.73042002
0.72461601
0.72334139
0.72504535
0.72875736
0.73348755
0.73848554
0.7432926
0.74755441
0.75083054
0.75304779
0.75505179
0.75742678
0.75882555
0.75944787
0.75954985
0.75921762
0.75886485
0.75843212
0.75732102
0.75536558
0.75401824
0.75328966
0.75294597
0.75282393
0.75285445
0.75316203
0.67598977
0.83533505
0.94774344
1.0268362
1.0157195
1.0216513
1.0098272
1.0099288
1.0006717
0.99499123
0.98557145
0.97500379
0.9624397
0.94697647
0.92897134
0.90749103
0.88280912
0.85505815
0.82558556
0.79639756
0.76988557
0.74786025
0.73149154
0.72173185
0.71793645
0.71808048
0.72100364
0.72565578
0.73108011
0.73658705
0.74176764
0.74629484
0.74975442
0.75211689
0.75430888
0.75683664
0.75831709
0.75899745
0.75914564
0.75888415
0.75859432
0.75816712
0.75696203
0.75505883
0.75386088
0.75322232
0.75293041
0.75283501
0.75287898
0.75318855
0.67477864
0.83618272
0.9486408
1.0217345
1.008045
1.0139428
1.0019386
1.0015539
0.99212734
0.9858155
0.9760037
0.96472942
0.95143098
0.93509593
0.91607704
0.89353222
0.8677941
0.83926886
0.80957864
0.7809284
0.7556212
0.73524127
0.72105651
0.71367322
0.71166925
0.71321266
0.71729971
0.72282435
0.72888456
0.73485373
0.74037117
0.7451345
0.74875292
0.75124813
0.75361727
0.75628518
0.7578402
0.75857008
0.75875504
0.75857113
0.75833159
0.75788753
0.75657957
0.75479166
0.75372672
0.75316938
0.75292269
0.75284879
0.75290609
0.75321574
0.67360947
0.83738118
0.9490434
1.015444
1.0000391
1.0058745
0.99369668
0.99277653
0.98317761
0.97620167
0.96595728
0.95393972
0.93984388
0.92258731
0.90250544
0.87887205
0.85212009
0.82296574
0.7932991
0.76544294
0.74153604
0.72302539
0.71126728
0.70619159
0.70580478
0.70874356
0.71392032
0.72024888
0.72688817
0.73327497
0.73909452
0.74406608
0.74782105
0.75043791
0.75297453
0.75577105
0.75739197
0.75816373
0.75837925
0.758278
0.75807552
0.75760202
0.75619091
0.75455546
0.75361219
0.75312953
0.75292319
0.75286808
0.75293482
0.75324284
0.67238167
0.83892193
0.94872597
1.0081508
0.99163776
0.9973975
0.98507555
0.98358367
0.97380573
0.96612444
0.95539129
0.94258952
0.92763115
0.9094019
0.88821299
0.86348309
0.83579476
0.80619923
0.77682237
0.75000936
0.72769222
0.71135531
0.70217188
0.69919173
0.70037805
0.70466012
0.71084968
0.71791414
0.7250778
0.73184
0.73792895
0.7430824
0.74695394
0.74968276
0.75237791
0.75529101
0.7569693
0.75777911
0.75802265
0.75800023
0.75782583
0.75730834
0.75581494
0.75434213
0.75351362
0.75309925
0.75292809
0.75289002
0.75296474
0.75326972
0.670955
0.84081241
0.94748092
1.0010037
0.98287471
0.98852526
0.97608784
0.97396895
0.96398537
0.95554447
0.94425485
0.93062688
0.91474134
0.89548869
0.87315696
0.84734692
0.8188424
0.78903639
0.76022994
0.7346988
0.71419873
0.70035108
0.6937468
0.69263888
0.69540339
0.70094781
0.70807117
0.71580486
0.72344058
0.73053841
0.73686603
0.7421767
0.74614701
0.74897923
0.75182375
0.75484063
0.75656904
0.75741789
0.75769242
0.75772981
0.75758077
0.75701152
0.75546074
0.75415226
0.75342948
0.75307595
0.75293535
0.75291396
0.75299584
0.75329643
0.66940767
0.8431743
0.94524255
0.99322333
0.97380886
0.97926615
0.96670624
0.96388705
0.95365357
0.94441112
0.93249416
0.91799625
0.90112107
0.88079478
0.85729741
0.83045641
0.80130324
0.77155438
0.74360191
0.71958363
0.70120894
0.6900869
0.685899
0.68656692
0.69086884
0.69758836
0.70556669
0.71390522
0.72196349
0.72935979
0.73589738
0.7413424
0.74539579
0.74832361
0.75130752
0.75441634
0.7561897
0.7570799
0.75739011
0.75746284
0.7573365
0.7567072
0.75513639
0.75398808
0.75336243
0.75306338
0.75294741
0.75294049
0.75302822
0.7533229
0.66759561
0.84595177
0.94187872
0.98456281
0.96440366
0.96953566
0.95686435
0.9532676
0.94274598
0.93266838
0.92005372
0.90464073
0.88671197
0.86526473
0.84060042
0.81282075
0.78323706
0.75384108
0.72702305
0.70476193
0.68887726
0.6805806
0.67856574
0.68099913
0.68675886
0.69456252
0.70331807
0.71219975
0.72063401
0.72829419
0.73501502
0.74057337
0.74469602
0.74771203
0.7508246
0.75401671
0.75583251
0.75676452
0.75710851
0.75720062
0.75708735
0.75638543
0.7548502
0.75385053
0.75331285
0.75306235
0.75296811
0.75297043
0.7530618
0.75334918
0.66558102
0.84898086
0.93728467
0.97538065
0.95457096
0.95926141
0.94648948
0.9420542
0.93120931
0.92026117
0.90687714
0.89049729
0.8714502
0.84884346
0.82304298
0.79446774
0.76471931
0.73598684
0.71057985
0.69038422
0.67731957
0.67176436
0.67175437
0.67593424
0.68305266
0.69184916
0.70130647
0.71067285
0.71943976
0.72733181
0.73421119
0.73986371
0.74404356
0.74714055
0.75037132
0.75364198
0.755499
0.75646993
0.75684097
0.75694291
0.75682887
0.75604369
0.75460763
0.75373689
0.75327514
0.75306662
0.75299255
0.75300361
0.75309689
0.75337551
0.6632786
0.85200267
0.93141941
0.9655123
0.94425446
0.94839218
0.93553274
0.93020173
0.91899337
0.9071355
0.89289787
0.87549196
0.85526516
0.83148007
0.8046186
0.77544889
0.74584198
0.71808993
0.69437312
0.67663833
0.66659626
0.66354498
0.6655045
0.67135478
0.67972835
0.68942694
0.69951351
0.70930964
0.71836899
0.72646345
0.73347861
0.73920797
0.74343442
0.74660557
0.74994573
0.75329281
0.75518887
0.75619349
0.75658389
0.75668914
0.75656211
0.75570192
0.75440052
0.75364127
0.75324547
0.7530737
0.75301939
0.75303887
0.75313345
0.75340283
0.66072917
0.85470882
0.92443115
0.95501624
0.93343437
0.9368926
0.92395141
0.91766189
0.90603508
0.89322113
0.87803466
0.85953907
0.8380844
0.81313478
0.7853423
0.75583623
0.72670584
0.70025383
0.67854931
0.66368098
0.65667571
0.65589928
0.659827
0.66723809
0.67676121
0.68727352
0.6979206
0.70809531
0.71741017
0.72568007
0.7328102
0.73860089
0.7428647
0.74610383
0.74954707
0.75296908
0.75489991
0.75593121
0.75633454
0.75643836
0.75629631
0.75537766
0.75421679
0.75355954
0.7532229
0.75308238
0.75304587
0.75307305
0.75316974
0.75343514
0.65793751
0.85710156
0.91635262
0.94380669
0.92206207
0.92470559
0.91168401
0.90437582
0.89224468
0.878424
0.86219071
0.84254572
0.81984106
0.79378665
0.76525651
0.73572467
0.70742303
0.68259648
0.6633127
0.6516168
0.64745407
0.64887585
0.65470335
0.66355892
0.67412606
0.68536699
0.69650989
0.70701586
0.71655245
0.72497321
0.73219935
0.73803755
0.74233072
0.74563267
0.74917519
0.75266951
0.75462935
0.75568031
0.75609149
0.75619046
0.75603338
0.7550772
0.75405469
0.75349036
0.75320737
0.75309268
0.75307058
0.75310319
0.75320205
0.75347541
0.6545214
0.85921474
0.90725312
0.93186816
0.91007715
0.91176315
0.89865655
0.89025785
0.87751113
0.86262775
0.84525928
0.82442215
0.80048248
0.77344029
0.74442975
0.7152245
0.68811403
0.66526273
0.64886402
0.64045624
0.63888103
0.64249655
0.65010985
0.66028867
0.67179646
0.68368524
0.69526376
0.70605762
0.71578533
0.72433468
0.73163972
0.73751323
0.74182903
0.74518985
0.74882976
0.75239185
0.75437395
0.7554382
0.7558541
0.75594615
0.75576466
0.75480231
0.7539147
0.75343448
0.75319909
0.75310654
0.75309516
0.75313226
0.75323275
0.75351524
0.65029225
0.86084538
0.89713708
0.91912496
0.89740494
0.89797949
0.88475953
0.87518882
0.86170413
0.84570748
0.82713511
0.80508883
0.77997743
0.75212984
0.72295776
0.69446116
0.66891639
0.64846393
0.63535516
0.63011448
0.63099474
0.63675043
0.64601781
0.65739785
0.66974646
0.68220709
0.6941656
0.70520783
0.715099
0.72375686
0.73112543
0.7370236
0.74135656
0.74477359
0.74850996
0.75213341
0.754131
0.75520297
0.75562101
0.75570432
0.75549695
0.75455674
0.75379768
0.75339288
0.75319844
0.75312469
0.75312153
0.75316271
0.75326394
0.75355161
0.64504881
0.86171758
0.88599098
0.90549725
0.88393577
0.8832316
0.86984249
0.85901991
0.84468701
0.82754255
0.80772388
0.78448564
0.75832188
0.72992015
0.70095795
0.67357194
0.64998778
0.63244368
0.62284183
0.62051822
0.6238302
0.63161183
0.64239454
0.65485535
0.66794984
0.68091162
0.6931992
0.70445414
0.71448402
0.72323242
0.73065083
0.7365646
0.74091059
0.74438239
0.74821441
0.75189145
0.75389817
0.75497274
0.7553903
0.75546386
0.75522713
0.7543466
0.75370242
0.75336292
0.75320358
0.75314549
0.75314999
0.75319458
0.75329577
0.75358471
0.63866427
0.86154539
0.87360632
0.89082618
0.86951271
0.86736327
0.85373374
0.84160958
0.82633016
0.80802497
0.78694706
0.76257226
0.73554102
0.70690737
0.67856991
0.65271764
0.63155305
0.61740307
0.61127272
0.61168207
0.6173887
0.62704861
0.63920547
0.6526303
0.66638133
0.67977903
0.6923494
0.70378506
0.71393157
0.7227545
0.73021071
0.73613248
0.74048874
0.74401489
0.74794149
0.75166321
0.7536732
0.75474545
0.75516008
0.75522377
0.75495607
0.75417022
0.7536245
0.7533408
0.75321186
0.75316937
0.75318026
0.75322738
0.75332787
0.75361563
0.63124561
0.86038829
0.85980018
0.87492528
0.85394459
0.85021115
0.83626365
0.82284937
0.80653154
0.78705727
0.76473591