/*--------------------------------*- C++ -*----------------------------------*\
  =========                 |
  \\      /  F ield         | OpenFOAM: The Open Source CFD Toolbox
   \\    /   O peration     | Website:  https://openfoam.org
    \\  /    A nd           | Version:  8
     \\/     M anipulation  |
\*---------------------------------------------------------------------------*/
FoamFile
{
    version     2.0;
    format      ascii;
    class       surfaceScalarField;
    location    "0.149996";
    object      meshPhi;
}
// * * * * * * * * * * * * * * * * * * * * * * * * * * * * * * * * * * * * * //

dimensions      [0 3 -1 0 0 0 0];

internalField   nonuniform List<scalar> 
39600
(
7.2341851e-05
4.6444119e-06
-4.7388084e-06
7.2454438e-05
5.560872e-06
-5.6645604e-06
7.2594539e-05
6.6620826e-06
-6.7862634e-06
7.2765042e-05
7.9811657e-06
-8.1299491e-06
7.2972789e-05
9.5610249e-06
-9.7394229e-06
7.3224893e-05
1.1453315e-05
-1.1667121e-05
7.352583e-05
1.3719514e-05
-1.3975681e-05
7.388726e-05
1.6432953e-05
-1.6739898e-05
7.4316504e-05
1.9681319e-05
-2.0048996e-05
7.4835342e-05
2.3569063e-05
-2.4009213e-05
7.5464745e-05
2.8219962e-05
-2.8746735e-05
7.6233123e-05
3.3780791e-05
-3.4411053e-05
7.7161882e-05
4.0423773e-05
-4.1178043e-05
7.8285149e-05
4.835039e-05
-4.9253249e-05
7.9663404e-05
5.7792758e-05
-5.887447e-05
8.1338175e-05
6.9014704e-05
-7.0312368e-05
8.3176289e-05
8.2315425e-05
-8.3872005e-05
8.5063692e-05
9.8031282e-05
-9.9901039e-05
8.7158046e-05
0.00011652473
-0.000118777
8.9778138e-05
0.00013817139
-0.00014089656
9.3329785e-05
0.00016336867
-0.00016667961
9.8266536e-05
0.00019241523
-0.00019644557
0.00010500965
0.00022564113
-0.00023057738
0.00011466466
0.00026306688
-0.0002691314
0.00012743182
0.00030487905
-0.00031237571
0.00014598718
0.00035150924
-0.00036086585
0.00017109328
0.00040309813
-0.00041501726
0.00020882125
0.00045720166
-0.00047251621
0.0002501969
0.00051427349
-0.00053366522
0.00029160191
0.00057633463
-0.00059995843
0.00033958991
0.00064008558
-0.00066859143
0.00039353746
0.00070840975
-0.00074320768
0.00045819163
0.00078129587
-0.00082361981
0.00052522961
0.00087044902
-0.0009221401
0.00059917158
0.00098517721
-0.0010481124
0.00067536925
0.0011308997
-0.0012069174
0.00076857345
0.0013104287
-0.0014008183
0.0008817241
0.001494365
-0.0015999089
0.0010042924
0.001680966
-0.0018032763
0.0011572748
0.0019351391
-0.0020795861
0.0013288904
0.0022990007
-0.0024708903
0.0013199897
0.0026879109
-0.0028695391
0.0012006552
0.0030519819
-0.0032163966
0.0011735997
0.0035569262
-0.0037098015
0.0010684152
0.0043173993
-0.0044610304
0.0010166527
0.0051804495
-0.0053170988
0.00048958106
0.0060433677
-0.0061494273
-0.0005558336
0.0067898137
-0.0068028612
-0.0017009905
0.0071434789
-0.0071100994
0.0038839443
-0.0038961167
5.8113918e-05
4.575855e-06
5.8209568e-05
5.4787909e-06
5.8329245e-05
6.563728e-06
5.8474689e-05
7.8633303e-06
5.8651288e-05
9.4201237e-06
5.8865676e-05
1.1284561e-05
5.9123573e-05
1.3517594e-05
5.9435616e-05
1.6191286e-05
5.9808453e-05
1.9392283e-05
6.0258472e-05
2.3223219e-05
6.0798996e-05
2.7806263e-05
6.1448241e-05
3.328558e-05
6.2231432e-05
3.9830862e-05
6.3182346e-05
4.7639852e-05
6.4389079e-05
5.6938779e-05
6.5869967e-05
6.7988474e-05
6.7478692e-05
8.1086531e-05
6.9109147e-05
9.6559344e-05
7.0889141e-05
0.00011475243
7.3163559e-05
0.00013602239
7.6338517e-05
0.00016073845
8.0850623e-05
0.00018919489
8.7120312e-05
0.000221669
9.6160672e-05
0.00025814706
0.000108141
0.00029877391
0.00012542721
0.00034381785
0.00014974531
0.00039304731
0.00018559896
0.00044407501
0.00022376789
0.00049788954
0.00026220813
0.00055654002
0.00030816066
0.00061628237
0.00036060366
0.00067900515
0.00042343415
0.00074521734
0.00048951636
0.00082587519
0.00056301234
0.0009299696
0.00063903263
0.0010637752
0.00073044739
0.0012293072
0.00084368189
0.0013973838
0.00096825463
0.0015671736
0.001118493
0.0018003779
0.0012846578
0.0021367713
0.0012922088
0.0025114265
0.001183034
0.0028884695
0.0011615594
0.0034067284
0.0010655594
0.0041726118
0.00098188489
0.0050421261
0.00049247426
0.0059313909
-0.00050410611
0.0067532284
-0.0016445009
0.0071429657
0.0038549802
4.5067031e-05
4.5243034e-06
4.532687e-05
5.4164575e-06
4.5595146e-05
6.4883966e-06
4.5840977e-05
7.7724469e-06
4.6063183e-05
9.3107374e-06
4.6275808e-05
1.1153372e-05
4.649327e-05
1.3360557e-05
4.6726733e-05
1.6003829e-05
4.6985235e-05
1.9168886e-05
4.7285125e-05
2.2957414e-05
4.7635721e-05
2.749031e-05
4.8061579e-05
3.2909764e-05
4.8591311e-05
3.9383424e-05
4.9284238e-05
4.7105091e-05
5.0226102e-05
5.6297178e-05
5.1409533e-05
6.721952e-05
5.2729998e-05
8.0166791e-05
5.4082822e-05
9.5459602e-05
5.5575564e-05
0.00011342705
5.7536595e-05
0.00013440557
6.0333091e-05
0.00015874507
6.4389048e-05
0.00018673
7.0141485e-05
0.00021859578
7.8521367e-05
0.00025429101
8.9655836e-05
0.00029392888
0.00010569706
0.00033762837
0.00012927502
0.00038474991
0.00016320288
0.00043308701
0.00019792954
0.00048424705
0.00023316927
0.00054020296
0.00027674686
0.00059658716
0.00032746055
0.00065434608
0.00038810954
0.00071451328
0.00045311124
0.00078731493
0.0005255536
0.00088140881
0.00060072485
0.0010038159
0.00069028352
0.0011560613
0.00080339311
0.0013089699
0.00092923531
0.0014620509
0.0010765966
0.0016745555
0.0012370077
0.001984836
0.0012560861
0.0023441017
0.0011613078
0.0027296345
0.0011450285
0.0032585931
0.0010595353
0.004027711
0.00095045898
0.0049065617
0.00049188791
0.0058234794
-0.00045774955
0.0067089512
-0.0015837022
0.0071373254
0.0038323954
3.2644783e-05
4.4901207e-06
3.2904431e-05
5.3761045e-06
3.3186911e-05
6.4406007e-06
3.3466618e-05
7.7156325e-06
3.3735682e-05
9.2428259e-06
3.3997739e-05
1.1071891e-05
3.4254609e-05
1.3262312e-05
3.4499299e-05
1.5885338e-05
3.4730402e-05
1.9025931e-05
3.4949318e-05
2.278509e-05
3.5167587e-05
2.7283123e-05
3.5411682e-05
3.2661069e-05
3.5717598e-05
3.9085367e-05
3.61659e-05
4.6747497e-05
3.6823332e-05
5.5867888e-05
3.7700723e-05
6.670517e-05
3.8706572e-05
7.9553551e-05
3.9763273e-05
9.4727734e-05
4.0995476e-05
0.00011254012
4.2656146e-05
0.00013331474
4.5092354e-05
0.00015738435
4.8716566e-05
0.00018501939
5.3974643e-05
0.00021642118
6.1752456e-05
0.00025149547
7.2089896e-05
0.00029033069
8.7096467e-05
0.00033290409
0.00010996806
0.00037816646
0.00014204496
0.00042417484
0.00017363602
0.00047323207
0.00020588299
0.00052713791
0.00024727832
0.00058070196
0.0002962932
0.00063405984
0.00035489513
0.00068874137
0.00041877429
0.00075426744
0.00049011732
0.00083894949
0.00056438582
0.00095040988
0.00065209641
0.0010900542
0.00076465552
0.0012286266
0.00089103591
0.0013654197
0.0010356581
0.0015576932
0.0011909331
0.0018431005
0.001219122
0.0021863884
0.0011380163
0.0025768476
0.0011271284
0.0031136287
0.0010507404
0.0038839997
0.00092531134
0.0047731991
0.00049133173
0.0057177124
-0.00042081556
0.006659144
-0.0015253783
0.0071276821
0.003814197
2.0806143e-05
4.4719595e-06
2.0883132e-05
5.3545288e-06
2.1002573e-05
6.4149842e-06
2.1171273e-05
7.6852554e-06
2.138256e-05
9.2066701e-06
2.1624995e-05
1.1028869e-05
2.1886591e-05
1.3211122e-05
2.2147212e-05
1.5824336e-05
2.2398126e-05
1.8953079e-05
2.2623533e-05
2.2697968e-05
2.2831466e-05
2.7178605e-05
2.3029856e-05
3.2535409e-05
2.3249198e-05
3.8934239e-05
2.3551338e-05
4.6565641e-05
2.4004163e-05
5.5648895e-05
2.4616457e-05
6.6443168e-05
2.5330867e-05
7.9242601e-05
2.6127984e-05
9.4355725e-05
2.7100349e-05
0.00011208612
2.8462977e-05
0.00013274613
3.0547634e-05
0.00015665204
3.375486e-05
0.0001840578
3.8542048e-05
0.00021513383
4.576122e-05
0.00024974022
5.5366089e-05
0.00028794603
6.9513901e-05
0.00032959725
9.167212e-05
0.00037322503
0.00012191361
0.00041723082
0.00015064415
0.00046470146
0.00018015243
0.00051715649
0.00021954366
0.00056843485
0.00026689757
0.00061793171
0.00032356115
0.00066769236
0.00038628063
0.0007265286
0.00045648927
0.00080238334
0.0005298229
0.00090339862
0.00061567144
0.0010310766
0.00072725173
0.0011560846
0.00085345062
0.0012771876
0.00099544659
0.0014499239
0.0011460521
0.001711543
0.0011817906
0.0020385036
0.0011135427
0.0024309349
0.0011081314
0.0029728823
0.0010399802
0.0037426598
0.00090429534
0.0046421078
0.00049046354
0.0056135279
-0.00039053337
0.0066062537
-0.0014699623
0.0071159555
0.0037993092
9.8847849e-06
4.4692174e-06
9.9529476e-06
5.3509541e-06
1.0055768e-05
6.4104507e-06
1.0187967e-05
7.6796055e-06
1.0337526e-05
9.1998942e-06
1.0495148e-05
1.1021033e-05
1.0651799e-05
1.3202411e-05
1.0797462e-05
1.5814966e-05
1.0931688e-05
1.89433e-05
1.1046128e-05
2.2687961e-05
1.1151713e-05
2.716841e-05
1.1251945e-05
3.2524865e-05
1.1367866e-05
3.8922818e-05
1.1538308e-05
4.6552664e-05
1.1804318e-05
5.5633822e-05
1.2179404e-05
6.642643e-05
1.2637475e-05
7.9225428e-05
1.3179603e-05
9.4336874e-05
1.3886123e-05
0.00011205847
1.4948467e-05
0.00013269193
1.6686416e-05
0.00015653899
1.9491471e-05
0.00018383646
2.3830091e-05
0.00021472363
3.0523093e-05
0.00024901652
3.9466893e-05
0.00028676267
5.2907734e-05
0.00032767506
7.4364431e-05
0.00036991332
0.00010275434
0.00041226234
0.00012879703
0.00045860336
0.00015579448
0.00051012176
0.00019332156
0.00055956853
0.00023905003
0.00060569237
0.00029385502
0.00065103611
0.00035538114
0.00070371212
0.00042441722
0.00077128815
0.00049678245
0.00086234164
0.0005807591
0.00097869514
0.00069101155
0.0010909542
0.00081641959
0.0011970943
0.00095589298
0.001351032
0.0011022257
0.0015899226
0.0011444355
0.0019004148
0.0010882086
0.0022922696
0.0010882819
0.0028367605
0.001027795
0.0036042592
0.00088599021
0.0045132391
0.00048917509
0.005510336
-0.00036509373
0.0065508261
-0.0014180553
0.0071019494
0.0037864569
-3.6023084e-07
4.4819029e-06
-3.2387519e-07
5.3665073e-06
-2.6825097e-07
6.4296442e-06
-1.9900642e-07
7.7032584e-06
-1.2999868e-07
9.2289769e-06
-6.5903671e-08
1.105664e-05
-1.1316324e-08
1.3245794e-05
2.949397e-08
1.586756e-05
6.1637418e-08
1.900672e-05
7.8871372e-08
2.2764085e-05
9.2934189e-08
2.7259382e-05
1.022611e-07
3.2633315e-05
1.2005353e-07
3.9051988e-05
1.6724211e-07
4.6706798e-05
2.6453914e-07
5.5818212e-05
4.2189665e-07
6.6648619e-05
6.354977e-07
7.9495374e-05
9.2197859e-07
9.466369e-05
1.3542844e-06
0.00011244788
2.1134187e-06
0.00013314108
3.5098941e-06
0.00015703058
5.9252876e-06
0.00018433614
9.8342143e-06
0.00021516532
1.6026432e-05
0.0002492901
2.4383285e-05
0.00028673159
3.7255422e-05
0.00032707362
5.8038273e-05
0.00036813422
8.452982e-05
0.00040913589
0.00010796507
0.00045480504
0.00013265577
0.00050590616
0.00016844718
0.00055398798
0.00021258246
0.00059722269
0.00026559519
0.00063866759
0.00032589763
0.00068572533
0.00039372326
0.00074558162
0.00046507751
0.00082720828
0.00054717705
0.00093285411
0.00065581686
0.0010331209
0.00077991872
0.001125112
0.00091696088
0.0012611246
0.0010593607
0.001478252
0.0011072667
0.0017722028
0.0010621949
0.0021612503
0.0010677042
0.002705893
0.0010144639
0.0034694558
0.00086933669
0.0043867813
0.00048738951
0.0054080819
-0.00034318888
0.0064938571
-0.001369681
0.0070865142
0.003775196
-9.9763033e-06
4.5090724e-06
-1.0013011e-05
5.3991908e-06
-1.0054761e-05
6.4692102e-06
-1.0089339e-05
7.7512943e-06
-1.0121443e-05
9.2873305e-06
-1.014708e-05
1.1127408e-05
-1.0168759e-05
1.3331329e-05
-1.0191904e-05
1.5970649e-05
-1.0215339e-05
1.9130677e-05
-1.0251477e-05
2.2912891e-05
-1.0294641e-05
2.7437975e-05
-1.0356093e-05
3.2847738e-05
-1.0430176e-05
3.9309647e-05
-1.0508906e-05
4.7016907e-05
-1.0582526e-05
5.6192245e-05
-1.063907e-05
6.710082e-05
-1.0667784e-05
8.0042617e-05
-1.0643695e-05
9.532574e-05
-1.0491984e-05
0.00011324135
-1.0037297e-05
0.00013407555
-8.9759977e-06
0.00015810409
-6.9379038e-06
0.00018552937
-3.4435327e-06
0.00021642808
2.2636786e-06
0.00025053421
1.0097817e-05
0.00028782988
2.2499949e-05
0.00032776289
4.2580922e-05
0.00036789126
6.7127374e-05
0.00040790663
8.8047118e-05
0.00045332567
0.00011061001
0.00050443547
0.00014477527
0.00055154213
0.0001873446
0.00059233409
0.00023861179
0.00063035631
0.00029765991
0.0006723014
0.00036422911
0.00072497386
0.00043452429
0.00079769847
0.00051474672
0.00089326294
0.00062155956
0.00098231721
0.00074394395
0.0010610129
0.00087863217
0.0011799504
0.0010173947
0.001376262
0.0010703902
0.0016536759
0.0010356868
0.0020379609
0.0010465533
0.0025805124
0.0010002425
0.0033385961
0.00085380443
0.0042629467
0.00048513595
0.0053067624
-0.00032403475
0.0064353643
-0.0013247328
0.00706918
0.0037648376
-1.8935052e-05
4.550397e-06
-1.8996929e-05
5.4487746e-06
-1.9069994e-05
6.5285286e-06
-1.9140181e-05
7.8222127e-06
-1.9210061e-05
9.3720799e-06
-1.9276763e-05
1.122876e-05
-1.9346365e-05
1.3452814e-05
-1.9426271e-05
1.6116644e-05
-1.9519539e-05
1.9306481e-05
-1.9640652e-05
2.3125193e-05
-1.9786682e-05
2.7694813e-05
-1.9971899e-05
3.3158979e-05
-2.0191612e-05
3.9687154e-05
-2.0442514e-05
4.7474996e-05
-2.0716342e-05
5.67478e-05
-2.0998803e-05
6.7773462e-05
-2.127463e-05
8.0856814e-05
-2.1514601e-05
9.630855e-05
-2.1645604e-05
0.00011442056
-2.1494881e-05
0.00013547375
-2.0766078e-05
0.0001597339
-1.9098961e-05
0.00018738709
-1.6009357e-05
0.00021847884
-1.0781183e-05
0.00025270729
-3.4166545e-06
0.0002900034
8.5828339e-06
0.00032968068
2.7896984e-05
0.00036909718
5.0462142e-05
0.00040845682
6.8987024e-05
0.00045404764
8.9582464e-05
0.00050559959
0.00012220882
0.00055213773
0.00016323436
0.00059093217
0.0002127927
0.00062602531
0.0002705582
0.00066337801
0.00033582539
0.00070942094
0.0004050063
0.00077380934
0.00048334852
0.0008599122
0.00058816755
0.00093849936
0.00070849968
0.0010048134
0.00084089552
0.001107634
0.00097627237
0.0012840132
0.0010338799
0.0015449361
0.0010088245
0.0019227064
0.0010249476
0.002461094
0.00098530419
0.0032121334
0.00083890633
0.0041419707
0.00048237836
0.0052065052
-0.00030699317
0.0063758034
-0.0012828184
0.0070504889
0.003755343
-2.7263288e-05
4.6052574e-06
-2.7297486e-05
5.5140285e-06
-2.7332785e-05
6.6060931e-06
-2.7373074e-05
7.9145154e-06
-2.7431128e-05
9.4821897e-06
-2.7512076e-05
1.1360479e-05
-2.7625151e-05
1.3610968e-05
-2.7777443e-05
1.6307157e-05
-2.7972035e-05
1.9536827e-05
-2.8219358e-05
2.3404219e-05
-2.8514578e-05
2.8033689e-05
-2.8867146e-05
3.3570745e-05
-2.9268151e-05
4.0187503e-05
-2.9710411e-05
4.8082153e-05
-3.0185819e-05
5.7482443e-05
-3.0676656e-05
6.8659719e-05
-3.1182972e-05
8.1925272e-05
-3.168511e-05
9.7596883e-05
-3.209746e-05
0.00011596546
-3.2250067e-05
0.00013730863
-3.1855056e-05
0.0001618848
-3.0561338e-05
0.00018986961
-2.7873812e-05
0.0002212757
-2.3132427e-05
0.00025577539
-1.6217702e-05
0.00029324041
-4.5785674e-06
0.0003328107
1.3947159e-05
0.00037175036
3.4536802e-05
0.00041081346
5.076262e-05
0.00045694174
6.9515816e-05
0.00050929499
0.00010066549
0.00055562562
0.00014016619
0.00059283866
0.00018804281
0.00062545431
0.00024449666
0.00065870233
0.00030841722
0.00069864307
0.00037642726
0.0007552464
0.00045288961
0.00083251026
0.00055560383
0.00090135825
0.00067363925
0.00095612112
0.00080379841
0.0010436675
0.00093601739
0.0012009881
0.00099780528
0.0014455036
0.00098171585
0.0018152259
0.0010029634
0.0023475819
0.0009697308
0.0030902115
0.00082435369
0.0040240759
0.00047910758
0.005107467
-0.00029164068
0.0063151299
-0.0012435959
0.0070299462
0.0037462231
-3.5059949e-05
4.6738634e-06
-3.5117746e-05
5.5968352e-06
-3.5184149e-05
6.7063368e-06
-3.526353e-05
8.0358687e-06
-3.5368637e-05
9.6288057e-06
-3.550404e-05
1.1537574e-05
-3.5678761e-05
1.3824269e-05
-3.589968e-05
1.6563715e-05
-3.6170856e-05
1.9844906e-05
-3.6505176e-05
2.3773952e-05
-3.6897575e-05
2.8476898e-05
-3.7360354e-05
3.4102275e-05
-3.7878976e-05
4.0824687e-05
-3.8448963e-05
4.8845395e-05
-3.905297e-05
5.8394665e-05
-3.9706362e-05
6.9751804e-05
-4.0427864e-05
8.3239671e-05
-4.1175517e-05
9.917866e-05
-4.1865975e-05
0.00011786028
-4.2318356e-05
0.00013956133
-4.2251821e-05
0.00016453313
-4.1332323e-05
0.00019294634
-3.9051668e-05
0.00022478195
-3.4823629e-05
0.00025969815
-2.8366921e-05
0.000297492
-1.7051553e-05
0.00033709407
7.0986564e-07
0.00037575838
1.9357296e-05
0.00041483306
3.3340569e-05
0.0004618726
5.0348081e-05
0.00051542596
8.0078695e-05
0.00056192897
0.00011807203
0.00059797675
0.00016429033
0.00062858164
0.00021940482
0.00065822773
0.00028193891
0.00069261266
0.00034872333
0.00074201183
0.00042330493
0.00081106374
0.00052383723
0.0008708878
0.00063940449
0.00091498039
0.00076737461
0.00098817954
0.00089664402
0.0011272761
0.00096222033
0.0013555165
0.00095441681
0.0017158238
0.0009806241
0.0022404157
0.00095353432
0.0029732483
0.00080990881
0.0039095402
0.00047532766
0.0050098246
-0.00027763575
0.0062535683
-0.0012066064
0.0070077569
0.003737399
-4.2353406e-05
4.7551889e-06
-4.2481926e-05
5.6945769e-06
-4.2643922e-05
6.8240928e-06
-4.2829298e-05
8.1781033e-06
-4.3042326e-05
9.8009374e-06
-4.3277727e-05
1.1745741e-05
-4.3542076e-05
1.4076047e-05
-4.3839271e-05
1.6867834e-05
-4.4175003e-05
2.0211638e-05
-4.4561652e-05
2.4215537e-05
-4.499903e-05
2.900735e-05
-4.5502297e-05
3.4737951e-05
-4.6063512e-05
4.1584569e-05
-4.6679334e-05
4.9750433e-05
-4.7369215e-05
5.9474188e-05
-4.8183701e-05
7.1047745e-05
-4.9127896e-05
8.4801072e-05
-5.0115299e-05
0.00010105797
-5.1039396e-05
0.00012010485
-5.175713e-05
0.0001422195
-5.1998847e-05
0.00016765785
-5.1444218e-05
0.0001965902
-4.9575581e-05
0.00022896477
-4.5894048e-05
0.0002644477
-3.9899871e-05
0.00030274606
-2.8888929e-05
0.00034252358
-1.1911725e-05
0.00038112603
4.8314522e-06
0.00042058487
1.6667023e-05
0.00046889385
3.2023028e-05
0.00052393359
6.0387521e-05
0.00057092538
9.6889888e-05
0.00060619616
0.00014146616
0.00063522525
0.00019521378
0.00066174792
0.00025632098
0.00069110381
0.0003218241
0.00073386619
0.0003945199
0.00079533609
0.00049281949
0.00084683579
0.00060579861
0.00088105287
0.00073161657
0.00094072856
0.00085811409
0.0010624151
0.00092711252
0.001274536
0.00092697414
0.0016242691
0.00095796126
0.002139579
0.00093675792
0.0028613973
0.00079546698
0.003798622
0.0004710846
0.0049138188
-0.00026474933
0.0061911638
-0.0011715078
0.0069835152
0.0037284542
-4.9223239e-05
4.8501769e-06
-4.9493022e-05
5.8107691e-06
-4.979623e-05
6.966101e-06
-5.0098413e-05
8.3507734e-06
-5.0399009e-05
1.0009426e-05
-5.0700111e-05
1.1996367e-05
-5.1009434e-05
1.4376182e-05
-5.1337045e-05
1.7226165e-05
-5.16938e-05
2.0639053e-05
-5.2095715e-05
2.4724838e-05
-5.2549695e-05
2.9614456e-05
-5.3075449e-05
3.546219e-05
-5.3674043e-05
4.2449008e-05
-5.4362229e-05
5.0784322e-05
-5.5204492e-05
6.0718618e-05
-5.6246838e-05
7.255271e-05
-5.743422e-05
8.6620435e-05
-5.8627791e-05
0.00010323841
-5.9715972e-05
0.00012269343
-6.0628062e-05
0.00014527436
-6.1144304e-05
0.00017124624
-6.0939081e-05
0.00020078393
-5.9476747e-05
0.00023380235
-5.6362154e-05
0.00026998711
-5.0835968e-05
0.00030894958
-4.0134216e-05
0.00034903646
-2.4002134e-05
0.0003877704
-9.1225447e-06
0.00042795637
7.0412855e-07
0.00047789337
1.4509637e-05
0.00053472609
4.1551121e-05
0.00058253452
7.6576333e-05
0.00061741723
0.00011952413
0.00064531829
0.00017187873
0.00066920754
0.00023152217
0.00069407646
0.00029568619
0.0007307986
0.00036648511
0.00078533151
0.00046251702
0.00082921895
0.00057281951
0.00085442651
0.00069651477
0.00090149053
0.00082039049
0.0010065646
0.00089248162
0.0012027745
0.00089943493
0.0015408991
0.00093501557
0.0020454941
0.00091944464
0.0027550479
0.0007808991
0.0036916527
0.00046636738
0.0048197167
-0.00025276981
0.0061280797
-0.0011379446
0.0069573916
0.0037193923
-5.5469901e-05
4.9549007e-06
-5.5731655e-05
5.9334844e-06
-5.6024381e-05
7.1101267e-06
-5.6322999e-05
8.5205178e-06
-5.663169e-05
1.0211304e-05
-5.6959458e-05
1.223801e-05
-5.7312333e-05
1.4667313e-05
-5.7703128e-05
1.7579234e-05
-5.8137922e-05
2.1068159e-05
-5.8634291e-05
2.5247981e-05
-5.9197252e-05
3.0252008e-05
-5.9850511e-05
3.6238994e-05
-6.05998e-05
4.3394273e-05
-6.1494923e-05
5.1935391e-05
-6.2595229e-05
6.2121733e-05
-6.3914388e-05
7.4258623e-05
-6.5349073e-05
8.8678545e-05
-6.6698004e-05
0.0001056949
-6.7901654e-05
0.00012560002
-6.8972493e-05
0.0001487029
-6.9738774e-05
0.0001752819
-6.9866589e-05
0.00020550935
-6.8802984e-05
0.00023927616
-6.6246664e-05
0.00027629774
-6.1199517e-05
0.00031607894
-5.0851161e-05
0.0003566371
-3.5621071e-05
0.00039572007
-2.2543877e-05
0.0004369706
-1.4562618e-05
0.00048883726
-2.215881e-06
0.00054768762
2.3533018e-05
0.0005966034
5.709469e-05
0.0006314602
9.8430828e-05
0.00065863601
0.00014937722
0.00068033236
0.00020752435
0.00070121127
0.00027028987
0.0007324681
0.00033917261
0.00078071127
0.00043291991
0.00081765595
0.00054049687
0.00083456123
0.0006620919
0.00086977466
0.00078348103
0.00095900191
0.00085834467
0.0011395259
0.00087184292
0.0014652169
0.00091180935
0.0019579272
0.00090160259
0.0026542282
0.00076610988
0.0035888301
0.00046118123
0.0047277535
-0.00024155258
0.0060644235
-0.0011056598
0.0069290475
0.0037098434
-6.1147291e-05
5.0726766e-06
-6.1294987e-05
6.0744455e-06
-6.1479916e-05
7.2788316e-06
-6.1705606e-05
8.7225242e-06
-6.1981676e-05
1.0452673e-05
-6.2313688e-05
1.2526549e-05
-6.2708851e-05
1.5012368e-05
-6.3174937e-05
1.7991761e-05
-6.3718248e-05
2.156288e-05
-6.4349946e-05
2.5841792e-05
-6.5078341e-05
3.096725e-05
-6.5924099e-05
3.7103053e-05
-6.6905311e-05
4.4442094e-05
-6.8062465e-05
5.32096e-05
-6.9445411e-05
6.3671157e-05
-7.1037303e-05
7.6137076e-05
-7.2685383e-05
9.0935868e-05
-7.4192529e-05
0.00010838272
-7.5544841e-05
0.00012879337
-7.6798835e-05
0.00015249016
-7.7813906e-05
0.00017975307
-7.8261689e-05
0.00021075386
-7.7594307e-05
0.00024536897
-7.5573865e-05
0.00028335025
-7.1023354e-05
0.00032409566
-6.1093673e-05
0.00036527413
-4.6819425e-05
0.00040489974
-3.5466756e-05
0.00044752031
-2.9154235e-05
0.00050161682
-1.8186394e-05
0.00056273979
6.3058082e-06
0.00061306047
3.8425308e-05
0.00064823499
7.8175351e-05
0.000675081
0.00012770934
0.00069502185
0.00018433469
0.00071241246
0.00024563989
0.0007387988
0.00031257242
0.00078143483
0.00040402247
0.00081216176
0.00050885413
0.0008215709
0.00062836791
0.00084578026
0.00074739076
0.00091992688
0.0008247228
0.0010850485
0.00084421799
0.0013975904
0.00088834195
0.0018773203
0.0008832104
0.0025593569
0.00075102004
0.0034905252
0.0004555323
0.0046381931
-0.0002309622
0.0060002865
-0.0010744048
0.0068984876
0.0036997024
-6.6510516e-05
5.20188e-06
-6.6664574e-05
6.2292957e-06
-6.6851912e-05
7.4646778e-06
-6.7077071e-05
8.9452614e-06
-6.7350948e-05
1.0719788e-05
-6.7680727e-05
1.2846981e-05
-6.8079228e-05
1.5396512e-05
-6.8557175e-05
1.8452502e-05
-6.912923e-05
2.2115412e-05
-6.9811154e-05
2.6504558e-05
-7.0622097e-05
3.1763381e-05
-7.1588414e-05
3.8060668e-05
-7.2732067e-05
4.5596586e-05
-7.408724e-05
5.460426e-05
-7.5686672e-05
6.5357624e-05
-7.7491754e-05
7.8168432e-05
-7.9333195e-05
9.3368491e-05
-8.1050128e-05
0.00011129064
-8.2631575e-05
0.00013226705
-8.41137e-05
0.0001566251
-8.5387023e-05
0.00018464501
-8.614895e-05
0.00021649881
-8.5874103e-05
0.00025206244
-8.4370127e-05
0.00029112222
-8.0304892e-05
0.00033296596
-7.0821054e-05
0.00037492126
-5.7572943e-05
0.00041531285
-4.7896448e-05
0.00045961829
-4.3099106e-05
0.00051620975
-3.3428074e-05
0.0005797933
-1.014242e-05
0.00063174788
2.0567672e-05
0.00066753475
5.8748873e-05
0.00069441005
0.00010685444
0.00071303327
0.00016193245
0.00072743705
0.00022172625
0.00074951502
0.00028668153
0.00078716716
0.00037580576
0.00081235582
0.00047787352
0.00081500162
0.00059531591
0.00082896411
0.00071206824
0.00088877366
0.00079157632
0.0010387976
0.00081656124
0.0013376661
0.00086460619
0.0018035575
0.0008642678
0.0024705321
0.00073558844
0.0033969648
0.0004494477
0.0045513004
-0.00022090102
0.0059358542
-0.0010439961
0.0068654963
0.0036886546
-7.1465511e-05
5.3421869e-06
-7.1632393e-05
6.3975653e-06
-7.18338e-05
7.6664154e-06
-7.2075212e-05
9.1872975e-06
-7.2367338e-05
1.1010174e-05
-7.2717981e-05
1.3195405e-05
-7.3140963e-05
1.5814526e-05
-7.364826e-05
1.8954616e-05
-7.4256932e-05
2.2718043e-05
-7.4987134e-05
2.7228854e-05
-7.5862292e-05
3.2633769e-05
-7.691584e-05
3.9107841e-05
-7.8164731e-05
4.6857158e-05
-7.964724e-05
5.6122355e-05
-8.1387771e-05
6.7183202e-05
-8.3339933e-05
8.0358518e-05
-8.5371441e-05
9.5989957e-05
-8.7338028e-05
0.00011442786
-8.9191255e-05
0.00013602073
-9.0933499e-05
0.00016110086
-9.247371e-05
0.00018994442
-9.3547973e-05
0.00022272666
-9.3659953e-05
0.00025932933
-9.2650764e-05
0.00029957348
-8.9026921e-05
0.00034263835
-7.9979232e-05
0.00038549592
-6.7843518e-05
0.00042684149
-5.9837017e-05
0.00047314263
-5.641726e-05
0.00053251079
-4.7944272e-05
0.00059874653
-2.5817577e-05
0.00065255819
3.5059599e-06
0.00068926633
4.0122563e-05
0.00071655985
8.6768193e-05
0.00073432409
0.00014027094
0.00074626744
0.00019851724
0.00076462564
0.00026149194
0.00079792419
0.00034827071
0.00081824593
0.00044754671
0.00081494227
0.00056290871
0.00081955563
0.00067746772
0.00086581227
0.00075888543
0.0010010956
0.0007888843
0.0012858378
0.00084061625
0.0017370684
0.00084478857
0.0023881533
0.00071977693
0.003308545
0.00044293927
0.0044673809
-0.00021128372
0.0058712325
-0.0010142642
0.006830103
0.0036766565
-7.6027092e-05
5.4934374e-06
-7.6207209e-05
6.5789122e-06
-7.642446e-05
7.8839111e-06
-7.6684531e-05
9.4480572e-06
-7.6999038e-05
1.132333e-05
-7.7376021e-05
1.3570992e-05
-7.7831019e-05
1.6265783e-05
-7.8376485e-05
1.9496381e-05
-7.9032596e-05
2.3369227e-05
-7.9821213e-05
2.8011605e-05
-8.0766741e-05
3.3575158e-05
-8.1903253e-05
4.0240881e-05
-8.3244753e-05
4.8221025e-05
-8.4818137e-05
5.7762831e-05
-8.6649542e-05
6.9153163e-05
-8.8715658e-05
8.2716816e-05
-9.0917112e-05
9.8809025e-05
-9.3125263e-05
0.00011779911
-9.5257679e-05
0.00014005352
-9.7271698e-05
0.00016590778
-9.9088004e-05
0.00019563818
-0.00010047166
0.00022942065
-0.00010096592
0.00026715134
-0.00010041955
0.00030867914
-9.7182568e-05
0.00035304764
-8.8585458e-05
0.0003969504
-7.7629421e-05
0.00043950475
-7.125467e-05
0.00048806494
-6.9080688e-05
0.00055038345
-6.1719328e-05
0.00061940749
-4.073268e-05
0.00067529489
-1.2790709e-05
0.00071322969
2.226365e-05
0.00074129841
6.7424376e-05
0.00075862057
0.00011932622
0.00076858714
0.00017598751
0.00078378227
0.00023698453
0.00081333371
0.00032144009
0.00082935685
0.00041791133
0.0008206948
0.0005311573
0.00081671139
0.00064358732
0.00085019767
0.00072665858
0.00097111172
0.00076121974
0.0012414632
0.00081639073
0.0016774827
0.00082478594
0.0023121344
0.00070355249
0.0032253607
0.00043600458
0.0043866449
-0.00020204907
0.0058066285
-0.00098508075
0.0067921613
0.0036634378
-8.0218561e-05
5.6553208e-06
-8.0411415e-05
6.7727245e-06
-8.0644223e-05
8.1164439e-06
-8.0923174e-05
9.7269746e-06
-8.1260332e-05
1.1657945e-05
-8.1665017e-05
1.3972627e-05
-8.2153994e-05
1.6748167e-05
-8.2741521e-05
2.0075802e-05
-8.3449357e-05
2.4065876e-05
-8.4301285e-05
2.8849721e-05
-8.5320561e-05
3.458398e-05
-8.6537803e-05
4.145503e-05
-8.7964096e-05
4.9682448e-05
-8.9617964e-05
5.9519616e-05
-9.1525768e-05
7.1260299e-05
-9.3687594e-05
8.523838e-05
-9.6040285e-05
0.00010182316
-9.8470382e-05
0.00012140251
-0.00010086744
0.00014435978
-0.00010315723
0.00017103741
-0.00010525986
0.00020171576
-0.00010695018
0.00023656864
-0.00010782152
0.00027551078
-0.00010769816
0.00031841058
-0.00010479737
0.00036415583
-9.6690713e-05
0.00040922475
-8.6958066e-05
0.00045320292
-8.2125681e-05
0.00050425796
-8.1073543e-05
0.00056970291
-7.4775487e-05
0.00064169338
-5.492398e-05
0.00069990544
-2.8358562e-05
0.00073937051
5.1405256e-06
0.00076857604
4.8800059e-05
0.00078588036
9.9081713e-05
0.00079436541
0.00015411893
0.00080697648
0.0002131335
0.00083342505
0.00029529412
0.00084579986
0.00038898419
0.0008324722
0.00050007476
0.00082070676
0.00061042949
0.00084221339
0.00069490474
0.00094919271
0.0007335838
0.0012049551
0.00079193246
0.0016252528
0.0008042513
0.0022429091
0.00068688391
0.0031478396
0.00042865425
0.0043093826
-0.00019314636
0.0057420955
-0.00095633642
0.0067515913
0.0036488763
-8.405766e-05
5.8273953e-06
-8.4262863e-05
6.9788281e-06
-8.4510686e-05
8.363667e-06
-8.4808078e-05
1.0023817e-05
-8.5167937e-05
1.2013982e-05
-8.5600628e-05
1.4400227e-05
-8.612445e-05
1.7261701e-05
-8.675521e-05
2.0692834e-05
-8.7514414e-05
2.4807756e-05
-8.842673e-05
2.9741971e-05
-8.9513031e-05
3.5657125e-05
-9.0801637e-05
4.274608e-05
-9.2299326e-05
5.1234052e-05
-9.4025137e-05
6.1382513e-05
-9.6002766e-05
7.3492759e-05
-9.8256787e-05
8.7909908e-05
-0.00010076158
0.0001050197
-0.00010340052
0.00012522775
-0.00010604749
0.00014892976
-0.00010861331
0.00017647747
-0.00011100623
0.00020816044
-0.00011299463
0.00024414345
-0.00011423899
0.00028437465
-0.00011449207
0.00032871934
-0.00011188838
0.00037588842
-0.00010431332
0.00042228176
-9.5808956e-05
0.00046794048
-9.2430452e-05
0.00052167885
-9.2416257e-05
0.0005903882
-8.7153037e-05
0.0006655001
-6.8426632e-05
0.00072624574
-4.3228137e-05
0.00076751578
-1.12769e-05
0.00079818843
3.0867914e-05
0.00081587282
7.9510977e-05
0.00082334463
0.00013288903
0.00083391906
0.00018990625
0.00085787421
0.00026978716
0.00086720107
0.00036072771
0.00084978718
0.00046964259
0.00083090908
0.00057794744
0.00084119647
0.00066358182
0.00093474005
0.00070596029
0.0011758992
0.00076722278
0.0015801958
0.00078317752
0.0021805114
0.00066975636
0.0030761267
0.00042090446
0.0042358266
-0.00018452491
0.0056779017
-0.00092795724
0.0067083762
0.0036327763
-8.7561114e-05
6.0091511e-06
-8.7778645e-05
7.1970017e-06
-8.804175e-05
8.6253737e-06
-8.83573e-05
1.033753e-05
-8.8740124e-05
1.2390621e-05
-8.9200947e-05
1.4852559e-05
-8.9758154e-05
1.7804594e-05
-9.0428916e-05
2.1345458e-05
-9.1233106e-05
2.5591773e-05
-9.2195304e-05
3.0684286e-05
-9.3336298e-05
3.6789958e-05
-9.4678277e-05
4.4106636e-05
-9.6234679e-05
5.2867326e-05
-9.8014218e-05
6.3339578e-05
-0.00010005721
7.5836522e-05
-0.0001024141
9.0718878e-05
-0.00010507148
0.00010838629
-0.00010792041
0.00012925966
-0.00011081582
0.00015374913
-0.00011365559
0.00018221447
-0.00011633605
0.00021495545
-0.00011860614
0.00025212264
-0.00012021754
0.0002937095
-0.0001208032
0.00033956821
-0.00011845833
0.00038821162
-0.00011143363
0.00043604679
-0.00010413796
0.00048357627
-0.00010216841
0.00054019871
-0.00010314449
0.00061236697
-9.8881927e-05
0.0006907746
-8.1268996e-05
0.00075426366
-5.7426916e-05
0.00079761613