/*--------------------------------*- C++ -*----------------------------------*\
  =========                 |
  \\      /  F ield         | OpenFOAM: The Open Source CFD Toolbox
   \\    /   O peration     | Website:  https://openfoam.org
    \\  /    A nd           | Version:  8
     \\/     M anipulation  |
\*---------------------------------------------------------------------------*/
FoamFile
{
    version     2.0;
    format      ascii;
    class       volScalarField;
    location    "0.149996";
    object      nut;
}
// * * * * * * * * * * * * * * * * * * * * * * * * * * * * * * * * * * * * * //

dimensions      [0 2 -1 0 0 0 0];

internalField   nonuniform List<scalar> 
20000
(
0.0012719832
0.0032781588
0.0045534876
0.0051992761
0.0050578749
0.0038632469
0.0013043335
6.8861417e-06
2.8442192e-09
2.7183785e-09
2.6387885e-09
2.6594978e-09
2.6277653e-09
2.6560321e-09
2.6575943e-09
2.6893164e-09
2.7121608e-09
2.7550861e-09
2.8006466e-09
2.8647249e-09
2.9392824e-09
3.0356708e-09
3.1515281e-09
3.2961717e-09
3.4707847e-09
3.6830188e-09
3.9355766e-09
4.2323174e-09
4.5699368e-09
4.9386501e-09
5.3148978e-09
5.6728157e-09
5.9896124e-09
6.2580882e-09
6.4787141e-09
6.6567497e-09
6.7959513e-09
6.9055412e-09
6.9894607e-09
7.0551102e-09
7.1051092e-09
7.1454106e-09
7.1779198e-09
7.2073933e-09
7.2348516e-09
7.2593259e-09
7.2828661e-09
7.3054189e-09
7.3216023e-09
7.3851452e-09
0.0012596175
0.003250944
0.0045009643
0.0051168881
0.0049339381
0.0036988041
0.0011458819
2.6291629e-06
2.8047685e-09
2.7380843e-09
2.6570582e-09
2.6791604e-09
2.6475543e-09
2.6770764e-09
2.67923e-09
2.7123742e-09
2.7365174e-09
2.781245e-09
2.8287871e-09
2.8953592e-09
2.9728586e-09
3.0727122e-09
3.1925734e-09
3.3415704e-09
3.5206876e-09
3.7368266e-09
3.9916055e-09
4.2868436e-09
4.6182751e-09
4.9757582e-09
5.3403791e-09
5.6876201e-09
5.9972637e-09
6.2615621e-09
6.4798738e-09
6.6572078e-09
6.7962134e-09
6.9053037e-09
6.9890617e-09
7.0543796e-09
7.1045094e-09
7.1450058e-09
7.178008e-09
7.2077742e-09
7.2357168e-09
7.260053e-09
7.2825812e-09
7.3064168e-09
7.3212558e-09
7.3866479e-09
0.0012549916
0.0032296448
0.0044510578
0.0050307939
0.0048056612
0.0035149554
0.00098266244
9.3111224e-07
2.7880619e-09
2.7578428e-09
2.6764163e-09
2.6995158e-09
2.6681954e-09
2.6987999e-09
2.701699e-09
2.7362355e-09
2.7617692e-09
2.8083683e-09
2.8580523e-09
2.927313e-09
3.0080166e-09
3.111679e-09
3.2359728e-09
3.3898882e-09
3.5742114e-09
3.7950865e-09
4.0529631e-09
4.3478703e-09
4.673842e-09
5.0209632e-09
5.3724754e-09
5.7084143e-09
6.01021e-09
6.2691622e-09
6.4839978e-09
6.6589353e-09
6.7963081e-09
6.9049544e-09
6.9886992e-09
7.0539399e-09
7.104126e-09
7.1446836e-09
7.1778227e-09
7.2080007e-09
7.2362375e-09
7.2606857e-09
7.2849943e-09
7.307519e-09
7.3331388e-09
7.3856624e-09
0.0012521483
0.0032086266
0.0044011697
0.0049419883
0.0046765742
0.0033245586
0.00083767873
3.3459276e-07
2.7854689e-09
2.7784169e-09
2.6967542e-09
2.7210019e-09
2.6901152e-09
2.7218064e-09
2.7254847e-09
2.7614329e-09
2.7884137e-09
2.8369555e-09
2.8888877e-09
2.9609509e-09
3.0450005e-09
3.1526236e-09
3.281546e-09
3.4406492e-09
3.6305336e-09
3.856675e-09
4.1184629e-09
4.4142367e-09
4.7366259e-09
5.0751974e-09
5.4151272e-09
5.7389916e-09
6.0308789e-09
6.2825826e-09
6.4924114e-09
6.6640155e-09
6.7991353e-09
6.9060627e-09
6.9888099e-09
7.0538524e-09
7.1040457e-09
7.1446193e-09
7.1778312e-09
7.2087071e-09
7.2371701e-09
7.261613e-09
7.2860628e-09
7.3091832e-09
7.3385708e-09
7.3855925e-09
0.0012501192
0.003188307
0.0043525443
0.0048579331
0.0045461504
0.0031253586
0.00070412946
1.2516075e-07
2.7925787e-09
2.8003016e-09
2.7183291e-09
2.7436184e-09
2.7132408e-09
2.7459541e-09
2.7504928e-09
2.7879056e-09
2.8164606e-09
2.8670735e-09
2.9214335e-09
2.9964934e-09
3.0841302e-09
3.1959938e-09
3.3298918e-09
3.4945937e-09
3.6905092e-09
3.9224117e-09
4.1885849e-09
4.4857397e-09
4.8050768e-09
5.1357653e-09
5.4642667e-09
5.7759495e-09
6.057215e-09
6.3005946e-09
6.5043004e-09
6.6715403e-09
6.803591e-09
6.9084974e-09
6.9900331e-09
7.0542834e-09
7.1041565e-09
7.1446147e-09
7.1781704e-09
7.2095968e-09
7.2381592e-09
7.2626531e-09
7.2877528e-09
7.3110793e-09
7.3460801e-09
7.3853876e-09
0.0012483145
0.0031677828
0.0043028863
0.0047719737
0.0044144194
0.0029178032
0.00058101378
5.0697253e-08
2.8057867e-09
2.8228218e-09
2.7409066e-09
2.76727e-09
2.7375206e-09
2.7713157e-09
2.776829e-09
2.8157885e-09
2.8460476e-09
2.898862e-09
2.9558178e-09
3.0340515e-09
3.1254958e-09
3.2418555e-09
3.3810483e-09
3.5517181e-09
3.7540728e-09
3.9921461e-09
4.2630957e-09
4.5620416e-09
4.8788888e-09
5.2023364e-09
5.5199523e-09
5.8192811e-09
6.0890998e-09
6.3231204e-09
6.5196942e-09
6.6817645e-09
6.8101114e-09
6.9124001e-09
6.9922639e-09
7.0555467e-09
7.1049325e-09
7.1451454e-09
7.1788872e-09
7.2108014e-09
7.2393677e-09
7.2638718e-09
7.2893418e-09
7.3135277e-09
7.3516049e-09
7.3852895e-09
0.0012465774
0.0031470838
0.0042523796
0.0046849838
0.0042818186
0.0027024075
0.00046889712
2.3165792e-08
2.8232681e-09
2.8460048e-09
2.7645433e-09
2.7919794e-09
2.7629609e-09
2.7978935e-09
2.8045092e-09
2.8451029e-09
2.8772089e-09
2.9323611e-09
2.9920922e-09
3.0736952e-09
3.1691977e-09
3.2903554e-09
3.435211e-09
3.6122635e-09
3.8214797e-09
4.0660846e-09
4.3420362e-09
4.6428938e-09
4.9573558e-09
5.2737705e-09
5.5806596e-09
5.8675998e-09
6.1255441e-09
6.3495035e-09
6.5381652e-09
6.6943428e-09
6.8183892e-09
6.9176664e-09
6.9955468e-09
7.0575769e-09
7.1062651e-09
7.1461153e-09
7.1799875e-09
7.2122576e-09
7.2407279e-09
7.2652485e-09
7.291193e-09
7.3168498e-09
7.3566468e-09
7.385531e-09
0.0012448136
0.0031260534
0.0042005347
0.0045964317
0.0041483113
0.0024801418
0.00036719906
1.2273402e-08
2.843586e-09
2.869997e-09
2.7892153e-09
2.8177626e-09
2.7896094e-09
2.8257533e-09
2.8336013e-09
2.8759134e-09
2.9099992e-09
2.9676203e-09
3.0303047e-09
3.1154741e-09
3.2152992e-09
3.3415694e-09
3.4924733e-09
3.6763181e-09
3.8927984e-09
4.1442271e-09
4.4253058e-09
4.7280461e-09
5.0400749e-09
5.3494955e-09
5.6457651e-09
5.9202516e-09
6.1659622e-09
6.3793088e-09
6.5594334e-09
6.7091374e-09
6.8283863e-09
6.9242449e-09
6.9998173e-09
7.0603809e-09
7.1082022e-09
7.1475827e-09
7.1814735e-09
7.2139819e-09
7.242266e-09
7.2667794e-09
7.2932006e-09
7.3213153e-09
7.3604288e-09
7.3860831e-09
0.0012430765
0.0031047745
0.0041474743
0.0045059045
0.0040136191
0.0022530113
0.00027494424
7.6002042e-09
2.8661031e-09
2.8949817e-09
2.8150082e-09
2.8446924e-09
2.8175299e-09
2.8549408e-09
2.8641375e-09
2.9082398e-09
2.9444394e-09
3.0046651e-09
3.0704884e-09
3.1594401e-09
3.2638777e-09
3.3956092e-09
3.5529686e-09
3.7440322e-09
3.9681597e-09
4.2266434e-09
4.5128455e-09
4.8172617e-09
5.1265859e-09
5.4288344e-09
5.7144257e-09
5.9763997e-09
6.209659e-09
6.4120149e-09
6.5831355e-09
6.7258935e-09
6.8399245e-09
6.9320368e-09
7.0050329e-09
7.0639144e-09
7.1107037e-09
7.1495187e-09
7.1833407e-09
7.2159469e-09
7.2439586e-09
7.2684445e-09
7.2954285e-09
7.326458e-09
7.3637184e-09
7.38684e-09
0.0012414387
0.0030834442
0.0040936545
0.0044127598
0.0038768289
0.0020243883
0.00019131198
5.4290696e-09
2.8903953e-09
2.9209862e-09
2.8419693e-09
2.8728159e-09
2.846762e-09
2.88548e-09
2.8961327e-09
2.9420998e-09
2.9805535e-09
3.0435256e-09
3.1126839e-09
3.2056555e-09
3.315023e-09
3.4525908e-09
3.6168293e-09
3.8155405e-09
4.0476676e-09
4.3133627e-09
4.6045642e-09
4.9103033e-09
5.2164957e-09
5.5112514e-09
5.7860133e-09
6.0353881e-09
6.2560391e-09
6.4471483e-09
6.6089293e-09
6.7443824e-09
6.8528594e-09
6.9409418e-09
7.0111248e-09
7.0681402e-09
7.1137538e-09
7.1519153e-09
7.1855764e-09
7.218144e-09
7.2457955e-09
7.2702198e-09
7.297864e-09
7.3318274e-09
7.366638e-09
7.3878631e-09
0.0012399748
0.0030621315
0.0040387464
0.0043163031
0.0037366299
0.0018027577
0.00011805027
4.3549395e-09
2.9162312e-09
2.9480867e-09
2.8701564e-09
2.9021605e-09
2.8773038e-09
2.9173594e-09
2.9295847e-09
2.9775056e-09
3.0183646e-09
3.0842327e-09
3.1569425e-09
3.2541986e-09
3.3688456e-09
3.5126458e-09
3.684202e-09
3.890986e-09
4.1314301e-09
4.4044071e-09
4.7003615e-09
5.0069235e-09
5.3094138e-09
5.5962288e-09
5.8599205e-09
6.0965941e-09
6.304542e-09
6.4842544e-09
6.6364746e-09
6.7643601e-09
6.8670217e-09
6.9508485e-09
7.0180243e-09
7.0730125e-09
7.117322e-09
7.1547531e-09
7.188168e-09
7.2205538e-09
7.2477577e-09
7.2720857e-09
7.3005732e-09
7.3371871e-09
7.3694572e-09
7.3891324e-09
0.0012387974
0.0030411296
0.0039834426
0.0042163856
0.0035917098
0.0015894751
6.092522e-05
3.8026325e-09
2.9435408e-09
2.9763062e-09
2.8995429e-09
2.9326742e-09
2.9091166e-09
2.9505668e-09
2.9645098e-09
3.0144827e-09
3.0579032e-09
3.1268283e-09
3.2033319e-09
3.3051721e-09
3.425476e-09
3.5759263e-09
3.7552527e-09
3.9705297e-09
4.2195621e-09
4.4997939e-09
4.8001177e-09
5.1068622e-09
5.404958e-09
5.6832838e-09
5.9356014e-09
6.159456e-09
6.3546491e-09
6.5228997e-09
6.6654381e-09
6.7855842e-09
6.8822419e-09
6.9616383e-09
7.0256515e-09
7.07848e-09
7.1213771e-09
7.1580123e-09
7.1911026e-09
7.2231583e-09
7.2498257e-09
7.2740624e-09
7.303701e-09
7.3423662e-09
7.3721556e-09
7.3904434e-09
0.0012378537
0.0030206303
0.003928576
0.0041145641
0.0034420846
0.0013864241
2.5481204e-05
3.5156595e-09
2.97206e-09
3.0054852e-09
2.930016e-09
2.96431e-09
2.9421973e-09
2.9851376e-09
3.0009392e-09
3.053064e-09
3.0992031e-09
3.1713694e-09
3.2519456e-09
3.3587005e-09
3.4850598e-09
3.6425911e-09
3.8301486e-09
4.054322e-09
4.3121553e-09
4.5995043e-09
4.9036794e-09
5.209838e-09
5.5027444e-09
5.7719612e-09
6.0125585e-09
6.2234716e-09
6.4058964e-09
6.5626927e-09
6.6955115e-09
6.8078229e-09
6.8983522e-09
6.973193e-09
7.0339261e-09
7.0844893e-09
7.1258842e-09
7.1616617e-09
7.1943657e-09
7.2259505e-09
7.2519725e-09
7.2761656e-09
7.307473e-09
7.3472046e-09
7.3746643e-09
7.3917723e-09
0.0012369903
0.003000268
0.0038739395
0.0040184366
0.0032842986
0.0011951158
8.9140154e-06
3.3711937e-09
3.0016113e-09
3.0355906e-09
2.9616159e-09
2.9971263e-09
2.9766213e-09
3.0211162e-09
3.0389046e-09
3.0932684e-09
3.1423057e-09
3.2179395e-09
3.3029014e-09
3.4149275e-09
3.5477571e-09
3.7128224e-09
3.909082e-09
4.1425413e-09
4.4093131e-09
4.7035179e-09
5.0108819e-09
5.3155574e-09
5.6023837e-09
5.8618178e-09
6.0903218e-09
6.2881721e-09
6.45785e-09
6.6032621e-09
6.726397e-09
6.8308485e-09
6.9151841e-09
6.9853911e-09
7.0427628e-09
7.0909819e-09
7.1308046e-09
7.1656807e-09
7.1979374e-09
7.2289312e-09
7.2541772e-09
7.2784408e-09
7.3120764e-09
7.3515602e-09
7.3770563e-09
7.39307e-09
0.0012361451
0.0029798268
0.0038187894
0.0039127656
0.0031159455
0.0010166831
2.7665795e-06
3.3055117e-09
3.032324e-09
3.0667881e-09
2.9944531e-09
3.0312143e-09
3.0124282e-09
3.0585138e-09
3.0784134e-09
3.1351119e-09
3.1872898e-09
3.2666552e-09
3.356342e-09
3.4740075e-09
3.6137357e-09
3.7868031e-09
3.9922389e-09
4.2353396e-09
4.5110931e-09
4.811759e-09
5.1215078e-09
5.4236921e-09
5.7034816e-09
5.9524316e-09
6.168464e-09
6.3531426e-09
6.510129e-09
6.6442802e-09
6.7578282e-09
6.8544522e-09
6.9325796e-09
6.9981165e-09
7.0520787e-09
7.0978997e-09
7.1360994e-09
7.1700417e-09
7.2017892e-09
7.2320625e-09
7.256427e-09
7.2809373e-09
7.3174491e-09
7.3554581e-09
7.3792981e-09
7.3943726e-09
0.0012353104
0.0029591187
0.003764009
0.003807218
0.0029378866
0.00085261817
8.1746631e-07
3.283818e-09
3.0642713e-09
3.0991469e-09
3.0285716e-09
3.066573e-09
3.0495927e-09
3.0973133e-09
3.1194783e-09
3.1786868e-09
3.2342713e-09
3.3176562e-09
3.4124173e-09
3.5361021e-09
3.683182e-09
3.8647449e-09
4.0798429e-09
4.3328953e-09
4.6175684e-09
4.9241447e-09
5.2353223e-09
5.5338985e-09
5.8056394e-09
6.0433839e-09
6.2465745e-09
6.4179916e-09
6.5623765e-09
6.6854403e-09
6.7895529e-09
6.8784328e-09
6.9503836e-09
7.0112528e-09
7.0617893e-09
7.1051826e-09
7.1417269e-09
7.1747112e-09
7.2058817e-09
7.2352897e-09
7.2587407e-09
7.2837937e-09
7.3231222e-09
7.3591866e-09
7.3814134e-09
7.3956267e-09
0.0012344413
0.0029372472
0.003704824
0.0036976039
0.0027492324
0.00070610431
2.4931889e-07
3.2871135e-09
3.0974921e-09
3.1326555e-09
3.0639053e-09
3.1031369e-09
3.0880797e-09
3.1375317e-09
3.1621794e-09
3.2241161e-09
3.2833969e-09
3.3710922e-09
3.4712792e-09
3.6013785e-09
3.7562884e-09
3.9468583e-09
4.1720971e-09
4.4353404e-09
4.7287443e-09
5.0405155e-09
5.3520312e-09
5.6457975e-09
5.908449e-09
6.1342756e-09
6.324279e-09
6.4823748e-09
6.614284e-09
6.726478e-09
6.8213516e-09
6.9026118e-09
6.968455e-09
7.0246926e-09
7.0718152e-09
7.112773e-09
7.147647e-09
7.179657e-09
7.2101726e-09
7.2385703e-09
7.2611568e-09
7.287088e-09
7.3288968e-09
7.362768e-09
7.3834107e-09
7.3968209e-09
0.001233706
0.0029151345
0.0036451863
0.0035874557
0.0025506874
0.00057446779
8.3663076e-08
3.3042224e-09
3.1317782e-09
3.1671514e-09
3.1003639e-09
3.1408802e-09
3.1279281e-09
3.1792765e-09
3.2066608e-09
3.2715608e-09
3.3348131e-09
3.4271024e-09
3.5330754e-09
3.6700229e-09
3.8332714e-09
4.0334008e-09
4.2692355e-09
4.5428424e-09
4.844626e-09
5.1607148e-09
5.4713289e-09
5.7590052e-09
6.0115014e-09
6.2247159e-09
6.4012188e-09
6.5459692e-09
6.6655654e-09
6.7671495e-09
6.8530201e-09
6.9268198e-09
6.9866579e-09
7.0383312e-09
7.0820776e-09
7.1206133e-09
7.1538198e-09
7.184846e-09
7.2146213e-09
7.2418993e-09
7.2637394e-09
7.2909341e-09
7.334581e-09
7.3661904e-09
7.3852811e-09
7.3979484e-09
0.0012330016
0.0028918268
0.0035833733
0.0034751416
0.0023431715
0.0004544658
3.2144158e-08
3.3292426e-09
3.1670608e-09
3.2026618e-09
3.1380043e-09
3.1799172e-09
3.1692919e-09
3.2227227e-09
3.253092e-09
3.3211603e-09
3.3886462e-09
3.4858168e-09
3.5979711e-09
3.7422312e-09
3.9143683e-09
4.1246095e-09
4.3714657e-09
4.6554848e-09
4.9651374e-09
5.284489e-09
5.5928427e-09
5.873098e-09
6.114381e-09
6.3143291e-09
6.4770672e-09
6.6084936e-09
6.715979e-09
6.8072511e-09
6.8843851e-09
6.9509103e-09
7.0048719e-09
7.0520748e-09
7.0925047e-09
7.1286502e-09
7.1602077e-09
7.1902441e-09
7.2191879e-09
7.245265e-09
7.2665655e-09
7.2955079e-09
7.3400168e-09
7.3694062e-09
7.3870109e-09
7.3989937e-09
0.0012322143
0.0028669168
0.0035182944
0.0033526832
0.0021287138
0.00034630344
1.4885084e-08
3.359198e-09
3.2034773e-09
3.2393265e-09
3.176996e-09
3.2204457e-09
3.2123652e-09
3.2680442e-09
3.3016004e-09
3.3730257e-09
3.4449999e-09
3.5473703e-09
3.6661477e-09
3.8182341e-09
3.9998502e-09
4.2207718e-09
4.4790293e-09
4.7733806e-09
5.0902029e-09
5.4115783e-09
5.7161954e-09
5.9876477e-09
6.2166756e-09
6.4027501e-09
6.5515144e-09
6.6696872e-09
6.7653054e-09
6.846598e-09
6.9152869e-09
6.9747471e-09
7.0229827e-09
7.0658344e-09
7.1030267e-09
7.1368321e-09
7.1667735e-09
7.1958155e-09
7.2238262e-09
7.2486355e-09
7.2697043e-09
7.3009787e-09
7.3450382e-09
7.3723847e-09
7.3886024e-09
7.3999534e-09
0.0012312539
0.0028401751
0.0034504027
0.0032283497
0.0019112141
0.00024847584
8.4614732e-09
3.3923226e-09
3.241165e-09
3.2773455e-09
3.2175558e-09
3.2626717e-09
3.2573094e-09
3.3153418e-09
3.3522612e-09
3.4272301e-09
3.5039839e-09
3.6119304e-09
3.7378167e-09
3.8982891e-09
4.089989e-09
4.3221524e-09
4.5920979e-09
4.8965428e-09
5.219629e-09
5.5416223e-09
5.840931e-09
6.1021868e-09
6.3179635e-09
6.4896334e-09
6.6242864e-09
6.7293279e-09
6.8133661e-09
6.8850401e-09
6.9455933e-09
6.998216e-09
7.0408935e-09
7.079532e-09
7.1135825e-09
7.1451128e-09
7.1734825e-09
7.2015232e-09
7.2284876e-09
7.2519817e-09
7.273193e-09
7.3073287e-09
7.3495522e-09
7.3751271e-09
7.3900727e-09
7.4008278e-09
0.0012300287
0.0028113482
0.0033758909
0.0031015253
0.0016934209
0.00016018597
5.810009e-09
3.4277888e-09
3.2804295e-09
3.3170141e-09
3.2598755e-09
3.3067114e-09
3.304162e-09
3.3646451e-09
3.4051072e-09
3.4838731e-09
3.565743e-09
3.6796903e-09
3.8132266e-09
3.98268e-09
4.1851072e-09
4.4290555e-09
4.7108897e-09
5.0249984e-09
5.3532294e-09
5.6742535e-09
5.9665881e-09
6.216248e-09
6.4178346e-09
6.5746583e-09
6.6951406e-09
6.7872156e-09
6.8600028e-09
6.9224417e-09
6.9751855e-09
7.0212133e-09
7.0585172e-09
7.0930945e-09
7.1241154e-09
7.1534488e-09
7.1803014e-09
7.2073289e-09
7.233129e-09
7.2552944e-09
7.2770371e-09
7.3140388e-09
7.3538493e-09
7.3776696e-09
7.3914371e-09
7.4016176e-09
0.0012288042
0.0027824062
0.0032991247
0.0029704869
0.0014784494
8.525456e-05
4.6245079e-09
3.4650935e-09
3.3214368e-09
3.3583805e-09
3.3039523e-09
3.3524973e-09
3.3529033e-09
3.4159552e-09
3.4602234e-09
3.5430734e-09
3.6304668e-09
3.7508909e-09
3.892651e-09
4.0717103e-09
4.2855103e-09
4.5417372e-09
4.8355137e-09
5.1586405e-09
5.4906766e-09
5.808989e-09
6.0926244e-09
6.3293236e-09
6.5158852e-09
6.6575377e-09
6.7638796e-09
6.8431877e-09
6.9050877e-09
6.9586931e-09
7.0039735e-09
7.0436541e-09
7.0757857e-09
7.1064593e-09
7.1345769e-09
7.1618031e-09
7.1871991e-09
7.2131944e-09
7.2377179e-09
7.2585939e-09
7.2812336e-09
7.3208636e-09
7.3579687e-09
7.3800291e-09
7.3926624e-09
7.4023248e-09
0.0012275064
0.0027527869
0.0032235531
0.0028325474
0.0012703285
3.4343117e-05
4.0792006e-09
3.5038401e-09
3.3639744e-09
3.4012943e-09
3.3496187e-09
3.3999988e-09
3.4035305e-09
3.469369e-09
3.5177379e-09
3.6050128e-09
3.6983785e-09
3.8257945e-09
3.9763863e-09
4.1657188e-09
4.391553e-09
4.6605065e-09
4.9661167e-09
5.2973809e-09
5.6316406e-09
5.9453391e-09
6.2184946e-09
6.4409258e-09
6.6117557e-09
6.7380276e-09
6.8303364e-09
6.8971066e-09
6.9485009e-09
6.9936969e-09
7.0318862e-09
7.0654613e-09
7.0926374e-09
7.1195694e-09
7.1449228e-09
7.1701422e-09
7.1941412e-09
7.2190815e-09
7.2422333e-09
7.2619336e-09
7.2857989e-09
7.3276016e-09
7.3618999e-09
7.3822091e-09
7.3937725e-09
7.402955e-09
0.0012260138
0.002721483
0.0031436656
0.0026854777
0.0010725924
1.0348496e-05
3.8346549e-09
3.5442037e-09
3.4077467e-09
3.4455605e-09
3.3968995e-09
3.4492718e-09
3.4561769e-09
3.5250317e-09
3.5778374e-09
3.6699106e-09
3.7697394e-09
3.9046913e-09
4.0647525e-09
4.2650485e-09
4.5035574e-09
4.7855823e-09
5.1026975e-09
5.4409583e-09
5.7756244e-09
6.0826816e-09
6.3435851e-09
6.5505836e-09
6.7051395e-09
6.8159291e-09
6.8943589e-09
6.9488705e-09
6.9901411e-09
7.0273889e-09
7.0588808e-09
7.0865739e-09
7.1090141e-09
7.1323806e-09
7.1551167e-09
7.1784383e-09
7.2010952e-09
7.2249527e-09
7.2466659e-09
7.2653981e-09
7.2907955e-09
7.3340941e-09
7.3655929e-09
7.3842041e-09
7.3947657e-09
7.4035129e-09
0.0012244358
0.0026891515
0.0030606408
0.0025304638
0.00088988212
2.591118e-06
3.7363891e-09
3.5864518e-09
3.4529308e-09
3.4913633e-09
3.4459558e-09
3.5004841e-09
3.5110001e-09
3.5831307e-09
3.6407386e-09
3.7380133e-09
3.8448209e-09
3.9878796e-09
4.158101e-09
4.3700794e-09
4.6219188e-09
4.9172235e-09
5.2453041e-09
5.5891121e-09
5.9221446e-09
6.2204091e-09
6.4673497e-09
6.6579457e-09
6.7958253e-09
6.8910797e-09
6.955764e-09
6.9983929e-09
7.0299205e-09
7.0597424e-09
7.0849186e-09
7.1069424e-09
7.1248419e-09
7.1448581e-09
7.1651259e-09
7.1866657e-09
7.2080367e-09
7.2307706e-09
7.2510155e-09
7.269092e-09
7.2963571e-09
7.3401805e-09
7.3690051e-09
7.3860089e-09
7.3956583e-09
7.4039964e-09
0.0012228149
0.0026563907
0.0029746612
0.0023695881
0.00072425819
6.1470316e-07
3.7109964e-09
3.6300999e-09
3.4996592e-09
3.5388823e-09
3.4969178e-09
3.5537819e-09
3.5681789e-09
3.6438809e-09
3.7066741e-09
3.8095819e-09
3.9239105e-09
4.0756962e-09
4.2567893e-09
4.4812044e-09
4.7469416e-09
5.0555701e-09
5.3937616e-09
5.7413849e-09
6.0705257e-09
6.3578261e-09
6.5892987e-09
6.7627701e-09
6.8836508e-09
6.9633061e-09
7.0143229e-09
7.0455895e-09
7.0678037e-09
7.0907926e-09
7.1099512e-09
7.1265394e-09
7.1400394e-09
7.1569785e-09
7.1749253e-09
7.194802e-09
7.2149418e-09
7.2364978e-09
7.2552861e-09
7.2731161e-09
7.3026711e-09
7.3457175e-09
7.3721095e-09
7.3876257e-09
7.3964611e-09
7.4044013e-09
0.0012213881
0.0026239786
0.002887724
0.0021980742
0.00057694442
1.6035127e-07
3.7215883e-09
3.6752604e-09
3.5479524e-09
3.5882262e-09
3.5499275e-09
3.6093491e-09
3.6279306e-09
3.7075085e-09
3.7758946e-09
3.8848842e-09
4.0073102e-09
4.1684928e-09
4.3612306e-09
4.5988666e-09
4.8790135e-09
5.2007969e-09
5.5479364e-09
5.8973202e-09
6.2201201e-09
6.4943464e-09
6.7091555e-09
6.8649333e-09
6.9684183e-09
7.0323613e-09
7.0698209e-09
7.0903432e-09
7.1038351e-09
7.120605e-09
7.1338928e-09
7.145346e-09
7.1545515e-09
7.1687153e-09
7.1844945e-09
7.2028265e-09
7.2217764e-09
7.2420982e-09
7.259482e-09
7.2775293e-09
7.3097818e-09
7.3506452e-09
7.3749286e-09
7.3890536e-09
7.3970954e-09
7.4046976e-09
0.0012201491
0.0025916069
0.0028101873
0.0020168245
0.00045230793
5.4171034e-08
3.7500029e-09
3.721875e-09
3.5978711e-09
3.6396444e-09
3.6051892e-09
3.6674259e-09
3.6904774e-09
3.774241e-09
3.8486456e-09
3.9641943e-09
4.0953598e-09
4.2666552e-09
4.4718613e-09
4.7234709e-09
5.0184012e-09
5.3528692e-09
5.7074379e-09
6.0562222e-09
6.3701495e-09
6.6294327e-09
6.8267559e-09
6.9641771e-09
7.0496736e-09
7.097847e-09
7.1222807e-09
7.132525e-09
7.1381688e-09
7.1491939e-09
7.1566592e-09
7.1633274e-09
7.168431e-09
7.1800305e-09
7.1938193e-09
7.2107211e-09
7.2285082e-09
7.2475391e-09
7.2636073e-09
7.2823249e-09
7.3172448e-09
7.3552443e-09
7.3775104e-09
7.3903262e-09
7.3975986e-09
7.4048159e-09
0.0012187727
0.0025565853
0.0027220563
0.0018250368
0.00034016397
2.2280166e-08
3.7876248e-09
3.7702486e-09
3.6498518e-09
3.6932472e-09
3.662926e-09
3.7282089e-09
3.7560236e-09
3.8442828e-09
3.9251767e-09
4.0478301e-09
4.1884195e-09
4.3706287e-09
4.5891677e-09
4.8555118e-09
5.1654255e-09
5.5118059e-09
5.8718902e-09
6.2174409e-09
6.5199779e-09
6.762808e-09
6.9419376e-09
7.0597551e-09
7.1268546e-09
7.1595453e-09
7.1718179e-09
7.1721158e-09
7.1709979e-09
7.1763364e-09
7.1782922e-09
7.1803837e-09
7.181881e-09
7.1908727e-09
7.2028887e-09
7.2184694e-09
7.2351065e-09
7.2527949e-09
7.2676727e-09
7.2874557e-09
7.3247143e-09
7.3596265e-09
7.3799044e-09
7.3914758e-09
7.398018e-09
7.4048592e-09
0.0012175704
0.0025206547
0.0026346676
0.0016274195
0.00024058138
1.1613722e-08
3.831325e-09
3.8207197e-09
3.7040644e-09
3.7493639e-09
3.7233003e-09
3.7918755e-09
3.8247535e-09
3.9178085e-09
4.00579e-09
4.136139e-09
4.2869147e-09
4.4808866e-09
4.7136513e-09
4.9953748e-09
5.3202218e-09
5.6773217e-09
6.0406264e-09
6.3801219e-09
6.6689668e-09
6.8942812e-09
7.0539107e-09
7.1509447e-09
7.1994831e-09
7.2174261e-09
7.2186718e-09
7.2092588e-09
7.2023506e-09
7.2017806e-09
7.1988852e-09
7.1963802e-09
7.19513e-09
7.2012192e-09
7.2116968e-09
7.2260575e-09
7.2415412e-09
7.2578504e-09
7.2717088e-09
7.2928782e-09
7.331982e-09
7.3637927e-09
7.382121e-09
7.3925199e-09
7.3983811e-09
7.4048694e-09
0.0012164754
0.0024827501
0.0025431521
0.001428002
0.00015202996
7.5478085e-09
3.8795117e-09
3.8733607e-09
3.7606616e-09
3.8079945e-09
3.7864328e-09
3.8585505e-09
3.8968949e-09
3.9951808e-09
4.0908068e-09
4.2295181e-09
4.3913045e-09
4.5979786e-09
4.8458674e-09
5.1435483e-09
5.4829563e-09
5.8491953e-09
6.2130147e-09
6.5435699e-09
6.8167576e-09
7.0236249e-09
7.1615818e-09
7.2370366e-09
7.2674369e-09
7.2723248e-09
7.2628336e-09
7.2444441e-09
7.2316979e-09
7.2259628e-09
7.2182187e-09
7.2113737e-09
7.2079735e-09
7.2111375e-09
7.220241e-09
7.2334721e-09
7.2477811e-09
7.2627038e-09
7.2757788e-09
7.2986037e-09
7.3389012e-09
7.3676758e-09
7.3841418e-09
7.3934526e-09
7.3986903e-09
7.4048687e-09
0.001215258
0.0024404566
0.002447746
0.0012389443
7.8882573e-05
5.8329396e-09
3.9309152e-09
3.9281615e-09
3.8195568e-09
3.869251e-09
3.8524542e-09
3.928474e-09
3.9727394e-09
4.0766973e-09
4.1806089e-09
4.3284225e-09
4.5021235e-09
4.7224662e-09
4.9863492e-09
5.3003102e-09
5.6535274e-09
6.02681e-09
6.3881627e-09
6.7069957e-09
6.9630406e-09
7.1496451e-09
7.2640664e-09
7.3175667e-09
7.3315767e-09
7.3242588e-09
7.3041276e-09
7.2776531e-09
7.2591639e-09
7.2487996e-09
7.2364107e-09
7.2255495e-09
7.2200759e-09
7.2208011e-09
7.2285199e-09
7.2407002e-09
7.2537976e-09
7.2673666e-09
7.2799846e-09
7.3047394e-09
7.3453127e-09
7.371202e-09
7.3859319e-09
7.3942608e-09
7.3989618e-09
7.4048656e-09
0.0012135674
0.0023922649
0.0023461004
0.0010609846
3.0817302e-05
5.0688475e-09
3.984975e-09
3.9851581e-09
3.8809477e-09
3.9333591e-09
3.9216161e-09
4.0019117e-09
4.052598e-09
4.1627349e-09
4.2756235e-09
4.4333575e-09
4.6199547e-09
4.8549886e-09
5.1356876e-09
5.4660245e-09
5.8318566e-09
6.2096263e-09
6.5653128e-09
6.8699052e-09
7.1075554e-09
7.2709908e-09
7.3604747e-09
7.3929378e-09
7.3926278e-09
7.3727893e-09
7.3427068e-09
7.3088437e-09
7.2848423e-09
7.2703905e-09
7.2535512e-09
7.2390264e-09
7.2311551e-09
7.2303293e-09
7.2365253e-09
7.2477269e-09
7.2595759e-09
7.2718621e-09
7.2844487e-09
7.3114916e-09
7.3510208e-09
7.3743173e-09
7.3874673e-09
7.3949404e-09
7.3992149e-09
7.40484e-09
0.0012111603
0.0023381212
0.0022361251
0.00089460384
9.1169602e-06
4.7330019e-09
4.0417083e-09
4.0446351e-09
3.9451069e-09
4.0005979e-09
3.9942621e-09
4.0791322e-09
4.1368285e-09
4.2537018e-09
4.3763367e-09
4.5449198e-09
4.7454335e-09
4.9961822e-09
5.2943399e-09
5.6407591e-09
6.0174629e-09
6.3967113e-09
6.743525e-09
7.0318072e-09
7.2490049e-09
7.3864814e-09
7.4503405e-09
7.4645547e-09
7.4498401e-09
7.4180821e-09
7.3786298e-09
7.3380181e-09
7.3088578e-09
7.2907604e-09
7.2696704e-09
7.2516921e-09
7.2415265e-09
7.2396107e-09
7.2442366e-09
7.2545363e-09
7.2651005e-09
7.2762218e-09
7.2892652e-09
7.3189376e-09
7.355898e-09
7.3770519e-09
7.3887816e-09
7.3954385e-09
7.3993351e-09
7.4047919e-09
0.0012078954
0.0022771079
0.0021074477
0.00074128277
2.2686486e-06
4.6012749e-09
4.101201e-09
4.1068675e-09
4.0123229e-09
4.0712655e-09
4.0706895e-09
4.1604923e-09
4.2257853e-09
4.3500728e-09
4.4833269e-09
4.6637506e-09
4.8792649e-09
5.1467485e-09
5.4628414e-09
5.8246424e-09
6.2099307e-09
6.5872927e-09
6.9221438e-09
7.1924228e-09
7.3857902e-09
7.4951467e-09
7.5345787e-09
7.5323391e-09
7.503204e-09
7.4601513e-09
7.4120128e-09
7.3652113e-09
7.3313105e-09
7.3099602e-09
7.2847429e-09
7.2635268e-09
7.2513224e-09
7.2486422e-09
7.2516312e-09
7.2611115e-09
7.270361e-09
7.2804815e-09
7.2944445e-09
7.3264607e-09
7.3603361e-09
7.3794999e-09
7.3899364e-09
7.3958265e-09
7.3993918e-09
7.4047217e-09
0.0012041035
0.0022112481
0.0019623569
0.00060357368
5.4715446e-07
4.5699145e-09
4.1637491e-09
4.17214e-09
4.0829256e-09
4.1455782e-09
4.151172e-09
4.2462975e-09
4.319973e-09
4.452397e-09
4.5972467e-09
4.7905728e-09
5.0221736e-09
5.3073136e-09
5.6414648e-09
6.0173793e-09
6.4083728e-09
6.7803004e-09
7.1004161e-09
7.3506319e-09
7.5162794e-09
7.5963211e-09
7.6146093e-09
7.5956884e-09
7.5527428e-09
7.4991246e-09
7.4429516e-09
7.3904852e-09
7.3523046e-09
7.3280246e-09
7.2987586e-09
7.2745817e-09
7.2606373e-09
7.2573608e-09
7.2587318e-09
7.2674359e-09
7.2753607e-09
7.2846783e-09
7.2999282e-09
7.3338073e-09
7.3644502e-09
7.3817049e-09
7.3909807e-09
7.3961925e-09
7.3994165e-09
7.4045637e-09
0.0011999726
0.0021418956
0.0018027791
0.00048073214
1.4832281e-07
4.5889959e-09
4.22949e-09
4.2407665e-09
4.1569643e-09
4.2237944e-09
4.2360218e-09
4.3370825e-09
4.4199636e-09
4.5613479e-09
4.7188078e-09
4.9261375e-09
5.1749602e-09
5.4785598e-09
5.8305663e-09
6.2187251e-09
6.612068e-09
6.9749682e-09
7.2779696e-09
7.5046078e-09
7.6393857e-09
7.6909902e-09
7.6902544e-09
7.6545446e-09
7.5985663e-09
7.5351123e-09
7.4715547e-09
7.4139049e-09
7.3719464e-09
7.3449902e-09
7.3117507e-09
7.284943e-09
7.2694836e-09
7.2656276e-09
7.2656421e-09
7.2734958e-09
7.2801072e-09
7.2888604e-09
7.3056522e-09
7.3408231e-09
7.3683032e-09
7.3836693e-09
7.3918232e-09
7.3963802e-09
7.3994167e-09
7.4042815e-09
0.0011954844
0.0020689548
0.0016390467
0.00037555217
5.3111562e-08
4.6333622e-09
4.2984338e-09
4.31263e-09
4.234722e-09
4.3062539e-09
4.325823e-09
4.4334621e-09
4.5264403e-09
4.6776457e-09
4.848768e-09
5.07127e-09
5.338371e-09
5.6609926e-09
6.0300464e-09
6.427919e-09
6.8198289e-09
7.1703229e-09
7.4540161e-09
7.652117e-09
7.7541061e-09
7.7806362e-09
7.7608715e-09
7.7089693e-09
7.6407944e-09
7.5682491e-09
7.49793e-09
7.4355626e-09
7.3903292e-09
7.3608988e-09
7.3237936e-09
7.2947153e-09
7.2778877e-09
7.2732525e-09
7.2724785e-09
7.2792816e-09
7.2846151e-09
7.2931382e-09
7.3116414e-09
7.3473689e-09
7.3718519e-09
7.3854235e-09
7.3925183e-09
7.3964404e-09
7.3992623e-09
7.403906e-09
0.0011908184
0.0019885284
0.0014776678
0.00028080777
2.3338452e-08
4.6902463e-09
4.3703689e-09
4.3882254e-09
4.3167767e-09
4.393645e-09
4.421276e-09
4.5361225e-09
4.6401323e-09
4.8020313e-09
4.9879336e-09
5.2268223e-09
5.5132605e-09
5.8551456e-09
6.2399158e-09
6.6442885e-09
7.0308332e-09
7.3657495e-09
7.6266124e-09
7.7919267e-09
7.8610659e-09
7.8654632e-09
7.8262628e-09
7.759089e-09
7.6795811e-09
7.598675e-09
7.5221926e-09
7.4555729e-09
7.4075246e-09
7.375794e-09
7.3349678e-09
7.303946e-09
7.2858837e-09
7.2803659e-09
7.2791208e-09
7.2847852e-09
7.2889273e-09
7.2974114e-09
7.3180372e-09
7.353267e-09
7.3750323e-09
7.3869737e-09
7.3931134e-09
7.396447e-09
7.399043e-09
7.403457e-09
0.0011873835
0.0019083039
0.0013143085
0.00019524866
1.2851015e-08
4.7553855e-09
4.4461919e-09
4.4680749e-09
4.4038646e-09
4.4866862e-09
4.5230325e-09
4.6457513e-09
4.761611e-09
4.9353178e-09
5.1371858e-09
5.3937182e-09
5.7003174e-09
6.0612243e-09
6.4595432e-09
6.8666492e-09
7.2438319e-09
7.5603922e-09
7.7932624e-09
7.9225972e-09
7.961815e-09
7.9446907e-09
7.8865314e-09
7.8050479e-09
7.715085e-09
7.6265356e-09
7.5444626e-09
7.4740482e-09
7.4236083e-09
7.3897288e-09
7.3453428e-09
7.3126217e-09
7.2933993e-09
7.2871184e-09
7.2855683e-09
7.2899879e-09
7.293079e-09
7.3020933e-09
7.3249946e-09
7.3583796e-09
7.3777782e-09
7.3882898e-09
7.3936374e-09
7.3964546e-09
7.3987831e-09
7.4029678e-09
0.0011854855
0.0018307281
0.0011518764
0.00011897039
8.6790088e-09
4.8262223e-09
4.5265176e-09
4.5531579e-09
4.4967294e-09
4.5859697e-09
4.6317008e-09
4.763016e-09
4.8917182e-09
5.0783862e-09
5.2974785e-09
5.5729298e-09
5.9003184e-09
6.2794513e-09
6.6884546e-09
7.0940831e-09
7.4580144e-09
7.7528938e-09
7.9520093e-09
8.0439919e-09
8.0573639e-09
8.0178584e-09
7.9418112e-09
7.8470364e-09
7.7474848e-09
7.6519826e-09
7.5648638e-09
7.4910998e-09
7.4386502e-09
7.4027541e-09
7.3549574e-09
7.3207383e-09
7.3004829e-09
7.293576e-09
7.2918066e-09
7.29488e-09
7.2971194e-09
7.3069198e-09
7.3323931e-09
7.3627407e-09
7.3801215e-09
7.3893475e-09
7.393938e-09
7.3963754e-09
7.3984753e-09
7.4024684e-09
0.0011846473
0.0017475301
0.00099328919
5.8138244e-05
6.8696785e-09
4.9022906e-09
4.6123257e-09
4.6441151e-09
4.5958435e-09
4.6919564e-09
4.7478769e-09
4.8886483e-09
5.0313451e-09
5.2322338e-09
5.4698674e-09
5.7653728e-09
6.1137338e-09
6.5094565e-09
6.9254751e-09
7.325189e-09
7.6722264e-09
7.940376e-09
8.1012001e-09