/*--------------------------------*- C++ -*----------------------------------*\
  =========                 |
  \\      /  F ield         | OpenFOAM: The Open Source CFD Toolbox
   \\    /   O peration     | Website:  https://openfoam.org
    \\  /    A nd           | Version:  8
     \\/     M anipulation  |
\*---------------------------------------------------------------------------*/
FoamFile
{
    version     2.0;
    format      ascii;
    class       volScalarField;
    location    "0.149996";
    object      nuTilda;
}
// * * * * * * * * * * * * * * * * * * * * * * * * * * * * * * * * * * * * * //

dimensions      [0 2 -1 0 0 0 0];

internalField   nonuniform List<scalar> 
20000
(
0.0012751418
0.0032786084
0.0045537181
0.0051994508
0.0050580552
0.0038635419
0.0013066923
7.3718924e-05
1.0269634e-05
1.0139292e-05
1.0063748e-05
1.0066476e-05
1.0027815e-05
1.0033075e-05
1.0017085e-05
1.0017372e-05
1.0009774e-05
1.0007976e-05
1.0004803e-05
1.0003534e-05
1.000226e-05
1.0001606e-05
1.0001204e-05
1.0001081e-05
1.0000964e-05
1.0000782e-05
1.0000593e-05
1.0000488e-05
1.0000449e-05
1.0000443e-05
1.0000485e-05
1.0000608e-05
1.000073e-05
1.0000728e-05
1.0000727e-05
1.0000803e-05
1.000075e-05
1.0000864e-05
1.0000993e-05
1.0001065e-05
1.0001086e-05
1.0001106e-05
1.0001149e-05
1.0001054e-05
1.0000691e-05
1.0000577e-05
1.0000435e-05
1.0000491e-05
1.0000753e-05
1.000107e-05
0.001262684
0.0032513963
0.0045011985
0.0051170673
0.0049341262
0.0036991229
0.001148901
5.7121252e-05
1.0216936e-05
1.0139927e-05
1.0063208e-05
1.0066324e-05
1.002756e-05
1.0032971e-05
1.0016875e-05
1.0017233e-05
1.0009686e-05
1.0007908e-05
1.0004754e-05
1.0003491e-05
1.0002229e-05
1.000158e-05
1.0001177e-05
1.0001059e-05
1.0000949e-05
1.0000778e-05
1.0000596e-05
1.0000468e-05
1.0000412e-05
1.0000398e-05
1.0000437e-05
1.0000568e-05
1.000069e-05
1.0000704e-05
1.0000706e-05
1.0000788e-05
1.0000732e-05
1.0000841e-05
1.0000973e-05
1.0001049e-05
1.0001072e-05
1.0001091e-05
1.000115e-05
1.0001064e-05
1.0000687e-05
1.0000562e-05
1.0000417e-05
1.0000421e-05
1.0000625e-05
1.0001047e-05
0.0012580052
0.0032300986
0.0044512954
0.0050309777
0.0048058575
0.0035153043
0.00098670322
4.3703402e-05
1.0183196e-05
1.0139317e-05
1.0062668e-05
1.0066008e-05
1.0027335e-05
1.0032782e-05
1.0016672e-05
1.0017073e-05
1.0009584e-05
1.0007828e-05
1.0004704e-05
1.0003459e-05
1.0002215e-05
1.000158e-05
1.0001182e-05
1.0001062e-05
1.0000951e-05
1.000078e-05
1.0000601e-05
1.0000468e-05
1.0000405e-05
1.000039e-05
1.0000432e-05
1.0000565e-05
1.0000695e-05
1.0000706e-05
1.0000696e-05
1.0000784e-05
1.0000726e-05
1.0000835e-05
1.0000968e-05
1.0001045e-05
1.0001067e-05
1.0001082e-05
1.0001141e-05
1.0001069e-05
1.0000683e-05
1.0000549e-05
1.0000408e-05
1.0000418e-05
1.0000643e-05
1.0001009e-05
0.0012551325
0.0032090824
0.0044014108
0.0049421772
0.0046767797
0.003324944
0.00084313923
3.3679469e-05
1.0161954e-05
1.0138661e-05
1.0062077e-05
1.0065624e-05
1.0027138e-05
1.0032569e-05
1.0016479e-05
1.00169e-05
1.0009485e-05
1.0007742e-05
1.0004651e-05
1.0003416e-05
1.0002191e-05
1.0001567e-05
1.0001174e-05
1.0001063e-05
1.0000955e-05
1.0000784e-05
1.0000606e-05
1.000047e-05
1.0000406e-05
1.0000389e-05
1.0000427e-05
1.0000553e-05
1.0000687e-05
1.0000699e-05
1.0000691e-05
1.0000784e-05
1.0000724e-05
1.0000828e-05
1.000096e-05
1.0001039e-05
1.0001059e-05
1.000107e-05
1.0001135e-05
1.0001075e-05
1.0000679e-05
1.0000538e-05
1.00004e-05
1.0000408e-05
1.0000622e-05
1.0000992e-05
0.0012530794
0.0031887645
0.0043527887
0.0048581269
0.0045463657
0.003125789
0.00071167646
2.6254927e-05
1.014828e-05
1.013791e-05
1.0061445e-05
1.0065173e-05
1.0026977e-05
1.0032334e-05
1.0016294e-05
1.0016721e-05
1.0009387e-05
1.0007654e-05
1.00046e-05
1.0003376e-05
1.0002171e-05
1.0001559e-05
1.000117e-05
1.0001067e-05
1.0000956e-05
1.0000786e-05
1.000061e-05
1.0000471e-05
1.0000403e-05
1.0000386e-05
1.0000422e-05
1.0000544e-05
1.000068e-05
1.0000697e-05
1.0000684e-05
1.0000782e-05
1.0000721e-05
1.0000823e-05
1.0000954e-05
1.0001034e-05
1.0001052e-05
1.0001057e-05
1.0001126e-05
1.0001079e-05
1.0000673e-05
1.0000527e-05
1.0000394e-05
1.0000402e-05
1.0000609e-05
1.0000969e-05
0.0012512538
0.0031682421
0.0043031342
0.0047721727
0.0044146454
0.0029182903
0.00059172723
2.0891317e-05
1.0139407e-05
1.0136827e-05
1.0060774e-05
1.0064652e-05
1.0026805e-05
1.0032075e-05
1.0016119e-05
1.0016533e-05
1.0009291e-05
1.0007561e-05
1.0004547e-05
1.0003333e-05
1.0002149e-05
1.0001549e-05
1.0001165e-05
1.0001069e-05
1.0000957e-05
1.0000787e-05
1.0000613e-05
1.0000473e-05
1.0000401e-05
1.0000384e-05
1.0000419e-05
1.0000535e-05
1.0000672e-05
1.0000693e-05
1.0000678e-05
1.000078e-05
1.0000719e-05
1.0000817e-05
1.0000947e-05
1.0001028e-05
1.0001046e-05
1.0001042e-05
1.0001111e-05
1.0001081e-05
1.0000667e-05
1.0000521e-05
1.0000389e-05
1.0000395e-05
1.0000595e-05
1.0000943e-05
0.0012494963
0.0031475449
0.004252631
0.0046851883
0.0042820562
0.002702967
0.0004844748
1.7136611e-05
1.0133485e-05
1.0135353e-05
1.0060068e-05
1.0064067e-05
1.0026623e-05
1.0031793e-05
1.0015953e-05
1.0016337e-05
1.0009196e-05
1.0007466e-05
1.0004495e-05
1.000329e-05
1.0002128e-05
1.0001539e-05
1.0001161e-05
1.0001071e-05
1.0000957e-05
1.0000788e-05
1.0000616e-05
1.0000476e-05
1.00004e-05
1.0000381e-05
1.0000415e-05
1.0000527e-05
1.0000664e-05
1.0000689e-05
1.0000671e-05
1.0000778e-05
1.0000716e-05
1.0000812e-05
1.0000941e-05
1.0001023e-05
1.000104e-05
1.0001028e-05
1.0001092e-05
1.0001078e-05
1.0000662e-05
1.0000524e-05
1.0000384e-05
1.0000388e-05
1.0000582e-05
1.0000915e-05
0.0012477116
0.0031265162
0.0042007899
0.004596642
0.0041485617
0.0024807961
0.00039027786
1.4587584e-05
1.0129286e-05
1.0133692e-05
1.0059329e-05
1.006342e-05
1.0026433e-05
1.003149e-05
1.0015797e-05
1.0016134e-05
1.0009103e-05
1.0007368e-05
1.0004442e-05
1.0003245e-05
1.0002106e-05
1.000153e-05
1.0001157e-05
1.0001073e-05
1.0000957e-05
1.0000789e-05
1.0000619e-05
1.0000478e-05
1.0000399e-05
1.000038e-05
1.0000412e-05
1.0000519e-05
1.0000655e-05
1.0000685e-05
1.0000665e-05
1.0000775e-05
1.0000714e-05
1.0000807e-05
1.0000934e-05
1.0001017e-05
1.0001034e-05
1.0001014e-05
1.0001069e-05
1.0001071e-05
1.000066e-05
1.0000539e-05
1.000038e-05
1.0000382e-05
1.0000569e-05
1.0000881e-05
0.0012459534
0.0031052391
0.0041477337
0.0045061212
0.0040138835
0.0022537916
0.00030928596
1.291135e-05
1.0126105e-05
1.0131922e-05
1.0058562e-05
1.0062713e-05
1.0026235e-05
1.0031164e-05
1.001565e-05
1.0015923e-05
1.0009011e-05
1.0007267e-05
1.0004389e-05
1.00032e-05
1.0002084e-05
1.000152e-05
1.0001154e-05
1.0001074e-05
1.0000957e-05
1.0000789e-05
1.0000621e-05
1.0000481e-05
1.0000398e-05
1.0000378e-05
1.0000409e-05
1.0000511e-05
1.0000647e-05
1.0000681e-05
1.0000659e-05
1.0000773e-05
1.0000711e-05
1.0000802e-05
1.0000928e-05
1.0001011e-05
1.0001029e-05
1.0001003e-05
1.0001045e-05
1.0001056e-05
1.000066e-05
1.0000566e-05
1.0000377e-05
1.0000377e-05
1.0000557e-05
1.000084e-05
0.0012442933
0.0030839106
0.004093918
0.0044129834
0.0038771089
0.0020253387
0.00024116454
1.1842516e-05
1.0123531e-05
1.013004e-05
1.0057768e-05
1.0061948e-05
1.0026033e-05
1.0030818e-05
1.0015512e-05
1.0015705e-05
1.0008922e-05
1.0007164e-05
1.0004337e-05
1.0003155e-05
1.0002062e-05
1.000151e-05
1.000115e-05
1.0001075e-05
1.0000956e-05
1.0000789e-05
1.0000623e-05
1.0000484e-05
1.0000399e-05
1.0000377e-05
1.0000406e-05
1.0000503e-05
1.0000638e-05
1.0000677e-05
1.0000653e-05
1.000077e-05
1.0000708e-05
1.0000798e-05
1.0000922e-05
1.0001006e-05
1.0001023e-05
1.0000993e-05
1.0001019e-05
1.0001034e-05
1.0000659e-05
1.00006e-05
1.0000373e-05
1.0000372e-05
1.0000545e-05
1.0000798e-05
0.0012428052
0.0030625995
0.0040390143
0.0043165342
0.0037369276
0.0018039356
0.00018521842
1.1180821e-05
1.0121311e-05
1.0128056e-05
1.0056952e-05
1.0061129e-05
1.0025825e-05
1.0030451e-05
1.0015383e-05
1.0015482e-05
1.0008834e-05
1.0007059e-05
1.0004284e-05
1.0003108e-05
1.0002041e-05
1.0001501e-05
1.0001147e-05
1.0001075e-05
1.0000955e-05
1.0000789e-05
1.0000624e-05
1.0000487e-05
1.0000399e-05
1.0000376e-05
1.0000404e-05
1.0000496e-05
1.0000629e-05
1.0000673e-05
1.0000646e-05
1.0000767e-05
1.0000705e-05
1.0000794e-05
1.0000916e-05
1.0001e-05
1.0001018e-05
1.0000984e-05
1.0000994e-05
1.0001005e-05
1.0000659e-05
1.0000628e-05
1.0000371e-05
1.0000368e-05
1.0000533e-05
1.0000767e-05
0.0012416018
0.003041599
0.0039837151
0.004216625
0.0035920279
0.0015909632
0.00014012317
1.0781389e-05
1.0119293e-05
1.0125979e-05
1.0056117e-05
1.0060261e-05
1.0025614e-05
1.0030066e-05
1.0015263e-05
1.0015252e-05
1.0008748e-05
1.0006953e-05
1.0004231e-05
1.0003062e-05
1.0002019e-05
1.0001491e-05
1.0001145e-05
1.0001075e-05
1.0000954e-05
1.0000788e-05
1.0000625e-05
1.0000489e-05
1.00004e-05
1.0000375e-05
1.0000403e-05
1.0000489e-05
1.000062e-05
1.0000668e-05
1.000064e-05
1.0000763e-05
1.0000702e-05
1.000079e-05
1.0000911e-05
1.0000995e-05
1.0001012e-05
1.0000977e-05
1.000097e-05
1.000097e-05
1.0000658e-05
1.0000647e-05
1.0000368e-05
1.0000364e-05
1.0000522e-05
1.000074e-05
0.0012406302
0.0030211008
0.0039288531
0.0041148126
0.0034424262
0.0013883438
0.00010448985
1.0544976e-05
1.0117391e-05
1.0123808e-05
1.0055265e-05
1.0059344e-05
1.00254e-05
1.0029664e-05
1.0015151e-05
1.0015017e-05
1.0008663e-05
1.0006845e-05
1.0004178e-05
1.0003015e-05
1.0001998e-05
1.0001482e-05
1.0001143e-05
1.0001075e-05
1.0000952e-05
1.0000787e-05
1.0000625e-05
1.000049e-05
1.0000401e-05
1.0000375e-05
1.0000401e-05
1.0000483e-05
1.0000611e-05
1.0000664e-05
1.0000633e-05
1.0000759e-05
1.0000698e-05
1.0000786e-05
1.0000905e-05
1.000099e-05
1.0001007e-05
1.0000969e-05
1.0000951e-05
1.0000934e-05
1.0000657e-05
1.0000644e-05
1.0000365e-05
1.000036e-05
1.0000511e-05
1.0000717e-05
0.0012397389
0.0030007397
0.0038742212
0.0040186941
0.0032846685
0.0011976498
7.7072496e-05
1.0407748e-05
1.0115551e-05
1.0121564e-05
1.0054399e-05
1.0058386e-05
1.0025184e-05
1.0029245e-05
1.0015045e-05
1.0014775e-05
1.000858e-05
1.0006736e-05
1.0004126e-05
1.0002969e-05
1.0001977e-05
1.0001473e-05
1.0001141e-05
1.0001075e-05
1.000095e-05
1.0000786e-05
1.0000625e-05
1.0000491e-05
1.0000402e-05
1.0000375e-05
1.0000399e-05
1.0000476e-05
1.0000603e-05
1.0000659e-05
1.0000627e-05
1.0000755e-05
1.0000694e-05
1.0000782e-05
1.00009e-05
1.0000985e-05
1.0001002e-05
1.0000963e-05
1.0000937e-05
1.0000909e-05
1.0000656e-05
1.0000616e-05
1.0000363e-05
1.0000357e-05
1.00005e-05
1.0000695e-05
0.0012388659
0.0029802996
0.003819076
0.0039130338
0.0031163502
0.0010201119
5.6336617e-05
1.0328973e-05
1.0113747e-05
1.0119248e-05
1.0053523e-05
1.0057388e-05
1.0024967e-05
1.0028809e-05
1.0014948e-05
1.0014518e-05
1.0008499e-05
1.0006627e-05
1.0004074e-05
1.0002922e-05
1.0001956e-05
1.0001463e-05
1.0001139e-05
1.0001074e-05
1.0000948e-05
1.0000784e-05
1.0000624e-05
1.0000492e-05
1.0000403e-05
1.0000375e-05
1.0000397e-05
1.0000471e-05
1.0000594e-05
1.0000655e-05
1.0000621e-05
1.000075e-05
1.000069e-05
1.0000778e-05
1.0000894e-05
1.000098e-05
1.0000997e-05
1.0000958e-05
1.0000927e-05
1.0000889e-05
1.0000653e-05
1.0000569e-05
1.000036e-05
1.0000354e-05
1.0000489e-05
1.0000673e-05
0.0012380022
0.0029595926
0.0037643006
0.0038074978
0.0029383346
0.00085737962
4.1113238e-05
1.0283695e-05
1.0111966e-05
1.0116866e-05
1.0052638e-05
1.0056354e-05
1.002475e-05
1.0028357e-05
1.0014857e-05
1.0014261e-05
1.0008419e-05
1.0006517e-05
1.0004022e-05
1.0002876e-05
1.0001936e-05
1.0001455e-05
1.0001138e-05
1.0001073e-05
1.0000946e-05
1.0000782e-05
1.0000623e-05
1.0000492e-05
1.0000403e-05
1.0000375e-05
1.0000396e-05
1.0000465e-05
1.0000585e-05
1.000065e-05
1.0000614e-05
1.0000745e-05
1.0000685e-05
1.0000774e-05
1.0000889e-05
1.0000975e-05
1.0000992e-05
1.0000952e-05
1.0000919e-05
1.0000867e-05
1.0000651e-05
1.0000534e-05
1.0000358e-05
1.0000352e-05
1.0000478e-05
1.0000652e-05
0.0012371041
0.0029377225
0.0037051214
0.0036978967
0.0027497355
0.00071285152
3.0381357e-05
1.0257254e-05
1.0110201e-05
1.0114434e-05
1.0051748e-05
1.005529e-05
1.0024533e-05
1.0027893e-05
1.0014772e-05
1.0014003e-05
1.000834e-05
1.0006408e-05
1.0003971e-05
1.0002831e-05
1.0001916e-05
1.0001446e-05
1.0001138e-05
1.0001071e-05
1.0000943e-05
1.000078e-05
1.0000622e-05
1.0000491e-05
1.0000403e-05
1.0000375e-05
1.0000394e-05
1.000046e-05
1.0000577e-05
1.0000646e-05
1.0000608e-05
1.000074e-05
1.000068e-05
1.000077e-05
1.0000885e-05
1.0000969e-05
1.0000987e-05
1.0000947e-05
1.0000909e-05
1.0000839e-05
1.0000649e-05
1.0000507e-05
1.0000355e-05
1.0000349e-05
1.0000468e-05
1.000063e-05
0.0012363387
0.0029156111
0.0036454897
0.0035877625
0.0025512616
0.0005842725
2.3031358e-05
1.0241031e-05
1.010845e-05
1.0111954e-05
1.0050855e-05
1.00542e-05
1.0024318e-05
1.0027418e-05
1.0014693e-05
1.0013745e-05
1.0008263e-05
1.0006299e-05
1.000392e-05
1.0002786e-05
1.0001897e-05
1.0001438e-05
1.0001138e-05
1.000107e-05
1.000094e-05
1.0000778e-05
1.000062e-05
1.0000491e-05
1.0000403e-05
1.0000374e-05
1.0000393e-05
1.0000455e-05
1.0000568e-05
1.0000641e-05
1.0000602e-05
1.0000734e-05
1.0000675e-05
1.0000765e-05
1.000088e-05
1.0000964e-05
1.0000981e-05
1.000094e-05
1.0000899e-05
1.0000813e-05
1.0000648e-05
1.0000484e-05
1.0000351e-05
1.0000346e-05
1.0000457e-05
1.0000608e-05
0.0012356042
0.0028923052
0.0035836834
0.0034754643
0.0023438393
0.0004692028
1.8073769e-05
1.0230438e-05
1.0106711e-05
1.0109444e-05
1.0049961e-05
1.0053091e-05
1.0024106e-05
1.0026935e-05
1.0014617e-05
1.001349e-05
1.0008186e-05
1.0006191e-05
1.0003869e-05
1.0002742e-05
1.0001878e-05
1.000143e-05
1.0001138e-05
1.0001068e-05
1.0000937e-05
1.0000775e-05
1.0000618e-05
1.000049e-05
1.0000403e-05
1.0000374e-05
1.0000391e-05
1.000045e-05
1.000056e-05
1.0000636e-05
1.0000595e-05
1.0000729e-05
1.0000669e-05
1.0000759e-05
1.0000875e-05
1.0000958e-05
1.0000975e-05
1.0000934e-05
1.0000889e-05
1.0000795e-05
1.0000646e-05
1.000047e-05
1.0000348e-05
1.0000344e-05
1.0000447e-05
1.0000585e-05
0.0012347873
0.0028673975
0.0035186119
0.0033530251
0.0021295075
0.00036902312
1.4864187e-05
1.0222909e-05
1.010498e-05
1.0106907e-05
1.0049068e-05
1.0051965e-05
1.0023896e-05
1.0026446e-05
1.0014544e-05
1.0013239e-05
1.000811e-05
1.0006083e-05
1.0003818e-05
1.0002699e-05
1.000186e-05
1.0001422e-05
1.0001139e-05
1.0001066e-05
1.0000934e-05
1.0000772e-05
1.0000616e-05
1.0000488e-05
1.0000402e-05
1.0000373e-05
1.000039e-05
1.0000446e-05
1.0000551e-05
1.0000631e-05
1.0000589e-05
1.0000723e-05
1.0000663e-05
1.0000754e-05
1.0000871e-05
1.0000952e-05
1.0000969e-05
1.0000928e-05
1.0000881e-05
1.0000782e-05
1.0000644e-05
1.0000466e-05
1.0000344e-05
1.0000341e-05
1.0000438e-05
1.0000562e-05
0.0012337978
0.0028406587
0.0034507286
0.0032287133
0.0019121792
0.00028377755
1.2868403e-05
1.021697e-05
1.0103253e-05
1.0104352e-05
1.0048179e-05
1.0050825e-05
1.002369e-05
1.0025952e-05
1.0014474e-05
1.0012995e-05
1.0008033e-05
1.0005978e-05
1.0003769e-05
1.0002657e-05
1.0001842e-05
1.0001415e-05
1.000114e-05
1.0001064e-05
1.0000931e-05
1.0000769e-05
1.0000613e-05
1.0000486e-05
1.0000401e-05
1.0000372e-05
1.0000388e-05
1.0000442e-05
1.0000543e-05
1.0000626e-05
1.0000583e-05
1.0000717e-05
1.0000657e-05
1.0000747e-05
1.0000865e-05
1.0000947e-05
1.0000963e-05
1.0000921e-05
1.0000875e-05
1.0000772e-05
1.0000643e-05
1.0000463e-05
1.000034e-05
1.0000337e-05
1.0000431e-05
1.0000538e-05
0.0012325448
0.0028118354
0.0033762268
0.0031019134
0.0016946249
0.00021311998
1.1678952e-05
1.0211757e-05
1.0101526e-05
1.0101788e-05
1.0047294e-05
1.0049677e-05
1.0023488e-05
1.0025455e-05
1.0014406e-05
1.0012763e-05
1.0007956e-05
1.0005873e-05
1.0003719e-05
1.0002616e-05
1.0001825e-05
1.0001408e-05
1.0001142e-05
1.0001062e-05
1.0000927e-05
1.0000765e-05
1.000061e-05
1.0000484e-05
1.00004e-05
1.0000371e-05
1.0000387e-05
1.0000438e-05
1.0000534e-05
1.000062e-05
1.0000577e-05
1.000071e-05
1.0000651e-05
1.0000741e-05
1.000086e-05
1.0000941e-05
1.0000958e-05
1.0000915e-05
1.0000869e-05
1.0000764e-05
1.0000643e-05
1.0000462e-05
1.0000335e-05
1.0000334e-05
1.0000421e-05
1.0000513e-05
0.0012312917
0.0027828969
0.0032994715
0.0029709035
0.0014799952
0.00015602049
1.0997286e-05
1.0206684e-05
1.0099798e-05
1.0099214e-05
1.0046416e-05
1.0048522e-05
1.0023292e-05
1.0024958e-05
1.001434e-05
1.0012537e-05
1.0007879e-05
1.0005771e-05
1.0003671e-05
1.0002576e-05
1.0001809e-05
1.0001402e-05
1.0001143e-05
1.0001059e-05
1.0000923e-05
1.0000761e-05
1.0000607e-05
1.0000482e-05
1.0000399e-05
1.000037e-05
1.0000386e-05
1.0000434e-05
1.0000526e-05
1.0000615e-05
1.0000572e-05
1.0000704e-05
1.0000645e-05
1.0000735e-05
1.0000854e-05
1.0000936e-05
1.0000953e-05
1.000091e-05
1.0000863e-05
1.0000758e-05
1.0000645e-05
1.0000468e-05
1.000033e-05
1.000033e-05
1.000041e-05
1.0000488e-05
0.0012299657
0.0027532815
0.0032239112
0.0028329982
0.0012723751
0.00011143706
1.0623649e-05
1.0201467e-05
1.0098064e-05
1.0096639e-05
1.0045547e-05
1.0047366e-05
1.0023102e-05
1.0024464e-05
1.0014275e-05
1.0012314e-05
1.0007801e-05
1.0005671e-05
1.0003623e-05
1.0002538e-05
1.0001793e-05
1.0001396e-05
1.0001144e-05
1.0001056e-05
1.0000919e-05
1.0000757e-05
1.0000603e-05
1.000048e-05
1.0000397e-05
1.0000369e-05
1.0000384e-05
1.0000431e-05
1.0000518e-05
1.0000609e-05
1.0000566e-05
1.0000697e-05
1.0000638e-05
1.0000728e-05
1.0000848e-05
1.0000931e-05
1.0000948e-05
1.0000904e-05
1.0000859e-05
1.0000754e-05
1.0000649e-05
1.0000477e-05
1.0000325e-05
1.0000327e-05
1.0000398e-05
1.0000461e-05
0.001228445
0.002721982
0.0031440366
0.0026859708
0.001075395
7.7752288e-05
1.0426697e-05
1.019651e-05
1.0096306e-05
1.0094054e-05
1.0044689e-05
1.0046211e-05
1.0022919e-05
1.0023974e-05
1.0014212e-05
1.0012096e-05
1.0007724e-05
1.0005573e-05
1.0003576e-05
1.0002501e-05
1.0001778e-05
1.000139e-05
1.0001145e-05
1.0001054e-05
1.0000916e-05
1.0000753e-05
1.00006e-05
1.0000477e-05
1.0000395e-05
1.0000368e-05
1.0000383e-05
1.0000429e-05
1.0000509e-05
1.0000603e-05
1.000056e-05
1.0000689e-05
1.0000631e-05
1.0000721e-05
1.0000842e-05
1.0000926e-05
1.0000942e-05
1.0000898e-05
1.0000854e-05
1.0000753e-05
1.0000653e-05
1.0000476e-05
1.000032e-05
1.0000323e-05
1.0000386e-05
1.0000434e-05
0.0012268399
0.0026896555
0.0030610264
0.0025310093
0.00089384851
5.355065e-05
1.0325097e-05
1.0192064e-05
1.009449e-05
1.009142e-05
1.0043842e-05
1.0045064e-05
1.0022743e-05
1.0023489e-05
1.0014148e-05
1.0011882e-05
1.0007646e-05
1.0005478e-05
1.000353e-05
1.0002466e-05
1.0001764e-05
1.0001385e-05
1.0001146e-05
1.0001051e-05
1.0000911e-05
1.0000749e-05
1.0000596e-05
1.0000474e-05
1.0000394e-05
1.0000367e-05
1.0000382e-05
1.0000426e-05
1.0000501e-05
1.0000597e-05
1.0000555e-05
1.0000682e-05
1.0000624e-05
1.0000715e-05
1.0000837e-05
1.0000922e-05
1.0000936e-05
1.0000893e-05
1.000085e-05
1.0000754e-05
1.0000657e-05
1.0000462e-05
1.0000315e-05
1.0000319e-05
1.0000374e-05
1.0000406e-05
0.0012251916
0.0026568999
0.0029750631
0.0023701984
0.00073006289
3.6941155e-05
1.0272726e-05
1.0187466e-05
1.0092598e-05
1.0088765e-05
1.0043008e-05
1.0043929e-05
1.0022575e-05
1.0023013e-05
1.0014083e-05
1.0011674e-05
1.0007569e-05
1.0005386e-05
1.0003485e-05
1.0002432e-05
1.000175e-05
1.000138e-05
1.0001146e-05
1.0001048e-05
1.0000907e-05
1.0000745e-05
1.0000591e-05
1.000047e-05
1.0000392e-05
1.0000366e-05
1.000038e-05
1.0000423e-05
1.0000493e-05
1.000059e-05
1.0000549e-05
1.0000673e-05
1.0000617e-05
1.0000708e-05
1.0000831e-05
1.0000919e-05
1.0000933e-05
1.0000887e-05
1.0000845e-05
1.0000753e-05
1.000066e-05
1.0000444e-05
1.000031e-05
1.0000314e-05
1.0000365e-05
1.0000379e-05
0.0012237364
0.002624493
0.0028881439
0.0021987692
0.00058572162
2.6244025e-05
1.0244636e-05
1.0182834e-05
1.0090641e-05
1.0086136e-05
1.004219e-05
1.0042807e-05
1.0022415e-05
1.0022546e-05
1.0014017e-05
1.0011472e-05
1.0007491e-05
1.0005297e-05
1.0003442e-05
1.00024e-05
1.0001737e-05
1.0001376e-05
1.0001147e-05
1.0001045e-05
1.0000903e-05
1.000074e-05
1.0000587e-05
1.0000467e-05
1.000039e-05
1.0000365e-05
1.0000379e-05
1.000042e-05
1.0000485e-05
1.0000583e-05
1.0000542e-05
1.0000665e-05
1.0000609e-05
1.00007e-05
1.0000825e-05
1.0000915e-05
1.000093e-05
1.0000882e-05
1.0000839e-05
1.0000751e-05
1.0000661e-05
1.000043e-05
1.0000305e-05
1.000031e-05
1.0000357e-05
1.0000357e-05
0.0012224682
0.0025921267
0.0028106237
0.0020176324
0.00046573102
1.9921561e-05
1.0228124e-05
1.0178134e-05
1.0088636e-05
1.0083532e-05
1.0041386e-05
1.0041703e-05
1.0022265e-05
1.0022089e-05
1.001395e-05
1.0011277e-05
1.0007414e-05
1.0005212e-05
1.0003399e-05
1.0002369e-05
1.0001724e-05
1.0001372e-05
1.0001147e-05
1.0001043e-05
1.0000899e-05
1.0000735e-05
1.0000582e-05
1.0000464e-05
1.0000389e-05
1.0000364e-05
1.0000378e-05
1.0000416e-05
1.0000476e-05
1.0000575e-05
1.0000535e-05
1.0000655e-05
1.0000601e-05
1.0000692e-05
1.0000818e-05
1.0000912e-05
1.0000928e-05
1.0000877e-05
1.0000834e-05
1.0000747e-05
1.0000659e-05
1.0000426e-05
1.00003e-05
1.0000305e-05
1.0000349e-05
1.0000339e-05
0.0012210636
0.0025571117
0.002722514
0.0018260013
0.00036136809
1.5892915e-05
1.021696e-05
1.0173373e-05
1.0086586e-05
1.0080953e-05
1.0040597e-05
1.0040619e-05
1.0022122e-05
1.0021638e-05
1.0013881e-05
1.0011088e-05
1.0007337e-05
1.0005129e-05
1.0003358e-05
1.0002339e-05
1.0001712e-05
1.0001368e-05
1.0001148e-05
1.000104e-05
1.0000895e-05
1.000073e-05
1.0000578e-05
1.0000461e-05
1.0000388e-05
1.0000364e-05
1.0000377e-05
1.0000413e-05
1.0000468e-05
1.0000568e-05
1.0000528e-05
1.0000646e-05
1.0000593e-05
1.0000684e-05
1.0000811e-05
1.0000908e-05
1.0000925e-05
1.0000873e-05
1.0000829e-05
1.0000742e-05
1.0000655e-05
1.0000421e-05
1.0000295e-05
1.00003e-05
1.0000343e-05
1.0000327e-05
0.0012198317
0.0025211882
0.0026351483
0.0016286036
0.00027425899
1.3454314e-05
1.0208637e-05
1.0168555e-05
1.0084498e-05
1.00784e-05
1.0039824e-05
1.0039557e-05
1.002199e-05
1.0021162e-05
1.0013811e-05
1.0010907e-05
1.0007261e-05
1.0005051e-05
1.0003318e-05
1.0002311e-05
1.00017e-05
1.0001364e-05
1.0001149e-05
1.0001038e-05
1.000089e-05
1.0000724e-05
1.0000574e-05
1.000046e-05
1.0000388e-05
1.0000363e-05
1.0000376e-05
1.0000409e-05
1.0000459e-05
1.000056e-05
1.000052e-05
1.0000635e-05
1.0000585e-05
1.0000675e-05
1.0000803e-05
1.0000902e-05
1.0000922e-05
1.0000869e-05
1.0000825e-05
1.0000738e-05
1.0000649e-05
1.0000416e-05
1.000029e-05
1.0000295e-05
1.0000338e-05
1.0000318e-05
0.0012187063
0.0024832916
0.0025436593
0.0014295012
0.00020333212
1.2035469e-05
1.0201804e-05
1.0163687e-05
1.0082379e-05
1.0075877e-05
1.0039068e-05
1.003852e-05
1.002187e-05
1.0020711e-05
1.0013738e-05
1.0010733e-05
1.0007185e-05
1.0004976e-05
1.0003279e-05
1.0002285e-05
1.0001689e-05
1.000136e-05
1.0001151e-05
1.0001035e-05
1.0000885e-05
1.0000719e-05
1.0000571e-05
1.0000458e-05
1.0000387e-05
1.0000362e-05
1.0000375e-05
1.0000406e-05
1.0000451e-05
1.0000551e-05
1.0000511e-05
1.0000625e-05
1.0000576e-05
1.0000667e-05
1.0000795e-05
1.0000897e-05
1.0000917e-05
1.0000865e-05
1.0000821e-05
1.0000735e-05
1.0000643e-05
1.0000413e-05
1.0000285e-05
1.0000289e-05
1.0000332e-05
1.0000315e-05
0.0012174588
0.0024410082
0.0024482841
0.0012408829
0.00014744371
1.1241488e-05
1.0195743e-05
1.0158776e-05
1.0080233e-05
1.0073387e-05
1.0038326e-05
1.0037511e-05
1.0021763e-05
1.0020285e-05
1.0013662e-05
1.0010567e-05
1.0007111e-05
1.0004904e-05
1.0003242e-05
1.0002259e-05
1.0001677e-05
1.0001356e-05
1.0001152e-05
1.0001032e-05
1.000088e-05
1.0000715e-05
1.0000569e-05
1.0000457e-05
1.0000385e-05
1.000036e-05
1.0000373e-05
1.0000403e-05
1.0000443e-05
1.0000542e-05
1.0000502e-05
1.0000614e-05
1.0000567e-05
1.0000658e-05
1.0000787e-05
1.0000891e-05
1.0000911e-05
1.0000862e-05
1.0000818e-05
1.0000731e-05
1.0000637e-05
1.000041e-05
1.000028e-05
1.0000283e-05
1.0000325e-05
1.0000315e-05
0.0012157398
0.0023928299
0.0023466758
0.0010635539
0.00010457405
1.0811639e-05
1.0190071e-05
1.0153827e-05
1.0078065e-05
1.0070936e-05
1.0037597e-05
1.0036517e-05
1.0021671e-05
1.0019886e-05
1.0013583e-05
1.0010409e-05
1.0007038e-05
1.0004836e-05
1.0003205e-05
1.0002234e-05
1.0001665e-05
1.0001352e-05
1.0001154e-05
1.0001029e-05
1.0000876e-05
1.0000713e-05
1.0000568e-05
1.0000454e-05
1.0000382e-05
1.0000358e-05
1.0000372e-05
1.0000399e-05
1.0000434e-05
1.0000532e-05
1.0000492e-05
1.0000602e-05
1.0000557e-05
1.000065e-05
1.0000779e-05
1.0000886e-05
1.0000905e-05
1.000086e-05
1.0000815e-05
1.0000726e-05
1.0000631e-05
1.0000408e-05
1.0000275e-05
1.0000275e-05
1.0000315e-05
1.0000313e-05
0.0012133065
0.0023387031
0.0022367467
0.00089810846
7.277294e-05
1.0585639e-05
1.0184595e-05
1.0148846e-05
1.0075879e-05
1.0068528e-05
1.0036886e-05
1.0035527e-05
1.0021593e-05
1.0019525e-05
1.0013502e-05
1.0010259e-05
1.0006967e-05
1.0004772e-05
1.000317e-05
1.000221e-05
1.0001653e-05
1.0001349e-05
1.0001155e-05
1.0001026e-05
1.0000873e-05
1.0000712e-05
1.0000566e-05
1.0000451e-05
1.000038e-05
1.0000356e-05
1.0000371e-05
1.0000395e-05
1.0000426e-05
1.0000522e-05
1.0000481e-05
1.000059e-05
1.0000546e-05
1.0000641e-05
1.0000771e-05
1.0000882e-05
1.0000902e-05
1.0000857e-05
1.0000812e-05
1.000072e-05
1.0000625e-05
1.0000406e-05
1.0000271e-05
1.0000267e-05
1.0000305e-05
1.0000307e-05
0.0012100176
0.0022777113
0.0021081338
0.00074621445
5.0075918e-05
1.0468313e-05
1.0179243e-05
1.0143842e-05
1.0073684e-05
1.0066165e-05
1.0036197e-05
1.0034579e-05
1.0021531e-05
1.0019192e-05
1.0013419e-05
1.0010117e-05
1.0006897e-05
1.0004711e-05
1.0003136e-05
1.0002187e-05
1.0001642e-05
1.0001345e-05
1.0001157e-05
1.0001023e-05
1.0000872e-05
1.0000711e-05
1.0000563e-05
1.0000447e-05
1.0000377e-05
1.0000354e-05
1.0000369e-05
1.0000391e-05
1.0000418e-05
1.0000511e-05
1.000047e-05
1.0000578e-05
1.0000535e-05
1.0000631e-05
1.0000763e-05
1.0000878e-05
1.0000898e-05
1.0000855e-05
1.000081e-05
1.0000716e-05
1.0000619e-05
1.0000405e-05
1.0000266e-05
1.0000257e-05
1.0000296e-05
1.00003e-05
0.001206203
0.0022118772
0.001963132
0.00061071297
3.4683772e-05
1.0406668e-05
1.0173991e-05
1.0138822e-05
1.0071487e-05
1.0063851e-05
1.0035535e-05
1.0033671e-05
1.0021488e-05
1.0018877e-05
1.0013334e-05
1.0009984e-05
1.000683e-05
1.0004653e-05
1.0003102e-05
1.0002164e-05
1.000163e-05
1.0001342e-05
1.0001159e-05
1.0001022e-05
1.0000872e-05
1.000071e-05
1.0000559e-05
1.0000443e-05
1.0000374e-05
1.0000352e-05
1.0000367e-05
1.0000387e-05
1.000041e-05
1.00005e-05
1.0000458e-05
1.0000565e-05
1.0000523e-05
1.0000621e-05
1.0000753e-05
1.0000874e-05
1.0000896e-05
1.0000851e-05
1.0000809e-05
1.0000713e-05
1.0000613e-05
1.0000404e-05
1.0000261e-05
1.0000245e-05
1.0000288e-05
1.000029e-05
0.0012020501
0.0021425546
0.0018036772
0.00049137233
2.4859807e-05
1.0372384e-05
1.0168794e-05
1.0133793e-05
1.0069295e-05
1.006159e-05
1.0034902e-05
1.0032807e-05
1.0021464e-05
1.0018582e-05
1.0013249e-05
1.0009859e-05
1.0006764e-05
1.0004599e-05
1.0003069e-05
1.0002141e-05
1.0001618e-05
1.000134e-05
1.0001161e-05
1.0001023e-05
1.0000874e-05
1.0000708e-05
1.0000553e-05
1.0000439e-05
1.0000371e-05
1.0000349e-05
1.0000365e-05
1.0000382e-05
1.0000402e-05
1.0000488e-05
1.0000446e-05
1.0000552e-05
1.0000511e-05
1.0000609e-05
1.0000741e-05
1.0000868e-05
1.0000894e-05
1.0000848e-05
1.0000808e-05
1.000071e-05
1.0000608e-05
1.0000403e-05
1.0000255e-05
1.0000229e-05
1.0000278e-05
1.0000278e-05
0.0011975399
0.0020696485
0.0016401077
0.00039157153
1.9132968e-05
1.0351052e-05
1.0163597e-05
1.0128763e-05
1.0067112e-05
1.0059396e-05
1.0034301e-05
1.0031989e-05
1.0021461e-05
1.0018306e-05
1.0013163e-05
1.0009742e-05
1.0006701e-05
1.0004547e-05
1.0003037e-05
1.0002119e-05
1.0001606e-05
1.0001338e-05
1.0001165e-05
1.0001026e-05
1.0000876e-05
1.0000703e-05
1.0000548e-05
1.0000435e-05
1.0000368e-05
1.0000347e-05
1.0000363e-05
1.0000377e-05
1.0000394e-05
1.0000476e-05
1.0000434e-05
1.0000539e-05
1.0000499e-05
1.0000597e-05
1.0000729e-05
1.0000859e-05
1.0000889e-05
1.0000844e-05
1.0000806e-05
1.0000705e-05
1.0000602e-05
1.0000401e-05
1.000025e-05
1.000021e-05
1.0000262e-05
1.0000261e-05
0.0011928509
0.0019892654
0.0014789408
0.0003054326
1.5504781e-05
1.0335389e-05
1.0158356e-05
1.0123739e-05
1.0064949e-05
1.0057298e-05
1.0033735e-05
1.0031219e-05
1.0021489e-05
1.0018049e-05
1.0013076e-05
1.0009633e-05
1.000664e-05
1.0004497e-05
1.0003005e-05
1.0002097e-05
1.0001595e-05
1.0001336e-05
1.000117e-05
1.0001031e-05
1.0000876e-05
1.0000698e-05
1.0000543e-05
1.000043e-05
1.0000365e-05
1.0000344e-05
1.000036e-05
1.0000371e-05
1.0000387e-05
1.0000463e-05
1.000042e-05
1.0000525e-05
1.0000486e-05
1.0000585e-05
1.0000716e-05
1.0000848e-05
1.0000884e-05
1.000084e-05
1.0000805e-05
1.0000697e-05
1.0000595e-05
1.00004e-05
1.0000246e-05
1.0000193e-05
1.0000242e-05
1.000024e-05
0.0011893882
0.001909089
0.0013158749
0.00023292812
1.3294344e-05
1.0322425e-05
1.0153045e-05
1.0118731e-05
1.0062814e-05
1.0055274e-05
1.0033208e-05
1.0030505e-05
1.0021475e-05
1.0017813e-05
1.0012991e-05
1.0009532e-05
1.0006581e-05
1.0004449e-05
1.0002973e-05
1.0002075e-05
1.0001584e-05
1.0001334e-05
1.0001172e-05
1.0001037e-05
1.0000873e-05
1.0000693e-05
1.0000538e-05
1.0000426e-05
1.0000362e-05
1.0000341e-05
1.0000357e-05
1.0000366e-05
1.0000379e-05
1.000045e-05
1.0000407e-05
1.0000511e-05
1.0000473e-05
1.0000573e-05
1.0000704e-05
1.0000839e-05
1.0000881e-05
1.0000837e-05
1.0000805e-05
1.0000692e-05
1.0000589e-05
1.0000398e-05
1.0000243e-05
1.0000181e-05
1.0000225e-05
1.0000224e-05
0.0011874567
0.0018315645
0.0011538584
0.00017336569
1.1995485e-05
1.031037e-05
1.0147648e-05
1.0113747e-05
1.0060713e-05
1.005332e-05
1.0032723e-05
1.0029864e-05
1.0021453e-05
1.0017595e-05
1.0012907e-05
1.0009439e-05
1.0006524e-05
1.0004403e-05
1.0002942e-05
1.0002055e-05
1.0001573e-05
1.000133e-05
1.0001173e-05
1.0001041e-05
1.0000868e-05
1.0000687e-05
1.0000533e-05
1.0000422e-05
1.0000359e-05
1.0000338e-05
1.0000354e-05
1.0000359e-05
1.000037e-05
1.0000437e-05
1.0000393e-05
1.0000497e-05
1.0000461e-05
1.000056e-05
1.0000694e-05
1.0000832e-05
1.000088e-05
1.0000834e-05
1.0000805e-05
1.0000692e-05
1.0000582e-05
1.0000397e-05
1.000024e-05
1.0000178e-05
1.0000213e-05
1.0000219e-05
0.0011865802
0.0017484291
0.00099587397
0.00012592333
1.1259456e-05
1.029819e-05
1.0142156e-05
1.0108801e-05
1.0058656e-05
1.0051444e-05
1.0032284e-05
1.0029276e-05
1.0021419e-05
1.0017397e-05
1.0012826e-05
1.0009352e-05
1.0006469e-05
1.0004359e-05
1.0002912e-05
1.0002035e-05
1.0001562e-05
1.0001323e-05
1.0001173e-05
1.0001042e-05