/*--------------------------------*- C++ -*----------------------------------*\
  =========                 |
  \\      /  F ield         | OpenFOAM: The Open Source CFD Toolbox
   \\    /   O peration     | Website:  https://openfoam.org
    \\  /    A nd           | Version:  8
     \\/     M anipulation  |
\*---------------------------------------------------------------------------*/
FoamFile
{
    version     2.0;
    format      ascii;
    class       volScalarField;
    location    "0.149996";
    object      p;
}
// * * * * * * * * * * * * * * * * * * * * * * * * * * * * * * * * * * * * * //

dimensions      [1 -1 -2 0 0 0 0];

internalField   nonuniform List<scalar> 
20000
(
60179.578
60197.295
60214.328
60239.137
60273.051
60317.809
60379.454
60452.651
60544.838
60654.483
60785.315
60948.013
61134.069
61372.278
61639.686
61984.361
62372.717
62867.777
63434.678
64143.793
64970.692
65985.54
67182.006
68622.812
70316.803
72309.555
74605.487
77206.574
80057.893
83044.856
85968.127
88629.241
90901.331
92775.13
94278.063
95463.941
96386.952
97101.832
97645.794
98066.148
98387.395
98644.543
98852.231
99041.728
99224.024
99384.087
99520.733
99678.916
99727.08
100141.1
60346.879
60364.687
60382.708
60408.695
60444.3
60491.644
60557.529
60636.005
60733.564
60848.864
60985.271
61155.062
61347.754
61595.411
61871.779
62229.284
62630.465
63142.699
63728.073
64460.191
65313.077
66357.766
67586.91
69060.782
70785.115
72797.556
75092.327
77656.626
80429.452
83306.455
86124.68
88709.557
90939.128
92789.667
94280.607
95462.685
96384.652
97097.168
97640.444
98059.474
98381.737
98640.319
98850.716
99042.248
99227.583
99387.561
99534.165
99683.377
99769.185
100138.71
60537.857
60555.856
60574.697
60601.631
60638.5
60687.548
60755.613
60836.148
60936.598
61055.669
61196.26
61372.182
61571.092
61827.928
62113.274
62483.491
62897.636
63427.205
64031.592
64787.54
65667.469
66743.541
68007.194
69517.055
71275.707
73313.897
75615.967
78155.971
80864.52
83643.744
86355.43
88852.862
91024.259
92837.87
94306.311
95474.072
96387.024
97096.286
97639.008
98057.02
98379.55
98638.663
98850.213
99043.888
99231.606
99391.935
99544.972
99691.066
99823.411
100136.97
60734.383
60752.776
60772.448
60800.391
60838.697
60889.776
60960.575
61044.026
61148.262
61272.103
61417.706
61600.44
61805.865
62072.137
62366.504
62749.67
63177.114
63724.651
64348.894
65129.693
66037.859
67146.661
68446.491
69994.566
71790.545
73858.791
76174.289
78698.819
81354.813
84046.948
86656.246
89059.236
91159.143
92923.099
94358.639
95504.351
96402.702
97102.34
97639.861
98056.588
98379.065
98638.271
98850.181
99047.552
99237.029
99397.56
99553.982
99701.227
99868.389
100136.04
60942.735
60961.755
60982.44
61011.589
61051.553
61104.913
61178.672
61265.155
61372.86
61501.083
61651.302
61840.613
62052.364
62328.172
62631.806
63028.487
63470.019
64036.544
64681.91
65488.915
66426.896
67570.138
68908.237
70496.958
72333.092
74434.518
76766.981
79280.719
81890.309
84501.928
87011.463
89316.91
91337.015
93041.744
94435.731
95552.425
96430.936
97117.357
97647.05
98059.287
98380.021
98638.642
98852.137
99052.923
99243.434
99404.125
99563.828
99713.114
99912.211
100135.59
61160.958
61180.642
61202.377
61232.781
61274.472
61330.198
61407.004
61496.56
61607.869
61740.615
61895.596
62091.8
62310.18
62596.064
62909.57
63320.625
63777.238
64363.889
65031.673
65866.226
66835.6
68015.016
69393.495
71025.186
72903.94
75040.867
77392.454
79897.958
82464.926
85000.521
87413.071
89619.18
91553.288
93191.117
94536.23
95617.961
96472.022
97141.721
97660.953
98066.942
98384.598
98641.824
98856.55
99060.15
99250.989
99411.652
99574.245
99727.908
99950.063
100135.49
61389.417
61409.778
61432.541
61464.172
61507.551
61565.579
61645.359
61737.861
61852.878
61990.353
62150.3
62353.788
62579.21
62875.866
63200.012
63626.402
64099.137
64707.053
65398.579
66262.072
67264.543
68482.076
69903.252
71580.346
73504.017
75678.131
78049.706
80547.544
83073.134
85534.962
87852.257
89958.264
91802.352
93367.577
94657.949
95699.614
96525.126
97175.125
97681.611
98079.649
98392.931
98647.983
98863.503
99069.164
99259.609
99420.043
99585.762
99747.654
99982.612
100137.18
61626.074
61647.144
61670.939
61703.869
61749.069
61809.573
61892.591
61988.282
62107.287
62249.889
62415.221
62626.608
62859.677
63167.92
63503.504
63946.137
64435.971
65066.232
65782.778
66676.599
67713.945
68971.651
70437.901
72162.771
74133.338
76345.684
78737.048
81226.362
83710.179
86098.976
88322.112
90327.699
92079.111
93567.582
94798.644
95796.06
96589.521
97217.122
97708.754
98097.336
98405.077
98657.221
98872.987
99079.954
99269.279
99429.199
99598.435
99774.172
100008.5
100140.87
61870.331
61892.329
61917.24
61951.683
61999.046
62062.404
62149.095
62248.318
62371.618
62519.707
62690.81
62910.717
63152.016
63472.568
63820.251
64279.911
64787.766
65441.421
66184.302
67109.919
68184.109
69484.216
70998.055
72773.024
74792.238
77043.201
79453.183
81931.819
84372.02
86687.172
88816.478
90721.566
92378.715
93787.589
94955.931
95905.753
96664.233
97267.128
97742.058
98119.783
98420.908
98669.467
98884.951
99092.451
99279.93
99439.01
99612.352
99805.601
100029.79
100146.09
62123.833
62146.934
62173.002
62209.049
62258.767
62325.022
62415.353
62518.303
62646.19
62800.17
62977.461
63206.494
63456.492
63789.901
64150.218
64627.653
65154.482
65832.604
66603.183
67562.195
68675.361
70020.225
71584.162
73411.424
75480.619
77769.892
80196.342
82661.053
85054.701
87294.631
89329.899
91134.53
92696.616
94024.132
95127.383
96027.078
96748.227
97324.469
97781.107
98146.737
98440.283
98684.642
98899.309
99106.579
99291.495
99449.407
99627.519
99839.048
100048.81
100152.94
62387.868
62412.006
62439.094
62476.597
62528.594
62597.442
62691.153
62798.168
62931.252
63091.731
63275.545
63514.057
63772.972
64119.664
64493.189
64989.245
65536.068
66239.762
67039.525
68033.742
69188.225
70580.333
72196.896
74078.527
76198.639
78525.199
80965.029
83411.599
85754.804
87917.158
89857.697
91561.944
93028.734
94273.987
95310.648
96158.4
96840.404
97388.422
97825.443
98177.905
98463.021
98702.631
98915.962
99122.23
99303.884
99460.44
99644.237
99872.774
100066.9
100161.13
62660.401
62685.872
62714.342
62753.698
62808.46
62880.249
62978.011
63089.155
63227.476
63394.538
63584.769
63832.86
64100.92
64461.522
64849.046
65364.662
65932.517
66662.949
67493.581
68525.034
69723.326
71165.198
72836.842
74774.68
76946.122
79308.125
81757.304
84180.639
86468.806
88550.696
90395.522
91999.523
93371.253
94534.069
95503.414
96298.067
96939.626
97458.213
97874.555
98212.956
98488.921
98723.299
98934.791
99139.277
99316.97
99472.31
99663.34
99905.626
100084.25
100169.72
62944.654
62971.299
63000.949
63041.923
63099.327
63173.923
63275.928
63390.617
63533.667
63707.258
63904.027
64162.2
64440.063
64815.479
65217.877
65753.917
66343.858
67102.345
67965.804
69036.744
70281.453
71775.638
73504.791
75500.444
77723.087
80117.84
82571.404
84965.621
87193.589
89191.719
90939.635
92443.569
93720.824
94801.601
95703.536
96444.501
97044.767
97533.058
97927.916
98251.543
98517.756
98746.496
98955.668
99157.565
99330.59
99485.299
99686.18
99936.566
100100.78
100178.17
63234.06
63262.027
63292.958
63335.691
63396.121
63473.985
63581.201
63700.096
63848.279
64029.079
64233.098
64502.276
64790.718
65181.772
65599.718
66156.972
66770.199
67558.351
68456.866
69569.671
70863.422
72412.445
74201.413
76256.148
78529.156
80953.032
83405.109
85763.655
87925.865
89836.737
91486.492
92890.65
94074.344
95073.981
95908.969
96596.16
97154.707
97612.16
97984.973
98293.29
98549.284
98772.055
98978.446
99176.921
99344.599
99499.716
99714.031
99964.663
100116.51
100186.82
63530.461
63560.01
63592.548
63637.413
63701.429
63782.371
63894.549
64018.386
64172.265
64360.946
64572.825
64853.687
65153.163
65560.355
65994.425
66573.834
67211.891
68031.643
68967.613
70124.706
71470.132
73076.557
74927.563
77042.297
79364.072
81812.494
84256.348
86572.081
88662.662
90482.69
92033.039
93337.818
94429.123
95348.918
96117.871
96751.624
97268.381
97694.747
98045.177
98337.817
98583.248
98799.798
99002.96
99197.161
99358.911
99515.8
99746.849
99989.851
100131.28
100195.28
63837.275
63868.301
63902.313
63949.127
64016.617
64100.19
64217.091
64346.389
64506.486
64703.553
64923.552
65216.393
65527.076
65950.868
66401.895
67004.815
67669.663
68523.124
69498.969
70702.739
72102.487
73768.871
75683.966
77859.074
80227.114
82694.476
85122.554
87387.888
89400.846
91126.511
92576.349
93782.327
94782.684
95624.302
96328.53
96909.541
97384.759
97780.054
98107.98
98384.737
98619.384
98829.536
99029.019
99218.096
99373.588
99533.805
99782.205
100013.6
100145.18
100203.44
64151.319
64184.086
64219.847
64268.948
64340.52
64427.902
64550.343
64685.14
64851.295
65056.669
65284.647
65589.651
65911.877
66353.161
66822.508
67450.728
68144.5
69033.736
70051.817
71304.675
72761.495
74490.448
76471.522
78706.779
81117.631
83597.282
86001.27
88208.261
90137.59
91765.494
93113.897
94221.839
95132.916
95898.319
96539.444
97068.701
97502.893
97867.367
98172.854
98433.671
98657.428
98861.068
99056.404
99239.541
99388.846
99554.231
99818.525
100036.38
100158.31
100211.25
64475.685
64510.112
64547.517
64598.809
64674.365
64765.565
64892.774
65032.986
65205.097
65418.895
65655.06
65972.896
66307.604
66767.838
67257.278
67912.682
68637.417
69564.344
70627
71931.454
73448.21
75242.312
77290.924
79585.279
82034.407
84518.637
86889.582
89030.103
90869.919
92396.935
93643.259
94654.181
95477.894
96169.326
96749.247
97227.978
97621.884
97955.998
98239.289
98484.247
98697.12
98894.182
99084.862
99261.306
99405.051
99577.847
99854.592
100058.14
100170.63
100218.65
64805.852
64842.084
64881.253
64934.724
65014.667
65109.894
65241.939
65388.048
65566.733
65789.767
66034.864
66366.722
66715.274
67196.189
67707.475
68391.712
69149.204
70115.666
71225.353
72584.143
74163.824
76025.692
78142.936
80494.536
82976.188
85456.355
87784.722
89850.548
91595.143
93018.461
94162.363
95077.538
95816.021
96435.958
96956.771
97386.386
97740.924
98045.322
98306.809
98536.113
98738.207
98928.653
99114.114
99283.205
99422.667
99605.661
99889.332
100078.63
100182.05
100225.57
65142.228
65180.492
65221.723
65277.822
65362.725
65462.419
65599.461
65751.534
65937.063
66170.207
66425.271
66772.626
67136.456
67639.571
68174.1
68888.468
69680.436
70688.414
71847.858
73263.933
74909.619
76841.67
79028.042
81433.908
83941.115
86407.621
88683.476
90666.454
92310.46
93627.706
94669.234
95490.242
96145.871
96697.001
97160.969
97543.031
97859.263
98134.755
98374.967
98588.935
98780.446
98964.25
99143.857
99305.056
99442.125
99638.763
99921.693
100097.63
100192.57
100231.97
65486.514
65526.82
65570.081
65628.943
65718.742
65823.071
65965.325
66124.269
66317.298
66561.756
66828.053
67192.314
67572.45
68098.769
68657.585
69403.295
70231.644
71283.428
72495.677
73972.192
75687.035
77691.47
79946.75
82402.746
84927.294
87369.664
89582.785
91474.874
93013.342
94222.623
95162.238
95890.934
96466.313
96951.477
97360.969
97697.154
97976.252
98223.775
98443.356
98642.406
98823.608
99000.731
99173.792
99326.71
99463.661
99677.392
99951.039
100115.13
100202.23
100237.86
65837.519
65880.244
65925.945
65988.213
66083.054
66192.349
66340.552
66508.197
66709.846
66966.658
67244.814
67626.711
68023.585
68573.804
69157.998
69936.511
70803.56
71901.831
73170.182
74710.417
76497.484
78576.093
80899.093
83399.723
85932.13
88339.141
90479.151
92272.618
93701.184
94801.246
95639.906
96278.398
96776.363
97198.527
97556.007
97848.082
98091.318
98311.904
98511.606
98696.245
98867.476
99037.857
99203.648
99348.101
99487.299
99719.003
99978.617
100131.32
100211.06
100243.24
66201.996
66246.923
66294.647
66359.821
66459.237
66573.402
66728.129
66905.458
67116.312
67385.756
67675.581
68075.357
68489.369
69064.459
69675.539
70488.779
71397.264
72544.99
73872.918
75480.226
77342.517
79496.587
81885.075
84423.406
86952.979
89312.723
91369.173
93056.712
94371.701
95361.997
96101.156
96651.707
97075.258
97437.465
97745.498
97995.263
98204.001
98398.723
98579.387
98750.2
98911.844
99075.389
99233.209
99369.309
99512.984
99761.602
100005.04
100146.33
100219.08
100248.14
66575.021
66622.747
66673.266
66742.413
66847.77
66968.822
67129.914
67316.363
67535.408
67817.551
68118.979
68537.392
68969.504
69570.94
70210.911
71061.172
72014.139
73214.477
74605.531
76283.278
78223.549
80453.645
82904.038
85471.601
87986.444
90286.486
92249.053
93824.057
95022.731
95903.485
96545.071
97010.081
97362.304
97667.702
97928.993
98138.208
98313.907
98483.86
98646.409
98804.048
98956.516
99113.093
99262.331
99390.609
99540.795
99803.963
100030.26
100160.17
100226.34
100252.6
66960.113
67010.584
67063.876
67137.133
67248.647
67375.91
67542.689
67737.904
67964.596
68260.277
68574.4
69012.895
69464.551
70094.104
70765.286
71655.088
72655.758
73911.967
75369.756
77121.344
79142.08
81447.943
83955.184
86541.956
89029.026
91256.537
93115.222
94572.043
95652.693
96424.746
96970.927
97353.003
97636.938
97888.846
98106.224
98276.526
98420.666
98567.015
98712.425
98857.593
99001.301
99150.737
99290.946
99412.495
99571.119
99845.194
100053.99
100172.84
100232.86
100256.64
67352.339
67405.555
67461.453
67538.775
67656.131
67789.44
67963.286
68168.673
68404.554
68715.026
69042.76
69502.845
69975.559
70635.174
71340.084
72272.082
73323.796
74639.207
76167.385
77996.19
80099.384
82479.62
85036.91
87631.265
90076.483
92218.501
93964.119
95298.528
96260.437
96924.963
97377.799
97680.052
97898.672
98100.737
98276.983
98409.905
98523.837
98647.958
98777.224
98910.665
99046.011
99188.087
99319.043
99435.614
99604.777
99884.371
100075.96
100184.29
100238.71
100260.25
67751.637
67808.126
67867.244
67949.39
68073.26
68213.418
68394.809
68611.261
68856.668
69183.196
69525.081
70008.247
70503.739
71195.56
71936.868
72913.767
74019.945
75397.977
77000.334
78909.654
81096.799
83548.606
86147.422
88736.05
91124.553
93168.294
94793.08
96002.436
96845.365
97403.425
97764.553
97990.884
98147.322
98303.588
98441.026
98538.163
98622.919
98726.531
98840.641
98963.115
99090.453
99224.909
99346.636
99460.624
99642.914
99920.464
100095.99
100194.55
100243.84
100263.39
68163.523
68223.204
68285.381
68372.251
68502.588
68649.55
68838.187
69065.944
69321.154
69665.174
70022.361
70530.298
71050.554
71776.778
72557.214
73581.756
74745.941
76190.19
77870.586
79863.556
82135.207
84654.114
87283.893
89851.95
92168.338
94101.934
95600.351
96683.206
97406.584
97858.927
98130.009
98284.958
98383.158
98497.838
98597.893
98661.199
98717.527
98802.583
98902.546
99014.812
99134.435
99260.967
99373.736
99487.939
99686.065
99952.816
100114.18
100203.57
100247.97
100265.84
68583.26
68646.471
68712.161
68804.397
68941.932
69096.479
69292.716
69532.524
69798.45
70162.068
70535.96
71070.609
71617.504
72380.276
73202.634
74277.672
75503.593
77017.894
78780.292
80859.781
83215.397
85795.04
88443.18
90974.416
93203.222
95016.575
96385.493
97339.986
97942.044
98289.53
98474.242
98561.661
98607.124
98683.712
98747.076
98778.854
98807.85
98875.898
98962.846
99065.649
99177.764
99296.04
99400.344
99517.556
99732.214
99982.518
100130.79
100211.6
100251.28
100267.11
69012.087
69079.122
69148.742
69246.753
69391.882
69554.581
69759.406
70012.834
70290.954
70675.232
71067.365
71630.581
72205.939
73007.355
73874.627
75003.229
76294.908
77883.325
79731.69
81899.973
84337.473
86969.249
89621.031
92098.128
94224.652
95910.374
97147.827
97969.05
98448.65
98693.893
98798.103
98820.851
98820.487
98860.185
98888.68
98890.625
98894.981
98946.167
99021.475
99115.53
99220.252
99329.944
99426.494
99549.157
99778.947
100010.74
100146.16
100218.8
100253.99
100267.81
69451.325
69522.543
69596.599
69700.763
69854.106
70026.19
70240.726
70509.255
70800.471
71206.608
71617.837
72211.203
72816.983
73659.294
74574.814
75760.377
77122.105
78788.953
80727.151
82985.727
85501.215
88174.164
90812.853
93217.973
95229.247
96782.829
97883.921
98566.382
98923.786
99072.01
99103.227
99063.329
99023.768
99025.767
99023.257
98995.721
98980.375
99013.179
99078.396
99164.375
99261.72
99362.556
99452.332
99582.438
99824.88
100037.53
100160.37
100225.33
100256.28
100268.22
69905.541
69981.175
70060.03
70170.374
70332.407
70514.561
70738.995
71023.193
71327.698
71756.676
72187.928
72813.255
73451.842
74337.598
75305.109
76551.33
77987.681
79737.415
81768.999
84118.076
86705.427
89405.945
92013.107
94328.694
96214.521
97632.824
98587.655
99127.981
99366.677
99428.19
99390.152
99291.733
99214.558
99182.228
99149.96
99094.185
99063.453
99077.191
99133.591
99212.103
99302.002
99393.842
99478.209
99617.438
99868.985
100062.55
100173.34
100231.17
100258.24
100268.48
70374.464
70454.677
70538.648
70655.491
70826.984
71019.377
71253.5
71553.858
71872.203
72325.551
72778.306
73437.938
74112.144
75044.123
76067.653
77378.576
78894.369
80731.565
82859.501
85297.795
87948.276
90660.286
93216.201
95426.059
97179.346
98455.041
99253.997
99651.375
99781.883
99764.084
99658.212
99506.806
99392.753
99329.897
99269.093
99186.952
99142.349
99139.138
99187.041
99258.626
99340.946
99423.859
99504.714
99654.789
99910.233
100085.33
100184.85
100236.29
100259.98
100268.67
70854.194
70939.443
71029.289
71153.466
71334.841
71538.457
71783.139
72101.108
72434.59
72914.44
73390.368
74086.957
74799.837
75780.905
76864.85
78244.927
79845.182
81774.28
84000.591
86524.663
89226.645
91931.578
94416.17
96506.494
98122.182
99241.638
99878.057
100138.48
100174.48
100077.78
99907.976
99708.453
99559.036
99469.175
99381.326
99274.861
99215.22
99199.896
99238.681
99303.846
99378.419
99452.756
99532.575
99695.712
99947.427
100105.52
100194.77
100240.65
100261.6
100268.82
71345.85
71436.658
71533.457
71665.651
71857.208
72073.472
72329.592
72666.675
73016.606
73525.127
74026.244
74762.061
75516.959
76550.247
77699.46
79153.51
80843.35
82868.46
85193.912
87797.837
90536.672
93213.922
95607.769
97567.84
99037.375
99986.09
100457.39
100597.25
100542.33
100369.66
100140.14
99896.764
99714.194
99600.399
99486.963
99357.567
99283.12
99259.2
99288.37
99347.661
99414.322
99480.744
99562.37
99740.89
99979.686
100123.25
100203.21
100243.91
100262.48
100268.93
71853.228
71949.777
72054.099
72194.363
72395.982
72625.794
72894.266
73252.383
73620.115
74159.368
74687.991
75464.931
76265.698
77354.864
78574.663
80107.81
81892.227
84016.815
86440.329
89115.149
91873.059
94500.666
96786.108
98608.129
99915.826
100682.89
100996.43
101029.75
100884.47
100640.24
100355.44
100072.02
99858.924
99723.897
99585.943
99434.875
99347.122
99316.909
99335.958
99389.978
99448.593
99508.054
99594.205
99787.546
100008.6
100139.04
100210.55
100246.46
100262.87
100268.97
72376.229
72478.689
72590.994
72739.769
72951.793
73196.694
73479.051
73860.38
74246.993
74818.779
75376.968
76197.543
77048.689
78198.086
79494.055
81111.502
82995.224
85221.847
87740.096
90473.583
93229.948
95785.69
97947.578
99622.74
100748.83
101328.86
101503.99
101433.48
101201.35
100890.37
100554.64
100234.68
99993.92
99839.96
99678.208
99507.016
99407.847
99372.776
99381.517
99430.719
99481.217
99534.884
99627.748
99833.531
100035.35
100153.23
100217.13
100248.88
100262.98
100268.63
72913.629
73022.835
73145.068
73305.273
73529.261
73790.029
74086.402
74492.033
74898.102
75504.379
76095.046
76962.603
77869.411
79083.732
80461.474
82168.366
84155.644
86485.444
89092.189
91868.491
94600.367
97062.989
99089.268
100601.72
101529.84
101928.6
101981.73
101807.56
101493.75
101120.91
100738.51
100385.22
100119.88
99948.856
99763.931
99574.502
99465.471
99426.075
99425.581
99469.828
99512.231
99561.384
99662.627
99877.898
100060.3
100165.87
100222.54
100250.44
100262.95
100267.61
73466.994
73584.298
73718.06
73891.715
74128.656
74405.937
74715.66
75147.266
75574.119
76218.05
76845.517
77763.899
78731.872
80015.814
81480.817
83282.194
85376.662
87808.914
90494.606
93294.324
95977.439
98327.63
100208.13
101533.56
102254.32
102491.36
102427.04
102152.61
101762.67
101332.84
100907.82
100524.25
100237.45
100050.88
99843.541
99637.976
99520.123
99475.709
99468.876
99507.253
99541.739
99587.764
99698.919
99919.811
100083.34
100177.13
100226.89
100251.18
100262.12
100266.12
74048.823
74174.535
74315.157
74495.581
74745.303
75041.887
75366.349
75827.885
76278.258
76963.676
77632.77
78605.634
79640.1
80998.347
82556.041
84456.829
86661.05
89192.48
91943.592
94744.078
97353.994
99575.116
101294.04
102410.32
102924.83
103020.74
102838.4
102469.57
102009.18
101527.14
101063.37
100652.49
100347.14
100146.34
99917.543
99697.841
99572.011
99521.97
99511.053
99542.916
99569.924
99614.795
99737.417
99958.156
100104.09
100187.07
100230.53
100251.46
100260.89
100264.3
74644.822
74779.233
74930.797
75122.642
75383.948
75701.652
76042.857
76538.114
77015.526
77746.109
78460.851
79491.664
80597.956
82035.384
83691.238
85696.078
88011.203
90635.306
93434.31
96210.299
98723.733
100801.76
102334.6
103225.67
103550.62
103514.31
103216.53
102759.66
102234.48
101704.84
101205.97
100770.71
100449.48
100235.61
99986.389
99754.125
99620.895
99565.7
99551.962
99576.682
99597.055
99643.243
99779.223
99991.816
100122.13
100195.6
100233.73
100251.52
100259.35
100262.21
75259.994
75404.317
75567.473
75772.218
76046.858
76389.665
76750.772
77283.42
77790.786
78569.207
79333.23
80425.457
81609.378
83131.261
84890.706
87003.629
89428.571
92134.88
94960.069
97684.873
100080.35
102000.06
103318.21
103978.2
104139.12
103969.26
103562.49
103024.17
102439.77
101866.94
101336.46
100879.62
100544.94
100319.02
100050.37
99806.794
99666.906
99607.438
99591.564
99608.414
99623.379
99673.454
99824.056
100020.64
100137.57
100202.49
100235.64
100250.92
100257.41
100259.84
75898.576
76054.591
76230.916
76451.906
76742.749
77114.116
77496.51
78068.521
78606.928
79435.401
80252.978
81410.866
82678.761
84290.667
86158.855
88382.856
90913.614
93687.268
96513.319
99160.254
101418.68
103156.83
104236.95
104676.27
104688.34
104386.29
103877.7
103264.52
102626.3
102014.49
101455.68
100979.94
100634
100396.91
100109.7
99855.975
99710.295
99647.372
99629.727
99638.208
99649.058
99705.273
99868.543
100046.7
100150.98
100207.9
100236.55
100249.71
100255.18
100257.27
76575.585
76743.18
76932.794
77173.188
77479.934
77879.442
78280.151
78892.807
79464.548
80347.053
81224.606
82452.692
83811.029
85518.578
87500.149
89836.439
92465.157
95286.443
98085.225
100628.71
102732.89
104256.41
105084.76
105331.65
105194.18
104766.55
104163.66
103482.15
102795.3
102148.49
101564.44
101072.36
100717.09
100469.6
100164.65
99902.026
99751.376
99685.342
99665.836
99666.675
99674.185
99738.137
99911.157
100070.53
100162.85
100212.4
100236.9
100248.18
100252.75
100254.53
77279.231
77460.496
77666.297
77928.985
78249.902
78679.149
79100.326
79757.218
80367.1
81309.089
82253.19
83556.381
85011.321
86820.161
88918.932
91366.201
94080.458
96925.041
99667.047
102083.07
104010.32
105288.37
105868.25
105943.57
105656.82
105111.67
104422.08
103678.59
102948.03
102269.95
101663.55
101157.53
100794.65
100537.41
100215.61
99945.415
99790.483
99721.173
99698.857
99694.735
99698.984
99771.766
99950.959
100091.99
100173.29
100216.42
100236.97
100246.4
100250.12
100251.61
78011.517
78207.805
78429.554
78715.227
79052.126
79516.393
79961.103
80667.716
81321.621
82326.484
83344.341
84727.369
86285.048
88200.747
90419.141
92972.428
95754.455
98593.811
101249.56
103516.13
105234.2
106244.26
106598.64
106508.23
106077.44
105423.38
104654.67
103855.3
103085.72
102379.84
101753.82
101236.07
100867.08
100600.68
100263.05
99986.464
99827.694
99754.982
99729.084
99722.208
99723.899
99806.64
99987.123
100110.65
100181.36
100218.54
100236.42
100244.2
100247.23
100248.5
78774.478
78988.445
79226.64
79537.845
79892.989
80398.827
80870.313
81631.21
82334.382
83405.167
84503.269
85971.358
87637.988
89665.838
92004.018
94653.762
97480.26
100283.03
102823.83
104918.26
106389.02
107124.82
107281.05
107023.83
106457.9
105703.67
104863.23
104013.82
103209.57
102479.12
101836
101308.58
100934.77
100659.81
100307.46
100025.27
99862.736
99786.504
99757.494
99748.986
99749.614
99844.083
100018.42
100126.32
100187.53
100219.44
100234.92
100241.54
100244.15
100245.24
79575.549
79810.21
80066.88
80407.879
80781.788
81334.447
81834.791
82653.137
83410.161
84550.352
85735.556
87294.613
89076.569
91220.844
93675.442
96406.249
99248.625
101982.05
104380.64
106271.57
107463.89
107939.94
107912.23
107491.52
106800.17
105954.55
105049.54
104155.59
103320.74
102568.7
101910.83
101375.6
100998.1
100715.17
100349.17
100061.75
99895.472
99816.01
99784.66
99775.145
99776.909
99884.615
100044.08
100139.33
100192.42
100219.72
100232.83
100238.47
100240.8
100241.76
80422.721
80680.142
80955.909
81330.293
81723.183
82325.689
82858.136
83737.679
84553.698
85767.38
87047.736
88704.522
90607.74
92870.548
95433.348
98223.538
101048.89
103680.31
105910.85
107556.54
108453.03
108701.21
108487.92
107913.24
107106.55
106178.16
105215.4
104282.08
103420.35
102649.47
101979.01
101437.65
101057.43
100767.15
100388.34
100095.8
99925.963
99843.868
99810.962
99800.901
99806.082
99924.229
100066.6
100150.44
100196.47
100219.74
100230.52
100235.11
100237.1
100237.9
81319.071
81601.074
81896.861
82308.624
82719.407
83376.642
83945.464
84890.087
85770.912
87063.424
88447.936
90209.675
92238.558
94618.328
97274.9
100096.36
102868.89
105366.13
107397.23
108758.44
109364.34
109406
109009.1
108291.26
107379.39
106376.6
105362.56
104394.64
103509.49
102722.28
102041.2
101495.22
101113.12
100816.07
100424.98
100127.44
99954.42
99870.409
99836.66
99826.413
99836.469
99961.123
100086.74
100160.06
100199.78
100219.55
100228.42
100231.91
100233.31
100232.92
82264.77
82575.031
82892.464
83345.721
83776.301
84493.06
85102.602
86116.06
87070.652
88448.116
89945.819
91819.069
93975.188
96465.187
99194.203
102013.21
104696.12
107028.08
108817.99
109866.61
110212.13
110049.31
109477.8
108628.25
107621.25
106552.02
105492.73
104494.63
103589.19
102787.92
102098.05
101548.78
101165.52
100862.19
100459.07
100156.79
99981.149
99895.93
99861.872
99851.653
99866.95
99994.942
100104.73
100168.42
100202.5
100219.17
100226.64
100229.61
100230.77
100226.15
83265.852
83608.199
83947.766
84448.587
84899.593
85680.744
86336.289
87423.467
88464.479
89933.12
91551.785
93541.222
95821.927
98408.959
101181.84
103960.33
106516.68
108650.95
110152.56
110884.93
110997.01
110630.63
109896.58
108926.99
107834.6
106706.49
105607.57
104583.32
103660.41
102847.18
102150.15
101598.75
101214.94
100905.72
100490.62
100184.09
100006.46
99920.641
99886.646
99876.568
99897.335
100025.54
100120.45
100175.32
100204.56
100218.65
100224.94
100227.41
100228.38
100219.42
84325.118
84703.923
85064.808
85622.93
86096.677
86948.16
87657.384
88825.514
89964.506
91530.779
93275.831
95382.938
97780.298
100443.89
103225.56
105923.11
108316.35
110210.87
111387.32
111826.43
111714.3
111152.06
110268.49
109190.45
108022
106842.05
105708.67
104661.92
103724.11
102900.78
102198.07
101645.56
101261.69
100946.8
100519.74
100209.6
100030.63
99944.705
99911.108
99901.338
99928.225
100052.3
100133.69
100180.56
100205.46
100217.67
100222.96
100224.97
100225.78
100213.31
85448.944
85871.471
86253.866
86877.266
87378.533
88307.84
89080.874
90337.539
91584.488
93252.574
95126.208
97348.698
99848.444
102560.31
105310.12
107885.47
110079.43
111682.14
112519.71
112697.51
112361.25
111616.42
110596.74
109421.57
108185.89
106960.65
105797.52
104731.59
103781.15
102949.4
102242.33
101689.57
101306
100985.52
100546.59
100233.59
100053.86
99968.293
99935.468
99926.241
99960.158
100074.51
100144.52
100184.56
100205.76
100216.23
100220.68
100222.32
100223.01
100207.76
86650.185
87126.825
87531.269
88229.245
88761.829
89775.79
90623.66
91974.017
93336.27
95107.852
97108.959
99440.062
102020.65
104744.86
107418.45
109829.91
111780.37
113047.07
113561.36
113493.61
112940.02
112027.21
110884.84
109623.4
108328.72
107064.19
105875.58
104793.4
103832.36
102993.7
102283.44
101731.14
101348.08
101021.96
100571.38
100256.3
100076.39
99991.616
99959.91
99951.443
99992.042
100093.01
100153.51
100187.79
100205.77
100214.45
100218.16
100219.56
100220.1
100202.63
87943.945
88488.075
88911.532
89695.99
90264.777
91369.15
92302.599
93743.647
95227.404
97104.135
99228.604
101655.65
104287.01
106980.44
109531.41
111737.14
113389.92
114297.22
114523.56
114210.07
113453.66
112388.21
111136.31
109798.85
108452.79
107154.45
105944.19
104848.39
103878.54
103034.3
102321.88
101770.58
101388.14
101056.23
100594.29
100278.01
100098.51
100014.88
99984.508
99976.906
100021.96
100109.33
100161.19
100190.17
100205.15
100212.32
100215.4
100216.61
100217.06
100197.8
89334.719
89967.754
90410.899
91296.236
91905.763
93100.281
94126.147
95655.067
97265.198
99248.931
101488.17
103989.91
106632.74
109246.75
111627.62
113580.48
114884.97
115442.85
115401.55
114849.03
113906.23
112703.58
111354.75
109950.84
108560.36
107233.13
106004.64
104897.52
103920.43
103071.79
102358.08
101808.23
101426.45
101088.46
100615.49
100299.03
100120.51
100038.25
100009.2
100002.4
100049.27
100123.83
100167.8
100192.12
100204.44
100210.05
100212.28
100213.22
100213.83
100193.28
90851.495
91590.379
92044.066
93040.347
93694.893
94974.241
96099.212
97718.819
99460.063
101550.33
103887.67
106431.78
109037.77
111520.4
113683.16
115326.23
116252.61
116498.17
116189.17
115413.89
114302.17
112977.5
111543.66
110082.11
108653.53
107301.83
106058.12
104941.69
103958.73
103106.71
102392.46
101844.37
101463.23
101118.73
100635.3
100319.75
100142.67
100061.76
100033.81
100027.67
100073.88
100136.63
100173.41
100193.53
100203.6
100208.21
100210.05
100210.74
100209.35
100189.06
92537.541
93382.3
93805.62
94914.865
95631.856
96996.15
98236.127
99952.958
101826.05
104014.2
106420.97
108963.2
111477.33
113775.09
115668.22
116946.37
117502.37
117457.64
116888.82
115909.39
114646.42
113214.29
111706.49
110195.35
108734.33
107362.07
106105.79
104981.77
103994.1
103139.58
102425.44
101879.29
101498.51
101146.67
100654.58
100340.62
100165.17
100085.36
100058.13
100052.42
100095.83
100147.73
100177.92
100194.39
100202.69
100206.47
100207.99
100208.57
100204.73
100185.11
94364.393
95324.876
95728.245
96938.394
97736.178
99190.788
100563.69
102378.35
104373.35
106638.54
109072.93
111558.57