/*--------------------------------*- C++ -*----------------------------------*\
  =========                 |
  \\      /  F ield         | OpenFOAM: The Open Source CFD Toolbox
   \\    /   O peration     | Website:  https://openfoam.org
    \\  /    A nd           | Version:  8
     \\/     M anipulation  |
\*---------------------------------------------------------------------------*/
FoamFile
{
    version     2.0;
    format      ascii;
    class       surfaceScalarField;
    location    "0.149996";
    object      phi;
}
// * * * * * * * * * * * * * * * * * * * * * * * * * * * * * * * * * * * * * //

dimensions      [1 0 -1 0 0 0 0];

internalField   nonuniform List<scalar> 
39600
(
-0.00013826829
-0.0080434947
0.0081244758
-0.00021346781
-0.011156013
0.011230709
-0.00029665442
-0.014542672
0.014624261
-0.0003868444
-0.01866631
0.018754341
-0.00048034422
-0.023839561
0.023930347
-0.00057004128
-0.030431528
0.030517932
-0.00072795871
-0.038700777
0.038854783
-0.0010391047
-0.047241615
0.047548346
-0.0014186311
-0.056386552
0.056760799
-0.0018662736
-0.067770816
0.068212107
-0.0024021991
-0.08100698
0.08153522
-0.0030396863
-0.097268722
0.097896951
-0.0038005601
-0.11640673
0.11715645
-0.0047093257
-0.13970407
0.14059938
-0.0057923129
-0.16733724
0.16840401
-0.0070870556
-0.2008043
0.20207947
-0.0086288188
-0.24069019
0.2422085
-0.010471241
-0.28886189
0.29067623
-0.012663898
-0.34646496
0.34862382
-0.015285707
-0.41592332
0.41850419
-0.018411476
-0.49918848
0.50226426
-0.022155665
-0.59948577
0.60316874
-0.026644317
-0.7198904
0.72430382
-0.032061784
-0.86471935
0.87004356
-0.038634663
-1.0384932
1.0449506
-0.046676885
-1.2468805
1.2547769
-0.056567049
-1.495985
1.5056897
-0.068734823
-1.7928816
1.8048055
-0.083551691
-2.1453172
2.1598275
-0.10129586
-2.5624426
2.5798074
-0.12225995
-3.0556208
3.076138
-0.14685481
-3.6396514
3.6637383
-0.17566203
-4.3334533
4.3617147
-0.20933498
-5.1603376
5.1934444
-0.24861699
-6.1485136
6.1872076
-0.29420018
-7.3316796
7.376668
-0.34679574
-8.748308
8.8002658
-0.40702978
-10.446323
10.505868
-0.47529507
-12.48178
12.549323
-0.55154249
-14.922703
14.998193
-0.63504274
-17.84941
17.932199
-0.72355318
-21.359469
21.447593
-0.81336382
-25.569082
25.658806
-0.89795749
-30.619358
30.70419
-0.96624404
-36.679038
36.748313
-1.0011615
-43.953275
43.98958
-0.98276744
-52.693016
52.677673
-0.84611311
-63.19585
63.064226
-0.57021454
-75.872773
75.603515
-90.932212
90.380721
-0.00010630434
-0.0079833713
-0.0001755407
-0.011087232
-0.00025371308
-0.014466138
-0.00033935758
-0.018582741
-0.00042880512
-0.023752696
-0.00051439196
-0.030349116
-0.00067527447
-0.038543674
-0.000966218
-0.046954972
-0.0013228538
-0.056035067
-0.0017457258
-0.067354146
-0.0022551766
-0.08050498
-0.0028624266
-0.096670439
-0.0035890917
-0.11569085
-0.0044574851
-0.13884868
-0.0054925735
-0.16631785
-0.0067305687
-0.19958528
-0.0082031221
-0.23924036
-0.0099640699
-0.28712807
-0.012057994
-0.34440376
-0.014561087
-0.41345992
-0.017542148
-0.49625598
-0.021114019
-0.59597339
-0.025393897
-0.7156837
-0.030563121
-0.85964058
-0.036838779
-1.0323294
-0.04453242
-1.2393272
-0.054022213
-1.4866727
-0.065758439
-1.7813746
-0.080150857
-2.1312105
-0.097534242
-2.5454079
-0.11819974
-3.0353757
-0.14250264
-3.6158216
-0.17096347
-4.3055108
-0.20419468
-5.127653
-0.24291703
-6.1103652
-0.2878042
-7.2873902
-0.33954896
-8.6972028
-0.3987888
-10.387767
-0.46592953
-12.415359
-0.54096084
-14.848399
-0.62319746
-17.767849
-0.71056734
-21.272469
-0.79946026
-25.480203
-0.88367248
-30.53485
-0.95252026
-36.609187
-0.98948346
-43.914864
-0.96914397
-52.710325
-0.84762831
-63.31224
-0.58545429
-76.128028
-91.458403
-9.3002086e-05
-0.0079262522
-0.00015759516
-0.011023643
-0.00022931151
-0.014396168
-0.00030662146
-0.018507509
-0.00038527433
-0.02367662
-0.00045304705
-0.030284458
-0.00060709572
-0.038393297
-0.00089022129
-0.046675993
-0.0012325671
-0.055697685
-0.0016381679
-0.066954473
-0.0021250549
-0.080025252
-0.0027052834
-0.096098788
-0.0033979837
-0.11500852
-0.0042263476
-0.13803281
-0.0052125179
-0.16534685
-0.0063926408
-0.19842345
-0.0077952997
-0.2378597
-0.0094724036
-0.28547731
-0.011464843
-0.34244307
-0.013846434
-0.41111678
-0.016681754
-0.49346758
-0.020078452
-0.59263397
-0.024151576
-0.71168073
-0.029075678
-0.85480264
-0.035064625
-1.026446
-0.042427305
-1.232095
-0.051545379
-1.4777181
-0.06287827
-1.7702488
-0.076861909
-2.1174792
-0.093869315
-2.5287092
-0.11420947
-3.0154112
-0.13821584
-3.5922525
-0.16634492
-4.2778697
-0.19916546
-5.0953564
-0.23736372
-6.0727241
-0.28159101
-7.2437451
-0.33255021
-8.6468689
-0.39088023
-10.330125
-0.45699714
-12.349967
-0.53092112
-14.775199
-0.6120303
-17.687409
-0.69837665
-21.186507
-0.78652339
-25.392073
-0.87052372
-30.450513
-0.94014464
-36.538554
-0.97949947
-43.874017
-0.96283968
-52.723878
-0.85167596
-63.418154
-0.602847
-76.369989
-91.958649
-7.9552451e-05
-0.0078731912
-0.00013977764
-0.010964789
-0.00020595158
-0.014331899
-0.00027652402
-0.01843921
-0.00034688818
-0.023608914
-0.00040141393
-0.030233197
-0.00055223904
-0.03824613
-0.00082322215
-0.046409131
-0.0011484851
-0.055377252
-0.0015344031
-0.066574342
-0.0019974112
-0.079569128
-0.0025501782
-0.095554297
-0.0032096725
-0.11435898
-0.0039993056
-0.13725523
-0.004938484
-0.16442228
-0.0060630085
-0.19731659
-0.0073980853
-0.23654588
-0.0089938755
-0.28390703
-0.010888764
-0.34057903
-0.013152524
-0.40889046
-0.015847139
-0.49081867
-0.019077487
-0.5894595
-0.022952706
-0.70787394
-0.027645801
-0.8501936
-0.03336782
-1.0208266
-0.040426754
-1.2251626
-0.049209512
-1.4690931
-0.060181142
-1.7594744
-0.073796867
-2.1041003
-0.09045409
-2.5123386
-0.11047703
-2.9957391
-0.13418124
-3.5689577
-0.16198058
-4.2505325
-0.19440381
-5.0634357
-0.23211325
-6.0355544
-0.27573851
-7.200689
-0.32597427
-8.5972457
-0.38345731
-10.273314
-0.44863536
-12.285495
-0.52155718
-14.703002
-0.60166202
-17.607974
-0.68714258
-21.101428
-0.7747121
-25.30454
-0.85870125
-30.366138
-0.92931822
-36.466914
-0.97127121
-43.830536
-0.95983181
-52.732164
-0.85781673
-63.514787
-0.62287822
-76.597954
-92.432972
-6.661875e-05
-0.0078236785
-0.00012188297
-0.010910648
-0.00018178122
-0.014273635
-0.00024455407
-0.018378471
-0.00030563672
-0.023550316
-0.00034566527
-0.030196284
-0.00049320328
-0.038102122
-0.00074960769
-0.046156787
-0.0010596906
-0.055071902
-0.0014280935
-0.066211609
-0.0018694705
-0.079134483
-0.0023970275
-0.095034819
-0.0030252856
-0.11374041
-0.0037781393
-0.13651407
-0.004671983
-0.16354259
-0.005742539
-0.19626313
-0.0070117532
-0.23529729
-0.0085293765
-0.28241423
-0.010328841
-0.33880959
-0.012479807
-0.40677586
-0.015039494
-0.48830331
-0.018109816
-0.58644319
-0.021797514
-0.70425218
-0.026272349
-0.84579932
-0.031745949
-1.0154506
-0.038527262
-1.2185005
-0.047008208
-1.4607596
-0.057658605
-1.7490053
-0.070942193
-2.0910307
-0.087274239
-2.4962644
-0.10698975
-2.9763413
-0.13039789
-3.545926
-0.15787718
-4.2234845
-0.18992523
-5.0318643
-0.2271704
-5.9988273
-0.2702369
-7.1581729
-0.31980576
-8.5482715
-0.37652713
-10.21725
-0.44085593
-12.221857
-0.51288527
-14.631668
-0.59211617
-17.529379
-0.67687677
-21.017043
-0.76404782
-25.217359
-0.84820896
-30.281546
-0.92005618
-36.394035
-0.96487639
-43.78416
-0.95885849
-52.734947
-0.8663136
-63.601793
-0.64555127
-76.811921
-92.880875
-5.4851127e-05
-0.0077775752
-0.00010578844
-0.010860865
-0.00016013162
-0.014220903
-0.00021577209
-0.01832481
-0.00026827472
-0.0235002
-0.00029567491
-0.030171867
-0.00044156214
-0.037959591
-0.00068559428
-0.04591662
-0.00098104255
-0.054781004
-0.0013324428
-0.065865684
-0.0017527027
-0.078720743
-0.0022555354
-0.094539832
-0.0028533647
-0.11315199
-0.0035702607
-0.13580854
-0.0044199799
-0.16270661
-0.0054380048
-0.19526171
-0.0066432902
-0.23411204
-0.0080849232
-0.28099672
-0.0097930388
-0.33713073
-0.011835029
-0.40476934
-0.014264744
-0.4859169
-0.017182265
-0.5835785
-0.020691576
-0.70080743
-0.024961744
-0.84160806
-0.030204312
-1.0103034
-0.036733352
-1.2120877
-0.044945311
-1.4526912
-0.055313176
-1.7388116
-0.068305049
-2.0782414
-0.084343501
-2.4804684
-0.10377173
-2.9572119
-0.12689282
-3.5231594
-0.15406274
-4.1967232
-0.1857521
-5.0006305
-0.22256663
-5.9625119
-0.26512495
-7.1161479
-0.31408875
-8.4998847
-0.37011673
-10.16186
-0.43368791
-12.158955
-0.50493052
-14.561098
-0.5834265
-17.451491
-0.66761901
-20.933205
-0.75456246
-25.130368
-0.83911086
-30.196523
-0.91241442
-36.319691
-0.96036217
-43.734633
-0.96009145
-52.731898
-0.8772942
-63.67888
-0.67110384
-77.011392
-93.302209
-4.3517264e-05
-0.0077347397
-9.0159033e-05
-0.0108153
-0.00013886512
-0.014173735
-0.00018730592
-0.018278268
-0.00023113634
-0.02345866
-0.00024695556
-0.030158926
-0.00039187231
-0.037817882
-0.00062520565
-0.045687013
-0.00090650362
-0.054504094
-0.0012415873
-0.065535908
-0.0016414043
-0.078327258
-0.0021204675
-0.09406841
-0.0026886677
-0.11259296
-0.0033705793
-0.1351377
-0.0041773386
-0.16191322
-0.005144335
-0.19431085
-0.0062877263
-0.23298814
-0.0076556504
-0.27965231
-0.0092759746
-0.33553891
-0.011213007
-0.40286687
-0.013519198
-0.4836528
-0.016290286
-0.5808587
-0.019630537
-0.69752956
-0.023707911
-0.83760667
-0.028738332
-1.0053641
-0.035039701
-1.2058968
-0.04301506
-1.4448508
-0.053138305
-1.7288498
-0.065876602
-2.0656883
-0.081655449
-2.4649105
-0.10081926
-2.9383217
-0.12366897
-3.5006368
-0.15054561
-4.1702276
-0.18189857
-4.9697079
-0.21831835
-5.9265683
-0.26040433
-7.0745745
-0.30881814
-8.452027
-0.36423508
-10.10706
-0.42714134
-12.096695
-0.49771568
-14.491166
-0.57560356
-17.374177
-0.65938238
-20.849751
-0.74628418
-25.04338
-0.83143268
-30.110861
-0.90643686
-36.243642
-0.9577857
-43.681685
-0.96357434
-52.722695
-0.89077205
-63.745798
-0.69975198
-77.195811
-93.696826
-3.2967276e-05
-0.0076950182
-7.5554764e-05
-0.010773752
-0.00011897115
-0.014131738
-0.00016044089
-0.018238616
-0.00019555785
-0.023425726
-0.0002014086
-0.030155838
-0.00034559609
-0.03767677
-0.00056786922
-0.045468347
-0.0008351247
-0.054241104
-0.0011540951
-0.065222112
-0.0015337855
-0.077953741
-0.0019893946
-0.093620255
-0.0025285383
-0.11206276
-0.0031763121
-0.13450072
-0.0039413591
-0.16116119
-0.0048590404
-0.19340887
-0.005943453
-0.2319227
-0.0072403863
-0.27837827
-0.0087758285
-0.33403129
-0.010612163
-0.40106427
-0.012799003
-0.4815072
-0.015431348
-0.57827653
-0.018611993
-0.69441023
-0.02250933
-0.83378382
-0.027345517
-1.0006175
-0.033444069
-1.1999065
-0.041214998
-1.437212
-0.051130867
-1.7190896
-0.063655339
-2.0533406
-0.079208344
-2.449567
-0.098135629
-2.9196536
-0.1207346
-3.4783473
-0.14733551
-4.143988
-0.17837254
-4.9390816
-0.2144276
-5.8909702
-0.25609263
-7.0334032
-0.30402584
-8.40463
-0.35889965
-10.052781
-0.42123301
-12.034985
-0.49125503
-14.42176
-0.56867368
-17.297301
-0.65220401
-20.766516
-0.73924938
-24.95621
-0.82522993
-30.02433
-0.90218427
-36.16564
-0.95721083
-43.625037
-0.96933933
-52.707055
-0.90877521
-63.800335
-0.73180612
-77.366264
-94.064728
-2.2444472e-05
-0.0076586536
-6.0776183e-05
-0.010736482
-9.8702638e-05
-0.014095138
-0.00013287313
-0.018206173
-0.00015843905
-0.023402256
-0.00015544166
-0.030161486
-0.00029930754
-0.037535865
-0.00051083392
-0.045260315
-0.00076451701
-0.053991546
-0.0010678506
-0.06492379
-0.0014279223
-0.077599648
-0.001860704
-0.093194707
-0.0023715965
-0.11156055
-0.0029864112
-0.13389639
-0.0037113023
-0.16044895
-0.0045816687
-0.19255377
-0.0056084327
-0.2309144
-0.0068374987
-0.27717153
-0.0082908384
-0.33260509
-0.01003079
-0.39935723
-0.012104546
-0.47947361
-0.014604828
-0.57582504
-0.017634705
-0.69143977
-0.021365984
-0.83012433
-0.026026151
-0.99604323
-0.031947611
-1.1940882
-0.039546757
-1.4297377
-0.049291803
-1.7094894
-0.061640141
-2.041155
-0.077003381
-2.4343964
-0.095722516
-2.9011738
-0.11809419
-3.4562628
-0.1444421
-4.1179778
-0.17519431
-4.908717
-0.21091883
-5.8556802
-0.25221086
-6.9925836
-0.2997169
-8.3576377
-0.35412774
-9.9989405
-0.4159918
-11.973718
-0.48557001
-14.352768
-0.56266657
-17.220713
-0.64611352
-20.683332
-0.73350284
-24.868658
-0.82053139
-29.936721
-0.89970082
-36.085428
-0.95869874
-43.564391
-0.97749887
-52.684648
-0.92950335
-63.842264
-0.76732952
-77.522016
-94.405798
-1.2592142e-05
-0.0076255567
-4.6749498e-05
-0.010703395
-7.9457554e-05
-0.014063783
-0.00010653827
-0.018180819
-0.00012235278
-0.023388531
-0.0001122262
-0.03017421
-0.00025717358
-0.037393773
-0.00045860375
-0.04506226
-0.00069909832
-0.053755034
-0.00098717731
-0.064640551
-0.0013280339
-0.07726456
-0.0017387151
-0.09279102
-0.0022224735
-0.11108519
-0.0028057006
-0.13332334
-0.0034922973
-0.15977466
-0.0043171185
-0.19174382
-0.0052887804
-0.22996074
-0.0064510773
-0.27603099
-0.0078258967
-0.33125674
-0.0094729
-0.3977424
-0.011438832
-0.47754699
-0.013814255
-0.57349748
-0.016703962
-0.68860844
-0.020282775
-0.82661618
-0.024787271
-0.99162336
-0.030558073
-1.188419
-0.038016573
-1.4224015
-0.047627982
-1.7000184
-0.059837384
-2.0291016
-0.075046047
-2.419372
-0.093588021
-2.8828603
-0.11575826
-3.4343657
-0.14187815
-4.0921793
-0.17237012
-4.8785952
-0.20780582
-5.8206608
-0.24876695
-6.952076
-0.29591454
-8.3109832
-0.34994515
-9.9454571
-0.41143383
-11.912801
-0.48069794
-14.284062
-0.55760672
-17.144279
-0.64114412
-20.600025
-0.72907434
-24.780529
-0.81740332
-29.847785
-0.89905951
-36.002741
-0.96232084
-43.499446
-0.98816689
-52.655092
-0.95197069
-63.872398
-0.80631014
-77.661331
-94.719825
-3.8597441e-06
-0.0075949905
-3.4285829e-05
-0.010674027
-6.2160144e-05
-0.014037263
-8.2526377e-05
-0.018162166
-8.8375039e-05
-0.023384754
-7.2875648e-05
-0.030192256
-0.00021927024
-0.037250154
-0.00041020213
-0.044874623
-0.00063747553
-0.053531645
-0.00091066
-0.064372094
-0.001233198
-0.076947646
-0.0016230498
-0.092407992
-0.0020812742
-0.11063516
-0.0026345937
-0.13277996
-0.0032844485
-0.15913682
-0.0040651705
-0.19097762
-0.0049830573
-0.2290604
-0.0060820277
-0.27495326
-0.0073822606
-0.32998236
-0.0089405412
-0.39621554
-0.010802486
-0.47572338
-0.013059165
-0.57128737
-0.015819523
-0.68590464
-0.019261674
-0.8232421
-0.023629909
-0.98733622
-0.029277018
-1.1828688
-0.036628105
-1.4151663
-0.046141527
-1.690636
-0.058249122
-2.0171383
-0.073337689
-2.4044542
-0.091733809
-2.8646769
-0.1137307
-3.4126238
-0.13965051
-4.0665609
-0.1699155
-4.8486801
-0.20510103
-5.7858707
-0.24578938
-6.9118202
-0.2926411
-8.2646019
-0.34637412
-9.8922464
-0.40758414
-11.852135
-0.4766572
-14.215517
-0.55353658
-17.067841
-0.6373319
-20.516425
-0.72601802
-24.691609
-0.81588709
-29.757287
-0.90031488
-35.917302
-0.96816467
-43.429871
-1.0013709
-52.61805
-0.97690607
-63.890859
-0.84894267
-77.783084
-95.006567
5.2625825e-06
-0.0075676534
-2.073305e-05
-0.01064902
-4.3121819e-05
-0.01401614
-5.6296011e-05
-0.018150591
-5.0943009e-05
-0.02339206
-3.1644442e-05
-0.030213975
-0.00017365969
-0.037110811
-0.00035470292
-0.044696784
-0.00056987659
-0.053320247
-0.00082964885
-0.06411694
-0.0011353545
-0.076647456
-0.0015057879
-0.092044256
-0.00193958
-0.11020944
-0.0024639743
-0.13226532
-0.0030780766
-0.15853453
-0.003815791
-0.19025407
-0.0046828268
-0.22821051
-0.0057218144
-0.27393501
-0.0069509531
-0.32877852
-0.0084244562
-0.39477279
-0.010188315
-0.47399711
-0.012333291
-0.56918811
-0.014973853
-0.68331976
-0.01829338
-0.81998962
-0.022548199
-0.98316151
-0.028099112
-1.1774138
-0.035375942
-1.4080031
-0.044826794
-1.6813122
-0.056868592
-2.0052354
-0.071871521
-2.3896152
-0.090152849
-2.8465996
-0.11200668
-3.3910137
-0.13775638
-4.0410989
-0.16782851
-4.8189426
-0.20280281
-5.7512751
-0.24327424
-6.8717634
-0.28989925
-8.218427
-0.34341435
-9.8392302
-0.40446088
-11.791607
-0.47346573
-14.147012
-0.55046761
-16.991246
-0.6347097
-20.432344
-0.72436667
-24.601684
-0.81603334
-29.664975
-0.90353756
-35.828811
-0.97630402
-43.355324
-1.0172604
-52.573081
-1.0047818
-63.89747
-0.89517119
-77.88664
-95.265617
1.2934671e-05
-0.007542408
-9.8561094e-06
-0.010627108
-2.7961742e-05
-0.01399922
-3.5572019e-05
-0.01814451
-2.0397549e-05
-0.023409133
-1.6854832e-06
-0.030235108
-0.00013712079
-0.036977872
-0.00031013356
-0.044526901
-0.00051448425
-0.053119587
-0.00076181997
-0.063874173
-0.0010512919
-0.07636338
-0.0014026577
-0.091699514
-0.0018124851
-0.1098075
-0.0023085241
-0.13177888
-0.0028877908
-0.15796675
-0.0035848364
-0.18957082
-0.0044037955
-0.22740831
-0.0053855279
-0.27297359
-0.0065456613
-0.32764324
-0.0079386031
-0.39341001
-0.0096098496
-0.47236262
-0.011652202
-0.56719023
-0.014182605
-0.68084333
-0.017396028
-0.81684061
-0.021559643
-0.97907462
-0.027044032
-1.1720208
-0.034279428
-1.4008751
-0.043702732
-1.6720073
-0.055712895
-1.9933541
-0.070663422
-2.3748174
-0.088862322
-2.8285919
-0.11060366
-3.3695011
-0.13621564
-4.0157579
-0.16613206
-4.7893431
-0.20094296
-5.7168241
-0.24125103
-6.8318502
-0.287722
-8.1723843
-0.34111442
-9.7863123
-0.40209721
-11.731115
-0.47117187
-14.078408
-0.54845095
-16.914338
-0.63332866
-20.347591
-0.72417751
-24.510535
-0.81790779
-29.570587
-0.90878451
-35.736974
-0.98681986
-43.275444
-1.035863
-52.519772
-1.0359476
-63.891761
-0.94518559
-77.9715
-95.49659
2.0743039e-05
-0.0075198333
1.4633485e-06
-0.010608676
-1.2128611e-05
-0.013986765
-1.3522078e-05
-0.018144471
1.2855865e-05
-0.023437354
3.0253188e-05
-0.030254618
-0.00010082113
-0.03684931
-0.00026495945
-0.044365715
-0.0004580153
-0.052930106
-0.00069221013
-0.063644331
-0.0009651832
-0.076095637
-0.0012974759
-0.091373594
-0.0016838655
-0.10942876
-0.0021524201
-0.13131961
-0.002698888
-0.15743141
-0.0033575182
-0.18892561
-0.0041304246
-0.2266517
-0.005056664
-0.2720673
-0.0061515945
-0.32657273
-0.0074676786
-0.39212359
-0.0090524382
-0.47081392
-0.011000063
-0.56528644
-0.01343414
-0.67846235
-0.01655689
-0.81378154
-0.020653003
-0.97505427
-0.026101052
-1.1666635
-0.033328371
-1.3937536
-0.042758919
-1.6626921
-0.054771071
-1.9814666
-0.069701153
-2.3600348
-0.087849113
-2.8106283
-0.10951044
-3.3480594
-0.13501847
-3.9905095
-0.16481742
-4.7598479
-0.19951376
-5.6824724
-0.23971967
-6.7920223
-0.28611347
-8.1263993
-0.33946653
-9.7334111
-0.40050714
-11.67054
-0.46978045
-14.009578
-0.54750671
-16.836949
-0.63321208
-20.261975
-0.72548927
-24.417925
-0.82155428
-29.473856
-0.91611867
-35.641471
-0.9997896
-43.189859
-1.0577562
-52.457263
-1.0705725
-63.873608
-0.99919396
-78.037177
-95.698677
2.8600498e-05
-0.0075004077
1.3258955e-05
-0.010594275
4.8402179e-06
-0.013979617
1.0058552e-05
-0.01815114
4.7925386e-05
-0.023477187
6.3024993e-05
-0.030271813
-6.4433727e-05
-0.036724302
-0.00022023893
-0.044212783
-0.00040210132
-0.052751694
-0.00062382402
-0.063426799
-0.00088091437
-0.07584357
-0.0011951787
-0.09106546
-0.001559442
-0.10907187
-0.0020022925
-0.1308857
-0.0025179699
-0.15692649
-0.0031397294
-0.18831682
-0.0038680566
-0.22593931
-0.0047406918
-0.27121424
-0.0057731108
-0.32556432
-0.0070178594
-0.39090796
-0.0085225617
-0.46934451
-0.010384375
-0.56346729
-0.012734665
-0.67616342
-0.015786964
-0.81079032
-0.019840061
-0.97107347
-0.025281416
-1.1613084
-0.032534322
-1.3866008
-0.042004593
-1.6533297
-0.054051848
-1.9695353
-0.068992924
-2.3452319
-0.08712075
-2.7926741
-0.10873373
-3.3266536
-0.134174
-3.9653147
-0.16389762
-4.7304127
-0.19852934
-5.6481685
-0.23870122
-6.7522101
-0.28508925
-8.0803993
-0.33850564
-9.6804233
-0.39971354
-11.609771
-0.4693329
-13.940374
-0.54767323
-16.758912
-0.6344138
-20.17529
-0.72835587
-24.32362
-0.82703776
-29.374506
-0.92559867
-35.541982
-1.0152938
-43.098147
-1.0834447
-52.384483
-1.1088274
-63.843036
-1.0572736
-78.083241
-95.871537
3.5114757e-05
-0.007482995
2.2789416e-05
-0.010582879
1.8823622e-05
-0.013976925
2.9734521e-05
-0.01816348
7.7842669e-05
-0.023527226
8.6841704e-05
-0.030282954
-3.6094937e-05
-0.036603736
-0.00018323652
-0.044068449
-0.00035436087
-0.052583964
-0.00056424516
-0.063221036
-0.00080669539
-0.075606028
-0.0011044938
-0.090773635
-0.0014482738
-0.10873524
-0.0018671016
-0.13047554
-0.0023533596
-0.15645065
-0.0029393386
-0.18774346
-0.0036247101
-0.22526949
-0.0044463889
-0.27041167
-0.0054200309
-0.3246142
-0.0065965456
-0.38976
-0.0080272869
-0.46794851
-0.0098132511
-0.56172334
-0.012093884
-0.67393359
-0.015095824
-0.80784877
-0.019132705
-0.96710828
-0.024598926
-1.1559278
-0.031909629
-1.3793883
-0.041453254
-1.6438909
-0.053565466
-1.9575357
-0.068547795
-2.3303832
-0.086685199
-2.7747047
-0.10828346
-3.3052548
-0.1336946
-3.9401393
-0.16338878
-4.7009955
-0.19801379
-5.6138577
-0.23820768
-6.7123603
-0.28467643
-8.0343002
-0.33825623
-9.6272506
-0.39975397
-11.548688
-0.46986386
-13.870653
-0.54899447
-16.680052
-0.63697187
-20.087335
-0.73283398
-24.227369
-0.83442918
-29.272244
-0.93732173
-35.438159
-1.033419
-42.999897
-1.1115932
-52.301654
-1.1507066
-63.798882
-1.1196837
-78.108978
-96.014474
4.2022234e-05
-0.0074682668
3.3454269e-05
-0.010575221
3.467572e-05
-0.013979416
5.220144e-05
-0.018182409
0.00011091374
-0.02358786
0.00011295937
-0.030286995
-1.6399026e-06
-0.036491535
-0.00014135683
-0.043931487
-0.00030305118
-0.052425588
-0.0005025377
-0.063025598
-0.00073175267
-0.075381609
-0.0010141674
-0.090497054
-0.0013387573
-0.10841763
-0.0017343919
-0.13008836
-0.0021920137
-0.1560032
-0.0027432102
-0.18720459
-0.0033874089
-0.2246405
-0.0041605428
-0.26965723
-0.0050788335
-0.32371894
-0.0061917027
-0.38867509
-0.0075553879
-0.46661884
-0.0092754405
-0.56004407
-0.011502179
-0.67175597
-0.014476416
-0.80493216
-0.018524573
-0.96312852
-0.024046675
-1.1504867
-0.031449532
-1.3720779
-0.041096629
-1.6343416
-0.053303648
-1.9454339
-0.068354596
-2.3154579
-0.086534176
-2.756684
-0.10815318
-3.2838247
-0.13357446
-3.9149416
-0.16328554
-4.6715479
-0.19795845
-5.5794839
-0.23825063
-6.6723955
-0.28488437
-7.988017
-0.33872401
-9.5737964
-0.40064065
-11.487161
-0.47139234
-13.800265
-0.55149273
-16.600192
-0.64093336
-19.997886
-0.7389707
-24.128921
-0.84378171
-29.166776
-0.95135749
-35.329628
-1.0542681
-42.894668
-1.1427277
-52.208596
-1.1963362
-63.740386
-1.1864435
-78.113782
-96.126727
4.7725475e-05
-0.0074552735
4.2128313e-05
-0.0105705
4.7846803e-05
-0.01398637
7.1132378e-05
-0.018207061
0.00013850727
-0.023657106
0.0001330789
-0.030283535
2.5115524e-05
-0.036385938
-0.00010840692
-0.043800681
-0.00026160352
-0.052275611
-0.00045137306
-0.062839782
-0.00066794448
-0.075169726
-0.00093542979
-0.090235283
-0.0012409591
-0.10811892
-0.0016138212
-0.1297238
-0.0020434939
-0.15558352
-0.0025613367
-0.18669888
-0.0031666
-0.22405013
-0.0038942074
-0.26894791
-0.0047599341
-0.3228757
-0.0058159334
-0.38764659
-0.0071209525
-0.46534717
-0.0087865646
-0.55841889
-0.010974974
-0.66961597
-0.013944031
-0.80202049
-0.01803296
-0.95910723
-0.023643808
-1.1449566
-0.031168923
-1.3646437
-0.040948849
-1.6246571
-0.053277202
-1.9332079
-0.068426507
-2.3004306
-0.086679916
-2.7385847
-0.10835509
-3.262332
-0.13382706
-3.8896849
-0.16360433
-4.6420242
-0.19838407
-5.5449913
-0.23885219
-6.6322405
-0.2857339
-7.9414689
-0.33994904
-9.5199468
-0.40240715
-11.425069
-0.4739584
-13.729052
-0.55522063
-16.519141
-0.6463511
-19.906721
-0.74683099
-24.028015
-0.85517245
-29.057795
-0.96779259
-35.216002
-1.0779277
-42.781981
-1.1770857
-52.104987
-1.2459073
-63.666873
-1.2579192
-78.096904
-96.20761
5.3425337e-05
-0.0074443054
5.0933164e-05
-0.01056888
6.1527393e-05
-0.013998173
9.148334e-05
-0.018238366
0.0001667586
-0.023734215
0.00015360999
-0.03027231
5.0529046e-05
-0.036285097
-7.6193256e-05
-0.043676646
-0.00022066529
-0.052134292
-0.00040076919
-0.06266354
-0.00060477184
-0.074970288
-0.00085744686
-0.089988189
-0.0011441524
-0.1078389
-0.0014945048
-0.1293816
-0.0018975825
-0.15519029
-0.0023839885
-0.18622436
-0.0029530635
-0.22349569
-0.0036378455
-0.26828106
-0.00445593
-0.32207967
-0.0054605379
-0.38666889
-0.006715736
-0.46412453
-0.0083386872
-0.55683515
-0.010507946
-0.66749324
-0.013495094
-0.79908805
-0.017654372
-0.95501215
-0.023386731
-1.1393008
-0.031063985
-1.3570516
-0.041003518
-1.6148066
-0.05348122
-1.920826
-0.06875794
-2.2852689
-0.087115649
-2.7203733
-0.10888256
-3.2407384
-0.13444804
-3.8643242
-0.16434277
-4.6123712
-0.19929639
-5.5103113
-0.24001257
-6.5918224
-0.28724453
-7.894553
-0.34193387
-9.4656034
-0.40507821
-11.362267
-0.47759269
-13.656851
-0.56021226
-16.436705
-0.65325935
-19.813614
-0.75646695
-23.924375
-0.86866519
-28.944983
-0.98671646
-35.09687
-1.1045019
-42.661322
-1.2149084
-51.990377
-1.2995288
-63.577793
-1.3341741
-78.057632
-96.256355
5.9113179e-05
-0.0074356093
5.9978916e-05
-0.010570609
7.5758276e-05
-0.014015154
0.00011319415
-0.018277127
0.00019471145
-0.023817534
0.00017233175
-0.030251792
7.4383431e-05
-0.036189371
-4.6026929e-05
-0.043558838
-0.00018218302
-0.052001202
-0.00035278827
-0.062496707
-0.00054408792
-0.074783444
-0.00078181484
-0.089755939
-0.0010503944
-0.10757687
-0.0013795858
-0.12906043
-0.0017579477
-0.15482162
-0.0022152127
-0.1857788
-0.0027507753
-0.22297449
-0.003396126
-0.26765323
-0.0041714602
-0.32132596
-0.0051310102
-0.38573572
-0.0063441215
-0.46294352
-0.0079383398
-0.55527969
-0.010107091
-0.66537066
-0.013139177
-0.79611036
-0.017399667
-0.95081559
-0.02328367
-1.1334926
-0.031141847
-1.3492771
-0.041269218
-1.6047658
-0.053923553
-1.9082651
-0.06935441
-2.2699499
-0.08784675
-2.702023
-0.10974217
-3.2190107
-0.13544536
-3.8388185
-0.16551161
-4.5825377
-0.20070371
-5.4753819
-0.2417503
-6.551061
-0.28942293
-7.8471809
-0.34471653
-9.4106378
-0.40868022
-11.298625
-0.48232508
-13.583496
-0.56650743
-16.352681
-0.6617165
-19.718323
-0.76793621
-23.817724
-0.88433766
-28.827999
-1.0082297
-34.971811
-1.1341791
-42.532163
-1.2564
-51.864228
-1.35744
-63.472542
-1.4154506
-77.995228
-96.272089
6.3878044e-05
-0.0074284951
6.7433631e-05
-0.010575018
8.7930362e-05
-0.014036839
0.00013299775
-0.0183235
0.00021819673
-0.023904522
0.00018504438
-0.030220431
9.1687073e-05
-0.036098151
-2.2389067e-05
-0.043447312
-0.00014990062
-0.051876692
-0.00031069253
-0.06233962
-0.00048927127
-0.074609228
-0.0007128263
-0.089537768
-0.00096459302
-0.10733156
-0.0012744092
-0.12875851
-0.0016301188
-0.15447545
-0.0020606414
-0.18535975
-0.0025647917
-0.22248442
-0.0031739423
-0.26706128
-0.0039109527
-0.32061012
-0.0048312841
-0.3848412
-0.0060122752
-0.46179373
-0.0075913855
-0.55373809
-0.0097815793
-0.66322454
-0.012888003
-0.79305563
-0.01728161
-0.9464824
-0.02334583
-1.1274999
-0.031413746
-1.3412876
-0.041755554
-1.5945046
-0.054610276
-1.895498
-0.070220953
-2.2544448
-0.088879272
-2.6834998
-0.11094061
-3.197109
-0.13682806
-3.8131192
-0.16712233
-4.5524658
-0.20262669
-5.4401283
-0.24408382
-6.5098754
-0.29230059
-7.7992489
-0.3483165
-9.3549323
-0.41324851
-11.233993
-0.48820092
-13.50881
-0.57415197
-16.266863
-0.67178085
-19.620593
-0.78130847
-23.707775
-0.90225453
-28.706507
-1.0324242
-34.840389
-1.1679328
-42.393175
-1.301751
-51.726771
-1.419808
-63.350511
-1.5019268
-77.908946
-96.253916
6.9671214e-05
-0.0074241971
7.6772918e-05
-0.010582945
0.00010271268
-0.014063937
0.00015700233
-0.018379073
0.00024459254
-0.023993837
0.00020083033
-0.030178401
0.00011298189
-0.03601241
5.6804469e-06
-0.043342505
-0.00011315868
-0.05176079
-0.00026448146
-0.062191956
-0.00043165346
-0.074446334
-0.00064268108
-0.089332063
-0.00087945682
-0.10710111
-0.0011716029
-0.12847416
-0.0015066917
-0.1541497
-0.0019121096
-0.18496562
-0.0023874798
-0.22202286
-0.0029639214
-0.26650165
-0.0036671673
-0.31992764
-0.0045552459
-0.38397841
-0.0057140311
-0.46066581
-0.0072955403
-0.55219363
-0.0095301619
-0.66103389
-0.012739292
-0.78989783
-0.017297467
-0.94198458
-0.023573974
-1.1212943
-0.031877559
-1.3330609
-0.042457402
-1.5840035
-0.055535956
-1.882505
-0.071351549
-2.238732
-0.090206791
-2.664776
-0.11247354
-3.1749971
-0.13859328
-3.7871813
-0.16917544
-4.522098
-0.20505781
-5.4044868
-0.24702505
-6.4681681
-0.2958901
-7.7506546
-0.35274695
-9.2983695
-0.4188004
-11.168221
-0.49524437
-13.43261
-0.58319144
-16.179024
-0.68349523
-19.52017
-0.79664122
-23.594221
-0.92249926
-28.580136
-1.0593719
-34.702187
-1.2045766
-42.244432
-1.3509587
-51.576894
-1.4867502
-63.21096
-1.5938531
-77.797897
-96.200842
7.3375146e-05
-0.0074209663
8.2463759e-05
-0.010592916
0.00011237631
-0.014095026
0.00017554013
-0.018443609
0.00026263707
-0.024082569
0.00021143075
-0.030128903
0.00012955277
-0.035932577
2.8720699e-05
-0.043244109
-8.2713379e-05
-0.051652213
-0.00022630837
-0.062051884
-0.00038391516
-0.074292924
-0.00058399284
-0.089137146
-0.00080744673
-0.10688391
-0.0010832463
-0.12820595
-0.0013991116
-0.15384302
-0.001780904
-0.18459492
-0.0022299514
-0.22158741
-0.0027773774
-0.26597074
-0.0034512905
-0.31927406
-0.0043150669
-0.38313932
-0.0054646381
-0.45954617
-0.0070670967
-0.55062678
-0.0093709005
-0.65877185
-0.012712491
-0.7866047
-0.017466019
-0.93728791
-0.023983567
-1.1148432
-0.032549298
-1.3245668
-0.043388395
-1.5732377
-0.056711528
-1.869262
-0.072758523
-2.2227823
-0.091843192
-2.6458167
-0.11435595
-3.1526321
-0.14075733
-3.7609535
-0.1716888
-4.4913714
-0.20803297
-5.3683727
-0.2505953
-6.4258535
-0.30021639
-7.7012901
-0.3580518
-9.2408122
-0.42538337
-11.101152
-0.50350347
-13.354712
-0.59367138
-16.08894
-0.69692084
-19.416786
-0.81400765
-23.476742
-0.94515003
-28.448502
-1.0891677
-34.556767
-1.2443739
-42.085698
-1.404135
-51.41377
-1.5584812
-63.053052
-1.6914486
-77.661203
-96.111917
7.806367e-05
-0.0074198932
8.9993111e-05
-0.010605766
0.0001246699
-0.014130898
0.00019851049
-0.018518804
0.0002831519
-0.024168973
0.00023640442
-0.030083998
0.00015856318
-0.035856761
6.2123502e-05
-0.04315009
-4.411582e-05
-0.0515488
-0.00018165357
-0.06191787
-0.00033065874
-0.074147995
-0.00052058053
-0.088952325
-0.00073121645
-0.10667938
-0.00099165773
-0.12795298
-0.0012895725
-0.15355418
-0.0016496751
-0.18424577
-0.0020751504
-0.22117529
-0.0025971508
-0.26546496
-0.0032478873
-0.31864325
-0.0040957166
-0.38231583
-0.0052501889
-0.45842126
-0.0068928034
-0.54901963
-0.0092930786
-0.65641319
-0.012798469
-0.78314772
-0.017778149
-0.93236481
-0.024564208
-1.108123
-0.033414534
-1.315787