/*--------------------------------*- C++ -*----------------------------------*\
  =========                 |
  \\      /  F ield         | OpenFOAM: The Open Source CFD Toolbox
   \\    /   O peration     | Website:  https://openfoam.org
    \\  /    A nd           | Version:  8
     \\/     M anipulation  |
\*---------------------------------------------------------------------------*/
FoamFile
{
    version     2.0;
    format      ascii;
    class       pointVectorField;
    location    "0.149996";
    object      pointDisplacement;
}
// * * * * * * * * * * * * * * * * * * * * * * * * * * * * * * * * * * * * * //

dimensions      [0 1 0 0 0 0 0];

internalField   nonuniform List<vector> 
40800
(
(-0.00024088703 0 -0.00019989921)
(-0.00024076023 0 -0.00016594976)
(-0.00024072706 0 -0.00016612522)
(-0.00024085082 0 -0.00020079846)
(-0.00024072283 0 -0.00016611291)
(-0.00024084683 0 -0.00020080154)
(-0.00024071458 0 -0.00016610257)
(-0.00024083897 0 -0.00020080724)
(-0.00024070062 0 -0.0001660942)
(-0.00024082559 0 -0.00020081775)
(-0.00024067856 0 -0.00016608961)
(-0.00024080432 0 -0.00020083571)
(-0.0002406451 0 -0.00016609177)
(-0.00024077197 0 -0.00020086494)
(-0.00024059568 0 -0.00016610524)
(-0.00024072403 0 -0.00020091103)
(-0.00024052412 0 -0.00016613732)
(-0.00024065446 0 -0.0002009822)
(-0.00024042201 0 -0.00016619898)
(-0.00024055498 0 -0.00020109043)
(-0.00024027807 0 -0.00016630689)
(-0.00024041454 0 -0.00020125308)
(-0.00024007721 0 -0.00016648562)
(-0.00024021824 0 -0.00020149524)
(-0.00023979936 0 -0.00016677042)
(-0.00023994636 0 -0.00020185254)
(-0.00023941826 0 -0.00016721139)
(-0.00023957297 0 -0.000202375)
(-0.00023889937 0 -0.00016787937)
(-0.00023906399 0 -0.00020313353)
(-0.00023819843 0 -0.00016887438)
(-0.00023837568 0 -0.00020422793)
(-0.00023725875 0 -0.00017033396)
(-0.0002374518 0 -0.00020579254)
(-0.00023600844 0 -0.00017245545)
(-0.00023622127 0 -0.00020802652)
(-0.00023435984 0 -0.00017550882)
(-0.00023459714 0 -0.00021119349)
(-0.00023220912 0 -0.00017985166)
(-0.00023247571 0 -0.00021563968)
(-0.00022943918 0 -0.00018595797)
(-0.00022973935 0 -0.00022183181)
(-0.00022592246 0 -0.00019443499)
(-0.00022625894 0 -0.00023036127)
(-0.00022152514 0 -0.00020603221)
(-0.00022189819 0 -0.0002419575)
(-0.00021612744 0 -0.00022162896)
(-0.00021653403 0 -0.00025747538)
(-0.00020962548 0 -0.00024220824)
(-0.0002100559 0 -0.00027787322)
(-0.00020197794 0 -0.00026873023)
(-0.0002024182 0 -0.00030408251)
(-0.00019317802 0 -0.00030210064)
(-0.00019360353 0 -0.00033699674)
(-0.00018332021 0 -0.00034274123)
(-0.00018370884 0 -0.00037697102)
(-0.00017254018 0 -0.00039074257)
(-0.00017286552 0 -0.00042407086)
(-0.00016111389 0 -0.0004454773)
(-0.00016135491 0 -0.00047765719)
(-0.00014935148 0 -0.00050576639)
(-0.00014949372 0 -0.00053657699)
(-0.00013758655 0 -0.00056994188)
(-0.00013763113 0 -0.00059919806)
(-0.00012613328 0 -0.00063593435)
(-0.00012609195 0 -0.00066347544)
(-0.00011524912 0 -0.00070156849)
(-0.00011514701 0 -0.00072724492)
(-0.00010513701 0 -0.0007649919)
(-0.00010499426 0 -0.00078874525)
(-9.5892297e-05 0 -0.00082478158)
(-9.5730351e-05 0 -0.00084660021)
(-8.773977e-05 0 -0.00087862893)
(-8.758474e-05 0 -0.00089843508)
(-8.0953359e-05 0 -0.00092511143)
(-8.0859048e-05 0 -0.00094287383)
(-7.5355653e-05 0 -0.00096508195)
(-7.5314922e-05 0 -0.00098104605)
(-7.0696644e-05 0 -0.00099903703)
(-7.0721959e-05 0 -0.0010134633)
(-6.6835181e-05 0 -0.0010230557)
(-6.6899564e-05 0 -0.0010357079)
(-6.3520023e-05 0 -0.0010391476)
(-6.3629546e-05 0 -0.001050436)
(-6.0961053e-05 0 -0.0010485818)
(-6.1126787e-05 0 -0.0010586715)
(-5.8759626e-05 0 -0.0010512218)
(-5.8992134e-05 0 -0.0010606899)
(-5.591796e-05 0 -0.0010390513)
(-5.6114715e-05 0 -0.0010472262)
(-5.255738e-05 0 -0.0010109276)
(-5.2766383e-05 0 -0.0010185378)
(-4.9394713e-05 0 -0.00097145352)
(-4.9678591e-05 0 -0.00097948342)
(-4.3683049e-05 0 -0.00087660098)
(-4.3906484e-05 0 -0.00088303052)
(-3.5826869e-05 0 -0.00072552507)
(-3.6053311e-05 0 -0.00073146597)
(-2.6013369e-05 0 -0.00050242461)
(-2.646122e-05 0 -0.00051053305)
(0 0 0)
(0 0 0)
(-0.00024050575 0 -0.00013273144)
(-0.00024047318 0 -0.00013289314)
(-0.00024046863 0 -0.00013285805)
(-0.00024045993 0 -0.00013281825)
(-0.00024044535 0 -0.00013277417)
(-0.00024042244 0 -0.00013272698)
(-0.00024038784 0 -0.00013267895)
(-0.00024033688 0 -0.00013263411)
(-0.00024026329 0 -0.00013259888)
(-0.00024015848 0 -0.00013258342)
(-0.00024001102 0 -0.00013260274)
(-0.00023980555 0 -0.00013267936)
(-0.00023952174 0 -0.00013284588)
(-0.00023913294 0 -0.00013314988)
(-0.00023860421 0 -0.00013366)
(-0.00023789081 0 -0.00013447427)
(-0.00023693546 0 -0.00013573122)
(-0.00023566585 0 -0.0001376261)
(-0.00023399365 0 -0.00014042835)
(-0.00023181506 0 -0.00014450024)
(-0.00022901346 0 -0.00015032156)
(-0.00022546215 0 -0.00015851149)
(-0.00022103052 0 -0.00016983867)
(-0.00021560102 0 -0.00018520884)
(-0.00020907762 0 -0.00020562986)
(-0.00020142206 0 -0.00023209836)
(-0.00019263865 0 -0.0002655349)
(-0.00018281848 0 -0.00030645346)
(-0.0001721028 0 -0.00035498323)
(-0.00016076449 0 -0.0004105146)
(-0.00014910298 0 -0.00047187017)
(-0.00013744197 0 -0.00053734027)
(-0.00012607944 0 -0.00060485455)
(-0.00011526679 0 -0.00067221059)
(-0.00010520147 0 -0.00073749522)
(-9.5988063e-05 0 -0.00079918965)
(-8.7836369e-05 0 -0.00085507102)
(-8.0999349e-05 0 -0.00090369194)
(-7.5336907e-05 0 -0.00094563108)
(-7.061907e-05 0 -0.00098126626)
(-6.6701435e-05 0 -0.0010071593)
(-6.3349013e-05 0 -0.001024906)
(-6.0718751e-05 0 -0.0010355961)
(-5.8448401e-05 0 -0.0010391191)
(-5.5612837e-05 0 -0.0010280509)
(-5.2268241e-05 0 -0.0010008971)
(-4.9002125e-05 0 -0.00096071019)
(-4.3339357e-05 0 -0.00086729305)
(-3.550018e-05 0 -0.00071715661)
(-2.5436732e-05 0 -0.00049164937)
(0 0 0)
(-0.00024012645 0 -0.00010022905)
(-0.00024009463 0 -0.00010037479)
(-0.00024008947 0 -0.00010031448)
(-0.00024007998 0 -0.00010024449)
(-0.00024006442 0 -0.00010016558)
(-0.00024004026 0 -0.00010007848)
(-0.0002400041 0 -9.9984928e-05)
(-0.00023995115 0 -9.9887484e-05)
(-0.00023987501 0 -9.9791108e-05)
(-0.00023976693 0 -9.9703759e-05)
(-0.00023961523 0 -9.9638348e-05)
(-0.00023940429 0 -9.9615129e-05)
(-0.00023911343 0 -9.9664516e-05)
(-0.00023871563 0 -9.9832271e-05)
(-0.00023817546 0 -0.00010018524)
(-0.00023744765 0 -0.00010082028)
(-0.00023647433 0 -0.00010187532)
(-0.00023518257 0 -0.00010354507)
(-0.00023348352 0 -0.00010609935)
(-0.00023127343 0 -0.00010990384)
(-0.00022843612 0 -0.00011544582)
(-0.00022484618 0 -0.00012335788)
(-0.000220376 0 -0.00013442795)
(-0.00021491138 0 -0.00014958693)
(-0.00020836361 0 -0.00016986807)
(-0.00020069935 0 -0.00019629898)
(-0.00019193271 0 -0.00022981863)
(-0.00018215335 0 -0.00027102015)
(-0.00017150809 0 -0.0003200653)
(-0.00016026605 0 -0.00037635863)
(-0.00014871658 0 -0.00043872184)
(-0.00013717197 0 -0.0005054123)
(-0.0001259146 0 -0.00057435797)
(-0.00011518812 0 -0.00064333648)
(-0.00010518415 0 -0.00071038338)
(-9.6014442e-05 0 -0.00077389456)
(-8.7875924e-05 0 -0.00083171787)
(-8.1002425e-05 0 -0.00088238863)
(-7.5285877e-05 0 -0.00092624082)
(-7.0516225e-05 0 -0.0009635316)
(-6.6547997e-05 0 -0.0009912349)
(-6.3160713e-05 0 -0.0010106045)
(-6.0466099e-05 0 -0.0010225545)
(-5.8131072e-05 0 -0.0010269704)
(-5.5297994e-05 0 -0.0010169701)
(-5.1967136e-05 0 -0.00099074831)
(-4.8608895e-05 0 -0.0009499837)
(-4.2988132e-05 0 -0.00085788141)
(-3.5165338e-05 0 -0.00070866023)
(-2.4881197e-05 0 -0.00048118308)
(0 0 0)
(-0.00023962641 0 -6.8427721e-05)
(-0.00023959529 0 -6.8561532e-05)
(-0.00023958947 0 -6.8481874e-05)
(-0.00023957913 0 -6.8389097e-05)
(-0.00023956244 0 -6.8282042e-05)
(-0.0002395368 0 -6.8160105e-05)
(-0.0002394987 0 -6.8023595e-05)
(-0.00023944326 0 -6.7873998e-05)
(-0.00023936392 0 -6.7715191e-05)
(-0.00023925176 0 -6.7553847e-05)
(-0.00023909489 0 -6.7401606e-05)
(-0.0002388774 0 -6.7277033e-05)
(-0.00023857826 0 -6.720881e-05)
(-0.00023816999 0 -6.7240683e-05)
(-0.00023761665 0 -6.7437557e-05)
(-0.00023687235 0 -6.7894495e-05)
(-0.00023587857 0 -6.8748453e-05)
(-0.00023456177 0 -7.0193776e-05)
(-0.00023283261 0 -7.2501044e-05)
(-0.00023058726 0 -7.6040476e-05)
(-0.0002277102 0 -8.1308893e-05)
(-0.00022407751 0 -8.8953536e-05)
(-0.00021956458 0 -9.9781696e-05)
(-0.00021406152 0 -0.00011474816)
(-0.0002074866 0 -0.0001349116)
(-0.00019981303 0 -0.00016132586)
(-0.0001910637 0 -0.00019495178)
(-0.00018132857 0 -0.00023644688)
(-0.00017076007 0 -0.00028599778)
(-0.0001596226 0 -0.00034302242)
(-0.00014819589 0 -0.00040633896)
(-0.00013677957 0 -0.00047417942)
(-0.00012564098 0 -0.00054446966)
(-0.00011501449 0 -0.00061497423)
(-0.00010508584 0 -0.00068368519)
(-9.5971749e-05 0 -0.00074892514)
(-8.785824e-05 0 -0.00080859936)
(-8.096179e-05 0 -0.00086123026)
(-7.5201816e-05 0 -0.00090693358)
(-7.0387464e-05 0 -0.00094584834)
(-6.6374383e-05 0 -0.00097529971)
(-6.2954848e-05 0 -0.00099625677)
(-6.0202349e-05 0 -0.0010094649)
(-5.7806987e-05 0 -0.0010147803)
(-5.4973543e-05 0 -0.0010058158)
(-5.1654386e-05 0 -0.00098048989)
(-4.8214361e-05 0 -0.00093926931)
(-4.262963e-05 0 -0.00084837341)
(-3.4822871e-05 0 -0.00070004894)
(-2.4345128e-05 0 -0.00047100873)
(0 0 0)
(-0.0002390095 0 -3.7312814e-05)
(-0.00023897869 0 -3.7433271e-05)
(-0.00023897193 0 -3.733228e-05)
(-0.0002389604 0 -3.7214456e-05)
(-0.00023894222 0 -3.7077873e-05)
(-0.00023891471 0 -3.6920906e-05)
(-0.00023887427 0 -3.6742695e-05)
(-0.00023881588 0 -3.6543381e-05)
(-0.00023873282 0 -3.6325257e-05)
(-0.00023861595 0 -3.6093411e-05)
(-0.00023845312 0 -3.5857722e-05)
(-0.00023822811 0 -3.5635024e-05)
(-0.00023791947 0 -3.5452113e-05)
(-0.00023749927 0 -3.5350759e-05)
(-0.00023693097 0 -3.53938e-05)
(-0.00023616804 0 -3.5674424e-05)
(-0.00023515127 0 -3.6328345e-05)
(-0.00023380646 0 -3.7549718e-05)
(-0.00023204379 0 -3.9611226e-05)
(-0.00022975947 0 -4.2889046e-05)
(-0.00022683864 0 -4.7891031e-05)
(-0.00022315913 0 -5.5280448e-05)
(-0.00021859946 0 -6.5883863e-05)
(-0.00021305472 0 -8.0679005e-05)
(-0.00020645018 0 -0.00010074954)
(-0.00019876688 0 -0.00012717192)
(-0.00019003579 0 -0.00016092996)
(-0.00018034856 0 -0.00020273276)
(-0.00016986328 0 -0.0002527843)
(-0.00015883873 0 -0.00031051312)
(-0.00014754504 0 -0.00037473235)
(-0.00013626842 0 -0.00044365538)
(-0.00012526134 0 -0.00051520719)
(-0.00011474796 0 -0.00058714417)
(-0.00010490772 0 -0.000657423)
(-9.5860764e-05 0 -0.0007243039)
(-8.7783499e-05 0 -0.00078573924)
(-8.0876997e-05 0 -0.00084024061)
(-7.5084039e-05 0 -0.00088772986)
(-7.0232293e-05 0 -0.00092823227)
(-6.6180092e-05 0 -0.0009593708)
(-6.2731171e-05 0 -0.00098187646)
(-5.9926778e-05 0 -0.00099633507)
(-5.7475569e-05 0 -0.0010025548)
(-5.4639528e-05 0 -0.00099459465)
(-5.1330268e-05 0 -0.00097013061)
(-4.7817821e-05 0 -0.0009285618)
(-4.2264072e-05 0 -0.00083877533)
(-3.4473205e-05 0 -0.0006913311)
(-2.3827232e-05 0 -0.00046110727)
(0 0 0)
(-0.00023827863 0 -6.8700961e-06)
(-0.00023824819 0 -6.9768232e-06)
(-0.00023824035 0 -6.8537691e-06)
(-0.00023822745 0 -6.7098654e-06)
(-0.00023820755 0 -6.5426863e-06)
(-0.00023817788 0 -6.3498122e-06)
(-0.0002381347 0 -6.1294793e-06)
(-0.00023807285 0 -5.8806168e-06)
(-0.00023798545 0 -5.6040634e-06)
(-0.00023786312 0 -5.3033536e-06)
(-0.00023769344 0 -4.9864156e-06)
(-0.00023745983 0 -4.6680403e-06)
(-0.00023714042 0 -4.3728481e-06)
(-0.00023670672 0 -4.140412e-06)
(-0.0002361216 0 -4.0314653e-06)
(-0.00023533779 0 -4.1372677e-06)
(-0.00023429537 0 -4.5923538e-06)
(-0.00023291948 0 -5.5908905e-06)
(-0.00023111984 0 -7.4080345e-06)
(-0.00022879272 0 -1.0427929e-05)
(-0.00022582412 0 -1.5171846e-05)
(-0.00022209374 0 -2.2320616e-05)
(-0.00021748346 0 -3.2719035e-05)
(-0.00021189387 0 -4.7366928e-05)
(-0.00020525759 0 -6.7372243e-05)
(-0.00019756434 0 -9.3831173e-05)
(-0.00018885276 0 -0.00012775058)
(-0.00017921756 0 -0.0001698778)
(-0.00016882206 0 -0.00022042756)
(-0.00015791873 0 -0.00027883711)
(-0.00014676794 0 -0.00034391283)
(-0.00013564185 0 -0.00041385474)
(-0.00012477825 0 -0.0004865887)
(-0.00011439028 0 -0.00055986783)
(-0.00010465086 0 -0.00063162028)
(-9.5682047e-05 0 -0.00070005476)
(-8.7651822e-05 0 -0.00076316214)
(-8.0747524e-05 0 -0.00081944462)
(-7.493186e-05 0 -0.00086865147)
(-7.0050045e-05 0 -0.00091070036)
(-6.5964541e-05 0 -0.000943466)
(-6.2489363e-05 0 -0.00096747891)
(-5.9638717e-05 0 -0.00098317469)
(-5.7136098e-05 0 -0.00099029916)
(-5.4295843e-05 0 -0.00098331267)
(-5.0994946e-05 0 -0.00095967717)
(-4.7418592e-05 0 -0.00091785559)
(-4.1891609e-05 0 -0.00082909332)
(-3.4116684e-05 0 -0.00068251767)
(-2.3326139e-05 0 -0.00045146436)
(0 0 0)
(-0.00023743716 0 2.2914306e-05)
(-0.00023740703 0 2.2820007e-05)
(-0.00023739793 0 2.2963028e-05)
(-0.00023738346 0 2.3130252e-05)
(-0.0002373616 0 2.3325314e-05)
(-0.00023732946 0 2.3552059e-05)
(-0.00023728317 0 2.3813612e-05)
(-0.00023721741 0 2.4112176e-05)
(-0.00023712509 0 2.4448225e-05)
(-0.00023699658 0 2.4819473e-05)
(-0.00023681916 0 2.5219483e-05)
(-0.00023657586 0 2.5635053e-05)
(-0.00023624432 0 2.604345e-05)
(-0.00023579551 0 2.6407224e-05)
(-0.00023519162 0 2.6667896e-05)
(-0.00023438459 0 2.6736306e-05)
(-0.00023331376 0 2.6479535e-05)
(-0.00023190355 0 2.5703409e-05)
(-0.00023006329 0 2.4129666e-05)
(-0.00022768954 0 2.1363386e-05)
(-0.00022466928 0 1.6867241e-05)
(-0.00022088417 0 9.9417384e-06)
(-0.00021621959 0 -2.7380247e-07)
(-0.00021058223 0 -1.4800436e-05)
(-0.00020391247 0 -3.4770553e-05)
(-0.00019620936 0 -6.1296571e-05)
(-0.00018751903 0 -9.5407633e-05)
(-0.00017794022 0 -0.00013787804)
(-0.00016764121 0 -0.00018892648)
(-0.00015686745 0 -0.00024799619)
(-0.00014586912 0 -0.00031388555)
(-0.00013490391 0 -0.0003847857)
(-0.00012419494 0 -0.00045862601)
(-0.00011394394 0 -0.00053316012)
(-0.00010431691 0 -0.00060629454)
(-9.5436735e-05 0 -0.00067619604)
(-8.7463766e-05 0 -0.00074088773)
(-8.0573276e-05 0 -0.00079886284)
(-7.4744844e-05 0 -0.00084971743)
(-6.984033e-05 0 -0.00089326811)
(-6.5727295e-05 0 -0.00092760139)
(-6.2229188e-05 0 -0.00095307775)
(-5.9337575e-05 0 -0.00096999246)
(-5.6788006e-05 0 -0.00097801922)
(-5.3942417e-05 0 -0.00097197595)
(-5.0648588e-05 0 -0.00094913695)
(-4.7016027e-05 0 -0.00090714587)
(-4.1512372e-05 0 -0.00081933296)
(-3.3753633e-05 0 -0.00067361706)
(-2.2840694e-05 0 -0.00044206418)
(0 0 0)
(-0.0002364886 0 5.2054145e-05)
(-0.00023645868 0 5.1973636e-05)
(-0.0002364481 0 5.2138958e-05)
(-0.00023643179 0 5.2332474e-05)
(-0.00023640764 0 5.2558375e-05)
(-0.00023637264 0 5.282109e-05)
(-0.0002363228 0 5.3124735e-05)
(-0.00023625261 0 5.3472701e-05)
(-0.00023615475 0 5.3866883e-05)
(-0.00023601934 0 5.4306595e-05)
(-0.00023583329 0 5.478718e-05)
(-0.00023557922 0 5.529744e-05)
(-0.00023523424 0 5.5816799e-05)
(-0.00023476869 0 5.6310115e-05)
(-0.00023414401 0 5.6721276e-05)
(-0.00023331132 0 5.696336e-05)
(-0.00023220911 0 5.6904738e-05)
(-0.00023076114 0 5.6351406e-05)
(-0.0002288764 0 5.5022954e-05)
(-0.00022645213 0 5.2506817e-05)
(-0.00022337646 0 4.8245723e-05)
(-0.00021953293 0 4.1522088e-05)
(-0.00021481051 0 3.1464116e-05)
(-0.00020912262 0 1.7030617e-05)
(-0.00020241809 0 -2.9367422e-06)
(-0.00019470555 0 -2.9562379e-05)
(-0.00018603878 0 -6.3897284e-05)
(-0.00017652122 0 -0.00010673128)
(-0.00016632552 0 -0.00015828076)
(-0.00015568961 0 -0.00021799281)
(-0.00014485296 0 -0.00028465649)
(-0.00013405843 0 -0.00035645754)
(-0.00012351453 0 -0.00043133166)
(-0.00011341124 0 -0.00050703693)
(-0.00010390745 0 -0.00058146407)
(-9.5125832e-05 0 -0.0006527471)
(-8.7219862e-05 0 -0.0007189363)
(-8.035414e-05 0 -0.00077851654)
(-7.4522586e-05 0 -0.0008309475)
(-6.9602661e-05 0 -0.00087595188)
(-6.5467884e-05 0 -0.00091179359)
(-6.1950366e-05 0 -0.00093868776)
(-5.9022822e-05 0 -0.00095679859)
(-5.6430658e-05 0 -0.00096572077)
(-5.3579086e-05 0 -0.00096059035)
(-5.0291299e-05 0 -0.00093851619)
(-4.6609539e-05 0 -0.00089642827)
(-4.1126447e-05 0 -0.00080949956)
(-3.3384338e-05 0 -0.00066463897)
(-2.2369717e-05 0 -0.0004328944)
(0 0 0)
(-0.00023543645 0 8.0562774e-05)
(-0.00023540643 0 8.049582e-05)
(-0.00023539411 0 8.0683306e-05)
(-0.00023537564 0 8.0903142e-05)
(-0.00023534883 0 8.1160071e-05)
(-0.00023531058 0 8.1459201e-05)
(-0.00023525673 0 8.1805381e-05)
(-0.00023518159 0 8.2203069e-05)
(-0.0002350776 0 8.265539e-05)
(-0.00023493457 0 8.3163225e-05)
(-0.00023473901 0 8.3723762e-05)
(-0.00023447308 0 8.4327904e-05)
(-0.00023411328 0 8.4957532e-05)
(-0.00023362927 0 8.5579976e-05)
(-0.00023298165 0 8.6141804e-05)
(-0.00023212065 0 8.6558228e-05)
(-0.00023098391 0 8.6699142e-05)
(-0.0002294944 0 8.6369912e-05)
(-0.00022756182 0 8.5273998e-05)
(-0.00022508431 0 8.2984772e-05)
(-0.00022195001 0 7.894098e-05)
(-0.00021804376 0 7.2413579e-05)
(-0.00021325919 0 6.2505059e-05)
(-0.00020751833 0 4.8136075e-05)
(-0.00020077822 0 2.8136662e-05)
(-0.00019305712 0 1.3775872e-06)
(-0.00018441682 0 -3.3214286e-05)
(-0.00017496566 0 -7.6433769e-05)
(-0.00016488027 0 -0.00012848862)
(-0.00015439053 0 -0.00018882699)
(-0.00014372447 0 -0.00025622811)
(-0.00013310987 0 -0.00032887536)
(-0.00012274072 0 -0.00040471394)
(-0.0001127951 0 -0.00048150954)
(-0.00010342457 0 -0.00055714285)
(-9.4750838e-05 0 -0.00062972323)
(-8.6921024e-05 0 -0.00069732464)
(-8.0090376e-05 0 -0.00075842376)
(-7.4264936e-05 0 -0.00081235911)
(-6.9336821e-05 0 -0.00085876642)
(-6.5185995e-05 0 -0.0008960575)
(-6.1652704e-05 0 -0.00092432198)
(-5.8694007e-05 0 -0.00094360223)
(-5.6063563e-05 0 -0.00095341002)
(-5.3205737e-05 0 -0.00094916183)
(-4.9923196e-05 0 -0.00092782162)
(-4.6198564e-05 0 -0.00088569905)
(-4.0733899e-05 0 -0.00079959796)
(-3.3009079e-05 0 -0.00065559136)
(-2.1912223e-05 0 -0.00042394122)
(0 0 0)
(-0.00023428347 0 0.00010845322)
(-0.00023425328 0 0.00010839987)
(-0.00023423904 0 0.00010860963)
(-0.00023421822 0 0.00010885586)
(-0.00023418851 0 0.00010914372)
(-0.00023414668 0 0.00010947893)
(-0.00023408843 0 0.00010986705)
(-0.00023400783 0 0.00011031361)
(-0.00023389708 0 0.00011082306)
(-0.00023374565 0 0.00011139805)
(-0.00023353961 0 0.00011203781)
(-0.00023326059 0 0.00011273563)
(-0.00023288446 0 0.00011347593)
(-0.00023238009 0 0.00011422865)
(-0.0002317072 0 0.00011494282)
(-0.00023081506 0 0.0001155359)
(-0.00022964035 0 0.00011587869)
(-0.00022810668 0 0.00011576153)
(-0.00022612482 0 0.00011486369)
(-0.00022359136 0 0.00011276668)
(-0.00022039399 0 0.0001089179)
(-0.00021641993 0 0.00010258217)
(-0.00021156954 0 9.2820886e-05)
(-0.00020577325 0 7.8506039e-05)
(-0.00019899633 0 5.8455368e-05)
(-0.000191268 0 3.1528838e-05)
(-0.00018265754 0 -3.3544266e-06)
(-0.00017327849 0 -4.6982496e-05)
(-0.0001633106 0 -9.9548518e-05)
(-0.00015297519 0 -0.00016049934)
(-0.00014248831 0 -0.00022860374)
(-0.00013206237 0 -0.00030204528)
(-0.00012187694 0 -0.00037878194)
(-0.00011209816 0 -0.00045659021)
(-0.00010287016 0 -0.00053334562)
(-9.4313048e-05 0 -0.00060714062)
(-8.6568041e-05 0 -0.00067607013)
(-7.9782147e-05 0 -0.00073860322)
(-7.3971693e-05 0 -0.0007939704)
(-6.9042437e-05 0 -0.00084172753)
(-6.4881236e-05 0 -0.00088040888)
(-6.1335942e-05 0 -0.00090999485)
(-5.8350685e-05 0 -0.000930414)
(-5.568613e-05 0 -0.00094109317)
(-5.2822148e-05 0 -0.00093769618)
(-4.9544312e-05 0 -0.00091705901)
(-4.5782606e-05 0 -0.00087495539)
(-4.0334785e-05 0 -0.00078963316)
(-3.2628113e-05 0 -0.00064648295)
(-2.146719e-05 0 -0.00041519372)
(0 0 0)
(-0.00023303239 0 0.00013573824)
(-0.0002330022 0 0.00013569754)
(-0.00023298588 0 0.00013592795)
(-0.0002329625 0 0.0001361982)
(-0.00023292968 0 0.00013651435)
(-0.000232884 0 0.00013688314)
(-0.00023282098 0 0.00013731138)
(-0.00023273446 0 0.00013780591)
(-0.00023261631 0 0.0001383727)
(-0.00023245563 0 0.00013901607)
(-0.00023223804 0 0.00013973712)
(-0.00023194459 0 0.00014053113)
(-0.00023155045 0 0.00014138483)
(-0.00023102367 0 0.0001422705)
(-0.00023032301 0 0.00014313989)
(-0.00022939664 0 0.00014391287)
(-0.00022818165 0 0.00014444888)
(-0.000226603 0 0.00014451469)
(-0.00022456952 0 0.00014379365)
(-0.00022197542 0 0.00014187896)
(-0.00021870995 0 0.0001382073)
(-0.00021466442 0 0.00013202897)
(-0.00020974588 0 0.00012238162)
(-0.00020389075 0 0.00010812718)
(-0.00019707572 0 8.8025633e-05)
(-0.00018934258 0 6.0896843e-05)
(-0.00018076605 0 2.5686878e-05)
(-0.00017146518 0 -1.8373463e-05)
(-0.00016162206 0 -7.145694e-05)
(-0.00015144918 0 -0.00013300693)
(-0.00014114973 0 -0.00020178216)
(-0.00013092062 0 -0.00027596845)
(-0.00012092717 0 -0.00035353975)
(-0.00011132361 0 -0.000432286)
(-0.00010224662 0 -0.00051008225)
(-9.3814231e-05 0 -0.00058501095)
(-8.6162092e-05 0 -0.00065518623)
(-7.9429996e-05 0 -0.00071906998)
(-7.3642957e-05 0 -0.00077579647)
(-6.8719445e-05 0 -0.00082484846)
(-6.4553414e-05 0 -0.00086486098)
(-6.0999933e-05 0 -0.00089571829)
(-5.7992511e-05 0 -0.00091724286)
(-5.5297945e-05 0 -0.00092877644)
(-5.2428188e-05 0 -0.00092619919)
(-4.9154724e-05 0 -0.00090623467)
(-4.5361205e-05 0 -0.0008641951)
(-3.9929135e-05 0 -0.00077960968)
(-3.2241698e-05 0 -0.00063732139)
(-2.1033767e-05 0 -0.00040664062)
(0 0 0)
(-0.00023168701 0 0.00016243042)
(-0.00023165625 0 0.00016240234)
(-0.00023163767 0 0.00016265337)
(-0.00023161154 0 0.00016294749)
(-0.00023157533 0 0.00016329159)
(-0.00023152547 0 0.00016369355)
(-0.00023145723 0 0.00016416153)
(-0.00023136419 0 0.00016470387)
(-0.00023123788 0 0.00016532825)
(-0.00023106701 0 0.00016604067)
(-0.00023083669 0 0.00016684407)
(-0.00023052738 0 0.00016773561)
(-0.0002301135 0 0.00016870393)
(-0.00022956218 0 0.00016972397)
(-0.00022883107 0 0.00017075055)
(-0.00022786838 0 0.00017169677)
(-0.00022661249 0 0.00017240217)
(-0.00022498656 0 0.00017263573)
(-0.00022289631 0 0.00017209479)
(-0.00022023659 0 0.00017036063)
(-0.00021689893 0 0.00016685259)
(-0.00021277879 0 0.00016079947)
(-0.00020778904 0 0.0001512259)
(-0.00020187298 0 0.0001370022)
(-0.00019502039 0 0.00011683734)
(-0.00018728517 0 8.9484963e-05)
(-0.0001787473 0 5.3911472e-05)
(-0.00016953102 0 9.3963759e-06)
(-0.00015982017 0 -4.4210963e-05)
(-0.00014981784 0 -0.00010634798)
(-0.00013971375 0 -0.00017576344)
(-0.0001296891 0 -0.00025064718)
(-0.00011989519 0 -0.00032899233)
(-0.00011047448 0 -0.00040860484)
(-0.00010155624 0 -0.00048736322)
(-9.3256028e-05 0 -0.00056334655)
(-8.5704288e-05 0 -0.00063468676)
(-7.9034419e-05 0 -0.00069983945)
(-7.3278804e-05 0 -0.00075785281)
(-6.8367694e-05 0 -0.00080814309)
(-6.4202293e-05 0 -0.0008494276)
(-6.0644497e-05 0 -0.00088150514)
(-5.7619156e-05 0 -0.00090409885)
(-5.4898535e-05 0 -0.00091646619)
(-5.2023654e-05 0 -0.00091467663)
(-4.8754452e-05 0 -0.0008953543)
(-4.4933974e-05 0 -0.000853417)
(-3.9516994e-05 0 -0.00076953229)
(-3.1850078e-05 0 -0.00062811453)
(-2.0611075e-05 0 -0.00039827243)
(0 0 0)
(-0.00023024914 0 0.00018854191)
(-0.00023021822 0 0.00018852523)
(-0.0002301972 0 0.00018879557)
(-0.00023016809 0 0.00018911244)
(-0.00023012816 0 0.00018948442)
(-0.00023007364 0 0.00018992067)
(-0.00022999956 0 0.0001904307)
(-0.00022989924 0 0.00019102383)
(-0.00022976388 0 0.00019170881)
(-0.00022958179 0 0.00019249266)
(-0.00022933757 0 0.00019337967)
(-0.00022901103 0 0.00019436868)
(-0.00022857573 0 0.00019545088)
(-0.00022799773 0 0.00019660454)
(-0.00022723433 0 0.00019778265)
(-0.00022623473 0 0.00019888411)
(-0.00022493595 0 0.00019974679)
(-0.00022325797 0 0.00020015129)
(-0.00022110613 0 0.00019978895)
(-0.00021837662 0 0.00019822516)
(-0.00021496284 0 0.00019486639)
(-0.00021076441 0 0.0001889212)
(-0.00020570068 0 0.00017939355)
(-0.00019972426 0 0.00016513686)
(-0.00019283643 0 0.00014486248)
(-0.00018510138 0 0.00011727969)
(-0.00017660675 0 8.1322408e-05)
(-0.00016748185 0 3.6330527e-05)
(-0.00015791095 0 -1.7806636e-05)
(-0.00014808711 0 -8.051825e-05)
(-0.00013818592 0 -0.00015054427)
(-0.0001283728 0 -0.0002260799)
(-0.00011878527 0 -0.00030514063)
(-0.00010955426 0 -0.00038555053)
(-0.00010080171 0 -0.00046519512)
(-9.2640488e-05 0 -0.00054215613)
(-8.5196065e-05 0 -0.00061458241)
(-7.8596235e-05 0 -0.00068092409)
(-7.2879586e-05 0 -0.00074015237)
(-6.7987309e-05 0 -0.00079162311)
(-6.3827826e-05 0 -0.00083412045)
(-6.0269562e-05 0 -0.00086736623)
(-5.7230384e-05 0 -0.00089099064)
(-5.4487577e-05 0 -0.00090416873)
(-5.1608429e-05 0 -0.0009031343)
(-4.8343559e-05 0 -0.00088442408)
(-4.4500543e-05 0 -0.00084262029)
(-3.9098373e-05 0 -0.00075940531)
(-3.1453495e-05 0 -0.00061886948)
(-2.0198405e-05 0 -0.00039007912)
(0 0 0)
(-0.00022872241 0 0.00021408478)
(-0.00022869082 0 0.00021408293)
(-0.00022866686 0 0.00021437777)
(-0.00022863412 0 0.00021472394)
(-0.00022858979 0 0.0002151297)
(-0.00022852996 0 0.00021560448)
(-0.00022844944 0 0.00021615821)
(-0.00022834124 0 0.00021680135)
(-0.00022819622 0 0.00021754407)
(-0.00022800218 0 0.00021839522)
(-0.00022774313 0 0.00021936129)
(-0.00022739814 0 0.00022044342)
(-0.00022693982 0 0.00022163532)
(-0.00022633348 0 0.00022291775)
(-0.00022553695 0 0.00022423548)
(-0.00022449895 0 0.00022548061)
(-0.00022315344 0 0.00022650102)
(-0.00022141885 0 0.00022707696)
(-0.0002192012 0 0.00022688534)
(-0.00021639758 0 0.00022548179)
(-0.00021290344 0 0.00022226078)
(-0.0002086233 0 0.00021640494)
(-0.00020348378 0 0.0002068937)
(-0.00019744749 0 0.00019255491)
(-0.00019052788 0 0.00017210467)
(-0.00018279617 0 0.00014426542)
(-0.00017434903 0 0.00010792065)
(-0.00016532319 0 6.2431737e-05)
(-0.00015590007 0 7.7595248e-06)
(-0.00014626255 0 -5.551494e-05)
(-0.00013657142 0 -0.00012612317)
(-0.00012697631 0 -0.00020226684)
(-0.00011760132 0 -0.00028198716)
(-0.00010856672 0 -0.00036314163)
(-9.9986722e-05 0 -0.00044361409)
(-9.1970472e-05 0 -0.00052147647)
(-8.4639213e-05 0 -0.00059489863)
(-7.8116142e-05 0 -0.00066233714)
(-7.2445553e-05 0 -0.00072270882)
(-6.7578259e-05 0 -0.00077530127)
(-6.3429863e-05 0 -0.00081895222)
(-5.9874989e-05 0 -0.00085331362)
(-5.6825927e-05 0 -0.00087792802)
(-5.4064651e-05 0 -0.00089189058)
(-5.1182295e-05 0 -0.00089157795)
(-4.7922021e-05 0 -0.00087344953)
(-4.4060602e-05 0 -0.00083180516)
(-3.8673308e-05 0 -0.00074923345)
(-3.1052172e-05 0 -0.00060959343)
(-1.9795021e-05 0 -0.00038205278)
(0 0 0)
(-0.00022710965 0 0.00023907069)
(-0.00022707709 0 0.00023908211)
(-0.00022705004 0 0.00023939919)
(-0.00022701352 0 0.0002397719)
(-0.00022696457 0 0.00024020914)
(-0.00022689905 0 0.00024072108)
(-0.00022681156 0 0.0002413184)
(-0.0002266948 0 0.00024201252)
(-0.00022653924 0 0.00024281467)
(-0.00022633217 0 0.00024373519)
(-0.000226057 0 0.00024478211)
(-0.00022569203 0 0.0002459587)
(-0.00022520892 0 0.00024726085)
(-0.00022457287 0 0.00024866667)
(-0.00022374206 0 0.00025011392)
(-0.0002226629 0 0.00025150071)
(-0.00022126686 0 0.00025267823)
(-0.00021947192 0 0.00025341687)
(-0.00021718407 0 0.00025338882)
(-0.00021430157 0 0.00025213998)
(-0.00021072269 0 0.00024904697)
(-0.00020635778 0 0.00024326115)
(-0.00020114117 0 0.00023373519)
(-0.0001950454 0 0.00021928051)
(-0.00018809733 0 0.00019860079)
(-0.00018037292 0 0.00017046261)
(-0.00017197911 0 0.00013371141)
(-0.00016306098 0 8.7704927e-05)
(-0.00015379366 0 3.2493834e-05)
(-0.00014435013 0 -3.1331113e-05)
(-0.00013487583 0 -0.00010249386)
(-0.00012550564 0 -0.0001792192)
(-0.00011634987 0 -0.00025956403)
(-0.00010751763 0 -0.00034141402)
(-9.9115871e-05 0 -0.00042265856)
(-9.1249397e-05 0 -0.00050134648)
(-8.4036209e-05 0 -0.00057567283)
(-7.7595544e-05 0 -0.00064410292)
(-7.1977239e-05 0 -0.00070553274)
(-6.7140804e-05 0 -0.0007591874)
(-6.3008467e-05 0 -0.00080393294)
(-5.9460769e-05 0 -0.00083935685)
(-5.6405628e-05 0 -0.00086491907)
(-5.3629505e-05 0 -0.00087963787)
(-5.0745144e-05 0 -0.00088001327)
(-4.7489885e-05 0 -0.0008624366)
(-4.3613862e-05 0 -0.00082097208)
(-3.8241809e-05 0 -0.0007390211)
(-3.0646326e-05 0 -0.00060029307)
(-1.9400294e-05 0 -0.00037418498)
(0 0 0)
(-0.00022541257 0 0.00026351112)
(-0.0002253793 0 0.00026353546)
(-0.00022534896 0 0.00026387435)
(-0.00022530841 0 0.00026427294)
(-0.00022525451 0 0.00026474088)
(-0.00022518291 0 0.00026528918)
(-0.00022508795 0 0.00026592944)
(-0.00022496199 0 0.00026667414)
(-0.00022479507 0 0.00026753567)
(-0.00022457398 0 0.00026852567)
(-0.00022428145 0 0.0002696537)
(-0.00022389496 0 0.00027092474)
(-0.00022338544 0 0.00027233725)
(-0.0002227185 0 0.00027386142)
(-0.00022185148 0 0.00027543408)
(-0.0002207283 0 0.00027695952)
(-0.00021927861 0 0.00027828564)
(-0.00021741932 0 0.00027918112)
(-0.0002150566 0 0.00027931247)
(-0.00021209028 0 0.00027821116)
(-0.00020842362 0 0.00027521966)
(-0.00020397281 0 0.00026946472)
(-0.00019867857 0 0.00025988925)
(-0.00019252421 0 0.00024528504)
(-0.00018554932 0 0.00022435004)
(-0.00017783688 0 0.00019587247)
(-0.00016950397 0 0.00015868281)
(-0.00016070116 0 0.00011215394)
(-0.00015159766 0 5.6401803e-05)
(-0.00014235567 0 -7.9612752e-06)
(-0.00013310613 0 -7.9669927e-05)
(-0.00012396905 0 -0.00015697512)
(-0.0001150382 0 -0.00023791581)
(-0.00010641166 0 -0.00032038901)
(-9.8191324e-05 0 -0.00040231911)
(-9.0478724e-05 0 -0.0004817564)
(-8.3388627e-05 0 -0.00055691747)
(-7.7036158e-05 0 -0.00062625843)
(-7.1475493e-05 0 -0.00068864813)
(-6.6675116e-05 0 -0.00074329194)
(-6.2563644e-05 0 -0.00078907318)
(-5.9026858e-05 0 -0.00082550624)
(-5.5969316e-05 0 -0.00085197256)
(-5.3181826e-05 0 -0.0008674169)
(-5.0296803e-05 0 -0.00086844591)
(-4.7047135e-05 0 -0.00085139083)
(-4.3160098e-05 0 -0.00081012247)
(-3.7803911e-05 0 -0.00072877295)
(-3.0236167e-05 0 -0.00059097505)
(-1.90136e-05 0 -0.00036646914)
(0 0 0)
(-0.00022363438 0 0.00028741724)
(-0.00022359993 0 0.00028745441)
(-0.00022356605 0 0.000287815)
(-0.00022352115 0 0.00028823928)
(-0.00022346194 0 0.00028873763)
(-0.00022338384 0 0.00028932191)
(-0.00022328087 0 0.00029000468)
(-0.00022314505 0 0.00029079952)
(-0.00022296596 0 0.00029172002)
(-0.00022272984 0 0.00029277916)
(-0.00022241869 0 0.00029398786)
(-0.00022200917 0 0.00029535225)
(-0.0002214718 0 0.00029687186)
(-0.00022077245 0 0.00029851252)
(-0.00021986706 0 0.00030020922)
(-0.00021869697 0 0.00030186889)
(-0.00021719022 0 0.00030333857)
(-0.00021526264 0 0.00030438435)
(-0.00021282033 0 0.00030466838)
(-0.00020976712 0 0.0003036929)
(-0.00020601244 0 0.00030075558)