/*--------------------------------*- C++ -*----------------------------------*\
  =========                 |
  \\      /  F ield         | OpenFOAM: The Open Source CFD Toolbox
   \\    /   O peration     | Website:  https://openfoam.org
    \\  /    A nd           | Version:  8
     \\/     M anipulation  |
\*---------------------------------------------------------------------------*/
FoamFile
{
    version     2.0;
    format      ascii;
    class       volScalarField;
    location    "0.149996";
    object      rho;
}
// * * * * * * * * * * * * * * * * * * * * * * * * * * * * * * * * * * * * * //

dimensions      [1 -3 0 0 0 0 0];

internalField   nonuniform List<scalar> 
20000
(
0.76462556
0.76578035
0.76720819
0.77009815
0.7760735
0.78817304
0.81129089
0.82107581
0.82024495
0.82185545
0.82190698
0.8237534
0.82468415
0.82705283
0.82897673
0.83223092
0.83542659
0.84001326
0.84497706
0.85151874
0.85899092
0.86835853
0.87931864
0.89258948
0.90810023
0.92627422
0.94701262
0.9702629
0.99542193
1.0215167
1.0468326
1.0698173
1.089366
1.1054152
1.1182642
1.1284104
1.1362349
1.1422968
1.1468889
1.1504598
1.1531698
1.1553446
1.1570887
1.1586862
1.160213
1.1615383
1.1628154
1.1640066
1.1648254
1.1681385
0.76654458
0.76753038
0.76889891
0.77184327
0.77804978
0.79062486
0.81391973
0.82287678
0.82205927
0.82376755
0.82385888
0.82579556
0.82677778
0.82924342
0.83124415
0.83461866
0.83793049
0.84267201
0.847804
0.8545489
0.86225361
0.8718798
0.88312327
0.89667184
0.91243386
0.9307639
0.95148503
0.97441427
0.99892384
1.0240744
1.0485091
1.0707528
1.0898354
1.1056233
1.118334
1.1284385
1.1362523
1.1422871
1.14687
1.1504225
1.1531395
1.1553251
1.1570933
1.1587051
1.1602597
1.1615794
1.1628029
1.1640705
1.1648269
1.1682214
0.76883175
0.76964968
0.77097776
0.77400064
0.78049673
0.7937164
0.81700001
0.82491783
0.82405378
0.82581135
0.82591416
0.82791711
0.828946
0.83150201
0.83358435
0.83707759
0.84051206
0.84541206
0.85072409
0.85768582
0.8656423
0.87555142
0.88710825
0.90097483
0.91703681
0.93557888
0.95633835
0.97901998
1.0029186
1.0271704
1.0506084
1.0720581
1.0906191
1.1060706
1.1185729
1.1285367
1.1362585
1.1422688
1.146851
1.1503993
1.1531195
1.1553091
1.1570847
1.1587164
1.1602883
1.1616152
1.1629329
1.1641296
1.1654545
1.1681754
0.77107601
0.7717227
0.77300616
0.77610424
0.78290126
0.79684429
0.81994909
0.82689079
0.82609808
0.82793142
0.82806677
0.8301505
0.83123241
0.8338822
0.83604575
0.83965923
0.84321836
0.84828164
0.85377947
0.86096422
0.8691791
0.87937725
0.89125504
0.90545027
0.92182888
0.94061294
0.96146273
0.98397643
1.0073899
1.0308562
1.0533825
1.073971
1.0918696
1.1068605
1.1190575
1.1288239
1.1364164
1.1423309
1.1468582
1.1503954
1.1531165
1.1553074
1.157086
1.1587533
1.1603387
1.1616663
1.162991
1.1642196
1.1657457
1.1681743
0.77348213
0.77396642
0.77520822
0.77838886
0.78550621
0.80029091
0.82301791
0.82905373
0.82828823
0.83018231
0.83033948
0.83249451
0.83362594
0.83636783
0.83861638
0.84235479
0.84604781
0.85128374
0.85698053
0.86440126
0.87289014
0.88339402
0.89561298
0.9101598
0.92688001
0.94593008
0.96689176
0.98926444
1.0122235
1.0349445
1.0565626
1.0762746
1.093459
1.1079185
1.1197417
1.1292492
1.1366652
1.1424661
1.1469261
1.1504197
1.1531235
1.1553091
1.1571057
1.1588003
1.1603925
1.1617236
1.1630819
1.1643213
1.1661455
1.1681671
0.775947
0.77627667
0.77747885
0.78074862
0.78819849
0.80393543
0.82607399
0.83134555
0.83056124
0.8325209
0.83270662
0.83493814
0.83612501
0.83896442
0.84130484
0.84517559
0.84901187
0.85442986
0.86033651
0.86800364
0.87677884
0.8876016
0.9001776
0.915093
0.93217201
0.95150376
0.97259212
0.99484304
1.0173817
1.0393986
1.0601412
1.0789616
1.0953762
1.1092385
1.1206258
1.1298264
1.1370288
1.1426822
1.1470492
1.1504892
1.1531665
1.15534
1.1571464
1.1588647
1.1604581
1.1617896
1.1631673
1.1644525
1.1664402
1.168166
0.77851174
0.77869259
0.77986374
0.78322563
0.79101621
0.80781383
0.82913828
0.83371063
0.83293239
0.83495631
0.83517234
0.83748152
0.83872816
0.84167013
0.84411044
0.84812141
0.85211085
0.85772028
0.86384872
0.87177408
0.88085048
0.89200891
0.90496168
0.92026579
0.93772126
0.95734538
0.97856206
1.0006894
1.0228109
1.0441381
1.0640169
1.0819432
1.09756
1.1107809
1.1216848
1.1305357
1.13749
1.1429733
1.1472298
1.1506005
1.1532396
1.1553946
1.1572085
1.1589431
1.1605316
1.1618626
1.1632666
1.1646299
1.166709
1.1681831
0.78113705
0.78117417
0.78232435
0.78578773
0.79392982
0.8118859
0.8321833
0.83615953
0.83538813
0.83747959
0.8377322
0.84012436
0.8414381
0.84448936
0.8470376
0.85119581
0.85534723
0.86115674
0.86751776
0.87571253
0.88510472
0.8966156
0.90996383
0.92567474
0.94351987
0.96344081
0.98477906
1.0067714
1.0284703
1.049114
1.0681407
1.0851724
1.0999712
1.1125177
1.1229014
1.1313688
1.1380464
1.1433365
1.1474644
1.1507538
1.1533453
1.1554758
1.1572919
1.1590366
1.1606142
1.161942
1.1633741
1.1648678
1.166911
1.1682175
0.78383312
0.78372761
0.78486534
0.78844767
0.79695761
0.81614773
0.8352183
0.83869514
0.83793899
0.84009913
0.8403928
0.8428719
0.84425891
0.84742444
0.8500869
0.85439809
0.85871983
0.8647378
0.87134284
0.87981933
0.88954422
0.90142623
0.91519063
0.93132622
0.94957295
0.96978931
0.99123395
1.0130681
1.0343254
1.0542789
1.0724568
1.0885959
1.1025666
1.1144178
1.1242542
1.132311
1.1386879
1.1437663
1.1477505
1.1509468
1.1534815
1.155582
1.157396
1.1591441
1.1607047
1.1620267
1.1634932
1.1651415
1.1670869
1.1682638
0.78661623
0.78636975
0.78750208
0.79122256
0.80012498
0.82058965
0.83824694
0.84132137
0.84058516
0.84281625
0.84315655
0.8457268
0.84719225
0.85047534
0.85325715
0.85772693
0.86222771
0.86846289
0.87532357
0.88409512
0.89417058
0.90644304
0.92064314
0.93721942
0.95587475
0.97637864
0.99790594
1.0195503
1.0403392
1.0595895
1.0769189
1.0921685
1.1053076
1.1164512
1.1257224
1.1333486
1.1394061
1.1442568
1.1480842
1.1511773
1.1536474
1.1557128
1.1575201
1.1592651
1.1608029
1.1621162
1.1636232
1.1654271
1.1672431
1.1683244
0.78949913
0.78910561
0.790239
0.79411784
0.80344775
0.82518034
0.84126575
0.84403612
0.84332946
0.84563598
0.84602716
0.84868941
0.85023554
0.85363839
0.8565454
0.86118061
0.86586967
0.87233103
0.87946018
0.88854237
0.89898823
0.9116718
0.92632749
0.94335954
0.96242726
0.98320469
1.0047831
1.0261982
1.046484
1.0650115
1.0814884
1.0958517
1.1081601
1.1185912
1.1272863
1.1344679
1.1401915
1.1448019
1.1484619
1.1514428
1.1538412
1.1558671
1.1576633
1.1593987
1.1609079
1.1622112
1.1637677
1.1657119
1.1673939
1.1683961
0.79245654
0.79191424
0.79306008
0.79712605
0.80694173
0.82989373
0.84429704
0.84685597
0.84617935
0.84855841
0.84899951
0.85175239
0.85338232
0.85690993
0.85995035
0.86475861
0.86964513
0.87634224
0.88375453
0.89316472
0.90400172
0.9171166
0.93224632
0.94974626
0.96922462
0.99025392
1.0118438
1.0329831
1.0527262
1.0705081
1.0861268
1.0996082
1.1110911
1.1208109
1.1289259
1.1356545
1.1410343
1.145395
1.1488789
1.1517404
1.1540613
1.1560437
1.1578246
1.1595436
1.1610185
1.1623138
1.1639345
1.1659869
1.1675382
1.1684695
0.79552891
0.79483714
0.79599671
0.80026895
0.81064178
0.83470072
0.84739727
0.84976761
0.84911734
0.85156622
0.85206088
0.85490849
0.85663053
0.86029039
0.86347279
0.86846045
0.87355368
0.8804977
0.88821033
0.89796785
0.90921762
0.92278433
0.93840644
0.95638446
0.97626719
0.99751953
1.0190735
1.0398845
1.0590411
1.0760511
1.0908042
1.1034082
1.1140733
1.1230878
1.1306233
1.1368952
1.1419252
1.1460294
1.149331
1.1520672
1.1543057
1.1562415
1.1580029
1.1596987
1.1611333
1.1624264
1.1641353
1.1662437
1.1676725
1.1685431
0.79862238
0.79778815
0.79896442
0.8034674
0.81449941
0.83949622
0.85041082
0.85274412
0.85212869
0.85465418
0.85521156
0.8581619
0.85998396
0.86378204
0.86711214
0.87228506
0.87759587
0.88480082
0.89283334
0.90295822
0.91464197
0.92868006
0.94481109
0.96327337
0.98354723
1.0049853
1.0264487
1.0468738
1.0653976
1.0816088
1.0954893
1.1072218
1.11708
1.1253993
1.1323612
1.138177
1.1428544
1.1466983
1.1498132
1.1524201
1.1545723
1.1564589
1.1581968
1.1598623
1.1612513
1.1625517
1.1643803
1.1664748
1.1678005
1.168615
0.80178715
0.80081638
0.80201296
0.80677016
0.81859515
0.84427504
0.85346722
0.85580267
0.85522936
0.85783459
0.85846151
0.86151805
0.86344442
0.86738304
0.87086601
0.87623212
0.88177458
0.88925774
0.89763067
0.90814312
0.92028187
0.93481164
0.95146728
0.97041734
0.99106234
1.0126412
1.0339525
1.0539297
1.0717723
1.0871575
1.1001582
1.1110256
1.1200898
1.1277271
1.1341245
1.1394881
1.1438132
1.1473953
1.1503212
1.1527957
1.1548589
1.1566945
1.1584051
1.1600329
1.1613718
1.162692
1.164666
1.1666815
1.1679205
1.1686871
0.80504935
0.80394475
0.80516311
0.81018434
0.82293908
0.84904966
0.8565126
0.85894871
0.85842464
0.86111191
0.86181159
0.86497438
0.86700691
0.87108878
0.87473311
0.88030443
0.88609683
0.89387641
0.90260998
0.91352941
0.92614395
0.94118477
0.95837849
0.97781384
0.99880164
1.0204673
1.0415586
1.0610233
1.0781363
1.0926695
1.1047852
1.114796
1.1230814
1.1300532
1.1358985
1.1408171
1.1447929
1.1481139
1.1508501
1.153191
1.1551634
1.1569465
1.1586259
1.1602089
1.1614956
1.1628496
1.1649676
1.1668792
1.1680339
1.1687566
0.80836251
0.80713297
0.80838113
0.81368183
0.82752797
0.85377689
0.8596242
0.86219351
0.86171723
0.86448198
0.86525335
0.86852212
0.87066505
0.87489809
0.87871743
0.88451018
0.89057139
0.89866455
0.90777811
0.91912407
0.93223629
0.94780817
0.96555217
0.98546513
1.0067594
1.0284494
1.0492469
1.0681322
1.0844676
1.0981241
1.1093508
1.1185149
1.1260381
1.132363
1.1376713
1.142154
1.1457857
1.1488483
1.1513956
1.1536026
1.1554835
1.1572133
1.1588575
1.1603887
1.1616248
1.1630292
1.1652744
1.167069
1.168141
1.1688229
0.81177691
0.81042982
0.81171294
0.81729464
0.83239134
0.8584869
0.86294764
0.8655128
0.86508614
0.86792824
0.86877569
0.87215617
0.87442035
0.87881781
0.88282921
0.88885943
0.89520677
0.90362906
0.91314159
0.92493434
0.93856666
0.9546884
0.97299093
0.99336545
1.0149202
1.0365631
1.056989
1.0752275
1.0907393
1.1034973
1.1138341
1.1221635
1.1289438
1.1346429
1.1394312
1.1434894
1.146784
1.1495926
1.1519533
1.1540275
1.1558172
1.1574932
1.1590975
1.1605708
1.1617629
1.1632375
1.1655763
1.1672503
1.1682413
1.1688858
0.81521719
0.81376847
0.81510072
0.82096842
0.83747182
0.86309092
0.86626314
0.86889045
0.86852245
0.87144921
0.8723821
0.87588456
0.8782839
0.88286081
0.8870799
0.89336088
0.90000875
0.90877512
0.91870663
0.93096888
0.94514455
0.96183573
0.98070053
1.0015143
1.0232729
1.0447907
1.0647626
1.0822868
1.0969309
1.1087714
1.1182195
1.1257283
1.1317862
1.1368821
1.1411691
1.1448153
1.1477813
1.1503417
1.1525195
1.1544627
1.1561623
1.1577842
1.1593437
1.1607536
1.1619139
1.1634829
1.1658649
1.1674207
1.1683342
1.1689445
0.81870773
0.8171775
0.81857822
0.82474654
0.84279016
0.86762181
0.86966874
0.8723464
0.87203892
0.87505581
0.87608546
0.87972231
0.88227079
0.887039
0.89147745
0.8980187
0.90498127
0.91410823
0.92448129
0.93723697
0.95197955
0.96925652
0.98868125
1.0099008
1.0317966
1.0531035
1.0725371
1.0892814
1.1030176
1.1139259
1.1224902
1.1291951
1.1345533
1.1390705
1.1428761
1.1461242
1.1487712
1.1510908
1.1530903
1.1549054
1.1565167
1.1580844
1.1595933
1.1609356
1.1620815
1.1637744
1.1661315
1.1675785
1.1684195
1.1689987
0.82225871
0.82066618
0.8221614
0.82864653
0.84831046
0.8720249
0.8731349
0.87588349
0.87564556
0.87876279
0.87990296
0.88368521
0.88639169
0.89135774
0.89602369
0.90283476
0.91012812
0.91963506
0.93047507
0.94374976
0.95908335
0.97696063
0.99693672
1.0185189
1.0404751
1.0614789
1.0802885
1.0961887
1.1089803
1.1189456
1.1266342
1.1325539
1.1372368
1.1412007
1.1445453
1.1474102
1.1497486
1.1518356
1.1536625
1.1553531
1.1568787
1.1583917
1.1598439
1.1611159
1.1622677
1.1641126
1.1663712
1.1677239
1.1684982
1.1690485
0.82585075
0.82421793
0.82584675
0.83269157
0.85400761
0.87631606
0.87668226
0.87952461
0.87936862
0.88259297
0.88384871
0.88777939
0.89064682
0.89581484
0.90071787
0.90781101
0.91545536
0.92536537
0.93669923
0.95051912
0.96646582
0.98495319
1.0054622
1.0273518
1.0492811
1.0698845
1.0879843
1.10298
1.1147965
1.123814
1.1306394
1.1357947
1.1398286
1.1432656
1.1461705
1.1486675
1.1507087
1.1525721
1.1542329
1.1558034
1.1572462
1.158704
1.1600932
1.1612941
1.1624726
1.1644691
1.1665994
1.1678587
1.1685717
1.169094
0.8295683
0.827906
0.82970111
0.83695959
0.85988441
0.88053489
0.8803429
0.88328877
0.88321937
0.88654964
0.88791837
0.89199691
0.89502913
0.90040741
0.90556116
0.91295352
0.92097243
0.93131048
0.94316655
0.95755787
0.97413961
0.99324202
1.0142572
1.0363867
1.0581928
1.0782934
1.095598
1.1096331
1.1204495
1.1285202
1.1344988
1.1389112
1.1423233
1.1452601
1.1477472
1.1498919
1.151648
1.1532971
1.1547989
1.1562543
1.1576177
1.1590194
1.1603395
1.1614712
1.1626959
1.1648306
1.1668181
1.1679838
1.168638
1.1691352
0.83332704
0.83165499
0.83367187
0.84145002
0.86588215
0.88473124
0.88413257
0.88717466
0.88717839
0.8906127
0.89209593
0.89632854
0.89953621
0.90513746
0.91056037
0.91827177
0.92669132
0.93748375
0.94989019
0.9648787
0.98211379
1.0018288
1.0233102
1.045599
1.067176
1.0866689
1.1030953
1.1161208
1.1259212
1.1330527
1.1382047
1.141897
1.1447151
1.1471794
1.1492717
1.1510792
1.1525632
1.1540074
1.1553581
1.156704
1.1579913
1.1593358
1.1605816
1.16165
1.1629385
1.1651868
1.1670267
1.1680995
1.1686984
1.1691725
0.83718928
0.83551309
0.83779537
0.84623557
0.87195658
0.88907895
0.88800518
0.89114531
0.89121895
0.89476574
0.89637739
0.90077704
0.90417422
0.91001346
0.91572616
0.92377826
0.93262519
0.94389884
0.95688396
0.97249578
0.99040011
1.0107182
1.0326135
1.0549686
1.0762022
1.09498
1.1104491
1.1224246
1.1312015
1.1374061
1.1417528
1.1447491
1.1470001
1.1490209
1.1507424
1.1522266
1.1534513
1.1547007
1.1559085
1.157151
1.1583656
1.1596511
1.1608192
1.161835
1.1632038
1.1655312
1.1672228
1.1682054
1.1687527
1.1692062
0.84108493
0.83940323
0.84199158
0.85127653
0.87796281
0.89314539
0.89193672
0.89519367
0.89535637
0.89902639
0.90077401
0.9053525
0.90895279
0.91504649
0.92107091
0.92948601
0.93878806
0.95056997
0.9641619
0.98042199
0.9990056
1.0199062
1.0421469
1.0644624
1.0852306
1.103187
1.1176286
1.1285271
1.1362816
1.1415737
1.1451348
1.1474642
1.1491745
1.1507837
1.1521574
1.1533314
1.1543084
1.1553751
1.1564485
1.1575938
1.1587388
1.1599634
1.1610523
1.162032
1.163499
1.1658559
1.1674039
1.1683013
1.1688016
1.169236
0.84502693
0.84334709
0.84628562
0.85665105
0.88392651
0.89726425
0.89597094
0.89935241
0.89960224
0.90340539
0.9052941
0.91006289
0.91388249
0.92024887
0.92660807
0.93540858
0.94519363
0.95751109
0.97173938
0.9886715
1.0079407
1.0293903
1.0518949
1.074051
1.0942273
1.1112588
1.1246159
1.1344241
1.1411598
1.1455515
1.148342
1.1500404
1.1512378
1.1524706
1.1535147
1.1543925
1.1551303
1.1560297
1.1569768
1.1580314
1.1591095
1.1602706
1.1612811
1.1622466
1.1638344
1.166152
1.1675687
1.1683873
1.1688453
1.1692615
0.84909526
0.84740265
0.85070763
0.8624094
0.88982372
0.90133587
0.9001063
0.90361415
0.90395439
0.90790351
0.9099463
0.91491915
0.91897646
0.92563372
0.93235065
0.9415591
0.95185592
0.96473776
0.9796315
0.99725707
1.0172078
1.0391577
1.0618263
1.0836918
1.1031471
1.1191608
1.1313978
1.1401117
1.1458278
1.1493283
1.1513647
1.1524723
1.1531934
1.1540857
1.1548099
1.1554091
1.1559141
1.1566628
1.1574922
1.1584626
1.1594761
1.1605708
1.161506
1.1624821
1.1642121
1.166415
1.1677184
1.1684633
1.16888
1.1692806
0.85320589
0.85150079
0.85519101
0.86851606
0.89559209
0.90562547
0.9043361
0.9079778
0.90841893
0.9125322
0.91474325
0.91993638
0.92424743
0.93121294
0.93831088
0.9479508
0.95878928
0.97226626
0.98785527
1.0061933
1.026812
1.0491974
1.0719141
1.0933476
1.1119543
1.1268745
1.1379763
1.1455846
1.150268
1.1528878
1.1542079
1.1547555
1.155051
1.1556305
1.156039
1.1563797
1.1566628
1.1572728
1.1579942
1.1588865
1.1598369
1.1608623
1.1617269
1.1627382
1.1646088
1.1666591
1.1678556
1.1685312
1.1689078
1.1692895
0.85740604
0.85567662
0.85976663
0.8750008
0.90123532
0.90997474
0.90867544
0.91246472
0.91302105
0.91730404
0.91969777
0.92512566
0.92970635
0.93699678
0.944501
0.95459739
0.96601026
0.98011435
0.99642763
1.0154897
1.0367481
1.0594839
1.0821154
1.1029685
1.1206089
1.134386
1.1443447
1.1508048
1.1544533
1.1562208
1.1568796
1.1568901
1.1568215
1.1570932
1.1572046
1.1572989
1.1573875
1.1578567
1.1584821
1.1593024
1.1601903
1.1611437
1.1619445
1.1630122
1.1650058
1.1668917
1.1679828
1.1685926
1.1689307
1.1692938
0.86168349
0.85993824
0.86444432
0.88184527
0.90674286
0.91442706
0.91314952
0.91709603
0.9177745
0.92223768
0.92482044
0.93049415
0.93536178
0.94299571
0.95093388
0.96151524
0.97353661
0.98830201
1.0053669
1.0251584
1.0470117
1.0699943
1.0923915
1.1125145
1.1290884
1.1416972
1.1504706
1.155743
1.1583649
1.1593309
1.1593956
1.1588859
1.1585075
1.1584614
1.1583122
1.1581599
1.1581006
1.1584135
1.1589556
1.1597096
1.1605349
1.1614143
1.1621604
1.1633014
1.1653922
1.1671127
1.1681006
1.1686484
1.1689507
1.1692957
0.8661066
0.86434578
0.86929501
0.88907101
0.91215738
0.91901744
0.9177788
0.92188231
0.92268311
0.92733242
0.93011306
0.93604764
0.94122357
0.94922189
0.95762598
0.96872269
0.9813889
0.9968497
1.0146896
1.0352021
1.0575856
1.0806877
1.1026898
1.1219387
1.1373729
1.148797
1.1562982
1.1603656
1.1620005
1.162265
1.1617568
1.1607699
1.1600813
1.1597588
1.1593502
1.1589659
1.1587911
1.1589467
1.1594147
1.1601073
1.1608691
1.1616739
1.1623779
1.1636065
1.1657598
1.1673185
1.168208
1.1686985
1.168968
1.1692962
0.87065278
0.86888161
0.87432705
0.89660846
0.91756956
0.92373701
0.92254827
0.92680838
0.92773983
0.93258795
0.93558154
0.94179684
0.94730579
0.95569165
0.96459498
0.97624006
0.98958899
1.0057801
1.0244127
1.0456249
1.0684515
1.0915276
1.1129649
1.1312109
1.1454594
1.1556339
1.161793
1.1646577
1.165412
1.1650276
1.1639564
1.1625428
1.1615505
1.1609817
1.1603256
1.1597271
1.1594411
1.1594659
1.1598593
1.1604948
1.1611914
1.1619231
1.1626025
1.1639333
1.1661004
1.1675052
1.1683032
1.1687421
1.1689834
1.1692959
0.87527446
0.8735054
0.87953544
0.90435248
0.92296194
0.92856671
0.92744721
0.93187544
0.93295264
0.93801674
0.94123932
0.94775682
0.95362528
0.96242168
0.97186067
0.98409071
0.99816119
1.0151149
1.0345475
1.0564174
1.0795745
1.1024586
1.1231629
1.1403012
1.1533338
1.1621389
1.1669134
1.1686455
1.1686403
1.1675971
1.1660036
1.1642029
1.1629208
1.1621355
1.1612432
1.1604499
1.1600359
1.1599773
1.1602888
1.1608711
1.1615007
1.1621632
1.1628408
1.1642929
1.1664036
1.1676701
1.1683849
1.1687791
1.1689982
1.1692949
0.88000332
0.87823881
0.88498527
0.9122539
0.92817461
0.93353602
0.93249762
0.93710258
0.9383385
0.9436348
0.9471059
0.95394195
0.96019861
0.96943142
0.97944615
0.99230004
1.0071312
1.0248759
1.045105
1.0675691
1.0909199
1.1134319
1.1332442
1.1491986
1.1609422
1.1682657
1.1716478
1.1724107
1.1716503
1.1699854
1.1679037
1.1657517
1.1641995
1.1632222
1.162105
1.1611287
1.1605922
1.1604752
1.1607023
1.1612355
1.1617961
1.162396
1.1630976
1.1646891
1.1666627
1.1678148
1.168455
1.1688067
1.1690061
1.1692933
0.88488774
0.88310921
0.89075242
0.92024168
0.93338975
0.93865132
0.93770824
0.94250382
0.9439135
0.9494565
0.95319801
0.96036561
0.96704411
0.97674373
0.98737787
1.0008967
1.0165249
1.0350818
1.0560853
1.0790526
1.1024344
1.1243859
1.1431667
1.1578864
1.1682028
1.1739699
1.1760502
1.1759517
1.1744434
1.1721948
1.1696638
1.1671915
1.1653925
1.1642448
1.1629099
1.1617624
1.1611175
1.1609594
1.1610987
1.161587
1.1620772
1.1626233
1.1633735
1.165089
1.1668984
1.1679443
1.1685167
1.1688287
1.1690105
1.1692907
0.88993441
0.88810637
0.89687721
0.92812428
0.93855673
0.94392563
0.94309874
0.94809891
0.94969405
0.9554953
0.95952417
0.96704493
0.9741838
0.98438742
0.99568559
1.0099098
1.0263685
1.0457504
1.0674868
1.0908393
1.1140678
1.1352729
1.1529069
1.1663235
1.1750493
1.1792339
1.1802038
1.1792428
1.1770251
1.1742346
1.1712906
1.1685268
1.166506
1.1652056
1.1636576
1.1623539
1.1616166
1.1614266
1.1614793
1.161925
1.162344
1.1628473
1.1636654
1.165479
1.1671167
1.1680609
1.1685726
1.1688499
1.1690131
1.1692839
0.89514953
0.89323325
0.90343085
0.93600607
0.94391132
0.94940141
0.94869184
0.95389662
0.95568454
0.96175622
0.96610181
0.97400322
0.98164858
0.99239459
1.0044004
1.0193692
1.0366858
1.0568912
1.0792913
1.1028802
1.125754
1.1460402
1.1624412
1.1744146
1.1814328
1.1841158
1.1841022
1.1822833
1.1794027
1.1761115
1.1727905
1.1697614
1.1675458
1.1661066
1.1643501
1.1629079
1.1620904
1.1618695
1.1618499
1.1622491
1.1625974
1.1630706
1.1639699
1.1658513
1.1673212
1.1681647
1.1686179
1.1688622
1.1690146
1.169271
0.90055445
0.89851102
0.91044223
0.9438697
0.94951875
0.95506925
0.95446959
0.95989091
0.96188825
0.96825767
0.97296125
0.98127484
0.98947243
1.000798
1.0135531
1.0293035
1.0475003
1.0685103
1.091478
1.1151257
1.1374378
1.1566523
1.1717486
1.1820673
1.187323
1.1887037
1.1877199
1.185082
1.1815859
1.1778349
1.1741704
1.1709011
1.1685174
1.1669504
1.1649914
1.1634301
1.1625404
1.162278
1.1622164
1.1625587
1.1628382
1.1632988
1.1642884
1.1661988
1.1675097
1.1682575
1.1686553
1.1688683
1.1690089
1.1692538
0.90631381
0.90412055
0.91791921
0.95161201
0.95519622
0.96090191
0.96043096
0.96610172
0.96833924
0.97503746
0.98014159
0.98889566
0.99768769
1.0096297
1.0231746
1.039742
1.0588291
1.080601
1.104004
1.1275083
1.1490543
1.1670715
1.1807259
1.1892257
1.1927608
1.1930111
1.1910491
1.187647
1.1835836
1.1794127
1.1754368
1.1719521
1.1694248
1.1677395
1.165586
1.163923
1.1629682
1.162659
1.1625724
1.1628535
1.1630685
1.1635267
1.1646282
1.1665122
1.1676787
1.1683395
1.1686873
1.1688714
1.1690005
1.1692334
0.91221963
0.90987812
0.92582882
0.95925578
0.96106947
0.96694848
0.96662408
0.97257196
0.97508494
0.98213781
0.98767526
0.99689605
1.0063248
1.0189215
1.0332961
1.0507124
1.0706877
1.0931503
1.1168249
1.139965
1.1605567
1.177274
1.1892739
1.1958431
1.1978402
1.1970084
1.1941025
1.1899902
1.1854069
1.1808541
1.1765971
1.172921
1.1702725
1.168477
1.1661378
1.1643862
1.1633702
1.1630205
1.1629176
1.1631319
1.1632899
1.1637762
1.1649974
1.1667835
1.1678247
1.1684092
1.1687155
1.1688736
1.1689895
1.1692102
0.91839473
0.91585883
0.93414874
0.96673957
0.96711394
0.97324046
0.97310047
0.9793484
0.98216588
0.98958821
0.99558902
1.005303
1.0154149
1.0287078
1.0439507
1.0622408
1.0830797
1.1061261
1.1298735
1.1524217
1.1718898
1.1871866
1.197298
1.2019227
1.2026159
1.2006748
1.1968885
1.1921222
1.1870656
1.1821673
1.1776579
1.1738139
1.1710642
1.1691657
1.1666489
1.1648193
1.163749
1.1633661
1.1632513
1.1633934
1.163505
1.1640332
1.1653898
1.1670141
1.1679495
1.1684652
1.1687318
1.16887
1.1689751
1.1691846
0.92483281
0.92214099
0.9428904
0.97415199
0.97344991
0.97986215
0.97992096
0.98646982
0.98960068
0.99740453
1.0039057
1.0141481
1.0249931
1.0390252
1.0551711
1.07435
1.0960022
1.1194893
1.1430844
1.1648196
1.1830187
1.1966926
1.2047477
1.2075618
1.2070507
1.2040275
1.1994214
1.1940565
1.1885709
1.1833615
1.1786266
1.174637
1.171804
1.1698085
1.1671212
1.1652238
1.1641064
1.1636972
1.1635718
1.1636395
1.1637153
1.1643171
1.1657701
1.1672252
1.1680581
1.1685096
1.1687406
1.1688617
1.1689585
1.169157
0.93171029
0.92892459
0.95210245
0.98165354
0.98014937
0.98684157
0.9870621
0.99391504
0.99738593
1.0056045
1.0126655
1.0234718
1.0350994
1.0499121
1.0669899
1.0870543
1.1094339
1.133177
1.1563749
1.1770904
1.1938919
1.2056585
1.2115765
1.2128634
1.2111114
1.2070747
1.2017137
1.1958046
1.1899328
1.1844449
1.1795097
1.1753959
1.1724953
1.1704078
1.167557
1.1656031
1.1644454
1.1640118
1.1638726
1.1638769
1.1639227
1.1646037
1.1661295
1.1674184
1.1681547
1.168547
1.1687453
1.1688511
1.1689402
1.1691274
0.93879213
0.93611218
0.96155778
0.98948596
0.98709513
0.99408566
0.99451255
1.001696
1.0055586
1.0142358
1.0219092
1.0333192
1.0457724
1.0614074
1.0794379
1.1003616
1.1233443
1.147123
1.1696742
1.189181
1.2043929
1.2140186
1.2178793
1.2177892
1.214814
1.2098337
1.2037811
1.1973803
1.1911625
1.1854261
1.1803145
1.1760962
1.1731418
1.1709666
1.1679599
1.1659611
1.1647686
1.164309
1.1641441
1.1641134
1.1641292
1.1649005
1.16646
1.1675918
1.1682397
1.1685819
1.1687483
1.1688386
1.1689202
1.169096
0.94613785
0.94382656
0.97119115
0.99741124
0.99431686
1.0016535
1.0023177
1.0098743
1.014181
1.0233397
1.0316833
1.0437305
1.0570542
1.0735513
1.0925405
1.1142626
1.1376775
1.1612387
1.1829002
1.20103
1.2143758
1.2217058
1.2237557
1.2223095
1.2181682
1.2123185
1.2056377
1.1987953
1.1922695
1.186313
1.1810473
1.1767429
1.1737466
1.1714876
1.1683341
1.1663
1.165076
1.164591
1.1643932
1.1643436
1.1643395
1.1652092
1.1667555
1.167742
1.1683037
1.1685979
1.1687448
1.1688225
1.1688979
1.1690626
0.95368333
0.95215352
0.98096915
1.0049825
1.001883
1.0096069
1.0105527
1.0185062
1.0233057
1.0329625
1.0420254
1.0547504
1.0689882
1.0863835
1.1063164
1.128737
1.1523683
1.1754431
1.1959837
1.2125581
1.2237231
1.2287588
1.2292352
1.2264169
1.2211938
1.2145477
1.2072997
1.2000631
1.1932645
1.1871139
1.1817146
1.1773411
1.174313
1.1719743
1.1686838
1.1666204
1.1653641
1.1648534
1.1646291
1.164567
1.1645589
1.1655358
1.1670061
1.1678674
1.1683532
1.1686061
1.168733
1.1688024
1.1688742
1.1690275
0.96149597
0.96123653
0.99093039
1.0131218
1.0098744
1.0180198
1.0192701
1.0276329
1.0329656
1.0431422
1.0529786
1.066428
1.0816242
1.0999421
1.1207702
1.1437362
1.1673266
1.1896395
1.2088457
1.2235958
1.2323577
1.235281
1.2342723
1.2301292
1.2239066
1.2165377
1.2087811
1.2011953
1.1941567
1.187836
1.1823224
1.1778951
1.174844
1.1724299
1.1690115
1.1669211
1.1656324
1.1650975
1.1648557
1.1647844
1.1647943
1.1658863
1.1672075
1.1679714
1.1683932
1.1686103
1.1687182
1.1687789
1.1688477
1.1689901
0.96959481
0.97114824
1.0010814
1.0216005
1.0183263
1.0268897
1.0284885
1.0372847
1.043196
1.0539219
1.0645947
1.0788216
1.0950139
1.1142574
1.1358892
1.1591974
1.1824595
1.2037449
1.2214182
1.2339903
1.2402508
1.2413758
1.2388376
1.2334653
1.2263287
1.2183078
1.2100981
1.2022045
1.1949557
1.1884869
1.1828767
1.1784093
1.1753426
1.1728579
1.169318
1.1672015
1.1658825
1.16533
1.1650761
1.1649984
1.1650488
1.1662275
1.1673875
1.1680606
1.1684267
1.1686122
1.1687015
1.1687534
1.1688182
1.1689494
0.97800494
0.98187145
1.0114693
1.0305875
1.0272611
1.0362555
1.038255
1.0475046
1.0540435
1.0653619
1.0769393
1.0919994
1.1092083
1.1293456
1.1516338
1.1750276
1.1976562
1.2176569
1.233536
1.2436328
1.2475075
1.246981
1.2429543
1.2364448
1.228479
1.2198746
1.2112642
1.2031014
1.1956701
1.1890733
1.1833829
1.1788876
1.1758116
1.1732608
1.1696032
1.1674617
1.1661157
1.1655516
1.1652924
1.1652107
1.1653153
1.1665385
1.1675489
1.1681381
1.168454
1.1686122
1.1686873
1.1687304
1.1687889
1.1688972
0.98672631
0.99352481
1.0220923
1.0399597
1.0367266
1.0461637
1.0486159
1.0583404
1.0655789
1.0775435
1.0900897
1.1060281
1.1242477
1.1451996
1.1679415
1.1911236
1.2128153
1.2312897
1.2450214
1.2524525
1.2542629
1.2520638
1.2466421
1.239093
1.2303805
1.2212571
1.2122946
1.2038977
1.1963087
1.1896023
1.1838462
1.179334
1.1762541
1.173641
1.1698668
1.1677031
1.166335
1.1657655
1.1655052
1.1654203
1.1655821
1.16682
1.167693
1.1682053
1.168477
1.1686111
1.1686756
1.1687142
1.1687704
1.1688317
0.99571458
1.0063019
1.0329653
1.0498463
1.0467754
1.0566542
1.0596283
1.0698482
1.0779079
1.0905597
1.1041251
1.1209697
1.1401534
1.1617843
1.1847157
1.207359
1.2278148
1.2445069
1.2557089
1.2605248
1.2604829
1.2566324
1.2499239
1.2414324
1.232053
1.2224716
1.213202
1.2046034
1.1968791
1.1900798
1.1842716
1.1797517
1.1766725
1.1739999
1.170109
1.1679279
1.166543
1.1659728
1.1657148
1.1656269
1.1658505
1.1670706
1.1678185
1.16826
1.1684935
1.1686085
1.1686642
1.1686986
1.1687519
1.1687686
1.0049166
1.0200487
1.0440885
1.0602775
1.0574641
1.0678044
1.071382
1.0821512
1.0911216
1.1045079
1.1191186
1.136864
1.1569204
1.179034
1.2018447
1.2236123
1.242545
1.2571
1.2655153
1.2679833
1.2661294
1.2607132
1.2528283
1.2434898
1.2335189
1.2235358
1.2140002
1.2052287
1.1973894
1.190512
1.1846637
1.1801444
1.1770693
1.1743388
1.1703311
1.1681383
1.1667417
1.1661749
1.1659226
1.1658329
1.1661279
1.1672835
1.1679237
1.1683012
1.1685009
1.1686019
1.1686501
1.1686811
1.1687312
1.1687115
1.0143448
1.0347942
1.0556082
1.0713497
1.0688904
1.0797248
1.0840033
1.0953767
1.1053276
1.1194729
1.1351225
1.1537324
1.1745142
1.196849
1.2191869
1.2397434
1.2568726
1.2688581
1.2744502
1.2748611
1.2711868
1.2643308
1.2553818
1.2452886
1.2347972
1.2244648
1.2147008
1.2057827
1.1978463
1.1909045
1.1850268
1.1805147
1.1774463
1.174658
1.1705348
1.1683364
1.1669329
1.1663729
1.1661308
1.1660408
1.1664154
1.1674551
1.1680091
1.1683328
1.1685039
1.1685914
1.1686338
1.1686621
1.1687089
1.168659
1.0241326
1.0506294
1.0676542
1.0832227
1.081205
1.0925494
1.0976315
1.1096365
1.1206071
1.1355156
1.1521693
1.171566
1.1928662
1.215104
1.2365975
1.2556125
1.2705723
1.2796689
1.2826558
1.2811011
1.2756918
1.2675188
1.2576162
1.2468555
1.2359092
1.225275
1.2153163
1.2062745
1.1982571
1.1912628
1.1853652
1.1808657
1.1778052
1.1749583
1.1707224
1.1685242
1.1671188
1.1665686
1.1663405
1.1662525
1.1666961
1.1675987
1.1680802
1.168359
1.1685057
1.1685788
1.1686155
1.1686421
1.1686851
1.1686105
1.0346096
1.067779
1.0803419
1.0960345
1.094549
1.1064173
1.1123914
1.1249832
1.1369999
1.1526788
1.1702777
1.1903342
1.2118737
1.2336402
1.2539099
1.2710581
1.2834009
1.289488
1.2902201
1.2866712
1.2796688
1.2703081
1.2595591
1.2482135
1.2368729
1.2259801
1.2158569
1.2067122
1.1986278
1.1915918
1.1856826
1.1811998
1.1781477
1.1752403
1.1708958
1.1687041
1.1673018
1.1667635
1.166552
1.1664687
1.1669547
1.1677262
1.1681411
1.1683778
1.1685009
1.1685629
1.1685953
1.1686206
1.1686597
1.1685652
1.0456558
1.0861822
1.0939066
1.1099445
1.1090693
1.1214085
1.1283304
1.1414682
1.1545546
1.1710064
1.1894541
1.2099638
1.2313945
1.2522817
1.2709511
1.2858538
1.295199
1.298463
1.2970673
1.2916157
1.2831583
1.2727366
1.2612423
1.2493874
1.2377072
1.2265946
1.2163336
1.2071038
1.1989647
1.1918965
1.1859827
1.1815196
1.178476
1.1755053
1.171057
1.1688786
1.1674847
1.1669588
1.1667641
1.1666873
1.1671868
1.1678393
1.168193
1.1683934
1.1684967
1.1685468
1.1685723
1.1685955
1.168632
1.1685232
1.0577772
1.1059509
1.1085613
1.1250118
1.1248008
1.1375504
1.1454518
1.1591711
1.1733381
1.1905509
1.2096755
1.23034
1.2512427
1.2708262
1.2875217