/*--------------------------------*- C++ -*----------------------------------*\
  =========                 |
  \\      /  F ield         | OpenFOAM: The Open Source CFD Toolbox
   \\    /   O peration     | Website:  https://openfoam.org
    \\  /    A nd           | Version:  8
     \\/     M anipulation  |
\*---------------------------------------------------------------------------*/
FoamFile
{
    version     2.0;
    format      ascii;
    class       surfaceVectorField;
    location    "0.149996";
    object      rhoUf;
}
// * * * * * * * * * * * * * * * * * * * * * * * * * * * * * * * * * * * * * //

dimensions      [1 -2 -1 0 0 0 0];

internalField   nonuniform List<vector> 
39600
(
(204.8745 -8.2636693e-22 -1.1679652)
(191.01864 -8.0893595e-22 -1.8039203)
(191.25988 1.1896233e-17 -1.0465394)
(230.074 7.8929131e-23 -1.3331104)
(221.25861 -3.0819346e-19 -1.6151925)
(221.16056 1.0634162e-21 -0.75423626)
(248.41152 -1.8540649e-19 -1.4829588)
(240.75227 0 -1.9049061)
(240.38907 -3.4061072e-18 -0.96241616)
(265.41025 -2.2222133e-19 -1.6597773)
(257.93961 9.6183e-21 -2.0954634)
(257.32282 -2.1425884e-19 -1.0756415)
(282.74946 -2.8091947e-19 -1.8903977)
(274.97266 0 -2.3297967)
(274.06876 0 -1.2363355)
(300.74127 -9.374066e-20 -2.2001617)
(292.98392 1.0240167e-17 -2.6013802)
(291.74096 -3.2364805e-19 -1.4283253)
(313.43722 2.9136721e-19 -2.4604373)
(310.99929 -2.5973907e-17 -3.1525916)
(310.03867 2.2102587e-18 -1.8946378)
(316.26225 0 -2.5189975)
(316.87969 1.4989334e-17 -2.9700948)
(316.68827 -3.2970622e-18 -1.7281949)
(316.07118 2.2450072e-21 -2.5429877)
(315.68771 0 -3.4100755)
(315.54969 -2.3080686e-21 -2.1214846)
(316.27688 -1.0557946e-21 -2.5853021)
(316.70639 2.4396329e-21 -2.9096979)
(316.52118 1.1614123e-18 -1.6563339)
(316.19449 -8.1085209e-19 -2.6311338)
(315.9668 -4.0745046e-21 -3.5939548)
(315.79639 -4.6345196e-22 -2.2881025)
(316.41153 -9.6779054e-19 -2.6960741)
(316.68167 3.4090515e-20 -2.97588)
(316.48293 -1.7426809e-18 -1.7029246)
(316.46493 1.1205455e-18 -2.7725053)
(316.32069 1.5267855e-18 -3.7389152)
(316.12944 6.8373533e-19 -2.4136499)
(316.7195 -6.1497682e-18 -2.8705852)
(316.87192 -2.6026453e-18 -3.1801951)
(316.66333 1.2721702e-18 -1.8733954)
(316.9038 -4.3593692e-18 -2.9903893)
(316.78424 -8.1554133e-18 -3.893695)
(316.57772 -8.4778865e-18 -2.5413555)
(317.23464 5.5947454e-18 -3.1385231)
(317.29283 -2.9755963e-19 -3.5184927)
(317.07467 5.2393009e-18 -2.1651394)
(317.55161 8.7997355e-18 -3.3215823)
(317.42302 2.9494543e-18 -4.1323363)
(317.20278 0 -2.7394052)
(317.99244 3.3027786e-18 -3.5444362)
(317.96152 9.5874989e-18 -3.9982236)
(317.73343 9.7736474e-18 -2.5846052)
(318.45906 -1.8075864e-17 -3.8183082)
(318.29562 -3.7355819e-18 -4.538164)
(318.06375 -8.0150382e-18 -3.0846016)
(319.04073 -6.1015684e-18 -4.1466571)
(318.91719 -1.3605769e-17 -4.6554127)
(318.68155 -1.0118206e-17 -3.1626067)
(319.67292 6.1023787e-18 -4.5407503)
(319.45576 -3.3774925e-19 -5.1921803)
(319.21885 5.5306813e-18 -3.6509675)
(320.40171 -1.1043589e-17 -4.9961376)
(320.19065 1.4766268e-17 -5.5454672)
(319.95807 8.0885121e-21 -3.9478785)
(321.16866 -1.3374565e-17 -5.5081846)
(320.90342 -1.612583e-17 -6.1391623)
(320.68137 -1.1543771e-17 -4.4807629)
(321.96516 -1.0900292e-19 -6.0425864)
(321.7098 1.3759249e-17 -6.6638871)
(321.51075 -2.7416468e-19 -4.9370296)
(322.70587 0 -6.5463262)
(322.46066 1.1907685e-17 -7.2660356)
(322.29776 5.2221069e-20 -5.4710367)
(323.30618 0 -6.9236113)
(323.13901 -3.9679335e-17 -7.7469126)
(323.02931 0 -5.884961)
(323.62651 3.5794139e-19 -7.058786)
(323.59092 5.0137079e-17 -8.0623399)
(323.54655 0 -6.1479128)
(323.52206 4.0136524e-19 -6.8486192)
(323.69877 2.172296e-17 -8.0355829)
(323.71979 1.3765173e-20 -6.0973599)
(322.87572 8.0966704e-18 -6.277718)
(323.30987 -4.6917671e-17 -7.6056091)
(323.37628 2.1320839e-19 -5.7005042)
(321.66924 9.9157788e-18 -5.4491535)
(322.35421 5.7814122e-17 -6.7915134)
(322.43111 7.3133488e-18 -5.00409)
(320.02657 -1.190359e-17 -4.5080334)
(320.87688 6.4195481e-17 -5.7495255)
(320.94027 2.5638394e-19 -4.1706854)
(318.15907 -5.2424222e-18 -3.5604013)
(319.05009 3.3040925e-19 -4.6379596)
(319.09234 -9.3525837e-18 -3.3237683)
(316.24239 -3.3424753e-18 -2.6454191)
(317.0933 -2.3842572e-19 -3.5572808)
(317.12051 6.9384885e-18 -2.5090497)
(314.42281 -1.8278086e-17 -1.7951142)
(315.18946 6.7116332e-17 -2.5553002)
(315.20587 -1.0162028e-17 -1.7398313)
(312.80546 -4.448671e-17 -1.0271069)
(313.46324 2.3189217e-21 -1.6455456)
(313.47296 1.9420963e-19 -1.0226519)
(311.40824 -4.1820835e-17 -0.36666846)
(311.97784 -1.9345431e-17 -0.85938001)
(311.98098 -2.5329624e-17 -0.38886854)
(310.21584 -2.4184325e-17 0.18526315)
(310.68844 1.4988795e-17 -0.20388924)
(310.68562 7.3861118e-18 0.14962281)
(309.22043 -5.113465e-17 0.63134253)
(309.61249 9.3530864e-17 0.33097436)
(309.60513 -1.9494917e-17 0.59558751)
(308.3966 -4.5820091e-17 0.98664755)
(308.71475 3.369745e-20 0.75554446)
(308.70479 -1.3775573e-19 0.95389809)
(307.71403 -5.7487662e-17 1.2555381)
(307.98157 4.762068e-19 1.0840254)
(307.96949 -1.7298381e-17 1.2337857)
(307.14456 0 1.450718)
(307.36722 0 1.3275821)
(307.3548 0 1.4415906)
(306.66754 -6.5197863e-17 1.5679899)
(306.85961 -1.4265653e-17 1.4929271)
(306.84666 0 1.5810597)
(306.26684 -8.8626271e-17 1.6095904)
(306.43232 1.8931304e-16 1.5780038)
(306.41928 -1.7405976e-17 1.6494598)
(305.93084 -8.6009316e-18 1.5691606)
(306.07788 -2.3248754e-17 1.5785048)
(306.06595 -1.7709942e-18 1.6383562)
(305.64942 -1.4832997e-20 1.4503054)
(305.77485 -9.1583111e-17 1.4959971)
(305.76484 -3.8933203e-21 1.5432912)
(305.46192 4.5533585e-17 1.2525461)
(305.52342 8.4581472e-18 1.3486147)
(305.51332 2.2767228e-19 1.3842896)
(305.46808 2.2054048e-17 1.5755928)
(305.34921 -5.7348361e-18 1.1045224)
(305.38671 7.9903801e-18 1.1335828)
(305.34225 -1.2752883e-17 0.53656505)
(305.22023 -5.6275944e-18 0.75916215)
(305.17366 -5.2552525e-18 0.7759983)
(305.37762 4.3379201e-17 1.1331198)
(305.32789 4.4607826e-18 0.29085434)
(305.38569 4.2022544e-18 0.32433394)
(304.8235 2.9906236e-18 -0.58564077)
(304.77029 2.1890717e-18 -0.5757882)
(204.73576 -2.7718339e-19 -1.9764023)
(190.89481 0 -2.5508003)
(230.19671 -3.3209888e-19 -2.2454602)
(221.41669 2.0178988e-17 -2.5120456)
(248.76157 1.8955275e-19 -2.4712069)
(241.14142 -1.6247835e-17 -2.8721459)
(265.99826 2.2719367e-19 -2.71823)
(258.56018 2.7899677e-17 -3.1385914)
(283.61401 9.4785332e-18 -3.0200761)
(275.86266 -4.7300555e-17 -3.4485648)
(301.64701 -1.221854e-17 -3.4006045)
(294.20596 1.0276405e-17 -3.8016012)
(313.9393 -1.4802149e-17 -3.6946156)
(311.86627 -8.1064341e-18 -4.4385947)
(316.43603 1.6154837e-17 -3.7728162)
(317.12598 1.3677079e-17 -4.2288963)
(316.24344 0 -3.8105215)
(315.87091 -1.6080264e-18 -4.7220417)
(316.46871 0 -3.8679962)
(316.92531 0 -4.1781396)
(316.39083 8.1822879e-19 -3.9265287)
(316.15605 -2.2383906e-18 -4.9286047)
(316.62 2.3537504e-18 -4.0062106)
(316.89589 -9.7825497e-19 -4.2667148)
(316.67573 -1.7857665e-18 -4.0968498)
(316.52003 -3.184003e-18 -5.0936274)
(316.93796 -4.1233292e-18 -4.2118964)
(317.08826 -1.1366237e-18 -4.5057731)
(317.12512 -4.8150348e-18 -4.3507526)
(316.99614 4.3590856e-18 -5.2732133)
(317.46215 -3.1370245e-18 -4.521124)
(317.51575 -8.8937749e-18 -4.8909181)
(317.78265 3.1861819e-18 -4.7307986)
(317.64774 5.8760152e-18 -5.5492161)
(318.22784 3.775549e-18 -4.9839401)
(318.19263 -3.5334528e-20 -5.4306254)
(318.69664 1.4488767e-18 -5.2948453)
(318.53119 8.3770822e-18 -6.012639)
(319.27838 -9.0538318e-18 -5.6649561)
(319.15494 3.8155986e-18 -6.1658564)
(319.90645 6.8879553e-18 -6.1089856)
(319.69507 2.9718569e-19 -6.7506357)
(320.62424 1.2385668e-17 -6.6190614)
(320.42349 3.4802986e-17 -7.156411)
(321.37092 7.913368e-18 -7.1922779)
(321.12463 -2.9563231e-17 -7.8070005)
(322.13443 2.5708166e-17 -7.7897246)
(321.90507 1.3592262e-17 -8.3930925)
(322.8295 -2.2503329e-17 -8.3567378)
(322.61698 1.1688127e-17 -9.0541518)
(323.37447 1.5521838e-18 -8.7899102)
(323.23753 -5.9496409e-17 -9.5886734)
(323.63791 7.3752768e-17 -8.9639297)
(323.61776 -1.9010547e-17 -9.9402694)
(323.49421 -1.8432286e-17 -8.7548098)
(323.64951 -3.6535438e-17 -9.9203307)
(322.83769 -7.8963355e-18 -8.1206481)
(323.20141 -4.613926e-17 -9.4473926)
(321.65327 1.1074059e-16 -7.1400135)
(322.21955 -7.1366139e-17 -8.5198482)
(320.03376 8.2526289e-17 -5.972822)
(320.74926 6.3811572e-17 -7.2876869)
(318.15612 5.3227876e-18 -4.7647206)
(318.94595 1.3087868e-17 -5.9334647)
(316.22858 6.2650636e-17 -3.6021624)
(317.01397 -1.0262198e-17 -4.6012632)
(314.40864 9.2132437e-17 -2.537763)
(315.13149 1.527684e-17 -3.3737654)
(312.79745 2.6957394e-17 -1.5941485)
(313.42149 1.0532485e-16 -2.2750749)
(311.41 3.3427407e-17 -0.79598712)
(311.95119 5.0333312e-17 -1.3377687)
(310.22402 1.2347574e-16 -0.13868976)
(310.67403 -1.5380081e-17 -0.56491048)
(309.2319 1.5454825e-16 0.38839666)
(309.60698 5.6760594e-17 0.059832397)
(308.40964 4.6049801e-17 0.80328771)
(308.71542 -8.7346255e-18 0.55176295)
(307.72819 5.7761382e-17 1.1170157)
(307.98636 -1.4394673e-16 0.92991646)
(307.16047 -1.2638668e-17 1.3448562)
(307.37427 9.7094522e-18 1.2101737)
(306.68563 2.1709157e-16 1.4867191)
(306.86848 -4.2781573e-17 1.4024928)
(306.28645 2.7855664e-16 1.5454839)
(306.44189 1.1537765e-16 1.507345)
(305.95199 -9.8662429e-17 1.5180853)
(306.08731 -7.7643829e-18 1.5208199)
(305.67031 -9.4366215e-17 1.4103034)
(305.78328 -1.1930453e-17 1.4502955)
(305.44645 -4.1403766e-17 1.2258243)
(305.53292 1.6954302e-17 1.3148068)
(305.31784 -3.4308713e-17 1.0395322)
(305.35001 1.3095834e-16 1.0785308)
(305.22752 1.1051965e-17 0.52564575)
(305.23446 3.8412047e-17 0.7448245)
(305.24405 -4.38113e-17 1.0363946)
(305.27353 -1.3724022e-16 0.26259662)
(304.87105 -7.839018e-19 -0.59857009)
(204.80034 1.8416166e-17 -2.8001181)
(190.78895 5.8440441e-17 -3.3132422)
(230.54223 7.4570916e-18 -3.1784524)
(221.62017 -2.1270966e-17 -3.4187821)
(249.34033 7.3896041e-18 -3.4870437)
(241.57926 -1.5864572e-17 -3.8568905)
(266.83335 -1.2679772e-17 -3.8138186)
(259.23324 2.7041278e-17 -4.2041364)
(284.76634 -5.0985689e-17 -4.200619)
(276.81306 -2.2338784e-17 -4.5955893)
(302.8007 1.5717348e-17 -4.6707132)
(295.53348 -2.0100814e-17 -5.0400199)
(314.55583 1.8011472e-17 -5.0055499)
(312.70976 3.4460683e-17 -5.7620562)
(316.66225 -2.4799961e-18 -5.0846317)
(317.33769 -1.5618338e-17 -5.5210067)
(316.4482 -1.7333882e-18 -5.1246836)
(316.0454 -1.3064312e-17 -6.0653523)
(316.676 -2.0114601e-18 -5.1877594)
(317.13863 -2.7622486e-18 -5.4742884)
(316.59178 -4.0919651e-18 -5.2535708)
(316.34519 1.1498962e-17 -6.2888752)
(316.82611 -6.2151676e-18 -5.3435484)
(317.11157 7.6696875e-20 -5.5830192)
(316.88189 -2.7108347e-18 -5.447302)
(316.72344 -1.3913648e-18 -6.471815)
(317.15056 6.7178909e-18 -5.5781492)
(317.30823 7.8682057e-18 -5.8564034)
(317.34117 1.4258565e-18 -5.7362343)
(317.21208 -9.0941081e-18 -6.6752699)
(317.68439 -1.2523492e-18 -5.928846)
(317.74164 7.5870874e-18 -6.2882707)
(318.00959 3.196171e-18 -6.1652535)
(317.87538 -3.3224523e-18 -6.9888085)
(318.46007 3.7843469e-18 -6.4495498)
(318.42599 2.0828051e-17 -6.8883374)
(318.93303 1.1072495e-17 -6.7975927)
(318.7688 -4.5208857e-18 -7.5111049)
(319.51681 1.3257246e-17 -7.2105637)
(319.39372 7.0550657e-18 -7.7021392)
(320.14344 2.4757311e-17 -7.703629)
(319.93429 6.0344813e-18 -8.3336128)
(320.85278 -8.7775442e-19 -8.2674538)
(320.65413 -7.6535226e-19 -8.7914428)
(321.58175 -2.7692766e-17 -8.8976132)
(321.34108 1.1174168e-18 -9.4956713)
(322.3134 0 -9.5515335)
(322.09212 -7.2366345e-18 -10.138299)
(322.95961 -1.8340099e-17 -10.169514)
(322.7609 0 -10.849338)
(323.43626 -8.3372693e-17 -10.640084)
(323.31832 2.1264037e-17 -11.4235)
(323.61814 -1.2588466e-16 -10.827486)
(323.62033 -4.1214494e-17 -11.791011)
(323.39238 -6.2870503e-17 -10.594362)
(323.56784 9.0038255e-18 -11.754184)
(322.67472 -1.0637659e-16 -9.881745)
(323.05015 0 -11.218787)
(321.46182 -1.3072002e-16 -8.7549498)
(322.03189 -3.694643e-17 -10.172425)
(319.84826 2.2114412e-19 -7.3794777)
(320.56199 -6.6124592e-17 -8.761342)
(318.00506 0 -5.9317541)
(318.78349 1.3610249e-17 -7.1837167)
(316.11478 -5.9773848e-17 -4.536439)
(316.88394 -1.0638686e-17 -5.6172893)
(314.3249 1.8994517e-17 -3.2669139)
(315.0326 -8.3813469e-17 -4.1756598)
(312.73441 1.3424067e-16 -2.1538282)
(313.34829 2.467124e-17 -2.8951056)
(311.35984 8.8205334e-18 -1.2208585)
(311.90085 -1.0462775e-17 -1.8109423)
(310.18663 -8.9476353e-17 -0.45853595)
(310.64186 2.4935137e-16 -0.9232814)
(309.20819 -9.84803e-17 0.14805275)
(309.58874 -2.6941371e-16 -0.21032205)
(308.39647 -1.8302131e-16 0.62172771)
(308.70689 2.7301347e-16 0.34822457)
(307.7228 -2.0896049e-16 0.9793456)
(307.98434 2.3725395e-16 0.77582165)
(307.15942 -1.4515716e-17 1.2391329)
(307.37643 1.9418759e-17 1.0924106)
(306.68708 -1.6216991e-16 1.4043452)
(306.87387 1.85886e-16 1.311413)
(306.28968 -1.5694936e-16 1.4795155)
(306.44885 1.7866191e-16 1.4354095)
(305.95609 7.9607477e-17 1.4646023)
(306.09446 1.548552e-17 1.4616725)
(305.67494 9.6458172e-17 1.3680299)
(305.79015 8.009281e-17 1.4034366)
(305.45872 1.7738106e-16 1.1951305)
(305.54097 -2.6834758e-16 1.2790587)
(305.30552 2.1383542e-16 0.92035654)
(305.3568 1.9582652e-16 1.0511965)
(305.25289 -9.1569747e-17 0.51216546)
(305.24109 -4.5632746e-18 0.72533013)
(305.26042 -1.1089412e-16 0.90607705)
(305.2261 7.3464454e-18 0.23429146)
(304.91195 -4.3918222e-18 -0.60755257)
(204.84135 2.5848398e-17 -3.6338338)
(190.72619 1.1689337e-16 -4.0911614)
(230.85002 -4.4463073e-17 -4.1240676)
(221.85819 -8.1873617e-17 -4.3376997)
(249.8782 0 -4.5169193)
(242.04995 5.3332399e-19 -4.8584323)
(267.62348 2.1439337e-17 -4.9243065)
(259.93889 0 -5.28942)
(285.88451 7.647482e-18 -5.3968094)
(277.7961 2.3290255e-17 -5.7655609)
(303.88825 -6.0385008e-18 -5.9519902)
(296.92809 -2.2355045e-17 -6.3053207)
(315.07374 5.5111111e-18 -6.3191633)
(313.50301 1.8134028e-17 -7.1046436)
(316.84195 -2.6155064e-17 -6.4034202)
(317.54868 1.6879187e-18 -6.8291627)
(316.63795 -1.4873472e-17 -6.4509696)
(316.23079 -2.46167e-17 -7.4300748)
(316.87831 9.3215781e-18 -6.5239707)
(317.36091 -2.7091136e-18 -6.7906919)
(316.79487 1.6466965e-17 -6.6000586)
(316.54158 1.1042347e-17 -7.6721579)
(317.03845 4.9054887e-18 -6.7024067)
(317.33245 -1.3737626e-17 -6.9206882)
(317.0957 8.2158556e-18 -6.8200427)
(316.93065 1.609061e-17 -7.8726309)
(317.37075 -6.2427238e-18 -6.9668868)
(317.53055 1.068018e-17 -7.2289276)
(317.56388 -4.404982e-18 -7.1440615)
(317.43002 -2.211956e-17 -8.0992524)
(317.91235 6.4407656e-18 -7.3588786)
(317.9688 3.3289944e-18 -7.7081542)
(318.24112 1.1968222e-17 -7.6222784)
(318.10451 -1.2450183e-17 -8.450739)
(318.69564 1.4751065e-17 -7.9381264)
(318.66022 2.0410682e-17 -8.369785)
(319.17093 -9.4007203e-18 -8.323649)
(319.0071 -2.6424159e-17 -9.0330997)
(319.75413 6.3442606e-20 -8.7793484)
(319.63198 -1.5041085e-17 -9.2628261)
(320.37568 -1.8404375e-17 -9.3204695)
(320.17159 1.277751e-17 -9.9400406)
(321.07182 1.0386615e-18 -9.9359378)
(320.88053 -3.0776099e-17 -10.448945)
(321.7774 2.1902109e-17 -10.619083)
(321.55047 1.681162e-17 -11.203902)
(322.47078 -7.8660923e-18 -11.323081)
(322.26844 -7.1015327e-18 -11.898442)
(323.06224 3.7032208e-17 -11.98169)
(322.88949 -1.2811429e-17 -12.651395)
(323.46707 6.8348132e-17 -12.474647)
(323.3783 5.1202965e-17 -13.252516)
(323.56688 8.6919278e-17 -12.656054)
(323.59579 3.4633842e-17 -13.61797)
(323.26372 7.1765598e-17 -12.378876)
(323.45215 5.7270082e-17 -13.542982)
(322.49192 7.2020303e-17 -11.574915)
(322.85742 0 -12.926338)
(321.26049 2.96069e-17 -10.302164)
(321.79507 7.9758445e-17 -11.752493)
(319.65877 -6.078541e-17 -8.7316911)
(320.32105 -6.5529006e-17 -10.167719)
(317.84103 5.4920657e-18 -7.0612035)
(318.56787 1.2296841e-16 -8.3819522)
(315.98194 -2.6937791e-17 -5.4467686)
(316.7068 -1.0530534e-17 -6.5978618)
(314.22303 -8.945418e-17 -3.9818643)
(314.89483 -3.4291179e-17 -4.95493)
(312.66074 -1.1522306e-16 -2.7054324)
(313.24448 -2.9341401e-16 -3.5011713)
(311.31139 2.0061558e-16 -1.641523)
(311.82715 -1.8502158e-16 -2.2755532)
(310.15498 1.2675005e-16 -0.77748908)
(310.59228 -2.3857733e-16 -1.2767631)
(309.18503 4.0717897e-17 -0.092804224)
(309.55751 1.9112607e-16 -0.47827897)
(308.38084 6.9562186e-16 0.43984569)
(308.68862 -2.3942473e-18 0.14528585)
(307.71483 4.8915446e-16 0.84093369)
(307.97561 2.2064055e-16 0.62148423)
(307.15714 2.0066633e-16 1.1326987)
(307.37372 -3.0112315e-16 0.9741562)
(306.68905 5.2737084e-16 1.3212306)
(306.87574 2.1415485e-16 1.2198187)
(306.29533 3.6972647e-16 1.4134788)
(306.45327 -1.0286926e-17 1.3629554)
(305.96376 8.5975194e-18 1.4106718)
(306.09922 7.7285906e-18 1.4021377)
(305.68305 -2.4621315e-16 1.3256655)
(305.79539 0 1.356338)
(305.46277 -3.0299395e-16 1.1634377)
(305.54788 -1.1423963e-17 1.2427391)
(305.30826 -1.3841407e-18 0.89406029)
(305.36267 -1.9114146e-16 1.0233205)
(305.22072 9.4205636e-17 0.49474486)
(305.24682 -9.4192447e-18 0.70225396)
(305.2117 1.2536816e-16 0.79480022)
(305.18356 1.1817243e-16 0.20641475)
(304.94704 1.7219887e-16 -0.61262825)
(204.9396 2.7066714e-17 -4.479373)
(190.69812 1.1967031e-16 -4.8835559)
(231.22289 -4.4318703e-17 -5.0862705)
(222.13641 -8.4505734e-17 -5.2730626)
(250.48644 5.7468015e-19 -5.5677063)
(242.56374 -2.3185702e-20 -5.8805145)
(268.48693 0 -6.0606469)
(260.69055 0 -6.3989604)
(287.09528 -2.4661059e-18 -6.6248601)
(278.82408 0 -6.9642753)
(305.03161 -1.8947411e-18 -7.2671679)
(298.40015 -2.6846038e-18 -7.6054114)
(315.60093 1.5679559e-17 -7.6618316)
(314.24629 1.1537554e-18 -8.4743634)
(317.05057 5.2426845e-18 -7.7526031)
(317.77539 1.3606261e-17 -8.1606767)
(316.84442 -1.444514e-17 -7.8056349)
(316.41703 -1.308033e-17 -8.8188104)
(317.09109 -2.1035739e-18 -7.8865784)
(317.5828 2.8363059e-18 -8.128962)
(317.00376 -1.6524657e-17 -7.9710904)
(316.73798 1.6812973e-17 -9.0782308)
(317.25302 -5.1489801e-18 -8.0842979)
(317.55284 -3.1120258e-17 -8.2796639)
(317.30991 1.89263e-17 -8.214906)
(317.13809 1.2691586e-17 -9.2949421)
(317.5903 -2.244554e-18 -8.3773856)
(317.75279 1.6481253e-17 -8.6233515)
(317.78593 -1.659466e-17 -8.5738612)
(317.64864 -2.744017e-17 -9.5448155)
(318.13962 -1.3885938e-17 -8.8114639)
(318.1962 8.0851592e-18 -9.1514132)
(318.47232 -6.8505122e-18 -9.1026494)
(318.33431 -6.2007217e-18 -9.9356234)
(318.93076 -1.6078839e-17 -9.4508117)
(318.89426 0 -9.8761975)
(319.40826 -3.2880413e-17 -9.8742982)
(319.2447 1.9019425e-17 -10.579522)
(319.99015 -4.8938397e-18 -10.372762)
(319.86786 -7.1524182e-18 -10.848958)
(320.6056 4.3051267e-18 -10.961142)
(320.40467 1.9006461e-17 -11.570786)
(321.28691 -1.9354708e-17 -11.626477)
(321.09997 1.1254901e-17 -12.129928)
(321.96681 -9.5728036e-18 -12.359145)
(321.74951 2.7991355e-17 -12.9328)
(322.61859 -1.1460019e-17 -13.107259)
(322.4301 0 -13.674783)
(323.15029 -4.5949013e-18 -13.796592)
(322.99809 -5.8071661e-17 -14.461645)
(323.47587 1.9547031e-17 -14.297041)
(323.41216 4.937129e-18 -15.077087)
(323.48398 3.3582119e-18 -14.452728)
(323.53874 8.9408858e-18 -15.422642)
(323.09107 -8.0597272e-18 -14.110505)
(323.29816 -1.5046104e-17 -15.288483)
(322.25186 0 -13.199226)
(322.62116 1.9217152e-17 -14.57148)
(320.98975 0 -11.776504)
(321.51028 -1.0355283e-17 -13.259581)
(319.39556 9.7385829e-17 -10.01897)
(320.02948 0 -11.503045)
(317.61255 1.2056288e-16 -8.1408912)
(318.30279 -2.4262925e-18 -9.5210507)
(315.79762 -1.5371637e-17 -6.3222646)
(316.48546 0 -7.5346955)
(314.08079 -2.0931442e-16 -4.6737633)
(314.72021 -1.71634e-17 -5.7040963)
(312.55472 -3.7419703e-16 -3.2421992)
(313.11138 1.6800025e-17 -4.0873076)
(311.23564 -6.1562273e-16 -2.052769)
(311.73079 -3.0926276e-16 -2.7272423)
(310.10381 -2.2124619e-16 -1.0906215)
(310.52554 -2.6206444e-16 -1.6220656)
(309.15325 1.6941754e-16 -0.33050193)
(309.51343 1.863622e-16 -0.74125458)
(308.36134 -5.0054976e-16 0.25897364)
(308.66083 -2.8187988e-16 -0.054932427)
(307.70243 -5.0903391e-16 0.70278335)
(307.95964 -6.3148717e-16 0.46831161)
(307.15045 -3.4598205e-16 1.0261027)
(307.36558 3.1248505e-16 0.85628144)
(306.68814 -2.9780557e-16 1.2379823)
(306.87346 -6.7261882e-16 1.1281184)
(306.29811 -3.7460827e-16 1.3467134)
(306.45436 -3.4683466e-16 1.2900518)
(305.96704 0 1.3561401)
(306.10166 1.5396034e-17 1.3421704)
(305.68774 2.3718861e-16 1.2827799)
(305.799 -2.2552178e-17 1.3089056)
(305.46984 1.2173011e-16 1.1309574)
(305.55351 2.6824778e-16 1.2056909)
(305.31494 -2.2023732e-16 0.86602515)
(305.36751 -1.9285871e-16 0.99493141)
(305.21561 0 0.47536184)
(305.25124 -9.0989961e-18 0.67584902)
(305.19668 1.5285608e-16 0.67981432)
(305.14724 3.4054142e-18 0.17944612)
(304.97596 8.4385749e-18 -0.61426835)
(205.06596 2.6501631e-17 -5.3420975)
(190.70267 5.9815652e-17 -5.6909513)
(231.62175 -4.7796825e-17 -6.0694774)
(222.4479 -4.2879611e-17 -6.226781)
(251.12295 -5.8626716e-19 -6.642583)
(243.1143 -5.313805e-19 -6.9250249)
(269.37941 0 -7.2242815)
(261.48313 -3.0457622e-17 -7.533804)
(288.34604 -4.7417644e-21 -7.8844512)
(279.89088 2.6429927e-17 -8.1926045)
(306.17248 -5.6848983e-21 -8.6120568)
(299.93464 -1.0709292e-20 -8.9400042)
(316.09333 -1.8421982e-18 -9.0268539)
(314.92532 0 -9.8680785)
(317.26125 -2.2092873e-18 -9.1207206)
(318.00486 8.3215239e-20 -9.5121221)
(317.04513 2.5586725e-18 -9.1789663)
(316.60278 0 -10.228132)
(317.30015 2.0224229e-17 -9.2681909)
(317.80376 2.7815764e-18 -9.4861735)
(317.21102 6.3227416e-18 -9.3616309)
(316.93427 -8.4451974e-19 -10.505217)
(317.46723 -1.7131949e-17 -9.4863914)
(317.77272 7.0058652e-19 -9.6589994)
(317.52481 1.0002205e-17 -9.6306891)
(317.34556 2.0412914e-17 -10.738541)
(317.81089 -4.6770556e-18 -9.8096234)
(317.97464 -1.1812204e-17 -10.040156)
(318.00926 -6.1505292e-18 -10.026274)
(317.86744 -8.7020186e-18 -11.012803)
(318.36792 1.6743387e-17 -10.287611)
(318.42322 3.1086329e-17 -10.619138)
(318.7041 0 -10.607417)
(318.5638 -1.3356842e-17 -11.444534)
(319.16547 3.2805115e-17 -10.988582)
(319.12685 -1.1124408e-19 -11.40854)
(319.64375 4.6363111e-17 -11.450307)
(319.48005 2.6445365e-17 -12.15118)
(320.22216 1.4087082e-17 -11.991342)
(320.09963 7.4220434e-18 -12.461159)
(320.82871 2.6472341e-17 -12.626055)
(320.6316 -1.987518e-17 -13.226441)
(321.49153 5.6264245e-17 -13.339386)
(321.31038 7.6958291e-17 -13.83496)
(322.14123 3.9797822e-17 -14.118066)
(321.93594 -1.0548076e-17 -14.682969)
(322.74589 -4.0686742e-17 -14.904183)
(322.57457 7.9743275e-18 -15.467785)
(323.2117 -5.4326682e-17 -15.614196)
(323.08382 1.6636394e-18 -16.280289)
(323.45221 -5.858378e-18 -16.107298)
(323.41686 -5.2828795e-18 -16.897054)
(323.36405 -6.9488457e-18 -16.218173)
(323.44647 6.597244e-17 -17.204771)
(322.87911 8.6112421e-18 -15.790671)
(323.10422 1.2628581e-16 -16.99074)
(321.97186 1.1828365e-17 -14.756282)
(322.34181 1.89542e-17 -16.154509)
(320.67974 -1.136647e-17 -13.177654)
(321.18038 -1.022441e-17 -14.693158)
(319.09401 -9.8496693e-17 -11.238551)
(319.69207 -8.8382265e-18 -12.764579)
(317.34602 -1.2199516e-16 -9.1656402)
(317.99334 -1.0265776e-16 -10.596017)
(315.57831 0 -7.1569774)
(316.22418 0 -8.4216922)
(313.90902 2.036917e-16 -5.3372159)
(314.5118 1.7684596e-17 -6.4173245)
(312.42567 1.1599477e-16 -3.7597558)
(312.95093 2.2811828e-16 -4.6486292)
(311.14334 3.7073834e-17 -2.4514081)
(311.61301 1.7985564e-16 -3.162168)
(310.04019 9.4219539e-17 -1.3957771)
(310.44244 2.2752117e-16 -1.9563354)
(309.11067 -2.1113407e-16 -0.56339658)
(309.4569 -5.8351819e-16 -0.9972957)
(308.33438 -3.7336131e-16 0.080843082)
(308.62365 -5.437823e-16 -0.25099307)
(307.68701 8.1906931e-17 0.56593031)
(307.93661 4.1184827e-16 0.31751699)
(307.14286 9.8023699e-17 0.91991862)
(307.35215 6.2197449e-16 0.73964569)
(306.68574 -7.5884873e-16 1.1546121)
(306.86716 -6.5815227e-16 1.0368106)
(306.29858 1.9573236e-18 1.2796205)
(306.45226 3.1455991e-16 1.2169609)
(305.96921 -2.8200157e-18 1.3013605)
(306.10173 5.2176785e-16 1.2821546)
(305.6917 -2.5157131e-17 1.2395458)
(305.80098 -3.9317584e-16 1.2613897)
(305.47414 5.4021961e-18 1.0977128)
(305.55794 -1.3544929e-20 1.1680455)
(305.3186 -1.300819e-18 0.837124)
(305.37133 -3.8167146e-16 0.96587555)
(305.20111 -7.2878388e-18 0.45292177)
(305.25449 -2.1236428e-19 0.64687534)
(305.17225 -1.4941746e-16 0.57434527)
(305.11607 1.0705783e-19 0.15310517)
(304.99904 -1.702125e-16 -0.61230634)
(205.22624 0 -6.2199582)
(190.7362 -6.3154399e-17 -6.5119671)
(232.0605 0 -7.0721431)
(222.79143 4.5984396e-17 -7.1960605)
(251.80514 -2.7384945e-17 -7.7405899)
(243.70202 0 -7.9905028)
(270.31912 -9.062853e-18 -8.4147867)
(262.31795 3.2618909e-17 -8.6920756)
(289.65195 2.8481309e-17 -9.175909)
(280.99846 -3.0010023e-17 -9.4494635)
(307.32149 -6.0328821e-21 -9.9866843)
(301.52204 1.4629729e-18 -10.307651)
(316.54911 1.874654e-18 -10.414687)
(315.53614 -4.3078849e-17 -11.28349)
(317.46931 2.2482737e-18 -10.509081)
(318.22794 6.6052165e-17 -10.882956)
(317.24776 0 -10.572939)
(316.78762 -2.852388e-17 -11.658992)
(317.51002 -1.7522892e-17 -10.670745)
(318.02304 5.9627661e-18 -10.863362)
(317.41846 -6.4602894e-18 -10.773426)
(317.1297 -1.4073139e-17 -11.954172)
(317.68092 3.58426e-17 -10.910168)
(317.99134 1.5854984e-17 -11.060069)
(317.739 1.6478698e-18 -11.068772)
(317.55252 1.3035756e-17 -12.204737)
(318.03054 -1.5992621e-17 -11.264966)
(318.19557 -2.2192374e-17 -11.480997)
(318.23172 2.4524536e-17 -11.502695)
(318.08587 1.8977617e-17 -12.504615)
(318.59496 5.2165036e-18 -11.788627)
(318.64894 1.5664102e-17 -12.112765)
(318.93422 -1.4551177e-17 -12.137715)
(318.7918 -1.306972e-17 -12.978554)
(319.3975 -8.5010591e-18 -12.552336)
(319.35654 -1.0888947e-19 -12.967813)
(319.87531 -1.0120371e-17 -13.052404)
(319.7114 4.642364e-19 -13.74883)
(320.44834 -2.357917e-17 -13.635718)
(320.32527 -7.9729364e-18 -14.100108)
(321.04366 2.1457542e-17 -14.315815)
(320.85006 -2.5778458e-17 -14.907672)
(321.68486 1.8881918e-17 -15.075292)
(321.50915 -2.0860647e-18 -15.564688)
(322.3003 -4.3384205e-17 -15.896371)
(322.10661 -3.6165931e-17 -16.454929)
(322.85268 5.0154649e-17 -16.71409)
(322.69809 1.6004894e-17 -17.277599)
(323.24639 5.0509111e-17 -17.434281)
(323.14218 3.8865081e-17 -18.106863)
(323.39522 5.8918276e-17 -17.904746)
(323.38746 0 -18.711219)
(323.2049 1.9160589e-16 -17.951542)
(323.3141 -1.1704261e-17 -18.962694)
(322.62349 1.4660015e-16 -17.4187)
(322.8665 3.9376424e-18 -18.648245)
(321.64533 0 -16.245214)
(322.01738 0 -17.674439)
(320.32164 -7.8655597e-18 -14.503654)
(320.80575 1.1077488e-17 -16.052277)
(318.74498 -3.5188052e-18 -12.386416)
(319.31116 -1.7513159e-17 -13.950376)
(317.0362 7.6550855e-18 -10.129932)
(317.64292 6.8775317e-18 -11.603246)
(315.32184 1.569769e-17 -7.9451265)
(315.92625 -3.5193515e-16 -9.2541473)
(313.70652 1.9623705e-17 -5.9669961)
(314.27227 8.7384844e-18 -7.089857)
(312.27178 2.9671711e-16 -4.2538478)
(312.76504 1.6866293e-19 -5.1809833)
(311.03119 3.6384289e-16 -2.8341221)
(311.47507 3.4319208e-16 -3.5770329)
(309.96144 -3.5786103e-16 -1.6903852)
(310.34375 -1.5812255e-17 -2.2770742)
(309.05731 -9.1935134e-16 -0.78963455)
(309.38844 -3.6881152e-16 -1.2444884)
(308.29935 1.3210031e-16 -0.093257929)
(308.57741 5.6707822e-16 -0.44147633)
(307.66491 9.2695318e-16 0.43137208)
(307.90664 4.0706325e-16 0.1700719)
(307.1299 1.2688093e-17 0.81492159)
(307.33346 3.22061e-16 0.62492606)
(306.67938 3.0376267e-16 1.0716396)
(306.85678 4.5796948e-16 0.94636993)
(306.29609 8.1131136e-16 1.2125205)
(306.44699 9.2599437e-19 1.1440398)
(305.96895 2.3652693e-16 1.2465857)
(306.09946 1.8203586e-17 1.2223502)
(305.69396 -4.1379279e-16 1.1960822)
(305.80136 -1.451472e-17 1.2139594)
(305.47794 -3.4508151e-16 1.0637003)
(305.56115 0 1.1299264)
(305.32131 -4.2543556e-16 0.80794511)
(305.37404 -6.9263375e-18 0.9358923)
(305.19139 7.2672758e-18 0.42775093)
(305.25666 9.0901402e-18 0.61628576)
(305.15848 -1.4187797e-18 0.48324669)
(305.08924 4.1974058e-16 0.12786972)
(305.01724 -2.5995285e-18 -0.60681578)
(205.41814 -2.6690532e-17 -7.1115953)
(190.79945 -6.374592e-17 -7.3496017)
(232.53157 4.9556467e-17 -8.0924989)
(223.16621 4.2748429e-17 -8.1794991)
(252.52416 5.6081836e-17 -8.8597192)
(244.32462 0 -9.0775056)
(271.29881 1.7027398e-17 -9.6300789)
(263.19517 6.0934505e-17 -9.8743039)
(290.99925 -5.8856593e-17 -10.497265)
(282.15033 -5.2815382e-17 -10.736642)
(308.46166 -3.7147173e-17 -11.387818)
(303.14897 1.4346545e-18 -11.708967)
(316.964 1.1110841e-17 -11.82216)
(316.07642 1.9488272e-18 -12.720689)
(317.6742 4.3381524e-17 -11.917632)
(318.44873 3.2061496e-17 -12.274048)
(317.44751 -2.5399189e-17 -11.987599)
(316.97197 -2.7874733e-17 -13.112606)
(317.71741 1.0908507e-17 -12.094637)
(318.24087 2.4097008e-17 -12.262049)
(317.62424 5.373988e-18 -12.207272)
(317.32438 -1.3284964e-19 -13.426611)
(317.8933 -6.2180416e-18 -12.356832)
(318.20868 -3.3899725e-17 -12.484695)
(317.95239 -7.468831e-18 -12.530674)
(317.75888 1.4471151e-17 -13.695102)
(318.24932 8.7328092e-18 -12.74505)
(318.41516 -1.181337e-17 -12.94756)
(318.45313 1.0575089e-17 -13.004622)
(318.30303 -3.7435837e-19 -14.021468)
(318.82021 8.967139e-20 -13.315734)
(318.87209 -1.6469228e-17 -13.633432)
(319.16166 0 -13.69451)
(319.01678 1.3936477e-17 -14.538524)
(319.62544 8.6317138e-18 -14.142921)
(319.58162 0 -14.554798)
(320.10111 3.2716725e-18 -14.681312)
(319.93693 9.421757e-18 -15.373148)
(320.66643 -8.6383357e-18 -15.306591)
(320.54285 -1.6089861e-17 -15.766489)
(321.24763 -5.088161e-17 -16.031126)
(321.05808 1.3820962e-17 -16.615265)
(321.86341 -5.316513e-17 -16.834849)
(321.6941 -6.1461717e-17 -17.319861)
(322.43974 1.7603346e-17 -17.69441)
(322.25916 -6.9514623e-17 -18.249236)
(322.93381 2.902541e-18 -18.536776)
(322.79787 7.4520935e-17 -19.104227)
(323.24873 -7.3091917e-18 -19.255849)
(323.17023 4.779992e-19 -19.940544)
(323.29959 -6.8478757e-17 -19.687668)
(323.32091 -5.7822794e-18 -20.517743)
(323.0028 -1.9813724e-16 -19.650882)
(323.13919 -7.5529462e-17 -20.693902)
(322.32349 -1.4027054e-16 -18.993024)
(322.58368 -1.263302e-16 -20.258535)
(321.27543 9.866647e-18 -17.665053)
(321.64838 0 -19.129444)
(319.92242 4.331808e-18 -15.753416)
(320.38882 1.0945415e-17 -17.335609)
(318.35746 -9.654653e-18 -13.460548)
(318.89077 -8.6789226e-18 -15.058791)
(316.69081 -3.1263054e-16 -11.030457)
(317.25616 -2.3262364e-16 -12.540133)