/*--------------------------------*- C++ -*----------------------------------*\
  =========                 |
  \\      /  F ield         | OpenFOAM: The Open Source CFD Toolbox
   \\    /   O peration     | Website:  https://openfoam.org
    \\  /    A nd           | Version:  8
     \\/     M anipulation  |
\*---------------------------------------------------------------------------*/
FoamFile
{
    version     2.0;
    format      ascii;
    class       volScalarField;
    location    "0.149996";
    object      T;
}
// * * * * * * * * * * * * * * * * * * * * * * * * * * * * * * * * * * * * * //

dimensions      [0 0 0 1 0 0 0];

internalField   nonuniform List<scalar> 
20000
(
273.56693
273.23481
272.80347
271.89169
269.95016
266.00344
258.68774
255.91478
256.56466
256.52561
257.06282
257.17314
257.66707
257.93024
258.45286
258.88182
259.50733
260.13886
260.94267
261.83258
262.90097
264.12711
265.56446
267.2268
269.14641
271.34347
273.82826
276.58468
279.55047
282.57292
285.4457
287.95903
290.04121
291.72215
293.04176
294.05973
294.85831
295.46888
295.93441
296.28586
296.55787
296.77327
296.94984
297.1089
297.26405
297.40386
297.48568
297.65359
297.58808
297.97599
273.64068
273.36987
272.96478
272.04052
270.02952
265.94277
258.61269
256.12917
256.79639
256.75036
257.2974
257.40865
257.91294
258.18416
258.71837
259.1612
259.80106
260.45209
261.27544
262.19109
263.28638
264.5443
266.01402
267.70793
269.65211
271.85701
274.31962
277.01173
279.86333
282.75507
285.50827
287.96815
290.03682
291.71294
293.03136
294.04854
294.84677
295.45718
295.92306
296.27531
296.54861
296.76559
296.94411
297.10561
297.26273
297.40372
297.52902
297.65057
297.71333
297.94772
273.69005
273.48047
273.09432
272.1487
270.04779
265.76483
258.4804
256.33877
257.03124
256.98538
257.54507
257.66058
258.17482
258.45483
258.99903
259.45547
260.10796
260.77767
261.61873
262.55877
263.67871
264.96643
266.46582
268.18963
270.15813
272.37621
274.83068
277.4814
280.25643
283.04419
285.70119
288.08217
290.09972
291.74645
293.04865
294.05801
294.85242
295.45924
295.92361
296.27388
296.54716
296.76472
296.94479
297.10761
297.26746
297.40764
297.52806
297.65843
297.71474
297.95429
273.77936
273.63278
273.26691
272.30122
270.10722
265.60374
258.41959
256.60096
257.28578
257.23597
257.8051
257.9231
258.4464
258.73505
259.28932
259.75963
260.42519
261.1143
261.97427
262.94032
264.08697
265.40705
266.93927
268.69711
270.69499
272.93203
275.38433
278.00128
280.70421
283.39169
285.94139
288.23696
290.19688
291.80589
293.08428
294.07645
294.85941
295.46159
295.92435
296.27356
296.54649
296.76398
296.94436
297.10916
297.27079
297.41138
297.54013
297.66576
297.77449
297.95182
273.86398
273.77804
273.43223
272.44509
270.15335
265.39425
258.37711
256.85861
257.54797
257.49723
258.07732
258.19967
258.73214
259.03016
259.59413
260.07889
260.75761
261.46696
262.34643
263.3393
264.51338
265.8665
267.4324
269.22538
271.2544
273.5134
275.96873
278.55981
281.20263
283.80028
286.24936
288.45221
290.34048
291.89946
293.1445
294.11365
294.8812
295.47232
295.92862
296.27547
296.54756
296.76463
296.94518
297.11321
297.27619
297.41636
297.5463
297.67523
297.80302
297.95229
273.97157
273.94335
273.61693
272.60639
270.21363
265.16516
258.38199
257.11802
257.82664
257.77398
258.3634
258.48969
259.03059
259.33836
259.91216
260.41231
261.10502
261.83586
262.73616
263.75731
264.96045
266.34834
267.95004
269.78042
271.84304
274.12624
276.5866
279.15434
281.74007
284.25147
286.59983
288.70761
290.51858
292.02017
293.22496
294.16502
294.91251
295.49055
295.93899
296.28069
296.55029
296.76627
296.948
297.11838
297.28203
297.42199
297.55558
297.68586
297.84059
297.95229
274.089
274.11623
273.80604
272.77114
270.27528
264.90488
258.42629
257.39464
258.11511
258.06175
258.66067
258.79202
259.34156
259.66017
260.24426
260.76098
261.46849
262.22205
263.14425
264.19484
265.42833
266.85233
268.49145
270.36084
272.45864
274.76728
277.23379
279.77976
282.31147
284.74033
286.99061
289.00135
290.72929
292.16687
293.3253
294.23149
294.9552
295.51687
295.95498
296.29042
296.55663
296.77078
296.95294
297.12532
297.28902
297.4284
297.5646
297.69945
297.86892
297.95297
274.22089
274.30161
274.00405
272.94203
270.34078
264.62082
258.51333
257.68179
258.41489
258.3614
258.96947
259.10666
259.6649
259.9954
260.59031
261.12479
261.84796
262.6254
263.57069
264.65198
265.91738
267.37919
269.05777
270.96803
273.10256
275.43728
277.90963
280.43319
282.91097
285.25849
287.41158
289.32468
290.96656
292.33562
293.44302
294.31115
295.00767
295.55067
295.9767
296.30436
296.56605
296.77772
296.96003
297.1337
297.29682
297.43548
297.57497
297.71776
297.89448
297.95517
274.36083
274.49532
274.20774
273.11371
270.40396
264.31578
258.64142
257.98043
258.72469
258.67215
259.28944
259.43366
260.00089
260.34447
260.95069
261.50396
262.24353
263.04591
264.01536
265.12854
266.42741
267.9287
269.64859
271.60131
273.77353
276.1342
278.61109
281.11061
283.5336
285.80024
287.85715
289.67241
291.22613
292.5234
293.5762
294.40299
295.06953
295.59159
296.00379
296.32248
296.57873
296.78729
296.96925
297.14362
297.30552
297.44314
297.58609
297.74158
297.91299
297.95889
274.51028
274.69843
274.41851
273.2865
270.46181
263.99742
258.811
258.29056
259.0456
258.99488
259.62123
259.77352
260.34986
260.70747
261.32531
261.89825
262.65495
263.48327
264.47805
265.62444
266.95856
268.50121
270.26443
272.26113
274.4718
276.85763
279.33684
281.80944
284.17549
286.36052
288.32155
290.03912
291.50365
292.72704
293.72269
294.50553
295.13977
295.63906
296.03596
296.34453
296.59447
296.79934
296.98053
297.15495
297.315
297.45132
297.59814
297.76839
297.92977
297.96379
274.67034
274.91364
274.63849
273.46118
270.5106
263.67623
259.0218
258.61232
259.37754
259.3297
259.96499
260.12634
260.71179
261.08419
261.71387
262.30738
263.08199
263.93726
264.9586
266.13959
267.51088
269.09675
270.90514
272.94702
275.19629
277.6057
280.08409
282.52604
284.83224
286.93439
288.79967
290.41997
291.79502
292.94342
293.88028
294.61733
295.21747
295.69246
296.0728
296.37029
296.61314
296.81381
296.99379
297.16765
297.32521
297.46
297.61111
297.7962
297.94514
297.96991
274.84066
275.14067
274.86791
273.63749
270.54483
263.36317
259.27279
258.94553
259.72077
259.67693
260.32083
260.49189
261.08618
261.47408
262.11597
262.73104
263.52441
264.40767
265.45694
266.67418
268.08475
269.71579
271.57119
273.65932
275.94693
278.37766
280.85125
283.25805
285.50077
287.51817
289.28749
290.81102
292.0968
293.16982
294.047
294.73698
295.30166
295.75115
296.11391
296.39949
296.63458
296.83059
297.00895
297.1816
297.33607
297.46925
297.62553
297.82389
297.95995
297.97674
275.02119
275.37707
275.10538
273.8147
270.55715
263.0694
259.54623
259.29138
260.07552
260.03617
260.6879
260.86925
261.4723
261.87674
262.53141
263.16907
263.98205
264.89438
265.97322
267.2285
268.6805
270.35856
272.26257
274.39757
276.72259
279.17151
281.63551
284.002
286.1772
288.10774
289.78084
291.20831
292.40554
293.40346
294.22076
294.86301
295.39133
295.81443
296.15882
296.43182
296.6586
296.84956
297.02589
297.19669
297.34743
297.47928
297.64237
297.85052
297.97491
297.98309
275.21548
275.62512
275.35389
273.99556
270.5423
262.80903
259.87423
259.64778
260.43976
260.40547
261.06495
261.25769
261.86998
262.29213
262.96017
263.62127
264.45475
265.39748
266.50777
267.80308
269.2987
271.02563
272.97977
275.16208
277.523
279.98623
282.4351
284.75557
286.85882
288.70015
290.27665
291.60882
292.7185
293.64208
294.3998
294.99409
295.48553
295.88165
296.20709
296.46698
296.68502
296.87057
297.04451
297.21277
297.35916
297.49031
297.66289
297.87524
297.98906
297.99048
275.41411
275.87623
275.60564
274.1738
270.48506
262.59108
260.21974
260.01257
260.81228
260.78471
261.45215
261.65772
262.27952
262.72031
263.40206
264.08739
264.94261
265.91729
267.06119
268.39846
269.93984
271.71727
273.72283
275.95225
278.3468
280.81952
283.24699
285.51536
287.54215
289.29193
290.77154
292.0094
293.0329
293.88337
294.58233
295.12889
295.58326
295.95209
296.25821
296.50462
296.7136
296.89349
297.06467
297.22971
297.37114
297.5025
297.68781
297.89751
298.00239
297.99728
275.62278
276.13562
275.8646
274.35574
270.38855
262.41551
260.60344
260.38755
261.19477
261.17512
261.85038
262.06969
262.70086
263.1609
263.85673
264.56744
265.44595
266.45443
267.63413
269.0153
270.60451
272.43413
274.49225
276.76828
279.19343
281.67005
284.06924
286.27905
288.22473
289.88063
291.26311
292.40774
293.3466
294.1255
294.76687
295.26624
295.68366
296.02512
296.31174
296.54442
296.74413
296.91815
297.08622
297.24734
297.38337
297.51601
297.71624
297.9178
298.01484
298.00382
275.84346
276.40477
276.13176
274.54266
270.24966
262.29672
261.00762
260.77325
261.5876
261.57675
262.25939
262.49298
263.13332
263.61336
264.32412
265.06176
265.96552
267.0097
268.22729
269.65417
271.29318
273.17654
275.28799
277.60938
280.06112
282.53516
284.89867
287.04336
288.90339
290.4633
291.74866
292.80136
293.65742
294.36663
294.95194
295.40499
295.78582
296.10006
296.3672
296.58605
296.77635
296.9444
297.109
297.26551
297.39593
297.53111
297.74619
297.93718
298.02657
298.01013
276.07211
276.67865
276.40147
274.73193
270.06474
262.22479
261.38169
261.17011
261.99045
261.98876
262.67807
262.92662
263.57629
264.0777
264.80481
265.57126
266.50223
267.58377
268.84125
270.31566
272.00655
273.94524
276.11053
278.47548
280.94895
283.41316
285.73308
287.80597
289.57592
291.03791
292.22629
293.1885
293.96374
294.60536
295.13637
295.54417
295.889
296.17634
296.42415
296.62919
296.81005
296.97204
297.1328
297.28406
297.40908
297.5484
297.77662
297.9557
298.03763
298.01611
276.31481
276.96148
276.67583
274.92474
269.83881
262.21269
261.78231
261.57523
262.40117
262.40949
263.10543
263.37028
264.03021
264.55482
265.29994
266.0969
267.05685
268.17723
269.47658
271.00036
272.74522
274.74054
276.9597
279.36534
281.85469
284.30096
286.56915
288.56367
290.23944
291.60193
292.69382
293.56726
294.26391
294.84029
295.31901
295.68283
295.9924
296.25336
296.48217
296.67353
296.84498
297.00088
297.15742
297.30283
297.42313
297.56873
297.80647
297.9732
298.04794
298.02174
276.56485
277.2455
276.94616
275.1113
269.57149
262.25565
262.18611
261.98727
262.81914
262.83912
263.54218
263.8251
264.49641
265.04609
265.81061
266.63946
267.62984
268.79048
270.13383
271.70904
273.51002
275.56327
277.83579
280.27854
282.7769
285.19654
287.40457
289.31424
290.89198
292.15368
293.14979
293.93635
294.55677
295.07041
295.49897
295.8202
296.09541
296.33063
296.54086
296.71878
296.88095
297.03074
297.1826
297.32162
297.43842
297.59305
297.83485
297.98949
298.05746
298.02694
276.82586
277.53376
277.21192
275.28932
269.27602
262.369
262.60176
262.40845
263.24598
263.2791
263.98989
264.29277
264.97644
265.55256
266.33749
267.19916
268.22149
269.42403
270.81371
272.44253
274.30164
276.41369
278.7382
281.2133
283.71275
286.0965
288.23591
290.05461
291.53096
292.69108
293.59252
294.29435
294.84111
295.2947
295.67537
295.95555
296.19737
296.40764
296.59984
296.76468
296.91775
297.06142
297.2081
297.34028
297.45518
297.62195
297.8611
298.00449
298.0661
298.03173
277.09913
277.82825
277.47264
275.45171
268.96244
262.54895
263.02688
262.83939
263.68307
263.73115
264.45034
264.7747
265.47111
266.0745
266.88054
267.77608
268.83214
270.07848
271.51713
273.20181
275.12111
277.29249
279.66697
282.1686
284.66035
286.99845
289.06078
290.78263
292.15462
293.21277
294.02096
294.64039
295.11618
295.51247
295.84761
296.08831
296.29781
296.484
296.6588
296.81096
296.9552
297.0927
297.23368
297.35868
297.47343
297.65503
297.88502
298.01828
298.07365
298.03614
277.38451
278.13007
277.72825
275.59034
268.64487
262.79521
263.46344
263.28257
264.13306
264.19726
264.92456
265.27105
265.98017
266.61146
267.43967
268.37039
269.46242
270.75482
272.24514
273.98793
275.96904
278.19971
280.62084
283.14202
285.61626
287.89866
289.87564
291.49531
292.76069
293.71713
294.43393
294.97346
295.38116
295.723
296.01505
296.21794
296.39625
296.55929
296.71741
296.85741
296.99314
297.12442
297.25915
297.3768
297.49309
297.68977
297.9079
298.03101
298.08056
298.0402
277.68927
278.44704
277.98403
275.70005
268.3437
263.10225
263.91372
263.73926
264.59635
264.67717
265.41156
265.78081
266.50277
267.16318
268.01502
268.98273
270.11329
271.45415
272.9989
274.802
276.84646
279.13576
281.59936
284.13188
286.57808
288.79442
290.67798
292.19063
293.34777
294.2033
294.8309
295.29305
295.63559
295.92586
296.17734
296.34403
296.49235
296.63319
296.77543
296.9038
297.0314
297.15638
297.28435
297.39477
297.51416
297.72513
297.92973
298.0427
298.08675
298.04395
278.00704
278.77474
278.23641
275.76223
268.07232
263.40717
264.37849
264.20832
265.07062
265.16852
265.90983
266.30309
267.03881
267.72994
268.60737
269.61408
270.78597
272.17772
273.77961
275.64501
277.75383
280.10011
282.60055
285.13494
287.54182
289.6817
291.46424
292.86595
293.91415
294.6702
295.21113
295.59856
295.87887
296.12056
296.33415
296.4662
296.58578
296.7054
296.83261
296.94996
297.06982
297.18841
297.30919
297.41289
297.53692
297.76013
297.95036
298.05335
298.09231
298.04738
278.34031
279.11831
278.49103
275.76922
267.85164
263.81723
264.8522
264.68608
265.5537
265.67002
266.41923
266.83829
267.58904
268.31264
269.21783
270.26573
271.48176
272.92681
274.5885
276.51813
278.69201
281.09279
283.62322
286.14886
288.50455
290.55755
292.23203
293.51985
294.45919
295.11749
295.57427
295.8898
296.1107
296.30696
296.48537
296.58417
296.67622
296.77571
296.88877
296.99571
297.10824
297.22033
297.33362
297.43164
297.56195
297.79398
297.96954
298.06298
298.09723
298.0505
278.68431
279.47223
278.74463
275.70515
267.68477
264.24861
265.33374
265.17268
266.04723
266.18355
266.94088
267.38748
268.15448
268.91244
269.8477
270.93896
272.20196
273.70274
275.42672
277.42232
279.66106
282.11256
284.66443
287.1696
289.46172
291.41788
292.97846
294.15083
294.9821
295.5445
295.91941
296.16645
296.33072
296.48504
296.63082
296.69773
296.76328
296.84393
296.94374
297.04093
297.14649
297.25194
297.35762
297.45151
297.59012
297.82596
297.98713
298.07155
298.10133
298.05332
279.03513
279.83727
279.00416
275.56856
267.58778
264.7368
265.82688
265.67103
266.55236
266.71
267.47565
267.95155
268.73631
269.53059
270.49833
271.63507
272.94784
274.50676
276.2956
278.35869
280.66156
283.15869
285.72214
288.19404
290.41001
292.25996
293.70235
294.75888
295.48282
295.95086
296.24579
296.42841
296.53904
296.65516
296.77029
296.80681
296.84653
296.90997
296.99741
297.08548
297.1844
297.28303
297.38116
297.47291
297.62239
297.85522
298.00306
298.079
298.10476
298.05577
279.40074
280.21826
279.27609
275.36048
267.56941
265.19819
266.33055
266.18038
267.06863
267.24984
268.02459
268.53167
269.33587
270.16837
271.17099
272.35525
273.72075
275.34024
277.19637
279.32797
281.69298
284.2289
286.79241
289.21733
291.3448
293.08061
294.40266
295.34349
295.96024
296.33536
296.55269
296.6752
296.73612
296.81768
296.90331
296.91135
296.9258
296.97369
297.04967
297.12928
297.22181
297.3134
297.4042
297.49592
297.65876
297.8814
298.0175
298.08556
298.10752
298.05724
279.77048
280.60823
279.55481
275.07697
267.62935
265.6805
266.84388
266.70112
267.59742
267.80409
268.58908
269.12932
269.95439
270.82689
271.86678
273.10081
274.52196
276.20466
278.13041
280.33123
282.75521
285.32158
287.87214
290.23579
292.26294
293.87861
295.07981
295.90377
296.4126
296.69673
296.84088
296.90653
296.92305
296.97256
297.02958
297.01121
297.00155
297.03487
297.10047
297.17224
297.25855
297.34283
297.42673
297.5203
297.69674
297.90607
298.03078
298.09134
298.10972
298.05825
280.15349
281.00992
279.84288
274.73147
267.77564
266.17956
267.36858
267.23576
268.14113
268.37417
269.17024
269.7455
270.59286
271.50704
272.58699
273.873
275.35303
277.10153
279.09903
281.36863
283.8468
286.43307
288.95638
291.24417
293.16066
294.65284
295.73253
296.43591
296.83739
297.03445
297.11147
297.12249
297.10082
297.11864
297.1494
297.10582
297.07499
297.09318
297.14979
297.2143
297.2945
297.37117
297.44876
297.54577
297.73506
297.92945
298.04302
298.09649
298.11145
298.059
280.54564
281.42131
280.13437
274.33462
268.00875
266.69712
267.90704
267.78607
268.70077
268.96151
269.76904
270.38075
271.25213
272.20998
273.33282
274.67336
276.21556
278.03261
280.10362
282.44083
284.96663
287.56064
290.04114
292.23887
294.03635
295.40363
296.35751
296.93725
297.23348
297.34981
297.36606
297.32418
297.26943
297.25518
297.26321
297.19451
297.14717
297.14846
297.1976
297.25541
297.32953
297.39833
297.47048
297.5723
297.77266
297.95142
298.05419
298.1011
298.11289
298.05965
280.95281
281.8464
280.42484
273.90903
268.30145
267.23404
268.46048
268.35295
269.27624
269.56607
270.38561
271.03571
271.93334
272.93684
274.10584
275.50366
277.11142
278.9996
281.14518
283.54706
286.11182
288.69924
291.12077
293.21534
294.88829
296.12902
296.94945
297.405
297.60174
297.64683
297.60461
297.5138
297.42665
297.3842
297.37021
297.27748
297.21708
297.20111
297.24387
297.29551
297.36356
297.42433
297.49225
297.60029
297.80864
297.97158
298.06417
298.1052
298.11412
298.06029
281.3744
282.28347
280.70322
273.4775
268.64649
267.78714
269.0274
268.93501
269.86693
270.18811
271.02058
271.71155
272.63786
273.6892
274.90779
276.36582
278.04258
280.00437
282.2248
284.68701
287.27989
289.84492
292.19104
294.17125
295.71644
296.82409
297.50532
297.83895
297.94732
297.92569
297.82665
297.6916
297.57321
297.50551
297.47117
297.35562
297.28305
297.25213
297.28853
297.33452
297.3965
297.44931
297.51458
297.63055
297.84207
297.9896
298.07281
298.10872
298.11516
298.06097
281.80434
282.72992
280.95479
273.06031
269.09394
268.35373
269.60724
269.53268
270.47391
270.82896
271.67548
272.40971
273.36738
274.46867
275.74059
277.26206
279.01113
281.04849
283.34263
285.85849
288.46619
290.99155
293.24657
295.10384
296.51849
297.48237
298.02182
298.24255
298.27318
298.18463
298.03303
297.85757
297.70959
297.61968
297.56651
297.42938
297.34389
297.30223
297.33142
297.37238
297.42831
297.47344
297.53792
297.66412
297.87204
298.00547
298.08005
298.11139
298.11577
298.06172
282.24182
283.19026
281.16739
272.68714
269.59678
268.93657
270.20221
270.1481
271.09878
271.49024
272.35222
273.13154
274.12348
275.27721
276.60652
278.19472
280.01928
282.13359
284.49895
287.05967
289.66679
292.13443
294.28406
296.01248
297.28932
298.09998
298.49938
298.62287
298.57642
298.42495
298.22436
298.01204
297.8365
297.72698
297.6564
297.49844
297.40099
297.35102
297.37237
297.40901
297.45888
297.49692
297.56248
297.70115
297.898
298.01942
298.08615
298.11336
298.1158
298.06247
282.684
283.66687
281.32804
272.41377
270.17099
269.53611
270.81309
270.78285
271.74304
272.17318
273.05241
273.87827
274.90815
276.11712
277.50812
279.16638
281.06907
283.2606
285.69252
288.28648
290.87546
293.26729
295.29952
296.89488
298.02122
298.67336
298.94366
298.97946
298.85729
298.64696
298.40131
298.15534
297.95446
297.82771
297.74074
297.56277
297.45489
297.39859
297.41125
297.44437
297.48814
297.51981
297.58804
297.73867
297.92192
298.0319
298.09146
298.11514
298.11548
298.06321
283.12381
284.15616
281.41899
272.21987
270.76484
270.1538
271.44173
271.43871
272.40779
272.87918
273.77687
274.65191
275.72371
276.99124
278.44817
280.17953
282.16254
284.43039
286.92224
289.5353
292.08725
294.38596
296.29131
297.74689
298.70875
299.20245
299.36186
299.31034
299.11655
298.85169
298.56463
298.28797
298.06409
297.92218
297.81959
297.62273
297.50597
297.44467
297.44824
297.4784
297.51605
297.5419
297.61434
297.77587
297.94403
298.04302
298.09599
298.11666
298.11499
298.06346
283.56039
284.65906
281.43932
272.11155
271.36001
270.79211
272.09014
272.11631
273.09374
273.60886
274.52776
275.45498
276.57323
277.90265
279.42942
281.23669
283.30112
285.64272
288.18474
290.80017
293.29507
295.4854
297.25679
298.55935
299.34778
299.69321
299.75322
299.61553
299.35496
299.03984
298.71496
298.41036
298.16597
298.01064
297.89316
297.67878
297.55424
297.48858
297.48391
297.51105
297.54263
297.56234
297.64128
297.81205
297.96453
298.05286
298.09938
298.11729
298.11396
298.06342
283.98986
285.16207
281.40785
272.10333
271.99103
271.44882
272.75618
272.8157
273.80193
274.36441
275.30844
276.29083
277.46004
278.85429
280.45448
282.34004
284.48628
286.89709
289.47703
292.07582
294.49402
296.56276
298.19342
299.3248
299.93703
300.15353
300.11583
299.8961
299.57364
299.21243
298.85308
298.52311
298.26065
298.09342
297.96186
297.73148
297.59985
297.5294
297.51892
297.54224
297.56795
297.58481
297.66934
297.8463
297.98318
298.06152
298.10204
298.11734
298.11248
298.06323
284.42223
285.66764
281.31502
272.20726
272.63861
272.12302
273.44128
273.53902
274.53587
275.14999
276.1227
277.16283
278.3871
279.84899
281.52598
283.49169
285.71853
288.19125
290.7934
293.35489
295.67764
297.61431
299.09137
300.03834
300.48106
300.58442
300.44911
300.15292
299.77348
299.37025
298.97966
298.62682
298.34857
298.17081
298.02608
297.78107
297.64307
297.56761
297.55287
297.57192
297.59238
297.60599
297.69971
297.87733
297.99962
298.06911
298.10438
298.11695
298.11068
298.0629
284.83809
286.17451
281.17852
272.43555
273.31716
272.82095
274.15005
274.29152
275.30024
275.96952
276.97356
278.07365
279.35716
280.88956
282.64638
284.69356
286.99818
289.52276
292.12886
294.63149
296.84199
298.63776
299.94241
300.69697
300.98872
300.9836
300.75445
300.38732
299.95571
299.51431
299.09549
298.72216
298.43021
298.24315
298.08613
297.8275
297.68362
297.60391
297.58586
297.59984
297.61602
297.63049
297.73321
297.90431
298.01371
298.07529
298.10591
298.11609
298.10857
298.0624
285.25526
286.67603
281.01739
272.78775
274.023
273.54714
274.8871
275.07772
276.09854
276.82546
277.8635
279.02574
280.37306
281.97894
283.81824
285.94697
288.32399
290.88672
293.47574
295.89814
297.98173
299.62543
300.73839
301.3021
301.46443
301.34942
301.03278
300.60037
300.1213
299.64544
299.20125
298.80971
298.50597
298.31072
298.14222
297.87082
297.72177
297.63852
297.61789
297.62591
297.63893
297.65291
297.76872
297.92805
298.0259
298.08007
298.10637
298.11461
298.10618
298.06181
285.67531
287.15911
280.86077
273.25711
274.76426
274.30812
275.6579
275.89982
276.93219
277.71926
278.79493
280.02204
281.43776
283.12017
285.04389
287.25298
289.69429
292.27834
294.82765
297.14974
299.09404
300.56731
301.47561
301.86328
301.9054
301.68364
301.2857
300.79353
300.27147
299.76461
299.29771
298.89009
298.57629
298.37383
298.19453
297.91123
297.75773
297.67145
297.64881
297.65021
297.66094
297.67775
297.80397
297.9497
298.0366
298.08391
298.10621
298.11278
298.10363
298.0612
286.12554
287.61772
280.75046
273.74907
275.54216
275.1054
276.45934
276.75617
277.80124
278.6528
279.77166
281.06604
282.55492
284.31629
286.32539
288.61136
291.10509
293.69007
296.17605
298.37954
300.17292
301.4521
302.1515
302.38884
302.30894
301.98719
301.51442
300.96794
300.40719
299.87262
299.38553
298.96383
298.64155
298.43274
298.24331
297.94912
297.7918
297.70243
297.67797
297.67351
297.68216
297.70224
297.83819
297.96932
298.04595
298.08697
298.10566
298.11066
298.10091
298.06052
286.59432
288.01902
280.69734
274.31387
276.34526
275.93223
277.29154
277.64873
278.71081
279.62951
280.79734
282.16205
283.72758
285.57011
287.66438
290.02128
292.55202
295.1151
297.51459
299.58321
301.20838
302.27492
302.77515
302.87628
302.67674
302.26195
301.72066
301.12507
300.52966
299.9704
299.46543
299.03153
298.70216
298.48775
298.28892
297.98486
297.82425
297.73127
297.70452
297.69669
297.70278
297.7274
297.87049
297.98654
298.05363
298.08918
298.10491
298.10825
298.098
298.05979
287.10755
288.34993
280.72375
275.0924
277.17555
276.79656
278.15921
278.58379
279.66563
280.65428
281.87624
283.31357
284.95924
286.88452
289.06181
291.47975
294.02798
296.54399
298.83524
300.75425
302.1878
303.03079
303.3551
303.3232
303.00974
302.50932
301.90578
301.26607
300.63982
300.05873
299.53804
299.09366
298.75844
298.53914
298.33174
298.01865
297.85513
297.75825
297.72901
297.7195
297.72344
297.75563
297.89973
298.00119
298.05935
298.08977
298.10345
298.10544
298.0949
298.05904
287.67058
288.59676
280.84909
275.86729
278.04134
277.70364
279.06924
279.56617
280.67024
281.73136
283.0119
284.52418
286.25321
288.26208
290.51761
292.98311
295.52579
297.96938
300.13203
301.88558
303.10217
303.72439
303.89456
303.72935
303.31013
302.73129
302.0715
301.39235
300.73879
300.13846
299.60404
299.15075
298.81078
298.58725
298.37214
298.05049
297.88421
297.78388
297.75216
297.742
297.74472
297.78695
297.92475
298.01337
298.06371
298.08955
298.10101
298.10228
298.09167
298.05822
288.30472
288.7649
281.08808
276.71614
278.94693
278.66012
280.02639
280.59906
281.72797
282.86356
284.2081
285.79814
287.61329
289.70483
292.02999
294.5245
297.03562
299.38161
301.3973
302.96213
303.9453
304.36476
304.38994
304.09624
303.57947
302.92943
302.21918
301.50505
300.82746
300.2103
299.66399
299.20323
298.85948
298.63234
298.41036
298.08031
297.91121
297.80757
297.7743
297.76413
297.76673
297.81789
297.94586
298.02365
298.06723
298.08912
298.09841
298.09882
298.08821
298.05713
289.01117
288.87138
281.43481
277.60274
279.89159
279.66674
281.03246
281.68537
282.84257
284.05462
285.46952
287.14018
289.04315
291.21363
293.59568
296.09663
298.54867
300.77336
302.62478
303.97236
304.7164
304.96119
304.83923
304.42613
303.82009
303.10577
302.3505
301.60547
300.90684
300.27506
299.71851
299.25157
298.90489
298.67471
298.44649
298.10806
297.93645
297.8301
297.79567
297.78599
297.78926
297.84844
297.96464
298.03252
298.07013
298.08856
298.09578
298.09518
298.08443
298.05562
289.78803
288.89052
281.89554
278.56725
280.87961
280.7273
282.09127
282.82778
284.02036
285.31003
286.80188
288.55592
290.54572
292.78761
295.20824
297.68904
300.05384
302.13482
303.79957
304.90723
305.42464
305.50908
305.24429
304.72084
304.03379
303.26191
302.46676
301.69467
300.97778
300.33336
299.76812
299.29616
298.94729
298.71456
298.48053
298.1338
297.96007
297.85155
297.81649
297.80772
297.81201
297.87732
297.98143
298.04023
298.07235
298.08771
298.09347
298.09247
298.08158
298.0522
290.66673
288.79113
282.47933
279.59535
281.91318
281.84712
283.20643
284.03323
285.26635
286.63782
288.21182
290.04972
292.1224
294.42345
296.86
299.29156
301.54214
303.45862
304.90804
305.76263
306.08187
306.00633
305.60742
304.98305
304.22297
303.39983
302.56954
301.77385
301.04118
300.38593
299.81337
299.33742
298.98699
298.75211
298.51247
298.15768
297.98238
297.87225
297.83682
297.82923
297.83403
297.90451
297.99619
298.04684
298.07424
298.08684
298.09134
298.0899
298.07918
298.04827
291.66894
288.63293
283.18867
280.69445
282.99842
283.02968
284.38548
285.30741
286.59018
288.04584
289.7052
291.62547
293.7725
296.11504
298.53977
300.89165
303.00175
304.73186
305.93674
306.54498
306.68598
306.45342
305.93076
305.21488
304.38952
303.52105
302.66005
301.84397
301.09779
300.43334
299.85471
299.3757
299.02424
298.7875
298.54231
298.1799
298.00363
297.89236
297.85666
297.85045
297.85525
297.92984
298.00875
298.05189
298.07504
298.0856
298.08902
298.08709
298.07675
298.04467
292.80897
288.4418
284.01355
281.86306
284.14162
284.28206
285.63876
286.66062
288.00112
289.5413
291.28675
293.28398
295.49239
297.85386
300.23622
302.47842
304.4235
305.93837
306.8803
307.26614
307.23483
306.85317
306.21732
305.41911
304.53573
303.62743
302.73973
301.90611
301.14844
300.47624
299.89265
299.41136
299.0593
298.82086
298.57007
298.20071
298.024
297.91209
297.8761
297.87158
297.87699
297.95218
298.01921
298.05574
298.07515
298.08399
298.0864
298.08408
298.07419
298.04154
294.0875
288.24754
284.96786
283.11188
285.35235
285.61527
286.97781
288.10295
289.50785
291.12971
292.9586
295.02437
297.27583
299.62812
301.93523
304.03826
305.79432
307.06122
307.73983
307.9295
307.72683
307.20789
306.46957
305.59792
304.6634
303.72038
302.80967
301.96113
301.19378
300.51513
299.92759
299.44472
299.09236
298.8523
298.59584
298.22032
298.04364
297.93161
297.89538
297.89263
297.90032
297.9706
298.02782
298.05865
298.07473
298.08192
298.08357
298.08097
298.07162
298.03866
295.45593
288.04917
286.06199
284.45401
286.64633
287.04099
288.41616
289.64036
291.11515
292.81456
294.72108
296.84237
299.11358
301.42491
303.62366
305.55925
307.09686
308.09286
308.5278
308.53191
308.16563
307.52112
306.69077
305.75404
304.77472
303.8016
302.87117
302.01
301.23454
300.5506
299.95998
299.4761
299.12361
298.88193
298.61964
298.23897
298.06275
297.95114
297.91467
297.91327
297.92342
297.98665
298.03512
298.06096
298.07411
298.07963
298.08054
298.07767
298.06903
298.03586
296.95783
287.90385
287.27895
285.90049
288.03636
288.56949
289.95945
291.27783
292.82374
294.59803
296.57259
298.73225
300.99316
303.22832
305.28543
307.02616
308.31168
309.03006
309.25192
309.07029
308.55353
307.79563
306.88348
305.88961
304.87136
303.87236
302.92521
302.05348
301.27133
300.58309
299.99017
299.50578
299.15327
298.90987
298.64145
298.25698
298.08158
297.97088
297.93405
297.93343
297.9455
298.00093
298.04156
298.06279
298.07308
298.07699
298.07712
298.07401
298.0665
298.03312
298.53904
287.85733
288.602
287.46006
289.53667
290.20069
291.61258
293.01775
294.63804
296.48085
298.50968
300.68341
302.89959
305.02217
306.90563
308.42126
309.42789
309.88522
309.90816
309.5489
308.89467
308.03528
307.05093
306.00718
304.9553
303.93419
302.97293
302.09243
301.30478
300.61312
300.01855
299.53408
299.1816
298.93633
298.66119
298.27467
298.10035
297.99094
297.95351
297.9529
297.96627
298.01362
298.04706
298.06414
298.07202
298.0747
298.07428
298.07081
298.06296
298.03048
300.12602
288.07642
290.03754
289.13497
291.14279
291.93652
293.37998
294.86727
296.56159
298.46304
300.52648
302.68163
304.81437
306.78741
308.466
309.72199
310.43974
310.66889
310.49239
309.97027
309.1923
308.24308
307.1956
306.10871
305.02802
303.98821
303.01519
302.1275
301.33543
300.64108
300.04544
299.56125
299.20874
298.96133
298.67906
298.29246
298.11925
298.01135
297.97298
297.97158
297.98561
298.02473
298.05159
298.06501
298.07092
298.07254
298.07174
298.0681
298.05903
298.02796
301.57363
288.60842
291.58119
290.91426
292.85578
293.78608
295.2701
296.83657
298.5989
300.54218
302.60955
304.70804
306.71696
308.50533