/*--------------------------------*- C++ -*----------------------------------*\
  =========                 |
  \\      /  F ield         | OpenFOAM: The Open Source CFD Toolbox
   \\    /   O peration     | Website:  https://openfoam.org
    \\  /    A nd           | Version:  8
     \\/     M anipulation  |
\*---------------------------------------------------------------------------*/
FoamFile
{
    version     2.0;
    format      ascii;
    class       volVectorField;
    location    "0.149996";
    object      U;
}
// * * * * * * * * * * * * * * * * * * * * * * * * * * * * * * * * * * * * * //

dimensions      [0 1 -1 0 0 0 0];

internalField   nonuniform List<vector> 
20000
(
(250.02395 -2.1418364e-21 -1.8721984)
(288.94883 1.8908782e-22 -1.5217329)
(313.66697 0 -1.8536052)
(334.66177 -5.2931232e-19 -2.0471801)
(353.86647 0 -2.2876957)
(371.09415 -7.8366609e-19 -2.5512943)
(382.89119 6.5866756e-19 -3.1073108)
(385.83017 0 -2.8628434)
(384.79024 0 -3.3646804)
(385.2381 6.0080655e-21 -2.7731196)
(384.32308 -1.0033161e-20 -3.5612149)
(384.3063 -2.1535632e-18 -2.8297585)
(383.44185 0 -3.7102248)
(382.99725 2.9818757e-18 -3.043231)
(382.0065 -1.9905178e-17 -3.8621708)
(381.1161 1.231189e-17 -3.4022291)
(379.81483 0 -4.0957727)
(378.37779 2.3084478e-17 -3.9059121)
(376.55005 -1.9010467e-17 -4.4961403)
(374.38654 -2.4077498e-17 -4.5790784)
(371.75831 1.312511e-17 -5.1355798)
(368.59904 -1.7112865e-19 -5.456858)
(364.82397 -2.7555802e-17 -6.0306436)
(360.3185 -2.2267776e-19 -6.4931167)
(355.01204 0 -7.0102188)
(348.80471 0 -7.3587577)
(341.66861 0 -7.5055948)
(333.61234 8.1975861e-19 -7.2878955)
(324.78755 -1.8478451e-19 -6.6880953)
(315.54767 1.7982422e-17 -5.775477)
(306.48051 -4.6980362e-19 -4.7355003)
(298.20578 -2.4292933e-17 -3.7146774)
(291.08018 1.8714249e-17 -2.7770447)
(285.13909 -2.9650291e-17 -1.9357765)
(280.32005 -3.3134943e-19 -1.1866396)
(276.48299 -8.8214923e-17 -0.54761179)
(273.44419 2.6476216e-17 -0.019314055)
(271.05241 -8.0568179e-17 0.40925808)
(269.18459 5.8912016e-20 0.7481655)
(267.71045 -8.9814249e-17 1.0095618)
(266.54566 0 1.2022617)
(265.60138 0 1.3312522)
(264.82617 -1.2702349e-16 1.3939296)
(264.14926 -1.3351586e-17 1.3866978)
(263.53802 0 1.3087115)
(263.02257 -2.8728853e-20 1.1748994)
(262.64026 8.7989128e-17 0.96017388)
(262.19254 -6.6623193e-17 0.65699362)
(262.30133 5.7674163e-17 0.26078735)
(260.96476 -5.2116205e-18 -0.49508349)
(249.06771 0 -2.8286577)
(288.31297 -7.9378012e-19 -2.6771249)
(313.29848 0 -3.0911964)
(334.51541 5.399285e-19 -3.3720611)
(353.90382 0 -3.690907)
(371.2445 2.6360003e-17 -4.0203923)
(382.58595 -6.371163e-17 -4.6318493)
(385.22247 3.6002542e-17 -4.3450314)
(384.12088 0 -4.9209281)
(384.58789 0 -4.2799503)
(383.63192 0 -5.1531115)
(383.61584 2.1799284e-18 -4.366429)
(382.71462 3.6506861e-18 -5.3247321)
(382.25247 -9.1109301e-18 -4.6165275)
(381.22375 0 -5.4977277)
(380.29859 -1.2704409e-17 -5.0202606)
(378.95174 6.9612279e-18 -5.7607036)
(377.46225 0 -5.5770099)
(375.5739 9.8186625e-18 -6.2056067)
(373.33755 -8.0234774e-18 -6.3138676)
(370.62662 -1.3576986e-17 -6.9082158)
(367.3727 3.3693061e-17 -7.2670129)
(363.49513 -9.2656652e-18 -7.8798536)
(358.88621 3.0611197e-17 -8.3814344)
(353.4871 2.5858703e-17 -8.9314828)
(347.22305 -8.4503161e-17 -9.3052085)
(340.10029 1.0449297e-16 -9.4592675)
(332.17179 4.3435546e-17 -9.2199058)
(323.61129 -9.3073008e-17 -8.5477752)
(314.72534 9.4427568e-17 -7.4893587)
(306.00043 1.2210984e-16 -6.2281551)
(297.94971 2.4591485e-17 -4.9434637)
(290.94341 -1.8934473e-17 -3.7466837)
(285.07171 1.5014837e-16 -2.683193)
(280.29134 3.3247624e-19 -1.7537824)
(276.47401 5.3343108e-17 -0.97400328)
(273.44609 0 -0.33873386)
(271.06359 2.4331031e-16 0.17059869)
(269.20035 0 0.5694657)
(267.73064 9.0221133e-17 0.87490627)
(266.56573 0 1.1001369)
(265.6205 -2.4671805e-17 1.2530208)
(264.84182 4.5399537e-16 1.3335355)
(264.16214 -2.6781888e-17 1.3379442)
(263.54671 -1.5804503e-16 1.2700835)
(263.02998 1.4622699e-17 1.1471645)
(262.59115 -9.8275361e-17 0.93921084)
(262.21092 5.7614491e-17 0.64739474)
(262.03788 -5.0449558e-17 0.23804873)
(261.02651 1.0491174e-17 -0.50793527)
(248.22513 0 -3.8026572)
(287.8231 5.2591898e-17 -3.8425794)
(313.06394 -4.1650682e-17 -4.3518643)
(334.49787 7.0715553e-17 -4.7303225)
(354.05914 -1.1977701e-16 -5.1394353)
(371.49926 -4.9562804e-20 -5.5554444)
(382.2669 4.236846e-17 -6.2314354)
(384.57898 -2.3003459e-18 -5.8995968)
(383.42297 -3.8570957e-18 -6.5320032)
(383.90405 0 -5.8309325)
(382.90826 -5.3574818e-18 -6.7753506)
(382.88971 -4.4599748e-18 -5.9334178)
(381.95332 -1.115122e-17 -6.9594732)
(381.47204 6.1759942e-18 -6.2151223)
(380.40673 1.0340216e-17 -7.1505447)
(379.44593 -8.6283205e-18 -6.6614314)
(378.05421 7.0408949e-18 -7.4423404)
(376.51101 -8.267566e-20 -7.2694472)
(374.56118 9.9075408e-18 -7.9320312)
(372.24913 1.6627911e-17 -8.0681064)
(369.45269 1.392278e-17 -8.6966368)
(366.09909 4.5822369e-17 -9.0916635)
(362.11318 -5.6953212e-17 -9.7376667)
(357.39078 0 -10.271029)
(351.88466 0 -10.841565)
(345.54009 -4.3471704e-17 -11.222768)
(338.39468 -1.4166435e-16 -11.360049)
(330.542 -1.1659659e-16 -11.073629)
(322.18019 0 -10.312041)
(313.59845 -2.3085335e-16 -9.1101918)
(305.20159 3.8086989e-19 -7.6481055)
(297.42986 0 -6.1248238)
(290.61657 0 -4.688916)
(284.87061 -1.2113865e-16 -3.4149295)
(280.1693 1.8717727e-16 -2.3121352)
(276.40148 3.592919e-17 -1.3955338)
(273.40556 -2.698167e-17 -0.65491634)
(271.04265 -1.4277571e-16 -0.065697066)
(269.18955 -1.5196773e-17 0.39252632)
(267.72937 -3.3968593e-16 0.74141176)
(266.56802 1.6818021e-17 0.99841665)
(265.62497 -4.9369518e-17 1.1745139)
(264.84551 -2.5434363e-16 1.2716536)
(264.16347 1.3400452e-17 1.2870148)
(263.54312 1.3785126e-16 1.2297476)
(263.02741 1.4568538e-17 1.1165422)
(262.57787 3.2496188e-16 0.91563066)
(262.20101 8.1308331e-18 0.6321965)
(261.93779 -1.8606493e-16 0.21284672)
(261.03942 -1.2063379e-17 -0.51745382)
(247.37334 1.4979209e-16 -4.7909064)
(287.3068 -1.0569057e-16 -5.0136663)
(312.79752 0 -5.6235728)
(334.44497 0 -6.1004108)
(354.17138 6.0209113e-17 -6.5992367)
(371.71135 -4.9811355e-17 -7.098381)
(381.86045 4.1843823e-17 -7.8269902)
(383.88756 -3.5094112e-17 -7.4500035)
(382.68089 -2.7503137e-17 -8.1495091)
(383.17779 -6.5952767e-18 -7.3896863)
(382.14269 3.2672397e-17 -8.412276)
(382.12239 4.5284223e-18 -7.5145641)
(381.15057 7.5570379e-18 -8.6119018)
(380.65006 1.2638513e-17 -7.8298945)
(379.54763 -3.1587987e-17 -8.8198596)
(378.55037 2.6280176e-17 -8.3181963)
(377.11242 -1.4657136e-17 -9.1388284)
(375.51336 4.8653286e-17 -8.9767148)
(373.49917 -2.0137736e-17 -9.6721296)
(371.10782 0 -9.8353377)
(368.22176 1.6115103e-19 -10.495446)
(364.76367 -4.6433467e-17 -10.923525)
(360.66376 5.8070156e-17 -11.597313)
(355.82057 -1.5834418e-17 -12.155094)
(350.19827 0 -12.735421)
(343.76115 8.7324375e-17 -13.109347)
(336.5773 5.3579015e-17 -13.211244)
(328.7775 1.3239724e-16 -12.858073)
(320.58606 0 -11.992941)
(312.28146 1.5577387e-16 -10.646351)
(304.20999 -1.2517887e-16 -8.9969406)
(296.73536 2.5201118e-17 -7.2565384)
(290.14892 -1.9386261e-17 -5.6005112)
(284.56374 -3.0813066e-17 -4.1289616)
(279.97123 -1.4164628e-16 -2.8606455)
(276.27948 -5.4129564e-17 -1.8117816)
(273.33577 4.6427257e-16 -0.96904294)
(271.00507 -3.2843153e-16 -0.30204002)
(269.17072 4.9021354e-16 0.21487544)
(267.72083 7.5026111e-16 0.60719659)
(266.56478 1.6862365e-17 0.89600639)
(265.62577 3.7091575e-16 1.0954369)
(264.84852 5.6316582e-16 1.2093183)
(264.16152 1.3327822e-17 1.2358368)
(263.53847 0 1.1892681)
(263.02311 -4.7778002e-16 1.0855467)
(262.56318 1.0765052e-17 0.89196669)
(262.18875 -1.6095353e-17 0.61380968)
(261.79804 2.0126034e-16 0.18881935)
(261.05586 4.7150217e-18 -0.52324338)
(246.55477 1.5288302e-16 -5.7903041)
(286.82056 -1.0617889e-16 -6.195082)
(312.5578 1.3598326e-18 -6.9113106)
(334.41248 0 -7.491395)
(354.29051 0 -8.0845926)
(371.91785 -6.7756407e-18 -8.6708882)
(381.38573 2.8369779e-18 -9.4474015)
(383.15573 3.8214207e-17 -9.0249464)
(381.89944 -3.1956542e-17 -9.7929725)
(382.41034 -2.5333359e-20 -8.9708833)
(381.33543 -5.5428293e-18 -10.070518)
(381.31223 -3.703864e-17 -9.1140257)
(380.30487 3.0801158e-17 -10.280875)
(379.78396 1.2934359e-17 -9.4608194)
(378.6438 -2.1375803e-17 -10.503462)
(377.60796 -1.7799681e-17 -9.9906969)
(376.12168 -1.4820923e-17 -10.849337)
(374.46334 0 -10.699549)
(372.38118 -4.1376814e-17 -11.425853)
(369.90622 -3.4438803e-17 -11.616146)
(366.92587 2.8819878e-17 -12.304833)
(363.35806 -2.3680261e-17 -12.763207)
(359.13796 -1.9495518e-17 -13.459546)
(354.16678 0 -14.034842)
(348.41993 -2.7398112e-17 -14.614606)
(341.88066 2.1981644e-17 -14.966923)
(334.64682 1.8642637e-17 -15.015105)
(326.88415 -1.4786761e-17 -14.575618)
(318.84122 0 -13.591636)
(310.7918 0 -12.09588)
(303.03528 0 -10.267974)
(295.87069 2.0237599e-16 -8.3280551)
(289.54077 0 -6.4706165)
(284.14816 -3.1116849e-17 -4.8161917)
(279.69233 -3.8156316e-16 -3.3923986)
(276.09785 -2.7282488e-16 -2.2176786)
(273.22224 -8.7998035e-16 -1.2768022)
(270.93893 6.6053914e-16 -0.53474144)
(269.13466 -4.9241583e-16 0.038789719)
(267.70197 -3.6499638e-16 0.47331449)
(266.55521 -5.386054e-16 0.79352118)
(265.62217 7.1338152e-21 1.0161173)
(264.84604 -5.8114453e-16 1.1464566)
(264.15336 0 1.1841282)
(263.52943 0 1.1484179)
(263.01528 4.6054482e-16 1.0538869)
(262.54962 -3.4078642e-16 0.86768272)
(262.17064 0 0.59236491)
(261.68994 0 0.16521872)
(261.07101 2.9303537e-16 -0.52600066)
(245.75186 1.5601111e-16 -6.80308)
(286.34113 -1.1179183e-16 -7.3939351)
(312.32263 -1.3831869e-18 -8.2202712)
(334.38401 0 -8.9061996)
(354.4029 0 -9.5963805)
(372.09818 -1.2969089e-20 -10.26995)
(380.83334 0 -11.085115)
(382.37948 -4.873187e-18 -10.613358)
(381.07602 0 -11.449759)
(381.60081 6.7604046e-18 -10.563872)
(380.48668 4.5320737e-17 -11.742393)
(380.46 -3.7607041e-17 -10.726588)
(379.41674 0 -11.963462)
(378.87378 2.6243751e-17 -11.10638)
(377.69426 -4.3673439e-17 -12.200969)
(376.61691 3.6272385e-17 -11.678907)
(375.07935 0 -12.574105)
(373.35783 0 -12.437928)
(371.20358 8.4097642e-17 -13.193047)
(368.6404 1.7279854e-17 -13.409939)
(365.56061 1.480123e-17 -14.124065)
(361.87732 4.8221006e-17 -14.609766)
(357.53028 8.0628634e-17 -15.323407)
(352.42383 0 -15.909189)
(346.54502 -9.6736952e-17 -16.477981)
(339.89713 -1.1196941e-17 -16.794441)
(332.60786 0 -16.771224)
(324.87598 -1.5538111e-17 -16.226921)
(316.97193 3.7515981e-17 -15.109473)
(309.16549 -1.9797854e-17 -13.459031)
(301.71761 0 -11.458865)
(294.86868 -2.042272e-16 -9.3345348)
(288.81376 0 -7.2931836)
(283.63716 0 -5.4709454)
(279.34054 4.0828549e-16 -3.902774)
(275.86226 -2.7475039e-16 -2.6097505)
(273.0695 4.1516711e-16 -1.5758692)
(270.84359 -3.3197972e-16 -0.76222049)
(269.07694 0 -0.13427789)
(267.66882 -7.3232621e-16 0.34096845)
(266.53615 1.0792978e-15 0.6916559)
(265.6116 -1.1641112e-15 0.9367762)
(264.83618 -1.8126917e-17 1.0832519)
(264.13998 2.6599063e-17 1.1322286)
(263.51719 -3.8939717e-17 1.1074045)
(263.00471 -2.32484e-20 1.0216522)
(262.53297 1.0546918e-17 0.84296206)
(262.14512 -1.5713866e-17 0.56826333)
(261.58897 5.8827772e-18 0.14228858)
(261.08591 -2.8417475e-16 -0.52584577)
(244.96867 0 -7.826504)
(285.87599 0 -8.6064359)
(312.10032 0 -9.5482344)
(334.36781 -7.6872826e-17 -10.34249)
(354.51683 6.6051429e-17 -11.133426)
(372.25067 -1.369673e-20 -11.893847)
(380.20754 0 -12.739098)
(381.5653 4.9450437e-18 -12.216229)
(380.21563 0 -13.122072)
(380.75284 0 -12.170323)
(379.59882 -4.615879e-17 -13.429225)
(379.56689 3.8299042e-17 -12.35355)
(378.48643 4.8129038e-17 -13.660493)
(377.91885 -5.3331728e-17 -12.767652)
(376.6978 2.2176188e-17 -13.913076)
(375.57559 3.7148846e-17 -13.383617)
(373.98366 -3.1011779e-17 -14.31346)
(372.19503 -2.5663838e-19 -14.192014)
(369.96462 -2.1421382e-17 -14.973456)
(367.30865 0 -15.216265)
(364.12411 -5.9120075e-17 -15.952559)
(360.31928 1.2382548e-16 -16.462546)
(355.83827 -1.0179978e-16 -17.188143)
(350.58937 1.7174127e-17 -17.777129)
(344.5721 9.8038963e-17 -18.324231)
(337.8112 0 -18.590363)
(330.4647 1.3379036e-16 -18.478279)
(322.76265 2.6578656e-16 -17.811436)
(314.99399 0 -16.546633)
(307.42389 0 -14.73569)
(300.27942 -1.651832e-17 -12.56772)
(293.74947 1.2777086e-17 -10.271862)
(287.98295 0 -8.06297)
(283.04056 3.1711561e-17 -6.0881269)
(278.92155 3.0175286e-19 -4.3874879)
(275.57532 5.9012004e-16 -2.9846662)
(272.87821 -1.3855962e-17 -1.8636942)
(270.71962 -6.8841702e-16 -0.9825712)
(268.99817 -9.4648846e-16 -0.30302801)
(267.61965 1.4457575e-15 0.21111118)
(266.505 5.625196e-20 0.59114917)
(265.59153 2.4739673e-17 0.85797338)
(264.81875 5.6210695e-16 1.0200258)
(264.12105 8.7487531e-16 1.0803939)
(263.50138 -6.39859e-16 1.0663774)
(262.99143 0 0.98895064)
(262.51372 -6.6955771e-16 0.81760978)
(262.10621 1.5521551e-17 0.54243692)
(261.50744 -5.7856643e-18 0.12005875)
(261.09778 -4.4059272e-18 -0.52248524)
(244.20699 -1.5982546e-16 -8.8599893)
(285.4272 1.1637046e-16 -9.8290697)
(311.89232 0 -10.893113)
(334.36619 1.5691593e-16 -11.797134)
(354.63659 -1.3901891e-16 -12.693216)
(372.36689 3.5755389e-18 -13.538423)
(379.50854 -1.0234369e-16 -14.40541)
(380.71347 1.5136325e-16 -13.831116)
(379.31832 -6.7509973e-17 -14.809131)
(379.86629 1.4077988e-17 -13.790119)
(378.67157 1.1758691e-17 -15.131028)
(378.63231 0 -13.995575)
(377.51311 -1.6264235e-17 -15.372683)
(376.91811 0 -14.445778)
(375.6533 2.2703132e-17 -15.640532)
(374.48297 1.928666e-19 -15.105451)
(372.8337 0 -16.067564)
(370.97416 0 -15.961781)
(368.66357 2.1948557e-17 -16.76681)
(365.9101 -1.8024681e-17 -17.034711)
(362.61514 0 -17.789885)
(358.68222 -1.2544671e-16 -18.320984)
(354.05988 2.0613344e-17 -19.052964)
(348.66143 1.7502331e-17 -19.63738)
(342.50009 -1.4097747e-17 -20.151476)
(335.62393 0 -20.352276)
(328.22207 -1.5455128e-16 -20.133868)
(320.55389 -2.5272534e-16 -19.327492)
(312.92317 0 -17.902497)
(305.58819 2.0989955e-17 -15.925662)
(298.74465 -1.6337959e-17 -13.593625)
(292.53507 0 -11.137696)
(287.06534 -6.3706624e-16 -8.7764953)
(282.37016 -1.5767245e-17 -6.6639771)
(278.443 0 -4.8431303)
(275.24194 1.8640047e-17 -3.3396359)
(272.65153 -1.3939018e-17 -2.1381611)
(270.56865 4.1682581e-17 -1.1942239)
(268.89894 1.9306894e-15 -0.46626916)
(267.55501 -7.3612961e-16 0.084618624)
(266.46218 5.5820969e-16 0.49261262)
(265.56221 7.6806876e-16 0.78012315)
(264.79373 -5.6130764e-16 0.95708562)
(264.09681 -8.4583632e-16 1.0288581)
(263.4823 6.1756525e-16 1.0255186)
(262.97573 0 0.95589822)
(262.49101 6.6326883e-16 0.79125187)
(262.04934 0 0.51579413)
(261.44315 7.3078643e-16 0.098787455)
(261.10388 0 -0.51637073)
(243.47077 -5.174213e-18 -9.9108728)
(284.99822 -5.4833951e-18 -11.061087)
(311.70008 0 -12.257198)
(334.38017 0 -13.272884)
(354.76593 4.2907216e-18 -14.280541)
(372.43725 0 -15.206199)
(378.73442 1.0425541e-16 -16.087602)
(379.82382 -7.1883031e-17 -15.460638)
(378.38349 0 -16.512851)
(378.94029 4.3001531e-17 -15.425359)
(377.70391 -1.1770635e-17 -16.849686)
(377.65494 -7.9539142e-17 -15.654665)
(376.49542 4.9750599e-17 -17.101291)
(375.8703 -2.7573642e-17 -16.141835)
(374.55981 -2.3000237e-17 -17.383643)
(373.33836 -3.8325796e-17 -16.844573)
(371.62899 3.2113799e-17 -17.836244)
(369.69482 0 -17.746962)
(367.29998 0 -18.572692)
(364.44414 -1.8627871e-17 -18.864832)
(361.03265 3.0770946e-17 -19.635619)
(356.96468 -1.2659425e-17 -20.184467)
(352.19347 -1.7064736e-16 -20.91689)
(346.63871 1.4153886e-16 -21.488329)
(340.32877 1.4772289e-17 -21.957341)
(333.3373 -1.1830514e-17 -22.077166)
(325.88511 0 -21.73493)
(318.25879 0 -20.772803)
(310.77277 0 -19.175982)
(303.67554 0 -17.028697)
(297.13237 0 -14.536145)
(291.2438 -4.253422e-16 -11.930611)
(286.07609 -2.2180026e-18 -9.4313761)
(281.63709 5.4665316e-16 -7.1957013)
(277.91238 -2.4446208e-17 -5.266998)
(274.86689 0 -3.6723271)
(272.39235 2.8237558e-17 -2.3973914)
(270.39255 1.2837054e-15 -1.3957328)
(268.78045 -1.999521e-15 -0.62292471)
(267.47549 4.6085812e-17 -0.037713238)
(266.40787 -1.6705902e-17 0.39663086)
(265.52368 -7.9272759e-16 0.7036624)
(264.7613 -1.1570082e-15 0.89475108)
(264.06737 8.4326339e-16 0.97784155)
(263.46006 -1.9218481e-17 0.98502088)
(262.95788 1.4005089e-17 0.92266425)
(262.465 0 0.76335447)
(261.97709 0 0.48906117)
(261.39403 -7.0724506e-16 0.079035321)
(261.10477 -8.4282117e-18 -0.50941038)
(242.75609 2.6323768e-18 -10.9816)
(284.5864 3.7178858e-18 -12.309394)
(311.51995 3.0120972e-18 -13.645308)
(334.40607 0 -14.774897)
(354.90518 4.394812e-18 -15.902051)
(372.45172 1.1890352e-16 -16.897096)
(377.87726 -1.9981846e-16 -17.788296)
(378.89465 8.3611495e-17 -17.106684)
(377.40948 0 -18.234207)
(377.9731 0 -17.076964)
(376.69425 4.8705694e-17 -18.586017)
(376.63332 -6.0693455e-17 -17.331915)
(375.43234 5.0712817e-17 -18.846584)
(374.77483 -2.8065254e-17 -17.855937)
(373.41713 0 -19.142053)
(372.14169 3.9227877e-17 -18.600792)
(370.36938 -3.2509909e-17 -19.619169)
(368.35684 0 -19.547234)
(365.87346 2.2768412e-17 -20.390755)
(362.90996 -1.8686898e-17 -20.706324)
(359.37525 0 -21.489457)
(355.16489 0 -22.052365)
(350.2372 3.243717e-16 -22.778783)
(344.51983 -1.2523112e-16 -23.328036)
(338.05802 -2.3867967e-16 -23.738966)
(330.9535 0 -23.761423)
(323.45914 0 -23.277812)
(315.88625 0 -22.144557)
(308.5553 2.69146e-17 -20.365654)
(301.7016 -2.1071539e-17 -18.044512)
(295.46005 0 -15.39531)
(289.89267 -1.9797168e-18 -12.650092)
(285.02961 6.6931904e-16 -10.026287)
(280.85236 -5.1764729e-16 -7.6814514)
(277.33743 0 -5.6571056)
(274.45542 -1.8876855e-17 -3.9809014)
(272.10414 9.4867126e-16 -2.6398427)
(270.19353 -4.1810724e-17 -1.5858711)
(268.64404 2.0521822e-15 -0.77203571)
(267.38198 -4.6167933e-17 -0.15515664)
(266.34264 -2.1512531e-15 0.30373577)
(265.47627 1.5843294e-15 0.62899171)
(264.72171 2.3092764e-15 0.8333423)
(264.03297 -8.4020524e-16 0.9275622)
(263.4349 1.9118019e-17 0.94506764)
(262.93804 -1.3903399e-17 0.88955612)
(262.43555 1.2810027e-15 0.73363827)
(261.89724 -9.5552989e-16 0.46238577)
(261.35269 -1.7993039e-20 0.061280489)
(261.09904 1.2366429e-17 -0.50255137)
(242.0531 -3.4423357e-16 -12.064807)
(284.18764 2.4306402e-16 -13.575259)
(311.34731 1.3293664e-20 -15.055173)
(334.43901 -1.6144868e-16 -16.300723)
(355.05084 1.3856038e-16 -17.555403)
(372.4058 1.2099561e-16 -18.605346)
(376.92299 1.6194639e-19 -19.504862)
(377.92526 -1.810098e-16 -18.770014)
(376.39518 7.1164363e-17 -19.974663)
(376.96342 -7.4161775e-17 -18.746066)
(375.64159 4.9401533e-17 -20.340509)
(375.56694 2.0548952e-17 -19.027525)
(374.32392 -3.4462275e-17 -20.607934)
(373.63198 2.8559911e-17 -19.587533)
(372.2255 4.7906598e-17 -20.915224)
(370.89295 2.6156108e-19 -20.373892)
(369.05473 3.1283332e-19 -21.416035)
(366.95993 5.5788799e-17 -21.362258)
(364.38338 6.9553675e-17 -22.22072)
(361.30633 0 -22.558944)
(357.64116 1.6101074e-17 -23.35106)
(353.28078 1.3685737e-17 -23.923853)
(348.18914 -2.1963937e-16 -24.637175)
(342.30346 1.8022123e-17 -25.154097)
(335.68803 2.254804e-16 -25.49293)
(328.47518 2.1276973e-16 -25.400874)
(320.94989 2.0744027e-17 -24.758402)
(313.44503 2.5189927e-16 -23.439632)
(306.28235 0 -21.469924)
(299.68026 3.2632699e-16 -18.972888)
(293.74288 5.7038089e-16 -16.171502)
(288.49665 4.060008e-16 -13.29628)
(283.93902 -6.574755e-16 -10.560731)
(280.02632 1.0141463e-15 -8.1201773)
(276.72574 -7.5032513e-16 -6.0121136)
(274.01278 -1.2310852e-15 -4.2639855)
(271.79042 9.4002528e-16 -2.8642803)
(269.97394 -2.0572518e-15 -1.7636126)
(268.49123 -3.0980541e-17 -0.9127786)
(267.27543 2.3079211e-17 -0.26706587)
(266.26704 1.0842231e-15 0.21441453)
(265.42033 -8.1606724e-16 0.55649274)
(264.67528 -1.1338895e-15 0.77317958)
(263.9939 8.1096376e-16 0.8782445)
(263.40705 1.8979746e-17 0.9058324)
(262.91613 0 0.85750392)
(262.40185 -2.5766348e-15 0.70214068)
(261.81571 9.4287896e-16 0.43571819)
(261.31485 0 0.045679723)
(261.091 -4.03236e-18 -0.49328143)
(241.35752 3.4799635e-16 -13.156188)
(283.8044 -4.9949164e-16 -14.852367)
(311.18252 1.9699363e-16 -16.48083)
(334.47734 -5.2991252e-18 -17.844547)
(355.20341 0 -19.235309)
(372.29002 1.2309541e-16 -20.326354)
(375.86323 -1.0357404e-16 -21.235691)
(376.91376 1.0808399e-17 -20.452797)
(375.33942 7.2575006e-17 -21.736814)
(375.91087 -3.0046823e-17 -20.433356)
(374.54637 0 -22.111844)
(374.45674 -4.1996987e-17 -20.740111)
(373.17115 6.996585e-17 -22.38406)
(372.44233 -5.8285641e-17 -21.336215)
(370.98502 -2.4253737e-17 -22.702967)
(369.592 4.0640585e-17 -22.163838)
(367.68479 6.7755427e-17 -23.226551)
(365.5036 2.8665291e-17 -23.191783)
(362.82861 -1.1673995e-16 -24.062507)
(359.63146 -7.8380781e-17 -24.422572)
(355.82812 0 -25.220042)
(351.31 2.7308132e-17 -25.797923)
(346.04715 -2.2162783e-17 -26.490296)
(339.98826 0 -26.963693)
(333.21919 0 -27.215288)
(325.9054 -2.021286e-16 -26.990855)
(318.36344 0 -26.172237)
(310.94399 -2.7032996e-16 -24.654721)
(303.96501 2.7741968e-17 -22.487164)
(297.62429 -1.0787943e-15 -19.81372)
(291.99458 -5.5709148e-16 -16.865437)
(287.06921 -9.0824554e-16 -13.869874)
(282.81632 7.0374847e-16 -11.034911)
(279.1687 -1.0858737e-15 -8.5115254)
(276.08461 1.6350496e-15 -6.3312685)
(273.54423 -1.8096413e-18 -4.5206495)
(271.45485 -1.856184e-15 -3.0697859)
(269.73628 1.3824951e-15 -1.9281467)
(268.32366 -1.0386324e-15 -1.0444701)
(267.15691 -1.4356278e-15 -0.37288438)
(266.18176 1.7003531e-17 0.12909945)
(265.35633 1.5562066e-15 0.48651448)
(264.62235 0 0.7145781)
(263.9505 8.3384998e-16 0.83012201)
(263.37686 0 0.86748086)
(262.89164 0 0.82697874)
(262.36162 -2.0215044e-17 0.66922015)
(261.73613 9.3087345e-16 0.40903171)
(261.27909 1.0663462e-17 0.032220768)
(261.08148 5.0543122e-16 -0.48318314)
(240.67234 2.7153841e-18 -14.265141)
(283.43317 2.5637692e-16 -16.154507)
(311.0277 0 -17.935716)
(334.52164 0 -19.41691)
(355.36505 1.4872279e-16 -20.95055)
(372.09492 -1.3284291e-16 -22.067292)
(374.79438 1.0562165e-16 -22.983842)
(375.86077 -8.80696e-17 -22.150094)
(374.24421 0 -23.515992)
(374.81776 7.6336197e-20 -22.135623)
(373.41081 0 -23.897166)
(373.30415 6.4099811e-17 -22.468647)
(371.97463 -7.1171695e-17 -24.174776)
(371.20573 -1.7732926e-19 -23.102575)
(369.69531 7.4247255e-17 -24.505435)
(368.23849 -8.2459604e-17 -23.970575)
(366.2591 -1.0305568e-16 -25.050455)
(363.9869 -5.729822e-17 -25.035753)
(361.20743 -1.194718e-16 -25.916241)
(357.88301 2.3877757e-16 -26.2971)
(353.93352 0 -27.095838)
(349.24995 -2.7812177e-17 -27.673251)
(343.80895 -1.6116258e-16 -28.335963)
(337.57294 -2.8562868e-16 -28.753471)
(330.65222 -2.5175288e-16 -28.901518)
(323.24776 -1.2711443e-17 -28.526221)
(315.70638 0 -27.514596)
(308.39215 0 -25.786477)
(301.614 -4.1961332e-16 -23.415842)
(295.5455 1.4053939e-15 -20.567103)
(290.22746 -5.6742485e-16 -17.478147)
(285.6224 1.8041334e-15 -14.372053)
(281.67236 -2.1407234e-17 -11.449618)
(278.28849 3.3347998e-17 -8.8557384)
(275.42097 -1.6459037e-15 -6.6143369)
(273.05487 -1.8926974e-18 -4.75037)
(271.10108 0 -3.2557377)
(269.48309 0 -2.0788714)
(268.14307 1.0095216e-15 -1.166572)
(267.02759 1.4824023e-15 -0.47215195)
(266.08754 -1.0839497e-15 0.048164614)
(265.28473 2.5069897e-17 0.41937144)
(264.56331 -1.787748e-17 0.65784247)
(263.90321 -1.6337486e-15 0.78343074)
(263.34474 -1.2203246e-15 0.83014617)
(262.86384 1.360484e-17 0.79589324)
(262.31145 1.2520293e-15 0.63556545)
(261.66139 -9.0400734e-16 0.38238651)
(261.24531 -1.0485635e-17 0.020766988)
(261.07143 -4.8688264e-16 -0.47194825)
(240.00223 3.6371002e-16 -15.382916)
(283.07612 -4.0285942e-18 -17.467533)
(310.88809 2.0815954e-16 -19.407388)
(334.575 -1.7108433e-16 -21.007614)
(355.53744 0 -22.695037)
(371.81597 7.923614e-18 -23.825273)
(373.73044 1.3453465e-17 -24.746716)
(374.77155 -8.9747609e-17 -23.854454)
(373.11298 7.4882827e-17 -25.308152)
(373.6863 -1.5547779e-17 -23.852167)
(372.23564 0 -25.697476)
(372.10882 -2.1627082e-17 -24.214687)
(370.73351 -3.6287096e-17 -25.981358)
(369.92137 3.006342e-17 -24.887244)
(368.35594 -5.0161554e-17 -26.322444)
(366.83212 4.1813532e-17 -25.793742)
(364.7769 1.0529926e-16 -26.887637)
(362.40823 2.9130897e-17 -26.894348)
(359.51744 9.6767112e-17 -27.782156)
(356.05819 -1.6117744e-16 -28.182282)
(351.95449 0 -28.977624)
(347.09787 2.2512123e-16 -29.548194)
(341.47221 3.7241751e-16 -30.171583)
(335.05636 2.8777301e-16 -30.519551)
(327.98831 2.5369561e-16 -30.54655)
(320.50646 -3.8359997e-16 -30.001421)
(312.98582 -2.120621e-17 -28.7806)
(305.79869 0 -26.831622)
(299.23968 4.507288e-16 -24.25462)
(293.45487 -7.2085187e-16 -21.233381)
(288.45264 5.5286516e-16 -18.010984)
(284.16701 4.6431732e-17 -14.804396)
(280.5169 -2.1614282e-17 -11.806124)
(277.39387 -2.1110466e-15 -9.153562)
(274.7413 -8.4345522e-16 -6.8615382)
(272.54958 1.2299935e-15 -4.9529905)
(270.73269 0 -3.4217934)
(269.21693 1.3700251e-15 -2.2153891)
(267.95122 -1.0104514e-15 -1.2786889)
(266.88866 0 -0.56450687)
(265.98516 1.0827528e-15 -0.028079383)
(265.20609 -1.5993448e-15 0.35533856)
(264.49861 -1.1240549e-15 0.60325995)
(263.85247 0 0.73839286)
(263.31104 1.1937085e-15 0.7938436)
(262.83199 1.7255468e-15 0.76406906)
(262.24825 1.2489155e-15 0.60200547)
(261.59366 0 0.3560009)
(261.2136 1.0322425e-17 0.011126693)
(261.06079 -7.5620036e-18 -0.4597517)
(239.35787 -3.6455933e-16 -16.516558)
(282.73972 2.6178416e-16 -18.800984)
(310.7675 -2.1874497e-16 -20.904855)
(334.64294 3.5454339e-16 -22.625899)
(355.71986 -3.0800546e-16 -24.478078)
(371.45351 -1.9245113e-19 -25.608066)
(372.6116 9.54652e-17 -26.536339)
(373.64585 -1.1423987e-17 -25.57414)
(371.94458 7.6335558e-17 -27.117865)
(372.51451 1.6087409e-17 -25.587356)
(371.01887 -5.2855399e-17 -27.515569)
(370.86896 -4.4192703e-17 -25.980172)
(369.44678 3.6706754e-17 -27.803998)
(368.58891 -6.1534846e-17 -26.689943)
(366.96684 1.0268819e-16 -28.153293)
(365.37235 -8.530017e-17 -27.633257)
(363.23667 -3.5514093e-17 -28.738474)
(360.76516 1.190137e-16 -28.768082)
(357.75569 9.9193594e-17 -29.660478)
(354.15396 0 -30.07765)
(349.88803 0 -30.864279)
(344.85084 -2.5593149e-16 -31.420759)
(339.03453 -1.4127918e-16 -31.99409)
(332.43757 -3.3551388e-16 -32.257453)
(325.22918 2.615197e-16 -32.144745)
(317.68641 4.2618174e-16 -31.410557)
(310.2094 -3.5257078e-16 -29.965312)
(303.17301 -5.9079827e-16 -27.787048)
(296.85224 1.416574e-17 -25.002441)
(291.3627 -2.3083697e-17 -21.813199)
(286.68024 1.7935382e-17 -18.465604)
(282.71268 -1.8418634e-15 -15.168839)
(279.35868 -6.8209882e-16 -12.106111)
(276.49228 3.2003508e-15 -9.4061623)
(274.05153 3.3066985e-15 -7.0734764)
(272.03298 0 -5.1286767)
(270.35312 -9.5420915e-16 -3.5678644)
(268.94031 -2.72376e-15 -2.3374919)
(267.74989 -1.0122277e-15 -1.3805635)
(266.74137 0 -0.64968507)
(265.87545 0 -0.099387303)
(265.12098 0 0.29464918)
(264.42874 1.1374506e-15 0.55109174)
(263.79882 -2.5700012e-17 0.69522778)
(263.27596 1.1858623e-15 0.75850892)
(262.79543 -1.6971444e-15 0.72936051)
(262.17193 -2.4706312e-15 0.56919714)
(261.53325 0 0.33034597)
(261.18409 -1.2886346e-15 0.0030242338)
(261.04997 9.4062131e-16 -0.44666315)
(238.72629 -3.7696431e-16 -17.669736)
(282.41383 8.1958043e-18 -20.160621)
(310.66118 2.1583784e-16 -22.434816)
(334.71973 0 -24.2771)
(355.89402 9.8115515e-18 -26.295674)
(371.00183 0 -27.402092)
(371.45108 1.3913995e-17 -28.348689)
(372.4799 1.1553018e-17 -27.31302)
(370.73573 0 -28.947065)
(371.29985 8.0786803e-17 -27.342306)
(369.759 -5.3727626e-17 -29.351424)
(369.58413 0 -27.764368)
(368.11475 0 -29.641335)
(367.20876 6.2197388e-17 -28.509732)
(365.52774 -5.1864307e-17 -29.997722)
(363.85773 -8.7054997e-17 -29.489681)
(361.63583 3.6373212e-17 -30.603819)
(359.05456 -1.5014083e-16 -30.657463)
(355.91897 -2.4543461e-17 -31.551163)
(352.16717 1.8899942e-16 -31.982403)
(347.73099 0 -32.754389)
(342.50577 -2.3334904e-16 -33.288613)
(336.49351 0 -33.79994)
(329.71597 3.1850576e-16 -33.962114)
(322.37726 -1.3883417e-17 -33.689946)
(314.79332 -1.4206036e-17 -32.747499)
(307.3854 3.7678756e-16 -31.063877)
(300.52471 1.2861822e-17 -28.649935)
(294.46158 -1.4378553e-17 -25.658614)
(289.27864 -2.3369951e-17 -22.307549)
(284.91946 -2.6507338e-19 -18.843981)
(281.26803 1.8742061e-15 -15.46763)
(278.20547 6.8513593e-16 -12.3516)
(275.59035 3.1194931e-18 -9.6150551)
(273.35707 -3.2736053e-15 -7.2510812)
(271.50931 -1.9341646e-17 -5.2778749)
(269.96565 9.5603434e-16 -3.6940894)
(268.65565 2.7074472e-15 -2.4451496)
(267.54083 3.0542269e-15 -1.4720695)
(266.58696 0 -0.72751692)
(265.75929 0 -0.16557972)
(265.03001 2.4506628e-17 0.23749414)
(264.35426 -1.7684624e-17 0.5015625)
(263.74276 0 0.6541131)
(263.23935 -1.177444e-15 0.72402902)
(262.75351 1.6957476e-15 0.69336144)
(262.08696 1.2407195e-15 0.53717428)
(261.47768 2.5827093e-20 0.30613974)
(261.15667 1.2668297e-15 -0.0037370861)
(261.03951 7.3972098e-20 -0.43276809)
(238.10005 3.7770071e-16 -18.835031)
(282.09533 -2.7549056e-16 -21.536101)
(310.56861 6.8545914e-18 -23.988)
(334.80672 0 -25.953649)
(356.05094 -9.9217571e-18 -28.140079)
(370.39366 -1.666844e-17 -29.202705)
(370.24396 7.3847913e-20 -30.182372)
(371.27184 -2.3608317e-17 -29.071658)
(369.48549 0 -30.79577)
(370.04262 -6.5509714e-17 -29.115629)
(368.45714 0 -31.202986)
(368.25569 0 -29.56536)
(366.73839 3.8145231e-17 -31.492164)
(365.78075 2.1693275e-19 -30.346623)
(364.03704 -2.6342942e-17 -31.856643)
(362.28545 8.79329e-17 -31.364301)
(359.971 -1.1081947e-16 -32.484617)
(357.27311 1.2273458e-16 -32.562644)
(354.00411 -7.6495234e-17 -33.453771)
(350.09467 -1.6974195e-16 -33.895405)
(345.48005 0 -34.646211)
(340.05946 5.0266218e-16 -35.148984)
(333.84679 -2.4208336e-17 -35.584953)
(326.8915 0 -35.627777)
(319.43574 -2.6803531e-16 -35.175465)
(311.83376 4.4598094e-16 -34.005946)
(304.52268 -3.6444417e-16 -32.071625)
(297.86359 5.8528095e-16 -29.417862)
(292.0774 0 -26.222879)
(287.21177 -2.3651089e-17 -22.717819)
(283.17867 -2.4660115e-19 -19.148413)
(279.84071 -8.7879902e-16 -15.703307)
(277.06417 -4.4592988e-17 -12.544902)
(274.69398 2.0110527e-17 -9.7820486)
(272.66279 -3.6129905e-18 -7.3955546)
(270.98251 0 -5.4012697)
(269.57335 2.9112516e-17 -3.8008098)
(268.36528 -2.7761288e-15 -2.5384931)
(267.32574 -2.0255675e-15 -1.5532032)
(266.42664 0 -0.79792225)
(265.63751 0 -0.22654012)
(264.93384 -2.4432114e-17 0.18402291)
(264.27583 -2.2391874e-15 0.45485082)