/*--------------------------------*- C++ -*----------------------------------*\
  =========                 |
  \\      /  F ield         | OpenFOAM: The Open Source CFD Toolbox
   \\    /   O peration     | Website:  https://openfoam.org
    \\  /    A nd           | Version:  8
     \\/     M anipulation  |
\*---------------------------------------------------------------------------*/
FoamFile
{
    version     2.0;
    format      ascii;
    class       volVectorField;
    location    "0.149996";
    object      wallShearStress;
}
// * * * * * * * * * * * * * * * * * * * * * * * * * * * * * * * * * * * * * //

dimensions      [1 -1 -2 0 0 0 0];

internalField   uniform (0 0 0);

boundaryField
{
    aerofoil
    {
        type            calculated;
        value           nonuniform List<vector> 
300
(
(-160.64521 1.2888618e-21 1.5089052)
(-160.08163 5.0022235e-23 2.119885)
(-159.78855 -2.9586711e-21 2.7467453)
(-159.46754 -9.6569088e-17 3.3863625)
(-159.19809 -9.8729572e-17 4.0370004)
(-158.94451 -1.0091032e-16 4.6986855)
(-158.71805 1.8719101e-21 5.370326)
(-158.51501 1.0370998e-16 6.0518347)
(-158.34136 3.3653719e-18 6.7498533)
(-158.19549 -1.7156094e-18 7.4655627)
(-158.06867 2.2473965e-16 8.1926924)
(-157.95265 -2.2780777e-16 8.9296651)
(-157.85673 -1.7820033e-18 9.6814196)
(-157.77249 -2.3908879e-16 10.443513)
(-157.7198 2.4026087e-16 11.221353)
(-157.68839 2.4899506e-16 12.01617)
(-157.6634 -2.5009244e-16 12.824235)
(-157.65618 -3.2022831e-22 13.649804)
(-157.651 5.2475274e-16 14.48944)
(-157.66269 2.7807858e-16 15.348395)
(-157.68867 -4.2859724e-18 16.22842)
(-157.72456 -4.2282553e-18 17.12915)
(-157.77798 -2.8145763e-16 18.052831)
(-157.82203 -7.6074233e-33 18.992467)
(-157.87409 -1.2595003e-21 19.959507)
(-157.92674 1.881537e-21 20.950023)
(-158.00072 0 21.968488)
(-158.09164 -3.1502567e-16 23.018257)
(-158.17529 3.2108809e-16 24.094)
(-158.26064 3.3765267e-16 25.204462)
(-158.34208 3.2327021e-16 26.35057)
(-158.40086 1.0657709e-17 27.530738)
(-158.41503 -3.4636188e-16 28.741405)
(-158.3879 -1.099787e-17 29.98942)
(-158.34229 -3.6016181e-16 31.287551)
(-158.2892 5.7387365e-19 32.640423)
(-158.24108 -1.173661e-17 34.049954)
(-158.21891 2.3848287e-17 35.52491)
(-158.2332 3.8853336e-16 37.082183)
(-158.29204 -1.1693304e-17 38.727553)
(-158.36956 -1.3474938e-17 40.460246)
(-158.5097 1.2868396e-17 42.306567)
(-158.64968 -4.099646e-16 44.265659)
(-158.76418 -1.3385144e-17 46.331132)
(-158.77744 -1.3713878e-17 48.488764)
(-158.70233 4.6298391e-16 50.780182)
(-158.47377 4.3774708e-16 53.204609)
(-158.11151 1.235958e-17 55.789165)
(-157.57604 4.8674092e-16 58.537144)
(-156.88321 -1.5040047e-17 61.433289)
(-156.0138 4.9331817e-16 64.489662)
(-154.77977 -5.1946901e-16 67.691234)
(-153.06767 2.0277552e-17 71.039172)
(-150.75066 1.1865106e-17 74.53841)
(-147.71864 -1.0678797e-15 78.226735)
(-143.94221 1.8882357e-19 82.187604)
(-139.38971 1.0802904e-15 86.513011)
(-134.17587 -5.5188733e-16 91.342859)
(-128.58821 -2.8452792e-19 96.758653)
(-123.29875 -6.0228732e-16 102.38806)
(-119.37434 3.5459464e-17 108.27896)
(-116.04871 -1.2391148e-15 114.16559)
(-112.27281 6.3999602e-16 119.59143)
(-107.1702 -6.2846383e-16 124.07381)
(-100.39293 1.0452127e-19 127.08874)
(-91.985612 -6.7224266e-16 128.30035)
(-81.666115 -6.8181254e-16 127.00327)
(-69.604737 1.094532e-17 122.4754)
(-56.401206 -1.2742117e-18 114.31742)
(-42.791641 -3.6251634e-16 102.04595)
(-29.677736 6.1629758e-33 85.593248)
(-18.014585 7.1657863e-18 65.647928)
(-9.3261922 -1.7597167e-16 43.258748)
(-4.430018 7.9305862e-17 21.221104)
(-1.9916827 3.1463898e-17 7.9122282)
(-199.88631 7.6093299e-20 -27.459528)
(-205.3712 2.327633e-15 -28.2755)
(-207.82083 -1.0785208e-32 -28.201004)
(-208.99995 -1.1620491e-15 -28.003647)
(-209.07778 -1.1588521e-15 -27.667209)
(-208.69965 -1.2940236e-19 -27.275241)
(-207.84445 -2.3006038e-15 -26.830243)
(-206.76942 7.4172131e-26 -26.364076)
(-205.53762 0 -25.886735)
(-204.17156 1.1380412e-15 -25.406011)
(-202.68112 1.1345218e-15 -24.919236)
(-201.04397 2.5782432e-19 -24.42447)
(-199.21873 -1.1307873e-15 -23.920079)
(-197.15212 1.2339931e-19 -23.398944)
(-194.82681 -1.1241647e-15 -22.854885)
(-192.32245 1.1172259e-15 -22.300079)
(-189.80181 -1.1101522e-15 -21.752547)
(-187.28046 1.1056032e-19 -21.211695)
(-184.76784 1.0964762e-15 -20.680617)
(-182.27754 1.0892658e-15 -20.158085)
(-179.80779 1.1023342e-20 -19.646377)
(-177.35715 1.0750332e-15 -19.142897)
(-174.9191 1.0163798e-21 -18.649601)
(-172.50573 3.090988e-19 -18.160544)
(-170.10701 -2.1075092e-15 -17.680405)
(-167.72296 -1.0468083e-15 -17.20764)
(-165.35333 1.0398671e-15 -16.744155)
(-162.99871 9.4430593e-26 -16.286572)
(-160.64937 0 -15.835997)
(-158.31383 -1.0191276e-15 -15.392067)
(-156.01619 1.0118748e-15 -14.95825)
(-153.74768 1.0047805e-15 -14.533995)
(-151.48052 -4.7479529e-22 -14.112861)
(-149.21215 -1.7901755e-19 -13.696501)
(-147.04675 5.0917729e-20 -13.293023)
(-144.92012 9.2774743e-22 -12.895885)
(-142.84116 -1.041032e-20 -12.50612)
(-140.81505 -3.2881463e-26 -12.123973)
(-138.84477 -4.7595522e-16 -11.748737)
(-136.92411 -1.2425452e-19 -11.380709)
(-135.0349 4.680986e-16 -11.016688)
(-133.14555 -4.6420347e-16 -10.654537)
(-131.217 5.8188364e-20 -10.291778)
(-129.22213 4.5646401e-16 -9.9279058)
(-127.13914 -4.526282e-16 -9.5607505)
(-124.97817 -1.6687155e-20 -9.1930076)
(-122.77263 5.3030089e-20 -8.8262653)
(-120.59892 -1.4273692e-20 -8.4645287)
(-118.55471 4.3649769e-16 -8.1102725)
(-116.68407 4.3253841e-16 -7.7626996)
(-114.87152 -4.2856902e-16 -7.4145572)
(-112.68819 -8.4958006e-16 -7.0511163)
(-109.68176 -8.4087836e-16 -6.6483192)
(-105.81205 3.4593352e-20 -6.1975068)
(-100.61474 -4.1058319e-16 -5.7053142)
(-93.364046 4.0334978e-16 -5.1494602)
(-84.340491 -7.8743704e-16 -4.5507449)
(-75.093365 -3.8123303e-16 -3.9520473)
(-67.408768 3.6871569e-16 -3.4290973)
(-62.954426 4.8148249e-35 -3.0402246)
(-66.239803 -6.2423285e-20 -2.8699361)
(-80.384472 1.7900091e-16 -3.0354101)
(-103.0153 8.6931804e-20 -3.4394082)
(-126.26048 -3.551691e-16 -3.8861428)
(-143.87242 -1.7549104e-16 -4.145278)
(-154.39573 1.7409113e-16 -4.1069921)
(-159.16643 -3.451711e-16 -3.8283066)
(-161.24064 -7.7980109e-21 -3.3984852)
(-161.93235 8.5574006e-17 -2.906656)
(-162.09558 8.5356775e-17 -2.383804)
(-162.02766 8.5115369e-17 -1.8333268)
(-161.9011 -4.2479934e-17 -1.2308847)
(-161.66257 4.2350543e-17 -0.55706215)
(-161.3495 -6.8192394e-21 0.11254202)
(-161.10365 -2.1115801e-17 0.81807799)
(-130.1786 1.3288919e-17 0.15159668)
(-133.13565 -1.4070271e-17 -0.40620214)
(-136.0239 4.5591813e-19 -1.0015148)
(-138.86723 -5.9196978e-17 -1.5646372)
(-141.68003 6.0658837e-17 -2.1695262)
(-144.43979 -2.0186131e-22 -2.8110695)
(-147.15482 1.2533812e-16 -3.4897303)
(-149.79644 9.3908846e-21 -4.2002138)
(-152.37814 -1.2924263e-16 -4.945151)
(-154.86942 -3.7196787e-21 -5.7216485)
(-157.26678 -1.3936842e-16 -6.5315485)
(-159.56109 7.1280723e-20 -7.3769505)
(-161.78002 5.7307786e-16 -8.25854)
(-163.92187 2.9258151e-16 -9.1673958)
(-165.98546 9.6777308e-20 -10.11392)
(-167.97616 1.1173452e-19 -11.095187)
(-169.87887 4.8627283e-18 -12.109401)
(-171.67162 -4.9595375e-18 -13.156383)
(-173.36011 -3.2417876e-16 -14.235806)
(-174.9804 -5.1703402e-18 -15.353512)
(-176.53891 -3.3202381e-16 -16.510504)
(-178.04108 -6.8312203e-16 -17.707784)
(-179.51376 -3.6705117e-19 -18.951034)
(-180.96273 3.5252609e-16 -20.238443)
(-182.4214 3.6514638e-16 -21.581615)
(-183.84224 -5.8550404e-21 -22.972024)
(-185.24091 3.7942044e-16 -24.416466)
(-186.61877 -1.2087813e-17 -25.921554)
(-187.9638 -6.5318809e-20 -27.488875)
(-189.28075 2.5240615e-17 -29.136845)
(-190.53913 3.9586839e-16 -30.875531)
(-191.73089 1.3036281e-17 -32.690595)
(-192.85264 -1.3419362e-17 -34.564398)
(-193.92842 4.3183201e-16 -36.523281)
(-194.97579 4.2604196e-16 -38.570989)
(-196.00756 1.2449293e-17 -40.711058)
(-197.0283 3.6600061e-20 -42.93238)
(-198.00444 -4.4912066e-16 -45.234129)
(-198.89202 4.7317411e-16 -47.618174)
(-199.66138 -1.6538923e-17 -50.084155)
(-200.26827 1.7050705e-17 -52.628277)
(-200.68282 9.7552863e-16 -55.258388)
(-200.8674 5.0813256e-16 -57.984738)
(-200.77528 5.8720521e-20 -60.783342)
(-200.33562 -6.4698756e-20 -63.659622)
(-199.58216 7.7037198e-34 -66.631485)
(-198.46416 5.2179883e-16 -69.689081)
(-196.97092 1.6903743e-17 -72.84288)
(-195.07059 4.2683243e-18 -76.088071)
(-192.73202 5.7872524e-16 -79.423246)
(-189.94173 -1.6619395e-17 -82.859064)
(-186.68173 5.6088994e-16 -86.393622)
(-182.91816 1.3810443e-17 -90.012536)
(-178.64769 -3.0737202e-17 -93.707138)
(-173.88842 6.2962149e-16 -97.446424)
(-168.68229 -6.1748848e-16 -101.16572)
(-163.11513 -6.286385e-16 -104.77521)
(-157.31369 2.7091107e-17 -108.18006)
(-151.12663 6.4902152e-16 -111.31477)
(-144.37111 6.2320076e-16 -114.05504)
(-136.85908 -6.4840968e-16 -116.20291)
(-128.53437 6.951478e-16 -117.62701)
(-119.28658 6.9253157e-16 -118.12894)
(-109.10432 -2.1686184e-17 -117.48478)
(-97.987633 1.3355931e-19 -115.35231)
(-85.817259 7.2564839e-16 -111.44615)
(-72.831835 -7.2301105e-16 -105.40429)
(-59.300797 7.2670346e-16 -96.606238)
(-45.779497 -3.4928635e-16 -84.850254)
(-32.772328 -3.7040522e-16 -69.963927)
(-20.257158 -6.1629758e-33 -52.239677)
(-10.574522 -7.7934186e-19 -32.839466)
(-4.9641748 -1.4271977e-16 -15.113078)
(-1.9328349 -2.8711627e-18 -4.3327349)
(-0.85754847 5.3419935e-19 0.51788614)
(0.35448855 1.5893685e-22 0.37293993)
(-0.74296093 -2.0366626e-16 0.10605684)
(-0.7449495 -2.0163984e-16 0.1160637)
(-1.1585962 0 0.17375737)
(-1.5436513 -1.3765611e-27 0.22622206)
(-2.0844696 2.562824e-16 0.29992617)
(-2.6924979 -8.3818541e-22 0.3811362)
(-3.3850282 -5.8335355e-16 0.47213643)
(-4.1457796 -3.0876066e-16 0.57035089)
(-4.9768208 6.5063704e-16 0.67599407)
(-5.8735792 -3.4670272e-21 0.78842526)
(-6.8324431 1.2775636e-20 0.90649066)
(-7.8557064 3.7154666e-16 1.0277165)
(-8.9478189 -1.041111e-21 1.1546674)
(-10.086525 -4.0061281e-16 1.2867466)
(-11.263522 3.9574275e-22 1.4212334)
(-12.47818 4.2712252e-16 1.5572154)
(-13.726094 1.2903731e-32 1.6940141)
(-15.002064 -4.2954256e-22 1.8310749)
(-16.301841 -4.625575e-16 1.9677112)
(-17.618412 -4.5219866e-22 2.1031948)
(-18.95018 4.8352651e-16 2.2369532)
(-20.29901 -9.6668731e-27 2.3692576)
(-21.671363 2.6212499e-20 2.5004154)
(-23.064792 0 2.6305144)
(-24.480523 5.2084583e-16 2.7591511)
(-25.916073 5.2945736e-16 2.8864014)
(-27.369595 -5.3777784e-16 3.01152)
(-28.831689 0 3.1339882)
(-30.303461 -1.6811538e-20 3.2531753)
(-31.786965 -5.6107146e-16 3.3692554)
(-33.294249 -5.4304379e-22 3.4837672)
(-34.832698 -2.2951888e-27 3.5961354)
(-36.395463 -1.7297742e-20 3.7063773)
(-37.97999 6.3032675e-22 3.8139231)
(-39.583628 -1.6457823e-20 3.9185535)
(-41.204718 -1.4693679e-39 4.0195147)
(-42.841032 5.8020655e-22 4.1165758)
(-44.496338 -2.1233528e-24 4.2094058)
(-46.177467 -1.9467653e-20 4.2989228)
(-47.892382 6.2811925e-16 4.3847264)
(-49.639409 -6.3417386e-16 4.466679)
(-51.415834 6.4018353e-16 4.5440991)
(-53.220498 -3.6959256e-27 4.617092)
(-55.049408 -1.2147812e-20 4.6841503)
(-56.894016 -3.2878243e-16 4.7449478)
(-58.7616 3.3160458e-16 4.7988543)
(-60.661527 -3.3435704e-16 4.8459644)
(-62.605843 3.371173e-16 4.886603)
(-64.598143 3.3984445e-16 4.9216453)
(-66.632402 -6.9501937e-21 4.9488486)
(-68.698018 6.3090859e-22 4.9666839)
(-70.790143 2.0212868e-21 4.9751027)
(-72.912344 -1.0857988e-20 4.9730417)
(-75.067571 -4.127813e-21 4.959132)
(-77.263199 -3.5587073e-16 4.9337456)
(-79.506432 2.5650193e-21 4.895878)
(-81.786271 8.2499167e-21 4.8446374)
(-84.08907 -5.9345774e-22 4.7788611)
(-86.417743 -3.6776365e-16 4.6999765)
(-88.788204 -3.7043598e-16 4.6046967)
(-91.193945 -2.1777564e-26 4.4922913)
(-93.633726 1.2031122e-20 4.3592787)
(-96.106131 3.7700592e-16 4.2054724)
(-98.628595 -1.8953364e-16 4.02934)
(-101.20554 -1.9053987e-16 3.8305378)
(-103.83623 -6.8863119e-21 3.6074257)
(-106.52041 -3.8508097e-16 3.3577932)
(-109.26564 1.9354052e-16 3.0804993)
(-112.09142 -1.9452857e-16 2.7733944)
(-115.00752 -1.1453184e-20 2.4348988)
(-118.00198 1.0007689e-20 2.0708765)
(-121.05532 -9.8751463e-17 1.6798004)
(-124.13556 1.1954623e-20 1.2178948)
(-127.11707 -2.82965e-34 0.67945539)
)
;
    }
    inlet
    {
        type            calculated;
        value           uniform (0 0 0);
    }
    outlet
    {
        type            calculated;
        value           uniform (0 0 0);
    }
    back
    {
        type            empty;
    }
    front
    {
        type            empty;
    }
}


// ************************************************************************* //
