/*--------------------------------*- C++ -*----------------------------------*\
  =========                 |
  \\      /  F ield         | OpenFOAM: The Open Source CFD Toolbox
   \\    /   O peration     | Website:  https://openfoam.org
    \\  /    A nd           | Version:  8
     \\/     M anipulation  |
\*---------------------------------------------------------------------------*/
FoamFile
{
    version     2.0;
    format      ascii;
    class       volScalarField;
    location    "0.149996";
    object      yPlus;
}
// * * * * * * * * * * * * * * * * * * * * * * * * * * * * * * * * * * * * * //

dimensions      [0 0 0 0 0 0 0];

internalField   uniform 0;

boundaryField
{
    aerofoil
    {
        type            calculated;
        value           nonuniform List<scalar> 
300
(
128.51046
127.5853
126.79299
126.01844
125.30852
124.64018
124.0203
123.44289
122.91002
122.42208
121.97559
121.56353
121.19326
120.85223
120.55145
120.28903
120.05341
119.85322
119.67514
119.52626
119.40603
119.30976
119.24753
119.19835
119.17732
119.17375
119.1943
119.24495
119.30778
119.39055
119.4891
119.60151
119.71623
119.82985
119.95545
120.10149
120.27077
120.47106
120.71009
121.0038
121.32715
121.7089
122.12401
122.58466
123.03558
123.50429
123.95928
124.42305
124.89109
125.37097
125.86495
126.31796
126.69639
126.97077
127.13821
127.24411
127.30756
127.4858
127.9588
128.94942
130.89311
133.53593
136.46798
139.28697
141.67318
143.56716
144.55967
144.10448
141.77071
136.72536
127.91475
114.22484
94.157002
66.568881
40.70948
179.86764
179.48442
179.56031
179.57585
179.03237
178.41047
177.60257
176.74003
175.83777
174.89971
173.9285
172.9145
171.83775
170.67222
169.41222
168.08261
166.74897
165.41891
164.09355
162.78198
161.48083
160.18964
158.9007
157.62312
156.34947
155.08107
153.81565
152.55641
151.29621
150.04216
148.80413
147.5734
146.34177
145.10509
143.91366
142.73622
141.5768
140.43941
139.32642
138.23347
137.15365
136.07386
134.97434
133.84445
132.6665
131.44278
130.17775
128.90036
127.65337
126.45695
125.29128
124.00762
122.31271
120.17855
117.42422
113.49269
108.27124
102.257
96.86199
93.041308
93.995243
100.56485
110.00878
118.10266
123.46273
126.67943
127.96174
128.54459
128.71401
128.7886
128.80358
128.85141
128.88282
128.91872
128.94888
128.70291
128.95346
129.23391
129.50131
129.77416
130.03457
130.31217
130.57134
130.83919
131.09619
131.35599
131.59738
131.84016
132.078
132.31407
132.55116
132.78932
133.02193
133.24568
133.47901
133.72716
133.98709
134.27612
134.5853
134.94102
135.31628
135.71515
136.14388
136.59043
137.05967
137.54378
138.0423
138.54481
139.06017
139.59848
140.17199
140.77774
141.40073
142.02531
142.64679
143.24504
143.81167
144.33191
144.80882
145.19415
145.52983
145.78673
145.97584
146.09733
146.14121
146.11488
146.03742
145.90625
145.73531
145.55045
145.37926
145.24494
145.23749
145.28106
145.35307
145.31125
145.13961
144.75494
144.05442
142.88551
140.98278
138.11003
133.63546
126.98429
117.16945
102.73759
82.588755
56.817084
30.870964
11.81749
8.4693026
11.10654
11.084101
13.810695
15.918613
18.476301
20.97109
23.482862
25.952457
28.395036
30.803254
33.174512
35.519073
37.850365
40.126517
42.33913
44.496099
46.596887
48.640234
50.625975
52.550534
54.417404
56.234471
58.015268
59.759457
61.471463
63.1507
64.797919
66.404591
67.974475
69.512099
71.030439
72.540242
74.033562
75.509592
76.965544
78.401995
79.816915
81.21523
82.601258
83.983771
85.359897
86.728482
88.087899
89.437249
90.76769
92.086669
93.399497
94.71627
96.037671
97.360233
98.675211
99.980193
101.27744
102.56891
103.85573
105.1448
106.42667
107.69547
108.95263
110.21166
111.46239
112.70693
113.9406
115.17706
116.41486
117.65599
118.89854
120.14668
121.40653
122.68784
123.98188
125.28708
126.5801
127.86122
)
;
    }
    inlet
    {
        type            calculated;
        value           uniform 0;
    }
    outlet
    {
        type            calculated;
        value           uniform 0;
    }
    back
    {
        type            empty;
    }
    front
    {
        type            empty;
    }
}


// ************************************************************************* //
