/*--------------------------------*- C++ -*----------------------------------*\
  =========                 |
  \\      /  F ield         | OpenFOAM: The Open Source CFD Toolbox
   \\    /   O peration     | Website:  https://openfoam.org
    \\  /    A nd           | Version:  8
     \\/     M anipulation  |
\*---------------------------------------------------------------------------*/
FoamFile
{
    version     2.0;
    format      ascii;
    class       volScalarField;
    location    "0.0599932";
    object      alphat;
}
// * * * * * * * * * * * * * * * * * * * * * * * * * * * * * * * * * * * * * //

dimensions      [1 -1 -1 0 0 0 0];

internalField   nonuniform List<scalar> 
20000
(
0.0010850808
0.0024692282
0.0030845084
0.0030468965
0.0022325682
0.00052932921
1.6812275e-07
6.1103773e-09
5.6939151e-09
5.6842258e-09
5.5629733e-09
5.6002192e-09
5.5294263e-09
5.5755061e-09
5.5808432e-09
5.6259475e-09
5.6602162e-09
5.7200603e-09
5.7835655e-09
5.8685536e-09
5.966554e-09
6.0920544e-09
6.2363749e-09
6.404055e-09
6.5930099e-09
6.8040613e-09
7.0331895e-09
7.2743917e-09
7.5183209e-09
7.7555036e-09
7.9760626e-09
8.1724305e-09
8.3396332e-09
8.4759804e-09
8.5811537e-09
8.6575231e-09
8.7158473e-09
8.7527104e-09
8.7693953e-09
8.7737514e-09
8.770805e-09
8.7560816e-09
8.7341545e-09
8.7129489e-09
8.6539804e-09
8.6117956e-09
8.5946147e-09
8.590523e-09
8.5895385e-09
8.5909392e-09
0.0010672105
0.0024053174
0.0029820338
0.0029081215
0.0020257971
0.00041445211
5.9727958e-08
6.0367778e-09
5.65235e-09
5.6468953e-09
5.5289469e-09
5.5680726e-09
5.4984647e-09
5.545667e-09
5.5522537e-09
5.5986518e-09
5.6343174e-09
5.6953393e-09
5.7605706e-09
5.8485263e-09
5.9527083e-09
6.0830561e-09
6.2330126e-09
6.4043727e-09
6.5980059e-09
6.8145075e-09
7.0484521e-09
7.293467e-09
7.5397001e-09
7.7773519e-09
7.9967295e-09
8.1906186e-09
8.3547114e-09
8.4878318e-09
8.5897485e-09
8.6646608e-09
8.7219e-09
8.755904e-09
8.7707872e-09
8.774742e-09
8.7712837e-09
8.7560147e-09
8.7351107e-09
8.7080743e-09
8.6501297e-09
8.6115257e-09
8.5951161e-09
8.5909428e-09
8.5897844e-09
8.5910046e-09
0.0010560671
0.0023520724
0.0028834609
0.002768519
0.0018090923
0.00030343936
2.5424697e-08
5.9806382e-09
5.616914e-09
5.6139e-09
5.4994933e-09
5.5398346e-09
5.4714356e-09
5.5191722e-09
5.5272751e-09
5.5746623e-09
5.6115326e-09
5.6741064e-09
5.742538e-09
5.8370401e-09
5.9475548e-09
6.0817614e-09
6.233377e-09
6.4090851e-09
6.6082112e-09
6.8301254e-09
7.0690977e-09
7.3178853e-09
7.5661824e-09
7.8038811e-09
8.0215205e-09
8.2123236e-09
8.3726653e-09
8.5018756e-09
8.6000059e-09
8.6735329e-09
8.7289296e-09
8.7600759e-09
8.7727191e-09
8.7762483e-09
8.7719643e-09
8.7563223e-09
8.7355392e-09
8.7011956e-09
8.6427364e-09
8.6109053e-09
8.5970061e-09
8.592221e-09
8.5903322e-09
8.5910256e-09
0.0010443409
0.0022991222
0.0027856397
0.0026258755
0.0015970239
0.0002084187
1.4025435e-08
5.9324378e-09
5.5840579e-09
5.5840757e-09
5.473257e-09
5.5151385e-09
5.4481241e-09
5.4967367e-09
5.5060003e-09
5.5545649e-09
5.5934474e-09
5.659879e-09
5.7343395e-09
5.8328965e-09
5.9463664e-09
6.0817659e-09
6.2380111e-09
6.4196474e-09
6.6247617e-09
6.8525258e-09
7.0965289e-09
7.3488683e-09
7.5987296e-09
7.8358106e-09
8.0509332e-09
8.2378818e-09
8.3937281e-09
8.5182426e-09
8.6120857e-09
8.6841408e-09
8.7361398e-09
8.7641296e-09
8.7750265e-09
8.7780607e-09
8.7726841e-09
8.7571244e-09
8.7356452e-09
8.6928433e-09
8.6395825e-09
8.6104556e-09
8.5976006e-09
8.5928912e-09
8.5907353e-09
8.5910368e-09
0.0010332293
0.0022487248
0.0026948793
0.0024885384
0.0013918118
0.00012589887
9.6103407e-09
5.8930234e-09
5.5562378e-09
5.5591039e-09
5.4512682e-09
5.4946743e-09
5.4290572e-09
5.4783199e-09
5.4892142e-09
5.5400625e-09
5.5836566e-09
5.6543171e-09
5.7314799e-09
5.8321092e-09
5.9471092e-09
6.0873055e-09
6.2487264e-09
6.4362343e-09
6.6476165e-09
6.8813273e-09
7.1303529e-09
7.3859758e-09
7.6368861e-09
7.8726531e-09
8.0844841e-09
8.2668382e-09
8.4174821e-09
8.536589e-09
8.6257986e-09
8.6960086e-09
8.7439295e-09
8.7685075e-09
8.7776589e-09
8.780144e-09
8.7735225e-09
8.758296e-09
8.7355783e-09
8.6847762e-09
8.6359751e-09
8.6100713e-09
8.598362e-09
8.5935696e-09
8.5912519e-09
8.5910177e-09
0.0010224156
0.0021997872
0.0026053653
0.002352744
0.001195455
6.0689286e-05
7.7017057e-09
5.8594523e-09
5.5329967e-09
5.5385133e-09
5.4342906e-09
5.4785834e-09
5.4149108e-09
5.4656753e-09
5.4798673e-09
5.5339691e-09
5.580057e-09
5.6527466e-09
5.7313255e-09
5.8339243e-09
5.9535692e-09
6.0982242e-09
6.2653928e-09
6.4592419e-09
6.6771742e-09
6.9170012e-09
7.1709502e-09
7.4294897e-09
7.6808238e-09
7.9144892e-09
8.1221932e-09
8.2991902e-09
8.443891e-09
8.556888e-09
8.6413308e-09
8.7089116e-09
8.7522048e-09
8.7733234e-09
8.7805995e-09
8.7823749e-09
8.7744722e-09
8.7595447e-09
8.7344153e-09
8.6774749e-09
8.6333394e-09
8.6096941e-09
8.5988008e-09
8.5941412e-09
8.591731e-09
8.5909919e-09
0.0010120022
0.0021520321
0.0025174547
0.0022169199
0.0010112162
2.201928e-05
6.8109123e-09
5.8319294e-09
5.5151287e-09
5.5225209e-09
5.4228862e-09
5.4655496e-09
5.4072735e-09
5.4599102e-09
5.4762171e-09
5.5317913e-09
5.5793439e-09
5.6529961e-09
5.7345572e-09
5.8411399e-09
5.96511e-09
6.1151356e-09
6.2884003e-09
6.48886e-09
6.7135913e-09
6.959604e-09
7.2183058e-09
7.4793011e-09
7.7303521e-09
7.9610738e-09
8.1637988e-09
8.3346622e-09
8.4726651e-09
8.578932e-09
8.6587895e-09
8.7224934e-09
8.7609136e-09
8.7785687e-09
8.7838354e-09
8.7846866e-09
8.7755722e-09
8.760384e-09
8.7316584e-09
8.6712783e-09
8.6309915e-09
8.60946e-09
8.5992735e-09
8.5946831e-09
8.5921961e-09
8.5909633e-09
0.0010019519
0.0021052302
0.0024307344
0.0020797772
0.00084138427
6.3950649e-06
6.3790544e-09
5.8104191e-09
5.5055735e-09
5.5099543e-09
5.4114085e-09
5.4527671e-09
5.404116e-09
5.4577564e-09
5.475281e-09
5.531527e-09
5.5810157e-09
5.6577095e-09
5.7427912e-09
5.8533477e-09
5.9824465e-09
6.1380937e-09
6.3178893e-09
6.5253358e-09
6.7571e-09
7.0093299e-09
7.2725207e-09
7.5354063e-09
7.7853749e-09
8.0122515e-09
8.209119e-09
8.3730421e-09
8.5035713e-09
8.6025948e-09
8.6781462e-09
8.736582e-09
8.7698736e-09
8.7838586e-09
8.787576e-09
8.7871933e-09
8.776896e-09
8.7607203e-09
8.7270859e-09
8.6662115e-09
8.6291316e-09
8.6093081e-09
8.5996991e-09
8.5951826e-09
8.5926279e-09
8.5909281e-09
0.00099225606
0.0020595265
0.0023451949
0.0019440123
0.00068775648
1.7018879e-06
6.1682166e-09
5.7948778e-09
5.4955673e-09
5.4992866e-09
5.3996112e-09
5.444807e-09
5.4031606e-09
5.4570669e-09
5.4763682e-09
5.5348163e-09
5.5872966e-09
5.6669614e-09
5.7559923e-09
5.8710878e-09
6.0055764e-09
6.1673616e-09
6.3540951e-09
6.5688684e-09
6.8078657e-09
7.0662672e-09
7.3335829e-09
7.597687e-09
7.8456903e-09
8.0677729e-09
8.2578828e-09
8.4140247e-09
8.5363152e-09
8.6277801e-09
8.6990097e-09
8.7511226e-09
8.7789978e-09
8.7894586e-09
8.7917737e-09
8.7897331e-09
8.7785474e-09
8.760798e-09
8.7209391e-09
8.6621164e-09
8.6275228e-09
8.6092359e-09
8.600169e-09
8.5956829e-09
8.593028e-09
8.5908846e-09
0.00098299584
0.0020153568
0.0022605746
0.0018059855
0.00055111078
4.6999354e-07
6.0559568e-09
5.7847818e-09
5.48583e-09
5.4890067e-09
5.3905178e-09
5.4374399e-09
5.4041398e-09
5.459926e-09
5.4817507e-09
5.5424478e-09
5.5980665e-09
5.6812068e-09
5.7745121e-09
5.8944386e-09
6.0347971e-09
6.2031238e-09
6.3972209e-09
6.6196624e-09
6.8660487e-09
7.1304945e-09
7.4014605e-09
7.6660027e-09
7.9110789e-09
8.1273717e-09
8.3097875e-09
8.4572708e-09
8.5706427e-09
8.6545428e-09
8.7209772e-09
8.7659208e-09
8.7882113e-09
8.7953203e-09
8.7962991e-09
8.7923364e-09
8.7805983e-09
8.7607275e-09
8.7141631e-09
8.6582988e-09
8.6260746e-09
8.6092027e-09
8.600684e-09
8.5962372e-09
8.5934093e-09
8.5908317e-09
0.00097412237
0.0019733228
0.0021782281
0.0016642121
0.00043325446
1.4825433e-07
6.0026851e-09
5.771952e-09
5.4831236e-09
5.4855719e-09
5.3874222e-09
5.4347599e-09
5.4093216e-09
5.4670536e-09
5.491488e-09
5.5546961e-09
5.6137536e-09
5.7005572e-09
5.7984747e-09
5.9236381e-09
6.0702656e-09
6.2455963e-09
6.4474754e-09
6.6778998e-09
6.9317736e-09
7.2020391e-09
7.4760635e-09
7.7401569e-09
7.9812672e-09
8.1907157e-09
8.3644465e-09
8.5023981e-09
8.6063599e-09
8.6830449e-09
8.7434682e-09
8.7807442e-09
8.7974505e-09
8.8017014e-09
8.800968e-09
8.7951641e-09
8.7830235e-09
8.7604884e-09
8.7071524e-09
8.6546015e-09
8.6246837e-09
8.6091707e-09
8.6012422e-09
8.5969141e-09
8.5937697e-09
8.5907666e-09
0.00096564562
0.0019334553
0.0021046276
0.0015186199
0.00033319238
5.6882127e-08
5.9739591e-09
5.76626e-09
5.487606e-09
5.4894851e-09
5.3926252e-09
5.4410991e-09
5.4192879e-09
5.4787185e-09
5.5058904e-09
5.5717139e-09
5.6344242e-09
5.7251952e-09
5.8280752e-09
5.958857e-09
6.1122052e-09
6.2949847e-09
6.5050624e-09
6.7437521e-09
7.0051372e-09
7.2808872e-09
7.5572558e-09
7.8199075e-09
8.055929e-09
8.2574074e-09
8.4214333e-09
8.549051e-09
8.6433876e-09
8.713295e-09
8.765886e-09
8.7954041e-09
8.8067626e-09
8.8086627e-09
8.805598e-09
8.7980122e-09
8.7856572e-09
8.7595168e-09
8.7001947e-09
8.6509942e-09
8.623337e-09
8.6091471e-09
8.6018142e-09
8.5977573e-09
8.5941046e-09
8.5906883e-09
0.00095745604
0.0018943622
0.0020312387
0.0013688736
0.00024379226
2.7013376e-08
5.9536646e-09
5.7629582e-09
5.4923131e-09
5.4965894e-09
5.4030682e-09
5.4531395e-09
5.4337928e-09
5.4948354e-09
5.5249348e-09
5.5935994e-09
5.660229e-09
5.7552568e-09
5.8634607e-09
6.0002771e-09
6.1607974e-09
6.3514926e-09
6.570172e-09
6.8173692e-09
7.0862029e-09
7.366983e-09
7.6448546e-09
7.9049577e-09
8.1346647e-09
8.3269793e-09
8.4802977e-09
8.5969644e-09
8.6817548e-09
8.7445311e-09
8.7880171e-09
8.8098133e-09
8.81648e-09
8.8158907e-09
8.8102015e-09
8.8008823e-09
8.7880385e-09
8.7575232e-09
8.6935314e-09
8.6475325e-09
8.6220444e-09
8.6091683e-09
8.6024508e-09
8.5987086e-09
8.5944434e-09
8.5905921e-09
0.0009497131
0.0018563428
0.0019590921
0.0012174529
0.00016482012
1.5932902e-08
5.9394204e-09
5.7635638e-09
5.5010734e-09
5.5069754e-09
5.4174767e-09
5.4689296e-09
5.4526347e-09
5.5155131e-09
5.5487517e-09
5.620451e-09
5.6912858e-09
5.7908823e-09
5.9048033e-09
6.0480837e-09
6.2162486e-09
6.4153239e-09
6.6429927e-09
6.898879e-09
7.1749999e-09
7.460221e-09
7.7386205e-09
7.9949379e-09
8.2169888e-09
8.398918e-09
8.5406467e-09
8.6460088e-09
8.721488e-09
8.7758955e-09
8.809576e-09
8.8239827e-09
8.8268975e-09
8.8231053e-09
8.814767e-09
8.8037313e-09
8.789245e-09
8.7541101e-09
8.6874158e-09
8.6442992e-09
8.6208439e-09
8.6092003e-09
8.6031541e-09
8.5997369e-09
8.5946309e-09
8.5904767e-09
0.00094242324
0.0018194011
0.0018877574
0.0010687374
9.7313798e-05
1.1258369e-08
5.9342356e-09
5.7687423e-09
5.513461e-09
5.5218233e-09
5.4358922e-09
5.4892302e-09
5.4759928e-09
5.5408212e-09
5.5773971e-09
5.652378e-09
5.7277013e-09
5.8322108e-09
5.9522559e-09
6.1024532e-09
6.2787495e-09
6.4866771e-09
6.7236955e-09
6.9883888e-09
7.271521e-09
7.5604545e-09
7.8382552e-09
8.0893932e-09
8.3023439e-09
8.4727368e-09
8.6022237e-09
8.696137e-09
8.7622772e-09
8.8064797e-09
8.830479e-09
8.838461e-09
8.8375278e-09
8.8302571e-09
8.8193287e-09
8.8066529e-09
8.7897495e-09
8.7490906e-09
8.6820192e-09
8.6413639e-09
8.6197578e-09
8.6093256e-09
8.6039198e-09
8.6008269e-09
8.5947361e-09
8.5903423e-09
0.00093531206
0.0017811626
0.0018163585
0.00093091663
4.7286973e-05
9.0946238e-09
5.934436e-09
5.7785652e-09
5.5300388e-09
5.5406282e-09
5.4587042e-09
5.5138569e-09
5.5038788e-09
5.5708075e-09
5.6109688e-09
5.6894637e-09
5.7696031e-09
5.8793919e-09
6.0059911e-09
6.1635824e-09
6.3485006e-09
6.5657568e-09
6.8124471e-09
7.0859785e-09
7.3757148e-09
7.6674747e-09
7.9433717e-09
8.1877715e-09
8.3901622e-09
8.5480803e-09
8.6649271e-09
8.7472544e-09
8.80294e-09
8.8360148e-09
8.8508608e-09
8.8535489e-09
8.848004e-09
8.8372621e-09
8.8239212e-09
8.809853e-09
8.789843e-09
8.7426688e-09
8.6772855e-09
8.6387889e-09
8.6188223e-09
8.6095299e-09
8.6047244e-09
8.601957e-09
8.5948019e-09
8.59019e-09
0.00092821214
0.0017413239
0.0017435101
0.00080249834
1.8631509e-05
8.0213084e-09
5.9398736e-09
5.7925078e-09
5.5506012e-09
5.5643164e-09
5.4857605e-09
5.5429057e-09
5.5363474e-09
5.6055622e-09
5.6495437e-09
5.7318379e-09
5.8171207e-09
5.9325689e-09
6.0661735e-09
6.2316568e-09
6.4257147e-09
6.6527641e-09
6.9094056e-09
7.1917096e-09
7.4874955e-09
7.7810118e-09
8.0534909e-09
8.2894606e-09
8.4799803e-09
8.6247838e-09
8.7286519e-09
8.7988301e-09
8.8424591e-09
8.8643854e-09
8.8714418e-09
8.8685881e-09
8.8582603e-09
8.8440559e-09
8.8285555e-09
8.8135675e-09
8.7897519e-09
8.7355122e-09
8.6728214e-09
8.6366216e-09
8.6182406e-09
8.6098216e-09
8.6055256e-09
8.6030662e-09
8.5948538e-09
8.5900213e-09
0.00092105389
0.0016996101
0.0016680455
0.00068381266
6.3186823e-06
7.4661277e-09
5.9501658e-09
5.8106914e-09
5.5753249e-09
5.591952e-09
5.5171533e-09
5.5764143e-09
5.5734948e-09
5.6451667e-09
5.6932353e-09
5.7795963e-09
5.8703821e-09
5.991899e-09
6.1329877e-09
6.3068868e-09
6.5106125e-09
6.7479041e-09
7.0147152e-09
7.3056039e-09
7.6067121e-09
7.9006927e-09
8.1680243e-09
8.3938635e-09
8.5715457e-09
8.7027725e-09
8.7929325e-09
8.8494882e-09
8.8805188e-09
8.8920764e-09
8.8922152e-09
8.8832726e-09
8.8681781e-09
8.8505641e-09
8.8331784e-09
8.8177662e-09
8.7894707e-09
8.7279615e-09
8.6685418e-09
8.6348004e-09
8.6179834e-09
8.6102043e-09
8.6062982e-09
8.6040357e-09
8.5948997e-09
8.5898379e-09
0.00091353712
0.0016551359
0.0015872301
0.00057517692
2.0282228e-06
7.172285e-09
5.9651155e-09
5.8330914e-09
5.6044134e-09
5.6240024e-09
5.5529855e-09
5.6144931e-09
5.6153903e-09
5.6897251e-09
5.7421177e-09
5.8328705e-09
5.9295205e-09
6.0575386e-09
6.2066171e-09
6.389486e-09
6.6034196e-09
6.851384e-09
7.1285102e-09
7.4276597e-09
7.7331571e-09
8.0260517e-09
8.286333e-09
8.5005373e-09
8.6648007e-09
8.7816899e-09
8.8564794e-09
8.8985155e-09
8.9171346e-09
8.9198568e-09
8.9124704e-09
8.8974851e-09
8.8776872e-09
8.856735e-09
8.8376667e-09
8.8218817e-09
8.7883646e-09
8.7203161e-09
8.6644438e-09
8.6331999e-09
8.6178941e-09
8.610716e-09
8.6070863e-09
8.6048318e-09
8.5949445e-09
8.5896426e-09
0.00090565781
0.0016078225
0.0014957362
0.00047736397
6.6947597e-07
7.0159632e-09
5.9850648e-09
5.8599405e-09
5.6380208e-09
5.6604111e-09
5.5932963e-09
5.6571567e-09
5.6620928e-09
5.739261e-09
5.7962975e-09
5.8917606e-09
5.9946745e-09
6.1296657e-09
6.2872764e-09
6.4796988e-09
6.704385e-09
6.963411e-09
7.2508968e-09
7.5578087e-09
7.8665092e-09
8.1565019e-09
8.4077987e-09
8.6092895e-09
8.7595641e-09
8.8602653e-09
8.9183803e-09
8.9455995e-09
8.9532542e-09
8.9470337e-09
8.9320862e-09
8.9111087e-09
8.8867198e-09
8.8625535e-09
8.841889e-09
8.8246152e-09
8.7861592e-09
8.7128838e-09
8.6605603e-09
8.6317361e-09
8.617885e-09
8.6114171e-09
8.608017e-09
8.605464e-09
8.5949875e-09
8.5894369e-09
0.00089760115
0.0015589639
0.0013970799
0.00039268456
2.4232998e-07
6.9338263e-09
6.009846e-09
5.8910358e-09
5.6757926e-09
5.701146e-09
5.638074e-09
5.7044329e-09
5.7136497e-09
5.7938841e-09
5.8558594e-09
5.9563897e-09
6.0659982e-09
6.2084696e-09
6.3751956e-09
6.5777827e-09
6.8137671e-09
7.0842004e-09
7.381976e-09
7.695935e-09
8.006358e-09
8.2914036e-09
8.5319728e-09
8.7201186e-09
8.8548379e-09
8.9372741e-09
8.9779773e-09
8.9914182e-09
8.9887193e-09
8.9732772e-09
8.9508874e-09
8.924062e-09
8.895225e-09
8.8680539e-09
8.8458363e-09
8.8257209e-09
8.7823481e-09
8.7060031e-09
8.6569465e-09
8.630422e-09
8.6179883e-09
8.6123485e-09
8.6092929e-09
8.6057428e-09
8.5950317e-09
8.5892251e-09
0.00088928856
0.0015086523
0.0012915602
0.00031964865
9.9639989e-08
6.8937522e-09
6.0391391e-09
5.9263867e-09
5.7178145e-09
5.7462295e-09
5.6873559e-09
5.7563758e-09
5.7701612e-09
5.8536553e-09
5.9209231e-09
6.0268838e-09
6.1436704e-09
6.2941862e-09
6.4706484e-09
6.684037e-09
6.9318435e-09
7.2139619e-09
7.5217875e-09
7.8418157e-09
8.1521548e-09
8.430118e-09
8.6586547e-09
8.8327559e-09
8.9489706e-09
9.0116885e-09
9.0354428e-09
9.0366545e-09
9.0227468e-09
8.9984294e-09
8.9687907e-09
8.9362723e-09
8.9031595e-09
8.8733106e-09
8.849727e-09
8.8260647e-09
8.7766458e-09
8.6999027e-09
8.6536661e-09
8.6293089e-09
8.6183957e-09
8.6135946e-09
8.610908e-09
8.6058844e-09
8.5950748e-09
8.5890063e-09
0.00088080051
0.0014564657
0.0011846691
0.00024948051
4.6953351e-08
6.8786151e-09
6.0727576e-09
5.9659592e-09
5.7640722e-09
5.7956876e-09
5.7412113e-09
5.813063e-09
5.8317456e-09
5.9186896e-09
5.9915936e-09
6.1034195e-09
6.2279094e-09
6.3870781e-09
6.573938e-09
6.7987748e-09
7.0589105e-09
7.3528977e-09
7.6703415e-09
7.9951352e-09
8.3032968e-09
8.5721613e-09
8.7878426e-09
8.9456604e-09
9.0407794e-09
9.0830049e-09
9.0919861e-09
9.0802058e-09
9.0553284e-09
9.0223536e-09
8.9857111e-09
8.9476829e-09
8.910482e-09
8.8783923e-09
8.8539389e-09
8.8260383e-09
8.7692865e-09
8.6944594e-09
8.6507977e-09
8.6284394e-09
8.6189799e-09
8.6150461e-09
8.6128283e-09
8.6059537e-09
8.5950792e-09
8.5887809e-09
0.00087222958
0.0014012664
0.0010828195
0.00018502332
2.6104885e-08
6.8792362e-09
6.1106612e-09
6.009761e-09
5.8146643e-09
5.8496273e-09
5.7997145e-09
5.8745516e-09
5.8983251e-09
5.9890567e-09
6.0680329e-09
6.1862041e-09
6.3189901e-09
6.487468e-09
6.6854121e-09
6.9223434e-09
7.1952676e-09
7.5011694e-09
7.8275311e-09
8.1554251e-09
8.4591382e-09
8.7172599e-09
8.9192406e-09
9.0569521e-09
9.1291893e-09
9.152209e-09
9.146954e-09
9.1219148e-09
9.0862677e-09
9.0449519e-09
9.001596e-09
8.9582448e-09
8.9171551e-09
8.8832876e-09
8.8586017e-09
8.8258747e-09
8.7609714e-09
8.6892646e-09
8.6483821e-09
8.6280967e-09
8.6196911e-09
8.6165499e-09
8.614875e-09
8.6059913e-09
8.5949721e-09
8.5885503e-09
0.00086453065
0.0013513035
0.00097957444
0.00012583969
1.7023374e-08
6.8910686e-09
6.1530173e-09
6.058015e-09
5.8696778e-09
5.9080496e-09
5.8628922e-09
5.9408729e-09
5.9700422e-09
6.0649383e-09
6.1504612e-09
6.2755278e-09
6.4172277e-09
6.5957049e-09
6.8054385e-09
7.0551104e-09
7.341224e-09
7.6589185e-09
7.9931775e-09
8.322149e-09
8.6191397e-09
8.8653559e-09
9.0510809e-09
9.1653067e-09
9.2138837e-09
9.2202578e-09
9.1995048e-09
9.1615391e-09
9.1154806e-09
9.0661459e-09
9.0163901e-09
8.9678965e-09
8.9231449e-09
8.8878709e-09
8.8630826e-09
8.8247023e-09
8.7521177e-09
8.6842792e-09
8.6463163e-09
8.6279839e-09
8.6204551e-09
8.617899e-09
8.6166881e-09
8.6060181e-09
8.5947971e-09
8.5883158e-09
0.00085734254
0.0013018879
0.00087733245
7.545117e-05
1.2678289e-08
6.9102673e-09
6.1994668e-09
6.1104449e-09
5.9289577e-09
5.9709355e-09
5.9307666e-09
6.012155e-09
6.0470992e-09
6.1465834e-09
6.2391813e-09
6.3717141e-09
6.5229887e-09
6.7121875e-09
6.9344258e-09
7.1974685e-09
7.4970604e-09
7.8261906e-09
8.1669334e-09
8.4946824e-09
8.7828938e-09
9.0161996e-09
9.1812985e-09
9.2695077e-09
9.2962439e-09
9.2858839e-09
9.249548e-09
9.1989564e-09
9.1428748e-09
9.0858848e-09
9.0300169e-09
8.9765527e-09
8.9284357e-09
8.892002e-09
8.865709e-09
8.8225517e-09
8.743095e-09
8.679573e-09
8.644557e-09
8.6280018e-09
8.6212609e-09
8.6189828e-09
8.61794e-09
8.60605e-09
8.5945837e-09
8.5880793e-09
0.00085056983
0.0012519176
0.00077738184
3.8598721e-05
1.0458603e-08
6.9355263e-09
6.2502551e-09
6.1671733e-09
5.992627e-09
6.0384221e-09
6.003559e-09
6.088657e-09
6.1298024e-09
6.2343243e-09
6.3345289e-09
6.4751309e-09
6.6366613e-09
6.837332e-09
7.0728113e-09
7.3498359e-09
7.6630715e-09
8.0029676e-09
8.3483702e-09
8.6724562e-09
8.9502264e-09
9.1682124e-09
9.3082736e-09
9.3693398e-09
9.376807e-09
9.3484312e-09
9.2968365e-09
9.2340543e-09
9.168395e-09
9.1041085e-09
9.0423631e-09
8.984117e-09
8.9330502e-09
8.8957184e-09
8.8668396e-09
8.8190438e-09
8.7343251e-09
8.6752532e-09
8.6431505e-09
8.6282447e-09
8.6222324e-09
8.6198711e-09
8.6184195e-09
8.606083e-09
8.5943509e-09
8.5878427e-09
0.00084445673
0.001201166
0.00068124209
1.6914544e-05
9.273061e-09
6.9669614e-09
6.3052462e-09
6.2282815e-09
6.0608984e-09
6.1107842e-09
6.0816151e-09
6.1707422e-09
6.2185038e-09
6.3284961e-09
6.4368488e-09
6.586151e-09
6.7586736e-09
6.9716028e-09
7.2210614e-09
7.5125921e-09
7.8394572e-09
8.1890562e-09
8.5369066e-09
8.854933e-09
9.1209686e-09
9.3191448e-09
9.4305605e-09
9.4661626e-09
9.4543332e-09
9.4076933e-09
9.34126e-09
9.2667675e-09
9.1919925e-09
9.1207201e-09
9.0533188e-09
8.9905713e-09
8.9370795e-09
8.8992677e-09
8.8671712e-09
8.8137313e-09
8.7263245e-09
8.6714236e-09
8.642135e-09
8.6289084e-09
8.6234787e-09
8.6209061e-09
8.6186215e-09
8.6059986e-09
8.5941045e-09
8.5876082e-09
0.0008390475
0.0011498161
0.00059018581
6.675454e-06
8.6252617e-09
7.0062659e-09
6.3646742e-09
6.2942554e-09
6.1342241e-09
6.1885049e-09
6.1653491e-09
6.2587524e-09
6.3134986e-09
6.4294099e-09
6.5464949e-09
6.7052017e-09
6.8894899e-09
7.1155029e-09
7.3796804e-09
7.6861722e-09
8.0263729e-09
8.3841871e-09
8.731993e-09
9.0417662e-09
9.2941491e-09
9.4668818e-09
9.5475113e-09
9.5607641e-09
9.5279714e-09
9.4634387e-09
9.3826988e-09
9.297059e-09
9.2136402e-09
9.1356559e-09
9.0628609e-09
8.996101e-09
8.9406941e-09
8.9028909e-09
8.8671781e-09
8.8062761e-09
8.7194832e-09
8.6681498e-09
8.6414081e-09
8.6297575e-09
8.6249275e-09
8.6225107e-09
8.618707e-09
8.6057081e-09
8.5938419e-09
8.587378e-09
0.00083449866
0.0011014169
0.00050495792
2.5243618e-06
8.2706265e-09
7.0539174e-09
6.4293969e-09
6.3656035e-09
6.2130973e-09
6.2718844e-09
6.2549853e-09
6.3528914e-09
6.4150339e-09
6.537388e-09
6.6638824e-09
6.832742e-09
7.029635e-09
7.2695732e-09
7.5491911e-09
7.8709286e-09
8.2238172e-09
8.5878766e-09
8.9330556e-09
9.2327176e-09
9.4673428e-09
9.6098251e-09
9.6604258e-09
9.6517726e-09
9.5975315e-09
9.5155299e-09
9.4210889e-09
9.3249182e-09
9.233328e-09
9.1489402e-09
9.0711648e-09
9.00113e-09
8.9441123e-09
8.906311e-09
8.8664855e-09
8.797289e-09
8.7134647e-09
8.6654074e-09
8.6411047e-09
8.6307315e-09
8.6266427e-09
8.6245753e-09
8.6187568e-09
8.6052858e-09
8.5935592e-09
8.5871542e-09
0.00082994226
0.0010467057
0.00042575135
9.7001487e-07
8.0835387e-09
7.1066601e-09
6.4997859e-09
6.4424014e-09
6.2975268e-09
6.3609043e-09
6.3506297e-09
6.4533611e-09
6.5234244e-09
6.6528521e-09
6.7894587e-09
6.9693156e-09
7.1796747e-09
7.4344125e-09
7.7301341e-09
8.0672184e-09
8.4317013e-09
8.7996463e-09
9.1396208e-09
9.4274474e-09
9.6379053e-09
9.746518e-09
9.7706766e-09
9.7381161e-09
9.6627391e-09
9.5638637e-09
9.4564044e-09
9.3503225e-09
9.2510412e-09
9.1606102e-09
9.0786172e-09
9.0060212e-09
8.9474555e-09
8.9083494e-09
8.8645443e-09
8.7875397e-09
8.7078752e-09
8.6630612e-09
8.6410151e-09
8.631748e-09
8.6283776e-09
8.6267544e-09
8.6187705e-09
8.6047876e-09
8.5932562e-09
8.5869387e-09
0.00082551934
0.00098927282
0.00035342136
3.9840927e-07
7.9942393e-09
7.1648259e-09
6.5749803e-09
6.5244043e-09
6.3873811e-09
6.4556963e-09
6.4525235e-09
6.5605317e-09
6.6391027e-09
6.7762575e-09
6.923781e-09
7.1155125e-09
7.3402389e-09
7.6106425e-09
7.9230369e-09
8.2752342e-09
8.6497249e-09
9.0188966e-09
9.351215e-09
9.6238509e-09
9.8039032e-09
9.8780108e-09
9.8768786e-09
9.8194916e-09
9.7234464e-09
9.6083904e-09
9.4886542e-09
9.373273e-09
9.2667721e-09
9.1708129e-09
9.0855928e-09
9.0103822e-09
8.9504399e-09
8.9092874e-09
8.8614764e-09
8.7774733e-09
8.7026335e-09
8.6610755e-09
8.6410377e-09
8.6327707e-09
8.6298031e-09
8.6283994e-09
8.6187851e-09
8.6042439e-09
8.5929432e-09
8.5867333e-09
0.00082077286
0.00092709751
0.00028770709
1.8237098e-07
7.9601062e-09
7.2279245e-09
6.655288e-09
6.6116895e-09
6.4830762e-09
6.5566916e-09
6.5611519e-09
6.6748834e-09
6.7625668e-09
6.908097e-09
7.0674456e-09
7.2719696e-09
7.5119992e-09
7.7989306e-09
8.1284251e-09
8.4951191e-09
8.8775335e-09
9.2451488e-09
9.5675626e-09
9.819225e-09
9.9634268e-09
1.0005583e-08
9.9779214e-09
9.8955997e-09
9.7795413e-09
9.6491047e-09
9.5178654e-09
9.3937937e-09
9.2805639e-09
9.1798283e-09
9.0918864e-09
9.012342e-09
8.9519246e-09
8.9096749e-09
8.8572998e-09
8.7673872e-09
8.6978129e-09
8.6595597e-09
8.6413488e-09
8.6337953e-09
8.6307882e-09
8.6290532e-09
8.618799e-09
8.603675e-09
8.592628e-09
8.5865397e-09
0.0008155027
0.00086147052
0.00022869783
9.4936417e-08
7.9595279e-09
7.2968754e-09
6.7413387e-09
6.7050778e-09
6.5851883e-09
6.6644319e-09
6.6770276e-09
6.7969252e-09
6.8943681e-09
7.0490854e-09
7.2210951e-09
7.4393898e-09
7.6956741e-09
7.9999456e-09
8.3467041e-09
8.726774e-09
9.1145749e-09
9.4778157e-09
9.7877513e-09
1.0010618e-08
1.011616e-08
1.0129086e-08
1.0072961e-08
9.9662592e-09
9.8309825e-09
9.6860439e-09
9.5440733e-09
9.4118992e-09
9.2925679e-09
9.1879797e-09
9.0960573e-09
9.0132158e-09
8.9526461e-09
8.9098252e-09
8.8518692e-09
8.7576898e-09
8.6935096e-09
8.6585452e-09
8.6420161e-09
8.6348612e-09
8.6315636e-09
8.6293559e-09
8.6185482e-09
8.6030945e-09
8.5923161e-09
8.5863593e-09
0.00080910862
0.0007917744
0.00017717362
5.6209872e-08
7.9815301e-09
7.372008e-09
6.8337002e-09
6.8049925e-09
6.6941696e-09
6.779339e-09
6.8006122e-09
6.9271779e-09
7.0350748e-09
7.1999014e-09
7.3854325e-09
7.6185166e-09
7.8920395e-09
8.2143787e-09
8.5782392e-09
8.9700303e-09
9.360379e-09
9.716433e-09
1.0008996e-08
1.019606e-08
1.0263286e-08
1.0247031e-08
1.0161774e-08
1.0031345e-08
9.8777873e-09
9.7192705e-09
9.5673043e-09
9.4276331e-09
9.3030466e-09
9.1953482e-09
9.0976745e-09
9.0134663e-09
8.9529514e-09
8.909494e-09
8.8447916e-09
8.7489712e-09
8.6898149e-09
8.6579066e-09
8.6428789e-09
8.636074e-09
8.6325325e-09
8.6294802e-09
8.6180687e-09
8.6025102e-09
8.5920119e-09
8.5861935e-09
0.0008017225
0.00071467526
0.00013216249
3.7283738e-08
8.0198219e-09
7.4536195e-09
6.932646e-09
6.911691e-09
6.8103929e-09
6.9018481e-09
6.9324245e-09
7.0662153e-09
7.1853455e-09
7.3612006e-09
7.5612235e-09
7.8101725e-09
8.1019089e-09
8.4428583e-09
8.8231801e-09
9.2244493e-09
9.6143056e-09
9.9603878e-09
1.0228038e-08
1.0373539e-08
1.04063e-08
1.03579e-08
1.0244074e-08
1.0090819e-08
9.920019e-09
9.7488452e-09
9.5875833e-09
9.4411639e-09
9.3123616e-09
9.2011132e-09
9.0982258e-09
9.0135649e-09
8.9531418e-09
8.9079805e-09
8.8357965e-09
8.7417037e-09
8.6867656e-09
8.6575311e-09
8.6437769e-09
8.6374289e-09
8.6340474e-09
8.6295267e-09
8.6173709e-09
8.6019284e-09
8.5917191e-09
8.5860435e-09
0.00079506304
0.0006423025
9.4746072e-05
2.7232163e-08
8.0710594e-09
7.5418876e-09
7.038369e-09
7.0256499e-09
6.934296e-09
7.0325444e-09
7.0730444e-09
7.214707e-09
7.3458653e-09
7.5337459e-09
7.7493093e-09
8.0152517e-09
8.326151e-09
8.6859973e-09
9.0816196e-09
9.4896409e-09
9.8757791e-09
1.0208077e-08
1.0441902e-08
1.0543917e-08
1.0543317e-08
1.0461507e-08
1.0319736e-08
1.0144714e-08
9.9577608e-09
9.7748087e-09
9.6049921e-09
9.4528276e-09
9.3207828e-09
9.2034544e-09
9.0983106e-09
9.0132523e-09
8.9530661e-09
8.9051728e-09
8.8255796e-09
8.7355915e-09
8.6842881e-09
8.6574152e-09
8.64467e-09
8.6388285e-09
8.6357894e-09
8.6295446e-09
8.6165122e-09
8.6013531e-09
8.5914389e-09
8.5859109e-09
0.00079086782
0.00059089393
6.5442387e-05
2.1453596e-08
8.1331364e-09
7.6373227e-09
7.1515327e-09
7.1473336e-09
7.066537e-09
7.171999e-09
7.2231412e-09
7.3733234e-09
7.5174109e-09
7.7183952e-09
7.9506212e-09
8.2347304e-09
8.5656042e-09
8.9442216e-09
9.3533133e-09
9.7650245e-09
1.0144069e-08
1.0456068e-08
1.0648014e-08
1.0708453e-08
1.0672911e-08
1.0557435e-08
1.0388692e-08
1.0193104e-08
9.991078e-09
9.7972088e-09
9.6197803e-09
9.4630764e-09
9.327811e-09
9.2043901e-09
9.0980619e-09
9.0124477e-09
8.9524079e-09
8.9010075e-09
8.8150267e-09
8.7301676e-09
8.682252e-09
8.6574304e-09
8.6455348e-09
8.6399449e-09
8.6368719e-09
8.6295478e-09
8.6155556e-09
8.6007876e-09
8.5911716e-09
8.5857968e-09
0.00078763097
0.00054375539
4.2966375e-05
1.7906201e-08
8.2048723e-09
7.7406297e-09
7.2724173e-09
7.2774467e-09
7.2076721e-09
7.3208167e-09
7.3833634e-09
7.5428315e-09
7.7008408e-09
7.9160963e-09
8.1661905e-09
8.4696302e-09
8.8211343e-09
9.2178624e-09
9.6380062e-09
1.0050038e-08
1.0418502e-08
1.0700724e-08
1.084525e-08
1.086721e-08
1.0793897e-08
1.0645537e-08
1.045098e-08
1.0236082e-08
1.002002e-08
9.8162022e-09
9.6324348e-09
9.472219e-09
9.3312133e-09
9.2046031e-09
9.0969584e-09
9.011211e-09
8.9511558e-09
8.8955999e-09
8.8045764e-09
8.725262e-09
8.680626e-09
8.6575534e-09
8.646293e-09
8.6407068e-09
8.6373942e-09
8.6294286e-09
8.614554e-09
8.6002352e-09
8.5909199e-09
8.5857025e-09
0.0007856189
0.00050345333
2.7106347e-05
1.5640613e-08
8.2862915e-09
7.8519461e-09
7.4018116e-09
7.4163404e-09
7.3582844e-09
7.4796407e-09
7.5544743e-09
7.7241151e-09
7.8971387e-09
8.1279456e-09
8.3971555e-09
8.7210363e-09
9.0934438e-09
9.5069731e-09
9.9351191e-09
1.0343732e-08
1.0696327e-08
1.0938725e-08
1.1034517e-08
1.1018186e-08
1.0905998e-08
1.072569e-08
1.0506673e-08
1.0273725e-08
1.0044695e-08
9.8322046e-09
9.6435435e-09
9.4797983e-09
9.33264e-09
9.2044775e-09
9.0952031e-09
9.0095575e-09
8.9492449e-09
8.8891199e-09
8.7944828e-09
8.720827e-09
8.6793775e-09
8.6578515e-09
8.6469819e-09
8.641239e-09
8.6376259e-09
8.6290612e-09
8.6135424e-09
8.5996988e-09
8.5906869e-09
8.5856286e-09
0.00078489187
0.0004689477
1.6533546e-05
1.4146166e-08
8.377015e-09
7.9715614e-09
7.5402004e-09
7.5646318e-09
7.5190457e-09
7.6492862e-09
7.7374075e-09
7.9182123e-09
8.1074468e-09
8.3551487e-09
8.6447453e-09
8.9900514e-09
9.3831818e-09
9.811521e-09
1.0244215e-08
1.0645309e-08
1.0973629e-08
1.1167084e-08
1.1217715e-08
1.1159492e-08
1.100889e-08
1.0797922e-08
1.0555873e-08
1.0306129e-08
1.0065437e-08
9.8459201e-09
9.653305e-09
9.4835583e-09
9.3330353e-09
9.2032435e-09
9.0928065e-09
9.0075195e-09
8.9466501e-09
8.8817488e-09
8.7849738e-09
8.7168488e-09
8.6783766e-09
8.6581888e-09
8.6476988e-09
8.6418102e-09
8.6377341e-09
8.6284495e-09
8.6125431e-09
8.5991841e-09
8.5904756e-09
8.5855755e-09
0.00078567692
0.00044027884
9.8090539e-06
1.3141298e-08
8.4771219e-09
8.1002887e-09
7.6880218e-09
7.7231607e-09
7.6908854e-09
7.8307688e-09
7.9332603e-09
8.1263094e-09
8.333033e-09
8.5990448e-09
8.9102875e-09
9.2776938e-09
9.6907005e-09
1.0131073e-08
1.0564431e-08
1.0953417e-08
1.1245806e-08
1.1385765e-08
1.1392834e-08
1.1290514e-08
1.1102421e-08
1.0862292e-08
1.0598684e-08
1.0333519e-08
1.0082921e-08
9.8579744e-09
9.6606633e-09
9.4851281e-09
9.3329567e-09
9.2011655e-09
9.0898588e-09
9.005094e-09
8.9432982e-09
8.8735861e-09
8.7762928e-09
8.7133526e-09
8.6775783e-09
8.6585439e-09
8.6484036e-09
8.6427019e-09
8.6377853e-09
8.627618e-09
8.6115638e-09
8.5986947e-09
8.5902903e-09
8.585544e-09
0.00078778913
0.00041762404
5.6683369e-06
1.2462375e-08
8.5872341e-09
8.2389332e-09
7.8463586e-09
7.8929611e-09
7.8749134e-09
8.0252283e-09
8.1432642e-09
8.349724e-09
8.5752759e-09
8.8610646e-09
9.1951201e-09
9.5849263e-09
1.0016241e-08