/*--------------------------------*- C++ -*----------------------------------*\
  =========                 |
  \\      /  F ield         | OpenFOAM: The Open Source CFD Toolbox
   \\    /   O peration     | Website:  https://openfoam.org
    \\  /    A nd           | Version:  8
     \\/     M anipulation  |
\*---------------------------------------------------------------------------*/
FoamFile
{
    version     2.0;
    format      ascii;
    class       volVectorField;
    location    "0.0599932";
    object      cellDisplacement;
}
// * * * * * * * * * * * * * * * * * * * * * * * * * * * * * * * * * * * * * //

dimensions      [0 1 0 0 0 0 0];

internalField   nonuniform List<vector> 
20000
(
(-0.0014797327 0 -0.0011003293)
(-0.0014797184 0 -0.0011003894)
(-0.0014796873 0 -0.0011006831)
(-0.001479629 0 -0.0011010582)
(-0.0014795316 0 -0.0011015355)
(-0.001479379 0 -0.0011021433)
(-0.0014791484 0 -0.0011029222)
(-0.0014788094 0 -0.0011039232)
(-0.0014783198 0 -0.0011052196)
(-0.0014776233 0 -0.0011069081)
(-0.0014766436 0 -0.0011091272)
(-0.0014752797 0 -0.0011120653)
(-0.001473397 0 -0.0011159885)
(-0.0014708198 0 -0.001121263)
(-0.0014673197 0 -0.0011283964)
(-0.0014626036 0 -0.001138084)
(-0.0014563022 0 -0.0011512902)
(-0.0014479576 0 -0.0011692673)
(-0.0014370159 0 -0.0011937699)
(-0.0014228234 0 -0.0012270877)
(-0.0014046405 0 -0.0012722089)
(-0.0013816741 0 -0.0013328948)
(-0.0013531363 0 -0.0014136965)
(-0.0013183336 0 -0.0015198012)
(-0.0012767756 0 -0.0016566452)
(-0.0012282833 0 -0.0018292353)
(-0.0011731014 0 -0.0020410719)
(-0.0011119568 0 -0.0022925106)
(-0.0010460532 0 -0.0025797347)
(-0.00097678576 0 -0.0028950304)
(-0.00090563583 0 -0.0032263077)
(-0.00083423148 0 -0.0035583477)
(-0.00076428516 0 -0.0038734079)
(-0.00069711958 0 -0.00415621)
(-0.00063374904 0 -0.0043937506)
(-0.00057446791 0 -0.0045792545)
(-0.00051960765 0 -0.0047070491)
(-0.00046880369 0 -0.0047764827)
(-0.00042184136 0 -0.0047858003)
(-0.00037808412 0 -0.0047360958)
(-0.00033729802 0 -0.004627269)
(-0.00029891378 0 -0.004461364)
(-0.00026408838 0 -0.004241501)
(-0.00022880172 0 -0.0039473929)
(-0.00019413687 0 -0.0035822316)
(-0.00015887643 0 -0.0031304579)
(-0.00012409276 0 -0.0026002587)
(-9.2677443e-05 0 -0.0020203463)
(-5.6527302e-05 0 -0.0012997865)
(-9.6228067e-06 0 -0.00029643986)
(-0.0014764786 0 -0.00089556825)
(-0.0014764651 0 -0.00089566455)
(-0.001476432 0 -0.00089579002)
(-0.0014763708 0 -0.00089595852)
(-0.0014762695 0 -0.00089618874)
(-0.0014761115 0 -0.00089650425)
(-0.0014758739 0 -0.00089693892)
(-0.0014755252 0 -0.00089753877)
(-0.0014750227 0 -0.00089837008)
(-0.0014743092 0 -0.00089952299)
(-0.001473307 0 -0.00090112648)
(-0.0014719137 0 -0.00090335708)
(-0.001469993 0 -0.00090646573)
(-0.0014673667 0 -0.0009108025)
(-0.001463804 0 -0.00091685759)
(-0.0014590083 0 -0.00092531649)
(-0.0014526081 0 -0.00093711819)
(-0.0014441419 0 -0.00095354938)
(-0.0014330534 0 -0.00097634942)
(-0.0014186888 0 -0.0010078568)
(-0.001400312 0 -0.0010511243)
(-0.0013771398 0 -0.0011100134)
(-0.0013484015 0 -0.0011892157)
(-0.0013134309 0 -0.0012941002)
(-0.0012717719 0 -0.0014303242)
(-0.001223291 0 -0.0016031148)
(-0.0011682685 0 -0.0018162121)
(-0.0011074614 0 -0.0020701885)
(-0.0010420572 0 -0.0023615694)
(-0.00097342042 0 -0.0026828889)
(-0.00090298417 0 -0.0030222538)
(-0.00083230832 0 -0.0033644719)
(-0.0007630186 0 -0.0036918001)
(-0.00069640142 0 -0.0039885719)
(-0.00063344076 0 -0.0042413608)
(-0.00057447051 0 -0.004442602)
(-0.0005198143 0 -0.0045861823)
(-0.00046915748 0 -0.0046708933)
(-0.00042229669 0 -0.004694866)
(-0.00037863102 0 -0.0046589052)
(-0.00033791802 0 -0.0045629316)
(-0.00029960777 0 -0.0044086704)
(-0.00026466026 0 -0.0041987315)
(-0.00022949524 0 -0.0039148821)
(-0.00019489092 0 -0.0035587783)
(-0.00015974462 0 -0.0031159882)
(-0.00012501276 0 -0.0025934153)
(-9.3190151e-05 0 -0.0020150108)
(-5.69076e-05 0 -0.0012969858)
(-1.0499515e-05 0 -0.0003075248)
(-0.0014724997 0 -0.00069523425)
(-0.0014724836 0 -0.0006952049)
(-0.0014724469 0 -0.00069517903)
(-0.0014723812 0 -0.000695169)
(-0.001472274 0 -0.00069518615)
(-0.0014721086 0 -0.00069524823)
(-0.0014718612 0 -0.00069538086)
(-0.0014715001 0 -0.00069562203)
(-0.0014709814 0 -0.00069602673)
(-0.0014702468 0 -0.00069667381)
(-0.0014692172 0 -0.00069768015)
(-0.0014677887 0 -0.0006992091)
(-0.0014658223 0 -0.00070150179)
(-0.0014631383 0 -0.0007048939)
(-0.0014595014 0 -0.00070986698)
(-0.0014546141 0 -0.0007170959)
(-0.0014480991 0 -0.00072750732)
(-0.0014394935 0 -0.00074239495)
(-0.001428238 0 -0.00076351704)
(-0.0014136788 0 -0.0007932539)
(-0.0013950847 0 -0.00083472314)
(-0.0013716826 0 -0.00089188764)
(-0.0013427217 0 -0.00096957648)
(-0.001307565 0 -0.0010733358)
(-0.0012657945 0 -0.0012090314)
(-0.0012173253 0 -0.0013820889)
(-0.0011624749 0 -0.0015964535)
(-0.0011020331 0 -0.0018528848)
(-0.0010371702 0 -0.0021482222)
(-0.0009692183 0 -0.0024752269)
(-0.00089956174 0 -0.0028221872)
(-0.00082968645 0 -0.0031739724)
(-0.00076113488 0 -0.0035128415)
(-0.00069514481 0 -0.0038228522)
(-0.00063267404 0 -0.0040901655)
(-0.00057408244 0 -0.0043065308)
(-0.00051969379 0 -0.0044653695)
(-0.00046923484 0 -0.0045649642)
(-0.00042251958 0 -0.0046032753)
(-0.00037897895 0 -0.0045808414)
(-0.00033836796 0 -0.0044975524)
(-0.00030015387 0 -0.0043548585)
(-0.00026512506 0 -0.0041548816)
(-0.00023008344 0 -0.0038811959)
(-0.00019555669 0 -0.0035341785)
(-0.00016053343 0 -0.0031003544)
(-0.00012586374 0 -0.002585438)
(-9.3678894e-05 0 -0.002009037)
(-5.7274079e-05 0 -0.0012938522)
(-1.1315409e-05 0 -0.00031756205)
(-0.0014678168 0 -0.00049923693)
(-0.0014677977 0 -0.00049910149)
(-0.0014677573 0 -0.00049894925)
(-0.0014676864 0 -0.00049878111)
(-0.0014675722 0 -0.00049859926)
(-0.0014673973 0 -0.00049841516)
(-0.0014671376 0 -0.00049824593)
(-0.0014667602 0 -0.00049812337)
(-0.001466221 0 -0.00049809167)
(-0.0014654598 0 -0.00049822492)
(-0.001464397 0 -0.00049862609)
(-0.0014629257 0 -0.00049945362)
(-0.0014609059 0 -0.0005009315)
(-0.0014581538 0 -0.00050338625)
(-0.0014544325 0 -0.00050728755)
(-0.0014494389 0 -0.00051328806)
(-0.0014427941 0 -0.00052233219)
(-0.0014340304 0 -0.00053569676)
(-0.0014225866 0 -0.00055517477)
(-0.0014078095 0 -0.00058317941)
(-0.0013889725 0 -0.00062289879)
(-0.0013653149 0 -0.00067840177)
(-0.0013361075 0 -0.0007546583)
(-0.0013007454 0 -0.00085738858)
(-0.0012588527 0 -0.00099265139)
(-0.0012103946 0 -0.0011660541)
(-0.0011557303 0 -0.0013817197)
(-0.0010956807 0 -0.0016405631)
(-0.0010314009 0 -0.0019396965)
(-0.00096418945 0 -0.0022720777)
(-0.00089537591 0 -0.0026261784)
(-0.00082637322 0 -0.0029869399)
(-0.00075863546 0 -0.0033366678)
(-0.00069335163 0 -0.0036591908)
(-0.0006314465 0 -0.003940324)
(-0.00057330262 0 -0.0041711875)
(-0.00051924234 0 -0.0043447525)
(-0.00046903384 0 -0.0044588178)
(-0.00042250665 0 -0.0045111373)
(-0.00037912654 0 -0.0045019975)
(-0.000338646 0 -0.0044312165)
(-0.00030055097 0 -0.0042999955)
(-0.00026547888 0 -0.004109999)
(-0.00023056645 0 -0.0038463888)
(-0.00019613323 0 -0.0035084654)
(-0.00016124316 0 -0.0030835928)
(-0.00012664447 0 -0.0025763539)
(-9.4141839e-05 0 -0.0020024447)
(-5.7624792e-05 0 -0.0012903878)
(-1.2073434e-05 0 -0.00032666486)
(-0.0014624514 0 -0.0003074459)
(-0.001462426 0 -0.00030714416)
(-0.0014623778 0 -0.00030679773)
(-0.0014622977 0 -0.0003064132)
(-0.0014621732 0 -0.00030599853)
(-0.0014619859 0 -0.00030555417)
(-0.0014617113 0 -0.00030509413)
(-0.0014613155 0 -0.00030463354)
(-0.001460753 0 -0.00030420987)
(-0.0014599623 0 -0.00030387644)
(-0.0014588619 0 -0.00030372488)
(-0.0014573426 0 -0.00030389412)
(-0.0014552619 0 -0.00030459481)
(-0.001452433 0 -0.00030614128)
(-0.0014486151 0 -0.00030898641)
(-0.0014435025 0 -0.00031379478)
(-0.0014367108 0 -0.00032147567)
(-0.0014277701 0 -0.00033334774)
(-0.0014161164 0 -0.00035121077)
(-0.0014010975 0 -0.0003775298)
(-0.0013819929 0 -0.00041556642)
(-0.0013580551 0 -0.00046949771)
(-0.0013285787 0 -0.00054443152)
(-0.0012929934 0 -0.00064625968)
(-0.0012509696 0 -0.00078121657)
(-0.001202524 0 -0.00095507702)
(-0.001148062 0 -0.0011721002)
(-0.0010884332 0 -0.0014333271)
(-0.0010247781 0 -0.0017361174)
(-0.00095835944 0 -0.0020736009)
(-0.00089045094 0 -0.0024344145)
(-0.00082238703 0 -0.0028036015)
(-0.0007555371 0 -0.0031635133)
(-0.00069103157 0 -0.0034978471)
(-0.00062976566 0 -0.0037920881)
(-0.00057213363 0 -0.0040368206)
(-0.00051846217 0 -0.0042245579)
(-0.00046855352 0 -0.0043526567)
(-0.000422258 0 -0.0044186293)
(-0.00037907209 0 -0.0044225214)
(-0.00033875157 0 -0.0043640459)
(-0.00030079833 0 -0.0042441791)
(-0.00026572004 0 -0.0040641535)
(-0.00023094387 0 -0.0038105201)
(-0.00019662055 0 -0.0034816918)
(-0.00016187322 0 -0.0030657382)
(-0.00012735648 0 -0.0025661932)
(-9.4577135e-05 0 -0.0019952117)
(-5.7959435e-05 0 -0.0012865666)
(-1.2777564e-05 0 -0.00033484458)
(-0.0014564264 0 -0.00011984433)
(-0.0014563968 0 -0.00011945552)
(-0.0014563431 0 -0.00011900107)
(-0.0014562554 0 -0.00011847309)
(-0.0014561201 0 -0.00011786274)
(-0.0014559185 0 -0.00011716987)
(-0.0014556254 0 -0.00011639825)
(-0.001455206 0 -0.00011556379)
(-0.0014546139 0 -0.00011469375)
(-0.0014537863 0 -0.00011384058)
(-0.0014526401 0 -0.00011308559)
(-0.0014510639 0 -0.00011256007)
(-0.0014489126 0 -0.00011246228)
(-0.0014459959 0 -0.0001130909)
(-0.0014420695 0 -0.00011489088)
(-0.0014368222 0 -0.00011849682)
(-0.0014298674 0 -0.00012485006)
(-0.0014207297 0 -0.00013524522)
(-0.0014088439 0 -0.00015152567)
(-0.001393559 0 -0.0001761996)
(-0.0013741612 0 -0.00021261032)
(-0.0013499181 0 -0.00026504891)
(-0.0013201497 0 -0.00033876361)
(-0.0012843244 0 -0.00043981221)
(-0.0012421613 0 -0.00057459311)
(-0.0011937317 0 -0.00074902615)
(-0.0011394889 0 -0.00096747914)
(-0.0010803103 0 -0.0012310944)
(-0.0010173222 0 -0.0015374319)
(-0.00095174934 0 -0.0018797689)
(-0.0008848047 0 -0.0022469035)
(-0.0008177442 0 -0.0026239902)
(-0.00075184942 0 -0.0029934605)
(-0.00068819275 0 -0.0033389176)
(-0.0006276344 0 -0.0036455818)
(-0.00057057791 0 -0.0039035519)
(-0.00051735222 0 -0.0041049099)
(-0.00046779354 0 -0.0042465923)
(-0.00042177129 0 -0.0043258526)
(-0.00037881463 0 -0.0043425012)
(-0.00033868285 0 -0.0042961203)
(-0.00030089476 0 -0.0041874726)
(-0.00026584486 0 -0.0040173908)
(-0.00023121509 0 -0.0037736375)
(-0.00019701735 0 -0.003453886)
(-0.00016242355 0 -0.0030468211)
(-0.00012799886 0 -0.0025549874)
(-9.4982481e-05 0 -0.0019873507)
(-5.8276355e-05 0 -0.0012823991)
(-1.342997e-05 0 -0.00034219567)
(-0.0014497563 0 6.373324e-05)
(-0.001449718 0 6.4284711e-05)
(-0.0014496537 0 6.4928689e-05)
(-0.0014495536 0 6.5668108e-05)
(-0.0014494041 0 6.6506697e-05)
(-0.0014491857 0 6.7455694e-05)
(-0.0014488722 0 6.851533e-05)
(-0.0014484277 0 6.9685493e-05)
(-0.0014478045 0 7.0946231e-05)
(-0.0014469377 0 7.2264304e-05)
(-0.001445742 0 7.3569618e-05)
(-0.0014441037 0 7.4747963e-05)
(-0.0014418742 0 7.5614158e-05)
(-0.0014388601 0 7.5880324e-05)
(-0.0014348124 0 7.5117652e-05)
(-0.0014294169 0 7.2679851e-05)
(-0.0014222802 0 6.7659329e-05)
(-0.0014129256 0 5.8715197e-05)
(-0.001400785 0 4.3990143e-05)
(-0.0013852099 0 2.0911844e-05)
(-0.0013654941 0 -1.3950152e-05)
(-0.0013409219 0 -6.5003068e-05)
(-0.0013108408 0 -0.00013762952)
(-0.0012747605 0 -0.00023805169)
(-0.001232453 0 -0.00037281321)
(-0.0011840448 0 -0.00054796469)
(-0.0011300413 0 -0.00076793801)
(-0.0010713446 0 -0.0010339563)
(-0.0010090657 0 -0.001343749)
(-0.00094438916 0 -0.0016907181)
(-0.00087846543 0 -0.0020638061)
(-0.00081246777 0 -0.0024483009)
(-0.00074759303 0 -0.0028267134)
(-0.00068484908 0 -0.0031826322)
(-0.0006250636 0 -0.0035010338)
(-0.00056864134 0 -0.0037716124)
(-0.00051591702 0 -0.0039860229)
(-0.00046675516 0 -0.0041408212)
(-0.00042104797 0 -0.0042329815)
(-0.00037835374 0 -0.0042620858)
(-0.00033844005 0 -0.0042275639)
(-0.00030084013 0 -0.0041299779)
(-0.00026585245 0 -0.0039697846)
(-0.00023137993 0 -0.0037358028)
(-0.00019732375 0 -0.0034251013)
(-0.00016289379 0 -0.0030268794)
(-0.00012857274 0 -0.0025427618)
(-9.5356664e-05 0 -0.0019788478)
(-5.8575138e-05 0 -0.0012778571)
(-1.4034359e-05 0 -0.00034872784)
(-0.0014424651 0 0.00024329553)
(-0.0014424204 0 0.00024393968)
(-0.0014423478 0 0.00024470027)
(-0.0014422367 0 0.00024559186)
(-0.0014420724 0 0.00024663235)
(-0.0014418349 0 0.00024783304)
(-0.0014414972 0 0.0002492027)
(-0.0014410224 0 0.00025074167)
(-0.0014403614 0 0.00025243972)
(-0.001439448 0 0.00025426626)
(-0.0014381947 0 0.00025616199)
(-0.0014364851 0 0.00025802161)
(-0.0014341675 0 0.00025967262)
(-0.0014310443 0 0.00026084236)
(-0.0014268625 0 0.00026110949)
(-0.0014213016 0 0.00025985443)
(-0.001413966 0 0.00025613746)
(-0.0014043728 0 0.00024863713)
(-0.0013919544 0 0.00023543927)
(-0.0013760643 0 0.00021391142)
(-0.0013560055 0 0.00018052902)
(-0.0013310802 0 0.00013075944)
(-0.0013006654 0 5.9095369e-05)
(-0.0012643167 0 -4.0852851e-05)
(-0.0012218607 0 -0.00017575702)
(-0.0011734825 0 -0.00035177199)
(-0.0011197395 0 -0.00057337086)
(-0.0010615575 0 -0.00084183118)
(-0.0010000314 0 -0.0011550091)
(-0.00093630228 0 -0.0015064079)
(-0.00087145378 0 -0.0018851099)
(-0.0008065766 0 -0.0022765436)
(-0.00074278072 0 -0.0026633265)
(-0.00068101126 0 -0.0030290614)
(-0.00062205896 0 -0.0033585421)
(-0.00056632842 0 -0.0036411034)
(-0.00051415754 0 -0.0038680051)
(-0.00046543943 0 -0.0040354436)
(-0.00042008697 0 -0.0041401091)
(-0.00037768927 0 -0.0041813581)
(-0.00033802195 0 -0.0041584523)
(-0.00030063371 0 -0.0040717568)
(-0.00026573986 0 -0.0039213818)
(-0.00023143775 0 -0.0036970622)
(-0.00019753862 0 -0.0033953667)
(-0.0001632839 0 -0.0030059432)
(-0.00012907761 0 -0.002529554)
(-9.5697298e-05 0 -0.0019697145)
(-5.885439e-05 0 -0.0012729588)
(-1.4592333e-05 0 -0.00035452171)
(-0.0014345693 0 0.00041899718)
(-0.0014345135 0 0.00041980061)
(-0.0014344275 0 0.00042074552)
(-0.0014343007 0 0.00042184269)
(-0.0014341183 0 0.00042310546)
(-0.0014338592 0 0.00042455682)
(-0.0014334956 0 0.00042621003)
(-0.0014329888 0 0.00042808161)
(-0.0014322882 0 0.00043016871)
(-0.0014313252 0 0.0004324594)
(-0.0014300098 0 0.00043490509)
(-0.0014282226 0 0.00043741704)
(-0.0014258082 0 0.00043983442)
(-0.001422565 0 0.00044189535)
(-0.0014182349 0 0.00044319308)
(-0.0014124936 0 0.00044309783)
(-0.0014049382 0 0.00044070062)
(-0.0013950852 0 0.00043462955)
(-0.0013823655 0 0.00042293362)
(-0.0013661366 0 0.00040289788)
(-0.0013457111 0 0.00037090178)
(-0.0013204109 0 0.0003222808)
(-0.0012896437 0 0.00025142829)
(-0.0012530158 0 0.00015177148)
(-0.001210411 0 1.6540536e-05)
(-0.0011620735 0 -0.00016051015)
(-0.0011086169 0 -0.00038385345)
(-0.0010509846 0 -0.00065480038)
(-0.00099025492 0 -0.00097130638)
(-0.00092752202 0 -0.0013269542)
(-0.00086380107 0 -0.0017109509)
(-0.00080009719 0 -0.0021088834)
(-0.00073743618 0 -0.0025034735)
(-0.00067669656 0 -0.0028784053)
(-0.00061863419 0 -0.0032183105)
(-0.00056364772 0 -0.0035122354)
(-0.00051208044 0 -0.0037510549)
(-0.00046384953 0 -0.0039306461)
(-0.00041889106 0 -0.0040474032)
(-0.00037682194 0 -0.0041004644)
(-0.00033742954 0 -0.0040889089)
(-0.00030027596 0 -0.0040129126)
(-0.00026550687 0 -0.0038722586)
(-0.00023138856 0 -0.0036574787)
(-0.00019766222 0 -0.0033647364)
(-0.00016359368 0 -0.0029840526)
(-0.00012951424 0 -0.0025153846)
(-9.6003597e-05 0 -0.0019599428)
(-5.9113584e-05 0 -0.0012676733)
(-1.5107346e-05 0 -0.00035958589)
(-0.0014260914 0 0.00059084726)
(-0.0014260274 0 0.00059173981)
(-0.001425931 0 0.00059279432)
(-0.0014257904 0 0.0005940357)
(-0.0014255894 0 0.00059549283)
(-0.0014253065 0 0.0005971895)
(-0.0014249124 0 0.00059914904)
(-0.0014243676 0 0.00060138742)
(-0.0014236199 0 0.00060391269)
(-0.0014225989 0 0.00060671341)
(-0.0014212121 0 0.00060975245)
(-0.0014193372 0 0.00061294782)
(-0.0014168149 0 0.00061615162)
(-0.0014134389 0 0.00061911603)
(-0.0014089462 0 0.0006214427)
(-0.0014030056 0 0.00062252814)
(-0.0013952115 0 0.00062143484)
(-0.0013850749 0 0.00061680767)
(-0.0013720309 0 0.0006065851)
(-0.0013554396 0 0.00058798083)
(-0.0013346235 0 0.00055728186)
(-0.0013089273 0 0.00050966761)
(-0.0012777885 0 0.00043948432)
(-0.0012408731 0 0.00033993343)
(-0.0011981203 0 0.00020418507)
(-0.0011498387 0 2.5928603e-05)
(-0.0010966947 0 -0.0001992877)
(-0.0010396492 0 -0.00047278273)
(-0.00097976097 0 -0.00079257326)
(-0.00091807378 0 -0.0011523022)
(-0.00085553025 0 -0.0015412962)
(-0.00079305047 0 -0.0019453071)
(-0.00073157471 0 -0.0023471812)
(-0.00067191783 0 -0.0027307077)
(-0.0006147974 0 -0.0030804106)
(-0.00056060566 0 -0.0033850879)
(-0.00050968852 0 -0.0036352625)
(-0.00046198782 0 -0.0038265154)
(-0.00041746042 0 -0.003954947)
(-0.00037575238 0 -0.0040194807)
(-0.00033666227 0 -0.0040190043)
(-0.00029976657 0 -0.0039535045)
(-0.00026515122 0 -0.0038224621)
(-0.00023123179 0 -0.0036170969)
(-0.00019769359 0 -0.0033332396)
(-0.00016382313 0 -0.0029612368)
(-0.00012988235 0 -0.0025002947)
(-9.6273253e-05 0 -0.0019495452)
(-5.9351477e-05 0 -0.0012620242)
(-1.5580596e-05 0 -0.00036399171)
(-0.001417043 0 0.00075899656)
(-0.0014169652 0 0.00076004652)
(-0.0014168523 0 0.00076128383)
(-0.0014166923 0 0.00076272964)
(-0.001416469 0 0.00076440871)
(-0.0014161593 0 0.00076635631)
(-0.0014157331 0 0.00076860017)
(-0.0014151489 0 0.0007711717)
(-0.0014143525 0 0.0007740868)
(-0.0014132708 0 0.00077735192)
(-0.0014118086 0 0.00078094065)
(-0.0014098396 0 0.00078478675)
(-0.0014072006 0 0.00078875463)
(-0.0014036803 0 0.00079260772)
(-0.0013990097 0 0.00079596368)
(-0.0013928527 0 0.00079821422)
(-0.0013847963 0 0.00079845699)
(-0.0013743514 0 0.00079531119)
(-0.0013609622 0 0.00078651703)
(-0.0013439867 0 0.00076925394)
(-0.0013227583 0 0.00073974157)
(-0.0012966481 0 0.00069294061)
(-0.0012651203 0 0.00062327725)
(-0.0012279127 0 0.00052361071)
(-0.0011850177 0 0.00038713967)
(-0.001136809 0 0.00020748405)
(-0.0010840091 0 -1.9738013e-05)
(-0.0010275901 0 -0.00029584672)
(-0.00096858846 0 -0.00061888784)
(-0.00090799412 0 -0.0009825462)
(-0.00084667555 0 -0.001376256)
(-0.00078546606 0 -0.0017859499)
(-0.00072522265 0 -0.0021945935)
(-0.00066669528 0 -0.0025861382)
(-0.00061056482 0 -0.002945019)
(-0.00055721332 0 -0.0032598484)
(-0.00050699039 0 -0.0035208082)
(-0.00045985936 0 -0.003723225)
(-0.0004157991 0 -0.0038628991)
(-0.00037448252 0 -0.0039385486)
(-0.0003357219 0 -0.0039488598)
(-0.00029910663 0 -0.003893636)
(-0.00026467328 0 -0.0037720705)
(-0.00023096772 0 -0.0035759816)
(-0.00019763311 0 -0.0033009317)
(-0.00016397218 0 -0.0029375381)
(-0.0001301825 0 -0.0024843024)
(-9.6505793e-05 0 -0.0019385179)
(-5.956749e-05 0 -0.0012559791)
(-1.6015293e-05 0 -0.00036774602)
(-0.0014074475 0 0.000923454)
(-0.001407359 0 0.00092459976)
(-0.0014072322 0 0.0009259578)
(-0.0014070543 0 0.00092755982)
(-0.0014068075 0 0.00092944421)
(-0.0014064682 0 0.0009316454)
(-0.0014060047 0 0.00093419984)
(-0.0014053746 0 0.00093713879)
(-0.0014045217 0 0.00094048736)
(-0.0014033709 0 0.00094425496)
(-0.0014018237 0 0.00094842629)
(-0.0013997506 0 0.00095294408)
(-0.0013969831 0 0.00095768777)
(-0.0013933051 0 0.00096243566)
(-0.0013884402 0 0.00096682033)
(-0.001382046 0 0.00097025577)
(-0.0013737038 0 0.00097182511)
(-0.0013629459 0 0.0009698874)
(-0.001349202 0 0.00096234908)
(-0.0013318225 0 0.00094630743)
(-0.0013101583 0 0.00091792021)
(-0.001283587 0 0.00087217566)
(-0.0012516503 0 0.00080291949)
(-0.0012141509 0 0.00070289796)
(-0.0011711199 0 0.00056549521)
(-0.0011230065 0 0.00038425341)
(-0.0010705832 0 0.00015488158)
(-0.001014832 0 -0.00012391268)
(-0.00095676383 0 -0.00045017733)
(-0.00089731002 0 -0.00081762124)
(-0.0008372616 0 -0.0012157813)
(-0.00077736628 0 -0.0016307799)
(-0.00071839717 0 -0.0020457123)
(-0.00066104337 0 -0.0024447171)
(-0.00060594644 0 -0.0028121834)
(-0.00055347861 0 -0.0031365756)
(-0.0005039905 0 -0.0034077642)
(-0.00045746765 0 -0.003620848)
(-0.00041390841 0 -0.0037713323)
(-0.0003730137 0 -0.0038577362)
(-0.00033460855 0 -0.0038785403)
(-0.00029829624 0 -0.0038333623)
(-0.00026407146 0 -0.0037211298)
(-0.00023059588 0 -0.003534175)
(-0.00019748004 0 -0.003267842)
(-0.00016404083 0 -0.0029129843)
(-0.00013041456 0 -0.002467451)
(-9.6699086e-05 0 -0.0019268759)
(-5.9760517e-05 0 -0.0012495659)
(-1.6412338e-05 0 -0.0003709128)
(-0.0013973167 0 0.0010843602)
(-0.0013972118 0 0.0010856619)
(-0.0013970652 0 0.0010872017)
(-0.0013968639 0 0.0010890076)
(-0.0013965901 0 0.0010911148)
(-0.0013962184 0 0.0010935679)
(-0.0013957162 0 0.001096408)
(-0.0013950387 0 0.001099681)
(-0.0013941276 0 0.0011034195)
(-0.0013929043 0 0.0011076504)
(-0.0013912676 0 0.001112368)
(-0.0013890826 0 0.0011175338)
(-0.0013861771 0 0.0011230368)
(-0.0013823269 0 0.0011286752)
(-0.0013772513 0 0.0011340927)
(-0.0013705987 0 0.0011387194)
(-0.0013619765 0 0.0011413852)
(-0.0013509022 0 0.0011404832)
(-0.0013367767 0 0.0011340509)
(-0.0013189663 0 0.0011191114)
(-0.001296831 0 0.00109172)
(-0.0012697781 0 0.0010469128)
(-0.0012374315 0 0.00097799229)
(-0.0011996142 0 0.00087775825)
(-0.0011564578 0 0.00073920962)
(-0.0011084652 0 0.00055617677)
(-0.0010564558 0 0.00032451457)
(-0.0010014164 0 4.296139e-05)
(-0.00094432838 0 -0.00028650469)
(-0.00088606029 0 -0.00065760163)
(-0.00082732457 0 -0.0010599583)
(-0.00076878287 0 -0.0014799051)
(-0.00071112646 0 -0.0019006542)
(-0.00065498441 0 -0.0023065849)
(-0.00060096036 0 -0.002682054)
(-0.00054941456 0 -0.0030154334)
(-0.00050069901 0 -0.0032962911)
(-0.00045481929 0 -0.0035195427)
(-0.00041179353 0 -0.0036803939)
(-0.00037134886 0 -0.0037771779)
(-0.00033332469 0 -0.0038081626)
(-0.00029733701 0 -0.0037727853)
(-0.00026334663 0 -0.0036697186)
(-0.00023011679 0 -0.0034917427)
(-0.00019723486 0 -0.0032340264)
(-0.00016402913 0 -0.0028876196)
(-0.00013057893 0 -0.0024497564)
(-9.6852848e-05 0 -0.001914618)
(-5.9929942e-05 0 -0.0012427518)
(-1.6774684e-05 0 -0.00037349693)
(-0.0013866707 0 0.0012417318)
(-0.0013865517 0 0.001243142)
(-0.0013863877 0 0.0012448122)
(-0.0013861645 0 0.0012467797)
(-0.0013858629 0 0.001249089)
(-0.0013854568 0 0.0012517885)
(-0.0013849114 0 0.001254928)
(-0.0013841809 0 0.0012585553)
(-0.001383204 0 0.0012627149)
(-0.0013819003 0 0.0012674365)
(-0.0013801636 0 0.0012727297)
(-0.0013778563 0 0.0012785614)
(-0.0013747988 0 0.0012848405)
(-0.0013707621 0 0.0012913756)
(-0.0013654549 0 0.0012978503)
(-0.0013585485 0 0.0013034928)
(-0.0013496403 0 0.0013071315)
(-0.0013382111 0 0.0013073542)
(-0.0013236757 0 0.0013020241)
(-0.0013054054 0 0.0012881259)
(-0.0012827767 0 0.001261612)
(-0.001255244 0 0.001217285)
(-0.0012224674 0 0.0011485213)
(-0.0011843034 0 0.0010482822)
(-0.0011410494 0 0.0009083649)
(-0.0010932085 0 0.00072334075)
(-0.0010416516 0 0.00048924073)
(-0.00098737003 0 0.00020485638)
(-0.00093131009 0 -0.00012778945)
(-0.00087427312 0 -0.00050241014)
(-0.00081689027 0 -0.00090872103)
(-0.00075973913 0 -0.0013332743)
(-0.00070342891 0 -0.0017593966)
(-0.000648534 0 -0.0021717383)
(-0.00059561805 0 -0.0025546538)
(-0.0005450303 0 -0.0028964593)
(-0.0004971217 0 -0.0031864418)
(-0.00045191879 0 -0.003419367)
(-0.0004094568 0 -0.0035901447)
(-0.00036949 0 -0.0036969327)
(-0.00033187106 0 -0.0037377847)
(-0.00029622946 0 -0.0037119557)
(-0.00026249778 0 -0.0036178811)
(-0.00022953015 0 -0.0034487247)
(-0.00019689705 0 -0.0031995138)
(-0.00016393709 0 -0.0028614705)
(-0.00013067554 0 -0.0024312631)
(-9.6965137e-05 0 -0.0019017619)
(-6.0074746e-05 0 -0.0012355675)
(-1.7103014e-05 0 -0.00037555756)
(-0.001375526 0 0.0013956748)
(-0.0013753905 0 0.0013972081)
(-0.0013752061 0 0.0013990241)
(-0.0013749582 0 0.0014011641)
(-0.001374626 0 0.0014036785)
(-0.0013741825 0 0.0014066211)
(-0.0013735911 0 0.0014100495)
(-0.0013728038 0 0.00141402)
(-0.0013717567 0 0.0014185859)
(-0.0013703664 0 0.0014237871)
(-0.0013685228 0 0.0014296431)
(-0.0013660833 0 0.0014361333)
(-0.0013628627 0 0.0014431747)
(-0.0013586244 0 0.0014505867)
(-0.0013530837 0 0.0014580281)
(-0.0013459173 0 0.0014645946)
(-0.0013366891 0 0.0014692901)
(-0.0013248813 0 0.0014706027)
(-0.0013099094 0 0.0014663343)
(-0.0012911522 0 0.0014534037)
(-0.0012680068 0 0.001427653)
(-0.0012399716 0 0.001383709)
(-0.0012067537 0 0.0013148385)
(-0.0011682785 0 0.0012140785)
(-0.0011249283 0 0.0010729163)
(-0.0010772737 0 0.00088568364)
(-0.0010262123 0 0.0006490087)
(-0.00097273655 0 0.00036172511)
(-0.00091775234 0 2.5919663e-05)
(-0.00086198917 0 -0.00035210241)
(-0.00080599628 0 -0.00076213289)
(-0.00075026829 0 -0.0011909703)
(-0.00069533397 0 -0.0016220311)
(-0.00064171597 0 -0.0020402911)
(-0.00058993898 0 -0.0024301076)
(-0.00054034045 0 -0.0027797937)
(-0.00049327007 0 -0.003078357)
(-0.00044877411 0 -0.0033204633)
(-0.0004069044 0 -0.0035007199)
(-0.00036744106 0 -0.0036171266)
(-0.0003302508 0 -0.0036675185)
(-0.00029497576 0 -0.0036509726)
(-0.00026152625 0 -0.0035656958)
(-0.00022883673 0 -0.0034051874)
(-0.00019646719 0 -0.003164361)
(-0.00016376486 0 -0.0028345827)
(-0.00013070471 0 -0.0024119858)
(-9.7035816e-05 0 -0.0018883085)
(-6.0194342e-05 0 -0.0012279809)
(-1.7400016e-05 0 -0.00037709657)
(-0.0013638963 0 0.001546252)
(-0.0013637428 0 0.0015479094)
(-0.0013635364 0 0.0015498729)
(-0.0013632614 0 0.0015521878)
(-0.0013628962 0 0.0015549097)
(-0.0013624121 0 0.001558098)
(-0.0013617709 0 0.0015618172)
(-0.0013609224 0 0.0015661305)
(-0.0013597999 0 0.0015711008)
(-0.0013583166 0 0.001576778)
(-0.0013563581 0 0.0015831929)
(-0.0013537767 0 0.0015903374)
(-0.0013503809 0 0.0015981446)
(-0.0013459276 0 0.0016064549)
(-0.0013401495 0 0.0016147211)
(-0.0013327021 0 0.0016222335)
(-0.0013231332 0 0.0016279504)
(-0.0013109229 0 0.0016303078)
(-0.0012954873 0 0.0016270538)
(-0.0012762149 0 0.0016150241)
(-0.001252528 0 0.0015899404)
(-0.0012239711 0 0.0015462698)
(-0.0011903152 0 0.0014770423)
(-0.0011515583 0 0.0013752214)
(-0.0011081025 0 0.001232936)
(-0.0010606855 0 0.001043285)
(-0.0010101642 0 0.00080389625)
(-0.00095754422 0 0.00051365127)
(-0.00090368443 0 0.00017470972)
(-0.00084923738 0 -0.00020659165)
(-0.00079466903 0 -0.00062011407)
(-0.00074039403 0 -0.0010529269)
(-0.00068688259 0 -0.0014888463)
(-0.00063456652 0 -0.0019125565)
(-0.00058395216 0 -0.0023087294)
(-0.00053535509 0 -0.0026654566)
(-0.00048915087 0 -0.0029720719)
(-0.00044539055 0 -0.0032228748)
(-0.00040413951 0 -0.003412168)
(-0.00036520462 0 -0.0035378093)
(-0.00032846523 0 -0.0035974147)
(-0.00029357677 0 -0.0035898818)
(-0.00026043155 0 -0.0035132042)
(-0.00022803645 0 -0.003361168)
(-0.00019594496 0 -0.0031285963)
(-0.00016351251 0 -0.0028069816)
(-0.00013066645 0 -0.0023919701)
(-9.7063158e-05 0 -0.0018742782)
(-6.0287773e-05 0 -0.0012200248)
(-1.7666216e-05 0 -0.00037816932)
(-0.0013517959 0 0.0016935321)
(-0.001351623 0 0.0016953134)
(-0.0013513929 0 0.0016974243)
(-0.0013510889 0 0.0016999141)
(-0.0013506881 0 0.0017028434)
(-0.0013501605 0 0.0017062773)
(-0.0013494657 0 0.0017102867)
(-0.0013485513 0 0.0017149432)
(-0.0013473478 0 0.0017203177)
(-0.0013457645 0 0.0017264698)
(-0.0013436827 0 0.0017334404)
(-0.0013409488 0 0.0017412326)
(-0.0013373645 0 0.0017497871)
(-0.0013326916 0 0.0017589496)
(-0.0013266683 0 0.0017680465)
(-0.001318916 0 0.0017764861)
(-0.0013089838 0 0.0017831831)
(-0.0012963452 0 0.0017865438)
(-0.0012804182 0 0.0017842492)
(-0.0012606036 0 0.0017730415)
(-0.0012363523 0 0.0017485136)
(-0.0012072594 0 0.0017049944)
(-0.0011731746 0 0.0016351225)
(-0.00113414 0 0.0015320267)
(-0.0010906457 0 0.0013880249)
(-0.0010434852 0 0.0011960881)
(-0.00099355153 0 0.00095386262)
(-0.00094183888 0 0.00066060157)
(-0.00088915124 0 0.0003185486)
(-0.00083605951 0 -6.5914491e-05)
(-0.00078297772 0 -0.00048307241)
(-0.00073018643 0 -0.00091961619)
(-0.00067811683 0 -0.0013600099)
(-0.00062711598 0 -0.0017887079)
(-0.00057767987 0 -0.0021906976)
(-0.00053010335 0 -0.0025538889)
(-0.00048478834 0 -0.0028679659)
(-0.00044177721 0 -0.0031267286)
(-0.00040116914 0 -0.003324611)
(-0.00036278542 0 -0.0034590973)
(-0.00032651808 0 -0.0035275784)
(-0.00029203516 0 -0.0035287784)
(-0.00025921542 0 -0.0034604836)
(-0.00022713033 0 -0.0033167328)
(-0.00019533109 0 -0.0030922766)
(-0.00016318028 0 -0.0027787143)
(-0.000130561 0 -0.0023712297)
(-9.7047099e-05 0 -0.0018596734)
(-6.0354492e-05 0 -0.0012116686)
(-1.7904046e-05 0 -0.00037877501)
(-0.0013392392 0 0.0018375828)
(-0.0013390454 0 0.0018394883)
(-0.0013387898 0 0.0018417467)
(-0.0013384547 0 0.0018444116)
(-0.0013380157 0 0.0018475485)
(-0.0013374413 0 0.0018512283)
(-0.0013366891 0 0.0018555285)
(-0.0013357043 0 0.0018605278)
(-0.0013344139 0 0.001866306)
(-0.0013327237 0 0.0018729326)
(-0.0013305098 0 0.0018804603)
(-0.0013276128 0 0.001888906)
(-0.0013238275 0 0.0018982332)
(-0.0013189343 0 0.001908094)
(-0.0013126445 0 0.0019180503)
(-0.0013045699 0 0.0019273945)
(-0.0012942503 0 0.0019350502)
(-0.0012811567 0 0.001939376)
(-0.0012647091 0 0.0019379921)
(-0.0012443242 0 0.0019275353)
(-0.0012194862 0 0.0019034459)
(-0.0011898831 0 0.0018595962)
(-0.0011553464 0 0.0017891535)
(-0.0011160505 0 0.0016845781)
(-0.0010725836 0 0.0015382546)
(-0.0010256893 0 0.0013441505)
(-0.00097640179 0 0.0010989867)
(-0.00092564991 0 0.00080266338)
(-0.00087418272 0 0.00045752883)
(-0.00082253175 0 6.9599773e-05)
(-0.00077097146 0 -0.00035107901)
(-0.0007196783 0 -0.00079110156)
(-0.00066903902 0 -0.0012352651)
(-0.0006193653 0 -0.0016684458)
(-0.00057112315 0 -0.0020757309)
(-0.00052459907 0 -0.0024451116)
(-0.00048018991 0 -0.0027660941)
(-0.00043793828 0 -0.003032058)
(-0.00039799715 0 -0.0032380844)
(-0.00036018652 0 -0.0033810297)
(-0.00032441113 0 -0.0034580527)
(-0.00029035212 0 -0.0034677025)
(-0.00025787786 0 -0.0034075719)
(-0.00022611847 0 -0.0032719163)
(-0.00019462543 0 -0.0030554293)
(-0.00016276828 0 -0.0027498046)
(-0.00013038843 0 -0.0023498109)
(-9.6986136e-05 0 -0.0018445177)
(-6.0393604e-05 0 -0.0012029467)
(-1.8113881e-05 0 -0.00037896606)
(-0.0013262397 0 0.0019784701)
(-0.0013260237 0 0.0019804996)
(-0.0013257408 0 0.0019829053)
(-0.0013253724 0 0.0019857448)
(-0.0013248927 0 0.0019890889)
(-0.0013242684 0 0.0019930138)
(-0.0013234549 0 0.0019976035)
(-0.0013223947 0 0.0020029447)