/*--------------------------------*- C++ -*----------------------------------*\
  =========                 |
  \\      /  F ield         | OpenFOAM: The Open Source CFD Toolbox
   \\    /   O peration     | Website:  https://openfoam.org
    \\  /    A nd           | Version:  8
     \\/     M anipulation  |
\*---------------------------------------------------------------------------*/
FoamFile
{
    version     2.0;
    format      ascii;
    class       volScalarField;
    location    "0.0599932";
    object      Ma;
}
// * * * * * * * * * * * * * * * * * * * * * * * * * * * * * * * * * * * * * //

dimensions      [0 0 0 0 0 0 0];

internalField   nonuniform List<scalar> 
20000
(
0.57324347
0.67932515
0.7502289
0.81228522
0.87016931
0.91360205
0.91552414
0.91892765
0.91517501
0.91623874
0.91361494
0.91329566
0.91088656
0.90941212
0.90675153
0.90418341
0.9007876
0.89700601
0.89249577
0.88731572
0.88132879
0.87436789
0.86627205
0.85713496
0.84708943
0.83626391
0.82485922
0.81318455
0.80167988
0.79078582
0.7809028
0.77230671
0.76514694
0.75943149
0.75510458
0.75204716
0.74985769
0.748469
0.74785692
0.74784608
0.74810185
0.74869895
0.74948022
0.75019639
0.75178858
0.75342685
0.75395333
0.75384716
0.75372873
0.75368514
0.57843325
0.68509959
0.75645542
0.81872959
0.87674221
0.91739234
0.91748194
0.92092914
0.91713224
0.91819661
0.91552799
0.91518159
0.91272616
0.91119266
0.90847414
0.90582368
0.90235738
0.89848379
0.89387225
0.8885276
0.88225619
0.87485675
0.86649193
0.85719421
0.84697271
0.83592037
0.82428703
0.81243753
0.80082869
0.78991247
0.78007924
0.77158581
0.7645519
0.75896483
0.75476292
0.75178173
0.74957687
0.74828025
0.74778307
0.74777684
0.74804048
0.7486601
0.74941439
0.75024226
0.75220653
0.75345266
0.75382887
0.75378812
0.75370113
0.75368152
0.58445106
0.69164499
0.76338285
0.82579835
0.88370032
0.92098679
0.91935373
0.92281224
0.91893761
0.91999131
0.91726111
0.91687687
0.91437068
0.91277278
0.90999775
0.90726673
0.9037329
0.89974977
0.89498194
0.88936851
0.88277924
0.87514419
0.86657196
0.85705078
0.84656574
0.83524409
0.82338002
0.81136385
0.79967117
0.78876154
0.77901273
0.77065806
0.76378552
0.75836308
0.75431701
0.75140683
0.74926973
0.74809525
0.74768047
0.74769208
0.747979
0.74861358
0.74936571
0.75043376
0.75238827
0.75344425
0.75376439
0.75375233
0.75368523
0.75367794
0.59007473
0.69771772
0.76983932
0.83241236
0.88999881
0.92393973
0.92093012
0.92442679
0.92049467
0.92154816
0.91876604
0.91834576
0.91579451
0.9141321
0.91130373
0.90848621
0.90485929
0.90070362
0.89569851
0.88979922
0.88297341
0.87517941
0.86642646
0.8566332
0.84586003
0.83426837
0.82217907
0.81001333
0.79826395
0.78739412
0.77776568
0.7695842
0.76290452
0.75767667
0.75380822
0.75096974
0.74894616
0.74790202
0.74755905
0.74759398
0.74791329
0.74855306
0.74932847
0.75067425
0.75253535
0.75343465
0.75370914
0.75371609
0.75366616
0.75367479
0.59558907
0.70367045
0.77617451
0.83891874
0.89586243
0.92640889
0.92229982
0.92582663
0.92182114
0.92287463
0.92002857
0.91956699
0.9169821
0.91524823
0.91235576
0.90941614
0.9056268
0.90124555
0.89602002
0.88994565
0.88298389
0.87501365
0.86599974
0.85590323
0.84483101
0.83296546
0.82065969
0.80836417
0.79658829
0.78579467
0.77632496
0.76835274
0.76189909
0.75689734
0.75322663
0.75047115
0.74860383
0.74769864
0.74742387
0.74748483
0.74784407
0.74847995
0.74929795
0.75092744
0.75262699
0.75342599
0.75367469
0.75368646
0.75364877
0.75367215
0.60082796
0.70931744
0.78223083
0.84521611
0.90112106
0.92836861
0.9233781
0.92694392
0.9228588
0.92391949
0.92100449
0.92045847
0.91789676
0.91607087
0.91307413
0.90997031
0.90601004
0.90145328
0.89611329
0.88990706
0.8827759
0.87455034
0.86525212
0.85484807
0.84347111
0.83133457
0.81882491
0.80642387
0.79465536
0.78397677
0.77470487
0.76697747
0.76078252
0.75603609
0.75257472
0.74992659
0.74824119
0.74746517
0.74727852
0.74736832
0.7477707
0.7484026
0.74928966
0.75115893
0.75270447
0.75341661
0.75364276
0.75365997
0.75363074
0.7536699
0.60581011
0.71469659
0.78803181
0.85134906
0.90575198
0.92987481
0.9241598
0.92779661
0.92359161
0.92467994
0.9217263
0.92114971
0.91849104
0.91655009
0.91343997
0.91019406
0.90614259
0.90147962
0.89602128
0.88963864
0.88226808
0.87377664
0.86417759
0.85345571
0.84177015
0.82936735
0.81667047
0.80419241
0.79246879
0.7819465
0.7729123
0.76546537
0.75956232
0.75509825
0.75184728
0.74934697
0.74786001
0.74723087
0.74712063
0.74724377
0.74769245
0.74833322
0.74932869
0.75135662
0.75276165
0.75340559
0.75361605
0.75363626
0.75361368
0.75366783
0.61055351
0.71983421
0.7935934
0.85735831
0.90974299
0.93100397
0.92476695
0.92840031
0.92419483
0.92518594
0.92223989
0.92158924
0.9187843
0.91674326
0.91357213
0.91023874
0.90610813
0.90131817
0.89568621
0.88907824
0.88145869
0.87267816
0.86276515
0.85171775
0.83972185
0.82706142
0.81419833
0.80167622
0.79003837
0.77971539
0.77095904
0.7638282
0.75825026
0.75409167
0.7510445
0.74874303
0.747466
0.7469823
0.7469467
0.74711191
0.74760721
0.74827858
0.74942401
0.75151683
0.75280576
0.75339236
0.7535901
0.75361395
0.75359735
0.75366597
0.61510837
0.72477718
0.79893647
0.86327782
0.91310064
0.93182547
0.925227
0.92881363
0.92458407
0.92556493
0.92250993
0.92178176
0.91888861
0.91677566
0.91355131
0.91011402
0.90586534
0.90089568
0.89506771
0.88822262
0.88033197
0.87124839
0.86100787
0.84962702
0.83732123
0.82441533
0.81141165
0.7988828
0.7873747
0.77729545
0.76885742
0.7620786
0.75685794
0.75302163
0.75017531
0.7481206
0.7470643
0.74672738
0.74675446
0.74697807
0.74751177
0.74823427
0.74957285
0.75164439
0.75283926
0.75337874
0.75356487
0.75359225
0.75358184
0.75366438
0.61946861
0.72951049
0.80402665
0.86908393
0.91581342
0.93235663
0.92545077
0.92899693
0.92472705
0.92565394
0.92257646
0.92183118
0.91885131
0.91664745
0.91333882
0.90975469
0.90535847
0.90019906
0.89415795
0.8870579
0.87888139
0.86947862
0.8588983
0.84717789
0.83456554
0.82143061
0.80831684
0.79582279
0.78449103
0.77470109
0.76662229
0.76023164
0.755397
0.75188964
0.74925633
0.74748583
0.74665797
0.74646061
0.7465473
0.74683807
0.74740363
0.74819494
0.74975676
0.75175283
0.75286726
0.75336494
0.75353855
0.75356954
0.7535672
0.75366312
0.62368783
0.73408181
0.80890339
0.87479789
0.91792405
0.93264901
0.92545095
0.9290147
0.92466429
0.92554753
0.92244463
0.9215845
0.91861832
0.91628723
0.91287306
0.9091335
0.90457965
0.89921504
0.89294648
0.88557751
0.87709848
0.86736233
0.85643079
0.84436645
0.83145419
0.81811124
0.80492272
0.79250891
0.78140244
0.77194861
0.76427055
0.75830343
0.753877
0.75069326
0.74830803
0.74684734
0.74624915
0.74617814
0.74633163
0.74669469
0.74728307
0.74816093
0.74995567
0.75185451
0.75289246
0.75335121
0.75351145
0.75354383
0.75355351
0.75366224
0.62779315
0.73851943
0.81358396
0.88038706
0.91949384
0.93269744
0.92524449
0.92886984
0.92439433
0.9252999
0.9220742
0.92109678
0.91812747
0.91566802
0.91214489
0.9082404
0.90351783
0.89793732
0.89142671
0.88377372
0.87497671
0.86489313
0.85360034
0.84119027
0.8279887
0.81446375
0.80124075
0.78895631
0.77812642
0.76905689
0.76182119
0.75630964
0.75230422
0.74943334
0.74735323
0.74621297
0.74583692
0.74587592
0.74611376
0.74654843
0.74715521
0.74814297
0.75015876
0.75195209
0.75291627
0.75333775
0.75348333
0.75351366
0.75353943
0.75366181
0.63171163
0.74274405
0.81802249
0.8857401
0.92049019
0.93237672
0.92480454
0.92846048
0.92393922
0.92478041
0.92149633
0.92043132
0.91737837
0.91478641
0.91114809
0.90707063
0.90216852
0.89635981
0.88959266
0.88164097
0.87251039
0.86206624
0.85040373
0.83764891
0.82417296
0.81049719
0.79728472
0.78518243
0.77468308
0.7660472
0.75929375
0.75426308
0.75068153
0.74812707
0.74640857
0.7455871
0.7454142
0.7455591
0.74589703
0.74640217
0.74703238
0.7481563
0.75035718
0.75204504
0.75293867
0.75332399
0.75345387
0.75347944
0.75352438
0.75366196
0.63539937
0.74674104
0.8222232
0.89072486
0.92094008
0.93169715
0.92419951
0.92781784
0.92324968
0.92400889
0.92068118
0.9194998
0.91637653
0.9136429
0.90988109
0.90562091
0.90052728
0.89447815
0.88743938
0.87917396
0.86969466
0.85887755
0.84683878
0.83374355
0.82001303
0.80622302
0.79307095
0.78120752
0.77109552
0.76294239
0.75670614
0.75217232
0.74901149
0.74680703
0.74548352
0.74496912
0.74497225
0.74523837
0.74568171
0.74625668
0.74693437
0.74821294
0.75054252
0.75213145
0.75295896
0.75330938
0.75342323
0.75344238
0.75351393
0.75366275
0.63886322
0.75053353
0.82624522
0.89520923
0.92089846
0.93094163
0.92334972
0.92693479
0.92231124
0.92299637
0.91961804
0.91832312
0.91511896
0.91223485
0.90834105
0.90388846
0.89859086
0.8922884
0.88496276
0.87636861
0.8665257
0.85532432
0.84290493
0.8294774
0.81551724
0.80165509
0.78861832
0.77705488
0.76738917
0.75976436
0.75407193
0.75004286
0.74730497
0.74550611
0.74458361
0.74434925
0.74451537
0.74492041
0.74546764
0.74611009
0.74686699
0.74832122
0.75070846
0.75220909
0.7529759
0.75329308
0.75339085
0.75340305
0.75350709
0.75366421
0.64205066
0.75408603
0.83009724
0.89930931
0.92040331
0.92993222
0.92225279
0.92581637
0.92113234
0.92173036
0.91831012
0.91689109
0.91360389
0.91056135
0.90652631
0.90187117
0.89635634
0.88978735
0.88215919
0.87322117
0.86300018
0.85140441
0.8386027
0.8248554
0.81069607
0.79680978
0.78394893
0.77275109
0.7635898
0.75653102
0.75140001
0.74788265
0.74559246
0.74424582
0.74370537
0.74371561
0.74405899
0.74460801
0.74525421
0.74595632
0.74681615
0.74847937
0.7508545
0.75227584
0.75298768
0.75327439
0.75335741
0.75336248
0.75350217
0.75366632
0.64496105
0.75739517
0.8337812
0.90294335
0.91950826
0.9286846
0.92092611
0.92445928
0.91971672
0.92023535
0.91675781
0.91520758
0.91183161
0.90862164
0.90443535
0.89956699
0.89382141
0.88697231
0.87902582
0.86972874
0.85911566
0.84711675
0.83393407
0.81988425
0.80556226
0.79170623
0.77908816
0.76832453
0.75971967
0.75325411
0.74869889
0.74571088
0.74391408
0.74303059
0.74283497
0.74307506
0.74361183
0.74430417
0.74504143
0.74578855
0.74677408
0.74867389
0.75098738
0.75233021
0.75299087
0.75325301
0.75332405
0.7533229
0.75349834
0.75366908
0.64762048
0.76047766
0.83732704
0.90609128
0.91826037
0.92720983
0.91937367
0.92287005
0.91807094
0.91849479
0.91496346
0.913272
0.90980117
0.90641484
0.90206669
0.89697453
0.89098415
0.88384099
0.87556003
0.86588853
0.85486989
0.84246088
0.82890218
0.81457245
0.80013102
0.78636702
0.77406483
0.76380287
0.75579434
0.74994231
0.74598649
0.74356455
0.74229295
0.74185158
0.74196291
0.7424451
0.74317765
0.74401162
0.74483106
0.74560643
0.74673947
0.74888995
0.75111299
0.75237287
0.7529839
0.75322838
0.75329145
0.75328779
0.75349515
0.75367244
0.65003678
0.76332173
0.84072348
0.90870059
0.91668739
0.92550977
0.91759808
0.92104799
0.91619725
0.91651436
0.91292568
0.91108385
0.90751193
0.90394049
0.89941971
0.89409269
0.88784313
0.88039153
0.87175959
0.86169815
0.8502612
0.83743727
0.82351156
0.80893049
0.79442036
0.78081826
0.76890931
0.75920865
0.75182307
0.74661126
0.74329928
0.74148067
0.74073055
0.74069021
0.74110199
0.74183415
0.74276011
0.74373262
0.74462698
0.74542487
0.74672378
0.74911695
0.75123221
0.75240719
0.75297031
0.75319931
0.75325846
0.7532559
0.75349236
0.75367635
0.65225574
0.76595086
0.84397297
0.91074563
0.91481517
0.92358282
0.91559897
0.91899059
0.91409425
0.91429019
0.91064435
0.90864376
0.90496438
0.90119923
0.89649423
0.8909211
0.88439727
0.8766221
0.86762201
0.85715492
0.84528796
0.832047
0.81776807
0.80297128
0.7884519
0.77508969
0.76365084
0.75455644
0.74781763
0.74329704
0.74067907
0.73947386
0.73921127
0.73954619
0.74026804
0.74124654
0.74236197
0.74346829
0.7444334
0.74527454
0.74674349
0.74934439
0.75134435
0.75243593
0.75295262
0.75316341
0.75322177
0.75322828
0.75348984
0.75368073
0.65429378
0.76837651
0.84703636
0.91226
0.91272043
0.92142419
0.91337885
0.91669853
0.91175991
0.91182674
0.90812238
0.90595446
0.90216015
0.89819208
0.89329061
0.88745933
0.88064545
0.87253065
0.86314455
0.85225614
0.8399488
0.82629186
0.81167905
0.7967103
0.78225092
0.76921271
0.75831295
0.74985466
0.7438083
0.74004887
0.73815157
0.73753576
0.73772399
0.73843825
0.73946684
0.74068617
0.74198551
0.74321837
0.74425115
0.74517622
0.74681206
0.74956134
0.75144809
0.75245978
0.75293077
0.75311941
0.75317649
0.75320662
0.75348754
0.75368555
0.6561838
0.7706318
0.84988384
0.91315704
0.91034846
0.91904555
0.9109443
0.91417998
0.90920205
0.90912852
0.90536306
0.90301838
0.89910046
0.89492004
0.88980901
0.88370698
0.87658605
0.86811422
0.85832359
0.84699848
0.8342423
0.82017435
0.80525377
0.79016661
0.77584654
0.7632179
0.75291108
0.7451182
0.73984861
0.73690745
0.73572035
0.73564693
0.7362844
0.73737595
0.73870322
0.74015606
0.74163252
0.74298131
0.74407436
0.74511686
0.74694129
0.74975903
0.75154176
0.75247765
0.7529021
0.75306743
0.75312015
0.75319342
0.75348558
0.75369081
0.65796013
0.77275981
0.85249199
0.91342563
0.90776316
0.9164521
0.90829768
0.91143834
0.90642324
0.90619817
0.902368
0.89983704
0.89578645
0.89138402
0.88604955
0.87966265
0.87221623
0.86336878
0.85315479
0.84137833
0.82816723
0.81369806
0.79850399
0.783363
0.76927002
0.75713076
0.74745468
0.74038893
0.73599303
0.73389395
0.73336384
0.73381449
0.73490776
0.7363644
0.7379804
0.73965874
0.74130457
0.74275533
0.74389254
0.74507647
0.74713067
0.74993655
0.75162355
0.75248808
0.75286688
0.75300964
0.75305469
0.75318634
0.75348482
0.75369654
0.65964832
0.77476451
0.85481693
0.91307414
0.90496264
0.91364815
0.9054443
0.90847613
0.90342524
0.90303706
0.89913853
0.89641236
0.89221937
0.88758469
0.88201107
0.87532348
0.86753155
0.85828889
0.84763282
0.83539162
0.82172274
0.8068682
0.79144502
0.77632658
0.76255293
0.75096958
0.74196046
0.7357338
0.73228007
0.73099664
0.73107413
0.73206172
0.7335988
0.73540776
0.73730102
0.73919631
0.74100318
0.74254065
0.74370064
0.74504618
0.74736561
0.75010152
0.75169201
0.7524873
0.7528273
0.75294948
0.75298556
0.75318171
0.75348671
0.7537027
0.66130358
0.77666958
0.85683421
0.91211786
0.90196451
0.91063137
0.90238431
0.90529329
0.90020923
0.89964734
0.89567706
0.89274678
0.88839999
0.88352089
0.87769021
0.87068425
0.86252583
0.85286806
0.84175178
0.82903425
0.8149086
0.79969213
0.7840958
0.76908734
0.75572341
0.74474639
0.73647517
0.73121325
0.72872638
0.72818614
0.72887657
0.73039678
0.73236278
0.73450898
0.73666726
0.73877101
0.74072969
0.7423407
0.74351341
0.74503538
0.74762969
0.75025869
0.75174773
0.75247576
0.7527851
0.75289233
0.75292616
0.75317866
0.7534913
0.75370926
0.66285217
0.77848623
0.85848938
0.91054939
0.89877046
0.90740296
0.89911668
0.90189484
0.89677925
0.89603381
0.89198603
0.88884095
0.88432591
0.87918799
0.87308071
0.86573783
0.85719156
0.84709879
0.83550516
0.82230196
0.80772568
0.7921802
0.77647988
0.76167685
0.74880411
0.73847789
0.73107318
0.72686911
0.72531182
0.72546777
0.72678919
0.72882572
0.73120289
0.73367041
0.73608167
0.73838569
0.74048496
0.74215979
0.7433679
0.74505895
0.74790942
0.75040656
0.75179215
0.75245788
0.75274098
0.75284201
0.75287554
0.75317655
0.75349769
0.75371616
0.66432344
0.78026911
0.85975745
0.90842005
0.89539779
0.90397694
0.8956547
0.89828673
0.89314022
0.89219728
0.88806332
0.88469011
0.87999014
0.87457819
0.86817447
0.86047593
0.85152054
0.84097312
0.82888615
0.81519083
0.80017638
0.78434641
0.76862459
0.75412522
0.74181129
0.73220753
0.72582312
0.72271805
0.72200687
0.72287442
0.724818
0.72735248
0.73012157
0.7328941
0.73554754
0.73804331
0.74026866
0.74199747
0.74328233
0.74512341
0.74819085
0.75054181
0.75182466
0.75243269
0.75269264
0.75279814
0.75283957
0.75317539
0.75350538
0.75372336
0.6657083
0.78203541
0.86058017
0.905758
0.89183799
0.90034961
0.89199519
0.89446579
0.88928663
0.88813092
0.88389964
0.88028474
0.87538307
0.86968267
0.86296312
0.85489001
0.84550394
0.83448236
0.82188757
0.80769742
0.79226577
0.77620948
0.76056054
0.74645962
0.73476091
0.72601073
0.72077643
0.71873758
0.7188233
0.72042231
0.72296889
0.72597979
0.72912036
0.73218212
0.73506815
0.73774466
0.74007838
0.7418463
0.74323535
0.74524346
0.74845777
0.75066126
0.75184417
0.7523967
0.7526372
0.75275391
0.75282179
0.75317719
0.75351414
0.7537308
0.66699008
0.78379028
0.86090104
0.90260081
0.8880888
0.89651804
0.88813141
0.89042238
0.88520641
0.88382236
0.87948288
0.87561495
0.87049622
0.86449369
0.85743854
0.8489709
0.83913215
0.8276172
0.814502
0.79981934
0.78400216
0.76779253
0.7523184
0.73870206
0.72768594
0.71996729
0.71595994
0.7148944
0.71579599
0.71811828
0.72124518
0.7247091
0.72820028
0.73153637
0.73464426
0.73748467
0.73990914
0.7416993
0.74321002
0.74543117
0.7486962
0.75076309
0.75185228
0.75235227
0.75257482
0.75269859
0.75281344
0.7531847
0.7535239
0.75373842
0.66815943
0.7855488
0.86069063
0.89896017
0.88413558
0.89246127
0.88404707
0.88613799
0.88088482
0.8792604
0.87480488
0.8706749
0.86532374
0.85900422
0.85159198
0.84270829
0.83239438
0.82036754
0.8067221
0.79155614
0.77539851
0.75912319
0.74392759
0.73087091
0.72065607
0.71414181
0.7113571
0.71119777
0.71294373
0.7159677
0.71964899
0.72354089
0.72736205
0.73095788
0.73427106
0.73725149
0.73975471
0.74156194
0.74320489
0.7456819
0.74890554
0.7508478
0.75184986
0.75230379
0.75250699
0.75262931
0.75280901
0.7531972
0.75353467
0.75374617
0.66913044
0.78727227
0.85989929
0.89491835
0.87995236
0.88815898
0.87972565
0.88160424
0.87631703
0.87444445
0.86986404
0.86546168
0.85985966
0.8532056
0.84541271
0.83609016
0.82527876
0.81272269
0.79854093
0.78291009
0.76647234
0.75023121
0.7354146
0.72298944
0.71376315
0.70857667
0.70692617
0.7076871
0.71027344
0.71397358
0.71818083
0.72247483
0.72660606
0.73044543
0.73393756
0.73703398
0.73961168
0.74145853
0.74323231
0.74597418
0.74909669
0.75091787
0.75183829
0.75225358
0.75243861
0.75255557
0.75280708
0.75321315
0.75354644
0.75375399
0.66989918
0.78891937
0.85848999
0.8908228
0.87554581
0.88362026
0.87517685
0.87683224
0.87150938
0.86937734
0.86465812
0.85996891
0.85409443
0.84708608
0.83888774
0.82910311
0.81777237
0.80467157
0.78995266
0.77388754
0.75724633
0.74114706
0.72680398
0.71511248
0.70708794
0.70327191
0.70266578
0.7043862
0.70779073
0.71213725
0.71684004
0.72151023
0.72593203
0.72999439
0.73363277
0.73683928
0.73948646
0.74140289
0.74329695
0.7462903
0.74927433
0.75097461
0.75182071
0.75220318
0.75237902
0.75249569
0.75280662
0.75323147
0.75355896
0.75376183
0.67048974
0.79048794
0.85648874
0.88652967
0.87094006
0.87886506
0.87041377
0.87182806
0.86646064
0.86405244
0.85917678
0.85418465
0.84801492
0.84063153
0.83200273
0.82173263
0.80986162
0.796203
0.78095357
0.76449928
0.74774698
0.73189937
0.71811898
0.70733029
0.70068907
0.69818783
0.69861571
0.70130392
0.70549835
0.71045822
0.71562498
0.72064611
0.72533798
0.72959653
0.73335916
0.73670273
0.73939933
0.74137891
0.74339714
0.74661776
0.74943707
0.751016
0.75179526
0.75215297
0.75233345
0.75246002
0.75280775
0.75325155
0.75357199
0.75376964
0.67097187
0.7919511
0.85391934
0.88187023
0.86613314
0.87388415
0.86542421
0.86657493
0.86115538
0.8584544
0.85340502
0.84809462
0.84160657
0.8338269
0.82474223
0.81396329
0.80153221
0.78730643
0.77154332
0.75476192
0.73800384
0.72251636
0.70939518
0.69974095
0.6945945
0.69330573
0.69480732
0.69844639
0.70339704
0.70893457
0.71453358
0.71988116
0.72481917
0.72924256
0.73314408
0.73663477
0.7393555
0.74137216
0.74353682
0.74694343
0.74958141
0.75104
0.75175871
0.75210236
0.75229799
0.75244385
0.75281384
0.75327298
0.75358536
0.75377739
0.67137768
0.79322864
0.85077703
0.8770002
0.8610995
0.86865209
0.86018588
0.86105334
0.85557657
0.85256936
0.84732889
0.84168479
0.83485448
0.82665621
0.81708993
0.80577888
0.7927694
0.7779725
0.76172575
0.74469706
0.72804683
0.71302571
0.70070662
0.6924255
0.68878293
0.68865074
0.69125712
0.69581627
0.70148527
0.70756328
0.71356375
0.71921254
0.72436727
0.72892889
0.73301396
0.73660184
0.73933589
0.74138244
0.74372686
0.74724943
0.74970451
0.75104926
0.75171459
0.7520496
0.75226189
0.75243725
0.75282796
0.75329538
0.75359894
0.75378504
0.67172486
0.79420928
0.84707276
0.87184237
0.85581835
0.86315447
0.85468583
0.85525435
0.84971279
0.84638627
0.84093512
0.83494055
0.82774258
0.81910231
0.80902832
0.79716196
0.78355808
0.76819408
0.75151004
0.73433118
0.7179066
0.70345907
0.69216027
0.68543935
0.68321372
0.68426784
0.68797141
0.69341386
0.69975987
0.70634109
0.71271316
0.71863435
0.72397137
0.72867075
0.73295234
0.73658571
0.73932988
0.74142386
0.74397759
0.74751838
0.74980547
0.75104825
0.75166817
0.75199405
0.75221511
0.7524356
0.75284919
0.7533185
0.75361264
0.75379257
0.67204566
0.79481958
0.84284057
0.86639616
0.85028475
0.8573876
0.84891923
0.84917026
0.84355354
0.83989226
0.8342089
0.82784561
0.82025358
0.81114657
0.80053836
0.78809382
0.7738832
0.75796721
0.74091061
0.72369295
0.70761446
0.6938687
0.68385955
0.67879227
0.67788946
0.68018404
0.68495352
0.69123671
0.69821669
0.7052649
0.71197783
0.71813621
0.7236232
0.72850423
0.73292396
0.73658296
0.73933604
0.7415074
0.74428171
0.7477471
0.749886
0.7510396
0.75162284
0.75193899
0.75216049
0.75243661
0.75287635
0.75334213
0.75362641
0.75379994
0.67229503
0.79507788
0.83813004
0.86067951
0.84449446
0.8513413
0.84287656
0.84278728
0.83708407
0.83307215
0.82713361
0.8203826
0.81236863
0.80276876
0.79159928
0.77855461
0.76373088
0.74729298
0.7299482
0.71281286
0.69720386
0.68434837
0.67588937
0.67244829
0.67285904
0.67640687
0.68220362
0.68928077
0.69685166
0.70433123
0.71134942
0.7177048
0.7233307
0.72842744
0.73291523
0.73660025
0.73936133
0.74163331
0.74461481
0.74794693
0.74994932
0.75102516
0.75157987
0.75189223
0.75211705
0.75243945
0.75290788
0.75336611
0.7536402
0.75380716
0.67235483
0.79507546
0.83295387
0.85467358
0.83843709
0.8449987
0.83654272
0.83608993
0.83028825
0.8259104
0.81969227
0.81253264
0.804067
0.79394643
0.78218833
0.76852375
0.75308973
0.73617822
0.71864858
0.7017232
0.68671424
0.67501619
0.66829794
0.66638531
0.66816094
0.67294173
0.67971903
0.68754107
0.69566076
0.70353363
0.7108134
0.7173299
0.72312989
0.7283955
0.73293138
0.73663919
0.7394106
0.74179886
0.74495792
0.74812553
0.74999767
0.75100644
0.75154057
0.75185918
0.75209634
0.75244553
0.75294237
0.75339023
0.75365398
0.75381421
0.67219845
0.79472448
0.82734612
0.84836035
0.8320975
0.83834582
0.82990133
0.82906552
0.82315101
0.81839131
0.81186602
0.80427394
0.79532472
0.78465412
0.77228056
0.75798066
0.74195235
0.7246363
0.70704173
0.69046174
0.67621728
0.66598357
0.66108011
0.66062986
0.66381642
0.66978924
0.67749518
0.68601251
0.69463827
0.70285907
0.71035251
0.71701821
0.72303104
0.72838918
0.73297853
0.73669825
0.73948414
0.74199909
0.74529965
0.74828541
0.75003235
0.75098366
0.75150526
0.75183637
0.75208979
0.75245841
0.75297867
0.75341431
0.75366772
0.75382106
0.67173732
0.79400945
0.82132359
0.84173792
0.82546888
0.83137312
0.82294241
0.82170184
0.81565608
0.81049552
0.8036317
0.79558043
0.78611407
0.77486343
0.76184923
0.74690603
0.7303165
0.71268685
0.69515912
0.67907047
0.66582872
0.65733899
0.65419391
0.65523579
0.6598317
0.66694705
0.67552625
0.68468913
0.69377273
0.70228713
0.70995815
0.71680507
0.72299152
0.72841211
0.73305374
0.73677666
0.73958277
0.74222892
0.7456309
0.74842674
0.75005626
0.75095905
0.75147173
0.75181652
0.75209072
0.75247964
0.75301593
0.75343812
0.7536814
0.75382771
0.67091336
0.79294499
0.81491696
0.83480081
0.81854436
0.82406832
0.8156518
0.81398019
0.80778061
0.80219742
0.7949609
0.78642177
0.77640406
0.76454334
0.75086684
0.73528366
0.71818707
0.70035602
0.68303724
0.66760238
0.6556837
0.64912008
0.64763602
0.65024018
0.65620961
0.66441026
0.67380566
0.68356152
0.69304405
0.70179878
0.7096469
0.71670093
0.72298478
0.72847283
0.7331548
0.73687372
0.73970782
0.74248531
0.74594219
0.74854884
0.75007162
0.75093357
0.75143885
0.75179304
0.75209524
0.75250861
0.75305361
0.75346153
0.75369498
0.75383414
0.66965858
0.79153487
0.80812567
0.82753679
0.81130716
0.81640887
0.80800462
0.80587349
0.79949475
0.79346632
0.78582123
0.77676435
0.76616081
0.75366091
0.73930657
0.72310221
0.70557619
0.68767456
0.67072071
0.65615162
0.64590172
0.64130471
0.64145947
0.64565585
0.65294847
0.6621721
0.67232442
0.68261263
0.69242804
0.7013959
0.70945382
0.71666187
0.72300948
0.72856774
0.73327909
0.73698956
0.73986182
0.74276836
0.74622347
0.74865068
0.75007769
0.75090286
0.75140694
0.75177101
0.75210165
0.75254375
0.75309138
0.75348453
0.75370834
0.75384036
0.66789857
0.78943654
0.80093859
0.81991037
0.80372776
0.80836159
0.79996845
0.79735046
0.79076521
0.78426853
0.77617714
0.76657101
0.7553473
0.74218132
0.72714335
0.71035703
0.69250396
0.67467834
0.65826461
0.64485804
0.63656621
0.63386444
0.63571818
0.64148918
0.65004378
0.66022414
0.67106835
0.68181709
0.69191348
0.70111535
0.70937165
0.7166595
0.72307458
0.72869459
0.73342431
0.73712486
0.74004719
0.74307757
0.74646591
0.74873137
0.75007507
0.75087018
0.75138167
0.75176206
0.75211009
0.75258295
0.75312909
0.75350714
0.75372134
0.75384634
0.66558093
0.78690239
0.79333197
0.81189137
0.79577537
0.79989482
0.79151233
0.78837941
0.78155633
0.77456705
0.76598911
0.75580081
0.74392322
0.7300692
0.71435608
0.69705131
0.67899749
0.66141077
0.64574293
0.6338707
0.62770033
0.62682199
0.6304448
0.63774013
0.64748789
0.65855426
0.67001554
0.68115045
0.69152254
0.70097115
0.7093475
0.71669238
0.72317842
0.72885012
0.73358856
0.73728069
0.74026391
0.74340372
0.74666771
0.74879291
0.75007032
0.75084959
0.75137008
0.75176431
0.75212388
0.75262536
0.75316656
0.75352933
0.75373391
0.75385205
0.66273766
0.7839025
0.78530719
0.8034452
0.78742564
0.79097606
0.78260251
0.77892483
0.77182832
0.76431949
0.75521341
0.74440861
0.73184624
0.71729049
0.70093026
0.68319767
0.66509124
0.64792901
0.63328202
0.62332053
0.61927278
0.62024655
0.62564853
0.63440511
0.64527013
0.65714392
0.66913902
0.68061158
0.69128772
0.70091776
0.70936134
0.7167688
0.72331846
0.72903139
0.7337704
0.73745793
0.74050853
0.7437274
0.74683784
0.74884153
0.75006924
0.75084396
0.75136978
0.75177144
0.75214563
0.75267245
0.75320354
0.75355105
0.75374606
0.75385747
0.65932369
0.7803363
0.77683584
0.7945352
0.77864145
0.78157105
0.77319518
0.76894651
0.76153445
0.75347774
0.7438008
0.73234586
0.71907266
0.70381502
0.68685991
0.66881793
0.65082781
0.6343052
0.62104709
0.61327883
0.61127823
0.61418931
0.62133367
0.63147592
0.64337485
0.65596661
0.66841789
0.68024055
0.69118812
0.70091683
0.70941821
0.71688638
0.72349145
0.72923565
0.73396879
0.73765675
0.74077498
0.74403305
0.74698663
0.74888406
0.75007247
0.75084476
0.751375
0.75178085
0.75217531
0.75272391
0.75323991
0.75357224
0.75375777
0.75386264
0.6553415
0.77615314
0.76791818
0.78512382
0.76938442
0.77163599
0.76324449
0.75839621
0.75062222
0.74198738
0.73169804
0.71956138
0.70556014
0.68961826
0.67214901
0.65394429
0.63626527
0.62064773
0.6092013
0.60375092
0.60377522
0.60867494
0.61749812
0.62894019
0.64177971
0.65499341
0.66785754
0.68004911
0.69116466
0.70096429
0.70952292
0.71704182
0.72369417
0.72946048
0.73418303
0.73787638
0.74105631
0.74431425
0.74712022
0.74892445
0.75007889
0.75084759
0.75138233
0.75179146
0.7522121
0.75277592
0.7532757
0.7535928
0.75376902
0.75386767
0.65075007
0.77127202
0.75851254
0.77515747
0.75960351
0.76111969
0.75269158
0.74721854
0.73903262
0.72978925
0.71884862
0.70600334
0.69126851
0.674684
0.65681189
0.63861817
0.62147969
0.60712004
0.59787539
0.59471097
0.59683847
0.60371268
0.61413422
0.62677918
0.64045516
0.65420695
0.66749421
0.67997772
0.69119895
0.70106662
0.70966987
0.7172313
0.72392341
0.72970381
0.73441266
0.73811518
0.74134619
0.74457143
0.74724095
0.74896404
0.75008745
0.75085188
0.75139089
0.75180426
0.75225466
0.75282696
0.75331073
0.75361268
0.75377976
0.75387245
0.64553058
0.76561364
0.74859343
0.76458952
0.749248
0.74996622
0.7414713
0.73535137
0.72670334
0.7168215
0.70519427
0.6916196
0.6761625
0.65900526
0.64087481
0.62289555
0.60657197
0.59391713
0.58712185
0.58619202
0.59051639
0.59930364
0.61122795
0.62496678
0.63937028
0.65362031
0.6673219
0.6799811
0.69129712
0.7012192
0.70985515
0.71745106
0.72417608
0.72996388
0.73465738
0.73837104
0.74163976
0.74480963
0.74734905
0.74900216
0.75009779
0.75085811
0.75140144
0.75182199
0.7523019
0.75287783
0.75334478
0.75363184
0.75378996
0.75387701
0.63969786
0.75908691
0.73812369
0.75335113
0.73824492
0.73811656
0.72951562
0.72272944
0.71357082
0.7030204
0.69067502
0.67635914
0.66021322
0.64258772
0.62437751
0.60685595
0.59169994
0.5812156
0.5769251
0.57828748
0.58482405
0.5954413
0.60875749
0.62346995
0.63850698
0.65325655
0.66726903
0.68005755
0.69145777
0.70141657
0.71007402
0.71769745
0.72444918
0.73023913
0.73491685
0.73864166
0.74193335
0.74503293
0.74744758
0.74903681
0.75011003
0.75086672
0.75141361
0.75184645
0.75235325
0.75292831
0.75337779
0.75365028
0.75379965
0.75388136
0.63323033
0.75154219
0.72704042
0.74136367
0.72651595
0.72550989
0.71675704
0.70928831
0.69956893
0.68831851
0.67522659
0.66017249
0.64340179
0.6254508
0.6073774
0.59060882
0.57707481
0.56912058
0.56730279
0.57106735
0.57976913
0.59211095
0.60669288
0.62225467
0.63788023
0.6530879
0.66730227
0.68021201
0.69167293
0.70165302
0.71032225
0.71796697
0.72473991
0.73052807
0.73519059
0.73892483
0.74222402
0.74524229
0.74754029
0.74906729
0.75012319
0.75087698
0.7514271
0.75187804
0.75240845
0.7529781
0.75340969
0.75366803
0.75380884
0.75388554
0.62612064
0.74279548
0.71528897
0.72856616
0.71399881
0.71208414
0.70312918
0.69495678
0.68462336
0.67263753
0.6587796
0.64301419
0.62572174
0.60763204
0.58995796
0.57430749
0.56291053
0.55765732
0.55834487
0.56456623
0.57534733
0.58928796
0.60499725
0.62130043
0.63750456
0.65304754
0.66742375
0.6804342
0.69193587
0.70192311
0.71059568
0.71825627
0.72504565
0.73082927
0.73547773
0.73921832
0.74250985
0.74543878
0.74762675
0.74909547
0.75013518
0.75088831
0.75144321
0.75191623
0.75246687
0.75302739
0.75344019
0.75368509
0.75381765
0.75388956
0.61841389
0.73265957
0.70282231
0.71491134
0.70063032
0.69777687
0.6885532
0.67964554
0.66864094
0.65588737
0.64126222
0.62484884
0.60718474
0.58918978
0.572238
0.55817217
0.54937645
0.54683832
0.55014794
0.55879924
0.57154446
0.58693794
0.60363306
0.62062235
0.63733544
0.65310894
0.6676307
0.68071595
0.69223951
0.70222167
0.71089041
0.71856223
0.72536405
0.73114139
0.73577704
0.7395198
0.74278942
0.74562326
0.7477072