/*--------------------------------*- C++ -*----------------------------------*\
  =========                 |
  \\      /  F ield         | OpenFOAM: The Open Source CFD Toolbox
   \\    /   O peration     | Website:  https://openfoam.org
    \\  /    A nd           | Version:  8
     \\/     M anipulation  |
\*---------------------------------------------------------------------------*/
FoamFile
{
    version     2.0;
    format      ascii;
    class       surfaceScalarField;
    location    "0.0599932";
    object      meshPhi;
}
// * * * * * * * * * * * * * * * * * * * * * * * * * * * * * * * * * * * * * //

dimensions      [0 3 -1 0 0 0 0];

internalField   nonuniform List<scalar> 
39600
(
-6.0310012e-05
-3.9346857e-06
4.0595418e-06
-6.042765e-05
-4.7005716e-06
4.8010977e-06
-6.0579514e-05
-5.6321805e-06
5.7519258e-06
-6.0768634e-05
-6.7477959e-06
6.8913064e-06
-6.1012888e-05
-8.0841416e-06
8.256307e-06
-6.1316534e-05
-9.684979e-06
9.8915583e-06
-6.1703548e-05
-1.1602415e-05
1.1850409e-05
-6.2184343e-05
-1.3898641e-05
1.4196641e-05
-6.2778241e-05
-1.6647987e-05
1.7006318e-05
-6.3502656e-05
-1.9938914e-05
2.0370039e-05
-6.4366658e-05
-2.3876274e-05
2.4395285e-05
-6.540935e-05
-2.8584229e-05
2.9209356e-05
-6.6663755e-05
-3.4209099e-05
3.4962463e-05
-6.8189756e-05
-4.0922294e-05
4.1831141e-05
-7.0033081e-05
-4.8924074e-05
5.0021415e-05
-7.2265651e-05
-5.844494e-05
5.9772007e-05
-7.5167128e-05
-6.9745436e-05
7.1355013e-05
-7.9058466e-05
-8.3111302e-05
8.5066067e-05
-8.4069527e-05
-9.8848079e-05
0.00010122586
-9.0377008e-05
-0.00011726876
0.00012016891
-9.8283346e-05
-0.00013865667
0.00014220993
-0.00010817355
-0.00016332378
0.00016771442
-0.00012129054
-0.00019143309
0.00019689728
-0.00013802604
-0.00022312125
0.00022997118
-0.00015986438
-0.00025819679
0.00026678744
-0.00018015109
-0.00029706329
0.00030779776
-0.00020695036
-0.00033939172
0.00035277584
-0.00025110487
-0.00038033301
0.00039737762
-0.00031490455
-0.00041326319
0.0004358068
-0.00039342536
-0.0004389994
0.0004693909
-0.00048360832
-0.0004640355
0.00050420188
-0.00057823019
-0.00049321683
0.00054510199
-0.00068619696
-0.00052572077
0.00059174423
-0.00082063457
-0.00054515501
0.00062831175
-0.00096431023
-0.00055002701
0.00065357725
-0.0011423885
-0.00054191289
0.00066954702
-0.0013314579
-0.00051807171
0.00067361714
-0.0015380289
-0.00048298464
0.00066929648
-0.0017546686
-0.00043878002
0.00065824348
-0.0019756152
-0.00037940817
0.00063217542
-0.002222245
-0.00031070642
0.00059845023
-0.0024576859
-0.00023927721
0.00056229097
-0.0026605589
-0.00011611798
0.0004659784
-0.0028888861
8.471669e-05
0.00028452598
-0.0030689002
0.00035071232
3.1558327e-05
-0.0031426355
0.00065441866
-0.00028720503
-0.0033409615
0.00090924114
-0.00056496231
-0.0035378185
0.0010390039
-0.00070645626
-0.0034580455
0.0011836108
-0.00092174195
0.00067073513
-0.00060486795
-4.8413935e-05
-3.8668632e-06
-4.8504513e-05
-4.6192264e-06
-4.861535e-05
-5.5341131e-06
-4.8748573e-05
-6.6301207e-06
-4.8912396e-05
-7.9431205e-06
-4.9112652e-05
-9.5157071e-06
-4.9367815e-05
-1.1399292e-05
-4.9688232e-05
-1.3654727e-05
-5.010123e-05
-1.6355004e-05
-5.06265e-05
-1.958665e-05
-5.1295185e-05
-2.3452481e-05
-5.2146632e-05
-2.8074081e-05
-5.320651e-05
-3.3594843e-05
-5.4521886e-05
-4.0182379e-05
-5.6098305e-05
-4.8032916e-05
-5.8038719e-05
-5.7368892e-05
-6.0615e-05
-6.8439267e-05
-6.4123271e-05
-8.1519761e-05
-6.8714304e-05
-9.6908796e-05
-7.4502711e-05
-0.00011490422
-8.1776169e-05
-0.00013576747
-9.0966344e-05
-0.00015975085
-0.00010320536
-0.00018696996
-0.00011899488
-0.00021749714
-0.00013969731
-0.00025108663
-0.0001601993
-0.00028801889
-0.00018737942
-0.00032778201
-0.00023174935
-0.00036515777
-0.0002957077
-0.00039264918
-0.0003735707
-0.00041062325
-0.00046214144
-0.00042614354
-0.00055633142
-0.00044414292
-0.00066457984
-0.00046235474
-0.00079887826
-0.00046439231
-0.00094339107
-0.00044871917
-0.0011208085
-0.00041634646
-0.0013107389
-0.0003645109
-0.001517722
-0.00029852079
-0.0017361353
-0.00022094345
-0.0019601744
-0.00012732381
-0.0022095361
-2.3236597e-05
-0.0024469582
8.470329e-05
-0.0026543303
0.00023688917
-0.0028847793
0.00045889079
-0.0030709838
0.00073829619
-0.0031720024
0.001028421
-0.0033597127
0.0012576753
-0.0035451116
0.0013746145
-0.0034664214
0.0014512635
0.0007436164
-3.7234843e-05
-3.8136456e-06
-3.7152336e-05
-4.5555748e-06
-3.7086408e-05
-5.4579673e-06
-3.706924e-05
-6.5389693e-06
-3.7107076e-05
-7.8339154e-06
-3.7197696e-05
-9.3848738e-06
-3.7344495e-05
-1.1242393e-05
-3.7553765e-05
-1.3466525e-05
-3.7850689e-05
-1.6129043e-05
-3.8249733e-05
-1.9315268e-05
-3.8787886e-05
-2.3126302e-05
-3.9488846e-05
-2.7682159e-05
-4.0381867e-05
-3.3123608e-05
-4.1482049e-05
-3.9616154e-05
-4.2799309e-05
-4.7352721e-05
-4.4465793e-05
-5.6548044e-05
-4.6714583e-05
-6.7442174e-05
-4.9819246e-05
-8.0302536e-05
-5.3919991e-05
-9.5421971e-05
-5.911861e-05
-0.00011308877
-6.5702344e-05
-0.00013354276
-7.4140249e-05
-0.00015698748
-8.5418367e-05
-0.00018348981
-0.00010012502
-0.00021306635
-0.00011955206
-0.0002453912
-0.00014016718
-0.00028057364
-0.00016771252
-0.00031792513
-0.0002121096
-0.00035181583
-0.00027604086
-0.00037399824
-0.00035306079
-0.0003845208
-0.00043994158
-0.00039086836
-0.00053341419
-0.00039791563
-0.00064212566
-0.00040201531
-0.00077590228
-0.00038682833
-0.00092140409
-0.00035071574
-0.0010979937
-0.00029418197
-0.0012887872
-0.00021436835
-0.001496211
-0.00011732651
-0.0017162063
-6.1239054e-06
-0.0019436171
0.00012243771
-0.002195863
0.00026296759
-0.0024352047
0.00040826777
-0.0026469287
0.00059072322
-0.0028802812
0.0008354397
-0.0030718102
0.0011297358
-0.0032007577
0.0014126098
-0.0033790161
0.0016204497
-0.0035533124
0.001719659
-0.0034715862
0.0017300375
0.00082793452
-2.6876381e-05
-3.7745476e-06
-2.6760189e-05
-4.5086632e-06
-2.6642757e-05
-5.4016702e-06
-2.655075e-05
-6.4715008e-06
-2.6491511e-05
-7.7531627e-06
-2.6469248e-05
-9.2883536e-06
-2.6487862e-05
-1.1127013e-05
-2.6565517e-05
-1.3328707e-05
-2.6720696e-05
-1.5964432e-05
-2.6975232e-05
-1.9118574e-05
-2.7354636e-05
-2.2891211e-05
-2.787484e-05
-2.7401087e-05
-2.8565611e-05
-3.2787193e-05
-2.9419617e-05
-3.9213796e-05
-3.0478674e-05
-4.6870654e-05
-3.186268e-05
-5.5967457e-05
-3.3795365e-05
-6.6736093e-05
-3.6505705e-05
-7.9438241e-05
-4.0093952e-05
-9.4364768e-05
-4.470841e-05
-0.00011179438
-5.062824e-05
-0.00013194665
-5.8324239e-05
-0.00015498609
-6.8676595e-05
-0.00018093556
-8.2297338e-05
-0.00020975929
-0.0001005613
-0.00024102796
-0.00012107729
-0.0002746553
-0.00014881232
-0.0003097534
-0.00019315142
-0.00034024853
-0.00025671462
-0.00035730991
-0.00033273662
-0.00036075186
-0.00041793896
-0.00035831471
-0.00051068098
-0.00035465087
-0.00061955909
-0.00034487705
-0.00075268906
-0.0003127306
-0.00089883807
-0.00025639482
-0.0010746476
-0.00017588931
-0.0012661943
-6.8170472e-05
-0.0014740529
5.9995558e-05
-0.0016956395
0.00020502426
-0.0019262903
0.00036912866
-0.0021815027
0.00054712167
-0.002423173
0.00073074948
-0.0026396034
0.0009449639
-0.0028762194
0.0012141574
-0.0030732336
0.0015250644
-0.003225658
0.0018059105
-0.0033976452
0.0019959062
-0.0035639096
0.0020745233
-0.0034779217
0.0020207679
0.00092327033
-1.7306691e-05
-3.7493853e-06
-1.7306865e-05
-4.4783225e-06
-1.7280538e-05
-5.3651846e-06
-1.7225819e-05
-6.4277441e-06
-1.7147661e-05
-7.7007117e-06
-1.7061217e-05
-9.2256292e-06
-1.6977229e-05
-1.1052137e-05
-1.6921994e-05
-1.3239448e-05
-1.6911136e-05
-1.585815e-05
-1.6975155e-05
-1.8992264e-05
-1.7133144e-05
-2.2741218e-05
-1.7409552e-05
-2.7223166e-05
-1.7833454e-05
-3.2576285e-05
-1.840977e-05
-3.8963565e-05
-1.9181728e-05
-4.6573199e-05
-2.0274642e-05
-5.5610582e-05
-2.1882926e-05
-6.6301899e-05
-2.4168361e-05
-7.8906073e-05
-2.7247843e-05
-9.371087e-05
-3.1291126e-05
-0.00011098648
-3.6570056e-05
-0.00013093811
-4.3541065e-05
-0.00015369823
-5.3002492e-05
-0.00017924886
-6.5560262e-05
-0.00020750672
-8.2728983e-05
-0.00023792522
-0.00010291776
-0.00027020379
-0.00013068717
-0.00030322344
-0.0001749235
-0.00033043932
-0.00023785826
-0.00034257272
-0.00031274877
-0.00033928597
-0.00039627596
-0.00032844124
-0.00048826741
-0.00031435548
-0.00059706837
-0.00029094754
-0.00072942783
-0.00024211344
-0.00087593605
-0.0001657966
-0.0010509874
-6.1519241e-05
-0.0012431822
7.4002661e-05
-0.0014514445
0.00023334262
-0.0016746106
0.00041237857
-0.0019083705
0.00061261053
-0.00216662
0.00082899305
-0.0024110077
0.0010519641
-0.0026325588
0.0012995556
-0.0028727449
0.001595109
-0.0030752892
0.0019242775
-0.0032473505
0.0022075683
-0.0034159133
0.0023829347
-0.0035764403
0.0024387447
-0.0034849937
0.0023225048
0.0010287856
-8.1898699e-06
-3.7377616e-06
-8.162179e-06
-4.4645507e-06
-8.1049565e-06
-5.3489745e-06
-8.0242854e-06
-6.4086067e-06
-7.9274614e-06
-7.6780312e-06
-7.8252814e-06
-9.1986224e-06
-7.724161e-06
-1.1019905e-05
-7.6391808e-06
-1.3200919e-05
-7.5767813e-06
-1.5812151e-05
-7.5572453e-06
-1.893754e-05
-7.5923544e-06
-2.2676402e-05
-7.703811e-06
-2.7146885e-05
-7.9209804e-06
-3.2486942e-05
-8.2607236e-06
-3.885931e-05
-8.7820143e-06
-4.6451198e-05
-9.6023932e-06
-5.5465356e-05
-1.0881581e-05
-6.612459e-05
-1.2754563e-05
-7.8685202e-05
-1.534397e-05
-9.3433158e-05
-1.8833833e-05
-0.00011063344
-2.3493499e-05
-0.00013047884
-2.9759977e-05
-0.00015307515
-3.8365937e-05
-0.00017837016
-4.9904232e-05
-0.00020623096
-6.6004713e-05
-0.00023599273
-8.5686703e-05
-0.00026714624
-0.00011338035
-0.00029827349
-0.00015746184
-0.00032233011
-0.00021959272
-0.00032975245
-0.00029325177
-0.00032010235
-0.00037510876
-0.00030124946
-0.00046631991
-0.00027705379
-0.00057486053
-0.00024031286
-0.00070633546
-0.0001751237
-0.00085297283
-7.9144839e-05
-0.0010272715
4.8630605e-05
-0.0012200169
0.00021180284
-0.0014286448
0.00040229534
-0.0016533556
0.00061545991
-0.0018900989
0.00085232245
-0.0021514337
0.0011079738
-0.0023988647
0.0013712818
-0.0026258637
0.0016538804
-0.0028698934
0.0019777036
-0.0030779602
0.0023269398
-0.00326644
0.0026164347
-0.0034339579
0.0027802642
-0.003590664
0.0028126311
-0.0034925282
0.0026357634
0.0011441634
3.3563024e-07
-3.738898e-06
3.7175067e-07
-4.4656044e-06
4.3441532e-07
-5.3500146e-06
5.1896903e-07
-6.4096368e-06
6.1756511e-07
-7.6791613e-06
7.2509016e-07
-9.200015e-06
8.3953298e-07
-1.1021827e-05
9.530958e-07
-1.320379e-05
1.0656504e-06
-1.5816594e-05
1.1624844e-06
-1.8944435e-05
1.2373705e-06
-2.2686887e-05
1.2701844e-06
-2.7162498e-05
1.2334484e-06
-3.2509539e-05
1.1031912e-06
-3.8890913e-05
8.1243568e-07
-4.6493734e-05
2.4896724e-07
-5.551929e-05
-7.1714986e-07
-6.6188091e-05
-2.1982331e-06
-7.8755599e-05
-4.3204064e-06
-9.3507641e-05
-7.2774186e-06
-0.00011070654
-1.1339838e-05
-0.00013053505
-1.6926311e-05
-0.00015307803
-2.4715476e-05
-0.00017825189
-3.5285076e-05
-0.00020587651
-5.0334325e-05
-0.00023517481
-6.9376558e-05
-0.00026542941
-9.6917764e-05
-0.00029485584
-0.00014078864
-0.00031588182
-0.0002019879
-0.00031879333
-0.00027433973
-0.0003031114
-0.00035453221
-0.00027662933
-0.00044493518
-0.00024265439
-0.00055306726
-0.00019285906
-0.00068355984
-0.00011163061
-0.00083012583
3.6931916e-06
-0.0010036674
0.00015469499
-0.0011968722
0.00034535106
-0.0014058214
0.00056696613
-0.0016320323
0.00081436175
-0.0018716305
0.0010883395
-0.0021360815
0.0013840733
-0.0023868222
0.0016887262
-0.0026195391
0.0020079874
-0.002867635
0.0023620332
-0.003081221
0.0027330644
-0.0032835272
0.0030319897
-0.003451916
0.003187133
-0.0036061502
0.0031959571
-0.0035003036
0.0029599842
0.0012687858
8.2863697e-06
-3.7526542e-06
8.2920492e-06
-4.4819583e-06
8.3103941e-06
-5.3694751e-06
8.353295e-06
-6.4326841e-06
8.4223029e-06
-7.7064668e-06
8.5218442e-06
-9.2325262e-06
8.6536169e-06
-1.1060793e-05
8.8119577e-06
-1.3250891e-05
8.9965408e-06
-1.5873961e-05
9.1911728e-06
-1.9014735e-05
9.389334e-06
-2.2773464e-05
9.5681486e-06
-2.7269385e-05
9.7007539e-06
-3.2641529e-05
9.759503e-06
-3.905368e-05
9.6770718e-06
-4.669327e-05
9.3529711e-06
-5.5761578e-05
8.6815858e-06
-6.6478765e-05
7.5700483e-06
-7.9100875e-05
5.8938292e-06
-9.3915482e-05
3.4477674e-06
-0.00011118436
-3.9905268e-08
-0.00013108133
-4.9745078e-06
-0.00015367323
-1.1989274e-05
-0.00017884969
-2.1649126e-05
-0.00020637959
-3.567819e-05
-0.00023538691
-5.3993248e-05
-0.00026495156
-8.131718e-05
-0.00029284378
-0.0001249192
-0.00031098227
-0.00018509478
-0.00030962238
-0.0002560886
-0.00028825009
-0.00033462764
-0.00025452398
-0.00042419868
-0.00021110384
-0.0005318147
-0.00014856946
-0.00066124085
-5.1654795e-05
-0.00080757467
8.2647852e-05
-0.00098035241
0.00025655848
-0.0011739374
0.00047450015
-0.0013831631
0.00072715467
-0.0016108218
0.0010088417
-0.0018531556
0.0013203507
-0.0021207395
0.0016569341
-0.0023749927
0.002003895
-0.0026136032
0.0023614183
-0.0028659555
0.0027475881
-0.0030850505
0.0031422443
-0.0032990654
0.0034534283
-0.0034698319
0.0036027191
-0.0036226284
0.0035888455
-0.003508153
0.0032953946
0.001402404
1.5741543e-05
-3.7784936e-06
1.5753287e-05
-4.5128537e-06
1.5776014e-05
-5.4065734e-06
1.5824867e-05
-6.4773914e-06
1.59054e-05
-7.7604242e-06
1.6023617e-05
-9.2976586e-06
1.61814e-05
-1.1139401e-05
1.6374486e-05
-1.3345693e-05
1.6602744e-05
-1.5988125e-05
1.6852258e-05
-1.9152238e-05
1.711884e-05
-2.2939039e-05
1.7382665e-05
-2.7468913e-05
1.7622496e-05
-3.2882175e-05
1.7813782e-05
-3.9344006e-05
1.7897075e-05
-4.7043889e-05
1.7784525e-05
-5.6184432e-05
1.7388237e-05
-6.6986695e-05
1.6627075e-05
-7.970911e-05
1.5373858e-05
-9.4642963e-05
1.3414203e-05
-0.00011204918
1.0473925e-05
-0.00013209592
6.1594989e-06
-0.00015483419
-1.2750819e-07
-0.00018012895
-8.9485704e-06
-0.00020769706
-2.1996513e-05
-0.00023657983
-3.9520942e-05
-0.00026565381
-6.6565043e-05
-0.00029218163
-0.00010984111
-0.00030757598
-0.00016892994
-0.00030215959
-0.00023853364
-0.00027540898
-0.00031543205
-0.00023480067
-0.00040416126
-0.0001822635
-0.00051117745
-0.00010726205
-0.00063946137
5.0115351e-06
-0.00078542847
0.00015793622
-0.00095743425
0.00035445216
-0.0011513272
0.00059947923
-0.0013607852
0.00088309154
-0.0015898368
0.001199117
-0.0018347919
0.0015485566
-0.0021055138
0.0019267124
-0.0023634325
0.0023169597
-0.00260806
0.0027143503
-0.0028648187
0.0031345664
-0.0030894201
0.0035545937
-0.0033135093
0.0038805057
-0.0034877802
0.0040264762
-0.0036397883
0.0039909349
-0.0035159148
0.0036412238
0.001544254
2.2730124e-05
-3.816263e-06
2.2792374e-05
-4.5583773e-06
2.2878338e-05
-5.4616643e-06
2.2989076e-05
-6.5440951e-06
2.3122303e-05
-7.8410231e-06
2.3278812e-05
-9.3947213e-06
2.345959e-05
-1.1256008e-05
2.366302e-05
-1.3485419e-05
2.3892908e-05
-1.6155351e-05
2.4143104e-05
-1.9351964e-05
2.4417425e-05
-2.3177687e-05
2.4706589e-05
-2.7754065e-05
2.5000786e-05
-3.3223638e-05
2.5286594e-05
-3.9753994e-05
2.5513677e-05
-4.7537529e-05
2.5608823e-05
-5.678031e-05
2.5481583e-05
-6.7704869e-05
2.5047897e-05
-8.0572526e-05
2.4189784e-05
-9.5680267e-05
2.2687812e-05
-0.00011329001
2.0265405e-05
-0.00013356458
1.6533337e-05
-0.00015653869
1.0926122e-05
-0.00018205642
2.8676255e-06
-0.00020977677
-9.253339e-06
-0.00023866599
-2.5968428e-05
-0.00026742422
-5.2676537e-05
-0.00029273904
-9.5540745e-05
-0.00030554474
-0.00015349911
-0.00029632666
-0.00022169445
-0.00026451989
-0.00029697036
-0.00021739221
-0.00038485762
-0.00015606554
-0.00049121698
-6.8905711e-05
-0.00061828063
5.8361141e-05
-0.00076376844
0.00022950169
-0.00093499339
0.00044827425
-0.0011291281
0.00072015423
-0.0013387763
0.0010345914
-0.0015691591
0.0013849565
-0.0018166249
0.0017726509
-0.0020904731
0.0021930322
-0.0023521557
0.0026274275
-0.0026028488
0.0030661044
-0.002864139
0.0035221416
-0.0030942491
0.0039693687
-0.0033271372
0.0043123459
-0.0035057828
0.0044577394
-0.0036574276
0.004402202
-0.0035234336
0.003997446
0.0016940623
2.9217873e-05
-3.8650943e-06
2.9286249e-05
-4.6163117e-06
2.9376151e-05
-5.5305852e-06
2.9488698e-05
-6.6260445e-06
2.9621881e-05
-7.9384942e-06
2.9778592e-05
-9.5111331e-06
2.9961249e-05
-1.1395205e-05
3.0171122e-05
-1.3652381e-05
3.041449e-05
-1.6356055e-05
3.0688404e-05
-1.9593856e-05
3.100198e-05
-2.3469404e-05
3.1350553e-05
-2.810671e-05
3.1736495e-05
-3.365035e-05
3.2151464e-05
-4.0271328e-05
3.2563907e-05
-4.8166821e-05
3.2884417e-05
-5.7544423e-05
3.301382e-05
-6.8627778e-05
3.2890473e-05
-8.1684204e-05
3.2397682e-05
-9.7017785e-05
3.1322749e-05
-0.00011489254
2.9389151e-05
-0.00013546877
2.6198844e-05
-0.00015876368
2.1223952e-05
-0.00018460433
1.3845973e-05
-0.00021258196
2.5727923e-06
-0.00024159887
-1.3351173e-05
-0.00027020608
-3.9669752e-05
-0.00029445824
-8.2012524e-05
-0.0003048263
-0.00013879795
-0.00029203792
-0.0002055748
-0.0002554709
-0.00027924782
-0.000202164
-0.00036627199
-0.00013237575
-0.00047192032
-3.334509e-05
-0.00059772725
0.00010858611
-0.00074263801
0.00029757916
-0.00091307839
0.00053828602
-0.0011073903
0.00083679087
-0.0013171899
0.0011819242
-0.001548839
0.0015666186
-0.0017987075
0.0019928756
-0.0020756556
0.0024561017
-0.0023411597
0.0029355178
-0.0025979248
0.003416905
-0.0028638417
0.0039105494
-0.0030994763
0.0043867311
-0.0033401689
0.0047488935
-0.0035238425
0.0048961932
-0.0036753208
0.0048223145
-0.0035306097
0.0043634282
0.0018512255
3.5234096e-05
-3.9250762e-06
3.5268057e-05
-4.6879388e-06
3.5305963e-05
-5.6160542e-06
3.5361651e-05
-6.7278418e-06
3.544121e-05
-8.0596613e-06
3.5556497e-05
-9.6551518e-06
3.5714101e-05
-1.1566719e-05
3.5920765e-05
-1.3856921e-05
3.6184212e-05
-1.6600496e-05
3.6506542e-05
-1.988695e-05
3.6897175e-05
-2.3822017e-05
3.735466e-05
-2.8532507e-05
3.7883434e-05
-3.4166501e-05
3.8480461e-05
-4.0899926e-05
3.9096087e-05
-4.8931825e-05
3.9618221e-05
-5.8470375e-05
3.9967536e-05
-6.9744456e-05
4.0129984e-05
-8.3029518e-05
4.000526e-05
-9.8640092e-05
3.9350389e-05
-0.00011684351
3.7883955e-05
-0.00013779116
3.5202276e-05
-0.00016148519
3.0813446e-05
-0.00018773875
2.4040694e-05
-0.00021606541
1.354304e-05
-0.00024531095
-1.6313768e-06
-0.00027388765
-2.7523337e-05
-0.00029719761
-6.9240267e-05
-0.0003053065
-0.00012481511
-0.00028920933
-0.00019017251
-0.00024818326
-0.00026226034
-0.0001890348
-0.00034838367
-0.00011111429
-0.00045327858
-5.3239877e-07
-0.0005778263
0.00015571832
-0.00072208629
0.00036217861
-0.00089173987
0.00062447425
-0.0010861725
0.00094935538
-0.0012960866
0.0013250184
-0.0015289382
0.0017439981
-0.0017811073
0.0022090607
-0.0020611209
0.0027156844
-0.0023304734
0.0032408966
-0.0025932755
0.0037662604
-0.0028638955
0.0042991627
-0.0031050634
0.004806094
-0.003352762
0.0051894866
-0.0035419316
0.0053413229
-0.0036932949
0.0052511319
-0.0035373341
0.0047389926
0.0020154816
4.0749312e-05
-3.9950494e-06
4.0689602e-05
-4.7697678e-06
4.0637567e-05
-5.7123198e-06
4.0627319e-05
-6.8416161e-06
4.0670041e-05
-8.1949872e-06
4.0772581e-05
-9.8172613e-06
4.0942666e-05
-1.1761764e-05
4.1183686e-05
-1.4092239e-05
4.1502284e-05
-1.6885244e-05
4.1901449e-05
-2.0231644e-05
4.2387619e-05
-2.4239825e-05
4.2962937e-05
-2.9038895e-05
4.3628533e-05
-3.4780826e-05
4.4372044e-05
-4.164371e-05
4.5114434e-05
-4.9828083e-05
4.5756455e-05
-5.9546514e-05
4.6285285e-05
-7.1037676e-05
4.6732005e-05
-8.4592933e-05
4.699738e-05
-0.0001005356
4.678223e-05
-0.0001191281
4.5772535e-05
-0.0001405145
4.3571767e-05
-0.00016468069
3.972824e-05
-0.00019143033
3.349679e-05
-0.000220193
2.3720204e-05
-0.00024976265
9.2412799e-06
-0.00027842318
-1.6203392e-05
-0.0003009116
-5.7194955e-05
-0.00030692703
-0.00011153286
-0.0002877581
-0.00017547622
-0.00024254716
-0.0002459987
-0.00017786827
-0.00033114644
-9.2162331e-05
-0.00043523595
2.9620443e-05
-0.00055857764
0.00019988832
-0.00070213787
0.00042353434
-0.00087100581
0.00070712386
-0.0010655071
0.0010581483
-0.0012755017
0.0014641842
-0.0015094905
0.0019173965
-0.0017638623
0.002421497
-0.0020469004
0.0029720533
-0.0023201024
0.0035438598
-0.002588887
0.0041144948
-0.0028642602
0.0046883256
-0.0031109693
0.0052277242
-0.0033650464
0.0056342236
-0.0035600043
0.0057928569
-0.0037111682
0.0056880889
-0.0035434892
0.0051232022
0.0021860585
4.5982145e-05
-4.0770759e-06
4.5953191e-05
-4.869881e-06
4.5937648e-05
-5.8345967e-06
4.5961831e-05
-6.9902999e-06
4.6035414e-05
-8.3748656e-06
4.6158593e-05
-1.0033302e-05
4.6343399e-05
-1.2019864e-05
4.6591991e-05
-1.4399719e-05
4.6917841e-05
-1.7250082e-05
4.7326389e-05
-2.0664598e-05
4.7828442e-05
-2.4753379e-05
4.8429295e-05
-2.9648855e-05
4.9128415e-05
-3.5506328e-05
4.989295e-05
-4.2506329e-05
5.0653409e-05
-5.085321e-05
5.1356925e-05
-6.0769535e-05
5.2042143e-05
-7.250892e-05
5.278918e-05
-8.637916e-05
5.3450519e-05
-0.0001027066
5.366579e-05
-0.00012174316
5.3092477e-05
-0.00014362447
5.1343971e-05
-0.0001683283
4.8008259e-05
-0.00019564611
4.2280246e-05
-0.00022492638
3.3189449e-05
-0.00025492208
1.9352878e-05
-0.00028376247
-5.6342841e-06
-0.00030552827
-4.5829832e-05
-0.00030962346
-9.8922645e-05
-0.00028762261
-0.00016146507
-0.00023849913
-0.00023044581
-0.00016859495
-0.00031451196
-7.5466699e-05
-0.00041772764
5.7102947e-05
-0.0005399583
0.00024105232
-0.00068279315
0.0004815825
-0.00085087668
0.00078614201
-0.0010453973
0.0011630423
-0.0012554366
0.0015992454
-0.0014904944
0.0020865896
-0.0017469741
0.002629879
-0.002032984
0.003224805
-0.0023100112
0.0038438554
-0.002584695
0.0044608362
-0.0028648559
0.0050770844
-0.0031171073
0.0056506866
-0.0033770821
0.0060822041
-0.0035780218
0.0062502356
-0.0037288199
0.0061330099
-0.0035489412
0.0055157637
0.0023626481
5.0924992e-05
-4.1683366e-06
5.1014899e-05
-4.9791013e-06
5.1116632e-05
-5.9657416e-06
5.1233923e-05
-7.1481362e-06
5.1371766e-05
-8.5646555e-06
5.1534769e-05
-1.0261866e-05
5.1736073e-05
-1.2295201e-05
5.1981907e-05
-1.4730881e-05
5.2290623e-05
-1.7648669e-05
5.2673166e-05
-2.1142991e-05
5.3142729e-05
-2.5326909e-05
5.3710011e-05
-3.033452e-05
5.4368025e-05
-3.632363e-05
5.5094569e-05
-4.3478565e-05
5.5840026e-05
-5.2010109e-05
5.6595147e-05
-6.2151789e-05
5.7448573e-05
-7.4177066e-05
5.8471536e-05
-8.8407507e-05
5.9469707e-05
-0.00010515874
6.005875e-05
-0.00012467689
5.9885024e-05
-0.00014710379
5.8558959e-05
-0.00017240831
5.5691606e-05
-0.00020036703
5.0441661e-05
-0.0002302412
4.201149e-05
-0.00026075613
2.8763319e-05
-0.00028987434
4.2359887e-06
-0.00031101669
-3.5117037e-05
-0.00031334248
-8.6961182e-05
-0.00028872033
-0.00014811987
-0.00023593257
-0.00021558925
-0.00016108204
-0.00029849779
-6.0857922e-05
-0.00040077347
8.2130279e-05
-0.0005219581
0.00027943744
-0.00066404567
0.00053657397
-0.00083134572
0.00086181345
-0.0010258353
0.0012643362
-0.0012358882
0.001730514
-0.0014719423
0.0022518834
-0.0017304337
0.0028345016
-0.0020193521
0.0034742252
-0.0023001601
0.0041411901
-0.0025806437
0.0048056258
-0.0028656074
0.0054657993
-0.0031234077
0.0060752705
-0.0033888918
0.0065335983
-0.0035959191
0.0067132508
-0.0037461151
0.0065853305
-0.0035536256
0.00591591
0.002544659
5.5399209e-05
-4.2693043e-06
5.5506938e-05
-5.0998557e-06
5.5634035e-05
-6.1106629e-06
5.5783663e-05
-7.3218451e-06
5.5960795e-05
-8.7730843e-06
5.6170049e-05
-1.0512146e-05
5.6420281e-05
-1.2595677e-05
5.6718343e-05
-1.5092029e-05
5.7075742e-05
-1.8082795e-05
5.7503002e-05
-2.1664809e-05
5.8006983e-05
-2.595419e-05
5.8596542e-05
-3.1087314e-05
5.9264412e-05
-3.7225662e-05
5.9997131e-05
-4.4557701e-05
6.0772474e-05
-5.3300068e-05
6.1615979e-05
-6.3700936e-05
6.26388e-05
-7.6050986e-05
6.3871111e-05
-9.0672693e-05
6.5110895e-05
-0.00010787761
6.6006998e-05
-0.00012791657
6.6190964e-05
-0.00015093595
6.5257257e-05
-0.00017689906
6.2815448e-05
-0.00020556042
5.8026918e-05
-0.00023610686
5.0244909e-05
-0.00026724722
3.7539211e-05
-0.00029673462
1.345939e-05
-0.00031732932
-2.5027975e-05
-0.00031802408
-7.5625204e-05
-0.00029099163
-0.00013542207
-0.00023478169
-0.00020141925
-0.00015525112
-0.00028313514
-4.8243264e-05
-0.00038442112
0.00010478753
-0.00050458869
0.00031510913
-0.00064590873
0.00058853744
-0.00081242051
0.0009341358
-0.0010068314
0.0013619979
-0.0012168614
0.0018579085
-0.0014538389
0.0024131509
-0.0017142521
0.0030351739
-0.0020060096
0.0037200395
-0.0022905412
0.0044354755
-0.0025767143
0.0051483092
-0.0028664788
0.0058537683
-0.0031298179
0.0065007685
-0.003400478
0.0069876913
-0.0036136012
0.0071814162
-0.0037629381
0.0070448346
-0.0035574695
0.0063233046
0.002731784
5.9527716e-05
-4.3797404e-06
5.964747e-05
-5.2320685e-06
5.9789369e-05
-6.2691626e-06
5.9957445e-05
-7.5120106e-06
6.0157089e-05
-9.0012471e-06
6.0393575e-05
-1.0785928e-05
6.0675642e-05
-1.292414e-05
6.1011158e-05
-1.5486549e-05
6.1410086e-05
-1.8556129e-05
6.1882637e-05
-2.223335e-05
6.2433694e-05
-2.6636568e-05
6.3070018e-05
-3.1906467e-05
6.379086e-05
-3.8208679e-05
6.4582633e-05
-4.5737075e-05
6.5441895e-05
-5.4715887e-05
6.6417639e-05
-6.540665e-05
6.7593224e-05
-7.8110661e-05
6.8978349e-05
-9.315442e-05
7.0402042e-05
-0.00011084816
7.154812e-05
-0.0001314467
7.2049093e-05
-0.00015510584
7.1475341e-05
-0.00018178195
6.9402529e-05
-0.0002112016
6.5056073e-05
-0.00024248736
5.7940445e-05
-0.00027434955
4.5747294e-05
-0.00030431038
2.208896e-05
-0.00032443741
-1.5523486e-05
-0.00032361603
-6.4886741e-05
-0.00029435773
-0.00012334979
-0.00023494288
-0.0001879243
-0.00015096773
-0.00026846955
-3.740512e-05
-0.00036874238
0.00012541957
-0.00048786706
0.0003484209
-0.00062839023
0.00063778616
-0.00079411623
0.0010034506
-0.00098839404
0.0014563909
-0.0011983562
0.0019817905
-0.0014361869
0.0025707462
-0.0016984334
0.0032322479
-0.0019929581
0.0039626041
-0.0022811426
0.0047270983
-0.0025728876
0.0054893217
-0.0028674407
0.0062414559
-0.0031362984
0.0069275641
-0.0034118426
0.0074447255
-0.0036309795
0.0076544436
-0.0037791622
0.0075107025
-0.003560365
0.0067368716
0.0029232677
6.3327997e-05
-4.4995203e-06
6.3459071e-05
-5.375367e-06
6.3614367e-05
-6.440944e-06
6.3798227e-05
-7.7178337e-06
6.4016349e-05
-9.2482705e-06
6.4274356e-05
-1.1081939e-05
6.458125e-05
-1.3279474e-05
6.4944815e-05
-1.5912693e-05
6.5375399e-05
-1.9067663e-05
6.5882485e-05
-2.2847057e-05
6.6474002e-05
-2.7372841e-05
6.7157857e-05
-3.2790043e-05
6.7939409e-05
-3.9269626e-05
6.8816775e-05
-4.7011137e-05
6.9797072e-05
-5.6248103e-05
7.092043e-05
-6.7254097e-05
7.2246982e-05
-8.0341197e-05
7.3771293e-05
-9.5838306e-05
7.5348906e-05
-0.00011405593
7.6708032e-05
-0.00013525569
7.7487609e-05
-0.00015959989
7.7240486e-05
-0.00018703696
7.5458073e-05
-0.0002172522
7.1526494e-05
-0.00024932335
6.5138548e-05
-0.0002820386
5.3448592e-05
-0.00031260293
3.0180849e-05
-0.00033232715
-6.5640667e-06
-0.00033009864
-5.4719601e-05
-0.0002987841
-0.00011188648
-0.00023636459
-0.00017509398
-0.00014816301
-0.00025452531
-2.8271997e-05
-0.00035377859
0.00014407012
-0.00047178708
0.00037937063
-0.00061147193
0.00068424203
-0.00077641261
0.0010696144
-0.00097050504
0.0015473305
-0.0011803515
0.002101932
-0.0014189528
0.0027243652
-0.0016829458
0.003425319
-0.0019801565
0.0042014004
-0.0022719103
0.0050153797
-0.0025690988
0.00582777
-0.0028684034
0.0066277846
-0.0031427517
0.007354555
-0.0034229487
0.0079036692
-0.0036479792
0.0081317521
-0.0037946955
0.0079827322
-0.003562215
0.0071562322
0.0031187557
6.6819825e-05
-4.6283787e-06
6.6961624e-05
-5.5293332e-06
6.7129382e-05
-6.6256485e-06
6.7328041e-05
-7.9393352e-06
6.7562607e-05
-9.513903e-06
6.783989e-05
-1.1400579e-05
6.8167834e-05
-1.3661779e-05
6.8554909e-05
-1.6371083e-05
6.9011369e-05
-1.9617398e-05
6.9547932e-05
-2.3506276e-05
7.0176766e-05
-2.8163423e-05
7.0908971e-05
-3.3738529e-05
7.175576e-05
-4.040896e-05
7.2726633e-05
-4.8380272e-05
7.3835241e-05
-5.789578e-05
7.5111117e-05
-6.9240812e-05
7.6587585e-05
-8.2736404e-05
7.8246073e-05
-9.8715766e-05
7.9965658e-05
-0.00011749231
8.1512082e-05
-0.00013933359
8.2533491e-05
-0.00016440311
8.258751e-05
-0.00019265348
8.1108683e-05
-0.00022374817
7.7583952e-05
-0.00025670331
7.1895442e-05
-0.00029035092
6.0691134e-05
-0.00032158613
3.7777325e-05
-0.00034096751
1.8762411e-06
-0.00033741415
-4.5106066e-05
-0.00030418253
-0.00010101744
-0.00023893332
-0.00016290806
-0.00014670678
-0.0002412779
-2.0684861e-05
-0.00033951053
0.00016096277
-0.00045633022
0.00040822726
-0.0005951221
0.00072818894
-0.000759272
0.0011329182
-0.00095313836
0.0016351379
-0.0011628269
0.0022186962
-0.001402104
0.0028743777
-0.0016677555
0.0036147408
-0.0019675608
0.0044367898
-0.0022627888
0.0053007115
-0.0025652856
0.0061640942
-0.0028692987
0.0070132116
-0.0031490991
0.0077821282
-0.0034337212
0.0083647601
-0.0036644923
0.0086130481
-0.0038094605
0.0084601589
-0.0035629751
0.0075805684
0.0033177138
7.0018101e-05
-4.7659136e-06
7.0170265e-05
-5.6937161e-06
7.0349728e-05
-6.8227291e-06
7.0562256e-05
-8.1758211e-06
7.0812229e-05
-9.7972783e-06
7.1107332e-05
-1.1740498e-05
7.1454764e-05
-1.406935e-05
7.1863847e-05
-1.6859802e-05
7.2346677e-05
-2.0203666e-05
7.2915354e-05
-2.4209699e-05
7.358609e-05
-2.9007553e-05
7.4374282e-05
-3.4753132e-05
7.5295819e-05
-4.1628689e-05
7.6364845e-05
-4.984757e-05
7.7602807e-05
-5.9663031e-05
7.9023369e-05
-7.1370231e-05
8.0633179e-05
-8.5297512e-05
8.2415974e-05
-0.00010178518
8.426767e-05
-0.00012115238
8.5979724e-05
-0.00014367122
8.7220086e-05
-0.00016950757
8.7583977e-05
-0.00019863819
8.6511977e-05
-0.00023070794
8.3403094e-05
-0.00026464285
7.8271279e-05
-0.00029929744
6.7483352e-05
-0.00033123197
4.4897416e-05
-0.00035030113
9.8089789e-06
-0.00034551523
-3.6035623e-05
-0.00031049915
-9.0725408e-05
-0.00024258807
-0.00015134019
-0.00014653681
-0.00022869265
-1.4595055e-05
-0.0003259094
0.00017611309
-0.00044148209
0.00043498888
-0.00057932591
0.00076959837
-0.00074267324
0.0011932952
-0.000936278
0.0017197038
-0.0011457755
0.0023319351
-0.0013856308
0.0030205986
-0.0016528522
0.0038002621
-0.0019551605
0.0046684271
-0.0022537553
0.0055826219
-0.0025614167
0.0064976561
-0.0028700792
0.0073969605
-0.0031552718
0.0082094557
-0.0034441233
0.0088271912
-0.0036804232
0.0090978366
-0.0038233532
0.0089427666
-0.0035625955
0.0080094786
0.0035197882
7.2936682e-05
-4.9117408e-06
7.3099012e-05
-5.868419e-06
7.3290148e-05
-7.0322469e-06
7.3515982e-05
-8.4268763e-06
7.3781378e-05
-1.0098528e-05
7.4094471e-05
-1.2101992e-05
7.4462954e-05
-1.4502737e-05
7.4897832e-05
-1.7380136e-05
7.5412785e-05
-2.082793e-05