/*--------------------------------*- C++ -*----------------------------------*\
  =========                 |
  \\      /  F ield         | OpenFOAM: The Open Source CFD Toolbox
   \\    /   O peration     | Website:  https://openfoam.org
    \\  /    A nd           | Version:  8
     \\/     M anipulation  |
\*---------------------------------------------------------------------------*/
FoamFile
{
    version     2.0;
    format      ascii;
    class       volScalarField;
    location    "0.0599932";
    object      nut;
}
// * * * * * * * * * * * * * * * * * * * * * * * * * * * * * * * * * * * * * //

dimensions      [0 2 -1 0 0 0 0];

internalField   nonuniform List<scalar> 
20000
(
0.001102672
0.0025057502
0.0031172631
0.0030534383
0.0022020002
0.00051042669
1.6154484e-07
5.8628508e-09
5.4683261e-09
5.4526926e-09
5.3373648e-09
5.366561e-09
5.2963418e-09
5.3324714e-09
5.3316138e-09
5.3639347e-09
5.3862259e-09
5.4283036e-09
5.4726113e-09
5.532599e-09
5.6016607e-09
5.6898075e-09
5.7905545e-09
5.9068502e-09
6.0369925e-09
6.181252e-09
6.3365983e-09
6.4987559e-09
6.6613848e-09
6.8182743e-09
6.9630995e-09
7.0911841e-09
7.1996268e-09
7.2876372e-09
7.3552801e-09
7.4042902e-09
7.4416383e-09
7.4651854e-09
7.475803e-09
7.478568e-09
7.476665e-09
7.4672517e-09
7.4532415e-09
7.4396861e-09
7.4019004e-09
7.3748315e-09
7.3636902e-09
7.3610477e-09
7.3604171e-09
7.3613664e-09
0.0010871007
0.0024459065
0.0030188009
0.0029177861
0.0019978843
0.00039992602
5.7488457e-08
5.8017113e-09
5.4370381e-09
5.4251265e-09
5.3125847e-09
5.3433524e-09
5.273978e-09
5.3109578e-09
5.3110448e-09
5.3443368e-09
5.3677127e-09
5.4106844e-09
5.4562791e-09
5.5184279e-09
5.5919082e-09
5.6835055e-09
5.7882107e-09
5.9070656e-09
6.0404166e-09
6.18836e-09
6.3468974e-09
6.5115167e-09
6.6755652e-09
6.8326511e-09
6.9766057e-09
7.1029964e-09
7.2093588e-09
7.2952529e-09
7.3607842e-09
7.4088512e-09
7.4455012e-09
7.4672175e-09
7.4766939e-09
7.4791921e-09
7.4769635e-09
7.4671989e-09
7.4538401e-09
7.4365464e-09
7.3994167e-09
7.3746335e-09
7.3640092e-09
7.3613151e-09
7.3605733e-09
7.3614086e-09
0.0010775748
0.0023949753
0.002921782
0.0027787869
0.0017824109
0.00029285045
2.4503809e-08
5.7552648e-09
5.410094e-09
5.4003932e-09
5.2910772e-09
5.322863e-09
5.2544238e-09
5.2917178e-09
5.2930431e-09
5.3270745e-09
5.3513986e-09
5.3955291e-09
5.4434581e-09
5.5102938e-09
5.5882742e-09
5.6825902e-09
5.7884578e-09
5.9103181e-09
6.0474156e-09
6.198988e-09
6.3608307e-09
6.5278571e-09
6.6931414e-09
6.850121e-09
6.9928223e-09
7.1171135e-09
7.22097e-09
7.3042992e-09
7.367375e-09
7.4145409e-09
7.4500029e-09
7.4698869e-09
7.477925e-09
7.4801548e-09
7.4773972e-09
7.4673937e-09
7.4541109e-09
7.4321364e-09
7.3946718e-09
7.3742302e-09
7.3652228e-09
7.362136e-09
7.3609256e-09
7.3614206e-09
0.0010674337
0.0023440805
0.0028252583
0.0026367162
0.0015718764
0.0002012195
1.3534702e-08
5.7158888e-09
5.384993e-09
5.3779566e-09
5.2718546e-09
5.3048951e-09
5.2375242e-09
5.275447e-09
5.2776863e-09
5.3125844e-09
5.3384334e-09
5.3853585e-09
5.4376208e-09
5.5073532e-09
5.5874357e-09
5.6825911e-09
5.791679e-09
5.9176147e-09
6.0587638e-09
6.2142216e-09
6.379325e-09
6.5485645e-09
6.7147118e-09
6.8711215e-09
7.0120429e-09
7.1337255e-09
7.2345868e-09
7.3148366e-09
7.3751319e-09
7.4213363e-09
7.4546137e-09
7.4724762e-09
7.4793991e-09
7.4813125e-09
7.4778572e-09
7.4679052e-09
7.4541762e-09
7.426781e-09
7.3926458e-09
7.3739272e-09
7.3656059e-09
7.3625675e-09
7.3611854e-09
7.3614258e-09
0.0010575659
0.00229497
0.0027347626
0.0024988934
0.0013681249
0.00012158728
9.2835801e-09
5.6834841e-09
5.363515e-09
5.3589791e-09
5.2556706e-09
5.289954e-09
5.2236753e-09
5.2619972e-09
5.2655458e-09
5.3020974e-09
5.3313973e-09
5.3813663e-09
5.4355779e-09
5.5067883e-09
5.587958e-09
5.6864661e-09
5.7991313e-09
5.9290701e-09
6.0744251e-09
6.2337918e-09
6.4021073e-09
6.57334e-09
6.7399747e-09
6.8953289e-09
7.0339462e-09
7.1525303e-09
7.2499349e-09
7.3266435e-09
7.3839366e-09
7.4289401e-09
7.4595973e-09
7.4752754e-09
7.4810808e-09
7.4826442e-09
7.4783939e-09
7.4686529e-09
7.4541306e-09
7.4216082e-09
7.3903261e-09
7.3736746e-09
7.3660969e-09
7.3630043e-09
7.3615184e-09
7.3614107e-09
0.0010476937
0.0022466545
0.0026446681
0.0023619353
0.0011733775
5.8626104e-05
7.4460001e-09
5.6555096e-09
5.345339e-09
5.34313e-09
5.2430742e-09
5.278128e-09
5.2133844e-09
5.2527408e-09
5.2587527e-09
5.2976401e-09
5.3287916e-09
5.3802206e-09
5.4354582e-09
5.5080657e-09
5.5925075e-09
5.6941096e-09
5.8107198e-09
5.9449499e-09
6.0946612e-09
6.2580044e-09
6.4294165e-09
6.6023534e-09
6.7690256e-09
6.9227818e-09
7.0585341e-09
7.1735203e-09
7.2669882e-09
7.3397001e-09
7.3939044e-09
7.4372044e-09
7.4648903e-09
7.4783511e-09
7.4829593e-09
7.4840694e-09
7.4790014e-09
7.4694501e-09
7.453383e-09
7.4169246e-09
7.3886294e-09
7.3734271e-09
7.3663803e-09
7.3633726e-09
7.3618271e-09
7.3613912e-09
0.0010379865
0.002198936
0.0025554086
0.0022242563
0.00099094506
2.1274691e-05
6.5889839e-09
5.6320968e-09
5.3310924e-09
5.3305129e-09
5.2345043e-09
5.2675143e-09
5.2077414e-09
5.2483924e-09
5.2560585e-09
5.2959908e-09
5.328252e-09
5.3803733e-09
5.437747e-09
5.5131661e-09
5.6006334e-09
5.7059416e-09
5.826707e-09
5.9653733e-09
6.1195639e-09
6.2868796e-09
6.461224e-09
6.6355143e-09
6.8017241e-09
6.9533083e-09
7.0856279e-09
7.1965092e-09
7.2855555e-09
7.3538712e-09
7.4051033e-09
7.4459012e-09
7.4704599e-09
7.4817036e-09
7.4850273e-09
7.4855454e-09
7.4797048e-09
7.4699856e-09
7.4516146e-09
7.412948e-09
7.3871169e-09
7.3732731e-09
7.3666853e-09
7.363722e-09
7.362127e-09
7.3613703e-09
0.0010284133
0.0021517166
0.002466781
0.0020847735
0.00082318614
6.1797036e-06
6.1738332e-09
5.6136252e-09
5.3236091e-09
5.3199206e-09
5.2245208e-09
5.2560615e-09
5.2053521e-09
5.2466836e-09
5.2553185e-09
5.2957137e-09
5.3294205e-09
5.3837118e-09
5.443592e-09
5.5217969e-09
5.6128335e-09
5.7219937e-09
5.8471782e-09
5.9904946e-09
6.1492727e-09
6.3205277e-09
6.4975751e-09
6.6727997e-09
6.837989e-09
6.9867929e-09
7.1150998e-09
7.2213521e-09
7.305483e-09
7.3690739e-09
7.4175128e-09
7.4549194e-09
7.47619e-09
7.4850832e-09
7.4874171e-09
7.4871459e-09
7.4805511e-09
7.4701997e-09
7.4486833e-09
7.409695e-09
7.3859181e-09
7.3731733e-09
7.3669593e-09
7.3640441e-09
7.3624056e-09
7.3613454e-09
0.0010190229
0.0021051981
0.002378839
0.0019462383
0.00067179371
1.6446194e-06
5.9710479e-09
5.5996079e-09
5.3146648e-09
5.3099498e-09
5.2136079e-09
5.2485633e-09
5.2045576e-09
5.2459914e-09
5.2560366e-09
5.2979876e-09
5.3338891e-09
5.3902869e-09
5.452964e-09
5.5343342e-09
5.6290973e-09
5.7424363e-09
5.8722809e-09
6.0204313e-09
6.1838772e-09
6.358983e-09
6.5384369e-09
6.7141084e-09
6.8776692e-09
7.0230592e-09
7.146765e-09
7.2478459e-09
7.3265774e-09
7.3852448e-09
7.4308806e-09
7.4642232e-09
7.4820244e-09
7.4886608e-09
7.4900986e-09
7.4887696e-09
7.4816066e-09
7.4702478e-09
7.4447441e-09
7.4070644e-09
7.3848807e-09
7.3731259e-09
7.3672616e-09
7.3643667e-09
7.3626638e-09
7.3613155e-09
0.0010098255
0.0020598121
0.00229137
0.0018051297
0.00053746953
4.5414117e-07
5.8627595e-09
5.5900353e-09
5.3055151e-09
5.3002642e-09
5.2049515e-09
5.2413242e-09
5.205124e-09
5.2478821e-09
5.259847e-09
5.3033766e-09
5.3415687e-09
5.4004189e-09
5.4661067e-09
5.5508245e-09
5.6496218e-09
5.7673833e-09
5.9021358e-09
6.0552997e-09
6.2234591e-09
6.4022694e-09
6.58376e-09
6.759323e-09
6.9206012e-09
7.0619199e-09
7.1804184e-09
7.2757663e-09
7.3486717e-09
7.4024173e-09
7.4449472e-09
7.4736877e-09
7.487915e-09
7.4924051e-09
7.492989e-09
7.4904328e-09
7.4829176e-09
7.470201e-09
7.440402e-09
7.4046115e-09
7.3839462e-09
7.3731047e-09
7.3675927e-09
7.3647242e-09
7.36291e-09
7.3612798e-09
0.0010009006
0.0020163251
0.0022060011
0.0016602272
0.00042193311
1.4323729e-07
5.811272e-09
5.5775266e-09
5.302755e-09
5.2965563e-09
5.2013852e-09
5.2378458e-09
5.2086978e-09
5.2528401e-09
5.2667906e-09
5.3120712e-09
5.3527609e-09
5.4141805e-09
5.483099e-09
5.5714241e-09
5.6745013e-09
5.796965e-09
5.9368632e-09
6.0951964e-09
6.2680716e-09
6.4503731e-09
6.6334542e-09
6.8082883e-09
6.9665864e-09
7.1031447e-09
7.215799e-09
7.3048618e-09
7.3716381e-09
7.4206928e-09
7.4593402e-09
7.4831638e-09
7.4938204e-09
7.4964805e-09
7.4959706e-09
7.4922394e-09
7.4844678e-09
7.470047e-09
7.4359099e-09
7.4022356e-09
7.3830481e-09
7.3730848e-09
7.3679515e-09
7.3651607e-09
7.3631425e-09
7.3612364e-09
0.00099221124
0.0019747559
0.0021292705
0.0015115496
0.0003240357
5.4943693e-08
5.7824476e-09
5.5704484e-09
5.3057355e-09
5.2984699e-09
5.2046393e-09
5.2418273e-09
5.2157866e-09
5.2610635e-09
5.2770855e-09
5.324179e-09
5.3675056e-09
5.4316925e-09
5.5040672e-09
5.5962381e-09
5.7038734e-09
5.8313003e-09
5.9765752e-09
6.1402057e-09
6.3177448e-09
6.5032495e-09
6.6873971e-09
6.8608184e-09
7.0153922e-09
7.1464617e-09
7.2526236e-09
7.3348988e-09
7.3954229e-09
7.440074e-09
7.4736778e-09
7.4925309e-09
7.4997699e-09
7.5009257e-09
7.4989268e-09
7.4940587e-09
7.4861514e-09
7.4694252e-09
7.4314521e-09
7.3999175e-09
7.3821786e-09
7.3730702e-09
7.3683194e-09
7.3657042e-09
7.3633579e-09
7.3611847e-09
0.0009836012
0.0019335634
0.0020524562
0.0013589137
0.00023676836
2.6082883e-08
5.7607583e-09
5.565014e-09
5.3078493e-09
5.3026082e-09
5.2118808e-09
5.2501793e-09
5.2261988e-09
5.2724839e-09
5.2907086e-09
5.3397623e-09
5.3859007e-09
5.4530395e-09
5.5291003e-09
5.6253757e-09
5.7378422e-09
5.8705034e-09
6.0213696e-09
6.1903928e-09
6.3724823e-09
6.5608232e-09
6.7454343e-09
6.916692e-09
7.0667391e-09
7.191556e-09
7.2905952e-09
7.3657029e-09
7.4200412e-09
7.4600704e-09
7.4878239e-09
7.5017337e-09
7.5059757e-09
7.5055403e-09
7.5018656e-09
7.4958922e-09
7.4876739e-09
7.4681501e-09
7.4271824e-09
7.3976931e-09
7.3813442e-09
7.3730846e-09
7.3687289e-09
7.3663169e-09
7.3635751e-09
7.3611214e-09
0.00097525565
0.0018931748
0.0019767138
0.0012050606
0.00015986126
1.5376127e-08
5.7437061e-09
5.5623643e-09
5.3129167e-09
5.3091248e-09
5.2219324e-09
5.2611756e-09
5.2397201e-09
5.2871733e-09
5.3077444e-09
5.3588817e-09
5.4080179e-09
5.4783059e-09
5.5583014e-09
5.6589446e-09
5.776524e-09
5.9146831e-09
6.0713383e-09
6.2458031e-09
6.432261e-09
6.6229836e-09
6.8073733e-09
6.975641e-09
7.1202937e-09
7.2380853e-09
7.3294543e-09
7.3971864e-09
7.4455062e-09
7.4801323e-09
7.5015963e-09
7.5107797e-09
7.5126255e-09
7.5101454e-09
7.5047795e-09
7.4977121e-09
7.4884456e-09
7.4659676e-09
7.4232624e-09
7.3956154e-09
7.3805696e-09
7.3731057e-09
7.3691816e-09
7.366979e-09
7.3636972e-09
7.3610459e-09
0.00096718826
0.0018535248
0.0019015531
0.0010544536
9.4259315e-05
1.0857027e-08
5.7343663e-09
5.5630449e-09
5.3205981e-09
5.3188433e-09
5.2348669e-09
5.2754172e-09
5.2564868e-09
5.305172e-09
5.3282223e-09
5.3816029e-09
5.4339172e-09
5.5075725e-09
5.5917565e-09
5.6970424e-09
5.8200208e-09
5.9639398e-09
6.1265563e-09
6.306464e-09
6.4970304e-09
6.6895918e-09
6.8729839e-09
7.0373437e-09
7.175679e-09
7.2857268e-09
7.3690318e-09
7.4293124e-09
7.4716137e-09
7.4996798e-09
7.514942e-09
7.5200196e-09
7.5194081e-09
7.5147092e-09
7.5076905e-09
7.4995781e-09
7.4887686e-09
7.4627578e-09
7.4198022e-09
7.3937292e-09
7.3798693e-09
7.3731865e-09
7.3696742e-09
7.3676809e-09
7.3637661e-09
7.3609584e-09
0.00095909476
0.0018122052
0.0018260985
0.00091528965
4.5740387e-05
8.7622816e-09
5.7293196e-09
5.5670686e-09
5.3312983e-09
5.3313983e-09
5.2509623e-09
5.2927525e-09
5.2764934e-09
5.3265033e-09
5.3521985e-09
5.4079702e-09
5.4636715e-09
5.5409237e-09
5.6295618e-09
5.7397768e-09
5.868434e-09
6.0183725e-09
6.1870907e-09
6.37238e-09
6.5667078e-09
6.7604665e-09
6.9419785e-09
7.1014177e-09
7.2325143e-09
7.3342455e-09
7.4092598e-09
7.4620241e-09
7.4976066e-09
7.5185431e-09
7.5279474e-09
7.529645e-09
7.5260894e-09
7.5191784e-09
7.5106209e-09
7.5016215e-09
7.4888288e-09
7.4586509e-09
7.4167666e-09
7.392074e-09
7.3792662e-09
7.3733172e-09
7.370192e-09
7.3684088e-09
7.3638106e-09
7.3608596e-09
0.00095087607
0.0017690398
0.0017490747
0.00078617708
1.7997201e-05
7.719845e-09
5.7283215e-09
5.5740703e-09
5.3448618e-09
5.3474514e-09
5.2700982e-09
5.313243e-09
5.299768e-09
5.3512189e-09
5.3797123e-09
5.4380585e-09
5.4973516e-09
5.5784366e-09
5.6718037e-09
5.787243e-09
5.9218728e-09
6.078073e-09
6.252998e-09
6.4435393e-09
6.6411858e-09
6.8353871e-09
7.014012e-09
7.1674458e-09
7.2904901e-09
7.3835307e-09
7.4500686e-09
7.4949818e-09
7.5228376e-09
7.5366498e-09
7.5410722e-09
7.5392359e-09
7.5326281e-09
7.5235118e-09
7.5135775e-09
7.5039929e-09
7.4887711e-09
7.4540733e-09
7.4139035e-09
7.3906804e-09
7.3788903e-09
7.3735023e-09
7.3707081e-09
7.3691231e-09
7.3638467e-09
7.3607503e-09
0.00094241126
0.001723699
0.0016692761
0.00066740833
6.0946986e-06
7.1764369e-09
5.7309933e-09
5.5841147e-09
5.3614061e-09
5.3663152e-09
5.29233e-09
5.3369026e-09
5.3263654e-09
5.3793623e-09
5.4108262e-09
5.4719157e-09
5.5350242e-09
5.6201938e-09
5.718579e-09
5.8395491e-09
5.9804444e-09
6.1431309e-09
6.3243208e-09
6.5199008e-09
6.7203124e-09
6.9140664e-09
7.088672e-09
7.2350254e-09
7.349436e-09
7.4335307e-09
7.4911579e-09
7.5273045e-09
7.5471086e-09
7.5543103e-09
7.5543117e-09
7.5485967e-09
7.5389499e-09
7.5276623e-09
7.5165267e-09
7.5066732e-09
7.488592e-09
7.4492423e-09
7.4111588e-09
7.3895087e-09
7.3787222e-09
7.3737436e-09
7.3712064e-09
7.3697464e-09
7.3638785e-09
7.3606317e-09
0.0009334506
0.0016754247
0.0015841022
0.0005592867
1.953385e-06
6.8841682e-09
5.7371654e-09
5.5971834e-09
5.3810678e-09
5.3883175e-09
5.3177188e-09
5.363797e-09
5.356319e-09
5.4109939e-09
5.4455724e-09
5.5096127e-09
5.5767564e-09
5.6662742e-09
5.769979e-09
5.8968005e-09
6.0442542e-09
6.2136319e-09
6.4010901e-09
6.6014046e-09
6.8038985e-09
6.9961595e-09
7.1655183e-09
7.3038577e-09
7.4093078e-09
7.4840132e-09
7.5317044e-09
7.5585377e-09
7.5704327e-09
7.5720146e-09
7.5672133e-09
7.5576522e-09
7.5450109e-09
7.5315969e-09
7.5193898e-09
7.5092999e-09
7.4878859e-09
7.4443492e-09
7.4085306e-09
7.388479e-09
7.378661e-09
7.3740673e-09
7.3717148e-09
7.370255e-09
7.3639091e-09
7.3605056e-09
0.00092395407
0.0016241235
0.001488279
0.00046246546
6.4374391e-07
6.7232537e-09
5.7470351e-09
5.6134218e-09
5.4039434e-09
5.4134018e-09
5.3462776e-09
5.3939199e-09
5.3896529e-09
5.4461025e-09
5.4840035e-09
5.5511949e-09
5.622616e-09
5.716768e-09
5.8261127e-09
5.959119e-09
6.1134193e-09
6.2896565e-09
6.4833145e-09
6.6879446e-09
6.8916809e-09
7.0812465e-09
7.2441298e-09
7.3738088e-09
7.4699835e-09
7.5341653e-09
7.5711311e-09
7.5884898e-09
7.5934151e-09
7.5893215e-09
7.5797009e-09
7.566328e-09
7.5507683e-09
7.5353065e-09
7.5220828e-09
7.511044e-09
7.4864774e-09
7.4395909e-09
7.4060402e-09
7.3875381e-09
7.3786506e-09
7.374512e-09
7.3723146e-09
7.3706561e-09
7.3639378e-09
7.3603731e-09
0.00091410723
0.0015711508
0.0013854701
0.00037901205
2.3258891e-07
6.6326894e-09
5.7604359e-09
5.6326705e-09
5.4297632e-09
5.4415311e-09
5.3779815e-09
5.4272734e-09
5.4263811e-09
5.4847492e-09
5.526154e-09
5.5967174e-09
5.6726778e-09
5.7717688e-09
5.8870948e-09
6.0266301e-09
6.1880563e-09
6.3712856e-09
6.5709948e-09
6.7793821e-09
6.9833409e-09
7.1688796e-09
7.3242006e-09
7.4448683e-09
7.5308211e-09
7.5832104e-09
7.6090275e-09
7.617597e-09
7.6159553e-09
7.6060216e-09
7.5916639e-09
7.5745733e-09
7.5561894e-09
7.5388133e-09
7.5246e-09
7.5117484e-09
7.484043e-09
7.4351845e-09
7.4037226e-09
7.3866938e-09
7.3787122e-09
7.3751059e-09
7.3731356e-09
7.3708291e-09
7.3639673e-09
7.3602367e-09
0.00090386074
0.0015166887
0.0012761851
0.00030738297
9.545397e-08
6.5814965e-09
5.7771051e-09
5.654928e-09
5.4585746e-09
5.4727072e-09
5.4128389e-09
5.4638769e-09
5.4665549e-09
5.5269482e-09
5.5720804e-09
5.6462379e-09
5.7270306e-09
5.8313988e-09
5.9530653e-09
6.0994822e-09
6.2682904e-09
6.458591e-09
6.6640883e-09
6.8755084e-09
7.0784737e-09
7.2586178e-09
7.4055882e-09
7.5168562e-09
7.5907698e-09
7.6305034e-09
7.6455111e-09
7.646297e-09
7.6375495e-09
7.6220154e-09
7.6030507e-09
7.5823426e-09
7.5612459e-09
7.542165e-09
7.5270806e-09
7.5119662e-09
7.4803996e-09
7.4312766e-09
7.4016184e-09
7.3859784e-09
7.3789703e-09
7.3759039e-09
7.3741738e-09
7.3709163e-09
7.3639967e-09
7.360096e-09
0.00089325008
0.0014602841
0.0011659601
0.00023902719
4.488791e-08
6.5531665e-09
5.7968691e-09
5.6801495e-09
5.4903497e-09
5.5069303e-09
5.4508795e-09
5.503764e-09
5.5102455e-09
5.5727582e-09
5.6218258e-09
5.6998457e-09
5.7857869e-09
5.895794e-09
6.0241793e-09
6.1778273e-09
6.3542524e-09
6.5516347e-09
6.76253e-09
6.9760553e-09
7.1766459e-09
7.3501271e-09
7.4882792e-09
7.588785e-09
7.649087e-09
7.6757361e-09
7.6813521e-09
7.6738912e-09
7.6582005e-09
7.6372167e-09
7.6138085e-09
7.5896009e-09
7.5659104e-09
7.5454058e-09
7.5297655e-09
7.5119476e-09
7.4756966e-09
7.4277887e-09
7.3997779e-09
7.3854191e-09
7.3793429e-09
7.3768344e-09
7.3754082e-09
7.3709606e-09
7.3640013e-09
7.3599512e-09
0.00088243396
0.0014009495
0.0010612674
0.00017663002
2.4901854e-08
6.5389745e-09
5.8196807e-09
5.708333e-09
5.5251422e-09
5.5442601e-09
5.4921346e-09
5.5469524e-09
5.5573335e-09
5.6221934e-09
5.6754708e-09
5.757648e-09
5.849094e-09
5.9651262e-09
6.1006161e-09
6.2618341e-09
6.4460696e-09
6.6504467e-09
6.8661762e-09
7.0806589e-09
7.277403e-09
7.4432134e-09
7.5720735e-09
7.6594645e-09
7.7051053e-09
7.7195442e-09
7.7161404e-09
7.7002873e-09
7.6777912e-09
7.6515636e-09
7.6239051e-09
7.5963174e-09
7.5701595e-09
7.5485281e-09
7.5327377e-09
7.5118406e-09
7.4703811e-09
7.4244593e-09
7.3982272e-09
7.3851983e-09
7.3797972e-09
7.3777965e-09
7.3767242e-09
7.3709869e-09
7.3639343e-09
7.3598031e-09
0.00087231226
0.0013468654
0.00095581219
0.00011969894
1.6200578e-08
6.5342602e-09
5.8456176e-09
5.7396054e-09
5.5629925e-09
5.5846726e-09
5.5365996e-09
5.5934386e-09
5.6079046e-09
5.6753555e-09
5.7331333e-09
5.819806e-09
5.9171224e-09
6.0395802e-09
6.1825624e-09
6.3516782e-09
6.5438692e-09
6.7550397e-09
6.9748368e-09
7.1889168e-09
7.3803673e-09
7.5378234e-09
7.6558403e-09
7.7280702e-09
7.7586415e-09
7.7625406e-09
7.7493486e-09
7.7253373e-09
7.6962708e-09
7.665007e-09
7.6333065e-09
7.6024536e-09
7.573972e-09
7.5514518e-09
7.5355932e-09
7.5110898e-09
7.4647192e-09
7.4212635e-09
7.3969006e-09
7.3851254e-09
7.3802852e-09
7.3786564e-09
7.37789e-09
7.3710068e-09
7.3638237e-09
7.3596527e-09
0.00086253204
0.0012933963
0.00085206628
7.1516865e-05
1.2035385e-08
6.5355899e-09
5.8744135e-09
5.773766e-09
5.6037715e-09
5.6281379e-09
5.5842655e-09
5.643288e-09
5.6620715e-09
5.7323818e-09
5.7949849e-09
5.8864986e-09
5.9900719e-09
6.1193676e-09
6.2702251e-09
6.4475451e-09
6.6477522e-09
6.8653598e-09
7.0882133e-09
7.3003768e-09
7.4852519e-09
7.6337829e-09
7.7382772e-09
7.7938542e-09
7.8105833e-09
7.8039313e-09
7.7809276e-09
7.7489676e-09
7.7135843e-09
7.6775173e-09
7.6419637e-09
7.6079555e-09
7.577338e-09
7.5540867e-09
7.5372659e-09
7.5097144e-09
7.4589469e-09
7.4182463e-09
7.3957705e-09
7.3851362e-09
7.3808005e-09
7.3793461e-09
7.3786811e-09
7.3710301e-09
7.3636885e-09
7.3595012e-09
0.00085307671
0.0012394955
0.00075136795
3.6459931e-05
9.9020373e-09
6.5416762e-09
5.9062174e-09
5.8108777e-09
5.6475445e-09
5.6747285e-09
5.6352622e-09
5.6966533e-09
5.7200152e-09
5.7934685e-09
5.8612151e-09
5.9579302e-09
6.0681514e-09
6.2047052e-09
6.3638232e-09
6.5496314e-09
6.7578258e-09
6.9813093e-09
7.2059592e-09
7.4146308e-09
7.5919239e-09
7.730081e-09
7.8183801e-09
7.8567058e-09
7.8612797e-09
7.8433122e-09
7.810731e-09
7.7711116e-09
7.7296992e-09
7.6890572e-09
7.6498042e-09
7.6127623e-09
7.5802721e-09
7.5564562e-09
7.5379842e-09
7.5074726e-09
7.4533338e-09
7.4154765e-09
7.3948669e-09
7.3852912e-09
7.3814227e-09
7.3799109e-09
7.3789769e-09
7.3710544e-09
7.3635418e-09
7.3593498e-09
0.00084409601
0.0011848807
0.00065519177
1.592281e-05
8.7551131e-09
6.5525223e-09
5.9409055e-09
5.8509729e-09
5.6944372e-09
5.7246113e-09
5.6898033e-09
5.7537568e-09
5.781944e-09
5.8588059e-09
5.9320147e-09
6.0343023e-09
6.1515897e-09
6.2958348e-09
6.4635869e-09
6.6580922e-09
6.8741275e-09
7.1026762e-09
7.327636e-09
7.5312992e-09
7.7002561e-09
7.8253006e-09
7.8952669e-09
7.9175017e-09
7.9099617e-09
7.8805638e-09
7.8386971e-09
7.7917331e-09
7.7445859e-09
7.699559e-09
7.656758e-09
7.6168622e-09
7.5828324e-09
7.5587176e-09
7.5381926e-09
7.5040786e-09
7.4482101e-09
7.4130207e-09
7.3942144e-09
7.385716e-09
7.382222e-09
7.3805715e-09
7.3790989e-09
7.3710058e-09
7.3633869e-09
7.3591998e-09
0.00083572597
0.0011298339
0.00056479067
6.2628874e-06
8.1197069e-09
6.5696917e-09
5.9786326e-09
5.8943781e-09
5.7447433e-09
5.7780992e-09
5.7481463e-09
5.8148017e-09
5.8480211e-09
5.928564e-09
6.0075748e-09
6.1158473e-09
6.2406331e-09
6.3930157e-09
6.5697631e-09
6.7731199e-09
6.9966598e-09
7.2292017e-09
7.452834e-09
7.6501307e-09
7.8096184e-09
7.9181313e-09
7.9685644e-09
7.9767518e-09
7.9561094e-09
7.9155509e-09
7.8647558e-09
7.8108142e-09
7.7582302e-09
7.7089841e-09
7.6628103e-09
7.6203735e-09
7.5851278e-09
7.5610245e-09
7.5381935e-09
7.4993162e-09
7.4438268e-09
7.410921e-09
7.3937477e-09
7.3862599e-09
7.3831512e-09
7.3815989e-09
7.3791515e-09
7.3708235e-09
7.3632221e-09
7.3590526e-09
0.00082803732
0.0010777662
0.0004807931
2.3602935e-06
7.7617931e-09
6.5933448e-09
6.0199642e-09
5.9414142e-09
5.7987775e-09
5.8353676e-09
5.8104107e-09
5.8798892e-09
5.9183725e-09
6.0029144e-09
6.0881234e-09
6.202812e-09
6.3355602e-09
6.4965233e-09
6.6826014e-09
6.8948417e-09
7.1253214e-09
7.3604931e-09
7.5811367e-09
7.7709479e-09
7.9184807e-09
8.007605e-09
8.0391178e-09
8.0336126e-09
7.9996189e-09
7.9481976e-09
7.888872e-09
7.8283531e-09
7.7706318e-09
7.7173619e-09
7.6680724e-09
7.6235657e-09
7.5872974e-09
7.5632007e-09
7.5377483e-09
7.4935747e-09
7.4399695e-09
7.4091615e-09
7.3935531e-09
7.3868844e-09
7.3842514e-09
7.382922e-09
7.3791862e-09
7.3705569e-09
7.3630445e-09
7.3589096e-09
0.00082022392
0.0010196627
0.00040331769
9.038156e-07
7.5613896e-09
6.6203798e-09
6.065121e-09
5.9921019e-09
5.8565116e-09
5.8963683e-09
5.8766302e-09
5.9491168e-09
5.9931657e-09
6.0820923e-09
6.1739013e-09
6.2954922e-09
6.4366679e-09
6.6066617e-09
6.8023531e-09
7.0233813e-09
7.2599535e-09
7.496169e-09
7.7122001e-09
7.8935138e-09
8.0252036e-09
8.0928542e-09
8.1078067e-09
8.0874344e-09
8.0403336e-09
7.978449e-09
7.9110354e-09
7.8443345e-09
7.7817861e-09
7.7247178e-09
7.6727899e-09
7.6266692e-09
7.5894195e-09
7.564496e-09
7.536507e-09
7.487345e-09
7.436386e-09
7.4076556e-09
7.393496e-09
7.3875365e-09
7.3853649e-09
7.3843202e-09
7.379196e-09
7.3702416e-09
7.3628541e-09
7.358772e-09
0.00081239132
0.00095910192
0.0003330951
3.6986838e-07
7.4522243e-09
6.6511622e-09
6.1134705e-09
6.046241e-09
5.9178194e-09
5.9611571e-09
5.9469297e-09
6.0226933e-09
6.0726428e-09
6.1663462e-09
6.2652173e-09
6.3942058e-09
6.5442859e-09
6.7237389e-09
6.9292506e-09
7.1587485e-09
7.4002631e-09
7.6357793e-09
7.8456879e-09
8.0164936e-09
8.1286173e-09
8.1745765e-09
8.173789e-09
8.1380495e-09
8.0781758e-09
8.0062831e-09
7.9312572e-09
7.8587613e-09
7.7916902e-09
7.7311444e-09
7.6772041e-09
7.6294349e-09
7.591314e-09
7.5650896e-09
7.5345469e-09
7.4809115e-09
7.4330247e-09
7.4063804e-09
7.3935108e-09
7.3881928e-09
7.3862806e-09
7.3853761e-09
7.3792071e-09
7.3698972e-09
7.3626575e-09
7.3586411e-09
0.00080415437
0.00089427286
0.0002697984
1.6867955e-07
7.3940155e-09
6.6853004e-09
6.1652026e-09
6.1038587e-09
5.9829545e-09
6.0299933e-09
6.0215977e-09
6.1008959e-09
6.1570867e-09
6.2559269e-09
6.3623975e-09
6.4992917e-09
6.6587599e-09
6.8480815e-09
7.063515e-09
7.3009174e-09
7.5459276e-09
7.7789604e-09
7.9813953e-09
8.1382081e-09
8.2275847e-09
8.2536003e-09
8.2364004e-09
8.1852926e-09
8.1130897e-09
8.0317048e-09
7.9495585e-09
7.8716558e-09
7.8003725e-09
7.7368198e-09
7.6811834e-09
7.6306747e-09
7.5922552e-09
7.565332e-09
7.5318794e-09
7.4744629e-09
7.4299327e-09
7.4054061e-09
7.3937105e-09
7.3888503e-09
7.3869135e-09
7.3857964e-09
7.3792183e-09
7.3695368e-09
7.3624596e-09
7.3585177e-09
0.00079532705
0.00082652809
0.0002133972
8.7492567e-08
7.3661008e-09
6.7234111e-09
6.2207215e-09
6.1654864e-09
6.0522742e-09
6.1032047e-09
6.1009349e-09
6.184016e-09
6.246807e-09
6.3512739e-09
6.4657885e-09
6.6111213e-09
6.7804543e-09
6.9800041e-09
7.2052793e-09
7.4497042e-09
7.6965062e-09
7.9252894e-09
8.1187265e-09
8.2568567e-09
8.3219665e-09
8.3298619e-09
8.2951462e-09
8.2290714e-09
8.1450622e-09
8.0547452e-09
7.9659658e-09
7.8830305e-09
7.8079308e-09
7.741949e-09
7.683806e-09
7.6312237e-09
7.5927103e-09
7.5654228e-09
7.5284117e-09
7.4682601e-09
7.4271719e-09
7.4047528e-09
7.3941384e-09
7.3895342e-09
7.3874113e-09
7.3859915e-09
7.3790601e-09
7.3691693e-09
7.362264e-09
7.3584029e-09
0.00078535506
0.00075538644
0.00016449874
5.159961e-08
7.3578638e-09
6.765647e-09
6.2803719e-09
6.2313684e-09
6.1260425e-09
6.1810296e-09
6.185199e-09
6.2723444e-09
6.3421157e-09
6.4527671e-09
6.5757664e-09
6.7300799e-09
6.9097574e-09
7.1198228e-09
7.3546429e-09
7.6048829e-09
7.85162e-09
8.0744302e-09
8.2559411e-09
8.3712757e-09
8.4125445e-09
8.402474e-09
8.349917e-09
8.2693274e-09
8.1741159e-09
8.0754501e-09
7.9804991e-09
7.8929117e-09
7.8145286e-09
7.7465846e-09
7.6848084e-09
7.6313757e-09
7.5928994e-09
7.5652066e-09
7.5238931e-09
7.462681e-09
7.424801e-09
7.4043404e-09
7.3946912e-09
7.3903126e-09
7.3880331e-09
7.386072e-09
7.3787553e-09
7.3687997e-09
7.3620737e-09
7.3582975e-09
0.00077428377
0.00067780681
0.00012210518
3.4085439e-08
7.3632106e-09
6.8121741e-09
6.3442993e-09
6.3016383e-09
6.2044637e-09
6.2637109e-09
6.2746795e-09
6.3662001e-09
6.4433767e-09
6.5607437e-09
6.6927361e-09
6.8565911e-09
7.0470674e-09
7.2678e-09
7.5115607e-09
7.7660605e-09
8.0107931e-09
8.2259631e-09
8.391045e-09
8.4802932e-09
8.5002768e-09
8.4705372e-09
8.4005634e-09
8.3060547e-09
8.2003007e-09
8.0938633e-09
7.9931772e-09
7.9014062e-09
7.8203919e-09
7.7502112e-09
7.6851389e-09
7.6314296e-09
7.5930145e-09
7.5642377e-09
7.5181505e-09
7.4580282e-09
7.4228436e-09
7.4040966e-09
7.3952662e-09
7.3911822e-09
7.3890056e-09
7.386103e-09
7.3783104e-09
7.368432e-09
7.3618911e-09
7.3582025e-09
0.00076381271
0.00060543934
8.7106201e-05
2.4790242e-08
7.3788939e-09
6.8630862e-09
6.4125946e-09
6.3765775e-09
6.2877814e-09
6.3515891e-09
6.3696987e-09
6.4659561e-09
6.5509602e-09
6.6756051e-09
6.8171381e-09
6.9911099e-09
7.1928025e-09
7.4241759e-09
7.6759488e-09
7.9328835e-09
8.1736019e-09
8.3788695e-09
8.5222593e-09
8.5845083e-09
8.5840467e-09
8.5339763e-09
8.447033e-09
8.3392887e-09
8.2236774e-09
8.1100157e-09
8.004054e-09
7.9087256e-09
7.8256962e-09
7.7516822e-09
7.6851774e-09
7.6312213e-09
7.5929595e-09
7.5624444e-09
7.5116274e-09
7.4541132e-09
7.4212522e-09
7.4040194e-09
7.3958377e-09
7.3920807e-09
7.3901245e-09
7.3861159e-09
7.3777625e-09
7.3680688e-09
7.3617166e-09
7.3581186e-09
0.00075545
0.00055340423
5.9875305e-05
1.9444823e-08
7.4028487e-09
6.9186736e-09
6.4856575e-09
6.4564458e-09
6.3763806e-09
6.4449822e-09
6.4706294e-09
6.5719746e-09
6.6652852e-09
6.7978081e-09
6.9494564e-09
7.1341273e-09
7.3473441e-09
7.5890598e-09
7.8475102e-09
8.1048889e-09
8.3395388e-09
8.5310371e-09
8.648082e-09
8.6847481e-09
8.6630262e-09
8.5925712e-09
8.489309e-09
8.3690897e-09
8.2442944e-09
8.1239414e-09
8.0132875e-09
7.9151545e-09
7.8301259e-09
7.7522688e-09
7.6850074e-09
7.6307004e-09
7.5925334e-09
7.5597855e-09
7.5048891e-09
7.4506383e-09
7.4199436e-09
7.4040264e-09
7.3963908e-09
7.3927982e-09
7.3908216e-09
7.3861194e-09
7.3771526e-09
7.3677123e-09
7.3615502e-09
7.3580469e-09
0.00074810871
0.00050591228
3.9112698e-05
1.6155893e-08
7.433864e-09
6.9793471e-09
6.5636169e-09
6.5416568e-09
6.4705668e-09
6.5442142e-09
6.5778191e-09
6.6846699e-09
6.7868109e-09
6.9278508e-09
7.0902222e-09
7.2861442e-09
7.5110749e-09
7.7624929e-09
8.025947e-09
8.2816371e-09
8.5081442e-09
8.6802781e-09
8.7679158e-09
8.7810999e-09
8.7365418e-09
8.646267e-09
8.5274345e-09
8.395527e-09
8.2621894e-09
8.135742e-09
8.0211843e-09
7.9208865e-09
7.8322733e-09
7.7524024e-09
7.6842992e-09
7.629906e-09
7.5917285e-09
7.5563334e-09
7.498216e-09
7.4474955e-09
7.4188982e-09
7.4041027e-09
7.3968755e-09
7.3932892e-09
7.3911606e-09
7.3860448e-09
7.3765152e-09
7.3673643e-09
7.3613938e-09
7.357988e-09
0.00074171059
0.00046523246
2.4551134e-05
1.4045025e-08
7.4716841e-09
7.0451316e-09
6.6469418e-09
6.632379e-09
6.570655e-09
6.6496326e-09
6.6916801e-09
6.8045198e-09
6.9160634e-09
7.0663108e-09
7.2400159e-09
7.4476821e-09
7.6842564e-09
7.9443367e-09
8.2107667e-09
8.462462e-09
8.6777081e-09
8.8246437e-09
8.8823928e-09
8.8724016e-09
8.8044723e-09
8.6950195e-09
8.5614734e-09
8.4186587e-09
8.2774355e-09
8.1456789e-09
8.0281126e-09
7.9256355e-09
7.8331773e-09
7.7523275e-09
7.6831812e-09
7.6288486e-09
7.5905039e-09
7.5521953e-09
7.4917706e-09
7.4446544e-09
7.4180954e-09
7.4042912e-09
7.3973157e-09
7.3936336e-09
7.3913144e-09
7.3858143e-09
7.3758726e-09
7.3670265e-09
7.3612494e-09
7.3579424e-09
0.00073646999
0.00043032546
1.4897796e-05
1.2640705e-08
7.5158822e-09
7.1161734e-09
6.735894e-09
6.7289567e-09
6.6770102e-09
6.7616866e-09
6.8127241e-09
6.9320875e-09
7.0536541e-09
7.2138152e-09
7.3994536e-09
7.6192517e-09
7.867103e-09
8.1343993e-09
8.4015773e-09
8.6468092e-09
8.8458608e-09
8.962424e-09
8.9927291e-09
8.9575703e-09
8.8666662e-09
8.7388731e-09
8.5915042e-09
8.438553e-09
8.2902431e-09
8.154192e-09
8.0341981e-09
7.927988e-09
7.8334314e-09
7.7515564e-09
7.6816603e-09
7.6275494e-09
7.5888449e-09
7.5474877e-09
7.4856973e-09
7.4421062e-09
7.417452e-09
7.4045047e-09
7.3977738e-09
7.3940023e-09
7.3913899e-09
7.3854307e-09
7.3752389e-09
7.3667028e-09
7.3611193e-09
7.3579102e-09
0.00073251759
0.00040112417
8.7919841e-06
1.1682982e-08
7.5663578e-09
7.1929495e-09
6.8306927e-09
6.8318691e-09
6.7901558e-09
6.8809426e-09
6.9415533e-09
7.0680137e-09
7.2002547e-09
7.3710532e-09
7.5691893e-09
7.8012878e-09
8.0596311e-09
8.3322444e-09
8.5977377e-09
8.8337998e-09
9.0098774e-09
9.0937033e-09
9.097777e-09
9.0362974e-09
8.9230737e-09
8.7778899e-09
8.6176047e-09
8.4553543e-09
8.3010331e-09
8.1616718e-09
8.0387835e-09
7.9289668e-09
7.8333849e-09
7.7502551e-09
7.6797935e-09
7.6260066e-09
7.5867064e-09
7.5422768e-09
7.4801506e-09
7.4398667e-09
7.4169389e-09
7.4047305e-09
7.3982241e-09
7.3945751e-09
7.3914288e-09
7.3849098e-09
7.3746184e-09
7.3663957e-09
7.3610062e-09
7.3578919e-09
0.00072974028
0.00037771011
5.0532469e-06
1.1020996e-08
7.6234198e-09
7.2759283e-09
6.9319795e-09
6.941711e-09
6.9107189e-09
7.0080301e-09
7.0788378e-09
7.2130024e-09
7.3565781e-09
7.5387452e-09
7.749856e-09
7.9941697e-09