/*--------------------------------*- C++ -*----------------------------------*\
  =========                 |
  \\      /  F ield         | OpenFOAM: The Open Source CFD Toolbox
   \\    /   O peration     | Website:  https://openfoam.org
    \\  /    A nd           | Version:  8
     \\/     M anipulation  |
\*---------------------------------------------------------------------------*/
FoamFile
{
    version     2.0;
    format      ascii;
    class       volScalarField;
    location    "0.0599932";
    object      nuTilda;
}
// * * * * * * * * * * * * * * * * * * * * * * * * * * * * * * * * * * * * * //

dimensions      [0 2 -1 0 0 0 0];

internalField   nonuniform List<scalar> 
20000
(
0.0011045251
0.0025061092
0.0031174923
0.0030536711
0.0022024266
0.00051753641
2.3606777e-05
1.0282952e-05
1.0112357e-05
1.0096347e-05
1.004389e-05
1.0048428e-05
1.0011998e-05
1.0017755e-05
1.0008958e-05
1.0009034e-05
1.0004963e-05
1.0003912e-05
1.0002407e-05
1.0002032e-05
1.0001894e-05
1.0001931e-05
1.000187e-05
1.0001754e-05
1.0001629e-05
1.000149e-05
1.0001335e-05
1.0001163e-05
1.0001e-05
1.0000881e-05
1.0000787e-05
1.0000684e-05
1.000058e-05
1.0000476e-05
1.0000395e-05
1.0000366e-05
1.0000333e-05
1.0000278e-05
1.000021e-05
1.0000184e-05
1.0000157e-05
1.0000158e-05
1.0000179e-05
1.0000203e-05
1.0000207e-05
1.0000212e-05
1.0000069e-05
1.000005e-05
1.0000053e-05
1.000012e-05
0.0010890206
0.0024462855
0.0030190464
0.0029180419
0.0019984019
0.00041106228
1.8240732e-05
1.0268619e-05
1.010989e-05
1.0095061e-05
1.0043361e-05
1.0048256e-05
1.0011792e-05
1.001757e-05
1.0008819e-05
1.0008903e-05
1.0004924e-05
1.000388e-05
1.0002394e-05
1.0002021e-05
1.0001891e-05
1.0001933e-05
1.0001866e-05
1.0001746e-05
1.0001619e-05
1.0001479e-05
1.000132e-05
1.0001142e-05
1.0000971e-05
1.0000849e-05
1.000076e-05
1.0000658e-05
1.0000543e-05
1.0000443e-05
1.0000368e-05
1.0000344e-05
1.0000317e-05
1.0000264e-05
1.0000211e-05
1.0000172e-05
1.0000147e-05
1.0000144e-05
1.0000161e-05
1.0000179e-05
1.0000189e-05
1.0000178e-05
1.0000064e-05
1.0000047e-05
1.000005e-05
1.000012e-05
0.0010795384
0.0023953722
0.0029220449
0.0027790693
0.001783059
0.00031157756
1.4749657e-05
1.0258036e-05
1.0107342e-05
1.0093295e-05
1.0042847e-05
1.0047962e-05
1.00116e-05
1.0017189e-05
1.0008679e-05
1.0008751e-05
1.0004871e-05
1.000384e-05
1.000238e-05
1.0002012e-05
1.0001885e-05
1.0001919e-05
1.0001854e-05
1.0001735e-05
1.0001609e-05
1.0001472e-05
1.0001317e-05
1.0001141e-05
1.0000974e-05
1.0000849e-05
1.0000766e-05
1.0000669e-05
1.0000539e-05
1.0000439e-05
1.0000369e-05
1.0000347e-05
1.000032e-05
1.0000266e-05
1.0000206e-05
1.0000172e-05
1.0000146e-05
1.0000142e-05
1.0000157e-05
1.0000172e-05
1.0000186e-05
1.0000172e-05
1.0000064e-05
1.0000047e-05
1.0000051e-05
1.0000118e-05
0.0010694448
0.0023444965
0.0028255401
0.0026370302
0.0015727066
0.00023228859
1.2727492e-05
1.0249862e-05
1.0104804e-05
1.009159e-05
1.0042308e-05
1.0047652e-05
1.0011403e-05
1.0016939e-05
1.0008543e-05
1.0008597e-05
1.0004821e-05
1.0003799e-05
1.0002364e-05
1.0001999e-05
1.0001883e-05
1.0001915e-05
1.0001845e-05
1.0001725e-05
1.0001599e-05
1.0001462e-05
1.0001308e-05
1.0001131e-05
1.0000962e-05
1.0000841e-05
1.0000768e-05
1.0000682e-05
1.0000539e-05
1.0000433e-05
1.0000367e-05
1.0000343e-05
1.0000316e-05
1.0000263e-05
1.0000205e-05
1.0000171e-05
1.0000146e-05
1.000014e-05
1.0000154e-05
1.0000165e-05
1.0000182e-05
1.0000153e-05
1.0000065e-05
1.0000048e-05
1.0000052e-05
1.0000116e-05
0.0010596229
0.0022954052
0.002735064
0.002499243
0.0013692156
0.00016973939
1.1592165e-05
1.0242829e-05
1.0102266e-05
1.0089834e-05
1.0041746e-05
1.0047322e-05
1.0011217e-05
1.0016578e-05
1.000841e-05
1.0008442e-05
1.0004771e-05
1.0003756e-05
1.0002347e-05
1.0001986e-05
1.0001881e-05
1.0001905e-05
1.0001834e-05
1.0001714e-05
1.0001589e-05
1.0001454e-05
1.00013e-05
1.0001124e-05
1.0000954e-05
1.0000835e-05
1.0000771e-05
1.0000696e-05
1.0000541e-05
1.0000428e-05
1.0000368e-05
1.0000343e-05
1.0000316e-05
1.0000263e-05
1.0000204e-05
1.0000171e-05
1.0000147e-05
1.0000138e-05
1.000015e-05
1.000016e-05
1.0000176e-05
1.0000145e-05
1.0000068e-05
1.0000049e-05
1.0000053e-05
1.0000112e-05
0.0010497964
0.0022471096
0.0026449906
0.0023623262
0.0011748514
0.00012168044
1.0977596e-05
1.0236172e-05
1.0099727e-05
1.0088027e-05
1.0041139e-05
1.0046932e-05
1.0011062e-05
1.00163e-05
1.0008281e-05
1.0008284e-05
1.0004718e-05
1.000371e-05
1.0002329e-05
1.0001972e-05
1.0001878e-05
1.0001898e-05
1.0001823e-05
1.0001703e-05
1.0001579e-05
1.0001445e-05
1.0001292e-05
1.0001116e-05
1.0000945e-05
1.0000826e-05
1.0000771e-05
1.0000711e-05
1.0000547e-05
1.0000423e-05
1.0000368e-05
1.0000343e-05
1.0000316e-05
1.000026e-05
1.0000203e-05
1.0000171e-05
1.0000147e-05
1.0000136e-05
1.0000145e-05
1.0000154e-05
1.0000168e-05
1.0000138e-05
1.000007e-05
1.0000051e-05
1.0000055e-05
1.0000108e-05
0.0010401343
0.0021994117
0.002555754
0.0022246963
0.00099299604
8.603185e-05
1.0652541e-05
1.022985e-05
1.0097271e-05
1.0086053e-05
1.0040543e-05
1.004466e-05
1.0010816e-05
1.0015931e-05
1.0008153e-05
1.0008122e-05
1.0004663e-05
1.0003663e-05
1.0002312e-05
1.0001958e-05
1.0001875e-05
1.0001889e-05
1.0001811e-05
1.0001691e-05
1.0001568e-05
1.0001435e-05
1.0001284e-05
1.0001108e-05
1.0000935e-05
1.0000816e-05
1.0000767e-05
1.0000724e-05
1.0000556e-05
1.0000419e-05
1.0000368e-05
1.0000345e-05
1.0000317e-05
1.000026e-05
1.0000204e-05
1.0000169e-05
1.0000148e-05
1.0000134e-05
1.0000139e-05
1.0000148e-05
1.0000161e-05
1.0000133e-05
1.0000072e-05
1.0000052e-05
1.0000056e-05
1.0000104e-05
0.0010306054
0.0021522138
0.0024671513
0.0020852729
0.00082612985
6.0442019e-05
1.048418e-05
1.0224596e-05
1.0096229e-05
1.0083227e-05
1.0037331e-05
1.0040429e-05
1.0010606e-05
1.0015632e-05
1.0008027e-05
1.0007957e-05
1.0004609e-05
1.0003616e-05
1.0002295e-05
1.0001944e-05
1.0001872e-05
1.0001881e-05
1.00018e-05
1.0001679e-05
1.0001557e-05
1.0001426e-05
1.0001276e-05
1.00011e-05
1.0000926e-05
1.0000806e-05
1.0000762e-05
1.0000733e-05
1.0000568e-05
1.0000417e-05
1.0000367e-05
1.0000347e-05
1.0000319e-05
1.0000259e-05
1.0000203e-05
1.0000168e-05
1.0000148e-05
1.0000133e-05
1.0000133e-05
1.0000141e-05
1.0000154e-05
1.000013e-05
1.0000073e-05
1.0000054e-05
1.0000058e-05
1.0000101e-05
0.0010212589
0.0021057176
0.0023792366
0.0019468089
0.00067615315
4.2676549e-05
1.0398795e-05
1.0219565e-05
1.0093032e-05
1.0078969e-05
1.0032769e-05
1.0037095e-05
1.0010405e-05
1.001526e-05
1.0007904e-05
1.0007791e-05
1.0004556e-05
1.0003569e-05
1.0002279e-05
1.0001931e-05
1.0001869e-05
1.0001872e-05
1.0001788e-05
1.0001667e-05
1.0001545e-05
1.0001416e-05
1.0001268e-05
1.0001093e-05
1.0000917e-05
1.0000795e-05
1.0000756e-05
1.0000741e-05
1.0000582e-05
1.0000417e-05
1.0000367e-05
1.000035e-05
1.0000323e-05
1.0000258e-05
1.0000203e-05
1.0000169e-05
1.0000148e-05
1.0000131e-05
1.0000126e-05
1.0000135e-05
1.0000147e-05
1.0000128e-05
1.0000073e-05
1.0000055e-05
1.0000059e-05
1.0000099e-05
0.001012104
0.0020603545
0.0022917976
0.0018057896
0.00054412842
3.0748125e-05
1.0351906e-05
1.0215445e-05
1.0089053e-05
1.0074706e-05
1.0028777e-05
1.0033434e-05
1.0010135e-05
1.0014935e-05
1.0007784e-05
1.0007625e-05
1.0004502e-05
1.0003521e-05
1.0002263e-05
1.0001917e-05
1.0001866e-05
1.0001864e-05
1.0001776e-05
1.0001655e-05
1.0001534e-05
1.0001406e-05
1.0001259e-05
1.0001085e-05
1.0000907e-05
1.0000785e-05
1.0000749e-05
1.0000746e-05
1.00006e-05
1.0000418e-05
1.0000367e-05
1.0000352e-05
1.0000327e-05
1.0000258e-05
1.0000202e-05
1.0000169e-05
1.0000149e-05
1.0000129e-05
1.0000121e-05
1.0000128e-05
1.0000141e-05
1.0000129e-05
1.0000074e-05
1.0000057e-05
1.0000061e-05
1.0000096e-05
0.0010032208
0.0020168908
0.0022064612
0.0016610026
0.00043231093
2.2994061e-05
1.0329235e-05
1.0209569e-05
1.0087527e-05
1.0072372e-05
1.0026217e-05
1.0030483e-05
1.0009811e-05
1.0014595e-05
1.0007667e-05
1.0007453e-05
1.0004449e-05
1.0003473e-05
1.0002247e-05
1.0001903e-05
1.0001862e-05
1.0001854e-05
1.0001763e-05
1.0001642e-05
1.0001522e-05
1.0001395e-05
1.0001251e-05
1.0001078e-05
1.0000898e-05
1.0000774e-05
1.0000739e-05
1.000075e-05
1.0000619e-05
1.0000422e-05
1.0000367e-05
1.0000354e-05
1.0000331e-05
1.0000257e-05
1.0000202e-05
1.0000169e-05
1.0000149e-05
1.0000127e-05
1.0000117e-05
1.0000122e-05
1.0000133e-05
1.0000129e-05
1.0000074e-05
1.000006e-05
1.0000062e-05
1.0000094e-05
0.00099457196
0.0019753448
0.0021297628
0.001512478
0.00034030306
1.8080767e-05
1.031508e-05
1.020416e-05
1.0087026e-05
1.0070627e-05
1.0025223e-05
1.0029325e-05
1.0009606e-05
1.0014254e-05
1.0007553e-05
1.000728e-05
1.0004396e-05
1.0003424e-05
1.0002232e-05
1.0001889e-05
1.0001858e-05
1.0001843e-05
1.0001751e-05
1.0001629e-05
1.0001509e-05
1.0001384e-05
1.0001242e-05
1.000107e-05
1.000089e-05
1.0000762e-05
1.0000727e-05
1.0000752e-05
1.000064e-05
1.0000428e-05
1.0000368e-05
1.0000354e-05
1.0000334e-05
1.0000257e-05
1.0000201e-05
1.000017e-05
1.000015e-05
1.0000127e-05
1.0000114e-05
1.0000116e-05
1.0000127e-05
1.000013e-05
1.0000074e-05
1.0000062e-05
1.0000062e-05
1.0000092e-05
0.00098600148
0.0019341764
0.0020529841
0.0013600524
0.00026254244
1.5001603e-05
1.0302675e-05
1.0198585e-05
1.0084564e-05
1.0068722e-05
1.0024621e-05
1.0028671e-05
1.0009504e-05
1.0013909e-05
1.0007442e-05
1.0007108e-05
1.0004342e-05
1.0003376e-05
1.0002217e-05
1.0001875e-05
1.0001854e-05
1.0001832e-05
1.0001738e-05
1.0001616e-05
1.0001496e-05
1.0001373e-05
1.0001233e-05
1.0001063e-05
1.0000882e-05
1.0000749e-05
1.0000714e-05
1.0000751e-05
1.0000661e-05
1.0000435e-05
1.0000371e-05
1.0000355e-05
1.0000336e-05
1.0000256e-05
1.00002e-05
1.000017e-05
1.0000152e-05
1.0000126e-05
1.0000113e-05
1.0000111e-05
1.000012e-05
1.0000131e-05
1.0000075e-05
1.0000064e-05
1.0000062e-05
1.000009e-05
0.00097769372
0.0018938126
0.0019772804
0.0012064942
0.00019941458
1.3140239e-05
1.0290663e-05
1.0192927e-05
1.0082134e-05
1.0066835e-05
1.0023916e-05
1.0027908e-05
1.0009384e-05
1.0013563e-05
1.0007332e-05
1.0006937e-05
1.000429e-05
1.0003327e-05
1.0002203e-05
1.0001862e-05
1.000185e-05
1.0001821e-05
1.0001724e-05
1.0001602e-05
1.0001483e-05
1.0001362e-05
1.0001223e-05
1.0001055e-05
1.0000874e-05
1.0000736e-05
1.0000698e-05
1.0000744e-05
1.0000681e-05
1.0000445e-05
1.0000374e-05
1.0000355e-05
1.0000336e-05
1.0000256e-05
1.0000199e-05
1.0000171e-05
1.0000153e-05
1.0000126e-05
1.000011e-05
1.0000106e-05
1.0000115e-05
1.0000132e-05
1.0000077e-05
1.0000066e-05
1.0000064e-05
1.0000088e-05
0.00096966247
0.0018541881
0.0019021621
0.0010563044
0.00014943447
1.2039426e-05
1.0280659e-05
1.0187308e-05
1.0079694e-05
1.0064919e-05
1.0023205e-05
1.0027153e-05
1.0009276e-05
1.0013217e-05
1.0007225e-05
1.0006769e-05
1.0004237e-05
1.0003279e-05
1.0002189e-05
1.0001848e-05
1.0001846e-05
1.0001811e-05
1.000171e-05
1.0001588e-05
1.000147e-05
1.000135e-05
1.0001214e-05
1.0001048e-05
1.0000867e-05
1.0000723e-05
1.000068e-05
1.0000729e-05
1.0000695e-05
1.0000456e-05
1.0000377e-05
1.0000356e-05
1.0000335e-05
1.0000255e-05
1.0000197e-05
1.0000171e-05
1.0000154e-05
1.0000127e-05
1.0000107e-05
1.0000102e-05
1.0000111e-05
1.0000133e-05
1.0000078e-05
1.0000069e-05
1.0000066e-05
1.0000087e-05
0.00096160421
0.0018128963
0.001826755
0.0009177136
0.00011092297
1.140391e-05
1.0271351e-05
1.0181677e-05
1.0077251e-05
1.0062988e-05
1.0022498e-05
1.002639e-05
1.0009173e-05
1.001287e-05
1.000712e-05
1.0006604e-05
1.0004184e-05
1.0003231e-05
1.0002176e-05
1.0001836e-05
1.000184e-05
1.00018e-05
1.0001696e-05
1.0001573e-05
1.0001457e-05
1.0001339e-05
1.0001204e-05
1.000104e-05
1.0000859e-05
1.000071e-05
1.0000662e-05
1.0000714e-05
1.0000705e-05
1.0000471e-05
1.0000381e-05
1.0000358e-05
1.0000332e-05
1.0000255e-05
1.0000196e-05
1.0000171e-05
1.0000154e-05
1.0000128e-05
1.0000105e-05
1.0000098e-05
1.0000108e-05
1.0000132e-05
1.0000079e-05
1.0000071e-05
1.0000069e-05
1.0000085e-05
0.00095342107
0.0017697617
0.0017497856
0.00078941224
8.1762323e-05
1.1039942e-05
1.0262511e-05
1.0176075e-05
1.0074809e-05
1.0061049e-05
1.0021796e-05
1.0025624e-05
1.0009078e-05
1.0012524e-05
1.0007016e-05
1.0006442e-05
1.0004131e-05
1.0003184e-05
1.0002163e-05
1.0001824e-05
1.0001834e-05
1.0001788e-05
1.0001681e-05
1.0001559e-05
1.0001443e-05
1.0001326e-05
1.0001194e-05
1.0001032e-05
1.0000852e-05
1.0000698e-05
1.0000643e-05
1.0000701e-05
1.0000712e-05
1.0000487e-05
1.0000384e-05
1.0000361e-05
1.0000329e-05
1.0000254e-05
1.0000194e-05
1.0000171e-05
1.0000155e-05
1.000013e-05
1.0000103e-05
1.0000094e-05
1.0000104e-05
1.0000129e-05
1.0000081e-05
1.0000074e-05
1.0000073e-05
1.0000084e-05
0.00094499234
0.0017244553
0.0016700506
0.00067181361
6.0134648e-05
1.0830292e-05
1.0253976e-05
1.0170479e-05
1.0072369e-05
1.0059099e-05
1.0021099e-05
1.0024855e-05
1.0008989e-05
1.0012183e-05
1.0006913e-05
1.0006285e-05
1.0004078e-05
1.0003137e-05
1.0002152e-05
1.0001814e-05
1.0001827e-05
1.0001776e-05
1.0001666e-05
1.0001544e-05
1.0001429e-05
1.0001314e-05
1.0001183e-05
1.0001024e-05
1.0000846e-05
1.0000688e-05
1.0000625e-05
1.0000685e-05
1.0000717e-05
1.0000504e-05
1.0000387e-05
1.0000363e-05
1.0000328e-05
1.0000253e-05
1.0000193e-05
1.0000171e-05
1.0000156e-05
1.0000131e-05
1.0000101e-05
1.000009e-05
1.00001e-05
1.0000123e-05
1.0000084e-05
1.0000075e-05
1.0000076e-05
1.0000083e-05
0.00093607021
0.0016762206
0.001584955
0.000565409
4.4502064e-05
1.0706991e-05
1.0245721e-05
1.0164909e-05
1.0069933e-05
1.0057146e-05
1.0020409e-05
1.0024086e-05
1.000891e-05
1.0011853e-05
1.0006812e-05
1.0006134e-05
1.0004025e-05
1.0003091e-05
1.0002141e-05
1.0001804e-05
1.0001819e-05
1.0001764e-05
1.0001651e-05
1.0001529e-05
1.0001414e-05
1.0001302e-05
1.0001173e-05
1.0001016e-05
1.0000839e-05
1.0000679e-05
1.0000607e-05
1.0000663e-05
1.0000719e-05
1.0000523e-05
1.000039e-05
1.0000365e-05
1.0000328e-05
1.0000252e-05
1.0000192e-05
1.000017e-05
1.0000157e-05
1.0000132e-05
1.00001e-05
1.0000086e-05
1.0000095e-05
1.0000116e-05
1.0000087e-05
1.0000071e-05
1.0000078e-05
1.0000082e-05
0.00092661467
0.001624965
0.001489236
0.00047111882
3.3466727e-05
1.0631061e-05
1.0237682e-05
1.0159352e-05
1.0067503e-05
1.0055189e-05
1.0019728e-05
1.0023319e-05
1.0008839e-05
1.0011522e-05
1.0006712e-05
1.0005991e-05
1.0003972e-05
1.0003047e-05
1.0002131e-05
1.0001795e-05
1.0001812e-05
1.0001751e-05
1.0001636e-05
1.0001513e-05
1.00014e-05
1.0001289e-05
1.0001162e-05
1.0001007e-05
1.0000833e-05
1.0000671e-05
1.0000591e-05
1.0000639e-05
1.0000718e-05
1.0000541e-05
1.0000392e-05
1.0000365e-05
1.000033e-05
1.0000251e-05
1.0000192e-05
1.0000169e-05
1.0000157e-05
1.0000132e-05
1.0000099e-05
1.0000084e-05
1.0000089e-05
1.0000109e-05
1.000009e-05
1.0000064e-05
1.000008e-05
1.0000082e-05
0.00091681034
0.0015720437
0.0013865627
0.00039125817
2.5847173e-05
1.0580944e-05
1.0229807e-05
1.0153811e-05
1.0065081e-05
1.0053234e-05
1.0019057e-05
1.0022554e-05
1.0008779e-05
1.0011199e-05
1.0006614e-05
1.000585e-05
1.000392e-05
1.0003004e-05
1.0002121e-05
1.0001788e-05
1.0001803e-05
1.0001738e-05
1.000162e-05
1.0001497e-05
1.0001385e-05
1.0001276e-05
1.0001151e-05
1.0000998e-05
1.0000827e-05
1.0000665e-05
1.0000578e-05
1.0000613e-05
1.0000712e-05
1.0000559e-05
1.0000396e-05
1.0000364e-05
1.0000334e-05
1.0000252e-05
1.0000191e-05
1.0000168e-05
1.0000158e-05
1.0000131e-05
1.0000099e-05
1.0000083e-05
1.0000083e-05
1.0000103e-05
1.0000092e-05
1.0000056e-05
1.0000081e-05
1.0000081e-05
0.0009066085
0.0015176395
0.0012774579
0.00032458328
2.0638091e-05
1.0545043e-05
1.0222069e-05
1.01483e-05
1.0062671e-05
1.0051285e-05
1.0018399e-05
1.0021795e-05
1.0008735e-05
1.0010878e-05
1.0006517e-05
1.0005713e-05
1.0003869e-05
1.0002962e-05
1.0002112e-05
1.0001782e-05
1.0001795e-05
1.0001724e-05
1.0001604e-05
1.0001482e-05
1.000137e-05
1.0001263e-05
1.0001139e-05
1.000099e-05
1.0000822e-05
1.000066e-05
1.0000568e-05
1.0000587e-05
1.000069e-05
1.0000575e-05
1.0000401e-05
1.0000363e-05
1.0000338e-05
1.0000253e-05
1.0000189e-05
1.0000166e-05
1.0000159e-05
1.000013e-05
1.0000099e-05
1.0000082e-05
1.0000078e-05
1.00001e-05
1.0000093e-05
1.0000051e-05
1.0000083e-05
1.0000081e-05
0.00089604411
0.0014613013
0.0011674656
0.00026369358
1.7057735e-05
1.0516988e-05
1.0214428e-05
1.0142815e-05
1.0060275e-05
1.0049347e-05
1.0017754e-05
1.0021043e-05
1.0008729e-05
1.0010567e-05
1.0006422e-05
1.000558e-05
1.0003817e-05
1.0002923e-05
1.0002105e-05
1.0001777e-05
1.0001785e-05
1.000171e-05
1.0001588e-05
1.0001466e-05
1.0001355e-05
1.0001249e-05
1.0001127e-05
1.0000982e-05
1.0000818e-05
1.0000656e-05
1.0000558e-05
1.0000559e-05
1.0000663e-05
1.0000588e-05
1.0000407e-05
1.0000362e-05
1.000034e-05
1.0000256e-05
1.0000188e-05
1.0000163e-05
1.000016e-05
1.0000129e-05
1.0000098e-05
1.000008e-05
1.0000075e-05
1.0000098e-05
1.0000095e-05
1.0000051e-05
1.0000086e-05
1.0000081e-05
0.00088527554
0.001402045
0.0010630595
0.00021154112
1.4695658e-05
1.0493505e-05
1.0206885e-05
1.0137378e-05
1.0057899e-05
1.0047426e-05
1.0017125e-05
1.0020301e-05
1.0008693e-05
1.0010255e-05
1.0006328e-05
1.000545e-05
1.0003767e-05
1.0002884e-05
1.0002098e-05
1.0001773e-05
1.0001775e-05
1.0001695e-05
1.0001571e-05
1.0001449e-05
1.000134e-05
1.0001235e-05
1.0001115e-05
1.0000974e-05
1.0000814e-05
1.0000652e-05
1.0000547e-05
1.0000533e-05
1.0000635e-05
1.0000597e-05
1.0000415e-05
1.0000362e-05
1.0000341e-05
1.000026e-05
1.0000186e-05
1.000016e-05
1.0000161e-05
1.0000127e-05
1.0000096e-05
1.0000079e-05
1.0000071e-05
1.0000093e-05
1.0000098e-05
1.0000054e-05
1.0000089e-05
1.0000082e-05
0.00087519615
0.0013480395
0.00095798816
0.00016714462
1.3175054e-05
1.0472442e-05
1.0199404e-05
1.0131969e-05
1.0055542e-05
1.0045521e-05
1.0016513e-05
1.0019569e-05
1.0008651e-05
1.0009953e-05
1.0006234e-05
1.0005325e-05
1.0003718e-05
1.0002848e-05
1.0002092e-05
1.0001771e-05
1.0001765e-05
1.0001681e-05
1.0001555e-05
1.0001433e-05
1.0001324e-05
1.000122e-05
1.0001105e-05
1.0000967e-05
1.000081e-05
1.0000648e-05
1.0000534e-05
1.0000509e-05
1.0000605e-05
1.00006e-05
1.0000425e-05
1.0000362e-05
1.000034e-05
1.0000264e-05
1.0000184e-05
1.0000156e-05
1.0000161e-05
1.0000125e-05
1.0000094e-05
1.0000078e-05
1.0000068e-05
1.0000084e-05
1.00001e-05
1.0000057e-05
1.0000091e-05
1.0000082e-05
0.00086545515
0.0012946567
0.00085475883
0.00013047683
1.2209205e-05
1.0452744e-05
1.0192004e-05
1.012662e-05
1.0053211e-05
1.0043643e-05
1.0015919e-05
1.0018853e-05
1.0008606e-05
1.0009656e-05
1.0006142e-05
1.0005204e-05
1.0003669e-05
1.0002814e-05
1.0002087e-05
1.0001771e-05
1.0001752e-05
1.0001666e-05
1.0001539e-05
1.0001417e-05
1.0001308e-05
1.0001206e-05
1.0001095e-05
1.000096e-05
1.0000804e-05
1.0000645e-05
1.0000523e-05
1.0000488e-05
1.0000575e-05
1.0000599e-05
1.0000436e-05
1.0000362e-05
1.0000339e-05
1.0000269e-05
1.0000182e-05
1.0000153e-05
1.000016e-05
1.0000123e-05
1.0000092e-05
1.0000077e-05
1.0000065e-05
1.0000076e-05
1.0000083e-05
1.0000061e-05
1.0000094e-05
1.0000083e-05
0.00085603666
0.0012408532
0.0007547666
0.00010085892
1.1605375e-05
1.0433892e-05
1.0184677e-05
1.0121327e-05
1.0050909e-05
1.0041794e-05
1.0015346e-05
1.0018153e-05
1.0008559e-05
1.0009368e-05
1.0006051e-05
1.0005087e-05
1.0003622e-05
1.0002782e-05
1.0002083e-05
1.0001775e-05
1.0001739e-05
1.0001651e-05
1.0001522e-05
1.00014e-05
1.0001292e-05
1.0001193e-05
1.0001085e-05
1.0000952e-05
1.0000798e-05
1.0000642e-05
1.0000515e-05
1.0000469e-05
1.0000543e-05
1.0000593e-05
1.0000444e-05
1.0000362e-05
1.0000335e-05
1.0000271e-05
1.0000179e-05
1.0000149e-05
1.0000157e-05
1.0000122e-05
1.000009e-05
1.0000076e-05
1.0000064e-05
1.0000069e-05
1.0000066e-05
1.0000065e-05
1.0000097e-05
1.0000083e-05
0.00084708816
0.0011863495
0.00065956676
7.7435829e-05
1.1230465e-05
1.0415813e-05
1.0177419e-05
1.011609e-05
1.0048637e-05
1.0039975e-05
1.0014795e-05
1.001747e-05
1.0008508e-05
1.0009087e-05
1.0005961e-05
1.0004975e-05
1.0003576e-05
1.0002751e-05
1.0002079e-05
1.0001775e-05
1.0001728e-05
1.0001637e-05
1.0001506e-05
1.0001383e-05
1.0001276e-05
1.0001181e-05
1.0001076e-05
1.0000943e-05
1.0000791e-05
1.000064e-05
1.0000511e-05
1.0000453e-05
1.0000508e-05
1.0000568e-05
1.000045e-05
1.0000361e-05
1.0000331e-05
1.0000272e-05
1.0000175e-05
1.0000146e-05
1.0000152e-05
1.000012e-05
1.0000089e-05
1.0000074e-05
1.0000062e-05
1.0000064e-05
1.0000056e-05
1.0000073e-05
1.0000102e-05
1.0000084e-05
0.00083874549
0.0011314297
0.00057053031
5.9381473e-05
1.099698e-05
1.039915e-05
1.0170252e-05
1.0110927e-05
1.0046402e-05
1.0038195e-05
1.0014268e-05
1.0016808e-05
1.0008453e-05
1.0008815e-05
1.0005872e-05
1.0004867e-05
1.0003531e-05
1.0002723e-05
1.0002077e-05
1.0001774e-05
1.0001717e-05
1.0001622e-05
1.0001489e-05
1.0001365e-05
1.000126e-05
1.0001169e-05
1.0001066e-05
1.0000933e-05
1.0000785e-05
1.0000637e-05
1.0000509e-05
1.0000441e-05
1.0000472e-05
1.0000532e-05
1.0000451e-05
1.0000359e-05
1.0000325e-05
1.0000271e-05
1.000017e-05
1.0000143e-05
1.0000146e-05
1.0000119e-05
1.0000089e-05
1.0000073e-05
1.0000061e-05
1.000006e-05
1.0000053e-05
1.0000079e-05
1.0000107e-05
1.0000085e-05
0.0008310777
0.0010794971
0.0004884609
4.5736118e-05
1.0848661e-05
1.0383677e-05
1.0163159e-05
1.0105829e-05
1.0044206e-05
1.0036453e-05
1.0013766e-05
1.0016167e-05
1.0008395e-05
1.0008552e-05
1.0005786e-05
1.0004765e-05
1.0003488e-05
1.0002697e-05
1.0002075e-05
1.0001773e-05
1.0001706e-05
1.0001608e-05
1.0001473e-05
1.0001348e-05
1.0001246e-05
1.0001158e-05
1.0001055e-05
1.0000923e-05
1.0000778e-05
1.0000633e-05
1.0000507e-05
1.0000435e-05
1.000044e-05
1.0000498e-05
1.0000448e-05
1.0000356e-05
1.0000319e-05
1.0000268e-05
1.0000165e-05
1.000014e-05
1.0000141e-05
1.0000117e-05
1.0000089e-05
1.0000072e-05
1.000006e-05
1.0000057e-05
1.0000056e-05
1.0000085e-05
1.0000113e-05
1.0000086e-05
0.00082328486
0.001021569
0.00041374055
3.5642574e-05
1.0751567e-05
1.0368175e-05
1.0156129e-05
1.0100799e-05
1.004205e-05
1.0034753e-05
1.0013291e-05
1.0015549e-05
1.0008333e-05
1.0008299e-05
1.0005701e-05
1.0004667e-05
1.0003446e-05
1.0002673e-05
1.0002074e-05
1.0001772e-05
1.0001694e-05
1.0001593e-05
1.0001456e-05
1.0001332e-05
1.0001233e-05
1.0001147e-05
1.0001042e-05
1.0000913e-05
1.000077e-05
1.000063e-05
1.0000506e-05
1.0000428e-05
1.0000414e-05
1.0000467e-05
1.000044e-05
1.0000352e-05
1.0000313e-05
1.0000265e-05
1.000016e-05
1.0000138e-05
1.0000135e-05
1.0000115e-05
1.0000089e-05
1.0000072e-05
1.000006e-05
1.0000056e-05
1.0000058e-05
1.0000091e-05
1.0000119e-05
1.0000088e-05
0.00081547139
0.0009612234
0.00034741386
2.8344541e-05
1.0685051e-05
1.035291e-05
1.0149172e-05
1.0095848e-05
1.0039941e-05
1.0033101e-05
1.0012844e-05
1.0014955e-05
1.0008264e-05
1.0008052e-05
1.0005616e-05
1.0004573e-05
1.0003406e-05
1.0002651e-05
1.0002074e-05
1.0001772e-05
1.0001684e-05
1.0001579e-05
1.000144e-05
1.0001316e-05
1.0001221e-05
1.0001134e-05
1.0001029e-05
1.0000903e-05
1.0000763e-05
1.0000625e-05
1.0000506e-05
1.000042e-05
1.0000394e-05
1.0000437e-05
1.0000432e-05
1.0000348e-05
1.0000308e-05
1.000026e-05
1.0000155e-05
1.0000137e-05
1.0000129e-05
1.0000113e-05
1.000009e-05
1.0000072e-05
1.0000061e-05
1.0000057e-05
1.000006e-05
1.0000098e-05
1.0000125e-05
1.0000089e-05
0.00080725579
0.00089667249
0.0002895334
2.3196231e-05
1.0635688e-05
1.033785e-05
1.01423e-05
1.009099e-05
1.0037884e-05
1.0031502e-05
1.0012426e-05
1.0014384e-05
1.000819e-05
1.0007783e-05
1.0005532e-05
1.0004485e-05
1.0003368e-05
1.0002631e-05
1.0002074e-05
1.0001771e-05
1.0001673e-05
1.0001564e-05
1.0001424e-05
1.0001303e-05
1.0001208e-05
1.0001119e-05
1.0001016e-05
1.0000893e-05
1.0000755e-05
1.0000621e-05
1.0000505e-05
1.0000417e-05
1.000038e-05
1.0000407e-05
1.000042e-05
1.0000342e-05
1.0000304e-05
1.0000254e-05
1.0000149e-05
1.0000134e-05
1.0000123e-05
1.0000109e-05
1.000009e-05
1.0000072e-05
1.0000062e-05
1.0000058e-05
1.0000063e-05
1.0000105e-05
1.0000131e-05
1.000009e-05
0.0007984535
0.00082928674
0.00024029821
1.9620544e-05
1.0596126e-05
1.0323022e-05
1.013552e-05
1.0086229e-05
1.0035882e-05
1.0029957e-05
1.0012039e-05
1.0013837e-05
1.0008113e-05
1.000754e-05
1.0005448e-05
1.0004401e-05
1.0003331e-05
1.0002613e-05
1.0002075e-05
1.0001772e-05
1.0001663e-05
1.000155e-05
1.0001409e-05
1.0001291e-05
1.0001195e-05
1.0001103e-05
1.0001003e-05
1.0000883e-05
1.0000747e-05
1.0000615e-05
1.0000504e-05
1.0000418e-05
1.0000373e-05
1.000038e-05
1.0000393e-05
1.0000334e-05
1.0000299e-05
1.0000248e-05
1.0000143e-05
1.0000131e-05
1.0000117e-05
1.0000106e-05
1.0000089e-05
1.0000072e-05
1.0000062e-05
1.0000059e-05
1.0000067e-05
1.0000112e-05
1.0000138e-05
1.0000092e-05
0.00078851506
0.00075862412
0.00019995976
1.713914e-05
1.0562394e-05
1.0308376e-05
1.0128822e-05
1.0081561e-05
1.0033937e-05
1.002847e-05
1.0011683e-05
1.0013315e-05
1.000803e-05
1.0007331e-05
1.0005366e-05
1.0004322e-05
1.0003296e-05
1.0002596e-05
1.0002076e-05
1.0001773e-05
1.0001653e-05
1.0001537e-05
1.0001397e-05
1.000128e-05
1.0001179e-05
1.0001087e-05
1.000099e-05
1.0000873e-05
1.0000738e-05
1.0000608e-05
1.0000502e-05
1.000042e-05
1.0000369e-05
1.0000355e-05
1.0000365e-05
1.0000324e-05
1.0000293e-05
1.0000241e-05
1.0000137e-05
1.0000126e-05
1.0000112e-05
1.0000102e-05
1.0000088e-05
1.0000072e-05
1.0000063e-05
1.000006e-05
1.0000071e-05
1.000012e-05
1.0000145e-05
1.0000094e-05
0.00077748495
0.0006817382
0.00016679737
1.5402137e-05
1.0532198e-05
1.0293924e-05
1.0122215e-05
1.0076996e-05
1.0032055e-05
1.0027044e-05
1.001136e-05
1.001282e-05
1.0007944e-05
1.0007139e-05
1.0005285e-05
1.0004247e-05
1.0003262e-05
1.000258e-05
1.0002077e-05
1.0001775e-05
1.0001644e-05
1.0001525e-05
1.0001387e-05
1.0001268e-05
1.0001162e-05
1.000107e-05
1.0000976e-05
1.0000862e-05
1.000073e-05
1.0000602e-05
1.0000498e-05
1.0000422e-05
1.0000365e-05
1.0000337e-05
1.0000341e-05
1.0000313e-05
1.0000285e-05
1.0000234e-05
1.0000131e-05
1.0000121e-05
1.0000107e-05
1.0000098e-05
1.0000087e-05
1.0000072e-05
1.0000063e-05
1.0000061e-05
1.0000076e-05
1.0000128e-05
1.0000152e-05
1.0000095e-05
0.00076704973
0.00061024863
0.00014011733
1.4177466e-05
1.050434e-05
1.0279699e-05
1.0115715e-05
1.007255e-05
1.003024e-05
1.0025689e-05
1.0011071e-05
1.0012352e-05
1.0007855e-05
1.0006957e-05
1.0005205e-05
1.0004177e-05
1.000323e-05
1.0002565e-05
1.0002078e-05
1.0001778e-05
1.0001636e-05
1.0001515e-05
1.0001379e-05
1.0001255e-05
1.0001144e-05
1.0001053e-05
1.0000962e-05
1.0000852e-05
1.0000722e-05
1.0000594e-05
1.0000493e-05
1.0000423e-05
1.0000369e-05
1.0000329e-05
1.0000322e-05
1.00003e-05
1.0000276e-05
1.0000227e-05
1.0000127e-05
1.0000115e-05
1.0000102e-05
1.0000094e-05
1.0000085e-05
1.0000073e-05
1.0000064e-05
1.0000063e-05
1.000008e-05
1.0000137e-05
1.000016e-05
1.0000097e-05
0.00075870227
0.00055901358
0.00011880127
1.3298254e-05
1.0478057e-05
1.0265693e-05
1.0109325e-05
1.0068226e-05
1.0028498e-05
1.0024409e-05
1.0010817e-05
1.001191e-05
1.0007763e-05
1.0006785e-05
1.0005128e-05
1.000411e-05
1.0003198e-05
1.000255e-05
1.0002079e-05
1.0001782e-05
1.000163e-05
1.0001508e-05
1.0001372e-05
1.0001239e-05
1.0001125e-05
1.0001035e-05
1.0000948e-05
1.0000842e-05
1.0000714e-05
1.0000587e-05
1.0000486e-05
1.0000423e-05
1.0000376e-05
1.0000323e-05
1.0000307e-05
1.0000287e-05
1.0000266e-05
1.0000219e-05
1.0000124e-05
1.000011e-05
1.0000097e-05
1.000009e-05
1.0000083e-05
1.0000074e-05
1.0000068e-05
1.0000065e-05
1.0000086e-05
1.0000146e-05
1.0000167e-05
1.0000099e-05
0.00075136876
0.00051244021
0.00010093838
1.2652882e-05
1.0452892e-05
1.0251899e-05
1.0103046e-05
1.0064029e-05
1.0026831e-05
1.0023194e-05
1.0010597e-05
1.0011494e-05
1.000767e-05
1.0006624e-05
1.0005052e-05
1.0004047e-05
1.0003168e-05
1.0002536e-05
1.000208e-05
1.0001788e-05
1.0001626e-05
1.0001505e-05
1.0001364e-05
1.0001222e-05
1.0001106e-05
1.0001017e-05
1.0000933e-05
1.0000832e-05
1.0000707e-05
1.0000579e-05
1.0000478e-05
1.0000421e-05
1.0000383e-05
1.0000323e-05
1.0000295e-05
1.0000275e-05
1.0000254e-05
1.0000208e-05
1.0000123e-05
1.0000106e-05
1.0000092e-05
1.0000087e-05
1.000008e-05
1.0000077e-05
1.0000073e-05
1.0000068e-05
1.0000094e-05
1.0000155e-05
1.0000174e-05
1.0000102e-05
0.00074496733
0.00047272492
8.6115311e-05
1.2174171e-05
1.0428562e-05
1.0238314e-05
1.0096883e-05
1.0059964e-05
1.0025244e-05
1.0022049e-05
1.0010412e-05
1.0011104e-05
1.0007575e-05
1.0006472e-05
1.0004978e-05
1.0003987e-05
1.0003137e-05
1.0002521e-05
1.0002081e-05
1.0001797e-05
1.0001626e-05
1.0001504e-05
1.0001353e-05
1.0001204e-05
1.0001087e-05
1.0000998e-05
1.0000918e-05
1.0000821e-05
1.00007e-05
1.0000571e-05
1.0000469e-05
1.0000417e-05
1.0000391e-05
1.0000329e-05
1.0000288e-05
1.0000265e-05
1.0000242e-05
1.0000194e-05
1.0000125e-05
1.0000103e-05
1.0000089e-05
1.0000083e-05
1.0000078e-05
1.0000081e-05
1.000008e-05
1.0000075e-05
1.0000103e-05
1.0000164e-05
1.0000182e-05
1.0000104e-05
0.00073971264
0.00043881101
7.3665178e-05
1.1814007e-05
1.0404942e-05
1.0224969e-05
1.0090854e-05
1.0056045e-05
1.0023741e-05
1.0020976e-05
1.0010263e-05
1.0010739e-05
1.0007481e-05
1.000633e-05
1.0004905e-05
1.0003929e-05
1.0003106e-05
1.0002506e-05
1.000208e-05
1.0001805e-05
1.000163e-05
1.0001504e-05
1.000134e-05
1.0001186e-05
1.0001067e-05
1.0000979e-05
1.0000903e-05
1.0000811e-05
1.0000693e-05
1.0000564e-05
1.0000461e-05
1.0000411e-05
1.0000398e-05
1.0000341e-05
1.0000285e-05
1.0000259e-05
1.0000231e-05
1.000018e-05
1.0000127e-05
1.0000101e-05
1.0000086e-05
1.0000079e-05
1.0000076e-05
1.0000084e-05
1.0000088e-05
1.0000087e-05
1.0000114e-05
1.0000174e-05
1.0000189e-05
1.0000107e-05
0.00073573335
0.00041057578
6.3102667e-05
1.1539291e-05
1.0381932e-05
1.0211878e-05
1.0084971e-05
1.0052281e-05
1.0022326e-05
1.0019974e-05
1.0010149e-05
1.0010397e-05
1.0007391e-05
1.0006197e-05
1.0004835e-05
1.0003873e-05
1.0003075e-05
1.0002491e-05
1.0002078e-05
1.000181e-05
1.0001638e-05
1.0001502e-05
1.0001326e-05
1.0001167e-05
1.0001046e-05
1.0000959e-05
1.0000886e-05
1.00008e-05
1.0000686e-05
1.0000559e-05
1.0000453e-05
1.0000404e-05
1.0000401e-05
1.0000356e-05
1.0000286e-05
1.0000256e-05
1.0000223e-05
1.0000168e-05
1.0000128e-05
1.0000099e-05
1.0000084e-05
1.0000077e-05
1.0000073e-05
1.0000085e-05
1.0000096e-05
1.0000105e-05
1.0000125e-05
1.0000183e-05
1.0000197e-05
1.000011e-05
0.00073291853
0.00038802606
5.4017633e-05
1.1327238e-05
1.0359497e-05
1.0199063e-05
1.0079248e-05
1.0048682e-05
1.0021004e-05
1.0019043e-05
1.0010072e-05
1.0010079e-05
1.0007297e-05
1.0006072e-05
1.0004765e-05