/*--------------------------------*- C++ -*----------------------------------*\
  =========                 |
  \\      /  F ield         | OpenFOAM: The Open Source CFD Toolbox
   \\    /   O peration     | Website:  https://openfoam.org
    \\  /    A nd           | Version:  8
     \\/     M anipulation  |
\*---------------------------------------------------------------------------*/
FoamFile
{
    version     2.0;
    format      ascii;
    class       volScalarField;
    location    "0.0599932";
    object      p;
}
// * * * * * * * * * * * * * * * * * * * * * * * * * * * * * * * * * * * * * //

dimensions      [1 -1 -2 0 0 0 0];

internalField   nonuniform List<scalar> 
20000
(
84397.124
84412.365
84428.657
84450.617
84482.652
84520.661
84573.407
84632.288
84704.707
84796.236
84896.014
85030.862
85172.085
85363.59
85566.176
85832.524
86122.308
86486.007
86889.397
87374.116
87922.908
88585.136
89343.336
90203.383
91150.045
92177.792
93265.504
94383.04
95487.281
96536.763
97492.894
98329.191
99030.813
99596.486
100029.89
100341.94
100575.89
100728.05
100800.67
100815.9
100803.45
100745.34
100656.44
100571.43
100357.2
100165.95
100087.57
100074.05
100071.95
100074.36
84188.132
84203.928
84220.934
84244.209
84279.727
84320.266
84377.972
84441.282
84517.637
84613.918
84717.342
84857.384
85002.536
85200.296
85408.381
85682.317
85978.576
86349.657
86761.948
87261.673
87840.69
88537.22
89323.223
90199.694
91165.883
92217.394
93327.029
94461.295
95575.283
96626.399
97577.114
98402.81
99091.611
99644.104
100064.32
100369.3
100602.18
100743.71
100805.43
100820.35
100806.14
100745.25
100660.91
100557.72
100321.57
100161.88
100095.72
100078.56
100074.33
100074.46
84016.729
84032.986
84050.534
84074.423
84111.135
84152.615
84211.599
84276.502
84354.251
84453.464
84559.187
84703.722
84852.488
85056.295
85269.459
85549.968
85851.785
86231.553
86659.375
87190.184
87801.944
88519.608
89318.807
90216.224
91207.995
92284.566
93416.032
94565.81
95687.322
96737.23
97679.304
98491.214
99164.218
99700.589
100105.4
100404.15
100630.06
100759.94
100813.18
100826.3
100809.07
100746.41
100662.95
100532.12
100295.91
100159.5
100101.61
100082.72
100076.27
100074.47
83859.493
83876.302
83894.454
83919.132
83957.794
84000.52
84061.305
84128.61
84208.51
84311.478
84420.101
84569.761
84722.572
84932.404
85150.156
85437.715
85748.204
86146.693
86602.755
87158.415
87789.18
88516.441
89335.384
90260.106
91279.483
92381.921
93534.742
94698.524
95825.009
96870.508
97800.422
98595.156
99249.225
99766.343
100153.57
100445.94
100659.56
100776.83
100822.8
100833.64
100812.26
100749.35
100663.7
100500.06
100278.88
100157.77
100105.3
100086
100078.09
100074.43
83726.869
83744.344
83763.227
83788.807
83829.125
83873.28
83935.774
84005.33
84086.933
84193.148
84303.887
84458.009
84614.791
84830.795
85054.073
85353.729
85684.78
86105.86
86579.823
87148.749
87788.802
88536.472
89380.577
90333.581
91381.465
92509.842
93683.194
94859.065
95987.631
97025.256
97939.377
98713.559
99345.601
99840.461
100208.41
100493.24
100690.94
100794.59
100833.67
100842.07
100815.81
100753.85
100663.84
100467.54
100264.67
100156.05
100108.01
100088.82
100080.13
100074.29
83619.156
83637.362
83657.06
83683.688
83725.932
83771.566
83835.672
83907.542
83990.698
84100.145
84213.125
84371.888
84532.612
84758.03
84994.662
85311.544
85657.134
86091.92
86574.088
87153.642
87813.578
88584.366
89455.765
90438.08
91515.07
92669.268
93861.961
95047.612
96175.008
97201.026
98095.607
98845.855
99452.732
99922.475
100270.31
100544.9
100724.35
100814.08
100845.52
100851.2
100819.77
100758.88
100660.7
100437.54
100252.91
100154.49
100110
100091.21
100082.13
100074.11
83536.707
83555.675
83576.19
83603.93
83648.13
83695.253
83760.954
83835.238
83920.223
84033.251
84149.925
84316.513
84484.7
84721.689
84968.234
85295.997
85648.779
86090.213
86585.536
87183.604
87865.652
88662.045
89562.153
90574.612
91681.105
92860.661
94071.11
95263.804
96386.429
97396.895
98268.145
98991.094
99569.617
100011.67
100339.78
100599.6
100759.48
100835.11
100858.51
100860.84
100824.27
100762.63
100651.53
100411.58
100243.07
100153.35
100111.8
100093.37
100084.02
100073.91
83473.256
83493.044
83514.356
83543.164
83589.136
83637.799
83705.586
83783.508
83872.566
83992.476
84114.891
84289.657
84463.609
84708.584
84959.919
85293.11
85653.916
86109.185
86621.665
87240.298
87946.707
88770.269
89700.477
90743.989
91880.221
93084.371
94310.574
95507.145
96621.07
97611.868
98455.973
99148.244
99695.173
100107.37
100416.83
100656.45
100795.71
100856.81
100873.3
100870.94
100829.57
100764.43
100635.27
100390.08
100235
100152.63
100113.53
100095.4
100085.78
100073.68
83429.01
83449.764
83472.093
83502.442
83550.894
83602.089
83672.798
83755.032
83847.713
83973.308
84099.509
84280.299
84456.958
84706.456
84963.484
85307.511
85681.236
86152.503
86684.181
87325.215
88057.552
88909.936
89871.557
90946.923
92112.896
93340.498
94579.992
95776.845
96877.844
97844.735
98657.864
99316.024
99828.199
100209.11
100500.2
100715.11
100832.59
100879.32
100890
100881.37
100836.08
100765.16
100612.4
100372.59
100228.17
100152.22
100115.36
100097.4
100087.41
100073.41
83405.026
83426.885
83450.419
83482.491
83533.325
83586.995
83659.598
83744.441
83838.259
83966.768
84094.632
84280.03
84461.942
84720.955
84987.656
85344.634
85732.964
86221.892
86774.275
87439.139
88199.047
89081.744
90076.036
91183.939
92379.393
93628.905
94878.761
96071.893
97155.495
98094.139
98872.406
99492.961
99967.567
100316.89
100588.3
100774.89
100869.84
100902.9
100908.11
100892.29
100844.14
100765.36
100586.14
100356.71
100222.05
100151.95
100117.4
100099.57
100088.97
100073.1
83396.042
83418.845
83443.227
83476.415
83528.907
83584.091
83657.864
83745.264
83840.837
83974.215
84105.362
84298.308
84487.899
84758.037
85035.516
85406.449
85810.529
86318.226
86892.74
87582.922
88371.953
89286.434
90314.544
91455.462
92679.797
93949.213
95206.013
96391.041
97452.556
98358.498
99097.935
99677.431
100112.39
100431.24
100678.92
100834.88
100907.18
100928.28
100926.93
100903.71
100853.73
100765.04
100558.43
100341.42
100216.25
100151.69
100119.62
100102.19
100090.42
100072.74
83401.376
83425.497
83451.28
83486.296
83541.451
83599.033
83675.312
83766.828
83865.76
84005.219
84140.669
84342.012
84538.447
84819.533
85108.224
85493.763
85914.6
86442.226
87040.252
87757.202
88576.91
89524.579
90587.536
91761.721
93013.962
94300.792
95560.648
96732.841
97767.36
98635.992
99332.584
99867.883
100262.18
100552.31
100769.65
100894.28
100944.73
100955.88
100945.76
100915.36
100864.27
100762.36
100530.5
100326.52
100210.65
100151.48
100121.91
100105.47
100091.8
100072.32
83429.402
83454.7
83481.698
83518.23
83575.685
83635.102
83713.937
83809.769
83912.29
84058.181
84198.834
84409.123
84612.785
84905.3
85205.981
85606.979
86045.694
86594.402
87217.387
87962.597
88814.512
89796.718
90895.397
92102.811
93381.536
94682.77
95941.324
97095.604
98097.948
98924.516
99574.397
100063.1
100416.89
100677.72
100859.23
100952.66
100983.56
100984.8
100964.46
100927.01
100874.13
100755.9
100503.37
100312.19
100205.27
100151.43
100124.42
100109.23
100093.16
100071.83
83476.061
83502.712
83531.119
83569.33
83629.531
83691.68
83773.496
83874.082
83980.198
84133.12
84279.066
84498.836
84710.763
85015.545
85329.106
85746.444
86204.201
86775.232
87424.63
88199.596
89085.226
90103.237
91238.333
92478.628
93781.943
95094.052
96346.485
97477.39
98442.069
99221.813
99821.63
100262.41
100576.59
100804.09
100946.61
101010.01
101024.87
101013.9
100983
100938.55
100880.14
100744.11
100478.12
100298.74
100200.24
100151.43
100127.19
100113.34
100093.99
100071.26
83543.189
83571.475
83601.738
83642.038
83705.485
83770.876
83855.556
83961.103
84070.761
84231.009
84382.38
84612.135
84832.822
85150.5
85477.827
85912.423
86390.478
86985.104
87662.426
88468.667
89389.497
90444.478
91616.468
92888.893
94214.397
95533.293
96774.293
97875.906
98797.182
99525.7
100073.04
100465.53
100740.31
100927.84
101031.28
101067.99
101067.43
101042.74
101001.48
100950.29
100882.94
100726
100455.56
100286.44
100195.64
100151.78
100130.22
100117.71
100094.41
100070.61
83633.547
83663.372
83695.392
83737.518
83803.874
83872.121
83959.667
84070.418
84183.775
84351.787
84508.807
84748.944
84978.975
85310.251
85652.323
86105.179
86604.816
87224.359
87931.134
88770.175
89727.652
90820.66
92029.766
93333.152
94677.897
95998.932
97222.624
98288.551
99160.734
99834.496
100328
100671.97
100904.13
101047.3
101113.61
101128.02
101109.67
101071.04
101020.04
100962.98
100884.04
100701.98
100435.72
100275.56
100191.63
100152.47
100133.41
100122.27
100094.62
100069.89
83742.969
83774.618
83808.799
83853.106
83922.7
83994.313
84085.046
84201.453
84318.689
84495.03
84658.052
84909.18
85149.274
85494.923
85852.796
86324.924
86847.483
87493.315
88231.1
89104.485
90100.012
91231.966
92478.09
93810.782
95171.214
96489.1
97688.964
98712.47
99530.546
100147.26
100585.99
100879.85
101063.8
101161.95
101195.94
101188.34
101151.02
101098.51
101038.71
100977.57
100884.35
100674.4
100417.21
100266.3
100188.88
100153.55
100136.61
100126.78
100094.72
100069.11
83874.003
83907.424
83943.745
83990.101
84062.855
84137.735
84231.555
84353.981
84475.276
84660.454
84830.062
85092.906
85343.859
85704.669
86079.409
86571.865
87118.709
87792.223
88562.599
89471.883
90506.815
91678.464
92961.165
94320.985
95692.898
97001.617
98170.476
99144.928
99905.275
100463.5
100845.38
101084.48
101217.5
101273.19
101278.89
101247.42
101191.06
101124.86
101057.33
100994.16
100884.04
100644.77
100399.48
100258.52
100187.54
100155.02
100139.68
100130.84
100094.79
100068.25
84023.625
84058.998
84097.697
84146.317
84222.495
84301.386
84398.648
84527.934
84653.729
84848.476
85025.119
85300.303
85562.856
85939.568
86332.277
86846.129
87418.673
88121.327
88925.925
89872.687
90948.307
92160.167
93478.586
94862.75
96241.182
97533.877
98664.089
99583.738
100284.38
100781.93
101101.73
101282.5
101365.1
101383.82
101360.27
101304.63
101229.46
101149.86
101075.42
101010.95
100881.07
100614.32
100382.49
100251.72
100187
100157
100142.78
100134.31
100094.84
100067.35
84193.286
84230.871
84272.358
84323.631
84403.38
84486.856
84587.521
84724.097
84854.423
85059.183
85243.207
85531.27
85806.195
86199.594
86611.433
87147.828
87747.531
88480.844
89321.348
90307.184
91424.674
92677.003
94029.812
95434.851
96813.971
98082.943
99166.915
100027.74
100667.11
101098.26
101351.06
101472.45
101509.5
101492.45
101439.05
101359.55
101265.95
101173.42
101092.45
101023.35
100874.04
100584.28
100366.34
100245.53
100186.87
100159.74
100146.37
100137.17
100094.89
100066.41
84384.362
84424.14
84468.429
84522.321
84605.429
84693.715
84797.623
84941.829
85076.816
85292.104
85483.992
85785.567
86073.77
86484.708
86916.914
87477.031
88105.435
88871.041
89749.218
90775.721
91936.117
93228.84
94614.14
96035.749
97408.717
98645.618
99676.667
100476.56
101050.1
101407.57
101590.67
101656.16
101651.14
101597.41
101514.61
101411.82
101300.32
101195.62
101108.34
101029.33
100861.09
100556
100351.24
100239.93
100187.14
100163.38
100151.24
100138.83
100094.92
100065.43
84593.23
84635.57
84683.115
84740.091
84826.754
84920.787
85028.083
85180.567
85320.431
85546.895
85747.249
86063.063
86365.527
86794.89
87248.733
87833.853
88492.602
89292.251
90209.928
91278.654
92482.814
93815.465
95230.702
96663.596
98022.538
99218.877
100192.12
100929.21
101427.38
101705.77
101820.65
101836.34
101787.61
101697.99
101586.54
101461.15
101332.41
101216.73
101123.83
101031.77
100840.82
100530.58
100337.43
100235.12
100188.58
100168.21
100157.49
100139.71
100094.94
100064.43
84823.787
84868.437
84918.865
84978.551
85068.382
85168.2
85278.907
85440.023
85585.083
85823.371
86032.921
86363.691
86681.422
87130.089
87606.933
88218.458
88909.361
89744.947
90703.978
91816.407
93064.917
94436.544
95878.307
97316.078
98652.223
99800.201
100712.82
101380.6
101793.92
101990.64
102044.93
102010.35
101918.15
101793.66
101654.53
101507.29
101362.08
101237.01
101140.33
101032.51
100813.6
100507.89
100325.24
100231.25
100190.79
100173.92
100165
100140.13
100094.82
100063.39
85069.467
85117.068
85171.206
85234.708
85328.243
85434.49
85548.961
85719.99
85870.661
86121.592
86340.945
86687.332
87021.329
87490.278
87991.654
88631.21
89356.221
90229.714
91231.931
92389.406
93682.543
95091.587
96555.469
97990.489
99294.636
100388.04
101237.68
101823.66
102145.69
102264.9
102262.74
102176.67
102042.12
101884.07
101718.34
101550.06
101389.18
101256.46
101158.58
101032.61
100781.9
100486.44
100314.88
100229.31
100193.53
100179.96
100173.11
100140.31
100094.28
100062.32
85336.604
85387.071
85444.855
85512.09
85608.717
85721.909
85839.822
86020.867
86177.382
86441.272
86671.061
87033.69
87385.178
87875.619
88403.305
89072.682
89833.854
90747.248
91794.417
92998.079
94335.715
95779.831
97260.223
98683.718
99946.941
100981.65
101760.89
102252.88
102481.11
102532.39
102471.03
102334.49
102159.13
101968.93
101777.78
101589.23
101413.57
101274.67
101176.74
101029.62
100747.44
100465.86
100306.03
100228.5
100196.52
100185.57
100180.53
100140.39
100093.44
100061.23
85621.862
85675.284
85736.719
85807.812
85907.403
86028.3
86149.938
86341.554
86504.298
86781.838
87022.943
87402.77
87773.284
88286.679
88842.591
89543.666
90343.048
91298.315
92392.094
93642.859
95024.364
96500.257
97990.213
99392.603
100607.06
101579.99
102274.75
102663.82
102804.24
102790.35
102668.83
102483.32
102268.85
102048.04
101832.59
101624.49
101435.16
101291.07
101189.06
101022.85
100711.75
100446.36
100298.47
100228.3
100199.68
100190.19
100186.24
100140.45
100092.41
100060.13
85923.343
85980.251
86045.864
86121.545
86224.349
86353.401
86478.874
86681.887
86851.263
87143.382
87396.959
87795.197
88186.475
88724.339
89310.373
90045.002
90884.64
91883.733
93025.649
94324.132
95748.205
97251.38
98742.548
100114.05
101273.67
102177.86
102772.8
103055.18
103118.07
103035.79
102855.42
102622.78
102371.08
102121.21
101882.4
101655.49
101454.02
101305.69
101194.9
101011.21
100676.47
100428.36
100292.34
100228.9
100203.47
100193.96
100189.16
100140.47
100091.26
100059.01
86243.827
86304.206
86373.747
86453.969
86559.801
86697.129
86826.903
87041.894
87218.844
87526.638
87794.202
88212.076
88625.789
89189.513
89807.489
90577.555
91459.512
92504.354
93695.784
95042.217
96506.716
98031.282
99514.112
100845.43
101945.83
102767.23
103249.83
103431.11
103419.63
103267.69
103030.33
102752.63
102465.69
102188.22
101926.83
101682.09
101470.45
101319.47
101197.17
100992.92
100643.62
100412.28
100287.81
100231.19
100208.3
100198.06
100190.58
100140.1
100090.03
100057.9
86580.021
86644.287
86717.874
86803.301
86912.995
87059.748
87194.394
87422.979
87608.526
87933.221
88216.031
88654.458
89092.041
89682.943
90334.729
91142.23
92068.629
93161.104
94403.213
95797.297
97298.953
98837.473
100301.68
101584.64
102620.16
103340.13
103703.21
103795.32
103705.51
103485.35
103193.25
102872.77
102552.58
102248.87
101965.75
101704.88
101485.04
101333.4
101197.79
100966.42
100614.92
100398.38
100284.52
100234.4
100213.99
100204.14
100191.23
100138.91
100088.72
100056.8
86934.256
87002.881
87080.799
87172.524
87286.837
87444.363
87584.158
87827.42
88022.1
88364.202
88663.13
89122.778
89585.709
90205.29
90892.958
91740.07
92713.049
93854.952
95148.619
96589.365
98123.539
99667.084
101102.35
102330.35
103288.7
103890.63
104136.61
104144.85
103974.63
103688.32
103344.01
102983.15
102631.69
102303.01
101999.7
101725.31
101498.59
101346.85
101196.12
100933.1
100589.78
100386.66
100282.84
100238.19
100220.7
100212.18
100191.49
100137.14
100087.32
100055.72
87310.497
87383.844
87466.4
87565.535
87684.364
87852.946
87997.71
88255.64
88459.539
88819.253
89135.378
89617.253
90107.378
90757.454
91483.282
92372.26
93393.936
94586.907
95932.62
97418.047
98978.519
100516.89
101913.43
103080.85
103941.78
104413.77
104555.43
104475.67
104226.25
103876.35
103482.57
103083.83
102702.95
102350.75
102030.04
101744.86
101511.6
101355.93
101190.11
100895.96
100566.54
100376.62
100282.16
100242.21
100227.65
100220.93
100191.6
100135.01
100085.82
100054.66
87709.162
87787.557
87874.931
87981.482
88103.175
88282.993
88432.715
88705.667
88919.802
89298.02
89633.072
90138.633
90658.084
91340.665
92106.978
93040.108
94112.515
95358.007
96755.698
98282.6
99861.46
101383.77
102732.66
103829.65
104572.2
104911.96
104957.34
104786.28
104459.94
104049.35
103609.03
103174.87
102766.34
102392.58
102058.17
101762.62
101523.29
101360.27
101179.86
100856.83
100544.75
100368.05
100282.02
100246.29
100233.57
100227.86
100191.66
100132.64
100084.26
100053.64
88125.776
88209.575
88301.457
88415.303
88540.612
88732.811
88888.301
89177.475
89403.449
89801.575
90157.467
90688.238
91239.172
91956.305
92765.45
93745.009
94870.064
96169.249
97618.069
99181.688
100769.4
102264.74
103558.19
104567.13
105173.57
105390.21
105338.34
105075.87
104675.47
104207.4
103723.58
103256.34
102822.03
102429.48
102083.81
101772.6
101530.07
101361.99
101165.51
100817.03
100524.6
100361.29
100282.85
100250.39
100237.81
100231.35
100191.68
100130.14
100082.67
100052.65
88559.304
88649.488
88746.284
88868.332
88997.945
89204.232
89366.459
89673.347
89912.353
90331.569
90710.057
91267.468
91852.033
92605.837
93460.179
94488.408
95667.893
97021.549
98519.594
100113.44
101699.19
103157.03
104386.93
105283.27
105744.28
105849.71
105695.57
105343.98
104872.82
104350.72
103826.41
103328.34
102870.52
102462.66
102102.6
101776.96
101533.18
101362.55
101146.6
100778.08
100506.52
100356.61
100285.19
100254.66
100241.05
100233.01
100190.82
100127.54
100081.08
100051.71
89012.378
89110.483
89213.477
89344.977
89478.592
89699.957
89869.579
90194.972
90448.067
90889.219
91292.102
91877.655
92498.097
93290.787
94192.699
95271.81
96507.321
97915.633
99459.587
101075.3
102647.57
104057.93
105209.92
105970.74
106288.05
106286.68
106028.04
105590.39
105052.18
104479.64
103917.72
103391.07
102912.76
102492.62
102111.88
101778.4
101534.34
101361.53
101121.68
100742.19
100490.85
100353.57
100288.47
100259.46
100244.75
100233.75
100189.01
100124.88
100079.5
100050.82
89488.088
89594.823
89704.323
89846.612
89983.704
90220.702
90398.424
90742.857
91011.459
91475.547
91904.853
92520.226
93178.896
94012.788
94964.639
96096.786
97389.666
98851.989
100436.85
102064.31
103611.41
104964.95
106016.21
106623.47
106810.63
106696.29
106335.19
105815.16
105213.92
104594.47
103997.65
103445.15
102950.09
102517.04
102115.57
101778.82
101534.74
101356.54
101089.4
100711.45
100477.79
100351.71
100292.04
100264.82
100250.38
100234.05
100186.28
100122.2
100077.95
100049.98
89989.028
90103.285
90217.206
90372.703
90513.645
90766.785
90953.367
91317.898
91603.593
92091.906
92549.784
93196.763
93896.084
94773.577
95777.745
96965.017
98316.19
99830.675
101449.49
103077.16
104587.35
105872.5
106795.5
107243.01
107308.74
107077.2
106616.81
106018.59
105358.47
104695.48
104066.54
103491.74
102983.56
102529.79
102116.75
101777.86
101534.17
101346.73
101051.41
100685.55
100467.11
100350.94
100295.64
100270.45
100257.2
100234.16
100182.85
100119.52
100076.44
100049.21
90515.853
90637.378
90753.356
90922.553
91068.82
91339.221
91535.491
91921.554
92225.994
92739.831
93228.46
93908.918
94651.391
95575.014
96633.891
97878.239
99287.984
100851.21
102495.03
104110.62
105572.33
106770.04
107539.62
107834.43
107777.74
107428.7
106872.99
106201.14
105486.2
104782.92
104125.22
103532.46
103012.03
102535.17
102116.42
101774.98
101531.59
101331.9
101011.12
100662.61
100458.29
100350.78
100299.13
100275.14
100262.2
100234.2
100178.93
100116.84
100074.97
100048.49
91065.094
91196.398
91316.131
91498.759
91651.149
91939.937
92146.632
92555.391
92880.211
93420.749
93942.421
94658.425
95446.722
96419.136
97535.093
98838.193
100305.77
101912.37
103570.25
105161.13
106562.97
107645.27
108244.53
108399.58
108213.93
107750.49
107104.07
106363.31
105597.43
104857.34
104175.36
103568.6
103028.72
102536.98
102113.16
101770.25
101526.72
101312.41
100970.42
100641.88
100451.13
100351.07
100302.28
100278.34
100264.68
100233.86
100174.71
100114.19
100073.56
100047.84
91639.498
91781.589
91906.34
92103.008
92261.708
92569.926
92788.131
93220.384
93567.483
94136.065
94693.373
95447.309
96284.281
97308.233
98483.53
99846.542
101369.84
103012.27
104671.71
106224.71
107551.21
108487.69
108912.97
108934.23
108616.29
108042.64
107310.58
106505.57
105692.61
104920.12
104219.08
103599.15
103036.31
102537
102107.07
101763.77
101519.42
101288.87
100930.41
100623.08
100445.54
100352.12
100305.12
100280.49
100265.81
100232.57
100170.37
100111.59
100072.2
100047.26
92240.166
92393.98
92524.094
92735.892
92901.08
93229.904
93460.684
93917.625
94289.26
94887.644
95483.49
96278.014
97166.592
98244.831
99481.485
100904.73
102479.75
104148.2
105795.78
107297.23
108524.34
109287.99
109551.5
109432.65
108984.32
108305.49
107493.11
106628.4
105772.86
104973.66
104257.4
103617.35
103039.05
102533.36
102098.34
101755.64
101509.55
101261.9
100892.04
100606.16
100441.09
100353.47
100308.05
100282.61
100266.27
100230.26
100166
100109.04
100070.92
100046.74
92868.087
93034.417
93169.808
93397.788
93569.731
93920.723
94165.731
94648.933
95047.785
95677.975
96315.432
97153.32
98096.414
99231.605
100531.2
102013.78
103634.31
105316.84
106938.52
108374.17
109468.39
110045.31
110157.63
109892.62
109318.01
108539.64
107652.27
106732.64
105840.43
105020.31
104287.49
103625.78
103039.47
102526.17
102087.24
101745.9
101496.88
101231.83
100856.35
100591.24
100437.56
100354.89
100311.02
100285.84
100266.43
100226.98
100161.65
100106.58
100069.71
100046.3
93521.579
93701.663
93842.943
94089.611
94269.546
94644.913
94905.736
95417.094
95845.897
96509.951
97192.134
98076.233
99076.691
100271.33
101634.75
103174.03
104831.38
106514.3
108094.95
109444.18
110372.23
110763.69
110725.94
110313.3
109617.67
108745.76
107788.82
106820.05
105898.21
105059.63
104303.73
103628.94
103036.22
102515.58
102074.04
101734.49
101480.96
101198.53
100824.57
100578.56
100435.2
100357.09
100314.16
100288.77
100266.51
100222.89
100157.37
100104.19
100068.6
100045.94
94208.046
94402.634
94549.845
94816.327
95004.212
95405.495
95684.232
96224.903
96686.594
97386.601
98116.737
99050.002
100110.59
101366.83
102793.86
104385.04
106068.01
107736.45
109259.84
110492.81
111228.01
111447.39
111251
110694.47
109883.91
108924.67
107904.15
106893.54
105947.47
105084.71
104310.66
103629.41
103029.02
102501.91
102058.96
101721.27
101461.34
101161.93
100797.8
100568.47
100433.87
100358.82
100316.15
100290.25
100266.33
100218.23
100153.15
100101.9
100067.59
100045.67
94924.684
95136.093
95289.67
95578.603
95775.521
96205.112
96503.168
97075.293
97572.963
98311.279
99092.703
100078.2
101201.47
102520.9
104009.7
105645.36
107340.36
108978.27
110425.95
111504.55
112036.62
112091.24
111731.41
111036.33
110117.52
109077.45
108000.61
106956.09
105984.06
105096.91
104313.18
103625.95
103018.01
102485.46
102042.2
101706.05
101437.88
101123.34
100776.07
100560.59
100432.89
100359.66
100317.11
100290.92
100265.28
100213.1
100149.04
100099.71
100066.68
100045.48
95677.852
95907.894
96068.129
96381.069
96587.065
97046.646
97366.449
97971.378
98508.607
99287.711
100123.84
101164.61
102352.77
103735.89
105282.54
106952.45
108644.01
110233.59
111578.42
112467.24
112804.15
112688.54
112166.58
111339.49
110319.55
109205.98
108081.29
107007.48
106003.71
105101.72
104312.45
103618.32
103003.47
102466.53
102023.86
101688.63
101410.91
101085.65
100757.6
100554.1
100431.83
100359.98
100317.52
100291.19
100263.31
100207.41
100145.03
100097.65
100065.88
100045.37
96466.315
96717.495
96884.933
97225.08
97441.023
97932.974
98277.258
98916.912
99497.531
100320.19
101214.32
102313.27
103567.8
105013.64
106611.54
108302.64
109973.73
111495.37
112700.36
113376.18
113529.36
113235.53
112556.56
111604.84
110491.51
109313.15
108148.6
107039.64
106011.97
105102.47
104307.1
103606.73
102985.73
102445.41
102003.99
101668.86
101381.18
101050.34
100741.28
100548.35
100430.62
100360.09
100317.67
100291.3
100260.43
100201.59
100141.11
100095.7
100065.19
100045.36
97295.438
97570.148
97744.596
98115.294
98342.07
98868.355
99240.111
99916.242
100544.38
101413.45
102368.61
103528.16
104849.53
106355.02
107994.62
109691.2
111322.77
112751.91
113775.67
114234.14
114205.63
113731.11
112901.86
111833.66
110635.69
109402.29
108201.03
107055.15
106014.44
105098.13
104297.37
103591.52
102965.1
102422.36
101982.61
101646.73
101349.57
101017.95
100726.52
100543
100429.3
100360.04
100317.73
100291.33
100256.72
100195.88
100137.34
100093.89
100064.62
100045.43
98171.096
98471.288
98651.398
99055.43
99294.096
99856.967
100260.01
100974.32
101654.15
102572.46
103591.13
104813.09
106200.3
107759.87
109428.43
111112.52
112682.9
113985.07
114792.38
115046.44
114825.58
114174.91
113203.43
112027.81
110755.28
109475.17
108231.25
107061.2
106011.26
105088.66
104283.6
103573.02
102941.91
102397.59
101959.71
101622.31
101316.9
100988.25
100713.2
100537.93
100427.87
100359.76
100317.6
100291.05
100252.31
100190.14
100133.7
100092.23
100064.15
100045.59
99094.177
99423.005
99608.121
100048.81
100301.59
100904.03
101342.79
102096.8
102832.03
103802.15
104886.22
106171.5
107621.76
109226.62
110908.25
112559.75
114044.44
115174.89
115749.98
115806.18
115387.34
114567.34
113462.81
112190
110853.81
109528.32
108244.87
107061.07
106001.8
105074.49
104266.25
103551.6
102916.44
102371.28
101935.27
101595.78
101283.76
100960.69
100701.23
100533.2
100426.35
100359.3
100317.22
100290.09
100247.28
100184.5
100130.23
100090.71
100063.81
100045.86
100069.07
100430.8
100620.78
101102.2
101372.23
102014.55
102493.97
103289.06
104082.87
105107.14
106257.98
107606.37
109114.33
110752.26
112427.95
114023.47
115388.78
116304.77
116654.17
116504.68
115890.05
114909.38
113682.22
112323.79
110932.98
109558.24
108249.43
107053.16
105986.58
105056.16
104245.72
103527.58
102889
102343.57
101909.3
101567.37
101250.6
100935.09
100689.97
100529.04
100424.65
100358.6
100316.92
100288.33
100241.75
100178.97
100126.92
100089.35
100063.61
100046.22
101104.63
101503.16
101696.78
102222.11
102512.04
103194.19
103718.69
104556.03
105411.22
106492.11
107710.44
109119.98
110677
112331.84
113979.76
115492.4
116694.49
117368.63
117501.22
117137.48
116333.89
115202.76
113864.81
112432.97
110988.24
109571.64
108245.88
107038.15
105966.26
105034.2
104222.43
103501.31
102859.83
102314.59
101881.81
101537.37
101217.76
100911.28
100679.46
100525.29
100422.95
100357.79
100316.54
100285.71
100235.83
100173.57
100123.79
100088.14
100063.54
100046.69
102206.31
102645.59
102841.13
103412.66
103725.6
104447.14
105021.21
105902.58
106822.19
107962.31
109247.79
110713.66
112306.94
113958.6
115553.25
116949.88
117940.22
118368.87
118281.83
117703.08
116719.77
115450.07
114014.51
112519.38
111018.71
109574.96
108233.61
107016.75
105941.51
105009.14
104196.75
103473.09
102829.19
102284.42
101852.86
101506.06
101185.51
100889.1
100669.7
100521.78
100421.58
100356.91
100315.88
100282.25
100229.62
100168.3
100120.86
100087.08
100063.56
100047.27
103377.27
103861.3
104057.3
104676.55
105016.78
105777.85
106406.91
107335.34
108322.43
109523.71
110873.61
112386.96
113999.07
115623.53
117135.12
118372.15
119113.01
119306.22
118988.41
118201.19
117049.58
115654.98
114135.42
112577.66
111032.24
109568.4
108213.47
106989.82
105912.98
104981.44
104169.07
103443.23
102797.3
102253.16
101822.53
101473.73
101154.01
100868.39
100660.69
100518.6
100420.52
100356.03
100314.78
100278
100223.2
100163.2
100118.13
100086.17
100063.7
100047.96
104621.47
105152.82
105348.59
106016.57
106390.57
107193.37
107884.35
108863.64
109919.94
111181.92
112589.82
114136.83
115745.52
117314.97
118708.75
119733.12
120212
120170.27
119618.57
118632.69
117326.33
115821.88
114229.69
112609.12
111034.38
109552.19
108186.42
106958.16
105881.29
104951.57
104139.73
103412.02
102764.34
102220.88
101790.91
101440.65
101123.4
100849.03
100652.39
100515.83
100419.62
100355.23
100313.15
100273.04
100216.69
100158.33
100115.55
100085.42
100063.96
100048.77
105941.1
106522.24
106722.08
107441.12
107857.02
108705.04
109464.42
110497.6
111622.27
112940.86
114395.58
115957.15
117535.51
119016.75
120246.97
121014.07
121240.52
120950.65
120171.52
118999.79
117554.41
115955.05
114291.53
112622.81
111025.01
109527.43
108153.45
106922.54
105846.98
104919.93
104109.06
103379.75
102730.51
102187.63
101758.13
101407.09
101093.79
100830.92
100644.77
100513.45
100418.88
100354.46
100310.91
100267.46
100210.15
100153.75
100113.06
100084.81
100064.36
100049.7
107342.78
107981.56
108198.12
108970.52
109434.17
110326.9
111156.61
112244.26
113434.35
114801.78
116286.75
117838.07
119354.45
120709.16
121720.37
122211.38
122186.33
121644.01
120648.06
119306.1
117739.03
116056.91
114324.21
112623.61
111005.03
109495.3
108115.51
106883.65
105810.6
104886.94
104077.4
103346.68
102695.96
102153.49
101724.32
101373.28
101065.24
100814
100637.8
100511.49
100418.35
100353.62
100308.05
100261.36
100203.56
100149.39
100110.72
100084.34
100064.87
100050.76
108864.86
109566.55
109803.62
110621.61
111141.44
112073.87
112971.16
114108.68
115358.72
116762.75
118255.06
119765.61
121182.31
122361.46
123105.32
123327.85
123036.85
122249.03
121050.83
119556.7
117884.56
116122.05
114338
112611.25
110975.84
109456.98
108073.49
106842.17
105772.63
104852.95
104045.07
103313.06
102660.83
102118.52
101689.62
101339.45
101037.83
100798.2
100631.47
100509.97
100418.06
100352.64
100304.56
100254.81
100196.95
100145.16
100108.58
100084
100065.51
100051.94
110519.95
111283.29
111540.64
112400.86
112983.11
113953.23
114912.92
116100.4
117397.16
118817.23
120287.13
121720.68
122994.51
123940.33
124396.02
124348.66
123787.73
122766.53
121384.23
119757.49
117991.82
116156.28
114336.92
112587.33
110938.9
109413.6
108028.24
106798.72
105733.52
104818.34
104012.35
103279.15
102625.26
102082.8
101654.18
101305.78
101011.57
100783.49
100625.83
100508.95
100418.02
100351.43
100300.46
100247.93
100190.39
100141.09
100106.64
100083.8
100066.27
100053.24
112305.62
113130.2
113414.33
114311.15
114955.85
115972.15
116996
118219.19
119542.88
120951.89
122363.44
123677.42
124755.61
125419.34
125591.31
125259.92