/*--------------------------------*- C++ -*----------------------------------*\
  =========                 |
  \\      /  F ield         | OpenFOAM: The Open Source CFD Toolbox
   \\    /   O peration     | Website:  https://openfoam.org
    \\  /    A nd           | Version:  8
     \\/     M anipulation  |
\*---------------------------------------------------------------------------*/
FoamFile
{
    version     2.0;
    format      ascii;
    class       surfaceScalarField;
    location    "0.0599932";
    object      phi;
}
// * * * * * * * * * * * * * * * * * * * * * * * * * * * * * * * * * * * * * //

dimensions      [1 0 -1 0 0 0 0];

internalField   nonuniform List<scalar> 
39600
(
-2.083311e-05
-0.0082694509
0.0083498984
-2.0581845e-05
-0.011721286
0.011721452
-1.7517706e-05
-0.015544135
0.015541651
-1.4330272e-05
-0.020250936
0.020248473
-2.7231383e-06
-0.026207993
0.026196914
-0.00012040217
-0.033286291
0.033404789
-0.00039170044
-0.039997186
0.040269533
-0.00071788019
-0.048156384
0.048483775
-0.0011056433
-0.057457842
0.057847157
-0.0015662371
-0.069007204
0.06946959
-0.0021133691
-0.08248142
0.08303077
-0.0027680776
-0.098939703
0.099596997
-0.0035460641
-0.11835618
0.11913737
-0.0044792256
-0.14186146
0.14279842
-0.0055891362
-0.16978061
0.1708952
-0.0069195254
-0.20339786
0.20473383
-0.0085047811
-0.24346302
0.24505533
-0.010404759
-0.29154984
0.29345861
-0.012672803
-0.34895302
0.35123214
-0.015390075
-0.41770047
0.42043142
-0.018641773
-0.49980674
0.50307586
-0.022474527
-0.59796169
0.60181607
-0.027036558
-0.71518101
0.71976908
-0.032526032
-0.85511593
0.86063824
-0.039128741
-1.0218567
1.0284997
-0.047077241
-1.2204596
1.2284495
-0.056632157
-1.45682
1.4664257
-0.068099996
-1.7380673
1.7496068
-0.081838138
-2.0728378
2.0866695
-0.098241518
-2.4717228
2.4882338
-0.11774131
-2.9476627
2.9672786
-0.14081445
-3.5164392
3.5396261
-0.16798272
-4.1972264
4.2245128
-0.19983406
-5.0131582
5.0451439
-0.23704585
-5.9920191
6.0293518
-0.28030488
-7.1672337
7.2106223
-0.33078131
-8.5776996
8.6282918
-0.38868297
-10.270807
10.328782
-0.45377237
-12.304417
12.369499
-0.52709458
-14.746523
14.819734
-0.60800339
-17.677332
17.757893
-0.69466664
-21.194392
21.280246
-0.78363418
-25.414686
25.502654
-0.86821831
-30.474499
30.557591
-0.93270602
-36.558774
36.619739
-0.97086701
-43.862876
43.89829
-0.95311147
-52.614825
52.595636
-0.83161734
-63.115569
62.993204
-0.54876867
-75.736252
75.452655
-90.933222
90.398344
5.7871922e-05
-0.0082795399
6.3299247e-05
-0.011726373
6.7160985e-05
-0.01554749
6.8518703e-05
-0.020251655
7.3434676e-05
-0.02621248
-5.9315087e-05
-0.03315293
-0.00031696038
-0.039738581
-0.00062704872
-0.04784517
-0.00099807653
-0.057085393
-0.0014446072
-0.068559011
-0.0019773027
-0.081946578
-0.0026178783
-0.098296577
-0.0033801803
-0.11759069
-0.0042959425
-0.14094188
-0.005385353
-0.16868652
-0.0066935121
-0.20208404
-0.0082535772
-0.2418959
-0.01012727
-0.2896672
-0.012358414
-0.34671068
-0.015028597
-0.4150166
-0.01819764
-0.49661986
-0.021950901
-0.59418666
-0.026438537
-0.7106662
-0.031855319
-0.84966662
-0.038364078
-1.015307
-0.046195842
-1.2125844
-0.055615575
-1.4473471
-0.066927179
-1.7266817
-0.080477234
-2.0591919
-0.096652518
-2.4554384
-0.11586924
-2.9283294
-0.13858592
-3.4936063
-0.16530772
-4.1703834
-0.19660476
-4.9817253
-0.23314064
-5.9553608
-0.27564497
-7.1245944
-0.32514503
-8.5280873
-0.38170119
-10.214181
-0.44576129
-12.240367
-0.51775258
-14.674632
-0.59729016
-17.598142
-0.6826785
-21.109797
-0.770584
-25.327814
-0.85482859
-30.392302
-0.92096975
-36.495751
-0.96127777
-43.825305
-0.94625813
-52.631326
-0.83321422
-63.229302
-0.56515894
-76.005096
-91.444176
4.8495144e-05
-0.008291136
5.7148217e-05
-0.011734614
6.6312181e-05
-0.015556278
7.3836156e-05
-0.020258941
8.2583636e-05
-0.026220462
-5.7990856e-05
-0.033011677
-0.00031153694
-0.039484201
-0.00061536934
-0.047540275
-0.0009775443
-0.056721815
-0.0014123001
-0.068122592
-0.0019293993
-0.081427339
-0.0025506148
-0.097672817
-0.0032882033
-0.11684988
-0.0041749121
-0.14005132
-0.005230237
-0.16762649
-0.006499055
-0.20080954
-0.0080129094
-0.24037492
-0.0098275167
-0.28784403
-0.011990354
-0.34453661
-0.014553322
-0.412439
-0.017600975
-0.49355404
-0.021240248
-0.59052511
-0.025620131
-0.70625951
-0.030896242
-0.84435703
-0.037241106
-1.0089205
-0.044893676
-1.204886
-0.054121537
-1.4380632
-0.065228146
-1.7154987
-0.078554025
-2.0457677
-0.094479594
-2.439402
-0.11340741
-2.909284
-0.13578031
-3.4711151
-0.16208551
-4.1439536
-0.19287993
-4.9507934
-0.22880941
-5.9193063
-0.27067424
-7.0825901
-0.31922824
-8.47942
-0.37471658
-10.158627
-0.43776503
-12.177329
-0.50861656
-14.60387
-0.58697863
-17.520143
-0.6712877
-21.026255
-0.7583909
-25.241784
-0.84099105
-30.312235
-0.91010738
-36.429464
-0.95264622
-43.78506
-0.94146001
-52.64397
-0.83724976
-63.334362
-0.58414357
-76.259106
-91.930951
3.7790572e-05
-0.0083029793
4.5666384e-05
-0.011742828
5.5068223e-05
-0.015565692
6.465497e-05
-0.020268144
6.7806306e-05
-0.026223799
-8.0628565e-05
-0.032862841
-0.00032421246
-0.039239847
-0.00061626388
-0.047247279
-0.00096459259
-0.05637219
-0.0013832633
-0.067702339
-0.0018823006
-0.08092619
-0.0024835163
-0.097069071
-0.0031961513
-0.11613402
-0.0040550145
-0.13918864
-0.0050789736
-0.16659785
-0.0063077628
-0.19957532
-0.0077757233
-0.23889987
-0.0095247959
-0.28608544
-0.011590568
-0.34245902
-0.014060812
-0.4099542
-0.017009423
-0.49058781
-0.020562892
-0.58695015
-0.024826753
-0.70196863
-0.029961191
-0.8391892
-0.03615155
-1.0026884
-0.04363641
-1.1973537
-0.052686706
-1.4289548
-0.063603814
-1.7045033
-0.076725455
-2.0325461
-0.092421126
-2.4235942
-0.11108318
-2.8905036
-0.13313706
-3.448941
-0.15905556
-4.1179073
-0.18937975
-4.92033
-0.22474684
-5.8838112
-0.26598796
-7.041205
-0.31367522
-8.4316197
-0.36823735
-10.104003
-0.43031451
-12.115262
-0.50014261
-14.534127
-0.57745562
-17.443193
-0.66084988
-20.943593
-0.74731873
-25.156415
-0.82945702
-30.232855
-0.90047254
-36.361128
-0.94532745
-43.742467
-0.93878357
-52.652121
-0.84366476
-63.430331
-0.60565686
-76.497931
-92.393455
2.9962704e-05
-0.0083153946
4.0016159e-05
-0.011752373
5.279413e-05
-0.015577923
6.7648323e-05
-0.020282502
6.7001575e-05
-0.026222792
-8.6571441e-05
-0.032708686
-0.00032181897
-0.03900378
-0.00060387881
-0.046964307
-0.0009409045
-0.056033888
-0.0013459303
-0.067295798
-0.0018286079
-0.080441532
-0.002413954
-0.096481318
-0.0031033233
-0.11544155
-0.0039349632
-0.13835344
-0.0049274322
-0.16560085
-0.0061193679
-0.19837747
-0.0075191232
-0.2374925
-0.0091920289
-0.28440316
-0.011185202
-0.34045392
-0.013578641
-0.40754653
-0.016456374
-0.48769253
-0.019906509
-0.58347805
-0.024051942
-0.6977958
-0.029052253
-0.83415492
-0.035097586
-0.99660069
-0.042427563
-1.1899747
-0.051315197
-1.4200069
-0.062061499
-1.6936768
-0.074997733
-2.0195085
-0.090485762
-2.4079931
-0.10890442
-2.8719661
-0.13066611
-3.4270572
-0.15622811
-4.0922149
-0.18612043
-4.8902971
-0.2209608
-5.8488387
-0.26161388
-7.0004055
-0.30850685
-8.3846142
-0.36225134
-10.050202
-0.4234302
-12.054094
-0.49235151
-14.465291
-0.56875286
-17.36716
-0.65138638
-20.861663
-0.73742736
-25.071472
-0.8197567
-30.153328
-0.89225854
-36.291181
-0.93966825
-43.697155
-0.93811289
-52.655229
-0.85235981
-63.517075
-0.62985508
-76.721219
-92.8313
2.0308838e-05
-0.0083276933
3.0472012e-05
-0.011762317
4.4789672e-05
-0.015591947
6.4765123e-05
-0.020302067
5.7032551e-05
-0.026214761
-9.9976239e-05
-0.032551109
-0.00032790831
-0.038775036
-0.00060026887
-0.046690948
-0.00092684671
-0.055705987
-0.0013193736
-0.066901758
-0.0017836882
-0.079975224
-0.0023473351
-0.095915341
-0.0030164549
-0.11476943
-0.0038240095
-0.13754208
-0.0047714903
-0.16464853
-0.0059055531
-0.19723747
-0.0072538307
-0.23613663
-0.0088677947
-0.28277965
-0.010806519
-0.33850381
-0.013136771
-0.40520211
-0.015924156
-0.4848876
-0.019273572
-0.58010686
-0.023305416
-0.69373668
-0.028180521
-0.82924604
-0.034090804
-0.99064802
-0.041279692
-1.182736
-0.050020745
-1.4112042
-0.060614308
-1.6830015
-0.073386461
-2.0066341
-0.088688282
-2.3925774
-0.10688779
-2.8536471
-0.12838272
-3.4054384
-0.1536186
-4.0668461
-0.18311314
-4.8606606
-0.2174696
-5.8143442
-0.25758012
-6.9601478
-0.3037796
-8.3383024
-0.35676344
-9.9971626
-0.41713813
-11.993733
-0.48526234
-14.39726
-0.56089367
-17.2919
-0.64292644
-20.78034
-0.72874107
-24.986973
-0.81164156
-30.073151
-0.88556655
-36.219651
-0.93576559
-43.648892
-0.93965271
-52.652797
-0.86352349
-63.594241
-0.65685907
-76.928743
-93.244258
1.1936282e-05
-0.008339285
2.2301644e-05
-0.011772066
3.783113e-05
-0.015606884
6.2796923e-05
-0.020326368
4.4861015e-05
-0.026196368
-0.000115401
-0.03239004
-0.00033626878
-0.038553234
-0.00060149257
-0.046424702
-0.0009145714
-0.055391611
-0.0012963786
-0.066518422
-0.0017437177
-0.079525851
-0.0022820279
-0.095374571
-0.0029216313
-0.1141267
-0.003689898
-0.13677007
-0.0046002089
-0.16373341
-0.0056928247
-0.19613887
-0.0069983394
-0.23482386
-0.0085731112
-0.28119589
-0.010453088
-0.33661239
-0.01270759
-0.40293338
-0.015409904
-0.48216755
-0.018661612
-0.57683306
-0.022585465
-0.68978524
-0.027343006
-0.82445437
-0.033130369
-0.9848179
-0.040192318
-1.1756232
-0.048804195
-1.4025291
-0.059264746
-1.6724578
-0.071893538
-1.9939024
-0.087032572
-2.3773242
-0.10503644
-2.8355235
-0.12629107
-3.3840585
-0.15123223
-4.0417704
-0.18036789
-4.8313818
-0.21431355
-5.7802527
-0.25389656
-6.9204202
-0.29948468
-8.2926036
-0.35180096
-9.9447914
-0.41143691
-11.934112
-0.47890103
-14.329906
-0.5538935
-17.21728
-0.63548715
-20.699529
-0.72128786
-24.902796
-0.80490725
-29.992068
-0.8804741
-36.146303
-0.93374023
-43.597347
-0.94343559
-52.644495
-0.87721932
-63.661501
-0.68676137
-77.120145
-93.631937
4.0158449e-06
-0.0083510377
1.5037886e-05
-0.011782666
3.2087874e-05
-0.015623433
6.2795244e-05
-0.020356565
3.331461e-05
-0.02616647
-0.00012895544
-0.032227085
-0.00034144014
-0.038339839
-0.00060052754
-0.046164572
-0.00090101981
-0.055089718
-0.0012630859
-0.066154734
-0.0016887147
-0.079098181
-0.0022017146
-0.094859125
-0.0028162565
-0.11350906
-0.0035548395
-0.13602771
-0.0044352094
-0.16284848
-0.0055000802
-0.19506835
-0.0067693641
-0.23354732
-0.0082909784
-0.2796652
-0.010108566
-0.3347835
-0.012291209
-0.40073666
-0.014910345
-0.47953084
-0.018069987
-0.57365154
-0.021892748
-0.68593508
-0.026541831
-0.81977143
-0.032218164
-0.97909896
-0.039168477
-1.1686217
-0.047669569
-1.3939637
-0.058017395
-1.6620257
-0.070525602
-1.9812909
-0.085523662
-2.3622116
-0.10335712
-2.8175702
-0.12439916
-3.3628898
-0.14907545
-4.0169581
-0.17788784
-4.8024247
-0.21151204
-5.7464771
-0.25058279
-6.8812054
-0.29561338
-8.2474647
-0.34732672
-9.8930286
-0.40637967
-11.875063
-0.47327946
-14.26313
-0.54777707
-17.143151
-0.62910223
-20.619
-0.71498772
-24.818877
-0.79956598
-29.909796
-0.87701936
-36.070916
-0.93370114
-43.542272
-0.94950093
-52.630016
-0.89362913
-63.718404
-0.71971437
-77.295069
-93.994035
-2.9470841e-06
-0.008362736
8.3876322e-06
-0.011793451
2.6016111e-05
-0.015640425
6.3084435e-05
-0.020393111
2.3747989e-05
-0.026126554
-0.00013393076
-0.032068712
-0.0003341776
-0.038138598
-0.00057818288
-0.0459195
-0.00086532396
-0.054801163
-0.0012135484
-0.065804942
-0.0016263797
-0.078683306
-0.0021222069
-0.094360936
-0.0027159366
-0.11291238
-0.0034366975
-0.1353034
-0.0042917827
-0.16198882
-0.0053201444
-0.19403429
-0.0065445619
-0.2323157
-0.0080160625
-0.27818475
-0.009773958
-0.3330143
-0.011887424
-0.39860905
-0.014428032
-0.47697251
-0.017500074
-0.57055739
-0.021228489
-0.68217906
-0.025779697
-0.81518616
-0.031357581
-0.97347836
-0.038212865
-1.161715
-0.046622989
-1.3854884
-0.056879035
-1.6516847
-0.069288555
-1.9687781
-0.084169767
-2.3472161
-0.10185687
-2.7997634
-0.12271373
-3.3419055
-0.14715718
-3.9923777
-0.17568895
-4.7737459
-0.20901672
-5.7129941
-0.2476484
-6.8424317
-0.29217814
-8.2028291
-0.3433839
-9.8417722
-0.40199843
-11.816449
-0.46841884
-14.196838
-0.5425762
-17.069349
-0.62380245
-20.538581
-0.7095627
-24.735299
-0.7956344
-29.825914
-0.87525358
-35.993262
-0.93574325
-43.483331
-0.95799399
-52.609001
-0.9127837
-63.764614
-0.75584047
-77.453099
-94.330153
-9.2096372e-06
-0.0083753056
4.0945173e-06
-0.011806307
2.4109048e-05
-0.015659973
6.9607266e-05
-0.020438103
2.1974333e-05
-0.026078373
-0.00012966334
-0.031916286
-0.00032083371
-0.037946499
-0.00055489202
-0.045684423
-0.00083194015
-0.054522806
-0.0011728938
-0.065462527
-0.001573315
-0.0782809
-0.0020637781
-0.093868157
-0.0026378612
-0.11233527
-0.0033317027
-0.13460593
-0.0041547562
-0.16116117
-0.0051473243
-0.19303604
-0.0063312129
-0.23112461
-0.0077537486
-0.27675324
-0.0094546275
-0.33130222
-0.011501918
-0.39654776
-0.013968119
-0.47448878
-0.016958521
-0.56754509
-0.020601003
-0.6785092
-0.025064338
-0.81068898
-0.030558724
-0.96794154
-0.037336681
-1.1548855
-0.045674827
-1.3770844
-0.055861589
-1.6414122
-0.068194838
-1.9563417
-0.082982731
-2.332314
-0.10054901
-2.7820775
-0.12124828
-3.3210779
-0.14549121
-3.9679968
-0.17377512
-4.745312
-0.20684431
-5.6797674
-0.24509458
-6.8040414
-0.28921734
-8.1586019
-0.34000114
-9.7909343
-0.39827088
-11.758176
-0.46435233
-14.130887
-0.5383141
-16.995715
-0.61962687
-20.458075
-0.70573606
-24.651484
-0.79324566
-29.740543
-0.87526519
-35.91313
-0.93992563
-43.420158
-0.96908772
-52.58099
-0.93483556
-63.799789
-0.79523201
-77.593906
-94.639805
-1.3632371e-05
-0.0083896118
1.5993889e-06
-0.011821088
2.3329655e-05
-0.015681224
7.4726195e-05
-0.02048897
1.6195825e-05
-0.026019326
-0.00013471365
-0.031764528
-0.00032304228
-0.037757203
-0.00055054712
-0.045455827
-0.00082066881
-0.054251261
-0.0011474055
-0.065134135
-0.0015343174
-0.077891945
-0.0020090742
-0.09339104
-0.0025599049
-0.11178138
-0.0032288342
-0.13393334
-0.0040232676
-0.16036215
-0.0049822803
-0.19207137
-0.0061247993
-0.22997494
-0.0074978063
-0.27537135
-0.0091429802
-0.32964584
-0.011127887
-0.39454879
-0.013527797
-0.47207122
-0.016446705
-0.56460412
-0.020012308
-0.67491608
-0.024399914
-0.80626742
-0.029824983
-0.96247413
-0.03654392
-1.1481151
-0.044831496
-1.3687306
-0.054970962
-1.6311869
-0.067251367
-1.9439585
-0.081969445
-2.3174824
-0.099440265
-2.7644877
-0.12000996
-3.3003798
-0.14408658
-3.943781
-0.17215996
-4.7170848
-0.20501068
-5.6467602
-0.24293976
-6.7659759
-0.28674229
-8.1146963
-0.33720027
-9.7404141
-0.39522151
-11.700153
-0.46109703
-14.065139
-0.53503138
-16.922091
-0.61661265
-20.377367
-0.70339207
-24.567025
-0.79244883
-29.653595
-0.87711912
-35.830285
-0.94626945
-43.352409
-0.98273088
-52.545635
-0.95987627
-63.823417
-0.83813358
-77.716936
-94.922621
-1.8704878e-05
-0.0084048038
-2.28645e-06
-0.01183703
2.0503522e-05
-0.015703478
7.5953481e-05
-0.020543897
8.700929e-06
-0.025951462
-0.00014141464
-0.031613576
-0.00032358391
-0.037573996
-0.00054305498
-0.045235216
-0.00080157769
-0.053991256
-0.0011155383
-0.06481854
-0.0014873593
-0.077518026
-0.0019418538
-0.092934109
-0.0024743984
-0.11124581
-0.0031209617
-0.13328319
-0.0038885734
-0.15959002
-0.0048137068
-0.19114061
-0.0059134536
-0.22886805
-0.0072367569
-0.27403915
-0.0088285267
-0.32804299
-0.010754929
-0.39260851
-0.013095146
-0.46971355
-0.015951034
-0.56172638
-0.019453224
-0.67138659
-0.023780141
-0.80190672
-0.02915313
-0.95705907
-0.035832046
-1.1413849
-0.044090813
-1.3604054
-0.054205574
-1.6209862
-0.066456559
-1.9316052
-0.081129091
-2.3026968
-0.098529365
-2.746969
-0.11899838
-3.2797821
-0.14294365
-3.9196949
-0.17092289
-4.6889472
-0.20351822
-5.6140115
-0.24118299
-6.7281777
-0.28471615
-8.0710574
-0.33503441
-9.6900286
-0.39286645
-11.642318
-0.45866706
-13.999466
-0.53273464
-16.848352
-0.61479273
-20.296275
-0.70247581
-24.481624
-0.79328367
-29.564844
-0.88089407
-35.744441
-0.95482015
-43.279882
-0.9989401
-52.502555
-0.98802793
-63.835012
-0.88457549
-77.821732
-95.178025
-2.4114287e-05
-0.0084196356
-7.3187985e-06
-0.011853139
1.6412724e-05
-0.015726402
7.3259452e-05
-0.020600017
-2.6292326e-06
-0.025874896
-0.00015299111
-0.03146223
-0.0003268802
-0.037398957
-0.00054032341
-0.045020644
-0.00078756109
-0.053742499
-0.001093114
-0.064511389
-0.0014496804
-0.077159376
-0.0018860381
-0.092495407
-0.0024001884
-0.11072867
-0.003024941
-0.13265489
-0.0037653166
-0.15884511
-0.0046555546
-0.19024473
-0.0057163581
-0.22780009
-0.0069973084
-0.27274943
-0.0085402958
-0.32648899
-0.010413019
-0.39072192
-0.012692915
-0.46741614
-0.015488426
-0.55890893
-0.018940302
-0.66790735
-0.023225157
-0.79758809
-0.028562376
-0.95168002
-0.035221672
-1.1346747
-0.043473432
-1.3520873
-0.053586467
-1.6107877
-0.065830671
-1.9192597
-0.080481589
-2.2879338
-0.097837615
-2.7294958
-0.11823474
-3.2592561
-0.14208254
-3.8957039
-0.16999253
-4.6608782
-0.20238972
-5.5814642
-0.23988727
-6.690549
-0.28320755
-8.0276268
-0.3334862
-9.6396794
-0.39123801
-11.584563
-0.45710711
-13.933729
-0.531473
-16.774367
-0.61421818
-20.21465
-0.7030041
-24.395024
-0.7957966
-29.474033
-0.88665379
-35.6553
-0.96572328
-43.20218
-1.0178935
-52.451386
-1.0194434
-63.834098
-0.93477156
-77.9079
-95.405469
-2.888354e-05
-0.0084349894
-1.0621253e-05
-0.011870747
1.5607187e-05
-0.015751924
7.1530758e-05
-0.020655317
-1.0085225e-05
-0.025792309
-0.00015461315
-0.03131691
-0.00032045858
-0.037231959
-0.00052630019
-0.044813617
-0.00076497705
-0.053502273
-0.0010606058
-0.064214109
-0.0014040804
-0.076813761
-0.0018256143
-0.092071447
-0.0023213371
-0.1102299
-0.0029240876
-0.13204847
-0.0036370147
-0.15812755
-0.0044956949
-0.18938028
-0.0055235121
-0.22676515
-0.0067665821
-0.27149766
-0.00826657
-0.32497819
-0.010090428
-0.38888442
-0.012317006
-0.4651723
-0.015059044
-0.55614513
-0.018466724
-0.66447256
-0.022720576
-0.79330055
-0.028043502
-0.94631559
-0.034704092
-1.1279634
-0.042971501
-1.3437535
-0.053106346
-1.6005675
-0.065367005
-1.9068983
-0.080019875
-2.2731697
-0.097357318
-2.7120419
-0.11771343
-3.2387706
-0.14149638
-3.8717749
-0.16936035
-4.6328561
-0.20161487
-5.5490625
-0.23894888
-6.6530827
-0.28230775
-7.9841518
-0.33254969
-9.5893663
-0.39034977
-11.526756
-0.45641614
-13.867792
-0.53126214
-16.699994
-0.61490313
-20.132339
-0.70498244
-24.306973
-0.80002363
-29.380879
-0.89446211
-35.562506
-0.97907433
-43.118833
-1.0397747
-52.391651
-1.0542148
-63.820268
-0.988908
-77.974883
-95.604436
-3.3587041e-05
-0.0084504779
-1.4279955e-05
-0.011889533
1.5003613e-05
-0.015780672
6.929864e-05
-0.02070911
-1.7079108e-05
-0.02570515
-0.00015399586
-0.031179085
-0.0003140603
-0.037070743
-0.00051265258
-0.044613816
-0.00074277939
-0.05327054
-0.0010284123
-0.063926753
-0.0013594937
-0.07648044
-0.0017663873
-0.09166203
-0.0022449838
-0.1097481
-0.0028258689
-0.1314638
-0.0035129803
-0.15743564
-0.0043442079
-0.18854325
-0.0053409283
-0.22576126
-0.0065474939
-0.27028241
-0.0080073944
-0.32350751
-0.0097887276
-0.38708945
-0.011971969
-0.46297179
-0.014672122
-0.55342321
-0.018040598
-0.66107704
-0.022277337
-0.78903028
-0.027607746
-0.94094414
-0.03429088
-1.12123
-0.042597277
-1.3353812
-0.052775972
-1.5903044
-0.065076808
-1.8944981
-0.079755543
-2.2583811
-0.09710032
-2.6945817
-0.11744367
-3.2182969
-0.14126361
-3.8478072
-0.16903774
-4.6049282
-0.20122771
-5.5167281
-0.23848245
-6.6156913
-0.28195188
-7.9405649
-0.33225999
-9.5389854
-0.39022482
-11.468778
-0.4566418
-13.801494
-0.53213872
-16.625
-0.61673141
-20.049323
-0.70845054
-24.21708
-0.80601634
-29.285079
-0.90441058
-35.465653
-0.9949648
-43.029477
-1.0646138
-52.322919
-1.0924966
-63.792985
-1.0470761
-78.022063
-95.774256
-3.8932828e-05
-0.0084650319
-1.9459825e-05
-0.011908503
1.2599362e-05
-0.015812211
6.4296737e-05
-0.020760286
-2.6038274e-05
-0.025614082
-0.00015925758
-0.031045034
-0.00031407014
-0.036914818
-0.00050608742
-0.044420619
-0.00072815783
-0.053046882
-0.0010038663
-0.063649323
-0.0013232288
-0.076158818
-0.0017166514
-0.091266036
-0.0021789316
-0.10928256
-0.0027396149
-0.13089921
-0.003403917
-0.15676649
-0.0042092398
-0.18773201
-0.0051762583
-0.22478705
-0.0063495479
-0.26910047
-0.0077736753
-0.32207267
-0.0095168518
-0.3853328
-0.011664074
-0.46080747
-0.01433252
-0.55073321
-0.017677456
-0.65770524
-0.021909999
-0.78476437
-0.027265265
-0.93554813
-0.033996683
-1.1144484
-0.042363874
-1.3269481
-0.052610431
-1.579974
-0.064973074
-1.882037
-0.07969917
-2.243546
-0.097073927
-2.6770921
-0.11743558
-3.1978032
-0.14131016
-3.8237855
-0.16904479
-4.5770426
-0.20115862
-5.4844691
-0.23858998
-6.5781219
-0.28215873
-7.896877
-0.33264118
-9.4884285
-0.39090126
-11.410497
-0.45782219
-13.734673
-0.53414668
-16.549192
-0.61966325
-19.965506
-0.7135075
-24.124985
-0.81387522
-29.186342
-0.91658229
-35.364373
-1.0134699
-42.93371
-1.0925545
-52.244713
-1.1344124
-63.75175
-1.1095501
-78.048737
-95.914288
-4.2929023e-05
-0.0084796168
-2.2372383e-05
-0.011928518
1.3557337e-05
-0.01584761
6.1559549e-05
-0.020807776
-3.0386409e-05
-0.025521363
-0.00015937919
-0.030915164
-0.00030853718
-0.036764527
-0.00049457269
-0.044233416
-0.0007088466
-0.052831011
-0.00097523852
-0.063381216
-0.0012837819
-0.075848015
-0.0016645455
-0.090882702
-0.0021103118
-0.1088335
-0.0026519567
-0.13035365
-0.0032960908
-0.15611744
-0.0040772397
-0.18694499
-0.0050173733
-0.22383972
-0.0061606185
-0.26794852
-0.0075534912
-0.32066901
-0.0092644473
-0.38360832
-0.011380695
-0.45867413
-0.014027599
-0.54806481
-0.017369145
-0.65433695
-0.021612964
-0.78048754
-0.027010466
-0.93011058
-0.033814763
-1.1075947
-0.042267181
-1.3184305
-0.052603076
-1.5695554
-0.065047658
-1.8694955
-0.079839419
-2.2286466
-0.097271018
-2.6595463
-0.11774694
-3.1771958
-0.14163389
-3.7997538
-0.16936598
-4.5491632
-0.2015419
-5.4521443
-0.23917617
-6.5403507
-0.28293751
-7.8529963
-0.3336985
-9.4375921
-0.39239266
-11.351774
-0.45997937
-13.667162
-0.53731532
-16.472377
-0.62413961
-19.880463
-0.72022362
-24.030593
-0.82376553
-29.084283
-0.93101215
-35.258337
-1.0346853
-42.831067
-1.1237554
-52.156504
-1.1801166
-63.696043
-1.1763608
-78.054353
-96.023771
-4.7214881e-05
-0.0084937147
-2.6406454e-05
-0.011948809
1.2933516e-05
-0.015886438
5.4699591e-05
-0.020849009
-3.8694716e-05
-0.025427197
-0.0001642719
-0.030788769
-0.00030830376
-0.036619369
-0.00048880043
-0.044051769
-0.00069525732
-0.052622963
-0.00095333306
-0.063121441
-0.0012513135
-0.075547767
-0.0016199578
-0.090511477
-0.002050725
-0.10839946
-0.0025749839
-0.12982548
-0.0032002708
-0.15548731
-0.0039595343
-0.18617984
-0.0048756308
-0.22291645
-0.0059927532
-0.2668227
-0.0073582954
-0.31929273
-0.0090411546
-0.38191202
-0.011130985
-0.45656737
-0.013767301
-0.54540714
-0.017120608
-0.65095705
-0.021400762
-0.77617454
-0.02686564
-0.92460616
-0.033763217
-1.1006477
-0.042322129
-1.3098064
-0.052766163
-1.5590293
-0.065309046
-1.8568565
-0.08019407
-2.2136544
-0.097761218
-2.6418649
-0.11832268
-3.1565041
-0.1422717
-3.775662
-0.16999351
-4.5212944
-0.20243621
-5.4195514
-0.24027535
-6.5023751
-0.2843112
-7.8088407
-0.33546816
-9.3863591
-0.39473193
-11.292477
-0.46315415
-13.598792
-0.54170184
-16.394402
-0.63011395
-19.793851
-0.72866356
-23.933692
-0.83575582
-28.978584
-0.94784085
-35.147378
-1.0587526
-42.721105
-1.1582827
-52.057817
-1.2297932
-63.625286
-1.2478738
-78.038183
-96.102002
-5.0371241e-05
-0.0085081346
-2.895305e-05
-0.011969698
1.4382916e-05
-0.015929268
4.8776445e-05
-0.020882871
-4.459459e-05
-0.025333034
-0.0001660546
-0.030666476
-0.00030451752
-0.036479759
-0.00047938443
-0.04387576
-0.0006780711
-0.052422661
-0.00092817777
-0.06286962
-0.0012165718
-0.075257102
-0.0015730242
-0.090152454
-0.0019902772
-0.10797892
-0.0024996658
-0.12931222
-0.003107755
-0.15487438
-0.0038473076
-0.1854345
-0.0047423178
-0.22201429
-0.0058370715
-0.26571921
-0.0071780835
-0.3179409
-0.0088354083
-0.3802412
-0.010912358
-0.45447351
-0.013550141
-0.54274813
-0.016927924
-0.64755287
-0.021269082
-0.77180094
-0.026823977
-0.91901262
-0.033835502
-1.0935876
-0.04252148
-1.3010559
-0.053089376
-1.5483806
-0.065756349
-1.8440948
-0.080805463
-2.1984993
-0.098497618
-2.6240602
-0.11915827
-3.1357151
-0.14312488
-3.7515546
-0.17109025
-4.4931811
-0.20377095
-5.3867214
-0.24189087
-6.4641201
-0.28630089
-7.7643111
-0.33795188
-9.3346319
-0.39793912
-11.232458
-0.46737233
-13.529439
-0.5473416
-16.315076
-0.63759126
-19.705363
-0.73886553
-23.834008
-0.84982337
-28.868956
-0.96721377
-35.031062
-1.0858431
-42.603333
-1.1962841
-51.948154
-1.2835319
-63.538922
-1.3241498
-77.99952
-96.14819
-5.2686247e-05
-0.0085234811
-3.0226336e-05
-0.011991645
1.696343e-05
-0.015975966
4.4140999e-05
-0.020909523
-4.6872256e-05
-0.02524123
-0.00016503782
-0.030547538
-0.00029846117
-0.036345179
-0.00046853403
-0.043704552
-0.00066064142
-0.052228944
-0.00090372975
-0.062624834
-0.0011835344
-0.074975026
-0.0015291001
-0.089804325
-0.0019340875
-0.10757069
-0.0024297438
-0.1288127
-0.0030226076
-0.15427676
-0.0037446886
-0.18470663
-0.0046218368
-0.22113001
-0.0056958263
-0.26463651
-0.0070145893
-0.31661135
-0.0086583163
-0.37858406
-0.010737155
-0.45237786
-0.013392205
-0.54007199
-0.016810606
-0.64410821
-0.021227285
-0.76735189
-0.026890182
-0.91331128
-0.034035533
-1.0863938
-0.042866549
-1.2921605
-0.053585218
-1.5375816
-0.066429393
-1.8311564
-0.081646969
-2.1831768
-0.099470716
-2.6061254
-0.12021682
-3.1148423
-0.14434771
-3.7272824
-0.17259429
-4.4647872
-0.20555633
-5.3536106
-0.24403925
-6.425503
-0.28891647
-7.719314
-0.34119188
-9.2822785
-0.40202991
-11.171588
-0.47266123
-13.459015
-0.55427316
-16.234222
-0.64660679
-19.614704
-0.75086698
-23.731251
-0.86597278
-28.755104
-0.98921756
-34.908892
-1.1161176
-42.477222
-1.2378894
-51.826997
-1.341548
-63.436204
-1.4054321
-77.937643
-96.161444
-5.5164541e-05
-0.0085392897
-3.1989932e-05
-0.012014285
1.7791642e-05
-0.016025244
3.6384878e-05
-0.02092759
-5.2931976e-05
-0.025151063
-0.00016823005
-0.030431452
-0.00029718126
-0.036215053
-0.00046283718
-0.043537779
-0.00064893494
-0.052041228
-0.00088528493
-0.062386796
-0.0011564084
-0.074701644
-0.00149279
-0.089465406
-0.0018877238
-0.10717251
-0.0023708276
-0.12832578
-0.0029500208
-0.15369281
-0.003656902
-0.18399403
-0.0045175742
-0.22026221
-0.0055725044
-0.26357281
-0.006877898
-0.31529511
-0.0085205667
-0.37692792
-0.010611483
-0.4502702
-0.013298079
-0.53736454
-0.016778266
-0.64060234
-0.021287356
-0.76281101
-0.027078156
-0.90748273
-0.034373814
-1.0790503
-0.043372411
-1.2830982
-0.054270083
-1.5266049
-0.067333336
-1.8180006
-0.082710269
-2.1676969
-0.10068242
-2.5880448
-0.12152603
-3.0938721
-0.14597316
-3.7026952
-0.1744987
-4.4361151
-0.20781499
-5.3201473
-0.24674059
-6.3864451
-0.29219104
-7.6737438
-0.34521083
-9.2291769
-0.40704165
-11.109719
-0.47905891
-13.387238
-0.56253317
-16.151673
-0.65717251
-19.5216
-0.76469737
-23.625119
-0.88430644
-28.636639
-1.0138463
-34.780237
-1.1493364
-42.342354
-1.2832339
-51.693521
-1.4039934
-63.316628
-1.4919028
-77.851789
-96.140881
-5.5745364e-05
-0.0085572808
-3.0390635e-05
-0.012039139
2.2234378e-05
-0.016077379
3.1474042e-05
-0.020936302
-5.5953196e-05
-0.025062795
-0.00016835481
-0.030318339
-0.00029300888
-0.036089232
-0.0004547514
-0.04337495
-0.00063563063
-0.051858742
-0.00086654007
-0.062154229
-0.0011301243
-0.074435812
-0.0014572782
-0.089135725
-0.0018428322
-0.10678375
-0.0023148567
-0.12784996
-0.0028826992
-0.15312028
-0.0035770476
-0.18329394
-0.0044226723
-0.21940945
-0.005464438
-0.26252229
-0.0067668797
-0.31398182
-0.0084159222
-0.37526549
-0.010525471
-0.44814396
-0.013256565
-0.53461279
-0.016817944
-0.63701552
-0.021447332
-0.75815015
-0.027387518
-0.90150476
-0.034854624
-1.0715352
-0.044046975
-1.2738422
-0.055181416
-1.5153916
-0.068436216
-1.8046543
-0.08399316
-2.1520385
-0.10205713
-2.5698736
-0.12322278
-3.0725805
-0.14794335
-3.6778349
-0.17680733
-4.4071052
-0.21054236
-5.2862665
-0.25000876
-6.3468476
-0.2961377
-7.6274947
-0.35002679
-9.1751998
-0.41300716
-11.046686
-0.48658647
-13.313922
-0.57192766
-16.067459
-0.66930207
-19.425574
-0.78037919
-23.515305
-0.90495337
-28.513125
-1.0411894
-34.644771
-1.1858286
-42.198189
-1.3324666
-51.54714
-1.4710263
-63.179434
-1.5838053
-77.741107
-96.085526
-5.7362212e-05
-0.0085762199
-3.0953614e-05
-0.012065079
2.2393249e-05
-0.016130258
2.0796432e-05
-0.020934247
-6.4708239e-05
-0.02497641
-0.0001753084
-0.030207045
-0.00029673188
-0.035966545
-0.00045523699
-0.043215361
-0.00063137112
-0.051680947
-0.00085727394
-0.061926651
-0.001114619
-0.074176196
-0.0014338083
-0.088814019
-0.0018111129
-0.10640324
-0.0022736063
-0.12738371
-0.0028317352
-0.15255748
-0.0035155872
-0.1826044
-0.0043509538
-0.21856694
-0.0053870485
-0.26147739
-0.0066919217
-0.31266606
-0.0083529134
-0.37359111
-0.010491101
-0.44598921
-0.01328211
-0.53180145
-0.016944531
-0.63332834
-0.021719049
-0.75334518
-0.0278325
-0.89535453
-0.035497034
-1.0638233
-0.044904447
-1.2643718
-0.056293668
-1.503925
-0.06974208
-1.7911163
-0.085445492
-2.1362356
-0.10377091
-2.5514418
-0.12523368
-3.050993
-0.15027765
-3.6526522
-0.17954038
-4.3776979
-0.21377609
-5.2518871
-0.25386645
-6.3066285
-0.30078246
-7.5804588
-0.35568773
-9.1201998
-0.4199813
-10.982317
-0.4952949
-13.238881
-0.5825413
-15.981438
-0.6830928
-19.326298
-0.79806218
-23.401477
-0.92793969
-28.384128
-1.0713349
-34.502064
-1.2257298
-42.044217
-1.3857404
-51.387288
-1.5428915
-63.023669
-1.6813535
-77.604895
-95.994434
-5.6915769e-05
-0.0085980227
-2.8297834e-05
-0.012093307
2.599347e-05
-0.016184231
1.4833298e-05
-0.020922644
-6.7774748e-05
-0.024893057
-0.0001753409
-0.030098765
-0.000292549
-0.035848262
-0.00044717108
-0.043059668
-0.00061825228
-0.051508281
-0.00083825132
-0.06170501
-0.0010900159
-0.073922198
-0.0014035979
-0.088497944
-0.0017745687
-0.10602911
-0.0022295715
-0.12692499
-0.0027805656
-0.15200187
-0.0034548786
-0.18192441
-0.0042846299
-0.21773012
-0.0053217585
-0.26043149
-0.0066343666
-0.31134262
-0.0083146611
-0.37189746
-0.010499014
-0.44378839
-0.013372784
-0.5289075
-0.01715896
-0.62951752
-0.022092948
-0.748381
-0.028401348
-0.88900986
-0.036292691
-1.0558848
-0.045971126
-1.2546302
-0.057581986
-1.4922376