/*--------------------------------*- C++ -*----------------------------------*\
  =========                 |
  \\      /  F ield         | OpenFOAM: The Open Source CFD Toolbox
   \\    /   O peration     | Website:  https://openfoam.org
    \\  /    A nd           | Version:  8
     \\/     M anipulation  |
\*---------------------------------------------------------------------------*/
FoamFile
{
    version     2.0;
    format      ascii;
    class       pointVectorField;
    location    "0.0599932";
    object      pointDisplacement;
}
// * * * * * * * * * * * * * * * * * * * * * * * * * * * * * * * * * * * * * //

dimensions      [0 1 0 0 0 0 0];

internalField   nonuniform List<vector> 
40800
(
(-0.0014811816 0 -0.0012038179)
(-0.0014782939 0 -0.00099682993)
(-0.0014780986 0 -0.00099797892)
(-0.0014810163 0 -0.0012094348)
(-0.0014780756 0 -0.00099812308)
(-0.0014809951 0 -0.0012097255)
(-0.0014780296 0 -0.00099836373)
(-0.0014809511 0 -0.0012100667)
(-0.0014779501 0 -0.00099867648)
(-0.0014808744 0 -0.0012104982)
(-0.0014778228 0 -0.00099908413)
(-0.0014807511 0 -0.0012110452)
(-0.0014776281 0 -0.00099961826)
(-0.0014805621 0 -0.0012117432)
(-0.0014773391 0 -0.0010003218)
(-0.001480281 0 -0.0012126396)
(-0.0014769192 0 -0.0010012538)
(-0.0014798716 0 -0.0012137992)
(-0.0014763186 0 -0.0010024959)
(-0.0014792854 0 -0.0012153096)
(-0.0014754707 0 -0.0010041616)
(-0.0014784563 0 -0.0012172915)
(-0.0014742859 0 -0.0010064091)
(-0.0014772967 0 -0.00121991)
(-0.0014726458 0 -0.0010094587)
(-0.0014756895 0 -0.0012233928)
(-0.0014703942 0 -0.0010136187)
(-0.0014734811 0 -0.0012280538)
(-0.0014673278 0 -0.0010193175)
(-0.0014704707 0 -0.0012343242)
(-0.0014631845 0 -0.0010271495)
(-0.0014663994 0 -0.0012427973)
(-0.0014576319 0 -0.0010379353)
(-0.0014609381 0 -0.0012542863)
(-0.001450255 0 -0.0010527845)
(-0.0014536755 0 -0.0012698833)
(-0.0014405472 0 -0.0010732039)
(-0.0014441074 0 -0.0012910669)
(-0.0014279048 0 -0.0011012211)
(-0.0014316316 0 -0.0013198176)
(-0.0014116337 0 -0.0011394982)
(-0.001415552 0 -0.0013587216)
(-0.0013909733 0 -0.0011914418)
(-0.0013951011 0 -0.0014110816)
(-0.0013651442 0 -0.0012612514)
(-0.0013694848 0 -0.0014809629)
(-0.0013334231 0 -0.0013538492)
(-0.0013379557 0 -0.0015731232)
(-0.0012952422 0 -0.0014746036)
(-0.0012999131 0 -0.0016927454)
(-0.001250298 0 -0.0016287837)
(-0.0012550119 0 -0.0018449148)
(-0.0011986559 0 -0.0018206789)
(-0.0012032758 0 -0.0020337537)
(-0.0011408279 0 -0.0020522582)
(-0.0011451843 0 -0.0022610962)
(-0.0010777853 0 -0.0023218983)
(-0.0010817013 0 -0.0025251722)
(-0.0010108086 0 -0.0026240271)
(-0.0010141335 0 -0.0028202438)
(-0.00094129574 0 -0.0029490333)
(-0.00094392492 0 -0.0031365779)
(-0.00087073552 0 -0.0032836188)
(-0.00087262845 0 -0.0034608381)
(-0.00080071355 0 -0.0036116997)
(-0.00080190877 0 -0.0037769676)
(-0.00073268621 0 -0.0039169189)
(-0.0007332839 0 -0.0040688185)
(-0.0006677873 0 -0.0041850778)
(-0.00066792107 0 -0.0043225676)
(-0.00060668958 0 -0.0044058308)
(-0.00060648561 0 -0.0045284405)
(-0.00054971471 0 -0.0045725739)
(-0.00054928329 0 -0.004680365)
(-0.00049689783 0 -0.0046815852)
(-0.00049632223 0 -0.0047750793)
(-0.00044797062 0 -0.004731444)
(-0.00044730595 0 -0.0048114047)
(-0.00040255231 0 -0.0047214889)
(-0.00040182611 0 -0.0047888417)
(-0.00036020354 0 -0.0046521341)
(-0.00035943371 0 -0.0047078648)
(-0.00032054997 0 -0.004524111)
(-0.0003197421 0 -0.0045693011)
(-0.00028375479 0 -0.0043396928)
(-0.00028300413 0 -0.0043757619)
(-0.00024872495 0 -0.0040918939)
(-0.00024798607 0 -0.0041194264)
(-0.00021375891 0 -0.0037710252)
(-0.00021297033 0 -0.003790569)
(-0.0001788611 0 -0.0033717318)
(-0.00017802149 0 -0.0033838723)
(-0.00014383553 0 -0.0028889473)
(-0.00014295586 0 -0.0028944605)
(-0.00011044462 0 -0.0023384949)
(-0.00010974474 0 -0.0023406333)
(-7.6725975e-05 0 -0.0016958146)
(-7.6257782e-05 0 -0.0016965842)
(-3.5741229e-05 0 -0.0008504343)
(-3.5147697e-05 0 -0.00084505311)
(0 0 0)
(0 0 0)
(-0.0014746734 0 -0.00079430775)
(-0.0014744816 0 -0.00079540995)
(-0.0014744567 0 -0.00079545155)
(-0.0014744075 0 -0.00079551604)
(-0.0014743237 0 -0.00079561747)
(-0.0014741908 0 -0.00079577366)
(-0.0014739886 0 -0.00079600983)
(-0.0014736899 0 -0.00079636183)
(-0.0014732572 0 -0.00079688099)
(-0.0014726399 0 -0.00079763986)
(-0.0014717699 0 -0.00079874212)
(-0.0014705566 0 -0.00080033418)
(-0.0014688793 0 -0.000802624)
(-0.0014665801 0 -0.00080590594)
(-0.0014634528 0 -0.00081059426)
(-0.0014592325 0 -0.00081727173)
(-0.0014535837 0 -0.00082674443)
(-0.0014460882 0 -0.00084012308)
(-0.0014362367 0 -0.00085892567)
(-0.0014234242 0 -0.00088520354)
(-0.0014069585 0 -0.00092167379)
(-0.0013860864 0 -0.00097182576)
(-0.0013600424 0 -0.0010399791)
(-0.0013281267 0 -0.0011312148)
(-0.0012898035 0 -0.0012510979)
(-0.0012448108 0 -0.0014051083)
(-0.0011932551 0 -0.0015977491)
(-0.0011356823 0 -0.0018311976)
(-0.0010730711 0 -0.0021040883)
(-0.0010066783 0 -0.0024111252)
(-0.00093786275 0 -0.0027429037)
(-0.00086805484 0 -0.0030862426)
(-0.00079876384 0 -0.0034250834)
(-0.00073138181 0 -0.0037429236)
(-0.00066700696 0 -0.0040252051)
(-0.00060631133 0 -0.0042610312)
(-0.00054963234 0 -0.0044431981)
(-0.00049702319 0 -0.004567499)
(-0.00044824697 0 -0.0046321556)
(-0.00040294577 0 -0.0046363025)
(-0.00036069649 0 -0.0045801958)
(-0.00032112989 0 -0.0044644312)
(-0.00028433743 0 -0.0042908943)
(-0.00024930652 0 -0.0040531826)
(-0.00021444091 0 -0.0037420573)
(-0.00017963648 0 -0.0033518496)
(-0.00014470486 0 -0.0028775244)
(-0.00011117644 0 -0.0023321881)
(-7.719547e-05 0 -0.0016918694)
(-3.6370419e-05 0 -0.00085446788)
(0 0 0)
(-0.0014703364 0 -0.00059615853)
(-0.0014701493 0 -0.00059718691)
(-0.0014701212 0 -0.00059710116)
(-0.0014700677 0 -0.00059701208)
(-0.0014699783 0 -0.00059692634)
(-0.0014698378 0 -0.00059685464)
(-0.001469626 0 -0.00059681494)
(-0.0014693146 0 -0.0005968354)
(-0.0014688655 0 -0.00059695823)
(-0.0014682271 0 -0.00059724647)
(-0.00146733 0 -0.00059779329)
(-0.001466082 0 -0.00059873407)
(-0.0014643606 0 -0.00060026552)
(-0.0014620051 0 -0.00060266939)
(-0.0014588067 0 -0.00060634892)
(-0.0014544973 0 -0.00061187359)
(-0.0014487378 0 -0.00062004263)
(-0.0014411068 0 -0.00063196571)
(-0.0014310921 0 -0.00064917182)
(-0.0014180876 0 -0.00067374444)
(-0.0014014038 0 -0.00070845331)
(-0.0013802952 0 -0.00075687349)
(-0.0013540125 0 -0.0008234461)
(-0.0013218812 0 -0.00091340933)
(-0.0012834011 0 -0.001032516)
(-0.0012383541 0 -0.0011864403)
(-0.0011868914 0 -0.0013798741)
(-0.0011295937 0 -0.0016151727)
(-0.0010674479 0 -0.0018911959)
(-0.0010016868 0 -0.0022028939)
(-0.00093362761 0 -0.0025410528)
(-0.0008646397 0 -0.0028926143)
(-0.00079615428 0 -0.0032415688)
(-0.00072949598 0 -0.003571316)
(-0.00066572337 0 -0.0038669991)
(-0.00060550334 0 -0.0041172271)
(-0.00054918574 0 -0.0043142385)
(-0.00049684182 0 -0.0044533552)
(-0.00044826451 0 -0.0045324413)
(-0.00040311987 0 -0.0045504098)
(-0.000361002 0 -0.0045073488)
(-0.00032154837 0 -0.004403708)
(-0.00028478872 0 -0.0042410169)
(-0.00024978028 0 -0.0040133659)
(-0.00021502448 0 -0.0037119393)
(-0.00018032674 0 -0.0033308176)
(-0.00014549857 0 -0.0028649514)
(-0.00011185824 0 -0.0023249651)
(-7.7643737e-05 0 -0.0016874041)
(-3.6962128e-05 0 -0.00085780975)
(0 0 0)
(-0.0014653069 0 -0.0004022913)
(-0.0014651228 0 -0.00040322516)
(-0.0014650895 0 -0.00040299118)
(-0.0014650296 0 -0.00040272834)
(-0.0014649322 0 -0.00040244103)
(-0.0014647819 0 -0.00040213477)
(-0.0014645578 0 -0.00040182032)
(-0.0014642309 0 -0.00040151719)
(-0.0014637622 0 -0.00040125752)
(-0.0014630988 0 -0.00040109358)
(-0.0014621701 0 -0.00040110584)
(-0.0014608816 0 -0.0004014173)
(-0.0014591089 0 -0.00040221091)
(-0.0014566886 0 -0.00040375548)
(-0.0014534088 0 -0.00040644177)
(-0.0014489978 0 -0.00041082954)
(-0.0014431128 0 -0.00041771113)
(-0.0014353289 0 -0.00042819813)
(-0.0014251309 0 -0.00044383622)
(-0.0014119119 0 -0.00046674052)
(-0.0013949855 0 -0.00049973802)
(-0.0013736154 0 -0.00054649338)
(-0.0013470697 0 -0.00061157097)
(-0.0013147022 0 -0.00070036495)
(-0.0012760508 0 -0.00081880623)
(-0.0012309451 0 -0.00097274743)
(-0.0011795829 0 -0.0011670445)
(-0.0011225817 0 -0.0014041985)
(-0.001060936 0 -0.0016832632)
(-0.00099585407 0 -0.0019994051)
(-0.00092860912 0 -0.0023435831)
(-0.00086050652 0 -0.0027028677)
(-0.00079289801 0 -0.0030613179)
(-0.00072703807 0 -0.0034022806)
(-0.00066394239 0 -0.0037106568)
(-0.00060426854 0 -0.003974617)
(-0.00054837597 0 -0.0041858847)
(-0.00049635336 0 -0.0043393277)
(-0.0004480223 0 -0.0044324549)
(-0.00040307336 0 -0.0044639447)
(-0.00036111897 0 -0.0044337073)
(-0.00032180449 0 -0.0043420368)
(-0.00028510703 0 -0.0041901334)
(-0.0002501447 0 -0.0039725025)
(-0.0002155094 0 -0.003680723)
(-0.0001809316 0 -0.0033086764)
(-0.00014621669 0 -0.0028512615)
(-0.00011248924 0 -0.0023168414)
(-7.8069262e-05 0 -0.0016824131)
(-3.7517492e-05 0 -0.00086048539)
(0 0 0)
(-0.0014596075 0 -0.00021261659)
(-0.0014594249 0 -0.00021346601)
(-0.0014593857 0 -0.00021309314)
(-0.0014593183 0 -0.0002126648)
(-0.0014592114 0 -0.00021218043)
(-0.0014590492 0 -0.00021163986)
(-0.0014588101 0 -0.00021104764)
(-0.0014584643 0 -0.00021041596)
(-0.0014579719 0 -0.00020976875)
(-0.0014572787 0 -0.00020914865)
(-0.0014563125 0 -0.00020862531)
(-0.001454977 0 -0.00020830952)
(-0.0014531451 0 -0.00020837103)
(-0.0014506508 0 -0.00020906526)
(-0.0014472786 0 -0.00021076984)
(-0.0014427529 0 -0.00021403384)
(-0.001436727 0 -0.00021964436)
(-0.0014287721 0 -0.00022871671)
(-0.0014183701 0 -0.00024281366)
(-0.0014049137 0 -0.00026408673)
(-0.0013877202 0 -0.00029542554)
(-0.0013660634 0 -0.00034058914)
(-0.0013392311 0 -0.00040426703)
(-0.0013066072 0 -0.00049200713)
(-0.0012677718 0 -0.00060990924)
(-0.0012226043 0 -0.00076398808)
(-0.0011713521 0 -0.00095923739)
(-0.0011146701 0 -0.0011982734)
(-0.0010535598 0 -0.0014803131)
(-0.00098920405 0 -0.001800709)
(-0.00092282951 0 -0.0021505755)
(-0.00085567463 0 -0.0025171153)
(-0.00078901041 0 -0.0028844738)
(-0.00072401932 0 -0.0032359847)
(-0.00066167124 0 -0.0035563606)
(-0.00060261094 0 -0.003833388)
(-0.00054720463 0 -0.0040583179)
(-0.00049555782 0 -0.004225584)
(-0.00044751941 0 -0.0043323463)
(-0.00040280504 0 -0.0043770375)
(-0.0003610461 0 -0.0043593819)
(-0.00032189717 0 -0.0042795099)
(-0.00028529059 0 -0.0041383147)
(-0.00025039806 0 -0.003930649)
(-0.00021589507 0 -0.0036484565)
(-0.00018145054 0 -0.0032854636)
(-0.00014685915 0 -0.0028364871)
(-0.0001130686 0 -0.0023078315)
(-7.8470411e-05 0 -0.0016768898)
(-3.803755e-05 0 -0.00086251832)
(0 0 0)
(-0.0014532552 0 -2.7047429e-05)
(-0.0014530742 0 -2.7814458e-05)
(-0.0014530277 0 -2.7304778e-05)
(-0.0014529512 0 -2.6713334e-05)
(-0.0014528331 0 -2.6034263e-05)
(-0.0014526569 0 -2.5261576e-05)
(-0.0014524002 0 -2.4393311e-05)
(-0.0014520326 0 -2.3434356e-05)
(-0.0014515128 0 -2.2400517e-05)
(-0.0014507854 0 -2.1325018e-05)
(-0.0014497763 0 -2.0267127e-05)
(-0.0014483873 0 -1.9326058e-05)
(-0.0014464885 0 -1.8659019e-05)
(-0.0014439107 0 -1.8508475e-05)
(-0.0014404347 0 -1.9239423e-05)
(-0.0014357808 0 -2.1390363e-05)
(-0.001429598 0 -2.574343e-05)
(-0.0014214534 0 -3.3419096e-05)
(-0.0014108262 0 -4.6000131e-05)
(-0.0013971091 0 -6.5679312e-05)
(-0.0013796237 0 -9.541534e-05)
(-0.0013576555 0 -0.00013906706)
(-0.0013305134 0 -0.00020145016)
(-0.0012976143 0 -0.00028826364)
(-0.0012585837 0 -0.00040576677)
(-0.0012133533 0 -0.00056011969)
(-0.0011622226 0 -0.00075642693)
(-0.0011058843 0 -0.00099739083)
(-0.0010453456 0 -0.0012823612)
(-0.0009817628 0 -0.001606846)
(-0.00091631315 0 -0.0019620981)
(-0.00085016552 0 -0.0023354548)
(-0.00078450909 0 -0.0027111635)
(-0.00072045296 0 -0.0030725804)
(-0.00065891905 0 -0.0034042795)
(-0.00060053615 0 -0.0036937161)
(-0.00054567483 0 -0.0039317111)
(-0.00049445638 0 -0.0041122866)
(-0.00044675593 0 -0.0042322622)
(-0.00040231432 0 -0.0042898175)
(-0.00036078262 0 -0.0042844841)
(-0.00032182564 0 -0.0042162208)
(-0.00028533802 0 -0.0040856334)
(-0.00025053891 0 -0.003887863)
(-0.00021618103 0 -0.0036151887)
(-0.00018188313 0 -0.0032612173)
(-0.00014742587 0 -0.0028206601)
(-0.00011359553 0 -0.0022979508)
(-7.8845769e-05 0 -0.0016708306)
(-3.8523216e-05 0 -0.00086393059)
(0 0 0)
(-0.0014462695 0 0.00015450097)
(-0.0014460897 0 0.00015381888)
(-0.0014460348 0 0.00015446892)
(-0.0014459477 0 0.00015522779)
(-0.0014458165 0 0.00015610529)
(-0.0014456241 0 0.00015711246)
(-0.0014453473 0 0.00015825717)
(-0.0014449547 0 0.00015954175)
(-0.0014444038 0 0.00016095869)
(-0.0014436377 0 0.00016248451)
(-0.0014425804 0 0.00016407089)
(-0.0014411312 0 0.00016563062)
(-0.0014391575 0 0.00016701942)
(-0.0014364865 0 0.00016800777)
(-0.0014328951 0 0.00016824306)
(-0.001428099 0 0.00016719643)
(-0.0014217425 0 0.00016408988)
(-0.0014133888 0 0.00015779662)
(-0.0014025146 0 0.00014670941)
(-0.0013885131 0 0.00012858667)
(-0.0013707113 0 0.00010039327)
(-0.0013484073 0 5.8164658e-05)
(-0.001320933 0 -3.0399695e-06)
(-0.0012877413 0 -8.9067104e-05)
(-0.001248506 0 -0.00020632693)
(-0.0012032139 0 -0.0003611059)
(-0.0011522186 0 -0.00055859248)
(-0.0010962504 0 -0.0008015468)
(-0.0010363207 0 -0.0010894219)
(-0.00097355751 0 -0.0014178518)
(-0.00090908567 0 -0.0017782112)
(-0.00084400198 0 -0.0021579734)
(-0.000779413 0 -0.002541502)
(-0.00071635367 0 -0.0029122063)
(-0.00065569632 0 -0.0032545696)
(-0.00059805112 0 -0.0035557659)
(-0.00054379063 0 -0.0038062286)
(-0.00049305104 0 -0.0039995915)
(-0.00044573255 0 -0.0041323449)
(-0.00040160121 0 -0.0042024109)
(-0.00036032817 0 -0.004209123)
(-0.00032158943 0 -0.0041522618)
(-0.0002852482 0 -0.0040321622)
(-0.00025056599 0 -0.0038442025)
(-0.00021636679 0 -0.0035809682)
(-0.00018222901 0 -0.003235976)
(-0.00014791688 0 -0.0028038138)
(-0.00011406937 0 -0.0022872161)
(-7.9193899e-05 0 -0.0016642323)
(-3.8975321e-05 0 -0.00086474259)
(0 0 0)
(-0.0014386711 0 0.00033211269)
(-0.0014384918 0 0.00033151344)
(-0.0014384271 0 0.0003323017)
(-0.001438328 0 0.00033322524)
(-0.0014381818 0 0.00033429822)
(-0.001437971 0 0.00033553701)
(-0.0014376715 0 0.00033695569)
(-0.0014372508 0 0.000338564)
(-0.001436665 0 0.00034036287)
(-0.0014358555 0 0.0003423384)
(-0.0014347442 0 0.00034445299)
(-0.0014332279 0 0.00034663117)
(-0.0014311708 0 0.0003487411)
(-0.0014283963 0 0.00035056584)
(-0.0014246769 0 0.0003517648)
(-0.0014197238 0 0.00035181874)
(-0.0014131762 0 0.00034995341)
(-0.0014045933 0 0.00034503388)
(-0.0013934498 0 0.00033542173)
(-0.0013791401 0 0.00031881623)
(-0.0013609974 0 0.00029209907)
(-0.0013383341 0 0.00025119384)
(-0.0013105063 0 0.00019103944)
(-0.001277006 0 0.00010564605)
(-0.0012375588 0 -1.1540393e-05)
(-0.0011922088 0 -0.00016691084)
(-0.0011413655 0 -0.00036571184)
(-0.001085796 0 -0.00061073358)
(-0.001026514 0 -0.00090150364)
(-0.00096461694 0 -0.0012337534)
(-0.00090117427 0 -0.0015989637)
(-0.00083720843 0 -0.0019847449)
(-0.00077374274 0 -0.0023755885)
(-0.00071173771 0 -0.0027549861)
(-0.00065201502 0 -0.0031073731)
(-0.00059516406 0 -0.0034196906)
(-0.00054155734 0 -0.003682025)
(-0.00049134487 0 -0.0038876473)
(-0.00044445084 0 -0.004032732)
(-0.00040066625 0 -0.0041149413)
(-0.00035968283 0 -0.0041334068)
(-0.0003211884 0 -0.0040877251)
(-0.00028502034 0 -0.0039779745)
(-0.00025047827 0 -0.0037997262)
(-0.00021645199 0 -0.0035458442)
(-0.00018248788 0 -0.0032097788)
(-0.00014833217 0 -0.002785981)
(-0.00011448942 0 -0.0022756441)
(-7.9513499e-05 0 -0.0016570937)
(-3.9394597e-05 0 -0.00086497386)
(0 0 0)
(-0.0014304803 0 0.00050586936)
(-0.0014303002 0 0.00050535104)
(-0.0014302246 0 0.00050627487)
(-0.0014301121 0 0.00050735933)
(-0.0014299495 0 0.0005086239)
(-0.0014297181 0 0.00051009083)
(-0.0014293932 0 0.00051178098)
(-0.0014289409 0 0.00051371159)
(-0.0014283159 0 0.0005158921)
(-0.0014274578 0 0.00051831795)
(-0.0014262863 0 0.00052096189)
(-0.0014246953 0 0.00052375979)
(-0.0014225456 0 0.00052659179)
(-0.0014196568 0 0.00052925332)
(-0.0014157965 0 0.00053141571)
(-0.0014106707 0 0.00053256949)
(-0.0014039137 0 0.00053194497)
(-0.0013950803 0 0.00052839931)
(-0.0013836446 0 0.00052024881)
(-0.0013690032 0 0.00050511742)
(-0.001350496 0 0.00047980121)
(-0.0013274507 0 0.00044010476)
(-0.0012992492 0 0.00038085834)
(-0.0012654261 0 0.00029593374)
(-0.0012257625 0 0.00017863539)
(-0.0011803612 0 2.249464e-05)
(-0.0011296892 0 -0.00017776791)
(-0.0010745494 0 -0.00042494547)
(-0.0010159552 0 -0.00071861271)
(-0.00095497085 0 -0.0010545722)
(-0.00089260722 0 -0.001424396)
(-0.00082981036 0 -0.001815832)
(-0.00076752004 0 -0.0022135103)
(-0.00070662253 0 -0.0026010298)
(-0.00064788836 0 -0.0029628191)
(-0.00059188435 0 -0.0032856313)
(-0.00053898121 0 -0.0035592453)
(-0.00048934171 0 -0.0037765954)
(-0.00044291295 0 -0.0039335556)
(-0.0003995106 0 -0.0040275282)
(-0.00035884706 0 -0.0040574407)
(-0.00032062271 0 -0.0040227013)
(-0.00028465393 0 -0.0039231433)
(-0.00025027493 0 -0.0037544927)
(-0.00021643632 0 -0.0035098654)
(-0.00018265949 0 -0.0031826647)
(-0.00014867179 0 -0.0027671951)
(-0.00011485507 0 -0.0022632528)
(-7.980329e-05 0 -0.0016494143)
(-3.978171e-05 0 -0.00086464279)
(0 0 0)
(-0.0014217133 0 0.00067585059)
(-0.0014215315 0 0.00067541201)
(-0.0014214437 0 0.00067647058)
(-0.0014213162 0 0.00067771529)
(-0.001421135 0 0.00067917109)
(-0.0014208808 0 0.00068086615)
(-0.0014205276 0 0.00068282801)
(-0.0014200403 0 0.00068508126)
(-0.001419372 0 0.00068764373)
(-0.0014184603 0 0.00069052017)
(-0.0014172224 0 0.00069369344)
(-0.0014155492 0 0.0006971106)
(-0.001413298 0 0.00070066371)
(-0.0014102837 0 0.00070416082)
(-0.0014062691 0 0.0007072857)
(-0.0014009543 0 0.00070954033)
(-0.001393968 0 0.00071016202)
(-0.0013848615 0 0.00070800734)
(-0.0013731104 0 0.00070131319)
(-0.0013581152 0 0.00068759986)
(-0.0013392206 0 0.00066359704)
(-0.0013157722 0 0.00062497581)
(-0.0012871781 0 0.00056648076)
(-0.0012530198 0 0.00048185067)
(-0.0012131382 0 0.00036424004)
(-0.0011676952 0 0.00020713962)
(-0.001117217 0 5.259656e-06)
(-0.0010625406 0 -0.00024417078)
(-0.0010046757 0 -0.00054074837)
(-0.00094465065 0 -0.00088032045)
(-0.00088341436 0 -0.0012545366)
(-0.00082183479 0 -0.0016512837)
(-0.0007607681 0 -0.0020553394)
(-0.00070102695 0 -0.0024504324)
(-0.00064333084 0 -0.0028210222)
(-0.0005882226 0 -0.0031537162)
(-0.00053606959 0 -0.0034380238)
(-0.00048704636 0 -0.0036665688)
(-0.0004411219 0 -0.0038349419)
(-0.00039813597 0 -0.0039402873)
(-0.00035782186 0 -0.003981328)
(-0.00031989285 0 -0.0039572799)
(-0.00028414876 0 -0.0038677419)
(-0.00024995536 0 -0.0037085613)
(-0.00021631956 0 -0.0034730815)
(-0.00018274367 0 -0.0031546735)
(-0.00014893577 0 -0.0027474896)
(-0.00011516578 0 -0.002250061)
(-8.0062086e-05 0 -0.0016411949)
(-4.0137217e-05 0 -0.00086376644)
(0 0 0)
(-0.0014123858 0 0.0008421343)
(-0.0014122034 0 0.00084177837)
(-0.0014121019 0 0.00084297611)
(-0.0014119575 0 0.00084438686)
(-0.0014117555 0 0.00084603962)
(-0.0014114758 0 0.00084796762)
(-0.0014110911 0 0.00085020432)
(-0.0014105651 0 0.00085278143)
(-0.0014098492 0 0.00085572485)
(-0.0014088788 0 0.00085904882)
(-0.0014075684 0 0.00086274685)
(-0.0014058055 0 0.00086677765)
(-0.0014034434 0 0.00087104629)
(-0.0014002924 0 0.00087537417)
(-0.0013961092 0 0.00087945932)
(-0.001390588 0 0.00088281579)
(-0.0013833513 0 0.00088469042)
(-0.0013739524 0 0.00088387352)
(-0.0013618711 0 0.0008785224)
(-0.0013465039 0 0.00086612026)
(-0.0013272004 0 0.00084333538)
(-0.0013033213 0 0.00080575871)
(-0.001274309 0 0.00074796237)
(-0.0012398051 0 0.00066344656)
(-0.0011997075 0 0.00054530521)
(-0.0011542357 0 0.00038704692)
(-0.0011039771 0 0.00018338562)
(-0.0010498002 0 -6.8401137e-05)
(-0.00099270781 0 -0.00036790884)
(-0.00093368857 0 -0.00071100615)
(-0.00087362635 0 -0.0010894074)
(-0.00081330953 0 -0.00149114)
(-0.00075351091 0 -0.0019011371)
(-0.00069497072 0 -0.0023032766)
(-0.00063835788 0 -0.0026820849)
(-0.00058419031 0 -0.0030240623)
(-0.00053283069 0 -0.0033184849)
(-0.00048446437 0 -0.0035576926)
(-0.00043908127 0 -0.0037370109)
(-0.00039654459 0 -0.0038533297)
(-0.00035660854 0 -0.0039051688)
(-0.00031899963 0 -0.0038915484)
(-0.00028350488 0 -0.0038118423)
(-0.0002495192 0 -0.0036619909)
(-0.00021610157 0 -0.0034355415)
(-0.00018274031 0 -0.0031258448)
(-0.00014912419 0 -0.0027268981)
(-0.00011542103 0 -0.0022360881)
(-8.0288774e-05 0 -0.0016324378)
(-4.0461684e-05 0 -0.00086236208)
(0 0 0)
(-0.0014025203 0 0.0010047975)
(-0.0014023335 0 0.0010045228)
(-0.0014022168 0 0.0010058591)
(-0.0014020537 0 0.0010074355)
(-0.0014018287 0 0.0010092853)
(-0.0014015208 0 0.0010114467)
(-0.0014011017 0 0.0010139589)
(-0.0014005334 0 0.0010168604)
(-0.0013997655 0 0.001020185)
(-0.001398731 0 0.0010239562)
(-0.0013973415 0 0.0010281779)
(-0.001395481 0 0.0010328208)
(-0.0013929983 0 0.0010378031)
(-0.0013896982 0 0.001042961)
(-0.0013853312 0 0.0010480078)
(-0.0013795849 0 0.0010524735)
(-0.0013720829 0 0.0010555478)
(-0.0013623853 0 0.0010558974)
(-0.0013499627 0 0.0010516973)
(-0.0013342027 0 0.0010404661)
(-0.0013144639 0 0.0010187917)
(-0.0012901225 0 0.00098224282)
(-0.0012606699 0 0.0009251304)
(-0.0012258087 0 0.00084065863)
(-0.0011854929 0 0.00072185742)
(-0.0011400085 0 0.00056223796)
(-0.0010899989 0 0.00035662652)
(-0.0010363601 0 0.00010237606)
(-0.00098008487 0 -0.00020008643)
(-0.00092211795 0 -0.00054662932)
(-0.0008632748 0 -0.00092901999)
(-0.00080426331 0 -0.0013354291)
(-0.00074577342 0 -0.0017509513)
(-0.00068847445 0 -0.0021596317)
(-0.00063298584 0 -0.0025460962)
(-0.00057979983 0 -0.0028967745)
(-0.0005292735 0 -0.0032007425)
(-0.00048160198 0 -0.0034500829)
(-0.00043679526 0 -0.0036398762)
(-0.00039473919 0 -0.003766762)
(-0.00035520885 0 -0.0038290599)
(-0.00031794412 0 -0.0038255924)
(-0.0002827226 0 -0.0037555162)
(-0.00024896624 0 -0.0036148403)
(-0.00021578231 0 -0.0033972945)
(-0.00018264934 0 -0.0030962185)
(-0.00014923712 0 -0.0027054541)
(-0.00011562037 0 -0.0022213542)
(-8.0482285e-05 0 -0.0016231461)
(-4.0755541e-05 0 -0.00086044516)
(0 0 0)
(-0.0013921271 0 0.0011639143)
(-0.0013919375 0 0.0011637275)
(-0.0013918038 0 0.001165208)
(-0.0013916201 0 0.0011669538)
(-0.0013913701 0 0.0011690012)
(-0.0013910318 0 0.0011713934)
(-0.0013905755 0 0.0011741764)
(-0.0013899616 0 0.0011773962)
(-0.0013891376 0 0.0011810957)
(-0.0013880339 0 0.0011853082)
(-0.0013865588 0 0.0011900488)
(-0.0013845924 0 0.0011953006)
(-0.0013819787 0 0.0012009952)
(-0.0013785164 0 0.0012069837)
(-0.0013739492 0 0.0012129996)
(-0.0013679642 0 0.0012185396)
(-0.0013601928 0 0.0012226828)
(-0.0013501859 0 0.0012240895)
(-0.0013373976 0 0.0012209813)
(-0.0013212172 0 0.0012108376)
(-0.0013010146 0 0.0011901669)
(-0.001276192 0 0.0011544402)
(-0.0012462891 0 0.0010978049)
(-0.0012110518 0 0.0010134015)
(-0.0011705134 0 0.00089392022)
(-0.00112504 0 0.00073272958)
(-0.0010753125 0 0.00052499508)
(-0.0010222533 0 0.00026817266)
(-0.00096684128 0 -3.7270588e-05)
(-0.0009099729 0 -0.00038718422)
(-0.00085239206 0 -0.00077337781)
(-0.00079472551 0 -0.0011841689)
(-0.00073758121 0 -0.0016048186)
(-0.00068155948 0 -0.0020195541)
(-0.00062723181 0 -0.0024131326)
(-0.00057506433 0 -0.0027719453)
(-0.00052540774 0 -0.0030848999)
(-0.00047846614 0 -0.0033438474)
(-0.00043426867 0 -0.0035436441)
(-0.00039272298 0 -0.003680685)
(-0.0003536249 0 -0.0037530942)
(-0.00031672771 0 -0.0037594948)
(-0.00028180248 0 -0.0036988338)
(-0.0002482965 0 -0.0035671675)
(-0.00021536184 0 -0.0033583892)
(-0.00018247076 0 -0.0030658346)
(-0.00014927465 0 -0.0026831911)
(-0.00011576334 0 -0.0022058796)
(-8.0641645e-05 0 -0.0016133245)
(-4.1019207e-05 0 -0.00085803111)
(0 0 0)
(-0.0013812274 0 0.0013195587)
(-0.0013810345 0 0.0013194425)
(-0.0013808838 0 0.0013210499)
(-0.0013806789 0 0.0013229482)
(-0.0013804027 0 0.001325181)
(-0.0013800318 0 0.0013277974)
(-0.0013795352 0 0.0013308498)
(-0.0013788716 0 0.0013343911)
(-0.0013779862 0 0.0013384717)
(-0.0013768067 0 0.0013431336)
(-0.0013752382 0 0.0013484014)
(-0.0013731564 0 0.0013542689)
(-0.0013704003 0 0.0013606791)
(-0.0013667622 0 0.0013674955)
(-0.0013619817 0 0.0013744608)
(-0.0013557521 0 0.0013809916)
(-0.0013477007 0 0.001386127)
(-0.001337359 0 0.0013885946)
(-0.0013241758 0 0.0013865807)
(-0.0013075471 0 0.0013774798)
(-0.0012868555 0 0.0013577211)
(-0.0012615349 0 0.0013226201)
(-0.0012311687 0 0.001266213)
(-0.0011955492 0 0.0011816904)
(-0.0011547973 0 0.0010614269)
(-0.0011093585 0 0.00089853722)
(-0.0010599497 0 0.00068850445)
(-0.001007514 0 0.00042900396)
(-0.00095301244 0 0.00012055487)
(-0.00089728844 0 -0.00023265762)
(-0.00084101118 0 -0.00062247481)
(-0.00078472614 0 -0.0010373665)
(-0.00072896045 0 -0.0014627637)
(-0.00067424775 0 -0.0018830879)
(-0.00062111352 0 -0.0022832579)
(-0.00056999762 0 -0.0026496558)
(-0.0005212438 0 -0.0029710499)
(-0.00047506438 0 -0.0032390844)
(-0.00043150681 0 -0.0034484141)
(-0.00039049964 0 -0.0035951946)
(-0.0003518592 0 -0.0036773611)
(-0.00031535206 0 -0.0036933363)
(-0.00028074535 0 -0.003641864)
(-0.00024751017 0 -0.0035190305)
(-0.00021484029 0 -0.0033188745)
(-0.00018220464 0 -0.0030347332)
(-0.00014923689 0 -0.0026601427)
(-0.00011584955 0 -0.0021896854)
(-8.0765897e-05 0 -0.0016029779)
(-4.1253055e-05 0 -0.00085513512)
(0 0 0)
(-0.0013698379 0 0.0014718018)
(-0.0013696387 0 0.0014717641)
(-0.0013694687 0 0.0014735067)
(-0.0013692403 0 0.0014755652)
(-0.0013689352 0 0.0014779879)
(-0.001368529 0 0.0014808296)
(-0.001367989 0 0.0014841491)
(-0.0013672719 0 0.0014880069)
(-0.0013663205 0 0.0014924617)
(-0.0013650597 0 0.0014975652)
(-0.0013633909 0 0.0015033522)
(-0.0013611852 0 0.0015098283)
(-0.0013582759 0 0.0015169487)
(-0.0013544491 0 0.0015245909)
(-0.0013494468 0 0.0015324478)
(-0.0013429642 0 0.0015398938)
(-0.0013346124 0 0.0015460161)
(-0.0013239103 0 0.0015495367)
(-0.0013103069 0 0.0015485753)
(-0.0012932028 0 0.0015404602)
(-0.0012719962 0 0.0015215258)
(-0.0012461552 0 0.0014869463)
(-0.0012153133 0 0.0014305876)
(-0.0011793255 0 0.0013455545)
(-0.0011383745 0 0.0012243044)
(-0.0010929897 0 0.0010596723)
(-0.001043943 0 0.00084716566)
(-0.00099217699 0 0.00058488566)
(-0.00093863445 0 0.00027340865)
(-0.00088410014 0 -8.3032032e-05)
(-0.00082916559 0 -0.00047629883)
(-0.00077429552 0 -0.00089502119)
(-0.00071994275 0 -0.0013248799)
(-0.00066657202 0 -0.001750434)
(-0.00061465833 0 -0.0021566882)
(-0.00056461848 0 -0.0025300614)
(-0.0005167926 0 -0.0028592759)
(-0.00047140471 0 -0.0031358842)
(-0.00042851547 0 -0.0033542788)
(-0.00038807321 0 -0.003510381)
(-0.00034991454 0 -0.0036019458)
(-0.00031381909 0 -0.0036271946)
(-0.00027955224 0 -0.0035846742)
(-0.00024660764 0 -0.0034704861)
(-0.00021421793 0 -0.0032787985)
(-0.00018185109 0 -0.0030029542)
(-0.00014912396 0 -0.0026363427)
(-0.00011587867 0 -0.0021727932)
(-8.0854186e-05 0 -0.0015921132)
(-4.1457397e-05 0 -0.0008517711)
(0 0 0)
(-0.0013579683 0 0.0016207137)
(-0.0013577643 0 0.0016207546)
(-0.0013575735 0 0.0016226328)
(-0.0013573197 0 0.0016248525)
(-0.0013569834 0 0.0016274664)
(-0.001356539 0 0.0016305346)
(-0.0013559521 0 0.0016341222)
(-0.0013551774 0 0.0016382967)
(-0.0013541552 0 0.0016431252)
(-0.001352807 0 0.0016486685)
(-0.0013510304 0 0.0016549719)
(-0.0013486915 0 0.0016620521)
(-0.0013456178 0 0.0016698763)
(-0.0013415914 0 0.0016783344)
(-0.0013363598 0 0.0016870427)
(-0.0013296101 0 0.0016953707)
(-0.0013209359 0 0.0017024615)
(-0.0013098501 0 0.0017069943)
(-0.0012958003 0 0.0017070381)
(-0.0012781932 0 0.0016998469)
(-0.001256446 0 0.0016816487)
(-0.0012300643 0 0.001647481)
(-0.0011987413 0 0.0015909789)
(-0.0011623969 0 0.0015051129)
(-0.0011212694 0 0.0013825703)
(-0.0010759706 0 0.0012160576)
(-0.0010273265 0 0.0010009938)
(-0.0009762785 0 0.00073583973)
(-0.0009237444 0 0.00042131732)
(-0.00087044426 0 6.1719215e-05)
(-0.00081689662 0 -0.00033491481)
(-0.000763481 0 -0.00075731523)
(-0.00071057244 0 -0.0011913813)
(-0.00065856999 0 -0.0016218274)
(-0.000607896 0 -0.0020336682)
(-0.00055894991 0 -0.0024134022)
(-0.00051207186 0 -0.002749798)
(-0.00046749889 0 -0.0030343988)
(-0.00042530093 0 -0.0032613232)
(-0.00038544818 0 -0.0034263288)
(-0.0003477941 0 -0.0035269293)
(-0.000312131 0 -0.0035611446)
(-0.00027822441 0 -0.0035273303)
(-0.00024558948 0 -0.0034215906)
(-0.00021349511 0 -0.0032382094)
(-0.00018141031 0 -0.0029705378)
(-0.00014893602 0 -0.0026118246)
(-0.00011585034 0 -0.002155225)
(-8.0905668e-05 0 -0.0015807373)
(-4.1632542e-05 0 -0.00084795375)
(0 0 0)
(-0.0013456374 0 0.0017663629)
(-0.0013454257 0 0.0017664818)
(-0.0013452125 0 0.0017684958)
(-0.0013449313 0 0.0017708767)
(-0.0013445616 0 0.0017736818)
(-0.0013440762 0 0.0017769767)
(-0.0013434389 0 0.0017808324)
(-0.0013426024 0 0.0017853237)
(-0.0013415042 0 0.0017905256)
(-0.0013400624 0 0.0017965082)
(-0.0013381701 0 0.0018033271)
(-0.0013356885 0 0.0018110108)
(-0.0013324385 0 0.0018195403)
(-0.0013282048 0 0.0018287659)
(-0.0013227353 0 0.0018382843)
(-0.0013157009 0 0.0018474927)
(-0.0013066822 0 0.001855526)
(-0.001295188 0 0.0018610355)
(-0.0012806645 0 0.0018620387)
(-0.0012625264 0 0.0018557079)
(-0.0012402135 0 0.0018381514)
(-0.0012132826 0 0.0018041879)
(-0.001181478 0 0.0017473376)
(-0.0011447785 0 0.0016604811)
(-0.0011035128 0 0.0015362436)
(-0.0010583405 0 0.0013676108)
(-0.0010101325 0 0.0011499982)
(-0.00095985519 0 0.00088188895)
(-0.00090837975 0 0.00056430931)
(-0.00085636853 0 0.00020152336)
(-0.00080426323 0 -0.00019853316)
(-0.000752338 0 -0.00062450178)
(-0.00070088722 0 -0.0010623899)
(-0.00065026077 0 -0.0014972149)
(-0.00060084033 0 -0.0019141402)
(-0.00055300797 0 -0.0022997549)
(-0.00050710052 0 -0.0026428415)
(-0.00046335866 0 -0.002934785)
(-0.00042186927 0 -0.0031696275)
(-0.00038262928 0 -0.0033431165)
(-0.00034550127 0 -0.0034523881)
(-0.00031029018 0 -0.0034952578)
(-0.00027676332 0 -0.0034698958)
(-0.00024445641 0 -0.0033723988)
(-0.00021267227 0 -0.0031971541)
(-0.00018088255 0 -0.0029375237)
(-0.00014867324 0 -0.0025866222)
(-0.00011576431 0 -0.0021370037)
(-8.0919584e-05 0 -0.0015688587)
(-4.1778703e-05 0 -0.00084369601)
(0 0 0)
(-0.0013328553 0 0.0019088159)
(-0.0013326368 0 0.0019090126)