/*--------------------------------*- C++ -*----------------------------------*\
  =========                 |
  \\      /  F ield         | OpenFOAM: The Open Source CFD Toolbox
   \\    /   O peration     | Website:  https://openfoam.org
    \\  /    A nd           | Version:  8
     \\/     M anipulation  |
\*---------------------------------------------------------------------------*/
FoamFile
{
    version     2.0;
    format      ascii;
    class       volScalarField;
    location    "0.0599932";
    object      rho;
}
// * * * * * * * * * * * * * * * * * * * * * * * * * * * * * * * * * * * * * //

dimensions      [1 -3 0 0 0 0 0];

internalField   nonuniform List<scalar> 
20000
(
0.98404599
0.98542062
0.98949241
0.997861
1.0138799
1.0370358
1.0407191
1.0422189
1.0412541
1.0424618
1.0422698
1.0435393
1.0440087
1.0455762
1.0467457
1.048847
1.0508689
1.0537472
1.0568202
1.0607229
1.0651405
1.0706966
1.0769907
1.0841745
1.0921017
1.1007579
1.1099315
1.1193515
1.1286424
1.1374584
1.1454759
1.1524775
1.1583424
1.1630629
1.1666658
1.1692577
1.171227
1.1724706
1.1730372
1.173186
1.1730905
1.1725976
1.1718598
1.1711447
1.1691566
1.1677278
1.1671614
1.1670245
1.1669907
1.1670305
0.98169852
0.98339791
0.98781855
0.99668895
1.0139702
1.0363218
1.0389559
1.0405167
1.0396012
1.0408776
1.0407267
1.0420558
1.0425651
1.0441932
1.0454166
1.047586
1.0496682
1.05261
1.0557691
1.059817
1.064522
1.0703
1.0768464
1.0841883
1.0923096
1.1011814
1.110535
1.1200872
1.1294474
1.1382627
1.1462206
1.1531216
1.1588703
1.1634733
1.1669611
1.1695013
1.1714322
1.1725792
1.1730836
1.1732206
1.1731077
1.172597
1.171894
1.1709837
1.1690286
1.1677225
1.1671789
1.1670391
1.1669994
1.1670327
0.98004364
0.98208979
0.98688378
0.99629943
1.0149782
1.0361609
1.0375808
1.0391591
1.0382291
1.0395351
1.0393904
1.0407618
1.041301
1.042983
1.044253
1.0464773
1.0486106
1.05163
1.0549426
1.0592978
1.0642923
1.0702451
1.0768633
1.0843893
1.0927332
1.101813
1.1113483
1.1210242
1.1304382
1.1392326
1.1471077
1.153884
1.1594932
1.163955
1.1673094
1.1698004
1.1716679
1.1727187
1.1731488
1.173271
1.1731307
1.1726076
1.1719089
1.1707529
1.1687789
1.1677023
1.1672432
1.1670826
1.1670179
1.1670337
0.97831447
0.98078149
0.98595818
0.99588642
1.0159829
1.0357735
1.0362559
1.0378835
1.036966
1.0383256
1.0382036
1.0396317
1.0402102
1.0419471
1.0432604
1.0455474
1.0477688
1.0509758
1.0545679
1.0591109
1.0642388
1.070245
1.0770642
1.0848369
1.093418
1.1027166
1.1124263
1.1222105
1.1316539
1.1403976
1.148158
1.1547798
1.1602222
1.1645158
1.1677195
1.1701586
1.1719105
1.1728548
1.1732261
1.1733316
1.1731548
1.1726347
1.1719129
1.1704725
1.1686726
1.1676893
1.1672632
1.1671052
1.1670315
1.1670344
0.97700646
0.97985258
0.98541929
0.99585574
1.0173156
1.0354613
1.0351981
1.0368666
1.0359327
1.0373432
1.0372166
1.0386994
1.0393178
1.0411092
1.042477
1.0448814
1.0473162
1.0507214
1.0544386
1.0590764
1.0642724
1.0704902
1.0775282
1.0855387
1.0943615
1.1038751
1.113751
1.123626
1.1330734
1.1417371
1.1493526
1.1557921
1.1610424
1.1651432
1.1681843
1.1705585
1.1721718
1.1730013
1.1733143
1.1734012
1.1731827
1.1726741
1.1719111
1.1702014
1.1685513
1.1676771
1.1672887
1.1671282
1.1670489
1.1670341
0.97584191
0.97912474
0.9851299
0.99610657
1.0188138
1.0351915
1.0343412
1.0360607
1.0351077
1.0365665
1.0364706
1.0379775
1.0386551
1.0405379
1.0420475
1.0446104
1.0471529
1.0506541
1.0544326
1.0591601
1.0645615
1.0709705
1.0782471
1.0865089
1.0955775
1.1053046
1.1153345
1.125279
1.1347015
1.1432527
1.1506912
1.1569201
1.1619519
1.1658362
1.1687101
1.1709927
1.1724492
1.1731628
1.1734127
1.1734759
1.1732144
1.1727162
1.1718726
1.1699559
1.1684629
1.1676652
1.1673034
1.1671474
1.167065
1.1670337
0.97498479
0.97867997
0.98515381
0.99671037
1.0204598
1.0350037
1.0336839
1.035481
1.0345214
1.0360199
1.035989
1.0375956
1.038315
1.0403014
1.0418874
1.0445251
1.0471245
1.0506696
1.0545834
1.0594893
1.0650779
1.0717139
1.0792376
1.0877544
1.0970703
1.1070045
1.1171732
1.1271622
1.1365283
1.1449332
1.1521631
1.1581535
1.1629402
1.1665872
1.1693003
1.171449
1.1727409
1.1733382
1.1735208
1.1735533
1.1732511
1.1727444
1.1717807
1.1697476
1.1683843
1.1676578
1.1673192
1.1671656
1.1670807
1.1670332
0.97426054
0.97839018
0.98538528
0.99760257
1.0221065
1.0348485
1.0332408
1.035056
1.0341824
1.0357217
1.0357724
1.037425
1.0381855
1.0402305
1.0418552
1.0445288
1.0472088
1.0508939
1.0549635
1.0600439
1.0658513
1.0727193
1.0805022
1.0892815
1.0988454
1.1089785
1.1192669
1.1292721
1.1385475
1.146771
1.1537602
1.159484
1.1639985
1.1673916
1.1699537
1.1719217
1.1730405
1.1735152
1.1736458
1.1736372
1.1732954
1.1727558
1.171628
1.1695774
1.1683221
1.167653
1.1673336
1.1671824
1.1670952
1.1670323
0.97375178
0.97830827
0.98586246
0.99885644
1.0237649
1.0348202
1.0330228
1.0348716
1.0340401
1.0356565
1.0356777
1.0373898
1.0381596
1.040235
1.0419198
1.0447015
1.047509
1.0513282
1.0555714
1.0608482
1.0668811
1.0739976
1.0820491
1.0910961
1.1009058
1.111226
1.121611
1.1316003
1.1407484
1.1487548
1.1554714
1.1609
1.1651164
1.1682456
1.1706566
1.172409
1.1733452
1.1737023
1.1737861
1.1737219
1.1733506
1.1727587
1.1714223
1.1694399
1.1682684
1.1676507
1.1673495
1.1671992
1.1671086
1.1670312
0.97341975
0.97841594
0.98655921
1.0004776
1.0253829
1.0349087
1.0329542
1.0348369
1.0339862
1.0356083
1.0356522
1.0374162
1.038235
1.0404054
1.0421884
1.045079
1.0480193
1.0519938
1.0564214
1.0619031
1.0681771
1.0755524
1.0838823
1.0932014
1.1032528
1.1137448
1.1241997
1.1341377
1.1431202
1.1508728
1.1572846
1.162389
1.1662846
1.1691509
1.1713955
1.1729043
1.1736527
1.1738981
1.1739373
1.1738089
1.1734191
1.1727566
1.1711952
1.1693117
1.1682201
1.1676496
1.1673669
1.1672178
1.1671213
1.1670296
0.97324784
0.97867188
0.9874098
1.0024052
1.0268327
1.0350295
1.0329396
1.0348583
1.0340155
1.0356865
1.0357673
1.0375938
1.0385176
1.0407804
1.0426633
1.0456742
1.0487586
1.0528937
1.0575179
1.0632181
1.0697445
1.0773909
1.0860072
1.0956005
1.1058862
1.1165306
1.1270242
1.1368727
1.1456496
1.1531112
1.1591851
1.1639369
1.1674963
1.1701124
1.1721503
1.1734
1.1739607
1.1741112
1.1740932
1.1739032
1.1735001
1.1727488
1.1709599
1.1691875
1.1681738
1.1676484
1.1673858
1.1672405
1.1671334
1.1670277
0.97321658
0.97908205
0.98842525
1.0046786
1.0282579
1.03528
1.0331206
1.0351509
1.0342796
1.0360501
1.0361201
1.0380156
1.0390169
1.0413708
1.0433584
1.0464926
1.0497287
1.0540353
1.058867
1.0647968
1.0715884
1.0795164
1.0884264
1.0982941
1.1088035
1.1195768
1.1300744
1.1397923
1.148322
1.155454
1.1611568
1.1655309
1.1687483
1.1711302
1.1729012
1.1738896
1.174271
1.1743434
1.1742478
1.1739983
1.173588
1.1727163
1.1707261
1.1690663
1.168129
1.1676475
1.1674052
1.1672689
1.1671448
1.1670252
0.97344001
0.97973169
0.98967181
1.0073368
1.0296672
1.0356772
1.0334898
1.0355682
1.0347552
1.0365814
1.0366841
1.0386571
1.0397223
1.0421718
1.0442715
1.0475371
1.0509347
1.0554217
1.060473
1.0666449
1.0737135
1.0819333
1.0911426
1.1012822
1.1120005
1.1228747
1.1333376
1.1428812
1.15112
1.1578828
1.1631832
1.1671614
1.1700413
1.1721781
1.173641
1.1743703
1.1745948
1.1745844
1.1744014
1.174094
1.1736674
1.1726496
1.1705019
1.1689499
1.1680859
1.1676481
1.1674267
1.1673009
1.1671563
1.1670222
0.97381214
0.98054826
0.99108901
1.0102872
1.0310289
1.0362067
1.0340767
1.0361702
1.0354164
1.0372648
1.0374477
1.0394876
1.0406352
1.0431874
1.0454069
1.0488105
1.0523791
1.057057
1.0623395
1.0687653
1.0761226
1.0846437
1.0941562
1.1045624
1.1154709
1.126414
1.1367998
1.1461224
1.1540239
1.1603785
1.16525
1.168824
1.1713761
1.1732273
1.1743602
1.1748424
1.1749418
1.1748248
1.1745538
1.174189
1.1737075
1.1725352
1.1702962
1.1688411
1.1680459
1.1676491
1.1674504
1.1673356
1.1671625
1.1670185
0.97439685
0.98159185
0.99274606
1.0135502
1.0324081
1.0369681
1.0348574
1.0369745
1.0362504
1.0381614
1.0384024
1.0405294
1.0417598
1.0444185
1.0467655
1.0503146
1.0540649
1.058944
1.06447
1.0711618
1.0788192
1.0876498
1.0974674
1.1081312
1.1192068
1.1301817
1.1404442
1.1494952
1.1570116
1.1629226
1.1673479
1.1705171
1.1727423
1.1742474
1.1750562
1.1753242
1.1752957
1.175063
1.1747059
1.1742865
1.1737243
1.1723669
1.1701146
1.1687423
1.1680095
1.1676533
1.1674763
1.1673723
1.1671658
1.1670141
0.97520341
0.98287174
0.99466751
1.0170791
1.0338144
1.0379283
1.0358036
1.0379892
1.0372801
1.0392435
1.0395639
1.0417744
1.0430945
1.0458657
1.0483485
1.0520516
1.0559939
1.0610851
1.0668665
1.0738366
1.0818049
1.0909522
1.1010744
1.1119832
1.1231983
1.1341636
1.1442519
1.1529771
1.1600617
1.1655024
1.1694727
1.1722362
1.1741
1.1752297
1.1757336
1.1758255
1.1756443
1.1752962
1.1748591
1.1743932
1.1737273
1.1721515
1.1699553
1.1686556
1.1679782
1.1676603
1.1675034
1.1674104
1.1671677
1.1670091
0.97617057
0.98433826
0.99682145
1.0207661
1.035249
1.039052
1.0369344
1.0391866
1.0384954
1.0405536
1.0409232
1.0432239
1.0446403
1.0475297
1.0501576
1.0540225
1.058168
1.0634825
1.0695318
1.0767921
1.0850817
1.0945516
1.1049749
1.1161117
1.1274335
1.1383424
1.1482002
1.1565431
1.1631564
1.168111
1.1716203
1.1739628
1.1754154
1.1761705
1.1764165
1.1763245
1.1759854
1.1755223
1.1750136
1.174517
1.1737242
1.1719112
1.169805
1.1685828
1.1679589
1.1676706
1.1675304
1.1674478
1.167169
1.1670035
0.97734066
0.9860288
0.99926515
1.0245861
1.0367543
1.0403662
1.0382468
1.0405732
1.0399022
1.0420452
1.0424824
1.0448778
1.0463979
1.0494117
1.0521934
1.0562291
1.0605885
1.0661375
1.0724671
1.0800298
1.0886503
1.0984472
1.1091651
1.1205086
1.1318987
1.1426985
1.1522645
1.1601706
1.1662862
1.1707455
1.1737749
1.1756517
1.1766783
1.1770865
1.1771046
1.1768111
1.1763148
1.1757387
1.1751676
1.174657
1.1737147
1.1716576
1.1696608
1.1685216
1.1679507
1.1676843
1.1675563
1.1674806
1.1671702
1.1669974
0.97867198
0.98789594
1.0019778
1.0284179
1.0383168
1.0418522
1.0397366
1.0421454
1.0415088
1.0437385
1.0442435
1.0467377
1.0483682
1.0515117
1.0544566
1.0586713
1.0632563
1.0690516
1.0756743
1.0835515
1.092512
1.1026377
1.11364
1.1251635
1.1365772
1.1472081
1.1564177
1.1638421
1.169448
1.1733931
1.1758931
1.17728
1.1778897
1.1780031
1.1777744
1.1772816
1.1766301
1.1759438
1.175317
1.1747942
1.1736777
1.1714007
1.1695226
1.1684678
1.1679482
1.1677024
1.1675826
1.167508
1.1671715
1.1669908
0.98020208
0.98996787
1.005014
1.032221
1.0399776
1.0435343
1.0414225
1.0439134
1.0433189
1.0456273
1.0462055
1.0488017
1.0505493
1.0538289
1.0569465
1.06135
1.066172
1.0722258
1.0791547
1.0873585
1.096667
1.1071212
1.1183936
1.1300647
1.1414501
1.1518456
1.1606362
1.1675499
1.1726351
1.1760116
1.1779456
1.1788379
1.1790814
1.1788977
1.178422
1.1777323
1.1769292
1.1761371
1.1754576
1.1748853
1.1736039
1.1711509
1.1693915
1.1684185
1.1679486
1.167727
1.1676139
1.1675303
1.1671727
1.1669839
0.98195217
0.99225088
1.0083853
1.0360793
1.0418889
1.0454003
1.0433026
1.0458661
1.0453146
1.047708
1.0483641
1.051067
1.0529401
1.0563624
1.0596631
1.0642646
1.0693361
1.0756617
1.0829105
1.0914531
1.101116
1.1118951
1.1234182
1.1351971
1.1464937
1.1565828
1.1649015
1.1712924
1.175813
1.1785607
1.1799112
1.1803483
1.1802484
1.1797596
1.1790416
1.1781604
1.1772104
1.1763196
1.1755889
1.1749223
1.1734764
1.1709196
1.1692694
1.1683741
1.1679529
1.1677593
1.1676569
1.1675407
1.1671741
1.1669767
0.98388613
0.99470712
1.0120541
1.0399088
1.0438618
1.0474397
1.0453632
1.0480003
1.0474956
1.049977
1.0507176
1.0535323
1.0555395
1.0591115
1.0626056
1.0674158
1.0727499
1.0793613
1.0869441
1.0958368
1.1058589
1.1169561
1.1287049
1.1405436
1.1516827
1.1613945
1.1692056
1.17506
1.178928
1.1810084
1.1817971
1.1818341
1.1813667
1.180584
1.1796305
1.1785635
1.1774726
1.1764938
1.1757184
1.174934
1.1732857
1.1707144
1.1691586
1.1683366
1.1679673
1.1678019
1.1677115
1.1675461
1.1671753
1.1669693
0.98607463
0.99739375
1.0160549
1.0437357
1.0460237
1.0496577
1.0476007
1.050313
1.0498593
1.0524328
1.0532653
1.0561967
1.0583468
1.0620751
1.0657739
1.0708042
1.0764155
1.0833281
1.091259
1.1005124
1.1108957
1.1222996
1.1342414
1.1460823
1.1569884
1.1662602
1.1735462
1.1788
1.1819423
1.1833399
1.183644
1.1832596
1.1824355
1.1813667
1.1801861
1.1789398
1.1777144
1.176662
1.1758585
1.1749334
1.1730394
1.1705313
1.1690618
1.1683073
1.1679875
1.1678514
1.1677765
1.1675485
1.1671751
1.1669617
0.98843934
1.00023
1.0203089
1.0475222
1.0483177
1.0520335
1.0500035
1.0528018
1.0524046
1.0550759
1.0560058
1.0590584
1.0613597
1.0652525
1.0691685
1.0744325
1.0803367
1.0875661
1.0958587
1.1054819
1.1162258
1.1279198
1.1400135
1.1517892
1.1623844
1.171169
1.1779128
1.1824525
1.1848235
1.1855893
1.1854313
1.1846201
1.1834481
1.182105
1.1807067
1.1792879
1.1779349
1.1768238
1.1760136
1.1749284
1.172761
1.1703566
1.1689803
1.1682959
1.1680119
1.1679029
1.1678456
1.1675494
1.1671712
1.1669538
0.99110083
1.0033046
1.0248711
1.0513035
1.0507995
1.0545994
1.0525932
1.0554715
1.0551338
1.0579021
1.0589358
1.0621138
1.0645772
1.0686446
1.0727927
1.0783052
1.0845186
1.0920803
1.1007475
1.1107476
1.1218477
1.133808
1.146002
1.1576358
1.1678468
1.176116
1.1822452
1.1859761
1.187564
1.1877886
1.1871326
1.185908
1.1844023
1.1827968
1.1811906
1.1796056
1.1781328
1.1769751
1.1761626
1.1748897
1.1724644
1.1701888
1.1689107
1.1682921
1.1680382
1.1679496
1.1679068
1.1675499
1.167165
1.1669458
0.99397758
1.0065654
1.0296553
1.055012
1.0534283
1.0573211
1.0553429
1.0583077
1.0580346
1.0609055
1.0620519
1.0653631
1.0680022
1.0722564
1.0766523
1.0824285
1.0889669
1.0968761
1.1059296
1.1163117
1.1277591
1.1399537
1.1521855
1.1635952
1.17336
1.1810922
1.1864785
1.1893355
1.1902113
1.1898982
1.1887462
1.1871203
1.1852953
1.1834405
1.1816357
1.1798903
1.1783077
1.1771115
1.17625
1.1748185
1.1721621
1.1700303
1.1688514
1.1682928
1.1680658
1.1679873
1.1679513
1.1675505
1.1671574
1.1669377
0.99708658
1.0100373
1.034635
1.0586648
1.0562219
1.0602046
1.0582573
1.0613116
1.0611085
1.064088
1.0653582
1.0688124
1.071642
1.0760953
1.0807539
1.0868086
1.0936878
1.1019594
1.1114094
1.1221756
1.1339552
1.1463417
1.1585368
1.1696407
1.1789139
1.1860434
1.1905629
1.1925276
1.1927838
1.1918984
1.1902646
1.188254
1.1861257
1.1840344
1.1820385
1.1801389
1.1784604
1.1772342
1.1762879
1.1747021
1.1718682
1.1698848
1.1688041
1.1683012
1.168099
1.1680183
1.1679694
1.1675511
1.1671491
1.1669296
1.0004463
1.0137562
1.0397732
1.0622867
1.0591761
1.0632444
1.0613366
1.064482
1.0643601
1.0674561
1.0688647
1.0724712
1.075505
1.0801682
1.0851037
1.0914519
1.0986875
1.1073359
1.1171914
1.1283404
1.1404299
1.1529539
1.1650292
1.1757512
1.1845023
1.1908995
1.1944575
1.1955998
1.1952439
1.1937843
1.1916853
1.1893076
1.1868927
1.184577
1.1823958
1.180351
1.1785938
1.1773515
1.1762994
1.1745255
1.1716002
1.1697558
1.1687699
1.1683239
1.1681413
1.168054
1.1679775
1.1675474
1.1671401
1.1669215
1.0040159
1.0177065
1.044987
1.0658806
1.0622822
1.066446
1.0645832
1.0678342
1.0678041
1.0710255
1.072583
1.0763478
1.0795969
1.0844803
1.0897072
1.0963649
1.1039732
1.1130122
1.1232798
1.1348053
1.1471722
1.1597663
1.1716338
1.1819096
1.1900898
1.1955953
1.1981468
1.1985785
1.1975666
1.1955502
1.1930057
1.1902804
1.1875956
1.1850661
1.1827072
1.1805328
1.1787137
1.1774715
1.1763001
1.1742772
1.171371
1.1696454
1.1687453
1.1683528
1.1681905
1.1681088
1.1679808
1.1675369
1.1671306
1.1669135
1.0078189
1.021947
1.0502762
1.0695101
1.0655743
1.0698415
1.0680279
1.0713889
1.0714558
1.0748026
1.0765163
1.0804435
1.0839199
1.0890358
1.0945709
1.1015557
1.1095524
1.1189948
1.1296788
1.1415683
1.1541683
1.1667534
1.178327
1.1881073
1.1956013
1.2000875
1.2016774
1.2014238
1.1997486
1.1971934
1.1942251
1.1911724
1.1882339
1.185501
1.1829785
1.1806982
1.1788272
1.1775849
1.1762777
1.1739776
1.1711694
1.169553
1.168735
1.1683859
1.1682488
1.1681791
1.167982
1.1675218
1.1671204
1.1669058
1.0118856
1.0265346
1.0556476
1.0732403
1.0690764
1.0734437
1.071679
1.0751435
1.0753097
1.0787811
1.0806611
1.0847592
1.0884784
1.0938422
1.0997036
1.1070329
1.1154339
1.1252907
1.1363914
1.1486232
1.1613986
1.1738855
1.1850857
1.1943281
1.2009544
1.2043361
1.2050948
1.2041044
1.2017833
1.1987121
1.1953434
1.1919842
1.1888069
1.1858828
1.1832224
1.180859
1.1789381
1.1776527
1.1762139
1.1736523
1.1709821
1.1694741
1.168732
1.1684203
1.1683075
1.168253
1.1679823
1.1675041
1.1671094
1.1668983
1.0161986
1.0314698
1.0610521
1.0771614
1.0727542
1.077218
1.0755068
1.0790757
1.0793546
1.0829575
1.0850206
1.0893015
1.0932814
1.0989095
1.1051148
1.1128066
1.1216261
1.1319068
1.1434195
1.1559617
1.1688407
1.1811369
1.1918926
1.2005067
1.2060975
1.208382
1.20836
1.2066149
1.2036686
1.2001063
1.1963619
1.1927163
1.1893148
1.1862167
1.1834507
1.1810026
1.179037
1.1776843
1.1761127
1.173316
1.1708065
1.1694073
1.1687327
1.168455
1.1683557
1.1683087
1.1679825
1.1674849
1.1670981
1.1668912
1.0206979
1.0367139
1.0664159
1.0811694
1.0765857
1.0811552
1.0795089
1.0831909
1.0835987
1.0873436
1.0896064
1.094082
1.0983396
1.1042481
1.1108154
1.118887
1.1281384
1.1388494
1.1507622
1.1635688
1.1764665
1.1884811
1.1987327
1.2065582
1.210978
1.2122687
1.2114419
1.2089487
1.2054028
1.2013769
1.1972822
1.1933695
1.1897591
1.1865118
1.183657
1.1810675
1.1790864
1.1776978
1.1759747
1.1729789
1.1706449
1.1693565
1.1687432
1.1684897
1.168389
1.1683308
1.1679826
1.1674648
1.1670866
1.1668844
1.0253934
1.0422749
1.071741
1.0850843
1.0805902
1.0852776
1.0837071
1.0875113
1.0880593
1.0919533
1.0944302
1.0991113
1.1036635
1.1098694
1.1168166
1.1252846
1.1349798
1.146124
1.1584157
1.1714264
1.1842489
1.1958958
1.2055776
1.2124009
1.2155973
1.215997
1.2143199
1.2111038
1.2069868
1.2025264
1.1981063
1.1939443
1.1901448
1.1867786
1.1837958
1.181097
1.1791107
1.1777036
1.1757951
1.1726546
1.1705007
1.1693227
1.1687658
1.1685258
1.1684152
1.1683409
1.1679737
1.1674443
1.1670752
1.1668781
1.0303323
1.0481731
1.077065
1.0893393
1.0848003
1.0896085
1.0881206
1.0920482
1.0927474
1.0967947
1.0995012
1.1043996
1.1092641
1.1157849
1.1231295
1.1320105
1.1421593
1.153734
1.1663707
1.1795092
1.1921585
1.203358
1.2123381
1.2179813
1.2199977
1.2195254
1.2169909
1.2130787
1.2084227
1.2035577
1.1988353
1.194443
1.1904808
1.1870197
1.1838518
1.1811063
1.1791216
1.1776934
1.1755605
1.172363
1.1703768
1.1693015
1.1687951
1.1685668
1.168448
1.168345
1.167957
1.1674235
1.1670641
1.1668723
1.0355317
1.0543894
1.0824073
1.0938033
1.0892157
1.0941474
1.092751
1.0968028
1.0976678
1.1018755
1.1048287
1.1099579
1.1151529
1.122007
1.1297664
1.1390759
1.149686
1.1616809
1.1746142
1.1877909
1.2001695
1.2108484
1.2189233
1.2232524
1.2242308
1.2228151
1.2194509
1.2148752
1.2097141
1.2044737
1.1994709
1.1948714
1.1907794
1.1872081
1.1838726
1.1811109
1.1791288
1.1776442
1.175262
1.17212
1.1702746
1.1692893
1.1688257
1.1686126
1.1684992
1.1683464
1.1679328
1.1674028
1.1670533
1.166867
1.041047
1.0608982
1.0877503
1.0984438
1.0938394
1.0988965
1.097601
1.1017836
1.1028295
1.1072068
1.1104246
1.1157984
1.1213427
1.1285487
1.1367402
1.1464929
1.1575676
1.1699615
1.1831264
1.1962409
1.2082523
1.2183117
1.2252499
1.2282488
1.2282453
1.2258654
1.2216994
1.2164963
1.2108647
1.2052762
1.2000159
1.1952403
1.1910484
1.1872848
1.1838778
1.1811022
1.1791273
1.1775522
1.1749224
1.1719156
1.1701918
1.1692859
1.1688561
1.1686599
1.168558
1.1683468
1.1679032
1.1673823
1.1670429
1.1668622
1.0468501
1.0676949
1.0931309
1.1032824
1.0986759
1.1038638
1.1026801
1.1070027
1.1082446
1.112801
1.1163004
1.1219339
1.1278464
1.1354241
1.1440648
1.1542738
1.1658108
1.1785686
1.191884
1.2048321
1.2163832
1.2256509
1.2312573
1.2330184
1.2320074
1.2286701
1.2237383
1.2179466
1.2118779
1.2059674
1.2004786
1.1955643
1.1912722
1.1873156
1.1838716
1.1810774
1.1791068
1.1774153
1.1745712
1.1717342
1.1701237
1.1692868
1.1688856
1.1686975
1.1685943
1.1683466
1.1678701
1.167362
1.1670329
1.1668581
1.0529352
1.0747887
1.0985752
1.1083265
1.1037489
1.1090658
1.1080056
1.1124724
1.1139249
1.1186683
1.1224676
1.1283775
1.1346784
1.1426485
1.1517549
1.1624306
1.1744178
1.1874876
1.2008559
1.2135323
1.2245323
1.2327623
1.2369239
1.2375679
1.2354884
1.2312291
1.2255714
1.2192304
1.212756
1.2065528
1.2008744
1.1958534
1.1913799
1.1873227
1.1838371
1.1810383
1.1790669
1.1772376
1.1742228
1.17157
1.1700694
1.1692914
1.1689115
1.168723
1.1686114
1.1683423
1.1678352
1.1673422
1.1670235
1.1668546
1.0592669
1.0821379
1.1041543
1.1135882
1.1090595
1.1145087
1.1135839
1.1181982
1.1198786
1.124819
1.1289392
1.1351449
1.1418559
1.1502391
1.1598265
1.1709744
1.1833877
1.1966992
1.2100123
1.2223083
1.2326222
1.239566
1.242291
1.2418496
1.2386886
1.2335442
1.2272039
1.2203518
1.2135033
1.2070455
1.2012218
1.1960932
1.1914246
1.1873179
1.1837809
1.1809852
1.1790054
1.1770246
1.1738858
1.1714213
1.1700278
1.1693019
1.1689351
1.1687405
1.1686184
1.168329
1.1677998
1.1673229
1.1670148
1.1668518
1.0658353
1.0897347
1.1098662
1.1190792
1.1146121
1.1201951
1.1194202
1.1241882
1.1261171
1.1312684
1.1357327
1.1422556
1.1493982
1.1582153
1.1682963
1.1799137
1.192712
1.2061765
1.2193204
1.2311249
1.2405379
1.2459884
1.24742
1.2458166
1.241604
1.2356193
1.2286408
1.2213147
1.2141305
1.2074673
1.2015269
1.1962125
1.1914364
1.1872768
1.1837033
1.1809192
1.1789212
1.1767821
1.1735679
1.1712879
1.1699943
1.1693137
1.1689596
1.1687595
1.1686211
1.1683069
1.1677646
1.1673043
1.1670067
1.1668497
1.0726407
1.0975852
1.1157571
1.124801
1.1204101
1.1261303
1.1255274
1.1304577
1.1326593
1.1380372
1.1428691
1.1497313
1.1573263
1.1665967
1.1771797
1.1892531
1.2023768
1.2158889
1.2287467
1.239945
1.2481649
1.252049
1.252266
1.2494626
1.2442374
1.2374606
1.2298875
1.2221272
1.2146586
1.2078376
1.2017569
1.1962628
1.1914334
1.1872081
1.1836072
1.18084
1.1788117
1.1765129
1.1732775
1.1711705
1.1699676
1.169326
1.1689837
1.1687895
1.1686219
1.1682767
1.1677301
1.1672866
1.1669995
1.1668483
1.0796371
1.1056549
1.1218034
1.1307616
1.1264726
1.1323387
1.1319262
1.1370306
1.1395282
1.1451482
1.1503712
1.1575949
1.1656624
1.1754037
1.1864904
1.1989907
1.212359
1.2258003
1.2382466
1.2486559
1.2554199
1.2577905
1.2567841
1.2527824
1.2465921
1.2390739
1.2309509
1.2228057
1.2151125
1.2081464
1.2018591
1.1962775
1.1913945
1.1871109
1.1834947
1.180747
1.1786727
1.1762155
1.173025
1.1710715
1.1699511
1.1693481
1.1690107
1.1688127
1.1686223
1.1682403
1.1676963
1.1672696
1.1669932
1.1668477
1.0868905
1.1139193
1.1280943
1.137011
1.132834
1.1388426
1.1386481
1.1439275
1.1467471
1.1526249
1.158263
1.1658713
1.1744304
1.1846564
1.1962386
1.2091179
1.2226303
1.2358758
1.2477783
1.2571368
1.2622495
1.2632494
1.2609316
1.2557779
1.248675
1.2404665
1.2318439
1.2233768
1.2154991
1.2083208
1.2019004
1.1962741
1.1913232
1.186989
1.1833676
1.1806386
1.1785006
1.1758915
1.172818
1.1709943
1.1699424
1.1693621
1.1690252
1.1688227
1.1686201
1.1682002
1.1676634
1.1672536
1.1669881
1.1668479
1.0943313
1.1224598
1.1346004
1.1435395
1.1395011
1.1456596
1.1457033
1.1511718
1.1543391
1.1604936
1.1665709
1.1745882
1.1836548
1.1943745
1.2064292
1.2196167
1.2331539
1.2460695
1.2572752
1.2652575
1.2686863
1.2683581
1.2647099
1.2584518
1.250493
1.2416484
1.2325876
1.2238648
1.2157712
1.2083979
1.201913
1.196233
1.1912199
1.1868446
1.1832274
1.1805128
1.1782942
1.1755567
1.1726528
1.1709352
1.1699347
1.1693639
1.1690299
1.1688283
1.1686089
1.1681564
1.1676318
1.1672387
1.1669839
1.166849
1.1020608
1.1314042
1.1414028
1.1503954
1.1465121
1.1528127
1.1531283
1.1587862
1.1623337
1.1687827
1.1753249
1.1837732
1.1933612
1.2045721
1.2170584
1.2304613
1.2438909
1.2563295
1.2665985
1.272932
1.2747927
1.2730664
1.2681157
1.2608113
1.2520562
1.2426368
1.2332097
1.2242603
1.2158961
1.2084259
1.2018996
1.1961581
1.1910876
1.1866803
1.1830748
1.1803677
1.1780571
1.1752371
1.1725124
1.1708858
1.1699254
1.1693643
1.1690314
1.168831
1.1685895
1.1681069
1.1676014
1.1672249
1.1669809
1.166851
1.1100173
1.1406561
1.1484743
1.1575751
1.1538748
1.1603259
1.1609423
1.1668027
1.1707608
1.1775268
1.1845562
1.1934573
1.2035718
1.2152598
1.2281131
1.2416149
1.2547938
1.2665952
1.2756077
1.2801427
1.280537
1.2773525
1.2711523
1.2628647
1.2533779
1.2434575
1.2337282
1.2244772
1.2159451
1.2084256
1.2018441
1.1960502
1.1909289
1.1864984
1.1829099
1.180202
1.1777964
1.1749428
1.1723884
1.1708413
1.1699144
1.1693642
1.169032
1.1688326
1.1685621
1.1680575
1.1675718
1.1672124
1.1669791
1.1668539
1.1182502
1.1502839
1.1558903
1.1651318
1.1616334
1.168235
1.1691856
1.1752556
1.1796574
1.1867623
1.1942986
1.2036684
1.2143067
1.2264374
1.2395698
1.2530346
1.2658042
1.27676
1.2841759
1.2869349
1.2858585
1.281216
1.2738262
1.2646245
1.254479
1.2441392
1.2341208
1.2245708
1.215956
1.2083794
1.2017545
1.1959127
1.1907465
1.186301
1.1827326
1.1800153
1.1775208
1.1746764
1.1722761
1.1707993
1.1699023
1.1693629
1.1690325
1.1688333
1.1685277
1.1680109
1.1675436
1.1672012
1.1669784
1.1668576
1.1268235
1.1603213
1.1636703
1.1730871
1.1698125
1.1765704
1.1778962
1.1841842
1.1890612
1.1965269
1.2045842
1.2144333
1.2255785
1.2380979
1.2513938
1.2646695
1.2768504
1.2866601
1.2922195
1.2933562
1.2906981
1.2846561
1.2761471
1.2661069
1.2553879
1.2446927
1.2343121
1.2246032
1.2159183
1.2082926
1.2016317
1.1957482
1.1905431
1.1860898
1.1825423
1.1798085
1.1772374
1.1744339
1.1721759
1.1707594
1.1698894
1.1693595
1.1690315
1.1688302
1.168488
1.1679639
1.1675169
1.1671914
1.1669789
1.1668623
1.1357337
1.1706869
1.1718433
1.1814655
1.1784515
1.1853742
1.1871193
1.1936342
1.1990112
1.2068565
1.2154433
1.2257742
1.2373948
1.2502195
1.2635407
1.2764599
1.2878523
1.2961336
1.2997697
1.2993187
1.2950606
1.28768
1.2781299
1.267337
1.2561344
1.245076
1.2343888
1.2245893
1.2158285
1.2081681
1.2014802
1.1955596
1.1903211
1.1858663
1.1823388
1.1795832
1.176952
1.1742089
1.1720871
1.1707228
1.1698753
1.1693541
1.1690282
1.1688201
1.1684437
1.167918
1.1674917
1.1671832
1.1669807
1.1668681
1.1450547
1.1814284
1.1804764
1.1903278
1.1876134
1.1946876
1.1968952
1.203645
1.209542
1.2177826
1.2269043
1.2377089
1.2497504
1.2627709
1.2759538
1.2883216
1.2986331
1.305056
1.3068874
1.3047566
1.2989392
1.2902976
1.2797943
1.2683456
1.2567279
1.2452614
1.234407
1.2245061
1.2156938
1.2080108
1.201303
1.1953497
1.1900829
1.1856314
1.1821216
1.1793413
1.1766683
1.1740019
1.1720016
1.1706919
1.1698596
1.1693468
1.169026
1.1688024
1.1683955
1.1678736
1.1674681
1.1671765
1.1669838
1.166875
1.1548867
1.1926057
1.1896306
1.1997233
1.1973334
1.2045586
1.2072565
1.2142534
1.2206826
1.2293397
1.2389934
1.2502487
1.2626291
1.2757021
1.2885646
1.3001614
1.309019
1.3134124
1.3135168
1.3096492
1.3023419
1.2925266
1.2811691
1.269165
1.2571136
1.2453339
1.2343576
1.2243686
1.2155185
1.2078249
1.2011036
1.1951211
1.1898308
1.1853863
1.1818912
1.1790855
1.1763892
1.1738107
1.1719225
1.1706635
1.1698443
1.1693385
1.1690225
1.1687771
1.1683441
1.1678305
1.167446
1.1671713
1.1669884
1.166883
1.1653126
1.2041905
1.1993529
1.2096734
1.207645
1.2150084
1.2182312
1.2254916
1.2324712
1.2415646
1.2517393
1.2633956
1.2759975
1.2889517
1.3012805
1.3118285
1.3188368
1.3212456
1.3195751
1.3139923
1.305278
1.2943901
1.2822882
1.2698046
1.2572983
1.2453372
1.2342355
1.22418
1.2153089
1.2076146
1.2008849
1.1948764
1.1895664
1.1851314
1.1816478
1.1788183
1.1761166
1.173634
1.1718495
1.1706366
1.1698322
1.1693297
1.169016
1.1687447
1.1682907
1.1677886
1.1674259
1.1671678
1.1669938
1.1668923
1.1764036
1.2161424
1.2096727
1.2201946
1.2185715
1.2260735
1.2298594
1.2374125
1.2449587
1.2545008
1.2651615
1.2771358
1.2898054
1.3024373
1.3139889
1.3231169
1.3280134
1.3285577
1.3250123
1.3177901
1.3077678
1.2959216
1.2831865
1.2701997
1.257369
1.2452572
1.2340524
1.2239483
1.2150697
1.2073837
1.20065
1.194618
1.1892917
1.1848673
1.1813923
1.1785425
1.175852
1.1734703
1.1717826
1.1706125
1.1698223
1.1693208
1.1690052
1.1687057
1.1682365
1.1677483
1.1674078
1.1671658
1.1670005
1.1669028
1.18823
1.2283837
1.2206081
1.2313056
1.2301476
1.2378111
1.2422103
1.2500905
1.2582044
1.2681838
1.2792657
1.291432
1.303977
1.3160586
1.3265478
1.3338127
1.3365768
1.3352361
1.3298265
1.3210529
1.3098383
1.2971584
1.2838754
1.2703852
1.2573579
1.2450999
1.2338146
1.2236798
1.2148061
1.207136
1.2004019
1.1943484
1.1890079
1.1845942
1.1811255
1.178261
1.1755965
1.1733185
1.1717216
1.1705916
1.1698132
1.1693127
1.168989
1.1686605
1.1681821
1.1677108
1.1673905
1.1671656
1.1670086
1.1669146
1.2008983
1.2408201
1.2322147
1.2430828
1.2424657
1.2503125
1.2553673
1.2636004
1.2722594
1.2826341
1.2940298
1.3062223
1.3184169
1.3296731
1.3387132
1.3437936
1.3445666
1.3412098
1.334017
1.3238049
1.31153
1.2981366
1.2842836
1.2704538
1.2572496
1.2448762
1.2335308
1.2233804
1.2145225
1.2068747
1.2001432
1.1940699
1.1887165
1.1843126
1.1808483
1.1779761
1.1753509
1.1731776
1.1716661
1.1705741
1.1698053
1.1693044
1.1689671
1.1686101
1.168128
1.1676765
1.1673736
1.167167
1.1670181
1.1669278
1.2145675
1.2534042
1.2446464
1.2556809
1.2556909
1.2636869
1.2693889
1.2779809
1.2871487
1.2978456
1.309408
1.3214134
1.3329963
1.3431196
1.3502486
1.3530752
1.3518394
1.3464757
1.3375959
1.3260789
1.3128864
1.2988703
1.2844701
1.2704266
1.257059
1.2445949
1.2332084
1.223056
1.2142231
1.2066033
1.1998767
1.1937846
1.1884186
1.1840228
1.1805618
1.1776898
1.1751157
1.1730469
1.1716162
1.1705601
1.1697991
1.1692951
1.1689391
1.1685553
1.1680734
1.1676442
1.167358
1.1671698
1.167029
1.1669424
1.2295196
1.2663443
1.2582101
1.2691808
1.2699689
1.2780435
1.2843267
1.2932588
1.3028777
1.313789
1.3253157
1.3368818
1.3475437
1.3561221
1.3609866
1.361701
1.358311
1.3510298
1.3405924
1.3279218
1.3139426
1.29929
1.284535
1.2702894
1.2567974
1.2442659
1.2328544
1.2227119
1.2139119
1.2063245
1.199605
1.1934947
1.1881155
1.1837252
1.1802673
1.177404
1.1748913
1.1729258
1.1715718
1.1705499
1.1697945
1.1692841
1.1689055
1.1684972
1.1680186
1.1676129
1.1673447
1.167174
1.1670413
1.1669585
1.2456935
1.2806717
1.2728571
1.2836061
1.2852666
1.2933718
1.3002918
1.3095162
1.3194485
1.3303909
1.3416313
1.3524587
1.3618544
1.3684165
1.3709369
1.3694999
1.3639746
1.3548861
1.3430465
1.3293824
1.3146952
1.2994824
1.2844859
1.2700648
1.2564761
1.2438978
1.2324757
1.2223528
1.2135926
1.2060415
1.1993306
1.193202
1.1878079
1.1834203
1.1799661
1.1771205
1.1746778
1.1728141
1.1715334
1.1705441
1.1697914
1.1692705
1.1688661
1.1684367
1.1679649
1.1675828
1.1673336
1.1671793
1.167055
1.1669761
1.2629125
1.2955765
1.2886089