/*--------------------------------*- C++ -*----------------------------------*\
  =========                 |
  \\      /  F ield         | OpenFOAM: The Open Source CFD Toolbox
   \\    /   O peration     | Website:  https://openfoam.org
    \\  /    A nd           | Version:  8
     \\/     M anipulation  |
\*---------------------------------------------------------------------------*/
FoamFile
{
    version     2.0;
    format      ascii;
    class       surfaceVectorField;
    location    "0.0599932";
    object      rhoUf;
}
// * * * * * * * * * * * * * * * * * * * * * * * * * * * * * * * * * * * * * //

dimensions      [1 -2 -1 0 0 0 0];

internalField   nonuniform List<vector> 
39600
(
(212.08049 -1.0723023e-16 -5.6400863)
(196.05226 0 -5.8471174)
(194.58818 0 -5.0545834)
(243.08536 -4.0629081e-17 -6.5810828)
(232.50388 -1.1573185e-16 -6.6345815)
(230.87627 -1.2332795e-16 -5.6893989)
(266.77563 1.0468754e-16 -7.3670163)
(257.32442 9.4667995e-17 -7.553558)
(255.51283 1.0082995e-16 -6.4919544)
(289.15495 6.5040415e-17 -8.1667134)
(279.80762 0 -8.3039285)
(277.8506 0 -7.1723409)
(309.82801 7.8428556e-17 -8.9880909)
(302.23449 7.1508266e-17 -9.3633169)
(300.03699 7.4992961e-17 -8.0967893)
(320.63158 6.0434559e-19 -9.4355181)
(320.39286 1.0848918e-20 -9.8143904)
(319.32974 5.3912176e-19 -8.5779884)
(322.0637 7.1270772e-20 -9.4851477)
(321.32266 8.8067409e-19 -10.426454)
(321.30356 3.6955169e-20 -9.1622614)
(322.29799 -3.2993163e-17 -9.4991836)
(322.91313 3.3092643e-20 -9.6229046)
(322.87855 3.5025849e-20 -8.4246597)
(321.90641 -1.2101676e-17 -9.4972446)
(321.55672 -7.4442506e-17 -10.679559)
(321.53294 -3.7930389e-17 -9.4033413)
(321.95878 1.0095474e-17 -9.5161096)
(322.34321 6.0977188e-17 -9.5411733)
(322.279 3.1546925e-17 -8.3361549)
(321.69659 -2.7481649e-17 -9.5315344)
(321.54569 -2.4892505e-17 -10.717981)
(321.48863 -2.6212168e-17 -9.4515021)
(321.64726 -9.9281975e-19 -9.5590975)
(321.9262 -1.8906061e-17 -9.6615739)
(321.84959 3.8041227e-20 -8.442307)
(321.40651 -1.2439232e-18 -9.589877)
(321.3852 2.0261215e-17 -10.650518)
(321.31279 -1.1308214e-18 -9.3938228)
(321.27464 -1.5261577e-18 -9.6287032)
(321.49374 -5.633424e-20 -9.8776187)
(321.41431 -5.2280248e-21 -8.6435136)
(321.02664 -1.7594638e-18 -9.6754217)
(321.09095 -3.1490216e-18 -10.576873)
(321.01376 -7.3502632e-18 -9.3261823)
(320.81136 -1.1960261e-19 -9.7278591)
(321.01616 2.0825001e-17 -10.118489)
(320.9383 9.7322798e-18 -8.8745622)
(320.50971 -1.4392894e-19 -9.7884077)
(320.64346 -2.1733802e-17 -10.55467)
(320.56933 -4.104055e-18 -9.3104005)
(320.19469 1.0943363e-17 -9.8491192)
(320.41095 -7.2002963e-18 -10.338208)
(320.34337 2.1709708e-19 -9.0995428)
(319.80047 1.3247126e-17 -9.9110421)
(319.99325 1.1931991e-17 -10.583612)
(319.93367 1.5033911e-17 -9.3570508)
(319.36162 -7.2213148e-18 -9.9648997)
(319.60162 5.6429693e-20 -10.511128)
(319.55239 -2.7429584e-18 -9.2905147)
(318.86151 -1.561116e-17 -10.004332)
(319.07912 8.6706499e-18 -10.645324)
(319.04445 -8.4140723e-18 -9.4257938)
(318.279 -1.3266618e-17 -10.076615)
(318.50487 -1.4256312e-17 -10.662394)
(318.453 -8.2024869e-18 -9.4289255)
(317.55185 -6.0823909e-18 -10.135361)
(317.83643 -2.263452e-17 -10.763022)
(317.79019 -3.7423634e-18 -9.5334909)
(316.69931 0 -10.11899)
(317.08257 9.3800359e-18 -10.751979)
(317.06434 0 -9.5485887)
(315.72276 0 -10.006365)
(316.17382 0 -10.674394)
(316.18277 -2.3086112e-18 -9.5160265)
(314.62876 0 -9.7744007)
(315.13323 1.2875978e-17 -10.469896)
(315.16862 -1.1238421e-20 -9.3694253)
(313.42204 -1.5040968e-17 -9.4011452)
(313.96107 -2.0975851e-17 -10.131131)
(314.02108 8.6038016e-19 -9.1048029)
(312.13057 -1.845245e-17 -8.8699697)
(312.68726 9.0223025e-18 -9.6210462)
(312.76961 -1.2474062e-17 -8.6876819)
(310.80537 3.9080471e-17 -8.1857909)
(311.35462 -2.7835539e-17 -8.9417816)
(311.45413 -4.8683282e-20 -8.1187183)
(309.50906 5.5988586e-17 -7.3836919)
(310.02623 7.6673219e-17 -8.115181)
(310.13435 3.3509699e-17 -7.4130901)
(308.30338 -2.5558186e-18 -6.5208256)
(308.76703 8.7559532e-18 -7.1980546)
(308.87451 6.4358919e-18 -6.6200117)
(307.23856 -1.6355341e-17 -5.6644264)
(307.63383 4.2525962e-17 -6.260599)
(307.73255 -9.4396109e-18 -5.8017319)
(306.34714 -1.4923517e-18 -4.8723212)
(306.66672 7.5505761e-17 -5.3730082)
(306.75174 -8.6994132e-19 -5.022108)
(305.64166 1.150059e-17 -4.1841846)
(305.88454 -5.9600199e-17 -4.5854241)
(305.95409 2.6627382e-18 -4.328147)
(305.12138 4.0525061e-17 -3.6228012)
(305.2899 1.0429684e-16 -3.9226457)
(305.34385 7.15646e-18 -3.7440836)
(304.7697 1.9503674e-17 -3.1853923)
(304.87867 7.9075993e-17 -3.4044891)
(304.91953 1.4998086e-17 -3.2844175)
(304.58438 -7.0998341e-18 -2.7307452)
(304.59666 -1.4804327e-17 -3.0237044)
(304.64367 -8.6128236e-18 -2.945637)
(304.48564 7.1438232e-17 -2.3771604)
(304.42723 -1.5492861e-19 -2.7096497)
(304.46458 1.69592e-18 -2.6668539)
(304.4233 8.4907508e-17 -2.242709)
(304.37902 7.6766647e-18 -2.4167839)
(304.39184 2.5079657e-17 -2.4009954)
(304.45867 -5.9281134e-17 -2.0674312)
(304.41707 2.4714505e-17 -2.1651446)
(304.43358 4.1611976e-18 -2.165202)
(304.54021 -5.5837784e-17 -1.8476276)
(304.49043 -1.8075672e-17 -1.9455781)
(304.50778 -2.2878777e-17 -1.9556603)
(304.63125 6.234084e-17 -1.6006077)
(304.58295 -1.3618644e-17 -1.7100307)
(304.597 1.23412e-17 -1.7273997)
(304.71578 1.557951e-17 -1.3122537)
(304.68284 2.9612822e-17 -1.4456362)
(304.6993 4.6748829e-18 -1.4631705)
(304.77683 -8.2293758e-18 -1.0203953)
(304.73498 8.7024142e-17 -1.1456646)
(304.74645 7.501296e-19 -1.1755758)
(304.72388 -7.2251604e-18 -1.2341902)
(304.88232 -6.408164e-17 -0.81091234)
(304.83418 1.8874405e-18 -0.85003653)
(304.875 -4.1071487e-17 -0.89477764)
(305.00924 -1.5805989e-17 -0.51395136)
(305.01521 2.9908319e-19 -0.53573071)
(304.967 -4.1988474e-17 -0.34518065)
(305.00049 5.2743186e-18 -0.32273243)
(305.02958 -4.8212631e-18 -0.32551299)
(304.91437 1.6313956e-18 -0.18247158)
(304.93139 1.3147677e-17 -0.20923674)
(304.93695 4.0168715e-18 -0.20620474)
(304.88292 -3.7828244e-18 -0.11333719)
(304.88095 9.7284369e-17 -0.13294792)
(304.88302 1.4915391e-18 -0.13125237)
(304.87602 3.2779022e-19 -0.11186667)
(304.87708 0 -0.11388613)
(213.37094 2.1233389e-19 -6.5082281)
(197.59027 0 -6.6787084)
(244.5689 8.0645227e-20 -7.5653237)
(234.17427 7.0979391e-19 -7.6085489)
(268.38925 -2.0792569e-19 -8.4387353)
(259.13561 -5.8219138e-19 -8.633954)
(290.92655 7.7827598e-19 -9.320132)
(281.7261 -8.6881115e-17 -9.4581565)
(311.22178 4.861327e-19 -10.195415)
(304.33999 7.5567391e-17 -10.648666)
(321.07018 2.196902e-19 -10.63062)
(321.28054 -4.8534925e-19 -11.048634)
(322.08277 9.0566766e-19 -10.683713)
(321.40516 -3.5023308e-20 -11.706247)
(322.33468 -3.4648551e-17 -10.713514)
(323.00983 -1.4214614e-18 -10.830303)
(321.95307 -1.3636309e-17 -10.724561)
(321.62503 -3.646263e-17 -11.972855)
(322.01574 3.3504897e-17 -10.753125)
(322.42432 -1.2540314e-18 -10.763269)
(321.75788 -1.6985958e-17 -10.775497)
(321.60654 2.6308837e-17 -12.007737)
(321.71389 -1.2084542e-18 -10.807935)
(321.99632 -2.1210631e-17 -10.899631)
(321.47379 2.3021177e-17 -10.84177)
(321.44523 2.3126585e-17 -11.931821)
(321.34335 -1.3975007e-18 -10.88256)
(321.55742 3.8025803e-18 -11.1311)
(321.09489 1.7018249e-17 -10.930488)
(321.15053 -4.6836332e-18 -11.850592)
(320.8784 3.0844837e-18 -10.981644)
(321.07278 -8.0234275e-19 -11.379074)
(320.57388 -2.9801326e-17 -11.038156)
(320.69377 -8.0020975e-18 -11.815377)
(320.25465 -7.7831693e-18 -11.089831)
(320.45055 7.5739726e-18 -11.591221)
(319.8566 0 -11.147225)
(320.03025 1.2176082e-17 -11.8322)
(319.41528 1.4899021e-17 -11.19684)
(319.6289 0 -11.767427)
(318.88639 1.1907608e-17 -11.254784)
(319.10726 -6.2656463e-19 -11.917706)
(318.26574 -2.2744141e-17 -11.326458)
(318.53934 7.2434947e-18 -11.939091)
(317.53062 -1.0214559e-17 -11.364147)
(317.85497 -1.6752785e-17 -12.011458)
(316.67526 1.0191948e-17 -11.304791)
(317.06698 -3.3490327e-19 -11.965429)
(315.69211 1.1510575e-17 -11.143245)
(316.1318 1.5909851e-17 -11.845723)
(314.57987 -4.7131093e-18 -10.850438)
(315.06492 -2.8707829e-19 -11.5853)
(313.34983 -2.7369715e-20 -10.396479)
(313.86657 -2.0623554e-17 -11.170642)
(312.03906 3.1865364e-18 -9.7654938)
(312.56975 2.5191509e-17 -10.564407)
(310.70146 -6.1829714e-19 -8.9673543)
(311.2209 2.8966384e-17 -9.7719595)
(309.40185 3.6588942e-17 -8.0434596)
(309.88615 8.9582668e-17 -8.8221814)
(308.20175 4.9954169e-17 -7.0588862)
(308.63106 6.3115739e-17 -7.7797525)
(307.14925 1.3004053e-16 -6.0876456)
(307.51077 1.2916004e-17 -6.7226358)
(306.27328 3.1703823e-17 -5.1928262)
(306.56175 6.501844e-17 -5.727042)
(305.58346 1.5438066e-17 -4.4168746)
(305.79933 -1.4509308e-16 -4.84575)
(305.07819 1.4514883e-16 -3.7834334)
(305.22411 1.0386031e-16 -4.1046367)
(304.73581 5.499352e-17 -3.2707964)
(304.82668 -3.087068e-17 -3.5286541)
(304.54652 -9.9731115e-18 -2.7778773)
(304.54439 0 -3.1043949)
(304.44038 -6.4941256e-17 -2.4563962)
(304.39333 -2.2517674e-17 -2.7536099)
(304.40602 -5.4104365e-17 -2.2564309)
(304.35903 -1.6785486e-16 -2.4351245)
(304.44087 7.0532347e-17 -2.0678958)
(304.39917 1.9926643e-16 -2.1685209)
(304.52258 2.3516383e-17 -1.8398318)
(304.47255 6.3892268e-17 -1.9386255)
(304.61622 -5.1121338e-17 -1.5866982)
(304.56833 -2.6943966e-16 -1.6966266)
(304.69623 9.4712315e-17 -1.2968843)
(304.66701 -1.4824851e-16 -1.430981)
(304.80591 4.8331967e-17 -0.99838302)
(304.72753 -7.0830854e-18 -1.1175833)
(304.81578 -8.3049277e-17 -1.1058792)
(304.91749 -3.1888054e-16 -0.77773549)
(304.90399 3.300885e-17 -0.74595924)
(305.0023 -7.9136542e-18 -0.49906647)
(304.93983 5.9922579e-17 -0.351164)
(304.98239 2.2695251e-16 -0.32228475)
(304.90098 1.0017789e-16 -0.19700335)
(304.92512 1.9156577e-19 -0.21277737)
(304.87808 1.1211394e-16 -0.12023076)
(304.87847 3.1076216e-18 -0.13497929)
(304.87481 8.1058571e-17 -0.10886861)
(215.08954 4.3167484e-19 -7.426004)
(199.14234 -6.6566069e-19 -7.5430292)
(246.43319 1.6271581e-19 -8.6181786)
(235.87739 -1.2519856e-16 -8.6131072)
(270.37832 -7.8522876e-17 -9.5974081)
(260.98113 1.034627e-16 -9.7552226)
(293.04534 -2.6450513e-17 -10.580306)
(283.67512 -8.344619e-17 -10.664036)
(312.81797 8.0515127e-17 -11.521273)
(306.42122 -3.847511e-18 -11.995266)
(321.57837 -7.6914481e-19 -11.940051)
(322.00873 2.0152089e-18 -12.3269)
(322.16648 -2.1997905e-18 -11.975829)
(321.42795 5.4719839e-17 -13.036445)
(322.41171 -4.6509201e-19 -12.001722)
(323.05985 5.7966678e-20 -12.076179)
(322.01973 -2.7122117e-17 -12.007131)
(321.65241 1.1595078e-18 -13.300829)
(322.07947 -1.0425566e-17 -12.033124)
(322.47395 -3.0869285e-17 -12.015377)
(321.81518 2.5904871e-17 -12.052956)
(321.64032 5.2459994e-17 -13.324007)
(321.77062 -9.120362e-19 -12.084571)
(322.0437 -4.7221351e-17 -12.163363)
(321.52758 5.8734387e-18 -12.118531)
(321.48555 1.6123795e-17 -13.235114)
(321.396 1.2631166e-18 -12.159435)
(321.60105 -7.8798402e-18 -12.407147)
(321.14472 -2.2411546e-17 -12.206339)
(321.18833 3.3540991e-18 -13.141944)
(320.92408 -1.1061431e-17 -12.254273)
(321.10521 -9.9588001e-18 -12.657157)
(320.61473 2.7282274e-17 -12.305921)
(320.71879 -2.295034e-17 -13.092638)
(320.29124 2.6722838e-17 -12.355716)
(320.4689 5.1455057e-17 -12.870893)
(319.89794 1.3171993e-17 -12.408625)
(320.04257 -4.7971944e-19 -13.121424)
(319.45703 -1.5149546e-17 -12.480353)
(319.64999 2.0598613e-17 -13.07487)
(318.91304 -5.846872e-18 -12.555232)
(319.12556 5.6950499e-19 -13.229297)
(318.26332 1.5139914e-17 -12.611536)
(318.54714 1.3638077e-17 -13.238424)
(317.49958 -8.4787065e-18 -12.604695)
(317.83612 3.5347303e-17 -13.277237)
(316.62518 3.8673869e-18 -12.506374)
(317.01854 3.9348483e-17 -13.196837)
(315.617 5.7513447e-18 -12.29746)
(316.05729 1.5620476e-17 -13.034416)
(314.47642 -1.4094874e-17 -11.937681)
(314.96163 -2.6022049e-17 -12.713965)
(313.22085 0 -11.395906)
(313.73545 -1.3412136e-19 -12.217127)
(311.89005 5.0240302e-17 -10.65785)
(312.41529 -6.193676e-17 -11.507939)
(310.54161 1.12143e-16 -9.7391333)
(311.05161 -1.1602805e-16 -10.59593)
(309.24223 1.1829714e-16 -8.6887364)
(309.71335 -3.5811121e-17 -9.5180675)
(308.05271 3.1437549e-17 -7.5800875)
(308.46635 -2.8967616e-17 -8.3476046)
(307.01831 -5.6607206e-17 -6.4939189)
(307.36349 -1.4292529e-16 -7.1702954)
(306.16409 -8.856312e-17 -5.4979668)
(306.43718 -2.9180809e-16 -6.0677708)
(305.49648 -8.3216932e-17 -4.6370595)
(305.69892 7.9751478e-17 -5.094607)
(305.00987 -5.6533866e-17 -3.9341403)
(305.14692 1.0638105e-16 -4.2786522)
(304.68895 -8.8747738e-17 -3.3387857)
(304.7624 -5.9371366e-17 -3.6475967)
(304.50319 -1.0033891e-17 -2.8353192)
(304.48968 2.583778e-20 -3.1797844)
(304.40369 -1.0995229e-16 -2.5096506)
(304.35872 -2.1629755e-16 -2.7922778)
(304.38295 4.42535e-17 -2.2727704)
(304.33516 3.4833533e-17 -2.4503232)
(304.42241 2.0769459e-16 -2.0654549)
(304.37935 -1.3814331e-17 -2.1701387)
(304.50586 -1.910628e-16 -1.828489)
(304.4543 2.9444113e-16 -1.9299834)
(304.60167 -3.8013806e-16 -1.5685555)
(304.55292 -2.019186e-16 -1.6817317)
(304.69063 -2.6596964e-16 -1.2770956)
(304.65155 -9.8415316e-20 -1.4115895)
(304.75968 -3.414504e-16 -1.1249334)
(304.73919 -3.3994185e-16 -1.0853074)
(304.84057 -2.8773733e-16 -0.99873339)
(304.93161 7.2248094e-17 -0.74608237)
(304.92109 1.5810944e-16 -0.6508765)
(304.99269 7.7723321e-18 -0.48681872)
(304.93669 1.9244784e-16 -0.34170394)
(304.9697 1.8110959e-16 -0.32135315)
(304.90017 -9.8539767e-17 -0.19442779)
(304.9198 -1.5049502e-16 -0.21518665)
(304.87691 -3.7059657e-17 -0.1199098)
(304.87646 -9.7277462e-17 -0.13644648)
(304.87347 2.2557327e-18 -0.10580408)
(216.67751 -1.1385676e-16 -8.3596568)
(200.67659 2.802437e-20 -8.4311408)
(248.15601 -4.2035489e-17 -9.6839374)
(237.54816 -1.2270517e-16 -9.6400315)
(272.22179 1.1313513e-16 -10.766057)
(262.79959 1.0058205e-16 -10.901431)
(294.9929 -6.7553589e-17 -11.848035)
(285.60557 -6.2033281e-20 -11.895285)
(314.19957 -8.0950198e-17 -12.839176)
(308.39293 -7.5004001e-17 -13.367084)
(321.92646 5.2100394e-17 -13.235853)
(322.58726 -1.2636138e-19 -13.610585)
(322.18579 6.1176309e-17 -13.262791)
(321.44262 5.4256037e-17 -14.382363)
(322.43871 1.5585919e-18 -13.292633)
(323.10377 1.4122108e-18 -13.335451)
(322.04706 0 -13.299201)
(321.66852 -2.4455411e-18 -14.648033)
(322.1115 2.4047616e-17 -13.328201)
(322.51221 0 -13.286298)
(321.84609 -1.1147789e-17 -13.348665)
(321.65588 5.3328425e-17 -14.661347)
(321.80496 -3.5547581e-17 -13.380524)
(322.06981 -7.1774467e-17 -13.448365)
(321.56118 4.5795478e-18 -13.415352)
(321.50674 1.3580564e-17 -14.558711)
(321.42821 -6.7266138e-18 -13.45547)
(321.62223 -1.1323803e-17 -13.701629)
(321.17395 1.6588356e-17 -13.498877)
(321.19978 -1.9915093e-17 -14.44998)
(320.94998 -2.0531199e-17 -13.54585)
(321.11599 -5.0476045e-19 -13.956563)
(320.64221 -5.3270934e-18 -13.594247)
(320.71865 1.0378324e-17 -14.399818)
(320.32658 2.9065929e-17 -13.652169)
(320.47118 2.1210755e-17 -14.195088)
(319.92651 5.0717875e-18 -13.735112)
(320.05694 -3.7295099e-17 -14.45983)
(319.45741 3.76505e-17 -13.812686)
(319.65477 -1.1295953e-17 -14.420967)
(318.88234 1.8553605e-17 -13.881256)
(319.12124 2.5501402e-17 -14.561435)
(318.21662 3.160598e-17 -13.898332)
(318.51593 -1.4384114e-17 -14.549451)
(317.44535 8.1912167e-17 -13.859733)
(317.78377 7.0634714e-17 -14.559954)
(316.54969 5.294665e-17 -13.727587)
(316.93907 -1.1663163e-17 -14.448038)
(315.51397 -1.1897808e-17 -13.466846)
(315.94873 8.1299172e-18 -14.239322)
(314.3446 -1.4627165e-17 -13.034865)
(314.82192 4.0799926e-17 -13.853336)
(313.06259 -5.5425208e-17 -12.399142)
(313.56641 -1.3194257e-19 -13.267804)
(311.71248 -2.2068639e-16 -11.548072)
(312.22291 -7.30472e-18 -12.448881)
(310.35526 -2.6951675e-16 -10.503777)
(310.84619 -1.5487097e-16 -11.411365)
(309.05924 -1.818433e-16 -9.3236529)
(309.5077 -7.8793453e-17 -10.201207)
(307.88409 -1.8996716e-16 -8.0896336)
(308.27311 -9.9375121e-17 -8.9007448)
(306.87176 -3.6067525e-16 -6.8888995)
(307.19241 1.6750418e-17 -7.6033585)
(306.04301 -1.6302346e-16 -5.7933099)
(306.29351 -1.0778093e-16 -6.3953299)
(305.40102 2.6488649e-16 -4.849835)
(305.58385 1.546916e-16 -5.3324005)
(304.93486 1.2106645e-16 -4.0793451)
(305.05866 -1.0887413e-16 -4.4455305)
(304.63244 2.2771446e-17 -3.415332)
(304.68781 2.0094434e-17 -3.7612431)
(304.45371 -1.8101505e-16 -2.8982094)
(304.43248 -2.4536855e-16 -3.2498778)
(304.36711 -1.0051929e-16 -2.5518424)
(304.32159 -2.0401996e-16 -2.8270565)
(304.35657 -1.7378602e-17 -2.2899927)
(304.30868 1.6023939e-16 -2.463617)
(304.40224 3.8285753e-17 -2.0627936)
(304.35758 -2.1199222e-16 -2.1706365)
(304.48827 3.3952129e-16 -1.8164212)
(304.4354 -1.2137584e-18 -1.9207229)
(304.58706 1.5511408e-16 -1.5491682)
(304.53654 2.0256875e-16 -1.6662749)
(304.68701 -3.5402761e-17 -1.2560822)
(304.63641 4.839761e-16 -1.3879306)
(304.75829 2.5528491e-17 -1.1493328)
(304.7576 -1.5254743e-17 -1.051934)
(304.86617 3.7573002e-16 -0.92333592)
(304.93652 3.2897136e-16 -0.71739273)
(304.92512 8.6768268e-18 -0.59521671)
(304.98436 1.5552057e-17 -0.47660575)
(304.9292 -1.2672018e-16 -0.32979445)
(304.96058 -1.8245054e-16 -0.32066598)
(304.897 -1.549258e-16 -0.18669232)
(304.91444 2.6403462e-16 -0.21722625)
(304.8746 -6.8799161e-17 -0.11937077)
(304.87437 -2.0113204e-16 -0.1376057)
(304.8723 7.3605945e-17 -0.10259284)
(218.26908 7.2955088e-19 -9.3190296)
(202.18518 6.7956311e-19 -9.3446015)
(249.89582 -7.3732044e-19 -10.781267)
(239.19979 2.9301738e-20 -10.694374)
(274.10269 -2.153803e-18 -11.97207)
(264.61424 1.7382322e-18 -12.079573)
(296.93266 -1.5223995e-18 -13.156346)
(287.5553 -9.350422e-17 -13.162963)
(315.48389 -1.8826051e-18 -14.191471)
(310.25429 -7.9789083e-17 -14.773694)
(322.21168 -2.2571102e-18 -14.562326)
(323.0366 6.6068686e-17 -14.911502)
(322.21114 0 -14.579992)
(321.44074 5.3801951e-17 -15.753964)
(322.46451 -2.19799e-18 -14.612442)
(323.1338 4.3761075e-20 -14.614418)
(322.06669 -2.636602e-18 -14.618157)
(321.66375 1.4294888e-19 -16.016293)
(322.13093 2.4428558e-17 -14.648541)
(322.53241 -7.033569e-17 -14.575577)
(321.85752 3.9430411e-18 -14.668798)
(321.65102 5.4131622e-17 -16.017499)
(321.81983 -3.0481583e-17 -14.697262)
(322.06415 -1.6116442e-17 -14.753458)
(321.57633 7.2376111e-21 -14.732417)
(321.50663 0 -15.90236)
(321.44044 -2.3534882e-17 -14.772419)
(321.62184 -3.1949099e-17 -15.017357)
(321.18459 -3.8189645e-17 -14.81396)
(321.18631 9.2792356e-19 -15.782912)
(320.96735 2.8861758e-17 -14.85839)
(321.0986 -3.2950485e-17 -15.294888)
(320.66413 3.5452133e-17 -14.931896)
(320.72185 4.4314959e-17 -15.755384)
(320.33246 -3.8943967e-17 -15.011815)
(320.47186 5.7391984e-19 -15.564628)
(319.90743 -5.5447617e-17 -15.097003)
(320.05169 3.9393094e-17 -15.82819)
(319.41566 -2.6229346e-17 -15.166765)
(319.63392 -6.2701072e-17 -15.782277)
(318.83222 -3.4146687e-18 -15.20373)
(319.07756 8.5577684e-18 -15.904374)
(318.16012 1.6650547e-17 -15.203636)
(318.45496 1.5299792e-17 -15.87762)
(317.36517 -1.4079742e-17 -15.138122)
(317.69999 -1.337558e-17 -15.863894)
(316.43968 -5.7382681e-17 -14.967006)
(316.82628 1.2216355e-17 -15.718617)
(315.37248 5.7010932e-17 -14.649035)
(315.80416 1.6253073e-17 -15.458436)
(314.17155 5.8747026e-17 -14.138219)
(314.64395 1.0788253e-16 -15.000453)
(312.86248 4.7912071e-17 -13.401385)
(313.35793 0 -14.318757)
(311.4941 7.1384958e-17 -12.430485)
(311.99161 5.2878657e-17 -13.382627)
(310.13097 2.5971816e-17 -11.25514)
(310.60419 1.4657584e-16 -12.213312)
(308.84253 4.6079455e-18 -9.9420027)
(309.26932 -1.7745731e-16 -10.866689)
(307.68668 9.3502557e-17 -8.5816478)
(308.05188 -1.6856718e-16 -9.434634)
(306.70145 2.7957351e-16 -7.2672931)
(306.99829 -1.0613565e-16 -8.017831)
(305.90302 1.7994232e-16 -6.0742868)
(306.13156 1.5719474e-16 -6.7062727)
(305.2911 -1.8841994e-16 -5.0513667)
(305.45491 -2.9244463e-16 -5.5563954)
(304.84804 -2.2272868e-16 -4.2165506)
(304.95988 -1.9985832e-16 -4.6032294)
(304.56639 -2.174605e-16 -3.491939)
(304.60416 0 -3.8677021)
(304.40087 -2.721287e-16 -2.9600773)
(304.37278 2.863709e-18 -3.3130622)
(304.32989 1.501263e-17 -2.5874156)
(304.28147 -1.842815e-16 -2.8573322)
(304.32804 7.9815218e-18 -2.305813)
(304.28025 -2.5612639e-16 -2.4745663)
(304.38091 -2.7515678e-16 -2.0589506)
(304.33401 -1.2510796e-17 -2.1694654)
(304.47009 -1.6093437e-16 -1.8029453)
(304.4159 -5.7162467e-16 -1.9104988)
(304.5721 4.9924815e-16 -1.5274868)
(304.51923 1.6196826e-16 -1.6498203)
(304.68657 5.6135448e-16 -1.2314825)
(304.62117 2.029207e-17 -1.3595564)
(304.7691 2.521095e-16 -1.1192207)
(304.77637 2.2393048e-16 -1.0170968)
(304.87744 9.7507963e-18 -0.85926383)
(304.93774 1.6988288e-20 -0.69184748)
(304.92838 -1.5391698e-16 -0.55463109)
(304.97644 9.7801309e-20 -0.46764512)
(304.92572 1.603234e-16 -0.32189093)
(304.95314 1.7210199e-16 -0.31995401)
(304.89497 2.7088395e-16 -0.18176813)
(304.9097 1.5190052e-16 -0.21893204)
(304.87309 -8.7795077e-17 -0.11865335)
(304.87226 1.9455603e-16 -0.1384451)
(304.87114 -1.4756036e-16 -0.099237732)
(219.82476 6.5366542e-20 -10.304571)
(203.65455 1.8080947e-16 -10.28385)
(251.60417 2.3107585e-18 -11.906512)
(240.81538 1.323433e-16 -11.776386)
(275.97302 -8.0090469e-17 -13.20836)
(266.411 -2.1764236e-16 -13.289716)
(298.81183 -1.7100902e-16 -14.49522)
(289.52653 3.9708246e-18 -14.465867)
(316.63522 -2.4751968e-17 -15.562291)
(311.97072 -7.7932412e-17 -16.208263)
(322.41451 1.2177845e-16 -15.903864)
(323.37476 1.3369893e-16 -16.225457)
(322.21026 5.8031855e-17 -15.911385)
(321.41296 -2.0473789e-18 -17.144859)
(322.46499 2.3174097e-18 -15.946343)
(323.14842 4.2749598e-20 -15.907059)
(322.06047 -6.047327e-17 -15.950213)
(321.63385 3.7844188e-17 -17.399819)
(322.12721 -5.1059266e-17 -15.981106)
(322.53038 -6.0267931e-17 -15.878754)
(321.83871 4.0066105e-17 -16.004003)
(321.63518 5.937951e-18 -17.390555)
(321.80368 1.240001e-17 -16.037178)
(322.04771 1.12283e-17 -16.077559)
(321.57453 -2.8707732e-17 -16.070906)
(321.47834 0 -17.269595)
(321.44409 -1.0627229e-17 -16.108584)
(321.59152 -3.9345916e-17 -16.367534)
(321.19387 8.7414518e-18 -16.167146)
(321.17326 2.5967405e-17 -17.158561)
(320.96823 -2.4016988e-17 -16.235469)
(321.08814 8.5606114e-19 -16.67889)
(320.64606 1.3751326e-17 -16.314672)
(320.7083 -1.8766626e-17 -17.14681)
(320.29482 7.4067404e-17 -16.398204)
(320.45356 -5.8597154e-19 -16.955953)
(319.85528 4.0694643e-17 -16.468751)
(320.01381 3.6662497e-17 -17.206277)
(319.35911 -3.4556692e-17 -16.519443)
(319.57797 -6.3770497e-17 -17.155116)
(318.7675 2.6339493e-17 -16.549059)
(319.0077 8.9580693e-18 -17.265437)
(318.07221 -1.170819e-17 -16.530824)
(318.36409 -1.6056222e-17 -17.227589)
(317.25161 1.0239013e-17 -16.436578)
(317.58378 -3.5467391e-17 -17.188319)
(316.29511 8.4160304e-17 -16.222266)
(316.67861 -9.4789925e-17 -17.006273)
(315.19414 5.8075432e-17 -15.841175)
(315.6219 8.1229457e-18 -16.689028)
(313.96023 5.9883027e-17 -15.244364)
(314.42614 -5.7248013e-17 -16.151785)
(312.62381 0 -14.398708)
(313.10878 -1.1456982e-17 -15.365783)
(311.23876 1.1821819e-16 -13.300906)
(311.72063 9.2023666e-18 -14.304551)
(309.87297 -2.3162881e-17 -11.989165)
(310.32545 1.4579311e-16 -12.997127)
(308.5965 -3.4939976e-16 -10.540145)
(308.99858 1.8480239e-16 -11.510233)
(307.46483 -3.7219539e-16 -9.0530651)
(307.80338 -1.5791477e-16 -9.9455838)
(306.5115 -2.5393886e-16 -7.626642)
(306.78203 1.9609056e-17 -8.4106476)
(305.74785 -2.6454043e-16 -6.3390221)
(305.95228 -1.1340823e-17 -6.9980962)
(305.16981 -3.1338309e-16 -5.2399187)
(305.31293 -1.3100464e-17 -5.7648749)
(304.75218 0 -4.3451298)
(304.85133 1.3633532e-17 -4.7501821)
(304.49278 2.1874999e-16 -3.5667847)
(304.51263 -2.0693075e-17 -3.9656317)
(304.34402 1.1065759e-16 -3.0124778)
(304.30991 2.6106892e-16 -3.3685265)
(304.28768 -4.4637532e-16 -2.6200262)
(304.23911 1.8665421e-16 -2.8826319)
(304.29793 -3.0355802e-16 -2.3206645)
(304.25013 1.891663e-18 -2.4829321)
(304.35861 -2.452825e-16 -2.053764)
(304.30884 0 -2.166513)
(304.4514 -3.3249022e-16 -1.7882319)
(304.39578 -2.5823782e-16 -1.8992162)
(304.55616 -3.0104216e-16 -1.5044138)
(304.50151 -4.0541217e-17 -1.6321952)
(304.68549 -3.4097945e-16 -1.2024678)
(304.60833 -3.0610663e-16 -1.3274319)
(304.78666 0 -1.0681645)
(304.7926 1.4320479e-17 -0.98104892)
(304.88727 -6.8209664e-18 -0.80482244)
(304.93736 -3.4446418e-16 -0.66896934)
(304.92772 3.0957738e-16 -0.52533168)
(304.96916 -7.7207723e-18 -0.45968532)
(304.92115 1.6627706e-16 -0.31492503)
(304.94644 3.5888012e-16 -0.31928534)
(304.89151 7.0130927e-17 -0.1829642)
(304.90552 -2.6265718e-16 -0.22041862)
(304.87133 1.7328026e-16 -0.11772589)
(304.87018 2.1044268e-16 -0.13901603)
(304.86995 -1.3136319e-17 -0.095731232)
(221.3339 3.1371275e-16 -11.315831)
(205.07029 1.737373e-16 -11.246568)
(253.28198 -5.5334018e-17 -13.06203)
(242.38641 2.6404164e-16 -12.883539)
(277.84428 -1.5274558e-16 -14.479362)
(268.177 -3.2635346e-16 -14.530145)
(300.63421 1.0125002e-16 -15.867807)
(291.51584 9.1768399e-17 -15.804837)
(317.65318 6.0383381e-17 -16.953469)
(313.50211 2.5882411e-18 -17.666797)
(322.54544 2.3320813e-17 -17.261388)
(323.60083 6.3413275e-17 -17.550457)
(322.18554 -5.8861252e-17 -17.259844)
(321.35851 -1.1255689e-16 -18.55521)
(322.44563 3.1792688e-17 -17.294535)
(323.13105 -4.872974e-20 -17.215148)
(322.03045 4.5748171e-17 -17.30066)
(321.59734 8.0701032e-17 -18.80296)
(322.11144 -9.7727436e-18 -17.330916)
(322.49784 3.98732e-18 -17.201622)
(321.83431 -2.265883e-17 -17.356792)
(321.60251 -2.7650723e-17 -18.789813)
(321.80376 -3.0597477e-21 -17.400739)
(322.03266 -5.9407312e-18 -17.431619)
(321.56661 -7.2838867e-18 -17.444566)
(321.44712 0 -18.671348)
(321.43024 -8.7542033e-18 -17.499836)
(321.56803 2.5106647e-17 -17.758574)
(321.16657 2.0269031e-17 -17.566088)
(321.14773 -6.8702203e-17 -18.568269)
(320.92635 7.5694098e-18 -17.639716)
(321.06092 4.4932568e-17 -18.086808)
(320.59041 -3.4269326e-17 -17.716401)
(320.6701 -5.6517732e-17 -18.548737)
(320.23098 -4.0246352e-17 -17.782654)
(320.39699 -1.5387298e-17 -18.356251)
(319.79112 -5.7329465e-17 -17.847951)
(319.94828 9.7577888e-19 -18.598179)
(319.28408 -2.7207466e-17 -17.896253)
(319.49724 1.1805739e-18 -18.54814)
(318.67273 -3.049402e-17 -17.915798)
(318.90956 2.7154371e-17 -18.648849)
(317.95454 -3.7686489e-17 -17.879028)
(318.24218 1.7002797e-18 -18.598591)
(317.1041 -1.3343662e-16 -17.753434)
(317.43359 -3.8368566e-17 -18.531794)
(316.11306 -1.785256e-16 -17.490885)
(316.49399 5.7810553e-18 -18.308708)
(314.97569 -9.9416403e-17 -17.039998)
(315.39992 1.7321255e-17 -17.928022)
(313.70726 -1.315967e-16 -16.349206)
(314.16671 -1.2349417e-16 -17.303447)
(312.34377 -4.2995642e-18 -15.386427)
(312.81764 -2.2931052e-17 -16.404298)
(310.94426 2.3474237e-17 -14.154393)
(311.40935 8.9559734e-18 -15.209716)
(309.57978 3.47362e-16 -12.701069)
(310.01003 2.2380931e-17 -13.757954)
(308.32028 4.0751122e-16 -11.113764)
(308.69612 -2.1967404e-17 -12.12744)
(307.2181 2.1195608e-16 -9.5002)
(307.52865 1.5358906e-16 -10.429854)
(306.30175 2.6288301e-16 -7.9639494)
(306.54483 2.362418e-16 -8.7787031)
(305.57751 2.381684e-16 -6.5852613)
(305.75688 0 -7.2683237)
(305.03685 3.0855795e-16 -5.4132447)
(305.15882 2.6609755e-16 -5.9563547)
(304.65019 -3.2574252e-18 -4.4531208)
(304.73241 2.7322518e-17 -4.8845443)
(304.4131 -9.6837251e-18 -3.6356822)
(304.41533 -3.0967349e-17 -4.0536297)
(304.28769 3.4499139e-16 -3.0565693)
(304.24369 4.9947469e-16 -3.4156558)
(304.24778 6.5379698e-16 -2.6453791)
(304.19464 7.6373464e-16 -2.9024936)
(304.26488 3.0476334e-16 -2.3358325)
(304.21921 8.1459273e-16 -2.4883444)
(304.33497 1.6354699e-17 -2.0467637)
(304.28206 0 -2.161573)
(304.43222 8.6297001e-18 -1.7722316)
(304.3751 2.9620273e-16 -1.8865162)
(304.54099 -1.5073914e-17 -1.4802698)
(304.48442 -4.1890796e-16 -1.6128513)
(304.68548 1.2690129e-17 -1.1695775)
(304.59877 -6.4897357e-16 -1.2926999)
(304.79992 -2.9196989e-16 -1.0198574)
(304.80586 2.1509993e-17 -0.94433073)
(304.89353 -3.8467723e-16 -0.75615513)
(304.93542 -2.394667e-17 -0.64830087)
(304.92658 5.6225303e-21 -0.50193965)
(304.96213 4.922689e-16 -0.45242746)
(304.9176 7.0625452e-21 -0.30921353)
(304.9404 -7.0976345e-16 -0.31856923)
(304.88848 -1.768968e-16 -0.18393036)
(304.90163 0 -0.22171516)
(304.86968 4.8046081e-17 -0.11659461)
(304.86816 -2.0066504e-16 -0.13933743)
(304.86876 1.5908337e-16 -0.092081456)
(222.80891 1.1834666e-16 -12.350457)
(206.45314 1.8422724e-16 -12.233755)
(254.93073 4.5154166e-17 -14.244821)
(243.93049 2.7115647e-16 -14.015685)
(279.71656 -1.1999914e-16 -15.78262)
(269.92154 -2.2054093e-16 -15.800014)
(302.38727 2.3270337e-18 -17.270533)
(293.53751 0 -17.178787)
(318.5254 8.1113188e-19 -18.3618)
(314.8307 -1.1048486e-19 -19.144592)
(322.62733 -5.5605667e-17 -18.635763)
(323.73063 6.8110714e-18 -18.888684)
(322.14937 -6.3880736e-17 -18.628108)
(321.28982 2.3011356e-18 -19.991224)
(322.42328 4.1429903e-17 -18.6623)
(323.07552 -5.0010692e-17 -18.549631)
(322.01304 4.5917705e-17 -18.671266)
(321.54872 8.6811301e-17 -20.24085)
(322.09781 -1.1008159e-17 -18.713429)
(322.47883 -4.7545841e-17 -18.561629)
(321.83355 -1.3016364e-17 -18.750081)
(321.57348 -1.4197029e-17 -20.22645)
(321.7854 -6.4039621e-18 -18.804831)
(322.02075 6.2591841e-18 -18.820733)
(321.52471 2.9666935e-17 -18.853466)
(321.40353 -4.0261324e-17 -20.09964)
(321.3792 -2.6069953e-17 -18.915618)
(321.53228 8.2516531e-17 -19.171014)
(321.10527 -5.3710438e-17 -18.982355)
(321.10026 -2.5254784e-17 -19.9874)
(320.85678 -9.5931481e-18 -19.046429)
(320.99862 -8.6755871e-19 -19.502391)
(320.52112 -4.1392237e-17 -19.116902)
(320.60098 -1.7994764e-17 -19.960402)
(320.15878 2.3637786e-17 -19.186062)
(320.31826 -1.6283418e-17 -19.77416)
(319.70604 5.827213e-17 -19.251522)
(319.85883 3.9304226e-17 -20.012376)
(319.18152 5.2274707e-17 -19.295396)
(319.3898 6.5932449e-17 -19.964458)
(318.5494 6.088884e-17 -19.304586)
(318.78249 8.3079977e-17 -20.054361)
(317.80337 4.4583848e-18 -19.247038)
(318.08809 -1.5653703e-18 -19.990162)
(316.92036 9.4508943e-17 -19.08645)
(317.24793 -1.0098496e-16 -19.892584)
(315.89205 1.9715551e-16 -18.770065)
(316.27071 1.5350139e-16 -19.62331)
(314.71594 6.3140187e-18 -18.241908)
(315.13646 1.8372232e-16 -19.171965)
(313.41196 -2.5745181e-17 -17.448403)
(313.86413 -2.8133677e-17 -18.451121)
(312.02222 -1.282703e-17 -16.359688)