/*--------------------------------*- C++ -*----------------------------------*\
  =========                 |
  \\      /  F ield         | OpenFOAM: The Open Source CFD Toolbox
   \\    /   O peration     | Website:  https://openfoam.org
    \\  /    A nd           | Version:  8
     \\/     M anipulation  |
\*---------------------------------------------------------------------------*/
FoamFile
{
    version     2.0;
    format      ascii;
    class       volScalarField;
    location    "0.0599932";
    object      T;
}
// * * * * * * * * * * * * * * * * * * * * * * * * * * * * * * * * * * * * * //

dimensions      [0 0 0 1 0 0 0];

internalField   nonuniform List<scalar> 
20000
(
298.1093
297.7472
296.5792
294.16842
289.63049
283.29075
282.46429
282.25418
282.75748
282.73508
283.11991
283.22465
283.56748
283.779
284.13466
284.44807
284.8593
285.28089
285.7781
286.31501
286.91841
287.57936
288.3457
289.19243
290.10623
291.07021
292.0708
293.08309
294.07117
294.99894
295.83549
296.56047
297.16431
297.64877
298.02081
298.28782
298.48058
298.61509
298.686
298.69326
298.68068
298.634
298.55832
298.48831
298.359
298.15478
298.06604
298.06075
298.0631
298.06012
298.08218
297.6229
296.35083
293.79451
288.9091
282.81381
282.28983
282.07787
282.58158
282.55658
282.94296
283.0492
283.39486
283.61128
283.97126
284.29209
284.70918
285.13886
285.64303
286.19098
286.81665
287.5303
288.31943
289.17691
290.10141
291.08327
292.10464
293.1334
294.13238
295.06423
295.89867
296.61674
297.21132
297.68603
298.04797
298.30702
298.5063
298.63383
298.6883
298.69764
298.68427
298.6339
298.56285
298.48868
298.28571
298.14399
298.08585
298.07042
298.06799
298.05986
297.97761
297.41431
296.03137
293.31703
288.0448
282.29533
282.10662
281.89523
282.40805
282.38496
282.77783
282.88792
283.23803
283.46046
283.82525
284.15369
284.57606
285.01421
285.52886
286.09667
286.75201
287.48785
288.30065
289.17628
290.12291
291.12831
292.16925
293.21247
294.21909
295.15117
295.97949
296.68706
297.26931
297.73151
298.08135
298.33429
298.52895
298.64644
298.69467
298.70244
298.68711
298.63464
298.56511
298.47148
298.27311
298.14208
298.08696
298.07171
298.06903
298.05964
297.94563
297.25576
295.75904
292.89667
287.23535
281.89051
281.96318
281.74641
282.2635
282.23859
282.63543
282.74756
283.10092
283.32901
283.69781
284.03323
284.46107
284.91096
285.44367
286.04289
286.72474
287.4776
288.30035
289.19759
290.16848
291.19663
292.25705
293.31355
294.32593
295.25587
296.07541
296.76979
297.33719
297.7844
298.12003
298.36709
298.55466
298.66181
298.7035
298.70875
298.69042
298.63644
298.56633
298.44778
298.24961
298.14025
298.09285
298.0757
298.07098
298.05936
297.87269
297.06946
295.4579
292.45082
286.41946
281.54838
281.82979
281.60944
282.13713
282.10941
282.51492
282.62738
282.98356
283.21778
283.59064
283.93489
284.37349
284.84487
285.40308
286.02049
286.71445
287.47678
288.32201
289.24587
290.2422
291.29381
292.37273
293.44068
294.45605
295.38058
296.18791
296.86593
297.41565
297.84515
298.16461
298.40562
298.58117
298.67717
298.71326
298.71599
298.69383
298.63973
298.56719
298.42034
298.23831
298.13825
298.0944
298.07824
298.07261
298.059
297.8445
296.91051
295.1701
292.01037
285.64619
281.28022
281.72688
281.50042
282.03883
282.00892
282.41389
282.53554
282.88908
283.1302
283.50937
283.86818
284.32608
284.817
285.3858
286.01393
286.71748
287.50331
288.37213
289.3219
290.34395
291.41844
292.51474
293.59203
294.60754
295.5234
296.31527
296.97395
297.50332
297.91263
298.21456
298.44831
298.60954
298.69377
298.72329
298.72404
298.69751
298.64392
298.5677
298.39384
298.22589
298.13664
298.09656
298.08044
298.07444
298.05857
297.8124
296.75532
294.87761
291.55533
284.92043
281.07499
281.65478
281.41532
281.9619
281.93328
282.33315
282.45403
282.82135
283.07316
283.46477
283.83965
284.30605
284.80716
285.38273
286.02336
286.74841
287.55582
288.45012
289.42691
290.47492
291.57188
292.68404
293.76818
294.7806
295.68427
296.45725
297.09359
297.59987
297.98659
298.27054
298.49437
298.63941
298.71143
298.73426
298.73287
298.70147
298.64786
298.56389
298.36981
298.21668
298.13512
298.0979
298.08225
298.07608
298.05812
297.80742
296.62072
294.59023
291.08286
284.2608
280.92415
281.58932
281.35715
281.89415
281.87762
282.27462
282.41049
282.78602
283.04867
283.44578
283.82902
284.30023
284.80912
285.39894
286.05962
286.80468
287.63698
288.55751
289.56162
290.63554
291.75405
292.88019
293.96833
294.97416
295.862
296.61273
297.22377
297.70421
298.06623
298.33287
298.54259
298.67048
298.73065
298.74624
298.74143
298.70591
298.65027
298.55457
298.34938
298.20853
298.13421
298.09937
298.08399
298.07762
298.05765
297.80507
296.49178
294.29863
290.57575
283.67048
280.81188
281.53841
281.31165
281.84939
281.83102
282.2488
282.38873
282.77082
283.04032
283.44009
283.83
284.3094
284.83468
285.44044
286.12096
286.88897
287.74665
288.69454
289.72654
290.82621
291.96513
293.103
294.19193
295.18743
296.05568
296.78078
297.36357
297.81544
298.15101
298.40127
298.59241
298.70217
298.74968
298.75998
298.75077
298.71115
298.65171
298.53914
298.33247
298.20193
298.13357
298.10077
298.08566
298.07907
298.05714
297.82101
296.37787
294.01442
290.03559
283.16331
280.73719
281.51269
281.28551
281.83231
281.82218
282.23938
282.38065
282.76697
283.04242
283.44766
283.85097
284.34254
284.88372
285.50722
286.20962
287.00133
287.8859
288.862
289.92218
291.04714
292.20491
293.35185
294.43798
295.41921
296.26407
296.96017
297.51175
297.93248
298.24061
298.47447
298.64345
298.73424
298.76968
298.77513
298.76098
298.71758
298.65282
298.5191
298.31794
298.19604
298.13306
298.10239
298.08738
298.08043
298.0566
297.84154
296.27181
293.73583
289.4568
282.74855
280.69466
281.51082
281.28244
281.83299
281.82591
282.24403
282.39354
282.7769
283.06426
283.4781
283.89486
284.39916
284.95826
285.60054
286.3257
287.14261
288.05502
289.06017
290.14874
291.29826
292.473
293.62593
294.70541
295.66825
296.48585
297.14956
297.66699
298.05444
298.33522
298.55097
298.69501
298.76642
298.79059
298.79118
298.77078
298.72537
298.65389
298.49682
298.30418
298.19059
298.1326
298.10416
298.08938
298.08168
298.05602
297.87015
296.17131
293.46238
288.836
282.39904
280.67691
281.52023
281.27536
281.84477
281.83102
282.26638
282.42512
282.8101
283.10906
283.53147
283.96287
284.48094
285.05855
285.7209
286.47009
287.31333
288.25465
289.28949
290.40638
291.57939
292.76875
293.92419
294.99286
295.93305
296.71946
297.34739
297.82787
298.18062
298.43527
298.62871
298.74631
298.79861
298.8132
298.80758
298.78106
298.7342
298.6542
298.47352
298.29082
298.18536
298.13221
298.10603
298.0919
298.08289
298.05539
297.90185
296.07853
293.19958
288.18399
282.1281
280.69034
281.54954
281.30614
281.87153
281.86415
282.30782
282.47528
282.86675
283.1775
283.60893
284.0554
284.58806
285.18527
285.86878
286.64308
287.51386
288.48499
289.55005
290.69498
291.89006
293.09129
294.2454
295.29884
296.21197
296.96317
297.55198
297.99316
298.31071
298.54035
298.7058
298.79683
298.83116
298.83747
298.82383
298.79118
298.7432
298.65205
298.45013
298.27792
298.18037
298.13189
298.10802
298.0949
298.08398
298.05471
297.95456
296.00216
292.95365
287.5182
281.937
280.73667
281.58994
281.35845
281.91949
281.92958
282.36884
282.5496
282.94587
283.26915
283.7103
284.17271
284.72099
285.33867
286.0446
286.84517
287.74461
288.74639
289.84198
291.01434
292.22963
293.43951
294.58806
295.6216
296.50307
297.21503
297.76168
298.16199
298.44466
298.64776
298.7815
298.84641
298.86511
298.8624
298.83994
298.80119
298.75079
298.64622
298.42759
298.26567
298.17562
298.13164
298.11022
298.09828
298.0849
298.05396
298.01522
295.93095
292.71192
286.84192
281.8161
280.796
281.65315
281.43189
281.99639
282.01382
282.45506
282.64517
283.04768
283.38438
283.83592
284.31505
284.8799
285.51909
286.24858
287.07651
288.0057
289.03885
290.16511
291.364
292.59722
293.81214
294.95056
295.95924
296.80425
297.47309
297.97516
298.33389
298.58225
298.75464
298.85496
298.8954
298.901
298.88713
298.85592
298.81113
298.75481
298.63539
298.40689
298.25431
298.17122
298.13162
298.11262
298.10193
298.08528
298.05316
298.0908
295.87058
292.47375
286.17298
281.76354
280.8753
281.74522
281.52284
282.09516
282.12412
282.56219
282.76386
283.17251
283.52319
283.98588
284.48248
285.065
285.72671
286.48101
287.3374
288.29734
289.36246
290.51925
291.74337
292.99177
294.20764
295.33094
296.30946
297.11319
297.73558
298.19155
298.5085
298.72192
298.85825
298.92617
298.94541
298.93723
298.91152
298.87185
298.82156
298.75729
298.61906
298.38859
298.24407
298.16725
298.13189
298.1152
298.10578
298.08541
298.0523
298.18508
295.8226
292.23721
285.53291
281.77205
280.98031
281.85825
281.63674
282.21658
282.24742
282.69156
282.90486
283.32012
283.68558
284.1602
284.67517
285.27643
285.96166
286.74196
287.62786
288.61951
289.71704
290.90401
292.15166
293.41206
294.62433
295.72711
296.66988
297.4278
298.00133
298.41036
298.68496
298.85982
298.95798
298.9959
298.99684
298.97277
298.93527
298.88781
298.83321
298.75902
298.59849
298.37191
298.23511
298.164
298.13246
298.11783
298.10968
298.08539
298.05138
298.29411
295.78358
291.99194
284.93311
281.83282
281.10455
281.99245
281.77095
282.3582
282.39519
282.84227
283.06824
283.4906
283.87154
284.359
284.8931
285.51426
286.22405
287.03156
287.94804
288.97226
290.10247
291.31889
292.58793
293.85658
295.06016
296.13653
297.03792
297.74641
298.26966
298.63073
298.86088
298.99309
299.05384
299.06606
299.04769
299.00736
298.95815
298.90369
298.8467
298.7605
298.57522
298.35603
298.22758
298.16215
298.13336
298.12037
298.11337
298.08529
298.0504
298.41972
295.75785
291.7355
284.39945
281.94312
281.24958
282.147
281.92605
282.51819
282.5632
283.01452
283.25395
283.68392
284.08109
284.58222
285.13635
285.77848
286.51386
287.34977
288.29787
289.35545
290.51843
291.76325
293.05109
294.32372
295.51296
296.55663
297.41142
298.06819
298.53993
298.8505
299.03218
299.12113
299.14756
299.13617
299.09711
299.04065
298.9799
298.91919
298.86149
298.76114
298.55033
298.34078
298.22109
298.16115
298.13462
298.12286
298.11671
298.08513
298.04938
298.55552
295.74231
291.45823
283.94869
282.09743
281.41398
282.32062
282.10174
282.69665
282.75321
283.20836
283.46198
283.90006
284.3141
284.82984
285.40477
286.06908
286.83113
287.69668
288.67741
289.76899
290.96456
292.23629
293.53977
294.81146
295.98008
296.98462
297.78872
298.39257
298.81016
299.06551
299.19705
299.2445
299.24085
299.20414
299.14475
299.07242
299.00039
298.93382
298.87497
298.75909
298.52486
298.32621
298.21527
298.16065
298.13648
298.12558
298.11955
298.08493
298.04834
298.69978
295.73888
291.15965
283.55787
282.25398
281.59947
282.51184
282.29865
282.89645
282.96443
283.42354
283.69202
284.13873
284.57036
285.10167
285.69833
286.38597
287.17579
288.07221
289.08656
290.21267
291.44038
292.73716
294.05253
295.31765
296.4588
297.41823
298.16914
298.71825
299.07608
299.27315
299.35517
299.36575
299.33148
299.26967
299.19026
299.10245
299.01961
298.94738
298.88326
298.7532
298.49991
298.31246
298.20992
298.16037
298.13909
298.12907
298.12183
298.08469
298.04727
298.85053
295.74742
290.84148
283.24153
282.45749
281.80471
282.72124
282.51557
283.11578
283.1964
283.65957
283.94367
284.39974
284.84968
285.39759
286.01682
286.72908
287.54789
288.47646
289.52535
290.68631
291.94537
293.26473
294.58751
295.83963
296.94622
297.8557
298.5521
299.04131
299.33387
299.47201
299.50877
299.48389
299.41857
299.33221
299.23339
299.1306
299.03769
298.96027
298.88751
298.74172
298.47673
298.29969
298.20518
298.161
298.14258
298.13374
298.12305
298.08443
298.04617
298.99996
295.76231
290.50276
282.99716
282.67663
282.02852
282.94963
282.75214
283.35458
283.4487
283.91621
284.21674
284.68285
285.15184
285.71739
286.36021
287.09842
287.94747
288.90947
289.99374
291.18968
292.4789
293.81782
295.1427
296.37472
297.43991
298.29628
298.93584
299.35661
299.58089
299.66334
299.65909
299.5969
299.50169
299.39153
299.27392
299.15674
299.05485
298.97342
298.88983
298.7238
298.45606
298.28816
298.20115
298.16242
298.14695
298.13952
298.1237
298.08413
298.04503
299.14859
295.78765
290.1512
282.82416
282.91969
282.27144
283.19609
283.00802
283.61248
283.72108
284.19326
284.51095
284.98788
285.4766
286.06097
286.72846
287.49409
288.37473
289.37139
290.49175
291.72247
293.04015
294.39482
295.71557
296.91989
297.93785
298.73928
299.31486
299.66063
299.81655
299.85018
299.80296
299.70468
299.58045
299.44737
299.31166
299.18071
299.07119
298.98793
298.89141
298.70074
298.43691
298.27813
298.1983
298.16433
298.15175
298.146
298.124
298.08353
298.04386
299.28213
295.81662
289.78769
282.724
283.17922
282.53196
283.45982
283.28303
283.8893
284.01347
284.49048
284.82599
285.31453
285.8238
286.42833
287.12176
287.91634
288.8299
289.86237
291.01934
292.28433
293.62824
294.99399
296.30353
297.47256
298.439
299.18281
299.68353
299.95083
300.04417
300.03029
299.93995
299.80661
299.65462
299.4996
299.34646
299.2024
299.08651
299.00372
298.89239
298.67413
298.41858
298.26957
298.19685
298.16649
298.15653
298.15246
298.12412
298.0826
298.04266
299.41348
295.85358
289.4265
282.7045
283.45809
282.81191
283.74267
283.57712
284.18495
284.32524
284.80741
285.16145
285.66266
286.19353
286.81973
287.54043
288.36552
289.31333
290.38261
291.57647
292.87474
294.2419
295.61304
296.90355
298.03032
298.94249
299.6207
300.03801
300.22735
300.26574
300.20142
300.06941
299.9025
299.72399
299.54803
299.3781
299.22169
299.10029
299.01791
298.89047
298.64532
298.40106
298.26224
298.19606
298.16886
298.16067
298.15812
298.12412
298.08146
298.04144
299.53085
295.88612
289.07204
282.7591
283.75141
283.10859
284.04165
283.88908
284.49827
284.65587
285.14381
285.51739
286.03259
286.58622
287.23567
287.98496
288.84204
289.8253
290.93228
292.16304
293.49317
294.87974
296.24959
297.51292
298.59168
299.44667
300.0469
300.37558
300.49437
300.47764
300.36335
300.19106
299.99211
299.78843
299.59243
299.40632
299.23855
299.1123
299.02552
298.88567
298.61559
298.38469
298.2561
298.19573
298.17168
298.16397
298.16215
298.12404
298.08019
298.0402
299.63842
295.91141
288.73964
282.88275
284.06082
283.42285
284.35732
284.21913
284.82953
285.00566
285.50016
285.89441
286.42501
287.00249
287.67663
288.45578
289.34632
290.36619
291.51154
292.77886
294.13873
295.53981
296.90065
298.12887
299.1554
299.94582
300.45672
300.69667
300.75282
300.67814
300.51544
300.30463
300.07531
299.84778
299.63249
299.43086
299.25312
299.12314
299.02931
298.87651
298.58643
298.36982
298.25134
298.19674
298.17522
298.16706
298.16432
298.12388
298.07881
298.03896
299.73702
295.92432
288.44367
283.0681
284.38592
283.75388
284.69
284.56733
285.17934
285.37534
285.87744
286.29333
286.84056
287.44282
288.14307
288.95338
289.87878
290.93634
292.12053
293.4237
294.81042
296.22003
297.56346
298.74938
299.72035
300.43332
300.84681
301.00558
300.99924
300.86682
300.6575
300.41001
300.15203
299.9019
299.66799
299.45184
299.26571
299.13379
299.03095
298.86126
298.55967
298.35668
298.24782
298.19892
298.17961
298.17117
298.16541
298.12304
298.07733
298.0377
299.82767
295.91605
288.19215
283.30746
284.72676
284.10289
285.04027
284.93529
285.54906
285.76623
286.27651
286.71468
287.27962
287.90759
288.63541
289.47822
290.43992
291.53612
292.75936
294.09706
295.5067
296.9176
298.23506
299.37261
300.28229
300.90316
301.21655
301.30396
301.23149
301.04318
300.78929
300.50715
300.22222
299.95063
299.69902
299.47004
299.27686
299.14468
299.03171
298.83887
298.53647
298.3454
298.24545
298.20174
298.18472
298.17715
298.16589
298.12161
298.07577
298.03646
299.9151
295.88354
287.9954
283.59561
285.08651
284.47254
285.41049
285.32466
285.93964
286.17853
286.69747
287.15843
287.74235
288.39711
289.15411
290.03091
291.03024
292.16592
293.42806
294.79837
296.22582
297.62989
298.91309
299.9975
300.834
301.35149
301.57035
301.58814
301.44924
301.207
300.91079
300.59608
300.28585
299.99395
299.72635
299.48679
299.28708
299.15425
299.03017
298.81169
298.51523
298.3357
298.24421
298.20492
298.19039
298.18431
298.16613
298.11976
298.0741
298.03521
300.00578
295.82829
287.86678
283.90547
285.46614
284.86344
285.80054
285.73452
286.35028
286.61155
287.13992
287.62466
288.22912
288.91197
289.69994
290.61216
291.65037
292.82609
294.12655
295.52651
296.96541
298.35373
299.59508
300.62152
301.36797
301.77554
301.91157
301.85542
301.65194
301.35815
301.02204
300.67687
300.3429
300.03208
299.75116
299.50267
299.29644
299.15903
299.02562
298.78143
298.49532
298.32726
298.2436
298.20821
298.19569
298.19072
298.16626
298.11764
298.07235
298.03399
300.10209
295.74683
287.8091
284.2477
285.86251
285.2722
286.20791
286.16298
286.78014
287.0651
287.60427
288.114
288.74066
289.45304
290.27365
291.22268
292.30085
293.51696
294.8546
296.28025
297.72299
299.08659
300.27929
301.23828
301.87951
302.17925
302.23667
302.10532
301.83944
301.49669
301.1232
300.74963
300.39343
300.06557
299.77421
299.51558
299.30387
299.1607
299.01831
298.74936
298.47672
298.32015
298.2434
298.21155
298.19982
298.19546
298.16629
298.1153
298.07055
298.03278
300.19742
295.63594
287.82174
284.67334
286.2742
285.69844
286.6328
286.61101
287.23017
287.54032
288.09162
288.62742
289.27796
290.0212
290.8761
291.86325
292.98227
294.23875
295.61158
297.0576
298.4955
299.82563
300.96378
301.83971
302.36425
302.56623
302.54288
302.33723
302.01165
301.62275
301.21444
300.81441
300.43768
300.09527
299.79423
299.52091
299.30685
299.16088
299.00809
298.71651
298.45979
298.31486
298.2446
298.21503
298.20277
298.19783
298.16602
298.11281
298.06871
298.03159
300.28687
295.50107
287.90673
285.08228
286.70326
286.14424
287.07735
287.08057
287.70192
288.03834
288.60296
289.16581
289.84186
290.61736
291.50813
292.53459
293.69519
294.99158
296.39668
297.85642
299.28018
300.56861
301.64506
302.41869
302.82291
302.93626
302.82844
302.55107
302.1687
301.7366
301.29598
300.87138
300.4762
300.12208
299.8073
299.52281
299.30753
299.16044
298.99407
298.6844
298.44486
298.3112
298.24687
298.21884
298.20541
298.19898
298.16489
298.1102
298.06686
298.03042
300.37592
295.35557
288.06198
285.5129
287.15291
286.61152
287.54307
287.57239
288.19631
288.55976
289.13907
289.73
290.43331
291.24243
292.17061
293.23748
294.44007
295.77525
297.20841
298.67382
300.07393
301.31294
302.31462
302.97027
303.25951
303.28559
303.09303
302.74677
302.31086
301.83855
301.36797
300.92083
300.50983
300.14596
299.81285
299.52287
299.30688
299.15822
298.97453
298.65518
298.43212
298.30878
298.24969
298.2231
298.20907
298.1995
298.16295
298.10751
298.06501
298.02928
300.45712
295.2094
288.28593
285.97146
287.62311
287.10015
288.02988
288.08648
288.7137
289.10526
289.70074
290.32095
291.05321
291.8974
292.86444
293.97269
295.21738
296.58945
298.0451
299.50706
300.8741
302.05638
302.96436
303.49108
303.67795
303.61099
303.33644
302.92458
302.43851
301.92888
301.43062
300.96344
300.53965
300.1639
299.81501
299.52225
299.30557
299.15264
298.94854
298.63043
298.42152
298.30738
298.25262
298.22777
298.21437
298.19974
298.1603
298.10477
298.06316
298.02817
300.54078
295.0689
288.57174
286.4496
288.11334
287.61072
288.53816
288.62367
289.25507
289.67569
290.28908
290.9396
291.70261
292.5833
293.59058
294.74103
296.02738
297.43324
298.90424
300.35287
301.67754
302.79301
303.58684
303.98428
304.07383
303.91231
303.55867
303.08484
302.55202
302.00781
301.48436
301.00026
300.56624
300.17184
299.81562
299.52008
299.30317
299.14364
298.9187
298.60864
298.41267
298.30669
298.25548
298.23214
298.21999
298.1999
298.15707
298.10197
298.06133
298.02709
300.61703
294.92926
288.92224
286.95299
288.62297
288.14439
289.0685
289.185
289.82146
290.2721
290.90501
291.58699
292.38258
293.30122
294.35005
295.54323
296.87017
298.30539
299.78328
301.20846
302.48186
303.51412
304.1769
304.45412
304.44426
304.1891
303.76002
303.22803
302.65175
302.07568
301.53013
301.03254
300.58777
300.17536
299.81478
299.51607
299.29895
299.13125
298.88691
298.58898
298.40525
298.30638
298.25821
298.23516
298.22299
298.2
298.15344
298.09915
298.05952
298.02604
300.70494
294.80594
289.32033
287.4832
289.15446
288.70194
289.6228
289.77131
290.4138
290.89528
291.54949
292.26422
293.0943
294.05239
295.14391
296.38
297.74533
299.20386
300.67879
302.07032
303.28336
304.21042
304.73303
304.90086
304.78678
304.44141
303.94087
303.35458
302.73799
302.13318
301.56943
301.06095
300.59864
300.1766
299.81114
299.51045
299.29303
299.11585
298.85428
298.57108
298.39928
298.30683
298.26067
298.23707
298.22456
298.19955
298.14955
298.09632
298.05772
298.02502
300.81067
294.70408
289.76603
288.03833
289.70787
289.28427
290.20112
290.38311
291.03279
291.54611
292.2237
292.97265
293.83921
294.83815
295.9733
297.25184
298.65221
300.12639
301.58781
302.93514
304.07477
304.87491
305.25928
305.32058
305.10139
304.66954
304.1018
303.46496
302.81135
302.18174
301.6037
301.08384
300.60364
300.17634
299.80515
299.50328
299.28532
299.09782
298.8216
298.5549
298.39458
298.30782
298.26311
298.23853
298.22524
298.19832
298.14551
298.09348
298.05596
298.02403
300.93692
294.62436
290.24771
288.61849
290.28301
289.89187
290.8038
291.02122
291.67953
292.22595
292.9292
293.71394
294.61888
295.65998
296.8393
298.15891
299.58926
301.06979
302.50673
303.79921
304.84566
305.50158
305.76042
305.70923
305.38784
304.87391
304.24332
303.55968
302.87307
302.22334
301.63302
301.09566
300.60561
300.17268
299.79689
299.49469
299.27575
299.07744
298.7898
298.54052
298.39089
298.3089
298.2658
298.24048
298.22554
298.19626
298.14139
298.09067
298.05422
298.02308
301.09067
294.57167
290.76901
289.2237
290.88014
290.52545
291.43227
291.68715
292.35579
292.93661
293.66785
294.48991
295.43501
296.51933
297.7428
299.101
300.55457
302.03094
303.43209
304.65843
305.58643
306.09227
306.23298
306.06629
305.64653
305.05519
304.36608
303.63972
302.9252
302.25923
301.65433
301.10113
300.60597
300.16624
299.78662
299.48469
299.26408
299.05465
298.75995
298.52814
298.3881
298.3098
298.26825
298.24329
298.22563
298.19338
298.13725
298.0879
298.0525
298.02216
301.27666
294.57348
291.32563
289.85563
291.50087
291.18765
292.08826
292.38308
293.06359
293.68008
294.4416
295.30251
296.28932
297.41766
298.68445
300.07713
301.54529
303.0059
304.35919
305.5025
306.28957
306.65078
306.67309
306.39125
305.8778
305.214
304.47088
303.70679
302.96972
302.28775
301.664
301.10335
300.60296
300.15703
299.77454
299.47327
299.24994
299.02888
298.73335
298.51786
298.38637
298.31138
298.27045
298.24511
298.22568
298.18976
298.13311
298.08516
298.0508
298.02128
301.50438
294.60342
291.92156
290.51782
292.14807
291.88101
292.77412
293.11081
293.80511
294.45834
295.25264
296.15367
297.18372
298.35626
299.66449
301.08584
302.55829
303.99113
305.28401
306.32111
306.95099
307.1801
307.07724
306.68449
306.08243
305.35119
304.55916
303.76334
303.00652
302.30356
301.66814
301.10364
300.5969
300.14537
299.76081
299.46036
299.23314
298.99994
298.71102
298.50954
298.38542
298.3134
298.27211
298.24568
298.2254
298.18569
298.12895
298.08247
298.04915
298.02044
301.7652
294.64553
292.55239
291.21105
292.82193
292.60722
293.49112
293.87265
294.58228
295.27384
296.10301
297.04578
298.1199
299.33637
300.68254
302.12457
303.58953
304.98161
306.19952
307.10301
307.5734
307.67483
307.44532
306.9463
306.26115
305.46785
304.63294
303.81109
303.03157
302.3104
301.66939
301.10034
300.58785
300.13149
299.74559
299.44587
299.2138
298.96979
298.69201
298.50287
298.38466
298.31428
298.27294
298.24577
298.2245
298.18138
298.12478
298.07983
298.04753
298.01962
302.07111
294.7227
293.22314
291.93918
293.5259
293.36766
294.24268
294.67031
295.39789
296.12893
296.9953
297.98085
299.09973
300.35844
301.73739
303.19035
304.63505
305.97242
307.09408
307.84116
308.16217
308.13089
307.77726
307.17753
306.41509
305.56579
304.69455
303.84858
303.04296
302.31262
301.66784
301.09382
300.57613
300.11563
299.72899
299.42972
299.19227
298.94022
298.67525
298.49717
298.38388
298.3146
298.27325
298.24571
298.22295
298.17665
298.12067
298.07724
298.04596
298.01887
302.42434
294.83239
293.92694
292.70148
294.26155
294.16457
295.0306
295.5065
296.25465
297.02642
297.93198
298.96125
300.12443
301.42264
302.82688
304.279
305.68966
306.95728
307.95562
308.53372
308.7149
308.5462
308.07339
307.37902
306.54562
305.64739
304.74529
303.86938
303.04731
302.3117
301.66218
301.08423
300.56196
300.09802
299.71111
299.41189
299.16902
298.91215
298.66009
298.49198
298.38302
298.31479
298.27329
298.24565
298.22069
298.17157
298.11662
298.0747
298.04442
298.01811
302.82451
294.9814
294.67043
293.50217
295.03288
295.00116
295.85847
296.38414
297.15578
297.96936
298.91567
299.98884
301.1951
302.52783
303.9481
305.38607
306.74766
307.92674
308.77351
309.18494
309.22688
308.92073
308.33451
307.55212
306.65482
305.71498
304.78315
303.8785
303.04763
302.30616
301.65319
301.07188
300.5456
300.07886
299.69201
299.39242
299.14454
298.88597
298.64612
298.48709
298.38208
298.31483
298.27316
298.2456
298.21769
298.16651
298.11262
298.07223
298.0429
298.01739
303.2738
295.19528
295.45304
294.34331
295.84169
295.88048
296.73019
297.30632
298.10444
298.96062
299.94872
301.06533
302.31179
303.67253
305.09698
306.50616
307.80194
308.86686
309.54073
309.79851
309.69296
309.25458
308.56157
307.69845
306.7452
305.76928
304.80257
303.88158
303.04296
302.29654
301.64102
301.05708
300.52728
300.05831
299.67177
299.37143
299.11923
298.86164
298.63324
298.48239
298.38115
298.31481
298.27289
298.24531
298.21402
298.16144
298.10871
298.06983
298.04143
298.01669
303.76442
295.4764
296.27407
295.22784
296.69293
296.80487
297.64971
298.27659
299.10356
300.00309
301.03301
302.19184
303.4742
304.85357
306.26871
307.63323
308.84486
309.7645
310.2597
310.36814
310.11344
309.54859
308.75618
307.82041
306.81931
305.80724
304.81092
303.8798
303.03303
302.28316
301.62612
301.04012
300.50726
300.03652
299.65043
299.3491
299.09338
298.83856
298.62165
298.47791
298.3801
298.31462
298.27256
298.24457
298.20989
298.15631
298.10491
298.06748
298.04003
298.01602
304.29507
295.83254
297.1381
296.16041
297.59322
297.77661
298.62127
299.29745
300.15622
301.09862
302.17051
303.36896
304.68062
306.06724
307.4573
308.75885
309.86154
310.60911
310.93529
310.88815
310.48777
309.80373
308.92022
307.92068
306.87796
305.82685
304.81311
303.8713
303.0186
302.26651
301.6088
301.02127
300.48575
300.01359
299.62803
299.32561
299.06733
298.81674
298.61061
298.474
298.37895
298.31431
298.27233
298.24323
298.20541
298.15122
298.10122
298.06519
298.03867
298.01537
304.85864
296.2841
298.04588
297.1453
298.54509
298.79998
299.64744
300.372
301.26448
302.24985
303.36261
304.59664
305.92855
307.30789
308.65585
309.87461
310.83803
311.399
311.56395
311.35673
310.81693
310.02183
309.05641
308.0021
306.91713
305.83529
304.8087
303.85736
303.0001
302.247
301.58941
301.00083
300.463
299.98965
299.60459
299.30114
299.04131
298.79606
298.60028
298.47044
298.37796
298.31397
298.272
298.24121
298.20053
298.14624
298.09762
298.06295
298.03733
298.01474
305.44425
296.84695
298.99777
298.18346
299.55112
299.87586
300.73061
301.50291
302.4313
303.45931
304.61093
305.8737
307.21356
308.56927
309.85513
310.9672
311.75972
312.13747
312.13898
311.77329
311.10178
310.20505
309.16757
308.06578
306.93728
305.83665
304.79721
303.83839
302.97813
302.22506
301.56825
300.97905
300.4392
299.96482
299.58014
299.27581
299.0155
298.7764
298.5906
298.46717
298.37734
298.3136
298.27149
298.23855
298.19529
298.14133
298.09413
298.06074
298.03602
298.01412
306.04379
297.54329
299.99621
299.27551
300.61396
301.00717
301.87461
302.6946
303.66068
304.73001
305.91561
307.1974
308.53008
309.84285
311.04493
312.02021
312.6203
312.82556
312.65609
312.13859
311.3444
310.35651
309.25688
308.10689
306.94591
305.83003
304.77974
303.81516
302.95319
302.20106
301.54563
300.95617
300.41457
299.93921
299.55477
299.24973
298.99001
298.75769
298.58154
298.46424
298.37698
298.31331
298.27076
298.23533
298.18979
298.13644
298.09084
298.05856
298.03474
298.01352
306.63485
298.39718
301.04481
300.42338
301.73609
302.19994
303.08569
303.95296
304.95687
306.06354
307.27572
308.56289
309.87005
311.11893
312.2122
313.01603
313.42147
313.45469
313.11469
312.45357
311.54727
310.47921
309.32597
308.12771
306.94642
305.81585
304.75696
303.78826
302.92576
302.17537
301.52181
300.93243
300.38928
299.91295
299.52859
299.22308
298.9649
298.73992
298.57305
298.46166
298.3768
298.31312
298.26973
298.23161
298.18416
298.13156
298.08775
298.05639
298.03349
298.01292
307.19521
299.44823
302.16002
301.64282
302.92387
303.46261
304.37141
305.28332
306.32265
307.46015
308.68713
309.96325
311.22391
312.38402
313.33782
313.94458
314.16716
314.01869
313.51527
312.72062
311.71419
310.57642
309.36949
308.13649
306.9377
305.79525
304.72972
303.75833
302.89628
302.14831
301.49707
300.90806
300.3635
299.88614
299.50173
299.19605
298.94029
298.72304
298.56508
298.4594
298.37682
298.313
298.26833
298.22741
298.17849
298.12681
298.08476
298.05426
298.03225
298.01232
307.76239
300.73879
303.33796
302.95613
304.19089
304.80492
305.74217
306.68782
307.7585
308.91711
310.1442
311.38837
312.57889
313.62387
314.40268
314.80575
314.84678
314.51674
313.85879
312.94259
311.84862
310.65036
309.39116
308.13595
306.92086
305.76908
304.69874
303.72592
302.8652
302.12021
301.47166
300.88326
300.33738
299.85885
299.47428
299.16878
298.91627
298.70706
298.55764
298.45749
298.37713
298.31289
298.26655
298.22278
298.17279
298.12223
298.0818
298.05221
298.03101
298.01172
308.38464
302.0337
304.59078
304.36948
305.55091
306.24326
307.17884
308.16697
309.26332
310.42982
311.63715
312.82658
313.91954
314.81659
315.39317
315.60389
315.45296
314.94916
314.14813
313.12376
311.95366
310.69592
309.40008
308.12498
306.89717
305.73833
304.66475
303.69156
302.83289
302.09135
301.44581
300.85825
300.31108
299.83119
299.44633
299.14143
298.89291
298.69195
298.55069
298.45595
298.3778
298.31277
298.26441
298.21775
298.16699
298.11779
298.07887
298.05023
298.02976
298.0111
309.09466
303.51402
305.92154
305.87014
306.991
307.73843
308.70614
309.72595
310.83349
311.98926
313.15401
314.26121
315.2276
315.94147
316.30809
316.32646
315.98446
315.31696
314.38663