/*--------------------------------*- C++ -*----------------------------------*\
  =========                 |
  \\      /  F ield         | OpenFOAM: The Open Source CFD Toolbox
   \\    /   O peration     | Website:  https://openfoam.org
    \\  /    A nd           | Version:  8
     \\/     M anipulation  |
\*---------------------------------------------------------------------------*/
FoamFile
{
    version     2.0;
    format      ascii;
    class       volVectorField;
    location    "0.0599932";
    object      U;
}
// * * * * * * * * * * * * * * * * * * * * * * * * * * * * * * * * * * * * * //

dimensions      [0 1 -1 0 0 0 0];

internalField   nonuniform List<vector> 
20000
(
(198.63651 0 -5.5287685)
(235.2604 -2.3823641e-16 -6.2471469)
(259.2995 1.9407172e-16 -7.1011995)
(279.60154 0 -7.7639486)
(297.19631 1.4104299e-16 -8.6257661)
(308.59829 9.9211589e-19 -8.8891595)
(308.78042 7.8314201e-20 -9.4240851)
(309.83608 6.4271181e-20 -8.6678205)
(308.81607 -6.9761604e-17 -9.6439363)
(309.19468 5.804954e-17 -8.5719156)
(308.48614 -4.833719e-17 -9.6662745)
(308.46503 0 -8.6663944)
(307.80972 -2.0926438e-18 -9.5866529)
(307.44786 -1.0902444e-19 -8.8471977)
(306.72051 -3.0790396e-18 -9.4938553)
(306.03339 0 -9.044321)
(305.09152 -2.5072894e-19 -9.4405392)
(304.04138 0 -9.2145397)
(302.7685 2.2831856e-17 -9.4245461)
(301.29561 1.0755972e-19 -9.3222908)
(299.57374 -1.5086349e-17 -9.4019603)
(297.54894 -1.4063321e-17 -9.3649949)
(295.18251 -1.0304937e-17 -9.4143169)
(292.49668 0 -9.3564675)
(289.52577 0 -9.237011)
(286.30435 0 -9.0035061)
(282.89222 0 -8.6570095)
(279.38252 -2.9856997e-17 -8.170285)
(275.90846 -1.072599e-19 -7.5502852)
(272.60489 7.6647169e-17 -6.8184896)
(269.59638 1.53892e-17 -6.0245785)
(266.97068 -2.3774661e-17 -5.2267201)
(264.77766 -2.3275029e-18 -4.4812206)
(263.02379 0 -3.8268882)
(261.69571 2.2108141e-17 -3.2815642)
(260.75769 5.041022e-17 -2.8568352)
(260.08568 -2.5368798e-17 -2.5456543)
(259.66484 1.8994654e-17 -2.2907375)
(259.48528 1.1336863e-16 -2.0513974)
(259.48623 2.101902e-17 -1.8434597)
(259.57076 -1.4026795e-16 -1.6608097)
(259.75882 6.8678603e-17 -1.4634494)
(259.99811 3.3695329e-17 -1.238554)
(260.21711 -1.2410774e-17 -0.98864712)
(260.71382 -2.8611774e-19 -0.70736634)
(261.1931 -1.3561688e-17 -0.44697448)
(261.33695 -7.0942493e-17 -0.27647709)
(261.29792 7.4219552e-18 -0.17741444)
(261.25794 -5.8925314e-18 -0.11289262)
(261.24152 0 -0.097133154)
(200.4024 0 -6.3613695)
(237.18431 4.7402595e-19 -7.2228654)
(261.32122 -3.861068e-19 -8.1687284)
(281.60928 0 -8.8779684)
(299.03246 1.6875921e-18 -9.8303968)
(309.58351 -9.4799536e-19 -10.033051)
(309.30701 1.598675e-18 -10.617786)
(310.38064 0 -9.8017063)
(309.34006 -7.3300306e-17 -10.87226)
(309.72363 5.901659e-17 -9.7346505)
(308.99487 0 -10.902269)
(308.97118 -3.5864196e-17 -9.8508973)
(308.29726 4.0465547e-17 -10.817293)
(307.9224 0 -10.046475)
(307.17514 -2.9431682e-18 -10.714929)
(306.46699 3.9308891e-17 -10.248893)
(305.50347 -4.0702542e-17 -10.645682)
(304.42847 -1.3529865e-17 -10.405405)
(303.12526 0 -10.602547)
(301.60362 0 -10.493354)
(299.79674 3.089909e-17 -10.581272)
(297.65057 -1.2602263e-17 -10.545425)
(295.20514 -3.1530417e-17 -10.564383)
(292.47141 1.7137009e-17 -10.467595)
(289.44758 0 -10.299553)
(286.15973 2.3178183e-17 -10.006678)
(282.68224 -3.7456585e-17 -9.5851947)
(279.12387 4.5341533e-17 -9.0073203)
(275.62294 -4.8814768e-17 -8.2833138)
(272.3175 5.8254018e-17 -7.440675)
(269.32877 0 -6.5354767)
(266.73845 9.6788668e-17 -5.6321428)
(264.58717 1.3189255e-16 -4.7918252)
(262.87517 -1.0194092e-16 -4.055515)
(261.58716 1.5604401e-16 -3.4413043)
(260.67283 8.4686307e-17 -2.9653585)
(259.99876 0 -2.6169096)
(259.60714 -1.9142428e-17 -2.3310987)
(259.46052 -9.9747064e-17 -2.0689971)
(259.46408 2.1112455e-17 -1.847529)
(259.55105 1.0907242e-16 -1.6561903)
(259.74536 -9.1744701e-17 -1.4532484)
(259.97729 1.6850005e-17 -1.2284855)
(260.23326 1.6110395e-16 -0.96806427)
(260.82679 -1.0946962e-16 -0.67955507)
(261.19735 -1.3509622e-17 -0.43318245)
(261.30249 8.0446541e-17 -0.27659336)
(261.28169 1.5147795e-17 -0.18120572)
(261.25051 1.7389131e-16 -0.11497922)
(261.24016 5.6753113e-19 -0.094553097)
(202.42413 0 -7.2455674)
(239.33528 9.649399e-19 -8.24896)
(263.53663 -7.8836181e-19 -9.3064744)
(283.77142 -1.7234282e-16 -10.089759)
(300.91072 1.4549966e-16 -11.145813)
(310.4698 0 -11.275917)
(309.79083 -1.6300579e-18 -11.916748)
(310.87451 -2.703647e-18 -11.015161)
(309.8065 2.2602956e-18 -12.161989)
(310.19487 -6.0097142e-17 -10.946317)
(309.44265 5.003476e-17 -12.174213)
(309.41466 -5.2105625e-18 -11.068232)
(308.72133 4.3255224e-18 -12.072308)
(308.33245 7.2083495e-18 -11.272607)
(307.56599 -5.9890424e-18 -11.955874)
(306.83759 -3.998209e-17 -11.473948)
(305.85322 2.4744425e-17 -11.865601)
(304.74744 2.7488703e-17 -11.616565)
(303.39674 2.2834498e-17 -11.808992)
(301.79492 0 -11.708076)
(299.8953 -3.1429127e-17 -11.801983)
(297.68118 2.5746668e-17 -11.754993)
(295.17865 9.3269369e-20 -11.733656)
(292.37966 -1.741952e-17 -11.592377)
(289.27875 2.8852704e-17 -11.375539)
(285.91283 -2.32754e-17 -11.019717)
(282.36893 0 -10.51691)
(278.76404 0 -9.8413933)
(275.24205 9.891907e-17 -9.0073641)
(271.94318 9.8783632e-17 -8.049374)
(268.9846 1.0934097e-16 -7.0305184)
(266.44066 -7.3334306e-17 -6.021476)
(264.34213 -1.8862044e-17 -5.0876983)
(262.68334 -1.4719357e-16 -4.2714802)
(261.4452 2.2529705e-17 -3.5917359)
(260.55354 -1.3660161e-16 -3.067904)
(259.90141 0 -2.6825041)
(259.54812 -1.9262021e-17 -2.3651974)
(259.42758 -1.8621781e-16 -2.0824726)
(259.43675 3.180196e-16 -1.8490824)
(259.531 0 -1.6488979)
(259.72961 -3.6759928e-16 -1.4405593)
(259.96146 -2.698044e-16 -1.2133369)
(260.29229 -1.7331956e-16 -0.94111732)
(260.88438 -4.3657044e-16 -0.65103176)
(261.19361 -1.3616761e-20 -0.42153435)
(261.28063 3.092255e-16 -0.27563419)
(261.26985 -1.4971329e-17 -0.18343546)
(261.24545 -1.7103431e-16 -0.11635886)
(261.23882 1.3976375e-16 -0.091996844)
(204.32923 -1.3446991e-18 -8.1522093)
(241.33681 -2.5322247e-16 -9.2921059)
(265.60297 2.0816313e-16 -10.460052)
(285.79616 2.7452978e-18 -11.308419)
(302.58028 -1.4941703e-16 -12.463219)
(311.19577 3.8454952e-18 -12.50824)
(310.19123 1.0596639e-16 -13.214124)
(311.29148 2.7537522e-18 -12.228464)
(310.19902 0 -13.461887)
(310.59425 0 -12.170836)
(309.81956 5.0957105e-17 -13.464661)
(309.78735 -8.4700116e-17 -12.305043)
(309.07539 2.6415464e-17 -13.3476)
(308.67256 -2.2004384e-17 -12.517492)
(307.88742 1.2216347e-17 -13.212835)
(307.13654 2.0286524e-17 -12.714107)
(306.12253 -6.7537756e-17 -13.103859)
(304.96581 6.9939264e-17 -12.858201)
(303.54333 -2.3236635e-17 -13.06194)
(301.86127 3.8488818e-17 -12.970722)
(299.89539 3.1843191e-17 -13.049518)
(297.63725 0 -12.97344)
(295.07965 6.4901351e-17 -12.912002)
(292.20036 8.8945938e-17 -12.731398)
(289.0151 0 -12.463339)
(285.57071 -2.393403e-17 -12.039775)
(281.96257 -2.3915677e-19 -11.450339)
(278.31688 -1.0953004e-16 -10.671849)
(274.78271 -3.0095706e-16 -9.7234088)
(271.50112 -1.5973869e-16 -8.6471978)
(268.58418 -1.5803236e-16 -7.5136246)
(266.09749 -1.7368534e-16 -6.3993859)
(264.0616 -4.817745e-16 -5.3735945)
(262.46537 2.8209834e-16 -4.4792805)
(261.28374 1.5911471e-16 -3.7371156)
(260.41509 3.446341e-17 -3.1669463)
(259.7997 4.3957521e-20 -2.7445441)
(259.48747 -3.487101e-16 -2.3965184)
(259.38917 2.4466509e-16 -2.0946706)
(259.40544 -3.4046621e-16 -1.8500995)
(259.50968 5.013944e-16 -1.6413954)
(259.70947 2.298299e-17 -1.4277581)
(259.94915 2.6976926e-16 -1.1952829)
(260.36546 -4.0766433e-16 -0.91339783)
(260.92516 5.6201487e-16 -0.62539234)
(261.1895 1.3358757e-17 -0.41223485)
(261.26406 1.0135777e-20 -0.27502938)
(261.25903 -2.4411483e-16 -0.1853424)
(261.2397 5.6075119e-18 -0.11748799)
(261.23761 -1.387236e-16 -0.089302287)
(206.17746 1.3715636e-18 -9.0852017)
(243.27921 0 -10.363148)
(267.60651 -1.6450011e-18 -11.645803)
(287.7617 -2.8040349e-18 -12.565999)
(304.08508 0 -13.816323)
(311.78622 -3.9978137e-18 -13.762296)
(310.52037 0 -14.543678)
(311.63659 0 -13.467873)
(310.5168 -4.6666417e-18 -14.789353)
(310.91932 0 -13.419421)
(310.12003 5.1814868e-17 -14.778268)
(310.08139 -5.3783657e-17 -13.564462)
(309.3541 0 -14.642478)
(308.93556 1.5303522e-20 -13.780021)
(308.12792 -4.9730317e-17 -14.486673)
(307.34319 -2.079928e-17 -13.979641)
(306.27819 8.5676135e-17 -14.379438)
(305.057 -2.8484035e-17 -14.149986)
(303.5725 -4.7241824e-17 -14.354388)
(301.84141 -5.8775727e-17 -14.252285)
(299.83638 1.624751e-17 -14.303487)
(297.52431 -2.660728e-17 -14.200506)
(294.89041 6.6220129e-17 -14.106866)
(291.92271 -1.0852549e-16 -13.885285)
(288.65012 1.4725549e-17 -13.560698)
(285.12653 9.6796245e-17 -13.063575)
(281.45703 0 -12.381123)
(277.77689 9.4830502e-17 -11.493624)
(274.24006 2.4895787e-17 -10.425949)
(270.98715 2.033823e-17 -9.2285807)
(268.12378 -1.5918205e-17 -7.9794967)
(265.70555 2.004501e-16 -6.7610761)
(263.74258 2.9190856e-16 -5.6452877)
(262.21865 -1.5086113e-17 -4.6754095)
(261.09963 -3.4346072e-16 -3.8748757)
(260.25782 0 -3.2601242)
(259.69187 -4.1747145e-16 -2.8009697)
(259.42331 -5.7597838e-20 -2.4240048)
(259.34642 2.8916392e-17 -2.1048636)
(259.37071 -2.1351245e-17 -1.8497149)
(259.4872 -5.0249509e-16 -1.6330363)
(259.68561 3.2240222e-16 -1.4140421)
(259.93905 5.5624735e-16 -1.1729918)
(260.44141 3.8231567e-16 -0.88439374)
(260.95204 2.9022109e-20 -0.60229868)
(261.18563 1.3278492e-17 -0.40406922)
(261.2528 -3.1380833e-16 -0.2744006)
(261.24988 7.0160676e-16 -0.1869109)
(261.23438 -3.5293088e-16 -0.11833069)
(261.23654 2.6901092e-16 -0.086492876)
(207.94054 3.5437642e-20 -10.044738)
(245.12046 5.9151405e-20 -11.461155)
(269.51168 5.0945791e-18 -12.860422)
(289.64849 -1.828085e-16 -13.850972)
(305.39449 -1.5480453e-16 -15.189537)
(312.23956 1.300651e-16 -15.028537)
(310.76137 1.0282294e-16 -15.890543)
(311.89635 8.3497223e-20 -14.718769)
(310.74618 4.8354201e-18 -16.129654)
(311.15958 -1.3414743e-16 -14.679009)
(310.32814 5.2593028e-17 -16.104027)
(310.27368 2.189392e-17 -14.839575)
(309.54666 0 -15.955497)
(309.10595 -6.0736897e-17 -15.064601)
(308.2628 5.040341e-17 -15.789856)
(307.43219 -4.2045198e-17 -15.291914)
(306.31755 -8.24235e-20 -15.701991)
(305.04845 2.8955378e-17 -15.469484)
(303.53055 1.2015919e-16 -15.657225)
(301.76135 -5.9617795e-17 -15.5382)
(299.70419 0 -15.567532)
(297.31815 5.436485e-17 -15.444729)
(294.60052 -8.9489794e-17 -15.316462)
(291.54259 1.2872507e-16 -15.050629)
(288.18104 1.4958916e-17 -14.664328)
(284.57926 9.8523081e-17 -14.087302)
(280.85262 0 -13.305121)
(277.14586 0 -12.302435)
(273.61715 2.320522e-16 -11.110901)
(270.4052 -3.2850861e-16 -9.7899113)
(267.60765 -2.7555297e-16 -8.4251373)
(265.26897 -3.8062329e-16 -7.1041444)
(263.38911 -1.9611041e-17 -5.9008605)
(261.94653 -4.8460295e-16 -4.8585221)
(260.8935 0 -4.0039027)
(260.08645 0 -3.3465106)
(259.57784 4.1995637e-16 -2.8510516)
(259.34929 -3.1339458e-16 -2.4474228)
(259.30027 -4.6458894e-16 -2.1130553)
(259.33378 0 -1.8478963)
(259.46339 -4.7200074e-16 -1.6238922)
(259.66067 -4.6083437e-17 -1.3994957)
(259.9365 -5.2212658e-16 -1.1470531)
(260.51023 0 -0.85415756)
(260.97352 0 -0.58174211)
(261.18169 -1.3185171e-17 -0.39691335)
(261.24268 6.1235378e-16 -0.27381655)
(261.24166 -4.4757938e-16 -0.18826331)
(261.22893 6.9413255e-16 -0.11892796)
(261.23557 -5.2999945e-16 -0.083550449)
(209.608 3.6654743e-16 -11.029478)
(246.86394 2.6724529e-16 -12.585621)
(271.31822 -4.4167891e-16 -14.10461)
(291.46149 1.8632648e-16 -15.168376)
(306.50435 0 -16.584246)
(312.56889 1.2828744e-16 -16.306397)
(310.91251 -1.0442477e-16 -17.255116)
(312.07448 0 -15.981815)
(310.87787 6.7594948e-17 -17.483712)
(311.31177 1.6131886e-17 -15.952156)
(310.45496 -4.0085526e-17 -17.446248)
(310.39781 -5.4042299e-21 -16.132853)
(309.63857 0 -17.293903)
(309.16933 -1.5414689e-17 -16.391275)
(308.29036 0 -17.137333)
(307.42275 4.274897e-17 -16.634951)
(306.28025 -3.537599e-17 -17.038332)
(304.98197 -2.9435677e-17 -16.795374)
(303.42745 -4.8821598e-17 -16.963803)
(301.60536 -6.0769778e-17 -16.837286)
(299.47821 1.665345e-17 -16.848422)
(297.01349 -8.2944437e-17 -16.703427)
(294.2074 2.2619775e-17 -16.538844)
(291.05636 -2.9896512e-16 -16.224568)
(287.60488 0 -15.770689)
(283.9267 -1.9933539e-16 -15.106832)
(280.14841 -2.0351719e-17 -14.217744)
(276.42418 1.6209803e-17 -13.093546)
(272.9155 2.6275589e-17 -11.773728)
(269.75747 6.4476208e-16 -10.327137)
(267.0382 -4.8115443e-19 -8.8471171)
(264.79015 4.1000544e-16 -7.4257554)
(263.00372 0 -6.1380317)
(261.65078 4.579833e-16 -5.0271221)
(260.66388 2.3236215e-17 -4.1225273)
(259.90443 -3.5221313e-17 -3.4249148)
(259.45809 2.6383945e-17 -2.8941762)
(259.27547 6.2957296e-16 -2.4663485)
(259.25019 4.6628444e-16 -2.1188246)
(259.29442 0 -1.844461)
(259.43802 3.1480315e-17 -1.6137288)
(259.63839 -2.3057403e-17 -1.38375)
(259.94851 0 -1.1184147)
(260.5684 2.4515193e-17 -0.8229932)
(260.98935 -5.9083966e-16 -0.56324875)
(261.17721 0 -0.39043149)
(261.23401 1.0871606e-20 -0.27322905)
(261.23423 0 -0.18944895)
(261.22374 -3.4128163e-16 -0.11930508)
(261.23466 5.181108e-16 -0.080482729)
(211.19688 -5.7850127e-18 -12.037996)
(248.52581 2.723647e-16 -13.733503)
(273.0361 -2.2337384e-16 -15.375271)
(293.213 0 -16.515263)
(307.42186 5.0059893e-18 -17.995629)
(312.79541 -4.204382e-18 -17.595641)
(311.0013 -1.1329947e-16 -18.638685)
(312.17757 -9.3078194e-20 -17.261679)
(310.96374 8.8211567e-17 -18.858503)
(311.38263 -8.1549061e-18 -17.248748)
(310.51592 -1.3596627e-17 -18.821017)
(310.45039 -1.1312402e-17 -17.462381)
(309.63873 0 -18.664965)
(309.14658 6.2790468e-17 -17.74394)
(308.24614 -1.3043362e-16 -18.497423)
(307.35609 4.3279503e-17 -17.984936)
(306.18811 -7.2167527e-17 -18.375221)
(304.85184 -1.6714642e-19 -18.129257)
(303.24534 4.9622974e-17 -18.28732)
(301.35755 6.1708226e-17 -18.15344)
(299.15625 3.4137403e-17 -18.144436)
(296.60654 8.4416999e-17 -17.975689)
(293.70788 -9.2536875e-17 -17.771287)
(290.46136 3.0375046e-16 -17.403721)
(286.91962 3.1258391e-17 -16.875862)
(283.16801 -2.5149248e-17 -16.117693)
(279.34494 -2.0658838e-17 -15.114187)
(275.61384 -2.0091144e-19 -13.862153)
(272.13815 1.3172384e-17 -12.409993)
(269.04757 -6.7403656e-16 -10.836438)
(266.41911 2.6526004e-16 -9.2423095)
(264.27277 0 -7.7233815)
(262.59005 0 -6.3548697)
(261.3338 0 -5.1802012)
(260.41099 2.3482894e-17 -4.2292016)
(259.71497 -1.7691869e-17 -3.4941355)
(259.33446 8.2332849e-16 -2.9300172)
(259.19742 6.7206084e-16 -2.4807069)
(259.19501 9.2127429e-16 -2.1217776)
(259.25242 0 -1.8392194)
(259.41044 4.7324793e-16 -1.6021565)
(259.62058 -6.9144867e-16 -1.3662093)
(259.97765 -1.1086515e-15 -1.0882477)
(260.61513 1.224625e-17 -0.79147109)
(261.00112 5.5243811e-16 -0.54638413)
(261.17223 8.4582863e-16 -0.38447807)
(261.22566 -1.2212709e-15 -0.27258784)
(261.22726 0 -0.19048391)
(261.21875 0 -0.11947466)
(261.2338 -2.5328867e-16 -0.077295081)
(212.71576 3.7967761e-16 -13.071004)
(250.11597 2.8183885e-16 -14.904964)
(274.66811 -2.2413211e-16 -16.671089)
(294.90559 0 -17.889584)
(308.1521 -5.0945113e-18 -19.422603)
(312.9333 1.7116328e-17 -18.902989)
(311.04033 1.1513213e-16 -20.053967)
(312.2161 -9.5456394e-17 -18.578189)
(310.98101 7.9780787e-17 -20.279152)
(311.40774 -8.2806712e-17 -18.587212)
(310.50448 -1.3815599e-17 -20.227696)
(310.42451 2.2991092e-17 -18.813543)
(309.5793 -7.6699647e-17 -20.046391)
(309.07196 9.5488441e-17 -19.10307)
(308.15138 7.9624304e-17 -19.85703)
(307.23205 -4.3980662e-17 -19.340227)
(306.02663 3.6617256e-17 -19.726354)
(304.63867 -3.0488803e-17 -19.481871)
(302.97346 2.5129564e-17 -19.627302)
(301.01559 6.2630118e-17 -19.485723)
(298.73407 1.2078358e-16 -19.454737)
(296.09476 -8.5603673e-17 -19.259256)
(293.09953 -9.4235273e-17 -19.011073)
(289.75527 -1.9022653e-17 -18.584591)
(286.12371 3.0029832e-16 -17.975651)
(282.30282 -2.5533528e-17 -17.115125)
(278.44335 -2.0967468e-17 -15.989414)
(274.71733 -2.5248477e-16 -14.603346)
(271.28858 0 -13.015286)
(268.27939 7.0399702e-16 -11.31412)
(265.75437 1.2650051e-19 -9.6077455)
(263.72089 -3.9312334e-17 -7.9946696)
(262.15179 2.0207545e-17 -6.5496692)
(260.9972 3.1117803e-17 -5.3168837)
(260.13783 -2.3593115e-17 -4.322691)
(259.51989 0 -3.5528892)
(259.2085 -2.6383754e-17 -2.9582709)
(259.11711 3.983301e-17 -2.4904999)
(259.13426 -9.5327013e-16 -2.1216666)
(259.21007 2.1562636e-17 -1.8319484)
(259.37969 1.5774139e-17 -1.5887412)
(259.60593 6.9115438e-16 -1.3459273)
(260.02269 1.7045113e-17 -1.0573989)
(260.65207 0 -0.7603614)
(261.00987 0 -0.53074688)
(261.16724 -8.2691555e-16 -0.37892916)
(261.21753 -1.1692811e-20 -0.27186827)
(261.22046 -9.0358933e-16 -0.19136577)
(261.21401 1.0311886e-17 -0.11944671)
(261.23303 4.9538406e-16 -0.073992414)
(214.16769 3.8026207e-16 -14.131573)
(251.63266 -2.8697926e-16 -16.105982)
(276.20695 -2.3574072e-16 -18.002538)
(296.53044 1.9673355e-16 -19.305236)
(308.69857 5.1799055e-18 -20.880554)
(312.98692 -8.7011228e-18 -20.240228)
(311.0049 -1.1698087e-16 -21.501552)
(312.18067 9.6991755e-17 -19.919508)
(310.92256 0 -21.719737)
(311.34916 1.6840656e-17 -19.940718)
(310.4262 -2.8131695e-17 -21.644818)
(310.35145 2.330489e-17 -20.171983)
(309.47201 -1.9459438e-17 -21.427826)
(308.94228 3.2461774e-17 -20.468626)
(307.99188 -5.3778958e-17 -21.231363)
(307.0319 0 -20.716392)
(305.78122 3.7151222e-17 -21.095162)
(304.33768 3.0798427e-17 -20.851985)
(302.60876 0 -20.983886)
(300.57563 -8.4829638e-17 -20.833103)
(298.20916 -2.8081542e-16 -20.777531)
(295.47547 2.911745e-17 -20.55192)
(292.37999 3.3405704e-16 -20.255144)
(288.9363 -1.3705748e-16 -19.763368)
(285.2163 -2.5608285e-16 -19.065543)
(281.33166 2.6269574e-17 -18.094093)
(277.44573 -4.2281986e-17 -16.838232)
(273.7381 2.8906269e-16 -15.312217)
(270.37102 0 -13.585332)
(267.45753 -6.6940958e-16 -11.756705)
(265.04869 -5.6089766e-16 -9.9407051)
(263.13927 3.9739933e-16 -8.2375612)
(261.69254 4.0881727e-17 -6.7210778)
(260.6414 -1.5634446e-17 -5.4361469)
(259.8496 7.856776e-16 -4.4021543)
(259.32117 1.1300995e-15 -3.6002075)
(259.08117 -8.5811757e-16 -2.9787516)
(259.03316 -1.9766457e-17 -2.4956103)
(259.06896 1.4706092e-17 -2.1183427)
(259.16599 2.1596965e-17 -1.8224919)
(259.34505 9.9514242e-16 -1.5731744)
(259.59289 0 -1.3219647)
(260.07788 2.8725445e-19 -1.0259959)
(260.68342 0 -0.73054926)
(261.01703 0 -0.51610642)
(261.16224 0 -0.3737232)
(261.20911 1.796546e-15 -0.27105848)
(261.21335 8.7821397e-16 -0.19205086)
(261.20953 -6.5899046e-16 -0.11921509)
(261.23236 -4.7317113e-16 -0.070583297)
(215.56598 3.9280303e-16 -15.221714)
(253.08906 -2.8769712e-16 -17.337307)
(277.66518 0 -19.368749)
(298.09181 0 -20.752754)
(309.0823 -5.268117e-18 -22.356779)
(312.97151 1.4154012e-16 -21.589549)
(310.9 -1.18706e-16 -22.955233)
(312.09664 0 -21.258473)
(310.79802 0 -23.15666)
(311.22577 0 -21.292264)
(310.28201 -1.4259793e-17 -23.063521)
(310.18291 0 -21.544081)
(309.29821 1.9762517e-17 -22.831464)
(308.73702 -3.299824e-17 -21.859008)
(307.75141 5.4633823e-17 -22.624841)
(306.74773 4.5603264e-17 -22.111886)
(305.44862 -1.1329618e-16 -22.481528)
(303.94506 -3.1483886e-17 -22.239482)
(302.14804 2.5936704e-17 -22.355738)
(300.03517 0 -22.193999)
(297.5788 1.4250174e-16 -22.110891)
(294.74636 0 -21.851061)
(291.5473 5.4934765e-19 -21.500217)
(288.00313 1.3943735e-16 -20.935976)
(284.19717 2.7706523e-16 -20.140746)
(280.25584 2.1247499e-16 -19.04934)
(276.35496 -3.4414158e-16 -17.655351)
(272.68027 1.7358866e-17 -15.983911)
(269.39036 -4.1419342e-17 -14.116037)
(266.58722 6.9932144e-16 -12.160968)
(264.30746 5.6589478e-16 -10.238756)
(262.53297 4.5577833e-16 -8.4503533)
(261.21528 7.893563e-20 -6.8681565)
(260.26567 -1.5758534e-17 -5.5366989)
(259.55279 -1.5571885e-15 -4.4669518)
(259.12149 -1.1356875e-15 -3.6355764)
(258.9531 5.3886321e-17 -2.9914426)
(258.94418 -1.9389466e-15 -2.4957739)
(259.00113 1.4737765e-17 -2.1117737)
(259.12056 -2.1631087e-17 -1.8108093)
(259.3067 -1.0109565e-15 -1.5552598)
(259.5817 -1.4946196e-15 -1.2938911)
(260.1373 1.0850032e-15 -0.99368533)
(260.71274 7.7408334e-16 -0.70259048)
(261.02341 0 -0.50245761)
(261.15729 0 -0.36885074)
(261.20049 -2.3713461e-15 -0.27017675)
(261.20531 8.6680045e-16 -0.19247833)
(261.20534 6.3793449e-16 -0.11875226)
(261.2318 -3.7018133e-18 -0.067082925)
(216.92155 0 -16.333886)
(254.49476 0 -18.584752)
(279.04946 2.4082789e-16 -20.753433)
(299.57746 -6.2530418e-18 -22.212567)
(309.31095 1.1544321e-19 -23.83392)
(312.88187 -2.8755141e-16 -22.93917)
(310.72413 1.2055315e-16 -24.416366)
(311.94913 1.0016276e-16 -22.605227)
(310.60162 -8.3523416e-17 -24.609348)
(311.0483 0 -22.66038)
(310.05892 1.1601135e-16 -24.499735)
(309.93522 -2.3892314e-17 -22.939991)
(309.04176 -8.0212181e-17 -24.256314)
(308.4486 0 -23.270848)
(307.42663 5.563305e-17 -24.035917)
(306.3764 -7.2281526e-20 -23.526164)
(305.02564 3.8308246e-17 -23.884276)
(303.45847 0 -23.642974)
(301.58898 0 -23.741584)
(299.39171 -8.7723897e-17 -23.566664)
(296.84072 1.4511115e-16 -23.452594)
(293.90532 -1.1979144e-16 -23.153849)
(290.59981 -3.939636e-16 -22.742701)
(286.95495 -1.6141685e-16 -22.098022)
(283.06685 -2.6398652e-16 -21.19617)
(279.0775 -1.8780485e-16 -19.975408)
(275.17475 3.4812905e-16 -18.43544)
(271.54872 2.0090992e-19 -16.613692)
(268.35218 1.4167096e-17 -14.603545)
(265.67447 -3.9761875e-16 -12.523993)
(263.53666 1.7288149e-17 -10.499823)
(261.90689 1.6679189e-18 -8.6317452)
(260.7219 0 -6.9903419)
(259.87051 -3.1837792e-17 -5.6171625)
(259.25441 8.1930211e-16 -4.5165284)
(258.92326 -1.811294e-17 -3.658943)
(258.82392 -2.7052012e-17 -2.9964554)
(258.84914 1.2829437e-15 -2.4906684)
(258.9327 1.4770696e-17 -2.1018686)
(259.07435 -1.3855036e-15 -1.7970183)
(259.26629 0 -1.5349723)
(259.57576 -2.2870826e-17 -1.2619399)
(260.19772 1.0815906e-15 -0.96022076)
(260.74081 -2.3123898e-15 -0.67664354)
(261.0294 0 -0.48981459)
(261.15245 0 -0.36433037)
(261.19157 1.155165e-15 -0.26927627)
(261.19596 -1.7107479e-15 -0.1925951)
(261.20099 9.8007164e-18 -0.11801592)
(261.23138 0 -0.063500307)
(218.2063 -4.0270833e-16 -17.476886)
(255.8219 0 -19.863896)
(280.34483 2.452288e-16 -22.177799)
(300.95296 -1.9388665e-16 -23.704247)
(309.37971 1.0901308e-17 -25.331108)
(312.67787 1.5527627e-16 -24.307438)
(310.47126 -1.0709247e-16 -25.903298)
(311.72583 -1.0171461e-16 -23.974095)
(310.34213 8.4814462e-17 -26.084341)
(310.7869 -1.7654649e-17 -24.047413)
(309.76798 -2.9437263e-17 -25.952785)
(309.62981 2.4479358e-17 -24.353281)
(308.70282 0 -25.694714)
(308.07606 0 -24.700991)
(307.01583 -1.1304274e-16 -25.462705)
(305.91619 -8.9437067e-20 -24.95771)
(304.51051 0 -25.30224)
(302.87583 0 -25.061166)
(300.92945 1.0759008e-16 -25.139841)
(298.64318 1.7803975e-16 -24.949148)
(295.99288 -3.6566299e-17 -24.800229)
(292.95058 1.5151531e-16 -24.457195)
(289.53632 1.9973147e-16 -23.978743)
(285.79154 -3.0844195e-16 -23.244824)
(281.82657 -2.8575842e-16 -22.226477)
(277.79958 -4.6542449e-16 -20.866708)
(273.90961 3.9840872e-16 -19.173196)
(270.3491 -5.6895941e-16 -17.197004)
(267.26295 -4.677322e-16 -15.044296)
(264.72605 0 -12.84324)
(262.74246 0 -10.722253)
(261.26499 1.7188062e-18 -8.7808213)
(260.2133 0 -7.0871538)
(259.46174 -1.0256884e-15 -5.6768072)
(258.95945 -8.0062551e-16 -4.5502285)
(258.72776 1.8202992e-17 -3.6706162)
(258.69133 0 -2.9936825)
(258.74979 0 -2.4802534)
(258.86463 0 -2.0883862)
(259.02809 2.7722494e-15 -1.781227)
(259.2277 0 -1.5125115)
(259.57962 1.3277756e-19 -1.2268683)
(260.25647 -1.061786e-15 -0.92555059)
(260.76746 1.5346195e-15 -0.65264758)
(261.03501 0 -0.47815585)
(261.14755 1.6030959e-15 -0.36014736)
(261.18223 0 -0.26840136)
(261.18541 -3.313916e-20 -0.1923823)
(261.19625 0 -0.1169609)
(261.23113 9.1474334e-16 -0.059879649)
(219.41214 -8.1859083e-16 -18.639591)
(257.07037 6.0614106e-16 -21.156522)
(281.55684 -2.4956368e-16 -23.624666)
(302.18369 -6.567503e-18 -25.205681)
(309.29986 -1.1079067e-17 -26.831781)
(312.36448 -1.484586e-16 -25.682949)
(310.15967 2.3316647e-16 -27.410131)
(311.42812 -1.0316587e-16 -25.36051)
(310.00606 0 -27.579502)
(310.45013 1.4346963e-16 -25.454914)
(309.39873 -8.9542411e-17 -27.425134)
(309.23936 -2.4889046e-17 -25.785638)
(308.2823 -4.1454634e-17 -27.147479)
(307.61893 3.4503614e-17 -26.149045)
(306.51799 0 -26.904554)
(305.36574 4.781488e-17 -26.405612)
(303.9016 -3.9516973e-17 -26.734268)
(302.19543 0 -26.492613)
(300.16761 -1.0902944e-16 -26.548889)
(297.78767 9.0816652e-17 -26.339336)
(295.03352 -1.4931863e-16 -26.151158)
(291.8807 -3.1031287e-17 -25.75776)
(288.35604 -1.7841147e-16 -25.204192)
(284.51325 -1.4179492e-18 -24.371397)
(280.4783 2.7205144e-16 -23.226089)
(276.42582 4.7041786e-16 -21.71756)
(272.5648 -7.6191617e-16 -19.863404)
(269.08793 5.9241979e-16 -17.729533)
(266.13005 4.2895079e-16 -15.435112)
(263.74916 7.7056531e-16 -13.11663)
(261.93043 5.5001672e-16 -10.904841)
(260.6099 -9.064796e-16 -8.8969914)
(259.69036 2.1108975e-17 -7.1577669)
(259.04946 1.0312958e-15 -5.715762)
(258.67088 1.5606663e-15 -4.567788)
(258.53472 1.1893724e-15 -3.6710196)
(258.55275 -1.3619744e-17 -2.9827548)
(258.64941 0 -2.4646251)
(258.79701 9.7763582e-16 -2.0711398)
(258.98206 -1.4079041e-15 -1.7632288)
(259.19712 1.0091692e-15 -1.4884601)
(259.59691 2.3058382e-17 -1.1898311)
(260.31105 1.0577157e-15 -0.88974833)
(260.79212 -1.1941131e-17 -0.63036851)
(261.03998 1.7205851e-17 -0.46741785)
(261.14238 -1.6144441e-15 -0.35628482)
(261.17257 8.9764857e-18 -0.26756507)
(261.17405 -3.5278557e-20 -0.19182334)
(261.19303 0 -0.11560909)
(261.23108 -5.3842784e-21 -0.05616384)
(220.5359 -6.4174552e-20 -19.827515)
(258.24244 3.0819075e-16 -22.471458)
(282.69864 0 -25.105185)
(303.22589 -2.1364416e-16 -26.722404)
(309.08314 1.8024925e-16 -28.353538)
(312.0248 1.5080878e-16 -27.077451)
(309.76824 -1.4197408e-16 -28.93933)
(311.05304 1.0488595e-16 -26.76419)
(309.59253 -6.5554703e-17 -29.093039)
(310.0339 1.8189312e-17 -26.881503)
(308.95051 0 -28.913716)
(308.76882 -2.5317246e-17 -27.237568)
(307.77883 -1.3636367e-19 -28.61527)
(307.07605 3.4899025e-17 -27.614767)
(305.93196 1.1671105e-16 -28.360574)
(304.72383 -4.8311793e-17 -27.868797)
(303.1975 -4.0378352e-17 -28.179229)
(301.41569 3.3297182e-17 -27.935845)
(299.30179 -2.7834056e-17 -27.966941)
(296.82354 -1.6056267e-16 -27.734946)
(293.96111 0 -27.50253)
(290.69453 -2.5125971e-16 -27.051946)
(287.05864 1.8001837e-16 -26.414609)
(283.12108 3.5898429e-16 -25.47248)
(279.02475 2.7746459e-16 -24.189231)
(274.96076 -4.5113234e-16 -22.522245)
(271.1465 3.6279498e-16 -20.500977)
(267.77274 -5.8451525e-16 -18.207264)
(264.96158 4.940631e-16 -15.773263)
(262.7507 -2.0536467e-17 -13.342556)
(261.10478 -1.6475575e-17 -11.046743)
(259.94337 1.3836712e-17 -8.9798754)
(259.1568 6.8230466e-16 -7.2014264)
(258.64386 -1.0066422e-15 -5.7344681)
(258.39027 -2.3849441e-17 -4.5694964)
(258.34088 -1.1751332e-15 -3.6602148)
(258.4099 -8.4718819e-16 -2.9638708)
(258.54994 -2.0189195e-17 -2.4436393)
(258.7298 -1.9271062e-15 -2.0500718)
(258.93563 1.4077461e-15 -1.7423011)
(259.17563 -1.0077764e-15 -1.4624558)
(259.62994 1.4599011e-15 -1.1523278)
(260.3597 -2.2236605e-19 -0.85315583)
(260.81413 2.3723752e-17 -0.60944246)
(261.04394 -1.7100805e-17 -0.45747441)
(261.13672 0 -0.35269725)
(261.1624 -1.1363587e-15 -0.26679108)
(261.16201 8.2135701e-16 -0.19085002)
(261.19083 0 -0.11394482)
(261.23123 -8.6966095e-16 -0.052402769)
(221.5613 -6.6066948e-18 -21.043231)
(259.32768 0 -23.81266)
(283.77193 -8.0837354e-18 -26.625821)
(304.1285 2.1695985e-16 -28.258165)
(308.7408 -1.8325401e-16 -29.898369)
(311.60265 -1.9132608e-17 -28.486611)
(309.29949 3.2042474e-17 -30.485976)
(310.60015 0 -28.181886)
(309.10029 -1.1111735e-16 -30.621905)
(309.53774 7.3837559e-17 -28.325079)
(308.42174 -3.083459e-17 -30.416686)
(308.21542 5.1257272e-17 -28.707597)
(307.19167 -4.2680516e-17 -30.096496)
(306.44669 -5.1626604e-20 -29.097181)
(305.25682 2.5255949e-21 -29.829887)
(303.98931 -4.9057608e-17 -29.346232)
(302.39689 -8.1875659e-17 -29.635986)
(300.53518 0 -29.389315)
(298.33049 -2.8274503e-17 -29.392137)
(295.74929 2.3200551e-17 -29.133554)
(292.77434 0 -28.85129)
(289.39123 5.0940019e-16 -28.335884)
(285.64419 -2.3651371e-16 -27.605231)
(281.61659 3.4453601e-16 -26.542521)
(277.46936 -2.4519209e-16 -25.10997)
(273.40976 4.4134723e-16 -23.275056)
(269.66188 3.6953908e-16 -21.081042)
(266.41204 1.1817652e-15 -18.626601)
(263.76566 -4.6878303e-16 -16.056546)
(261.73623 2.3038067e-18 -13.51984)
(260.26828 -1.1380122e-15 -11.147374)
(259.26803 -9.0976754e-16 -9.0292121)
(258.6225 -6.8607765e-16 -7.2184228)
(258.25122 2.089339e-15 -5.7332628)
(258.1164 -8.1242664e-16 -4.5560125)
(258.14283 1.8432589e-17 -3.6378612)
(258.26743 8.7640734e-16 -2.9375445)
(258.45229 0 -2.4173269)
(258.66281 9.4908815e-16 -2.0252154)
(258.88695 -1.4067137e-15 -1.7176802)
(259.15923 1.5726479e-17 -1.4330611)
(259.67788 0 -1.115145)
(260.40248 -1.0494387e-15 -0.816496)
(260.83284 0 -0.58946309)
(261.04631 0 -0.44813028)
(261.13037 -2.4400593e-17 -0.34931889)
(261.15194 1.1413042e-15 -0.26610178)
(261.14963 1.2656988e-17 -0.18943318)
(261.18918 -9.1564498e-18 -0.11190188)
(261.23159 8.5147651e-16 -0.048617879)
(222.48977 4.3612823e-16 -22.280306)
(260.32643 -3.1877926e-16 -25.168617)
(284.7768 8.2119741e-18 -28.177529)
(304.87638 0 -29.802799)
(308.28745 -1.1655766e-17 -31.456307)
(311.10676 2.9144939e-17 -29.904096)
(308.75445 -1.6250206e-17 -32.049793)
(310.07101 0 -29.613046)
(308.53057 1.8055394e-16 -32.166109)
(308.96228 -1.4992946e-16 -29.78517)
(307.81298 3.1250384e-17 -31.932595)
(307.57957 0 -30.194889)
(306.5204 0 -31.590575)
(305.73009 -1.4448212e-16 -30.595663)
(304.4916 5.9787761e-17 -31.311776)
(303.16111 5.0098808e-17 -30.836855)
(301.49859 4.1536917e-17 -31.103303)
(299.55262 0 -30.851358)
(297.25238 0 -30.822461)
(294.56358 2.3806446e-17 -30.532559)
(291.47209 1.9929812e-17 -30.194168)
(287.97023 -2.9019933e-16 -29.605425)
(284.11324 4.2584412e-16 -28.770989)
(280.00198 -3.7034203e-16 -27.57571)
(275.81635 3.2160867e-16 -25.982249)
(271.77912 4.5010027e-16 -23.970352)
(268.11919 -1.1455617e-15 -21.59902)
(265.01491 -1.1782417e-15 -18.984481)
(262.54929 0 -16.283239)
(260.70943 2.3484194e-18 -13.647577)
(259.42371 1.7326586e-15 -11.206373)
(258.59016 9.4340811e-16 -9.0449471)