/*--------------------------------*- C++ -*----------------------------------*\
  =========                 |
  \\      /  F ield         | OpenFOAM: The Open Source CFD Toolbox
   \\    /   O peration     | Website:  https://openfoam.org
    \\  /    A nd           | Version:  8
     \\/     M anipulation  |
\*---------------------------------------------------------------------------*/
FoamFile
{
    version     2.0;
    format      ascii;
    class       volVectorField;
    location    "0.0599932";
    object      wallShearStress;
}
// * * * * * * * * * * * * * * * * * * * * * * * * * * * * * * * * * * * * * //

dimensions      [1 -1 -2 0 0 0 0];

internalField   uniform (0 0 0);

boundaryField
{
    aerofoil
    {
        type            calculated;
        value           nonuniform List<vector> 
300
(
(-130.40374 -6.308942e-23 4.772451)
(-131.95049 4.8285661e-23 5.343804)
(-134.36882 2.4448974e-20 5.9883662)
(-136.65271 8.9945226e-19 6.6530043)
(-138.92471 -9.796357e-19 7.3455116)
(-141.12521 -2.3395096e-20 8.063009)
(-143.25659 -2.5061211e-16 8.8059594)
(-145.3193 3.9439343e-18 9.572982)
(-147.33232 -2.6306493e-16 10.365755)
(-149.29408 -2.6517912e-16 11.186048)
(-151.21774 -2.758256e-16 12.03616)
(-153.11413 4.7999896e-20 12.911523)
(-154.96099 2.8613566e-16 13.8171)
(-156.73792 5.8505181e-16 14.74523)
(-158.44758 4.5418928e-20 15.700364)
(-160.06719 4.8037513e-18 16.682162)
(-161.59168 -3.1671467e-16 17.687282)
(-163.03334 -3.237591e-16 18.72054)
(-164.39088 -3.2045314e-16 19.779319)
(-165.68427 -3.3234332e-16 20.868672)
(-166.9211 3.4666739e-33 21.991037)
(-168.11021 3.8412721e-19 23.147482)
(-169.27083 4.235796e-19 24.343619)
(-170.40429 -9.2070702e-20 25.576897)
(-171.53966 -7.4220808e-16 26.859925)
(-172.64294 5.9678165e-18 28.183482)
(-173.72154 -1.187622e-17 29.553583)
(-174.7728 -3.6627714e-16 30.975158)
(-175.78471 -8.0887746e-16 32.446567)
(-176.75335 -7.623568e-22 33.97337)
(-177.64235 8.2731142e-16 35.552573)
(-178.45034 -4.2147771e-16 37.183346)
(-179.1795 -1.3455515e-17 38.871165)
(-179.85561 1.3644639e-17 40.626377)
(-180.49305 -2.5135927e-20 42.462502)
(-181.09974 -9.0769838e-16 44.394965)
(-181.69377 4.6322705e-16 46.426305)
(-182.2531 4.8670005e-16 48.540891)
(-182.71546 -1.6414978e-17 50.71067)
(-183.06799 1.5646763e-18 52.947755)
(-183.26353 -4.9903913e-16 55.249493)
(-183.26772 5.113116e-20 57.612243)
(-183.03772 -2.1050239e-17 60.036415)
(-182.53688 -5.0634724e-16 62.508705)
(-181.72946 5.1451889e-16 65.033988)
(-180.62261 2.0494087e-17 67.621099)
(-179.18221 -6.5995689e-18 70.274001)
(-177.39741 5.7210979e-16 73.000832)
(-175.24158 -2.2252187e-17 75.79203)
(-172.69363 -5.9274817e-16 78.639053)
(-169.74635 6.0299697e-16 81.546524)
(-166.37926 -5.9525612e-16 84.501927)
(-162.58306 -5.9993762e-16 87.480588)
(-158.37747 1.1645883e-17 90.450855)
(-153.80153 -5.0821721e-18 93.355459)
(-148.93394 1.7363525e-18 96.120377)
(-143.82752 -6.6565957e-16 98.707131)
(-138.3387 -6.6208901e-16 101.03841)
(-132.26219 6.8657473e-16 102.98245)
(-125.5157 -6.8105682e-16 104.39824)
(-118.04849 3.151514e-17 105.1795)
(-109.81239 -2.1484773e-17 105.15527)
(-100.78379 -7.043083e-16 104.10994)
(-90.909165 3.0683126e-18 101.85062)
(-80.16602 -9.4906126e-20 98.192174)
(-68.707661 5.2963073e-34 92.739935)
(-56.741263 1.1352949e-17 85.072422)
(-44.701919 7.0575423e-16 75.019786)
(-32.93562 -6.944917e-16 62.369143)
(-21.203626 -1.0953685e-17 47.199676)
(-11.488548 6.981496e-33 30.28787)
(-5.3939674 4.4396368e-18 13.931465)
(-2.0274813 -1.6924319e-18 3.8158905)
(-0.86076985 -9.6969397e-19 -0.78932384)
(-1.5811287 1.5751467e-17 -8.7643895)
(-0.21076165 -2.0494229e-16 -0.40900108)
(-2.7465624 -1.9652772e-21 -0.27120766)
(-2.8480357 -9.4854501e-23 -0.30827586)
(-3.9968024 1.0465019e-22 -0.42239569)
(-4.9595114 -7.6796816e-23 -0.51579432)
(-6.1314116 -2.7213203e-20 -0.62797888)
(-7.3487594 3.5042662e-16 -0.73727083)
(-8.6652519 -2.7554794e-26 -0.85364554)
(-10.009717 4.5849215e-23 -0.97231521)
(-11.382285 -4.6239001e-20 -1.0901393)
(-12.77806 -8.3035038e-16 -1.2060734)
(-14.190913 -4.2865959e-16 -1.3196504)
(-15.613576 -4.4109146e-16 -1.4303763)
(-17.044087 4.5285732e-16 -1.5381899)
(-18.477576 -4.6377318e-16 -1.6422996)
(-19.905382 4.7186486e-26 -1.7424805)
(-21.325288 -4.8386206e-16 -1.8383521)
(-22.738781 4.927576e-16 -1.9297587)
(-24.152803 5.0144806e-16 -2.0174729)
(-25.571239 -5.097736e-16 -2.101795)
(-26.990431 5.178708e-16 -2.182773)
(-28.411751 -1.256321e-22 -2.2599867)
(-29.835463 -3.5229146e-22 -2.3339182)
(-31.26183 -1.5524117e-19 -2.4040783)
(-32.684757 -1.4168056e-19 -2.4707892)
(-34.10498 -2.7673858e-16 -2.533262)
(-35.524291 2.7992181e-16 -2.5922404)
(-36.950815 7.6287031e-25 -2.6472457)
(-38.387871 2.86054e-16 -2.6992122)
(-39.840902 2.8902763e-16 -2.7476878)
(-41.303782 1.5368671e-19 -2.7928722)
(-42.776887 2.94779e-16 -2.8351012)
(-44.265281 1.3812689e-25 -2.8730566)
(-45.760453 -1.3419066e-20 -2.9068167)
(-47.262201 -6.061836e-16 -2.9363574)
(-48.77412 6.1127682e-16 -2.9616282)
(-50.304103 3.0814879e-33 -2.9826001)
(-51.85273 -3.107783e-16 -2.9991019)
(-53.420084 -3.1330056e-16 -3.010725)
(-55.006151 -3.8926997e-20 -3.0177323)
(-56.616804 3.1819351e-16 -3.0195953)
(-58.248147 3.2082832e-16 -3.0158845)
(-59.894897 3.231944e-16 -3.006138)
(-61.555317 3.2557299e-16 -2.9902932)
(-63.234006 3.2783714e-16 -2.9672187)
(-64.934803 9.4222468e-20 -2.9372982)
(-66.668617 3.1810458e-20 -2.8999459)
(-68.436982 9.5975661e-20 -2.8548191)
(-70.232559 3.3777412e-16 -2.8017219)
(-72.045748 4.263437e-20 -2.7400616)
(-73.869777 -3.4310288e-16 -2.6686161)
(-75.70318 -3.4568642e-16 -2.5872671)
(-77.560592 -1.7405741e-16 -2.4971518)
(-79.454538 -9.9779386e-20 -2.3956245)
(-81.384465 1.8413961e-25 -2.2811495)
(-83.352225 1.7727015e-16 -2.1542439)
(-85.360876 -1.7835517e-16 -2.014077)
(-87.409957 -2.7323817e-21 -1.8595939)
(-89.491863 1.803079e-16 -1.6901025)
(-91.59752 8.1856725e-33 -1.5052422)
(-93.723268 1.8242813e-16 -1.3023803)
(-95.861821 -9.1652869e-17 -1.0821049)
(-98.021338 9.3456718e-21 -0.84245579)
(-100.2074 1.8521068e-16 -0.58489213)
(-102.43058 -4.4410117e-20 -0.31413496)
(-104.69076 4.6832097e-17 -0.020176661)
(-106.98358 7.2849581e-20 0.33708185)
(-109.31487 5.0770381e-20 0.70373196)
(-111.67878 1.4849854e-18 1.1042092)
(-114.09394 2.3883584e-17 1.5447779)
(-116.56268 0 2.0094829)
(-119.07347 9.6513557e-17 2.4811576)
(-121.61357 -1.9406865e-16 2.9977211)
(-124.18749 8.6190763e-21 3.5565958)
(-127.59054 -2.8012944e-39 4.1762628)
(-160.62025 8.161136e-17 4.6973082)
(-161.25582 -8.3332319e-17 4.0958043)
(-161.14466 8.5260899e-17 3.4571362)
(-161.08633 -3.0092655e-36 2.7587845)
(-161.051 -2.2326496e-17 2.0259202)
(-161.04364 -9.9803025e-18 1.3061624)
(-161.04732 -2.9508915e-18 0.56312774)
(-161.07787 -2.2429595e-17 -0.19404846)
(-161.14369 1.5347254e-34 -0.87735041)
(-161.23506 9.8505551e-21 -1.5869213)
(-161.34496 5.0870391e-17 -2.3155489)
(-161.46848 -1.0243452e-16 -3.0597537)
(-161.61194 -4.917505e-18 -3.8200981)
(-161.75834 -1.0197609e-16 -4.593662)
(-161.93131 -6.7595119e-18 -5.3851875)
(-162.1269 1.1693408e-16 -6.1984828)
(-162.32375 -2.7825292e-21 -7.0357033)
(-162.53476 -1.1792732e-16 -7.8916254)
(-162.7457 -1.2439948e-16 -8.7637301)
(-162.97166 7.674162e-18 -9.6566559)
(-163.20905 2.3779504e-20 -10.571882)
(-163.45288 2.4753256e-16 -11.509058)
(-163.71435 -2.5667709e-16 -12.471586)
(-163.97058 1.2518545e-33 -13.454401)
(-164.24084 4.088478e-21 -14.466695)
(-164.50154 -4.7755689e-21 -15.503251)
(-164.77967 3.490748e-33 -16.57001)
(-165.07929 -9.0012751e-18 -17.671241)
(-165.37208 5.9537486e-16 -18.801347)
(-165.66456 -3.0825999e-16 -19.968459)
(-165.95273 3.0445292e-16 -21.175392)
(-166.2282 9.6690688e-18 -22.422838)
(-166.46927 1.8158132e-19 -23.707818)
(-166.67326 0 -25.035105)
(-166.85933 -3.2879722e-16 -26.416977)
(-167.04322 1.0054519e-17 -27.859628)
(-167.23545 3.3122998e-16 -29.366078)
(-167.4559 1.0935049e-17 -30.945697)
(-167.71111 -1.0168601e-17 -32.608581)
(-167.99898 3.7295801e-16 -34.361398)
(-168.33363 -3.6892284e-16 -36.213841)
(-168.74064 -1.1772745e-17 -38.182976)
(-169.16018 2.6251621e-18 -40.275713)
(-169.58113 3.9230452e-16 -42.497762)
(-169.9263 -4.8372121e-20 -44.831891)
(-170.19148 -3.9581152e-16 -47.303021)
(-170.30371 -4.2755367e-16 -49.924711)
(-170.30993 1.9259299e-32 -52.732689)
(-170.16348 3.0497897e-18 -55.725028)
(-169.84909 -4.4275976e-16 -58.890822)
(-169.34106 -4.506934e-16 -62.237853)
(-168.53033 -1.413751e-17 -65.766179)
(-167.24388 9.5210821e-18 -69.46619)
(-165.35662 -1.2575438e-17 -73.354328)
(-162.72832 4.7637026e-16 -77.43851)
(-159.24011 1.5076407e-17 -81.801107)
(-154.86181 6.7407548e-34 -86.56906)
(-149.66836 -9.9167182e-16 -91.899851)
(-143.73897 -3.2022736e-17 -97.81807)
(-137.35823 1.5456979e-18 -104.1666)
(-131.94407 2.0325374e-17 -111.10596)
(-128.05428 -1.6160176e-17 -118.42131)
(-124.54978 3.0814879e-33 -125.6793)
(-120.20512 5.7826565e-16 -132.34081)
(-114.16855 1.1902136e-15 -137.81951)
(-106.13229 -5.888697e-16 -141.47499)
(-96.222236 -3.0814879e-33 -142.93737)
(-84.127379 -1.0187917e-17 -141.2356)
(-70.154072 6.6480324e-16 -135.56663)
(-55.114863 -6.6208392e-16 -125.50612)
(-39.959425 3.4199581e-16 -110.66289)
(-25.861394 3.2290892e-16 -91.38091)
(-14.567622 1.7449397e-16 -68.968856)
(-7.3301767 1.6158917e-16 -44.853249)
(-3.254712 -3.7051495e-17 -22.359747)
(-154.85613 9.5718951e-16 25.389964)
(-147.81265 2.0167553e-20 26.066458)
(-149.57232 -1.050422e-15 26.234786)
(-151.79103 1.0504555e-15 26.357481)
(-152.82664 -1.0495354e-15 26.277907)
(-153.42384 1.0481751e-15 26.128284)
(-153.38367 -1.045961e-15 25.878006)
(-152.95665 2.9798248e-21 25.565421)
(-152.28759 -9.8929057e-22 25.213244)
(-151.47369 4.6844603e-19 24.843295)
(-150.54195 1.0216772e-15 24.459812)
(-149.5022 4.6318265e-19 24.067103)
(-148.36241 -4.3876252e-21 23.666016)
(-147.14727 1.0041547e-15 23.259573)
(-145.86606 -9.9120916e-26 22.846996)
(-144.52484 4.7688482e-26 22.432223)
(-143.13554 9.8485366e-16 22.016157)
(-141.70672 -3.8518599e-34 21.599493)
(-140.2397 -9.72474e-16 21.183914)
(-138.74713 9.3753617e-20 20.766799)
(-137.22614 9.6001424e-16 20.350894)
(-135.68394 -9.537759e-16 19.936735)
(-134.11509 9.4749826e-16 19.524931)
(-132.51452 9.4149986e-16 19.112957)
(-130.89503 -9.3485256e-16 18.704658)
(-129.24876 0 18.296526)
(-127.56795 3.9413932e-19 17.889033)
(-125.86344 1.8292645e-15 17.481342)
(-124.20109 9.0789198e-16 17.082995)
(-122.54273 -4.2417445e-19 16.687816)
(-120.87179 4.2089019e-20 16.295387)
(-119.19419 8.4487094e-22 15.90661)
(-117.50924 -8.8057911e-16 15.5188)
(-115.80756 8.7323558e-16 15.132335)
(-114.08563 8.6636939e-16 14.747098)
(-112.34276 -3.4850099e-19 14.362932)
(-110.57604 -2.5135371e-38 13.978581)
(-108.77948 7.4379065e-26 13.592938)
(-106.93042 1.589854e-21 13.203157)
(-105.00067 -3.0350629e-19 12.807257)
(-102.94824 8.178165e-16 12.401285)
(-100.74859 -8.0903452e-16 11.983881)
(-98.380846 1.3389507e-19 11.554711)
(-95.881155 -9.2702763e-26 11.118292)
(-93.305614 -1.7601188e-19 10.678793)
(-90.741953 -7.6978433e-16 10.243646)
(-88.245739 1.1586802e-19 9.8121791)
(-85.690855 5.7511752e-20 9.371352)
(-82.613975 6.5150635e-20 8.8902585)
(-78.488257 7.2395584e-16 8.3214606)
(-73.285404 -7.873029e-20 7.6566288)
(-66.829593 -6.8734234e-16 6.9027599)
(-58.925871 -6.605355e-16 6.0559631)
(-50.480156 -7.5415277e-20 5.1588754)
(-42.378232 -3.6911683e-20 4.3117086)
(-36.044447 -2.76325e-16 3.6500421)
(-36.688419 7.6613035e-20 3.5534686)
(-52.065808 2.8059505e-20 4.5620386)
(-80.512191 -3.084532e-16 6.6418868)
(-112.44412 1.9128895e-19 8.9976165)
(-137.8368 -3.1377503e-16 10.819947)
(-152.54141 -9.6470867e-26 11.608261)
(-158.99123 -3.093407e-16 11.750425)
(-161.83335 3.0765428e-16 11.540701)
(-162.89642 -4.239507e-20 11.158045)
(-163.25873 -3.0575424e-16 10.698338)
(-163.33564 -6.104106e-16 10.197481)
(-163.33712 -3.0454636e-16 9.6743681)
(-163.28056 0 9.1326091)
(-163.14387 -3.0332445e-16 8.5660281)
(-162.95882 -9.2433203e-21 7.9739958)
(-162.7332 4.6323263e-22 7.3602048)
(-162.49846 -2.2871304e-20 6.7255305)
(-162.26559 -8.1912017e-21 6.0748084)
(-161.02213 -2.3498195e-20 5.3675975)
)
;
    }
    inlet
    {
        type            calculated;
        value           uniform (0 0 0);
    }
    outlet
    {
        type            calculated;
        value           uniform (0 0 0);
    }
    back
    {
        type            empty;
    }
    front
    {
        type            empty;
    }
}


// ************************************************************************* //
