/*--------------------------------*- C++ -*----------------------------------*\
  =========                 |
  \\      /  F ield         | OpenFOAM: The Open Source CFD Toolbox
   \\    /   O peration     | Website:  https://openfoam.org
    \\  /    A nd           | Version:  8
     \\/     M anipulation  |
\*---------------------------------------------------------------------------*/
FoamFile
{
    version     2.0;
    format      ascii;
    class       volScalarField;
    location    "0.0599932";
    object      yPlus;
}
// * * * * * * * * * * * * * * * * * * * * * * * * * * * * * * * * * * * * * //

dimensions      [0 0 0 0 0 0 0];

internalField   uniform 0;

boundaryField
{
    aerofoil
    {
        type            calculated;
        value           nonuniform List<scalar> 
300
(
131.04969
131.00163
131.19144
131.32236
131.48687
131.63844
131.79204
131.93717
132.08868
132.24512
132.41233
132.59295
132.78766
132.97827
133.17152
133.36158
133.54035
133.71792
133.89008
134.0682
134.25734
134.45734
134.6823
134.92329
135.20524
135.50507
135.82555
136.1697
136.52701
136.89921
137.27402
137.6498
138.02205
138.40101
138.79809
139.21986
139.67413
140.15003
140.62374
141.09053
141.53136
141.93696
142.28692
142.58388
142.7979
142.95585
143.03644
143.04938
142.99598
142.86834
142.67563
142.43031
142.13657
141.80845
141.46893
141.14896
140.87225
140.62797
140.28984
139.82184
139.15568
138.25065
137.0197
135.30913
132.95342
129.71854
125.14203
118.78208
109.79781
96.789545
78.624779
54.361088
29.270409
13.297397
42.496463
8.0178374
21.334579
21.656749
25.629188
28.49824
31.637844
34.578244
37.486109
40.224728
42.823693
45.300419
47.662533
49.915537
52.069377
54.130911
56.09763
57.97672
59.778169
61.517454
63.205261
64.841181
66.431224
67.978244
69.486686
70.951533
72.377314
73.76678
75.131107
76.473543
77.801795
79.110302
80.399211
81.675328
82.931769
84.168797
85.389523
86.600947
87.804484
89.000119
90.187299
91.3716
92.550687
93.720027
94.878553
96.03015
97.176934
98.32621
99.479562
100.63111
101.77404
102.90379
104.02192
105.13738
106.25876
107.38366
108.51278
109.64739
110.78859
111.93131
113.06964
114.20223
115.32372
116.43985
117.55336
118.66973
119.79187
120.91558
122.04564
123.17608
124.31819
125.47452
126.63841
127.80522
128.97542
130.25226
124.41044
123.73509
123.02967
122.38734
121.78446
121.23082
120.71248
120.23678
119.80214
119.41184
119.05873
118.73983
118.46103
118.20763
117.99006
117.80993
117.65348
117.5294
117.42536
117.34867
117.29853
117.26965
117.2726
117.28828
117.33492
117.39507
117.47591
117.58757
117.71117
117.85398
118.01248
118.18703
118.36837
118.5519
118.74766
118.96603
119.20871
119.48414
119.79834
120.15364
120.5521
121.01068
121.5053
122.05494
122.61223
123.19418
123.76117
124.35017
124.95521
125.57183
126.19934
126.81858
127.37318
127.83712
128.19122
128.44121
128.62615
128.89905
129.33127
130.05091
131.64796
134.37954
137.84701
141.57579
145.18187
148.31306
150.93754
152.42914
152.17978
149.60365
143.65107
133.31923
117.86316
96.035744
67.944802
144.64794
153.52437
153.73946
154.45667
154.45206
154.35332
153.93154
153.36316
152.68945
151.9663
151.20032
150.39764
149.5563
148.68807
147.79749
146.88449
145.95291
145.00855
144.04774
143.07937
142.09756
141.10963
140.10827
139.09472
138.06919
137.03118
135.97127
134.89936
133.84557
132.7941
131.73291
130.66464
129.59004
128.50407
127.40382
126.28764
125.1516
123.99408
122.80076
121.55966
120.24223
118.83905
117.32396
115.71698
114.03098
112.30555
110.58007
108.78444
106.70624
103.96898
100.45391
96.025796
90.265269
83.559743
76.539462
70.366188
70.124075
81.092131
96.341568
108.89923
116.93882
121.43914
123.06592
123.83292
124.10572
124.2294
124.29107
124.3593
124.44245
124.51528
124.58338
124.64067
124.69958
124.76543
124.75905
)
;
    }
    inlet
    {
        type            calculated;
        value           uniform 0;
    }
    outlet
    {
        type            calculated;
        value           uniform 0;
    }
    back
    {
        type            empty;
    }
    front
    {
        type            empty;
    }
}


// ************************************************************************* //
