/*--------------------------------*- C++ -*----------------------------------*\
  =========                 |
  \\      /  F ield         | OpenFOAM: The Open Source CFD Toolbox
   \\    /   O peration     | Website:  https://openfoam.org
    \\  /    A nd           | Version:  8
     \\/     M anipulation  |
\*---------------------------------------------------------------------------*/
FoamFile
{
    version     2.0;
    format      ascii;
    class       volScalarField;
    location    "0.259994";
    object      alphat;
}
// * * * * * * * * * * * * * * * * * * * * * * * * * * * * * * * * * * * * * //

dimensions      [1 -1 -1 0 0 0 0];

internalField   nonuniform List<scalar> 
20000
(
0.00096022912
0.002386904
0.0032091583
0.0035288467
0.003231011
0.0020215417
0.00033718283
1.2739268e-08
2.0237496e-09
2.0177889e-09
1.9381661e-09
1.9601149e-09
1.9234714e-09
1.9544561e-09
1.9541868e-09
1.993115e-09
2.0183159e-09
2.0694581e-09
2.1201101e-09
2.1957886e-09
2.282878e-09
2.4009268e-09
2.5451797e-09
2.7334732e-09
2.9685924e-09
3.2669436e-09
3.6335743e-09
4.0737851e-09
4.574711e-09
5.1126212e-09
5.6525883e-09
6.1628047e-09
6.6206084e-09
7.0163918e-09
7.3473636e-09
7.6188968e-09
7.8366078e-09
8.0107262e-09
8.1459696e-09
8.2511095e-09
8.3308206e-09
8.3949644e-09
8.4497573e-09
8.4995047e-09
8.5511309e-09
8.6037173e-09
8.6523298e-09
8.6823735e-09
8.6933442e-09
8.6624722e-09
0.00096276317
0.002372717
0.003162094
0.0034484101
0.0031144748
0.001836058
0.00025646572
7.0926742e-09
2.0240834e-09
2.0207519e-09
1.9404183e-09
1.9631668e-09
1.9289445e-09
1.9613785e-09
1.9619148e-09
2.0024929e-09
2.0289615e-09
2.0820592e-09
2.1349133e-09
2.2134721e-09
2.3038299e-09
2.4256845e-09
2.5743161e-09
2.7673772e-09
3.0076108e-09
3.3105753e-09
3.6804253e-09
4.1208988e-09
4.6189481e-09
5.1515444e-09
5.6850658e-09
6.1890982e-09
6.641658e-09
7.0329375e-09
7.360329e-09
7.6288575e-09
7.8441854e-09
8.0164298e-09
8.1502813e-09
8.2544051e-09
8.3334875e-09
8.3974885e-09
8.4519902e-09
8.5018413e-09
8.5534466e-09
8.6067059e-09
8.6577887e-09
8.6836588e-09
8.6951509e-09
8.6614637e-09
0.00095758423
0.0023465599
0.0031104256
0.003369101
0.0030051539
0.0016595752
0.00018467615
4.6847299e-09
2.0292192e-09
2.0261993e-09
1.9465171e-09
1.9686299e-09
1.9378059e-09
1.9716571e-09
1.9730862e-09
2.0153806e-09
2.0434825e-09
2.0988488e-09
2.1541036e-09
2.2355784e-09
2.3293174e-09
2.4552902e-09
2.6088494e-09
2.8076008e-09
3.0542281e-09
3.3635088e-09
3.7384096e-09
4.1806908e-09
4.6760222e-09
5.2018471e-09
5.7268567e-09
6.2223041e-09
6.6673351e-09
7.052413e-09
7.374828e-09
7.6395204e-09
7.8519506e-09
8.0220337e-09
8.1543316e-09
8.2573383e-09
8.3357077e-09
8.3994899e-09
8.4538928e-09
8.5040953e-09
8.5558979e-09
8.6119239e-09
8.6623521e-09
8.6895025e-09
8.6974254e-09
8.658246e-09
0.00095323555
0.0023229416
0.0030610618
0.0032911103
0.002897443
0.0014894111
0.00012071281
3.5261936e-09
2.0368773e-09
2.0355251e-09
1.9568996e-09
1.9798591e-09
1.949857e-09
1.9849767e-09
1.9871527e-09
2.0310772e-09
2.0606936e-09
2.1182433e-09
2.1759553e-09
2.2605957e-09
2.3581138e-09
2.4887375e-09
2.6479447e-09
2.8533447e-09
3.1075764e-09
3.42468e-09
3.8063294e-09
4.2522135e-09
4.7465751e-09
5.2666508e-09
5.7827319e-09
6.268087e-09
6.7035322e-09
7.0803015e-09
7.3959775e-09
7.6553073e-09
7.8635987e-09
8.0305469e-09
8.1605204e-09
8.2618893e-09
8.3391956e-09
8.4024945e-09
8.4565798e-09
8.506808e-09
8.5587898e-09
8.6172255e-09
8.6677066e-09
8.6928658e-09
8.7000052e-09
8.6551255e-09
0.00094927954
0.0023003897
0.0030127219
0.003212894
0.0027901082
0.0013261679
6.7925028e-05
2.9381606e-09
2.0467226e-09
2.0474933e-09
1.9689931e-09
1.9933093e-09
1.9638203e-09
2.0002234e-09
2.0033941e-09
2.0490649e-09
2.0803955e-09
2.1403291e-09
2.2007392e-09
2.2887832e-09
2.3904328e-09
2.5261945e-09
2.6917194e-09
2.9046434e-09
3.1675806e-09
3.4937744e-09
3.8834348e-09
4.3339373e-09
4.8277713e-09
5.3418962e-09
5.8481994e-09
6.3220941e-09
6.7463446e-09
7.1133107e-09
7.4209052e-09
7.6738473e-09
7.8772023e-09
8.0404285e-09
8.1676462e-09
8.2670725e-09
8.3431154e-09
8.4057594e-09
8.4594916e-09
8.5096545e-09
8.5618646e-09
8.6234062e-09
8.6727538e-09
8.6968979e-09
8.7025337e-09
8.6516442e-09
0.00094559711
0.0022789544
0.0029658589
0.003134439
0.0026823089
0.0011702479
3.1608268e-05
2.6274094e-09
2.0581737e-09
2.0608375e-09
1.9827849e-09
2.0085336e-09
1.9797089e-09
2.0174824e-09
2.0216855e-09
2.0691506e-09
2.1022826e-09
2.1647095e-09
2.2280077e-09
2.3197587e-09
2.4259778e-09
2.5674385e-09
2.7400056e-09
2.9613495e-09
3.2340778e-09
3.5705354e-09
3.9693004e-09
4.4252998e-09
4.9191915e-09
5.4274588e-09
5.9234309e-09
6.3847575e-09
6.7964012e-09
7.1521267e-09
7.4503747e-09
7.6958469e-09
7.8933851e-09
8.052204e-09
8.1761331e-09
8.2732527e-09
8.3477963e-09
8.4095876e-09
8.4628448e-09
8.5127532e-09
8.5651589e-09
8.6298948e-09
8.6777095e-09
8.7002885e-09
8.7048176e-09
8.6481735e-09
0.000942549
0.002258895
0.0029207719
0.003057837
0.0025716178
0.0010220076
1.2255988e-05
2.4626842e-09
2.0712679e-09
2.0757987e-09
1.9982171e-09
2.0253662e-09
1.99727e-09
2.0364625e-09
2.0418346e-09
2.0911828e-09
2.1262779e-09
2.1913723e-09
2.2578247e-09
2.3536028e-09
2.464833e-09
2.6125497e-09
2.792876e-09
3.0235226e-09
3.307072e-09
3.6548288e-09
4.0635333e-09
4.5255045e-09
5.0195189e-09
5.5216307e-09
6.0066091e-09
6.4544006e-09
6.8522926e-09
7.1956432e-09
7.4835033e-09
7.7206259e-09
7.9116278e-09
8.0654794e-09
8.1856968e-09
8.280201e-09
8.3530486e-09
8.4138373e-09
8.466516e-09
8.5160593e-09
8.5687831e-09
8.6365874e-09
8.6821617e-09
8.7033463e-09
8.7065532e-09
8.6447207e-09
0.00093979675
0.002239483
0.0028771302
0.0029832967
0.002456753
0.00088264367
4.1876565e-06
2.3775772e-09
2.0858903e-09
2.0921883e-09
2.0152865e-09
2.0437649e-09
2.016489e-09
2.0571475e-09
2.0637846e-09
2.1150893e-09
2.1522898e-09
2.2202309e-09
2.2901015e-09
2.390261e-09
2.5069807e-09
2.6615447e-09
2.8503783e-09
3.0912307e-09
3.3866146e-09
3.7466118e-09
4.1659085e-09
4.6340978e-09
5.1281178e-09
5.6236623e-09
6.0969811e-09
6.5303651e-09
6.9135187e-09
7.2435133e-09
7.5200882e-09
7.7480713e-09
7.931876e-09
8.0802354e-09
8.1963343e-09
8.2879374e-09
8.3588944e-09
8.4185292e-09
8.4705013e-09
8.5196324e-09
8.5731399e-09
8.6430862e-09
8.6858232e-09
8.7051067e-09
8.7069482e-09
8.6413789e-09
0.00093723608
0.0022204229
0.0028340379
0.0029055157
0.002336037
0.00075313422
1.3467325e-06
2.3371976e-09
2.1021055e-09
2.109998e-09
2.0338348e-09
2.0636384e-09
2.0372565e-09
2.0794266e-09
2.087455e-09
2.140814e-09
2.1803004e-09
2.2512972e-09
2.3249005e-09
2.4298189e-09
2.5525242e-09
2.7145444e-09
2.9126555e-09
3.1646328e-09
3.4728335e-09
3.8458955e-09
4.2762149e-09
4.750575e-09
5.2441647e-09
5.7325014e-09
6.1934209e-09
6.6115992e-09
6.9791933e-09
7.2950514e-09
7.5596064e-09
7.7777979e-09
7.9538509e-09
8.0962739e-09
8.2079109e-09
8.2963695e-09
8.3652622e-09
8.4236036e-09
8.4747376e-09
8.5235088e-09
8.578785e-09
8.6489941e-09
8.6886429e-09
8.7059004e-09
8.7068888e-09
8.6381226e-09
0.0009346844
0.0022015175
0.0027891829
0.0028277091
0.0022092724
0.00063544032
4.3249297e-07
2.3223765e-09
2.1197721e-09
2.1290928e-09
2.0537631e-09
2.0848958e-09
2.0595186e-09
2.1032649e-09
2.1128199e-09
2.1683449e-09
2.2103115e-09
2.284602e-09
2.3622632e-09
2.4723403e-09
2.6015552e-09
2.7716738e-09
2.9798733e-09
3.2439234e-09
3.5659024e-09
3.95274e-09
4.3943101e-09
4.8745441e-09
5.3670428e-09
5.8473703e-09
6.295091e-09
6.6973106e-09
7.0486426e-09
7.3497232e-09
7.6016676e-09
7.8095239e-09
7.9773545e-09
8.1134603e-09
8.2203381e-09
8.305448e-09
8.3721195e-09
8.4290303e-09
8.4791872e-09
8.5277074e-09
8.585958e-09
8.6541801e-09
8.6909531e-09
8.7062309e-09
8.7065895e-09
8.6348419e-09
0.00093271032
0.0021834063
0.0027451291
0.0027494944
0.0020758755
0.00053441193
1.4565794e-07
2.3222226e-09
2.1386697e-09
2.149383e-09
2.0750125e-09
2.1075023e-09
2.0832464e-09
2.1286383e-09
2.1398693e-09
2.197692e-09
2.2423658e-09
2.3202063e-09
2.4022837e-09
2.5179423e-09
2.6542205e-09
2.8331185e-09
3.052261e-09
3.3293582e-09
3.6660404e-09
4.0672279e-09
4.5200498e-09
5.0055912e-09
5.4960901e-09
5.9674381e-09
6.4011015e-09
6.7866532e-09
7.1211361e-09
7.4069444e-09
7.6458235e-09
7.8429146e-09
8.0021435e-09
8.1316219e-09
8.2334995e-09
8.3150973e-09
8.3794163e-09
8.434761e-09
8.4837976e-09
8.532194e-09
8.593971e-09
8.6592294e-09
8.6930243e-09
8.7062408e-09
8.7061219e-09
8.6314471e-09
0.00093088128
0.0021653932
0.0027010021
0.00267109
0.0019363493
0.00043835638
5.2654148e-08
2.3309948e-09
2.1588657e-09
2.170898e-09
2.0975905e-09
2.1314594e-09
2.1084304e-09
2.1555501e-09
2.16862e-09
2.2288987e-09
2.2765237e-09
2.3581967e-09
2.4450562e-09
2.566743e-09
2.7106753e-09
2.8990833e-09
3.1300761e-09
3.4212224e-09
3.7734863e-09
4.189449e-09
4.6532953e-09
5.1433293e-09
5.6307079e-09
6.0919719e-09
6.5106754e-09
6.878887e-09
7.1960291e-09
7.4661912e-09
7.691669e-09
7.8776638e-09
8.0279931e-09
8.1505996e-09
8.247288e-09
8.3252452e-09
8.387105e-09
8.4407503e-09
8.4885326e-09
8.536928e-09
8.6026361e-09
8.6641292e-09
8.6949693e-09
8.7061612e-09
8.7046775e-09
8.6277497e-09
0.00092934025
0.0021474908
0.0026564245
0.0025906691
0.0017911906
0.00034986765
2.1699383e-08
2.3453712e-09
2.1803078e-09
2.1935812e-09
2.1214646e-09
2.1567493e-09
2.1350824e-09
2.1840194e-09
2.1991207e-09
2.2620272e-09
2.3128716e-09
2.3986634e-09
2.4907015e-09
2.6188976e-09
2.7711218e-09
2.9698282e-09
3.213635e-09
3.5198544e-09
3.8885069e-09
4.3194932e-09
4.7938823e-09
5.287336e-09
5.7702682e-09
6.2202255e-09
6.6230388e-09
6.9732801e-09
7.2726845e-09
7.5269442e-09
7.7387967e-09
7.9134586e-09
8.0546691e-09
8.1702251e-09
8.2615899e-09
8.3358145e-09
8.3951276e-09
8.4469527e-09
8.493381e-09
8.5419502e-09
8.6116562e-09
8.6687434e-09
8.6962421e-09
8.7050258e-09
8.7017547e-09
8.6237275e-09
0.00092785863
0.002129112
0.0026105381
0.0025048707
0.0016418289
0.00026883111
1.0603443e-08
2.3633786e-09
2.2029434e-09
2.2174574e-09
2.146654e-09
2.1834108e-09
2.1632284e-09
2.2141025e-09
2.2314335e-09
2.2971633e-09
2.3514943e-09
2.4417111e-09
2.5393443e-09
2.6745701e-09
2.8357793e-09
3.0456328e-09
3.3032788e-09
3.6256014e-09
4.011363e-09
4.4574179e-09
4.9416098e-09
5.4371661e-09
5.9141586e-09
6.3515034e-09
6.7374844e-09
7.0691709e-09
7.3505271e-09
7.5887322e-09
7.7868333e-09
7.950008e-09
8.0819513e-09
8.1903388e-09
8.2762969e-09
8.3467326e-09
8.4034225e-09
8.4533205e-09
8.4983207e-09
8.5475114e-09
8.6205438e-09
8.6727988e-09
8.6967468e-09
8.7035718e-09
8.6962871e-09
8.6193296e-09
0.00092657749
0.0021104199
0.002563492
0.0024196731
0.0014902115
0.00019424331
6.2206957e-09
2.3839452e-09
2.2268835e-09
2.2425741e-09
2.1731944e-09
2.2114679e-09
2.1929257e-09
2.245864e-09
2.2656478e-09
2.3343889e-09
2.3924904e-09
2.4874509e-09
2.5911407e-09
2.7339709e-09
2.904919e-09
3.1268423e-09
3.3994069e-09
3.73886e-09
4.1423242e-09
4.603261e-09
5.0962354e-09
5.5923341e-09
6.0617407e-09
6.4851046e-09
6.8533159e-09
7.1659174e-09
7.4290048e-09
7.6511049e-09
7.8354182e-09
7.9870262e-09
8.1096187e-09
8.2107809e-09
8.2912997e-09
8.3579265e-09
8.4119219e-09
8.4597702e-09
8.5033358e-09
8.5541374e-09
8.6286179e-09
8.6762085e-09
8.6968929e-09
8.7024947e-09
8.6877817e-09
8.6146233e-09
0.00092555021
0.0020917264
0.0025132114
0.0023340886
0.0013376243
0.00012620277
4.3168606e-09
2.4063008e-09
2.252076e-09
2.2689096e-09
2.2011003e-09
2.2409743e-09
2.224247e-09
2.2793974e-09
2.301841e-09
2.3737947e-09
2.4359569e-09
2.53601e-09
2.6462634e-09
2.7973299e-09
2.9788371e-09
3.2138226e-09
3.5024365e-09
3.8600143e-09
4.2816182e-09
4.7569945e-09
5.2574522e-09
5.752317e-09
6.2123731e-09
6.6203566e-09
6.969887e-09
7.2629377e-09
7.5076232e-09
7.7136599e-09
7.8842249e-09
8.0242511e-09
8.1374667e-09
8.2314032e-09
8.3064949e-09
8.3693247e-09
8.4205554e-09
8.4662292e-09
8.5086691e-09
8.5624186e-09
8.635328e-09
8.6788296e-09
8.6968927e-09
8.7011515e-09
8.676211e-09
8.6097763e-09
0.00092474118
0.0020739324
0.0024659065
0.0022466442
0.001186143
6.8971326e-05
3.4249377e-09
2.4299624e-09
2.278527e-09
2.2965412e-09
2.2304569e-09
2.2720359e-09
2.2572931e-09
2.3147741e-09
2.3400862e-09
2.4154493e-09
2.4820034e-09
2.5875494e-09
2.7049265e-09
2.8649254e-09
3.0578867e-09
3.307004e-09
3.6128446e-09
3.9894818e-09
4.4294662e-09
4.9185437e-09
5.4248975e-09
5.9165487e-09
6.3653908e-09
6.7565833e-09
7.0865663e-09
7.359676e-09
7.5859176e-09
7.7760183e-09
7.9329435e-09
8.0614314e-09
8.1653005e-09
8.2520618e-09
8.3217803e-09
8.3808529e-09
8.4292534e-09
8.472673e-09
8.5145287e-09
8.5724363e-09
8.6407261e-09
8.6798107e-09
8.6962662e-09
8.6993994e-09
8.6633463e-09
8.6049389e-09
0.00092400461
0.0020556973
0.002417734
0.0021556706
0.0010377913
2.9782613e-05
2.9902934e-09
2.4548779e-09
2.3063634e-09
2.325588e-09
2.261383e-09
2.304744e-09
2.2921129e-09
2.3520411e-09
2.3804331e-09
2.4594578e-09
2.5307673e-09
2.6422509e-09
2.7673677e-09
2.9370607e-09
3.1424425e-09
3.4068374e-09
3.7311076e-09
4.1276468e-09
4.5860132e-09
5.0877392e-09
5.5981231e-09
6.0844094e-09
6.520116e-09
6.8931322e-09
7.2027696e-09
7.4556348e-09
7.6634805e-09
7.8378486e-09
7.9812969e-09
8.0983436e-09
8.1929507e-09
8.2726263e-09
8.3370615e-09
8.3924361e-09
8.4379511e-09
8.4790752e-09
8.5209159e-09
8.583356e-09
8.6458196e-09
8.6802033e-09
8.6941007e-09
8.6963921e-09
8.6513915e-09
8.6003561e-09
0.00092327215
0.0020369611
0.0023679989
0.0020599805
0.00089500219
1.019506e-05
2.779492e-09
2.4816176e-09
2.3357299e-09
2.3561984e-09
2.2939307e-09
2.3391123e-09
2.3287211e-09
2.3912342e-09
2.4229735e-09
2.5059359e-09
2.582413e-09
2.7003315e-09
2.8338687e-09
3.0140898e-09
3.232943e-09
3.5138441e-09
3.8577575e-09
4.2749064e-09
4.7513749e-09
5.2643614e-09
5.7766308e-09
6.2552412e-09
6.6758552e-09
7.029355e-09
7.3179336e-09
7.5503473e-09
7.7399371e-09
7.8988402e-09
8.0290266e-09
8.1347782e-09
8.2202569e-09
8.2929769e-09
8.3522488e-09
8.4039939e-09
8.4465917e-09
8.4854769e-09
8.5278911e-09
8.5946013e-09
8.6507307e-09
8.680305e-09
8.6910592e-09
8.6919382e-09
8.640621e-09
8.5962425e-09
0.00092258762
0.0020179837
0.0023168187
0.0019598808
0.00075980449
2.960024e-06
2.6839515e-09
2.5106902e-09
2.3666861e-09
2.3883124e-09
2.3280552e-09
2.3751105e-09
2.3671435e-09
2.4324443e-09
2.4678269e-09
2.5550461e-09
2.6371311e-09
2.7620346e-09
2.9047375e-09
3.0963897e-09
3.3298519e-09
3.6285614e-09
3.9933082e-09
4.4315831e-09
4.9255505e-09
5.4480718e-09
5.9598278e-09
6.4283361e-09
6.8319049e-09
7.1646276e-09
7.4315423e-09
7.6434019e-09
7.8149631e-09
7.9587221e-09
8.0759101e-09
8.1705546e-09
8.2470759e-09
8.3130138e-09
8.3672642e-09
8.415446e-09
8.4551232e-09
8.4919855e-09
8.5356939e-09
8.6053054e-09
8.6552402e-09
8.6802945e-09
8.6875417e-09
8.6852127e-09
8.6313454e-09
8.5926869e-09
0.00092204457
0.0019990787
0.0022641503
0.0018564127
0.00063383908
7.999028e-07
2.6492148e-09
2.5408734e-09
2.3989462e-09
2.4217978e-09
2.3637145e-09
2.4128009e-09
2.4074962e-09
2.4758108e-09
2.5151487e-09
2.6069527e-09
2.6951363e-09
2.8276438e-09
2.9803293e-09
3.1843982e-09
3.4337105e-09
3.7516033e-09
4.1383184e-09
4.5979933e-09
5.1084964e-09
5.6384661e-09
6.1470667e-09
6.6029555e-09
6.9875567e-09
7.2983412e-09
7.5431055e-09
7.734414e-09
7.888255e-09
8.0172481e-09
8.1217518e-09
8.2055074e-09
8.2732748e-09
8.3326453e-09
8.3820386e-09
8.4267148e-09
8.463491e-09
8.4987426e-09
8.5447865e-09
8.6146437e-09
8.6589122e-09
8.6802008e-09
8.6854352e-09
8.6757064e-09
8.6236708e-09
8.5897036e-09
0.00092171562
0.0019805576
0.0022108372
0.0017460325
0.0005185021
2.2357221e-07
2.6462736e-09
2.5724459e-09
2.4325592e-09
2.4567469e-09
2.4010477e-09
2.452349e-09
2.4499344e-09
2.5214818e-09
2.5650847e-09
2.6618472e-09
2.7566751e-09
2.897478e-09
3.0610205e-09
3.2785823e-09
3.545081e-09
3.8835852e-09
4.293284e-09
4.7743433e-09
5.3000162e-09
5.8349954e-09
6.3375941e-09
6.7783076e-09
7.1421027e-09
7.4299249e-09
7.6521805e-09
7.823042e-09
7.9595428e-09
8.0742203e-09
8.1664014e-09
8.2394977e-09
8.2987464e-09
8.351793e-09
8.3965129e-09
8.4377361e-09
8.4716436e-09
8.5058666e-09
8.5555514e-09
8.6222533e-09
8.6617694e-09
8.6801355e-09
8.6838621e-09
8.6649384e-09
8.6174574e-09
8.5872308e-09
0.00092181429
0.0019625817
0.0021628485
0.001628623
0.00041672782
7.2212798e-08
2.6602675e-09
2.6053813e-09
2.4678562e-09
2.4934048e-09
2.4402337e-09
2.4938885e-09
2.4945847e-09
2.5695811e-09
2.6177949e-09
2.7199412e-09
2.8220366e-09
2.9718831e-09
3.1472491e-09
3.3794807e-09
3.6646235e-09
4.0251848e-09
4.4587312e-09
4.9607982e-09
5.4998496e-09
6.0370392e-09
6.5306047e-09
6.9535794e-09
7.2948521e-09
7.5588488e-09
7.7583569e-09
7.9089624e-09
8.0285704e-09
8.1294864e-09
8.2097371e-09
8.2723905e-09
8.323398e-09
8.3703876e-09
8.4106347e-09
8.4484617e-09
8.4795559e-09
8.5134232e-09
8.5675718e-09
8.6287604e-09
8.663766e-09
8.6795525e-09
8.6823672e-09
8.6543151e-09
8.6120752e-09
8.5850614e-09
0.00092187443
0.0019433618
0.0021107578
0.0015033184
0.00032665752
2.8378885e-08
2.68369e-09
2.6398379e-09
2.5047345e-09
2.531968e-09
2.4813832e-09
2.5375192e-09
2.5415315e-09
2.620239e-09
2.6734656e-09
2.7815021e-09
2.8915453e-09
3.0512426e-09
3.239476e-09
3.4876727e-09
3.7930131e-09
4.1770558e-09
4.6350675e-09
5.1573539e-09
5.7075413e-09
6.2438155e-09
6.7251849e-09
7.127916e-09
7.4451395e-09
7.6846454e-09
7.8612799e-09
7.991898e-09
8.0951351e-09
8.1829641e-09
8.2516598e-09
8.3040599e-09
8.3471546e-09
8.3883748e-09
8.4243592e-09
8.4588592e-09
8.4872689e-09
8.5214962e-09
8.5801555e-09
8.6348654e-09
8.6649933e-09
8.6778191e-09
8.6798922e-09
8.6444456e-09
8.6071599e-09
8.5830343e-09
0.00092225788
0.0019238526
0.0020583392
0.001371705
0.00024454564
1.3521783e-08
2.7128664e-09
2.6758728e-09
2.5433151e-09
2.5723334e-09
2.5245603e-09
2.5833109e-09
2.5909021e-09
2.6736265e-09
2.7323466e-09
2.8468317e-09
2.9655608e-09
3.1359851e-09
3.3382377e-09
3.6038375e-09
3.931029e-09
4.3399113e-09
4.8226954e-09
5.3639383e-09
5.922542e-09
6.4544646e-09
6.9203746e-09
7.3004709e-09
7.5923559e-09
7.8069037e-09
7.9606436e-09
8.0716215e-09
8.1591193e-09
8.2346224e-09
8.2920447e-09
8.3343771e-09
8.3699331e-09
8.4057094e-09
8.43764e-09
8.4689004e-09
8.4949134e-09
8.5303491e-09
8.5925883e-09
8.6406374e-09
8.6657379e-09
8.6751106e-09
8.675771e-09
8.6353546e-09
8.602586e-09
8.5811116e-09
0.00092288019
0.0019034884
0.002003953
0.0012358612
0.00017029288
7.8940812e-09
2.7457778e-09
2.7135295e-09
2.5836937e-09
2.6145559e-09
2.5697599e-09
2.6313832e-09
2.6428617e-09
2.729995e-09
2.794727e-09
2.9162635e-09
3.0444622e-09
3.2265656e-09
3.4441172e-09
3.7286978e-09
4.0794549e-09
4.5143836e-09
5.021848e-09
5.580252e-09
6.1440835e-09
6.6679522e-09
7.1151276e-09
7.4704284e-09
7.7359707e-09
7.9252517e-09
8.0562027e-09
8.1480046e-09
8.2205718e-09
8.2844483e-09
8.3307111e-09
8.3632488e-09
8.3916361e-09
8.4223648e-09
8.450428e-09
8.4785517e-09
8.5026733e-09
8.5403718e-09
8.6039746e-09
8.6455899e-09
8.6659845e-09
8.6721458e-09
8.6688546e-09
8.6270599e-09
8.5983184e-09
8.5792631e-09
0.00092373234
0.0018821255
0.0019478126
0.0011020455
0.00010499529
5.5113977e-09
2.7817194e-09
2.753033e-09
2.6260327e-09
2.6589437e-09
2.6171138e-09
2.6818919e-09
2.6976535e-09
2.7896383e-09
2.8609239e-09
2.9901366e-09
3.1286586e-09
3.3235131e-09
3.5578012e-09
3.8630945e-09
4.2391621e-09
4.7011265e-09
5.2327092e-09
5.8059053e-09
6.3713075e-09
6.8831945e-09
7.308453e-09
7.6371363e-09
7.8755643e-09
8.0392989e-09
8.1477343e-09
8.2210137e-09
8.2797107e-09
8.3323463e-09
8.3674028e-09
8.3906437e-09
8.4121507e-09
8.4383212e-09
8.4626728e-09
8.487772e-09
8.5107208e-09
8.5519165e-09
8.6134098e-09
8.6492988e-09
8.6660165e-09
8.6707931e-09
8.6586848e-09
8.6196113e-09
8.594404e-09
8.5775304e-09
0.00092460544
0.0018578864
0.0018886601
0.00097441557
5.3732572e-05
4.4110578e-09
2.8199908e-09
2.7943703e-09
2.6703714e-09
2.7055316e-09
2.666913e-09
2.7350889e-09
2.7555668e-09
2.8528515e-09
2.9312534e-09
3.0687835e-09
3.2186056e-09
3.4274208e-09
3.6800465e-09
4.0079086e-09
4.4109778e-09
4.9006384e-09
5.455213e-09
6.0402293e-09
6.6031178e-09
7.0989967e-09
7.4994707e-09
7.800156e-09
8.0107743e-09
8.1485909e-09
8.2350089e-09
8.2907004e-09
8.336799e-09
8.3780218e-09
8.4019144e-09
8.4166253e-09
8.4314266e-09
8.4535577e-09
8.4743412e-09
8.4965474e-09
8.5191364e-09
8.5647009e-09
8.6208727e-09
8.6520603e-09
8.6659888e-09
8.6696969e-09
8.6474311e-09
8.6128806e-09
8.5907903e-09
8.5759678e-09
0.00092531874
0.0018299969
0.0018254185
0.00085291597
2.2035799e-05
3.8793968e-09
2.8603883e-09
2.8376453e-09
2.7167985e-09
2.7543888e-09
2.7194525e-09
2.7913971e-09
2.8168804e-09
2.9199069e-09
3.006017e-09
3.1525975e-09
3.3148332e-09
3.5389914e-09
3.8117342e-09
4.1641331e-09
4.5957849e-09
5.1133932e-09
5.6891951e-09
6.2824407e-09
6.8383508e-09
7.3142605e-09
7.6876123e-09
7.9592602e-09
8.1411664e-09
8.2526602e-09
8.3177647e-09
8.3571216e-09
8.3917548e-09
8.4208382e-09
8.4344135e-09
8.4412751e-09
8.4495864e-09
8.4680276e-09
8.4854165e-09
8.5048983e-09
8.5279004e-09
8.5775801e-09
8.6274714e-09
8.6542859e-09
8.6659658e-09
8.6684021e-09
8.6367926e-09
8.6066231e-09
8.587448e-09
8.5745287e-09
0.00092574812
0.001798358
0.0017569608
0.00073814501
7.4630797e-06
3.6227711e-09
2.9030461e-09
2.8830474e-09
2.7656311e-09
2.8058456e-09
2.7747633e-09
2.8510106e-09
2.8818467e-09
2.9910587e-09
3.0855584e-09
3.2420942e-09
3.4179722e-09
3.6590185e-09
3.9538237e-09
4.3327577e-09
4.7943569e-09
5.3396033e-09
5.9341723e-09
6.5314351e-09
7.0756717e-09
7.5280017e-09
7.8725608e-09
8.1140441e-09
8.2659248e-09
8.3512923e-09
8.3958295e-09
8.420289e-09
8.4437552e-09
8.4608983e-09
8.4649971e-09
8.4645245e-09
8.4670024e-09
8.4816643e-09
8.4958992e-09
8.5129226e-09
8.5370187e-09
8.5901218e-09
8.6336589e-09
8.6561506e-09
8.6650422e-09
8.6661771e-09
8.6279033e-09
8.601288e-09
8.5843893e-09
8.5732101e-09
0.00092581092
0.0017623681
0.0016782086
0.00063083193
2.2569406e-06
3.5074583e-09
2.9480226e-09
2.930818e-09
2.816907e-09
2.8600398e-09
2.8331873e-09
2.9140021e-09
2.9507118e-09
3.0666072e-09
3.1702828e-09
3.3378511e-09
3.5287596e-09
3.7884285e-09
4.1073838e-09
4.5148779e-09
5.0074573e-09
5.5794157e-09
6.189513e-09
6.7860268e-09
7.313858e-09
7.7396115e-09
8.0540419e-09
8.2632134e-09
8.3844526e-09
8.4442736e-09
8.4694305e-09
8.4801557e-09
8.4921438e-09
8.4987875e-09
8.4937311e-09
8.4859171e-09
8.4840893e-09
8.4944267e-09
8.5058002e-09
8.5208339e-09
8.5467158e-09
8.601815e-09
8.639415e-09
8.6580322e-09
8.6645376e-09
8.66208e-09
8.6212727e-09
8.596756e-09
8.5815634e-09
8.5719138e-09
0.00092566797
0.0017228034
0.0015886438
0.00053227367
6.6470943e-07
3.4673996e-09
2.9954167e-09
2.9810308e-09
2.8708618e-09
2.9172655e-09
2.8950013e-09
2.9805325e-09
3.0237294e-09
3.1469236e-09
3.2607172e-09
3.4405187e-09
3.648047e-09
3.9282305e-09
4.2735424e-09
4.7115086e-09
5.2356462e-09
5.8326075e-09
6.4542118e-09
7.0447876e-09
7.5517637e-09
7.9487198e-09
8.2308975e-09
8.405667e-09
8.4960073e-09
8.5316653e-09
8.5389557e-09
8.5366333e-09
8.5370944e-09
8.5351048e-09
8.5202613e-09
8.5056038e-09
8.5006105e-09
8.5063949e-09
8.5151341e-09
8.5289166e-09
8.5575156e-09
8.6120273e-09
8.6443384e-09
8.6594026e-09
8.6643618e-09
8.6554454e-09
8.6162112e-09
8.5929948e-09
8.5788939e-09
8.570507e-09
0.00092550971
0.0016806608
0.0014893474
0.00044250363
2.071289e-07
3.4683605e-09
3.045358e-09
3.0339794e-09
2.9276704e-09
2.9777131e-09
2.9603656e-09
3.0510234e-09
3.101205e-09
3.2324834e-09
3.3575002e-09
3.5508804e-09
3.7767914e-09
4.0795622e-09
4.4535364e-09
4.9237167e-09
5.479417e-09
6.0988299e-09
6.7271442e-09
7.3063712e-09
7.7886205e-09
8.154932e-09
8.4013198e-09
8.5402819e-09
8.6001461e-09
8.6139535e-09
8.6047758e-09
8.5895326e-09
8.5797579e-09
8.5689702e-09
8.5446766e-09
8.5238402e-09
8.5161811e-09
8.5178172e-09
8.5239162e-09
8.5373935e-09
8.5697764e-09
8.6202112e-09
8.6481868e-09
8.6604522e-09
8.6642133e-09
8.6477497e-09
8.6115384e-09
8.590019e-09
8.5767333e-09
8.5688489e-09
0.00092541138
0.0016364571
0.0013820735
0.00035987019
7.442787e-08
3.4924214e-09
3.0980199e-09
3.0896374e-09
2.9877645e-09
3.0416325e-09
3.0295225e-09
3.1257534e-09
3.1835697e-09
3.3238524e-09
3.4613951e-09
3.6698335e-09
3.9160447e-09
4.243642e-09
4.6485955e-09
5.1523899e-09
5.7388969e-09
6.3772734e-09
7.0068406e-09
7.5693999e-09
8.0238649e-09
8.3564806e-09
8.5637849e-09
8.6660382e-09
8.6976334e-09
8.6922548e-09
8.6664165e-09
8.63902e-09
8.6198576e-09
8.6006308e-09
8.5671704e-09
8.5407876e-09
8.5302544e-09
8.5289701e-09
8.5321846e-09
8.5462209e-09
8.5822245e-09
8.6271487e-09
8.650943e-09
8.6608809e-09
8.6637792e-09
8.6403898e-09
8.6070695e-09
8.5874058e-09
8.5750057e-09
8.5673432e-09
0.00092533853
0.0015896364
0.0012747017
0.00028599691
3.239378e-08
3.5300798e-09
3.1535799e-09
3.1485133e-09
3.0509996e-09
3.109158e-09
3.1027084e-09
3.2051151e-09
3.27151e-09
3.4217423e-09
3.5732516e-09
3.7983643e-09
4.0669832e-09
4.4218198e-09
4.8600403e-09
5.3983986e-09
6.0140726e-09
6.6669694e-09
7.291861e-09
7.8328484e-09
8.2569998e-09
8.5510724e-09
8.7167212e-09
8.7828155e-09
8.7907402e-09
8.7652741e-09
8.7239532e-09
8.6853241e-09
8.6576164e-09
8.6300089e-09
8.5879522e-09
8.5565725e-09
8.5428232e-09
8.5396404e-09
8.5400399e-09
8.5550952e-09
8.5943774e-09
8.6331101e-09
8.6529812e-09
8.6610324e-09
8.6631933e-09
8.63248e-09
8.6028734e-09
8.5851103e-09
8.5735884e-09
8.56612e-09
0.00092527891
0.0015370978
0.0011669123
0.00021722974
1.6623464e-08
3.5759967e-09
3.2119925e-09
3.2105039e-09
3.1176785e-09
3.1805817e-09
3.1804046e-09
3.2896965e-09
3.3657471e-09
3.5270122e-09
3.6940063e-09
3.9375684e-09
4.2308953e-09
4.6155074e-09
5.089087e-09
5.662281e-09
6.3044375e-09
6.9664731e-09
7.5806031e-09
8.0958566e-09
8.4860394e-09
8.7366361e-09
8.8591124e-09
8.8929667e-09
8.8783086e-09
8.8333672e-09
8.7774647e-09
8.7285771e-09
8.6930348e-09
8.6572157e-09
8.6070936e-09
8.5710317e-09
8.5542786e-09
8.5494854e-09
8.5476796e-09
8.5637097e-09
8.6056895e-09
8.6384271e-09
8.6547441e-09
8.6610086e-09
8.6617758e-09
8.6253655e-09
8.5990844e-09
8.5831779e-09
8.5725252e-09
8.5652524e-09
0.00092629273
0.0014853042
0.0010575771
0.00015374414
1.01545e-08
3.6275502e-09
3.2733675e-09
3.2758333e-09
3.1882097e-09
3.2564386e-09
3.263279e-09
3.3802738e-09
3.4669986e-09
3.6405223e-09
3.8246831e-09
4.0886603e-09
4.4092226e-09
4.8262519e-09
5.3369917e-09
5.9444576e-09
6.6093205e-09
7.2743134e-09
7.8717469e-09
8.3578291e-09
8.708213e-09
8.9113516e-09
8.991366e-09
8.9978861e-09
8.9598334e-09
8.8964826e-09
8.8271219e-09
8.7689378e-09
8.7262103e-09
8.6822988e-09
8.624636e-09
8.5842665e-09
8.564805e-09
8.5583439e-09
8.5552908e-09
8.5728391e-09
8.6156579e-09
8.643058e-09
8.6563152e-09
8.6609371e-09
8.6582659e-09
8.6192966e-09
8.5958059e-09
8.5815552e-09
8.5717945e-09
8.564804e-09
0.00092843413
0.0014353908
0.00094868304
9.7275994e-05
7.2185059e-09
3.6833504e-09
3.3380928e-09
3.3450272e-09
3.2632206e-09
3.3374236e-09
3.3520882e-09
3.4775902e-09
3.5760907e-09
3.7632357e-09
3.9664255e-09
4.2530166e-09
4.6035015e-09
5.0556048e-09
5.6047197e-09
6.2448616e-09
6.9274327e-09
7.5887363e-09
8.1639826e-09
8.6170284e-09
8.9206349e-09
9.0738725e-09
9.1161747e-09
9.0962798e-09
9.0354662e-09
8.9548398e-09
8.8730954e-09
8.8065604e-09
8.7572212e-09
8.7053408e-09
8.6405841e-09
8.5962549e-09
8.5744055e-09
8.5666233e-09
8.5629365e-09
8.583432e-09
8.623889e-09
8.6468968e-09
8.6574364e-09
8.6608884e-09
8.6514934e-09
8.6147168e-09
8.59312e-09
8.5802293e-09
8.5712497e-09
8.5646414e-09
0.00093137854
0.0013819495
0.00084163239
5.2477973e-05
5.7896933e-09
3.7429651e-09
3.4067378e-09
3.4187833e-09
3.3434115e-09
3.4242542e-09
3.447505e-09
3.5823596e-09
3.6939521e-09
3.8961843e-09
4.1205146e-09
4.4321615e-09
4.8154705e-09
5.3051559e-09
5.8932012e-09
6.5631903e-09
7.2574275e-09
7.9081898e-09
8.4564805e-09
8.8701935e-09
9.1212185e-09
9.2246003e-09
9.2348584e-09
9.1876107e-09
9.105306e-09
9.008604e-09
8.9155795e-09
8.8416059e-09
8.7861758e-09
8.7264129e-09
8.6548993e-09
8.6069996e-09
8.5831502e-09
8.574549e-09
8.5707357e-09
8.5946162e-09
8.630542e-09
8.6500284e-09
8.6583876e-09
8.6608197e-09
8.6433463e-09
8.6102998e-09
8.5907785e-09
8.5790975e-09
8.5708456e-09
8.5646043e-09
0.00093535858
0.0013252382
0.00073847667
2.3607439e-05
5.0679929e-09
3.8067723e-09
3.4800849e-09
3.4978645e-09
3.4294715e-09
3.5175477e-09
3.5501713e-09
3.6952954e-09
3.8216166e-09
4.0405821e-09
4.2884044e-09
4.6278144e-09
5.0469302e-09
5.5763407e-09
6.2028323e-09
6.8984925e-09
7.5974405e-09
8.2310183e-09
8.7480043e-09
9.1133918e-09
9.3080669e-09
9.3663674e-09
9.3460709e-09
9.2720574e-09
9.1695648e-09
9.0579968e-09
8.9547763e-09
8.8742421e-09
8.8131955e-09
8.7455931e-09
8.6675243e-09
8.6165413e-09
8.5911805e-09
8.5822411e-09
8.5786291e-09
8.6053468e-09
8.6363113e-09
8.6525286e-09
8.6590972e-09
8.6606036e-09
8.6357698e-09
8.606097e-09
8.588753e-09
8.5782145e-09
8.5706437e-09
8.5646433e-09
0.00094057207
0.0012652661
0.000640749
9.0881114e-06
4.7052892e-09
3.875875e-09
3.5585871e-09
3.583011e-09
3.5219354e-09
3.6178146e-09
3.6608147e-09
3.817395e-09
3.9602287e-09
4.1978359e-09
4.4717125e-09
4.8419028e-09
5.299834e-09
5.8705814e-09
6.5338088e-09
7.2496066e-09
7.9457493e-09
8.5559241e-09
9.0350823e-09
9.3441611e-09
9.4808747e-09
9.501252e-09
9.4489804e-09
9.3497617e-09
9.2284713e-09
9.1032432e-09
8.9908954e-09
8.9046389e-09
8.8383906e-09
8.7629043e-09
8.6784412e-09
8.6249846e-09
8.5986479e-09
8.5897376e-09
8.5865491e-09
8.6155311e-09
8.6413192e-09
8.654509e-09
8.6594371e-09
8.6597749e-09
8.627965e-09
8.6023222e-09
8.5870469e-09
8.5775067e-09
8.5704913e-09
8.5647316e-09
0.00094727486
0.0012058595
0.00054949972
3.1690998e-06
4.5366696e-09
3.952497e-09
3.6429338e-09
3.6741328e-09
3.6211938e-09
3.7257409e-09
3.7803733e-09
3.9498063e-09
4.111216e-09
4.3695112e-09
4.6722762e-09
5.0765016e-09
5.576087e-09
6.1888705e-09
6.8856109e-09
7.6146893e-09
8.3002976e-09
8.8814211e-09
9.3132975e-09
9.5600213e-09
9.6425196e-09
9.6276915e-09
9.5438584e-09
9.420974e-09
9.2822832e-09
9.1445855e-09
9.0241539e-09
8.9329617e-09
8.8618268e-09
8.7782484e-09
8.6877774e-09
8.6324939e-09
8.6057177e-09
8.5971065e-09
8.5944819e-09
8.6249922e-09
8.6455922e-09
8.6560151e-09
8.6596628e-09
8.6571049e-09
8.621522e-09
8.5991558e-09
8.5857661e-09
8.5770552e-09
8.57043e-09
8.5648451e-09
0.00095457262
0.0011388438
0.00046505542
1.0728369e-06
4.4769642e-09
4.0344433e-09
3.7328702e-09
3.7718226e-09
3.7280456e-09
3.8423332e-09
3.910069e-09
4.0939064e-09
4.276066e-09
4.5573798e-09
4.892167e-09
5.3338971e-09
5.8776177e-09
6.5319963e-09
7.2574636e-09