/*--------------------------------*- C++ -*----------------------------------*\
  =========                 |
  \\      /  F ield         | OpenFOAM: The Open Source CFD Toolbox
   \\    /   O peration     | Website:  https://openfoam.org
    \\  /    A nd           | Version:  8
     \\/     M anipulation  |
\*---------------------------------------------------------------------------*/
FoamFile
{
    version     2.0;
    format      ascii;
    class       volVectorField;
    location    "0.259994";
    object      cellDisplacement;
}
// * * * * * * * * * * * * * * * * * * * * * * * * * * * * * * * * * * * * * //

dimensions      [0 1 0 0 0 0 0];

internalField   nonuniform List<vector> 
20000
(
(0.0025795254 0 0.00205827)
(0.0025795081 0 0.002057825)
(0.00257947 0 0.0020566263)
(0.0025793849 0 0.0020552361)
(0.0025792319 0 0.0020536174)
(0.0025789815 0 0.0020517452)
(0.0025785927 0 0.0020495982)
(0.0025780091 0 0.0020471623)
(0.0025771535 0 0.0020444361)
(0.0025759211 0 0.0020414402)
(0.0025741703 0 0.0020382304)
(0.0025717111 0 0.0020349178)
(0.0025682906 0 0.0020316984)
(0.0025635746 0 0.0020288961)
(0.0025571265 0 0.0020270241)
(0.0025483817 0 0.0020268705)
(0.0025366207 0 0.0020296158)
(0.0025209426 0 0.0020369925)
(0.0025002426 0 0.002051496)
(0.002473204 0 0.0020766415)
(0.0024383113 0 0.0021172422)
(0.0023939053 0 0.002179647)
(0.0023382899 0 0.0022718627)
(0.0022699057 0 0.0024033773)
(0.0021875714 0 0.0025846428)
(0.0020907359 0 0.0028259728)
(0.0019797214 0 0.0031356919)
(0.0018558499 0 0.0035179893)
(0.0017214365 0 0.0039707138)
(0.0015795585 0 0.0044841364)
(0.0014338489 0 0.0050402603)
(0.0012880245 0 0.0056152707)
(0.0011456594 0 0.0061816283)
(0.0010098347 0 0.0067123159)
(0.00088289673 0 0.0071841423)
(0.00076630032 0 0.00758017)
(0.00066077645 0 0.0078887616)
(0.00056632617 0 0.0081043205)
(0.00048252795 0 0.0082236458)
(0.0004086837 0 0.0082452321)
(0.0003439479 0 0.0081682169)
(0.00028739181 0 0.0079877206)
(0.00023812194 0 0.0076977694)
(0.00019524339 0 0.0072890943)
(0.00015787841 0 0.0067480384)
(0.00012511997 0 0.0060538974)
(9.5911117e-05 0 0.0051793468)
(6.8842187e-05 0 0.0040836406)
(4.2295567e-05 0 0.0027050565)
(1.3837935e-05 0 0.00094446214)
(0.0025861929 0 0.0016918612)
(0.0025861857 0 0.0016906492)
(0.0025861452 0 0.0016892424)
(0.0025860571 0 0.0016875812)
(0.0025858998 0 0.0016856385)
(0.0025856431 0 0.0016833775)
(0.0025852453 0 0.0016807625)
(0.0025846488 0 0.0016777625)
(0.0025837752 0 0.0016743572)
(0.0025825178 0 0.0016705467)
(0.0025807326 0 0.0016663652)
(0.0025782266 0 0.0016619011)
(0.0025747433 0 0.0016573272)
(0.0025699438 0 0.0016529446)
(0.0025633859 0 0.0016492436)
(0.0025544982 0 0.0016469923)
(0.002542554 0 0.0016473582)
(0.0025266442 0 0.0016520786)
(0.0025056577 0 0.0016636849)
(0.0024782733 0 0.0016857894)
(0.0024429761 0 0.0017233592)
(0.0023981157 0 0.0017829579)
(0.0023420181 0 0.0018728822)
(0.0022731648 0 0.0020029232)
(0.0021904363 0 0.0021839128)
(0.0020933583 0 0.0024265813)
(0.0019823248 0 0.0027396309)
(0.0018587085 0 0.0031275995)
(0.0017248235 0 0.0035886808)
(0.0015836888 0 0.0041134221)
(0.0014388163 0 0.004684076)
(0.0012937888 0 0.0052768344)
(0.0011520539 0 0.0058640067)
(0.0010166051 0 0.0064180753)
(0.00088976628 0 0.0069151674)
(0.00077301715 0 0.0073373985)
(0.00066713882 0 0.0076723004)
(0.00057219999 0 0.0079134924)
(0.00048783684 0 0.0080572622)
(0.00041339666 0 0.0081017741)
(0.00034806717 0 0.0080459324)
(0.00029094225 0 0.007885077)
(0.00024113694 0 0.0076132238)
(0.00019776131 0 0.007221129)
(0.00015993753 0 0.0066951541)
(0.00012675384 0 0.0060146556)
(9.714746e-05 0 0.005152038)
(6.9711422e-05 0 0.0040662165)
(4.2803475e-05 0 0.0026950307)
(1.3978477e-05 0 0.00093938271)
(0.0025912949 0 0.0013332973)
(0.002591285 0 0.0013318601)
(0.002591241 0 0.0013301784)
(0.0025911478 0 0.0013281998)
(0.0025909834 0 0.0013258804)
(0.002590717 0 0.0013231734)
(0.0025903061 0 0.0013200318)
(0.0025896919 0 0.0013164117)
(0.0025887943 0 0.0013122773)
(0.0025875047 0 0.0013076112)
(0.0025856763 0 0.0013024269)
(0.0025831129 0 0.0012967898)
(0.0025795534 0 0.001290848)
(0.002574654 0 0.0012848764)
(0.0025679658 0 0.0012793397)
(0.0025589101 0 0.0012749838)
(0.002546752 0 0.0012729619)
(0.0025305746 0 0.0012750157)
(0.0025092603 0 0.0012837203)
(0.0024814843 0 0.0013028187)
(0.0024457325 0 0.0013374432)
(0.0024003652 0 0.0013943684)
(0.0023437339 0 0.0014821962)
(0.0022743655 0 0.0016109727)
(0.0021912115 0 0.0017918938)
(0.0020938825 0 0.0020360823)
(0.0019828506 0 0.0023525548)
(0.0018595448 0 0.0027461324)
(0.0017262793 0 0.0032152991)
(0.0015860127 0 0.0037508374)
(0.0014421303 0 0.0043352368)
(0.0012980736 0 0.004944725)
(0.0011571537 0 0.0055515385)
(0.0010222685 0 0.0061277356)
(0.00089570865 0 0.0066488799)
(0.00077897116 0 0.0070962185)
(0.00067288251 0 0.0074564988)
(0.00057757703 0 0.0077225821)
(0.00049274936 0 0.0078902319)
(0.00041779498 0 0.0079572512)
(0.00035193784 0 0.0079223023)
(0.00029429705 0 0.0077808825)
(0.00024399935 0 0.0075269984)
(0.00020016161 0 0.0071514132)
(0.00016190787 0 0.006640504)
(0.00012832293 0 0.0059736841)
(9.8339027e-05 0 0.0051231159)
(7.0551817e-05 0 0.0040474155)
(4.3296337e-05 0 0.0026840584)
(1.4115231e-05 0 0.00093410025)
(0.0025948729 0 0.00098243443)
(0.0025948583 0 0.00098078059)
(0.0025948082 0 0.0009788406)
(0.002594707 0 0.00097655364)
(0.0025945322 0 0.00097386648)
(0.0025942521 0 0.00097072196)
(0.0025938232 0 0.0009670605)
(0.0025931854 0 0.00096282414)
(0.0025922568 0 0.00095796138)
(0.0025909265 0 0.00095243667)
(0.0025890449 0 0.00094624344)
(0.0025864118 0 0.0009394253)
(0.0025827615 0 0.00093210579)
(0.0025777443 0 0.00092453359)
(0.0025709042 0 0.00091714793)
(0.0025616546 0 0.00091066998)
(0.0025492516 0 0.00090623809)
(0.0025327703 0 0.00090559361)
(0.0025110884 0 0.00091135747)
(0.0024828782 0 0.00092748641)
(0.0024466253 0 0.00095926358)
(0.002400703 0 0.0010136527)
(0.0023434912 0 0.0010996036)
(0.0022735671 0 0.0012273305)
(0.0021899628 0 0.001408396)
(0.0020923807 0 0.0016543018)
(0.0019813764 0 0.0019743073)
(0.0018584388 0 0.0023734602)
(0.0017258834 0 0.0028504796)
(0.0015866039 0 0.0033963514)
(0.0014438552 0 0.0039937773)
(0.0013009302 0 0.004619053)
(0.0011609966 0 0.0052444033)
(0.0010268494 0 0.0058415339)
(0.00090073754 0 0.0063855507)
(0.00078416747 0 0.006856917)
(0.00067800711 0 0.0072416371)
(0.00058245343 0 0.0075318527)
(0.00049726005 0 0.0077227899)
(0.00042187262 0 0.0078118686)
(0.00035555394 0 0.0077975006)
(0.00029745084 0 0.0076752851)
(0.00024670449 0 0.0074392158)
(0.0002024404 0 0.0070800472)
(0.00016378618 0 0.0065841687)
(0.0001298247 0 0.0059310459)
(9.9484165e-05 0 0.0050926321)
(7.1362328e-05 0 0.0040272758)
(4.3773493e-05 0 0.0026721607)
(1.42482e-05 0 0.00092862281)
(0.0025969742 0 0.00063910687)
(0.0025969531 0 0.00063723308)
(0.0025968947 0 0.00063503109)
(0.0025967827 0 0.00063243332)
(0.0025965939 0 0.00062937822)
(0.0025962959 0 0.00062579757)
(0.0025958437 0 0.00062161994)
(0.0025951759 0 0.00061677221)
(0.0025942087 0 0.00061118704)
(0.0025928285 0 0.00060480944)
(0.0025908825 0 0.00059761211)
(0.0025881665 0 0.00058961506)
(0.0025844095 0 0.00058091658)
(0.0025792553 0 0.00057173874)
(0.0025722403 0 0.00056249269)
(0.0025627688 0 0.00055387518)
(0.0025500879 0 0.00054700251)
(0.0025332645 0 0.00054361098)
(0.0025111754 0 0.00054632314)
(0.0024824904 0 0.00055956559)
(0.0024456896 0 0.00058863456)
(0.0023991644 0 0.0006406363)
(0.0023413256 0 0.00072499308)
(0.0022708049 0 0.00085190425)
(0.0021867273 0 0.0010333516)
(0.002088893 0 0.0012812089)
(0.0019779446 0 0.0016048932)
(0.0018554345 0 0.0020096231)
(0.0017236791 0 0.0024943054)
(0.0015855028 0 0.003050093)
(0.0014440252 0 0.0036598807)
(0.001302385 0 0.0043000509)
(0.0011636 0 0.0049428802)
(0.0010303563 0 0.0055597798)
(0.00090485414 0 0.006125507)
(0.00078860203 0 0.0066198184)
(0.00068250505 0 0.007028024)
(0.00058682008 0 0.0073415838)
(0.00050135933 0 0.0075551838)
(0.0004256205 0 0.0076658378)
(0.00035890736 0 0.0076717033)
(0.00030039661 0 0.0075684297)
(0.00024924648 0 0.0073499934)
(0.0002045929 0 0.007007124)
(0.00016556878 0 0.0065262201)
(0.00013125633 0 0.0058867963)
(0.00010058056 0 0.005060622)
(7.2141414e-05 0 0.0040058193)
(4.4234096e-05 0 0.0026593501)
(1.4377061e-05 0 0.00092294135)
(0.0025976393 0 0.00030316253)
(0.0025976097 0 0.00030107446)
(0.0025975404 0 0.00029861677)
(0.0025974146 0 0.00029571385)
(0.0025972083 0 0.00029229408)
(0.0025968879 0 0.00028827909)
(0.0025964074 0 0.00028358489)
(0.0025957035 0 0.00027812498)
(0.0025946901 0 0.00027181514)
(0.0025932509 0 0.00026458244)
(0.0025912294 0 0.00025637829)
(0.002588417 0 0.00024719908)
(0.0025845368 0 0.00023711715)
(0.0025792256 0 0.00022632595)
(0.0025720112 0 0.00021520687)
(0.0025622884 0 0.00020442607)
(0.0025492939 0 0.00019508075)
(0.0025320857 0 0.00018891319)
(0.0025095545 0 0.00018918754)
(0.0024803615 0 0.00019985204)
(0.0024429662 0 0.00022639729)
(0.0023957925 0 0.00027608017)
(0.0023372736 0 0.00035826678)
(0.0022661142 0 0.00048460002)
(0.0021815431 0 0.00066668537)
(0.0020834611 0 0.00091676549)
(0.0019725997 0 0.0012443026)
(0.0018505785 0 0.0016546431)
(0.0017197133 0 0.0021468337)
(0.0015827536 0 0.0027121628)
(0.0014426793 0 0.0033336931)
(0.0013024687 0 0.0039879135)
(0.0011649857 0 0.0046472093)
(0.0010328018 0 0.0052827474)
(0.00090806352 0 0.0058690422)
(0.00079227387 0 0.00638522)
(0.00068637153 0 0.0068159439)
(0.00059066989 0 0.007152038)
(0.00050503928 0 0.0073876463)
(0.00042903061 0 0.0075193595)
(0.00036199062 0 0.0075450782)
(0.00030312774 0 0.0074604556)
(0.00025161969 0 0.007259444)
(0.00020661441 0 0.0069327325)
(0.00016725182 0 0.0064667267)
(0.00013261484 0 0.0058409866)
(0.00010162625 0 0.0050271272)
(7.2887818e-05 0 0.0039830767)
(4.4677431e-05 0 0.0026456457)
(1.4501725e-05 0 0.00091706163)
(0.0025969063 0 -2.5556268e-05)
(0.0025968663 0 -2.7863346e-05)
(0.0025967839 0 -3.0581861e-05)
(0.0025966415 0 -3.379403e-05)
(0.0025964143 0 -3.7580126e-05)
(0.0025960676 0 -4.2029306e-05)
(0.0025955537 0 -4.7237868e-05)
(0.0025948075 0 -5.3307159e-05)
(0.0025937404 0 -6.0337459e-05)
(0.002592233 0 -6.8421601e-05)
(0.0025901248 0 -7.7629538e-05)
(0.002587202 0 -8.7989458e-05)
(0.0025831816 0 -9.945665e-05)
(0.0025776925 0 -0.00011186808)
(0.0025702531 0 -0.00012487625)
(0.0025602477 0 -0.00013784761)
(0.0025469033 0 -0.00014970187)
(0.0025293002 0 -0.0001580878)
(0.0025063034 0 -0.00015992953)
(0.0024765357 0 -0.00015160975)
(0.0024384869 0 -0.00012743242)
(0.0023905916 0 -7.9910194e-05)
(0.002331351 0 1.981163e-07)
(0.0022595306 0 0.00012533251)
(0.0021744491 0 0.00030833353)
(0.0020761281 0 0.00056094892)
(0.0019653883 0 0.00089253744)
(0.0018439201 0 0.0013085463)
(0.0017140358 0 0.0018081217)
(0.001578404 0 0.0023826536)
(0.0014398593 0 0.0030153519)
(0.0013012157 0 0.0036828211)
(0.0011651789 0 0.0043576164)
(0.0010342023 0 0.0050106944)
(0.00091037376 0 0.0056164372)
(0.00079518485 0 0.0061534085)
(0.00068960382 0 0.0066056765)
(0.00059399752 0 0.0069634755)
(0.0005082932 0 0.0072204122)
(0.00043209595 0 0.007372638)
(0.00036479704 0 0.0074177983)
(0.00030563823 0 0.0073515069)
(0.00025381888 0 0.0071676858)
(0.00020850056 0 0.0068569672)
(0.00016883185 0 0.006405762)
(0.00013389752 0 0.0057936733)
(0.00010261896 0 0.0049921846)
(7.3599988e-05 0 0.0039590719)
(4.5102598e-05 0 0.00263106)
(1.462188e-05 0 0.00091097654)
(0.0025948163 0 -0.00034719439)
(0.0025947637 0 -0.00034971623)
(0.0025946657 0 -0.00035269072)
(0.0025945038 0 -0.00035620845)
(0.0025942522 0 -0.00036035899)
(0.0025938748 0 -0.00036524201)
(0.0025933223 0 -0.00037096627)
(0.0025925274 0 -0.00037764662)
(0.0025913989 0 -0.00038540023)
(0.0025898138 0 -0.00039433817)
(0.0025876072 0 -0.00040455232)
(0.0025845597 0 -0.0004160957)
(0.0025803812 0 -0.00042895213)
(0.0025746919 0 -0.00044299224)
(0.002567 0 -0.00045790863)
(0.0025566792 0 -0.00047310439)
(0.0025429788 0 -0.00048701394)
(0.0025249579 0 -0.00049737587)
(0.002501431 0 -0.00050161873)
(0.002471038 0 -0.00049567673)
(0.0024322791 0 -0.00047378364)
(0.0023836121 0 -0.00042822257)
(0.0023235926 0 -0.00034928607)
(0.0022510804 0 -0.00022512346)
(0.002165485 0 -4.1778822e-05)
(0.0020669388 0 0.00021373422)
(0.0019563585 0 0.00054958917)
(0.0018355106 0 0.00097134422)
(0.0017066992 0 0.0014782056)
(0.0015725044 0 0.0020616338)
(0.0014356108 0 0.0027049629)
(0.0012986637 0 0.0033849203)
(0.0011642084 0 0.0040742919)
(0.0010345771 0 0.0047438443)
(0.00091179619 0 0.0053679402)
(0.0007973395 0 0.0059246435)
(0.00069220166 0 0.0063974774)
(0.00059679955 0 0.0067761377)
(0.00051111592 0 0.0070537005)
(0.00043481062 0 0.0072258657)
(0.00036732065 0 0.0072900274)
(0.00030792248 0 0.0072417211)
(0.00025583909 0 0.0070748316)
(0.00021024709 0 0.0067799182)
(0.00017030526 0 0.0063433961)
(0.00013510148 0 0.0057449094)
(0.00010355673 0 0.0049558376)
(7.4276637e-05 0 0.0039338362)
(4.5508884e-05 0 0.0026156142)
(1.4737379e-05 0 0.00090469101)
(0.0025914109 0 -0.00066190343)
(0.0025913438 0 -0.00066464431)
(0.0025912277 0 -0.00066787919)
(0.0025910432 0 -0.00067170576)
(0.0025907634 0 -0.00067622209)
(0.0025903507 0 -0.00068153865)
(0.002589754 0 -0.00068777621)
(0.0025889036 0 -0.00069506473)
(0.0025877053 0 -0.00070353752)
(0.0025860322 0 -0.00071332511)
(0.0025837147 0 -0.00072454119)
(0.0025805271 0 -0.00073726402)
(0.0025761716 0 -0.0007515062)
(0.0025702586 0 -0.00076717376)
(0.002562285 0 -0.00078401237)
(0.0025516428 0 -0.00080111583)
(0.0025375677 0 -0.00081686377)
(0.0025190694 0 -0.00082947962)
(0.0024949659 0 -0.00083608096)
(0.0024638956 0 -0.00083248503)
(0.0024243712 0 -0.00081279121)
(0.0023748818 0 -0.00076901579)
(0.0023140418 0 -0.00069107237)
(0.0022408029 0 -0.00056683637)
(0.00215469 0 -0.00038288798)
(0.0020559396 0 -0.00012488458)
(0.0019455605 0 0.00021546077)
(0.0018254039 0 0.00064305338)
(0.0016977586 0 0.0011571221)
(0.0015651084 0 0.0017491668)
(0.0014299819 0 0.0024026246)
(0.0012948534 0 0.0030943449)
(0.001162106 0 0.0037974123)
(0.0010339487 0 0.0044824051)
(0.00091234489 0 0.0051237871)
(0.00079874496 0 0.0056991735)
(0.00069416685 0 0.0061915949)
(0.00059907425 0 0.0065902617)
(0.00051350357 0 0.0068877304)
(0.00043716971 0 0.0070792367)
(0.00036955628 0 0.0071619329)
(0.00030997555 0 0.0071312395)
(0.00025767583 0 0.0069809989)
(0.00021185008 0 0.0067016804)
(0.00017166886 0 0.0062797035)
(0.00013622416 0 0.0056947529)
(0.00010443733 0 0.0049181238)
(7.491618e-05 0 0.0039073943)
(4.5895329e-05 0 0.0025993201)
(1.4847912e-05 0 0.00089819935)
(0.0025867277 0 -0.00096982186)
(0.0025866439 0 -0.00097277681)
(0.002586507 0 -0.00097626684)
(0.0025862967 0 -0.00098039796)
(0.0025859848 0 -0.00098527788)
(0.002585532 0 -0.00099102712)
(0.0025848854 0 -0.00099777869)
(0.0025839725 0 -0.0010056763)
(0.0025826959 0 -0.0010148698)
(0.0025809246 0 -0.0010255074)
(0.0025784835 0 -0.0010377239)
(0.0025751403 0 -0.0010516202)
(0.0025705885 0 -0.0010672326)
(0.0025644278 0 -0.001084485)
(0.0025561615 0 -0.0011031173)
(0.002545181 0 -0.0011219432)
(0.0025306824 0 -0.0011397489)
(0.0025116648 0 -0.001154579)
(0.0024869365 0 -0.001163486)
(0.0024551352 0 -0.0011621861)
(0.0024147899 0 -0.0011446092)
(0.0023644287 0 -0.0011024442)
(0.0023027278 0 -0.0010252708)
(0.0022287372 0 -0.0009006946)
(0.0021421102 0 -0.00071508063)
(0.0020431562 0 -0.00045492411)
(0.0019330459 0 -0.00010985673)
(0.0018136559 0 0.00032367434)
(0.0016872719 0 0.00084488719)
(0.0015562719 0 0.0014452913)
(0.0014230237 0 0.0021084051)
(0.0012898286 0 0.0028111953)
(0.0011589065 0 0.0035271157)
(0.0010323524 0 0.0042272201)
(0.00091204347 0 0.0048848321)
(0.00079941436 0 0.0054777998)
(0.00069550468 0 0.0059887485)
(0.00060082175 0 0.0064060706)
(0.00051545376 0 0.0067227041)
(0.0004391694 0 0.0069329321)
(0.0003714995 0 0.0070336722)
(0.00031179294 0 0.007020196)
(0.00025932487 0 0.0068862992)
(0.00021330575 0 0.0066223439)
(0.00017291931 0 0.0062147553)
(0.00013726281 0 0.0056432579)
(0.00010525885 0 0.0048790881)
(7.5517323e-05 0 0.0038797789)
(4.6261204e-05 0 0.0025822003)
(1.4953292e-05 0 0.00089150642)
(0.0025808002 0 -0.0012710942)
(0.0025806975 0 -0.0012742675)
(0.0025805374 0 -0.0012780174)
(0.0025802982 0 -0.0012824568)
(0.0025799504 0 -0.0012877017)
(0.0025794532 0 -0.0012938835)
(0.002578751 0 -0.0013011474)
(0.0025777689 0 -0.0013096513)
(0.0025764057 0 -0.0013195615)
(0.0025745259 0 -0.0013310456)
(0.0025719487 0 -0.0013442598)
(0.0025684345 0 -0.0013593297)
(0.0025636681 0 -0.0013763214)
(0.0025572397 0 -0.0013952002)
(0.0025486625 0 -0.0014153918)
(0.0025373124 0 -0.0014360303)
(0.0025223539 0 -0.0014558426)
(0.0025027735 0 -0.0014728316)
(0.0024773699 0 -0.0014839886)
(0.0024447815 0 -0.0014849333)
(0.0024035601 0 -0.0014694021)
(0.0023522802 0 -0.0014286505)
(0.0022896811 0 -0.0013519862)
(0.0022149173 0 -0.0012267632)
(0.0021277678 0 -0.0010391079)
(0.0020286351 0 -0.00077650707)
(0.0019188709 0 -0.00042636447)
(0.0018003257 0 1.3210505e-05)
(0.0016752997 0 0.00054151564)
(0.0015460541 0 0.0011500402)
(0.0014147901 0 0.0018223602)
(0.0012836585 0 0.0025363571)
(0.0011546743 0 0.0032643935)
(0.0010298279 0 0.0039786375)
(0.00091091328 0 0.0046514165)
(0.00079936002 0 0.0052608417)
(0.00069621849 0 0.0057892446)
(0.00060204129 0 0.006224234)
(0.00051696536 0 0.0065588272)
(0.00044080691 0 0.0067871335)
(0.00037314675 0 0.0069054051)
(0.00031337084 0 0.0069087278)
(0.0002607825 0 0.0067908485)
(0.00021461068 0 0.0065420038)
(0.00017405371 0 0.0061486272)
(0.00013821499 0 0.0055904838)
(0.00010601911 0 0.0048387702)
(7.6078463e-05 0 0.0038510164)
(4.6605495e-05 0 0.0025642668)
(1.5053213e-05 0 0.0008846082)
(0.0025736671 0 -0.0015658535)
(0.0025735433 0 -0.0015692418)
(0.0025733571 0 -0.0015732479)
(0.0025730858 0 -0.0015779928)
(0.0025726981 0 -0.0015836019)
(0.0025721513 0 -0.0015902164)
(0.0025713877 0 -0.0015979937)
(0.0025703289 0 -0.0016071055)
(0.0025688702 0 -0.0016177338)
(0.0025668708 0 -0.0016300645)
(0.0025641438 0 -0.001644274)
(0.0025604414 0 -0.0016605103)
(0.002555438 0 -0.0016788612)
(0.0025487296 0 -0.0016993128)
(0.0025398282 0 -0.0017210834)
(0.0025280713 0 -0.0017435014)
(0.0025126126 0 -0.0017652774)
(0.0024924229 0 -0.0017843764)
(0.0024662907 0 -0.0017977288)
(0.0024328563 0 -0.0018008806)
(0.0023907043 0 -0.0017873573)
(0.002338464 0 -0.0017477744)
(0.0022749325 0 -0.0016713219)
(0.0021993797 0 -0.001545118)
(0.0021117081 0 -0.0013549247)
(0.0020124623 0 -0.0010889164)
(0.0019030943 0 -0.00073406903)
(0.0017854733 0 -0.00028834901)
(0.0016619044 0 0.00024700336)
(0.0015345157 0 0.00086342031)
(0.0014053837 0 0.0015454611)
(0.0012764156 0 0.0022701993)
(0.0011494509 0 0.0030096028)
(0.0010263918 0 0.0037363456)
(0.00090897035 0 0.0044231867)
(0.00079859283 0 0.0050479968)
(0.00069631743 0 0.0055928484)
(0.00060273683 0 0.0060449867)
(0.00051803587 0 0.0063962881)
(0.00044208046 0 0.0066420082)
(0.00037449514 0 0.0067772803)
(0.00031470586 0 0.0067969635)
(0.00026204527 0 0.0066947558)
(0.00021576159 0 0.0064607495)
(0.00017506903 0 0.0060813904)
(0.00013907811 0 0.0055364856)
(0.00010671626 0 0.0047972162)
(7.6598295e-05 0 0.0038211406)
(4.6927459e-05 0 0.0025455436)
(1.5147441e-05 0 0.00087750899)
(0.0025653622 0 -0.001854238)
(0.0025652151 0 -0.0018578447)
(0.002565 0 -0.0018621107)
(0.0025646931 0 -0.0018671636)
(0.0025642614 0 -0.0018731375)
(0.0025636603 0 -0.0018801841)
(0.0025628291 0 -0.0018884731)
(0.0025616864 0 -0.0018981902)
(0.002560123 0 -0.0019095339)
(0.0025579931 0 -0.001922709)
(0.0025551029 0 -0.0019379135)
(0.0025511961 0 -0.0019553222)
(0.0025459377 0 -0.0019750571)
(0.0025389333 0 -0.0019968808)
(0.0025296801 0 -0.0020202664)
(0.0025174846 0 -0.0020444643)
(0.0025014856 0 -0.0020681781)
(0.002480639 0 -0.0020893412)
(0.0024537218 0 -0.0021048283)
(0.0024193794 0 -0.0021101517)
(0.002376274 0 -0.0020978556)
(0.002323045 0 -0.0020590394)
(0.0022585528 0 -0.0019824719)
(0.0021822026 0 -0.001855001)
(0.0020939967 0 -0.0016625894)
(0.0019946959 0 -0.0013921669)
(0.0018857568 0 -0.0010329424)
(0.001769162 0 -0.00058101544)
(0.0016471519 0 -3.8658467e-05)
(0.0015217889 0 0.00058655223)
(0.0013948884 0 0.0012781191)
(0.0012681298 0 0.0020123433)
(0.0011432617 0 0.0027621623)
(0.0010220748 0 0.0035004054)
(0.00090623711 0 0.0042002471)
(0.0007971281 0 0.0048394016)
(0.00069581074 0 0.0053997146)
(0.00060291229 0 0.0058681042)
(0.00051866759 0 0.0062356635)
(0.00044298932 0 0.0064977256)
(0.00037554265 0 0.0066494478)
(0.00031579533 0 0.0066850337)
(0.00026311028 0 0.0065981338)
(0.00021675557 0 0.0063786746)
(0.00017596267 0 0.0060131209)
(0.00013984992 0 0.0054813239)
(0.00010734817 0 0.0047544669)
(7.7075204e-05 0 0.0037901792)
(4.7226035e-05 0 0.0025260429)
(1.5235673e-05 0 0.00087020624)
(0.0025559186 0 -0.0021363755)
(0.0025557458 0 -0.0021401983)
(0.0025554992 0 -0.0021447211)
(0.0025551534 0 -0.0021500798)
(0.0025546738 0 -0.0021564172)
(0.0025540132 0 -0.0021638956)
(0.0025531084 0 -0.0021726963)
(0.0025518743 0 -0.0021830188)
(0.002550197 0 -0.0021950771)
(0.0025479249 0 -0.0022090934)
(0.0025448565 0 -0.0022252861)
(0.0025407262 0 -0.0022438506)
(0.0025352005 0 -0.0022649494)
(0.0025278875 0 -0.0022881551)
(0.0025182507 0 -0.002313115)
(0.0025055808 0 -0.0023390614)
(0.0024889994 0 -0.0023646758)
(0.002467446 0 -0.0023878483)
(0.0024396862 0 -0.002405364)
(0.0024044215 0 -0.0024123442)
(0.0023603375 0 -0.002400879)
(0.00230606 0 -0.0023624594)
(0.0022405742 0 -0.0022854591)
(0.0021634057 0 -0.0021563299)
(0.0020746951 0 -0.0019613482)
(0.0019753566 0 -0.0016869983)
(0.0018669179 0 -0.0013230745)
(0.001751458 0 -0.00086481862)
(0.0016312028 0 -0.00031421882)
(0.0015079755 0 0.00031987512)
(0.0013833314 0 0.0010197859)
(0.0012588479 0 0.0017627175)
(0.0011361463 0 0.0025220547)
(0.0010169086 0 0.0032708442)
(0.00090273753 0 0.0039826715)
(0.00079498269 0 0.0046351649)
(0.00069470927 0 0.0052099755)
(0.00060257589 0 0.0056937273)
(0.00051886389 0 0.0060771277)
(0.00044353144 0 0.0063544404)
(0.0003762879 0 0.0065220458)
(0.00031663699 0 0.0065730603)
(0.00026397488 0 0.0065010879)
(0.00021758988 0 0.0062958671)
(0.00017673195 0 0.0059438899)
(0.00014052797 0 0.0054250546)
(0.00010791306 0 0.0047105699)
(7.7507879e-05 0 0.0037581674)
(4.7500452e-05 0 0.0025057899)
(1.5317656e-05 0 0.00086270507)
(0.0025453743 0 -0.0024123968)
(0.0025451734 0 -0.0024164368)
(0.0025448922 0 -0.0024212176)
(0.0025445038 0 -0.0024268827)
(0.0025439715 0 -0.0024335839)
(0.002543246 0 -0.0024414935)
(0.0025422608 0 -0.0024508046)
(0.002540927 0 -0.00246173)
(0.0025391259 0 -0.0024744992)
(0.0025366996 0 -0.0024893505)
(0.0025334391 0 -0.0025065189)
(0.0025290694 0 -0.0025262105)
(0.0025232601 0 -0.0025485765)
(0.0025156145 0 -0.0025732097)
(0.0025055651 0 -0.0025997451)
(0.0024923851 0 -0.0026274197)
(0.0024751781 0 -0.0026548984)
(0.0024528677 0 -0.0026800378)
(0.0024242222 0 -0.0026996057)
(0.0023880142 0 -0.0027075184)
(0.0023428762 0 -0.0026970365)
(0.002287502 0 -0.002658852)
(0.0022209931 0 -0.0025811396)
(0.0021430145 0 -0.0024499284)
(0.0020538549 0 -0.0022512264)
(0.0019545277 0 -0.0019726119)
(0.0018466879 0 -0.0016037829)
(0.0017325496 0 -0.0011383787)
(0.0016141771 0 -0.00057916184)
(0.0014930954 0 6.2712231e-05)
(0.0013707653 0 0.00077033373)
(0.0012486173 0 0.0015212411)
(0.0011281455 0 0.0022892518)
(0.0010109262 0 0.0030476785)
(0.0008984969 0 0.0037705231)
(0.00079217485 0 0.0044353854)
(0.0006930252 0 0.0050237549)
(0.00060173489 0 0.0055219931)
(0.00051862731 0 0.0059204501)
(0.00044370938 0 0.0062126682)
(0.00037673038 0 0.0063952155)
(0.00031722928 0 0.0064611664)
(0.00026463696 0 0.0064037267)
(0.00021826217 0 0.0062124186)
(0.00017737458 0 0.0058737732)
(0.00014111019 0 0.0053677389)
(0.00010840887 0 0.0046655676)
(7.7894714e-05 0 0.0037251347)
(4.7749625e-05 0 0.002484798)
(1.5393062e-05 0 0.00085500316)
(0.0025337573 0 -0.002682427)
(0.0025335258 0 -0.0026866837)
(0.002533207 0 -0.0026917227)
(0.0025327723 0 -0.0026976945)
(0.002532183 0 -0.0027047601)
(0.0025313871 0 -0.002713102)
(0.0025303148 0 -0.0027229256)
(0.002528873 0 -0.0027344578)
(0.0025269377 0 -0.0027479451)
(0.0025243445 0 -0.0027636465)
(0.0025208756 0 -0.0027818242)
(0.0025162464 0 -0.0028027277)
(0.0025101401 0 -0.0028262541)
(0.002502141 0 -0.0028522427)
(0.0024916497 0 -0.0028803062)
(0.0024779225 0 -0.0029096671)
(0.0024600443 0 -0.0029389626)
(0.0024369217 0 -0.0029659801)
(0.0024073737 0 -0.0029871814)
(0.0023701741 0 -0.0029961733)
(0.0023239114 0 -0.0029864589)
(0.0022673938 0 -0.0029483002)
(0.0021998401 0 -0.0028695989)
(0.0021210691 0 -0.0027358571)
(0.002031505 0 -0.0025329903)
(0.0019322883 0 -0.0022490756)
(0.0018252099 0 -0.0018743204)
(0.0017125581 0 -0.0014010584)
(0.0015960846 0 -0.00083427798)
(0.0014772036 0 -0.00018513546)
(0.001357243 0 0.0005296088)
(0.0012374859 0 0.0012878069)
(0.0011193005 0 0.0020636977)
(0.0010041614 0 0.0028308972)
(0.00089354159 0 0.0035638365)
(0.00078872407 0 0.0042401351)
(0.0006907719 0 0.0048411526)
(0.00060039781 0 0.0053530187)
(0.00051796447 0 0.0057657529)
(0.000443526 0 0.0060725602)
(0.0003768682 0 0.0062690846)
(0.00031757102 0 0.0063494659)
(0.00026509466 0 0.0063061513)
(0.00021877019 0 0.006128415)
(0.0001778882 0 0.0058028415)
(0.00014159434 0 0.0053094335)
(0.00010883387 0 0.0046195087)
(7.8234374e-05 0 0.0036911171)
(4.7972739e-05 0 0.0024630926)
(1.5461619e-05 0 0.00084710652)
(0.0025210973 0 -0.0029465889)
(0.0025208326 0 -0.0029510631)
(0.0025204732 0 -0.0029563604)
(0.0025199884 0 -0.0029626393)
(0.0025193374 0 -0.002970069)
(0.0025184654 0 -0.0029788425)
(0.002517299 0 -0.0029891769)
(0.0025157407 0 -0.0030013127)
(0.0025136605 0 -0.0030155119)
(0.0025108865 0 -0.0030320508)
(0.0025071914 0 -0.0030512103)
(0.0025022958 0 -0.0030732804)
(0.0024958846 0 -0.0030979897)
(0.0024874998 0 -0.0031253248)
(0.0024765316 0 -0.0031548989)
(0.0024622168 0 -0.0031859214)
(0.0024436208 0 -0.0032170068)
(0.002419644 0 -0.003245952)
(0.0023891733 0 -0.0032681182)
(0.002350902 0 -0.0032783062)
(0.0023034596 0 -0.0032692408)
(0.0022457598 0 -0.003230862)
(0.0021771961 0 -0.0031501641)
(0.0020976633 0 -0.0030134422)
(0.0020076981 0 -0.0028066558)
(0.0019086763 0 -0.0025171388)
(0.001802586 0 -0.0021346925)
(0.0016914979 0 -0.0016537976)
(0.0015769797 0 -0.0010798154)
(0.0014603556 0 -0.0004238693)
(0.0013428177 0 0.00029745379)
(0.0012255017 0 0.0010623025)
(0.001109653 0 0.0018453282)
(0.00099664866 0 0.0026204797)
(0.00088789897 0 0.0033626366)
(0.00078465086 0 0.0040494771)
(0.00068796391 0 0.0046622598)
(0.00059857421 0 0.0051869149)
(0.00051688113 0 0.0056131548)
(0.00044298282 0 0.0059338952)
(0.0003767021 0 0.0061437727)
(0.00031766172 0 0.006238073)
(0.00026534668 0 0.0062084652)
(0.00021911215 0 0.0060439452)
(0.00017827091 0 0.00573117)
(0.00014197852 0 0.0052502005)
(0.00010918611 0 0.0045724369)
(7.8525273e-05 0 0.0036561461)
(4.8168692e-05 0 0.0024406887)
(1.5522987e-05 0 0.00083901366)
(0.0025074242 0 -0.0032050024)
(0.0025071238 0 -0.0032096938)
(0.0025067204 0 -0.0032152493)
(0.0025061818 0 -0.0032218344)
(0.0025054645 0 -0.0032296274)
(0.0025045107 0 -0.0032388309)
(0.0025032435 0 -0.0032496732)
(0.0025015603 0 -0.0032624078)
(0.0024993254 0 -0.0032773098)
(0.0024963594 0 -0.0032946683)
(0.0024924262 0 -0.0033147705)
(0.0024872498 0 -0.003337892)
(0.0024805066 0 -0.0033638501)
(0.0024717101 0 -0.0033925564)
(0.0024602319 0 -0.0034236343)
(0.0024452884 0 -0.0034562843)
(0.0024259228 0 -0.0034890808)
(0.0024010771 0 -0.0035196049)
(0.0023696344 0 -0.0035429036)
(0.0023302169 0 -0.0035540515)
(0.0022815399 0 -0.0035454757)
(0.0022226938 0 -0.0035059842)
(0.0021531291 0 -0.0034228301)
(0.0020728288 0 -0.0032825816)
(0.0019825214 0 -0.0030714982)
(0.001883854 0 -0.0027758681)
(0.0017788947 0 -0.0023852063)
(0.0016694196 0 -0.0018968928)
(0.0015569169 0 -0.0013160322)
(0.0014426067 0 -0.00065370644)
(0.0013275423 0 7.3693051e-05)
(0.0012127128 0 0.00084459501)
(0.0010992447 0 0.0016340568)
(0.00098842284 0 0.0024163822)
(0.00088159689 0 0.0031669244)
(0.00077997651 0 0.0038634504)
(0.00068461663 0 0.0044871456)
(0.00059627451 0 0.0050237725)
(0.00051538391 0 0.005462758)
(0.0004420835 0 0.0057967861)
(0.00037623556 0 0.0060196958)
(0.00031750129 0 0.0061270934)
(0.00026539195 0 0.006110764)
(0.00021928635 0 0.005959092)
(0.00017852067 0 0.0056588286)
(0.00014226067 0 0.0051900968)
(0.00010946394 0 0.0045244028)
(7.8766094e-05 0 0.0036202598)
(4.8336634e-05 0 0.0024176126)
(1.5576874e-05 0 0.00083073126)
(0.0024927662 0 -0.0034577852)
(0.0024924273 0 -0.0034626945)
(0.0024919769 0 -0.0034685091)
(0.0024913804 0 -0.0034754018)
(0.0024905919 0 -0.00348356)
(0.0024895505 0 -0.0034931965)
(0.0024881749 0 -0.0035045522)
(0.0024863576 0 -0.0035178952)
(0.0024839561 0 -0.0035335189)
(0.0024807825 0 -0.0035517371)
(0.0024765909 0 -0.0035728759)
(0.0024711214 0 -0.0035969751)
(0.002464029 0 -0.0036240891)
(0.0024547949 0 -0.0036541069)
(0.0024427731 0 -0.0036866451)
(0.002427159 0 -0.0037208954)
(0.0024069842 0 -0.0037554481)
(0.0023812514 0 -0.0037869611)
(0.0023487565 0 -0.0038115073)
(0.0023081355 0 -0.0038234517)
(0.0022582355 0 -0.0038146995)
(0.0021982364 0 -0.00377365)
(0.0021276144 0 -0.0036881629)
(0.0020465854 0 -0.0035439804)
(0.0019560566 0 -0.0033276813)
(0.0018579499 0 -0.0030246021)
(0.0017541773 0 -0.0026261571)
(0.0016463745 0 -0.0021306354)
(0.0015359513 0 -0.0015431831)
(0.0014240122 0 -0.00087486441)
(0.0013114696 0 -0.00014185076)
(0.0011991671 0 0.00063454784)
(0.0010881177 0 0.0014297905)
(0.00097951916 0 0.0022185529)
(0.00087466387 0 0.0029766922)
(0.00077472314 0 0.0036820856)
(0.00068074629 0 0.0043158714)
(0.0005935101 0 0.0048636751)
(0.00051348024 0 0.0053146599)
(0.00044083405 0 0.0056613365)
(0.00037547135 0 0.0058969689)
(0.00031708867 0 0.0060166309)
(0.00026522991 0 0.0060131456)
(0.00021929149 0 0.0058739411)
(0.0001786359 0 0.0055858911)
(0.00014243913 0 0.0051291851)
(0.00010966548 0 0.0044754511)
(7.8955245e-05 0 0.0035834903)
(4.8475458e-05 0 0.0023938809)
(1.5622929e-05 0 0.00082225877)
(0.0024771541 0 -0.0037050528)
(0.002476774 0 -0.0037101801)