/*--------------------------------*- C++ -*----------------------------------*\
  =========                 |
  \\      /  F ield         | OpenFOAM: The Open Source CFD Toolbox
   \\    /   O peration     | Website:  https://openfoam.org
    \\  /    A nd           | Version:  8
     \\/     M anipulation  |
\*---------------------------------------------------------------------------*/
FoamFile
{
    version     2.0;
    format      ascii;
    class       volScalarField;
    location    "0.259994";
    object      Ma;
}
// * * * * * * * * * * * * * * * * * * * * * * * * * * * * * * * * * * * * * //

dimensions      [0 0 0 0 0 0 0];

internalField   nonuniform List<scalar> 
20000
(
0.75756959
0.88668912
0.97064402
1.0435539
1.1130211
1.1822856
1.2210143
1.2302644
1.2228495
1.2261259
1.2205923
1.2213178
1.2166601
1.215268
1.2104136
1.206865
1.2008968
1.1948009
1.186628
1.1771626
1.1654526
1.1514316
1.1345655
1.1144035
1.0906365
1.0629519
1.0316053
0.99732969
0.96172915
0.92683151
0.8946112
0.86629055
0.84237537
0.82271852
0.80689797
0.79435158
0.78447918
0.77681144
0.77092501
0.76647808
0.76310525
0.76052678
0.75848034
0.7568452
0.7553492
0.75408915
0.75250215
0.75185872
0.75099233
0.75136017
0.76111104
0.8905339
0.97471049
1.047835
1.1174849
1.1871024
1.2217653
1.23032
1.2227313
1.2260727
1.2203961
1.2212221
1.2162052
1.2147204
1.2096959
1.2059541
1.1997692
1.1934029
1.1849828
1.1752301
1.1632438
1.1489168
1.1317625
1.1113392
1.0873858
1.0596526
1.0284553
0.99457246
0.95955044
0.92526219
0.89352998
0.86555922
0.84188065
0.8223898
0.80669064
0.79423259
0.78441879
0.7767897
0.77092598
0.76649368
0.76312455
0.76054224
0.75848436
0.75682306
0.75531556
0.75393381
0.75242544
0.75155859
0.75097435
0.75145745
0.76293594
0.89289457
0.9775269
1.051096
1.1211074
1.1911118
1.2218432
1.2299918
1.2219911
1.2253364
1.219533
1.2201749
1.2151837
1.2135814
1.2084033
1.2044867
1.1981323
1.1915323
1.1828879
1.1728381
1.1605638
1.1458969
1.1284097
1.1076507
1.083416
1.0555093
1.0243295
0.99071988
0.95620134
0.92253709
0.89141538
0.86396438
0.84069545
0.82152196
0.80606253
0.79379067
0.78411355
0.77658282
0.77078696
0.76640332
0.76306081
0.76048878
0.75843544
0.75676409
0.75524768
0.75378774
0.752229
0.75141349
0.75090894
0.75152234
0.76453738
0.89504158
0.98009531
1.0540949
1.1244478
1.1946853
1.2213096
1.2287422
1.2207948
1.2241959
1.218233
1.2188659
1.2137344
1.2120272
1.2067007
1.2026092
1.196082
1.1892392
1.1803677
1.1700194
1.1574486
1.142421
1.1245664
1.1034193
1.0788381
1.0506808
1.0194475
0.98606312
0.95205455
0.91908261
0.88868299
0.86188275
0.83914861
0.8203939
0.80525273
0.79322319
0.78372313
0.77631902
0.77061106
0.76628931
0.76298246
0.76042721
0.75838047
0.75670145
0.75517411
0.75360496
0.75203679
0.75125654
0.75083471
0.75161039
0.76579656
0.89680407
0.98228047
1.0567334
1.1274605
1.1977444
1.2202667
1.2274785
1.2192599
1.2227176
1.216588
1.2171846
1.2119385
1.210128
1.204673
1.2004051
1.1937117
1.1866254
1.1775223
1.1668587
1.1539663
1.1385441
1.1202784
1.0986913
1.0737018
1.0452292
1.0138836
0.98068168
0.94716648
0.91491404
0.88531457
0.85927178
0.83718438
0.81894739
0.80420432
0.79247945
0.78320441
0.77596253
0.77036879
0.76612758
0.76286929
0.76033974
0.75830611
0.75662681
0.75509109
0.75339728
0.75183969
0.75112751
0.75075445
0.75170101
0.76690074
0.89840538
0.98429277
1.0592036
1.1303369
1.2004057
1.2188528
1.2258347
1.2174618
1.220966
1.2146911
1.2152631
1.2098939
1.2079706
1.2023824
1.1979271
1.1910607
1.1837177
1.1743704
1.163374
1.1501351
1.134287
1.1155704
1.0934981
1.0680499
1.0392152
1.0077231
0.97468847
0.94167528
0.91017786
0.88144176
0.85623874
0.8348851
0.81724406
0.80296406
0.79159482
0.78258404
0.77553361
0.77007566
0.76593003
0.76273083
0.76023438
0.75821838
0.75654437
0.7550025
0.75316667
0.75165202
0.7510038
0.75067683
0.75179699
0.76785537
0.89985436
0.98615322
1.0615264
1.1331228
1.2026534
1.2171366
1.2240149
1.2154636
1.2190063
1.2125861
1.2131143
1.2076231
1.2055745
1.1998545
1.1952028
1.1881598
1.1805492
1.1709435
1.1595924
1.1459783
1.1296706
1.1104634
1.0878634
1.0619125
1.032681
1.0010235
0.96815515
0.93565764
0.90494598
0.87712417
0.85282696
0.83227852
0.81529988
0.80153971
0.79057243
0.7818626
0.7750315
0.76973021
0.76569491
0.76256512
0.76010918
0.75811601
0.75645271
0.75490409
0.75292445
0.75147831
0.75089852
0.75061012
0.751893
0.76872054
0.9012161
0.9879188
1.0637547
1.1358749
1.204466
1.2151644
1.2219911
1.2132785
1.216842
1.2102903
1.2107579
1.2051483
1.202965
1.1971118
1.192253
1.1850261
1.1771334
1.1672523
1.1555239
1.1415059
1.1247069
1.1049719
1.081806
1.055316
1.0256652
0.99383983
0.96115362
0.92919844
0.89930667
0.87244212
0.84910219
0.82941427
0.81315043
0.7999562
0.78942961
0.78105206
0.7744645
0.76933813
0.76542614
0.76237492
0.75996627
0.75800097
0.7563512
0.75478405
0.75268172
0.75132985
0.75082076
0.75056432
0.75198755
0.76952
0.9024843
0.98959037
1.0658918
1.1386081
1.2058446
1.2129505
1.219783
1.2109204
1.2144887
1.2078117
1.2082085
1.2024836
1.2001554
1.1941684
1.1890919
1.1816733
1.1734829
1.163307
1.1511771
1.1367257
1.1194039
1.099105
1.0753374
1.0482781
1.0181969
0.98621523
0.95374014
0.92236256
0.89332674
0.86745726
0.84511578
0.82633152
0.81082369
0.7982326
0.78817918
0.78016094
0.77383814
0.76890286
0.76512579
0.76216142
0.75980655
0.75787458
0.75623828
0.75462393
0.75245324
0.75121133
0.75077875
0.75054422
0.7520803
0.77024897
0.90366616
0.99119503
1.0679536
1.1413243
1.2068002
1.2105258
1.2173961
1.2084001
1.211959
1.2051648
1.2054804
1.1996439
1.1971601
1.1910368
1.1857302
1.1781091
1.1696031
1.1591117
1.1465562
1.1316421
1.1137671
1.0928694
1.0684674
1.0408156
1.010304
0.97819152
0.94596904
0.91521303
0.88707183
0.86223112
0.84092029
0.8230717
0.80835041
0.79639091
0.78683659
0.77919994
0.77315972
0.76842924
0.76479701
0.76192674
0.75963179
0.7577389
0.75611361
0.75441056
0.75224815
0.75111655
0.75076053
0.75053856
0.75217353
0.77087382
0.90476998
0.99273995
1.069949
1.1440106
1.207291
1.2079762
1.2148508
1.2057307
1.2092698
1.2023641
1.2025868
1.1966398
1.193988
1.1877247
1.182174
1.174338
1.1654975
1.1546683
1.1416628
1.1262564
1.1077976
1.0862667
1.0612003
1.0329398
1.0020093
0.96980423
0.93788688
0.90780347
0.88059774
0.85681668
0.83656186
0.81967201
0.80575877
0.79445157
0.78541643
0.77817929
0.77243624
0.76792191
0.76444274
0.76167281
0.75944369
0.75759594
0.7559785
0.75415054
0.75206003
0.75103688
0.7507567
0.75054105
0.75227078
0.77145619
0.90583359
0.99426497
1.0719182
1.1466454
1.2073149
1.2052685
1.2121627
1.2029261
1.2064303
1.1994176
1.1995343
1.1934783
1.1906459
1.1842373
1.178427
1.1703612
1.1611667
1.1499774
1.1364976
1.1205691
1.1014958
1.0792978
1.0535403
1.0246628
0.99333674
0.96108958
0.9295396
0.90018549
0.87395737
0.85126386
0.83208416
0.8161681
0.80307626
0.792435
0.78393358
0.77710963
0.77167507
0.76738581
0.76406622
0.76140177
0.75924418
0.7574479
0.75583469
0.75385943
0.75187956
0.75096678
0.75076281
0.75056053
0.75237622
0.77198661
0.90686196
0.99578203
1.0738863
1.1492043
1.2068731
1.2024264
1.2093312
1.1999886
1.203445
1.1963312
1.1963289
1.1901643
1.1871374
1.1805764
1.1744897
1.1661784
1.1566102
1.1450378
1.1310591
1.1145775
1.094858
1.0719594
1.0454877
1.0159939
0.98430746
0.95208046
0.92096867
0.8924051
0.86719734
0.84561669
0.82752619
0.81259234
0.80032822
0.79036031
0.78240225
0.77600127
0.77088344
0.76682584
0.7636707
0.7611159
0.75903509
0.75729645
0.75568132
0.75354731
0.75170931
0.75091064
0.75078673
0.75062213
0.7524932
0.77244516
0.90784697
0.9972946
1.0758686
1.1516333
1.2059743
1.1994565
1.2063663
1.1969264
1.2003208
1.1931098
1.1929741
1.1867004
1.1834636
1.1767416
1.1703609
1.161788
1.151827
1.1398483
1.1253453
1.1082784
1.0878805
1.0642485
1.0370441
1.0069445
0.97494537
0.94281178
0.912216
0.88450697
0.86036172
0.83991621
0.82292413
0.80897483
0.79753842
0.78824574
0.78083619
0.77486436
0.77006853
0.76624687
0.76325947
0.76081765
0.75881816
0.75714035
0.75551149
0.75323012
0.7515554
0.75087414
0.75082968
0.75075962
0.75262345
0.77287753
0.90882439
0.9988483
1.0779211
1.153901
1.2046289
1.1963727
1.2032726
1.1937418
1.197059
1.1897552
1.1894712
1.1830865
1.1796232
1.1727305
1.166039
1.1571884
1.1468159
1.1344059
1.1193514
1.1016652
1.0805557
1.056159
1.0282091
0.99752518
0.96527354
0.93331687
0.90332072
0.87653171
0.85348989
0.83419891
0.81831024
0.80534257
0.7947284
0.78610802
0.77924832
0.77370855
0.76923725
0.76565361
0.76283577
0.76050968
0.75859563
0.75697446
0.75531004
0.75292991
0.75142372
0.75085553
0.75087139
0.75100603
0.75276596
0.77325637
0.90976501
1.000408
1.0800471
1.1559372
1.2028251
1.1931685
1.2000474
1.1904349
1.1936604
1.1862683
1.1858194
1.1793205
1.1756133
1.1685407
1.1615225
1.1523782
1.1415746
1.1287065
1.1130715
1.0947307
1.072876
1.0476852
1.0189849
0.98775009
0.95531885
0.92363152
0.89432247
0.868519
0.84661932
0.82849877
0.81371411
0.80172019
0.79191783
0.78396271
0.77765083
0.77254307
0.7683962
0.76505057
0.76240277
0.76019476
0.75837042
0.7567945
0.75505736
0.75266754
0.75132228
0.75084788
0.75091232
0.75138107
0.752916
0.77357727
0.91066387
1.0019626
1.0822705
1.1576808
1.2005723
1.1898517
1.196698
1.18701
1.1901269
1.1826476
1.1820156
1.1753986
1.171432
1.1641711
1.1568111
1.1473555
1.1360994
1.1227436
1.106497
1.0874649
1.064831
1.0388199
1.0093727
0.97763386
0.94510843
0.91379062
0.88525867
0.86050531
0.83978373
0.82284588
0.80916177
0.79812932
0.78912416
0.78182385
0.77605488
0.77137647
0.76755158
0.76444199
0.76196354
0.75987564
0.75814481
0.75660034
0.75474316
0.75244966
0.75125963
0.75087917
0.75096837
0.75176424
0.75306605
0.77384638
0.91151874
1.0035249
1.0846497
1.1590818
1.1978828
1.186423
1.1932219
1.1834641
1.1864528
1.1788874
1.1780552
1.1713192
1.1670795
1.1596221
1.1519037
1.1421166
1.1303847
1.1165093
1.0996183
1.0798571
1.0564105
1.0295575
0.99937743
0.96719552
0.93467326
0.90383141
0.87616745
0.85252652
0.83301514
0.81726806
0.80467676
0.79458928
0.78636309
0.77970426
0.77447079
0.77021675
0.76670916
0.76383184
0.761521
0.7595549
0.75791945
0.75639224
0.75438046
0.75226015
0.75122987
0.75093819
0.75105242
0.7521465
0.75320851
0.77404569
0.9123053
1.0050604
1.0871874
1.1600578
1.1947647
1.1828762
1.1896112
1.1797879
1.182631
1.1749848
1.173939
1.1670844
1.1625581
1.1548929
1.1467976
1.1366562
1.1244228
1.1099934
1.0924238
1.0718949
1.0476024
1.0198916
0.98900517
0.95645574
0.9240448
0.89379029
0.8670851
0.84461572
0.82634235
0.8117897
0.80027935
0.79111666
0.78364834
0.77761525
0.77290777
0.76907115
0.76587419
0.76322381
0.76107804
0.7592349
0.75769338
0.75616739
0.7539952
0.75208269
0.75121571
0.75103524
0.75118319
0.75249235
0.75333659
0.77419757
0.91303446
1.0065663
1.0899075
1.1605582
1.1913238
1.1792007
1.1858611
1.1759794
1.178663
1.170945
1.1696727
1.1626979
1.1578674
1.14998
1.1414874
1.1309669
1.1182046
1.1031846
1.0849011
1.0635651
1.0383951
1.0098188
0.9782668
0.94544025
0.91325839
0.88370576
0.85804836
0.83680525
0.81979256
0.8064331
0.79598764
0.78772607
0.78099208
0.77556682
0.77137404
0.76794624
0.76505143
0.76262135
0.76063752
0.75891791
0.75746374
0.7559178
0.75361424
0.75192087
0.75120742
0.75114852
0.75138456
0.75279094
0.75344646
0.77428698
0.91369174
1.0080118
1.0927988
1.1605279
1.1879259
1.1753917
1.1819806
1.172051
1.174561
1.1667761
1.1652598
1.1581575
1.1530028
1.1448771
1.1359666
1.1250401
1.1117189
1.0960698
1.0770359
1.0548526
1.028776
0.99933639
0.96717516
0.93417646
0.90234987
0.8736155
0.84909199
0.82912478
0.81338988
0.80121745
0.79181697
0.78443
0.77840462
0.77356729
0.76987666
0.76684775
0.76424509
0.76202763
0.76020235
0.75860615
0.75722646
0.75562927
0.75326647
0.75178407
0.7512017
0.75124048
0.75165745
0.75303786
0.75353721
0.77432638
0.91430212
1.0093999
1.0958662
1.1599578
1.184287
1.1714704
1.1779849
1.1680168
1.1703314
1.1624773
1.1606945
1.1534559
1.1479575
1.1395773
1.1302275
1.1188653
1.1049532
1.0886353
1.0688135
1.0457423
1.0187344
0.98844606
0.95574873
0.92269683
0.89135874
0.86355906
0.84025101
0.82160291
0.80715652
0.79616001
0.78778103
0.78123959
0.77589451
0.77162342
0.76842186
0.76578059
0.76345889
0.76144552
0.75977538
0.75830165
0.75697806
0.75528745
0.75296983
0.75167715
0.75119872
0.75130689
0.75197341
0.75323655
0.75361171
0.77432242
0.91488241
1.0107457
1.0990977
1.1588476
1.1804751
1.1674395
1.1738678
1.163864
1.1659619
1.1580382
1.1559674
1.1485858
1.1427259
1.1340742
1.1242614
1.1124302
1.0978934
1.0808657
1.060217
1.0362174
1.0082597
0.97715184
0.94400899
0.91103605
0.88032537
0.8535753
0.83155863
0.81426528
0.80111125
0.79127521
0.78389144
0.77816433
0.77346789
0.76974034
0.76701513
0.76474882
0.76269598
0.76087756
0.75935918
0.75800551
0.75671672
0.75489251
0.75271893
0.75160126
0.75122413
0.75136975
0.75229914
0.7534043
0.75367557
0.77424341
0.91540704
1.0120399
1.1024292
1.1571776
1.1764626
1.1632946
1.1696261
1.1595814
1.1614393
1.1534497
1.1510736
1.1435435
1.1373037
1.1283597
1.1180567
1.1057206
1.0905245
1.0727452
1.0512287
1.0262617
0.99734446
0.96546385
0.93198404
0.89923442
0.86929343
0.84370471
0.8230479
0.80713571
0.79527033
0.78657548
0.78015822
0.77521187
0.77112853
0.76792234
0.76566173
0.76375592
0.76195899
0.76032593
0.75895571
0.7577168
0.75644041
0.75446183
0.7524944
0.75154954
0.75127237
0.75145152
0.75260951
0.75355397
0.75373318
0.77412498
0.91591623
1.0133208
1.1057897
1.1549727
1.1724099
1.159023
1.1652556
1.1551713
1.1567622
1.1487104
1.1460115
1.1383257
1.1316844
1.1224226
1.1115997
1.0987212
1.0828307
1.0642559
1.0418288
1.0158575
0.9859831
0.95339586
0.91970601
0.88733453
0.85830708
0.83398671
0.81474914
0.80023412
0.78964652
0.78207028
0.77658855
0.77238617
0.76887783
0.76617392
0.76436652
0.76280518
0.76124988
0.75979248
0.75856619
0.75743186
0.75614229
0.75402027
0.75228816
0.75151907
0.75135362
0.75158116
0.75289642
0.75369955
0.75378669
0.77389588
0.91636863
1.0145833
1.1090162
1.1522374
1.1681682
1.1546288
1.1607534
1.1506254
1.1519371
1.1438219
1.1407796
1.132925
1.1258569
1.1162484
1.1048752
1.0914164
1.0747954
1.0553788
1.0319963
1.0049892
0.97417513
0.94096878
0.90721351
0.87538364
0.84741306
0.82446093
0.8066899
0.79357707
0.78425097
0.77776702
0.77318657
0.76968603
0.76671646
0.76450128
0.76313335
0.76190032
0.76057
0.75927888
0.75819127
0.75714516
0.75580898
0.75360109
0.75210953
0.75150332
0.75144264
0.75180079
0.75315927
0.75383295
0.75383522
0.77358065
0.91681018
1.0158984
1.1120731
1.1490491
1.1638066
1.1501133
1.1561141
1.1459373
1.146957
1.1387829
1.1353709
1.1273298
1.119806
1.1098216
1.0978686
1.0837906
1.0664004
1.0460919
1.0217084
0.99364191
0.96192434
0.9282086
0.89454903
0.86343069
0.83665758
0.81516281
0.79889059
0.78717619
0.77909416
0.77367121
0.76995236
0.76710433
0.76464711
0.76291247
0.76196367
0.76104521
0.75992012
0.75878663
0.75783154
0.75685177
0.75542746
0.753236
0.75197089
0.75149942
0.75152284
0.75208825
0.75339731
0.75395345
0.75387684
0.77315892
0.91723032
1.017282
1.114884
1.1454504
1.1592996
1.1454658
1.1513308
1.1411023
1.1418104
1.1335796
1.1297725
1.1215241
1.1135166
1.1031272
1.0905658
1.0758272
1.0576251
1.0363713
1.0109422
0.98180498
0.94924192
0.91514957
0.88176148
0.85152847
0.82608678
0.80612152
0.79136354
0.78104085
0.77418839
0.76978837
0.76688329
0.764632
0.76267822
0.76141486
0.76085594
0.76024209
0.75930103
0.7583171
0.75748781
0.7565496
0.75499953
0.75293633
0.7518701
0.75150496
0.75157961
0.75243576
0.75361105
0.75405954
0.75391726
0.77262041
0.9176212
1.0187375
1.1173633
1.1414866
1.1546623
1.1406913
1.1464014
1.1361176
1.1364972
1.1281936
1.1239644
1.1154921
1.1069758
1.0961525
1.0829522
1.0675067
1.0484451
1.0261898
0.99967475
0.9694714
0.93614505
0.90183148
0.86890324
0.83972989
0.81574084
0.79735418
0.78411338
0.77518149
0.76954596
0.76612383
0.76397555
0.76226775
0.7608245
0.7600086
0.75980726
0.75948798
0.75871413
0.75787119
0.7571605
0.7562393
0.75454897
0.75268484
0.75179345
0.7515241
0.75163111
0.75278126
0.75380129
0.75415205
0.75395473
0.77202101
0.91801087
1.0202952
1.1194424
1.1372041
1.149888
1.1357778
1.1413177
1.130972
1.1310088
1.122614
1.11793
1.1092217
1.100174
1.0888852
1.0750108
1.0588061
1.0388327
1.0155193
0.98788559
0.95664134
0.92266032
0.88830266
0.85603247
0.82808807
0.80565187
0.78886798
0.77714855
0.76961682
0.76517481
0.76268069
0.7612266
0.76002795
0.75909222
0.75868839
0.75881852
0.75877241
0.75816167
0.7574491
0.7568477
0.75592073
0.75410063
0.75245904
0.75173134
0.7515556
0.75170311
0.7530867
0.75396657
0.75423398
0.75398978
0.77136247
0.91837749
1.0219284
1.1210136
1.1326475
1.1449623
1.1307136
1.1360652
1.1256565
1.1253299
1.1168337
1.1116679
1.102703
1.0931018
1.0813097
1.0667198
1.0496976
1.0287571
1.0043305
0.97555704
0.94332108
0.90882155
0.87461693
0.84320854
0.81664989
0.7958385
0.78066793
0.77049588
0.76436839
0.76107587
0.75945293
0.75863541
0.75793536
0.75746641
0.75745196
0.75789831
0.75808159
0.75764557
0.75705016
0.75654318
0.75558747
0.75367126
0.75225375
0.75167645
0.75159375
0.75183676
0.75333232
0.75410421
0.75430627
0.75402315
0.77068317
0.91875347
1.0236249
1.1219545
1.1278442
1.1398843
1.1254955
1.1306351
1.120166
1.1194504
1.1108365
1.1051777
1.0959273
1.0857455
1.0734049
1.0580521
1.0401495
1.0181852
0.9925955
0.96267743
0.92952639
0.89467287
0.86083555
0.83049194
0.80545396
0.78630952
0.77277808
0.76419571
0.759454
0.75724341
0.7564253
0.75620207
0.75599376
0.75592699
0.7563034
0.75705221
0.75741227
0.75716463
0.75667347
0.75623762
0.7552249
0.7532824
0.75207683
0.75162456
0.75163329
0.75205752
0.75352516
0.75421682
0.75437021
0.75405698
0.77002131
0.91919045
1.0253639
1.1221743
1.1228005
1.1346518
1.1201196
1.1250201
1.1144892
1.1133579
1.1046129
1.098449
1.0888835
1.0780854
1.0651432
1.0489757
1.0301276
1.007083
0.98028794
0.94924083
0.91528174
0.88026566
0.84702294
0.81793781
0.7945253
0.77707446
0.76524795
0.75828198
0.7548823
0.75365839
0.75358246
0.75392746
0.75418038
0.75447549
0.75524619
0.75627336
0.75677625
0.75671207
0.75631839
0.75592484
0.75481967
0.75295342
0.75193859
0.75159243
0.75167366
0.75230557
0.75369245
0.75430804
0.75442008
0.7540937
0.76941822
0.91973762
1.0271135
1.1217219
1.1175133
1.1292556
1.1145759
1.1192129
1.1086133
1.1070442
1.0981574
1.0914637
1.0815531
1.0700949
1.0564915
1.0394558
1.0195961
0.99541667
0.96738587
0.9352508
0.90062355
0.86566147
0.83324657
0.80559465
0.78387888
0.76817066
0.75813345
0.75278082
0.75063246
0.75029186
0.75092252
0.75180916
0.75247769
0.75312217
0.75427383
0.75555453
0.75618949
0.7562787
0.7559841
0.75561027
0.75438475
0.75268216
0.75183956
0.75158163
0.75170557
0.75258377
0.75384825
0.7543846
0.75446043
0.75412925
0.7688966
0.9204349
1.0288106
1.1205443
1.1119962
1.1236795
1.1088499
1.1132003
1.1025362
1.1005045
1.0914583
1.0842059
1.0739059
1.0617418
1.0474132
1.0294556
1.0085184
0.98315303
0.95387217
0.92071977
0.88559812
0.85092787
0.81957104
0.79349826
0.77352939
0.75966626
0.75147907
0.74769147
0.74664826
0.74714025
0.74844992
0.74983815
0.75088509
0.75186243
0.75337854
0.75489057
0.75566142
0.75586304
0.75566805
0.75530444
0.75394941
0.75245117
0.75177051
0.75160309
0.7517395
0.75285874
0.75399303
0.75445028
0.7544915
0.75415755
0.76844675
0.92127716
1.0303593
1.1186288
1.1062543
1.1179157
1.102942
1.1069784
1.0962533
1.0937287
1.0844968
1.0766492
1.0659044
1.0529903
1.0378706
1.0189372
0.99685715
0.97026091
0.93973736
0.90567253
0.87026349
0.83613865
0.80605637
0.78167413
0.76352019
0.75163257
0.74531232
0.74296168
0.74290353
0.74421824
0.74615867
0.74800592
0.74939719
0.75069412
0.75255508
0.75428034
0.75518625
0.75547422
0.75536481
0.75498933
0.75353192
0.75225318
0.75171572
0.75161969
0.75179428
0.75312425
0.75412218
0.75450873
0.75451183
0.7541759
0.76811052
0.92229918
1.0316739
1.1159561
1.1003082
1.111966
1.0968583
1.1005397
1.0897489
1.0866916
1.0772397
1.0687569
1.0575133
1.0438042
1.0278256
1.0078615
0.98457468
0.95671193
0.92498008
0.89014532
0.8546864
0.8213671
0.79275205
0.77014247
0.75393109
0.74412431
0.73961907
0.73852199
0.73942097
0.74151694
0.74404123
0.7463053
0.74801029
0.74961329
0.7518013
0.75372406
0.75475409
0.75511949
0.75506628
0.75465915
0.75315032
0.75208423
0.75166597
0.75164976
0.75190701
0.75336039
0.75423179
0.75455471
0.75452009
0.75418423
0.76788491
0.92357531
1.0326969
1.1125357
1.0941729
1.1058203
1.0905835
1.0938604
1.0829931
1.0793572
1.0696469
1.0604912
1.048698
1.0341477
1.017239
0.99618772
0.97163377
0.94248333
0.9096109
0.87418832
0.83894308
0.80668479
0.77969841
0.7589445
0.74485253
0.7371745
0.73433158
0.73436175
0.73620448
0.73902894
0.74208879
0.74472888
0.74671966
0.74861647
0.75111634
0.75322009
0.75436054
0.75479443
0.75476775
0.75430139
0.75281976
0.75194584
0.75163074
0.75168875
0.75212224
0.75355684
0.75432114
0.75458857
0.75451913
0.75418605
0.7677288
0.92514
1.0333287
1.1083552
1.0878341
1.0994475
1.0840843
1.0869018
1.0759449
1.0716868
1.0616827
1.051821
1.0394207
1.0239828
1.00607
0.98387297
0.95799805
0.92755968
0.89365272
0.85786329
0.82311301
0.79215448
0.76692582
0.74816478
0.73635562
0.73077091
0.72937457
0.73050558
0.73324439
0.73674381
0.74029223
0.7432692
0.74552031
0.7476998
0.75050088
0.75276839
0.75400304
0.75448763
0.75446791
0.75392676
0.75254567
0.75183999
0.75161214
0.75172472
0.75237853
0.7537254
0.75439447
0.75461202
0.75451414
0.75418455
0.76761333
0.92699048
1.0334329
1.1033848
1.0812643
1.0928053
1.0773208
1.0796197
1.0685654
1.0636498
1.053319
1.0427169
1.029642
1.0132675
0.9942752
0.97087262
0.94363398
0.91193602
0.87714454
0.84124521
0.807278
0.77783099
0.7544711
0.73791685
0.72848495
0.72484023
0.72473818
0.72695622
0.73053035
0.7346512
0.73864217
0.74191873
0.74440689
0.74685974
0.74995663
0.75236756
0.75367705
0.75419228
0.75416933
0.75353847
0.75231822
0.75175796
0.7516056
0.75175738
0.7526694
0.75388272
0.75445596
0.75462677
0.75450613
0.75418131
0.76747768
0.92910564
1.0328744
1.0976208
1.0744268
1.0858491
1.0702557
1.0719828
1.0608285
1.0552245
1.0445292
1.0331437
1.0193199
1.0019563
0.98180889
0.95714121
0.92851217
0.89561923
0.86013943
0.82441743
0.7915148
0.76376053
0.74241339
0.72829393
0.72124415
0.71929203
0.72044987
0.723702
0.72804996
0.73273991
0.73712902
0.74066989
0.74337425
0.74609386
0.74948451
0.752014
0.75337664
0.75390424
0.75387595
0.75316389
0.75212541
0.75169673
0.75161731
0.75179845
0.7529485
0.75402373
0.75450559
0.75463411
0.754496
0.75417761
0.76725356
0.93145692
1.0315416
1.0912205
1.067284
1.0785463
1.0628675
1.0639835
1.052719
1.0463882
1.0352785
1.0230579
1.0084078
0.99000066
0.96862288
0.94263385
0.91261145
0.87863222
0.8427066
0.80746994
0.77589554
0.74998945
0.73087904
0.719355
0.71456575
0.71410476
0.71651499
0.72073009
0.72579051
0.73099876
0.73574323
0.73951538
0.74241866
0.7454032
0.74908184
0.75170172
0.75309552
0.7536204
0.75358965
0.75281599
0.75196584
0.75164489
0.75163538
0.75188378
0.75320284
0.75414111
0.75454231
0.75463222
0.7544836
0.75417401
0.76684126
0.93401081
1.0293558
1.0847722
1.0598338
1.0708913
1.0551594
1.0556119
1.0442123
1.0371044
1.0255209
1.01241
0.99685494
0.97734898
0.95466666
0.92730777
0.89592185
0.86101486
0.82492788
0.79049193
0.76048466
0.73658666
0.71999151
0.71112765
0.70833939
0.7093107
0.71291941
0.71802557
0.72373863
0.72941626
0.73447521
0.73844832
0.74153828
0.74479326
0.74873997
0.7514228
0.75282728
0.75333757
0.75330687
0.75250596
0.75183885
0.75161206
0.75166779
0.75205492
0.75341487
0.7542337
0.75456682
0.75462598
0.75447003
0.75416977
0.76630476
0.93673861
1.0262948
1.0780441
1.0521069
1.0628844
1.0471131
1.0468307
1.0352608
1.0273243
1.0152051
1.0011475
0.9846109
0.96394567
0.9398866
0.9111253
0.87844911
0.84282696
0.80689746
0.77357072
0.74534301
0.72367512
0.7098413
0.70356334
0.70252096
0.70492116
0.70964808
0.71557314
0.72188098
0.72798112
0.7333156
0.73746253
0.74073285
0.74427052
0.74844634
0.75116859
0.75256627
0.75305524
0.75301952
0.75224791
0.75174176
0.75159562
0.75170335
0.75227595
0.75358915
0.75430799
0.75458388
0.75461444
0.75445349
0.75416232
0.76567231
0.93952212
1.0223416
1.0706102
1.0440961
1.0544756
1.0386706
1.0375817
1.0258104
1.0170002
1.0042823
0.98921922
0.97162222
0.94972966
0.92422695
0.89405745
0.86021679
0.8241456
0.78871464
0.75678763
0.73053579
0.7114071
0.70047497
0.69654867
0.69713977
0.70092209
0.70668312
0.71335672
0.72020403
0.72668197
0.73225529
0.73655259
0.7400019
0.74383277
0.74819194
0.75093206
0.75231014
0.75277773
0.75272619
0.75204223
0.75166117
0.7515897
0.75173649
0.752542
0.75374297
0.75436951
0.75459765
0.75460106
0.75443309
0.75415195
0.76503602
0.9421591
1.0175286
1.062755
1.0357163
1.0455992
1.0297709
1.0278177
1.0158134
1.0060876
0.99270179
0.97657661
0.95782798
0.93463265
0.90763338
0.87609029
0.84127094
0.80506533
0.77048149
0.740223
0.71617565
0.69990845
0.69187746
0.69001006
0.69221398
0.69729628
0.70400622
0.71136033
0.71869449
0.72550774
0.73128564
0.73571383
0.73934414
0.743471
0.74797161
0.75070887
0.75205976
0.7525095
0.75244111
0.75187575
0.75159032
0.7515968
0.7517763
0.75280867
0.75388307
0.75441783
0.75460559
0.75458145
0.75441053
0.75414
0.76425045
0.9445047
1.0118671
1.0543074
1.0269304
1.0362036
1.0203756
1.0175016
1.0052278
0.99453678
0.98040068
0.96316625
0.94315529
0.91857981
0.8900582
0.85722914
0.82167961
0.78569147
0.75229615
0.72395574
0.70242634
0.68925474
0.68395117
0.68395056
0.68773764
0.69402253
0.701598
0.70956774
0.71733907
0.72444752
0.73039859
0.73494235
0.73875759
0.74317674
0.74777924
0.75049651
0.75181559
0.75225183
0.75217975
0.75173997
0.75153974
0.75160662
0.75185654
0.75306471
0.75400614
0.75445292
0.75460465
0.75455552
0.754386
0.75412706
0.76334938
0.94652406
1.0053925
1.0454086
1.0177059
1.026277
1.0104564
1.0066008
0.99400485
0.98228986
0.96731207
0.94890359
0.92752067
0.90149693
0.87146888
0.83750562
0.80153436
0.76613902
0.73425764
0.70808801
0.68945361
0.67947317
0.67658621
0.67840163
0.68369059
0.69107924
0.69943924
0.70796319
0.71612497
0.72349095
0.72958693
0.7342351
0.73824006
0.74294167
0.74760963
0.7502932
0.75157766
0.75200484
0.75194813
0.75163197
0.75151263
0.75162131
0.75200983
0.75328545
0.75410799
0.75447887
0.75459279
0.75452765
0.75436057
0.75411374
0.762017
0.94820721
0.99821033
1.0359037
1.0080249
1.0157861
0.99997609
0.9950648
0.98207774
0.96927323
0.95335307
0.93367999
0.9108312
0.88331908
0.85185476
0.81697799
0.78094452
0.74652371
0.71646521
0.69278141
0.67737742
0.67049509
0.66975135
0.67336813
0.68004903
0.68844332
0.69751053
0.70653105
0.7150396
0.72262808
0.72884412
0.73358935
0.73778884
0.74275822
0.74745812
0.75009764
0.75134643
0.75176854
0.75174876
0.75154214
0.75149953
0.75165091
0.75221193
0.75346382
0.75418685
0.75449612
0.75457754
0.75450073
0.7543348
0.75410033
0.76008604
0.94964871
0.99026244
1.0258271
0.99786619
1.0046746
0.98887144
0.98282118
0.96935875
0.95539141
0.93840635
0.91738691
0.8929997
0.86399875
0.831233
0.79573254
0.76003469
0.72696396
0.69902838
0.67823884
0.66626103
0.66218755
0.66348604
0.66882747
0.67678745
0.68609167
0.69579292
0.7052563
0.71407094
0.72184956
0.72816413
0.73300177
0.73739954
0.74261961
0.74732006
0.74990885
0.7511246
0.75154581
0.75158239
0.75146643
0.75148857
0.7516842
0.75246385
0.75361276
0.75424558
0.75450254
0.75455691
0.75447171
0.75430875
0.75408681
0.75751218
0.95072149
0.98160352
1.0150987
0.98715943
0.99286267
0.97704885
0.96977476
0.955741
0.94053277
0.92234387
0.89991722
0.87395303
0.84351263
0.80965089
0.77387963
0.73893699
0.70758167
0.68210353
0.66462668
0.65607504
0.65448241
0.65780559
0.66475347
0.67387855
0.68400084
0.69426764
0.70412419
0.71320734
0.72114657
0.72754101
0.73246704
0.73706324
0.742519
0.74719025
0.74972564
0.75091701
0.75134553
0.7514463
0.75140309
0.7514701
0.75173825
0.75271734
0.75374552
0.75429004
0.75450129
0.75453207
0.75444135
0.75428234
0.75407307
0.75402324
0.95118073
0.97219502
1.0036311
0.97580976
0.98024815
0.96439265
0.95581084
0.94109556
0.92456427
0.90505368
0.88117818
0.85363689
0.82186502
0.78718738
0.75155165
0.71778978
0.68850744
0.66590762
0.65204713
0.64669511
0.64740856
0.65269143
0.66111641
0.67129487
0.68214805
0.69291679
0.70312077
0.71243783
0.72051083
0.72696888
0.73197867
0.73676758
0.7424485
0.74706404
0.74954741
0.75072717
0.75117672
0.7513303
0.75135739
0.75146613
0.75183195
0.75295916
0.75386021
0.75432288
0.75449648
0.75450559
0.75441071
0.75425585
0.75405903
0.74938756
0.9510948
0.96183072
0.99130549
0.96370162
0.96670983
0.9507715
0.94079924
0.92528508
0.90735555
0.8864428
0.86109304
0.83201668
0.79908999
0.76395003
0.72889541
0.69673656
0.66989685
0.65065555
0.64051768
0.63801946
0.64099107
0.64811447
0.65788452
0.66900839
0.6805108
0.69172292
0.70223256
0.71175189
0.71993441
0.72644215
0.73153271
0.73650903
0.74239723
0.74693905
0.74937673
0.75055681
0.75103694
0.75122614
0.75132243
0.75148858
0.7519715
0.75316799
0.75395409
0.75434493
0.75448893
0.75447839
0.75438044
0.75422946
0.75404433
0.74349529
0.95045575
0.95042656
0.97799834
0.95070762
0.95211642
0.93603659
0.92460196
0.90817803
0.88880923
0.86642268
0.83959429
0.80908004
0.77525499
0.74007498
0.7060692
0.67593343
0.65197586
0.63650422
0.62994312
0.63004222
0.63522371
0.64404035
0.65502524
0.66699181
0.67906764
0.69066962
0.70144689
0.71113963
0.71940983
0.72595607
0.73113089
0.73630717
0.74235084
0.74681535
0.74921728
0.75040472
0.75091481
0.75113488
0.75128556
0.75152181
0.75216841
0.75333589
0.75402628
0.75435607
0.75447406
0.75445051
0.75435029
0.75420286
0.75402872
0.73633332
0.94897315
0.93792435
0.96356107
0.93667201
0.93632701
0.92003395
0.90708424
0.88965051
0.86884315
0.84491013
0.81662363
0.78484225
0.75046303
0.71572152
0.68324042
0.65555412
0.63500724
0.62351836
0.62018796
0.62280332
0.63007323
0.64043181
0.65250506
0.66521797
0.67779763
0.68974095
0.7007515
0.71059149
0.71893009
0.72550733
0.7307766
0.73617143
0.74229516
0.74669377
0.74906809
0.75026498
0.75080443
0.75105858
0.75125163
0.75156989
0.75239388
0.75347578
0.75408143
0.75435901
0.75445344
0.75442066
0.75431883
0.75417556
0.75401462
0.72789007
0.94643533
0.92426076
0.94784837
0.92144534
0.91921364
0.90263213
0.88813779
0.86960324
0.84734091
0.82181156
0.79213843
0.75935545
0.72485495
0.69107008
0.66059597
0.63583985
0.61920087
0.61163741
0.61121361
0.61630819