/*--------------------------------*- C++ -*----------------------------------*\
  =========                 |
  \\      /  F ield         | OpenFOAM: The Open Source CFD Toolbox
   \\    /   O peration     | Website:  https://openfoam.org
    \\  /    A nd           | Version:  8
     \\/     M anipulation  |
\*---------------------------------------------------------------------------*/
FoamFile
{
    version     2.0;
    format      ascii;
    class       surfaceScalarField;
    location    "0.259994";
    object      meshPhi;
}
// * * * * * * * * * * * * * * * * * * * * * * * * * * * * * * * * * * * * * //

dimensions      [0 3 -1 0 0 0 0];

internalField   nonuniform List<scalar> 
39600
(
3.8903774e-06
2.402558e-07
-2.3872179e-07
3.892264e-06
2.897079e-07
-2.9336637e-07
3.8944206e-06
3.4714444e-07
-3.5140039e-07
3.8972582e-06
4.1583811e-07
-4.2095552e-07
3.9009762e-06
4.9810019e-07
-5.042652e-07
3.9056986e-06
5.9661616e-07
-6.0403241e-07
3.9117128e-06
7.1458082e-07
-7.2348605e-07
3.9193615e-06
8.5580314e-07
-8.6647789e-07
3.9288676e-06
1.0248284e-06
-1.0375925e-06
3.9407937e-06
1.2270544e-06
-1.2422748e-06
3.9559763e-06
1.4688485e-06
-1.4869648e-06
3.9760677e-06
1.7577042e-06
-1.7792455e-06
4.0033679e-06
2.1023834e-06
-2.1279898e-06
4.0407935e-06
2.5130579e-06
-2.5435149e-06
4.0890923e-06
3.001507e-06
-3.0377153e-06
4.1552175e-06
3.5812155e-06
-3.6242564e-06
4.228963e-06
4.2674682e-06
-4.3188455e-06
4.3116573e-06
5.0780981e-06
-5.1395796e-06
4.4446865e-06
6.0302721e-06
-6.1039983e-06
4.6565145e-06
7.1358393e-06
-7.2250854e-06
4.9798936e-06
8.400971e-06
-8.5104493e-06
5.4637104e-06
9.8185756e-06
-9.9548201e-06
6.0592079e-06
1.1393151e-05
-1.1565505e-05
6.7506722e-06
1.3130229e-05
-1.3350037e-05
7.4824856e-06
1.5064063e-05
-1.5353867e-05
8.6790171e-06
1.7135746e-05
-1.7525714e-05
1.0413628e-05
1.9255028e-05
-1.9784055e-05
1.3586086e-05
2.1065586e-05
-2.1807181e-05
1.7837153e-05
2.2125278e-05
-2.3185635e-05
2.3967436e-05
2.2286274e-05
-2.379351e-05
3.1370814e-05
2.1381793e-05
-2.3500455e-05
3.9244526e-05
2.0228994e-05
-2.3162989e-05
4.8562087e-05
1.8952728e-05
-2.2998059e-05
6.0552169e-05
1.6433877e-05
-2.1863033e-05
7.5637294e-05
1.174286e-05
-1.8935388e-05
9.2804812e-05
5.478785e-06
-1.491451e-05
0.00011400715
-2.2069543e-06
-9.9898612e-06
0.00013757491
-1.0512777e-05
-5.0385069e-06
0.00016583015
-1.8595423e-05
-8.2733624e-07
0.00019510508
-2.551724e-05
1.5495199e-06
0.00023143544
-2.9674394e-05
5.3187578e-07
0.00026921892
-3.493238e-05
4.2544985e-07
0.00031297933
-4.1524147e-05
1.753173e-06
0.00035415383
-4.2308084e-05
-2.8378165e-06
0.00039709664
-3.175293e-05
-1.8113781e-05
0.00043565792
-1.6013994e-05
-3.6751509e-05
0.00046844868
4.4168238e-06
-5.7096419e-05
0.00048348745
2.2166182e-05
-6.9422066e-05
0.00044581077
2.345299e-05
-5.8948272e-05
1.5311747e-05
-2.5621077e-05
3.1293388e-06
2.3830675e-07
3.1311743e-06
2.8736857e-07
3.1335411e-06
3.4425924e-07
3.1364291e-06
4.1240881e-07
3.1395852e-06
4.9403955e-07
3.1430059e-06
5.9179294e-07
3.1465317e-06
7.0885829e-07
3.1504278e-06
8.4900212e-07
3.1548838e-06
1.0167388e-06
3.1606268e-06
1.2174035e-06
3.1685364e-06
1.4573204e-06
3.1804524e-06
1.7439282e-06
3.1978806e-06
2.0859675e-06
3.2231667e-06
2.4935921e-06
3.2554924e-06
2.97867e-06
3.299737e-06
3.5545435e-06
3.3525172e-06
4.2361845e-06
3.4177428e-06
5.0405359e-06
3.529092e-06
5.9839395e-06
3.7134336e-06
7.0786617e-06
4.0025514e-06
8.3297736e-06
4.439327e-06
9.7308618e-06
4.9910492e-06
1.1281909e-05
5.649576e-06
1.2984492e-05
6.3965778e-06
1.4857481e-05
7.5753994e-06
1.684044e-05
9.2521816e-06
1.8844772e-05
1.2317193e-05
2.0462711e-05
1.6462371e-05
2.1232432e-05
2.2416131e-05
2.0967056e-05
2.9605869e-05
1.9485843e-05
3.7357821e-05
1.7553982e-05
4.6645474e-05
1.5220697e-05
5.8427489e-05
1.1337758e-05
7.3355778e-05
4.9184789e-06
9.034125e-05
-3.5253822e-06
0.00011145192
-1.3939435e-05
0.00013473322
-2.5506794e-05
0.00016282635
-3.7385163e-05
0.00019210123
-4.8751013e-05
0.00022837267
-5.8194541e-05
0.00026627954
-6.8959099e-05
0.00031026173
-8.0940771e-05
0.00035188408
-8.7163207e-05
0.00039524188
-8.1684501e-05
0.00043484349
-6.9363422e-05
0.0004679138
-4.9412395e-05
0.00048685312
-2.7265826e-05
0.00044580738
-1.4590235e-05
3.2906787e-06
2.4054216e-06
2.3719022e-07
2.3945886e-06
2.8613083e-07
2.3840036e-06
3.4289392e-07
2.37549e-06
4.1089623e-07
2.3695213e-06
4.9233814e-07
2.3656673e-06
5.8984828e-07
2.3638527e-06
7.0659092e-07
2.3641236e-06
8.4631493e-07
2.366919e-06
1.0134941e-06
2.37255e-06
1.2134349e-06
2.3813668e-06
1.4524163e-06
2.3940858e-06
1.7378802e-06
2.4105262e-06
2.078552e-06
2.4310073e-06
2.4846893e-06
2.4546886e-06
2.9682004e-06
2.4839237e-06
3.5422796e-06
2.5212471e-06
4.2216815e-06
2.5763576e-06
5.0225992e-06
2.6722815e-06
5.9611618e-06
2.8332109e-06
7.0498657e-06
3.0912428e-06
8.2927856e-06
3.4808491e-06
9.6838926e-06
3.989657e-06
1.1218691e-05
4.6129249e-06
1.2895355e-05
5.3663342e-06
1.471789e-05
6.50817e-06
1.6624832e-05
8.1230168e-06
1.8528448e-05
1.1075192e-05
1.9974225e-05
1.5113609e-05
2.0474769e-05
2.0904069e-05
1.9805943e-05
2.7884028e-05
1.7776126e-05
3.5533058e-05
1.5088399e-05
4.4730853e-05
1.1724885e-05
5.6371154e-05
6.5082917e-06
7.1067687e-05
-1.5988561e-06
8.7945005e-05
-1.2183042e-05
0.00010887347
-2.5293557e-05
0.00013196396
-4.0081947e-05
0.00015977849
-5.5714079e-05
0.00018910952
-7.1478017e-05
0.00022519036
-8.6151613e-05
0.00026336753
-0.00010245337
0.00030752863
-0.00011996407
0.000349546
-0.00013174616
0.00039331354
-0.0001314595
0.00043365217
-0.00012279245
0.00046691496
-0.00010369828
0.00048913891
-7.8103469e-05
0.00044499034
-5.4738745e-05
-1.0171105e-05
1.7355313e-06
2.3683862e-07
1.7224832e-06
2.8564152e-07
1.7085934e-06
3.4222993e-07
1.6952126e-06
4.1004269e-07
1.683121e-06
4.9130616e-07
1.6721682e-06
5.8866797e-07
1.6628372e-06
7.0529407e-07
1.6558094e-06
8.4495152e-07
1.6518928e-06
1.0121184e-06
1.651906e-06
1.2121004e-06
1.6559017e-06
1.4511835e-06
1.6642341e-06
1.7368135e-06
1.6759077e-06
2.0777063e-06
1.6898112e-06
2.4841815e-06
1.7054513e-06
2.9681533e-06
1.7236724e-06
3.5427508e-06
1.7490937e-06
4.2224243e-06
1.7922438e-06
5.0231674e-06
1.8709163e-06
5.9611308e-06
2.0094554e-06
7.0485169e-06
2.2372705e-06
8.2888739e-06
2.5847293e-06
9.6761124e-06
3.0531957e-06
1.1201979e-05
3.6411632e-06
1.2861609e-05
4.3893223e-06
1.4645475e-05
5.489662e-06
1.6491129e-05
7.0491344e-06
1.8306956e-05
9.8986998e-06
1.959454e-05
1.3838512e-05
1.9840757e-05
1.9471062e-05
1.879128e-05
2.6263092e-05
1.6239439e-05
3.3818614e-05
1.2817503e-05
4.2923953e-05
8.4451976e-06
5.443051e-05
1.9237202e-06
6.8906762e-05
-7.8325717e-06
8.5684422e-05
-2.0521381e-05
0.00010644038
-3.6295685e-05
0.00012936799
-5.4271735e-05
0.00015693267
-7.3625695e-05
0.00018631377
-9.3761179e-05
0.00022225945
-0.00011362369
0.00026070742
-0.00013549845
0.00030504905
-0.00015866264
0.00034747575
-0.00017613102
0.00039166992
-0.00018116724
0.0004325853
-0.00017636787
0.00046596383
-0.00015843954
0.00049070207
-0.00013013283
0.00044408535
-9.6691896e-05
-2.4936743e-05
1.1168929e-06
2.37336e-07
1.1118937e-06
2.8623708e-07
1.1048546e-06
3.4293633e-07
1.0951476e-06
4.1088537e-07
1.0834789e-06
4.9230589e-07
1.070226e-06
5.8985837e-07
1.0564216e-06
7.0671974e-07
1.0430897e-06
8.466735e-07
1.0311075e-06
1.0142289e-06
1.0217681e-06
1.2147431e-06
1.01496e-06
1.4545559e-06
1.0116917e-06
1.7411906e-06
1.0109513e-06
2.0834461e-06
1.0124851e-06
2.4917019e-06
1.0153188e-06
2.9779222e-06
1.0205115e-06
3.5551794e-06
1.0322478e-06
4.2377996e-06
1.0595197e-06
5.0416696e-06
1.1196867e-06
5.9828945e-06
1.235792e-06
7.0734455e-06
1.4340505e-06
8.3166147e-06
1.7424886e-06
9.7061506e-06
2.171632e-06
1.1230559e-05
2.7236761e-06
1.2882141e-05
3.4573755e-06
1.4638758e-05
4.5127612e-06
1.6436252e-05
6.0239261e-06
1.817598e-05
8.7864502e-06
1.9316848e-05
1.263396e-05
1.9321951e-05
1.8112829e-05
1.7913412e-05
2.4732146e-05
1.486652e-05
3.2199567e-05
1.0733325e-05
4.1215118e-05
5.3723547e-06
5.2590291e-05
-2.4278694e-06
6.6859547e-05
-1.3795488e-05
8.3539806e-05
-2.8553201e-05
0.00010413557
-4.6960273e-05
0.00012691788
-6.8090906e-05
0.00015426145
-9.1135302e-05
0.00018369502
-0.00011561985
0.00021955834
-0.00014065334
0.00025826306
-0.00016814122
0.00030278775
-0.00019707115
0.00034563811
-0.00022034997
0.00039027669
-0.00023086011
0.00043163983
-0.00023012603
0.00046504996
-0.0002136069
0.00049162753
-0.00018319722
0.00044306713
-0.00014027228
-4.0924744e-05
5.2761833e-07
2.3863557e-07
5.2139361e-07
2.8782891e-07
5.1332349e-07
3.4487844e-07
5.0336259e-07
4.1324458e-07
4.9238133e-07
4.9515592e-07
4.8046951e-07
5.9327997e-07
4.6828714e-07
7.1080859e-07
4.5604649e-07
8.5154657e-07
4.4385279e-07
1.0200418e-06
4.3221718e-07
1.2217078e-06
4.2043381e-07
1.4629652e-06
4.0934692e-07
1.7514494e-06
3.9800946e-07
2.096088e-06
3.871048e-07
2.5074081e-06
3.7678051e-07
2.9974813e-06
3.6783596e-07
3.5794112e-06
3.6417226e-07
4.2674329e-06
3.7503574e-07
5.0773045e-06
4.1675374e-07
6.0252687e-06
5.1042678e-07
7.1232124e-06
6.7983686e-07
8.3742171e-06
9.5095121e-07
9.7718997e-06
1.340388e-06
1.1302458e-05
1.8554209e-06
1.2954976e-05
2.5664174e-06
1.469664e-05
3.574959e-06
1.646151e-05
5.0447297e-06
1.8136754e-05
7.7340207e-06
1.9138899e-05
1.149371e-05
1.8914055e-05
1.6823135e-05
1.7167866e-05
2.3280432e-05
1.3650616e-05
3.06627e-05
8.8288093e-06
3.9591432e-05
2.5001477e-06
5.0836512e-05
-6.5512768e-06
6.4910847e-05
-1.9494793e-05
8.1494155e-05
-3.62874e-05
0.00010194082
-5.7295099e-05
0.0001245908
-8.1550044e-05
0.00015173855
-0.00010825795
0.00018123006
-0.00013708029
0.00021705287
-0.0001672748
0.00025599774
-0.00020041545
0.00030070941
-0.00023521027
0.00034399379
-0.00026442736
0.00038909175
-0.00028056784
0.00043080163
-0.00028408566
0.00046416366
-0.00026918424
0.00049197817
-0.00023713768
0.00044191026
-0.00018524038
-5.8017053e-05
-2.347277e-08
2.4068009e-07
-2.9754764e-08
2.9026925e-07
-3.7347804e-08
3.4777435e-07
-4.6336943e-08
4.1667794e-07
-5.5867517e-08
4.9923377e-07
-6.6220453e-08
5.9813503e-07
-7.7116206e-08
7.1661215e-07
-8.8881595e-08
8.5852045e-07
-1.0195983e-07
1.0284717e-06
-1.163038e-07
1.231962e-06
-1.3303343e-07
1.4755109e-06
-1.5143164e-07
1.7668768e-06
-1.7251357e-07
2.1151293e-06
-1.9510999e-07
2.5309481e-06
-2.183563e-07
3.0265639e-06
-2.4101273e-07
3.6151e-06
-2.5909213e-07
4.3107201e-06
-2.6392167e-07
5.1293957e-06
-2.4042986e-07
6.0874839e-06
-1.6903701e-07
7.1967777e-06
-2.7777583e-08
8.4603272e-06
2.0790714e-07
9.8716307e-06
5.5761292e-07
1.141551e-05
1.0336188e-06
1.3078264e-05
1.7141344e-06
1.4817182e-05
2.6747109e-06
1.6563564e-05
4.1101296e-06
1.8184932e-05
6.7383324e-06
1.9055306e-05
1.0413671e-05
1.8610976e-05
1.5598239e-05
1.6546951e-05
2.1902086e-05
1.258387e-05
2.9200263e-05
7.0964244e-06
3.8045084e-05
-1.7979574e-07
4.9160634e-05
-1.0457222e-05
6.3051623e-05
-2.4942188e-05
7.9536721e-05
-4.3735846e-05
9.9845249e-05
-6.7313955e-05
0.00012237189
-9.4663234e-05
0.00014934814
-0.00012500692
0.00017890232
-0.00015815579
0.00021471907
-0.0001935137
0.0002538867
-0.00023234761
0.00029879105
-0.00027309861
0.00034251566
-0.00030837653
0.00038808523
-0.0003303104
0.00043006303
-0.00033825513
0.00046331227
-0.00032513849
0.00049186395
-0.00029180658
0.00044062474
-0.00023140104
-7.6116869e-05
-5.375787e-07
2.4347076e-07
-5.4171361e-07
2.9362253e-07
-5.4618121e-07
3.51774e-07
-5.5208195e-07
4.2143884e-07
-5.5913267e-07
5.0490474e-07
-5.6819555e-07
6.0490985e-07
-5.7924403e-07
7.2473699e-07
-5.9277018e-07
8.6830513e-07
-6.0923535e-07
1.0403022e-06
-6.2853601e-07
1.2463121e-06
-6.517776e-07
1.492966e-06
-6.7806857e-07
1.7881521e-06
-7.0844742e-07
2.141098e-06
-7.415601e-07
2.5626795e-06
-7.7609864e-07
3.0652456e-06
-8.1041603e-07
3.6619894e-06
-8.4112789e-07
4.3673477e-06
-8.6095127e-07
5.1975429e-06
-8.5554214e-07
6.1689321e-06
-8.0606348e-07
7.2934122e-06
-6.9215257e-07
8.5740835e-06
-4.8984767e-07
1.0004218e-05
-1.7840674e-07
1.1567805e-05
2.5781169e-07
1.3248811e-05
9.021324e-07
1.4996627e-05
1.8136663e-06
1.6738989e-05
3.2198479e-06
1.8316892e-05
5.7971208e-06
1.9061449e-05
9.3913793e-06
1.8406212e-05
1.4436767e-05
1.6041407e-05
2.0594417e-05
1.1652775e-05
2.7809045e-05
5.5207436e-06
3.6571916e-05
-2.6819945e-06
4.75592e-05
-1.415926e-05
6.1276934e-05
-3.0154788e-05
7.76632e-05
-5.0918301e-05
9.7842995e-05
-7.7036636e-05
0.0001202545
-0.00010745235
0.00014708058
-0.00014140856
0.00017670163
-0.00017887834
0.0002125385
-0.00021940112
0.00025191429
-0.0002639632
0.0002970167
-0.00031075114
0.00034118346
-0.00035221068
0.00038723178
-0.00038009318
0.00042941504
-0.00039262575
0.00046250177
-0.00038144551
0.00049135482
-0.00034710167
0.0004392131
-0.0002785853
-9.5126576e-05
-1.0196842e-06
2.4697984e-07
-1.0241851e-06
2.9785983e-07
-1.0290556e-06
3.5687765e-07
-1.0355523e-06
4.2760021e-07
-1.0435697e-06
5.1234828e-07
-1.0540123e-06
6.1389832e-07
-1.0668127e-06
7.3558069e-07
-1.0825389e-06
8.8137244e-07
-1.1016226e-06
1.0560295e-06
-1.1240872e-06
1.2652369e-06
-1.1511491e-06
1.5157383e-06
-1.182049e-06
1.8155714e-06
-1.2181161e-06
2.1741445e-06
-1.2581584e-06
2.6025476e-06
-1.3006002e-06
3.1133079e-06
-1.3438996e-06
3.7199062e-06
-1.3859068e-06
4.4371261e-06
-1.419948e-06
5.2813302e-06
-1.4317609e-06
6.2690518e-06
-1.4034214e-06
7.4123414e-06
-1.3158163e-06
8.7145037e-06
-1.1453499e-06
1.0168672e-05
-8.704659e-07
1.1758162e-05
-4.7248898e-07
1.3464619e-05
1.3168318e-07
1.5232e-05
9.9217713e-07
1.6983814e-05
2.3722045e-06
1.8528266e-05
4.9069254e-06
1.9152514e-05
8.4237025e-06
1.82941e-05
1.3335665e-05
1.5644284e-05
1.9354016e-05
1.0850431e-05
2.6485322e-05
4.0944776e-06
3.516848e-05
-5.0157791e-06
4.6030081e-05
-1.7670887e-05
5.9584236e-05
-3.5148019e-05
7.5870921e-05
-5.7850895e-05
9.5930072e-05
-8.6480541e-05
0.0001182327
-0.00011993372
0.00014492873
-0.00015747752
0.00017461938
-0.00019926164
0.00021049743
-0.00024495769
0.00025006805
-0.00029528334
0.00029537364
-0.0003481838
0.00033998107
-0.00039593889
0.00038651134
-0.00042992522
0.00042885068
-0.00044719907
0.00046173553
-0.0004380779
0.00049054193
-0.00040290207
0.00043767973
-0.0003266087
-0.0001149459
-1.4715246e-06
2.5119703e-07
-1.4791799e-06
3.0297658e-07
-1.4881197e-06
3.6307033e-07
-1.4987132e-06
4.3509979e-07
-1.5104075e-06
5.2141757e-07
-1.5237733e-06
6.2484046e-07
-1.538702e-06
7.4875656e-07
-1.555884e-06
8.9720776e-07
-1.5759337e-06
1.0750389e-06
-1.5992404e-06
1.2880234e-06
-1.6273719e-06
1.5430528e-06
-1.660056e-06
1.8483165e-06
-1.6991058e-06
2.2134598e-06
-1.7436641e-06
2.6497839e-06
-1.7921281e-06
3.1701211e-06
-1.8441028e-06
3.7884608e-06
-1.8972766e-06
4.5197981e-06
-1.9441773e-06
5.3804979e-06
-1.9717805e-06
6.3874397e-06
-1.9634894e-06
7.5530785e-06
-1.9010289e-06
8.8809394e-06
-1.7608635e-06
1.0363967e-05
-1.5210534e-06
1.1985127e-05
-1.1586323e-06
1.3723024e-05
-5.9547838e-07
1.5517593e-05
2.1367399e-07
1.7290306e-05
1.5683203e-06
1.8811614e-05
4.063923e-06
1.9323634e-05
7.5056149e-06
1.8273191e-05
1.2289394e-05
1.5354526e-05
1.8175312e-05
1.0173131e-05
2.5224432e-05
2.8121409e-06
3.383025e-05
-7.1857411e-06
4.4570092e-05
-2.0995458e-05
5.7968884e-05
-3.9927723e-05
7.4155698e-05
-6.4540403e-05
9.4099958e-05
-9.5650787e-05
0.000116298
-0.00013211087
0.00014287995
-0.00017321688
0.00017264178
-0.00021930853
0.00020857704
-0.00027018231
0.00024833152
-0.00032630105
0.00029384391
-0.00038538085
0.00033888774
-0.00043954213
0.00038590006
-0.00047977959
0.00042835732
-0.00050194022
0.00046101159
-0.0004950019
0.00048948159
-0.00045914348
0.0004360166
-0.00037535113
-0.00013549001
-1.891065e-06
2.5605843e-07
-1.8991507e-06
3.0879256e-07
-1.908486e-06
3.6999519e-07
-1.9194945e-06
4.4334115e-07
-1.9317269e-06
5.3123425e-07
-1.9458976e-06
6.3657669e-07
-1.9620073e-06
7.6282076e-07
-1.9808452e-06
9.1412108e-07
-2.0031044e-06
1.0954396e-06
-2.0291702e-06
1.3127001e-06
-2.0608006e-06
1.5729418e-06
-2.0977505e-06
1.8845827e-06
-2.1424126e-06
2.2574977e-06
-2.1935247e-06
2.7032107e-06
-2.2506323e-06
3.2350455e-06
-2.3128384e-06
3.8672736e-06
-2.3766509e-06
4.6147964e-06
-2.4357724e-06
5.4944066e-06
-2.4779529e-06
6.5235331e-06
-2.488604e-06
7.7149612e-06
-2.4501119e-06
9.0726159e-06
-2.338419e-06
1.0589039e-05
-2.1320036e-06
1.2247222e-05
-1.8019427e-06
1.4022098e-05
-1.2778278e-06
1.5850539e-05
-5.1848937e-07
1.7654426e-05
8.0991325e-07
1.9162174e-05
3.2663122e-06
1.9569433e-05
6.6339443e-06
1.8337665e-05
1.1295485e-05
1.5165036e-05
1.7057029e-05
9.6121428e-06
2.4025913e-05
1.6624853e-06
3.2554978e-05
-9.2052506e-06
4.3175309e-05
-2.4146436e-05
5.6426242e-05
-4.450594e-05
7.2513036e-05
-7.0999608e-05
9.2348526e-05
-0.0001045636
0.00011444579
-0.00014400381
0.00014092626
-0.00018864592
0.00017075971
-0.00023903594
0.00020676536
-0.00029509735
0.0002466937
-0.00035704006
0.00029241609
-0.00042236232
0.00033789005
-0.00048303323
0.00038538215
-0.00052966704
0.000427929
-0.00055685444
0.00046033713
-0.0005522016
0.00048824425
-0.00051573904
0.00043424146
-0.00042466074
-0.00015666294
-2.2801692e-06
2.6158531e-07
-2.2861238e-06
3.154339e-07
-2.2923605e-06
3.7792441e-07
-2.3001653e-06
4.5279258e-07
-2.30965e-06
5.4249617e-07
-2.3221047e-06
6.4999211e-07
-2.3377553e-06
7.7883687e-07
-2.3576694e-06
9.3328231e-07
-2.3825008e-06
1.1184228e-06
-2.4128455e-06
1.3403637e-06
-2.4502839e-06
1.6063556e-06
-2.4946539e-06
1.9250878e-06
-2.5480018e-06
2.3067113e-06
-2.6090365e-06
2.7631676e-06
-2.6765795e-06
3.3080088e-06
-2.7482238e-06
3.9554722e-06
-2.8211464e-06
4.7207909e-06
-2.8918835e-06
5.6214097e-06
-2.9500345e-06
6.6756965e-06
-2.9799932e-06
7.8968063e-06
-2.9642669e-06
9.2882696e-06
-2.8794654e-06
1.0842482e-05
-2.7041352e-06
1.2542315e-05
-2.4034531e-06
1.4358377e-05
-1.9149316e-06
1.6224863e-05
-1.2022037e-06
1.8065631e-05
9.7398352e-08
1.9569826e-05
2.5130408e-06
1.9884537e-05
5.8084179e-06
1.848182e-05
1.0355762e-05
1.5066086e-05
1.6000129e-05
9.1536708e-06
2.2889353e-05
6.3160336e-07
3.1340914e-05
-1.108578e-05
4.1842588e-05
-2.7134112e-05
5.4952288e-05
-4.8894814e-05
7.0939702e-05
-7.7242159e-05
9.0672952e-05
-0.00011323265
0.00011267564
-0.0001556292
0.00013906534
-0.00020378748
0.00016896959
-0.00025846628
0.00020505591
-0.00031971696
0.00024515035
-0.00038750698
0.00029108434
-0.00045912597
0.00033698052
-0.00052640266
0.00038494652
-0.00057956233
0.00042756051
-0.00061190143
0.00045971614
-0.00060964049
0.00048687135
-0.00057264705
0.00043236214
-0.00047445293
-0.00017839464
-2.6368479e-06
2.6767747e-07
-2.6367242e-06
3.2259644e-07
-2.6372647e-06
3.8633806e-07
-2.6411015e-06
4.6272906e-07
-2.6487297e-06
5.5432384e-07
-2.6610609e-06
6.6418356e-07
-2.678397e-06
7.9595769e-07
-2.7015064e-06
9.5401605e-07
-2.7308826e-06
1.1436152e-06
-2.7671277e-06
1.371004e-06
-2.8113463e-06
1.6436572e-06
-2.8637293e-06
1.9704833e-06
-2.9252326e-06
2.3618706e-06
-2.9943433e-06
2.8299723e-06
-3.0685327e-06
3.3885065e-06
-3.1453875e-06
4.0519111e-06
-3.2258565e-06
4.8361884e-06
-3.3091524e-06
5.7601343e-06
-3.3858591e-06
6.8428671e-06
-3.4370185e-06
8.0972145e-06
-3.443549e-06
9.526406e-06
-3.3844222e-06
1.1122551e-05
-3.2375749e-06
1.286819e-05
-2.9633493e-06
1.4729247e-05
-2.5073241e-06
1.6637992e-05
-1.8373838e-06
1.8521504e-05
-5.698845e-07
2.0031488e-05
1.8030586e-06
2.0263849e-05
5.0301028e-06
1.8698103e-05
9.4704069e-06
1.5048858e-05
1.5001687e-05
8.7909714e-06
2.1810103e-05
-2.8614745e-07
3.0184014e-05
-1.2835176e-05
4.0568887e-05
-2.9970032e-05
5.3543579e-05
-5.3107456e-05
6.9432547e-05
-8.3282222e-05
8.9069171e-05
-0.00012167363
0.00011098484
-0.0001670044
0.00013729539
-0.00021866166
0.00016726722
-0.00027762012
0.00020344258
-0.0003440648
0.00024369587
-0.00041772734
0.00028984205
-0.00049569422
0.00033615062
-0.0005696656
0.00038458194
-0.0006294773
0.0004272431
-0.00066708723
0.00045914076
-0.00066729965
0.00048539534
-0.00062978577
0.00043037606
-0.00052458247
-0.00020058826
-2.9751671e-06
2.7454164e-07
-2.9769363e-06
3.3105893e-07
-2.9798995e-06
3.9671598e-07
-2.986086e-06
4.7539729e-07
-2.9959913e-06
5.6969131e-07
-3.0099746e-06
6.8268347e-07
-3.028755e-06
8.1809873e-07
-3.0528697e-06
9.8042012e-07
-3.0833133e-06
1.1749785e-06
-3.1207422e-06
1.4082434e-06
-3.1663722e-06
1.6878521e-06
-3.2206656e-06
2.0229916e-06
-3.2839679e-06
2.4243028e-06
-3.3540616e-06
2.9041917e-06
-3.4287928e-06
3.4766358e-06
-3.5078691e-06
4.1567815e-06
-3.594872e-06
4.9617745e-06
-3.6924619e-06
5.9115822e-06
-3.788823e-06
7.0256687e-06
-3.8614188e-06
8.3164153e-06
-3.8902962e-06
9.7867001e-06
-3.8558279e-06
1.1428636e-05
-3.7349293e-06
1.3223639e-05
-3.48428e-06
1.5132597e-05
-3.0569305e-06
1.7085499e-05
-2.4273545e-06
1.9014529e-05
-1.1951463e-06
2.0540288e-05
1.1354703e-06
2.0703148e-05
4.2973785e-06
1.8984391e-05
8.6339958e-06
1.5113554e-05
1.4054677e-05
8.5242479e-06
2.0781875e-05
-1.0908725e-06
2.9078446e-05
-1.4451747e-05
3.9349278e-05
-3.2650582e-05
5.2194401e-05
-5.7140589e-05
6.7986084e-05
-8.9115985e-05
8.7530344e-05
-0.00012988051
0.0001093658
-0.00017812117
0.00013560825
-0.00023326037
0.00016564428
-0.00029648857
0.00020191378
-0.00036812324
0.00024231974
-0.00044767357
0.00028867689
-0.00053203163
0.00033538704
-0.00061277953
0.00038427311
-0.00067935741
0.00042696637
-0.00072235012
0.00045860244
-0.00072513288
0.00048383327
-0.00068712254
0.00042827083
-0.00057497829
-0.000223178
-3.2947148e-06
2.8192762e-07
-3.3040998e-06
3.3995852e-07
-3.3147384e-06
4.074143e-07
-3.3270711e-06
4.8828837e-07
-3.3413824e-06
5.8522398e-07
-3.3582132e-06
7.0143142e-07
-3.3784292e-06
8.4073986e-07
-3.4027262e-06
1.0077328e-06
-3.4324388e-06
1.2079361e-06
-3.468535e-06
1.4479097e-06
-3.5123423e-06
1.735519e-06
-3.5645342e-06
2.0800388e-06
-3.6250841e-06
2.4923399e-06
-3.6928825e-06
2.9851681e-06
-3.7663173e-06
3.572969e-06
-3.8471595e-06
4.2716488e-06
-3.9414072e-06
5.0996583e-06
-4.0520274e-06
6.0779721e-06
-4.165103e-06
7.2254059e-06
-4.2568487e-06
8.5544844e-06
-4.3074508e-06
1.0068853e-05
-4.2965296e-06
1.1760089e-05
-4.1993903e-06
1.3607986e-05
-3.9694867e-06
1.5567572e-05
-3.5652243e-06
1.7565609e-05
-2.9731847e-06
1.9542178e-05
-1.778527e-06
2.1091946e-05
5.1034832e-07
2.1195949e-05
3.6066186e-06
1.9334442e-05
7.8416242e-06
1.5254628e-05
1.3155011e-05
8.3475501e-06
1.9801297e-05
-1.7900761e-06
2.8020819e-05
-1.594581e-05
3.8180231e-05
-3.5188716e-05
5.090071e-05
-6.1007934e-05
6.6596311e-05
-9.4758608e-05
8.605191e-05
-0.00013787097
0.00010781246
-0.00018899846
0.00013399742
-0.00024760325
0.00016409582
-0.00031509637
0.0002004613
-0.00039192372
0.00024101392
-0.00047737735
0.00028758005
-0.0005681674
0.00033468027
-0.00065576774
0.00038400933
-0.00072922278
0.00042672436
-0.00077770675
0.00045810001
-0.00078313463
0.00048221116
-0.00074460215
0.00042605869
-0.00062553533
-0.00024608369
-3.5840031e-06
2.8988582e-07
-3.5944692e-06
3.4954423e-07
-3.6067398e-06
4.1892608e-07
-3.6212027e-06
5.0210344e-07
-3.6381918e-06
6.0182146e-07
-3.6582247e-06
7.2139052e-07
-3.681887e-06
8.6474698e-07
-3.7098942e-06
1.0366452e-06
-3.7431069e-06
1.242771e-06
-3.7824785e-06
1.4898864e-06
-3.8289313e-06
1.7861151e-06
-3.8827973e-06
2.1408587e-06
-3.9441006e-06
2.5653333e-06
-4.0125332e-06
3.0726291e-06
-4.0877506e-06
3.6776096e-06
-4.1726755e-06
4.3972065e-06
-4.2743819e-06
5.2508237e-06
-4.3941407e-06
6.2592744e-06
-4.5186562e-06
7.4416157e-06
-4.6267925e-06
8.811364e-06
-4.697472e-06
1.0372538e-05
-4.708424e-06
1.2116217e-05
-4.6329447e-06
1.4020149e-05
-4.4220993e-06
1.6033642e-05
-4.0372437e-06
1.8078317e-05
-3.4784039e-06
2.010192e-05
-2.3209107e-06
2.1681191e-05
-7.4865703e-08
2.1738362e-05
2.9550028e-06
1.9744975e-05
7.0919572e-06
1.5465632e-05
1.2301898e-05
8.2510794e-06
1.8867831e-05
-2.394993e-06
2.7010798e-05
-1.7328014e-05
3.7061595e-05
-3.7595229e-05
4.9662077e-05
-6.4722746e-05
6.5263052e-05
-0.00010022495
8.4633496e-05
-0.00014566005
0.00010632366
-0.00019965172
0.00013246035
-0.00026170647
0.00016262059
-0.0003334563
0.00019908219
-0.00041547071
0.00023977642
-0.0005068355
0.00028654841
-0.00060409048
0.00033402606
-0.00069860913
0.00038378352
-0.00077903411
0.00042651077
-0.0008331009
0.00045762872
-0.00084125927
0.00048054449
-0.00080219753
0.00042374804
-0.00067619768
-0.00026924912
-3.8509466e-06
2.9841014e-07
-3.8621132e-06
3.5981531e-07
-3.8752824e-06
4.3124807e-07
-3.890884e-06
5.1689711e-07
-3.909318e-06
6.1958587e-07
-3.9311368e-06
7.4272881e-07
-3.9569521e-06
8.9038069e-07
-3.987545e-06
1.0674754e-06
-4.0236913e-06
1.2798288e-06
-4.0663407e-06
1.5344811e-06
-4.1162519e-06
1.8397538e-06
-4.1736363e-06
2.2053824e-06
-4.2388843e-06
2.6429281e-06
-4.3117754e-06
3.1659666e-06
-4.3926448e-06
3.7899689e-06
-4.4847389e-06
4.5326183e-06
-4.593371e-06
5.4138e-06
-4.7190906e-06
6.4543393e-06
-4.8519194e-06
7.6737225e-06
-4.9737922e-06
9.0864306e-06
-5.0623632e-06
1.0696949e-05
-5.0929068e-06
1.2495779e-05
-5.0370212e-06
1.4458524e-05
-4.8442676e-06
1.6528845e-05
-4.4770535e-06
1.8621444e-05
-3.9475768e-06
2.0692936e-05
-2.82689e-06
2.23084e-05
-6.2491862e-07
2.232892e-05
2.340113e-06
2.0211471e-05
6.3831413e-06
1.5740667e-05
1.1493562e-05
8.2291154e-06
1.7979993e-05
-2.9125674e-06
2.6047123e-05
-1.8608198e-05
3.5992237e-05
-3.9882493e-05
4.8477235e-05
-6.8298214e-05
6.3985363e-05
-0.00010552978
8.3273869e-05
-0.00015326494
0.00010489789
-0.00021010024
0.00013099383
-0.00027558943
0.0001612151
-0.00035158976
0.00019777381
-0.00043879473
0.00023860355
-0.00053608227
0.00028557709
-0.00063983071
0.0003334193
-0.00074132821
0.00038358825
-0.0008288113
0.0004263168
-0.00088854519
0.00045717491
-0.00089948322
0.00047883321
-0.00085983094
0.00042132939
-0.00072684189
-0.00029258739
-4.0966471e-06
3.0748695e-07
-4.1084443e-06
3.7075004e-07
-4.1223799e-06
4.4436462e-07
-4.1388974e-06
5.326267e-07
-4.1584613e-06
6.384777e-07
-4.181642e-06
7.6539465e-07
-4.2091163e-06
9.176196e-07
-4.2416721e-06
1.1001949e-06
-4.2801577e-06
1.319173e-06
-4.3254971e-06
1.5817869e-06
-4.3784542e-06
1.8965918e-06
-4.439516e-06
2.2737193e-06
-4.5097013e-06
2.7251944e-06
-4.5893026e-06
3.2651195e-06
-4.6789202e-06
3.9097278e-06
-4.7798757e-06
4.6773126e-06
-4.8951469e-06
5.5878788e-06
-5.0258906e-06
6.6624211e-06
-5.1656189e-06
7.9211033e-06
-5.2990256e-06
9.3791423e-06
-5.4030169e-06
1.1041458e-05
-5.4515102e-06
1.2898588e-05
-5.4139415e-06
1.4923618e-05
-5.2385231e-06
1.7053994e-05
-4.8877204e-06
1.9197827e-05
-4.3857836e-06
2.1317657e-05
-3.3023013e-06
2.2972235e-05
-1.1434897e-06
2.2965699e-05
1.7587591e-06
2.073435e-05
5.711459e-06
1.6081617e-05
1.0725946e-05
8.2830364e-06
1.7133745e-05
-3.3407095e-06
2.5125746e-05
-1.9781723e-05
3.4967968e-05
-4.2043933e-05
4.7341547e-05
-7.1727571e-05
6.2758405e-05
-0.00011066518
8.1967721e-05
-0.00016067514
0.00010352934
-0.00022033099
0.00012958985
-0.00028923674
0.00015987181
-0.00036947675
0.00019652823
-0.00046186629
0.00023748601
-0.00056507646
0.00028465559
-0.00067533687
0.00033284734
-0.00078386428
0.00038341024
-0.00087848026
0.0004261311
-0.0009439594
0.00045672503
-0.0009577515
0.00047707334
-0.00091747337
0.00041879061
-0.00077741112
-0.00031604138
-4.3224178e-06
3.1710581e-07
-4.3348265e-06
3.823254e-07
-4.3495064e-06
4.5825927e-07
-4.3669344e-06
5.4930268e-07
-4.387571e-06
6.5849581e-07
-4.4120692e-06
7.894358e-07
-4.4411004e-06
9.4650577e-07
-4.4755363e-06
1.1348972e-06
-4.5162211e-06
1.3608883e-06
-4.5643033e-06
1.6319622e-06
-4.6204578e-06
1.9569139e-06
-4.6856997e-06
2.3462852e-06
-4.7614752e-06
2.8127096e-06
-4.8492019e-06
3.3708733e-06
-4.948383e-06
4.037603e-06
-5.058265e-06
4.8315703e-06
-5.1798967e-06
5.7730133e-06
-5.3147788e-06
6.8833511e-06
-5.4606397e-06
8.1833738e-06
-5.603657e-06
9.6888775e-06
-5.7208797e-06
1.1405387e-05
-5.7867792e-06
1.3324168e-05
-5.7665085e-06
1.5414782e-05
-5.6075653e-06
1.7608135e-05
-5.2725761e-06
1.9805841e-05
-4.7978872e-06
2.1975268e-05
-3.7512383e-06
2.367264e-05
-1.6328612e-06
2.3646205e-05
1.2083799e-06
2.1308595e-05
5.0742264e-06
1.648274e-05
9.9960794e-06
8.4070092e-06
1.6326075e-05
-3.6865171e-06
2.4243597e-05
-2.0858616e-05
3.3985534e-05
-4.4092059e-05
4.6251381e-05
-7.502438e-05
6.157849e-05
-0.00011564656
8.0710923e-05
-0.0001679089
0.00010221325
-0.00023036473
0.00012824288
-0.00030267099
0.00015858462
-0.00038714272
0.00019533813
-0.00048471705
0.00023641616
-0.00059385502
0.00028377581
-0.00071064612
0.00033230243
-0.00082625045
0.00038324032
-0.00092807085
0.00042594432
-0.00099936683
0.00045627222
-0.001016059
0.00047527424
-0.00097508397
0.00041614161
-0.00082783829
-0.00033955392
-4.5294213e-06
3.2724655e-07
-4.5427071e-06
3.9453998e-07
-4.5584792e-06
4.7293011e-07
-4.5771872e-06
5.6694249e-07
-4.5993117e-06
6.7968691e-07
-4.6255071e-06
8.1492207e-07
-4.6565251e-06
9.7715591e-07
-4.6931734e-06
1.1717675e-06
-4.7365083e-06
1.4052628e-06
-4.7876348e-06
1.6853756e-06
-4.847579e-06
2.0212108e-06
-4.9175901e-06
2.4237707e-06
-4.9996133e-06
2.9062064e-06
-5.0950329e-06
3.4836989e-06
-5.202462e-06
4.173511e-06
-5.3199966e-06
4.9948995e-06
-5.4468328e-06
5.9684722e-06
-5.5858262e-06
7.1162671e-06
-5.7372325e-06
8.4597839e-06
-5.8883789e-06
1.0015112e-05
-6.0176794e-06
1.1788651e-05
-6.1000922e-06
1.3772295e-05
-6.0961258e-06
1.5931992e-05
-5.9535806e-06
1.8193131e-05
-5.6349248e-06
2.0449935e-05
-5.186324e-06
2.2669366e-05
-4.1739761e-06
2.4407107e-05
-2.0938991e-06
2.4364878e-05
6.8882162e-07
2.1929206e-05
4.4718095e-06
1.6936427e-05
9.3042885e-06
8.590383e-06
1.5557469e-05
-3.9621524e-06
2.3401275e-05
-2.1850737e-05
3.3045319e-05
-4.6038715e-05
4.5206613e-05
-7.8201374e-05
6.0445589e-05
-0.00012048728
7.9503225e-05
-0.00017497956
0.00010094936
-0.00024021509
0.00012695182
-0.00031590633
0.00015735136
-0.00040459656
0.00019420059
-0.00050734449
0.00023539291
-0.00062240846
0.0002829347
-0.00074574307
0.00033178043
-0.00086845877
0.00038307181
-0.00097753476
0.00042575211
-0.0010547034
0.0004558118
-0.0010743567
0.00047343939
-0.0010326363
0.00041339136
-0.00087807416
-0.00036307559
-4.7226363e-06
3.3796187e-07
-4.7409414e-06
4.0767454e-07
-4.7613813e-06
4.8892042e-07
-4.7836435e-06
5.8632867e-07
-4.8081196e-06
7.0310298e-07
-4.8358159e-06
8.4308408e-07
-4.8677301e-06
1.0108872e-06
-4.9050553e-06
1.2121237e-06
-4.9494278e-06
1.4534713e-06
-5.0017549e-06
1.7429521e-06
-5.0639524e-06
2.0900558e-06
-5.1372093e-06
2.5062593e-06