/*--------------------------------*- C++ -*----------------------------------*\
  =========                 |
  \\      /  F ield         | OpenFOAM: The Open Source CFD Toolbox
   \\    /   O peration     | Website:  https://openfoam.org
    \\  /    A nd           | Version:  8
     \\/     M anipulation  |
\*---------------------------------------------------------------------------*/
FoamFile
{
    version     2.0;
    format      ascii;
    class       volScalarField;
    location    "0.259994";
    object      nut;
}
// * * * * * * * * * * * * * * * * * * * * * * * * * * * * * * * * * * * * * //

dimensions      [0 2 -1 0 0 0 0];

internalField   nonuniform List<scalar> 
20000
(
0.0013139193
0.0032595364
0.0043651124
0.0047642728
0.0043022644
0.002623479
0.00042557714
1.5979799e-08
2.5437766e-09
2.5291005e-09
2.430667e-09
2.4511427e-09
2.4034659e-09
2.4338621e-09
2.4281735e-09
2.4653778e-09
2.4866491e-09
2.533742e-09
2.5791567e-09
2.6476385e-09
2.7255882e-09
2.8304299e-09
2.9568716e-09
3.1194033e-09
3.3185262e-09
3.5655819e-09
3.8615962e-09
4.2073558e-09
4.589641e-09
4.9886563e-09
5.37873e-09
5.7387585e-09
6.0555274e-09
6.3250376e-09
6.5474663e-09
6.7279661e-09
6.8715769e-09
6.9857583e-09
7.0740474e-09
7.142392e-09
7.1940416e-09
7.2354849e-09
7.2708747e-09
7.3030817e-09
7.3365463e-09
7.3706485e-09
7.4021626e-09
7.4218183e-09
7.4294094e-09
7.4089001e-09
0.0013168133
0.0032381763
0.0042977055
0.0046506635
0.0041402574
0.002375481
0.00032334146
8.8929733e-09
2.5429894e-09
2.5314584e-09
2.4320371e-09
2.4531926e-09
2.4085325e-09
2.4402889e-09
2.4353054e-09
2.4740376e-09
2.4964355e-09
2.5452699e-09
2.5926277e-09
2.6635954e-09
2.7443119e-09
2.8522768e-09
2.9822037e-09
3.148356e-09
3.3511611e-09
3.6012115e-09
3.89885e-09
4.2437675e-09
4.6228564e-09
5.0170858e-09
5.40187e-09
5.7570942e-09
6.069945e-09
6.3362077e-09
6.5561213e-09
6.7345549e-09
6.8765512e-09
6.9894767e-09
7.0768398e-09
7.1445151e-09
7.1957451e-09
7.2371058e-09
7.272306e-09
7.304584e-09
7.3380392e-09
7.3725858e-09
7.405663e-09
7.4226231e-09
7.4305298e-09
7.4082062e-09
0.0013086624
0.0031996753
0.0042232116
0.0045377733
0.00398754
0.0021400092
0.00023251645
5.8679715e-09
2.5473386e-09
2.5359006e-09
2.4373596e-09
2.4573755e-09
2.4167502e-09
2.4498203e-09
2.4456324e-09
2.4859229e-09
2.509781e-09
2.5606156e-09
2.6100662e-09
2.68351e-09
2.7670449e-09
2.8783467e-09
3.0121591e-09
3.1826103e-09
3.3900397e-09
3.6443068e-09
3.9448245e-09
4.2898574e-09
4.6656243e-09
5.0537799e-09
5.4316216e-09
5.7802418e-09
6.0875308e-09
6.3493598e-09
6.5658033e-09
6.7416138e-09
6.8816538e-09
6.9931382e-09
7.0794782e-09
7.1464149e-09
7.1971645e-09
7.2383938e-09
7.2735323e-09
7.3060389e-09
7.3396218e-09
7.3759472e-09
7.4085831e-09
7.4263519e-09
7.4319607e-09
7.4061139e-09
0.0013010378
0.0031630338
0.0041496417
0.0044243881
0.0038351648
0.0019130604
0.00015172562
4.4121933e-09
2.5537661e-09
2.5442823e-09
2.446969e-09
2.467819e-09
2.427949e-09
2.4621567e-09
2.4586352e-09
2.5003787e-09
2.5255765e-09
2.5783042e-09
2.6298764e-09
2.7059834e-09
2.7926498e-09
2.9076965e-09
3.0459437e-09
3.2214167e-09
3.4343493e-09
3.6938986e-09
3.9984483e-09
4.3447732e-09
4.7183108e-09
5.1009131e-09
5.4713122e-09
5.8121035e-09
6.1122908e-09
6.36817e-09
6.5799146e-09
6.7520556e-09
6.8893045e-09
6.9986979e-09
7.0835009e-09
7.1493622e-09
7.1994065e-09
7.2403281e-09
7.2752679e-09
7.3077903e-09
7.3414889e-09
7.3793644e-09
7.4120035e-09
7.4284897e-09
7.4335723e-09
7.4040668e-09
0.0012934801
0.0031270552
0.0040766919
0.0043100304
0.0036829862
0.0016963525
8.5219173e-05
3.67048e-09
2.5621728e-09
2.5549944e-09
2.4580458e-09
2.4802142e-09
2.4408946e-09
2.4762538e-09
2.4736321e-09
2.5169143e-09
2.5436237e-09
2.5984024e-09
2.6522876e-09
2.7312332e-09
2.8212966e-09
2.9404512e-09
3.0836279e-09
3.2647528e-09
3.4839611e-09
3.7496483e-09
4.059038e-09
4.4072425e-09
4.7787071e-09
5.1554663e-09
5.5176973e-09
5.8496169e-09
6.1415366e-09
6.3904169e-09
6.5965351e-09
6.7643135e-09
6.8982375e-09
7.0051515e-09
7.0881363e-09
7.1527213e-09
7.2019314e-09
7.2424295e-09
7.277149e-09
7.3096281e-09
7.3434723e-09
7.3833436e-09
7.4152206e-09
7.4310569e-09
7.4351484e-09
7.4017879e-09
0.0012862306
0.0030921169
0.0040049833
0.0041946328
0.0035297804
0.0014904039
3.9578436e-05
3.2766464e-09
2.5720548e-09
2.566955e-09
2.4706807e-09
2.4942241e-09
2.4556071e-09
2.4921788e-09
2.490496e-09
2.5353373e-09
2.5636275e-09
2.6205302e-09
2.6768745e-09
2.7588909e-09
2.8526913e-09
2.9763766e-09
3.1250178e-09
3.3124345e-09
3.5386677e-09
3.8112619e-09
4.1261575e-09
4.4767312e-09
4.8464045e-09
5.2172633e-09
5.5708395e-09
5.893042e-09
6.1756722e-09
6.4165418e-09
6.6161658e-09
6.7788488e-09
6.9088593e-09
7.0128395e-09
7.0936541e-09
7.1567263e-09
7.2049523e-09
7.2448948e-09
7.2793166e-09
7.311631e-09
7.3455986e-09
7.3875209e-09
7.4183782e-09
7.433216e-09
7.4365769e-09
7.399522e-09
0.0012793539
0.0030583633
0.003935158
0.0040813882
0.0033727863
0.0012958569
1.5315219e-05
3.0653144e-09
2.5834645e-09
2.5803582e-09
2.4848107e-09
2.5096791e-09
2.4718376e-09
2.509651e-09
2.5090372e-09
2.5554959e-09
2.5855028e-09
2.6446603e-09
2.7036749e-09
2.7890054e-09
2.886879e-09
3.0155059e-09
3.1701292e-09
3.3644518e-09
3.5983963e-09
3.8785408e-09
4.1994015e-09
4.5525345e-09
4.9203373e-09
5.2849999e-09
5.6293994e-09
5.9411797e-09
6.2137136e-09
6.4457898e-09
6.6382111e-09
6.7952082e-09
6.9208271e-09
7.0215041e-09
7.0998725e-09
7.1612283e-09
7.2083447e-09
7.247635e-09
7.2816899e-09
7.3137698e-09
7.3479386e-09
7.3918294e-09
7.4212161e-09
7.435163e-09
7.4376271e-09
7.3972725e-09
0.0012728219
0.0030251547
0.0038668854
0.0039706968
0.0032103614
0.0011141971
5.2218172e-06
2.9532256e-09
2.5962695e-09
2.5950291e-09
2.500424e-09
2.5265319e-09
2.4895636e-09
2.5286445e-09
2.5291914e-09
2.5773104e-09
2.6091505e-09
2.6706965e-09
2.732588e-09
2.8215025e-09
2.9238122e-09
3.0578132e-09
3.218951e-09
3.4207967e-09
3.663109e-09
3.9513577e-09
4.2784945e-09
4.6342113e-09
4.9999505e-09
5.3580642e-09
5.6927944e-09
5.9935387e-09
6.2552974e-09
6.4779123e-09
6.662528e-09
6.8133126e-09
6.9341028e-09
7.0311313e-09
7.1067868e-09
7.1662402e-09
7.2121215e-09
7.2506619e-09
7.2842651e-09
7.3160823e-09
7.350751e-09
7.3960126e-09
7.4235505e-09
7.4362794e-09
7.4378187e-09
7.3951001e-09
0.0012662833
0.0029919822
0.0037990201
0.0038555553
0.0030405065
0.00094649932
1.6755916e-06
2.8965507e-09
2.6105252e-09
2.6109421e-09
2.5173642e-09
2.5446885e-09
2.5086735e-09
2.549046e-09
2.5508722e-09
2.6007162e-09
2.6345388e-09
2.6986313e-09
2.763648e-09
2.8564311e-09
2.9635474e-09
3.1033599e-09
3.2715501e-09
3.4815326e-09
3.7328253e-09
4.0296249e-09
4.363173e-09
4.721288e-09
5.0845594e-09
5.4356393e-09
5.760187e-09
6.0493614e-09
6.2998007e-09
6.5124385e-09
6.6887614e-09
6.8329035e-09
6.9485012e-09
7.0415909e-09
7.1143099e-09
7.1717023e-09
7.2162354e-09
7.2539361e-09
7.2870023e-09
7.3185899e-09
7.3543916e-09
7.3998145e-09
7.4253509e-09
7.4367762e-09
7.4377115e-09
7.3929891e-09
0.001259659
0.0029586639
0.0037285356
0.0037403384
0.0028631342
0.00079503232
5.3685271e-07
2.8712736e-09
2.6260898e-09
2.6279667e-09
2.5355306e-09
2.5640548e-09
2.5291077e-09
2.5708122e-09
2.5740431e-09
2.6256882e-09
2.6616531e-09
2.7284734e-09
2.7968683e-09
2.8938187e-09
3.0061282e-09
3.1522074e-09
3.3280076e-09
3.5467465e-09
3.8075964e-09
4.1132899e-09
4.4532274e-09
4.813381e-09
5.1736405e-09
5.5171137e-09
5.8309503e-09
6.108075e-09
6.3467482e-09
6.5489972e-09
6.7166451e-09
6.8537911e-09
6.9638904e-09
7.0527938e-09
7.1223831e-09
7.1775832e-09
7.2206655e-09
7.2574379e-09
7.2898797e-09
7.321303e-09
7.3590132e-09
7.4031505e-09
7.4268324e-09
7.4369761e-09
7.4374464e-09
7.3908587e-09
0.0012535191
0.0029260719
0.0036588723
0.0036247727
0.0026778623
0.00066568339
1.8035383e-07
2.8638552e-09
2.6427502e-09
2.6460143e-09
2.5548618e-09
2.5845892e-09
2.5508293e-09
2.5939102e-09
2.598682e-09
2.6522211e-09
2.6905147e-09
2.7602569e-09
2.8323075e-09
2.9337372e-09
3.0516426e-09
3.2044645e-09
3.3884526e-09
3.6165693e-09
3.8875038e-09
4.2023147e-09
4.5484484e-09
4.9100977e-09
5.2666467e-09
5.6018489e-09
5.9044306e-09
6.1690761e-09
6.3956306e-09
6.587188e-09
6.7458759e-09
6.8757512e-09
6.9801091e-09
7.0646264e-09
7.1309303e-09
7.1838337e-09
7.2253797e-09
7.2611357e-09
7.2928653e-09
7.3241981e-09
7.3641721e-09
7.4063969e-09
7.4281677e-09
7.4369711e-09
7.4370788e-09
7.3886545e-09
0.001247542
0.0028934486
0.0035890405
0.0035092555
0.0024856818
0.00054366028
6.5028406e-08
2.8670734e-09
2.6605608e-09
2.665107e-09
2.5753556e-09
2.606288e-09
2.5738192e-09
2.6183312e-09
2.6247907e-09
2.6803391e-09
2.7211597e-09
2.7940373e-09
2.8700218e-09
2.9762565e-09
3.1001823e-09
3.2602515e-09
3.4530312e-09
3.6911486e-09
3.9726379e-09
4.2966638e-09
4.6486333e-09
5.0110725e-09
5.3630875e-09
5.6892864e-09
5.9800611e-09
6.2318408e-09
6.4460006e-09
6.6266532e-09
6.7761804e-09
6.8985795e-09
6.9970083e-09
7.0769841e-09
7.1398815e-09
7.1904065e-09
7.2303473e-09
7.2649998e-09
7.2959397e-09
7.3272489e-09
7.3697469e-09
7.4095458e-09
7.4294265e-09
7.4369091e-09
7.4360987e-09
7.3862524e-09
0.001241662
0.0028606107
0.0035183187
0.0033912362
0.0022874217
0.00043205064
2.6726517e-08
2.8767908e-09
2.6794628e-09
2.6851841e-09
2.5969734e-09
2.6291246e-09
2.5980774e-09
2.6440807e-09
2.6523991e-09
2.7100817e-09
2.753646e-09
2.8298714e-09
2.9100888e-09
3.0214757e-09
3.151875e-09
3.3197295e-09
3.5219313e-09
3.770667e-09
4.0631046e-09
4.396299e-09
4.7535634e-09
5.1159222e-09
5.4624622e-09
5.7788691e-09
6.0572867e-09
6.2958573e-09
6.4974205e-09
6.6670404e-09
6.8072852e-09
6.9220677e-09
7.0144334e-09
7.0897563e-09
7.1491625e-09
7.1972509e-09
7.2355305e-09
7.2690003e-09
7.2990997e-09
7.3304827e-09
7.3755463e-09
7.4125106e-09
7.4302569e-09
7.4361712e-09
7.4341745e-09
7.3836388e-09
0.0012358754
0.002827126
0.0034459912
0.0032666911
0.0020853845
0.00033058812
1.3023564e-08
2.8905735e-09
2.6994007e-09
2.7062661e-09
2.6197242e-09
2.6531262e-09
2.6236162e-09
2.6711974e-09
2.681548e-09
2.7415089e-09
2.7880277e-09
2.8678265e-09
2.9525864e-09
3.0694975e-09
3.2068582e-09
3.3830696e-09
3.5953526e-09
3.8553052e-09
4.1589981e-09
4.5011555e-09
4.8629968e-09
5.2242566e-09
5.5642928e-09
5.8700868e-09
6.1356067e-09
6.3606678e-09
6.5494983e-09
6.7080321e-09
6.8389409e-09
6.946023e-09
7.0322391e-09
7.1028382e-09
7.1587024e-09
7.2043193e-09
7.2408892e-09
7.2731064e-09
7.3023048e-09
7.3340635e-09
7.3812575e-09
7.4151144e-09
7.4305926e-09
7.435231e-09
7.4306188e-09
7.3807824e-09
0.0012302047
0.0027930054
0.0033719887
0.0031432878
0.0018821806
0.00023788545
7.618341e-09
2.9070467e-09
2.7204667e-09
2.728386e-09
2.6436311e-09
2.6783039e-09
2.650476e-09
2.699726e-09
2.7123016e-09
2.7746749e-09
2.8243703e-09
2.9079721e-09
2.9976169e-09
3.1204612e-09
3.2653075e-09
3.4504902e-09
3.6735333e-09
3.9452735e-09
4.2604125e-09
4.6111528e-09
4.9766669e-09
5.3356664e-09
5.6680941e-09
5.9624353e-09
6.2145366e-09
6.4258341e-09
6.6018617e-09
6.749327e-09
6.8709082e-09
6.9702568e-09
7.0502798e-09
7.1161254e-09
7.1684301e-09
7.2115643e-09
7.2463793e-09
7.277264e-09
7.3055076e-09
7.3383325e-09
7.3864447e-09
7.4172964e-09
7.4306996e-09
7.4345341e-09
7.4251279e-09
7.3777313e-09
0.0012247233
0.0027586557
0.0032936058
0.0030196815
0.0016796638
0.00015393915
5.2708648e-09
2.9252648e-09
2.7426041e-09
2.7515174e-09
2.6686976e-09
2.7046956e-09
2.6787096e-09
2.7297362e-09
2.7447117e-09
2.8096403e-09
2.8627351e-09
2.9503907e-09
3.0452935e-09
3.1745172e-09
3.3274134e-09
3.5222181e-09
3.7567158e-09
4.0407628e-09
4.3674035e-09
4.7261616e-09
5.0942671e-09
5.4497263e-09
5.7733906e-09
6.055441e-09
6.2936339e-09
6.4909641e-09
6.6541805e-09
6.7906582e-09
6.9029715e-09
6.9945968e-09
7.0684206e-09
7.1295206e-09
7.178278e-09
7.2189393e-09
7.2519555e-09
7.2814275e-09
7.3089111e-09
7.3436699e-09
7.3907563e-09
7.4189661e-09
7.4307146e-09
7.4336685e-09
7.4176825e-09
7.3745938e-09
0.0012194902
0.0027254707
0.0032192243
0.0028941368
0.0014806563
8.380279e-05
4.1688437e-09
2.9446433e-09
2.7658108e-09
2.7757264e-09
2.6949908e-09
2.7323869e-09
2.7083943e-09
2.7612766e-09
2.7788246e-09
2.8464448e-09
2.9031926e-09
2.9951926e-09
3.0957612e-09
3.2318517e-09
3.3934061e-09
3.5985233e-09
3.8451789e-09
4.1419794e-09
4.4800167e-09
4.8460196e-09
5.2154594e-09
5.5659927e-09
5.8797021e-09
6.1486374e-09
6.3724735e-09
6.5556883e-09
6.7061476e-09
6.8317757e-09
6.9349272e-09
7.0188786e-09
7.0865343e-09
7.1429301e-09
7.1881798e-09
7.226396e-09
7.2575727e-09
7.2855827e-09
7.3126836e-09
7.3501241e-09
7.394227e-09
7.4195813e-09
7.4303265e-09
7.4325412e-09
7.4094154e-09
7.3714574e-09
0.0012142249
0.0026915403
0.0031436449
0.0027643602
0.0012877099
3.6049278e-05
3.6281063e-09
2.9650609e-09
2.7901925e-09
2.8011116e-09
2.7226067e-09
2.761447e-09
2.7395589e-09
2.7943724e-09
2.8146643e-09
2.8851582e-09
2.9458351e-09
3.0425015e-09
3.1491802e-09
3.2926658e-09
3.4635254e-09
3.6796817e-09
3.9391889e-09
4.2490935e-09
4.5982357e-09
4.9704995e-09
5.3398541e-09
5.6839965e-09
5.9865514e-09
6.2415832e-09
6.4506689e-09
6.619681e-09
6.7574969e-09
6.8724637e-09
6.9665948e-09
7.0429572e-09
7.1045123e-09
7.1562684e-09
7.198074e-09
7.2338857e-09
7.263189e-09
7.2897113e-09
7.3168053e-09
7.3571551e-09
7.3975033e-09
7.4198228e-09
7.4289374e-09
7.4306029e-09
7.4017302e-09
7.3684794e-09
0.0012089078
0.0026569601
0.0030661901
0.0026290025
0.0011038898
1.2294198e-05
3.3611775e-09
2.9871722e-09
2.8158715e-09
2.8278028e-09
2.7515794e-09
2.7918747e-09
2.7722007e-09
2.8290383e-09
2.852291e-09
2.9258578e-09
2.9907757e-09
3.0924673e-09
3.2057428e-09
3.3571953e-09
3.5380541e-09
3.7660141e-09
4.0390433e-09
4.3622757e-09
4.7220201e-09
5.0993434e-09
5.4670383e-09
5.8032552e-09
6.0934617e-09
6.3338488e-09
6.5278539e-09
6.6826407e-09
6.8079866e-09
6.9125211e-09
6.9978067e-09
7.0666971e-09
7.1222516e-09
7.1694578e-09
7.2079022e-09
7.2413563e-09
7.2687674e-09
7.2938396e-09
7.3213119e-09
7.3643897e-09
7.4006625e-09
7.4198903e-09
7.4269891e-09
7.4277331e-09
7.3948029e-09
7.3657996e-09
0.0012035487
0.0026219943
0.0029869476
0.0024884207
0.00093153965
3.556174e-06
3.2344924e-09
3.0115043e-09
2.8428883e-09
2.8557248e-09
2.7818554e-09
2.8236286e-09
2.8063264e-09
2.8653365e-09
2.8917874e-09
2.9686595e-09
3.0381466e-09
3.145258e-09
3.2656572e-09
3.4256871e-09
3.6172844e-09
3.8578404e-09
4.1450112e-09
4.4816303e-09
4.8512425e-09
5.2322156e-09
5.596545e-09
5.9232652e-09
6.1999606e-09
6.4250289e-09
6.6036988e-09
6.7443061e-09
6.8574105e-09
6.9517743e-09
7.02842e-09
7.0899822e-09
7.1396604e-09
7.1824345e-09
7.2176141e-09
7.2487559e-09
7.2742745e-09
7.2980367e-09
7.3263553e-09
7.3712694e-09
7.4035626e-09
7.4198971e-09
7.4247381e-09
7.4234068e-09
7.3888327e-09
7.3634768e-09
0.0011982755
0.0025871103
0.0029060337
0.0023441449
0.00077252596
9.573423e-07
3.1813472e-09
3.0366809e-09
2.8709706e-09
2.8847522e-09
2.8133837e-09
2.8567505e-09
2.8420221e-09
2.9033703e-09
2.9332652e-09
3.0136773e-09
3.0880969e-09
3.2010708e-09
3.329164e-09
3.4984287e-09
3.7015595e-09
3.9555272e-09
4.2573829e-09
4.6072496e-09
4.9857467e-09
5.3687443e-09
5.7278837e-09
6.0435154e-09
6.3055831e-09
6.5147353e-09
6.6778959e-09
6.8044363e-09
6.9055778e-09
6.9900673e-09
7.0583099e-09
7.1127066e-09
7.156653e-09
7.1951402e-09
7.2271649e-09
7.2560341e-09
7.2796753e-09
7.3023935e-09
7.3322318e-09
7.377266e-09
7.4059232e-09
7.4198496e-09
7.4233974e-09
7.4173036e-09
7.383887e-09
7.361521e-09
0.0011932507
0.0025528379
0.0028247412
0.0021919566
0.00062832221
2.6659404e-07
3.1663094e-09
3.0629887e-09
2.9001513e-09
2.9149576e-09
2.8462745e-09
2.8913727e-09
2.8794063e-09
2.9432485e-09
2.9768247e-09
3.0610456e-09
3.140798e-09
3.2601277e-09
3.3965127e-09
3.5757207e-09
3.7912251e-09
4.0594252e-09
4.3763859e-09
4.7391373e-09
5.1252698e-09
5.5084679e-09
5.8605052e-09
6.1634716e-09
6.4098738e-09
6.6026118e-09
6.7501729e-09
6.8628214e-09
6.9523207e-09
7.0272765e-09
7.0873819e-09
7.1347818e-09
7.173161e-09
7.2075246e-09
7.236516e-09
7.2631496e-09
7.2849363e-09
7.3069855e-09
7.3391839e-09
7.3821497e-09
7.4077602e-09
7.4198202e-09
7.4223984e-09
7.4103932e-09
7.379874e-09
7.3598938e-09
0.0011886196
0.0025191901
0.0027505438
0.0020318822
0.00050216218
8.5788598e-08
3.1712348e-09
3.0903739e-09
2.9307126e-09
2.9465457e-09
2.8806707e-09
2.9275935e-09
2.9185696e-09
2.9850554e-09
3.0225757e-09
3.1109121e-09
3.1964528e-09
3.3226615e-09
3.4679948e-09
3.6579103e-09
3.8866901e-09
4.1699174e-09
4.5022581e-09
4.8772635e-09
5.2695111e-09
5.6508897e-09
5.9938415e-09
6.2825991e-09
6.5123985e-09
6.6883349e-09
6.8202815e-09
6.9192649e-09
6.9974821e-09
7.0633086e-09
7.11556e-09
7.1561223e-09
7.1891253e-09
7.2195443e-09
7.2456337e-09
7.270071e-09
7.2900412e-09
7.311855e-09
7.34693e-09
7.3863265e-09
7.409046e-09
7.4194537e-09
7.4214397e-09
7.4035737e-09
7.376388e-09
7.3584621e-09
0.0011839746
0.002484183
0.0026717163
0.0018632963
0.00039149511
3.3589068e-08
3.186956e-09
3.1189697e-09
2.9625482e-09
2.9796793e-09
2.9166543e-09
2.9654805e-09
2.9595639e-09
3.0288794e-09
3.0706477e-09
3.1634677e-09
3.2552873e-09
3.3889313e-09
3.5439101e-09
3.745363e-09
3.9883572e-09
4.2873496e-09
4.6351354e-09
5.0214737e-09
5.4180417e-09
5.7954178e-09
6.1272675e-09
6.4003475e-09
6.6127472e-09
6.7716261e-09
6.8880128e-09
6.9736021e-09
7.0409404e-09
7.0981164e-09
7.1427839e-09
7.1766488e-09
7.2044987e-09
7.231165e-09
7.2544901e-09
7.2767776e-09
7.2950163e-09
7.3170576e-09
7.355005e-09
7.3902484e-09
7.4098448e-09
7.4183334e-09
7.4198394e-09
7.397234e-09
7.3731984e-09
7.3571214e-09
0.0011795395
0.0024486802
0.0025927584
0.0016883778
0.0002915323
1.5940296e-08
3.2089491e-09
3.1488077e-09
2.9957455e-09
3.0142461e-09
2.9542625e-09
3.0050773e-09
3.002476e-09
3.0748404e-09
3.1212206e-09
3.2189269e-09
3.31755e-09
3.4592241e-09
3.6246084e-09
3.8385093e-09
4.0966921e-09
4.4120951e-09
4.7751401e-09
5.1715677e-09
5.5703815e-09
5.9414263e-09
6.2601439e-09
6.5161845e-09
6.7105547e-09
6.852248e-09
6.9531911e-09
7.0257019e-09
7.0826299e-09
7.1316859e-09
7.1689762e-09
7.1962801e-09
7.2192286e-09
7.2423585e-09
7.2630564e-09
7.2832513e-09
7.299946e-09
7.3227641e-09
7.3629637e-09
7.393958e-09
7.4103367e-09
7.4165934e-09
7.4171852e-09
7.3913844e-09
7.3702277e-09
7.3558447e-09
0.0011753586
0.0024121991
0.0025118707
0.0015102123
0.00020197528
9.268924e-09
3.2348216e-09
3.1799186e-09
3.0303718e-09
3.0502818e-09
2.993472e-09
3.0464682e-09
3.0474237e-09
3.1231254e-09
3.1745026e-09
3.2775243e-09
3.3834969e-09
3.5338384e-09
3.7104628e-09
3.9377956e-09
4.2121421e-09
4.5444468e-09
4.9222615e-09
5.3271887e-09
5.7259152e-09
6.0881905e-09
6.3917913e-09
6.6296095e-09
6.8055126e-09
6.9299904e-09
7.0156815e-09
7.0754978e-09
7.122593e-09
7.1640147e-09
7.1940237e-09
7.2149585e-09
7.2332534e-09
7.2531079e-09
7.2713022e-09
7.2894707e-09
7.3049495e-09
7.3292126e-09
7.3702592e-09
7.3971397e-09
7.4104954e-09
7.4146929e-09
7.4127405e-09
7.3860413e-09
7.3674553e-09
7.3546056e-09
0.0011713686
0.0023745123
0.002429209
0.001336579
0.00012390964
6.4446841e-09
3.2635986e-09
3.2124834e-09
3.0665525e-09
3.0880375e-09
3.034378e-09
3.0897652e-09
3.0945888e-09
3.1739515e-09
3.2307198e-09
3.3394915e-09
3.4534004e-09
3.6131218e-09
3.8019147e-09
4.0437413e-09
4.3352001e-09
4.6846971e-09
5.0764503e-09
5.4879287e-09
5.8839872e-09
6.2349752e-09
6.5215844e-09
6.7402397e-09
6.8973894e-09
7.0046328e-09
7.075364e-09
7.122985e-09
7.160981e-09
7.1950469e-09
7.2177646e-09
7.2326663e-09
7.2465017e-09
7.2634009e-09
7.2791944e-09
7.295409e-09
7.310138e-09
7.3366315e-09
7.3763018e-09
7.3995196e-09
7.4105077e-09
7.4138327e-09
7.4062117e-09
7.381239e-09
7.364908e-09
7.3534327e-09
0.0011672954
0.0023332209
0.0023431905
0.0011726688
6.3104555e-05
5.1363993e-09
3.2944528e-09
3.246473e-09
3.1043014e-09
3.1275229e-09
3.0772105e-09
3.1351597e-09
3.1441872e-09
3.2275311e-09
3.2900906e-09
3.4050397e-09
3.527561e-09
3.6974602e-09
3.8994427e-09
4.1568735e-09
4.4663003e-09
4.8330062e-09
5.2374762e-09
5.6531994e-09
6.0438027e-09
6.3809927e-09
6.6489865e-09
6.8478388e-09
6.9859928e-09
7.0759144e-09
7.1321142e-09
7.1682127e-09
7.197973e-09
7.224598e-09
7.2400708e-09
7.249447e-09
7.2589425e-09
7.2732247e-09
7.2867121e-09
7.3010597e-09
7.3155622e-09
7.3448497e-09
7.381073e-09
7.4012873e-09
7.4104875e-09
7.4131167e-09
7.398985e-09
7.3768951e-09
7.3625496e-09
7.3523741e-09
0.0011629384
0.0022875205
0.0022526206
0.0010184128
2.5756948e-05
4.4979727e-09
3.3270911e-09
3.2819609e-09
3.1436773e-09
3.168779e-09
3.122199e-09
3.182986e-09
3.1964212e-09
3.2840516e-09
3.3528142e-09
3.4744314e-09
3.6063287e-09
3.7873119e-09
4.0036022e-09
4.2777803e-09
4.6058954e-09
4.989505e-09
5.4050461e-09
5.8223555e-09
6.2045488e-09
6.525543e-09
6.7736784e-09
6.9523118e-09
7.0710849e-09
7.1435672e-09
7.1857867e-09
7.2112325e-09
7.2335236e-09
7.2522625e-09
7.2610549e-09
7.2653554e-09
7.2706563e-09
7.2825498e-09
7.2938449e-09
7.3064361e-09
7.3212085e-09
7.3531366e-09
7.3852948e-09
7.4027075e-09
7.4104794e-09
7.412266e-09
7.3921491e-09
7.3728533e-09
7.3603614e-09
7.3514056e-09
0.0011581204
0.0022372891
0.0021560669
0.0008744019
8.6825732e-06
4.1819377e-09
3.3615647e-09
3.3190906e-09
3.1849293e-09
3.2120665e-09
3.1693402e-09
3.2333742e-09
3.2514645e-09
3.3436791e-09
3.4191179e-09
3.5480331e-09
3.690122e-09
3.8831891e-09
4.1149855e-09
4.4070185e-09
4.7543321e-09
5.1541248e-09
5.5786527e-09
5.9945565e-09
6.3653251e-09
6.6680208e-09
6.8955114e-09
7.0534475e-09
7.1521815e-09
7.2074881e-09
7.2362937e-09
7.2520655e-09
7.2671091e-09
7.2781143e-09
7.2807833e-09
7.2803489e-09
7.2818844e-09
7.2913342e-09
7.3005932e-09
7.3115999e-09
7.3270796e-09
7.3611985e-09
7.3892597e-09
7.4038933e-09
7.4098848e-09
7.4108176e-09
7.3864355e-09
7.3694089e-09
7.3583531e-09
7.3505251e-09
0.0011526941
0.0021818414
0.0020474208
0.00074138594
2.6134003e-06
4.0305057e-09
3.397895e-09
3.35805e-09
3.2280669e-09
3.2574766e-09
3.2188953e-09
3.2863481e-09
3.3094801e-09
3.4066129e-09
3.4892719e-09
3.6262375e-09
3.7794285e-09
3.9856869e-09
4.2342415e-09
4.5451958e-09
4.9119284e-09
5.3267493e-09
5.7577051e-09
6.1689376e-09
6.525336e-09
6.8080833e-09
7.0143657e-09
7.1504587e-09
7.2289446e-09
7.2675736e-09
7.2838047e-09
7.2906938e-09
7.2983154e-09
7.302537e-09
7.2993018e-09
7.2941354e-09
7.2928949e-09
7.2995521e-09
7.3069645e-09
7.3166893e-09
7.3333195e-09
7.3687108e-09
7.3929594e-09
7.4050921e-09
7.4095631e-09
7.4081735e-09
7.3821753e-09
7.3664817e-09
7.3564964e-09
7.3496638e-09
0.0011468512
0.0021222058
0.0019262737
0.00062071688
7.6604471e-07
3.9659412e-09
3.4361408e-09
3.3988793e-09
3.2732682e-09
3.3052307e-09
3.2710643e-09
3.3420052e-09
3.3706324e-09
3.4731042e-09
3.563637e-09
3.7094717e-09
3.8748074e-09
4.0954393e-09
4.3620327e-09
4.692827e-09
5.078834e-09
5.5070018e-09
5.9413789e-09
6.3445044e-09
6.6838612e-09
6.9455513e-09
7.1295478e-09
7.2426944e-09
7.3009438e-09
7.3238956e-09
7.3285895e-09
7.3270725e-09
7.3272645e-09
7.3259208e-09
7.3163856e-09
7.3068144e-09
7.3035352e-09
7.3072559e-09
7.3129687e-09
7.3218872e-09
7.3402655e-09
7.3752706e-09
7.3961269e-09
7.4059693e-09
7.4094584e-09
7.4039066e-09
7.37892e-09
7.3640464e-09
7.3547449e-09
7.3487309e-09
0.0011408247
0.002059654
0.0017942436
0.00051208646
2.3756358e-07
3.9480904e-09
3.4763745e-09
3.4418041e-09
3.3206545e-09
3.3554576e-09
3.3259433e-09
3.4006573e-09
3.4351223e-09
3.5434807e-09
3.6426515e-09
3.7982593e-09
3.9768776e-09
4.2131504e-09
4.4990709e-09
4.8504355e-09
5.2551384e-09
5.6944316e-09
6.1288025e-09
6.5203532e-09
6.8404499e-09
7.0802316e-09
7.2399559e-09
7.329496e-09
7.3679429e-09
7.3767961e-09
7.3709035e-09
7.3610912e-09
7.3547048e-09
7.3477029e-09
7.3320952e-09
7.3185524e-09
7.3135581e-09
7.3146061e-09
7.3186166e-09
7.3273377e-09
7.3481476e-09
7.3805297e-09
7.3986022e-09
7.4066476e-09
7.4093594e-09
7.3989611e-09
7.3759036e-09
7.3621157e-09
7.3533215e-09
7.3476349e-09
0.0011347186
0.0019949505
0.0016537422
0.00041332547
8.4948349e-08
3.9559304e-09
3.5186981e-09
3.4867727e-09
3.3705593e-09
3.4083317e-09
3.383694e-09
3.4624881e-09
3.5032476e-09
3.6181236e-09
3.7268389e-09
3.8931955e-09
4.086305e-09
4.3395528e-09
4.6460242e-09
5.0183828e-09
5.4406612e-09
5.8882878e-09
6.3189067e-09
6.6955912e-09
6.9947966e-09
7.2110452e-09
7.3446889e-09
7.4102763e-09
7.4304781e-09
7.4270155e-09
7.4104566e-09
7.3928679e-09
7.3804648e-09
7.3680468e-09
7.3465578e-09
7.3294547e-09
7.3226123e-09
7.3217805e-09
7.3239335e-09
7.333014e-09
7.3561465e-09
7.3849789e-09
7.4003703e-09
7.4069318e-09
7.4090546e-09
7.3942362e-09
7.3730208e-09
7.360417e-09
7.3521804e-09
7.3466362e-09
0.0011284181
0.0019273626
0.0015143923
0.00032604617
3.6788186e-08
3.9782921e-09
3.5632146e-09
3.5341843e-09
3.4228235e-09
3.4639275e-09
3.4444667e-09
3.5277688e-09
3.5755076e-09
3.6975272e-09
3.8167723e-09
3.9949207e-09
4.2038219e-09
4.4754418e-09
4.8035909e-09
5.1969934e-09
5.6351271e-09
6.0877427e-09
6.5106857e-09
6.8695871e-09
7.1466454e-09
7.3365971e-09
7.442826e-09
7.4850259e-09
7.4900386e-09
7.4737447e-09
7.4473125e-09
7.4225588e-09
7.4046933e-09
7.3869064e-09
7.3599105e-09
7.3396039e-09
7.3306945e-09
7.3286416e-09
7.328984e-09
7.3387202e-09
7.3639517e-09
7.3887982e-09
7.4016725e-09
7.4070333e-09
7.4086546e-09
7.389156e-09
7.3703128e-09
7.35892e-09
7.3512382e-09
7.3458196e-09
0.0011218905
0.0018532111
0.0013759694
0.0002458442
1.8781986e-08
4.0090018e-09
3.6098445e-09
3.5839179e-09
3.4776674e-09
3.5224463e-09
3.5086117e-09
3.5969236e-09
3.6524129e-09
3.7823043e-09
3.9130711e-09
4.1041333e-09
4.3302114e-09
4.6216174e-09
4.9723517e-09
5.3863318e-09
5.8379275e-09
6.2916826e-09
6.7030652e-09
7.0418364e-09
7.2947856e-09
7.4556602e-09
7.5338095e-09
7.5553051e-09
7.5459117e-09
7.5172331e-09
7.4815349e-09
7.450257e-09
7.4273957e-09
7.4043572e-09
7.3722012e-09
7.348896e-09
7.3380577e-09
7.3349689e-09
7.3338938e-09
7.3442558e-09
7.3712097e-09
7.3922059e-09
7.4027998e-09
7.4070125e-09
7.4077221e-09
7.3845868e-09
7.3678666e-09
7.3576523e-09
7.3505222e-09
7.3452337e-09
0.0011164459
0.0017804369
0.0012373683
0.00017276024
1.1413163e-08
4.0450207e-09
3.6586439e-09
3.6361278e-09
3.5353944e-09
3.5842837e-09
3.5766219e-09
3.6705172e-09
3.7344534e-09
3.8730305e-09
4.016398e-09
4.2215915e-09
4.4663337e-09
4.7789356e-09
5.1528797e-09
5.5863699e-09
6.0483671e-09
6.4990246e-09
6.8951968e-09
7.2120202e-09
7.4375325e-09
7.5671859e-09
7.617987e-09
7.6220429e-09
7.5978043e-09
7.557467e-09
7.5132452e-09
7.4760715e-09
7.4486391e-09
7.4204328e-09
7.3834583e-09
7.3573973e-09
7.3448211e-09
7.3406591e-09
7.3387825e-09
7.3501277e-09
7.3775909e-09
7.3951731e-09
7.4038088e-09
7.4069628e-09
7.4054604e-09
7.3806819e-09
7.3657477e-09
7.356581e-09
7.3500188e-09
7.3449205e-09
0.0011121357
0.0017103794
0.0011010759
0.00010855291
8.0699558e-09
4.0846397e-09
3.7098957e-09
3.691212e-09
3.596478e-09
3.6499555e-09
3.6490472e-09
3.7490716e-09
3.8221882e-09
3.9703476e-09
4.1274806e-09
4.3481415e-09
4.6130747e-09
4.9482063e-09
5.3455023e-09
5.7967351e-09
6.2653636e-09
6.708545e-09
7.0862688e-09
7.3790936e-09
7.5731645e-09
7.6704365e-09
7.6971404e-09
7.6844527e-09
7.6458404e-09
7.5946037e-09
7.5425628e-09
7.5001073e-09
7.4684778e-09
7.4351894e-09
7.3936863e-09
7.3650946e-09
7.350987e-09
7.3459751e-09
7.3436892e-09
7.3569353e-09
7.3828504e-09
7.3976365e-09
7.4045337e-09
7.4069253e-09
7.4011121e-09
7.3777226e-09
7.3640088e-09
7.3556984e-09
7.349631e-09
7.3447935e-09
0.0011085057
0.0016365131
0.00096877669
5.8166023e-05
6.4370712e-09
4.1271661e-09
3.7640282e-09
3.7497005e-09
3.6614386e-09
3.7199812e-09
3.7263518e-09
3.8330678e-09
3.9162358e-09
4.0749074e-09
4.2471171e-09
4.4846993e-09
4.7714218e-09
5.1302179e-09
5.5504967e-09
6.0169067e-09
6.4878452e-09
6.919204e-09
7.2758053e-09
7.5410682e-09
7.7004978e-09
7.7657802e-09
7.7721567e-09
7.7422312e-09
7.6901075e-09
7.6287634e-09
7.5696211e-09
7.5224729e-09
7.4869849e-09
7.4486751e-09
7.4028619e-09
7.3719903e-09
7.3566014e-09
7.3510628e-09
7.3486919e-09
7.3641134e-09
7.3871e-09
7.3996498e-09
7.405153e-09
7.4068812e-09
7.3958579e-09
7.3748784e-09
7.3624874e-09
7.3549366e-09
7.349333e-09
7.3447489e-09
0.001105804
0.0015591697
0.00084286989
2.5992324e-05
5.6026721e-09
4.1727705e-09
3.8216373e-09
3.8121624e-09
3.7307727e-09
3.7947825e-09
3.8089583e-09
3.9229506e-09
4.0172724e-09
4.1874793e-09
4.3762e-09
4.6322791e-09
4.9423508e-09
5.3255973e-09
5.7677447e-09
6.2459462e-09
6.7144475e-09
7.1299351e-09
7.4630841e-09
7.6955795e-09
7.8184818e-09
7.8550976e-09
7.8422313e-09
7.7955265e-09
7.7307618e-09
7.6601003e-09
7.5945566e-09
7.5432801e-09
7.504241e-09
7.4609423e-09
7.4109497e-09
7.3781115e-09
7.3617556e-09
7.3559999e-09
7.353753e-09
7.3710029e-09
7.3907873e-09
7.4012569e-09
7.4056154e-09
7.4067359e-09
7.3909892e-09
7.3721753e-09
7.3611582e-09
7.3543311e-09
7.349165e-09
7.3447544e-09
0.0011042545
0.0014784208
0.00072505123
9.9401685e-06
5.1709583e-09
4.2224149e-09
3.8830351e-09
3.8791323e-09
3.8048367e-09
3.8746808e-09
3.8973427e-09
4.0193866e-09
4.1260324e-09
4.3089497e-09
4.5157008e-09
4.7919934e-09
5.1268892e-09
5.5349181e-09
5.9969883e-09
6.4828186e-09
6.9439608e-09
7.3399431e-09
7.6459841e-09
7.8412409e-09
7.9270712e-09
7.9397627e-09
7.9068877e-09
7.8444589e-09
7.767967e-09
7.6887686e-09
7.6175095e-09
7.5626417e-09
7.5203197e-09
7.4720077e-09
7.4179392e-09
7.3835262e-09
7.3665473e-09
7.3608104e-09
7.3588294e-09
7.3775353e-09
7.3939868e-09
7.4025303e-09
7.4058352e-09
7.4062062e-09
7.3859625e-09
7.3697428e-09
7.3600337e-09
7.3538416e-09
7.3490286e-09
7.3447926e-09
0.0011040738
0.0013986987
0.00061636377
3.4430936e-06
4.9547864e-09
4.2782494e-09
3.9487102e-09
3.9504586e-09
3.8838573e-09
3.9601245e-09
3.9921269e-09
4.1231282e-09
4.2434352e-09
4.4402822e-09
4.6667037e-09
4.9649991e-09
5.325965e-09
5.7584124e-09
6.2374908e-09
6.7260875e-09
7.1750122e-09
7.5483398e-09
7.8218515e-09
7.9766783e-09
8.0281944e-09
8.0188524e-09
7.9663412e-09
7.8892135e-09
7.8019023e-09
7.7149317e-09
7.6386236e-09
7.5806665e-09
7.5352654e-09
7.4818105e-09
7.423913e-09
7.3883403e-09
7.3710824e-09
7.3655372e-09
7.3639126e-09
7.3836021e-09
7.3967194e-09
7.4034989e-09
7.4059735e-09
7.4044965e-09
7.3818036e-09
7.3676848e-09
7.3591858e-09
7.3535186e-09
7.3489529e-09
7.3448477e-09
0.0011043008
0.0013107347
0.00051705867
1.1575177e-06
4.8581227e-09
4.3378926e-09
4.018334e-09
4.0265387e-09
3.9683787e-09
4.0517978e-09
4.0941314e-09
4.2350749e-09
4.3704038e-09
4.5825471e-09
4.8304053e-09
5.1525361e-09
5.5404601e-09
5.9961477e-09
6.4883783e-09
6.974409e-09