/*--------------------------------*- C++ -*----------------------------------*\
  =========                 |
  \\      /  F ield         | OpenFOAM: The Open Source CFD Toolbox
   \\    /   O peration     | Website:  https://openfoam.org
    \\  /    A nd           | Version:  8
     \\/     M anipulation  |
\*---------------------------------------------------------------------------*/
FoamFile
{
    version     2.0;
    format      ascii;
    class       volScalarField;
    location    "0.259994";
    object      nuTilda;
}
// * * * * * * * * * * * * * * * * * * * * * * * * * * * * * * * * * * * * * //

dimensions      [0 2 -1 0 0 0 0];

internalField   nonuniform List<scalar> 
20000
(
0.0013170985
0.0032600534
0.0043653974
0.0047645068
0.0043025398
0.0026241653
0.00044644892
1.617329e-05
1.0218381e-05
1.0181984e-05
1.0085682e-05
1.0085139e-05
1.0029912e-05
1.0035761e-05
1.001334e-05
1.0017476e-05
1.0009145e-05
1.0009094e-05
1.0005395e-05
1.0004418e-05
1.0002881e-05
1.0002216e-05
1.0001681e-05
1.0001532e-05
1.0001511e-05
1.0001386e-05
1.0001279e-05
1.0001234e-05
1.0001222e-05
1.0001204e-05
1.0001149e-05
1.0001007e-05
1.0000957e-05
1.0001006e-05
1.0000991e-05
1.0000808e-05
1.0000743e-05
1.0000755e-05
1.0000806e-05
1.0000789e-05
1.0000747e-05
1.0000676e-05
1.0000685e-05
1.0000866e-05
1.0001175e-05
1.0001578e-05
1.0001993e-05
1.0002519e-05
1.0003272e-05
1.0002305e-05
0.0013199745
0.0032386993
0.0042979988
0.0046509084
0.0041405533
0.0023763105
0.0003548362
1.3959629e-05
1.0213944e-05
1.0180255e-05
1.0082572e-05
1.0081783e-05
1.0029658e-05
1.0035616e-05
1.0013068e-05
1.0017336e-05
1.0008971e-05
1.0008961e-05
1.0005307e-05
1.0004352e-05
1.0002827e-05
1.0002169e-05
1.0001624e-05
1.0001474e-05
1.0001445e-05
1.0001322e-05
1.0001212e-05
1.0001174e-05
1.0001164e-05
1.0001156e-05
1.0001115e-05
1.0000981e-05
1.0000934e-05
1.0000988e-05
1.000098e-05
1.0000799e-05
1.0000732e-05
1.000074e-05
1.0000784e-05
1.0000766e-05
1.0000715e-05
1.0000662e-05
1.0000672e-05
1.0000862e-05
1.0001179e-05
1.0001602e-05
1.0001992e-05
1.0002494e-05
1.0003222e-05
1.0002242e-05
0.001311855
0.0032002095
0.0042235144
0.0045380295
0.0039878573
0.0021410211
0.0002789579
1.2568581e-05
1.0212039e-05
1.0177552e-05
1.0080917e-05
1.0077952e-05
1.0029343e-05
1.0035399e-05
1.0012802e-05
1.001715e-05
1.0008805e-05
1.0008838e-05
1.0005234e-05
1.0004312e-05
1.000281e-05
1.0002177e-05
1.0001638e-05
1.0001468e-05
1.0001445e-05
1.0001321e-05
1.0001212e-05
1.0001167e-05
1.0001157e-05
1.0001158e-05
1.0001117e-05
1.0000981e-05
1.0000929e-05
1.0000987e-05
1.0000979e-05
1.0000802e-05
1.000073e-05
1.0000737e-05
1.0000786e-05
1.0000761e-05
1.0000689e-05
1.0000654e-05
1.0000671e-05
1.0000865e-05
1.0001187e-05
1.0001615e-05
1.0001983e-05
1.0002471e-05
1.0003186e-05
1.0002203e-05
0.0013042552
0.0031635782
0.004149954
0.0044246561
0.0038355053
0.0019143114
0.00021637157
1.1691819e-05
1.0208902e-05
1.0176084e-05
1.0080347e-05
1.00777e-05
1.0029079e-05
1.0035135e-05
1.0012552e-05
1.0016949e-05
1.0008643e-05
1.0008698e-05
1.0005152e-05
1.0004252e-05
1.0002775e-05
1.0002156e-05
1.0001625e-05
1.0001462e-05
1.0001443e-05
1.0001321e-05
1.0001207e-05
1.0001157e-05
1.0001146e-05
1.0001144e-05
1.0001114e-05
1.0000978e-05
1.0000918e-05
1.0000973e-05
1.0000974e-05
1.0000798e-05
1.0000725e-05
1.000073e-05
1.0000778e-05
1.0000753e-05
1.0000667e-05
1.0000644e-05
1.0000674e-05
1.0000871e-05
1.0001197e-05
1.0001632e-05
1.0001965e-05
1.0002448e-05
1.000313e-05
1.0002142e-05
0.0012967187
0.0031276094
0.0040770137
0.004310311
0.0036833524
0.0016979231
0.00016568054
1.1150769e-05
1.0205531e-05
1.0174098e-05
1.0079301e-05
1.0077021e-05
1.0028742e-05
1.0034842e-05
1.0012317e-05
1.0016738e-05
1.0008486e-05
1.0008558e-05
1.0005074e-05
1.0004197e-05
1.0002746e-05
1.0002144e-05
1.0001621e-05
1.000146e-05
1.0001442e-05
1.0001321e-05
1.0001208e-05
1.0001154e-05
1.0001141e-05
1.0001143e-05
1.0001115e-05
1.0000978e-05
1.0000912e-05
1.0000968e-05
1.000097e-05
1.0000797e-05
1.0000722e-05
1.0000726e-05
1.0000775e-05
1.0000747e-05
1.0000651e-05
1.0000633e-05
1.0000678e-05
1.0000877e-05
1.0001204e-05
1.0001646e-05
1.000194e-05
1.0002426e-05
1.0003072e-05
1.000208e-05
0.0012894886
0.0030926805
0.0040053146
0.0041949269
0.0035301754
0.0014924103
0.00012536366
1.0823712e-05
1.0202116e-05
1.0172049e-05
1.0078216e-05
1.0076282e-05
1.0028403e-05
1.0034513e-05
1.0012098e-05
1.0016512e-05
1.0008333e-05
1.0008413e-05
1.0004995e-05
1.0004138e-05
1.0002716e-05
1.0002129e-05
1.0001615e-05
1.0001458e-05
1.0001442e-05
1.0001323e-05
1.0001207e-05
1.0001148e-05
1.0001134e-05
1.0001135e-05
1.0001115e-05
1.0000978e-05
1.0000905e-05
1.0000958e-05
1.0000965e-05
1.0000796e-05
1.0000719e-05
1.000072e-05
1.0000769e-05
1.0000741e-05
1.0000639e-05
1.0000622e-05
1.0000684e-05
1.0000886e-05
1.0001215e-05
1.0001663e-05
1.0001913e-05
1.0002408e-05
1.0003025e-05
1.0002027e-05
0.0012826258
0.0030589357
0.0039354989
0.0040816964
0.0033732147
0.0012984715
9.3886031e-05
1.0628735e-05
1.019875e-05
1.0169843e-05
1.0077091e-05
1.0075459e-05
1.0028048e-05
1.0034151e-05
1.0011896e-05
1.0016276e-05
1.0008186e-05
1.0008265e-05
1.0004916e-05
1.0004078e-05
1.0002685e-05
1.0002114e-05
1.000161e-05
1.0001456e-05
1.0001442e-05
1.0001324e-05
1.0001207e-05
1.0001144e-05
1.0001128e-05
1.0001131e-05
1.0001115e-05
1.0000979e-05
1.0000899e-05
1.0000949e-05
1.0000961e-05
1.0000794e-05
1.0000716e-05
1.0000715e-05
1.0000765e-05
1.0000735e-05
1.000063e-05
1.0000616e-05
1.0000692e-05
1.00009e-05
1.0001228e-05
1.000168e-05
1.0001892e-05
1.0002392e-05
1.0002942e-05
1.000198e-05
0.0012761056
0.0030257358
0.0038672359
0.0039710197
0.0032108291
0.0011176765
6.985535e-05
1.0513345e-05
1.019537e-05
1.0167518e-05
1.0075929e-05
1.007456e-05
1.0027682e-05
1.0033756e-05
1.0011711e-05
1.0016028e-05
1.0008044e-05
1.0008114e-05
1.0004839e-05
1.0004016e-05
1.0002655e-05
1.0002098e-05
1.0001606e-05
1.0001454e-05
1.0001441e-05
1.0001324e-05
1.0001207e-05
1.0001141e-05
1.0001123e-05
1.0001127e-05
1.0001116e-05
1.000098e-05
1.0000893e-05
1.0000938e-05
1.0000955e-05
1.0000792e-05
1.0000713e-05
1.0000711e-05
1.000076e-05
1.0000728e-05
1.0000622e-05
1.0000611e-05
1.0000699e-05
1.0000916e-05
1.0001243e-05
1.0001697e-05
1.0001875e-05
1.0002377e-05
1.000286e-05
1.0001942e-05
0.0012695768
0.0029925719
0.0037993803
0.0038558947
0.0030410218
0.00095123205
5.1902435e-05
1.0444659e-05
1.0191991e-05
1.0165043e-05
1.0074732e-05
1.0073587e-05
1.0027307e-05
1.0033328e-05
1.0011542e-05
1.001577e-05
1.0007907e-05
1.000796e-05
1.0004762e-05
1.0003953e-05
1.0002624e-05
1.0002082e-05
1.0001602e-05
1.0001452e-05
1.0001439e-05
1.0001325e-05
1.0001208e-05
1.0001137e-05
1.0001118e-05
1.0001123e-05
1.0001116e-05
1.0000981e-05
1.0000888e-05
1.0000929e-05
1.000095e-05
1.000079e-05
1.000071e-05
1.0000706e-05
1.0000757e-05
1.0000722e-05
1.0000614e-05
1.0000607e-05
1.0000707e-05
1.0000931e-05
1.0001259e-05
1.0001712e-05
1.0001866e-05
1.0002361e-05
1.0002767e-05
1.0001913e-05
0.0012629621
0.0029592621
0.0037289065
0.0037406956
0.0028637079
0.00080158921
3.8794847e-05
1.0402886e-05
1.018861e-05
1.0162431e-05
1.0073503e-05
1.0072538e-05
1.0026924e-05
1.003287e-05
1.0011389e-05
1.0015502e-05
1.0007776e-05
1.0007803e-05
1.0004686e-05
1.0003889e-05
1.0002594e-05
1.0002066e-05
1.0001598e-05
1.0001451e-05
1.0001438e-05
1.0001326e-05
1.0001209e-05
1.0001135e-05
1.0001115e-05
1.000112e-05
1.0001115e-05
1.0000982e-05
1.0000883e-05
1.000092e-05
1.0000943e-05
1.0000787e-05
1.0000707e-05
1.0000702e-05
1.0000753e-05
1.0000718e-05
1.0000607e-05
1.0000604e-05
1.0000719e-05
1.0000945e-05
1.0001274e-05
1.0001724e-05
1.0001867e-05
1.0002345e-05
1.0002668e-05
1.000188e-05
0.0012568268
0.0029266784
0.0036592541
0.0036251492
0.0026785092
0.00067476862
2.9418939e-05
1.0376445e-05
1.0185229e-05
1.0159697e-05
1.0072251e-05
1.0071418e-05
1.0026534e-05
1.0032382e-05
1.0011251e-05
1.0015226e-05
1.0007649e-05
1.0007644e-05
1.0004612e-05
1.0003824e-05
1.0002564e-05
1.0002049e-05
1.0001595e-05
1.000145e-05
1.0001437e-05
1.0001327e-05
1.000121e-05
1.0001133e-05
1.0001111e-05
1.0001118e-05
1.0001114e-05
1.0000982e-05
1.0000878e-05
1.0000911e-05
1.0000937e-05
1.0000783e-05
1.0000704e-05
1.0000699e-05
1.0000751e-05
1.0000716e-05
1.0000601e-05
1.0000602e-05
1.0000738e-05
1.0000954e-05
1.0001286e-05
1.0001735e-05
1.0001878e-05
1.000233e-05
1.0002577e-05
1.0001845e-05
0.0012508533
0.0028940634
0.0035894337
0.0035096532
0.0024864217
0.00055670833
2.2729456e-05
1.0358729e-05
1.018185e-05
1.0156855e-05
1.0070976e-05
1.0070244e-05
1.002614e-05
1.0031868e-05
1.0011128e-05
1.0014942e-05
1.0007527e-05
1.0007482e-05
1.0004538e-05
1.0003758e-05
1.0002535e-05
1.0002033e-05
1.0001592e-05
1.0001449e-05
1.0001435e-05
1.0001327e-05
1.0001211e-05
1.0001131e-05
1.0001108e-05
1.0001115e-05
1.0001112e-05
1.0000982e-05
1.0000873e-05
1.0000901e-05
1.000093e-05
1.0000778e-05
1.0000701e-05
1.0000696e-05
1.0000748e-05
1.0000715e-05
1.0000597e-05
1.0000599e-05
1.000077e-05
1.0000959e-05
1.0001297e-05
1.0001744e-05
1.0001895e-05
1.0002315e-05
1.0002504e-05
1.0001807e-05
0.001244974
0.0028612339
0.0035187238
0.0033916574
0.0022882819
0.0004512773
1.8150634e-05
1.0345998e-05
1.0178468e-05
1.0153907e-05
1.0069683e-05
1.0069016e-05
1.0025742e-05
1.0031328e-05
1.0011019e-05
1.001465e-05
1.000741e-05
1.000732e-05
1.0004466e-05
1.0003692e-05
1.0002505e-05
1.0002016e-05
1.0001589e-05
1.0001448e-05
1.0001434e-05
1.0001328e-05
1.0001213e-05
1.000113e-05
1.0001106e-05
1.0001112e-05
1.000111e-05
1.0000983e-05
1.0000869e-05
1.0000892e-05
1.0000923e-05
1.0000772e-05
1.0000698e-05
1.0000693e-05
1.0000746e-05
1.0000716e-05
1.0000594e-05
1.0000596e-05
1.000082e-05
1.0000961e-05
1.0001304e-05
1.0001752e-05
1.0001915e-05
1.0002301e-05
1.0002434e-05
1.0001764e-05
0.0012391878
0.002827758
0.0034464093
0.00326714
0.0020864027
0.0003593692
1.5125838e-05
1.0336096e-05
1.0175089e-05
1.0150881e-05
1.0068376e-05
1.0067745e-05
1.0025343e-05
1.0030765e-05
1.0010924e-05
1.0014352e-05
1.0007296e-05
1.0007155e-05
1.0004394e-05
1.0003626e-05
1.0002476e-05
1.0001999e-05
1.0001586e-05
1.0001448e-05
1.0001432e-05
1.0001328e-05
1.0001214e-05
1.000113e-05
1.0001104e-05
1.0001108e-05
1.0001107e-05
1.0000983e-05
1.0000865e-05
1.0000882e-05
1.0000915e-05
1.0000766e-05
1.0000694e-05
1.000069e-05
1.0000744e-05
1.0000717e-05
1.0000592e-05
1.0000593e-05
1.0000847e-05
1.0000965e-05
1.000131e-05
1.0001757e-05
1.0001931e-05
1.0002289e-05
1.0002363e-05
1.000172e-05
0.0012335155
0.0027936465
0.0033724209
0.0031437669
0.0018834093
0.00028079266
1.3194219e-05
1.0327671e-05
1.0171711e-05
1.0147772e-05
1.0067058e-05
1.0066432e-05
1.0024944e-05
1.0030181e-05
1.0010841e-05
1.0014048e-05
1.0007186e-05
1.0006985e-05
1.0004324e-05
1.0003559e-05
1.0002448e-05
1.0001982e-05
1.0001584e-05
1.0001447e-05
1.0001431e-05
1.0001328e-05
1.0001216e-05
1.000113e-05
1.0001102e-05
1.0001104e-05
1.0001104e-05
1.0000983e-05
1.0000861e-05
1.0000873e-05
1.0000907e-05
1.0000758e-05
1.0000688e-05
1.0000687e-05
1.0000743e-05
1.0000718e-05
1.000059e-05
1.0000588e-05
1.0000805e-05
1.0000974e-05
1.0001315e-05
1.0001751e-05
1.0001949e-05
1.000228e-05
1.0002308e-05
1.0001681e-05
0.0012280303
0.002759306
0.0032940538
0.0030201943
0.0016811794
0.00021504512
1.2002582e-05
1.0319903e-05
1.0168338e-05
1.0144594e-05
1.0065734e-05
1.006508e-05
1.0024546e-05
1.0029578e-05
1.001077e-05
1.0013738e-05
1.000708e-05
1.000681e-05
1.0004255e-05
1.0003493e-05
1.000242e-05
1.0001965e-05
1.0001582e-05
1.0001447e-05
1.000143e-05
1.0001328e-05
1.0001216e-05
1.000113e-05
1.00011e-05
1.00011e-05
1.00011e-05
1.0000984e-05
1.0000858e-05
1.0000864e-05
1.00009e-05
1.0000749e-05
1.0000679e-05
1.0000683e-05
1.0000741e-05
1.000072e-05
1.0000591e-05
1.0000585e-05
1.0000763e-05
1.0000989e-05
1.0001321e-05
1.0001737e-05
1.000197e-05
1.0002273e-05
1.0002269e-05
1.0001647e-05
0.0012227917
0.0027261299
0.0032196877
0.002894688
0.0014825708
0.0001614865
1.1290122e-05
1.031232e-05
1.0164977e-05
1.014137e-05
1.0064407e-05
1.0063699e-05
1.0024151e-05
1.0028958e-05
1.0010709e-05
1.0013423e-05
1.0006977e-05
1.0006636e-05
1.0004186e-05
1.0003428e-05
1.0002393e-05
1.0001949e-05
1.000158e-05
1.0001447e-05
1.0001429e-05
1.0001328e-05
1.0001217e-05
1.0001129e-05
1.0001097e-05
1.0001095e-05
1.0001096e-05
1.0000984e-05
1.0000855e-05
1.0000854e-05
1.0000892e-05
1.0000739e-05
1.0000667e-05
1.0000677e-05
1.000074e-05
1.0000723e-05
1.0000592e-05
1.0000585e-05
1.0000762e-05
1.0001006e-05
1.000133e-05
1.0001718e-05
1.0001988e-05
1.0002267e-05
1.0002245e-05
1.0001608e-05
0.00121752
0.0026922088
0.0031441251
0.0027649562
0.0012901922
0.00011888582
1.0876862e-05
1.0304692e-05
1.0161629e-05
1.0138106e-05
1.006308e-05
1.006229e-05
1.002376e-05
1.0028323e-05
1.0010657e-05
1.0013105e-05
1.0006878e-05
1.0006464e-05
1.0004119e-05
1.0003363e-05
1.0002367e-05
1.0001933e-05
1.0001578e-05
1.0001447e-05
1.0001427e-05
1.0001328e-05
1.0001217e-05
1.0001128e-05
1.0001094e-05
1.000109e-05
1.0001092e-05
1.0000984e-05
1.0000851e-05
1.0000845e-05
1.0000884e-05
1.0000729e-05
1.0000654e-05
1.0000669e-05
1.0000738e-05
1.0000725e-05
1.0000594e-05
1.0000586e-05
1.0000774e-05
1.0001021e-05
1.0001341e-05
1.0001705e-05
1.0001985e-05
1.0002251e-05
1.0002222e-05
1.0001562e-05
0.0012121963
0.0026576383
0.0030666886
0.0026296521
0.001107198
8.6033496e-05
1.0643576e-05
1.029753e-05
1.0158306e-05
1.0134834e-05
1.0061757e-05
1.0060861e-05
1.0023374e-05
1.0027677e-05
1.0010614e-05
1.0012784e-05
1.000678e-05
1.0006293e-05
1.0004053e-05
1.0003298e-05
1.0002341e-05
1.0001917e-05
1.0001577e-05
1.0001447e-05
1.0001426e-05
1.0001328e-05
1.0001216e-05
1.0001127e-05
1.000109e-05
1.0001085e-05
1.0001087e-05
1.0000984e-05
1.0000848e-05
1.0000836e-05
1.0000876e-05
1.0000718e-05
1.0000642e-05
1.0000659e-05
1.0000735e-05
1.0000727e-05
1.0000596e-05
1.0000589e-05
1.0000796e-05
1.0001031e-05
1.0001353e-05
1.0001708e-05
1.0001986e-05
1.000223e-05
1.0002199e-05
1.0001512e-05
0.0012068298
0.0026226826
0.0029874661
0.0024891346
0.00093607878
6.1449341e-05
1.0514124e-05
1.0291133e-05
1.0155007e-05
1.0131524e-05
1.006044e-05
1.0059411e-05
1.0022995e-05
1.0027022e-05
1.0010578e-05
1.0012463e-05
1.0006685e-05
1.0006125e-05
1.0003989e-05
1.0003235e-05
1.0002315e-05
1.0001902e-05
1.0001575e-05
1.0001447e-05
1.0001425e-05
1.0001327e-05
1.0001216e-05
1.0001125e-05
1.0001086e-05
1.000108e-05
1.0001083e-05
1.0000985e-05
1.0000845e-05
1.0000827e-05
1.0000868e-05
1.0000708e-05
1.000063e-05
1.0000646e-05
1.0000731e-05
1.0000729e-05
1.00006e-05
1.0000592e-05
1.0000825e-05
1.0001035e-05
1.0001363e-05
1.0001726e-05
1.0001991e-05
1.0002208e-05
1.0002177e-05
1.000146e-05
0.001201548
0.002587809
0.0029065742
0.0023449363
0.0007789468
4.372216e-05
1.0442613e-05
1.028459e-05
1.0151724e-05
1.0128201e-05
1.0059131e-05
1.005795e-05
1.0022623e-05
1.0026359e-05
1.0010547e-05
1.0012141e-05
1.0006592e-05
1.0005962e-05
1.0003926e-05
1.0003173e-05
1.000229e-05
1.0001886e-05
1.0001573e-05
1.0001447e-05
1.0001424e-05
1.0001326e-05
1.0001214e-05
1.0001123e-05
1.0001082e-05
1.0001075e-05
1.0001077e-05
1.0000984e-05
1.0000842e-05
1.0000819e-05
1.0000861e-05
1.0000698e-05
1.0000619e-05
1.0000633e-05
1.0000725e-05
1.000073e-05
1.0000604e-05
1.0000596e-05
1.000086e-05
1.0001034e-05
1.000137e-05
1.0001743e-05
1.0002003e-05
1.0002195e-05
1.0002151e-05
1.0001407e-05
0.001196513
0.0025535468
0.0028253055
0.0021928461
0.00063768157
3.1559298e-05
1.0401774e-05
1.0278065e-05
1.0148457e-05
1.0124873e-05
1.0057832e-05
1.0056481e-05
1.002226e-05
1.0025693e-05
1.0010521e-05
1.001182e-05
1.0006501e-05
1.0005809e-05
1.0003863e-05
1.0003113e-05
1.0002266e-05
1.0001871e-05
1.000157e-05
1.0001447e-05
1.0001423e-05
1.0001325e-05
1.0001213e-05
1.0001121e-05
1.0001078e-05
1.0001069e-05
1.0001072e-05
1.0000984e-05
1.000084e-05
1.000081e-05
1.0000853e-05
1.0000689e-05
1.0000607e-05
1.0000619e-05
1.0000718e-05
1.000073e-05
1.0000609e-05
1.0000599e-05
1.0000896e-05
1.0001031e-05
1.0001376e-05
1.000176e-05
1.0002015e-05
1.0002187e-05
1.000212e-05
1.0001355e-05
0.0011918682
0.0025199091
0.0027511306
0.0020328982
0.0005160424
2.3665538e-05
1.037676e-05
1.0271498e-05
1.0145203e-05
1.0121542e-05
1.0056541e-05
1.0055e-05
1.0021907e-05
1.0025025e-05
1.0010498e-05
1.0011502e-05
1.0006411e-05
1.0005659e-05
1.0003801e-05
1.0003053e-05
1.0002243e-05
1.0001857e-05
1.0001568e-05
1.0001446e-05
1.0001422e-05
1.0001324e-05
1.0001211e-05
1.0001118e-05
1.0001073e-05
1.0001063e-05
1.0001066e-05
1.0000984e-05
1.0000838e-05
1.0000802e-05
1.0000845e-05
1.0000679e-05
1.0000597e-05
1.0000605e-05
1.0000709e-05
1.0000729e-05
1.0000613e-05
1.0000602e-05
1.0000916e-05
1.0001031e-05
1.0001384e-05
1.0001769e-05
1.0002015e-05
1.0002179e-05
1.000208e-05
1.0001304e-05
0.0011872099
0.0024849133
0.0026723296
0.0018644808
0.00041236984
1.8653713e-05
1.035984e-05
1.0264906e-05
1.0141964e-05
1.0118227e-05
1.0055266e-05
1.0053507e-05
1.0021566e-05
1.0024358e-05
1.0010477e-05
1.0011187e-05
1.0006323e-05
1.0005512e-05
1.000374e-05
1.0002996e-05
1.000222e-05
1.0001843e-05
1.0001565e-05
1.0001447e-05
1.0001421e-05
1.0001323e-05
1.0001209e-05
1.0001115e-05
1.0001068e-05
1.0001057e-05
1.0001061e-05
1.0000983e-05
1.0000836e-05
1.0000794e-05
1.0000838e-05
1.0000669e-05
1.0000586e-05
1.0000592e-05
1.0000698e-05
1.0000727e-05
1.0000618e-05
1.0000608e-05
1.0000894e-05
1.0001035e-05
1.0001399e-05
1.0001757e-05
1.0001996e-05
1.0002168e-05
1.0002036e-05
1.0001253e-05
0.0011827587
0.0024494221
0.0025934002
0.0016897902
0.0003232938
1.542747e-05
1.0347071e-05
1.0258275e-05
1.0138722e-05
1.0114917e-05
1.0054008e-05
1.0052015e-05
1.0021235e-05
1.0023694e-05
1.0010457e-05
1.0010876e-05
1.0006235e-05
1.0005368e-05
1.000368e-05
1.000294e-05
1.0002197e-05
1.0001829e-05
1.0001563e-05
1.0001447e-05
1.0001419e-05
1.0001321e-05
1.0001206e-05
1.0001111e-05
1.0001063e-05
1.0001051e-05
1.0001055e-05
1.0000983e-05
1.0000835e-05
1.0000787e-05
1.000083e-05
1.0000659e-05
1.0000575e-05
1.0000579e-05
1.0000687e-05
1.0000723e-05
1.0000622e-05
1.0000618e-05
1.0000851e-05
1.0001043e-05
1.0001419e-05
1.0001752e-05
1.0001979e-05
1.0002147e-05
1.0001992e-05
1.0001197e-05
0.00117856
0.0024129537
0.0025125445
0.0015119387
0.00024926757
1.342592e-05
1.0336589e-05
1.025163e-05
1.0135474e-05
1.0111627e-05
1.0052769e-05
1.0050531e-05
1.0020917e-05
1.0023037e-05
1.0010436e-05
1.0010569e-05
1.0006148e-05
1.0005228e-05
1.0003621e-05
1.0002886e-05
1.0002175e-05
1.0001815e-05
1.000156e-05
1.0001448e-05
1.0001418e-05
1.0001319e-05
1.0001204e-05
1.0001108e-05
1.0001057e-05
1.0001044e-05
1.0001048e-05
1.0000982e-05
1.0000834e-05
1.0000779e-05
1.0000822e-05
1.000065e-05
1.0000565e-05
1.0000568e-05
1.0000677e-05
1.0000718e-05
1.0000628e-05
1.0000614e-05
1.0000825e-05
1.0001049e-05
1.0001419e-05
1.0001753e-05
1.0001965e-05
1.0002122e-05
1.000195e-05
1.0001128e-05
0.0011745504
0.0023752807
0.0024299185
0.0013387311
0.0001892445
1.2218329e-05
1.0327329e-05
1.024497e-05
1.0132223e-05
1.0108361e-05
1.0051552e-05
1.004906e-05
1.0020613e-05
1.0022389e-05
1.0010414e-05
1.0010267e-05
1.000606e-05
1.0005092e-05
1.0003563e-05
1.0002834e-05
1.0002153e-05
1.0001801e-05
1.0001556e-05
1.0001448e-05
1.0001416e-05
1.0001318e-05
1.0001201e-05
1.0001103e-05
1.0001051e-05
1.0001038e-05
1.0001042e-05
1.0000981e-05
1.0000833e-05
1.0000773e-05
1.0000815e-05
1.000064e-05
1.0000555e-05
1.0000556e-05
1.0000668e-05
1.0000711e-05
1.0000634e-05
1.0000602e-05
1.0000801e-05
1.0001049e-05
1.0001408e-05
1.0001762e-05
1.0001956e-05
1.0002095e-05
1.0001906e-05
1.0001048e-05
0.0011704573
0.0023340058
0.0023439413
0.0011753951
0.00014152684
1.150581e-05
1.0318682e-05
1.0238298e-05
1.0128965e-05
1.0105122e-05
1.0050357e-05
1.0047604e-05
1.0020323e-05
1.0021749e-05
1.0010388e-05
1.0009947e-05
1.0005973e-05
1.0004961e-05
1.0003505e-05
1.0002784e-05
1.0002131e-05
1.0001787e-05
1.0001553e-05
1.0001449e-05
1.0001415e-05
1.0001315e-05
1.0001197e-05
1.0001099e-05
1.0001045e-05
1.0001031e-05
1.0001035e-05
1.000098e-05
1.0000833e-05
1.0000767e-05
1.0000807e-05
1.0000631e-05
1.0000545e-05
1.0000544e-05
1.0000658e-05
1.0000705e-05
1.000064e-05
1.0000596e-05
1.0000773e-05
1.0001044e-05
1.0001405e-05
1.0001744e-05
1.0001946e-05
1.0002066e-05
1.0001857e-05
1.0000975e-05
0.0011660813
0.0022883258
0.0022534199
0.0010219322
0.00010439683
1.1093066e-05
1.0310344e-05
1.0231618e-05
1.0125707e-05
1.0101923e-05
1.0049186e-05
1.0046169e-05
1.0020048e-05
1.002112e-05
1.001036e-05
1.0009616e-05
1.0005885e-05
1.0004834e-05
1.0003449e-05
1.0002735e-05
1.0002109e-05
1.0001773e-05
1.0001548e-05
1.0001449e-05
1.0001413e-05
1.0001313e-05
1.0001193e-05
1.0001094e-05
1.0001039e-05
1.0001025e-05
1.0001028e-05
1.0000979e-05
1.0000832e-05
1.0000761e-05
1.0000799e-05
1.0000622e-05
1.0000536e-05
1.0000533e-05
1.0000648e-05
1.00007e-05
1.0000645e-05
1.0000604e-05
1.0000754e-05
1.0001033e-05
1.0001414e-05
1.0001717e-05
1.0001933e-05
1.0002035e-05
1.0001802e-05
1.0000916e-05
0.0011612461
0.002238119
0.0021569249
0.0008790389
7.6119461e-05
1.085602e-05
1.0302172e-05
1.0224929e-05
1.0122438e-05
1.0098766e-05
1.004804e-05
1.0044755e-05
1.0019789e-05
1.0020505e-05
1.0010326e-05
1.0009314e-05
1.0005798e-05
1.0004711e-05
1.0003393e-05
1.0002688e-05
1.0002088e-05
1.000176e-05
1.0001544e-05
1.000145e-05
1.0001411e-05
1.000131e-05
1.0001189e-05
1.0001089e-05
1.0001033e-05
1.0001018e-05
1.0001021e-05
1.0000978e-05
1.0000832e-05
1.0000756e-05
1.0000791e-05
1.0000613e-05
1.0000527e-05
1.0000522e-05
1.0000638e-05
1.0000693e-05
1.0000648e-05
1.0000606e-05
1.0000745e-05
1.0001019e-05
1.0001411e-05
1.0001688e-05
1.0001923e-05
1.0002012e-05
1.0001745e-05
1.0000872e-05
0.0011558046
0.0021827014
0.0020483559
0.00074762782
5.5170856e-05
1.0719386e-05
1.0294143e-05
1.0218241e-05
1.0119166e-05
1.0095652e-05
1.0046919e-05
1.0043366e-05
1.0019546e-05
1.0019904e-05
1.0010288e-05
1.0009047e-05
1.000571e-05
1.0004594e-05
1.0003338e-05
1.0002642e-05
1.0002066e-05
1.0001746e-05
1.0001539e-05
1.000145e-05
1.0001408e-05
1.0001307e-05
1.0001185e-05
1.0001085e-05
1.0001028e-05
1.0001011e-05
1.0001013e-05
1.0000977e-05
1.0000833e-05
1.0000751e-05
1.0000783e-05
1.0000604e-05
1.0000519e-05
1.0000512e-05
1.0000628e-05
1.0000686e-05
1.0000647e-05
1.0000606e-05
1.0000753e-05
1.0001009e-05
1.0001413e-05
1.0001665e-05
1.0001918e-05
1.0001991e-05
1.000169e-05
1.0000834e-05
0.0011499474
0.0021231012
0.0019273107
0.00062928033
4.0151547e-05
1.0638686e-05
1.0286248e-05
1.021156e-05
1.01159e-05
1.0092588e-05
1.0045825e-05
1.0042006e-05
1.001932e-05
1.0019321e-05
1.0010244e-05
1.0008794e-05
1.0005624e-05
1.0004481e-05
1.0003283e-05
1.0002598e-05
1.0002043e-05
1.0001732e-05
1.0001534e-05
1.0001449e-05
1.0001405e-05
1.0001303e-05
1.0001182e-05
1.0001081e-05
1.0001022e-05
1.0001004e-05
1.0001006e-05
1.0000975e-05
1.0000832e-05
1.0000746e-05
1.0000775e-05
1.0000595e-05
1.000051e-05
1.0000502e-05
1.0000617e-05
1.0000678e-05
1.0000645e-05
1.0000607e-05
1.0000765e-05
1.0001007e-05
1.0001424e-05
1.0001649e-05
1.0001912e-05
1.0001966e-05
1.0001642e-05
1.0000795e-05
0.0011439062
0.00206059
0.0017954158
0.00052404584
2.9765667e-05
1.0588475e-05
1.0278445e-05
1.0204894e-05
1.0112646e-05
1.0089576e-05
1.0044759e-05
1.004068e-05
1.0019108e-05
1.0018754e-05
1.0010194e-05
1.000855e-05
1.0005539e-05
1.0004373e-05
1.000323e-05
1.0002554e-05
1.0002021e-05
1.0001718e-05
1.0001529e-05
1.0001448e-05
1.0001401e-05
1.0001299e-05
1.0001179e-05
1.0001078e-05
1.0001017e-05
1.0000996e-05
1.0000998e-05
1.0000973e-05
1.0000832e-05
1.0000741e-05
1.0000766e-05
1.0000587e-05
1.0000501e-05
1.0000494e-05
1.0000608e-05
1.000067e-05
1.0000641e-05
1.0000612e-05
1.0000773e-05
1.0001014e-05
1.0001419e-05
1.0001637e-05
1.000189e-05
1.0001941e-05
1.0001595e-05
1.0000755e-05
0.0011377847
0.0019959325
0.0016550939
0.00043036422
2.2900922e-05
1.0554576e-05
1.0270679e-05
1.0198246e-05
1.0109404e-05
1.0086622e-05
1.0043725e-05
1.003939e-05
1.0018911e-05
1.0018179e-05
1.0010138e-05
1.0008317e-05
1.0005452e-05
1.0004269e-05
1.0003176e-05
1.0002511e-05
1.0001997e-05
1.0001703e-05
1.0001523e-05
1.0001447e-05
1.0001396e-05
1.0001296e-05
1.0001178e-05
1.0001076e-05
1.0001011e-05
1.0000988e-05
1.0000991e-05
1.000097e-05
1.000083e-05
1.0000735e-05
1.0000758e-05
1.0000578e-05
1.0000492e-05
1.0000485e-05
1.00006e-05
1.0000665e-05
1.0000637e-05
1.0000606e-05
1.0000773e-05
1.0001027e-05
1.0001383e-05
1.0001634e-05
1.0001874e-05
1.0001915e-05
1.0001553e-05
1.0000713e-05
0.001131468
0.0019283976
0.001515969
0.00035040517
1.8495471e-05
1.0529182e-05
1.0262901e-05
1.0191619e-05
1.0106176e-05
1.0083732e-05
1.0042719e-05
1.0038138e-05
1.0018732e-05
1.0017594e-05
1.0010075e-05
1.0008095e-05
1.0005366e-05
1.0004169e-05
1.0003122e-05
1.0002468e-05
1.0001973e-05
1.0001688e-05
1.0001517e-05
1.0001444e-05
1.0001392e-05
1.0001295e-05
1.0001178e-05
1.0001072e-05
1.0001004e-05
1.000098e-05
1.0000984e-05
1.0000967e-05
1.0000829e-05
1.0000729e-05
1.0000749e-05
1.000057e-05
1.0000483e-05
1.0000476e-05
1.0000593e-05
1.0000661e-05
1.0000631e-05
1.0000597e-05
1.0000766e-05
1.0001032e-05
1.000135e-05
1.0001629e-05
1.0001857e-05
1.0001886e-05
1.0001511e-05
1.0000672e-05
0.0011249233
0.0018543118
0.0013778354
0.00028077836
1.556675e-05
1.0508112e-05
1.0255088e-05
1.0185022e-05
1.0102973e-05
1.008091e-05
1.0041747e-05
1.003693e-05
1.0018573e-05
1.0017047e-05
1.0010006e-05
1.0007884e-05
1.000528e-05
1.0004074e-05
1.0003068e-05
1.0002426e-05
1.0001949e-05
1.0001673e-05
1.0001512e-05
1.000144e-05
1.0001388e-05
1.0001294e-05
1.0001177e-05
1.0001067e-05
1.0000996e-05
1.0000972e-05
1.0000976e-05
1.0000963e-05
1.0000827e-05
1.0000722e-05
1.000074e-05
1.0000561e-05
1.0000474e-05
1.0000466e-05
1.0000585e-05
1.0000655e-05
1.0000619e-05
1.0000591e-05
1.0000761e-05
1.0001024e-05
1.0001319e-05
1.0001625e-05
1.0001841e-05
1.0001851e-05
1.0001467e-05
1.0000634e-05
0.0011194541
0.0017816086
0.0012396197
0.00022163076
1.3685347e-05
1.048932e-05
1.0247233e-05
1.0178466e-05
1.0099806e-05
1.0078159e-05
1.0040812e-05
1.003577e-05
1.0018433e-05
1.0016537e-05
1.0009932e-05
1.0007684e-05
1.0005193e-05
1.0003982e-05
1.0003014e-05
1.0002383e-05
1.0001923e-05
1.0001658e-05
1.0001507e-05
1.0001437e-05
1.0001385e-05
1.0001294e-05
1.0001175e-05
1.0001061e-05
1.0000989e-05
1.0000963e-05
1.0000969e-05
1.0000959e-05
1.0000825e-05
1.0000715e-05
1.000073e-05
1.0000553e-05
1.0000465e-05
1.0000455e-05
1.0000574e-05
1.0000657e-05
1.0000591e-05
1.0000585e-05
1.0000763e-05
1.0001019e-05
1.0001304e-05
1.0001614e-05
1.0001824e-05
1.0001813e-05
1.0001421e-05
1.0000601e-05
0.0011151117
0.0017116264
0.0011038463
0.00017243101
1.2495977e-05
1.0471497e-05
1.0239324e-05
1.0171957e-05
1.0096681e-05
1.0075482e-05
1.0039918e-05
1.0034671e-05
1.0018313e-05
1.0016084e-05
1.0009854e-05
1.0007496e-05
1.0005106e-05
1.0003892e-05
1.0002958e-05
1.0002339e-05
1.0001897e-05
1.0001643e-05
1.0001503e-05
1.0001434e-05
1.0001384e-05
1.0001294e-05
1.000117e-05
1.0001055e-05
1.0000981e-05
1.0000955e-05
1.0000961e-05
1.0000954e-05
1.0000823e-05
1.0000707e-05
1.000072e-05
1.0000544e-05
1.0000455e-05
1.0000444e-05
1.000056e-05
1.0000655e-05
1.0000558e-05
1.0000587e-05
1.0000772e-05
1.0001011e-05
1.0001299e-05
1.0001589e-05
1.0001806e-05
1.0001771e-05
1.000137e-05
1.000057e-05
0.0011114442
0.0016378498
0.00097225707
0.00013234721
1.1758579e-05
1.0453896e-05
1.0231353e-05
1.0165505e-05
1.0093603e-05
1.0072884e-05
1.0039066e-05
1.0033645e-05
1.0018215e-05
1.0015664e-05
1.000977e-05
1.0007317e-05
1.0005018e-05
1.0003805e-05
1.0002901e-05
1.0002295e-05
1.000187e-05
1.0001628e-05
1.0001499e-05
1.0001432e-05
1.0001383e-05
1.0001291e-05
1.0001165e-05
1.0001049e-05
1.0000974e-05
1.0000947e-05
1.0000954e-05
1.0000949e-05
1.000082e-05
1.0000699e-05
1.000071e-05
1.0000536e-05
1.0000446e-05
1.0000433e-05
1.0000543e-05
1.0000642e-05
1.000053e-05
1.0000593e-05
1.0000784e-05
1.0001012e-05
1.0001261e-05
1.0001579e-05
1.0001783e-05
1.0001725e-05
1.0001319e-05
1.0000542e-05
0.0011086983
0.0015606136
0.00084733045
0.00010040607
1.1307772e-05
1.0436279e-05
1.0223326e-05
1.0159119e-05
1.0090577e-05
1.0070368e-05
1.0038256e-05
1.003266e-05
1.0018138e-05
1.0015268e-05
1.000968e-05
1.000715e-05
1.0004931e-05
1.0003719e-05
1.0002843e-05
1.000225e-05
1.0001842e-05
1.0001614e-05
1.0001494e-05
1.000143e-05
1.0001381e-05
1.0001285e-05
1.0001159e-05
1.0001044e-05
1.0000967e-05
1.0000939e-05
1.0000946e-05
1.0000943e-05
1.0000817e-05
1.0000691e-05
1.0000699e-05
1.0000527e-05
1.0000438e-05
1.0000423e-05
1.0000525e-05
1.0000636e-05
1.0000509e-05
1.0000597e-05
1.0000794e-05
1.0001003e-05
1.0001252e-05
1.0001574e-05
1.0001746e-05
1.0001673e-05
1.0001267e-05
1.0000515e-05
0.0011070974
0.0014799934
0.00073087836
7.5514063e-05
1.1033419e-05
1.0418933e-05
1.0215253e-05
1.0152809e-05
1.0087614e-05
1.0067938e-05
1.0037493e-05
1.0031725e-05
1.0018084e-05
1.0014897e-05
1.0009586e-05
1.0006991e-05
1.0004842e-05
1.0003634e-05
1.0002782e-05
1.0002205e-05
1.0001815e-05
1.00016e-05
1.0001487e-05
1.0001426e-05
1.0001377e-05
1.0001276e-05
1.0001152e-05
1.0001038e-05
1.000096e-05
1.0000931e-05
1.0000939e-05
1.0000937e-05
1.0000814e-05
1.0000683e-05
1.0000687e-05
1.0000519e-05
1.000043e-05
1.0000413e-05
1.0000506e-05
1.0000625e-05
1.000049e-05
1.0000601e-05
1.0000796e-05
1.0001005e-05
1.0001229e-05
1.0001564e-05
1.0001708e-05
1.0001626e-05
1.0001214e-05
1.000049e-05
0.0011068567
0.0014004167
0.00062411353
5.6521255e-05
1.0865099e-05
1.040286e-05
1.0207133e-05
1.0146588e-05
1.0084719e-05
1.00656e-05
1.0036778e-05
1.0030839e-05
1.0018054e-05
1.0014552e-05
1.0009488e-05
1.0006841e-05
1.0004751e-05
1.0003548e-05
1.000272e-05
1.0002158e-05
1.0001787e-05
1.0001585e-05
1.0001477e-05
1.0001423e-05
1.0001368e-05
1.0001266e-05
1.0001145e-05
1.0001032e-05
1.0000954e-05
1.0000924e-05
1.0000932e-05
1.000093e-05
1.0000811e-05
1.0000675e-05
1.0000674e-05
1.0000511e-05
1.0000421e-05
1.0000403e-05
1.0000486e-05
1.0000616e-05
1.0000478e-05
1.0000605e-05
1.0000787e-05
1.0001008e-05
1.0001198e-05
1.0001531e-05
1.0001674e-05
1.0001582e-05
1.0001165e-05
1.0000466e-05
0.0011070215
0.0013126451
0.0005275433
4.2435313e-05
1.0759283e-05
1.0386816e-05
1.0198865e-05
1.0140468e-05
1.0081903e-05
1.0063356e-05
1.0036114e-05
1.0030005e-05
1.0018049e-05
1.0014232e-05
1.0009385e-05
1.0006699e-05
1.0004659e-05
1.0003461e-05
1.0002655e-05
1.0002111e-05
1.0001759e-05
1.0001568e-05