/*--------------------------------*- C++ -*----------------------------------*\
  =========                 |
  \\      /  F ield         | OpenFOAM: The Open Source CFD Toolbox
   \\    /   O peration     | Website:  https://openfoam.org
    \\  /    A nd           | Version:  8
     \\/     M anipulation  |
\*---------------------------------------------------------------------------*/
FoamFile
{
    version     2.0;
    format      ascii;
    class       volScalarField;
    location    "0.259994";
    object      p;
}
// * * * * * * * * * * * * * * * * * * * * * * * * * * * * * * * * * * * * * //

dimensions      [1 -1 -2 0 0 0 0];

internalField   nonuniform List<scalar> 
20000
(
57699.449
57715.483
57734.481
57760.783
57796.979
57844.871
57911.212
57986.387
58080.54
58192.714
58323.01
58489.068
58670.808
58915.802
59182.766
59544.047
59942.197
60471.133
61071.059
61847.269
62753.407
63894.937
65252.068
66921.545
68905.969
71270.146
73991.294
77027.616
80235.205
83431.47
86422.018
89076.922
91333.846
93198.911
94705.614
95908.241
96855.756
97598.302
98169.529
98607.339
98940.254
99206.109
99432.526
99635.496
99844.646
100051.25
100262.59
100381.24
100452.98
100377.21
57716.149
57733.218
57752.435
57779.035
57815.586
57864.368
57931.934
58009.513
58106.165
58221.828
58356.443
58529.777
58719.479
58976.18
59253.893
59630.834
60043.669
60592.37
61212.42
62013.125
62944.815
64114.325
65500.37
67197.268
69205.57
71583.144
74301.867
77313.111
80476.99
83622.11
86566.426
89184.839
91414.999
93259.704
94751.072
95941.812
96880.646
97616.719
98183.326
98617.692
98948.68
99213.9
99439.877
99644.129
99853.482
100068.17
100279.47
100402.34
100459.45
100368.41
57757.815
57775.628
57795.772
57823.624
57862.059
57913.174
57983.964
58064.625
58165.574
58286.475
58426.652
58608.432
58807.636
59077.005
59365.446
59757.553
60184.974
60753.459
61393.355
62218.34
63175.837
64375.089
65793.103
67523.064
69562.481
71963.029
74688.927
77682.915
80804.846
83892.582
86778.703
89346.28
91536.012
93349.407
94817.059
95989.833
96915.552
97642.031
98201.775
98631.19
98959.287
99223.225
99448.467
99653.661
99863.644
100087.11
100299.97
100421.96
100469.47
100356.79
57838.29
57856.878
57877.843
57906.82
57946.985
58000.056
58073.523
58156.93
58262.06
58388.507
58534.131
58724.046
58929.843
59209.869
59507.93
59914.578
60356.006
60943.9
61603.936
62454.306
63439.582
64671.514
66125.572
67893.982
69971.22
72402.601
75143.474
78126.708
81209.901
84238.002
87057.54
89562.593
91699.742
93471.328
94906.933
96055.353
96963.1
97676.431
98226.683
98649.311
98973.284
99235.097
99459.039
99664.498
99875.251
100108.73
100322.02
100438.95
100481.32
100344
57940.254
57959.782
57981.964
58012.503
58055.058
58110.854
58188.018
58275.171
58384.25
58515.61
58665.954
58863.288
59075.431
59366.097
59674.042
60095.814
60551.923
61160.104
61841.334
62718.448
63733.69
65001.23
66495.262
68306.933
70427.702
72895.928
75657.097
78633.237
81678.547
84644.218
87390.543
89823.97
91898.875
93620.111
95016.679
96135.363
97021.037
97718.206
98256.739
98671.054
98989.86
99248.82
99471.061
99676.205
99887.749
100133.09
100343.92
100455.29
100492.89
100330.13
58064.127
58084.326
58107.624
58139.422
58183.929
58241.772
58321.888
58411.77
58524.642
58660.913
58816.161
59021.39
59240.504
59542.501
59860.704
60298.138
60769.513
61398.745
62102.473
63008.182
64056.043
65362.436
66900.458
68759.976
70929.4
73439.307
76224.455
79195.468
82202.904
85103.692
87771.49
90125.958
92130.611
93794.15
95145.498
96229.506
97089.251
97767.367
98292.027
98696.535
99009.152
99264.543
99484.63
99688.794
99900.999
100159.29
100365.15
100470.23
100503.41
100315.88
58202.266
58222.532
58246.951
58280.238
58327.022
58387.144
58470.606
58563.633
58680.623
58822.358
58982.882
59196.435
59422.913
59736.795
60065.77
60519.556
61007.018
61658.407
62386.144
63322.41
64405.584
65753.998
67339.836
69251.446
71473.977
74029.236
76840.39
79806.434
82774.589
85607.639
88192.455
90462.186
92390.267
93990.175
95291.157
96336.259
97166.705
97823.202
98332.061
98725.423
99030.932
99282.092
99499.591
99702.241
99915.363
100186.44
100384.62
100483.27
100511.82
100301.63
58354.383
58375.329
58400.483
58435.199
58484.367
58546.711
58633.748
58730.044
58851.439
58999.092
59165.182
59387.471
59621.584
59947.814
60287.984
60758.762
61263.156
61937.853
62691.361
63660.384
64781.724
66175.368
67812.799
69780.549
72060.117
74663.381
77501.155
80460.902
83387.282
86149.391
88647.252
90827.552
92674.015
94205.5
95451.854
96454.429
97252.616
97885.2
98376.522
98757.531
99055.093
99301.393
99515.832
99716.7
99932.229
100213.23
100401.08
100491.91
100515.94
100287.68
58516.279
58540.51
58566.527
58602.894
58654.872
58719.507
58810.835
58910.74
59036.634
59190.432
59362.116
59593.388
59835.324
60174.354
60526.235
61014.777
61537.14
62236.562
63017.739
64021.769
65184.115
66626.128
68318.814
70346.529
72686.492
75339.381
78203.007
81153.752
84034.805
86722.369
89129.684
91216.794
92977.768
94437.139
95625.492
96582.563
97345.99
97952.687
98424.968
98792.571
99081.449
99322.292
99533.149
99732.363
99953.741
100238.09
100413.96
100496.26
100518
100274.03
58694.021
58719.841
58746.486
58784.542
58839.553
58905.951
59001.616
59105.071
59235.161
59395.113
59572.434
59813.021
60063.135
60415.569
60779.791
61286.987
61828.518
62554.202
63365.158
64406.56
65612.824
67106.38
68857.984
70949.324
73352.502
76055.612
78943.007
81880.778
84712.033
87321.058
89634.438
91625.279
93297.818
94682.315
95810.08
96719.26
97445.856
98025.003
98476.965
98830.267
99109.823
99344.639
99551.312
99749.327
99981.202
100260.2
100424.29
100498.49
100518.95
100260.44
58882.576
58910.308
58937.348
58976.929
59035.108
59103.686
59203.355
59310.791
59445.338
59611.903
59795.225
60045.654
60304.375
60670.869
61048.154
61575.051
62137.152
62890.815
63733.684
64814.812
66067.918
67616.207
69430.377
71588.788
74057.373
76810.22
79718.016
82637.703
85413.927
87940.142
90156.427
92048.551
93630.552
94938.273
96003.599
96863.07
97551.187
98101.438
98532.04
98870.315
99140.013
99368.255
99570.083
99767.474
100012.75
100281.22
100433.39
100499.31
100519.01
100246.47
59078.789
59109.343
59137.541
59178.99
59240.601
59312.058
59415.95
59527.765
59667.025
59840.562
60030.121
60290.847
60558.605
60939.888
61331.095
61878.893
62463.12
63246.525
64123.548
65246.839
66549.82
68156.149
70036.578
72265.303
74800.795
77601.775
80525.353
83420.801
86136.097
88574.994
90691.197
92482.649
93972.695
95202.459
96204.137
97012.59
97660.977
98181.289
98589.723
98912.407
99171.812
99392.958
99589.235
99786.599
100047.2
100301.68
100441.84
100499.42
100515.82
100231.58
59288.343
59320.18
59349.896
59392.868
59457.699
59531.897
59639.718
59755.872
59899.758
60080.519
60276.63
60548.222
60825.556
61222.477
61628.614
62198.664
62806.67
63621.623
64535.013
65702.941
67058.933
68726.71
70677.094
72979.073
75582.154
78428.474
81362.015
84226.162
86874.142
89221.14
91234.524
92923.836
94321.143
95472.438
96409.845
97166.438
97774.217
98263.848
98649.534
98956.227
99204.988
99418.565
99608.655
99806.765
100083.52
100321.08
100447.88
100495.95
100506.74
100215.47
59506.195
59538.744
59570.147
59614.807
59683.109
59760.477
59872.778
59993.934
60142.889
60331.439
60534.543
60817.658
61105.174
61518.709
61940.932
62534.645
63168.093
64016.36
64968.464
66183.675
67595.996
69328.796
71352.84
73730.665
76401.099
79288.731
82225.236
85050.207
87624.124
89874.633
91782.692
93368.801
94673.118
95745.994
96619.013
97323.314
97889.946
98348.427
98711.007
99001.461
99239.295
99444.875
99628.63
99828.777
100119.87
100338.45
100450.74
100490.48
100488.07
100197.85
59731.677
59765.575
59798.923
59845.83
59918.206
59999.319
60115.901
60242.504
60396.802
60593.5
60803.881
61099.169
61397.582
61828.866
62268.404
62887.161
63547.675
64431.061
65424.337
66689.635
68161.784
69963.285
72064.632
74520.347
77256.865
80180.474
83111.844
85889.122
88382.064
90531.627
92332.163
93814.439
95026.034
96021.071
96830.03
97481.97
98007.227
98434.356
98773.685
99047.799
99274.459
99471.584
99649.659
99854.508
100153.62
100353.37
100451.89
100486.27
100456.98
100178.89
59968.37
60003.59
60038.688
60087.723
60163.821
60248.5
60369.199
60501.405
60661.203
60866.44
61084.544
61392.896
61703.146
62153.357
62611.379
63256.452
63945.704
64866.143
65903.285
67221.733
68757.411
70631.431
72813.601
75348.617
78148.753
81101.69
84018.806
86739.377
89144.359
91188.7
92879.825
94258.03
95377.617
96295.84
97041.44
97641.257
98125.191
98521.008
98837.139
99094.938
99310.19
99498.389
99671.962
99886.303
100182.34
100365.29
100452.18
100481.6
100412.31
100159.17
60212.267
60249.181
60286.353
60337.944
60418.125
60506.831
60631.955
60769.998
60935.733
61150.328
61376.9
61699.398
62022.347
62492.502
62970.026
63642.726
64362.517
65322.128
66406.064
67780.931
69383.996
71334.418
73600.687
76215.584
79075.54
82049.813
84942.687
87597.231
89907.363
91842.516
93422.735
94697.057
95725.798
96568.639
97251.896
97800.097
98243.011
98607.786
98900.958
99142.582
99346.204
99525.106
99695.794
99925.051
100205.69
100371.26
100450.26
100474.96
100360.87
100139.48
60466.601
60505.169
60544.313
60598.369
60682.529
60775.132
60904.755
61049.034
61221.138
61445.965
61681.688
62019.186
62355.4
62846.309
63344.424
64046.203
64798.604
65799.755
66933.687
68368.474
70042.95
72073.728
74427.038
77121.425
80035.968
83022.272
85880.144
88459.159
90667.737
92490.101
93958.326
95129.357
96068.804
96838.017
97460.2
97957.519
98359.937
98694.147
98964.762
99190.441
99382.24
99551.626
99721.396
99968.295
100227
100373.99
100442.91
100464.33
100311.72
100120.79
60728.975
60769.409
60810.665
60867.412
60955.724
61052.725
61187.352
61339.234
61518.352
61754.109
61999.17
62352.159
62702.043
63214.683
63734.751
64467.36
65254.643
66299.904
67487.261
68985.632
70735.672
72850.753
75293.516
78065.788
81028.157
84015.961
86827.479
89321.446
91422.119
93128.57
94484.191
95552.964
96405.051
97102.668
97665.262
98112.635
98475.272
98779.592
99028.197
99238.221
99418.061
99578.071
99748.986
100013.54
100247.53
100375.13
100431.24
100448.06
100267.21
100103.96
61001.33
61043.902
61087.592
61147.444
61240.349
61342.35
61481.646
61641.802
61827.741
62074.479
62328.726
62697.737
63062.095
63597.845
64141.545
64906.835
65731.46
66823.65
68068.113
69633.919
71463.834
73667.134
76201.077
79048.228
82050.08
85027.737
87781.1
90180.612
92167.446
93755.372
94998.268
95966.224
96733.211
97361.467
97866.148
98264.676
98588.401
98863.68
99090.94
99285.629
99453.446
99604.822
99779.439
100057.54
100266.61
100375.52
100417.43
100423.43
100228.61
100089.41
61284.221
61328.859
61374.896
61437.931
61535.604
61642.594
61786.559
61954.536
62147.191
62405.638
62669.644
63055.889
63435.989
63996.457
64565.519
65365.408
66230.015
67372.195
68677.644
70314.875
72229.111
74524.352
77150.252
80067.673
83099.076
86053.953
88737.104
91033.052
92900.67
94368.063
95498.651
96367.647
97052.091
97613.423
98062.06
98412.965
98698.775
98946.015
99152.695
99332.363
99488.164
99632.419
99814.501
100096.88
100282.59
100375.58
100408.13
100387.9
100196.33
100077.29
61574.171
61621.159
61669.827
61736.521
61839.256
61951.477
62100.941
62277.52
62476.233
62747.653
63022.435
63427.5
63824.593
64411.278
65007.378
65843.882
66751.42
67946.928
69317.435
71030.27
73033.421
75424.007
78141.505
81122.855
84172.328
87090.911
89691.691
91875.389
93619.053
94964.555
95983.746
96755.983
97360.67
97857.753
98252.386
98556.931
98805.942
99026.259
99213.202
99378.142
99521.999
99661.344
99855.946
100129.61
100295.15
100375.58
100402.1
100345.8
100170.06
100067.28
61874.903
61924.216
61975.027
62045.001
62152.529
62269.823
62424.976
62610.915
62817.001
63102.02
63388.335
63813.44
64228.59
64842.849
65467.801
66343.248
67296.996
68549.366
69989.123
71781.941
73878.635
76367.432
79174.682
82211.789
85266.324
88134.401
90640.769
92704.135
94319.933
95542.932
96452.106
97130.082
97658.009
98093.878
98436.654
98696.044
98909.524
99104.113
99272.23
99422.72
99554.83
99691.853
99903.115
100157.3
100304.18
100373.83
100396.1
100303.27
100147.78
100058.57
62180.625
62232.948
62286.779
62361.038
62474.476
62598.048
62759.419
62955.385
63169.239
63470.073
63767.973
64214.217
64648.268
65291.658
65947.634
66864.722
67868.244
69181.143
70694.525
72571.965
74766.848
77355.923
80249.389
83332.129
86377.324
89180.19
91580.363
93516.051
95001.02
96101.691
96902.597
97489.017
97943.387
98321.503
98614.501
98829.81
99009.213
99179.34
99329.576
99465.92
99586.778
99724.181
99953.703
100182.81
100309.96
100368.14
100387.5
100263.2
100127.64
100050.54
62498.448
62553.731
62610.577
62689.054
62808.509
62938.249
63105.537
63311.532
63533.286
63851.299
64161.573
64629.913
65084.071
65758.434
66448.094
67409.791
68466.789
69843.957
71435.557
73402.525
75700.062
78390.346
81364.46
84480.699
87500.9
90223.607
92506.275
94307.909
95660.232
96639.549
97334.274
97832.063
98216.414
98540.564
98785.497
98957.732
99104.693
99251.759
99385.055
99507.625
99618.301
99759.19
100004.82
100206.9
100313.64
100358.21
100373.05
100226.18
100108.99
100043
62825.606
62883.853
62943.715
63026.37
63152.039
63288.305
63462.203
63679.263
63909.844
64245.276
64568.752
65060.893
65536.759
66244.427
66970.656
67980.015
69094.258
70539.621
72214.386
74276.08
76680.371
79471.345
82518.347
85653.96
88632.458
91259.996
93414.524
95076.976
96296.02
97155.521
97746.503
98158.894
98477.328
98751.107
98949.01
99079.428
99195.594
99321.259
99438.493
99547.754
99650.085
99798.531
100052.53
100228.11
100315.59
100346.62
100348.12
100192.25
100091.56
100035.91
63160.807
63222.557
63286.317
63373.765
63506.224
63649.828
63830.87
64059.762
64299.709
64653.626
64989.93
65507.868
66007.58
66751.198
67516.927
68576.939
69752.304
71270.094
73033.382
75195.159
77709.569
80598.838
83708.575
86847.545
89766.802
92284.377
94301.258
95821.069
96907.206
97648.53
98138.735
98469.56
98727.056
98952.903
99104.113
99194.76
99281.486
99387.776
99489.724
99586.221
99682.793
99843.766
100093.12
100244.61
100316.45
100340.21
100310.1
100161.58
100075.63
100029.46
63508.157
63573.339
63640.9
63732.9
63871.975
64023.022
64211.424
64453.103
64703.189
65076.871
65426.637
65972.148
66498.182
67280.287
68088.403
69202.027
70442.718
72037.652
73895.262
76162.483
78789.295
81772.286
84932.13
88056.715
90898.631
93292.053
95163.563
96539.16
97493.056
98117.361
98510.457
98764.465
98966.813
99144.998
99249.982
99303.959
99362.119
99451.244
99538.603
99622.927
99716.755
99894.234
100125.83
100257.06
100316.76
100336.29
100265.92
100133.93
100061
100023.58
63863.512
63932.485
64004.378
64101.439
64247.784
64407.284
64603.838
64859.514
65120.506
65514.912
65880.86
66456.195
67010.027
67832.983
68686.337
69856.832
71167.557
72844.891
74802.953
77180.654
79920.586
82990.187
86184.981
89275.926
92022.232
94278.635
95999.654
97230.983
98052.534
98560.639
98861.014
99044.064
99196.701
99325.201
99387.021
99407.413
99437.849
99511.51
99585.035
99657.844
99751.898
99945.936
100154.12
100267.03
100316.76
100332.39
100222.93
100108.54
100047.53
100017.94
64229.391
64302.517
64379.359
64481.981
64636.103
64804.758
65009.764
65280.319
65553.127
65969.376
66352.846
66961.192
67544.339
68410.246
69312.041
70543.185
71929.317
73694.828
75759.642
78252.228
81104.027
84250.368
87462.497
90499.323
93132.143
95240.88
96809.193
97896.019
98583.433
98977.847
99190.038
99308.658
99414.183
99493.363
99515.775
99505.031
99509.99
99568.323
99629.003
99691.231
99788.215
99996.848
100180.19
100275.49
100314.12
100325.91
100185.93
100086.09
100035.26
100012.59
64606.989
64684.59
64766.941
64875.54
65037.878
65216.408
65430.067
65716.564
66001.567
66441.16
66843.916
67487.207
68102.073
69013.135
69967.178
71263.407
72730.94
74590.756
76768.552
79379.326
82339.312
85549.477
88759.03
91720.467
94223.2
96176.822
97591.953
98530.573
99083.802
99368.68
99498.441
99558.311
99616.607
99651.552
99636.576
99595.347
99580.238
99621.473
99670.564
99723.837
99826.476
100045.02
100204.29
100283.71
100311.84
100312.74
100157.41
100066.96
100023.85
100007.28
64997.548
65079.819
65167.937
65282.633
65453.251
65642.431
65865.1
66168.915
66466.705
66931.601
67355.755
68034.319
68684.139
69643.15
70653.948
72020.358
73575.757
75536.259
77832.925
80563.724
83625.399
86883.403
90068.402
92933.108
95291.451
97086.038
98345.111
99130.96
99551.603
99733.738
99787.999
99792.951
99804.085
99802.352
99748.417
99678.349
99648.331
99671.148
99709.803
99756.809
99868.579
100087.95
100225.22
100290.31
100310.84
100289.17
100135.87
100051.15
100013.03
100001.58
65400.291
65487.423
65581.53
65702.758
65881.938
66082.874
66315.25
66637.976
66949.864
67441.821
67888.884
68604.356
69291.671
70302.376
71375.217
72817.35
74467.378
76535.016
78955.771
81806.379
84960.032
88246.79
91383.656
94131.161
96334.215
97967.939
99062.867
99693.634
99985.566
100075.13
100060.49
100012.14
99980.477
99943.675
99851.275
99755.02
99712.876
99718.201
99746.769
99791.055
99916.142
100123.28
100242
100295.36
100310.39
100260.35
100116.66
100038.56
100004.03
99994.824
65814.174
65906.772
66007.692
66136.46
66324.847
66539.095
66782.047
67124.979
67452.149
67972.701
68444.168
69198.699
69926.581
70993.542
72134.384
73658.009
75409.603
77590.785
80139.84
83107.527
86339.935
89633.501
92697.776
95309.596
97350.42
98817.896
99740.142
100215.6
100388.51
100397.19
100315.09
100216.39
100146.11
100075.56
99945.919
99826.063
99771.855
99763.76
99781.545
99826.335
99965.687
100153.04
100254.47
100297.77
100309.99
100230.07
100098.38
100027.71
99996.772
99988.49
66241.738
66340.462
66449.124
66586.423
66784.296
67012.951
67266.834
67631.029
67973.654
68524.536
69022.499
69818.979
70592.167
71719.968
72935.153
74546.165
76406.36
78707.253
81387.283
84466.207
87760.367
91036.238
94003.637
96464.467
98339.004
99628.29
100372.02
100696.69
100768.71
100697.38
100551.76
100406.74
100301.47
100198.11
100033.21
99892.047
99824.711
99807.499
99814.455
99861.413
100014.64
100178.76
100263.88
100298.68
100309.09
100199.09
100081.08
100018.28
99990.773
99983.252
66685.667
66790.692
66907.347
67053.588
67260.559
67504.325
67769.071
68156.018
68515.013
69098.499
69626.004
70468.003
71292.043
72485.268
73781.345
75485.784
77461.717
79888.039
82699.653
85880.401
89215.574
92447.305
95294.925
97593.497
99294.788
100392.38
100955.59
101145.03
101125.33
100975.82
100771.11
100583.93
100446.9
100311.69
100113.58
99952.635
99872.63
99848.197
99846.227
99896.171
100061.03
100201.55
100271.85
100298.85
100305.83
100169.83
100065.37
100010.33
99986.228
99979.36
67144.234
67255.857
67380.733
67536.438
67752.41
68012.549
68288.722
68700.677
69077.886
69697.168
70258.186
71149.597
72029.53
73293.074
74676.903
76481.026
78579.822
81136.441
84077.47
87346.502
90698.411
93858.58
96566.133
98695.082
100208.75
101104.47
101492.64
101567.67
101456.15
101233.03
100973.91
100748.7
100582.78
100416.6
100187.25
100008.04
99916.521
99885.071
99877.656
99932.387
100102.93
100221.5
100278.84
100298.73
100295.41
100144.48
100051.78
100003.75
99983.099
99977.157
67616.146
67735.181
67868.99
68035.227
68260.59
68538.898
68827.722
69267.523
69665.52
70324.291
70922.979
71867.384
72808.176
74147.044
75625.924
77536.282
79764.874
82455.328
85520.22
88859.613
92200.933
95262.459
97813.214
99764.949
101071.75
101760.98
101992.89
101962.73
101761.61
101469.94
101161.04
100901.76
100709.55
100513.2
100254.29
100058.31
99956.582
99919.208
99909.072
99972.634
100138.57
100238.14
100283.99
100298.73
100272.25
100124.74
100040.56
99998.452
99980.874
99976.111
68102.835
68230.364
68373.956
68552.082
68787.656
69086.312
69389.422
69860.584
70282.053
70983.612
71623.706
72624.322
73631.774
75051.199
76632.746
78656.221
81020.949
83846.722
87025.738
90413.183
93714.29
96651.972
99033.298
100792.97
101877.05
102363.71
102463.53
102327.93
102042.53
101687.49
101333.39
101043.87
100827.7
100601.83
100314.58
100103.45
99993.057
99951.656
99940.83
100016.37
100167.8
100251.74
100288.08
100298.67
100242.74
100106.47
100030.91
99994.129
99979.321
99975.555
68608.189
68745.083
68898.81
69090.102
69337.184
69658.787
69977.991
70484.158
70931.192
71677.929
72362.93
73423.312
74504.388
76009.963
77702.022
79845.717
82351.995
85311.636
88590.36
91999.37
95229.739
98021.389
100223.62
101766.92
102619.78
102922.98
102902.71
102663.9
102300.02
101886.73
101491.88
101175.75
100937.76
100682.87
100367.93
100143.58
100026.46
99982.998
99972.848
100059.89
100192.78
100262.74
100291.14
100298.49
100211.33
100089.08
100022.52
99990.857
99978.507
99975.307
69135.156
69282.476
69446.773
69653.15
69913.393
70260.62
70597.243
71140.851
71615.007
72409.175
73143.354
74268.191
75430.245
77028.174
78838.696
81109.764
83761.473
86849.645
90208.441
93608.907
96738.653
99365.828
101374
102678.51
103299.68
103448.41
103307.48
102971.67
102535.26
102068.72
101637.44
101298.16
101040.26
100756.5
100414.21
100179.11
100057.4
100013.5
100004.75
100101.61
100214.51
100271.56
100292.84
100296.71
100180.78
100073.32
100015.41
99988.31
99977.957
99975.21
69688.843
69847.556
70023.076
70246.908
70520.728
70894.953
71248.292
71830.787
72334.681
73179.802
73968.692
75163.453
76414.48
78110.973
80047.946
82453.379
85252.077
88458.764
91872.749
95232.021
98233.314
100681.38
102471.01
103521.59
103926.88
103938.56
103678.6
103252.62
102749.52
102234.57
101771.03
101411.82
101135.54
100822.51
100453.79
100210.64
100086.53
100043.45
100036.35
100140.27
100233.12
100278.45
100294.02
100289.45
100154.05
100060.21
100009.9
99986.557
99977.748
99975.175
70266.84
70439.024
70627.536
70870.792
71157.535
71560.409
71930.343
72555.179
73093.294
73993.98
74843.871
76114.45
77462.163
79263.836
81335.252
83881.331
86825.156
90134.797
93574.175
96858.599
99706.577
101960.5
103501.81
104292.54
104514.59
104389.61
104017.32
103508.16
102944.07
102385.37
101893.56
101517.41
101223.7
100879.99
100487.81
100239.03
100114.53
100073.25
100068.2
100174.19
100248.53
100283.44
100294.72
100272
100132.67
100049.69
100005.97
99985.682
99977.711
99975.318
70871.206
71057.741
71258.94
71521.55
71821.555
72257.35
72647.207
73318.72
73896.033
74856.759
75774.019
77126.484
78578.714
80492.613
82706.498
85397.946
88480.454
91871.442
95302.397
98479.16
101152.6
103188.99
104458.46
105000.39
105062.66
104801.95
104325.27
103739.83
103120.2
102522.23
102005.98
101615.53
101304.61
100928.15
100517.74
100265.2
100142.06
100102.96
100101.47
100201.95
100260.98
100287.3
100294.98
100246.47
100115.33
100040.8
100002.66
99985.338
99978.423
99976.379
71494.69
71699.517
71916.819
72202.758
72518.088
72991.703
73404.738
74127.086
74748.166
75772.802
76763.978
78205.009
79769.496
81803.853
84167.808
87006.554
90215.485
93660.018
97046.008
100084.58
102565.48
104350.13
105335.31
105658.55
105567.67
105176.99
104604.17
103949.16
103279.22
102646.23
102109.19
101706.71
101378.16
100967.85
100544.05
100289.85
100169.16
100132.08
100135.79
100224.17
100271.14
100290.45
100295.09
100217.92
100099.28
100032.87
99999.591
99985.265
99979.675
99977.962
72154.757
72378.288
72611.157
72923.748
73254.449
73770.448
74208.628
74985.009
75654.164
76746.743
77818.898
79354.705
81041.201
83204.892
85725.194
88708.902
92025.343
95490.013
98793.649
101666.41
103931.73
105432.9
106136.71
106272.37
106028.33
105516.64
104855.86
104137.71
103422.39
102758.48
102204.04
101791.38
101444.32
101000.06
100567.29
100313.36
100195.66
100160.39
100168.59
100242.81
100279.91
100293.16
100293.86
100188.81
100084.37
100026.54
99998.075
99985.822
99981.406
99979.971
72850.578
73094.399
73343.632
73686.808
74033.92
74596.699
75062.307
75895.793
76618.147
77783.865
78945.684
80581.125
82401.231
84703.772
87383.888
90504.346
93902.236
97349.161
100534.15
103216.9
105233.33
106429.28
106875.47
106839.18
106446.15
105822.95
105082.19
104307.03
103550.99
102860.01
102291.33
101869.89
101503.17
101025.81
100588.03
100335.98
100221.5
100187.85
100198.48
100258.15
100286.75
100296.38
100286.97
100161.98
100071.12
100021.49
99997.45
99987.071
99983.478
99982.254
73589.371
73854.17
74119.148
74496.277
74860.121
75472.334
75968.293
76862.971
77645.047
78889.959
80150.151
81894.281
83858.815
86308.407
89147.421
92389.354
95835.746
99224.417
102256.74
104725.83
106453.26
107337.43
107563.95
107355.46
106823.23
106098.11
105285.07
104458.63
103666.26
102951.85
102371.75
101942.46
101554.81
101046.08
100606.71
100357.86
100246.71
100214.44
100225.01
100270.77
100291.64
100297.98
100271.38
100139.97
100060.12
100017.38
99997.293
99988.656
99985.743
99984.702
74373.721
74660.811
74940.12
75353.216
75733.812
76400.069
76930.636
77891.851
78741.832
80072.998
81441.761
83304.911
85423.676
88025.646
91016.717
94356.958
97812.936
101102.32
103950.84
106173.85
107581.02
108168.71
108200.47
107822.65
107161.96
106344.35
105466.33
104593.99
103769.38
103034.96
102445.92
102009.24
101599.36
101061.75
100623.74
100379.11
100271.3
100240.12
100247.98
100281.35
100295.31
100298.57
100247.21
100123.27
100051.74
100014.48
99997.364
99990.479
99988.14
99987.27
75194.497
75509.674
75807.883
76260.78
76659.941
77385.644
77956.288
78990.036
79917.331
81342.691
82832.783
84824.581
87104.938
89860.362
92989.555
96397.029
99819.259
102969.72
105606.26
107539.31
108609.38
108940.31
108780.44
108243.05
107464.94
106563.95
105627.81
104714.56
103861.52
103110.25
102514.41
102070.53
101637.18
101073.55
100639.53
100399.8
100295
100264.42
100267.25
100290.84
100299.54
100298.69
100220.06
100108.44
100045.32
100013.15
99998.452
99992.688
99990.696
99989.973
76060.117
76406.357
76723.738
77224.423
77644.953
78437.015
79054.549
80167.338
81182.342
82710.571
84336.558
86464.349
88910.047
91814.596
95059.943
98496.151
101838.99
104812.92
107204.61
108806.99
109546.88
109653.64
109304.19
108619.43
107734.82
106759.15
105771.27
104821.72
103943.79
103178.58
102577.77
102126.89
101669.29
101082.19
100654.57
100420.07
100317.29
100286.03
100283.28
100299.25
100305.7
100295.11
100192.83
100094.98
100040.18
100012.65
100000.05
99995.172
99993.438
99992.824
76978.563
77360.752
77698.709
78255.449
78699.84
79564.862
80236.899
81435.728
82550.335
84191.526
85963.538
88233.327
90844.335
93887.106
97218.095
100638.37
103856.3
106618.89
108722.21
109966.86
110409.96
110304.83
109774.23
108954.8
107974.32
106932.15
105898.45
104916.8
104017.25
103240.74
102636.56
102179.08
101697.25
101088.48
100669.24
100439.97
100338.06
100304.04
100297.48
100305.75
100308.86
100286.24
100167.97
100083.05
100035.92
100012.55
100001.95
99997.848
99996.336
99995.802
77959.289
78383.391
78743.848
79363.576
79834.96
80780.513
81516.417
82808.612
84035.185
85798.248
87723.582
90139.232
92910.839
96072.953
99450.347
102805.72
105854.72
108371.51
110136.99
111020.7
111207.42
110891.87
110193.69
109252.28
108186.12
107085.07
106010.96
105001.07
104082.89
103297.49
102691.28
102227.51
101721.28
101093.79
100683.7
100458.95
100356.71
100319.5
100310.22
100311.64
100310.03
100270.26
100147.89
100073.27
100032.46
100012.78
100004.07
100000.69
99999.379
99998.921
79011.44
79485.559
79868.997
80562.251
81064.238
82098.049
82908.483
84300.82
85650.298
87540.126
89625.107
92188.402
95109.743
98362.924
101739.62
104979.46
107817.63
110044.62
111435.63
111983.94
111936.21
111417.43
110566.11
109515.12
108372.88
107219.99
106110.38
105075.74
104141.67
103349.57
102742.36
102271.75
101737.44
101099.93
100697.92
100476.69
100373.56
100333.49
100321.54
100318.76
100310.23
100247.31
100132.84
100066.28
100030.79
100013.78
100006.49
100003.74
100002.62
100002.17
80149.927
80682.812
81087.292
81865.697
82402.917
83532.301
84428.556
85926.546
87408.019
89424.53
91675.917
94386.007
97437.523
100742.96
104065.66
107139.97
109727.91
111610.28
112612.96
112872.72
112592.02
111884.99
110895.2
109746.52
108537.16
107338.84
106198.18
105141.95
104194.5
103397.66
102790.1
102311.08
101747.01
101107.87
100711.91
100493.39
100389.29
100346.51
100331.36
100325.69
100307.56
100222.3
100119.61
100060.92
100030.15
100015.38
100009.31
100007.12
100006.17
100005.12
81384.522
81988.635
82411.491
83287.898
83866.292
85096.704
86089.324
87695.814
89315.474
91465.024
93885.524
96734.592
99885.546
103194.24
106406.24
109266.49
111557.64
113050.76
113683.17
113684.65
113177.67
112298.69
111184.81
109949.66
108681.44
107443.51
106275.78
105200.8
104242.26
103442.4
102834.68
102345.27
101753.29
101116.69
100725.8
100509.56
100404.4
100358.45
100339.03
100329.17
100301.25
100197.82
100107.44
100056.31
100030.06
100017.77
100012.69
100010.57
100009.25
100007.89
82718.683
83414.347
83855.241
84843.25
85468.264
86800.671
87899.15
89618.032
91387.005
93675.886
96261.935
99231.612
102438.73
105693.23
108737.38
111337.33
113274.83
114355.17
114668.13
114413.49
113697.01
112662.89
111438.75
110127.59
108808.06
107535.76
106344.5
105253.31
104285.76
103484.31
102876.18
102374.64
101758.44
101126.12
100739.84
100525.53
100418.88
100369.02
100344.7
100330.53
100290.23
100175.69
100096.97
100052.86
100030.71
100020.47
100016.02
100013.84
100012.27
100010.72
84180.921
84984.838
85431.649
86539.414
87217.061
88650.112
89866.072
91705.838
93643.162
96071.909
98808.787
101867.12
105075.19
108212.84
111033.35
113323.2
114855.73
115536.9
115565.49
115062.3
114154.91
112982.16
111660.83
110283.28
108919.26
107617.26
106405.61
105300.49
104325.77
103523.84
102914.7
102399.86
101763.73
101136.28
100754.2
100541.15
100432.36
100378.31
100349.23
100330.86
100272.35
100158.42
100089.39
100051.3
100032.19
100023.23
100019.07
100016.82
100015.17
100013.61
85771.291
86704.587
87144.777
88377.063
89121.869
90659.237
92011.468
93985.229
96097.821
98662.45
101522.58
104622.63
107766.72
110723.49
113267.07
115187.59
116285.59
116619.52
116369.15
115635.6
114556.53
113261.1
111854.7
110419.53
109017.14
107689.57
106460.29
105343.27
104363
103561.36
102950.38
102421.61
101769.67
101147.41
100768.93
100556.2
100444.48
100386.24
100353.58
100328.73
100250.19
100145.38
100084.09
100050.77
100033.95
100025.86
100021.9
100019.65
100018.01
100016.49
87514.996
88582.546
89009.947
90368.823
91206.926
92860.475
94369.958
96477.01
98764.623
101450.16
104389.94
107470.37
110479.79