/*--------------------------------*- C++ -*----------------------------------*\
  =========                 |
  \\      /  F ield         | OpenFOAM: The Open Source CFD Toolbox
   \\    /   O peration     | Website:  https://openfoam.org
    \\  /    A nd           | Version:  8
     \\/     M anipulation  |
\*---------------------------------------------------------------------------*/
FoamFile
{
    version     2.0;
    format      ascii;
    class       surfaceScalarField;
    location    "0.259994";
    object      phi;
}
// * * * * * * * * * * * * * * * * * * * * * * * * * * * * * * * * * * * * * //

dimensions      [1 0 -1 0 0 0 0];

internalField   nonuniform List<scalar> 
39600
(
0.00011828331
-0.0077272846
0.0076079146
8.4791605e-05
-0.010909123
0.010944491
4.9284859e-05
-0.014340663
0.014378427
8.6424767e-06
-0.018544188
0.018587359
-3.4589299e-05
-0.02386861
0.0239152
-6.1637484e-05
-0.030790881
0.030822141
-0.00026788474
-0.038565628
0.038776338
-0.00058113526
-0.046697311
0.047015147
-0.00096233959
-0.055593019
0.055979764
-0.0014190489
-0.066923815
0.067387479
-0.0019654709
-0.079880977
0.080435676
-0.0026196958
-0.096004886
0.096668737
-0.0034128285
-0.11478294
0.11558754
-0.004358981
-0.13782514
0.13878523
-0.0054808305
-0.16498671
0.16612483
-0.0068208519
-0.19803365
0.19939354
-0.0084119165
-0.23726008
0.2388747
-0.010313109
-0.28477411
0.28670441
-0.012571906
-0.34144222
0.34373621
-0.015272802
-0.40991101
0.41265479
-0.01848787
-0.49186504
0.49513249
-0.022336424
-0.59074631
0.59465953
-0.026933971
-0.70940623
0.71408423
-0.032453518
-0.8523736
0.8579944
-0.039087423
-1.0239959
1.0307582
-0.047099931
-1.230056
1.2382317
-0.056796256
-1.4763926
1.4862946
-0.068542331
-1.7699069
1.7819064
-0.0827213
-2.1180618
2.1325396
-0.099752285
-2.5301717
2.5475464
-0.120097
-3.0180073
3.0387309
-0.14426386
-3.5967911
3.6213653
-0.17280524
-4.2855845
4.3145566
-0.20629821
-5.1076048
5.1415587
-0.24534536
-6.0906217
6.1301773
-0.29053403
-7.2680507
7.3138161
-0.34248456
-8.6787143
8.7313168
-0.4017617
-10.370663
10.430668
-0.46876203
-12.399915
12.467683
-0.54342983
-14.835348
14.910803
-0.62503798
-17.75695
17.839393
-0.71165226
-21.264121
21.351711
-0.79955093
-25.474072
25.563183
-0.88226226
-30.53033
30.61461
-0.94879453
-36.603462
36.672227
-0.9844989
-43.901449
43.940073
-0.95661697
-52.651342
52.626686
-0.83908044
-63.167283
63.053327
-0.54772047
-75.781537
75.495526
-90.963142
90.428948
-2.222064e-05
-0.0077056865
-4.949803e-05
-0.010880191
-8.7530809e-05
-0.014300838
-0.00013227895
-0.018497137
-0.00018230695
-0.023815915
-0.00022050354
-0.030749075
-0.00043457376
-0.038347758
-0.00072687174
-0.04640068
-0.0010861331
-0.055228831
-0.0015144523
-0.066489577
-0.0020255679
-0.079362778
-0.0026366156
-0.095385184
-0.0033653988
-0.11404389
-0.0042346403
-0.13694329
-0.005266957
-0.16393936
-0.0065027904
-0.19677962
-0.0079685462
-0.23577241
-0.0097233574
-0.28299312
-0.011805461
-0.33932867
-0.014297568
-0.40738044
-0.017262119
-0.48885328
-0.020817072
-0.58713291
-0.025065919
-0.70508448
-0.030182658
-0.8471652
-0.036356453
-1.017706
-0.043868366
-1.222397
-0.053048785
-1.4670266
-0.064310044
-1.7584158
-0.07807153
-2.1040222
-0.094760937
-2.5131609
-0.11480903
-2.9976008
-0.13867874
-3.5725315
-0.16687645
-4.2569709
-0.19994481
-5.0740881
-0.23846771
-6.0516011
-0.28301799
-7.2229315
-0.33420225
-8.6268852
-0.39258287
-10.311564
-0.45856912
-12.333169
-0.53213694
-14.761003
-0.61259861
-17.675651
-0.69813338
-21.177599
-0.78517637
-25.385811
-0.86752361
-30.446401
-0.93459718
-36.534137
-0.97140511
-43.861863
-0.95229223
-52.667326
-0.83926353
-63.276518
-0.56425823
-76.051221
-91.474187
-2.7370466e-05
-0.0076792642
-5.9079518e-05
-0.010847527
-9.6246602e-05
-0.014262302
-0.00013746511
-0.018454211
-0.00018011815
-0.023770844
-0.0002097341
-0.030716159
-0.00041501734
-0.038139102
-0.00069715026
-0.046114457
-0.0010364917
-0.054884763
-0.0014416738
-0.06607865
-0.0019248659
-0.078872932
-0.0025080122
-0.09479361
-0.0031929305
-0.11334965
-0.0040142303
-0.13611057
-0.0049904542
-0.16294957
-0.0061602664
-0.19559332
-0.007545985
-0.23436703
-0.0092042842
-0.28131078
-0.011171186
-0.33733274
-0.013528239
-0.40498805
-0.016332112
-0.48600638
-0.019694635
-0.58371759
-0.023715761
-0.70099816
-0.028563017
-0.84223676
-0.034426725
-1.0117404
-0.041595667
-1.2151
-0.05041858
-1.4580428
-0.061334356
-1.7473006
-0.074785467
-2.0903289
-0.091205743
-2.4964545
-0.11100111
-2.9774777
-0.13459707
-3.5485707
-0.16245801
-4.2287134
-0.19509865
-5.0410146
-0.23308419
-6.0131296
-0.27697083
-7.1784852
-0.32736917
-8.5758505
-0.38484299
-10.25338
-0.44981679
-12.267444
-0.5222942
-14.687755
-0.60164561
-17.59546
-0.68614389
-21.092102
-0.77241993
-25.298298
-0.85451129
-30.36269
-0.92227949
-36.464071
-0.96156575
-43.81979
-0.94868054
-52.677002
-0.84242654
-63.37882
-0.58337725
-76.305079
-91.961413
-2.5554183e-05
-0.0076537004
-5.4699173e-05
-0.010817182
-8.8297272e-05
-0.014227261
-0.00012408563
-0.018416688
-0.00015866891
-0.023733901
-0.00018236285
-0.030689464
-0.0003833812
-0.03793505
-0.00065447685
-0.045840124
-0.00097588764
-0.054559238
-0.001358465
-0.065691137
-0.0018163055
-0.078409173
-0.0023647739
-0.094237827
-0.0030144529
-0.11269124
-0.0037937776
-0.13532057
-0.0047172382
-0.16201344
-0.005824152
-0.19447096
-0.0071330366
-0.23303969
-0.0086991864
-0.27972225
-0.010557465
-0.33544734
-0.012786645
-0.40272572
-0.015437768
-0.4833148
-0.018619781
-0.58048586
-0.022425432
-0.69713115
-0.027020159
-0.8375658
-0.032595768
-1.0060696
-0.039448456
-1.2081282
-0.047944905
-1.4493975
-0.058544767
-1.7365168
-0.071711109
-2.0769383
-0.087876874
-2.4800228
-0.10743042
-2.957617
-0.13076331
-3.524892
-0.15830491
-4.2007922
-0.19054138
-5.0083599
-0.22802681
-5.9751708
-0.27130075
-7.134662
-0.32097471
-8.5255501
-0.37761064
-10.196045
-0.44165735
-12.202658
-0.51314901
-14.615502
-0.59150898
-17.516262
-0.6751264
-21.007479
-0.76079128
-25.211383
-0.84282054
-30.279011
-0.91148553
-36.393083
-0.95411198
-43.774408
-0.94600173
-52.681838
-0.8482661
-63.472561
-0.60505557
-76.543203
-92.424587
-2.4197881e-05
-0.0076305247
-5.1186272e-05
-0.010789954
-8.119278e-05
-0.014196425
-0.00011149516
-0.018385159
-0.00013734216
-0.023706006
-0.00015677053
-0.030667217
-0.00035256768
-0.037736493
-0.00060379173
-0.045585653
-0.00090875516
-0.054250406
-0.0012712431
-0.065323831
-0.0017053426
-0.077969387
-0.0022247376
-0.093711464
-0.0028399335
-0.11206787
-0.0035786444
-0.13457187
-0.00445105
-0.1611292
-0.0054975281
-0.19341002
-0.0067326476
-0.23178724
-0.0082162036
-0.27821753
-0.0099767258
-0.33366143
-0.012087254
-0.40058438
-0.014592638
-0.48077206
-0.017594491
-0.57743842
-0.021189821
-0.69347994
-0.025546091
-0.83314064
-0.030853469
-1.0006769
-0.037415739
-1.20146
-0.045615695
-1.4410659
-0.055930902
-1.7260394
-0.068835699
-2.0638349
-0.084763941
-2.4638563
-0.10408594
-2.9380146
-0.12716779
-3.5014887
-0.15440634
-4.1731946
-0.18626633
-4.9760992
-0.22328026
-5.9376983
-0.2659879
-7.0914177
-0.31499206
-8.4759316
-0.37086782
-10.139483
-0.43407569
-12.138723
-0.50469185
-14.544136
-0.58219018
-17.437928
-0.66507059
-20.923584
-0.75030806
-25.12488
-0.83245863
-30.19517
-0.90225446
-36.320931
-0.94824978
-43.725678
-0.94524677
-52.681545
-0.8564826
-63.557348
-0.62943477
-76.765433
-92.863156
-2.0413602e-05
-0.007609053
-4.3535486e-05
-0.010765541
-6.9058722e-05
-0.014169476
-9.3438763e-05
-0.01835911
-0.00010997483
-0.023687259
-0.00012737259
-0.030647015
-0.00031763368
-0.037543562
-0.00055859819
-0.045341611
-0.00084775036
-0.053957577
-0.0011923228
-0.064974759
-0.0016029401
-0.077553513
-0.0020946358
-0.093213272
-0.0026758419
-0.11147899
-0.0033746002
-0.13386362
-0.0041980059
-0.16029455
-0.0051864911
-0.19240779
-0.0063558231
-0.23060152
-0.0077686223
-0.27678486
-0.0094413138
-0.33196468
-0.011439109
-0.39855727
-0.013804553
-0.47837098
-0.016632745
-0.57456666
-0.020019541
-0.69003975
-0.024145495
-0.82894898
-0.029203934
-0.99553737
-0.035502414
-1.1950613
-0.043437639
-1.433007
-0.053501798
-1.7158235
-0.066176311
-2.0509754
-0.081889494
-2.447921
-0.1009973
-2.9186443
-0.123842
-3.4783403
-0.15079537
-4.145899
-0.18230163
-4.9442076
-0.21888109
-5.9006742
-0.2610736
-7.0487015
-0.30947017
-8.4269336
-0.36465574
-10.083625
-0.42711457
-12.075552
-0.49695487
-14.473558
-0.57372667
-17.360325
-0.65602534
-20.840265
-0.74100791
-25.038616
-0.82348435
-30.110964
-0.89462951
-36.247396
-0.94412229
-43.6735
-0.94661049
-52.675827
-0.86732771
-63.632872
-0.65667037
-76.971691
-93.276967
-1.8850087e-05
-0.0075899222
-3.9463761e-05
-0.010744389
-6.1118183e-05
-0.014146863
-8.0081162e-05
-0.018338888
-8.6770935e-05
-0.023678581
-0.00010442395
-0.030626778
-0.00028836304
-0.037357171
-0.0005162325
-0.045110799
-0.00078958281
-0.053680784
-0.001115901
-0.064644136
-0.0015030989
-0.077161301
-0.0019686311
-0.092741426
-0.0025172473
-0.11092305
-0.0031779221
-0.13319393
-0.0039543139
-0.1595075
-0.0048909769
-0.19145811
-0.006003439
-0.22947352
-0.0073433929
-0.27542596
-0.0089223256
-0.3303631
-0.010808063
-0.39664411
-0.013040343
-0.47610554
-0.015714382
-0.57185229
-0.018914291
-0.68679069
-0.022815805
-0.82498735
-0.02763899
-0.99064053
-0.033700063
-1.1889098
-0.041403179
-1.4251929
-0.05125143
-1.7058396
-0.063727182
-2.038334
-0.079251889
-2.4321961
-0.098164497
-2.8994918
-0.12078886
-3.4554343
-0.1474771
-4.1188884
-0.17865653
-4.9126606
-0.21484102
-5.8640612
-0.25655654
-7.0064773
-0.30440088
-8.3785029
-0.3589779
-10.028392
-0.42078001
-12.013054
-0.48996178
-14.403651
-0.56613218
-17.28333
-0.64800418
-20.757369
-0.73291715
-24.952409
-0.81592512
-30.026185
-0.88865639
-36.172234
-0.94171528
-43.61781
-0.9502759
-52.664202
-0.88069833
-63.698971
-0.68682454
-77.161288
-93.665482
-1.5998615e-05
-0.0075727985
-3.3323725e-05
-0.010726259
-5.0730082e-05
-0.014128447
-6.3830229e-05
-0.018324379
-6.0103731e-05
-0.023680322
-7.9478469e-05
-0.030604959
-0.00025650496
-0.037177806
-0.00047262555
-0.044891899
-0.00073034589
-0.053419776
-0.0010393958
-0.064330974
-0.0014044646
-0.076791492
-0.0018451258
-0.092294849
-0.0023627314
-0.1103985
-0.0029870738
-0.13256099
-0.0037211827
-0.15876326
-0.0046130506
-0.19055385
-0.0056673266
-0.2284045
-0.0069285197
-0.2741469
-0.0084126789
-0.32885734
-0.010188255
-0.39484227
-0.012291223
-0.4739707
-0.014819942
-0.56928478
-0.017856775
-0.68370652
-0.021560506
-0.82122586
-0.026161467
-0.9859689
-0.032005742
-1.1829793
-0.039510313
-1.4175831
-0.049178852
-1.6960434
-0.061490916
-2.0258667
-0.076854329
-2.4166453
-0.095594946
-2.8805263
-0.11801918
-3.4327444
-0.1444624
-4.0921385
-0.17533909
-4.8814313
-0.21116172
-5.8278248
-0.25245337
-6.9646917
-0.29981551
-8.3305698
-0.35385252
-9.9737171
-0.4150895
-11.951138
-0.4837265
-14.334304
-0.55943217
-17.206806
-0.64104357
-20.674733
-0.72607122
-24.866077
-0.80983744
-29.940607
-0.88439003
-36.095196
-0.94129229
-43.558344
-0.95609695
-52.646736
-0.89684613
-63.75499
-0.72005715
-77.334534
-94.028311
-1.3138271e-05
-0.0075587676
-2.7258912e-05
-0.01071152
-4.0183701e-05
-0.014114715
-4.7398042e-05
-0.018315965
-3.2533511e-05
-0.023693268
-5.3133485e-05
-0.030582129
-0.00022264584
-0.037006077
-0.00042696518
-0.04468487
-0.00066980759
-0.05317383
-0.00096255215
-0.064034282
-0.0013071616
-0.076442335
-0.001724434
-0.091871848
-0.0022131115
-0.1099032
-0.0028043099
-0.13196161
-0.0035008184
-0.15805712
-0.0043463726
-0.18969651
-0.0053369132
-0.22739993
-0.0065236452
-0.27294308
-0.0079194305
-0.32744112
-0.009589592
-0.3931474
-0.01156871
-0.47196174
-0.013952648
-0.5668647
-0.016830315
-0.68078497
-0.020363921
-0.81763901
-0.024769585
-0.98149853
-0.030419014
-1.1772514
-0.037759737
-1.4101472
-0.047285179
-1.6864029
-0.059467967
-2.013544
-0.074700655
-2.4012427
-0.093292835
-2.8617282
-0.11553848
-3.4102524
-0.1417652
-4.0656234
-0.17237817
-4.8504828
-0.20787517
-5.7919304
-0.24879158
-6.9232979
-0.29572165
-8.2830863
-0.34929491
-9.9195247
-0.41007013
-11.889705
-0.47826986
-14.26541
-0.55365609
-17.13061
-0.63517124
-20.592196
-0.72051159
-24.779426
-0.80525408
-29.854018
-0.88205671
-36.015834
-0.94292683
-43.49504
-0.96398546
-52.62343
-0.91595368
-63.800803
-0.75649087
-77.491599
-94.365053
-1.0223145e-05
-0.007546468
-2.1137645e-05
-0.010699725
-2.9494241e-05
-0.014105183
-3.1245124e-05
-0.01831293
-6.2704499e-06
-0.023716143
-2.9629938e-05
-0.030556577
-0.00019036259
-0.036843151
-0.00038458324
-0.044488085
-0.00061396433
-0.052941462
-0.00089151891
-0.06375296
-0.0012166715
-0.076112885
-0.0016115009
-0.091471595
-0.0020718832
-0.10943652
-0.0026327695
-0.1313929
-0.0032921148
-0.15738859
-0.0040884598
-0.18888891
-0.0050192948
-0.22645575
-0.0061357539
-0.27181041
-0.0074469027
-0.32611041
-0.0090150359
-0.39155548
-0.010875571
-0.47007241
-0.013122561
-0.56458276
-0.015845829
-0.67801926
-0.01921768
-0.81421571
-0.023456107
-0.97719771
-0.028946175
-1.171686
-0.036157815
-1.4028447
-0.045578133
-1.6768735
-0.057666627
-2.0013235
-0.072799059
-2.3859507
-0.091274974
-2.8430587
-0.11337221
-3.3879226
-0.13940747
-4.0393139
-0.1697825
-4.8197863
-0.20499642
-5.7563336
-0.24557968
-6.8822528
-0.2921455
-8.2359842
-0.34533374
-9.8657368
-0.40573712
-11.828663
-0.47362827
-14.196841
-0.54882777
-17.054611
-0.63041818
-20.50959
-0.71626356
-24.692273
-0.80224117
-29.766166
-0.88258872
-35.932876
-0.94672766
-43.428575
-0.97423087
-52.593904
-0.93808665
-63.835463
-0.79620381
-77.631423
-94.675267
-8.8203988e-06
-0.0075357618
-1.7321971e-05
-0.010690574
-2.1843548e-05
-0.014099719
-1.8428678e-05
-0.018315235
1.5385454e-05
-0.023748036
-1.2409487e-05
-0.030526776
-0.00016413104
-0.036689439
-0.00034810612
-0.044301655
-0.00056423975
-0.052722531
-0.00082681218
-0.063486799
-0.0011329344
-0.075802661
-0.0015060534
-0.091093262
-0.0019393811
-0.10899719
-0.0024701937
-0.13085461
-0.0030914565
-0.15675858
-0.0038411076
-0.18812852
-0.0047159207
-0.22556817
-0.0057645896
-0.27074619
-0.0069937915
-0.32486261
-0.0084633546
-0.39006345
-0.010210259
-0.46829842
-0.012328366
-0.56243194
-0.014908414
-0.67539968
-0.018129993
-0.81094648
-0.022227897
-0.97304239
-0.027594095
-1.1662509
-0.034707669
-1.3956485
-0.044059696
-1.6674224
-0.056089405
-1.9891742
-0.071159179
-2.3707357
-0.089554394
-2.8244859
-0.1115295
-3.3657316
-0.1373903
-4.0131952
-0.16754916
-4.7893216
-0.20251939
-5.7209966
-0.24282922
-6.8414985
-0.28910027
-8.1891961
-0.34199022
-9.8122684
-0.40211401
-11.767922
-0.46981883
-14.128475
-0.54498856
-16.978651
-0.62681865
-20.426754
-0.71337773
-24.604414
-0.80082909
-29.676823
-0.88450927
-35.846557
-0.95278319
-43.358038
-0.98700529
-52.557709
-0.96320749
-63.857695
-0.83944429
-77.753118
-94.95869
-5.8556089e-06
-0.0075276401
-1.071119e-05
-0.010685128
-1.0201357e-05
-0.014099352
-3.5159721e-07
-0.018323975
4.2495869e-05
-0.02378903
1.0621568e-05
-0.030492989
-0.00013281488
-0.036544101
-0.00030671906
-0.044125412
-0.00051011377
-0.052516463
-0.00075846495
-0.063234998
-0.0010464727
-0.075510759
-0.0013987428
-0.090736014
-0.0018077793
-0.10858242
-0.0023094125
-0.13034583
-0.0028924638
-0.15616714
-0.0035972094
-0.1874135
-0.0044175903
-0.22473558
-0.0054005619
-0.2697484
-0.0065507554
-0.32369453
-0.0079310528
-0.38866144
-0.0095773137
-0.46662592
-0.011575616
-0.56040191
-0.014023163
-0.67291374
-0.017103638
-0.8078198
-0.021085345
-0.96900509
-0.026358697
-1.1609112
-0.033404543
-1.3885235
-0.042724859
-1.658008
-0.054739242
-1.9770465
-0.069787968
-2.35555
-0.088119932
-2.8059865
-0.10998552
-3.343662
-0.1356972
-3.9872382
-0.16567298
-4.7590528
-0.20043948
-5.6858771
-0.24053361
-6.8009759
-0.28658071
-8.1426506
-0.33925846
-9.7590332
-0.39922117
-11.707365
-0.46685833
-14.060195
-0.54214929
-16.902581
-0.62440648
-20.343503
-0.71188665
-24.51563
-0.8010659
-29.585737
-0.88810676
-35.75688
-0.96118344
-43.282768
-1.0030548
-52.514002
-0.99104974
-63.868204
-0.88623983
-77.857241
-95.214849
-4.6489004e-06
-0.0075208283
-6.7923837e-06
-0.010682526
-2.1461259e-06
-0.014103273
1.3199284e-05
-0.018338371
6.2706473e-05
-0.023836767
2.5155171e-05
-0.03045366
-0.00011064751
-0.036406535
-0.00027562086
-0.043958156
-0.00046715045
-0.052322417
-0.00070202689
-0.062996797
-0.00097267794
-0.075236397
-0.0013048006
-0.090399081
-0.00169008
-0.10819168
-0.0021634371
-0.12986558
-0.0027098727
-0.15561271
-0.0033710008
-0.18674249
-0.0041387127
-0.22395616
-0.0050590292
-0.26881381
-0.0061368459
-0.32259966
-0.0074387057
-0.38733901
-0.0089928576
-0.46504699
-0.010880548
-0.55848444
-0.013206601
-0.67055178
-0.01616337
-0.80482017
-0.020040078
-0.96507706
-0.025246766
-1.1556436
-0.032266944
-1.3814312
-0.041602323
-1.6485871
-0.053647159
-1.9648987
-0.06869392
-2.3403781
-0.086973795
-2.7875526
-0.10875225
-3.3216939
-0.13434785
-3.9614116
-0.16418292
-4.7289389
-0.19879472
-5.6509275
-0.23872785
-6.7606317
-0.28462162
-8.0962786
-0.33718493
-9.7059349
-0.3970906
-11.646888
-0.46479385
-13.991868
-0.54036053
-16.826246
-0.62323826
-20.259649
-0.711854
-24.4257
-0.80301201
-29.492643
-0.89371933
-35.663601
-0.97206028
-43.202362
-1.0222816
-52.462394
-1.021727
-63.867966
-0.93680564
-77.942774
-95.443325
-2.4216915e-06
-0.0075155848
-1.4900397e-06
-0.010682794
7.9457201e-06
-0.014111762
2.9867319e-05
-0.018359318
8.5245599e-05
-0.023890306
4.2636473e-05
-0.030409364
-8.517548e-05
-0.036277012
-0.00024097268
-0.043800197
-0.00042066905
-0.052140291
-0.00064236047
-0.062771904
-0.00089652538
-0.074978685
-0.0012105501
-0.090080452
-0.0015718613
-0.10782512
-0.0020161435
-0.12941471
-0.0025274973
-0.15509366
-0.0031465188
-0.18611399
-0.0038634994
-0.2232279
-0.004722628
-0.26794095
-0.0057367733
-0.32156904
-0.0069615684
-0.38609426
-0.0084196922
-0.46356483
-0.010201549
-0.55667357
-0.012419756
-0.66829869
-0.015282582
-0.80191556
-0.019087754
-0.96122215
-0.024260045
-1.1504124
-0.031301696
-1.3743201
-0.040697892
-1.6391092
-0.052793437
-1.9527053
-0.067847015
-2.3252062
-0.086102145
-2.769152
-0.10782663
-3.2997899
-0.13333854
-3.9356797
-0.16307141
-4.6989385
-0.19757815
-5.616096
-0.23741188
-6.7204028
-0.28322912
-8.0500023
-0.33575903
-9.6528915
-0.39573115
-11.586368
-0.46363255
-13.923363
-0.53964199
-16.749481
-0.62334519
-20.174991
-0.71333138
-24.334428
-0.80670439
-29.397267
-0.90140973
-35.566495
-0.98507421
-43.116812
-1.044436
-52.401764
-1.0555059
-63.855739
-0.99131771
-78.009967
-95.643646
6.7554777e-08
-0.0075126594
4.27961e-06
-0.010686408
1.8980616e-05
-0.014125563
4.8607888e-05
-0.018387969
0.00010872072
-0.023948628
6.0677349e-05
-0.030359762
-5.9099564e-05
-0.0361556
-0.0002061605
-0.043651046
-0.00037439059
-0.051969764
-0.00058335535
-0.062559862
-0.00082073777
-0.074737912
-0.0011172069
-0.089779537
-0.0014566161
-0.10748071
-0.0018732605
-0.12899169
-0.002350746
-0.15460881
-0.0029292861
-0.18552628
-0.0035979887
-0.22254837
-0.00440081
-0.26712497
-0.0053510118
-0.32060311
-0.0064967922
-0.38492952
-0.007861633
-0.46217724
-0.0095441314
-0.55496377
-0.011666357
-0.6661438
-0.014457449
-0.79908567
-0.018231966
-0.95740172
-0.023422
-1.1451683
-0.030532592
-1.3671461
-0.040010146
-1.6295571
-0.052164828
-1.9404614
-0.067253289
-2.3100095
-0.085516416
-2.7507547
-0.10721635
-3.2779229
-0.13267892
-3.9100097
-0.16235135
-4.6690111
-0.19680357
-5.5813329
-0.23660642
-6.6802218
-0.28241826
-8.0037522
-0.33501439
-9.5998043
-0.39516431
-11.525693
-0.46341503
-13.854529
-0.5400302
-16.672122
-0.6247582
-20.089318
-0.71634694
-24.241556
-0.81220139
-29.299313
-0.91120895
-35.465369
-1.000325
-43.026026
-1.0688193
-52.332068
-1.0939008
-63.829474
-1.049849
-78.061292
-95.815175
1.4901442e-06
-0.0075109696
8.0126354e-06
-0.010692366
2.6858889e-05
-0.014143556
6.3693294e-05
-0.018423896
0.00012577944
-0.024008973
7.1552854e-05
-0.030304072
-4.0992372e-05
-0.036041479
-0.0001800209
-0.043509981
-0.00033767414
-0.05180992
-0.00053451309
-0.062360028
-0.00075581314
-0.074513368
-0.0010343116
-0.089496748
-0.0013518069
-0.10715838
-0.00174223
-0.12859514
-0.0021874672
-0.15415644
-0.0027273028
-0.18497769
-0.003348969
-0.2219163
-0.0041029428
-0.26635831
-0.0049913213
-0.31969951
-0.0060563016
-0.38384614
-0.0073364465
-0.46087497
-0.008935381
-0.5533382
-0.010981882
-0.66406548
-0.01371104
-0.79631862
-0.017473423
-0.95359472
-0.022729508
-1.1398598
-0.029948524
-1.3598661
-0.03952786
-1.6199065
-0.05176942
-1.928135
-0.066926711
-2.2947495
-0.085225708
-2.7323288
-0.10693207
-3.2560581
-0.13238118
-3.8843627
-0.1620375
-4.6391098
-0.1964934
-5.546578
-0.23632237
-6.6400302
-0.28221588
-7.95744
-0.33497762
-9.5465728
-0.39542505
-11.464742
-0.464169
-13.785221
-0.54156638
-16.593994
-0.62749446
-20.00246
-0.72094024
-24.14676
-0.81984587
-29.198154
-0.92306196
-35.360374
-1.0185457
-42.929356
-1.0962987
-52.253107
-1.1359357
-63.78899
-1.1126094
-78.094759
-95.95709
3.599265e-06
-0.0075111617
1.3002599e-05
-0.010701187
3.6555853e-05
-0.014166254
8.2223026e-05
-0.018468638
0.00014496368
-0.024070022
8.5124516e-05
-0.030242834
-2.029673e-05
-0.035934586
-0.00015142728
-0.043376846
-0.00029886134
-0.051660401
-0.00048451067
-0.062171485
-0.00069198833
-0.074302775
-0.00095301999
-0.089231543
-0.0012474522
-0.10685932
-0.0016117759
-0.12822487
-0.0020260451
-0.15373536
-0.0025288388
-0.18446639
-0.0031077261
-0.22132739
-0.003812288
-0.26564157
-0.004640248
-0.318857
-0.0056311884
-0.38283767
-0.0068379071
-0.45964727
-0.0083695997
-0.55178141
-0.010358572
-0.66204672
-0.01305007
-0.79359195
-0.016826688
-0.94977699
-0.022175852
-1.1344627
-0.02952881
-1.3524574
-0.039239191
-1.6101313
-0.05160369
-1.915693
-0.06685665
-2.2794024
-0.085220937
-2.7138473
-0.1069654
-3.2341661
-0.13243822
-3.8587029
-0.16212419
-4.6091897
-0.19663864
-5.5117773
-0.23657002
-6.5997526
-0.28262976
-7.9109822
-0.33565395
-9.4931009
-0.39652507
-11.403387
-0.46591443
-13.715288
-0.54427412
-16.514917
-0.63162654
-19.914192
-0.72720174
-24.049782
-0.830157
-29.092847
-0.93687834
-35.25198
-1.0398056
-42.825493
-1.1271145
-52.165199
-1.1817544
-63.734095
-1.1796337
-78.106366
-96.068476
4.9574401e-06
-0.007512534
1.643121e-05
-0.010712078
4.3901206e-05
-0.014192893
9.8595845e-05
-0.018522381
0.00015915248
-0.024128967
9.3543807e-05
-0.030175896
-5.1589187e-06
-0.035834451
-0.00012839811
-0.04325167
-0.00026507626
-0.051521716
-0.0004381749
-0.06199555
-0.00063161958
-0.074106334
-0.0008773384
-0.088981775
-0.0011513245
-0.10658085
-0.0014916777
-0.12787877
-0.0018765809
-0.15334384
-0.0023433098
-0.18399152
-0.002885765
-0.22077528
-0.0035421965
-0.26497339
-0.0043079132
-0.31807717
-0.0052366823
-0.38189187
-0.006382713
-0.45848077
-0.00785036
-0.55028925
-0.0097885827
-0.66007936
-0.012477337
-0.7908688
-0.016319498
-0.94589476
-0.02178918
-1.1289463
-0.029291578
-1.3449012
-0.039164587
-1.600196
-0.051679488
-1.9031042
-0.06705555
-2.263937
-0.085513137
-2.6952786
-0.10732823
-3.2122108
-0.1328637
-3.8329887
-0.16262854
-4.5791994
-0.19726068
-5.4768698
-0.23737153
-6.5593104
-0.28367959
-7.8642957
-0.3370819
-9.4392716
-0.39849953
-11.341503
-0.46869376
-13.644564
-0.54820598
-16.4347
-0.63720514
-19.824284
-0.73518276
-23.950366
-0.84214845
-28.983478
-0.95337589
-35.139081
-1.063413
-42.714712
-1.1613838
-52.067438
-1.2315927
-63.664599
-1.2513919
-78.09619
-96.148444
6.6664629e-06
-0.0075154805
2.0314622e-05
-0.010725173
5.1836492e-05
-0.014223604
0.00011669488
-0.018586273
0.00017371525
-0.024184475
0.00010528217
-0.030106231
1.3805749e-05
-0.035741615
-0.0001010783
-0.043134858
-0.00022715774
-0.051393697
-0.00038863039
-0.061831309
-0.00056824663
-0.073923832
-0.00079954277
-0.088746536
-0.0010553832
-0.1063207
-0.0013731951
-0.12755539
-0.0017304637
-0.15298023
-0.0021641166
-0.18354996
-0.0026693706
-0.22026072
-0.0032786818
-0.26435278
-0.003987738
-0.31735459
-0.004862811
-0.38100056
-0.0059535559
-0.45737062
-0.0073593432
-0.54886038
-0.0092657158
-0.65814578
-0.011985399
-0.78811728
-0.015933083
-0.94191026
-0.021553393
-1.1232833
-0.029233698
-1.3371719
-0.03929854
-1.5900745
-0.051990493
-1.8903448
-0.067515704
-2.2483298
-0.086094925
-2.6765966
-0.10801419
-3.1901606
-0.13365342
-3.8071802
-0.16354808
-4.5490888
-0.19836508
-5.4417891
-0.23872709
-6.518633
-0.28538458
-7.8172802
-0.33926285
-9.3849878
-0.40137169
-11.278946
-0.47253275
-13.572887
-0.55339015
-16.353153
-0.6442585
-19.732501
-0.74491955
-23.848207
-0.85613309
-28.869927
-0.9726985
-35.020877
-1.0900183
-42.596719
-1.1986913
-51.959374
-1.2855422
-63.579636
-1.3278691
-78.062301
-96.19594
8.4665321e-06
-0.0075200747
2.430209e-05
-0.010740463
5.9453717e-05
-0.014257974
0.00013477991
-0.018660644
0.00018634773
-0.024234589
0.00012123499
-0.030039873
3.5752772e-05
-0.035654803
-7.2931397e-05
-0.043024299
-0.00019132284
-0.051273442
-0.00034508335
-0.061674847
-0.00051268145
-0.073753474
-0.00072819472
-0.088527192
-0.00096505099
-0.1060797
-0.0012603291
-0.12725473
-0.0015902776
-0.15264416
-0.0019958383
-0.18313681
-0.0024643867
-0.21978319
-0.0030252707
-0.26378095
-0.0036864739
-0.31668025
-0.0045109761
-0.38016023
-0.0055469516
-0.45631569
-0.00691338
-0.54747133
-0.0088171552
-0.65621534
-0.011599164
-0.78530407
-0.015676354
-0.9377971
-0.021471022
-1.1174471
-0.029363883
-1.3292316
-0.039648889
-1.5797351
-0.052546977
-1.8773824
-0.068251583
-2.2325472
-0.086981543
-2.6577691
-0.10903909
-3.1679786
-0.13482382
-3.7812332
-0.16489797
-4.5188063
-0.19996026
-5.4064731
-0.24065508
-6.4776369
-0.28775145
-7.7698448
-0.34223469
-9.3301196
-0.4051677
-11.215581
-0.47746082
-13.500087
-0.55986768
-16.270071
-0.65284969
-19.638585
-0.75645887
-23.743013
-0.8722003
-28.752043
-0.99474422
-34.896872
-1.120403
-42.47038
-1.238438
-51.841391
-1.3438136
-63.478341
-1.4093473
-78.004254
-96.210071
9.5669293e-06
-0.0075255952
2.6966834e-05
-0.010757304
6.4797601e-05
-0.014295015
0.00015008359
-0.018744961
0.00019404713
-0.024277132
0.00013150353
-0.02997611
5.1431869e-05
-0.035573464
-5.0593024e-05
-0.042920481
-0.00016070364
-0.051161551
-0.00030626817
-0.061526652
-0.00046283389
-0.073594247
-0.00066398963
-0.088322322
-0.00088301701
-0.10585669
-0.0011571864
-0.12697536
-0.001462057
-0.15233339
-0.0018389349
-0.18275257
-0.0022722673
-0.21934118
-0.0027885397
-0.26325414
-0.0034097719
-0.31604643
-0.0041874591
-0.37936743
-0.0051782852
-0.45530691
-0.0065282286
-0.54610008
-0.0084601806
-0.6542586
-0.011329873
-0.78240554
-0.015555973
-0.93353814
-0.021555784
-1.1114095
-0.029692681
-1.3210518
-0.040228018
-1.5691505
-0.053361116
-1.8641905
-0.069270799
-2.2165659
-0.088180849
-2.6387688
-0.110411
-3.1456319
-0.13638532
-3.7551048
-0.16669418
-4.4882976
-0.20207103
-5.3708532
-0.24317355
-6.4362483
-0.29081105
-7.721888
-0.34601806
-9.2745486
-0.40992437
-11.151261
-0.48352413
-13.425993
-0.56768578
-16.185249
-0.66304542
-19.542257
-0.76986677
-23.634469
-0.89033653
-28.629725
-1.0189977
-34.766999
-1.1527624
-42.335923
-1.2834831
-51.710036
-1.4064777
-63.361608
-1.4959368
-77.921148
-96.18981
1.1800793e-05
-0.0075331294
3.1741095e-05
-0.010776671
7.2980724e-05
-0.014335423
0.00016892866
-0.018839899
0.0002051082
-0.024311965
0.00014225146
-0.029912138
6.7792492e-05
-0.035497761
-2.7892259e-05
-0.042822999
-0.00012864316
-0.051059096
-0.00026448521
-0.061388215
-0.00040980047
-0.073446397
-0.00059799464
-0.088130516
-0.00080066352
-0.10565018
-0.0010553494
-0.12671565
-0.0013393146
-0.15204373
-0.0016869274
-0.18239786
-0.0020845559
-0.21893514
-0.0025634352
-0.26276504
-0.0031462513
-0.31545132
-0.0038813739
-0.37861759
-0.0048449976
-0.45432565
-0.0061975583
-0.54472668
-0.0081815609
-0.65225014
-0.011162064
-0.77939682
-0.015563359
-0.9291046
-0.021807366
-1.1051287
-0.030222917
-1.3125945
-0.041039779
-1.5582861
-0.054424119
-1.8507501
-0.070552951
-2.200369
-0.089669754
-2.6195662
-0.11210901
-3.1230817
-0.13831974
-3.7287462
-0.16892992
-4.4574943
-0.20469386
-5.3348552
-0.2462984
-6.3943712
-0.29457566
-7.6733095
-0.350626
-9.2181542
-0.41565859
-11.085834
-0.49074519
-13.350428
-0.57688396
-16.098464
-0.67489386
-19.443235
-0.78581996
-23.521651
-0.91066894
-28.503338
-1.0459379
-34.630768
-1.1887081
-42.19244
-1.3327806
-51.565311
-1.4731257
-63.228041
-1.5877621
-77.811742
-96.134325
1.2203053e-05
-0.0075410564
3.3127751e-05
-0.010797094
7.6355934e-05
-0.014377881
0.00018120426
-0.018943752
0.00020806317
-0.024337542
0.00014573773
-0.029848693
7.6399729e-05
-0.035427239
-1.4110743e-05
-0.042730724
-0.0001085019
-0.050963087
-0.00023523545
-0.061258959
-0.00036834881
-0.073310847
-0.00054286438
-0.08795249
-0.00072941725
-0.10545994
-0.00096403719
-0.12647614
-0.0012270725
-0.15177518
-0.0015490493
-0.18206897
-0.0019140839
-0.21856196
-0.0023624034
-0.26230686
-0.0029095103
-0.31489242
-0.0036085052
-0.37790455
-0.0045556474
-0.45336182
-0.0059212786
-0.5433415
-0.0079758976
-0.65017288
-0.011100663
-0.77624614
-0.015726559
-0.92444934
-0.022255957
-1.0985658
-0.030981984
-1.3038307
-0.042093551
-1.5471315
-0.055736893
-1.8370556
-0.072106278
-2.1839371
-0.091458637
-2.6001344
-0.11414512
-3.1002914
-0.14064111
-3.7021098
-0.17161499
-4.4263345
-0.20785642
-5.2983893
-0.2500537
-6.3519157
-0.29907519
-7.6240053
-0.35610184
-9.1608032
-0.42241417
-11.019148
-0.49917106
-13.273214
-0.58750536
-16.009492
-0.68845711
-19.34122
-0.8039185
-23.404259
-0.93334503
-28.372489
-1.075668
-34.487669
-1.2282775
-42.039286
-1.3861556
-51.40705
-1.5448098
-63.07607
-1.6852187
-77.67618
-96.042735
1.430426e-05
-0.0075508658
3.7743112e-05
-0.010820037
8.4654015e-05
-0.01442399
0.00019856865
-0.019056662
0.0002174044
-0.024355166
0.00015979619
-0.029789995
9.5902107e-05
-0.035362212
1.0864664e-05
-0.042643983
-7.7136642e-05
-0.050873529
-0.00019614619
-0.061137511
-0.0003183607
-0.07318631
-0.00048064722
-0.087786778
-0.00065252495
-0.10528449
-0.00086907037
-0.12625485
-0.0011108885
-0.15152801
-0.001408093
-0.18176508
-0.0017458644
-0.21821628
-0.0021641594
-0.26187897
-0.0026795534
-0.31436553
-0.0033568778
-0.37721351
-0.0042971844
-0.45240511
-0.0056865397
-0.54193296
-0.0078359225
-0.6480011
-0.011146613
-0.77291003
-0.016049197
-0.91951794
-0.022902368
-1.0916802