/*--------------------------------*- C++ -*----------------------------------*\
  =========                 |
  \\      /  F ield         | OpenFOAM: The Open Source CFD Toolbox
   \\    /   O peration     | Website:  https://openfoam.org
    \\  /    A nd           | Version:  8
     \\/     M anipulation  |
\*---------------------------------------------------------------------------*/
FoamFile
{
    version     2.0;
    format      ascii;
    class       pointVectorField;
    location    "0.259994";
    object      pointDisplacement;
}
// * * * * * * * * * * * * * * * * * * * * * * * * * * * * * * * * * * * * * //

dimensions      [0 1 0 0 0 0 0];

internalField   nonuniform List<vector> 
40800
(
(0.0025758034 0 0.0022434726)
(0.0025832628 0 0.0018730802)
(0.0025828533 0 0.0018746372)
(0.0025751848 0 0.0022527188)
(0.0025828275 0 0.0018735706)
(0.0025751668 0 0.0022516137)
(0.0025827646 0 0.0018721564)
(0.0025751083 0 0.0022503886)
(0.0025826437 0 0.0018705033)
(0.0025749937 0 0.0022489635)
(0.0025824393 0 0.0018685797)
(0.0025747983 0 0.0022473079)
(0.0025821159 0 0.001866356)
(0.0025744872 0 0.002245398)
(0.0025816242 0 0.0018638066)
(0.0025740126 0 0.0022432149)
(0.0025808969 0 0.0018609148)
(0.0025733082 0 0.0022407489)
(0.0025798422 0 0.0018576804)
(0.0025722844 0 0.0022380077)
(0.0025783358 0 0.0018541311)
(0.002570819 0 0.0022350273)
(0.0025762105 0 0.0018503391)
(0.0025687483 0 0.002231889)
(0.0025732434 0 0.0018464466)
(0.0025658529 0 0.002228744)
(0.0025691387 0 0.001842702)
(0.0025618424 0 0.002225849)
(0.0025635087 0 0.0018395121)
(0.0025563351 0 0.0022236168)
(0.0025558498 0 0.0018375169)
(0.0025488349 0 0.0022226875)
(0.0025455167 0 0.0018376919)
(0.0025387052 0 0.002224027)
(0.002531696 0 0.0018414905)
(0.0025251417 0 0.002229062)
(0.002513382 0 0.0018510353)
(0.0025071476 0 0.0022398583)
(0.0024893633 0 0.0018693613)
(0.0024835181 0 0.0022593482)
(0.0024582256 0 0.0019006883)
(0.0024528415 0 0.0022915908)
(0.002418389 0 0.0019506763)
(0.0024135327 0 0.0023420267)
(0.002368192 0 0.0020266047)
(0.002363912 0 0.0024176581)
(0.0023060352 0 0.0021373263)
(0.0023023447 0 0.0025270293)
(0.0022305917 0 0.002292911)
(0.0022274474 0 0.0026798864)
(0.0021410538 0 0.0025038336)
(0.0021383366 0 0.002886374)
(0.0020373704 0 0.0027794696)
(0.0020348806 0 0.0031555902)
(0.0019204174 0 0.0031261021)
(0.0019178891 0 0.0034936252)
(0.0017920349 0 0.0035448135)
(0.0017891752 0 0.00390143)
(0.0016548882 0 0.0040298407)
(0.0016514355 0 0.0043731548)
(0.0015122359 0 0.0045677064)
(0.001508022 0 0.0048952571)
(0.0013676091 0 0.0051380459)
(0.0013625991 0 0.0054473769)
(0.0012244944 0 0.0057157754)
(0.0012187899 0 0.0060045567)
(0.0010860885 0 0.0062740063)
(0.0010799008 0 0.0065402259)
(0.00095503893 0 0.0067876384)
(0.00094863465 0 0.0070298244)
(0.00083325516 0 0.007236171)
(0.00082689635 0 0.0074535884)
(0.00072188399 0 0.0076046618)
(0.00071579166 0 0.0077973571)
(0.00062137687 0 0.0078837066)
(0.00061570921 0 0.0080524324)
(0.0005316042 0 0.008068314)
(0.00052645601 0 0.0082143409)
(0.00045207288 0 0.0081556902)
(0.00044748773 0 0.0082805966)
(0.00038206055 0 0.0081443565)
(0.00037804443 0 0.0082498979)
(0.00032071513 0 0.0080315576)
(0.00031724815 0 0.0081194067)
(0.00026714329 0 0.0078119132)
(0.00026419218 0 0.0078835999)
(0.00022046241 0 0.0074779227)
(0.00021798815 0 0.0075349137)
(0.00017979183 0 0.007018306)
(0.00017775392 0 0.0070620104)
(0.00014424287 0 0.0064161943)
(0.00014260325 0 0.0064479611)
(0.00011284055 0 0.0056477353)
(0.0001115656 0 0.0056690153)
(8.436871e-05 0 0.0046791988)
(8.3426026e-05 0 0.004691724)
(5.7314642e-05 0 0.0034597473)
(5.6682637e-05 0 0.0034656641)
(2.9671539e-05 0 0.0019096312)
(2.9344455e-05 0 0.0019114048)
(0 0 0)
(0 0 0)
(0.0025891391 0 0.0015106305)
(0.0025887398 0 0.0015119029)
(0.0025887144 0 0.0015104685)
(0.002588648 0 0.0015087865)
(0.0025885222 0 0.0015068111)
(0.002588311 0 0.0015045037)
(0.0025879781 0 0.0015018226)
(0.0025874732 0 0.0014987286)
(0.0025867278 0 0.0014951887)
(0.0025856482 0 0.0014911848)
(0.0025841081 0 0.0014867243)
(0.0025819374 0 0.0014818577)
(0.0025789094 0 0.0014767037)
(0.0025747242 0 0.0014714863)
(0.0025689883 0 0.0014665882)
(0.0025611917 0 0.0014626266)
(0.0025506816 0 0.0014605598)
(0.0025366367 0 0.0014618367)
(0.0025180443 0 0.0014686021)
(0.0024936876 0 0.0014839682)
(0.0024621507 0 0.0015122915)
(0.0024218589 0 0.0015594185)
(0.0023711671 0 0.0016328835)
(0.0023085093 0 0.0017418278)
(0.0022326132 0 0.001896646)
(0.002142744 0 0.0021081991)
(0.0020389279 0 0.0023862347)
(0.0019221048 0 0.0027373606)
(0.0017941415 0 0.0031629656)
(0.001657675 0 0.0036575611)
(0.001515875 0 0.0042079059)
(0.0013721449 0 0.0047937653)
(0.0012298384 0 0.0053900181)
(0.0010920405 0 0.0059695159)
(0.00096133626 0 0.0065066458)
(0.00083962836 0 0.0069801759)
(0.00072809552 0 0.0073743165)
(0.0006272444 0 0.0076788792)
(0.00053700781 0 0.0078882154)
(0.00045694556 0 0.0079990873)
(0.00038637684 0 0.0080097158)
(0.00032447964 0 0.0079172948)
(0.00027037858 0 0.0077165443)
(0.00022319939 0 0.0073999669)
(0.00018206523 0 0.0069563046)
(0.00014608623 0 0.006368734)
(0.00011428294 0 0.0056133392)
(8.5437887e-05 0 0.0046561393)
(5.8030088e-05 0 0.003446006)
(3.0036455e-05 0 0.0019031629)
(0 0 0)
(0.0025934671 0 0.0011559585)
(0.0025930779 0 0.00115708)
(0.0025930483 0 0.0011554019)
(0.0025929761 0 0.0011534302)
(0.0025928427 0 0.0011511122)
(0.0025926213 0 0.0011483978)
(0.0025922747 0 0.0011452343)
(0.0025917518 0 0.0011415696)
(0.0025909822 0 0.0011373563)
(0.0025898707 0 0.0011325595)
(0.0025882882 0 0.0011271677)
(0.0025860617 0 0.0011212097)
(0.0025829602 0 0.0011147809)
(0.0025786788 0 0.0011080798)
(0.002572818 0 0.0011014635)
(0.0025648603 0 0.0010955244)
(0.002554145 0 0.0010912019)
(0.0025398426 0 0.0010899389)
(0.0025209335 0 0.0010939036)
(0.0024961964 0 0.0011063165)
(0.0024642141 0 0.0011316996)
(0.0024234178 0 0.0011760783)
(0.0023721818 0 0.0012472504)
(0.0023089773 0 0.0013546258)
(0.0022325934 0 0.0015088866)
(0.0021423769 0 0.0017212673)
(0.0020384382 0 0.0020018445)
(0.0019217857 0 0.0023574872)
(0.0017943163 0 0.0027898339)
(0.0016586366 0 0.0032936262)
(0.0015178237 0 0.0038558333)
(0.0013751468 0 0.0044563565)
(0.0012338196 0 0.0050700853)
(0.0010968072 0 0.0056696813)
(0.00096662429 0 0.0062291075)
(0.00084515826 0 0.0067264963)
(0.00073361369 0 0.0071452746)
(0.00063254917 0 0.0074745075)
(0.0005419587 0 0.0077079016)
(0.0004614564 0 0.007841757)
(0.00039040544 0 0.0078739756)
(0.00032801654 0 0.0078016704)
(0.00027343494 0 0.0076196281)
(0.00022579718 0 0.0073203468)
(0.00018423198 0 0.006892579)
(0.00014784992 0 0.0063195433)
(0.00011566825 0 0.005577271)
(8.6468512e-05 0 0.0046315614)
(5.8722163e-05 0 0.0034310473)
(3.0390678e-05 0 0.0018960082)
(0 0 0)
(0.0025962953 0 0.00080890305)
(0.0025959147 0 0.00080987656)
(0.0025958787 0 0.00080795926)
(0.0025957982 0 0.00080570267)
(0.002595654 0 0.00080304603)
(0.0025954186 0 0.0007999293)
(0.0025950538 0 0.00079628838)
(0.0025945071 0 0.00079205776)
(0.0025937068 0 0.00078717496)
(0.0025925552 0 0.00078158765)
(0.0025909207 0 0.00077526472)
(0.0025886266 0 0.00076821362)
(0.0025854376 0 0.00076050571)
(0.0025810431 0 0.00075231413)
(0.0025750369 0 0.00074396912)
(0.0025668935 0 0.00073603763)
(0.0025559436 0 0.00072943753)
(0.002541349 0 0.0007256012)
(0.0025220847 0 0.00072670743)
(0.0024969267 0 0.00073615942)
(0.0024644549 0 0.00075869139)
(0.0024231069 0 0.00080045256)
(0.0023712794 0 0.00086952829)
(0.0023074844 0 0.00097557228)
(0.0022305805 0 0.0011294999)
(0.0021400046 0 0.0013429281)
(0.0020359565 0 0.0016262187)
(0.0019195175 0 0.0019864349)
(0.0017926158 0 0.0024254123)
(0.0016578262 0 0.0029380807)
(0.0015181284 0 0.0035115924)
(0.0013766522 0 0.0041259852)
(0.0012364645 0 0.0047562016)
(0.0011004048 0 0.0053747746)
(0.00097090994 0 0.0059553263)
(0.00084984481 0 0.006475447)
(0.00073843372 0 0.0069178446)
(0.00063728368 0 0.0072708797)
(0.00054644822 0 0.0075276322)
(0.00046559664 0 0.0076839258)
(0.00039413818 0 0.0077373285)
(0.0003313186 0 0.0076848451)
(0.00027630622 0 0.0075212976)
(0.00022825064 0 0.0072391701)
(0.00018628794 0 0.0068272154)
(0.00014953069 0 0.0062686898)
(0.00011699404 0 0.0055395822)
(8.745887e-05 0 0.0046055034)
(5.9389762e-05 0 0.0034148952)
(3.073366e-05 0 0.0018881759)
(0 0 0)
(0.0025976699 0 0.00046930541)
(0.0025972941 0 0.00047013291)
(0.0025972495 0 0.00046797764)
(0.0025971581 0 0.00046543765)
(0.0025969999 0 0.00046244388)
(0.0025967465 0 0.00045892639)
(0.0025963588 0 0.00045480969)
(0.0025957827 0 0.00045001503)
(0.0025949446 0 0.00044446461)
(0.0025937446 0 0.00043808857)
(0.0025920479 0 0.00043083598)
(0.002589674 0 0.00042269196)
(0.0025863826 0 0.0004137033)
(0.0025818572 0 0.00040401652)
(0.0025756839 0 0.00039393363)
(0.0025673287 0 0.00038399339)
(0.0025561126 0 0.00037508967)
(0.0025411884 0 0.00036864486)
(0.0025215302 0 0.00036699869)
(0.0024959142 0 0.00037371341)
(0.0024629111 0 0.00039357292)
(0.0024209646 0 0.00043285169)
(0.0023684974 0 0.00049981243)
(0.0023040665 0 0.00060456835)
(0.0022266111 0 0.00075840355)
(0.0021356664 0 0.00097312828)
(0.0020315249 0 0.0012593383)
(0.0019153443 0 0.0016242176)
(0.0017890852 0 0.0020697507)
(0.0016552875 0 0.0025910159)
(0.0015168286 0 0.003175321)
(0.0013766937 0 0.0038028385)
(0.0012377977 0 0.0044486013)
(0.0011028488 0 0.0050850699)
(0.00097420049 0 0.0056856022)
(0.00085368854 0 0.0062273387)
(0.00074255138 0 0.0066923313)
(0.00064144077 0 0.0070682818)
(0.00055046789 0 0.0073476652)
(0.00046935756 0 0.0075258192)
(0.00039756682 0 0.0075999659)
(0.00033437842 0 0.0075669782)
(0.00027898604 0 0.0074216835)
(0.00023055444 0 0.0071565419)
(0.00018822877 0 0.006760296)
(0.00015112514 0 0.0062162367)
(0.00011825769 0 0.0055003197)
(8.8407082e-05 0 0.0045779978)
(6.0031691e-05 0 0.0033975706)
(3.1064847e-05 0 0.0018796753)
(0 0 0)
(0.0025976261 0 0.0001370111)
(0.0025972554 0 0.00013769382)
(0.0025972001 0 0.00013530111)
(0.0025970951 0 0.00013247839)
(0.0025969197 0 0.00012914829)
(0.0025966445 0 0.00012523093)
(0.0025962292 0 0.00012063939)
(0.002595618 0 0.00011528163)
(0.0025947353 0 0.00010906457)
(0.0025934786 0 0.00010190066)
(0.0025917096 0 9.3718834e-05)
(0.0025892434 0 8.4481527e-05)
(0.0025858345 0 7.421007e-05)
(0.0025811595 0 6.3022867e-05)
(0.0025747964 0 5.1191255e-05)
(0.0025662016 0 3.9222326e-05)
(0.0025546863 0 2.7985172e-05)
(0.0025394013 0 1.9046827e-05)
(0.0025193212 0 1.5014261e-05)
(0.0024932076 0 1.9361022e-05)
(0.002459622 0 3.6768497e-05)
(0.002417021 0 7.3706474e-05)
(0.0023638608 0 0.00013848829)
(0.0022987542 0 0.00024173943)
(0.002220722 0 0.00039551802)
(0.0021294025 0 0.0006118177)
(0.0020251876 0 0.00090118608)
(0.001909313 0 0.0012708448)
(0.0017837727 0 0.001722889)
(0.0016510678 0 0.0022525073)
(0.0015139677 0 0.0028471366)
(0.0013753082 0 0.0034870789)
(0.0012378476 0 0.0041474924)
(0.0011041585 0 0.0048008146)
(0.00097650679 0 0.0054202104)
(0.00085669329 0 0.0059824607)
(0.00074596529 0 0.0064690223)
(0.00064501566 0 0.0068669866)
(0.00055401103 0 0.0071682499)
(0.00047273177 0 0.0073676575)
(0.00040068399 0 0.0074620766)
(0.00033718924 0 0.0074482277)
(0.00028146842 0 0.0073209165)
(0.0002327035 0 0.0070725676)
(0.00019005029 0 0.006691904)
(0.00015262993 0 0.0061622479)
(0.00011945664 0 0.0054595317)
(8.9311326e-05 0 0.0045490799)
(6.06468e-05 0 0.0033790977)
(3.1383669e-05 0 0.001870516)
(0 0 0)
(0.0025962043 0 -0.00018813037)
(0.0025958381 0 -0.00018759233)
(0.0025957698 0 -0.00019022268)
(0.0025956487 0 -0.00019332829)
(0.0025954529 0 -0.00019699478)
(0.0025951522 0 -0.00020131182)
(0.0025947046 0 -0.00020637787)
(0.0025940527 0 -0.00021229823)
(0.0025931185 0 -0.00021918131)
(0.0025917965 0 -0.00022713243)
(0.0025899447 0 -0.00023624302)
(0.0025873735 0 -0.00024657379)
(0.0025838313 0 -0.00025812982)
(0.0025789872 0 -0.00027082274)
(0.0025724102 0 -0.00028441571)
(0.0025635465 0 -0.00029843742)
(0.0025517052 0 -0.00031191907)
(0.0025360406 0 -0.00032304661)
(0.0025155084 0 -0.00032925624)
(0.0024888461 0 -0.00032721841)
(0.0024546196 0 -0.00031215321)
(0.0024113046 0 -0.00027740702)
(0.0023573959 0 -0.00021446618)
(0.0022915757 0 -0.00011256731)
(0.0022129484 0 4.0982735e-05)
(0.0021212547 0 0.00025894975)
(0.0020169901 0 0.00055174827)
(0.0019014724 0 0.00092632402)
(0.0017767292 0 0.0013848592)
(0.0016452172 0 0.0019226178)
(0.0015095922 0 0.0025271389)
(0.0013725358 0 0.0031788471)
(0.0012366459 0 0.0038530585)
(0.0011043567 0 0.0045222312)
(0.00097784298 0 0.0051594022)
(0.00085886587 0 0.0057410811)
(0.00074867649 0 0.0062481885)
(0.00064800544 0 0.0066672547)
(0.00055707253 0 0.0069896271)
(0.00047571304 0 0.0072096557)
(0.00040348328 0 0.0073238461)
(0.00033974492 0 0.0073287506)
(0.00028374785 0 0.0072191266)
(0.00023469303 0 0.0069873531)
(0.00019174849 0 0.006622123)
(0.00015404181 0 0.0061067883)
(0.00012058835 0 0.0054172671)
(9.0169759e-05 0 0.0045187848)
(6.1233882e-05 0 0.003359499)
(3.1689536e-05 0 0.0018607077)
(0 0 0)
(0.0025934464 0 -0.0005062681)
(0.0025930836 0 -0.00050587367)
(0.0025930001 0 -0.00050874155)
(0.00259286 0 -0.00051212984)
(0.0025926406 0 -0.00051613248)
(0.0025923102 0 -0.00052084891)
(0.0025918254 0 -0.00052638904)
(0.0025911268 0 -0.00053287143)
(0.0025901337 0 -0.00054041992)
(0.0025887375 0 -0.00054915749)
(0.002586792 0 -0.00055919592)
(0.0025841022 0 -0.00057061939)
(0.0025804101 0 -0.00058345981)
(0.0025753762 0 -0.00059766037)
(0.0025685597 0 -0.0006130248)
(0.0025594033 0 -0.00062903694)
(0.0025472201 0 -0.00064452473)
(0.0025311491 0 -0.0006576826)
(0.0025101166 0 -0.00066613891)
(0.002482852 0 -0.00066647099)
(0.0024479311 0 -0.00065370639)
(0.0024038488 0 -0.00062101632)
(0.0023491419 0 -0.0005595522)
(0.002282567 0 -0.00045841757)
(0.0022033263 0 -0.00030485386)
(0.0021112654 0 -8.5309153e-05)
(0.0020069797 0 0.00021101574)
(0.0018918732 0 0.00059066069)
(0.0017680076 0 0.0010556862)
(0.0016377887 0 0.0016013977)
(0.0015037516 0 0.0022154105)
(0.0013684196 0 0.0028782626)
(0.0012342277 0 0.0035654595)
(0.0011034695 0 0.0042495179)
(0.00097822619 0 0.0049034055)
(0.00086021576 0 0.0055034479)
(0.00075068846 0 0.0060300833)
(0.00065040944 0 0.0064693327)
(0.0005596489 0 0.0068120273)
(0.00047829643 0 0.0070520217)
(0.00040595916 0 0.0071854561)
(0.00034203998 0 0.0072087013)
(0.00028581925 0 0.0071164432)
(0.00023651855 0 0.006901004)
(0.00019331956 0 0.0065510374)
(0.00015535764 0 0.0060499234)
(0.00012165035 0 0.0053735752)
(9.0980529e-05 0 0.0044871478)
(6.1791749e-05 0 0.0033387989)
(3.1981854e-05 0 0.001850261)
(0 0 0)
(0.0025893939 0 -0.00081754685)
(0.0025890314 0 -0.00081729503)
(0.0025889305 0 -0.00082040007)
(0.0025887685 0 -0.00082407059)
(0.0025885219 0 -0.00082840891)
(0.0025881576 0 -0.00083352423)
(0.0025876304 0 -0.00083953772)
(0.0025868787 0 -0.00084658124)
(0.0025858192 0 -0.00085479398)
(0.0025843394 0 -0.00086431639)
(0.0025822887 0 -0.00087528029)
(0.0025794664 0 -0.00088779253)
(0.0025756071 0 -0.00090191007)
(0.002570362 0 -0.00091760259)
(0.002563284 0 -0.00093469892)
(0.0025538192 0 -0.00095254737)
(0.0025412715 0 -0.00096991634)
(0.0025247519 0 -0.00098516484)
(0.0025031699 0 -0.00099590358)
(0.002475253 0 -0.00099856132)
(0.0024395836 0 -0.00098803515)
(0.0023946814 0 -0.00095727191)
(0.0023391307 0 -0.00089709662)
(0.0022717657 0 -0.00079629919)
(0.0021918968 0 -0.00064206488)
(0.0020994741 0 -0.00042079381)
(0.0019951998 0 -0.00012101865)
(0.0018805683 0 0.00026385743)
(0.0017576638 0 0.00073538722)
(0.0016288379 0 0.0012888851)
(0.0014964983 0 0.0019120178)
(0.0013630058 0 0.0025854245)
(0.001230631 0 0.0032848312)
(0.001101528 0 0.0039830039)
(0.00097768081 0 0.0046527539)
(0.00086075789 0 0.0052700963)
(0.00075200843 0 0.0058152126)
(0.00065222919 0 0.0062735888)
(0.00056173825 0 0.0066356726)
(0.00048047825 0 0.0068949564)
(0.00040810704 0 0.0070470834)
(0.00034406964 0 0.0070882317)
(0.00028767805 0 0.0070129942)
(0.0002381759 0 0.0068136258)
(0.00019475986 0 0.0064787314)
(0.0001565744 0 0.0059917192)
(0.0001226402 0 0.0053285064)
(9.1741804e-05 0 0.004454205)
(6.2319175e-05 0 0.0033170213)
(3.2260016e-05 0 0.0018391866)
(0 0 0)
(0.0025840805 0 -0.0011221081)
(0.0025837172 0 -0.0011219979)
(0.0025835963 0 -0.0011253398)
(0.0025834097 0 -0.0011292923)
(0.0025831324 0 -0.001133966)
(0.00258273 0 -0.0011394797)
(0.0025821553 0 -0.0011459661)
(0.0025813443 0 -0.00115357)
(0.0025802106 0 -0.0011624459)
(0.0025786379 0 -0.0011727518)
(0.0025764706 0 -0.0011846393)
(0.0025735018 0 -0.0011982378)
(0.002569458 0 -0.0012136294)
(0.0025639814 0 -0.001230812)
(0.0025566237 0 -0.0012495493)
(0.002546831 0 -0.0012691195)
(0.0025338856 0 -0.001288388)
(0.0025168746 0 -0.0013057454)
(0.0024946972 0 -0.0013187157)
(0.0024660759 0 -0.0013236467)
(0.002429603 0 -0.0013152953)
(0.002383829 0 -0.0012863277)
(0.0023273911 0 -0.0012272275)
(0.0022592051 0 -0.0011265034)
(0.002178695 0 -0.00097109778)
(0.0020859156 0 -0.00074775048)
(0.0019816952 0 -0.00044439282)
(0.0018676133 0 -5.4087418e-05)
(0.001745756 0 0.00042397041)
(0.0016184231 0 0.00098510486)
(0.0014878872 0 0.0016170086)
(0.0013563488 0 0.0023005992)
(0.0012259092 0 0.0030116996)
(0.0010985763 0 0.0037232641)
(0.00097623745 0 0.0044080438)
(0.00086051042 0 0.0050416069)
(0.00075264531 0 0.0056041161)
(0.00065346694 0 0.0060805101)
(0.00056333964 0 0.0064608994)
(0.000482256 0 0.0067386543)
(0.0004099233 0 0.0069088998)
(0.00034582978 0 0.006967491)
(0.00028932013 0 0.006908906)
(0.00023966124 0 0.0067253234)
(0.00019606598 0 0.0064052899)
(0.00015768917 0 0.0059322423)
(0.00012355551 0 0.0052821115)
(9.2451789e-05 0 0.0044199945)
(6.2814938e-05 0 0.0032941912)
(3.2523383e-05 0 0.0018274948)
(0 0 0)
(0.0025775392 0 -0.0014200901)
(0.0025771769 0 -0.0014201215)
(0.0025770337 0 -0.0014237008)
(0.0025768195 0 -0.0014279357)
(0.002576508 0 -0.0014329451)
(0.0025760631 0 -0.0014388575)
(0.0025754357 0 -0.0014458166)
(0.002574559 0 -0.0014539804)
(0.0025733433 0 -0.0014635186)
(0.0025716681 0 -0.0014746064)
(0.0025693722 0 -0.0014874154)
(0.0025662421 0 -0.0015020971)
(0.0025619957 0 -0.0015187583)
(0.0025562693 0 -0.0015374252)
(0.0025486159 0 -0.0015577467)
(0.0025384703 0 -0.0015789993)
(0.0025250908 0 -0.0016001581)
(0.0025075469 0 -0.0016195749)
(0.0024847256 0 -0.0016347232)
(0.0024553452 0 -0.0016418777)
(0.0024180125 0 -0.0016356516)
(0.0023713174 0 -0.0016083423)
(0.0023139522 0 -0.0015500675)
(0.002244918 0 -0.0014491174)
(0.0021637555 0 -0.0012921633)
(0.0020706401 0 -0.0010662105)
(0.0019665278 0 -0.00075895782)
(0.0018530668 0 -0.00036317776)
(0.0017323447 0 0.00012143625)
(0.0016066052 0 0.00069006913)
(0.001477987 0 0.0013306391)
(0.0013485233 0 0.0020243512)
(0.0012201249 0 0.0027467121)
(0.001094656 0 0.0034706686)
(0.00097391996 0 0.004169282)
(0.00085948883 0 0.0048179805)
(0.00075260836 0 0.0053968148)
(0.0006541269 0 0.0058903195)
(0.00056445317 0 0.0062880483)
(0.00048362766 0 0.0065833027)
(0.00041140522 0 0.0067710714)
(0.00034731702 0 0.0068466243)
(0.00029074188 0 0.0068043032)
(0.00024097106 0 0.006636201)
(0.00019723471 0 0.0063307973)
(0.00015869914 0 0.0058715598)
(0.00012439397 0 0.0052344422)
(9.3108667e-05 0 0.0043845536)
(6.3277801e-05 0 0.0032703339)
(3.2771341e-05 0 0.0018151985)
(0 0 0)
(0.0025698148 0 -0.0017116293)
(0.0025694467 0 -0.0017118012)
(0.0025692787 0 -0.0017156179)
(0.0025690338 0 -0.0017201352)
(0.0025686844 0 -0.0017254802)
(0.0025681926 0 -0.001731791)
(0.0025675069 0 -0.0017392226)
(0.0025665579 0 -0.001747946)
(0.002565252 0 -0.0017581458)
(0.0025634642 0 -0.0017700147)
(0.0025610276 0 -0.001783744)
(0.0025577211 0 -0.0017995079)
(0.0025532535 0 -0.0018174395)
(0.0025472601 0 -0.0018375284)
(0.0025392937 0 -0.0018593845)
(0.0025287679 0 -0.0018823253)
(0.002514917 0 -0.0019053491)
(0.0024967964 0 -0.0019267844)
(0.0024732803 0 -0.0019440582)
(0.0024430832 0 -0.001953389)
(0.0024048412 0 -0.0019490661)
(0.002357188 0 -0.0019230487)
(0.0022988626 0 -0.0018652819)
(0.0022289585 0 -0.001763795)
(0.0021471347 0 -0.0016050925)
(0.002053711 0 -0.001376003)
(0.0019497589 0 -0.0010645305)
(0.0018369842 0 -0.00066341328)
(0.0017174926 0 -0.00017222359)
(0.0015934637 0 0.00040404737)
(0.0014668928 0 0.0010535329)
(0.0013396027 0 0.0017570425)
(0.0012133207 0 0.002489814)
(0.0010897958 0 0.0032251021)
(0.00097074985 0 0.0039363442)
(0.00085770939 0 0.004599112)
(0.00075190879 0 0.0051932455)
(0.00065421581 0 0.005702995)
(0.00056508088 0 0.0061172965)
(0.00048459259 0 0.0064291881)
(0.00041255096 0 0.0066337586)
(0.00034852859 0 0.0067257728)
(0.00029194017 0 0.0066993075)
(0.0002421022 0 0.0065463614)
(0.00019826306 0 0.0062553379)
(0.00015960166 0 0.0058097388)
(0.0001251533 0 0.0051855506)
(9.3710671e-05 0 0.0043479214)
(6.3706519e-05 0 0.0032454755)
(3.3003222e-05 0 0.0018023085)
(0 0 0)
(0.00256093 0 -0.0019968578)
(0.0025605602 0 -0.0019971704)
(0.0025603648 0 -0.0020012248)
(0.0025600863 0 -0.0020060247)
(0.0025596952 0 -0.0020117053)
(0.002559152 0 -0.0020184141)
(0.0025584026 0 -0.0020263175)
(0.0025573744 0 -0.0020355995)
(0.0025559701 0 -0.0020464594)
(0.0025540594 0 -0.0020591072)
(0.0025514693 0 -0.0020737537)
(0.0025479705 0 -0.0020905954)
(0.0025432653 0 -0.0021097959)
(0.0025369903 0 -0.0021312602)
(0.0025286889 0 -0.002154602)
(0.002517751 0 -0.0021792221)
(0.0025033912 0 -0.0022040873)
(0.0024846491 0 -0.0022275002)
(0.0024603853 0 -0.0022468327)
(0.002429324 0 -0.0022581611)
(0.0023901416 0 -0.0022553095)
(0.0023414965 0 -0.002230097)
(0.0022821735 0 -0.0021724842)
(0.0022113769 0 -0.0020701307)
(0.0021288889 0 -0.001909502)
(0.0020351801 0 -0.0016771385)
(0.0019314329 0 -0.0013613179)
(0.0018194228 0 -0.0009548201)
(0.0017012882 0 -0.00045671797)
(0.0015791139 0 0.00012773597)
(0.0014546923 0 0.00078606269)
(0.0013296345 0 0.0014985307)
(0.0012055324 0 0.0022407452)
(0.0010840278 0 0.0029864223)
(0.00096675479 0 0.0037092941)
(0.00085519223 0 0.0043851049)
(0.00075056006 0 0.0049935399)
(0.000653742 0 0.0055185981)
(0.0005652275 0 0.0059487856)
(0.00048515175 0 0.0062765928)
(0.00041335903 0 0.0064971159)
(0.00034946247 0 0.0066050732)
(0.00029291239 0 0.0065940381)
(0.00024305184 0 0.0064559062)
(0.00019914825 0 0.0061789955)
(0.00016039419 0 0.0057468469)
(0.00012583131 0 0.0051354893)
(9.4256012e-05 0 0.0043101366)
(6.409985e-05 0 0.0032196429)
(3.3218368e-05 0 0.0017888373)
(0 0 0)
(0.0025509279 0 -0.0022759062)
(0.0025505528 0 -0.0022763576)
(0.0025503274 0 -0.0022806491)
(0.002550012 0 -0.0022857308)
(0.0025495754 0 -0.0022917462)
(0.0025489759 0 -0.0022988526)
(0.0025481569 0 -0.0023072272)
(0.0025470425 0 -0.0023170668)
(0.0025455309 0 -0.0023285852)
(0.0025434867 0 -0.0023420084)
(0.00254073 0 -0.0023575649)
(0.0025370229 0 -0.0023754682)
(0.0025320643 0 -0.0023958972)
(0.0025254912 0 -0.0024187216)
(0.0025168305 0 -0.0024435531)
(0.0025054474 0 -0.0024698296)
(0.0024905396 0 -0.0024965049)
(0.0024711297 0 -0.0025218528)
(0.002446068 0 -0.0025431991)
(0.0024141084 0 -0.0025561951)
(0.0023739518 0 -0.0025544437)
(0.0023242626 0 -0.0025298425)
(0.0022638994 0 -0.0024721019)
(0.0021921916 0 -0.0023685294)
(0.0021090574 0 -0.0022053979)
(0.0020151015 0 -0.0019694195)
(0.001911618 0 -0.0016491583)
(0.0018004882 0 -0.0012369164)
(0.0016838651 0 -0.00073126986)
(0.0015636577 0 -0.00013846556)
(0.0014414359 0 0.00052800583)
(0.0013186617 0 0.0012486016)
(0.0011968037 0 0.0019994545)
(0.0010773884 0 0.0027546271)
(0.00096196351 0 0.0034881751)
(0.0008519587 0 0.0041760439)
(0.00074857695 0 0.004797813)
(0.00065271526 0 0.005337262)
(0.00056489852 0 0.0057825796)
(0.0004853069 0 0.0061256529)
(0.00041382908 0 0.0063613911)
(0.00035011724 0 0.0064846582)
(0.00029365641 0 0.0064886114)
(0.0002438175 0 0.0063649355)
(0.00019988775 0 0.0061018532)
(0.00016107431 0 0.0056829515)
(0.00012642586 0 0.0050843117)
(9.4742969e-05 0 0.00427124)
(6.4456535e-05 0 0.0031928634)
(3.3416118e-05 0 0.0017747982)
(0 0 0)
(0.0025398421 0 -0.0025489012)
(0.0025394575 0 -0.0025494914)
(0.0025391994 0 -0.0025540204)
(0.0025388436 0 -0.0025593844)
(0.0025383575 0 -0.0025657351)
(0.0025376967 0 -0.0025732395)
(0.002536802 0 -0.0025820857)
(0.0025355937 0 -0.0025924834)
(0.0025339658 0 -0.0026046615)
(0.0025317768 0 -0.0026188632)
(0.0025288397 0 -0.0026353371)
(0.0025249077 0 -0.0026543214)
(0.0025196793 0 -0.0026759421)
(0.0025127895 0 -0.002700069)
(0.0025037437 0 -0.002726372)
(0.0024918827 0 -0.0027542778)
(0.0024763865 0 -0.0027827269)
(0.0024562602 0 -0.002809956)
(0.0024303593 0 -0.0028331847)
(0.002397469 0 -0.0028476046)
(0.0023562845 0 -0.0028467935)
(0.0023054909 0 -0.0028226953)
(0.0022440511 0 -0.0027645955)
(0.0021714257 0 -0.0026594477)
(0.0020876767 0 -0.0024931982)
(0.0019935357 0 -0.0022528651)
(0.0018904178 0 -0.0019275151)
(0.0017803211 0 -0.0015088436)
(0.0016653345 0 -0.00099542876)
(0.0015471465 0 -0.00039483998)
(0.0014271684 0 0.00027906657)
(0.0013067346 0 0.0010071364)
(0.0011871791 0 0.0017658721)
(0.001069915 0 0.0025296951)
(0.0009564059 0 0.003273011)
(0.00084803145 0 0.0039719947)
(0.00074597561 0 0.0046061621)
(0.00065114616 0 0.0051591058)
(0.00056410039 0 0.005618726)
(0.00048506176 0 0.0059764849)
(0.00041396212 0 0.0062268312)
(0.00035049163 0 0.0063646557)
(0.00029417056 0 0.0063831403)
(0.00024439705 0 0.0062735474)
(0.00020047924 0 0.0060239937)
(0.00016163976 0 0.0056181203)
(0.0001269349 0 0.0050320716)
(9.5169798e-05 0 0.0042312718)
(6.4775313e-05 0 0.0031651649)
(3.3595771e-05 0 0.0017602038)
(0 0 0)
(0.0025276944 0 -0.0028159673)
(0.002527303 0 -0.0028166956)
(0.0025270094 0 -0.0028214623)
(0.00252661 0 -0.0028271089)
(0.0025260701 0 -0.0028337952)
(0.002525343 0 -0.0028416976)
(0.0025243664 0 -0.0028510156)
(0.0025230567 0 -0.0028619717)
(0.0025213028 0 -0.0028748099)
(0.0025189572 0 -0.002889791)
(0.0025158245 0 -0.0029071846)
(0.0025116524 0 -0.0029272613)
(0.002506142 0 -0.0029500623)
(0.002498917 0 -0.0029754504)
(0.0024894568 0 -0.0030031885)
(0.0024770824 0 -0.0030326908)
(0.0024609553 0 -0.0030628783)
(0.0024400652 0 -0.0030919602)
(0.0024132916 0 -0.00311679)
(0.0023794295 0 -0.0031324277)
(0.0023371534 0 -0.0031325393)
(0.0022852027 0 -0.003108747)
(0.0022226681 0 -0.0030498545)
(0.0021491404 0 -0.0029425855)
(0.0020648008 0 -0.0027729425)
(0.0019705324 0 -0.0025278739)
(0.0018679225 0 -0.0021964128)
(0.0017590172 0 -0.0017704866)
(0.0016457465 0 -0.0012495268)
(0.0015296236 0 -0.00064175255)
(0.0014119441 0 3.9065263e-05)
(0.0012939039 0 0.00077400046)
(0.0011767036 0 0.0015399105)
(0.0010616458 0 0.0023115859)
(0.00095011287 0 0.0030638062)
(0.00084343433 0 0.0037730035)
(0.00074277332 0 0.0044186673)
(0.00064904648 0 0.0049842333)
(0.0005628409 0 0.0054573416)
(0.00048442075 0 0.0058291394)
(0.00041375912 0 0.0060934728)
(0.00035058495 0 0.0062451854)
(0.00029445368 0 0.006277734)
(0.00024478871 0 0.0061818384)
(0.00020092062 0 0.0059454986)
(0.00016208842 0 0.005552421)
(0.00012735643 0 0.0049788232)
(9.55348e-05 0 0.0041902736)
(6.5054918e-05 0 0.0031365761)
(3.3756656e-05 0 0.0017450688)
(0 0 0)
(0.0025145227 0 -0.0030772258)
(0.0025141193 0 -0.0030780916)
(0.0025137873 0 -0.0030830961)
(0.0025133407 0 -0.0030890251)
(0.0025127428 0 -0.0030960466)
(0.0025119443 0 -0.0031043462)
(0.0025108795 0 -0.0031141344)
(0.0025094607 0 -0.0031256458)
(0.0025075716 0 -0.0031391382)
(0.0025050579 0 -0.0031548872)
(0.0025017159 0 -0.0031731762)
(0.0024972909 0 -0.0031942885)
(0.0024914845 0 -0.0032182518)
(0.002483901 0 -0.0032449272)
(0.0024739947 0 -0.0032740983)
(0.0024610696 0 -0.0033051764)
(0.0024442666 0 -0.0033370612)
(0.002422574 0 -0.0033678948)
(0.0023948961 0 -0.0033941253)
(0.0023600062 0 -0.0034108261)
(0.0023165724 0 -0.0034117612)
(0.0022634364 0 -0.0033879216)
(0.0021998172 0 -0.003327585)
(0.0021254046 0 -0.0032175795)
(0.002040496 0 -0.0030442607)
(0.0019461761 0 -0.002794222)
(0.0018442274 0 -0.0024558796)
(0.0017366384 0 -0.0020222283)
(0.0016251442 0 -0.0014940033)
(0.0015111437 0 -0.00087943494)
(0.0013958169 0 -0.00019218644)
(0.0012802202 0 0.00054904833)
(0.0011654221 0 0.0013214697)
(0.0010526191 0 0.0021002446)
(0.00094311574 0 0.0028605497)
(0.0008381918 0 0.0035791011)
(0.00073898828 0 0.0042353932)
(0.00064642896 0 0.004812734)
(0.0005611283 0 0.0052985321)
(0.00048338844 0 0.0056836551)
(0.00041322243 0 0.0059614045)
(0.00035039823 0 0.0061264452)
(0.00029450506 0 0.0061724985)
(0.00024499103 0 0.0060899023)
(0.00020121003 0 0.0058664484)
(0.0001624183 0 0.0054859209)
(0.00012768854 0 0.0049246213)
(9.5836322e-05 0 0.004148288)
(6.5294082e-05 0 0.0031071262)
(3.3898034e-05 0 0.0017294058)
(0 0 0)
(0.0025003489 0 -0.0033327952)
(0.0024999351 0 -0.0033337982)
(0.0024995619 0 -0.0033390407)
(0.0024990646 0 -0.0033452526)
(0.0024984044 0 -0.0033526096)
(0.0024975292 0 -0.0033613071)
(0.0024963697 0 -0.0033715663)
(0.0024948339 0 -0.0033836349)
(0.0024927997 0 -0.0033977852)
(0.0024901058 0 -0.0034143101)
(0.0024865398 0 -0.0034335137)
(0.0024818472 0 -0.0034556281)
(0.0024757271 0 -0.0034806999)
(0.0024677609 0 -0.0035086471)
(0.0024573789 0 -0.0035392297)
(0.0024438657 0 -0.0035718556)
(0.0024263432 0 -0.003605414)
(0.0024038171 0 -0.0036377565)
(0.0023751943 0 -0.0036652235)
(0.0023392112 0 -0.0036829583)
(0.0022945759 0 -0.0036844112)
(0.0022402511 0 -0.0036599836)
(0.0021755429 0 -0.0035977837)
(0.0021002417 0 -0.0034847205)
(0.0020148173 0 -0.0033071653)
(0.0019205818 0 -0.003051374)
(0.0018194358 0 -0.0027056605)
(0.0017132401 0 -0.0022643666)
(0.0016035805 0 -0.0017291344)
(0.0014917619 0 -0.0011081252)
(0.0013788412 0 -0.00041488697)
(0.0012657339 0 0.00033212267)
(0.0011533797 0 0.0011104353)
(0.0010428737 0 0.0018956002)
(0.00093544646 0 0.0026632134)
(0.00083232915 0 0.0033903011)
(0.00073463961 0 0.0040563878)
(0.00064330722 0 0.0046446831)
(0.00055897183 0 0.0051423901)
(0.0004819709 0 0.0055401355)
(0.00041235613 0 0.0058308039)
(0.00034993295 0 0.0060086307)
(0.00029432403 0 0.0060675354)
(0.00024500288 0 0.0059978311)
(0.00020134585 0 0.0057869225)
(0.00016262755 0 0.0054186872)
(0.00012792939 0 0.0048695209)
(9.6072714e-05 0 0.0041053578)
(6.5491555e-05 0 0.0030768458)
(3.4019229e-05 0 0.0017132313)