/*--------------------------------*- C++ -*----------------------------------*\
  =========                 |
  \\      /  F ield         | OpenFOAM: The Open Source CFD Toolbox
   \\    /   O peration     | Website:  https://openfoam.org
    \\  /    A nd           | Version:  8
     \\/     M anipulation  |
\*---------------------------------------------------------------------------*/
FoamFile
{
    version     2.0;
    format      ascii;
    class       volScalarField;
    location    "0.259994";
    object      rho;
}
// * * * * * * * * * * * * * * * * * * * * * * * * * * * * * * * * * * * * * //

dimensions      [1 -3 0 0 0 0 0];

internalField   nonuniform List<scalar> 
20000
(
0.73084891
0.73230524
0.73520387
0.74069998
0.75101748
0.77056573
0.79230235
0.79720978
0.79556893
0.79783006
0.79738251
0.79967254
0.80028989
0.8030268
0.80479552
0.80844157
0.8116595
0.81675976
0.8220161
0.82933765
0.83757144
0.84825379
0.86076618
0.8762791
0.89454964
0.91624238
0.94094972
0.96825159
0.99674593
1.0248487
1.0509147
1.0738914
1.0933165
1.1093043
1.122169
1.132422
1.1404381
1.1467225
1.1515288
1.1552306
1.1580167
1.160249
1.1621377
1.1638244
1.1655527
1.1672945
1.1688922
1.1698445
1.1701259
1.1691981
0.73117223
0.73275269
0.73577415
0.74150047
0.75224603
0.77292266
0.79317751
0.7975659
0.79594721
0.79825623
0.7978566
0.80025044
0.80087824
0.8037484
0.80561319
0.80940263
0.81274353
0.81801026
0.82345483
0.8310089
0.83949284
0.85043828
0.86322668
0.87899191
0.89748406
0.91929582
0.94397813
0.97104818
0.9991554
1.0268007
1.0524259
1.0750387
1.0941876
1.1099601
1.1226652
1.1327931
1.140715
1.1469285
1.1516837
1.1553485
1.1581132
1.1603379
1.162216
1.1639049
1.1656311
1.1673931
1.1690768
1.1698908
1.1701926
1.1691715
0.73171549
0.73335844
0.7365007
0.74244916
0.75363537
0.77549686
0.79425059
0.7983566
0.79660508
0.7990058
0.79861668
0.8011116
0.80182184
0.80481663
0.80677881
0.81071706
0.81420673
0.81966561
0.82530561
0.83307934
0.84180607
0.85302005
0.86610503
0.88216802
0.90094046
0.92294759
0.94767335
0.97455141
1.0022279
1.0292978
1.0543546
1.076478
1.0952445
1.1107282
1.1232179
1.1331887
1.1409976
1.1471293
1.1518266
1.1554519
1.1581933
1.160408
1.1622816
1.1639817
1.1657137
1.1675685
1.169232
1.1700903
1.1702733
1.1690674
0.73269916
0.73440634
0.73767037
0.74385437
0.75549493
0.77854288
0.79559804
0.79918421
0.79759536
0.80003717
0.7997218
0.80227008
0.80308727
0.80619435
0.80823357
0.81230774
0.81592966
0.82156407
0.82739821
0.83540652
0.84440046
0.85591426
0.86933531
0.88574285
0.90485235
0.9271188
0.95195239
0.97869701
1.0059909
1.0324922
1.056919
1.0784543
1.09673
1.1118268
1.1240233
1.1337743
1.1414213
1.1474344
1.1520462
1.1556121
1.1583171
1.1605129
1.1623737
1.1640739
1.1658112
1.1677463
1.1694148
1.1702063
1.1703667
1.1689691
0.73381817
0.73559243
0.73898751
0.74542742
0.75756155
0.78177003
0.79706027
0.80048214
0.79882089
0.8013688
0.80103905
0.80368472
0.80454858
0.80776184
0.80989912
0.81411783
0.81788619
0.82370984
0.82975101
0.83800315
0.84728103
0.85911725
0.87290588
0.8896969
0.90918851
0.93175961
0.95673677
0.98336625
1.0102666
1.0361611
1.0598983
1.0807705
1.0984782
1.1131215
1.1249702
1.1344606
1.1419152
1.1477879
1.1522981
1.155794
1.1584553
1.160627
1.1624733
1.1641707
1.165915
1.1679541
1.1695881
1.1703447
1.1704586
1.1688587
0.73521933
0.73704042
0.74055265
0.74725399
0.75991221
0.78518683
0.79862372
0.80185748
0.80020484
0.8028336
0.80252409
0.80527402
0.80619836
0.80952592
0.8117598
0.81612459
0.82004196
0.82605755
0.83231685
0.84083044
0.85041761
0.86260588
0.87679734
0.89401058
0.91392592
0.93683876
0.96198536
0.988512
1.0150193
1.0402888
1.0632926
1.0834402
1.1005121
1.1146389
1.1260865
1.1352734
1.1425019
1.1482088
1.1525982
1.1560108
1.1586192
1.1607605
1.1625878
1.1642755
1.166026
1.168172
1.1697583
1.1704609
1.1705409
1.1687476
0.73670249
0.7385725
0.7422147
0.74920452
0.76246003
0.78867005
0.80024839
0.80340318
0.80173887
0.8044621
0.80417155
0.80702302
0.8080095
0.81145289
0.81379165
0.81830822
0.82238452
0.82860281
0.83509449
0.84388571
0.85380492
0.86637135
0.88099688
0.89866651
0.91903976
0.94231978
0.9676451
0.99406203
1.020157
1.0447737
1.0670069
1.0863835
1.1027692
1.1163322
1.1273373
1.1361868
1.1431622
1.1486826
1.1529358
1.1562543
1.1588026
1.160908
1.1627131
1.1643871
1.1661479
1.1683965
1.1699109
1.1705656
1.170609
1.1686362
0.7383607
0.74028352
0.74403898
0.75132789
0.76525922
0.79217745
0.80195449
0.80507763
0.80341737
0.80623049
0.80597659
0.80892179
0.80997613
0.81353824
0.81598555
0.82065786
0.82490043
0.83133012
0.83807056
0.84715919
0.85743597
0.87040833
0.88549967
0.90365865
0.92451983
0.94818397
0.97368615
0.99997598
1.0256341
1.0495701
1.0709999
1.0895677
1.1052263
1.1181864
1.128714
1.1371959
1.1438936
1.1492084
1.1533108
1.1565252
1.1590063
1.1610704
1.1628491
1.1645075
1.1662944
1.1686143
1.1700362
1.1706266
1.170632
1.1685276
0.74010461
0.74211069
0.74597907
0.75358469
0.76830627
0.79570061
0.80373613
0.80689089
0.80524103
0.80813818
0.80792131
0.81096043
0.81208434
0.81576722
0.81832946
0.82316355
0.82758315
0.8342369
0.8412431
0.8506482
0.86130658
0.87471091
0.89029774
0.90897629
0.93034922
0.95440466
0.98006932
1.0062026
1.0313897
1.0546137
1.0752116
1.0929415
1.1078434
1.120172
1.1301952
1.1382859
1.1446858
1.1497791
1.1537185
1.1568201
1.159228
1.1612459
1.1629937
1.1646381
1.1664847
1.1688123
1.1701323
1.1706551
1.1706408
1.1684209
0.7420444
0.74409701
0.74807296
0.75600098
0.77163579
0.79926062
0.80560962
0.80883103
0.80719566
0.81016857
0.80999164
0.81312546
0.81432515
0.81813314
0.82081714
0.82581996
0.83042787
0.83731868
0.84461013
0.85435243
0.8654176
0.8792807
0.89539308
0.91461999
0.93652378
0.96096852
0.98677027
1.0127073
1.0373826
1.0598607
1.0795997
1.0964684
1.1105913
1.122267
1.1317656
1.1394459
1.1455313
1.1503896
1.1541556
1.1571371
1.1594665
1.1614333
1.163145
1.16478
1.1667268
1.1689861
1.1702099
1.1706681
1.1706423
1.1683138
0.74406395
0.74618242
0.75026479
0.7585203
0.775202
0.80279714
0.80762235
0.81087272
0.80925669
0.81231069
0.81218012
0.81541213
0.81669265
0.82062989
0.82344346
0.82862355
0.83343354
0.84057642
0.8481717
0.85827096
0.86976742
0.88411559
0.90078266
0.92058407
0.94303141
0.96785356
0.99375588
1.0194479
1.043565
1.065262
1.0841181
1.1001084
1.1134376
1.124447
1.1334071
1.1406629
1.146421
1.1510335
1.1546179
1.1574735
1.1597199
1.1616311
1.163301
1.1649322
1.1669976
1.1691555
1.1702784
1.1706702
1.1706373
1.1682028
0.74617265
0.74836772
0.75256594
0.76114971
0.77900402
0.80630192
0.80970937
0.81302196
0.81143034
0.8145645
0.81448371
0.8178153
0.81918244
0.8232541
0.82620634
0.83157371
0.83660037
0.84401035
0.85192952
0.86240678
0.87436032
0.88922117
0.90647251
0.92687253
0.94986975
0.97504747
1.0010033
1.0263933
1.0499008
1.0707799
1.0887308
1.1038292
1.1163557
1.1266911
1.135104
1.1419255
1.1473465
1.1517052
1.1551015
1.1578268
1.1599865
1.1618377
1.1634598
1.1650932
1.1672906
1.1693199
1.1703419
1.1706693
1.1705974
1.1680822
0.74843262
0.75069298
0.75501623
0.76391864
0.78306204
0.80977964
0.81190266
0.81527426
0.81370784
0.81692192
0.81689661
0.82033141
0.82179179
0.82600429
0.82910552
0.8346717
0.83993041
0.84762295
0.85588482
0.86676086
0.87919756
0.89459901
0.91246347
0.93348262
0.95702801
0.98252883
1.0084813
1.0335055
1.0563489
1.0763739
1.0934001
1.1075981
1.1193187
1.1289783
1.1368404
1.1432218
1.1482993
1.1523986
1.1556025
1.1581942
1.1602643
1.1620515
1.1636204
1.1652644
1.1675957
1.1694747
1.1703824
1.1706328
1.1705072
1.1679509
0.75077725
0.75310075
0.757563
0.76678194
0.78730838
0.81318621
0.81417222
0.81761558
0.81608358
0.8193807
0.81941755
0.8229592
0.82452035
0.82888101
0.83214321
0.83791976
0.84342568
0.85141551
0.86004074
0.87133841
0.88428615
0.90025768
0.91876396
0.94041937
0.96450275
0.99028354
1.016166
1.0407544
1.0628772
1.0820121
1.098096
1.1113883
1.1223039
1.1312904
1.1386022
1.144541
1.1492714
1.1531079
1.1561169
1.1585734
1.1605512
1.162271
1.1637861
1.1654537
1.1678964
1.1696109
1.1703975
1.1705853
1.1703315
1.167807
0.75319205
0.75560434
0.76023443
0.76978174
0.7917524
0.81653563
0.81654028
0.82005712
0.81856342
0.82194326
0.82204653
0.82569879
0.82736892
0.83188702
0.83532221
0.84132059
0.84708801
0.85539037
0.86440002
0.87614303
0.88963074
0.90620198
0.92537753
0.94768032
0.97228186
0.99828803
1.0240254
1.0481038
1.0694492
1.0876601
1.1027878
1.115173
1.1252893
1.13361
1.1403759
1.1458726
1.1502549
1.1538275
1.1566409
1.1589617
1.1608448
1.1624932
1.1639623
1.1656786
1.1681693
1.1697266
1.1704003
1.1705501
1.1700515
1.1676521
0.75572244
0.75823561
0.76305912
0.77294728
0.79636905
0.81981665
0.81900245
0.82259252
0.82114142
0.82460505
0.82478167
0.8285512
0.83034127
0.83502589
0.83864533
0.84487529
0.85091926
0.85955084
0.86896838
0.88118309
0.8952414
0.91244328
0.93231388
0.95526931
0.98035832
1.0065244
1.0320335
1.0555243
1.0760357
1.0932908
1.1074505
1.1189306
1.1282567
1.1359223
1.1421494
1.1472071
1.1512426
1.1545521
1.157171
1.1593566
1.1611427
1.1627156
1.16415
1.1659591
1.1683957
1.1698166
1.1703979
1.1705057
1.169666
1.1674916
0.75830527
0.76094206
0.76599656
0.77626489
0.80109734
0.82301443
0.8215523
0.82521543
0.82381449
0.82736772
0.82762768
0.83152258
0.83344158
0.83829993
0.84211284
0.8485854
0.8549219
0.86390092
0.87375148
0.88646542
0.90112578
0.91898885
0.93957731
0.96318199
0.98871588
1.0149651
1.0401567
1.0629813
1.082604
1.0988747
1.1120588
1.1226396
1.1311885
1.1382133
1.1439116
1.1485355
1.1522276
1.1552769
1.1577034
1.1597556
1.1614425
1.1629369
1.1643508
1.1662982
1.1685773
1.1698518
1.1703747
1.1704475
1.1692348
1.1673321
0.76098723
0.76376178
0.76908888
0.7798011
0.80592419
0.82615947
0.82419947
0.82793612
0.82659227
0.83024022
0.83059181
0.83461685
0.83667073
0.84170776
0.84572485
0.85245201
0.8590999
0.8684471
0.87875828
0.89200116
0.90729628
0.9258516
0.94717709
0.97141882
0.99734239
1.0235876
1.0483667
1.070446
1.0891275
1.1043886
1.1165928
1.1262832
1.1340709
1.1404715
1.1456525
1.1498499
1.1532038
1.1559972
1.158235
1.160156
1.1617419
1.1631565
1.1645678
1.1666678
1.1687483
1.1698667
1.170302
1.1703481
1.1688337
1.1671819
0.76372495
0.76664901
0.77229581
0.78355354
0.81077363
0.82925198
0.82693631
0.83076062
0.82948317
0.83322889
0.83367472
0.8378311
0.84002436
0.84524788
0.84948237
0.85647973
0.86345906
0.87319654
0.88399739
0.89779979
0.91376274
0.93304028
0.95511616
0.97997115
1.006216
1.0323602
1.0566285
1.0778846
1.0955765
1.1098076
1.121032
1.1298448
1.1368907
1.1426859
1.1473633
1.1511429
1.1541655
1.1567091
1.1587628
1.1605552
1.1620391
1.1633759
1.1648037
1.1670487
1.168913
1.1698697
1.1701995
1.1702007
1.1684721
1.1670481
0.76655681
0.76963579
0.77564887
0.78759331
0.81564638
0.83235908
0.82978722
0.83370223
0.83248899
0.83632783
0.83686787
0.84115821
0.84350071
0.84892255
0.85339074
0.86067378
0.8680063
0.87815862
0.8894804
0.90387441
0.92053953
0.94056859
0.96340158
0.98883346
1.0153178
1.0412557
1.0649124
1.0852693
1.1019274
1.1151123
1.1253607
1.1333119
1.1396377
1.1448476
1.1490364
1.1524083
1.1551076
1.1574089
1.159284
1.1609504
1.1623322
1.1635986
1.1650669
1.1674116
1.1690642
1.1698672
1.1700805
1.1699767
1.1681609
1.1669334
0.76948011
0.7727086
0.77912339
0.79192951
0.82048051
0.83554338
0.83272941
0.83672894
0.83558199
0.83952034
0.84016421
0.84459912
0.84710476
0.85273835
0.85745603
0.86504108
0.87274974
0.88334321
0.8952184
0.91023661
0.92763855
0.94844563
0.97203284
0.99799052
1.0246195
1.0502387
1.0731824
1.0925683
1.1081537
1.1202819
1.1295631
1.1366722
1.1423019
1.1469486
1.1506652
1.1536406
1.1560257
1.1580935
1.1597962
1.1613389
1.1626193
1.1638297
1.1653732
1.1677285
1.1691874
1.1698621
1.1700081
1.1696577
1.1679039
1.1668382
0.7724547
0.7758296
0.7826764
0.79655931
0.8252214
0.83862013
0.83575593
0.83985179
0.838764
0.84281159
0.84357124
0.84816385
0.85084483
0.85670189
0.86168394
0.86958803
0.87769884
0.88876235
0.90122488
0.91690139
0.93507588
0.956684
0.98101202
1.0074293
1.0340956
1.0592779
1.0814079
1.0997551
1.1142347
1.125301
1.1336274
1.1399164
1.1448757
1.1489829
1.1522452
1.1548353
1.1569162
1.1587602
1.1602977
1.1617186
1.1628988
1.1640733
1.1657361
1.1679868
1.1692832
1.1698579
1.1699537
1.1692954
1.1676971
1.1667601
0.77553467
0.7790514
0.78633925
0.80152888
0.82987204
0.84175103
0.83886976
0.8430676
0.8420603
0.8462175
0.84710147
0.85185935
0.85472609
0.86081686
0.86607987
0.87432343
0.88286498
0.89442861
0.90751262
0.92388272
0.94286467
0.96529085
0.99033176
1.0171268
1.043711
1.0683339
1.0895521
1.1067995
1.1201481
1.1301539
1.1375419
1.143035
1.1473513
1.1509459
1.1537724
1.1559878
1.1577762
1.1594066
1.1607866
1.1620879
1.1631698
1.1643315
1.1661431
1.1682073
1.1693497
1.1698371
1.1699034
1.1689375
1.1675193
1.1666923
0.77864112
0.78229376
0.79004674
0.80680119
0.83439
0.84488226
0.8420805
0.84638535
0.84545927
0.84974973
0.85075829
0.85568922
0.85874955
0.8650871
0.87065111
0.87925788
0.88826106
0.90035577
0.91409688
0.93119787
0.95102205
0.97427513
0.99998616
1.0270604
1.0534331
1.0773715
1.0975834
1.1136767
1.1258771
1.1348303
1.1412988
1.1460216
1.1497236
1.152836
1.1552442
1.1570944
1.1586031
1.1600309
1.1612614
1.1624458
1.1634339
1.164607
1.1665737
1.1684134
1.1693893
1.1697801
1.1698221
1.1686051
1.1673577
1.1666294
0.78188226
0.78566438
0.79388442
0.81243129
0.83883418
0.84827429
0.84540012
0.84981015
0.84896769
0.85339782
0.85454279
0.85965246
0.8629192
0.86951911
0.87540886
0.88440467
0.89390083
0.90655749
0.92099267
0.93886364
0.95956158
0.98363907
1.0099585
1.037197
1.0632195
1.0863488
1.1054653
1.1203594
1.1314049
1.1393199
1.1448906
1.1488704
1.1519901
1.154653
1.1566567
1.1581507
1.1593944
1.1606315
1.1617203
1.1627912
1.1636954
1.1649084
1.1670013
1.1686079
1.1694122
1.1696894
1.1696851
1.1683
1.1672076
1.1665705
0.78519852
0.78910291
0.79780243
0.81832858
0.8431422
0.85167113
0.84881225
0.85333883
0.85259106
0.85715867
0.85844885
0.86375296
0.86724195
0.87412496
0.88036611
0.88977691
0.89979753
0.91304878
0.92821807
0.94690024
0.96849957
0.99338523
1.0202327
1.0475046
1.0730314
1.0952277
1.1131668
1.1268281
1.1367214
1.1436167
1.1483137
1.1515804
1.1541544
1.1563975
1.1580044
1.1591541
1.1601468
1.1612077
1.1621616
1.1631231
1.1639606
1.1652509
1.167391
1.1687747
1.1694204
1.1695893
1.1694534
1.1680222
1.1670676
1.1665157
0.78858908
0.7926239
0.80183858
0.82451722
0.84735693
0.85518511
0.85234031
0.85698619
0.8563371
0.86105269
0.86248234
0.86799714
0.87172971
0.87891873
0.88553691
0.89538745
0.90596463
0.91984541
0.93579198
0.95532664
0.97784672
1.0035065
1.0307807
1.0579403
1.0828209
1.1039646
1.1206557
1.1330657
1.1418179
1.1477115
1.1515639
1.1541528
1.1562257
1.158067
1.159279
1.1601038
1.1608568
1.161759
1.1625837
1.1634402
1.1642353
1.1656462
1.1677139
1.1689
1.1694228
1.1695426
1.1691112
1.167773
1.1669398
1.1664662
0.79210493
0.79626921
0.80603588
0.83093075
0.85148815
0.85878571
0.85597413
0.86074787
0.86020672
0.86507947
0.866659
0.8723978
0.87639779
0.88391358
0.89093337
0.90124798
0.9124168
0.92696658
0.94373705
0.96416471
0.98761424
1.0139945
1.0415737
1.0684626
1.0925441
1.1125227
1.1279122
1.1390685
1.1466911
1.1515956
1.1546379
1.1565924
1.1582149
1.1596523
1.1604741
1.1610024
1.1615227
1.1622847
1.1629856
1.1637417
1.1645224
1.1660825
1.1679701
1.168994
1.1694222
1.1695077
1.1687321
1.1675482
1.1668227
1.1664216
0.79567745
0.79997812
0.81036757
0.83748592
0.85553021
0.86247889
0.85971626
0.86462655
0.86420155
0.86923691
0.87099779
0.87698028
0.88125798
0.88911978
0.89656493
0.90737132
0.91917124
0.93443365
0.95207635
0.97343286
0.99780481
1.024829
1.0525706
1.0790196
1.1021506
1.1208657
1.1349239
1.1448362
1.1513318
1.1552575
1.1575301
1.1589033
1.1601199
1.1611326
1.1615961
1.161853
1.1621491
1.1627833
1.1633667
1.1640283
1.1648214
1.1665199
1.1681959
1.1690704
1.1694204
1.1694672
1.1683737
1.1673395
1.1667155
1.1663795
0.79936889
0.80380085
0.81490882
0.84416084
0.85954635
0.86629259
0.8635856
0.86863766
0.86833732
0.87354411
0.87549496
0.8817502
0.88632017
0.89454401
0.90244229
0.91377293
0.92624925
0.94227209
0.96083586
0.98315034
1.0084194
1.0359874
1.0637293
1.0895617
1.1115968
1.1289714
1.1416939
1.150366
1.1557209
1.1586967
1.160239
1.1610884
1.161914
1.1625124
1.1626493
1.1626537
1.1627488
1.1632527
1.1637272
1.1643037
1.1651325
1.1669461
1.1684065
1.169135
1.1693896
1.1693956
1.168074
1.1671612
1.1666183
1.1663398
0.80318397
0.80773093
0.81968659
0.85086958
0.8636006
0.87023294
0.86758754
0.87278737
0.87261586
0.87800478
0.88016619
0.88670588
0.89159116
0.90019507
0.90857984
0.92047288
0.93367577
0.95050856
0.97004018
0.99332964
1.019448
1.0474329
1.0749958
1.100031
1.1208396
1.1368264
1.1482207
1.1556198
1.1598445
1.1619109
1.1627756
1.1631479
1.1635759
1.163813
1.1636361
1.163389
1.1633363
1.1636915
1.1640675
1.1645751
1.1654634
1.1673433
1.1686004
1.1691998
1.1693723
1.1692599
1.1678499
1.1670098
1.1665286
1.1663001
0.8071558
0.8117905
0.82474264
0.85750723
0.86771173
0.87430277
0.87172411
0.87708069
0.8770472
0.88263327
0.88502617
0.89184668
0.89707803
0.90608624
0.91499681
0.92749613
0.9414788
0.95917255
0.97971426
1.003982
1.0308765
1.0591269
1.0863161
1.110377
1.129851
1.1444336
1.1544771
1.160572
1.1636862
1.1649081
1.1651568
1.1650811
1.1651134
1.1650556
1.1645452
1.1640646
1.1639035
1.1641025
1.1643882
1.1648522
1.1658319
1.1676897
1.1687655
1.1692464
1.1693651
1.1690376
1.1676792
1.1668849
1.1664434
1.1662567
0.81128224
0.81598188
0.8300896
0.86411416
0.87188302
0.87850179
0.87599768
0.88152115
0.88164386
0.88743799
0.89007528
0.89719343
0.90279026
0.91223622
0.92171878
0.93487102
0.94968816
0.96829291
0.98987926
1.0151081
1.0426773
1.0710159
1.0976269
1.1205476
1.1386117
1.1517884
1.16041
1.1651934
1.1672383
1.1677092
1.1673977
1.166883
1.1665672
1.1662107
1.1653799
1.1646894
1.1644375
1.1644943
1.1646895
1.1651426
1.1662499
1.1679665
1.1688947
1.169281
1.1693606
1.1687789
1.1675232
1.1667867
1.1663754
1.166205
0.81556467
0.82029172
0.835744
0.87066793
0.8761449
0.88284591
0.88042623
0.88612444
0.88641209
0.8924254
0.89532237
0.90275477
0.90874561
0.91866945
0.92877524
0.94262806
0.95833474
0.97789922
1.0005545
1.0267045
1.054817
1.0830449
1.1088697
1.1305057
1.1471197
1.158845
1.1659836
1.1694624
1.1705349
1.1703564
1.1694848
1.1685614
1.1679288
1.1672878
1.1661476
1.1652692
1.1649196
1.1648765
1.164973
1.1654445
1.166674
1.1682022
1.1689879
1.169294
1.1693502
1.1685304
1.1673736
1.166701
1.1663215
1.1661586
0.82005037
0.82476361
0.84174354
0.87716815
0.8805364
0.88735246
0.88501954
0.89089505
0.89135231
0.89759587
0.90077314
0.90854579
0.91497576
0.92541544
0.93619771
0.95079896
0.96744977
0.98801894
1.0117516
1.038754
1.0672462
1.0951457
1.1199826
1.1402205
1.1553667
1.1655362
1.1711572
1.1733846
1.1736574
1.1728088
1.171423
1.1701253
1.1692066
1.1682846
1.1668555
1.1658085
1.1653498
1.1652419
1.165242
1.1657476
1.1670877
1.1684052
1.1690576
1.1692984
1.1693342
1.1682633
1.1672332
1.1666264
1.1662781
1.1661218
0.82476796
0.82941458
0.84808239
0.8836141
0.88505929
0.89201312
0.88976669
0.89582959
0.89646987
0.90296187
0.90644937
0.91459329
0.92151155
0.93250515
0.94401782
0.9594159
0.9770655
0.99867904
1.0234781
1.0512328
1.0799112
1.1072523
1.1309164
1.1496803
1.1633027
1.1718128
1.1759142
1.1770495
1.1765721
1.1750823
1.1732171
1.1715807
1.1704015
1.1692056
1.1675066
1.1663019
1.1657415
1.165579
1.1655036
1.1660419
1.1674732
1.1685858
1.1691177
1.1692985
1.1692901
1.1680228
1.1671064
1.1665648
1.1662471
1.1660967
0.82970676
0.83423205
0.85471363
0.88993739
0.88969624
0.89681952
0.89467037
0.90093619
0.90178095
0.90854827
0.91238486
0.9209324
0.92838041
0.93996877
0.952268
0.96851242
0.9872138
1.0099017
1.0357296
1.0641003
1.0927433
1.1192926
1.1416264
1.1588741
1.1708464
1.1776305
1.1802807
1.1805083
1.179266
1.1771778
1.1748747
1.1729339
1.1715174
1.1700529
1.1681025
1.1667531
1.1661012
1.1658822
1.1657643
1.1663524
1.1678145
1.1687432
1.1691705
1.1692967
1.1691732
1.1678185
1.166997
1.1665141
1.1662276
1.1660853
0.83485207
0.83923162
0.86161687
0.89613392
0.89446677
0.90178694
0.89975252
0.90623999
0.90731866
0.91439079
0.91861412
0.92759343
0.93561283
0.94783638
0.96098143
0.97812346
0.99792672
1.0217055
1.0484946
1.0773079
1.1056727
1.1312053
1.1520855
1.1677632
1.1779274
1.1829671
1.1843588
1.1837253
1.1817493
1.1791057
1.1764033
1.1741913
1.1725577
1.1708298
1.1686436
1.1671615
1.1664292
1.1661656
1.1660265
1.166713
1.1680975
1.1688729
1.1692075
1.169296
1.1689451
1.1676661
1.1669079
1.1664738
1.166215
1.1660833
0.84021836
0.8444559
0.86877109
0.90223107
0.89940042
0.90694318
0.90504573
0.91178034
0.91312173
0.92052142
0.92516374
0.93459952
0.94324037
0.95614175
0.97019295
0.98828602
1.0092333
1.0340996
1.0617433
1.0907905
1.1186183
1.1429324
1.1622732
1.176251
1.1844968
1.1878519
1.1881975
1.1866876
1.1840283
1.1808734
1.1778105
1.1753589
1.1735266
1.1715389
1.1691288
1.1675273
1.1667276
1.1664366
1.166294
1.1670945
1.1683261
1.1689781
1.1692382
1.1692937
1.1686739
1.1675175
1.166831
1.1664407
1.1662073
1.1660854
0.84585599
0.84997483
0.87615299
0.9082699
0.90453681
0.91232616
0.91058979
0.91759451
0.919221
0.92696114
0.93205301
0.94197427
0.95129698
0.96492132
0.97993978
0.99903785
1.0211618
1.0470843
1.0754366
1.1044764
1.1315078
1.1544317
1.1721711
1.1842378
1.1905212
1.1923937
1.1917619
1.1894076
1.1861141
1.1824907
1.1791046
1.1764434
1.1744287
1.1721835
1.1695565
1.1678519
1.1670016
1.1666995
1.1665648
1.1674594
1.1685239
1.1690621
1.169261
1.1692875
1.1684187
1.1673755
1.1667665
1.1664167
1.1662065
1.1660898
0.85177946
0.85584779
0.88373117
0.91431057
0.90991733
0.91797441
0.91641787
0.92369875
0.92562831
0.93372369
0.93930478
0.94975168
0.95981691
0.97421465
0.99026103
1.0104166
1.0337341
1.0606448
1.0895148
1.1182788
1.1442668
1.165665
1.181676
1.1916679
1.1960117
1.1966666
1.1950313
1.1918936
1.1880162
1.1839663
1.1802933
1.1774508
1.1752679
1.1727643
1.1699262
1.168139
1.1672562
1.1669554
1.1668363
1.1678061
1.1686955
1.1691285
1.1692722
1.1692592
1.1681572
1.1672486
1.166713
1.1663981
1.1662074
1.1660958
0.85801324
0.862158
0.89150578
0.92046034
0.91558179
0.92391108
0.92252729
0.93008853
0.93235104
0.94083098
0.94695216
0.95796974
0.96884415
0.98406313
1.0011966
1.0224596
1.0469651
1.0747548
1.1039092
1.1321138
1.1568353
1.1766068
1.1906777
1.1984969
1.2010821
1.2006324
1.198023
1.1941589
1.1897462
1.18531
1.1813848
1.1783874
1.1760471
1.1732787
1.1702423
1.1683942
1.1674971
1.167207
1.1671081
1.168128
1.1688414
1.1691789
1.1692808
1.1691686
1.1679425
1.1671449
1.1666734
1.1663879
1.166211
1.1661025
0.86448105
0.86890737
0.8994107
0.9268838
0.92149623
0.93010918
0.92890823
0.93677648
0.93942072
0.94832211
0.95503858
0.96667482
0.97841785
0.99451026
1.0127885
1.0351998
1.0608548
1.0893653
1.1185321
1.1458922
1.1691547
1.1871857
1.1990732
1.2047034
1.2058458
1.2042614
1.2007461
1.1962153
1.1913146
1.1865309
1.182387
1.1792585
1.176766
1.1737174
1.1705162
1.168625
1.1677302
1.1674576
1.1673862
1.1684007
1.1689616
1.1692141
1.1692838
1.1689809
1.167777
1.1670624
1.1666464
1.1663846
1.1662159
1.1661117
0.87120235
0.87615013
0.90739139
0.93352131
0.92764649
0.93657507
0.93561261
0.94381086
0.94688497
0.95623994
0.96360574
0.97590876
0.98858174
1.0056017
1.0250819
1.0486661
1.0753902
1.1044129
1.1332919
1.1595379
1.1811845
1.1972736
1.2068152
1.2104008
1.2102667
1.2075701
1.203217
1.1980766
1.1927328
1.1876385
1.1833079
1.1800692
1.1774233
1.174075
1.1707603
1.1688395
1.1679608
1.1677064
1.1676807
1.1686175
1.169058
1.1692421
1.1692841
1.1687472
1.167641
1.1669922
1.1666223
1.1663851
1.1662282
1.1661293
0.87808705
0.8838487
0.91540797
0.93998647
0.93410774
0.94337384
0.94268767
0.95123963
0.95478628
0.96462139
0.97269177
0.98571487
0.99937652
1.0173895
1.038122
1.0628757
1.0905358
1.1198108
1.1480856
1.1729744
1.1928765
1.2067305
1.2138615
1.2157067
1.2143185
1.2105704
1.2054499
1.1997555
1.1940113
1.188642
1.1841549
1.1808236
1.178017
1.174363
1.1709759
1.169043
1.1681878
1.1679491
1.1679827
1.1687892
1.1691366
1.1692661
1.1692815
1.1685093
1.1675128
1.166929
1.1665989
1.1663873
1.1662443
1.1661511
0.88537991
0.89216302
0.92359052
0.94688062
0.94093838
0.95056432
0.95017986
0.9591
0.96315906
0.97350476
0.98233864
0.99612631
1.0108572
1.0299316
1.0519519
1.0778315
1.1062376
1.1354627
1.1628187
1.1861373
1.2041042
1.2154876
1.2202824
1.2206457
1.217998
1.2132816
1.2074614
1.2012655
1.1951613
1.1895505
1.1849352
1.1815252
1.1785468
1.1745903
1.1711684
1.1692383
1.1684096
1.1681856
1.1682653
1.168934
1.1692051
1.1692869
1.1692593
1.1682543
1.1673936
1.1668798
1.1665904
1.1663963
1.1662646
1.1661767
0.8930157
0.90105487
0.93191126
0.95400087
0.94816401
0.95815608
0.95811209
0.96741519
0.97203527
0.98293443
0.99260425
1.0071905
1.0230812
1.0432898
1.0666049
1.0935118
1.122414
1.151255
1.1773961
1.1989653
1.2147129
1.2234846
1.2262044
1.2251798
1.221325
1.2157202
1.2092667
1.2026192
1.196193
1.1903729
1.1856555
1.1821762
1.1790125
1.1747664
1.1713416
1.169427
1.1686257
1.1684158
1.1685199
1.1690511
1.1692553
1.169315
1.169172
1.168036
1.1672882
1.1668408
1.1665872
1.1664106
1.1662876
1.1662047
0.90105869
0.91064634
0.94042446
0.96166141
0.95581211
0.96617018
0.96650274
0.97621465
0.98145621
0.99295685
1.0035295
1.0189984
1.0361248
1.0575221
1.082097
1.1098716
1.1389658
1.1670762
1.1917325
1.211373
1.2245725
1.2307311
1.2317288
1.2292845
1.224319
1.2179065
1.2108824
1.2038298
1.1971171
1.1911177
1.1863213
1.1827783
1.1794151
1.1749003
1.1714993
1.1696107
1.1688363
1.1686394
1.1687434
1.1691476
1.1692899
1.1693241
1.169003
1.167864
1.167202
1.1668104
1.1665883
1.1664276
1.1663122
1.1662342
0.90937345
0.92090963
0.94926334
0.9696177
0.96387722
0.97462417
0.9753871
0.98554402
0.99148193
1.0036426
1.0152017
1.0316329
1.050062
1.0726737
1.0984188
1.1268336
1.155771
1.1828095
1.2057423
1.2231791
1.2336166
1.2373584
1.2368045
1.2329868
1.2270008
1.2198586
1.2123234
1.2049091
1.1979432
1.1917929
1.1869375
1.1833324
1.1797549
1.1750002
1.1716442
1.1697898
1.1690414
1.1688555
1.1689352
1.1692291
1.1693166
1.1693231
1.168772
1.1677375
1.1671377
1.1667925
1.1665908
1.1664467
1.166338
1.1662649
0.9178855
0.93181343
0.95830146
0.97801058
0.97242286
0.98357075
0.98483019
0.99547082
1.0021868
1.0150715
1.0277238
1.0451879
1.0649587
1.0887697
1.1155337
1.1442974
1.1727015
1.1983485
1.2193487
1.2342112
1.2417977
1.2435239
1.2413983
1.2363071
1.2293938
1.2215966
1.2136056
1.2058694
1.1986813
1.1924061
1.1875087
1.1838408
1.1800356
1.1750727
1.1717796
1.169965
1.1692382
1.1690584
1.1690944
1.1693036
1.1693527
1.1693185
1.1685432
1.16762
1.167088
1.1667874
1.166602
1.1664693
1.1663655
1.166297
0.9266585
0.94340948
0.9676139
0.98683977
0.98150196
0.99307914
0.99491216
1.0060789
1.0136633
1.0273414
1.0412008
1.0597458
1.0808621
1.1058083
1.1333704
1.1621338
1.1896186
1.2135792
1.232379
1.244365
1.2492367
1.249193
1.2455281
1.23927
1.2315199
1.2231384
1.2147429
1.2067218
1.1993403
1.1929643
1.1880394
1.1843087
1.1802667
1.1751243
1.1719096
1.1701375
1.1694224
1.1692343
1.1692271
1.1693686
1.1694064
1.1692682
1.1683055
1.1675137
1.167048
1.1667875
1.1666181
1.1664942
1.1663947
1.1663304
0.9356886
0.95573726
0.97735846
0.99623386
0.99121914
1.0032448
1.0057301
1.0174719
1.026026
1.0405806
1.0557028
1.0753661
1.0977995
1.1237583
1.1518284
1.1801989
1.2063924
1.2284026
1.2446372
1.2535758
1.25609
1.2543352
1.2492205
1.2419026
1.2334028
1.2245031
1.2157501
1.2074776
1.1999291
1.193474
1.1885339
1.1847425
1.1804623
1.1751637
1.1720366
1.170307
1.1695945
1.1693771
1.1693468
1.1694177
1.1694211
1.1691671
1.1681027
1.1674205
1.1670155
1.16679
1.1666367
1.1665207
1.1664254
1.1663649
0.94500025
0.96897071
0.9875614
1.0062675
1.0016559
1.0141588
1.0173957
1.0297614
1.0393854
1.0548772
1.0713026
1.0920983
1.1157766
1.1425556
1.1707731
1.1983326
1.222884
1.2426797
1.2559511
1.261898
1.2624076
1.2589403
1.2525035
1.244231
1.2350642
1.2257075
1.2166401
1.2081468
1.2004558
1.1939415
1.1889961
1.1851448
1.1806197
1.1752036
1.1721612
1.1704673
1.1697475
1.1695015
1.1694519
1.169468
1.1694245
1.1690031
1.167948
1.1673456
1.1669891
1.166795
1.1666571
1.1665487
1.1664575
1.1664007
0.95465495
0.98325286
0.99831699
1.0170644
1.0129407
1.0259435
1.0300383
1.04307
1.0538456
1.0702903
1.0880509
1.1099764
1.134773
1.1621007
1.1900475
1.2163778
1.2389636
1.2561785
1.2662439
1.2695009
1.2681405
1.2630476
1.2554091
1.2462835
1.2365269
1.2267691
1.2174261
1.2087396
1.2009284
1.1943728
1.1894294
1.185511
1.1806962
1.1752599
1.1722831
1.1706164
1.169886
1.1696146
1.1695434
1.1695322
1.1694215
1.1687892
1.1678357
1.1672945
1.1669793
1.1668067
1.1666802
1.1665788
1.1664917
1.1664376
0.9648015
0.99863816
1.0097951
1.0287347
1.0251955
1.0387203
1.0437766
1.0575056
1.0694893
1.0868674
1.1059958
1.1290244
1.154735
1.1822517
1.2094687
1.2341692
1.2544932
1.2686748
1.2754989
1.2765156
1.2732579
1.2666858
1.2579681
1.2480859
1.2378112
1.2277032
1.2181196
1.2092651
1.2013542
1.1947736
1.1898355
1.1858345
1.1807256
1.1753342
1.1724028
1.1707567
1.1700168
1.1697218
1.1696207
1.1695879
1.1693858
1.1685615
1.167733
1.1672551
1.1669773
1.1668227
1.1667073
1.1666129
1.1665295
1.1664706
0.97548961
1.0152611
1.0221633
1.0413909
1.0385424
1.0525898
1.0586976
1.073131
1.0863473
1.1047231
1.1252038
1.1492374
1.1755627
1.2028317
1.2288474
1.2515397
1.2692235
1.2800619
1.2838977
1.2828747
1.2778097
1.2698936
1.2602143
1.2496654
1.2389382
1.2285258
1.2187325
1.2097325
1.2017407
1.195149
1.1902155
1.1861116
1.1807359
1.1754142
1.1725221
1.1708931
1.1701426
1.1698192
1.1696796
1.1696085
1.1693166
1.1683528
1.1676366
1.1672207
1.1669797
1.1668461
1.1667406
1.1666478
1.1665617
1.1665003
0.98674506
1.0331763
1.0355555
1.0551563
1.0530841
1.0676113
1.07484
1.0900118
1.1045461
1.1239534
1.1457157
1.1705639
1.197101
1.2236266
1.2479804
1.2683154
1.2828932
1.2902712
1.2916363
1.2885305
1.2818264
1.2727069
1.2621781
1.2510462
1.2399262
1.2292504
1.2192752
1.2101499
1.2020945
1.195503
1.1905695
1.1863457
1.1807461
1.175498
1.1726432
1.1710274
1.1702624
1.1699048
1.1697232
1.1696162
1.1691955
1.1681739
1.1675554
1.1671966
1.1669901
1.1668717
1.1667714
1.166679
1.1665933
1.1665331
0.99906701
1.0524464
1.0500381
1.0700426
1.068859