/*--------------------------------*- C++ -*----------------------------------*\
  =========                 |
  \\      /  F ield         | OpenFOAM: The Open Source CFD Toolbox
   \\    /   O peration     | Website:  https://openfoam.org
    \\  /    A nd           | Version:  8
     \\/     M anipulation  |
\*---------------------------------------------------------------------------*/
FoamFile
{
    version     2.0;
    format      ascii;
    class       surfaceVectorField;
    location    "0.259994";
    object      rhoUf;
}
// * * * * * * * * * * * * * * * * * * * * * * * * * * * * * * * * * * * * * //

dimensions      [1 -2 -1 0 0 0 0];

internalField   nonuniform List<vector> 
39600
(
(198.23085 -1.2420694e-19 8.2913153)
(184.48591 0 7.1091962)
(183.57275 0 7.8035565)
(225.09391 -1.5008345e-19 9.3676738)
(216.1325 6.1692031e-21 8.6226848)
(215.13642 -1.4474295e-19 9.4253827)
(245.04031 1.7428252e-19 10.117381)
(237.09841 2.3104881e-19 9.3424801)
(235.95577 7.7563759e-22 10.233774)
(263.90711 5.7246263e-20 10.779808)
(255.92821 5.0564718e-17 9.9821659)
(254.61983 2.0105442e-19 10.943808)
(283.78657 -4.453856e-19 11.426096)
(274.97485 -4.3944913e-17 10.577123)
(273.46685 -1.7713906e-19 11.613545)
(301.64383 -2.9351534e-17 11.898039)
(296.10658 1.20358e-20 11.235412)
(294.20781 -3.0372444e-19 12.34156)
(310.94307 -3.4839603e-17 12.163817)
(309.5889 -3.1028279e-17 11.280623)
(308.97593 -3.3411674e-17 12.503929)
(311.97159 2.0335101e-17 12.160585)
(312.94316 -3.8319631e-20 11.919807)
(312.72995 4.874723e-17 13.128705)
(311.62455 7.4408929e-18 12.104173)
(311.00081 2.2142479e-17 11.039091)
(310.84495 -5.8606673e-17 12.305406)
(311.9632 -5.7808652e-18 12.062872)
(312.56284 -1.8469522e-17 11.987132)
(312.38079 1.4821165e-17 13.202795)
(311.82881 1.8208045e-17 11.99377)
(311.44615 1.5367022e-17 10.829074)
(311.28359 -1.2178678e-17 12.110267)
(312.15106 8.3130649e-19 11.924821)
(312.51975 -8.3384997e-20 11.895003)
(312.32873 2.5019248e-17 13.123789)
(312.21027 0 11.842187)
(311.9415 0 10.693387)
(311.79476 2.045131e-17 11.9901)
(312.57214 -3.4534286e-18 11.744198)
(312.75367 2.3384306e-18 11.636925)
(312.57534 -1.7115377e-17 12.911074)
(312.80726 -3.9905915e-18 11.606773)
(312.59215 1.6144463e-19 10.555902)
(312.40512 -1.8411685e-17 11.89538)
(313.26664 2.5988248e-18 11.43768)
(313.32006 -3.082143e-18 11.211498)
(313.10857 2.4252478e-17 12.555145)
(313.68717 2.8872404e-18 11.213101)
(313.46396 2.6139045e-18 10.300655)
(313.24119 -7.6319425e-18 11.704393)
(314.29393 0 10.934184)
(314.22241 5.7623496e-19 10.592453)
(313.98026 2.7498552e-19 12.030534)
(314.92182 0 10.573156)
(314.65722 -4.7837395e-19 9.7999767)
(314.40074 7.5409876e-18 11.303708)
(315.72283 0 10.124736)
(315.53502 0 9.7039749)
(315.26138 -1.2839592e-17 11.269758)
(316.59256 -4.0286042e-18 9.5583672)
(316.26955 1.0897524e-17 8.9059622)
(315.9813 5.4774845e-18 10.548206)
(317.61559 -8.2982809e-18 8.868998)
(317.32037 1.7475126e-19 8.4122825)
(317.02194 -4.3042423e-18 10.14197)
(318.69944 9.9764656e-20 8.0341651)
(318.32834 -3.7510393e-18 7.4673349)
(318.02389 -3.6102448e-18 9.293512)
(319.84366 -8.4704684e-19 7.0651905)
(319.50785 4.6610468e-18 6.5821148)
(319.20788 7.5657619e-19 8.5170996)
(320.91475 -1.1440194e-17 5.9776319)
(320.60667 4.471063e-18 5.420446)
(320.32109 -7.7146661e-18 7.4625425)
(321.79345 -5.3735033e-18 4.8335556)
(321.62267 9.6863327e-18 4.257823)
(321.3665 -4.163004e-18 6.3972427)
(322.27373 6.8635912e-18 3.716556)
(322.30207 -3.6160899e-17 3.0404909)
(322.08686 3.5764411e-18 5.2353901)
(322.18483 1.2389599e-18 2.7329433)
(322.49579 7.9785785e-18 1.985904)
(322.32888 4.4010776e-18 4.1663469)
(321.42454 6.8400686e-18 1.9618565)
(322.02575 3.1215366e-18 1.1580487)
(321.90374 -1.1041385e-17 3.2262162)
(320.05134 -6.3733581e-19 1.44418)
(320.88939 2.772641e-17 0.64699545)
(320.80552 1.392657e-17 2.5083882)
(318.24151 -2.5412604e-17 1.1762982)
(319.21171 8.2303353e-18 0.42455444)
(319.15705 -1.3331462e-17 2.0158768)
(316.22283 4.6650595e-17 1.1159949)
(317.22103 0 0.4460655)
(317.1872 -6.2099322e-18 1.749491)
(314.20512 6.3266166e-17 1.1958539)
(315.15027 1.3164055e-18 0.62586064)
(315.12975 3.3367203e-17 1.6590839)
(312.33308 -4.6411595e-17 1.3370877)
(313.17931 3.0025645e-17 0.87650473)
(313.16548 8.567352e-18 1.6768955)
(310.69181 -8.3069606e-17 1.4720782)
(311.41389 -3.4479143e-17 1.128592)
(311.40234 -3.7152424e-17 1.737566)
(309.3029 4.5845177e-18 1.5443469)
(309.91194 -9.3933936e-18 1.3111652)
(309.89861 -9.4208708e-18 1.7683567)
(308.15992 2.2960878e-17 1.5406547)
(308.64899 -8.8063778e-17 1.3992878)
(308.63383 1.3151284e-17 1.7387681)
(307.24842 -1.1323589e-17 1.4658579)
(307.64035 -1.0151534e-17 1.3957531)
(307.62416 -4.2698467e-18 1.6451876)
(306.53979 6.773503e-19 1.3429535)
(306.83782 0 1.3233519)
(306.82183 0 1.5045237)
(306.00065 8.4932467e-19 1.1825694)
(306.23481 1.3074096e-17 1.2030253)
(306.21881 -4.0878952e-18 1.3331298)
(305.59676 5.9445322e-17 0.99779134)
(305.76679 -1.7302382e-16 1.043457)
(305.75217 5.720902e-20 1.1365677)
(305.31393 6.5531414e-17 0.78935365)
(305.43509 1.3166314e-17 0.8588277)
(305.42275 1.4814553e-17 0.92700464)
(305.13242 -7.616338e-17 0.56098126)
(305.20465 -1.0206465e-17 0.6416661)
(305.19534 2.3661347e-19 0.69195729)
(305.03838 -7.1822403e-17 0.32360005)
(305.07332 -7.4405551e-18 0.41707238)
(305.06779 -1.7625686e-17 0.45591768)
(305.02127 -4.5454133e-17 0.053068961)
(305.01356 1.0639565e-17 0.16685332)
(305.01144 5.831148e-18 0.19794286)
(305.05059 -7.1471031e-17 -0.006979803)
(305.02095 1.2700802e-16 -0.12001564)
(305.03872 -9.0678833e-18 -0.09211082)
(304.94546 0 -0.38007352)
(304.94953 5.9558989e-18 -0.35422998)
(304.9423 -1.6119399e-20 -0.33512184)
(304.97389 -9.8107091e-20 0.026184282)
(304.9114 -6.7236132e-17 -0.41674557)
(304.95552 4.525269e-21 -0.40894458)
(304.72599 1.9860904e-17 -0.48761951)
(304.77336 -6.9578078e-18 -0.47189328)
(304.76404 -1.3722106e-20 -0.47777707)
(304.69615 4.4166793e-17 -0.49037383)
(304.69931 -6.3379491e-19 -0.50968888)
(199.30953 1.2746202e-19 7.5468717)
(185.24271 0 6.398963)
(226.20452 3.6095195e-19 8.5000649)
(217.03529 7.4162628e-17 7.7964525)
(246.2491 4.5536227e-17 9.1654873)
(238.12446 -5.9877489e-17 8.4274309)
(265.24172 1.4920191e-17 9.7527502)
(257.096 4.9189447e-17 8.9943321)
(285.35644 -4.690487e-17 10.327747)
(276.31817 -4.3452849e-17 9.5109063)
(302.81062 7.8291879e-19 10.722173)
(297.80539 3.9309909e-17 10.101093)
(311.28179 5.5304803e-19 10.939634)
(310.02018 -3.3482628e-17 10.030759)
(312.14683 0 10.920589)
(313.16767 0 10.704849)
(311.79908 0 10.863318)
(311.14827 -1.1761529e-17 9.756958)
(312.15038 -4.5060003e-19 10.815966)
(312.74759 9.7764957e-18 10.76942)
(312.03635 -1.2922614e-18 10.740975)
(311.61261 -2.535693e-18 9.5238108)
(312.3619 -9.0200915e-19 10.661594)
(312.71717 -5.9426214e-18 10.656025)
(312.39887 2.1010115e-18 10.553226)
(312.12555 5.6904306e-18 9.3646339)
(312.77909 6.0427516e-18 10.424918)
(312.96952 -4.8698395e-18 10.344128)
(313.02303 1.3063534e-18 10.255005)
(312.80883 5.8051622e-18 9.1819352)
(313.49263 -3.5172589e-18 10.050339)
(313.55713 -4.8629251e-18 9.8457911)
(313.91819 5.1736427e-19 9.7840037)
(313.71025 -5.5927546e-18 8.8672273)
(314.53615 1.9257729e-19 9.4591277)
(314.48543 -7.641501e-18 9.1359813)
(315.18061 -5.1717492e-19 9.0413423)
(314.93593 -3.4210825e-18 8.2783866)
(316.00155 9.7749999e-18 8.5293774)
(315.82773 1.4874713e-17 8.1297898)
(316.88848 1.5900918e-17 7.88678)
(316.57692 1.071522e-17 7.2583716)
(317.92329 4.9585238e-18 7.1132645)
(317.63451 9.2141067e-18 6.6856692)
(319.01097 0 6.1823677)
(318.647 -3.9079025e-18 5.6509645)
(320.14733 9.8987762e-18 5.1142476)
(319.81687 0 4.6674462)
(321.19776 2.4771164e-17 3.9301019)
(320.89517 1.0855724e-17 3.4095581)
(322.04185 -1.6504334e-17 2.7132333)
(321.87075 -5.1723533e-18 2.1629748)
(322.47907 -3.9116566e-17 1.5719289)
(322.49434 -2.7695622e-18 0.90223884)
(322.3505 1.0284963e-17 0.64299324)
(322.62128 0 -0.12992119)
(321.56418 2.1345313e-17 0.018741733)
(322.0889 1.1360571e-17 -0.84675738)
(320.17222 3.83268e-17 -0.27296057)
(320.90522 -1.058834e-16 -1.1613624)
(318.34457 3.4143303e-17 -0.27197843)
(319.19834 9.4010321e-17 -1.1284017)
(316.31133 -4.4969006e-17 -0.059034159)
(317.19374 1.0264351e-16 -0.83223741)
(314.28194 -3.4500622e-17 0.26971673)
(315.12013 -5.007616e-17 -0.39188137)
(312.40161 4.8497389e-17 0.62331516)
(313.15312 1.5298367e-16 0.085415291)
(310.75483 3.5973038e-17 0.93160228)
(311.39482 2.4678702e-17 0.52553196)
(309.3607 -9.2932203e-17 1.1412026)
(309.90232 -1.6461446e-16 0.85827095)
(308.21212 -1.2936713e-16 1.2437466)
(308.64736 1.6300706e-17 1.0634339)
(307.29494 0 1.2501115)
(307.64444 0 1.1497245)
(306.58091 1.0901337e-17 1.1882888)
(306.84521 -1.3284549e-16 1.1454651)
(306.03705 -1.3956689e-16 1.0732089)
(306.24477 -1.7291732e-16 1.0761722)
(305.62894 -2.3996304e-16 0.92046932)
(305.77717 -5.3806748e-17 0.9536153)
(305.34095 -5.9843679e-17 0.73391203)
(305.44451 -4.0261109e-17 0.79413162)
(305.15206 5.8231302e-17 0.52103886)
(305.21216 -2.1537048e-20 0.59485067)
(305.05099 7.3051102e-17 0.29294)
(305.07771 5.1115192e-17 0.38178244)
(305.01654 1.7049726e-16 0.029921883)
(305.01513 -1.502899e-16 0.13914646)
(305.01959 2.1841398e-16 -0.11349278)
(305.01085 5.7431753e-17 -0.14465826)
(304.97754 -5.1602388e-17 -0.16078302)
(304.93357 5.9965803e-18 -0.37258517)
(304.9144 -7.4823564e-17 -0.061376463)
(304.88606 2.9656786e-18 -0.42297347)
(304.74231 1.2100435e-17 -0.46924894)
(304.77649 -6.9457842e-18 -0.46332127)
(304.69604 -1.0447886e-16 -0.45745949)
(200.00313 6.6333807e-17 6.7751164)
(185.90045 -4.1792666e-19 5.66182)
(227.05781 2.5716093e-17 7.6286739)
(217.86919 1.1052699e-16 6.9504052)
(247.26042 -6.4758357e-17 8.219571)
(239.11186 -8.9999754e-17 7.4990948)
(266.43553 -6.311109e-19 8.7344554)
(258.25902 2.6381689e-17 7.9944498)
(286.82331 3.4320924e-17 9.231072)
(277.68534 -2.2902711e-17 8.4255668)
(303.90634 1.1504532e-17 9.5366178)
(299.52436 5.803517e-17 8.9481932)
(311.62623 -3.6624836e-17 9.6955932)
(310.43859 -6.8430257e-17 8.7595668)
(312.35459 -1.0572267e-17 9.6684448)
(313.37397 1.6109242e-17 9.4678435)
(311.9547 -3.8912389e-18 9.6010033)
(311.31905 4.9969999e-19 8.4476304)
(312.31659 8.7009794e-18 9.5409858)
(312.95564 9.5734508e-18 9.5258916)
(312.19084 -6.8122616e-18 9.4518867)
(311.802 -8.24146e-18 8.1877143)
(312.53422 -4.0981098e-19 9.3610739)
(312.92085 -1.719492e-17 9.3807022)
(312.6084 -2.9089192e-19 9.2280205)
(312.34416 8.4502758e-18 8.0008189)
(313.00492 -5.9404989e-18 9.0737561)
(313.21142 -2.13398e-18 9.0193006)
(313.26023 6.2273031e-19 8.875207)
(313.04698 -5.1852317e-18 7.7827997)
(313.74819 -6.8343753e-18 8.6375945)
(313.81394 2.6055166e-18 8.4532161)
(314.19172 -1.3408204e-17 8.3313682)
(313.97644 2.2201302e-19 7.4117456)
(314.82828 -1.1519256e-17 7.9590087)
(314.76747 1.5207754e-18 7.6551317)
(315.48722 1.0152544e-17 7.4852668)
(315.23251 -8.7112285e-19 6.7362392)
(316.31902 1.6133845e-17 6.9093973)
(316.13638 -1.4106561e-17 6.5338743)
(317.21394 4.2894636e-18 6.1930814)
(316.89896 -1.1290286e-17 5.5922399)
(318.25114 1.6254467e-18 5.3363374)
(317.96136 -2.0194668e-19 4.9409477)
(319.33385 -4.2400363e-18 4.3138035)
(318.97588 4.2578084e-18 3.8201895)
(320.45187 0 3.1512057)
(320.1317 3.5663175e-18 2.7424774)
(321.46736 -1.7146764e-17 1.879826)
(321.18288 1.8532895e-19 1.3960406)
(322.25601 8.1454134e-18 0.60148931)
(322.10796 -5.8143393e-17 0.076283891)
(322.62085 3.5454056e-17 -0.55085622)
(322.66235 2.7873643e-17 -1.2138828)
(322.4119 0 -1.4161955)
(322.70729 0 -2.2103759)
(321.55284 -1.0285552e-16 -1.8915305)
(322.09914 0 -2.8090969)
(320.11105 -7.0307479e-17 -1.9612954)
(320.85952 4.2807771e-17 -2.9286884)
(318.26022 1.6081739e-16 -1.698338)
(319.12243 -1.6341493e-18 -2.6476046)
(316.22341 1.1296455e-16 -1.2187032)
(317.10927 -9.3486245e-17 -2.0855831)
(314.20259 1.1469387e-16 -0.64588632)
(315.04178 -1.0242276e-17 -1.392275)
(312.3364 1.4269099e-16 -0.08364203)
(313.0884 -1.8984829e-17 -0.69403351)
(310.70562 -1.5424752e-16 0.39507533)
(311.34598 2.1574838e-16 -0.070064532)
(309.32742 -7.5451351e-17 0.73962599)
(309.87021 -3.6436933e-17 0.40981308)
(308.19178 1.4658806e-16 0.94662103)
(308.62912 1.4615155e-16 0.72976721)
(307.28402 -1.1761141e-16 1.0329258)
(307.63645 0 0.9043624)
(306.57669 -3.1145739e-16 1.0314163)
(306.84394 1.2368549e-18 0.96729209)
(306.03731 -1.0071899e-16 0.96114862)
(306.2486 2.1205406e-16 0.94835116)
(305.63097 1.439552e-16 0.84016074)
(305.78326 1.1841838e-16 0.86245443)
(305.3432 1.4960101e-17 0.67534549)
(305.45096 -1.7532002e-16 0.72792544)
(305.15379 -1.2937426e-17 0.47783292)
(305.21755 -3.4668948e-16 0.54642057)
(305.05088 -1.4974828e-16 0.2587311)
(305.08066 2.2543195e-16 0.34488733)
(305.01305 -2.8737674e-16 0.0029054237)
(305.01556 3.1134684e-17 0.10893464)
(305.00783 -1.50244e-16 -0.11749839)
(304.99886 -1.4343502e-16 -0.17129005)
(304.98916 6.344034e-17 -0.05643568)
(304.90867 0 -0.39098017)
(304.90018 7.8874322e-17 -0.11806593)
(304.87017 7.1610591e-17 -0.42770976)
(304.73951 -1.1465966e-16 -0.45148214)
(304.7762 3.3112621e-18 -0.45191147)
(304.69713 -5.0147759e-17 -0.42579121)
(200.74895 3.3813754e-17 5.9852534)
(186.53904 2.6265858e-20 4.9124096)
(227.98499 1.3052416e-17 6.7324301)
(218.70337 -2.0012825e-18 6.0848701)
(248.35771 -1.0014429e-17 7.2433018)
(240.10836 -3.008281e-17 6.5483796)
(267.7271 8.4543557e-18 7.6809174)
(259.44447 5.1889496e-17 6.9692993)
(288.38427 -6.0251986e-18 8.0942395)
(279.091 -4.5141076e-17 7.307699)
(305.04283 -1.0199633e-17 8.3136709)
(301.24736 3.9823015e-17 7.7634522)
(311.90782 -2.3496316e-17 8.4214363)
(310.81497 -5.0757735e-17 7.4629693)
(312.51148 2.8140525e-17 8.384912)
(313.58011 1.3911965e-17 8.2072696)
(312.15646 1.2945003e-17 8.3105183)
(311.51083 -5.1175187e-19 7.1088404)
(312.53191 -5.5883373e-18 8.2365415)
(313.19254 2.5446769e-18 8.257048)
(312.41139 -1.7684532e-17 8.1349962)
(312.00901 2.389158e-18 6.8238514)
(312.76989 -1.0542964e-17 8.0225038)
(313.15904 -8.3662944e-18 8.079781)
(312.85252 7.4808167e-18 7.8722285)
(312.57527 8.762639e-18 6.610609)
(313.25886 -1.1528893e-18 7.6968556)
(313.46649 4.7497012e-18 7.6697865)
(313.5191 -3.8683545e-18 7.4710282)
(313.30094 5.4916225e-18 6.3603479)
(314.01865 9.6972399e-18 7.2011664)
(314.08625 4.5880939e-18 7.0373378)
(314.47194 1.4722133e-17 6.8557389)
(314.25816 1.5402231e-17 5.9341717)
(315.1208 1.2131822e-17 6.4382045)
(315.06368 7.7181061e-19 6.151971)
(315.79249 -2.3541887e-17 5.9108687)
(315.54258 2.0466465e-17 5.1740373)
(316.63667 -4.1192323e-17 5.2731018)
(316.4569 -1.6021418e-17 4.918233)
(317.54129 -1.6612931e-17 4.4850979)
(317.23156 -1.1102258e-17 3.9083184)
(318.58136 2.0049629e-18 3.5477331)
(318.29644 -4.741906e-18 3.1794697)
(319.65756 1.1980264e-17 2.4377892)
(319.30982 3.6950683e-17 1.9757433)
(320.75321 4.0515391e-18 1.1870996)
(320.44656 -1.5274993e-19 0.80825742)
(321.7275 -3.4926734e-17 -0.16174765)
(321.46336 6.0219918e-18 -0.61898025)
(322.45249 -4.6455618e-17 -1.4886677)
(322.32775 1.5092086e-18 -2.000228)
(322.73712 -4.4549641e-18 -2.6373307)
(322.80018 -4.0152628e-18 -3.3042859)
(322.44521 0 -3.4271415)
(322.74966 6.5039818e-17 -4.2491487)
(321.51833 1.3958447e-16 -3.7492266)
(322.05438 -1.813193e-17 -4.7188836)
(320.03302 1.1486301e-16 -3.6012609)
(320.75282 7.4656059e-17 -4.6415097)
(318.16353 -2.4381833e-16 -3.0851056)
(318.98588 -5.5353648e-17 -4.118286)
(316.1278 -2.2376664e-16 -2.3486288)
(316.96976 -1.006583e-16 -3.3000828)
(314.1199 -1.4174288e-16 -1.5402586)
(314.91701 -1.6817894e-16 -2.3637143)
(312.2716 2.8972883e-17 -0.77596817)
(312.98645 -1.3380415e-17 -1.4528601)
(310.65973 3.5941321e-16 -0.13156108)
(311.26827 -3.8468932e-18 -0.65133692)
(309.29887 1.6407283e-16 0.34458457)
(309.81624 1.4511684e-16 -0.028897296)
(308.17678 1.6343737e-17 0.65372795)
(308.59471 1.4650896e-17 0.40250807)
(307.2786 1.1816655e-16 0.81840079)
(307.6167 0 0.6630826)
(306.57782 4.9934747e-16 0.87616606)
(306.83421 1.329338e-16 0.79164088)
(306.04273 4.4094935e-16 0.8500128)
(306.24643 1.9636154e-16 0.82190522)
(305.63817 -1.6714492e-16 0.76039556)
(305.78515 -6.0583771e-16 0.77195186)
(305.35017 -5.1733532e-16 0.61713424)
(305.45451 -1.615964e-16 0.66205629)
(305.15887 -1.7327814e-16 0.43474854)
(305.22095 -3.4677121e-16 0.49806946)
(305.053 4.2890839e-16 0.22425588)
(305.08226 8.6937725e-19 0.30788959)
(305.00599 1.9571285e-16 -0.024510288)
(305.01514 -1.6927863e-16 0.077465914)
(305.00801 -8.7860944e-18 -0.070513939)
(304.98091 -8.6505235e-20 -0.19871724)
(304.97357 0 -0.040703684)
(304.88517 0 -0.40913585)
(304.88104 2.9740278e-18 -0.14662045)
(304.85691 0 -0.431365)
(304.74082 7.513588e-17 -0.43262502)
(304.77377 6.6162992e-18 -0.43918383)
(304.69929 7.6963719e-17 -0.3923778)
(201.49039 -3.4777135e-17 5.1801951)
(187.19473 -4.4757108e-19 4.1478495)
(228.89835 -4.1954505e-17 5.8183921)
(219.55345 1.7787192e-18 5.1924243)
(249.44563 2.4019306e-17 6.2468845)
(241.1247 -3.2225153e-17 5.5705352)
(269.02394 7.0757237e-18 6.6047847)
(260.66055 2.6377018e-17 5.9161738)
(289.93793 -6.9593756e-18 6.9300635)
(280.5465 -2.4398448e-17 6.1539101)
(306.13967 7.2576841e-18 7.0672368)
(302.95573 -9.1216319e-19 6.5436097)
(312.23065 -1.9248502e-17 7.1306715)
(311.15736 -4.0211679e-19 6.1380796)
(312.75783 -1.2954767e-17 7.0750403)
(313.8416 8.2086446e-20 6.9242159)
(312.38433 -1.0911412e-17 6.9930341)
(311.715 -1.505896e-17 5.7447941)
(312.76954 1.0352184e-17 6.9069488)
(313.44516 -1.2567777e-19 6.9665061)
(312.64203 1.233863e-17 6.793382)
(312.22755 8.2948644e-18 5.4362963)
(313.01253 9.1587992e-18 6.6641385)
(313.41347 1.0710886e-17 6.7576305)
(313.09973 6.4069564e-18 6.4956806)
(312.81894 -3.2544829e-18 5.199794)
(313.51891 1.1185102e-17 6.2985845)
(313.73375 -5.0668595e-18 6.2976129)
(313.78924 1.3830569e-17 6.0450771)
(313.56917 4.2529986e-18 4.9158932)
(314.30299 9.302864e-18 5.743042)
(314.37158 -1.5305938e-20 5.5979647)
(314.7692 2.9278965e-18 5.358717)
(314.55282 -3.7298269e-18 4.4351374)
(315.43203 7.3351526e-18 4.8960297)
(315.37131 -7.188011e-18 4.6259337)
(316.11606 3.0817128e-17 4.3153528)
(315.86362 1.3895926e-18 3.5907737)
(316.9699 1.3043435e-17 3.6160885)
(316.78698 2.5930588e-17 3.2803554)
(317.881 0 2.7571388)
(317.57257 -2.9946653e-18 2.2033567)
(318.91986 2.6005653e-17 1.7405355)
(318.63764 2.4776047e-18 1.3969488)
(319.98442 2.8218495e-17 0.54626191)
(319.64645 3.2968766e-17 0.11269471)
(321.05068 1.2455397e-18 -0.78702048)
(320.75885 -1.4395571e-17 -1.1408058)
(321.97405 4.2255518e-17 -2.2040393)
(321.73366 5.537768e-18 -2.6412927)
(322.62258 4.3758876e-17 -3.5659917)
(322.52714 4.453004e-17 -4.0718676)
(322.81182 5.804706e-17 -4.694369)
(322.90552 0 -5.3729094)
(322.42064 5.4994414e-17 -5.3935045)
(322.7478 1.2924711e-17 -6.2480773)
(321.41176 -9.1129272e-17 -5.5534451)
(321.95645 -2.3902208e-17 -6.5752428)
(319.87631 -8.0659071e-17 -5.1874881)
(320.58854 -2.4222876e-16 -6.2959672)
(317.99032 9.0693245e-17 -4.4245059)
(318.79263 7.933525e-18 -5.534271)
(315.9635 -3.8840236e-17 -3.4406097)
(316.77877 -1.2371372e-16 -4.4687509)
(313.97912 -5.6985908e-17 -2.4061124)
(314.74856 1.3720176e-17 -3.2996975)
(312.15945 -4.6972276e-17 -1.4478593)
(312.84922 -2.7006763e-16 -2.1857192)
(310.57615 -2.3233724e-16 -0.64398053)
(311.16299 -2.1615306e-16 -1.2142368)
(309.24107 1.0820652e-17 -0.040903744)
(309.74127 -2.5122832e-19 -0.45494117)
(308.13949 0 0.36701391)
(308.54467 -7.5989958e-18 0.083665604)
(307.25635 0 0.6076844)
(307.58551 1.1250866e-17 0.42719531)
(306.56633 -1.7610844e-16 0.723095)
(306.81624 2.6954242e-16 0.61931852)
(306.03863 -7.5758846e-16 0.73988337)
(306.23837 -1.9842592e-16 0.69725785)
(305.63802 -6.5050203e-16 0.68094909)
(305.78289 -3.4682128e-17 0.68219438)
(305.35157 2.9994446e-17 0.5589286)
(305.45514 2.429811e-16 0.59650697)
(305.16008 -2.1238977e-16 0.39131837)
(305.22232 3.2646221e-16 0.44972162)
(305.05276 -5.7921395e-16 0.18870559)
(305.08246 -2.3999817e-16 0.27065907)
(304.99728 -3.8534761e-16 -0.05292079)
(305.01373 3.1569147e-16 0.044211275)
(304.99991 8.7414946e-18 -0.0426806)
(304.9584 2.3473949e-17 -0.22704469)
(304.95932 0 -0.035116314)
(304.86267 3.6261276e-16 -0.42704377)
(304.86854 2.9210195e-18 -0.1714943)
(304.84569 -2.7349079e-16 -0.43375238)
(304.73944 2.1784509e-19 -0.41258554)
(304.7701 6.5067282e-18 -0.42343198)
(304.70185 -1.6213243e-16 -0.35796427)
(202.2185 3.5085174e-17 4.349918)
(187.85252 5.6943153e-17 3.376754)
(229.82349 1.391857e-17 4.8738083)
(220.41347 3.9278111e-17 4.2756797)
(250.56189 -3.4472181e-17 5.2158669)
(242.15613 -3.1949431e-17 4.5653039)
(270.36887 -4.2182023e-19 5.4902819)
(261.90149 8.4055762e-19 4.8372631)
(291.51967 -2.0317842e-17 5.7221772)
(282.05362 1.598547e-18 4.9653673)
(307.21538 -8.4345316e-18 5.7812881)
(304.62609 -8.3683324e-18 5.2904275)
(312.52035 1.844539e-17 5.8056217)
(311.46647 8.3932642e-18 4.7871156)
(312.98655 -7.9207658e-19 5.7431365)
(314.09638 1.8267352e-18 5.6198612)
(312.61409 -5.6886386e-18 5.6539975)
(311.92931 -6.2299205e-18 4.3575994)
(313.01087 -2.792955e-18 5.5573741)
(313.70641 2.7507065e-18 5.6556876)
(312.88528 6.5145746e-18 5.4309416)
(312.45953 0 4.0261675)
(313.27088 -3.2614524e-19 5.2851757)
(313.68151 1.0792524e-17 5.4131389)
(313.363 -1.4327853e-17 5.097219)
(313.0756 -8.8561706e-18 3.7665801)
(313.7941 -1.2584703e-17 4.8770931)
(314.01281 1.9873638e-19 4.9018602)
(314.07233 -8.9466606e-18 4.5958581)
(313.84897 -7.7454931e-18 3.4488093)
(314.59811 -1.2468533e-17 4.2616106)
(314.66724 1.3842299e-18 4.1342615)
(315.075 -1.3352075e-17 3.8386028)
(314.85767 -2.4175926e-18 2.9135947)
(315.74948 -1.370669e-17 3.3311786)
(315.68779 2.9196035e-17 3.0756439)
(316.4446 -5.3988003e-18 2.6974492)
(316.19283 -3.1390567e-17 1.9846557)
(317.30742 1.2608477e-17 1.9367138)
(317.12369 -5.2958885e-19 1.6181005)
(318.224 -1.0271255e-18 1.0071025)
(317.91874 -2.9348332e-18 0.47476708)
(319.25931 6.7217604e-18 -0.087640322)
(318.98118 2.4294616e-18 -0.40939518)
(320.3082 -4.7861305e-18 -1.3633597)
(319.98133 -6.4952069e-17 -1.7719218)
(321.33881 -1.1942324e-17 -2.7735728)
(321.06337 4.8394223e-17 -3.107627)
(322.20263 4.2880876e-18 -4.2489634)
(321.98785 -1.9561706e-19 -4.6733925)
(322.76424 5.5179275e-18 -5.6312114)
(322.69981 1.0352406e-17 -6.1400402)
(322.84777 -4.5650715e-17 -6.7210496)
(322.97245 -4.3813714e-18 -7.4195879)
(322.35004 -6.1316757e-17 -7.3122229)
(322.69739 -5.0400501e-17 -8.2051655)
(321.25634 -1.5200724e-16 -7.299072)
(321.80346 -5.9424704e-18 -8.3741931)
(319.67146 -1.7929204e-16 -6.7131939)
(320.36732 4.2724145e-18 -7.8861883)
(317.7725 -1.9090484e-16 -5.7089243)
(318.54491 0 -6.8883972)
(315.76043 -8.5569901e-17 -4.487254)
(316.53909 -9.0285695e-18 -5.5841085)
(313.80646 -1.6804846e-16 -3.2370729)
(314.53904 1.7928267e-16 -4.1933591)
(312.02221 -4.4346925e-16 -2.0941912)
(312.6788 -1.2772386e-16 -2.8868721)
(310.47349 -8.8176704e-18 -1.1382595)
(311.03169 1.3133059e-17 -1.754218)
(309.16911 -1.7729555e-17 -0.41388587)
(309.64639 -1.9823005e-17 -0.86484185)
(308.09196 1.5650501e-18 0.088666288)
(308.47976 -2.3460729e-16 -0.22416101)
(307.22686 2.5105387e-16 0.40238427)
(307.5434 -1.1180085e-19 0.19860614)
(306.54983 2.9970308e-16 0.57337567)
(306.79036 -1.886904e-17 0.45170633)
(306.03118 5.0455596e-16 0.63157906)
(306.22465 1.2486448e-17 0.57540889)
(305.63574 8.2618997e-16 0.60241219)
(305.77661 5.6932432e-16 0.59382985)
(305.35162 5.2992766e-16 0.50122482)
(305.45293 2.1598584e-16 0.53179407)
(305.16035 3.6403853e-16 0.347968)
(305.2217 3.2678645e-16 0.40177856)
(305.05203 5.9322588e-16 0.15232966)
(305.08133 4.6236412e-16 0.23352922)
(304.98627 7.5993508e-16 -0.082345296)
(305.01134 3.224774e-16 0.0092123422)
(304.98629 3.4313642e-16 -0.027726354)
(304.93242 1.566638e-17 -0.25618157)
(304.94307 1.6076419e-16 -0.037666192)
(304.84139 3.7134742e-16 -0.44398364)
(304.85436 -3.025627e-16 -0.19059504)
(304.83665 -1.4969944e-17 -0.43495941)
(304.73771 -1.3907218e-16 -0.3895736)
(304.76591 9.551755e-18 -0.40485159)
(304.70502 -1.6154393e-16 -0.32288683)
(202.98831 6.2470024e-17 3.5046443)
(188.52646 8.551224e-17 2.5821563)
(230.77674 0 3.9122013)
(221.29494 -2.0658534e-17 3.3477615)
(251.70346 0 4.165433)
(243.21112 1.6823234e-17 3.5338941)
(271.75309 2.7553967e-18 4.3537193)
(263.17362 -1.4413225e-17 3.7350607)
(293.10613 1.4048929e-17 4.4870865)
(283.62491 1.3954473e-17 3.744492)
(308.24786 6.7648084e-18 4.4736508)
(306.23724 1.0323608e-17 4.0077585)
(312.8026 -7.3322199e-18 4.4641022)
(311.75211 -6.6502927e-18 3.4137158)
(313.23257 -2.8575001e-18 4.3912323)
(314.36549 -1.9275254e-18 4.2963119)
(312.85693 1.3139238e-18 4.2939953)
(312.15575 -3.1121082e-18 2.9457726)
(313.26589 5.6959022e-18 4.1852323)
(313.97907 2.4621138e-18 4.322574)
(313.13981 3.3329227e-18 4.0447415)
(312.70547 3.3792693e-18 2.5919146)
(313.5383 4.0002114e-18 3.8825498)
(313.95935 -4.8310457e-18 4.0446433)
(313.63492 4.630763e-18 3.6750152)
(313.34268 -6.3062163e-18 2.3097941)
(314.07771 5.5621359e-18 3.43204)
(314.30091 1.5592018e-17 3.4814389)
(314.36443 1.6314355e-18 3.1230415)
(314.13813 0 1.9586488)
(314.90219 1.1521247e-17 2.7565809)
(314.97089 -7.7362209e-20 2.6454845)
(315.38994 3.6669437e-17 2.2948469)
(315.17039 -4.0020096e-19 1.3687974)
(316.07576 1.6811748e-17 1.7422129)
(316.01083 -1.68039e-17 1.4998486)
(316.78137 -2.9155135e-17 1.0549456)
(316.52837 4.8955676e-18 0.35392374)
(317.65143 -1.5558705e-17 0.23217268)
(317.4654 1.5458113e-17 -0.070892528)
(318.57099 0 -0.76816964)
(318.26839 0 -1.2801682)
(319.59892 -6.2172744e-17 -1.9401361)
(319.32514 0 -2.2424583)
(320.62674 -2.2484965e-17 -3.2944528)
(320.31216 -6.8343269e-17 -3.6810739)
(321.61421 6.4163832e-17 -4.7757409)
(321.35738 -5.4862956e-17 -5.0949897)
(322.40865 4.8066324e-18 -6.2989883)
(322.2227 -6.2762917e-18 -6.717421)
(322.87191 1.9674932e-18 -7.6855436)
(322.84231 9.2366531e-17 -8.2056078)
(322.83866 -4.7868171e-18 -8.7170458)
(322.99808 -4.3141474e-18 -9.4436621)
(322.22583 0 -9.1813294)
(322.59713 0 -10.118403)
(321.04279 1.4739296e-16 -8.9823872)
(321.59627 0 -10.112624)
(319.40874 1.8182917e-16 -8.1730417)
(320.09189 1.5277011e-16 -9.4080155)
(317.50114 1.808876e-16 -6.9321501)
(318.2465 -2.677374e-16 -8.1756478)
(315.51065 2.3391678e-16 -5.4823073)
(316.25463 -6.0787819e-18 -6.6408103)
(313.59495 2.5139979e-16 -4.027537)
(314.29182 -2.4327717e-19 -5.0396426)
(311.85373 3.1034841e-16 -2.7103285)
(312.47781 2.67959e-16 -3.5519682)
(310.34634 5.6960608e-18 -1.6107581)
(310.87629 1.3041312e-17 -2.2677669)
(309.07842 -2.1206326e-16 -0.77160275)
(309.53298 2.3577871e-19 -1.255878)
(308.03039 -2.6210141e-16 -0.17929119)
(308.40092 1.0074065e-17 -0.51893572)
(307.18698 -2.6699609e-16 0.20394994)
(307.49101 3.426722e-16 -0.021207283)
(306.52575 -3.0871858e-16 0.42802995)
(306.75699 -2.6116134e-16 0.28984955)
(306.0182 1.3901648e-17 0.52578602)
(306.20553 -4.0162227e-16 0.45711386)
(305.62942 0 0.52522222)
(305.76647 5.904182e-16 0.50736467)
(305.34877 0 0.44432512)
(305.44796 0 0.46823249)
(305.1586 4.0969148e-16 0.30493139)
(305.21915 -9.8793896e-18 0.35443706)
(305.05011 2.0684559e-16 0.11539375)
(305.07891 -4.5118539e-16 0.19666807)
(304.97374 -3.8955047e-16 -0.11296661)
(305.00792 -3.3963219e-16 -0.027315456)
(304.96649 2.0334535e-18 -0.031099492)
(304.9044 -7.7047443e-18 -0.28597966)
(304.92912 2.3979884e-16 -0.037264495)
(304.82042 -3.5576762e-16 -0.45931669)
(304.8415 2.9501954e-16 -0.20971832)
(304.83033 -2.0894059e-18 -0.43522186)
(304.73561 7.0665075e-18 -0.36558155)
(304.75992 6.3975471e-18 -0.38498049)
(304.7084 -1.4892776e-16 -0.28713479)
(203.75744 1.2901728e-17 2.6398919)
(189.20507 2.8385695e-17 1.7199943)
(231.7467 -7.1343711e-18 2.9270344)
(222.19547 -1.8863259e-17 2.4196323)
(252.87025 5.1702246e-18 3.087969)
(244.28856 1.7514082e-17 2.4756892)
(273.18447 -5.679616e-18 3.1862504)
(264.47602 -1.4083044e-17 2.6073829)
(294.69768 1.0597256e-17 3.2162129)
(285.26652 1.070996e-17 2.488277)
(309.23222 -1.4590039e-18 3.1353599)
(307.77407 -1.3225829e-18 2.6935106)
(313.07609 -1.7376394e-18 3.0973597)
(312.01834 4.7315332e-18 2.0139005)
(313.48598 -2.0836518e-18 3.0154726)
(314.64201 -3.859929e-18 2.9509351)
(313.10884 -2.4274171e-18 2.9095053)
(312.39433 3.3047759e-18 1.5073663)
(313.53109 1.2698657e-19 2.7886869)
(314.26015 -2.6391731e-18 2.9653203)
(313.40613 -3.9552018e-18 2.6343455)
(312.96251 3.3034743e-18 1.1330983)
(313.81546 -1.4791322e-17 2.4557762)
(314.24506 -1.5961507e-17 2.6516853)
(313.91652 2.6781509e-18 2.2286702)
(313.61793 -1.365996e-18 0.82936303)
(314.37007 1.1391903e-17 1.9626611)
(314.59582 9.3345914e-19 2.0358464)
(314.66446 -1.665661e-18 1.6258081)
(314.43434 0 0.44497741)
(315.21298 -1.1717856e-17 1.2268157)
(315.28036 -1.8141049e-18 1.1307343)
(315.71075 -5.1418964e-17 0.72594929)
(315.48902 -1.0588905e-17 -0.2004433)
(316.40673 -3.0226344e-17 0.12747443)
(316.33873 -1.6763077e-17 -0.10320274)
(317.12178 4.7731325e-17 -0.61419281)
(316.86822 5.0605692e-17 -1.3034838)
(317.9976 3.1986067e-17 -1.4998873)
(317.80973 2.712438e-18 -1.7889802)
(318.91787 0 -2.5711753)
(318.61854 -3.1437092e-18 -3.0639284)
(319.93458 -2.2978144e-19 -3.8194112)
(319.66596 -5.4309217e-18 -4.104695)
(320.93573 -1.0132906e-16 -5.2492583)
(320.63464 1.1349792e-16 -5.6170977)
(321.87226 -1.2831616e-16 -6.7952283)
(321.63582 -4.9377589e-17 -7.1047522)
(322.58738 7.1025787e-17 -8.3547684)
(322.4323 9.9088563e-17 -8.7742156)
(322.94151 9.5005391e-17 -9.7281508)
(322.94838 -2.7780075e-18 -10.267817)
(322.78233 0 -10.680077)
(322.97678 0 -11.442785)
(322.04926 0 -10.997463)
(322.44314 0 -11.984343)
(320.77626 -9.5446221e-18 -10.599305)
(321.33337 0 -11.786512)
(319.09595 -2.4989144e-16 -9.5623795)
(319.76309 -1.7296368e-16 -10.857086)
(317.18487 -4.791878e-16 -8.089201)
(317.89985 -2.7507588e-16 -9.3914136)
(315.22237 -2.3856803e-16 -6.4208552)
(315.9285 2.4326434e-16 -7.634209)
(313.35166 -1.1946228e-17 -4.7730645)
(314.00994 3.4441044e-16 -5.834194)
(311.6598 0 -3.2925157)
(312.24881 0 -4.1772062)
(310.19932 8.9562088e-18 -2.0584569)
(310.69874 1.3375249e-17 -2.7517269)
(308.97257 2.2014198e-16 -1.1117096)
(309.40248 1.0145562e-17 -1.6255374)
(307.9575 5.753665e-16 -0.43509788)