/*--------------------------------*- C++ -*----------------------------------*\
  =========                 |
  \\      /  F ield         | OpenFOAM: The Open Source CFD Toolbox
   \\    /   O peration     | Website:  https://openfoam.org
    \\  /    A nd           | Version:  8
     \\/     M anipulation  |
\*---------------------------------------------------------------------------*/
FoamFile
{
    version     2.0;
    format      ascii;
    class       volScalarField;
    location    "0.259994";
    object      T;
}
// * * * * * * * * * * * * * * * * * * * * * * * * * * * * * * * * * * * * * //

dimensions      [0 0 0 1 0 0 0];

internalField   nonuniform List<scalar> 
20000
(
274.41467
273.94505
272.95481
271.05287
267.49666
260.92665
254.05923
252.82307
253.75587
253.5254
254.23567
254.22941
254.82264
255.01459
255.60714
256.00767
256.69774
257.34577
258.23696
259.21039
260.42263
261.82065
263.49499
265.45247
267.74149
270.37127
273.32382
276.51679
279.79746
282.96546
285.83816
288.31556
290.36824
292.02726
293.34638
294.38176
295.20044
295.83339
296.32286
296.69064
296.97607
297.20114
297.39535
297.57051
297.753
297.92392
298.14515
298.25496
298.39635
298.40788
274.37272
273.8619
272.82807
270.84581
267.14577
260.21866
253.86972
252.81097
253.74718
253.51683
254.23026
254.22264
254.84667
255.04674
255.65459
256.07639
256.78933
257.46752
258.38247
259.38282
260.6191
262.0448
263.74375
265.72352
268.0264
270.65668
273.59053
276.74236
279.96385
283.07285
285.90467
288.35679
290.39487
292.04511
293.35747
294.38832
295.2046
295.83608
296.32465
296.69148
296.97662
297.2017
297.39729
297.57571
297.75932
297.94912
298.14826
298.30584
298.39856
298.38851
274.36694
273.8367
272.76345
270.70848
266.86762
259.57365
253.75442
252.80053
253.79684
253.56023
254.29387
254.29062
254.92892
255.14367
255.76583
256.20451
256.93109
257.63067
258.56506
259.5944
260.85683
262.31424
264.04204
266.05051
268.37511
271.01646
273.94339
277.06651
280.24264
283.29948
286.08148
288.49253
290.49868
292.12387
293.4173
294.43286
295.23783
295.86099
296.34356
296.70556
296.98792
297.2117
297.40618
297.58456
297.76851
297.96072
298.16962
298.31328
298.40774
298.38055
274.38036
273.83052
272.71766
270.58584
266.60148
258.94596
253.71593
252.9402
253.90222
253.67664
254.40961
254.42433
255.05616
255.28049
255.91824
256.37471
257.11715
257.84106
258.79576
259.85303
261.14103
262.63103
264.39022
266.43231
268.78498
271.44512
274.3717
277.46904
280.59387
283.58584
286.30437
288.66105
290.62412
292.21638
293.48498
294.48164
295.27305
295.88652
296.36222
296.71893
296.99818
297.22037
297.41424
297.59334
297.77823
297.97971
298.18854
298.33416
298.41911
298.36757
274.44492
273.87523
272.72132
270.50762
266.37006
258.36966
253.74978
253.0435
254.04436
253.8064
254.56325
254.57871
255.22187
255.45737
256.10484
256.57848
257.33469
258.08171
259.0564
260.14346
261.45976
262.98586
264.78084
266.86153
269.24823
271.93347
274.86565
277.94197
281.01874
283.94438
286.59164
288.88304
290.79171
292.34108
293.57706
294.54864
295.32168
295.92189
296.3881
296.73761
297.01249
297.23226
297.42469
297.60356
297.78896
297.9992
298.20943
298.34741
298.43002
298.35452
274.50753
273.92452
272.73473
270.43677
266.13555
257.82489
253.83566
253.2016
254.21482
253.97241
254.74277
254.75869
255.4113
255.65811
256.31708
256.80928
257.58048
258.35238
259.34834
260.46645
261.81295
263.37775
265.21198
267.33531
269.76063
272.47521
275.41598
278.47207
281.49853
284.35294
286.92207
289.14003
290.98621
292.48583
293.68365
294.62598
295.37754
295.96225
296.41735
296.75858
297.02833
297.24516
297.43597
297.61433
297.80012
298.0216
298.22914
298.36218
298.44029
298.34051
274.60664
274.00673
272.77647
270.386
265.89857
257.32688
253.96628
253.37148
254.40465
254.15585
254.94151
254.9605
255.62348
255.88326
256.553
257.06449
257.8506
258.64803
259.66642
260.8177
262.19725
263.80399
265.68128
267.85118
270.31922
273.06638
276.01757
279.05364
282.0287
284.80891
287.29462
289.43242
291.20904
292.65252
293.80689
294.71573
295.44245
296.00913
296.45126
296.78293
297.04666
297.25995
297.44866
297.62596
297.8118
298.04508
298.24808
298.37421
298.4479
298.32655
274.70602
274.09084
272.82491
270.33874
265.64062
256.88769
254.13308
253.56297
254.61216
254.36033
255.15674
255.1829
255.85539
256.12894
256.80978
257.34163
258.14345
258.96788
260.0102
261.19659
262.6117
264.26314
266.18681
268.40663
270.92058
273.70221
276.66387
279.67819
282.599
285.30149
287.6995
289.75215
291.45401
292.83657
293.94342
294.81538
295.51458
296.0612
296.48885
296.80991
297.06691
297.27613
297.4624
297.63835
297.82465
298.06923
298.26502
298.38428
298.45431
298.31278
274.81907
274.18966
272.88904
270.30263
265.35849
256.50509
254.33558
253.77155
254.83493
254.58285
255.38982
255.42399
256.10601
256.39435
257.08618
257.63933
258.45738
259.31012
260.37817
261.60193
263.05543
264.75447
266.72782
269.00069
271.56324
274.3802
277.35112
280.34089
283.20419
285.82552
288.13215
290.0956
291.71852
293.03627
294.09218
294.92435
295.5936
296.11828
296.53004
296.83952
297.08913
297.29377
297.47718
297.65171
297.84018
298.09267
298.2788
298.38996
298.45813
298.29944
274.93323
274.29543
272.96138
270.27386
265.0454
256.1734
254.56725
253.99795
255.07273
254.82298
255.63957
255.68276
256.37367
256.67771
257.38074
257.95631
258.79161
259.67431
260.76993
262.03319
263.5277
265.27696
267.30301
269.63163
272.24467
275.09669
278.07432
281.03556
283.83726
286.37393
288.58611
290.4574
291.99842
293.2486
294.25103
295.04111
295.67845
296.17964
296.57434
296.87143
297.11308
297.31267
297.49276
297.66607
297.86018
298.11407
298.28971
298.39324
298.4606
298.28634
275.06783
274.41608
273.04818
270.25779
264.70293
255.90102
254.80107
254.24024
255.32584
255.07863
255.90421
255.9574
256.65719
256.97812
257.69264
258.2919
259.14548
260.05984
261.18517
262.49021
264.02847
265.83063
267.91238
270.29924
272.96402
275.84977
278.83035
281.75813
284.49357
286.94193
289.0569
290.83371
292.29068
293.47127
294.41835
295.16453
295.76836
296.24475
296.6214
296.90542
297.13865
297.33272
297.50895
297.68134
297.88502
298.13338
298.29926
298.39516
298.46206
298.2731
275.2045
274.5392
273.13791
270.24691
264.32791
255.68695
255.05695
254.49577
255.5915
255.34858
256.18287
256.24737
256.95584
257.29481
258.02124
258.64558
259.51884
260.46668
261.62374
262.97265
264.55728
266.4149
268.55519
271.00237
273.7193
276.6363
279.61495
282.50348
285.16762
287.52407
289.53956
291.22031
292.59194
293.70177
294.59229
295.2933
295.86237
296.31297
296.67077
296.9412
297.16564
297.35376
297.52556
297.69725
297.91284
298.15228
298.30819
298.39571
298.46275
298.25963
275.3467
274.66503
273.2291
270.24051
263.92176
255.5325
255.32591
254.76521
255.87028
255.63269
256.47506
256.55195
257.26906
257.62729
258.3663
259.01722
259.91164
260.89473
262.08571
263.48069
265.11447
267.03022
269.23187
271.74113
274.50982
277.45447
280.42525
283.26799
285.8554
288.11634
290.03031
291.61389
292.89946
293.93797
294.77128
295.42624
295.95965
296.3837
296.72206
296.97849
297.19388
297.37563
297.54252
297.71368
297.94311
298.17047
298.3158
298.39474
298.45879
298.24518
275.49539
274.79565
273.32112
270.23745
263.49345
255.43907
255.60915
255.04772
256.16094
255.93001
256.78005
256.87075
257.59645
257.9754
258.7277
259.4069
260.324
261.34409
262.57105
264.0142
265.69991
267.6764
269.94207
272.51465
275.33372
278.30126
281.25726
284.04712
286.55227
288.7143
290.52515
292.01102
293.21047
294.17772
294.95369
295.56214
296.05933
296.45634
296.77485
297.01701
297.22316
297.39816
297.55981
297.73096
297.97461
298.18737
298.32045
298.39059
298.44813
298.2295
275.6527
274.9286
273.40666
270.22751
263.04659
255.40797
255.90279
255.34196
256.46309
256.24032
257.09769
257.20353
257.938
258.33913
259.1057
259.81471
260.75605
261.8148
263.08
264.57366
266.31427
268.35423
270.68644
273.32306
276.19014
279.17468
282.10804
284.83749
287.25476
289.31462
291.02101
292.40898
293.52269
294.41921
295.13812
295.69994
296.16061
296.53032
296.82875
297.05648
297.25326
297.42116
297.57754
297.75023
298.00539
298.20224
298.32316
298.38705
298.42722
298.21263
275.81838
275.06563
273.48674
270.20858
262.5937
255.44228
256.20847
255.64893
256.77712
256.56368
257.42789
257.55029
258.29378
258.71876
259.5005
260.24086
261.20789
262.30694
263.61272
265.15927
266.95781
269.06388
271.46487
274.16545
277.077
280.07147
282.97364
285.63493
287.95885
289.91362
291.51462
292.80499
293.83385
294.66066
295.3232
295.83858
296.26267
296.60507
296.88339
297.09662
297.28396
297.44442
297.59616
297.7734
298.0331
298.21469
298.32462
298.3845
298.39282
298.19492
275.99688
275.20913
273.5618
270.17418
262.1472
255.54079
256.52496
255.96769
257.10225
256.89963
257.7705
257.91117
258.66419
259.11452
259.91231
260.68527
261.67959
262.82075
264.16975
265.77186
267.63146
269.80634
272.27804
275.0418
277.99304
280.98927
283.85105
286.43627
288.66152
290.50852
292.00352
293.19691
294.14216
294.90064
295.50777
295.97711
296.36483
296.68009
296.93846
297.1372
297.31501
297.46767
297.616
297.8023
298.05623
298.22344
298.32483
298.37961
298.34993
298.17703
276.18587
275.35808
273.62772
270.10981
261.71749
255.6968
256.85152
256.29801
257.4384
257.24851
258.12607
258.28678
259.0495
259.5265
260.341
261.14801
262.17136
263.35658
264.7516
266.41197
268.33577
270.58198
273.12586
275.95089
278.93576
281.92453
284.73628
287.23761
289.35923
291.09625
292.48508
293.58255
294.44585
295.13773
295.69068
296.11465
296.46637
296.75488
296.99364
297.17802
297.3462
297.49075
297.63695
297.83679
298.07599
298.22778
298.32153
298.3734
298.30616
298.15974
276.38995
275.5191
273.69026
270.00974
261.32331
255.90679
257.18928
256.64081
257.78662
257.61124
258.49522
258.67728
259.44964
259.95438
260.78655
261.62911
262.68358
263.91505
265.35916
267.08065
269.07187
271.39192
274.00889
276.8922
279.90331
282.87452
285.62626
288.03599
290.0493
291.67452
292.95737
293.96028
294.74357
295.37081
295.87103
296.25042
296.5667
296.82902
297.04867
297.21891
297.37731
297.51368
297.659
297.87435
298.09504
298.23038
298.31299
298.36267
298.26607
298.1438
276.60385
275.68955
273.74809
269.86065
260.97507
256.16097
257.53841
256.99675
258.14764
257.98818
258.87769
259.08212
259.86405
260.39797
261.24907
262.12903
263.21684
264.49684
265.99324
267.77869
269.8405
272.23664
274.92676
277.86398
280.89259
283.83537
286.51702
288.82776
290.72867
292.24078
293.41831
294.32844
295.03401
295.59882
296.0479
296.38369
296.66523
296.90206
297.10324
297.25967
297.40814
297.53663
297.68261
297.91276
298.1132
298.23219
298.30231
298.34662
298.23067
298.12977
276.83088
275.87504
273.80905
269.65801
260.68826
256.43374
257.9012
257.36624
258.52093
258.3782
259.27242
259.50056
260.29262
260.85755
261.72913
262.64825
263.77182
265.10291
266.65495
268.50735
270.64297
273.11719
275.87966
278.86503
281.90116
284.804
287.40543
289.61015
291.39502
292.79321
293.86646
294.68586
295.31619
295.8209
296.22063
296.51389
296.76149
296.97367
297.15709
297.3001
297.43848
297.55996
297.70894
297.94899
298.12932
298.23367
298.29314
298.32238
298.20021
298.11798
277.06956
276.07481
273.87586
269.39362
260.4696
256.77317
258.27477
257.74599
258.90374
258.77973
259.67891
259.93281
260.73597
261.33373
262.22731
263.18743
264.34936
265.7342
267.34532
269.2676
271.48014
274.03394
276.86669
279.89291
282.92538
285.7763
288.28759
290.37985
292.0457
293.32974
294.30024
295.03131
295.58915
296.03629
296.38859
296.64047
296.85503
297.0435
297.20992
297.3399
297.46813
297.58408
297.73985
297.9805
298.14223
298.23474
298.28912
298.28969
298.17484
298.10811
277.31706
276.28524
273.9492
269.06108
260.32204
257.13266
258.65871
258.13739
259.29687
259.19375
260.0981
260.37994
261.1949
261.8271
262.74416
263.74721
264.95045
266.39191
268.06564
270.06085
272.35338
274.9877
277.88742
280.94564
283.9622
286.74888
289.16042
291.13433
292.67883
293.84902
294.71862
295.36396
295.85215
296.24447
296.55139
296.763
296.94552
297.1113
297.26149
297.37875
297.49692
297.60915
297.77652
298.00665
298.15209
298.23481
298.28412
298.25453
298.15392
298.09946
277.57543
276.51187
274.0352
268.66437
260.25363
257.53002
259.05297
258.54016
259.70255
259.62185
260.53117
260.84253
261.66982
262.33796
263.28028
264.32853
265.57626
267.07722
268.81706
270.88825
273.26358
275.97848
278.94014
282.01992
285.00735
287.71743
290.0201
291.87057
293.29222
294.34956
295.12047
295.68287
296.10446
296.44508
296.70867
296.88103
297.03265
297.17682
297.31161
297.41638
297.52485
297.63525
297.81733
298.02995
298.15918
298.23244
298.27926
298.22019
298.13524
298.09162
277.83768
276.74477
274.12819
268.20591
260.25893
257.89423
259.45881
258.95492
260.11981
260.06474
260.97834
261.32077
262.16086
262.86672
263.83649
264.93249
266.2281
267.79148
269.60102
271.75137
274.21212
277.00658
280.0235
283.11279
286.05717
288.67832
290.86358
292.58631
293.88448
294.83054
295.50517
295.98754
296.34569
296.63804
296.8602
296.99416
297.11618
297.23991
297.36016
297.45269
297.55215
297.6627
297.86047
298.05205
298.1643
298.22608
298.27128
298.18792
298.11801
298.08422
278.11248
276.99298
274.23336
267.70584
260.34535
258.29429
259.87636
259.38197
260.5495
260.52131
261.43952
261.81453
262.66847
263.41414
264.41404
265.56045
266.90729
268.53594
270.41886
272.65158
275.19975
278.07128
281.13476
284.22008
287.1069
289.62716
291.68724
293.279
294.45407
295.29104
295.87205
296.27748
296.57574
296.82338
297.00551
297.102
297.19581
297.30045
297.40707
297.48773
297.57926
297.69255
297.90308
298.07257
298.16802
298.21715
298.25626
298.1579
298.10189
298.0771
278.3942
277.24783
274.33811
267.16099
260.50327
258.70235
260.3041
259.82131
260.99219
260.99154
261.91425
262.32425
263.19354
263.98157
265.01427
266.21368
267.61508
269.31203
271.27224
273.59066
276.22755
279.17201
282.27145
285.33802
288.1525
290.56032
292.48833
293.9471
295.00031
295.73058
296.22089
296.55274
296.79517
297.00115
297.14402
297.20435
297.27124
297.3584
297.45225
297.52157
297.6067
297.72649
297.94155
298.08967
298.16994
298.21003
298.23055
298.13023
298.08708
298.07054
278.68273
277.50983
274.43861
266.60121
260.7324
259.12817
260.74437
260.27421
261.44848
261.47726
262.4035
262.85082
263.73743
264.57043
265.63861
266.89336
268.35278
270.12124
272.16286
274.57003
277.2957
280.30691
283.42964
286.4616
289.1889
291.47347
293.26395
294.58928
295.52248
296.14823
296.55128
296.8135
297.00496
297.17089
297.27492
297.30124
297.3421
297.4137
297.49555
297.55413
297.63469
297.76552
297.97351
298.10274
298.171
298.20726
298.19589
298.10531
298.07341
298.06441
278.98382
277.78369
274.53069
266.04404
261.02738
259.56718
261.19595
260.74044
261.91839
261.97827
262.90901
263.39584
264.30173
265.18192
266.28817
267.60061
269.12181
270.96544
273.09279
275.59144
278.40455
281.47421
284.60571
287.58637
290.21183
292.36339
294.01277
295.2056
296.02036
296.54322
296.86298
297.06023
297.20603
297.3315
297.39782
297.39308
297.40835
297.46631
297.53681
297.58513
297.66316
297.80793
298.00009
298.11291
298.17149
298.20601
298.15946
298.08301
298.06066
298.05837
279.28643
278.06273
274.60023
265.50728
261.37806
260.01929
261.65948
261.22027
262.40265
262.49486
263.43239
263.96168
264.88758
265.81697
266.96389
268.33668
269.9239
271.84663
274.06399
276.65597
279.55322
282.67057
285.79459
288.70665
291.21623
293.22686
294.73398
295.79599
296.49286
296.91456
297.15557
297.29328
297.39772
297.48137
297.51336
297.48011
297.4706
297.51604
297.57596
297.61441
297.69203
297.85081
298.02396
298.12159
298.17148
298.20502
298.12587
298.06169
298.04894
298.05254
279.59393
278.35395
274.64318
265.02159
261.76809
260.48614
262.1364
261.71563
262.90232
263.02898
263.97359
264.5484
265.49592
266.47618
267.66682
269.10319
270.76117
272.76726
275.07865
277.76485
280.74074
283.89281
286.99151
289.8175
292.19829
294.06243
295.42818
296.3598
296.93827
297.26239
297.42923
297.51292
297.57765
297.62139
297.62189
297.56192
297.53027
297.56262
297.61307
297.64237
297.72161
297.89292
298.04618
298.12949
298.16912
298.20048
298.0982
298.04338
298.03786
298.04686
279.89998
278.65423
274.64949
264.62029
262.19175
260.96729
262.62712
262.2272
263.4174
263.58105
264.53422
265.15579
266.12735
267.16043
268.39852
269.90221
271.63608
273.72975
276.13865
278.91821
281.96476
285.13602
288.19039
290.91311
293.15415
294.86921
296.09476
296.89337
297.35526
297.58681
297.68517
297.71928
297.74424
297.75386
297.72338
297.63708
297.58861
297.60588
297.64826
297.66994
297.75304
297.93232
298.06631
298.13724
298.168
298.18706
298.07766
298.02817
298.02738
298.04096
280.20184
278.95918
274.61221
264.28697
262.64638
261.46258
263.13203
262.75581
263.94885
264.15239
265.11555
265.78403
266.78256
267.87116
269.16109
270.73627
272.55133
274.73671
277.24577
280.11614
283.22267
286.39556
289.38568
291.98893
294.08183
295.64773
296.73085
297.39433
297.74266
297.88917
297.9251
297.91245
297.89876
297.88014
297.81691
297.70623
297.64482
297.64619
297.68156
297.69791
297.78808
297.96686
298.08328
298.14342
298.16778
298.16738
298.06028
298.01574
298.01794
298.03404
280.49447
279.27045
274.52667
264.02902
263.1259
261.97222
263.65136
263.30113
264.49861
264.74385
265.71757
266.43508
267.46271
268.61041
269.95723
271.6082
273.50967
275.79051
278.40114
281.35728
284.51021
287.66509
290.57086
293.04016
294.97987
296.3968
297.33142
297.86011
298.10065
298.17189
298.15007
298.09212
298.0444
297.99799
297.90296
297.77001
297.69763
297.68448
297.71289
297.72602
297.82745
297.99526
298.0966
298.14726
298.16928
298.14073
298.04405
298.00532
298.0101
298.02703
280.77243
279.58397
274.39282
263.85547
263.62726
262.49791
264.18697
263.86557
265.06629
265.35576
266.3413
267.10987
268.17
269.38079
270.78998
272.52094
274.51391
276.89349
279.60564
282.63997
285.82293
288.93867
291.74046
294.06395
295.8484
297.11199
297.8933
298.28959
298.43355
298.43808
298.35905
298.25914
298.18055
298.10837
297.98225
297.82899
297.74538
297.7216
297.74233
297.75321
297.86766
298.02003
298.10681
298.14883
298.17067
298.11669
298.0284
297.99628
298.00329
298.02084
281.03731
279.90299
274.21994
263.76833
264.15046
263.04111
264.73945
264.44909
265.65214
265.98826
266.98766
267.81027
268.90789
270.18534
271.66247
273.47745
275.56669
278.04756
280.85903
283.96082
287.15467
290.20903
292.88863
295.05777
296.68596
297.78702
298.4132
298.68479
298.74778
298.68428
298.55263
298.41433
298.30803
298.21118
298.05536
297.88355
297.7882
297.75687
297.77025
297.78168
297.90743
298.04173
298.11517
298.14933
298.17222
298.09102
298.01397
297.98836
297.99768
298.01565
281.28551
280.22476
274.01754
263.78006
264.69532
263.60113
265.3073
265.05149
266.25713
266.64313
267.65917
268.53937
269.67947
271.02714
272.57773
274.48068
276.67065
279.25446
282.1607
285.31607
288.49932
291.46983
294.01135
296.02099
297.48767
298.41772
298.89077
299.05408
299.0404
298.91209
298.73142
298.55831
298.42705
298.30689
298.12252
297.9334
297.82717
297.78936
297.79737
297.81032
297.94506
298.06095
298.12248
298.14943
298.17104
298.06772
298.00143
297.98167
297.99334
298.01198
281.51669
280.5406
273.79182
263.89076
265.25837
264.17788
265.89097
265.6744
266.88324
267.32328
268.35959
269.30067
270.48753
271.9091
273.53882
275.5336
277.82818
280.5151
283.50838
286.7001
289.84913
292.71409
295.10467
296.95215
298.24594
299.00048
299.32973
299.40137
299.31043
299.12172
298.89617
298.69172
298.53807
298.39572
298.18386
297.97887
297.86282
297.81875
297.82405
297.83818
297.97895
298.07737
298.12836
298.1496
298.16038
298.04784
297.99077
297.97619
297.98993
298.00937
281.73207
280.84324
273.5575
264.09862
265.84022
264.77392
266.49313
266.32091
267.53403
268.0325
269.09241
270.09703
271.33521
272.83408
274.5488
276.63918
279.04165
281.82985
284.89936
288.10691
291.19718
293.93645
296.16673
297.84719
298.95494
299.53458
299.7395
299.72369
299.559
299.3143
299.04766
298.81521
298.64152
298.47807
298.23937
298.0199
297.89528
297.84623
297.85038
297.87108
298.00758
298.09098
298.1327
298.15002
298.14179
298.03139
297.98166
297.97175
297.98727
298.00719
281.93098
281.1246
273.33487
264.40166
266.44233
265.39275
267.11727
266.99552
268.21347
268.77396
269.86018
270.93069
272.22562
273.80532
275.61078
277.80045
280.31274
283.19781
286.32874
289.52875
292.53533
295.13171
297.19558
298.69707
299.61063
300.02395
300.12391
300.02008
299.78682
299.49058
299.18667
298.92942
298.73788
298.55424
298.28885
298.05653
297.92484
297.87251
297.87666
297.90753
298.03147
298.10225
298.13596
298.15107
298.11347
298.01585
297.97313
297.96814
297.98504
298.00532
282.12077
281.378
273.1462
264.79531
267.06791
266.03861
267.76725
267.70222
268.92469
269.54947
270.66469
271.80413
273.16207
274.82625
276.72794
279.02039
281.64284
284.61733
287.79108
290.95803
293.85699
296.29654
298.18887
299.49362
300.21114
300.47886
300.48013
300.29185
299.9951
299.6516
299.31403
299.03502
298.82769
298.62461
298.3321
298.08898
297.95198
297.89802
297.90239
297.94327
298.05232
298.11157
298.13817
298.15297
298.08931
298.00133
297.96562
297.96531
297.98318
298.0035
282.31408
281.59674
273.01109
265.26833
267.72129
266.7156
268.44697
268.44147
269.6686
270.36028
271.50834
272.72076
274.14795
275.90042
277.90354
280.30161
283.03233
286.08477
289.27883
292.38573
295.15527
297.42746
299.13697
300.23221
300.75888
300.90535
300.80653
300.53996
300.18484
299.79825
299.4305
299.13262
298.91132
298.68924
298.36907
298.11767
297.97722
297.923
297.92712
297.97622
298.07046
298.11918
298.13948
298.15451
298.06454
297.98878
297.95932
297.96268
297.98161
298.00169
282.52586
281.77543
272.9476
265.76957
268.405
267.42509
269.15508
269.2128
270.44607
271.2088
272.39466
273.68436
275.18738
277.03146
279.14079
281.64652
284.48077
287.59557
290.78422
293.80398
296.42518
298.52216
300.03056
300.90982
301.2648
301.30046
301.10484
300.76584
300.35727
299.93153
299.53692
299.22287
298.9891
298.74783
298.40029
298.14322
298.00111
297.94778
297.95099
298.00759
298.08563
298.12503
298.14078
298.1505
298.04316
297.97851
297.9545
297.96091
297.98027
297.99977
282.75745
281.90069
272.96563
266.30293
269.11355
268.16538
269.88958
270.01828
271.26088
272.09929
273.32806
274.69932
276.28391
278.22316
280.44284
283.05671
285.98584
289.14276
292.29763
295.20428
297.66146
299.57338
300.86117
301.52615
301.73839
301.66177
301.3761
300.97069
300.51343
300.05235
299.63405
299.30632
299.06106
298.79942
298.42693
298.16633
298.0242
297.97272
297.97487
298.03484
298.09807
298.12937
298.14149
298.13418
298.02627
297.96995
297.95078
297.95975
297.97923
297.99841
283.0085
281.96913
273.07318
266.99028
269.84392
268.93847
270.65717
270.86336
272.11823
273.03588
274.31244
275.76969
277.44122
279.47938
281.81292
284.53309
287.54408
290.71863
293.81006
296.58005
298.86083
300.57023
301.62555
302.09191
302.17713
301.99096
301.62205
301.156
300.65455
300.16167
299.72267
299.38349
299.12733
298.84363
298.45006
298.18773
298.04692
297.99748
297.99996
298.05715
298.10822
298.13263
298.14248
298.10996
298.0112
297.96247
297.94762
297.95899
297.97886
297.99756
283.26869
281.98588
273.26698
267.693
270.60517
269.75169
271.46375
271.75267
273.02228
274.02182
275.35129
276.8991
278.663
280.80431
283.25386
286.07481
289.14941
292.31314
295.31145
297.92422
300.01804
301.50109
302.32116
302.61749
302.5789
302.2892
301.84411
301.323
300.78165
300.26039
299.80352
299.45482
299.18801
298.88114
298.47001
298.20783
298.06917
298.02138
298.02544
298.07566
298.11686
298.13535
298.1445
298.08842
297.99723
297.95618
297.94527
297.95836
297.97883
297.99701
283.55491
281.9656
273.55907
268.47524
271.40044
270.61173
272.3133
272.68928
273.97623
275.06051
276.44932
278.08976
279.95412
282.20262
284.76791
287.6797
290.79446
293.91648
296.79343
299.23159
301.12232
302.36108
302.95522
303.10561
302.94374
302.55859
302.04406
301.47318
300.8959
300.34942
299.87729
299.52074
299.24331
298.91253
298.48738
298.22691
298.09092
298.04436
298.04944
298.09141
298.12437
298.13778
298.14628
298.06429
297.98466
297.95109
297.94423
297.95842
297.97913
297.99667
283.87378
281.89576
273.94903
269.26236
272.23331
271.51725
273.20746
273.67499
274.98316
276.15609
277.61152
279.34658
281.31957
283.67883
286.35571
289.34264
292.46918
295.51709
298.24723
300.49635
302.16053
303.14562
303.53929
303.55333
303.27343
302.80078
302.2234
301.60774
300.99831
300.42961
299.94462
299.58152
299.29338
298.93841
298.50265
298.24511
298.11218
298.0664
298.07131
298.10432
298.1301
298.14021
298.143
298.04266
297.97393
297.9466
297.94348
297.95881
297.9796
297.99643
284.27621
281.79868
274.40432
270.12484
273.10608
272.47072
274.14832
274.71303
276.0476
277.31303
278.84195
280.67821
282.76561
285.23635
288.01591
291.05658
294.1628
297.10475
299.66553
301.71076
303.12288
303.85711
304.08246
303.95888
303.57014
303.01784
302.38386
301.72807
301.08994
300.5018
300.0061
299.63742
299.33841
298.95934
298.51626
298.26257
298.13299
298.08767
298.09071
298.11498
298.1342
298.14222
298.13006
298.02526
297.96537
297.94256
297.94307
297.95935
297.98014
297.99624
284.74809
281.6676
274.96378
271.03224
274.01642
273.47528
275.13958
275.80812
277.17596
278.53846
280.14902
282.0919
284.29765
286.87678
289.74421
292.81143
295.86265
298.66865
301.04058
302.8594
304.00431
304.50733
304.5811
304.32452
303.83585
303.21158
302.52689
301.83531
301.17173
300.56674
300.06225
299.68868
299.37862
298.97583
298.52859
298.27938
298.15324
298.10819
298.10741
298.12424
298.13754
298.14376
298.10767
298.01111
297.95896
297.93988
297.94343
297.96015
297.98075
297.9961
285.29919
281.50916
275.60743
272.0015
274.97001
274.53674
276.18838
276.96741
278.37556
279.8398
281.54294
283.59506
285.91952
288.59921
291.53384
294.5957
297.55662
300.19951
302.36563
303.9291
304.80251
305.11022
305.03282
304.65257
304.07304
303.38406
302.65415
301.93077
301.24469
300.6252
300.1136
299.7357
299.41455
298.98826
298.54009
298.29564
298.17254
298.12758
298.12124
298.13264
298.14218
298.14593
298.08731
297.99816
297.95385
297.93835
297.9441
297.9612
297.98145
297.99605
285.95766
281.34904
276.32692
273.03389
275.97353
275.66248
277.30388
278.19916
279.65573
281.22629
283.03221
285.19347
287.63259
290.39981
293.37466
296.39554
299.23166
301.68708
303.62586
304.91199
305.52782
305.66394
305.43905
304.94539
304.2838
303.53702
302.767
302.0155
301.30966
300.67784
300.16067
299.77907
299.44729
298.99682
298.55124
298.31151
298.19039
298.14472
298.13296
298.13944
298.1478
298.14534
298.06509
297.98643
297.94947
297.93743
297.94499
297.9624
297.98225
297.99611
286.74722
281.17498
277.15058
274.13914
277.03702
276.86236
278.49567
279.51311
281.02685
282.70909
284.62136
286.88999
289.43591
292.27189
295.25472
298.19694
300.87647
303.12323
304.80617
305.80386
306.19455
306.16664
305.8025
305.20578
304.47056
303.67243
302.86697
302.09067
301.36753
300.72533
300.20394
299.81934
299.47812
299.00239
298.56237
298.32703
298.20681
298.15896
298.14401
298.14411
298.15042
298.13965
298.04483
297.97643
297.94591
297.93686
297.94611
297.96371
297.98313
297.99627
287.67811
280.98704
278.0821
275.32548
278.16889
278.1459
279.77497
280.91933
282.49786
284.29476
286.31477
288.68605
291.32603
294.2056
297.15915
299.98469
302.4785
304.49538
305.89332
306.60978
306.80789
306.61734
306.12587
305.43619
304.63538
303.7919
302.9553
302.15723
301.41907
300.76827
300.24386
299.85642
299.50624
299.0062
298.5735
298.34171
298.22156
298.17168
298.15433
298.14893
298.15178
298.12596
298.02869
297.96865
297.94343
297.93681
297.94743
297.96511
297.98405
297.99651
288.75428
280.82524
279.11476
276.60617
279.38248
279.52401
281.15451
282.42813
284.07834
285.98506
288.11446
290.58123
293.2967
296.1884
299.07222
301.745
304.02693
305.78567
306.8821
307.34498
307.36507
307.01966
306.41244
305.63953
304.78059
303.89724
303.03336
302.21624
301.46507
300.80729
300.28084
299.88991
299.52698
299.01077
298.58448
298.35553
298.23496
298.18304
298.16381
298.15531
298.15293
298.10967
298.01551
297.96275
297.94203
297.93753
297.94888
297.96649
297.98497
297.99689
289.98961
280.69791
280.24042
277.99141
280.68971
281.0068
282.64456
284.04646
285.77305
287.78284
290.02185
292.57373
295.33853
298.20427
300.97638
303.46292
305.50933
306.97696
307.77195
308.02137
307.86324
307.37648
306.6651
305.81825
304.90812
303.98993
303.10227
302.26856
301.50624
300.84293
300.31515
299.92004
299.54284
299.01652
298.59527
298.36881
298.2478
298.19368
298.17157
298.16043
298.15185
298.09008
298.00387
297.95781
297.94114
297.93865
297.95046
297.96787
297.9859
297.99754
291.38146
280.6271
281.46221
279.48839
282.1013
282.60068
284.25238
285.77714
287.58343
289.69617
292.0391
294.65798
297.43814
300.23516
302.85474
305.1243
306.90657
308.06195
308.57855
308.63543
308.3068
307.69166
306.88726
305.97509
305.02012
304.07158
303.16326
302.31512
301.5433
300.8757
300.34704
299.94692
299.55542
299.02308
298.60606
298.38196
298.26025
298.2033
298.17733
298.16249
298.14996
298.06989
297.99345
297.95367
297.94044
297.94015
297.95251
297.96962
297.98684
297.99761
292.87502
280.67566
282.79843
281.10991
283.62486
284.3089
285.97979
287.62322
289.52076
291.73056
294.16474
296.82401
299.57751
302.26028
304.68897
306.714
308.19865
309.0361
309.31901
309.18274
308.69888
307.96854
307.08179
306.11232
305.11832
304.14351
303.21731
302.3567
301.57686
300.90605
300.3767
299.97089
299.56608
299.03054
298.61705
298.39509
298.27222
298.2119
298.18177
298.1635
298.14397
298.0511
297.98519
297.95123
297.94008
297.94236
297.95441
297.97093
297.98732
297.99773
294.426
280.91656
284.24167
282.85847
285.26597
286.13287
287.8305
289.59465
291.5954
293.89079
296.39234
299.05605
301.73537
304.25885
306.46153
308.21295
309.37499
309.91505
309.98924
309.66856
309.04401
308.21116
307.25196
306.2325
305.20464
304.20716
303.26553
302.39414
301.60757
300.93439
300.40435
299.99231
299.57554
299.03921
298.62836
298.40799
298.2834
298.21965
298.18547
298.16424
298.13041
298.03675
297.9791
297.95023
297.94062
297.94468
297.95601
297.97193
297.98769
297.99779
295.91058
281.49713
285.78499
284.72801
287.03361
288.08362
289.82197
291.70911
293.80846
296.17345
298.70926
301.33211
303.8868
306.20841
308.15381