/*--------------------------------*- C++ -*----------------------------------*\
  =========                 |
  \\      /  F ield         | OpenFOAM: The Open Source CFD Toolbox
   \\    /   O peration     | Website:  https://openfoam.org
    \\  /    A nd           | Version:  8
     \\/     M anipulation  |
\*---------------------------------------------------------------------------*/
FoamFile
{
    version     2.0;
    format      ascii;
    class       volVectorField;
    location    "0.259994";
    object      U;
}
// * * * * * * * * * * * * * * * * * * * * * * * * * * * * * * * * * * * * * //

dimensions      [0 1 -1 0 0 0 0];

internalField   nonuniform List<vector> 
20000
(
(251.75026 0 10.2065)
(294.38941 -3.7596472e-19 12.341293)
(321.68636 0 13.339311)
(344.64836 5.1728876e-19 14.155726)
(365.17948 -4.4388524e-19 14.803981)
(383.1199 -7.5226535e-19 15.327096)
(390.45136 -8.057804e-17 15.032953)
(392.42714 -9.7287893e-20 15.718818)
(390.81847 5.6330798e-17 14.684329)
(391.64585 -4.6851975e-17 15.78938)
(390.47583 4.0274607e-17 14.399101)
(390.65547 1.9057864e-18 15.645424)
(389.67348 0 14.190342)
(389.33199 0 15.294121)
(388.27518 -9.4444321e-18 13.971884)
(387.41156 4.4026993e-19 14.712937)
(386.05454 6.5143082e-18 13.577305)
(384.5674 0 13.861992)
(382.6303 0 12.850671)
(380.29691 0 12.652151)
(377.4232 0 11.620429)
(373.89932 -1.0484416e-17 10.938725)
(369.62857 -8.804404e-18 9.7355625)
(364.43075 1.0743374e-17 8.6103473)
(358.22074 -1.4866751e-17 7.1919926)
(350.86083 -1.0062563e-17 5.8015249)
(342.38687 -6.3563756e-19 4.3819734)
(332.95097 1.6616636e-17 3.1603774)
(322.97215 -1.7012797e-17 2.1844831)
(313.01322 3.5355746e-17 1.5285215)
(303.66284 -4.3753947e-17 1.1545658)
(295.32172 0 1.019066)
(288.18921 9.5520677e-17 1.0438647)
(282.26675 1.0973112e-17 1.1508357)
(277.46279 -1.0626593e-16 1.2771709)
(273.62968 -3.3522984e-17 1.3594881)
(270.60429 5.0542814e-17 1.3750854)
(268.24662 -1.7759534e-17 1.3247389)
(266.43451 0 1.2263844)
(265.06251 1.3213324e-18 1.0959498)
(264.02361 0 0.93939621)
(263.23174 1.155164e-16 0.76753308)
(262.60969 -1.7534311e-17 0.57166209)
(262.12106 -1.2553387e-16 0.37287419)
(261.68337 1.8236181e-17 0.15417808)
(261.32184 -1.1036042e-16 -0.093103588)
(260.86853 0 -0.29515553)
(260.6934 0 -0.35343326)
(260.45463 -1.872771e-19 -0.40602568)
(260.58719 3.7985652e-17 -0.43421534)
(252.94627 0 9.2558925)
(295.66803 3.8365254e-19 11.215971)
(323.01071 6.2063503e-19 12.08196)
(345.985 1.3427365e-16 12.800619)
(366.461 -1.1502786e-16 13.359249)
(384.21773 7.6316334e-19 13.810012)
(390.60375 1.2788437e-18 13.446686)
(392.49351 0 14.19673)
(390.83093 0 13.079735)
(391.68049 0 14.270108)
(390.46536 -1.2422036e-18 12.773832)
(390.67803 -2.0663474e-18 14.111865)
(389.6025 0 12.543332)
(389.24041 5.7522656e-18 13.694787)
(388.13834 9.6168459e-18 12.267757)
(387.23115 -7.9599462e-18 13.026909)
(385.81866 0 11.808551)
(384.26805 1.3933485e-18 12.077085)
(382.26485 -1.1492483e-18 10.994112)
(379.85693 0 10.748412)
(376.90517 2.5689943e-17 9.64445)
(373.29612 1.0651178e-17 8.8938739)
(368.93874 0 7.6145191)
(363.6591 0 6.4142747)
(357.38098 2.4417212e-17 4.9322357)
(349.98665 3.0726431e-17 3.5021696)
(341.52942 -7.5334181e-17 2.0942978)
(332.17948 0 0.95778146)
(322.34363 2.2912109e-17 0.15545098)
(312.54614 1.8809115e-17 -0.25152714)
(303.33312 5.8688673e-17 -0.33514225)
(295.09521 0 -0.17984621)
(288.03504 -9.2029983e-17 0.10698316)
(282.1646 4.2972095e-17 0.43349525)
(277.3987 4.4157452e-17 0.73697493)
(273.59344 1.672335e-17 0.95795615)
(270.5867 -2.0402651e-16 1.0799981)
(268.24131 0 1.1103229)
(266.43631 0 1.0725028)
(265.06871 2.1270232e-17 0.98708149)
(264.0308 -2.9834751e-16 0.86292668)
(263.23749 -9.2641636e-17 0.71300268)
(262.61202 -3.7068645e-20 0.53268885)
(262.11572 1.128384e-16 0.34387492)
(261.6745 0 0.13214173)
(261.27905 3.2879765e-16 -0.11265625)
(260.84328 1.0223008e-17 -0.31077518)
(260.61155 -1.1551182e-16 -0.35924308)
(260.44936 -1.1786584e-17 -0.4004584)
(260.61252 3.7526933e-17 -0.4042852)
(253.58551 0 8.2529136)
(296.48045 1.9950037e-16 10.068586)
(323.95123 -1.6129192e-16 10.829281)
(347.02197 0 11.459832)
(367.50829 -1.8411152e-18 11.921723)
(385.08949 9.9449501e-17 12.303175)
(390.59162 -8.4574107e-17 11.848367)
(392.4334 0 12.652486)
(390.68362 -2.9185694e-17 11.446328)
(391.53197 2.4187905e-17 12.718206)
(390.28875 -5.0645093e-18 11.108263)
(390.44898 -1.2648715e-17 12.5247)
(389.38869 1.4031422e-17 10.849339)
(389.00347 -1.7578959e-17 12.047982)
(387.85864 4.8422869e-18 10.531871)
(386.91048 -4.093099e-18 11.302951)
(385.44902 -1.35861e-17 10.014159)
(383.83969 -1.9802182e-17 10.259514)
(381.77299 -7.0793285e-18 9.1125215)
(379.28773 3.5333032e-17 8.8164861)
(376.2537 1.0237985e-19 7.6477279)
(372.54941 1.0980852e-17 6.8294313)
(368.09131 -8.9354441e-18 5.4811084)
(362.707 0 4.2118256)
(356.33171 0 2.6766242)
(348.86517 -4.1184076e-17 1.2193709)
(340.38497 6.8002712e-17 -0.16246832)
(331.08567 0 -1.2031059)
(321.37328 0 -1.8293031)
(311.74407 -2.2282184e-16 -1.9931796)
(302.70368 1.1935283e-16 -1.7963278)
(294.61772 1.8957462e-16 -1.3596038)
(287.67981 0 -0.8175683)
(281.90504 2.3160031e-16 -0.27605221)
(277.21188 0 0.20134923)
(273.463 -3.0600611e-16 0.55857509)
(270.49764 2.3107447e-16 0.78518297)
(268.18196 0 0.89491235)
(266.39734 -2.3012659e-16 0.91686947)
(265.04414 -3.1994199e-16 0.87591906)
(264.01401 2.047238e-16 0.78391323)
(263.22357 2.3154033e-17 0.65575111)
(262.59909 0 0.49090708)
(262.09924 -2.5072648e-17 0.312106)
(261.65504 -2.5818802e-16 0.10655663)
(261.2335 -2.3162782e-16 -0.13523174)
(260.7845 0 -0.32659003)
(260.56448 1.217689e-16 -0.36380622)
(260.4307 0 -0.39130638)
(260.63159 -2.1885694e-16 -0.37803472)
(254.15584 -1.1274208e-18 7.2266201)
(297.22847 1.0291903e-16 8.8881068)
(324.81662 -8.3887319e-17 9.5355226)
(347.97715 7.0102858e-17 10.073095)
(368.46565 -5.8127845e-17 10.430453)
(385.82462 5.0597163e-17 10.750105)
(390.43748 -8.7554476e-17 10.211577)
(392.19045 3.984582e-17 11.073189)
(390.42742 2.9712999e-17 9.7707802)
(391.30543 5.7067574e-20 11.130863)
(390.00597 -1.5431808e-17 9.4038676)
(390.18112 -3.0034689e-17 10.898275)
(389.06557 7.1144426e-18 9.1132941)
(388.65753 1.1918346e-17 10.367142)
(387.47118 -1.7412516e-17 8.7660802)
(386.48254 1.033905e-17 9.5518375)
(384.97138 1.37989e-17 8.194808)
(383.3018 2.2991884e-17 8.4198306)
(381.16981 4.8276173e-18 7.2138454)
(378.60454 -6.7916504e-17 6.8709961)
(375.48329 -2.6568572e-17 5.6419581)
(371.67552 -1.1192104e-17 4.7600144)
(367.10482 1.8429816e-17 3.3490228)
(361.59933 7.9771243e-18 2.018705)
(355.10664 4.0593435e-19 0.44143676)
(347.54438 -8.4054143e-17 -1.0290195)
(339.01918 -8.5049975e-18 -2.3693001)
(329.75438 0 -3.3013329)
(320.16329 0 -3.7468651)
(310.71829 3.0152822e-16 -3.67327)
(301.88163 -1.2067838e-16 -3.2080986)
(293.98616 -3.5947549e-16 -2.5031961)
(287.20851 -1.8580564e-17 -1.7171978)
(281.56099 -2.6322561e-16 -0.96900381)
(276.9652 3.8228671e-16 -0.32338527)
(273.29066 2.3959349e-16 0.16627798)
(270.37977 2.5747962e-17 0.49487184)
(268.10306 0 0.68231722)
(266.34542 2.3123762e-16 0.76297221)
(265.01102 6.8522905e-16 0.76573491)
(263.99169 0 0.70545002)
(263.20623 -3.2508553e-16 0.59886125)
(262.58369 -5.9652303e-16 0.44933145)
(262.08144 4.126878e-16 0.2804616)
(261.63383 3.1243559e-16 0.080310838)
(261.17847 -1.3534369e-17 -0.15822606)
(260.72612 0 -0.34214132)
(260.51917 0 -0.36732591)
(260.40993 5.6999413e-18 -0.38088021)
(260.65649 1.3668526e-16 -0.35014567)
(254.63222 1.1697214e-18 6.1834389)
(297.87215 -1.0572596e-16 7.6826436)
(325.57953 1.3183105e-18 8.2183624)
(348.8363 6.9271973e-17 8.6623584)
(369.33299 -6.1167447e-17 8.9080005)
(386.42297 5.1477229e-17 9.1729373)
(390.16978 -4.0517267e-17 8.5528797)
(391.90889 -4.5053311e-18 9.4693058)
(390.08448 -3.0250493e-17 8.0627599)
(390.97526 6.2222618e-18 9.5140722)
(389.63469 2.0951167e-17 7.6693626)
(389.80346 8.7173595e-18 9.2469399)
(388.65306 1.4595506e-17 7.3564891)
(388.22435 0 8.6626082)
(386.9972 3.0400352e-17 6.9785769)
(385.96699 1.0584487e-18 7.7774993)
(384.40552 2.3787223e-17 6.3560804)
(382.67386 -2.0585319e-17 6.5596611)
(380.47363 4.4097776e-17 5.2984657)
(377.82304 2.8462395e-17 4.90898)
(374.60674 0 3.6235809)
(370.68505 0 2.6804176)
(365.9883 6.5846773e-17 1.2124853)
(360.34539 -8.1346898e-18 -0.17183053)
(353.71622 1.273225e-17 -1.780275)
(346.03821 8.5439475e-17 -3.2494879)
(337.45007 0 -4.5310633)
(328.20713 1.3127449e-16 -5.3392635)
(318.73326 -3.5640036e-17 -5.5960991)
(309.48095 -1.533764e-16 -5.286757)
(300.87063 1.5059716e-17 -4.5627311)
(293.19675 1.695099e-16 -3.6022618)
(286.6123 -2.863008e-16 -2.5843622)
(281.1214 2.3662181e-16 -1.6392934)
(276.64692 -3.8574832e-16 -0.83270863)
(273.06544 1.7159156e-17 -0.2157518)
(270.22343 0 0.21116093)
(267.99641 0 0.47380668)
(266.2737 0 0.61149438)
(264.96372 -3.4380364e-16 0.65675706)
(263.95909 -1.044932e-15 0.62740978)
(263.18134 4.6429326e-17 0.54205558)
(262.56262 -3.3355629e-20 0.40759265)
(262.06013 -4.1187311e-16 0.24846296)
(261.60979 -6.0431448e-16 0.05252961)
(261.11501 1.3454618e-17 -0.18210927)
(260.6669 0 -0.35758241)
(260.4802 0 -0.36986937)
(260.38687 5.6052949e-18 -0.36950809)
(260.68226 -6.4631744e-18 -0.32092363)
(255.05217 -2.3439057e-18 5.1239162)
(298.46073 1.0784762e-16 6.43634)
(326.28637 -8.7306653e-17 6.8590269)
(349.63939 2.2762961e-18 7.2098761)
(370.14718 -3.9033185e-18 7.3343441)
(386.90834 -5.2366147e-17 7.5529488)
(389.81702 3.8510529e-17 6.8554758)
(391.54215 4.5965839e-18 7.8363161)
(389.67169 -7.700335e-18 6.32954)
(390.57899 -6.3787367e-18 7.8769854)
(389.19479 0 5.9129039)
(389.36152 1.779762e-17 7.5738999)
(388.1708 -2.2221286e-17 5.578272)
(387.71897 -1.2378406e-17 6.9346331)
(386.44962 -1.9297582e-17 5.1693448)
(385.37526 -1.0698272e-18 5.980023)
(383.76106 -3.2210527e-17 4.4978097)
(381.96374 2.8722692e-18 4.6793636)
(379.69083 -3.9736813e-17 3.3667605)
(376.94889 3.3260992e-17 2.9308803)
(373.62923 -6.9720876e-18 1.5924034)
(369.58327 5.6883287e-18 0.5903276)
(364.74765 1.0171941e-17 -0.92902632)
(358.95264 -2.3962738e-17 -2.3601053)
(352.17079 -4.3183765e-19 -3.9883876)
(344.36194 1.0713657e-17 -5.4408946)
(335.69978 0 -6.6453213)
(326.47361 -1.0272502e-16 -7.3129261)
(317.11902 -1.1789418e-17 -7.3713799)
(308.06963 -3.1189823e-16 -6.8265376)
(299.70443 0 -5.8522721)
(292.27684 -3.9442387e-16 -4.6489904)
(285.91197 3.0786381e-16 -3.4122658)
(280.60163 -7.1678396e-16 -2.2815012)
(276.2685 0 -1.3225064)
(272.79589 -1.7475653e-17 -0.58446957)
(270.035 -1.326545e-17 -0.063718271)
(267.86681 1.9552513e-17 0.27100072)
(266.18581 4.66875e-16 0.46361029)
(264.905 0 0.54983573)
(263.91839 9.833421e-16 0.55034116)
(263.15069 3.7216035e-16 0.48580479)
(262.53728 5.6185627e-16 0.3660856)
(262.03634 0 0.21645181)
(261.584 1.1489494e-15 0.023207781)
(261.04488 2.677433e-17 -0.20666962)
(260.61042 6.2244962e-16 -0.37263116)
(260.44374 -4.6989036e-16 -0.37132753)
(260.36445 5.5118791e-18 -0.35386503)
(260.70945 -2.7369664e-16 -0.29131179)
(255.43492 1.550737e-16 4.0662844)
(299.01178 0 5.1693994)
(326.95452 0 5.4738822)
(350.40074 0 5.738226)
(370.92274 7.9453569e-18 5.7328452)
(387.28687 2.9958861e-17 5.9144338)
(389.39453 -1.6814698e-17 5.1422213)
(391.12142 1.2700173e-20 6.1877419)
(389.20182 -7.8534946e-18 4.5729981)
(390.12267 1.298215e-17 6.2187668)
(388.69474 0 4.132595)
(388.85613 9.0859325e-18 5.8769293)
(387.62476 0 3.7775887)
(387.14747 1.2559898e-17 5.1832443)
(385.83465 0 3.3397795)
(384.71365 4.3901478e-18 4.1604922)
(383.04439 2.5612615e-17 2.6211755)
(381.17771 6.6922832e-17 2.7792362)
(378.82721 -3.5615739e-17 1.4182056)
(375.98706 -3.3709365e-17 0.93544464)
(372.55507 0 -0.45307982)
(368.37419 0 -1.5117604)
(363.3871 -1.5601312e-16 -3.0768873)
(357.42618 1.3014179e-16 -4.5471963)
(350.47737 0 -6.1833296)
(342.52614 1.1315335e-17 -7.6025775)
(333.78373 -8.9855276e-18 -8.7102791)
(324.57422 0 -9.2195698)
(315.34391 0 -9.0689794)
(306.50749 3.148875e-16 -8.287708)
(298.40307 0 -7.0708825)
(291.24167 3.7281414e-16 -5.6373089)
(285.11788 1.9259346e-17 -4.1953214)
(280.00818 4.8196464e-16 -2.8909515)
(275.83365 2.3215563e-17 -1.7890936)
(272.48406 -1.7432404e-17 -0.9370826)
(269.81551 -3.9620356e-16 -0.32771378)
(267.71472 -1.9656961e-17 0.075366421)
(266.08183 -4.9792624e-16 0.32034681)
(264.83474 2.1574273e-17 0.44569132)
(263.86934 0 0.47468142)
(263.11399 0 0.43041504)
(262.50749 0 0.32502851)
(262.00973 7.9515902e-16 0.18461447)
(261.55503 -5.9922751e-16 -0.007621787)
(260.97119 -3.1721437e-20 -0.23188593)
(260.55845 9.891282e-18 -0.38642445)
(260.41248 4.4953165e-16 -0.3717295)
(260.34466 1.0847869e-17 -0.33765898)
(260.73668 3.7044647e-20 -0.26093653)
(255.7844 7.7793426e-17 2.9493372)
(299.5296 -5.5169847e-17 3.9004672)
(327.58979 4.4701225e-17 4.0542904)
(351.12711 -3.7926809e-17 4.237005)
(371.66508 2.8317248e-17 4.0927707)
(387.56133 -3.3780033e-18 4.2484077)
(388.91024 0 3.4022267)
(390.645 -4.7462904e-18 4.5172229)
(388.67737 0 2.7899352)
(389.60972 -6.622232e-18 4.5370901)
(388.13751 8.2912097e-18 2.3288091)
(388.2921 -2.0673248e-17 4.156587)
(387.01928 -1.5398386e-17 1.9554244)
(386.51449 2.5657406e-17 3.4087962)
(385.15682 0 1.4903802)
(383.98645 -4.469547e-18 2.3189974)
(382.25929 -2.5950598e-17 0.72606642)
(380.31888 -1.0530677e-16 0.85883998)
(377.88515 4.6321467e-17 -0.54784085)
(374.93952 6.9027771e-17 -1.0782276)
(371.38605 0 -2.5138519)
(367.0598 0 -3.6266563)
(361.9091 -5.7374234e-19 -5.2316587)
(355.76939 -2.4749138e-16 -6.7331191)
(348.64136 -1.3462306e-17 -8.3642387)
(340.53978 1.8219519e-16 -9.7324512)
(331.71582 0 -10.722861)
(322.52803 0 -11.055618)
(313.43098 0 -10.685111)
(304.81893 -2.0302906e-17 -9.6661964)
(296.98908 -4.9721413e-16 -8.2141259)
(290.10991 -3.7912163e-16 -6.5626454)
(284.24418 -1.9483935e-17 -4.9292364)
(279.35119 0 -3.46394)
(275.34944 0 -2.2294564)
(272.13481 1.7729895e-17 -1.2712425)
(269.56828 4.1164367e-16 -0.57905819)
(267.54238 6.1480513e-16 -0.11180295)
(265.96328 4.4111308e-17 0.18262735)
(264.75396 -7.1543003e-16 0.34501117)
(263.81263 1.0184305e-15 0.40094492)
(263.07177 0 0.37618419)
(262.47376 -1.7004388e-17 0.2845831)
(261.98005 -1.5733129e-15 0.15308554)
(261.51908 1.8097713e-17 -0.039555997)
(260.8976 -1.3195632e-17 -0.25754709)
(260.51435 -6.2069497e-16 -0.39883409)
(260.38991 -4.5827004e-16 -0.37140392)
(260.33159 0 -0.31977625)
(260.76347 -2.5752057e-16 -0.23015236)
(256.11437 0 1.7162363)
(300.01896 3.5188309e-18 2.6429703)
(328.19741 2.8537616e-18 2.6086904)
(351.82418 0 2.7119434)
(372.37624 0 2.419183)
(387.73075 0 2.5587638)
(388.36772 1.164013e-17 1.6369744)
(390.11533 -4.8307022e-18 2.8266637)
(388.10035 8.1155128e-18 0.98092912)
(389.04238 0 2.8319976)
(387.52613 0 0.50248128)
(387.6722 -1.8764104e-17 2.4134207)
(386.35753 1.1692428e-17 0.11285126)
(385.82313 -2.2764362e-17 1.61196)
(384.41923 0 -0.37798046)
(383.19653 0 0.45588379)
(381.40831 0 -1.1874506)
(379.38931 6.2987958e-17 -1.082438)
(376.8662 7.3878878e-17 -2.5323263)
(373.80744 -6.1061544e-17 -3.1112246)
(370.12315 -7.2288734e-18 -4.5908918)
(365.64114 -1.2300504e-17 -5.7550504)
(360.31496 2.5321284e-16 -7.3936712)
(353.98431 1.3406727e-16 -8.9174289)
(346.66668 2.2439421e-16 -10.529518)
(338.41017 -1.839661e-16 -11.82761)
(329.50783 0 -12.679351)
(320.35116 0 -12.817274)
(311.39951 0 -12.2163)
(303.02424 -3.0611782e-16 -10.958714)
(295.48149 -1.8837022e-17 -9.2786544)
(288.89756 8.1742997e-16 -7.4215756)
(283.30323 6.3839948e-16 -5.6107141)
(278.63956 0 -3.9975164)
(274.822 2.3593347e-17 -2.6410997)
(271.75231 1.603594e-19 -1.5849381)
(269.29611 -1.3300308e-17 -0.81620233)
(267.35163 6.3801755e-16 -0.28935284)
(265.83133 0 0.051286127)
(264.66339 7.1682981e-16 0.24842166)
(263.74872 -1.5619366e-17 0.32967258)
(263.02435 2.3292756e-17 0.32337091)
(262.43656 -1.6941365e-17 0.24476161)
(261.94683 -1.2925707e-19 0.12177489)
(261.47042 1.8009059e-17 -0.07177474)
(260.82863 8.2694583e-16 -0.28330575)
(260.47926 0 -0.40969692)
(260.37782 4.5243547e-16 -0.37053046)
(260.32631 0 -0.30075509)
(260.78984 5.0378501e-16 -0.19931833)
(256.41546 0 0.51919573)
(300.47845 -1.7899397e-17 1.342939)
(328.78161 8.7167832e-18 1.1272016)
(352.49457 -4.9346359e-18 1.1543473)
(373.05147 -4.2029345e-18 0.7091147)
(387.79457 5.2562235e-18 0.84214832)
(387.77126 -4.5216147e-18 -0.15968563)
(389.53419 9.929888e-18 1.1159925)
(387.47356 -4.1017265e-18 -0.85161358)
(388.42378 1.0297632e-17 1.1052593)
(386.86389 0 -1.3441758)
(386.9997 3.3338278e-17 0.64859555)
(385.64255 3.9688154e-18 -1.7489584)
(385.07612 -6.6470851e-18 -0.20693334)
(383.6242 6.0969939e-17 -2.2651094)
(382.34575 7.8672617e-20 -1.4292013)
(380.49271 -6.9365032e-17 -3.1199162)
(378.38968 0 -3.045467)
(375.77056 -9.6144174e-17 -4.5361057)
(372.59081 -6.2752057e-17 -5.1642799)
(368.76632 -1.1936241e-16 -6.6847493)
(364.11821 1.1200632e-16 -7.8971435)
(358.60488 -1.7448657e-16 -9.5627387)
(352.07189 1.7405735e-17 -11.099035)
(344.55622 -2.260781e-16 -12.676698)
(336.1437 -2.0074197e-16 -13.884212)
(327.17051 3.3120739e-16 -14.575315)
(318.05853 -2.7024012e-16 -14.50043)
(309.26736 -1.3030991e-17 -13.659252)
(301.14243 3.3953149e-16 -12.162655)
(293.89836 5.0760643e-16 -10.262137)
(287.62026 -3.7387062e-16 -8.2117918)
(282.30742 -6.6286696e-16 -6.2374777)
(277.88257 0 -4.489548)
(274.25798 0 -3.0221253)
(271.34122 1.7963459e-17 -1.876573)
(269.00222 -1.337433e-17 -1.0378796)
(267.14469 -1.2995392e-15 -0.45631834)
(265.68743 -9.3235343e-16 -0.072966759)
(264.56395 2.1792273e-17 0.15644382)
(263.67821 -1.035739e-15 0.26132089)
(262.97227 7.4430386e-16 0.27220096)
(262.39648 -1.0834907e-15 0.20543462)
(261.90998 8.1214348e-16 0.090287134)
(261.40525 -1.7869758e-17 -0.10330732)
(260.76687 -1.6807818e-15 -0.3085477)
(260.45114 9.5044464e-18 -0.41889208)
(260.37294 9.0722308e-16 -0.36919176)
(260.32544 -1.0313263e-17 -0.28079992)
(260.81646 4.9650449e-16 -0.16947267)
(256.68581 6.4221373e-19 -0.71722368)
(300.91464 -3.6538128e-18 0.028614465)
(329.34814 0 -0.37684874)
(353.14431 5.0135913e-18 -0.43400812)
(373.6871 8.5374275e-18 -1.0299521)
(387.74587 -7.095998e-18 -0.89190846)
(387.12717 0 -1.9825407)
(388.90625 -9.9845401e-18 -0.61013027)
(386.80088 8.3910759e-18 -2.7033572)
(387.75731 -2.0848218e-17 -0.64123587)
(386.15358 1.1664102e-17 -3.2101974)
(386.2769 -2.9011624e-17 -1.1378235)
(384.87632 2.4322783e-17 -3.6300097)
(384.2751 6.7213772e-18 -2.0481311)
(382.77307 -9.0047431e-17 -4.1711417)
(381.435 0 -3.3368447)
(379.51285 1.2527816e-16 -5.0720469)
(377.31993 -5.2389921e-17 -5.0312042)
(374.59785 -8.7394723e-17 -6.5600723)
(371.28913 7.2428011e-17 -7.2380249)
(367.31488 1.0540475e-16 -8.7958037)
(362.49026 -8.8091946e-17 -10.052876)
(356.77817 0 -11.738257)
(350.03218 0 -13.276223)
(342.3122 2.4780809e-16 -14.802515)
(333.74617 1.6691584e-16 -15.897613)
(324.71388 3.2850603e-17 -16.40575)
(315.66384 -1.8469295e-18 -16.10079)
(307.05068 4.0714929e-19 -15.010882)
(299.1905 -1.0315154e-17 -13.275958)
(292.25595 -5.5106244e-16 -11.163036)
(286.29221 -1.3426972e-17 -8.9318766)
(281.26828 2.0142485e-17 -6.808087)
(277.08896 1.0027885e-15 -4.9385894)
(273.66375 0 -3.3711508)
(270.90612 1.8071907e-17 -2.1449157)
(268.68983 -4.0505891e-17 -1.2430779)
(266.92373 1.3053859e-15 -0.61190945)
(265.53302 1.9284355e-15 -0.18953493)
(264.45657 -1.4170872e-15 0.069502512)
(263.60173 0 0.19620911)
(262.91607 -7.4341643e-16 0.2229166)
(262.35414 1.0807849e-15 0.1665617)
(261.8699 0 0.058063733)
(261.32603 -1.1390652e-15 -0.13370101)
(260.71007 8.2751613e-16 -0.33233118)
(260.42767 0 -0.42644539)
(260.37245 -8.9541754e-16 -0.36732703)
(260.32696 -6.3888692e-16 -0.26013734)
(260.84441 -3.8305057e-18 -0.13965599)
(256.93692 2.0928848e-17 -1.9785307)
(301.33309 -1.1148933e-17 -1.3129533)
(329.90302 2.415046e-17 -1.8979005)
(353.78145 -2.0466168e-17 -2.0538036)
(374.27325 2.1734804e-17 -2.8046026)
(387.58334 -1.4433051e-17 -2.6444033)
(386.4394 -1.225441e-17 -3.8305894)
(388.234 -2.1232498e-20 -2.355826)
(386.08416 -8.5545809e-18 -4.5767767)
(387.04449 2.8321423e-17 -2.4094408)
(385.39658 2.3726013e-17 -5.0963891)
(385.50503 0 -2.9463445)
(384.06002 -1.6364419e-17 -5.5302732)
(383.421 4.1173152e-17 -3.9120566)
(381.86643 1.1278062e-17 -6.0965263)
(380.46433 -1.9092097e-17 -5.2680314)
(378.46829 8.2663971e-18 -7.0448186)
(376.17934 5.3012341e-17 -7.0405062)
(373.3472 7.7232528e-17 -8.6048292)
(369.90139 8.3378401e-17 -9.3327848)
(365.76761 0 -10.924146)
(360.75583 -1.3008463e-17 -12.221855)
(354.83342 -1.6142792e-16 -13.919139)
(347.86466 1.8077871e-17 -15.446541)
(339.93652 -2.496025e-16 -16.902827)
(331.22326 -3.8042649e-16 -17.862387)
(322.14773 1.3848249e-17 -18.16518)
(313.18024 2.4508479e-16 -17.613978)
(304.76465 4.2653358e-16 -16.268382)
(297.1842 -2.1495701e-17 -14.297131)
(290.56926 1.0959152e-15 -11.98057)
(284.92663 0 -9.5812327)
(280.19664 0 -7.3218752)
(276.26711 2.8330005e-18 -5.3438465)
(273.04554 0 -3.6872957)
(270.45155 1.1424805e-15 -2.3891032)
(268.36219 1.3509596e-17 -1.4310492)
(266.69103 -1.288758e-15 -0.75552352)
(265.36963 -9.8102676e-16 -0.29794841)
(264.34225 1.4180913e-15 -0.012058915)
(263.51994 -1.0203864e-15 0.1345663)
(262.85633 1.4852633e-15 0.17582402)
(262.31022 0 0.12871896)
(261.82709 2.444488e-17 0.024726302)
(261.23734 2.2469383e-15 -0.16302515)
(260.65574 -8.2123492e-16 -0.35391558)
(260.40725 1.864874e-17 -0.43225392)
(260.37481 -1.3590138e-17 -0.36487284)
(260.33404 6.3812947e-16 -0.23903852)
(260.87509 -4.7158415e-16 -0.11004961)
(257.16782 3.7263102e-17 -3.1914309)
(301.7349 -3.0279391e-17 -2.7220258)
(330.44899 2.4593049e-17 -3.4507897)
(354.41337 0 -3.7104734)
(374.80227 -4.411434e-17 -4.6190755)
(387.30827 2.9324452e-17 -4.4184093)
(385.70814 0 -5.7043876)
(387.5173 0 -4.1214101)
(385.32409 -3.4706668e-17 -6.4708477)
(386.28614 -1.4409236e-17 -4.1990884)
(384.59389 -2.4070237e-17 -7.0020482)
(384.68488 1.0089632e-17 -4.7771877)
(383.19426 -5.0181846e-17 -7.4499032)
(382.51404 -2.7929828e-17 -5.7995471)
(380.90407 4.6368929e-17 -8.0420708)
(379.43308 9.6639309e-18 -7.2239236)
(377.35808 -4.8346285e-17 -9.0391628)
(374.96686 -1.3427308e-17 -9.0741339)
(372.01741 0 -10.670926)
(368.42616 -7.502057e-17 -11.448814)
(364.1227 -1.2605611e-16 -13.069761)
(358.91279 -1.3251575e-17 -14.403443)
(352.76856 1.8430894e-16 -16.103849)
(345.56837 -1.8421807e-17 -17.606824)
(337.431 -2.2727312e-16 -18.972656)
(328.58075 3.8327869e-16 -19.772427)
(319.48178 -3.1545978e-16 -19.847788)
(310.6204 -5.3635864e-16 -19.035637)
(302.42351 -4.2957848e-16 -17.42926)
(295.138 -7.1465204e-16 -15.225194)
(288.85193 -5.2798293e-16 -12.714581)
(283.53558 -8.3111938e-16 -10.159933)
(279.10252 -2.0561798e-17 -7.7788218)
(275.42488 -2.0363109e-15 -5.7050865)
(272.40931 7.7474018e-16 -3.9701253)
(269.98193 -1.1834623e-15 -2.6086086)
(268.02252 -8.8576651e-16 -1.6012911)
(266.44883 2.0150966e-17 -0.886735)
(265.19878 -9.536493e-16 -0.39786004)
(264.22199 0 -0.087959903)
(263.43353 2.0395884e-15 0.076615059)
(262.79364 -1.4824271e-15 0.13129532)
(262.26526 -1.0749131e-15 0.093695547)
(261.78119 -1.5802272e-15 -0.0099528614)
(261.14243 -1.1076736e-15 -0.19138718)
(260.60464 8.1446064e-16 -0.37276845)
(260.3911 0 -0.43586237)
(260.38269 0 -0.36193562)
(260.3537 0 -0.21788909)
(260.90934 7.2031224e-18 -0.081042771)
(257.37239 5.4097917e-18 -4.3918119)
(302.11811 3.8608549e-18 -4.160179)
(330.98657 -6.2767012e-18 -5.024914)
(355.04411 0 -5.3909572)
(375.26241 0 -6.4644784)
(386.92446 0 -6.2071873)
(384.93592 2.5328677e-17 -7.5993896)
(386.75834 -3.1495566e-17 -5.904048)
(384.52185 3.5142915e-17 -8.3841907)
(385.48327 5.7059233e-20 -6.0101292)
(383.74604 -1.0355053e-19 -8.9279271)
(383.81673 -2.0427725e-17 -6.6310192)
(382.27899 -5.1173715e-17 -9.3896306)
(381.55374 2.8363375e-17 -7.7116365)
(379.88508 3.5686818e-17 -10.008857)
(378.34012 1.9846698e-17 -9.2055947)
(376.181 1.9068521e-19 -11.055814)
(373.68127 -1.3656742e-17 -11.132482)
(370.60701 0 -12.758623)
(366.86154 -1.5382623e-16 -13.586105)
(362.37779 -1.042827e-18 -15.232374)
(356.95846 1.3498924e-17 -16.596627)
(350.58107 3.3954187e-19 -18.290251)
(343.14218 -9.0716084e-18 -19.753051)
(334.79768 2.4393037e-16 -21.00612)
(325.82481 -4.0765771e-16 -21.620993)
(316.72604 -3.3479174e-16 -21.447536)
(307.99684 5.2290494e-16 -20.361575)
(300.04081 -4.2651861e-16 -18.491434)
(293.06535 6.974291e-16 -16.0597)
(287.11649 5.5488995e-16 -13.365508)
(282.13014 8.6315418e-16 -10.668674)
(277.99513 -6.918357e-16 -8.1795026)
(274.56957 1.0405397e-15 -6.022591)
(271.76064 1.6934379e-18 -4.2196163)
(269.50151 1.8361217e-17 -2.8032215)
(267.67394 8.6077635e-16 -1.753538)
(266.19936 -1.2973223e-15 -1.005291)
(265.02197 9.2465535e-16 -0.48904408)
(264.0968 -5.8949566e-20 -0.1579888)
(263.34329 1.6257236e-17 0.022573213)
(262.7285 -1.5029878e-15 0.089620505)
(262.21883 1.0878474e-15 0.063985545)
(261.72995 1.548135e-15 -0.045764018)
(261.04628 1.749011e-17 -0.21912068)
(260.55865 -1.2605919e-17 -0.38816142)
(260.38047 0 -0.43790382)
(260.39578 -8.6015627e-16 -0.35828248)
(260.39675 9.6370182e-18 -0.19776446)
(260.94765 0 -0.053714161)
(257.56588 0 -5.6325591)
(302.49307 -3.9154152e-18 -5.6167268)
(331.52605 6.3663528e-18 -6.6282422)
(355.68494 0 -7.105263)
(375.64533 -9.1211993e-18 -8.3487714)
(386.4358 -7.5864802e-18 -8.0192897)
(384.12357 0 -9.5227496)
(385.95692 4.2797408e-17 -7.7099059)
(383.67736 -1.787959e-17 -10.319241)
(384.63546 -4.4641649e-17 -7.8444822)
(382.85289 2.4920008e-17 -10.87465)
(382.90015 7.4109722e-21 -8.50902)
(381.31353 1.7156456e-17 -11.350277)
(380.53898 7.2207306e-17 -9.6498509)
(378.80815 -4.8019917e-17 -11.9979)
(377.18415 -8.0596533e-17 -11.213943)
(374.9358 6.7264984e-17 -13.095241)
(372.32118 1.409089e-17 -13.215932)
(369.11416 -1.1579585e-17 -14.868308)
(365.20513 3.1193774e-16 -15.744724)
(360.52994 1.4603056e-16 -17.411656)
(354.88955 2.1848402e-16 -18.800217)
(348.26801 1.8218961e-16 -20.475763)
(340.58504 -2.8365327e-17 -21.880499)
(332.03907 1.5310226e-17 -22.996579)
(322.96222 -4.6670679e-18 -23.400859)
(313.89084 6.7778667e-16 -22.958324)
(305.32195 0 -21.587876)
(297.62946 4.4283395e-16 -19.453253)
(290.97871 0 -16.800687)
(285.37442 -5.4058389e-16 -13.934303)
(280.72036 -1.3539734e-17 -11.108675)
(276.88287 6.9543985e-16 -8.5249891)
(273.70785 -3.2269571e-17 -6.2970711)
(271.10473 1.3895559e-17 -4.4360965)
(269.01428 -1.1786245e-15 -2.9730112)
(267.31946 8.7852357e-16 -1.8877396)
(265.94475 1.2992111e-15 -1.1110968)
(264.84066 -2.9910171e-17 -0.5713865)
(263.96768 -1.3549142e-15 -0.22200657)
(263.25002 -1.0017142e-15 -0.02738588)
(262.66161 -4.6520072e-17 0.050734089)
(262.16919 1.6660153e-17 0.033594945)
(261.66862 -1.5406952e-15 -0.081561341)
(260.95569 -1.1110187e-15 -0.24666657)
(260.51947 1.6267893e-15 -0.4012902)
(260.37519 -1.1735843e-15 -0.43905037)
(260.40871 8.3547296e-16 -0.35266242)
(260.47311 0 -0.17968566)
(260.98968 -8.840825e-16 -0.028333532)
(257.73871 0 -6.9050113)
(302.85048 0 -7.1048715)
(332.05578 -6.5073149e-18 -8.269126)
(356.33485 -8.2558298e-17 -8.8636185)
(375.93657 8.3114916e-17 -10.275838)
(385.84039 7.6761207e-18 -9.8520905)
(383.26973 -5.2305821e-17 -11.469359)
(385.11246 3.2507861e-17 -9.5389368)
(382.79034 0 -12.275337)
(383.74257 -1.3823373e-19 -9.7016919)
(381.91408 0 -12.842348)
(381.93425 -6.328998e-17 -10.412435)
(380.29659 1.7526213e-17 -13.333156)
(379.46826 -5.8486155e-17 -11.615548)
(377.67192 -4.9081716e-17 -14.009914)
(375.96395 8.1466298e-17 -13.24941)
(373.62114 -6.797207e-17 -15.157711)
(370.88488 -1.2859724e-16 -15.3247)
(367.5365 -2.0985314e-19 -17.000232)
(363.4539 -1.4825932e-16 -17.924543)
(358.57557 0 -19.60696)
(352.70227 -4.5611395e-16 -21.012493)
(345.82622 -1.7196981e-16 -22.657018)
(337.89614 0 -23.983515)
(329.1584 0 -24.936618)
(320.00059 4.313199e-16 -25.104428)
(310.98702 -3.5349363e-16 -24.374131)
(302.60805 -5.6346619e-16 -22.711001)
(295.20186 -4.5327087e-16 -20.313572)
(288.88974 0 -17.448725)
(283.63621 -5.858403e-16 -14.422444)
(279.31537 8.986869e-16 -11.481648)
(275.77332 0 -8.8167983)
(272.84577 1.0423972e-15 -6.5296192)
(270.44638 7.9057846e-16 -4.6202067)
(268.524 2.3841153e-15 -3.1183012)
(266.9619 -8.9393644e-16 -2.0040453)
(265.68705 1.2825059e-15 -1.2042061)
(264.65625 1.9289721e-15 -0.6448771)
(263.83562 1.3974544e-15 -0.27994232)
(263.15458 0 -0.073185643)
(262.59391 1.495002e-15 0.014111657)
(262.11506 -1.659407e-17 -0.0022244968)
(261.59125 1.5319278e-15 -0.11532477)
(260.87685 1.1202359e-15 -0.27431506)
(260.48972 -3.7062084e-17 -0.412485)
(260.37318 1.1606143e-15 -0.43874043)
(260.4218 -1.6480062e-15 -0.34419777)
(260.58818 0 -0.16364721)
(261.03395 8.6573544e-16 -0.005515358)
(257.89127 -1.826018e-16 -8.2014206)
(303.18989 0 -8.6126257)
(332.5721 6.5949839e-18 -9.9370045)
(356.99716 -5.5847952e-18 -10.655147)
(376.12502 7.5107444e-17 -12.232994)
(385.13982 -1.2503869e-16 -11.701205)
(382.37548 5.3017044e-17 -13.437058)
(384.226 -2.208468e-17 -11.390094)
(381.86103 -3.6986431e-17 -14.253198)
(382.80416 6.1263624e-17 -11.582937)
(380.92835 0 -14.833002)
(380.91736 6.4098633e-17 -12.343291)
(379.22649 -1.7807081e-17 -15.339646)
(378.34023 5.9766657e-17 -13.609482)
(376.47534 9.9493517e-17 -16.045101)
(374.67842 1.0419685e-16 -15.312153)
(372.23549 -1.7224856e-17 -17.243534)
(369.37024 1.0081112e-16 -17.459098)
(365.87112 1.197573e-17 -19.154694)
(361.60424 0 -20.125277)
(356.51061 1.5251131e-16 -21.817343)
(350.3924 2.1008672e-16 -23.231201)
(343.25245 0 -24.829796)
(335.07513 0 -26.055438)
(326.15978 -2.6080187e-16 -26.818094)
(316.94841 0 -26.723893)
(308.02585 0 -25.689166)
(299.86734 5.6686843e-16 -23.727871)
(292.76987 4.4148883e-16 -21.071784)
(286.80926 1.1244539e-17 -18.004907)
(281.91142 1.7197702e-15 -14.831864)
(277.92332 -1.7828013e-15 -11.789714)
(274.67321 4.3085697e-17 -9.0568105)
(271.98877 -2.1281838e-15 -6.7216403)
(269.78995 -1.6074143e-15 -4.7728521)
(268.03415 -2.3564741e-15 -3.2396344)
(266.60394 0 -2.1027846)
(265.42818 -2.6086828e-15 -1.2848067)
(264.47008 -1.883673e-15 -0.70959852)
(263.70157 -1.418919e-15 -0.33178854)
(263.05784 1.9975037e-15 -0.11482895)
(262.52605 2.2909458e-17 -0.020390987)
(262.05655 0 -0.035556686)
(261.49507 0 -0.14539899)