/*--------------------------------*- C++ -*----------------------------------*\
  =========                 |
  \\      /  F ield         | OpenFOAM: The Open Source CFD Toolbox
   \\    /   O peration     | Website:  https://openfoam.org
    \\  /    A nd           | Version:  8
     \\/     M anipulation  |
\*---------------------------------------------------------------------------*/
FoamFile
{
    version     2.0;
    format      ascii;
    class       volVectorField;
    location    "0.259994";
    object      wallShearStress;
}
// * * * * * * * * * * * * * * * * * * * * * * * * * * * * * * * * * * * * * //

dimensions      [1 -1 -2 0 0 0 0];

internalField   uniform (0 0 0);

boundaryField
{
    aerofoil
    {
        type            calculated;
        value           nonuniform List<vector> 
300
(
(-155.59232 1.4534661e-22 -8.4967065)
(-158.25663 -1.6412438e-22 -8.015832)
(-159.31895 -2.7318902e-20 -7.4232951)
(-160.3554 7.1122152e-19 -6.8090315)
(-161.30791 -6.841169e-19 -6.1772228)
(-162.24125 1.4884996e-18 -5.5314099)
(-163.14378 -9.8908036e-17 -4.8853094)
(-164.03056 -4.9934124e-17 -4.1868009)
(-164.90216 -1.7152814e-34 -3.3863436)
(-165.77906 1.700235e-34 -2.6151758)
(-166.63108 -2.4013263e-19 -1.8081147)
(-167.47413 -1.3769578e-17 -0.9752434)
(-168.32212 -2.4376878e-17 -0.18418218)
(-169.15177 -3.4046095e-18 0.60005947)
(-169.97532 2.0647271e-21 1.4219083)
(-170.79138 -2.0016949e-19 2.2718884)
(-171.59019 1.2097479e-16 3.1467767)
(-172.3805 -3.8818804e-18 4.0482457)
(-173.15027 2.7395459e-19 4.9738637)
(-173.91139 4.0673642e-18 5.9262885)
(-174.65923 1.2770402e-16 6.9063552)
(-175.39055 -2.353757e-20 7.9154022)
(-176.11364 4.2378321e-18 8.9649472)
(-176.8055 1.3995575e-16 10.041217)
(-177.49256 -1.4715404e-16 11.154628)
(-178.14161 -4.5753315e-18 12.298255)
(-178.75844 3.0589313e-16 13.475402)
(-179.34155 6.0500456e-16 14.691708)
(-179.87811 -2.9877001e-16 15.944828)
(-180.39292 6.1897988e-16 17.24359)
(-180.88837 6.3094843e-16 18.590923)
(-181.38027 -3.1647609e-16 19.990964)
(-181.88157 -5.7777898e-34 21.447099)
(-182.40565 -1.0858468e-17 22.966537)
(-182.964 1.0751591e-17 24.559569)
(-183.55624 -1.0507445e-17 26.230751)
(-184.19495 1.1198193e-17 27.983088)
(-184.87408 -3.7821464e-16 29.824795)
(-185.57552 -1.531352e-18 31.767648)
(-186.29072 3.9398278e-16 33.821378)
(-186.9973 3.8631549e-16 35.989632)
(-187.67214 -7.9064779e-16 38.273526)
(-188.26152 -3.4815796e-18 40.678299)
(-188.78459 -4.1049212e-16 43.22691)
(-189.23116 -1.3052246e-17 45.940558)
(-189.65855 2.592538e-18 48.853987)
(-190.00069 4.553544e-16 51.93891)
(-190.27315 -3.8044014e-18 55.208773)
(-190.33111 -1.8069349e-17 58.634147)
(-190.0632 -1.440212e-17 62.202236)
(-189.42875 1.4483812e-17 65.960052)
(-188.29139 1.4886038e-17 69.886886)
(-186.51829 -7.6946941e-18 73.996292)
(-184.01875 5.0394705e-16 78.313534)
(-180.74577 -5.2253599e-16 82.869733)
(-176.63293 -4.9120865e-16 87.690454)
(-171.63748 -4.9686398e-16 92.859728)
(-165.85384 4.9412204e-16 98.487828)
(-159.36677 -2.9023501e-19 104.5728)
(-152.71555 1.536993e-17 110.99972)
(-146.9605 1.723966e-17 117.57926)
(-141.82434 5.5091598e-16 124.19798)
(-136.58939 -3.8197029e-19 130.55186)
(-130.36575 5.2155679e-18 136.22697)
(-122.54252 -6.0265157e-16 140.46055)
(-112.96845 7.0777925e-33 143.02861)
(-101.70354 -6.3645281e-16 143.47202)
(-88.421391 -3.0814879e-33 140.80484)
(-73.587754 8.859608e-18 134.52267)
(-57.843052 -5.8973911e-18 123.92433)
(-42.104802 -5.1593154e-18 108.65193)
(-27.478886 2.9439629e-18 89.056564)
(-15.535312 -1.009658e-18 66.419679)
(-7.9404051 1.63063e-16 42.334773)
(-3.5371033 -2.915489e-19 20.67626)
(-20.954798 0 -3.5145175)
(-23.311936 -1.1959306e-15 -4.7613286)
(-27.031518 1.2447847e-15 -5.5006831)
(-30.697228 -1.2881426e-15 -6.1884794)
(-33.896539 1.3203959e-15 -6.7695236)
(-36.868975 1.3475048e-15 -7.2958135)
(-39.587775 1.3691555e-15 -7.7637108)
(-42.111097 2.8718023e-26 -8.1862752)
(-44.452533 7.0137118e-16 -8.5663479)
(-46.635071 1.4155375e-15 -8.9108237)
(-48.678638 1.5092606e-19 -9.2231428)
(-50.593626 -7.1844825e-16 -9.5058463)
(-52.39024 7.22262e-16 -9.7623971)
(-54.079131 7.2537296e-16 -9.9954779)
(-55.667101 8.6118539e-21 -10.205597)
(-57.160403 7.3121602e-16 -10.39562)
(-58.572653 1.3186859e-19 -10.56793)
(-59.914334 1.3748803e-19 -10.723971)
(-61.195124 7.3675231e-16 -10.866693)
(-62.423982 7.3769168e-16 -10.996876)
(-63.600601 -7.3884299e-16 -11.11584)
(-64.728042 1.4113439e-25 -11.222922)
(-65.80974 -2.9362746e-25 -11.320301)
(-66.852113 -1.1550766e-19 -11.407273)
(-67.852611 1.7094772e-19 -11.485442)
(-68.814795 6.6535194e-21 -11.55376)
(-69.73891 7.0546753e-22 -11.614175)
(-70.631587 -7.083689e-22 -11.665575)
(-71.489964 7.4127235e-16 -11.709605)
(-72.319619 7.4102229e-16 -11.74558)
(-73.121538 -7.4086286e-16 -11.774293)
(-73.907678 1.7912885e-25 -11.799095)
(-74.683792 -1.7734776e-25 -11.817708)
(-75.439154 3.0105322e-19 -11.830041)
(-76.171298 -7.3834112e-16 -11.835685)
(-76.88236 7.3780383e-16 -11.835188)
(-77.574223 3.4310478e-21 -11.827961)
(-78.242929 -1.9100248e-25 -11.81366)
(-78.881607 6.9976322e-22 -11.790743)
(-79.486145 7.3429614e-16 -11.759842)
(-80.061485 1.1402774e-19 -11.720701)
(-80.613935 -1.1262144e-19 -11.674158)
(-81.150417 -1.5626292e-19 -11.620846)
(-81.673599 2.05585e-25 -11.561919)
(-82.17792 2.7342043e-19 -11.495118)
(-82.65218 -1.2268367e-19 -11.419714)
(-83.08004 -1.4888937e-19 -11.333018)
(-83.431659 7.2195264e-16 -11.231496)
(-83.676304 -1.3059042e-19 -11.112481)
(-83.798488 -1.4677298e-19 -10.975116)
(-83.806512 -7.1463785e-16 -10.81991)
(-83.752999 1.4235621e-15 -10.653134)
(-83.745493 -1.5232784e-19 -10.487093)
(-83.90441 -7.0557721e-16 -10.331987)
(-84.238516 -7.029484e-16 -10.18544)
(-84.515779 -7.0005054e-16 -10.020564)
(-84.182661 -5.3253011e-21 -9.791356)
(-82.702803 -6.9110458e-16 -9.4403518)
(-80.052134 1.0672679e-19 -8.9681164)
(-76.230542 -6.7296398e-16 -8.3980232)
(-71.248463 -9.8560295e-20 -7.7322231)
(-65.732572 -6.740829e-21 -7.022483)
(-60.503667 -3.1147598e-16 -6.3700717)
(-57.625075 -3.0311144e-16 -5.9095715)
(-60.603295 3.0041966e-16 -5.9427894)
(-71.821197 3.0381613e-16 -6.6438222)
(-90.182386 3.1023918e-16 -7.8666136)
(-110.43884 3.1379167e-16 -9.2130355)
(-127.61364 6.2840579e-16 -10.254417)
(-139.53637 3.1386949e-16 -10.788087)
(-146.76401 5.6423729e-37 -10.882059)
(-150.94418 3.1400905e-16 -10.662084)
(-153.46009 -3.1424169e-16 -10.266609)
(-155.19746 3.1468457e-16 -9.7712672)
(-154.77849 0 -9.0924499)
(-134.96251 2.1074965e-16 -8.3961351)
(-135.1055 -9.3171301e-23 -8.9185856)
(-136.65312 -3.9929482e-20 -9.5753541)
(-138.00792 0 -10.238919)
(-139.35843 8.6336096e-20 -10.921141)
(-140.65139 4.7525162e-16 -11.622255)
(-141.91039 -1.8362061e-18 -12.342182)
(-143.13355 -4.9313423e-16 -13.07873)
(-144.30162 -1.9853258e-18 -13.831939)
(-145.44655 5.1946029e-16 -14.608293)
(-146.58003 -5.30647e-16 -15.404461)
(-147.68269 1.0826861e-15 -16.219448)
(-148.75582 1.9242208e-18 -17.056379)
(-149.7863 1.3804968e-19 -17.910136)
(-150.79078 -1.3434999e-19 -18.786163)
(-151.76112 -5.9028867e-16 -19.685119)
(-152.684 -1.2003236e-15 -20.601116)
(-153.56276 -6.2463684e-16 -21.538034)
(-154.39216 2.117241e-21 -22.492811)
(-155.17783 5.1215836e-18 -23.468604)
(-155.91083 -6.5310647e-16 -24.465589)
(-156.58324 -3.7496023e-19 -25.481476)
(-157.19235 -1.3591496e-15 -26.518032)
(-157.72192 5.4212381e-18 -27.570815)
(-158.19395 -7.0626513e-16 -28.651907)
(-158.59318 7.1473429e-16 -29.753967)
(-158.94301 1.4687385e-15 -30.883055)
(-159.2654 1.1722029e-17 -32.046531)
(-159.56535 -1.1900488e-17 -33.244614)
(-159.86021 -1.2188567e-17 -34.487111)
(-160.13245 1.2366855e-17 -35.772259)
(-160.41102 -8.0894804e-16 -37.107331)
(-160.70329 4.2508223e-16 -38.496081)
(-160.98719 -1.3092611e-17 -39.941727)
(-161.2607 6.5933784e-21 -41.452792)
(-161.49459 -1.2120349e-18 -43.022768)
(-161.65424 1.2586448e-20 -44.641077)
(-161.71345 9.0620571e-16 -46.31279)
(-161.69521 4.4780768e-16 -48.055063)
(-161.59058 4.8425792e-16 -49.870229)
(-161.39764 -4.7877824e-16 -51.765617)
(-161.13605 -1.5361461e-17 -53.755483)
(-160.82814 -4.6352846e-16 -55.842482)
(-160.48493 4.9172574e-16 -58.023218)
(-159.9703 -5.1687051e-16 -60.270225)
(-159.27787 5.0970293e-16 -62.598341)
(-158.33296 2.0602475e-17 -64.988933)
(-157.10011 6.3460442e-19 -67.447935)
(-155.53434 4.9352221e-18 -69.980187)
(-153.59984 -1.1287392e-15 -72.619922)
(-151.27793 5.7440418e-16 -75.389883)
(-148.525 2.063461e-18 -78.237627)
(-145.30947 5.8801036e-16 -81.120167)
(-141.64534 6.0939334e-16 -84.099841)
(-137.55187 -3.2175473e-17 -87.136316)
(-133.13266 -5.8749872e-16 -90.188767)
(-128.61321 -1.9779191e-17 -93.195637)
(-124.17689 -1.3120894e-17 -96.09009)
(-119.50493 6.8389177e-16 -98.68033)
(-114.35189 3.0969573e-18 -100.82698)
(-108.45118 -6.8610531e-16 -102.37643)
(-101.71673 -1.0648148e-17 -103.10843)
(-94.126906 -7.0168152e-16 -102.85626)
(-85.532551 -1.058705e-19 -101.34998)
(-75.953392 -7.2893413e-16 -98.345519)
(-65.474058 6.1100396e-18 -93.436313)
(-54.359652 1.1119012e-17 -86.337194)
(-43.003928 -1.1357796e-17 -76.704009)
(-31.840713 3.6608915e-16 -64.365499)
(-20.902667 -3.3271119e-16 -49.375295)
(-11.334031 -1.0002185e-17 -32.272875)
(-5.4224652 2.844217e-16 -15.219222)
(-2.1293707 -1.1294424e-16 -4.6085738)
(-0.81063995 -6.1571362e-17 0.45161537)
(-1.65336 2.4152591e-19 7.6269493)
(-22.631012 4.449944e-20 3.4358793)
(-39.952603 -2.1153796e-20 3.12765)
(-43.160956 -7.0277442e-16 3.5188132)
(-47.320946 1.3771254e-21 3.7907204)
(-50.4265 -1.3848966e-21 3.9612233)
(-53.303594 1.100106e-19 4.1048833)
(-55.808324 -7.4354807e-16 4.2115346)
(-58.086771 1.0378338e-25 4.2947391)
(-60.148022 3.7688839e-16 4.3557711)
(-62.035034 -3.7894925e-16 4.4001979)
(-63.77284 -3.8046333e-16 4.4294574)
(-65.381804 -1.8592033e-19 4.4455322)
(-66.880503 1.6712018e-21 4.4512166)
(-68.287861 -3.8441601e-16 4.4481905)
(-69.613601 3.8485191e-16 4.4366765)
(-70.868009 -1.1467822e-25 4.4186526)
(-72.067052 2.5688485e-19 4.3946692)
(-73.217621 -7.7383448e-16 4.3648326)
(-74.322641 -2.8040886e-21 4.3305259)
(-75.387759 -2.5937804e-19 4.2913813)
(-76.413519 3.8836704e-16 4.2484042)
(-77.406697 5.1855506e-24 4.200736)
(-78.370258 3.8909e-16 4.1499603)
(-79.312179 -3.8938301e-16 4.0948504)
(-80.231887 -1.493896e-21 4.037001)
(-81.133956 3.8992011e-16 3.9750411)
(-82.01576 -2.7154872e-19 3.9106251)
(-82.883364 3.9034278e-16 3.8418745)
(-83.734419 -2.8255322e-21 3.7704266)
(-84.574397 -3.9038869e-16 3.6949433)
(-85.402184 3.9052683e-16 3.6159672)
(-86.228457 2.978031e-21 3.5351802)
(-87.060799 -2.9881872e-21 3.4498783)
(-87.889288 -3.908203e-16 3.3611147)
(-88.714862 2.8391066e-19 3.2687339)
(-89.538683 3.094552e-19 3.1730126)
(-90.363803 -2.9901906e-21 3.0730691)
(-91.189362 3.9136608e-16 2.9689512)
(-92.015501 3.9139912e-16 2.8597286)
(-92.840946 3.153591e-19 2.7464668)
(-93.669859 3.9158374e-16 2.6279476)
(-94.501616 -1.5145314e-19 2.5042095)
(-95.337179 -1.9588051e-16 2.3749482)
(-96.17871 -3.914149e-16 2.240806)
(-97.034408 3.2610225e-19 2.099992)
(-97.90682 1.955208e-16 1.9535245)
(-98.801178 -1.7287337e-19 1.8004401)
(-99.711985 1.954801e-16 1.6403007)
(-100.63781 -1.643646e-19 1.4727064)
(-101.58256 -1.8554773e-19 1.2983743)
(-102.55062 1.9565618e-16 1.1153616)
(-103.5353 2.9110203e-20 0.923171)
(-104.53339 -2.4846702e-20 0.72313935)
(-105.54872 1.6298492e-19 0.51319052)
(-106.58003 -9.7254206e-17 0.2918729)
(-107.62753 -9.7352796e-17 0.059779403)
(-108.69349 -1.9127702e-19 -0.18257462)
(-109.77701 3.1425796e-25 -0.43128107)
(-110.88028 2.0217838e-19 -0.69122357)
(-112.00415 -2.1868503e-19 -0.97648278)
(-113.15101 -4.8819237e-17 -1.2984498)
(-114.31494 1.214433e-17 -1.6228304)
(-115.49711 -6.0947148e-18 -1.9704554)
(-116.69421 2.4414328e-17 -2.3397966)
(-117.90956 -4.8558082e-17 -2.6997744)
(-119.13981 -1.1901683e-19 -3.0761464)
(-120.39234 -9.7344956e-17 -3.4765235)
(-121.67783 -1.6723535e-20 -3.9007426)
(-123.00232 -9.7427881e-17 -4.3485829)
(-124.3701 -3.8995326e-16 -4.8221973)
(-125.77538 -1.2037062e-35 -5.3232323)
(-127.20397 -1.9522212e-16 -5.8516014)
(-128.64788 2.2597269e-20 -6.4138076)
(-130.13798 1.956562e-16 -7.0171227)
(-133.10418 -5.9486857e-21 -7.738124)
)
;
    }
    inlet
    {
        type            calculated;
        value           uniform (0 0 0);
    }
    outlet
    {
        type            calculated;
        value           uniform (0 0 0);
    }
    back
    {
        type            empty;
    }
    front
    {
        type            empty;
    }
}


// ************************************************************************* //
