/*--------------------------------*- C++ -*----------------------------------*\
  =========                 |
  \\      /  F ield         | OpenFOAM: The Open Source CFD Toolbox
   \\    /   O peration     | Website:  https://openfoam.org
    \\  /    A nd           | Version:  8
     \\/     M anipulation  |
\*---------------------------------------------------------------------------*/
FoamFile
{
    version     2.0;
    format      ascii;
    class       volScalarField;
    location    "0.259994";
    object      yPlus;
}
// * * * * * * * * * * * * * * * * * * * * * * * * * * * * * * * * * * * * * //

dimensions      [0 0 0 0 0 0 0];

internalField   uniform 0;

boundaryField
{
    aerofoil
    {
        type            calculated;
        value           nonuniform List<scalar> 
300
(
124.38198
124.17721
123.78008
123.443
123.11033
122.81924
122.5486
122.31225
122.10224
121.93131
121.7814
121.65738
121.568
121.49947
121.45603
121.44056
121.44246
121.46903
121.51125
121.57601
121.6611
121.76096
121.88417
122.01202
122.16591
122.32697
122.49531
122.67634
122.85778
123.05386
123.2647
123.49865
123.7583
124.04681
124.37366
124.74188
125.15273
125.6026
126.08837
126.61303
127.16893
127.75303
128.34087
128.95222
129.56788
130.24214
130.94249
131.68794
132.42783
133.1221
133.77512
134.35723
134.83938
135.21369
135.50104
135.70865
135.85679
136.08516
136.44105
137.18854
138.69416
140.92701
143.67823
146.63615
149.34885
151.68472
153.56053
154.27355
153.42915
150.241
143.63515
132.60342
116.34187
93.713286
65.543348
51.71726
62.264638
66.897758
71.093839
74.48648
77.469537
80.059978
82.359005
84.409095
86.249549
87.915381
89.427467
90.803967
92.061586
93.212824
94.267268
95.239034
96.140282
96.979827
97.767648
98.504584
99.195698
99.842802
100.45385
101.02561
101.56398
102.0677
102.5444
102.99021
103.41156
103.80773
104.1861
104.55249
104.90011
105.22714
105.53481
105.82413
106.09412
106.34063
106.56077
106.75688
106.93353
107.09401
107.2411
107.37106
107.47774
107.55254
107.58043
107.54162
107.42745
107.23878
107.00066
106.76453
106.59856
106.51671
106.41495
106.02305
105.00473
103.27289
100.82908
97.520644
93.661533
89.744273
87.033116
88.11855
93.682072
101.96563
109.63749
115.36826
119.1418
121.37695
122.71516
123.51126
124.10055
124.39161
132.13183
131.59305
131.36048
131.06184
130.80774
130.56503
130.34204
130.1465
129.96113
129.80015
129.67038
129.56195
129.47895
129.40958
129.36182
129.33736
129.32575
129.33142
129.34629
129.37489
129.41378
129.45623
129.50574
129.54462
129.59378
129.6406
129.69249
129.764
129.85138
129.96879
130.10625
130.27576
130.47825
130.70227
130.95272
131.22218
131.49168
131.74697
132.00172
132.2558
132.50709
132.76802
133.04558
133.36181
133.64104
133.90463
134.11132
134.25952
134.34251
134.3518
134.30553
134.20581
134.03104
133.81963
133.59598
133.41065
133.35079
133.54162
133.80352
134.0558
134.14575
133.97331
133.49522
132.51941
130.86876
128.26143
124.38594
118.67798
110.38017
98.201547
80.610604
56.466073
31.837254
11.030175
39.730175
69.631766
80.536579
83.449036
87.124202
89.658982
91.942513
93.843058
95.521187
96.992895
98.30441
99.481757
100.54736
101.51744
102.4103
103.23583
104.00238
104.72212
105.40257
106.04505
106.65569
107.23418
107.78755
108.31569
108.82671
109.31805
109.79578
110.25587
110.7049
111.13903
111.56402
111.97789
112.38533
112.7944
113.19748
113.5957
113.98869
114.37877
114.76548
115.14987
115.52956
115.90838
116.2852
116.66127
117.03647
117.41654
117.80069
118.19397
118.59322
118.99733
119.40674
119.82548
120.25037
120.67837
121.11206
121.55037
121.99142
122.43737
122.88662
123.34209
123.80364
124.27498
124.74958
125.23125
125.71631
126.20713
126.70027
127.19926
127.71031
128.23666
128.78138
129.34502
129.91909
130.50243
131.09487
131.85832
)
;
    }
    inlet
    {
        type            calculated;
        value           uniform 0;
    }
    outlet
    {
        type            calculated;
        value           uniform 0;
    }
    back
    {
        type            empty;
    }
    front
    {
        type            empty;
    }
}


// ************************************************************************* //
