/*--------------------------------*- C++ -*----------------------------------*\
  =========                 |
  \\      /  F ield         | OpenFOAM: The Open Source CFD Toolbox
   \\    /   O peration     | Website:  https://openfoam.org
    \\  /    A nd           | Version:  8
     \\/     M anipulation  |
\*---------------------------------------------------------------------------*/
FoamFile
{
    version     2.0;
    format      ascii;
    class       volScalarField;
    location    "0.0099963";
    object      alphat;
}
// * * * * * * * * * * * * * * * * * * * * * * * * * * * * * * * * * * * * * //

dimensions      [1 -1 -1 0 0 0 0];

internalField   nonuniform List<scalar> 
20000
(
0.00099016199
0.002645471
0.0037059091
0.0042544606
0.0041627042
0.0031919518
0.0010532479
4.538639e-06
4.24421e-09
4.0733769e-09
3.9606372e-09
3.9858445e-09
3.94788e-09
3.990317e-09
4.0010627e-09
4.0460717e-09
4.0786997e-09
4.1331859e-09
4.1906304e-09
4.2711782e-09
4.3664048e-09
4.4870115e-09
4.6288969e-09
4.8000544e-09
4.9988691e-09
5.2281634e-09
5.4841302e-09
5.7631007e-09
6.0584422e-09
6.3614076e-09
6.6550677e-09
6.9387273e-09
7.2538892e-09
7.5125237e-09
7.6525217e-09
8.03647e-09
8.6373048e-09
8.9770523e-09
9.0565871e-09
8.8370399e-09
8.6871843e-09
8.6143871e-09
8.5857952e-09
8.5760292e-09
8.5730376e-09
8.5722056e-09
8.5719995e-09
8.5719562e-09
8.5719488e-09
8.571948e-09
0.00099443248
0.0026240258
0.0036616445
0.0041850909
0.0040572919
0.0030465495
0.00091593415
1.6631493e-06
4.1868707e-09
4.0811172e-09
3.9657254e-09
3.9928663e-09
3.9571805e-09
4.0010328e-09
4.012913e-09
4.0597964e-09
4.0944181e-09
4.1513501e-09
4.2115114e-09
4.2953222e-09
4.3945199e-09
4.5198606e-09
4.6673829e-09
4.8448782e-09
5.0508056e-09
5.2875714e-09
5.5507517e-09
5.8358093e-09
6.1354327e-09
6.4395531e-09
6.7312454e-09
7.0168189e-09
7.3257067e-09
7.5659921e-09
7.7109863e-09
8.1448982e-09
8.70495e-09
8.996883e-09
9.0582348e-09
8.8329126e-09
8.6860918e-09
8.6147453e-09
8.5862488e-09
8.57623e-09
8.5730895e-09
8.5722149e-09
8.5720005e-09
8.5719561e-09
8.5719488e-09
8.571948e-09
0.0010012104
0.0026134065
0.0036249975
0.0041158931
0.0039495889
0.0028814891
0.00077392932
5.709857e-07
4.1581061e-09
4.0911352e-09
3.9763994e-09
4.0033754e-09
3.9695935e-09
4.0145265e-09
4.0276666e-09
4.076363e-09
4.113085e-09
4.1725062e-09
4.2355768e-09
4.322874e-09
4.4263301e-09
4.5567639e-09
4.7103549e-09
4.894739e-09
5.108344e-09
5.3531346e-09
5.6241161e-09
5.9158059e-09
6.2201692e-09
6.5257949e-09
6.8164476e-09
7.1040218e-09
7.4064634e-09
7.6270696e-09
7.7826113e-09
8.2649231e-09
8.7882368e-09
9.0235186e-09
9.0594549e-09
8.8281332e-09
8.6857005e-09
8.615057e-09
8.5864876e-09
8.5763287e-09
8.5731206e-09
8.5722216e-09
8.5720018e-09
8.5719563e-09
8.5719488e-09
8.571948e-09
0.0010045584
0.0026006681
0.0035872539
0.0040444191
0.0038411682
0.0027108513
0.00065083352
2.0616243e-07
4.1437554e-09
4.1017031e-09
3.9887136e-09
4.0170984e-09
3.9839001e-09
4.0300676e-09
4.0445607e-09
4.0951505e-09
4.1340738e-09
4.1961259e-09
4.2622303e-09
4.3531641e-09
4.4610806e-09
4.5968414e-09
4.7567635e-09
4.9482936e-09
5.1698013e-09
5.4227634e-09
5.7014356e-09
5.9994011e-09
6.3077057e-09
6.6138802e-09
6.9030756e-09
7.1908883e-09
7.4841123e-09
7.6883019e-09
7.8584421e-09
8.3686288e-09
8.8529617e-09
9.0578153e-09
9.0590293e-09
8.8259533e-09
8.6847864e-09
8.6151596e-09
8.5865649e-09
8.5763645e-09
8.5731308e-09
8.5722238e-09
8.5720022e-09
8.5719564e-09
8.5719488e-09
8.571948e-09
0.0010074174
0.0025889839
0.0035511393
0.003977208
0.0037325484
0.0025328919
0.00053654282
8.0195973e-08
4.141285e-09
4.1153845e-09
4.0031359e-09
4.0327119e-09
4.0006678e-09
4.04802e-09
4.0639625e-09
4.1165077e-09
4.1577686e-09
4.2225651e-09
4.291931e-09
4.3867338e-09
4.4993961e-09
4.6408112e-09
4.8074395e-09
5.0065152e-09
5.2362973e-09
5.4977014e-09
5.784177e-09
6.0882856e-09
6.4001375e-09
6.706363e-09
6.9938766e-09
7.2807566e-09
7.5636657e-09
7.7535594e-09
7.9410419e-09
8.4667602e-09
8.916383e-09
9.1000233e-09
9.0567583e-09
8.8233225e-09
8.6836907e-09
8.6150164e-09
8.5866066e-09
8.5763823e-09
8.5731366e-09
8.5722254e-09
8.5720026e-09
8.5719565e-09
8.5719488e-09
8.5719479e-09
0.0010092984
0.0025764555
0.0035138692
0.0039084872
0.0036233258
0.0023478639
0.00043322571
3.5342752e-08
4.1463793e-09
4.1301106e-09
4.0196042e-09
4.050509e-09
4.0196394e-09
4.068192e-09
4.0857101e-09
4.1403199e-09
4.1840688e-09
4.2518001e-09
4.3246016e-09
4.4235003e-09
4.5411956e-09
4.6885903e-09
4.8622891e-09
5.0692753e-09
5.3076498e-09
5.577668e-09
5.8719018e-09
6.1818137e-09
6.496552e-09
6.8020921e-09
7.0873095e-09
7.3717423e-09
7.6431644e-09
7.8213415e-09
8.0280829e-09
8.5568589e-09
8.9748887e-09
9.142994e-09
9.0537079e-09
8.8206261e-09
8.6821775e-09
8.6145098e-09
8.586489e-09
8.576365e-09
8.5731341e-09
8.5722248e-09
8.5720023e-09
8.5719564e-09
8.5719488e-09
8.5719479e-09
0.001011233
0.002564092
0.0034760334
0.003838947
0.0035136197
0.002156356
0.00034017462
1.8215357e-08
4.1565613e-09
4.1473974e-09
4.0380507e-09
4.0703642e-09
4.0409043e-09
4.0907117e-09
4.1099445e-09
4.1667193e-09
4.2131191e-09
4.2839227e-09
4.3604386e-09
4.4637117e-09
4.5867732e-09
4.7405105e-09
4.9216807e-09
5.1369723e-09
5.3842751e-09
5.663081e-09
5.9649827e-09
6.2802962e-09
6.5972405e-09
6.9013594e-09
7.1836114e-09
7.4641814e-09
7.7233567e-09
7.8928156e-09
8.1198042e-09
8.6424485e-09
9.0305147e-09
9.1825163e-09
9.0507734e-09
8.8174922e-09
8.6802982e-09
8.6137335e-09
8.586215e-09
8.5762762e-09
8.5731075e-09
8.5722176e-09
8.5720006e-09
8.5719561e-09
8.5719488e-09
8.5719479e-09
0.0010127964
0.0025509316
0.00343677
0.003767731
0.0034032661
0.0019600509
0.00025651841
1.1074011e-08
4.1704714e-09
4.1663272e-09
4.0585099e-09
4.0924053e-09
4.0644469e-09
4.1156064e-09
4.1366845e-09
4.1957305e-09
4.2449458e-09
4.3190491e-09
4.3994929e-09
4.5074173e-09
4.6361795e-09
4.7966357e-09
4.9856929e-09
5.2096975e-09
5.466252e-09
5.7539742e-09
6.0633676e-09
6.3835734e-09
6.7019289e-09
7.0038018e-09
7.2822959e-09
7.5575738e-09
7.8039327e-09
7.9676654e-09
8.2152775e-09
8.7236412e-09
9.0823859e-09
9.2186441e-09
9.0475399e-09
8.8138246e-09
8.6780083e-09
8.6127033e-09
8.5858265e-09
8.5761468e-09
8.5730689e-09
8.5722075e-09
8.5719984e-09
8.5719557e-09
8.5719487e-09
8.5719479e-09
0.001014559
0.0025380463
0.0033969937
0.0036948406
0.0032914598
0.001761859
0.0001810426
7.828037e-09
4.1876999e-09
4.1874368e-09
4.0812957e-09
4.1166984e-09
4.090353e-09
4.1429405e-09
4.1659954e-09
4.2274253e-09
4.2796489e-09
4.35723e-09
4.4419308e-09
4.5548271e-09
4.68966e-09
4.8572414e-09
5.054625e-09
5.2877592e-09
5.5538656e-09
5.8505693e-09
6.1671792e-09
6.4916614e-09
6.8105367e-09
7.1092766e-09
7.3831839e-09
7.6517957e-09
7.8847816e-09
8.0451313e-09
8.3144041e-09
8.8016408e-09
9.1301396e-09
9.2512601e-09
9.043415e-09
8.8094727e-09
8.6753435e-09
8.6114815e-09
8.5853533e-09
8.5759872e-09
8.5730219e-09
8.5721956e-09
8.571996e-09
8.5719553e-09
8.5719487e-09
8.5719479e-09
0.0010161871
0.0025250538
0.0033563404
0.0036194033
0.0031771655
0.0015700004
0.00011421202
6.2465228e-09
4.2078437e-09
4.2105701e-09
4.1064543e-09
4.1432508e-09
4.1186306e-09
4.1727247e-09
4.1979096e-09
4.2618647e-09
4.3173066e-09
4.3986328e-09
4.4878317e-09
4.6060045e-09
4.7472832e-09
4.9224161e-09
5.128593e-09
5.3712883e-09
5.6472344e-09
5.9529228e-09
6.2763818e-09
6.6044115e-09
6.9228219e-09
7.2174902e-09
7.4859674e-09
7.7466225e-09
7.965683e-09
8.12428e-09
8.4163164e-09
8.8772797e-09
9.1732451e-09
9.2802578e-09
9.0380208e-09
8.8043965e-09
8.6723357e-09
8.610106e-09
8.5848245e-09
8.5758111e-09
8.5729711e-09
8.5721831e-09
8.5719934e-09
8.5719549e-09
8.5719487e-09
8.5719479e-09
0.0010182824
0.002512587
0.0033155191
0.0035411394
0.0030587173
0.0013845607
6.0301863e-05
5.4397303e-09
4.2304661e-09
4.235686e-09
4.1337201e-09
4.1720479e-09
4.1493133e-09
4.2050188e-09
4.232508e-09
4.299138e-09
4.3580321e-09
4.4433051e-09
4.5373564e-09
4.6611582e-09
4.8093029e-09
4.9924545e-09
5.2079107e-09
5.460597e-09
5.7466205e-09
6.0612e-09
6.3910107e-09
6.7217142e-09
7.0385636e-09
7.3281685e-09
7.5903779e-09
7.841881e-09
8.0464705e-09
8.2044424e-09
8.5199613e-09
8.9520374e-09
9.2129342e-09
9.3035583e-09
9.0311633e-09
8.7986175e-09
8.6690405e-09
8.6086219e-09
8.5842612e-09
8.5756265e-09
8.572919e-09
8.5721707e-09
8.571991e-09
8.5719546e-09
8.5719486e-09
8.5719479e-09
0.0010206517
0.0025004828
0.0032747528
0.0034605654
0.0029358354
0.0012076656
2.5588246e-05
5.0228351e-09
4.2554186e-09
4.2629314e-09
4.163324e-09
4.2031869e-09
4.1824408e-09
4.2398849e-09
4.2698441e-09
4.3393484e-09
4.4019055e-09
4.4914114e-09
4.5905642e-09
4.7203433e-09
4.8757951e-09
5.0674653e-09
5.2927126e-09
5.5558248e-09
5.852129e-09
6.17542e-09
6.5109708e-09
6.8433594e-09
7.1574632e-09
7.4409952e-09
7.6961027e-09
7.9374189e-09
8.1271162e-09
8.2850804e-09
8.6226247e-09
9.0277472e-09
9.250744e-09
9.3194282e-09
9.0228551e-09
8.7921978e-09
8.6655104e-09
8.6070618e-09
8.5836798e-09
8.5754396e-09
8.5728674e-09
8.5721586e-09
8.5719887e-09
8.5719543e-09
8.5719486e-09
8.5719479e-09
0.0010233
0.0024889961
0.0032347595
0.0033827556
0.0028074341
0.0010400783
8.9523586e-06
4.8106894e-09
4.2827063e-09
4.2922602e-09
4.1951618e-09
4.2366153e-09
4.2180941e-09
4.2773744e-09
4.3100538e-09
4.3825523e-09
4.4490282e-09
4.5429601e-09
4.6476206e-09
4.7838019e-09
4.9470633e-09
5.1477942e-09
5.3833559e-09
5.6573015e-09
5.9640037e-09
6.2956933e-09
6.6362042e-09
6.9691409e-09
7.2792064e-09
7.5556214e-09
7.8028128e-09
8.0330197e-09
8.2076146e-09
8.3657903e-09
8.7207635e-09
9.1041122e-09
9.2936597e-09
9.3277293e-09
9.0131443e-09
8.7852279e-09
8.6618024e-09
8.6054575e-09
8.5830935e-09
8.5752549e-09
8.5728174e-09
8.5721473e-09
8.5719867e-09
8.571954e-09
8.5719486e-09
8.5719479e-09
0.0010259576
0.0024774925
0.0031944865
0.003302047
0.0026698324
0.00088371149
2.7931331e-06
4.709406e-09
4.3120114e-09
4.3236891e-09
4.2293096e-09
4.2725123e-09
4.2563214e-09
4.3176351e-09
4.3531448e-09
4.4288394e-09
4.499404e-09
4.5980743e-09
4.7085871e-09
4.8516179e-09
5.0232201e-09
5.2335753e-09
5.4799911e-09
5.7651592e-09
6.0823156e-09
6.4219658e-09
6.766524e-09
7.0987523e-09
7.403414e-09
7.6716551e-09
7.9101379e-09
8.1284325e-09
8.2880294e-09
8.4464542e-09
8.8132218e-09
9.1788926e-09
9.3424249e-09
9.3296146e-09
9.0021975e-09
8.7777977e-09
8.6579641e-09
8.6038326e-09
8.5825114e-09
8.575075e-09
8.5727698e-09
8.5721367e-09
8.5719848e-09
8.5719537e-09
8.5719486e-09
8.5719479e-09
0.0010285614
0.0024660512
0.0031552787
0.0032183222
0.002522664
0.00074029689
8.4321456e-07
4.668764e-09
4.3437162e-09
4.3574414e-09
4.2659223e-09
4.3109303e-09
4.2972759e-09
4.3606344e-09
4.3991894e-09
4.4781477e-09
4.5531381e-09
4.6568813e-09
4.7737165e-09
4.9241194e-09
5.1046421e-09
5.3252157e-09
5.5830163e-09
5.8797355e-09
6.2072717e-09
6.5542675e-09
6.901778e-09
7.2318878e-09
7.5296955e-09
7.7886863e-09
8.0176936e-09
8.2234114e-09
8.3684295e-09
8.5272252e-09
8.9002232e-09
9.2490187e-09
9.3965801e-09
9.3284849e-09
8.9902449e-09
8.7700029e-09
8.6540452e-09
8.6022101e-09
8.5819415e-09
8.5749022e-09
8.572725e-09
8.572127e-09
8.5719831e-09
8.5719535e-09
8.5719486e-09
8.5719479e-09
0.0010313578
0.002453936
0.0031125714
0.0031322188
0.0023660414
0.00061297848
2.6412047e-07
4.6621633e-09
4.3778595e-09
4.3935369e-09
4.3050789e-09
4.3519196e-09
4.3408208e-09
4.406391e-09
4.4480788e-09
4.530649e-09
4.610328e-09
4.7195137e-09
4.8431388e-09
5.0014403e-09
5.1914714e-09
5.4228719e-09
5.692585e-09
6.0011395e-09
6.3388725e-09
6.6924571e-09
7.0416747e-09
7.3681548e-09
7.6576169e-09
7.9062818e-09
8.1250524e-09
8.3176571e-09
8.4488857e-09
8.6084741e-09
8.9830975e-09
9.3149739e-09
9.4492841e-09
9.324472e-09
8.9775341e-09
8.761924e-09
8.6500852e-09
8.6006064e-09
8.5813889e-09
8.5747377e-09
8.5726832e-09
8.5721182e-09
8.5719817e-09
8.5719534e-09
8.5719486e-09
8.5719479e-09
0.0010342269
0.0024415709
0.0030692047
0.0030449681
0.0022000645
0.0004986191
9.1267172e-08
4.675031e-09
4.4144522e-09
4.4319822e-09
4.3465959e-09
4.3952811e-09
4.3869651e-09
4.4547824e-09
4.4999862e-09
4.5863023e-09
4.6711416e-09
4.7862387e-09
4.9171954e-09
5.0839775e-09
5.2841501e-09
5.5270033e-09
5.8091306e-09
6.1296965e-09
6.4772645e-09
6.8364619e-09
7.1859437e-09
7.5071538e-09
7.786733e-09
8.0239914e-09
8.231767e-09
8.4108483e-09
8.5295933e-09
8.6909719e-09
9.0626582e-09
9.3748424e-09
9.4971203e-09
9.312663e-09
8.9642844e-09
8.753633e-09
8.6461276e-09
8.5990381e-09
8.580858e-09
8.5745824e-09
8.5726444e-09
8.5721102e-09
8.5719804e-09
8.5719533e-09
8.5719486e-09
8.571948e-09
0.0010372207
0.0024284745
0.0030244143
0.0029559865
0.0020252647
0.00039375114
3.6572689e-08
4.6991177e-09
4.4530551e-09
4.4723813e-09
4.390323e-09
4.4409853e-09
4.4355787e-09
4.5059917e-09
4.5549102e-09
4.6454883e-09
4.7358288e-09
4.8572495e-09
4.996045e-09
5.1718819e-09
5.3828375e-09
5.6377781e-09
5.9327958e-09
6.2654648e-09
6.6223548e-09
6.9860059e-09
7.3341764e-09
7.6484064e-09
7.9165718e-09
8.1413631e-09
8.3373613e-09
8.5026033e-09
8.6106211e-09
8.7754864e-09
9.139647e-09
9.4273343e-09
9.5381842e-09
9.2960353e-09
8.9503323e-09
8.7451843e-09
8.6422065e-09
8.5975157e-09
8.5803512e-09
8.5744365e-09
8.5726087e-09
8.572103e-09
8.5719793e-09
8.5719532e-09
8.5719486e-09
8.571948e-09
0.0010402279
0.0024141995
0.0029770062
0.002859514
0.0018433253
0.0002991556
1.7813819e-08
4.7299795e-09
4.4936585e-09
4.514877e-09
4.4362841e-09
4.4891003e-09
4.4869822e-09
4.560187e-09
4.6132926e-09
4.7082902e-09
4.8046249e-09
4.9328567e-09
5.0800692e-09
5.2656061e-09
5.4880358e-09
5.7557067e-09
6.0640266e-09
6.4087281e-09
6.7741908e-09
7.1408905e-09
7.4859876e-09
7.7914237e-09
8.046639e-09
8.2579318e-09
8.4413479e-09
8.5925144e-09
8.692043e-09
8.8631496e-09
9.2151649e-09
9.472473e-09
9.5695462e-09
9.2765471e-09
8.935507e-09
8.736668e-09
8.6383602e-09
8.5960501e-09
8.5798707e-09
8.5743004e-09
8.572576e-09
8.5720967e-09
8.5719784e-09
8.5719531e-09
8.5719486e-09
8.571948e-09
0.0010431489
0.0023983534
0.0029268728
0.0027592406
0.0016574738
0.00021348138
1.0649059e-08
4.7654952e-09
4.5364159e-09
4.5596043e-09
4.4847855e-09
4.5399975e-09
4.5413704e-09
4.6177834e-09
4.6752157e-09
4.7751201e-09
4.8777638e-09
5.0132369e-09
5.1694304e-09
5.3653211e-09
5.5999291e-09
5.8809659e-09
6.2029336e-09
6.5594572e-09
6.9325448e-09
7.3007155e-09
7.6408553e-09
7.9356551e-09
8.1764394e-09
8.3732606e-09
8.5432611e-09
8.6801379e-09
8.773579e-09
8.9544378e-09
9.2900856e-09
9.5137004e-09
9.5924385e-09
9.2546595e-09
8.9200012e-09
8.7281694e-09
8.634614e-09
8.5946468e-09
8.5794173e-09
8.5741738e-09
8.5725462e-09
8.5720911e-09
8.5719777e-09
8.5719531e-09
8.5719486e-09
8.571948e-09
0.0010458785
0.0023807786
0.0028714287
0.0026568384
0.0014703596
0.0001360384
7.6176732e-09
4.8043175e-09
4.5816938e-09
4.6070038e-09
4.5361548e-09
4.5939666e-09
4.5991639e-09
4.6788692e-09
4.7410355e-09
4.8459733e-09
4.9554502e-09
5.0987208e-09
5.2645705e-09
5.4715563e-09
5.7190946e-09
6.0141135e-09
6.3499522e-09
6.7178565e-09
7.097338e-09
7.4651448e-09
7.7982681e-09
8.0805331e-09
8.3054601e-09
8.4869027e-09
8.6426421e-09
8.764974e-09
8.8547736e-09
9.0492021e-09
9.3649679e-09
9.5535493e-09
9.603982e-09
9.2307276e-09
8.9040509e-09
8.7197796e-09
8.630995e-09
8.5933117e-09
8.5789916e-09
8.5740567e-09
8.5725191e-09
8.5720861e-09
8.5719771e-09
8.5719531e-09
8.5719486e-09
8.571948e-09
0.0010485087
0.0023627
0.0028132239
0.0025506246
0.0012849246
7.1009622e-05
6.2420037e-09
4.845994e-09
4.6298519e-09
4.6573783e-09
4.5907461e-09
4.6512686e-09
4.6603811e-09
4.7435846e-09
4.810715e-09
4.921189e-09
5.0378925e-09
5.1895118e-09
5.3656919e-09
5.5845262e-09
5.8457458e-09
6.1553182e-09
6.5051348e-09
6.8837727e-09
7.2681906e-09
7.6336143e-09
7.9575877e-09
8.2254586e-09
8.4332285e-09
8.5984828e-09
8.7391454e-09
8.8467211e-09
8.9348731e-09
9.1446635e-09
9.4391255e-09
9.5938845e-09
9.6063288e-09
9.2051631e-09
8.8878742e-09
8.7115639e-09
8.6275172e-09
8.5920466e-09
8.5785933e-09
8.5739486e-09
8.5724946e-09
8.5720818e-09
8.5719767e-09
8.5719531e-09
8.5719486e-09
8.571948e-09
0.0010512854
0.0023449114
0.0027570092
0.002438059
0.0011043301
2.7845898e-05
5.6036764e-09
4.8907849e-09
4.6812088e-09
4.7109837e-09
4.6485087e-09
4.7118733e-09
4.7251021e-09
4.8119821e-09
4.8844957e-09
5.0007985e-09
5.1253835e-09
5.2860395e-09
5.4733413e-09
5.7048557e-09
5.9805303e-09
6.3051578e-09
6.6688568e-09
7.0572827e-09
7.4448476e-09
7.8056152e-09
8.1181827e-09
8.3698351e-09
8.5592515e-09
8.7076154e-09
8.8324531e-09
8.9251179e-09
9.0130146e-09
9.2364929e-09
9.5106369e-09
9.639862e-09
9.604491e-09
9.1784731e-09
8.8717021e-09
8.7035893e-09
8.6241967e-09
8.590854e-09
8.5782221e-09
8.5738492e-09
8.5724725e-09
8.5720781e-09
8.5719764e-09
8.5719532e-09
8.5719487e-09
8.571948e-09
0.0010537136
0.00232538
0.0026968584
0.0023171675
0.00093251464
8.3070753e-06
5.3188064e-09
4.9398667e-09
4.7355001e-09
4.7675277e-09
4.7094416e-09
4.7757092e-09
4.7933347e-09
4.8842363e-09
4.9625091e-09
5.0852276e-09
5.2182206e-09
5.3885755e-09
5.5877785e-09
5.8328025e-09
6.1236779e-09
6.4637623e-09
6.8410576e-09
7.2380602e-09
7.6267312e-09
7.9804003e-09
8.2792999e-09
8.513083e-09
8.6831006e-09
8.8140027e-09
8.9224008e-09
9.0001931e-09
9.0887491e-09
9.3228334e-09
9.57732e-09
9.6912257e-09
9.5977322e-09
9.1512474e-09
8.8557368e-09
8.6958927e-09
8.621038e-09
8.589733e-09
8.5778769e-09
8.573758e-09
8.5724526e-09
8.572075e-09
8.5719762e-09
8.5719533e-09
8.5719487e-09
8.571948e-09
0.0010564723
0.002305471
0.0026343779
0.0021889636
0.00077216531
2.0988514e-06
5.2077246e-09
4.992077e-09
4.7924705e-09
4.8269008e-09
4.7733624e-09
4.8428739e-09
4.8652601e-09
4.9605387e-09
5.0450592e-09
5.1746341e-09
5.3168046e-09
5.4976629e-09
5.7096538e-09
5.9690819e-09
6.2758857e-09
6.6316878e-09
7.021996e-09
7.4259876e-09
7.8133459e-09
8.1572478e-09
8.4402268e-09
8.6546306e-09
8.8043376e-09
8.9173381e-09
9.0088715e-09
9.0720883e-09
9.162038e-09
9.4035608e-09
9.6385636e-09
9.7417818e-09
9.5793272e-09
9.1242086e-09
8.8401601e-09
8.6885087e-09
8.6180486e-09
8.588684e-09
8.5775571e-09
8.5736746e-09
8.5724349e-09
8.5720724e-09
8.5719762e-09
8.5719534e-09
8.5719488e-09
8.571948e-09
0.001058818
0.0022848876
0.0025688685
0.0020548232
0.00062700725
5.2156931e-07
5.181618e-09
5.0466613e-09
4.8521091e-09
4.8892369e-09
4.8406083e-09
4.9135938e-09
4.9411114e-09
5.0411299e-09
5.132451e-09
5.26955e-09
5.4215022e-09
5.6136328e-09
5.8392816e-09
6.1139888e-09
6.4373801e-09
6.8089824e-09
7.2114471e-09
7.6205029e-09
8.003841e-09
8.3352065e-09
8.6002246e-09
8.793904e-09
8.922609e-09
9.0173932e-09
9.0919053e-09
9.141366e-09
9.2336757e-09
9.4795944e-09
9.6946825e-09
9.784512e-09
9.5517146e-09
9.0978624e-09
8.8250463e-09
8.6814465e-09
8.6152278e-09
8.5877045e-09
8.577261e-09
8.5735983e-09
8.572419e-09
8.5720702e-09
8.5719762e-09
8.5719536e-09
8.5719488e-09
8.571948e-09
0.0010618825
0.0022652372
0.0025031045
0.0019105525
0.0004991761
1.4802643e-07
5.198367e-09
5.1040793e-09
4.9148551e-09
4.95498e-09
4.9113668e-09
4.9882139e-09
5.0212542e-09
5.1264061e-09
5.2250492e-09
5.3701893e-09
5.5328121e-09
5.7371349e-09
5.9774168e-09
6.2683187e-09
6.6088766e-09
6.9961214e-09
7.4094784e-09
7.821205e-09
8.1974819e-09
8.5135374e-09
8.7587518e-09
8.930237e-09
9.0375169e-09
9.1139366e-09
9.1715567e-09
9.2087977e-09
9.3050796e-09
9.5516001e-09
9.7435218e-09
9.8148578e-09
9.516441e-09
9.072284e-09
8.8104155e-09
8.6747243e-09
8.6125788e-09
8.5867936e-09
8.5769878e-09
8.5735289e-09
8.572405e-09
8.5720685e-09
8.5719764e-09
8.5719538e-09
8.5719489e-09
8.5719481e-09
0.0010648367
0.0022453319
0.0024455481
0.001756451
0.00038923451
5.3400168e-08
5.2369063e-09
5.164526e-09
4.9809505e-09
5.0243294e-09
4.9860824e-09
5.0669939e-09
5.1059554e-09
5.216662e-09
5.3232127e-09
5.4771613e-09
5.651159e-09
5.8685568e-09
6.1244237e-09
6.4323888e-09
6.790556e-09
7.1930057e-09
7.6156061e-09
8.0272224e-09
8.3932323e-09
8.6915097e-09
8.9153101e-09
9.0629031e-09
9.1486645e-09
9.2067738e-09
9.2478981e-09
9.2752274e-09
9.3779278e-09
9.6200934e-09
9.7845863e-09
9.8358019e-09
9.477928e-09
9.0467108e-09
8.7962699e-09
8.6683489e-09
8.610098e-09
8.5859478e-09
8.5767358e-09
8.5734657e-09
8.5723926e-09
8.5720672e-09
8.5719767e-09
8.571954e-09
8.571949e-09
8.5719481e-09
0.0010681082
0.0022233605
0.0023780549
0.0015919098
0.00029022778
2.3895391e-08
5.2877136e-09
5.2282728e-09
5.0506887e-09
5.0976209e-09
5.0648906e-09
5.1502387e-09
5.1955547e-09
5.3122538e-09
5.4273359e-09
5.5907456e-09
5.7771545e-09
6.0086652e-09
6.2811625e-09
6.607055e-09
6.983099e-09
7.399925e-09
7.8295871e-09
8.2378566e-09
8.5903607e-09
8.8688339e-09
9.0692216e-09
9.191292e-09
9.255544e-09
9.2956855e-09
9.32099e-09
9.341384e-09
9.4535271e-09
9.6854724e-09
9.8206174e-09
9.8423542e-09
9.4372216e-09
9.021178e-09
8.7826793e-09
8.6623377e-09
8.6077845e-09
8.5851648e-09
8.5765038e-09
8.5734083e-09
8.5723817e-09
8.5720662e-09
8.571977e-09
8.5719542e-09
8.571949e-09
8.5719481e-09
0.001071025
0.0021999841
0.0023107553
0.0014212925
0.00020175598
1.3539925e-08
5.3467489e-09
5.2957046e-09
5.1242368e-09
5.1749886e-09
5.148124e-09
5.2381742e-09
5.2902934e-09
5.413509e-09
5.5378226e-09
5.7115525e-09
5.9112674e-09
6.1579034e-09
6.4480454e-09
6.7926375e-09
7.1865638e-09
7.6165312e-09
8.0505704e-09
8.4519905e-09
8.788032e-09
9.0450881e-09
9.2192637e-09
9.3150791e-09
9.3576786e-09
9.3803707e-09
9.3909104e-09
9.4074948e-09
9.531214e-09
9.7476682e-09
9.8569992e-09
9.8424711e-09
9.3950625e-09
8.9959059e-09
8.7697006e-09
8.6566903e-09
8.6056309e-09
8.5844405e-09
8.5762905e-09
8.5733562e-09
8.5723722e-09
8.5720656e-09
8.5719775e-09
8.5719545e-09
8.5719491e-09
8.5719481e-09
0.0010747325
0.0021754673
0.0022398067
0.0012498895
0.00012317307
9.4273027e-09
5.4117247e-09
5.3667147e-09
5.2017712e-09
5.2566319e-09
5.2359394e-09
5.3310322e-09
5.390621e-09
5.5208324e-09
5.6552398e-09
5.8401395e-09
6.0542588e-09
6.3171725e-09
6.6260422e-09
6.9900012e-09
7.4014903e-09
7.8427687e-09
8.277944e-09
8.6688454e-09
8.9859406e-09
9.2190898e-09
9.3645376e-09
9.4336282e-09
9.4549556e-09
9.460444e-09
9.4578942e-09
9.4734135e-09
9.6080677e-09
9.8067932e-09
9.899395e-09
9.8390868e-09
9.3522327e-09
8.9712029e-09
8.7574036e-09
8.6514106e-09
8.6036325e-09
8.5837721e-09
8.5760948e-09
8.5733091e-09
8.5723639e-09
8.5720654e-09
8.5719781e-09
8.5719548e-09
8.5719492e-09
8.5719482e-09
0.0010781642
0.0021468612
0.0021644777
0.0010876388
6.059242e-05
7.6511426e-09
5.4815023e-09
5.4416987e-09
5.2834651e-09
5.3428066e-09
5.3286152e-09
5.4293226e-09
5.496845e-09
5.634926e-09
5.7801547e-09
5.9771472e-09
6.2066755e-09
6.4870035e-09
6.815614e-09
7.1994056e-09
7.6276948e-09
8.0779055e-09
8.5105536e-09
8.8874572e-09
9.1835799e-09
9.3890698e-09
9.5037421e-09
9.5464731e-09
9.5473436e-09
9.5355899e-09
9.5222728e-09
9.5386798e-09
9.6826953e-09
9.8640799e-09
9.9446208e-09
9.8266858e-09
9.3096817e-09
8.9473612e-09
8.7458144e-09
8.6464851e-09
8.6017795e-09
8.5831556e-09
8.5759153e-09
8.5732664e-09
8.5723569e-09
8.5720655e-09
8.5719787e-09
8.5719551e-09
8.5719493e-09
8.5719482e-09
0.0010811256
0.0021125547
0.0020827136
0.00093336115
2.2358564e-05
6.8543779e-09
5.5555976e-09
5.5206397e-09
5.3695722e-09
5.4338427e-09
5.4267154e-09
5.5333774e-09
5.6097844e-09
5.7559025e-09
5.9130695e-09
6.1232883e-09
6.3694315e-09
6.6684541e-09
7.0178114e-09
7.4216275e-09
7.8653886e-09
8.3214514e-09
8.7476193e-09
9.1074045e-09
9.3796883e-09
9.5533859e-09
9.6357501e-09
9.6540912e-09
9.6346539e-09
9.6057774e-09
9.5841029e-09
9.6029691e-09
9.7544052e-09
9.9178138e-09
9.986852e-09
9.8030789e-09
9.2685551e-09
8.9246696e-09
8.7349532e-09
8.6419041e-09
8.6000653e-09
8.5825879e-09
8.5757509e-09
8.5732278e-09
8.5723509e-09
8.5720658e-09
8.5719795e-09
8.5719555e-09
8.5719495e-09
8.5719482e-09
0.0010835127
0.0020726188
0.0019923849
0.00078850968
6.4418633e-06
6.5095373e-09
5.6338427e-09
5.6039826e-09
5.4604441e-09
5.5302863e-09
5.5306303e-09
5.6438225e-09
5.729519e-09
5.8848077e-09
6.0546757e-09
6.2792047e-09
6.5432016e-09
6.862154e-09
7.2330924e-09
7.6567187e-09
8.1139932e-09
8.5722784e-09
8.9880031e-09
9.3280952e-09
9.5719428e-09
9.710375e-09
9.7609549e-09
9.7568143e-09
9.7157485e-09
9.6715829e-09
9.6433975e-09
9.6662993e-09
9.8228141e-09
9.9657984e-09
1.0018535e-08
9.7687892e-09
9.229799e-09
8.9032641e-09
8.7247913e-09
8.6376455e-09
8.5984801e-09
8.5820653e-09
8.5756003e-09
8.573193e-09
8.572346e-09
8.5720665e-09
8.5719803e-09
8.5719559e-09
8.5719496e-09
8.5719483e-09
0.0010851078
0.0020261892
0.0018839731
0.00065440853
1.637578e-06
6.3845938e-09
5.7172966e-09
5.692523e-09
5.556897e-09
5.6325979e-09
5.6409347e-09
5.7608997e-09
5.8569517e-09
6.0218997e-09
6.2056415e-09
6.4458434e-09
6.72912e-09
7.0693057e-09
7.4624777e-09
7.9051654e-09
8.3732331e-09
8.8296097e-09
9.2311105e-09
9.5484631e-09
9.7580586e-09
9.8587988e-09
9.8811538e-09
9.8533428e-09
9.7907044e-09
9.7332575e-09
9.7003917e-09
9.729123e-09
9.8875824e-09
1.0006732e-08
1.0040519e-08
9.7240068e-09
9.1940672e-09
8.8831598e-09
8.7152989e-09
8.633695e-09
8.5970174e-09
8.5815848e-09
8.5754627e-09
8.5731617e-09
8.5723421e-09
8.5720674e-09
8.5719813e-09
8.5719563e-09
8.5719498e-09
8.5719483e-09
0.0010863702
0.0019752712
0.0017589329
0.00053341138
4.2387356e-07
6.3695714e-09
5.8059291e-09
5.7864162e-09
5.6591499e-09
5.7410007e-09
5.7578201e-09
5.885136e-09
5.9922573e-09
6.1681263e-09
6.3668906e-09
6.6240977e-09
6.9280105e-09
7.2905874e-09
7.7062779e-09
8.1666347e-09
8.6420779e-09
9.0922375e-09
9.4761947e-09
9.7657722e-09
9.9361572e-09
9.999537e-09
9.9957889e-09
9.9433588e-09
9.8593285e-09
9.7912322e-09
9.7554806e-09
9.7922073e-09
9.947922e-09
1.0041604e-08
1.0047927e-08
9.6731192e-09
9.1603886e-09
8.8641971e-09
8.7064285e-09
8.6300328e-09
8.5956681e-09
8.5811428e-09
8.575337e-09
8.5731336e-09
8.572339e-09
8.5720685e-09
8.5719823e-09
8.5719568e-09
8.5719499e-09
8.5719484e-09
0.0010873463
0.0019208924
0.0016198496
0.00042468906
1.2878539e-07
6.4105201e-09
5.9000641e-09
5.8857909e-09
5.7673067e-09
5.8557626e-09
5.8816335e-09
6.0169986e-09
6.136306e-09
6.3241196e-09
6.5394179e-09
6.8151742e-09
7.1411992e-09
7.527239e-09
7.9652791e-09
8.4411208e-09
8.9198341e-09
9.3594419e-09
9.7225952e-09
9.977004e-09
1.0104625e-08
1.0134407e-08
1.0103895e-08
1.002666e-08
9.9217732e-09
9.8458563e-09
9.809046e-09
9.8559556e-09
1.0002301e-08
1.0075012e-08
1.0047667e-08
9.6193833e-09
9.1276857e-09
8.8462835e-09
8.6981603e-09
8.6266471e-09
8.594426e-09
8.5807372e-09
8.5752223e-09
8.5731087e-09
8.5723367e-09
8.57207e-09
8.5719834e-09
8.5719573e-09
8.5719501e-09
8.5719485e-09
0.0010880584
0.0018625633
0.0014778086
0.00033011342
5.063778e-08
6.4797406e-09
5.9992228e-09
5.990574e-09
5.8814722e-09
5.9771041e-09
6.0130644e-09
6.1573239e-09
6.2899696e-09
6.4912811e-09
6.724364e-09
7.0201055e-09
7.3695878e-09
7.7798379e-09
8.2394392e-09
8.7277484e-09
9.2052612e-09
9.6301612e-09
9.967351e-09
1.0179955e-08
1.0264031e-08
1.0263109e-08
1.0204907e-08
1.010291e-08
9.9784391e-09
9.8975443e-09
9.8613462e-09
9.9184589e-09
1.0051512e-08
1.0111834e-08
1.00439e-08
9.5642753e-09
9.0957836e-09
8.8293836e-09
8.6904691e-09
8.6235206e-09
8.5932828e-09
8.5803649e-09
8.5751178e-09
8.5730865e-09
8.5723352e-09
8.5720716e-09
8.5719846e-09
8.5719578e-09
8.5719503e-09
8.5719486e-09
0.0010891904
0.001796627
0.0013363157
0.00024384258
2.4576245e-08
6.5646601e-09
6.1036795e-09
6.1013073e-09
6.0023557e-09
6.1060582e-09
6.1530808e-09
6.3073252e-09
6.4545358e-09
6.6704226e-09
6.922917e-09
7.2402872e-09
7.6145853e-09
8.0494788e-09
8.529029e-09
9.0259693e-09
9.4974635e-09
9.9037474e-09
1.0207131e-08
1.037244e-08
1.0416263e-08
1.0384488e-08
1.0298637e-08
1.0171752e-08
1.0030082e-08
9.9466315e-09
9.9124878e-09
9.9788109e-09
1.0098119e-08
1.0149319e-08
1.00308e-08
9.5088679e-09
9.0648718e-09
8.8135285e-09
8.6833452e-09
8.6206413e-09
8.5922324e-09
8.5800237e-09
8.575023e-09
8.5730669e-09
8.5723344e-09
8.5720736e-09
8.5719859e-09
8.5719584e-09
8.5719506e-09
8.5719487e-09
0.0010916464
0.0017348712
0.0011919706
0.00016508559
1.4882623e-08
6.6600147e-09
6.2139447e-09
6.2190358e-09
6.1312358e-09
6.243751e-09
6.3030051e-09
6.4680282e-09
6.6309999e-09
6.8630827e-09
7.1363289e-09
7.476842e-09
7.8770716e-09
8.3364245e-09
8.8334649e-09
9.3344868e-09
9.7951277e-09
1.017794e-08
1.04387e-08
1.0554193e-08
1.0561644e-08
1.0497795e-08
1.0384677e-08
1.0232695e-08
1.0077747e-08
9.9935024e-09
9.9625711e-09
1.0037007e-08
1.0143009e-08
1.0182609e-08
1.000896e-08
9.4542321e-09
9.0352157e-09
8.7987291e-09
8.6767627e-09
8.6179914e-09
8.5912673e-09
8.5797111e-09
8.5749372e-09
8.57305e-09
8.5723342e-09
8.5720757e-09
8.5719873e-09
8.5719591e-09
8.5719508e-09
8.5719488e-09
0.0010955672
0.0016718005
0.0010470339
9.5449369e-05
1.0830203e-08
6.7628e-09
6.3313839e-09
6.3451211e-09
6.2693956e-09
6.3915518e-09
6.4638433e-09
6.6406284e-09
6.8205913e-09
7.0701548e-09
7.3660098e-09
7.7313548e-09
8.1584164e-09
8.6413283e-09
9.1523971e-09
9.6524623e-09
1.0097365e-08
1.0449022e-08
1.0659417e-08
1.0727095e-08
1.0698715e-08
1.0602994e-08
1.0462864e-08
1.028634e-08
1.0121699e-08
1.0038487e-08
1.0011752e-08
1.0093455e-08
1.0186028e-08
1.0212983e-08
9.9785847e-09
9.4015261e-09
9.0071425e-09
8.7850102e-09
8.6707015e-09
8.6155564e-09
8.5903813e-09
8.5794251e-09
8.5748597e-09
8.5730354e-09
8.5723349e-09
8.5720781e-09
8.5719888e-09
8.5719598e-09
8.5719511e-09
8.5719489e-09
0.0011005062
0.0016033931
0.00090462818
4.3074182e-05
9.0317773e-09
6.8739164e-09
6.4580573e-09
6.4810886e-09
6.4179336e-09
6.5500571e-09
6.6365264e-09
6.8260131e-09
7.0244297e-09
7.2934148e-09
7.6133895e-09
8.0050304e-09
8.4592675e-09
8.9639081e-09
9.4846568e-09
9.9784357e-09
1.0402776e-08
1.071264e-08
1.086763e-08
1.0892524e-08
1.0826357e-08
1.0699909e-08
1.0532991e-08
1.033313e-08
1.0162526e-08
1.0081991e-08
1.0060301e-08
1.0148268e-08
1.0225805e-08
1.0239062e-08
9.9398389e-09
9.3518974e-09
8.9809057e-09
8.772346e-09
8.6651241e-09
8.6133178e-09
8.5895678e-09
8.5791636e-09
8.5747899e-09
8.573023e-09
8.5723363e-09
8.5720808e-09
8.5719905e-09
8.5719605e-09
8.5719514e-09
8.5719491e-09
0.0011078142
0.0015301923
0.00076818041
1.459276e-05
8.2383934e-09
6.9930074e-09
6.5938804e-09
6.6271283e-09
6.5772022e-09
6.7200403e-09
6.8219606e-09
7.0256226e-09
7.24405e-09
7.5341038e-09
7.8801927e-09
8.2995116e-09
8.7806396e-09
9.3040953e-09
9.829374e-09
1.0311191e-08
1.0707498e-08
1.0965702e-08
1.1064937e-08
1.1048619e-08
1.0944638e-08
1.0788648e-08
1.0595182e-08