/*--------------------------------*- C++ -*----------------------------------*\
  =========                 |
  \\      /  F ield         | OpenFOAM: The Open Source CFD Toolbox
   \\    /   O peration     | Website:  https://openfoam.org
    \\  /    A nd           | Version:  8
     \\/     M anipulation  |
\*---------------------------------------------------------------------------*/
FoamFile
{
    version     2.0;
    format      ascii;
    class       volVectorField;
    location    "0.0099963";
    object      cellDisplacement;
}
// * * * * * * * * * * * * * * * * * * * * * * * * * * * * * * * * * * * * * //

dimensions      [0 1 0 0 0 0 0];

internalField   nonuniform List<vector> 
20000
(
(-0.0010905938 0 -0.00081638416)
(-0.0010905828 0 -0.00081640706)
(-0.0010905586 0 -0.0008165586)
(-0.0010905138 0 -0.00081675656)
(-0.0010904399 0 -0.00081701327)
(-0.0010903245 0 -0.00081734722)
(-0.001090151 0 -0.00081778273)
(-0.0010898963 0 -0.00081835564)
(-0.0010895295 0 -0.00081911385)
(-0.0010890081 0 -0.00082012818)
(-0.0010882757 0 -0.0008214943)
(-0.0010872566 0 -0.00082335058)
(-0.0010858511 0 -0.00082588623)
(-0.001083928 0 -0.00082936868)
(-0.0010813167 0 -0.00083416606)
(-0.0010777994 0 -0.00084079201)
(-0.0010730992 0 -0.00084993382)
(-0.0010668726 0 -0.0008625954)
(-0.0010587025 0 -0.0008800439)
(-0.0010481006 0 -0.0009040059)
(-0.0010345157 0 -0.00093670948)
(-0.0010173568 0 -0.00098097826)
(-0.00099603665 0 -0.001040241)
(-0.00097003528 0 -0.0011184414)
(-0.00093898603 0 -0.0012197491)
(-0.00090276142 0 -0.0013480536)
(-0.00086150663 0 -0.0015063)
(-0.00081577863 0 -0.0016951145)
(-0.00076637768 0 -0.0019127709)
(-0.00071453405 0 -0.0021531671)
(-0.00066157825 0 -0.0024075381)
(-0.00060883614 0 -0.0026647582)
(-0.00055758244 0 -0.0029130366)
(-0.00050880391 0 -0.003140944)
(-0.00046311451 0 -0.0033407397)
(-0.00042120108 0 -0.0035048372)
(-0.0003831144 0 -0.0036310361)
(-0.00034904719 0 -0.0037177469)
(-0.0003187622 0 -0.0037669047)
(-0.00029220228 0 -0.0037787281)
(-0.00026872171 0 -0.0037527623)
(-0.00024813522 0 -0.0036889704)
(-0.00022684658 0 -0.0035716694)
(-0.00020837939 0 -0.0034204923)
(-0.00018836403 0 -0.0031920532)
(-0.00017036139 0 -0.0029337509)
(-0.00015023082 0 -0.0026071955)
(-0.00012126111 0 -0.0021028388)
(-8.784754e-05 0 -0.0014912602)
(-4.0774148e-05 0 -0.00066547709)
(-0.0010886726 0 -0.00066510434)
(-0.0010886616 0 -0.00066511982)
(-0.0010886358 0 -0.00066514516)
(-0.001088589 0 -0.00066518923)
(-0.0010885123 0 -0.00066526264)
(-0.0010883931 0 -0.00066538067)
(-0.0010882145 0 -0.00066556476)
(-0.0010879529 0 -0.00066584607)
(-0.0010875768 0 -0.00066626789)
(-0.001087043 0 -0.00066689324)
(-0.0010862942 0 -0.00066781047)
(-0.0010852534 0 -0.00066914727)
(-0.0010838197 0 -0.00067108328)
(-0.0010818604 0 -0.00067387352)
(-0.0010792027 0 -0.00067787651)
(-0.0010756271 0 -0.00068359244)
(-0.0010708534 0 -0.00069172209)
(-0.0010645365 0 -0.00070323287)
(-0.0010562578 0 -0.00071943998)
(-0.0010455291 0 -0.00074208207)
(-0.0010318016 0 -0.00077343404)
(-0.0010144907 0 -0.00081639163)
(-0.00099302192 0 -0.00087448546)
(-0.00096689509 0 -0.00095179032)
(-0.00093577107 0 -0.0010526276)
(-0.00089954877 0 -0.0011810701)
(-0.000858414 0 -0.0013402016)
(-0.00081291944 0 -0.0015309664)
(-0.00076387951 0 -0.0017517157)
(-0.00071248765 0 -0.001996517)
(-0.00066002774 0 -0.0022567441)
(-0.00060777311 0 -0.0025213006)
(-0.0005569442 0 -0.0027783224)
(-0.00050850394 0 -0.0030161634)
(-0.00046307261 0 -0.0032266027)
(-0.00042130771 0 -0.0034018432)
(-0.00038329581 0 -0.003539173)
(-0.00034923342 0 -0.0036366269)
(-0.00031890314 0 -0.0036958033)
(-0.00029224629 0 -0.003716834)
(-0.0002686451 0 -0.0036993571)
(-0.0002478705 0 -0.0036429857)
(-0.00022670321 0 -0.0035338406)
(-0.00020804945 0 -0.0033880021)
(-0.0001881308 0 -0.0031675344)
(-0.00016989249 0 -0.0029123842)
(-0.00014954978 0 -0.0025871652)
(-0.00012082719 0 -0.0020908821)
(-8.7160558e-05 0 -0.0014793463)
(-3.9732154e-05 0 -0.00064998632)
(-0.0010862055 0 -0.00051709314)
(-0.0010861926 0 -0.00051701631)
(-0.0010861644 0 -0.0005169313)
(-0.0010861142 0 -0.0005168431)
(-0.0010860332 0 -0.00051675774)
(-0.0010859084 0 -0.00051668434)
(-0.0010857225 0 -0.00051663912)
(-0.0010854514 0 -0.00051664605)
(-0.0010850631 0 -0.00051674321)
(-0.0010845133 0 -0.00051698707)
(-0.0010837443 0 -0.00051745899)
(-0.0010826773 0 -0.00051827951)
(-0.0010812107 0 -0.00051961758)
(-0.0010792083 0 -0.00052171957)
(-0.0010764975 0 -0.0005249332)
(-0.0010728533 0 -0.00052974732)
(-0.0010679958 0 -0.00053686902)
(-0.0010615753 0 -0.00054725937)
(-0.0010531731 0 -0.00056224482)
(-0.0010423007 0 -0.00058358752)
(-0.0010284122 0 -0.0006136134)
(-0.0010109309 0 -0.00065529345)
(-0.00098929619 0 -0.00071226379)
(-0.0009630297 0 -0.00078872688)
(-0.00093182223 0 -0.00088914796)
(-0.00089560116 0 -0.0010177693)
(-0.00085459493 0 -0.0011777943)
(-0.00080935315 0 -0.0013704635)
(-0.0007607051 0 -0.0015941658)
(-0.00070980909 0 -0.0018431249)
(-0.00065789541 0 -0.0021088672)
(-0.00060618794 0 -0.0023803141)
(-0.00055584494 0 -0.0026455887)
(-0.0005078074 0 -0.0028928264)
(-0.00046269065 0 -0.0031134258)
(-0.00042113152 0 -0.0032993469)
(-0.00038324121 0 -0.003447439)
(-0.00034922658 0 -0.0035553423)
(-0.00031888567 0 -0.0036243417)
(-0.00029216371 0 -0.0036544443)
(-0.00026846728 0 -0.0036453656)
(-0.00024753358 0 -0.0035963967)
(-0.00022647303 0 -0.0034952256)
(-0.0002076677 0 -0.0033548915)
(-0.00018783354 0 -0.0031421115)
(-0.00016938975 0 -0.0028903777)
(-0.0001488515 0 -0.0025667808)
(-0.00012035152 0 -0.0020781608)
(-8.6467337e-05 0 -0.0014672006)
(-3.8738443e-05 0 -0.00063515859)
(-0.0010832073 0 -0.00037226317)
(-0.001083191 0 -0.00037206757)
(-0.0010831582 0 -0.00037184185)
(-0.0010831029 0 -0.00037159569)
(-0.0010830156 0 -0.00037133588)
(-0.0010828835 0 -0.00037106735)
(-0.0010826884 0 -0.00037080142)
(-0.0010824061 0 -0.00037055378)
(-0.0010820033 0 -0.00037035598)
(-0.0010814355 0 -0.00037025012)
(-0.0010806426 0 -0.00037030996)
(-0.0010795458 0 -0.00037063983)
(-0.00107804 0 -0.00037140145)
(-0.001075989 0 -0.00037282988)
(-0.0010732156 0 -0.00037526173)
(-0.0010694945 0 -0.00037919743)
(-0.0010645403 0 -0.00038531184)
(-0.001058003 0 -0.00039459706)
(-0.0010494614 0 -0.00040837538)
(-0.001038428 0 -0.00042844913)
(-0.0010243604 0 -0.00045719663)
(-0.0010066903 0 -0.00049766419)
(-0.00098487277 0 -0.0005535896)
(-0.00095845306 0 -0.00062929846)
(-0.0009271537 0 -0.00072939271)
(-0.0008909351 0 -0.00085826225)
(-0.00085006495 0 -0.0010192284)
(-0.00080509707 0 -0.0012137656)
(-0.00075687267 0 -0.0014402993)
(-0.00070651291 0 -0.0016931977)
(-0.00065519645 0 -0.001964118)
(-0.0006040903 0 -0.0022420362)
(-0.00055429455 0 -0.0025150614)
(-0.00050671857 0 -0.0027711731)
(-0.00046197327 0 -0.0030014264)
(-0.00042067256 0 -0.0031975656)
(-0.00038295143 0 -0.0033560265)
(-0.0003490245 0 -0.0034740705)
(-0.00031870911 0 -0.0035526672)
(-0.00029195191 0 -0.0035916835)
(-0.00026818608 0 -0.003590887)
(-0.00024712052 0 -0.0035492757)
(-0.00022615889 0 -0.0034559099)
(-0.00020723213 0 -0.0033211955)
(-0.00018747473 0 -0.003115862)
(-0.00016885168 0 -0.0028677505)
(-0.00014813609 0 -0.002546045)
(-0.00011983565 0 -0.002064692)
(-8.5768338e-05 0 -0.0014548079)
(-3.778857e-05 0 -0.00062087028)
(-0.0010796973 0 -0.0002306007)
(-0.0010796791 0 -0.00023036211)
(-0.0010796438 0 -0.00023008027)
(-0.0010795845 0 -0.00022974894)
(-0.001079491 0 -0.00022935754)
(-0.0010793502 0 -0.00022891255)
(-0.0010791436 0 -0.00022841572)
(-0.0010788464 0 -0.00022788692)
(-0.0010784246 0 -0.00022734779)
(-0.0010778331 0 -0.0002268453)
(-0.0010770107 0 -0.00022644387)
(-0.0010758771 0 -0.00022624696)
(-0.0010743256 0 -0.00022640686)
(-0.0010722174 0 -0.00022714795)
(-0.0010693732 0 -0.00022880443)
(-0.0010655634 0 -0.00023184439)
(-0.0010605014 0 -0.00023697994)
(-0.0010538328 0 -0.00024516461)
(-0.0010451359 0 -0.00025775705)
(-0.0010339235 0 -0.00027658613)
(-0.0010196576 0 -0.00030408884)
(-0.0010017799 0 -0.00034339192)
(-0.00097976187 0 -0.00039833902)
(-0.00095317571 0 -0.00047337241)
(-0.00092177627 0 -0.00057322755)
(-0.00088556184 0 -0.00070241692)
(-0.00084483663 0 -0.00086437359)
(-0.00080016428 0 -0.0010607723)
(-0.00075239487 0 -0.0012900382)
(-0.00070261338 0 -0.0015466728)
(-0.0006519409 0 -0.0018224751)
(-0.00060149059 0 -0.0021064613)
(-0.00055229735 0 -0.0023867807)
(-0.00050524163 0 -0.0026512531)
(-0.00046092044 0 -0.0028906796)
(-0.0004199313 0 -0.0030965717)
(-0.00038242411 0 -0.003265011)
(-0.00034862642 0 -0.003392874)
(-0.00031837032 0 -0.0034808359)
(-0.00029160951 0 -0.0035285976)
(-0.00026779953 0 -0.0035359609)
(-0.00024663006 0 -0.003501656)
(-0.00022576001 0 -0.0034159239)
(-0.00020674018 0 -0.0032869269)
(-0.00018705335 0 -0.003088804)
(-0.00016827645 0 -0.0028445074)
(-0.00014740056 0 -0.002524947)
(-0.00011928097 0 -0.0020505301)
(-8.5061146e-05 0 -0.0014421625)
(-3.6882282e-05 0 -0.00060718446)
(-0.001075687 0 -9.1951322e-05)
(-0.0010756627 0 -9.1572081e-05)
(-0.0010756201 0 -9.1128415e-05)
(-0.0010755524 0 -9.0623464e-05)
(-0.0010754497 0 -9.0057094e-05)
(-0.0010752982 0 -8.9424393e-05)
(-0.001075079 0 -8.872596e-05)
(-0.0010747662 0 -8.7964818e-05)
(-0.001074325 0 -8.7157209e-05)
(-0.0010737087 0 -8.6330522e-05)
(-0.0010728549 0 -8.5539945e-05)
(-0.0010716812 0 -8.4873298e-05)
(-0.0010700788 0 -8.4473145e-05)
(-0.0010679067 0 -8.4557235e-05)
(-0.0010649826 0 -8.5446546e-05)
(-0.0010610748 0 -8.7628903e-05)
(-0.0010558913 0 -9.1772675e-05)
(-0.0010490773 0 -9.8878478e-05)
(-0.0010402085 0 -0.00011030243)
(-0.0010287995 0 -0.00012792125)
(-0.0010143172 0 -0.00015423489)
(-0.00099621388 0 -0.0001924508)
(-0.00097397976 0 -0.0002465139)
(-0.00094721489 0 -0.00032098136)
(-0.00091570994 0 -0.00042070902)
(-0.00087950279 0 -0.00055031874)
(-0.00083893375 0 -0.00071334262)
(-0.00079458006 0 -0.00091159945)
(-0.00074729756 0 -0.0011435167)
(-0.00069813289 0 -0.0014037109)
(-0.00064815077 0 -0.0016841051)
(-0.00059840508 0 -0.0019737837)
(-0.00054986848 0 -0.0022609365)
(-0.00050338565 0 -0.0025332759)
(-0.00045954007 0 -0.0027813819)
(-0.00041891067 0 -0.0029965665)
(-0.0003816619 0 -0.0031745757)
(-0.00034803163 0 -0.0033119254)
(-0.00031786944 0 -0.0034089942)
(-0.00029113441 0 -0.0034653124)
(-0.00026730578 0 -0.0034806874)
(-0.00024605861 0 -0.0034536118)
(-0.00022527842 0 -0.0033753489)
(-0.00020619026 0 -0.0032521246)
(-0.00018657128 0 -0.0030610079)
(-0.00016766291 0 -0.002820671)
(-0.00014664439 0 -0.00250348)
(-0.00011868901 0 -0.0020356917)
(-8.4345895e-05 0 -0.001429244)
(-3.601662e-05 0 -0.00059400573)
(-0.0010711939 0 4.3648882e-05)
(-0.0010711665 0 4.4073912e-05)
(-0.0010711197 0 4.4577587e-05)
(-0.0010710459 0 4.5171279e-05)
(-0.0010709343 0 4.5871709e-05)
(-0.0010707709 0 4.668172e-05)
(-0.001070536 0 4.7609224e-05)
(-0.0010702035 0 4.8647137e-05)
(-0.0010697372 0 4.9787888e-05)
(-0.0010690902 0 5.1000521e-05)
(-0.001068198 0 5.2238573e-05)
(-0.0010669771 0 5.3416972e-05)
(-0.0010653163 0 5.4402865e-05)
(-0.0010630719 0 5.4990203e-05)
(-0.0010600586 0 5.4860789e-05)
(-0.0010560402 0 5.3557299e-05)
(-0.0010507236 0 5.0372687e-05)
(-0.0010437486 0 4.434208e-05)
(-0.0010346913 0 3.4065246e-05)
(-0.0010230671 0 1.7630121e-05)
(-0.0010083496 0 -7.5391405e-06)
(-0.00099000216 0 -4.473127e-05)
(-0.00096753577 0 -9.7995896e-05)
(-0.00094058073 0 -0.00017199882)
(-0.00090896502 0 -0.00027171126)
(-0.00087277003 0 -0.00040183896)
(-0.00083236947 0 -0.00056601055)
(-0.00078835799 0 -0.00076614446)
(-0.0007415945 0 -0.0010006468)
(-0.00069308658 0 -0.0012642359)
(-0.00064383797 0 -0.0015489657)
(-0.00059484545 0 -0.0018439773)
(-0.00054701452 0 -0.0021375434)
(-0.00050115635 0 -0.0024172682)
(-0.00045783409 0 -0.0026735855)
(-0.00041761244 0 -0.0028976031)
(-0.00038066386 0 -0.0030847806)
(-0.00034724004 0 -0.0032312757)
(-0.00031720429 0 -0.0033371901)
(-0.00029052563 0 -0.0034018671)
(-0.00026670334 0 -0.0034251044)
(-0.00024540501 0 -0.0034051744)
(-0.0002247131 0 -0.0033342133)
(-0.00020558018 0 -0.0032168022)
(-0.00018602736 0 -0.0030324897)
(-0.00016700937 0 -0.0027962465)
(-0.0001458652 0 -0.002481644)
(-0.00011806064 0 -0.0020202239)
(-8.362125e-05 0 -0.0014160686)
(-3.5189862e-05 0 -0.00058136672)
(-0.0010662291 0 0.00017635686)
(-0.001066194 0 0.00017691481)
(-0.001066138 0 0.00017756826)
(-0.0010660538 0 0.00017832294)
(-0.0010659305 0 0.00017918793)
(-0.0010657535 0 0.00018017815)
(-0.001065502 0 0.00018130466)
(-0.0010651491 0 0.00018257534)
(-0.0010646576 0 0.00018398828)
(-0.0010639784 0 0.0001855292)
(-0.0010630459 0 0.00018716002)
(-0.001061774 0 0.00018880893)
(-0.0010600492 0 0.00019035218)
(-0.0010577251 0 0.00019159014)
(-0.0010546128 0 0.00019221791)
(-0.0010504737 0 0.00019176068)
(-0.0010450089 0 0.00018955268)
(-0.001037858 0 0.00018457844)
(-0.0010285947 0 0.00017543156)
(-0.0010167375 0 0.00016014515)
(-0.0010017675 0 0.00013604769)
(-0.00098315915 0 9.9787707e-05)
(-0.00096044635 0 4.7207323e-05)
(-0.00093329143 0 -2.6460104e-05)
(-0.00090156289 0 -0.00012629025)
(-0.00086538648 0 -0.00025706199)
(-0.00082516977 0 -0.00042247667)
(-0.00078152625 0 -0.00062450939)
(-0.00073531417 0 -0.00086154497)
(-0.00068750004 0 -0.001128386)
(-0.00063902725 0 -0.0014171999)
(-0.00059083131 0 -0.0017172089)
(-0.00054375331 0 -0.0020167667)
(-0.00049856581 0 -0.0023034145)
(-0.00045581265 0 -0.0025674673)
(-0.00041604193 0 -0.0027998661)
(-0.00037943431 0 -0.0029957969)
(-0.00034625261 0 -0.0031510892)
(-0.00031637608 0 -0.0032655658)
(-0.00028978209 0 -0.0033383864)
(-0.00026599106 0 -0.0033693116)
(-0.00024466648 0 -0.0033564202)
(-0.00022406574 0 -0.0032925965)
(-0.00020490891 0 -0.0031810043)
(-0.00018542321 0 -0.0030033164)
(-0.00016631507 0 -0.0027712616)
(-0.00014506215 0 -0.0024594281)
(-0.00011739734 0 -0.0020041424)
(-8.2887262e-05 0 -0.0014026144)
(-3.4399697e-05 0 -0.0005691846)
(-0.0010608121 0 0.00030614399)
(-0.0010607725 0 0.00030675127)
(-0.0010607104 0 0.00030746952)
(-0.0010606178 0 0.0003083182)
(-0.0010604826 0 0.00030932215)
(-0.0010602899 0 0.0003104932)
(-0.0010600183 0 0.00031185026)
(-0.0010596402 0 0.00031339675)
(-0.0010591172 0 0.00031513918)
(-0.0010583995 0 0.00031705973)
(-0.0010574195 0 0.00031912935)
(-0.0010560892 0 0.00032127962)
(-0.0010542926 0 0.0003233974)
(-0.0010518798 0 0.00032529482)
(-0.0010486586 0 0.00032667207)
(-0.0010443853 0 0.00032708307)
(-0.0010387595 0 0.0003258245)
(-0.0010314156 0 0.00032191073)
(-0.0010219289 0 0.00031387502)
(-0.0010098199 0 0.00029971717)
(-0.0009945806 0 0.00027661765)
(-0.00097569353 0 0.00024120989)
(-0.00095272013 0 0.0001892057)
(-0.00092535654 0 0.00011575132)
(-0.00089351345 0 1.5668532e-05)
(-0.00085736481 0 -0.00011586771)
(-0.00081734767 0 -0.00028262399)
(-0.00077409891 0 -0.00048659354)
(-0.00072847149 0 -0.00072611908)
(-0.00068138941 0 -0.00099607685)
(-0.0006337321 0 -0.0012887511)
(-0.0005863756 0 -0.0015934361)
(-0.00054009325 0 -0.0018986004)
(-0.00049562121 0 -0.0021917214)
(-0.00045347937 0 -0.0024630595)
(-0.00041420216 0 -0.0027033912)
(-0.00037797364 0 -0.0029076706)
(-0.00034507008 0 -0.0030714061)
(-0.0003153835 0 -0.0031941614)
(-0.0002889033 0 -0.0032749034)
(-0.0002651679 0 -0.0033133441)
(-0.00024384206 0 -0.0033073785)
(-0.00022333523 0 -0.0032505247)
(-0.00020417456 0 -0.0031447448)
(-0.00018475758 0 -0.0029735023)
(-0.00016557842 0 -0.0027457215)
(-0.00014423335 0 -0.0024368412)
(-0.00011669958 0 -0.001987489)
(-8.2143204e-05 0 -0.0013889102)
(-3.3643617e-05 0 -0.00055747571)
(-0.001054952 0 0.00043315938)
(-0.0010549024 0 0.0004339027)
(-0.0010548284 0 0.00043477833)
(-0.0010547219 0 0.00043579656)
(-0.0010545715 0 0.00043697303)
(-0.001054361 0 0.00043833008)
(-0.0010540685 0 0.00043988753)
(-0.0010536648 0 0.00044166521)
(-0.0010531104 0 0.00044367377)
(-0.0010523533 0 0.00044591454)
(-0.0010513238 0 0.00044836629)
(-0.0010499315 0 0.0004509763)
(-0.0010480571 0 0.00045364066)
(-0.0010455476 0 0.00045618015)
(-0.0010422066 0 0.0004583083)
(-0.0010377876 0 0.00045956467)
(-0.0010319839 0 0.00045928467)
(-0.0010244305 0 0.0004564278)
(-0.001014703 0 0.00044947819)
(-0.0010023237 0 0.00043643991)
(-0.00098680235 0 0.00041420463)
(-0.0009676197 0 0.00037954931)
(-0.00094437444 0 0.00032798367)
(-0.00091679516 0 0.00025459521)
(-0.00088484007 0 0.00015410884)
(-0.00084872933 0 2.1663291e-05)
(-0.00080893221 0 -0.00014654238)
(-0.00076610674 0 -0.00035248735)
(-0.00072109747 0 -0.00059447185)
(-0.00067478316 0 -0.00086742832)
(-0.0006279797 0 -0.0011637419)
(-0.00058150072 0 -0.0014728018)
(-0.0005360545 0 -0.0017831877)
(-0.00049233718 0 -0.0020823503)
(-0.00045084641 0 -0.0023605202)
(-0.00041210059 0 -0.0026083458)
(-0.00037628772 0 -0.0028205598)
(-0.00034369493 0 -0.0029923811)
(-0.0003142288 0 -0.0031231133)
(-0.00028788918 0 -0.00321154)
(-0.00026423343 0 -0.0032573004)
(-0.00024292975 0 -0.0032581272)
(-0.00022252307 0 -0.0032080755)
(-0.0002033766 0 -0.0031080728)
(-0.00018403191 0 -0.0029431116)
(-0.00016479898 0 -0.0027196581)
(-0.00014337791 0 -0.0024138716)
(-0.00011596874 0 -0.0019702775)
(-8.138903e-05 0 -0.0013749317)
(-3.2919913e-05 0 -0.00054616812)
(-0.0010486659 0 0.00055737102)
(-0.0010486103 0 0.00055816459)
(-0.0010485284 0 0.00055910571)
(-0.0010484114 0 0.00056021792)
(-0.0010482462 0 0.00056153178)
(-0.0010480166 0 0.00056306724)
(-0.0010476995 0 0.00056485189)
(-0.0010472652 0 0.00056690139)
(-0.0010466727 0 0.00056923473)
(-0.001045869 0 0.00057185085)
(-0.0010447821 0 0.00057473727)
(-0.0010433192 0 0.00057784601)
(-0.0010413581 0 0.00058108397)
(-0.0010387415 0 0.00058428487)
(-0.0010352692 0 0.00058716861)
(-0.0010306889 0 0.00058930305)
(-0.0010246919 0 0.00058999413)
(-0.0010169097 0 0.00058823755)
(-0.0010069261 0 0.00058229677)
(-0.0009942743 0 0.00057011183)
(-0.00097844369 0 0.00054887234)
(-0.00095894537 0 0.00051490817)
(-0.00093541752 0 0.00046363907)
(-0.00090761712 0 0.00039018015)
(-0.00087555248 0 0.00028913411)
(-0.00083949397 0 0.00015564319)
(-0.00079993715 0 -1.4126865e-05)
(-0.00075756471 0 -0.00022209277)
(-0.00071320798 0 -0.00046650781)
(-0.0006676981 0 -0.00074234934)
(-0.00062178465 0 -0.0010421037)
(-0.00057622048 0 -0.0013552501)
(-0.00053164684 0 -0.0016705048)
(-0.000488722 0 -0.0019752902)
(-0.00044791874 0 -0.0022598628)
(-0.00040974122 0 -0.0025147503)
(-0.00037437806 0 -0.0027344969)
(-0.00034212857 0 -0.0029140442)
(-0.00031291149 0 -0.0030524536)
(-0.00028673966 0 -0.0031483234)
(-0.00026318697 0 -0.0032012115)
(-0.0002419288 0 -0.0032086924)
(-0.00022162814 0 -0.0031652724)
(-0.00020251337 0 -0.0030710014)
(-0.00018324495 0 -0.002912157)
(-0.00016397528 0 -0.0026930763)
(-0.00014249434 0 -0.0023905356)
(-0.00011520506 0 -0.0019525467)
(-8.0624375e-05 0 -0.0013607158)
(-3.2225758e-05 0 -0.00053527137)
(-0.0010419627 0 0.00067892183)
(-0.0010418955 0 0.00067984311)
(-0.0010418 0 0.00068092723)
(-0.0010416673 0 0.00068219328)
(-0.0010414845 0 0.00068366496)
(-0.001041234 0 0.00068537451)
(-0.001040892 0 0.00068735245)
(-0.001040427 0 0.00068963023)
(-0.0010397963 0 0.0006922326)
(-0.0010389446 0 0.00069517531)
(-0.0010377976 0 0.00069845402)
(-0.0010362594 0 0.00070203433)
(-0.0010342044 0 0.00070583144)
(-0.0010314711 0 0.00070968897)
(-0.0010278553 0 0.00071333765)
(-0.0010230992 0 0.0007163432)
(-0.0010168897 0 0.00071802759)
(-0.0010088791 0 0.00071712087)
(-0.00099864022 0 0.00071206206)
(-0.00098569421 0 0.00070062101)
(-0.00096952849 0 0.00068027006)
(-0.0009497068 0 0.00064694857)
(-0.00092586787 0 0.00059614552)
(-0.00089784231 0 0.00052246055)
(-0.00086567607 0 0.00042068689)
(-0.00082968494 0 0.00028599171)
(-0.0007903937 0 0.00011454644)
(-0.00074850598 0 -9.5488837e-05)
(-0.00070483614 0 -0.00034231458)
(-0.00066016503 0 -0.00062094058)
(-0.00061517605 0 -0.00092393826)
(-0.00057055945 0 -0.0012408996)
(-0.00052689221 0 -0.0015606719)
(-0.00048479236 0 -0.0018706787)
(-0.00044471019 0 -0.0021612254)
(-0.0004071334 0 -0.0024227531)
(-0.00037225193 0 -0.0026496252)
(-0.00034037499 0 -0.0028365381)
(-0.00031143477 0 -0.0029823109)
(-0.00028545566 0 -0.0030853706)
(-0.00026202881 0 -0.0031451734)
(-0.00024083803 0 -0.0031591525)
(-0.00022065189 0 -0.003122191)
(-0.00020158478 0 -0.0030335831)
(-0.00018239802 0 -0.0028807004)
(-0.00016310713 0 -0.002666012)
(-0.00014158167 0 -0.0023668211)
(-0.00011440971 0 -0.0019343076)
(-7.9849172e-05 0 -0.001346237)
(-3.1559906e-05 0 -0.00052472136)
(-0.0010348602 0 0.00079778634)
(-0.0010347854 0 0.00079875911)
(-0.0010346803 0 0.00079990922)
(-0.0010345346 0 0.00080126883)
(-0.0010343341 0 0.00080287571)
(-0.0010340607 0 0.00080476079)
(-0.0010336894 0 0.00080696248)
(-0.0010331879 0 0.00080950917)
(-0.0010325118 0 0.00081243413)
(-0.0010316045 0 0.00081575075)
(-0.0010303889 0 0.00081946594)
(-0.0010287668 0 0.00082354642)
(-0.0010266078 0 0.00082792414)
(-0.0010237476 0 0.00083244876)
(-0.0010199741 0 0.00083687308)
(-0.001015027 0 0.00084076167)
(-0.0010086135 0 0.00084321702)
(-0.0010003725 0 0.0008430291)
(-0.00098985219 0 0.0008387682)
(-0.0009765814 0 0.00082819847)
(-0.00096007414 0 0.00080848022)
(-0.00093990434 0 0.00077567851)
(-0.00091574444 0 0.00072526467)
(-0.00088747977 0 0.00065153777)
(-0.00085522132 0 0.00054886065)
(-0.0008193165 0 0.00041281206)
(-0.00078031627 0 0.00023957352)
(-0.00073894632 0 2.7420941e-05)
(-0.00069599877 0 -0.00022179463)
(-0.00065220142 0 -0.00050310569)
(-0.00060816933 0 -0.00080916682)
(-0.0005645321 0 -0.0011296824)
(-0.00052180143 0 -0.0014536501)
(-0.00048055741 0 -0.0017684886)
(-0.00044122683 0 -0.0020646046)
(-0.00040428199 0 -0.0023323597)
(-0.00036991183 0 -0.0025659636)
(-0.00033843623 0 -0.0027598823)
(-0.0003097989 0 -0.0029127088)
(-0.00028403759 0 -0.0030227025)
(-0.00026075869 0 -0.0030892121)
(-0.00023965695 0 -0.00310953)
(-0.00021959327 0 -0.0030788517)
(-0.00020058941 0 -0.0029958303)
(-0.00018148991 0 -0.0028487528)
(-0.00016219322 0 -0.0026384697)
(-0.0001406388 0 -0.0023427505)
(-0.0001135828 0 -0.0019155977)
(-7.9063231e-05 0 -0.0013315364)
(-3.0919463e-05 0 -0.00051452604)
(-0.0010273651 0 0.00091409071)
(-0.0010272779 0 0.00091517498)
(-0.0010271576 0 0.00091645517)
(-0.0010269939 0 0.00091796116)
(-0.0010267724 0 0.0009197285)
(-0.0010264736 0 0.00092179575)
(-0.0010260718 0 0.00092420297)
(-0.0010255325 0 0.00092699247)
(-0.0010248104 0 0.00093019917)
(-0.0010238451 0 0.00093385387)
(-0.0010225583 0 0.00093796577)
(-0.0010208466 0 0.00094252113)
(-0.0010185772 0 0.0009474554)
(-0.0010155786 0 0.00095264119)
(-0.0010116357 0 0.00095782887)
(-0.001006504 0 0.00096243466)
(-0.00099988316 0 0.00096555947)
(-0.00099137913 0 0.00096619057)
(-0.00098055523 0 0.00096273283)
(-0.00096694257 0 0.00095293813)
(-0.00095007321 0 0.00093381798)
(-0.00092954315 0 0.00090140047)
(-0.00090506736 0 0.00085096332)
(-0.00087656582 0 0.0007770518)
(-0.00084421548 0 0.00067359442)
(-0.00080841742 0 0.00053602767)
(-0.00076973849 0 0.00036088836)
(-0.00072892098 0 0.00014656903)
(-0.00068673102 0 -0.00010502261)
(-0.00064384006 0 -0.00038892893)
(-0.00060079509 0 -0.00069787278)
(-0.00055816471 0 -0.0010216959)
(-0.00051639778 0 -0.0013495393)
(-0.00047603543 0 -0.0016688357)
(-0.00043748381 0 -0.0019701192)
(-0.00040119785 0 -0.0022437005)
(-0.00036736622 0 -0.0024836408)
(-0.00033631756 0 -0.0026842075)
(-0.00030800795 0 -0.0028437672)
(-0.0002824873 0 -0.0029604306)
(-0.00025937755 0 -0.0030334206)
(-0.00023838513 0 -0.003059903)
(-0.00021845377 0 -0.0030353286)
(-0.00019952751 0 -0.0029577979)
(-0.00018052188 0 -0.0028163747)
(-0.00016123358 0 -0.0026104885)
(-0.00013966481 0 -0.0023183126)
(-0.00011272534 0 -0.0018964252)
(-7.8266484e-05 0 -0.001316588)
(-3.0303588e-05 0 -0.00050462774)
(-0.0010194947 0 0.001027847)
(-0.0010193952 0 0.0010290243)
(-0.0010192598 0 0.0010304156)
(-0.0010190775 0 0.0010320543)
(-0.0010188333 0 0.0010339784)
(-0.0010185066 0 0.001036231)
(-0.0010180707 0 0.0010388561)
(-0.0010174895 0 0.0010418996)
(-0.001016716 0 0.0010454039)
(-0.0010156874 0 0.0010494057)
(-0.0010143223 0 0.0010539245)
(-0.0010125138 0 0.0010589544)
(-0.0010101241 0 0.001064446)
(-0.0010069765 0 0.0010702838)
(-0.0010028663 0 0.0010761373)
(-0.00099754866 0 0.0010813587)
(-0.00099069062 0 0.0010852508)
(-0.00098190591 0 0.0010866743)
(-0.00097075786 0 0.0010839964)
(-0.00095678297 0 0.0010749223)
(-0.00093953154 0 0.0010563543)
(-0.00091862831 0 0.0010242092)
(-0.00089383066 0 0.00097363017)
(-0.00086511106 0 0.00089910071)
(-0.00083266023 0 0.00079497646)
(-0.00079700211 0 0.00065573397)
(-0.00075867538 0 0.00047858173)
(-0.00071844642 0 0.00026204934)
(-0.00067705013 0 8.099972e-06)
(-0.0006350985 0 -0.00027831084)
(-0.00059306902 0 -0.0005899699)
(-0.00055147179 0 -0.00091686341)
(-0.00051069252 0 -0.0012482875)
(-0.00047124905 0 -0.0015719249)
(-0.00043349885 0 -0.00187798)
(-0.00039788643 0 -0.0021567695)
(-0.0003646183 0 -0.0024026631)
(-0.00033402147 0 -0.0026095233)
(-0.00030606279 0 -0.0027755012)
(-0.00028080551 0 -0.0028985696)
(-0.00025788546 0 -0.0029778195)
(-0.00023702227 0 -0.0030102899)
(-0.00021723246 0 -0.0029916385)
(-0.00019839788 0 -0.0029194965)
(-0.0001794928 0 -0.0027835753)
(-0.000160227 0 -0.0025820723)
(-0.00013865887 0 -0.0022935348)
(-0.00011183736 0 -0.0018768274)
(-7.745885e-05 0 -0.001301436)
(-2.9709399e-05 0 -0.00049503471)
(-0.0010112581 0 0.0011391171)
(-0.0010111454 0 0.001140385)
(-0.0010109939 0 0.0011418842)
(-0.0010107919 0 0.0011436511)
(-0.0010105235 0 0.0011457277)
(-0.0010101671 0 0.0011481611)
(-0.0010096947 0 0.0011509998)
(-0.0010090685 0 0.0011542963)
(-0.0010082395 0 0.001158098)
(-0.0010071425 0 0.0011624485)
(-0.001005693 0 0.001167374)
(-0.0010037801 0 0.0011728765)
(-0.0010012614 0 0.0011789117)
(-0.0009979613 0 0.0011853692)
(-0.00099368237 0 0.0011918006)
(-0.00098815387 0 0.0011977265)
(-0.00098104341 0 0.001202358)
(-0.00097195995 0 0.0012045442)
(-0.0009604676 0 0.0012026082)
(-0.0009461108 0 0.0011941954)
(-0.00092845967 0 0.0011761101)
(-0.00090717452 0 0.0011441078)
(-0.00088205279 0 0.0010932358)
(-0.00085311878 0 0.0010178914)
(-0.00082060919 0 0.00091268593)
(-0.00078510358 0 0.00077185546)
(-0.00074716255 0 0.0005925955)
(-0.00070755986 0 0.00037380571)
(-0.00066699277 0 0.00011751396)
(-0.00062601086 0 -0.00017131777)
(-0.00058504407 0 -0.00048579893)
(-0.00054450371 0 -0.00081558747)
(-0.00050473224 0 -0.0011502869)
(-0.00046622367 0 -0.0014779031)
(-0.00042928923 0 -0.0017883438)
(-0.00039436861 0 -0.002071916)
(-0.00036167755 0 -0.0023231451)
(-0.00033155431 0 -0.0025359468)
(-0.00030396827 0 -0.002708021)
(-0.00027899494 0 -0.0028372238)
(-0.00025628401 0 -0.0029224977)
(-0.00023556863 0 -0.0029607675)
(-0.0002159309 0 -0.0029478536)
(-0.00019720108 0 -0.0028809828)
(-0.0001784039 0 -0.0027504138)
(-0.00015917373 0 -0.0025532628)
(-0.00013762011 0 -0.0022684064)
(-0.00011091966 0 -0.0018568093)
(-7.6640257e-05 0 -0.0012860538)
(-2.9136371e-05 0 -0.00048569392)
(-0.0010026659 0 0.0012479527)
(-0.001002539 0 0.0012493122)
(-0.0010023702 0 0.0012509198)
(-0.0010021469 0 0.0012528156)
(-0.0010018524 0 0.0012550444)
(-0.001001464 0 0.0012576582)
(-0.0010009524 0 0.0012607099)
(-0.0010002781 0 0.0012642568)
(-0.0009993898 0 0.001268353)
(-0.00099821962 0 0.001273049)
(-0.00099667972 0 0.0012783793)
(-0.00099465515 0 0.0012843545)
(-0.00099199853 0 0.0012909441)
(-0.00098854311 0 0.001297942)
(-0.00098408007 0 0.0013049971)
(-0.00097832891 0 0.0013115874)
(-0.00097094928 0 0.0013169363)
(-0.00096154826 0 0.0013198522)
(-0.0009496902 0 0.001318625)
(-0.00093492987 0 0.0013108294)
(-0.00091686075 0 0.0012931756)
(-0.0008951866 0 0.0012611817)
(-0.00086974096 0 0.0012098682)
(-0.00084060647 0 0.0011335106)
(-0.00080807698 0 0.0010268115)
(-0.00077272996 0 0.00088447125)
(-0.00073521589 0 0.00070301845)
(-0.00069627854 0 0.00048193395)
(-0.00065657681 0 0.00022331988)
(-0.00061662849 0 -6.8171082e-05)
(-0.000576752 0 -0.00038538487)
(-0.00053728314 0 -0.00071787681)
(-0.0004985314 0 -0.0010555534)
(-0.00046095706 0 -0.0013865465)
(-0.00042485446 0 -0.0017009855)
(-0.00039065153 0 -0.0019891434)
(-0.00035855522 0 -0.0022452932)
(-0.00032891906 0 -0.0024634784)
(-0.00030172578 0 -0.0026413326)
(-0.00027705666 0 -0.002776401)
(-0.00025457359 0 -0.0028674699)
(-0.00023402418 0 -0.0029113497)
(-0.00021454836 0 -0.0029039871)
(-0.0001959361 0 -0.0028422656)
(-0.00017725418 0 -0.002716898)
(-0.00015807268 0 -0.0025240636)
(-0.00013654798 0 -0.0022429593)
(-0.0001099723 0 -0.0018364091)
(-7.5810673e-05 0 -0.0012704874)
(-2.858171e-05 0 -0.00047661563)
(-0.00099372904 0 0.0013544033)
(-0.00099358696 0 0.0013558534)
(-0.00099339951 0 0.0013575685)
(-0.00099315349 0 0.0013595916)
(-0.00099283116 0 0.0013619716)
(-0.00099240871 0 0.0013647641)
(-0.0009918552 0 0.0013680268)
(-0.00099112925 0 0.0013718233)
(-0.00099017743 0 0.0013762128)
(-0.00098892884 0 0.0013812525)
(-0.00098729207 0 0.0013869834)
(-0.00098514753 0 0.0013934236)
(-0.00098234786 0 0.0014005561)
(-0.00097873086 0 0.0014080982)
(-0.00097407162 0 0.0014157478)
(-0.00096808084 0 0.0014230013)
(-0.0009604155 0 0.0014290357)
(-0.00095067698 0 0.0014326493)
(-0.00093843138 0 0.0014320942)
(-0.00092324782 0 0.0014248478)
(-0.00090477324 0 0.001407271)
(-0.00088271176 0 0.0013751004)
(-0.00085694574 0 0.001323197)
(-0.00082759971 0 0.0012459103)
(-0.00079506918 0 0.001137548)
(-0.0007599129 0 0.00099354556)
(-0.00072287345 0 0.00080980008)
(-0.00068464118 0 0.00058638625)
(-0.00064588615 0 0.00032507626)
(-0.0006070045 0 3.0930683e-05)
(-0.00056821142 0 -0.0002886462)
(-0.00052982092 0 -0.0006235538)
(-0.00049209737 0 -0.00096388246)
(-0.00045546791 0 -0.0012979083)
(-0.00042021024 0 -0.0016159701)
(-0.00038673965 0 -0.0019083329)
(-0.00035526232 0 -0.0021692179)
(-0.00032612169 0 -0.002392228)
(-0.00029934079 0 -0.0025755362)
(-0.00027499411 0 -0.0027161985)
(-0.00025275635 0 -0.0028128208)
(-0.00023238977 0 -0.0028621117)
(-0.00021308651 0 -0.0028601095)
(-0.00019460379 0 -0.0028034027)
(-0.00017604485 0 -0.0026830862)
(-0.00015692427 0 -0.0024945187)
(-0.00013544168 0 -0.002217184)
(-0.00010899592 0 -0.0018156297)
(-7.4970047e-05 0 -0.0012547105)
(-2.804513e-05 0 -0.00046774999)