/*--------------------------------*- C++ -*----------------------------------*\
  =========                 |
  \\      /  F ield         | OpenFOAM: The Open Source CFD Toolbox
   \\    /   O peration     | Website:  https://openfoam.org
    \\  /    A nd           | Version:  8
     \\/     M anipulation  |
\*---------------------------------------------------------------------------*/
FoamFile
{
    version     2.0;
    format      ascii;
    class       volScalarField;
    location    "0.0099963";
    object      Ma;
}
// * * * * * * * * * * * * * * * * * * * * * * * * * * * * * * * * * * * * * //

dimensions      [0 0 0 0 0 0 0];

internalField   nonuniform List<scalar> 
20000
(
0.64248243
0.74236889
0.80700379
0.86337862
0.91727869
0.96969159
1.0126549
1.0249085
1.0208581
1.0220059
1.0189745
1.0185656
1.0156791
1.0140164
1.0108587
1.0079377
1.0039167
0.99948924
0.99403866
0.98771475
0.9802676
0.97160737
0.96163217
0.95021512
0.93737511
0.92312017
0.90764421
0.89126222
0.87448383
0.85781484
0.84199133
0.82741424
0.8126084
0.79985595
0.79164523
0.77878296
0.75885656
0.74636222
0.74359059
0.74809066
0.75180822
0.75327872
0.75376107
0.75388976
0.75392157
0.7539281
0.75392954
0.75392981
0.75392985
0.75392985
0.64089613
0.74182353
0.80734073
0.86448132
0.91909847
0.97216844
1.013647
1.02477
1.0204495
1.0216905
1.0185229
1.0181049
1.0151646
1.0134313
1.0101827
1.0071494
1.0030099
0.99842524
0.99280617
0.98627058
0.9785872
0.96965126
0.95936853
0.9476174
0.93442639
0.91983216
0.90406147
0.88747176
0.8705859
0.85396436
0.83833436
0.8238011
0.80927395
0.79745629
0.78925942
0.77456489
0.75542079
0.74579176
0.74341249
0.74830456
0.75173631
0.75322222
0.75373067
0.75387934
0.75391809
0.75392738
0.75392941
0.75392979
0.75392985
0.75392985
0.63998022
0.74208605
0.80837737
0.86622076
0.92150946
0.97526018
1.0147384
1.0245221
1.0199367
1.0212248
1.0179376
1.0174651
1.0144953
1.0126869
1.0093506
1.0062007
1.0019422
0.99719519
0.99140368
0.98464884
0.97672303
0.96750153
0.95690322
0.94480785
0.93126016
0.91632407
0.90026491
0.88348153
0.86652046
0.84998666
0.83455854
0.82012967
0.80602757
0.79500891
0.78663747
0.7705407
0.75294367
0.74505359
0.74322303
0.74834399
0.75169582
0.7531862
0.75371127
0.75387243
0.75391638
0.75392705
0.75392936
0.75392978
0.75392985
0.75392985
0.63888596
0.7420663
0.80913686
0.86768205
0.92362519
0.97809933
1.0153598
1.0238359
1.019258
1.0205398
1.0172012
1.0167022
1.0136393
1.011756
1.0083315
1.0050617
1.0006808
0.99576616
0.98979676
0.98281563
0.97463889
0.96512158
0.95419731
0.94174715
0.92783574
0.91255589
0.89621586
0.87925543
0.86224866
0.84583317
0.8306172
0.81634632
0.80271615
0.79243861
0.78379235
0.76672492
0.75060766
0.74401925
0.74304643
0.74835173
0.75166059
0.75315794
0.7536992
0.75386844
0.75391532
0.75392683
0.75392932
0.75392978
0.75392985
0.75392985
0.6378877
0.74213808
0.80998712
0.86921924
0.9257792
0.98098453
1.0157403
1.0231073
1.0184151
1.0197282
1.0162914
1.0157524
1.0126183
1.0106522
1.0071378
1.0037413
0.99923357
0.99414396
0.98798864
0.98077198
0.97233376
0.96250978
0.95124855
0.93843445
0.92415412
0.9085324
0.89192371
0.87480971
0.85779348
0.84153309
0.82655455
0.81250449
0.79939521
0.78975593
0.78078229
0.76326006
0.74851327
0.74272185
0.74288415
0.74833557
0.75163769
0.75313511
0.75368931
0.75386527
0.75391449
0.75392665
0.75392929
0.75392977
0.75392985
0.75392985
0.63691663
0.74218523
0.81080287
0.8707142
0.92785742
0.98377103
1.0157755
1.0221991
1.0174039
1.0187207
1.0152161
1.0146388
1.011427
1.0093723
1.0057651
1.0022347
0.99759391
0.99232117
0.98597149
0.97850954
0.9697982
0.9596558
0.94804568
0.93485809
0.92020366
0.90424338
0.88738055
0.87013934
0.85315061
0.83708164
0.82237051
0.80859969
0.79604136
0.78694112
0.77761723
0.76003749
0.74652531
0.74140625
0.74274841
0.74832386
0.75162582
0.75312186
0.75368208
0.7538627
0.75391376
0.75392649
0.75392926
0.75392977
0.75392984
0.75392985
0.63593698
0.74222886
0.81161587
0.8722129
0.92990957
0.98646675
1.0154934
1.0211674
1.0162396
1.017576
1.0139815
1.0133589
1.0100704
1.0079192
1.0042153
1.0005431
0.99576288
0.99029819
0.98374358
0.97602483
0.96702745
0.95655419
0.94458311
0.93101318
0.91598119
0.89968883
0.88259086
0.86525411
0.84833404
0.83249646
0.8180888
0.80465489
0.79267081
0.78401087
0.77433052
0.75702583
0.744658
0.74013418
0.7426197
0.74831997
0.75162775
0.75311939
0.75367962
0.75386158
0.75391343
0.75392642
0.75392925
0.75392977
0.75392984
0.75392985
0.63502288
0.74229726
0.81243568
0.87372203
0.93194691
0.98901774
1.0148931
1.0199677
1.0149241
1.0162655
1.012585
1.0119134
1.0085458
1.0062905
1.002486
0.99866419
0.99373731
0.98807115
0.98130115
0.97331404
0.96401749
0.95320073
0.94085647
0.92689549
0.91148371
0.89486834
0.87755807
0.86016116
0.84335318
0.82778805
0.81372133
0.80067807
0.78928613
0.78097964
0.77093514
0.75417081
0.74289786
0.73894089
0.74250012
0.7483314
0.75164326
0.75312569
0.75368153
0.75386214
0.75391361
0.75392647
0.75392926
0.75392977
0.75392985
0.75392985
0.63410546
0.74236662
0.81325127
0.87523073
0.93398632
0.99133278
1.0139708
1.0186137
1.0134547
1.0147955
1.0110302
1.0102989
1.0068518
1.0044852
1.0005766
0.99659729
0.99151626
0.98563847
0.97864051
0.97037236
0.9607627
0.9495893
0.93685943
0.92249935
0.90670748
0.88978172
0.87228653
0.85486949
0.83822057
0.8229712
0.80928422
0.79668112
0.78589629
0.77787461
0.7674536
0.75144298
0.74127247
0.73782121
0.74240852
0.74836294
0.75167228
0.75313945
0.75368665
0.7538638
0.75391409
0.7539266
0.75392929
0.75392977
0.75392985
0.75392985
0.63326556
0.74244768
0.81406435
0.87673391
0.9360298
0.99346133
1.0127277
1.0170951
1.0118309
1.0131601
1.0093173
1.0085156
1.0049888
1.0025037
0.99848671
0.99434132
0.98909679
0.98299654
0.97575889
0.96719763
0.95726107
0.94571763
0.93258963
0.91782299
0.90165285
0.88443288
0.86678467
0.84939151
0.83295117
0.81806142
0.8047916
0.79267374
0.78251003
0.77472336
0.76390448
0.74880732
0.73977119
0.73678473
0.74236085
0.74841759
0.75171369
0.75315903
0.75369407
0.75386621
0.75391477
0.75392676
0.75392932
0.75392978
0.75392985
0.75392985
0.63234597
0.74251451
0.81485236
0.87821891
0.93808059
0.99533977
1.0112431
1.0154182
1.0100572
1.0113651
1.007445
1.0065663
1.0029581
1.0003461
0.99621545
0.9918943
0.98647699
0.98014341
0.97265299
0.96378568
0.9535073
0.94157953
0.92804069
0.91286113
0.89631738
0.87882385
0.86105959
0.84373909
0.82755988
0.81307463
0.80025821
0.78866549
0.77913545
0.77155571
0.7603242
0.74622918
0.73836946
0.73592595
0.74236524
0.74849597
0.7517661
0.75318314
0.75370305
0.75386906
0.75391555
0.75392694
0.75392935
0.75392978
0.75392985
0.75392985
0.63149602
0.74262485
0.81564968
0.87970695
0.94016353
0.99694444
1.0096049
1.0135905
1.0081342
1.0094119
1.0054155
1.0044507
1.0007594
0.99801184
0.9937612
0.98925449
0.98365415
0.97707675
0.96932175
0.96013564
0.9494999
0.93717291
0.92321063
0.90761317
0.89070362
0.87296188
0.85512368
0.83792866
0.82206524
0.8080289
0.7956992
0.78466645
0.7757807
0.76839802
0.75677645
0.74367103
0.7369855
0.73519093
0.74242463
0.74859714
0.75182787
0.75321061
0.75371304
0.75387217
0.75391638
0.75392713
0.75392939
0.75392979
0.75392985
0.75392985
0.63063448
0.74273579
0.81644565
0.88117896
0.94228157
0.99821674
1.0077342
1.011604
1.0060584
1.0072982
1.0032278
1.0021692
0.998392
0.99549955
0.99112187
0.98642038
0.98062759
0.97379631
0.96576292
0.95624318
0.94523281
0.93249083
0.91809293
0.90207467
0.88481129
0.86685221
0.8489877
0.83197527
0.81648453
0.8029415
0.79112972
0.78068627
0.77245189
0.7652703
0.75334504
0.74111745
0.73547675
0.73460046
0.74253725
0.74871923
0.75189739
0.75324049
0.75372363
0.75387537
0.75391721
0.75392731
0.75392942
0.75392979
0.75392985
0.75392985
0.62980996
0.74284673
0.81723393
0.8826317
0.94443665
0.99911173
1.0056722
1.0094655
1.0038366
1.0050281
1.000884
0.99972086
0.99585478
0.99280738
0.98829721
0.98339216
0.97739786
0.97030179
0.96197564
0.95210633
0.94070324
0.9275304
0.91268573
0.89624632
0.87864552
0.86050572
0.84266774
0.82589843
0.81083846
0.7978318
0.78656607
0.7767356
0.76915315
0.76218161
0.75008523
0.73860888
0.73390532
0.73414456
0.74269921
0.74885982
0.75197307
0.75327195
0.75373449
0.75387858
0.75391802
0.75392749
0.75392945
0.7539298
0.75392985
0.75392985
0.62896664
0.74296157
0.81803996
0.88408922
0.94662794
0.99965538
1.0034119
1.0071782
1.0014672
1.0025998
0.99838109
0.99710385
0.99314591
0.9899366
0.98528864
0.98017313
0.97396645
0.96659275
0.95795555
0.94771828
0.93590326
0.92228372
0.90698262
0.89012521
0.87220901
0.85393157
0.83617858
0.81971648
0.80514633
0.7927181
0.78202455
0.77282529
0.7658866
0.75913013
0.74699867
0.73622683
0.73222013
0.73382777
0.74290522
0.74901645
0.7520535
0.75330432
0.75374539
0.75388173
0.7539188
0.75392765
0.75392948
0.7539298
0.75392985
0.75392985
0.62816198
0.74308267
0.81886221
0.88555176
0.94881068
0.99978662
1.0009622
1.0047352
0.99894568
1.0000097
0.99571754
0.99431878
0.99026949
0.98689162
0.98210126
0.97676503
0.97033276
0.96266567
0.95369834
0.9430745
0.93082859
0.91674736
0.90098221
0.88371391
0.86551023
0.84714476
0.82954008
0.81345172
0.79943028
0.78762046
0.77752295
0.7689676
0.76265095
0.75610217
0.74406224
0.73401291
0.7305394
0.73364989
0.74314939
0.7491866
0.75213727
0.75333702
0.75375613
0.75388476
0.75391954
0.7539278
0.7539295
0.7539298
0.75392985
0.75392985
0.6273195
0.74318852
0.81969109
0.88700712
0.95093595
0.99944719
0.99836459
1.0021344
0.9962722
0.99726111
0.99290026
0.99137442
0.98723273
0.98367899
0.97873658
0.97316775
0.96649225
0.95851393
0.94919581
0.93816606
0.92547023
0.91091308
0.8946789
0.87701188
0.85855576
0.84015887
0.82277089
0.80712498
0.79371057
0.78255728
0.77307823
0.76517487
0.75944506
0.75307922
0.74124854
0.73198797
0.72899324
0.73366064
0.74342522
0.74936809
0.75222318
0.75336958
0.75376658
0.75388765
0.75392022
0.75392794
0.75392953
0.75392981
0.75392985
0.75392985
0.62647786
0.74329843
0.82055208
0.88849744
0.95298742
0.99865584
0.99564903
0.99938831
0.99346159
0.99436864
0.98994148
0.98827965
0.98404175
0.9802991
0.97519234
0.96937388
0.9624372
0.95413039
0.94444176
0.93298749
0.91982345
0.90477755
0.88807255
0.87002456
0.85135828
0.83299316
0.81589422
0.80076022
0.78800946
0.77754815
0.76870886
0.76146138
0.75626605
0.75003338
0.73853722
0.73016331
0.72763851
0.73384297
0.74373067
0.7495588
0.75230998
0.7534016
0.75377665
0.75389038
0.75392086
0.75392806
0.75392955
0.75392981
0.75392985
0.75392985
0.62560417
0.74341385
0.82145978
0.89005581
0.95492675
0.99742609
0.99279688
0.99651669
0.99052806
0.99134213
0.98684685
0.98503568
0.98069191
0.97674563
0.97145842
0.96537585
0.95815937
0.94950676
0.93942747
0.92752944
0.9138789
0.89833284
0.8811593
0.86275495
0.84392907
0.82566602
0.80893227
0.79438025
0.78234736
0.77261072
0.76443148
0.75784089
0.75311592
0.74694005
0.73590104
0.72854523
0.72654574
0.73414725
0.74406785
0.7497563
0.75239664
0.75343277
0.75378626
0.75389294
0.75392144
0.75392817
0.75392956
0.75392981
0.75392985
0.75392985
0.62477277
0.74357703
0.82244767
0.89173186
0.95670788
0.99576666
0.98983323
0.99352127
0.98747045
0.98817674
0.98360795
0.98163125
0.97717196
0.97300622
0.96752528
0.9611634
0.95365119
0.94463692
0.93414714
0.92178614
0.90763147
0.89157606
0.87394115
0.85521248
0.83628565
0.81820112
0.80191112
0.78801015
0.77674564
0.76776293
0.76026369
0.75432932
0.75000077
0.74377653
0.73331447
0.72698625
0.72562906
0.73455265
0.74443335
0.74995773
0.75248216
0.75346285
0.75379537
0.75389532
0.75392198
0.75392827
0.75392958
0.75392981
0.75392985
0.75392985
0.62396304
0.74375826
0.82348963
0.89352832
0.95824849
0.99363562
0.98673604
0.99038548
0.98427163
0.98485522
0.98020847
0.9780513
0.97346744
0.96907093
0.96338367
0.95673223
0.94890724
0.93951366
0.92859174
0.91574736
0.90107123
0.88449998
0.86641694
0.84740473
0.82844457
0.81062113
0.79485601
0.78167391
0.77122399
0.76302073
0.75621978
0.75093954
0.746936
0.74055027
0.7307604
0.72553388
0.7249193
0.73504708
0.74482074
0.75016045
0.75256578
0.75349165
0.75380394
0.75389752
0.75392246
0.75392836
0.75392959
0.75392981
0.75392985
0.75392985
0.62316251
0.74393469
0.82454812
0.89544252
0.95946986
0.99098876
0.98349289
0.98709197
0.98091368
0.98136058
0.97663349
0.97428418
0.96957143
0.96493499
0.95903168
0.95207755
0.94392226
0.93413072
0.92275425
0.90940599
0.89419254
0.87710283
0.85859202
0.83934605
0.82042852
0.80295359
0.78779532
0.77539659
0.765802
0.75839931
0.75231363
0.74768449
0.74394416
0.73731687
0.72825724
0.72412647
0.72442497
0.73561762
0.7452232
0.75036199
0.75264682
0.75351906
0.75381196
0.75389954
0.7539229
0.75392844
0.7539296
0.75392982
0.75392985
0.75392985
0.6223423
0.74407688
0.82559605
0.89748789
0.96029325
0.98784668
0.98008274
0.98362593
0.97738381
0.97768312
0.97287898
0.97032945
0.96548434
0.96059974
0.95446739
0.94719697
0.93868983
0.92847862
0.91662342
0.90275026
0.88698526
0.86937933
0.85046949
0.83104985
0.81225982
0.79522601
0.78075685
0.76920163
0.76049775
0.7539119
0.74855474
0.74457064
0.74104866
0.73417899
0.72585773
0.72265035
0.72413368
0.73625051
0.74563415
0.75056035
0.75272483
0.75354501
0.75381944
0.7539014
0.75392329
0.75392851
0.75392961
0.75392982
0.75392985
0.75392985
0.6214703
0.74416234
0.82660611
0.89966331
0.96063301
0.98459072
0.97650014
0.97998731
0.97368641
0.97383076
0.96895206
0.96619461
0.96121044
0.95606617
0.94968794
0.94208302
0.93320125
0.92254806
0.91019004
0.8957718
0.87944407
0.86133033
0.8420596
0.82253669
0.8039674
0.78747112
0.77377078
0.7631119
0.75532802
0.74957001
0.74495045
0.74160097
0.73826577
0.73121342
0.72364382
0.72108156
0.72403543
0.73692952
0.74604712
0.75075382
0.75279943
0.75356944
0.75382637
0.7539031
0.75392364
0.75392857
0.75392962
0.75392982
0.75392985
0.75392985
0.62059153
0.74422884
0.82759832
0.9019971
0.96049547
0.98128939
0.97275991
0.9761932
0.96983827
0.96981596
0.96486256
0.96188364
0.95674914
0.95132947
0.94468563
0.93672727
0.92744576
0.91632652
0.90344078
0.888458
0.87155988
0.85295412
0.83337143
0.81382718
0.79558075
0.77972168
0.76686557
0.75714834
0.75030815
0.74538402
0.74150404
0.73876991
0.73559477
0.72843334
0.72156165
0.71954764
0.72420923
0.73763467
0.74645685
0.75094126
0.75287039
0.75359233
0.75383277
0.75390464
0.75392396
0.75392862
0.75392962
0.75392982
0.75392985
0.75392985
0.61970202
0.74427506
0.82856207
0.90446677
0.95980791
0.97762541
0.96889082
0.9722574
0.96584921
0.96564382
0.96060877
0.95739201
0.95209235
0.94638076
0.93944982
0.93111778
0.92141165
0.9098024
0.89636486
0.88080008
0.86332895
0.84425571
0.82442169
0.80494958
0.78713575
0.77201359
0.76006853
0.75133181
0.74545129
0.74136211
0.73821569
0.73606392
0.73301519
0.72581872
0.71965149
0.71828658
0.72469631
0.73834599
0.7468597
0.75112177
0.75293753
0.75361369
0.75383866
0.75390604
0.75392424
0.75392866
0.75392963
0.75392982
0.75392985
0.75392985
0.6188219
0.74433372
0.82951039
0.90706493
0.95856389
0.97381819
0.96489196
0.96817575
0.961711
0.96130353
0.95617994
0.95270784
0.94722824
0.94120848
0.93396952
0.92524354
0.9150859
0.90296121
0.88894776
0.8727856
0.85474463
0.83523879
0.81522744
0.79593334
0.7786684
0.76437855
0.75340116
0.74568418
0.74077017
0.73751195
0.73508385
0.73346255
0.73048972
0.72334158
0.7179733
0.71719596
0.72541292
0.73905445
0.74725416
0.75129477
0.75300077
0.75363355
0.75384407
0.75390731
0.75392448
0.7539287
0.75392963
0.75392982
0.75392985
0.75392985
0.61795475
0.74442582
0.83046246
0.90973173
0.95671725
0.96984395
0.96074479
0.96392936
0.95740705
0.95678065
0.95156199
0.94781974
0.94214557
0.93580257
0.92823277
0.91909096
0.90845515
0.89578991
0.88117789
0.86440642
0.84580636
0.82591488
0.80581428
0.7868155
0.77021773
0.75684349
0.74688225
0.74022909
0.73627728
0.733839
0.73210525
0.73093984
0.72796898
0.72098923
0.71652526
0.71635003
0.72628712
0.7397657
0.74763897
0.75145962
0.75306005
0.75365194
0.75384902
0.75390845
0.7539247
0.75392873
0.75392963
0.75392982
0.75392985
0.75392985
0.61702525
0.7444775
0.83140178
0.9123741
0.95422695
0.96569029
0.95643657
0.95950539
0.9529255
0.95206405
0.9467454
0.94271847
0.93683463
0.93015206
0.92222773
0.91264686
0.90150432
0.88827249
0.87304014
0.85565132
0.836512
0.81629593
0.79620969
0.77763365
0.7618172
0.74942438
0.74053261
0.73498807
0.73198714
0.73034953
0.72927788
0.72847679
0.72541837
0.71875257
0.71524135
0.71575678
0.72727082
0.74048308
0.7480122
0.75161587
0.7531154
0.75366893
0.75385353
0.75390948
0.75392489
0.75392875
0.75392963
0.75392981
0.75392985
0.75392985
0.61606739
0.74454933
0.83238655
0.91488853
0.95111671
0.96133989
0.9519586
0.95489717
0.94826101
0.94714714
0.94172274
0.9373972
0.93128633
0.9242463
0.91594056
0.90589582
0.89421849
0.88039471
0.86452254
0.84651412
0.82686677
0.8064032
0.78645011
0.76842976
0.75349593
0.74213699
0.73438547
0.72997616
0.72791272
0.72705019
0.72659701
0.7260618
0.72283693
0.71663066
0.71403838
0.71545424
0.72833825
0.74120001
0.74837128
0.75176309
0.75316688
0.75368458
0.75385765
0.7539104
0.75392505
0.75392877
0.75392963
0.75392981
0.75392985
0.75392985
0.61499776
0.74457058
0.83341303
0.91714789
0.94765159
0.95679718
0.94730301
0.95009859
0.9434078
0.94202582
0.93648811
0.93184852
0.92548929
0.91807208
0.90935707
0.89882279
0.88658093
0.87213919
0.8556099
0.83698675
0.81687652
0.79626056
0.77657378
0.75924107
0.74527253
0.73501122
0.72847848
0.72520646
0.72406037
0.72395062
0.72405552
0.72369958
0.72028107
0.71462758
0.71277905
0.7153257
0.72946858
0.74190767
0.74871411
0.7519012
0.75321464
0.75369897
0.75386139
0.75391122
0.75392519
0.75392879
0.75392963
0.75392981
0.75392985
0.75392985
0.61382609
0.74458712
0.83454182
0.91909223
0.94375068
0.95207573
0.94247505
0.94510731
0.93836348
0.936695
0.93103334
0.92606081
0.91943023
0.91161417
0.90246146
0.89141085
0.87857505
0.86349018
0.8462905
0.82706742
0.80655637
0.78590186
0.7666245
0.75010152
0.73716633
0.72810096
0.72284875
0.72069013
0.72042904
0.72105938
0.72164125
0.72139916
0.71780637
0.71273976
0.71145273
0.71541174
0.73063739
0.74259658
0.74903896
0.75203021
0.75325881
0.75371219
0.75386479
0.75391195
0.75392531
0.75392879
0.75392963
0.75392981
0.75392985
0.75392985
0.61253672
0.74457443
0.83576341
0.92063109
0.93944321
0.9471714
0.93746923
0.93991919
0.93312065
0.93114488
0.92534405
0.92001976
0.91309198
0.90485757
0.89523743
0.88364202
0.87018136
0.85442845
0.83655032
0.81675489
0.79592463
0.77536419
0.75664297
0.74103508
0.72921191
0.72146516
0.71752851
0.71642085
0.71702091
0.71837801
0.71934478
0.71917004
0.71543665
0.71098309
0.7103027
0.71579294
0.73181212
0.74325877
0.74934511
0.7521504
0.7532996
0.7537243
0.75386787
0.7539126
0.75392541
0.7539288
0.75392962
0.75392981
0.75392985
0.75392985
0.61117565
0.74455601
0.83710804
0.92170753
0.93479401
0.94209098
0.93228336
0.93452384
0.92766681
0.92535858
0.91940301
0.91370882
0.90646076
0.89778571
0.88766754
0.87549688
0.86138008
0.84493662
0.82638036
0.8060567
0.78501056
0.76469192
0.74666879
0.73206456
0.72147501
0.71515702
0.71251824
0.71238419
0.71385268
0.71589514
0.71716117
0.71701121
0.71318312
0.70939116
0.70925944
0.71650499
0.73295897
0.74388875
0.74963247
0.75226211
0.75333719
0.75373538
0.75387066
0.75391317
0.75392549
0.7539288
0.75392962
0.75392981
0.75392984
0.75392985
0.6097952
0.74453791
0.83855475
0.92223125
0.92981
0.93681553
0.92689602
0.92889796
0.92198101
0.91931928
0.91319449
0.90711666
0.89952214
0.89038422
0.87973275
0.86695278
0.85214793
0.83499486
0.81577194
0.7949841
0.77384777
0.75392834
0.73673327
0.72322467
0.71403264
0.7092119
0.70777844
0.70858967
0.7109396
0.71359221
0.71508397
0.71491231
0.7110522
0.7080083
0.70841896
0.71750283
0.73405419
0.74448541
0.74990175
0.75236577
0.75337179
0.75374551
0.75387318
0.75391367
0.75392556
0.75392879
0.75392961
0.7539298
0.75392984
0.75392985
0.60841936
0.7445362
0.84005375
0.92188347
0.92448196
0.93131732
0.92128996
0.92302571
0.91604921
0.91301882
0.9067106
0.90023358
0.89226343
0.88263192
0.87140882
0.85798441
0.84246186
0.82458703
0.80472423
0.78355939
0.76247885
0.74311715
0.72686461
0.71458659
0.70695142
0.70362293
0.70328513
0.70506073
0.70828048
0.71145382
0.71310127
0.71285275
0.70906075
0.70683538
0.70792356
0.71871864
0.73509755
0.7450509
0.75015369
0.75246176
0.75340358
0.75375474
0.75387545
0.75391411
0.7539256
0.75392878
0.7539296
0.7539298
0.75392984
0.75392985
0.60706294
0.74459541
0.84154226
0.92070516
0.91889657
0.92558439
0.91545849
0.91690403
0.90987026
0.90645504
0.899944
0.89304597
0.88466228
0.87450339
0.86266762
0.84856326
0.83229657
0.81369707
0.79324023
0.77181054
0.75094769
0.73229605
0.71709512
0.70624486
0.70027471
0.69834203
0.69905685
0.70180243
0.70587134
0.70946273
0.71120129
0.71081797
0.70723888
0.70577914
0.70772603
0.72007282
0.73611023
0.74558774
0.75038902
0.75255047
0.75343274
0.75376314
0.7538775
0.75391449
0.75392564
0.75392877
0.75392959
0.7539298
0.75392984
0.75392985
0.60577174
0.7447816
0.84292741
0.91870649
0.91300315
0.91962767
0.90940979
0.91053761
0.90344373
0.89962105
0.89287726
0.88552946
0.87668957
0.86596585
0.85347785
0.83866079
0.82162957
0.80231577
0.78133411
0.75977646
0.73930163
0.72150135
0.70749427
0.69828339
0.69400473
0.6933405
0.69511604
0.69881948
0.70370017
0.70760231
0.7093755
0.70882419
0.70559552
0.7047328
0.70769869
0.72152
0.73709901
0.74609615
0.75060811
0.75263224
0.75345945
0.75377077
0.75387934
0.75391482
0.75392566
0.75392875
0.75392958
0.75392979
0.75392984
0.75392985
0.60454657
0.74512768
0.84410004
0.9158816
0.90686962
0.91345253
0.90314834
0.90391921
0.89675395
0.89249199
0.88547897
0.87764877
0.86830982
0.85698623
0.84380805
0.8282477
0.8104386
0.79043776
0.76902685
0.74750065
0.72758546
0.71076974
0.69816621
0.69076044
0.68809542
0.68863464
0.69147161
0.69611832
0.70174438
0.70585703
0.70762138
0.70690332
0.70408012
0.70375991
0.70785101
0.72303033
0.73805946
0.7465754
0.7508114
0.75270748
0.7534839
0.75377771
0.75388099
0.7539151
0.75392566
0.75392873
0.75392957
0.75392979
0.75392984
0.75392985
0.60344453
0.74567736
0.84512154
0.91217173
0.90049702
0.90703931
0.89665474
0.89701921
0.88976354
0.88502828
0.87770754
0.86936652
0.85948803
0.84753034
0.8336267
0.81729622
0.79870647
0.77806782
0.75635121
0.73503257
0.71584476
0.70016195
0.6892157
0.68369793
0.68250775
0.68425085
0.68812836
0.69370777
0.6999731
0.70421199
0.70593559
0.70506016
0.70263651
0.70280322
0.70824253
0.72457128
0.73898278
0.74702428
0.75099931
0.75277657
0.75350626
0.75378399
0.75388246
0.75391533
0.75392566
0.75392871
0.75392956
0.75392978
0.75392984
0.75392985
0.60245831
0.74652597
0.84577709
0.90747352
0.89386003
0.90034326
0.88988301
0.88978777
0.88242313
0.87718576
0.86952444
0.8606481
0.85019186
0.83756628
0.82290181
0.80577805
0.78641904
0.76521788
0.74334671
0.72242049
0.70412297
0.68977981
0.68072682
0.67705942
0.67725131
0.68019838
0.68508775
0.69158231
0.69836208
0.70265362
0.70431409
0.70328884
0.70127252
0.70188068
0.70888116
0.72610907
0.73986022
0.74744222
0.75117258
0.75283996
0.75352669
0.75378968
0.75388378
0.75391552
0.75392564
0.75392868
0.75392954
0.75392978
0.75392984
0.75392985
0.60151074
0.74766822
0.84593412
0.90173088
0.886929
0.89330093
0.88277316
0.88217333
0.87469106
0.86893403
0.86090055
0.85146485
0.84038938
0.82705882
0.81160007
0.79366784
0.77357098
0.75191261
0.73006186
0.70971545
0.69247321
0.67975074
0.67274772
0.67079144
0.67235953
0.6764756
0.68234815
0.68972579
0.69689354
0.70116634
0.70274924
0.70158291
0.70004282
0.7010945
0.70975578
0.72760801
0.74068383
0.74782923
0.75133199
0.75289808
0.75354534
0.75379482
0.75388494
0.75391567
0.75392561
0.75392865
0.75392953
0.75392977
0.75392983
0.75392985
0.60047753
0.74907017
0.84537051
0.89516109
0.87963117
0.88585566
0.8752882
0.87415542
0.8665484
0.86025553
0.85181159
0.84178473
0.83004499
0.81597094
0.79968684
0.78094246
0.76016435
0.73818574
0.71654822
0.69697021
0.68098908
0.67018577
0.66526378
0.66489121
0.66784568
0.67307726
0.67990258
0.68812189
0.69554857
0.69973648
0.70123634
0.69995322
0.69898063
0.70060581
0.7108459
0.7290332
0.74144935
0.74818659
0.75147861
0.75295135
0.75356238
0.75379947
0.75388596
0.75391579
0.75392557
0.75392861
0.75392951
0.75392976
0.75392983
0.75392985
0.59928839
0.75075376
0.84394542
0.88887068
0.87198922
0.87802296
0.86744035
0.86574083
0.85798293
0.85112814
0.84222442
0.83156889
0.81911714
0.80426119
0.78712811
0.76758589
0.74621401
0.7240828
0.70286221
0.68424501
0.66980817
0.66116303
0.65821273
0.65939969
0.66370429
0.66999507
0.67774105
0.68675072
0.69430602
0.69835419
0.69977114
0.69844765
0.69804465
0.70043589
0.71213318
0.7303556
0.74215732
0.74851635
0.75161345
0.75300017
0.7535779
0.75380366
0.75388685
0.75391586
0.75392551
0.75392857
0.75392949
0.75392976
0.75392983
0.75392985
0.59784381
0.75273099
0.84156299
0.88172441
0.86405658
0.86980817
0.85922203
0.85690782
0.84896065
0.84151143
0.83209398
0.82077068
0.8075607
0.79188749
0.77389157
0.75358923
0.73174534
0.70965577
0.68906384
0.67162198
0.65906993
0.65270124
0.65157393
0.65433928
0.6599271
0.66721923
0.67585307
0.68558628
0.69314681
0.69702156
0.69834982
0.69710409
0.69723012
0.70044636
0.71357799
0.73157816
0.74281469
0.74882126
0.75173754
0.75304488
0.75359203
0.75380742
0.7538876
0.7539159
0.75392545
0.75392853
0.75392947
0.75392975
0.75392983
0.75392985
0.59624326
0.75504126
0.83819553
0.87396412
0.85579678
0.86116516
0.85058363
0.84760602
0.83943186
0.83135452
0.82137039
0.80933987
0.79532812
0.77880671
0.75995027
0.73895603
0.71679768
0.69496364
0.67522097
0.65923309
0.64888761
0.64475174
0.64538526
0.6497091
0.65650257
0.66474279
0.67423615
0.68458842
0.69205309
0.69574857
0.69697626
0.69587223
0.69641689
0.70061746
0.71512345
0.73273225
0.74342886
0.74910351
0.75185166
0.75308576
0.75360486
0.7538108
0.75388824
0.75391591
0.75392538
0.75392848
0.75392945
0.75392974
0.75392982
0.75392985
0.59441452
0.7574628
0.83365065
0.86572147
0.84715029
0.85203755
0.84147039
0.83778574
0.82934031
0.8206059
0.81000009
0.79722517
0.78236964
0.76497659
0.74528355
0.72370172
0.70142037
0.68007111
0.66141322
0.64724243
0.63932076
0.63727305
0.63968242
0.64550132
0.65341954
0.66256203
0.67289351
0.68371182
0.69101806
0.69453735
0.69565775
0.69473051
0.69568273
0.70097725
0.71672157
0.73383515
0.74400437
0.7493648
0.75195651
0.75312311
0.75361648
0.7538138
0.75388876
0.75391589
0.7539253
0.75392843
0.75392943
0.75392973
0.75392982
0.75392985
0.59239647
0.7598302
0.82800781
0.85691015
0.83807791
0.8423793
0.83182743
0.82739271
0.81863174
0.8092123
0.79793114
0.78437015
0.76863297
0.75035808
0.72988256
0.70785766
0.68567459
0.66505517
0.64776516
0.63579771
0.63035454
0.63028296
0.63447756
0.64170277
0.65066686
0.66067395
0.67181031
0.68292515
0.69003592
0.69337706
0.69438983
0.69366325
0.69500121
0.70155446
0.71834258
0.73488922
0.74454292
0.74960616
0.75205261
0.75315713
0.75362699
0.75381645
0.75388918
0.75391584
0.7539252
0.75392837
0.7539294
0.75392972
0.75392982
0.75392984
0.59022937
0.76186074
0.82134979
0.84748164
0.82852152
0.83212955
0.82159933
0.81637999
0.80725179
0.79711982
0.78510384
0.77071506
0.75406451
0.73491763
0.71375159
0.69146937
0.66963029
0.65000622
0.63445216
0.62500478
0.62192806
0.62383667
0.62976369
0.63829775
0.64823139
0.65906743
0.67095193
0.68222053
0.68910161
0.6922579
0.69316502
0.69267968
0.69438944
0.70232463
0.71996396
0.73589155
0.74504517
0.74982851
0.7521405
0.75318805
0.75363644
0.75381877
0.75388949
0.75391575
0.75392509
0.75392831
0.75392937
0.75392971
0.75392981
0.75392984
0.58787794
0.76349728
0.81369272
0.83740737
0.81844312
0.82124584
0.81074051
0.80470238
0.79514363
0.78426407
0.77145216
0.75619139
0.73861014
0.71863241
0.69691242
0.67459791
0.65337137
0.63504302
0.62165813
0.614888
0.61403821
0.61796189
0.62552712
0.63526579
0.64609298
0.65771749
0.67028886
0.68158493
0.68820707
0.691173
0.69198062
0.69179328
0.69391148
0.70326407
0.72156438
0.7368371
0.74551101
0.75003254
0.75222065
0.75321609
0.75364492
0.75382078
0.75388971
0.75391561
0.75392497
0.75392824
0.75392934
0.7539297
0.75392981
0.75392984
0.58500163
0.76477418
0.80511729
0.82666496
0.80780225
0.80968518
0.79919568
0.79230186
0.78223476
0.77056604
0.75689651
0.74072849
0.72222223
0.7014949
0.67940496
0.65731747
0.63699932
0.62034274
0.60953315
0.6053968
0.60675014
0.61265468
0.62174978
0.63258472
0.64422662
0.65658432
0.66979986
0.68100954
0.68734852
0.69012446
0.6908501
0.69103965
0.69365234
0.70433368
0.72312191
0.73772064
0.7459405
0.75021908
0.75229355
0.75324145
0.7536525
0.7538225
0.75388983
0.75391545
0.75392484
0.75392817
0.75392931
0.75392969
0.7539298
0.75392984
0.58147711
0.76553859
0.79563844
0.81521406
0.79654785
0.79739086
0.7868813
0.77909729
0.76843319
0.75593187
0.74135201
0.72425642
0.70486493
0.68351792
0.66128915
0.63971912
0.62064071
0.60612059
0.59814539
0.59651304
0.60010544
0.60790414
0.61840778
0.63022944
0.6426117
0.65564621
0.66947315
0.68048242
0.68652177
0.68911719
0.68976854
0.69029894
0.69359898
0.70550996
0.72461092
0.7385368
0.74633383
0.75038902
0.75235972
0.75326434
0.75365922
0.75382394
0.75388986
0.75391525
0.75392469
0.75392809
0.75392927
0.75392967
0.7539298
0.75392984
0.57709964
0.76551797
0.78524833
0.80297424
0.78459307
0.7842764
0.77368613
0.76497991
0.75363262
0.74025918
0.72473302
0.70671508
0.68652045
0.66473629
0.64264361
0.62191683
0.60447688
0.59256852
0.58747772
0.58829045
0.59411501
0.60369106
0.61547394
0.62817426
0.6412397
0.65494588
0.66928637
0.67999288
0.68572284
0.68815357
0.68875453
0.68963123
0.69364581
0.70677888
0.72600594
0.73928286
0.74669238
0.75054357
0.75241969
0.75328492
0.75366514
0.75382511
0.7538898
0.75391503
0.75392453
0.753928
0.75392923
0.75392966
0.75392979
0.75392984
0.57180759
0.76449674
0.77383119
0.78982571
0.77181065
0.77022555
0.75948284
0.74983257
0.73772293
0.72344798
0.7069605
0.68805819
0.66719314
0.64520914
0.6235688
0.60405478
0.58874405
0.57980808
0.57750059
0.58079023
0.58876957
0.59998899
0.61291595
0.62639081
0.64010222
0.6545209
0.66918827
0.67952862
0.68494452
0.68722711
0.68779988
0.68902137
0.69381091
0.70814037
0.72728212
0.7399607
0.74701868
0.75068405
0.75247397
0.75330334
0.7536703
0.75382603
0.75388965
0.75391476
0.75392435
0.75392791
0.75392919
0.75392964
0.75392979