/*--------------------------------*- C++ -*----------------------------------*\
  =========                 |
  \\      /  F ield         | OpenFOAM: The Open Source CFD Toolbox
   \\    /   O peration     | Website:  https://openfoam.org
    \\  /    A nd           | Version:  8
     \\/     M anipulation  |
\*---------------------------------------------------------------------------*/
FoamFile
{
    version     2.0;
    format      ascii;
    class       surfaceScalarField;
    location    "0.0099963";
    object      meshPhi;
}
// * * * * * * * * * * * * * * * * * * * * * * * * * * * * * * * * * * * * * //

dimensions      [0 3 -1 0 0 0 0];

internalField   nonuniform List<scalar> 
39600
(
6.623068e-05
4.2996654e-06
-4.4207149e-06
6.634411e-05
5.1399425e-06
-5.2453718e-06
6.6480456e-05
6.1583026e-06
-6.2841549e-06
6.6644961e-05
7.3779984e-06
-7.5287394e-06
6.6846315e-05
8.8389582e-06
-9.0196527e-06
6.7091865e-05
1.0588977e-05
-1.0805541e-05
6.7396646e-05
1.2684956e-05
-1.2944552e-05
6.7772055e-05
1.5194787e-05
-1.5506171e-05
6.8237411e-05
1.8199635e-05
-1.857331e-05
6.880764e-05
2.1796103e-05
-2.224472e-05
6.9500177e-05
2.6098804e-05
-2.663773e-05
7.0340465e-05
3.1243678e-05
-3.1891489e-05
7.1367686e-05
3.7391143e-05
-3.8170296e-05
7.2626243e-05
4.4729765e-05
-4.5667757e-05
7.417339e-05
5.3480083e-05
-5.4609973e-05
7.609213e-05
6.3896659e-05
-6.5259898e-05
7.8631087e-05
7.6272706e-05
-7.7922329e-05
8.2080132e-05
9.0938686e-05
-9.2935797e-05
8.6549928e-05
0.00010825743
-0.00011067573
9.2241579e-05
0.0001286038
-0.00013153721
9.949229e-05
0.0001523124
-0.00015588672
0.00010864794
0.00017975181
-0.00018414735
0.00012090306
0.00021114064
-0.00021658772
0.00013645703
0.00024680397
-0.00025363403
0.00015795587
0.00028663812
-0.00029529399
0.00018565836
0.00032986878
-0.00034090876
0.00022386926
0.0003752888
-0.00038936501
0.00027892258
0.00042130223
-0.00043970287
0.00035155737
0.00046490197
-0.00048963384
0.00043240051
0.00050545127
-0.00053853931
0.0005282782
0.00054454356
-0.0005880426
0.00063667033
0.0005807978
-0.00063725992
0.00075954446
0.0006161602
-0.00068843584
0.00090730937
0.00064441789
-0.00073584467
0.0010737052
0.0006633624
-0.00077779085
0.0012912588
0.00066716697
-0.00080969127
0.0015393968
0.00064965757
-0.00082634549
0.0018126836
0.00062175956
-0.00083775969
0.0021022648
0.00058892101
-0.0008481511
0.0024121282
0.00052746295
-0.00083097628
0.0027281677
0.00042723876
-0.00077407674
0.0030998323
0.00036645145
-0.00076252456
0.0034840469
0.00038364229
-0.00083344751
0.0038381495
0.00037337993
-0.00086569619
0.0041349211
0.0002805907
-0.00079889868
0.0041150464
9.4594604e-05
-0.00059150948
0.0042142662
-0.0001425236
-0.00030557372
0.0042685048
-0.00029916823
-0.00011199318
0.0038977234
-0.00057824305
0.00026178783
-0.00040783351
0.0003231798
5.3178251e-05
4.2287851e-06
5.3267716e-05
5.054978e-06
5.3376058e-05
6.056113e-06
5.3507088e-05
7.2554113e-06
5.366654e-05
8.6921162e-06
5.3861113e-05
1.0412803e-05
5.4100048e-05
1.2473703e-05
5.4392894e-05
1.4941348e-05
5.4753976e-05
1.7895596e-05
5.5198261e-05
2.1431119e-05
5.5744476e-05
2.5660575e-05
5.6419661e-05
3.0717418e-05
5.7255183e-05
3.6759285e-05
5.8287437e-05
4.3971077e-05
5.9543146e-05
5.256947e-05
6.1130269e-05
6.2801395e-05
6.3301257e-05
7.4948655e-05
6.6323939e-05
8.9332932e-05
7.0342689e-05
0.00010631115
7.552255e-05
0.00012624198
8.2185756e-05
0.00014943987
9.0722519e-05
0.00017621243
0.00010221084
0.00020673441
0.00011705675
0.00024122679
0.00013777645
0.00027943395
0.00016493994
0.00032051279
0.00020271344
0.00036315176
0.00025786417
0.00040501245
0.00033012567
0.00044235767
0.00041049369
0.00047477736
0.00050550104
0.00050359352
0.00061367994
0.00052707953
0.00073683845
0.00054652984
0.00088462789
0.00055553198
0.0010515917
0.00055130513
0.0012677467
0.00052681902
0.0015153783
0.00047533153
0.0017884946
0.00040830799
0.002079987
0.00033197103
0.0023904811
0.0002255484
0.0027095907
8.2645781e-05
0.0030815909
-2.5704812e-05
0.0034705714
-6.4450865e-05
0.0038276705
-0.00012236636
0.0041313435
-0.00024349454
0.0041487146
-0.00041364255
0.0042423935
-0.00060247749
0.0042667016
-0.00071943922
0.0038989992
-0.00090698382
-0.00050515591
4.0898878e-05
4.1739194e-06
4.08002e-05
4.9895145e-06
4.0721986e-05
5.9779907e-06
4.0699084e-05
7.1621255e-06
4.0739424e-05
8.5805701e-06
4.0840531e-05
1.027935e-05
4.099903e-05
1.2313789e-05
4.1220739e-05
1.474961e-05
4.1512859e-05
1.7665424e-05
4.1884667e-05
2.1154743e-05
4.2354386e-05
2.5328544e-05
4.2935745e-05
3.031881e-05
4.3653701e-05
3.6280717e-05
4.4514524e-05
4.3397292e-05
4.5542368e-05
5.1882242e-05
4.6864742e-05
6.1975153e-05
4.8696768e-05
7.3949734e-05
5.1289114e-05
8.8120502e-05
5.4804442e-05
0.00010483936
5.9410457e-05
0.00012445466
6.5432024e-05
0.00014725873
7.3306783e-05
0.00017350824
8.39694e-05
0.00020332752
9.8016945e-05
0.00023684314
0.00011785691
0.00027364264
0.00014431564
0.00031279413
0.00018154656
0.00035286244
0.00023655937
0.00039069502
0.00030813414
0.00042197189
0.00038784869
0.00044654494
0.00048199497
0.00046536045
0.00058971722
0.0004763188
0.00071328042
0.00048001403
0.00086070624
0.0004698848
0.0010285096
0.00044258866
0.0012432448
0.00038996543
0.0014903628
0.00030464877
0.0017630981
0.0001985345
0.0020564065
7.8540165e-05
0.0023675705
-7.3224735e-05
0.0026897194
-0.00025983456
0.0030634884
-0.00041703344
0.0034554982
-0.00051246563
0.0038169876
-0.00061940398
0.0041251504
-0.000770883
0.0041805968
-0.00093259882
0.004270722
-0.0010796159
0.0042715954
-0.0011511289
0.0038958774
-0.0012478129
-0.00061617138
2.9518856e-05
4.134589e-06
2.9380751e-05
4.9421997e-06
2.9240168e-05
5.9210714e-06
2.9125777e-05
7.0937786e-06
2.9048202e-05
8.4987259e-06
2.9012135e-05
1.0181627e-05
2.902167e-05
1.2197224e-05
2.9095307e-05
1.4610816e-05
2.9245268e-05
1.7500245e-05
2.9489076e-05
2.0958095e-05
2.9838967e-05
2.509432e-05
3.0299956e-05
3.0039647e-05
3.0887016e-05
3.5947493e-05
3.1580549e-05
4.2999755e-05
3.2418561e-05
5.1407267e-05
3.3508258e-05
6.1405151e-05
3.5050409e-05
7.3259724e-05
3.7262377e-05
8.7280852e-05
4.0285639e-05
0.0001038189
4.4344744e-05
0.00012321161
4.9763182e-05
0.00014572939
5.6993365e-05
0.00017158706
6.687723e-05
0.00020085908
8.0108292e-05
0.00023358395
9.9063641e-05
0.00026919557
0.00012468717
0.0003066548
0.00016126939
0.00034433921
0.00021594103
0.00037827335
0.00028653489
0.0004037353
0.00036545361
0.00042079185
0.00045865236
0.00042992896
0.00056582784
0.00042863646
0.00068953345
0.00041680863
0.00083647342
0.000387762
0.0010047843
0.00033760414
0.0012181786
0.00025708426
0.0014647906
0.00013812901
0.0017371564
-6.9733467e-06
0.002032141
-0.00017069741
0.0023443992
-0.00036820946
0.0026700164
-0.00059981
0.0030458803
-0.00080738545
0.0034411455
-0.00096036231
0.0038070176
-0.0011176262
0.004120212
-0.0013016335
0.004208791
-0.0014614199
0.0042982977
-0.0015724105
0.0042858639
-0.0015957839
0.0038939933
-0.00160205
-0.00073944713
1.9007194e-05
4.1103698e-06
1.8998345e-05
4.9129891e-06
1.8959798e-05
5.8859339e-06
1.88886e-05
7.0516376e-06
1.8792001e-05
8.4482042e-06
1.8685522e-05
1.012122e-05
1.858268e-05
1.2125162e-05
1.8510068e-05
1.4525022e-05
1.8483043e-05
1.7398317e-05
1.8529839e-05
2.0837385e-05
1.8661691e-05
2.4951632e-05
1.8895125e-05
2.9871304e-05
1.9244458e-05
3.5749119e-05
1.9703023e-05
4.2765775e-05
2.0300749e-05
5.11307e-05
2.1143859e-05
6.1075132e-05
2.2399022e-05
7.2860307e-05
2.4223718e-05
8.6794066e-05
2.678367e-05
0.00010322369
3.0327734e-05
0.00012247724
3.517713e-05
0.00014480884
4.1783645e-05
0.00017039749
5.0923124e-05
0.00019926869
6.332948e-05
0.00023138166
8.1370768e-05
0.00026601726
0.0001060203
0.00030201592
0.00014188289
0.00033752289
0.00019607829
0.00036772724
0.00026546377
0.0003876384
0.00034346439
0.00039752074
0.00043563992
0.00039729875
0.00054218122
0.00038405033
0.00066580743
0.00035693867
0.00081214758
0.00030920579
0.00098068921
0.00023641353
0.0011927903
0.00012824096
0.0014388934
-2.4131085e-05
0.0017108761
-0.00020808666
0.0020074139
-0.00041560524
0.0023211969
-0.00065935799
0.0026507719
-0.00093719484
0.0030289841
-0.0011965786
0.0034276994
-0.0014080691
0.0037979403
-0.0016171174
0.0041164532
-0.0018357192
0.0042338227
-0.0019992586
0.0043253927
-0.002079638
0.0043056971
-0.0020543369
0.0038935385
-0.0019701853
-0.00087364996
8.9935846e-06
4.1008876e-06
8.9565367e-06
4.9018368e-06
8.8886576e-06
5.8729258e-06
8.7958911e-06
7.0364055e-06
8.6881775e-06
8.4302595e-06
8.5759899e-06
1.0099915e-05
8.4674458e-06
1.2099756e-05
8.3763907e-06
1.4494639e-05
8.3070348e-06
1.7362052e-05
8.2765157e-06
2.0794352e-05
8.288616e-06
2.4901e-05
8.3594059e-06
2.9812475e-05
8.5062159e-06
3.5681511e-05
8.7388373e-06
4.2688803e-05
9.1051769e-06
5.1042996e-05
9.7017654e-06
6.0972891e-05
1.0662801e-05
7.2736602e-05
1.2122602e-05
8.6639469e-05
1.4252431e-05
0.00010302679
1.7311687e-05
0.00012222036
2.1620005e-05
0.00014445957
2.7621612e-05
0.00016989262
3.6040855e-05
0.00019850166
4.7625082e-05
0.00023016981
6.4706758e-05
0.00026404049
8.8293659e-05
0.00029882801
0.00012341128
0.00033234965
0.00017702428
0.00035897847
0.00024505625
0.00037362385
0.00032204297
0.00037668549
0.00041313793
0.000367451
0.00051896347
0.00034256463
0.00064233377
0.00030047336
0.00078796867
0.00023435948
0.00095652774
0.00013923786
0.0011673685
3.7217474e-06
0.0014129558
-0.00018181064
0.001684536
-0.00040443575
0.001982518
-0.00065573094
0.00229817
-0.00094620716
0.002632086
-0.0012716948
0.0030128582
-0.001584386
0.0034151768
-0.0018552932
0.0037898188
-0.0021174533
0.0041138131
-0.0023727851
0.0042563015
-0.0025450959
0.0043521179
-0.0026000276
0.0043287111
-0.0025268574
0.0038949398
-0.0023521831
-0.0010178569
-3.6983868e-07
4.1053313e-06
-4.125521e-07
4.9068334e-06
-4.796757e-07
5.878628e-06
-5.6696328e-07
7.042907e-06
-6.6464812e-07
8.4377982e-06
-7.6923481e-07
1.0108825e-05
-8.7914881e-07
1.2110559e-05
-9.892527e-07
1.4508113e-05
-1.103682e-06
1.7379326e-05
-1.2112514e-06
2.0817001e-05
-1.3132961e-06
2.4931056e-05
-1.3933172e-06
2.9852584e-05
-1.4327702e-06
3.5734861e-05
-1.4108686e-06
4.2758956e-05
-1.2679898e-06
5.1133624e-05
-9.1000483e-07
6.1086324e-05
-2.2813077e-07
7.2872855e-05
8.9243241e-07
8.679755e-05
2.6236701e-06
0.00010320494
5.2260034e-06
0.00012241289
9.0174218e-06
0.00014464834
1.4432559e-05
0.00017003426
2.2153408e-05
0.00019851225
3.2923512e-05
0.00022989641
4.9006143e-05
0.00026320723
7.1485755e-05
0.00029702644
0.00010586725
0.00032876553
0.00015881134
0.00035198706
0.00022539171
0.00036163596
0.00030128827
0.00035821742
0.00039125747
0.00034029945
0.00049629724
0.00030408995
0.00061925965
0.00024730602
0.00076410045
0.000163107
0.00093249631
4.5950927e-05
0.0011421009
-0.00011660926
0.0013871596
-0.00033503375
0.0016583165
-0.00059613561
0.001957641
-0.00089118935
0.0022754281
-0.0012288966
0.0026139867
-0.0016033493
0.0029974884
-0.0019707556
0.00340355
-0.0023020517
0.0037826306
-0.0026187585
0.0041122487
-0.0029128332
0.0042768036
-0.0030983157
0.0043785539
-0.0031326376
0.004353408
-0.0030132334
0.0038982123
-0.0027479095
-0.001171391
-9.1036953e-06
4.1235049e-06
-9.1129728e-06
4.9285057e-06
-9.1315839e-06
5.9044673e-06
-9.1734126e-06
7.0736048e-06
-9.238849e-06
8.4743031e-06
-9.3346221e-06
1.0152434e-05
-9.46323e-06
1.2162954e-05
-9.6214966e-06
1.4571502e-05
-9.8129285e-06
1.7456469e-05
-1.0024007e-05
2.0911312e-05
-1.0254701e-05
2.5046796e-05
-1.0484328e-05
2.9994914e-05
-1.0693571e-05
3.5909967e-05
-1.0856147e-05
4.2974211e-05
-1.0910092e-05
5.1396976e-05
-1.0769821e-05
6.1405924e-05
-1.0345178e-05
7.325636e-05
-9.536365e-06
8.7252611e-05
-8.1771246e-06
0.00010374005
-6.0066712e-06
0.00012303483
-2.7117254e-06
0.00014535229
2.135376e-06
0.00017079316
9.1799958e-06
0.00019926403
1.9155633e-05
0.00023051084
3.4233388e-05
0.00026345329
5.5596657e-05
0.00029652896
8.9253672e-05
0.00032664598
0.00014146184
0.0003466284
0.00020652719
0.00035158179
0.00028127856
0.00034202759
0.00037009355
0.00031576487
0.00047429141
0.00026855354
0.00059672912
0.00019740214
0.00074070063
9.545864e-05
0.00090879325
-4.3387228e-05
0.0011171844
-0.00023265259
0.001361707
-0.00048368175
0.0016324226
-0.00078303519
0.0019330025
-0.0011217752
0.0022531067
-0.0015071818
0.002596503
-0.0019319645
0.0029828779
-0.0023554822
0.0033927958
-0.0027480823
0.0037763729
-0.0031206665
0.0041117183
-0.0034555572
0.0042957875
-0.003658218
0.0044047024
-0.0036766027
0.0043789824
-0.0035131135
0.0039033245
-0.0031570539
-0.0013338104
-1.7294548e-05
4.1548371e-06
-1.7313226e-05
4.9660279e-06
-1.7342069e-05
5.9495582e-06
-1.73983e-05
7.1279948e-06
-1.7485882e-05
8.5400184e-06
-1.7612383e-05
1.0231863e-05
-1.7779022e-05
1.2258947e-05
-1.7983155e-05
1.4687435e-05
-1.822691e-05
1.759629e-05
-1.8498332e-05
2.1079946e-05
-1.879885e-05
2.525008e-05
-1.9110336e-05
3.0240023e-05
-1.9419115e-05
3.620559e-05
-1.9701481e-05
4.333071e-05
-1.9902994e-05
5.1827131e-05
-1.9947807e-05
6.1924048e-05
-1.9757294e-05
7.387746e-05
-1.9238509e-05
8.7993329e-05
-1.8227191e-05
0.00010461922
-1.6464672e-05
0.00012406936
-1.3643421e-05
0.00014655056
-9.3440591e-06
0.00017214364
-2.9498208e-06
0.00020072376
6.2682585e-06
0.00023197077
2.0354253e-05
0.0002647244
4.060674e-05
0.0002972661
7.3546571e-05
0.00032593187
0.00012496537
0.000342849
0.00018848052
0.00034338551
0.00026204939
0.00032802514
0.00034969171
0.00029373154
0.00045300419
0.00023582339
0.00057481977
0.00015059827
0.00071786395
3.1222956e-05
0.00088553867
-0.00012899357
0.0010927375
-0.00034464652
0.0013367157
-0.00062799438
0.001606978
-0.00096537913
0.0019087346
-0.0013477439
0.0022312816
-0.0017813169
0.0025796456
-0.0022576836
0.0029690059
-0.0027386514
0.0033828829
-0.0031935342
0.0037710085
-0.0036234059
0.0041121751
-0.0040010581
0.0043137002
-0.0042244572
0.0044306358
-0.004231168
0.0044049206
-0.004025933
0.0039099494
-0.0035791893
-0.0015046925
-2.4971787e-05
4.1991666e-06
-2.5046756e-05
5.019507e-06
-2.5147118e-05
6.0142948e-06
-2.5274789e-05
7.2064249e-06
-2.5425639e-05
8.6348723e-06
-2.5601474e-05
1.0346236e-05
-2.5802329e-05
1.2396552e-05
-2.6027824e-05
1.4852602e-05
-2.628302e-05
1.7794302e-05
-2.6562965e-05
2.1316843e-05
-2.6875628e-05
2.5533552e-05
-2.7212544e-05
3.0579141e-05
-2.7570619e-05
3.6611978e-05
-2.7937209e-05
4.3818753e-05
-2.8266447e-05
5.2414499e-05
-2.849497e-05
6.2632192e-05
-2.8535249e-05
7.4728973e-05
-2.82852e-05
8.9012228e-05
-2.7595718e-05
0.00010583356
-2.6216602e-05
0.00012550647
-2.38471e-05
0.00014823075
-2.0070768e-05
0.0001740685
-1.4298804e-05
0.00020286655
-5.7890182e-06
0.00023423607
7.3441979e-06
0.00026694851
2.652605e-05
0.0002991411
5.8751788e-05
0.00032649872
0.0001093089
0.00034052408
0.00017126082
0.00033694601
0.00024362296
0.00031610392
0.0003300842
0.00027409898
0.00043247431
0.00020580692
0.00055359232
0.0001068417
0.00069565899
-2.9609812e-05
0.00086282355
-0.00021083407
0.0010688479
-0.00045251929
0.0013122746
-0.00076787873
0.0015820758
-0.001143044
0.0018849354
-0.0015689176
0.0022099819
-0.0020510474
0.0025633461
-0.0025801849
0.0029557824
-0.0031198162
0.0033737029
-0.0036378464
0.0037664486
-0.0041263072
0.0041135293
-0.0045487605
0.0043308308
-0.0047963009
0.0044563731
-0.0047956381
0.0044309014
-0.0045512844
0.00391778
-0.0040138869
-0.0016836968
-3.2098854e-05
4.2555735e-06
-3.2181286e-05
5.0865105e-06
-3.2287647e-05
6.0940324e-06
-3.2420042e-05
7.3012629e-06
-3.2575117e-05
8.7477186e-06
-3.2756968e-05
1.0481069e-05
-3.2967237e-05
1.2557896e-05
-3.3208283e-05
1.5046315e-05
-3.3486926e-05
1.8027459e-05
-3.3800575e-05
2.1598257e-05
-3.4161227e-05
2.5873476e-05
-3.4563727e-05
3.099063e-05
-3.5016361e-05
3.7110445e-05
-3.5510452e-05
4.4423426e-05
-3.6018561e-05
5.3149889e-05
-3.6456271e-05
6.3524429e-05
-3.6719992e-05
7.5804304e-05
-3.6726983e-05
9.0301594e-05
-3.6333918e-05
0.0001073734
-3.5314723e-05
0.00012733172
-3.3378917e-05
0.00015037459
-3.0099426e-05
0.00017654398
-2.4922349e-05
0.00020566347
-1.7060458e-05
0.00023726867
-4.8080295e-06
0.00027007268
1.3373114e-05
0.00030208709
4.4882741e-05
0.00032828441
9.4487011e-05
0.00033959163
0.00015486567
0.00033218019
0.0002260052
0.00030616363
0.00031128325
0.00025674036
0.00041272098
0.00017835601
0.00053307438
6.5945931e-05
0.0006741267
-8.7260577e-05
0.00084069919
-0.00028916069
0.0010455694
-0.0005565471
0.001288433
-0.00090361637
0.0015577714
-0.0013163188
0.0018616612
-0.0017855962
0.0021892198
-0.0023166596
0.002547547
-0.0028996484
0.0029431274
-0.0034991156
0.0033651723
-0.004081216
0.0037626109
-0.004629625
0.0041157198
-0.0050988091
0.0043473929
-0.0053735747
0.0044819125
-0.0053694356
0.0044567288
-0.0050885012
0.0039264612
-0.0044605312
-0.001870396
-3.8707906e-05
4.3241351e-06
-3.8753141e-05
5.168458e-06
-3.8803805e-05
6.1918522e-06
-3.8876041e-05
7.4178149e-06
-3.8975616e-05
8.8865071e-06
-3.9116399e-05
1.0646132e-05
-3.9304466e-05
1.275461e-05
-3.9547903e-05
1.5281112e-05
-3.9854373e-05
1.830833e-05
-4.0226229e-05
2.1935364e-05
-4.067487e-05
2.6279454e-05
-4.1197428e-05
3.1481368e-05
-4.1802688e-05
3.7705847e-05
-4.2485965e-05
4.514887e-05
-4.3197737e-05
5.4032867e-05
-4.382487e-05
6.4592623e-05
-4.4277829e-05
7.7089948e-05
-4.4523535e-05
9.18438e-05
-4.4442351e-05
0.00010922003
-4.3788515e-05
0.00012953195
-4.2275107e-05
0.00015296763
-3.9474536e-05
0.00017954981
-3.4868407e-05
0.00020908718
-2.7596614e-05
0.00024103218
-1.6152836e-05
0.00027404394
1.1124203e-06
0.00030600565
3.1913715e-05
0.00033115388
8.0483661e-05
0.0003399344
0.00013928211
0.00032898549
0.00020919221
0.0002980951
0.00029329123
0.00024154585
0.00039375593
0.00015335999
0.00051329524
2.7825641e-05
0.00065330551
-0.00014179245
0.00081922254
-0.00036400917
0.0010229572
-0.00065674383
0.0012652502
-0.0010352069
0.0015341269
-0.0014851823
0.0018389847
-0.0019977227
0.0021690324
-0.0025780192
0.0025322416
-0.0032158335
0.0029310218
-0.0038761774
0.0033572538
-0.004523192
0.0037594603
-0.0051328386
0.004118689
-0.0056507531
0.0043635383
-0.0059557263
0.0045072168
-0.0059520249
0.0044822597
-0.0056372276
0.0039357136
-0.0049186902
-0.0020644738
-4.4766492e-05
4.4036244e-06
-4.4708885e-05
5.2614533e-06
-4.4661167e-05
6.3012122e-06
-4.4661655e-05
7.5469987e-06
-4.472197e-05
9.040112e-06
-4.48506e-05
1.0830124e-05
-4.5054804e-05
1.2976033e-05
-4.5339086e-05
1.5548408e-05
-4.5709566e-05
1.8632057e-05
-4.6169237e-05
2.2327723e-05
-4.6725333e-05
2.6755669e-05
-4.7378001e-05
3.2059301e-05
-4.8130633e-05
3.8407695e-05
-4.8966976e-05
4.599922e-05
-4.9803007e-05
5.5057881e-05
-5.0533459e-05
6.5822783e-05
-5.1136285e-05
7.8565622e-05
-5.1629642e-05
9.3620912e-05
-5.1901802e-05
0.00011136101
-5.1651244e-05
0.00013209207
-5.0560679e-05
0.00015599226
-4.8224555e-05
0.00018306452
-4.4167741e-05
0.00021310899
-3.7436885e-05
0.00024548868
-2.6745271e-05
0.0002788155
-1.0304537e-05
0.00031084227
1.9807953e-05
0.00033505666
6.7268315e-05
0.00034149385
0.0001244894
0.00032728532
0.00019317033
0.00029180378
0.00027609995
0.00022839227
0.00037557687
0.00013066901
0.00049426363
-7.7143354e-06
0.00063321252
-0.00019343813
0.00079842204
-0.00043564816
0.0010010405
-0.00075340668
0.0012427564
-0.0011629639
0.0015111765
-0.0016499625
0.0018169419
-0.0022056387
0.0021494368
-0.002835462
0.0025174229
-0.0035290139
0.002919438
-0.0042512716
0.0033499113
-0.0049640974
0.0037569457
-0.0056363063
0.0041223765
-0.0062048264
0.0043793902
-0.0065427202
0.0045322522
-0.0065428816
0.0045073786
-0.0061966135
0.0039452169
-0.0053875435
-0.0022654441
-5.0514258e-05
4.496131e-06
-5.0489702e-05
5.37449e-06
-5.0481548e-05
6.4393625e-06
-5.0519306e-05
7.715124e-06
-5.0613413e-05
9.2436521e-06
-5.0764928e-05
1.1074738e-05
-5.0986195e-05
1.3268423e-05
-5.12804e-05
1.5896897e-05
-5.1660911e-05
1.9045738e-05
-5.21333e-05
2.2818832e-05
-5.2708413e-05
2.7338446e-05
-5.3389398e-05
3.2751775e-05
-5.4176366e-05
3.9231597e-05
-5.503026e-05
4.6979251e-05
-5.5873523e-05
5.6222671e-05
-5.664497e-05
6.7211502e-05
-5.7377069e-05
8.0233382e-05
-5.8145807e-05
9.5638636e-05
-5.8792981e-05
0.00011379988
-5.8952708e-05
0.00013500956
-5.8280119e-05
0.00015943501
-5.6392565e-05
0.00018707083
-5.2853905e-05
0.00021770408
-4.6639216e-05
0.00025061006
-3.6667696e-05
0.00028436921
-2.0963766e-05
0.00031656243
8.4848809e-06
0.00033993285
5.4792471e-05
0.00034420613
0.00011045778
0.00032699614
0.00017791613
0.00028719055
0.0002596887
0.00021718287
0.00035816575
0.00011019945
0.00047597089
-4.0719259e-05
0.0006138461
-0.00024221402
0.00077830397
-0.00050406112
0.00097981918
-0.00084648065
0.0012209487
-0.0012867946
0.0014889157
-0.0018105309
0.0017955321
-0.0024091723
0.0021304083
-0.0030887144
0.002503032
-0.0038387375
0.0029083031
-0.0046237451
0.0033430533
-0.0054031603
0.0037549759
-0.006139178
0.0041266772
-0.0067602656
0.0043950117
-0.0071338055
0.0045569841
-0.007141455
0.0045319894
-0.0067663541
0.0039546951
-0.0058666281
-0.0024729517
-5.5943796e-05
4.5987654e-06
-5.6049603e-05
5.4974003e-06
-5.6170313e-05
6.5869588e-06
-5.6310363e-05
7.8927799e-06
-5.6475406e-05
9.4573255e-06
-5.6671041e-05
1.1332144e-05
-5.6911109e-05
1.3578629e-05
-5.720307e-05
1.627019e-05
-5.756541e-05
1.9495281e-05
-5.8009754e-05
2.3358745e-05
-5.8548877e-05
2.798616e-05
-5.9191951e-05
3.3526606e-05
-5.9931534e-05
4.0155664e-05
-6.0739084e-05
4.8078737e-05
-6.1553729e-05
5.7530693e-05
-6.2357589e-05
6.8773243e-05
-6.3236029e-05
8.211503e-05
-6.4260014e-05
9.7919109e-05
-6.5228741e-05
0.00011654342
-6.5751267e-05
0.0001382722
-6.5472856e-05
0.00016327844
-6.401633e-05
0.00019154659
-6.0964088e-05
0.00022284936
-5.5252929e-05
0.00025637288
-4.597676e-05
0.00029067013
-3.092426e-05
0.00032312629
-2.1096408e-06
0.00034574455
4.3028271e-05
0.00034801335
9.716365e-05
0.00032803718
0.00016340978
0.00028415809
0.00024404118
0.00020779153
0.00034151047
9.1790546e-05
0.00045841156
-7.1398802e-05
0.00059521063
-0.00028837581
0.00075887434
-0.00056954693
0.0009592915
-0.00093628948
0.0011998137
-0.0014070235
0.0014673365
-0.0019672186
0.0017747444
-0.0026086671
0.0021119178
-0.0033381155
0.0024890115
-0.0041453099
0.0028975443
-0.004993912
0.0033366
-0.0058407373
0.0037534631
-0.0066418262
0.0041315126
-0.0073173252
0.0044104262
-0.0077290115
0.0045813587
-0.0077472623
0.0045559823
-0.0073455292
0.003963902
-0.0063549824
-0.002686429
-6.0858626e-05
4.7119815e-06
-6.0983893e-05
5.6329007e-06
-6.113244e-05
6.7495977e-06
-6.1308049e-05
8.0877689e-06
-6.1516422e-05
9.6913483e-06
-6.1763137e-05
1.1613244e-05
-6.2057221e-05
1.3916235e-05
-6.2406746e-05
1.6676132e-05
-6.2822525e-05
1.9983467e-05
-6.3315632e-05
2.3945795e-05
-6.3891814e-05
2.8692152e-05
-6.4558189e-05
3.4374211e-05
-6.5307615e-05
4.1172013e-05
-6.6118404e-05
4.9294689e-05
-6.695576e-05
5.8983582e-05
-6.7835234e-05
7.051704e-05
-6.8864555e-05
8.4220822e-05
-7.0077095e-05
0.00010045667
-7.127212e-05
0.00011957605
-7.2095488e-05
0.00014186694
-7.2176342e-05
0.00016750628
-7.1129515e-05
0.0001964724
-6.8538934e-05
0.00022851968
-6.3324465e-05
0.00026275878
-5.472068e-05
0.00029771379
-4.0250649e-05
0.00033052294
-1.2028379e-05
0.00035245447
3.1947328e-05
0.00035285439
8.4582214e-05
0.0003303296
0.00014963394
0.00028260891
0.0002291481
0.00020011275
0.00032560907
7.533556e-05
0.00044158895
-9.983619e-05
0.00057730999
-0.00033197941
0.0007401512
-0.00063214278
0.00093947301
-0.0010228631
0.00117936
-0.0015236573
0.0014464388
-0.0021199849
0.0017545833
-0.0028040377
0.0020939652
-0.0035834982
0.0024753547
-0.0044484058
0.0028871463
-0.0053612855
0.0033305189
-0.0062762572
0.0037523594
-0.0071436188
0.004136803
-0.0078754242
0.0044256243
-0.008327732
0.0046052772
-0.0083598376
0.0045792501
-0.0079338811
0.0039726457
-0.0068521847
-0.0029055243
-6.539369e-05
4.835525e-06
-6.553201e-05
5.7808952e-06
-6.569662e-05
6.9270301e-06
-6.5892252e-05
8.3006625e-06
-6.612511e-05
9.9468013e-06
-6.6401497e-05
1.1919812e-05
-6.6730294e-05
1.4284103e-05
-6.712067e-05
1.7118092e-05
-6.7581738e-05
2.0513918e-05
-6.8124158e-05
2.4583241e-05
-6.8751536e-05
2.945766e-05
-6.946863e-05
3.5293658e-05
-7.027514e-05
4.2275804e-05
-7.1148487e-05
5.0619128e-05
-7.2070938e-05
6.0573479e-05
-7.3077453e-05
7.2431288e-05
-7.424423e-05
8.65284e-05
-7.5589921e-05
0.00010322909
-7.6954822e-05
0.00012288169
-7.8023905e-05
0.00014577743
-7.8426376e-05
0.00017210075
-7.7762962e-05
0.00020182449
-7.5614848e-05
0.00023468941
-7.0896206e-05
0.0002697429
-6.2953926e-05
0.00030546845
-4.9008971e-05
0.00033871915
-2.1326005e-05
0.00036002507
2.1509298e-05
0.00035867261
7.2688054e-05
0.00033379609
0.00013657186
0.00028244166
0.00021499471
0.00019401356
0.00031044928
6.0670466e-05
0.00042548999
-0.00012624147
0.0005601275
-0.00037327215
0.000722126
-0.00069212777
0.00092037166
-0.0011065231
0.0011595945
-0.0016370621
0.001426217
-0.0022692118
0.0017350467
-0.0029956702
0.0020765449
-0.0038252578
0.0024620574
-0.0047484297
0.0028770895
-0.0057263057
0.0033247769
-0.0067101957
0.0037516234
-0.007645037
0.0041424872
-0.0084349
0.0044406053
-0.0089300633
0.0046286678
-0.008978645
0.0046017012
-0.008530335
0.0039807119
-0.0073571473
-0.0031296312
-6.9568148e-05
4.9692507e-06
-6.9718671e-05
5.9409866e-06
-6.9897722e-05
7.1189661e-06
-7.0110386e-05
8.530676e-06
-7.0363245e-05
1.022291e-05
-7.0662995e-05
1.2250764e-05
-7.1018845e-05
1.4681489e-05
-7.1439872e-05
1.7594826e-05
-7.193562e-05
2.1086367e-05
-7.2515868e-05
2.5270259e-05
-7.3187453e-05
3.0282179e-05
-7.3956449e-05
3.6283546e-05
-7.4828125e-05
4.3464265e-05
-7.579346e-05
5.2046259e-05
-7.6843504e-05
6.2289896e-05
-7.7997179e-05
7.4499486e-05
-7.9304952e-05
8.9021407e-05
-8.0775061e-05
0.00010622078
-8.2282614e-05
0.00012644532
-8.3559477e-05
0.00014999085
-8.4245612e-05
0.00017704598
-8.3939777e-05
0.0002075839
-8.2214652e-05
0.00024133283
-7.7990371e-05
0.0002772886
-7.0716834e-05
0.0003139266
-5.7255353e-05
0.00034772472
-3.0058757e-05
0.00036845127
1.1679142e-05
0.00036544589
6.1462832e-05
0.00033837184
0.00012420591
0.00028356617
0.00020155423
0.00018941332
0.000295997
4.7746807e-05
0.00041008067
-0.0001506095
0.00054363019
-0.00041220997
0.00070476644
-0.00074942198
0.00090195125
-0.0011871403
0.0011404914
-0.0017470636
0.0014066438
-0.0024147029
0.0017160979
-0.0031833136
0.0020596127
-0.0040630211
0.0024490649
-0.0050447964
0.0028673091
-0.0060881724
0.0033192921
-0.0071416273
0.0037511477
-0.0081450713
0.0041484435
-0.0089948007
0.0044553292
-0.0095351173
0.0046514556
-0.0096031407
0.0046232565
-0.0091346588
0.0039879326
-0.0078694498
-0.003358372
-7.3403821e-05
5.1128769e-06
-7.3565984e-05
6.1127132e-06
-7.3758632e-05
7.3249911e-06
-7.3987511e-05
8.7777662e-06
-7.425849e-05
1.0519262e-05
-7.4579565e-05
1.2606306e-05
-7.4958785e-05
1.5108149e-05
-7.540597e-05
1.8106532e-05
-7.5930401e-05
2.1700236e-05
-7.6543117e-05
2.6006663e-05
-7.7255543e-05
3.1165687e-05
-7.8076664e-05
3.7343854e-05
-7.9018545e-05
4.4738068e-05
-8.0084952e-05
5.3577142e-05
-8.1271179e-05
6.4132083e-05
-8.2580191e-05
7.6719208e-05
-8.4032822e-05
9.1693469e-05
-8.5627568e-05
0.00010942316
-8.7267703e-05
0.00013025729
-8.8725984e-05
0.00015449477
-8.966199e-05
0.00018232747
-8.9689689e-05
0.00021373544
-8.8356632e-05
0.00024842754
-8.4621544e-05
0.00028536646
-7.8033885e-05
0.00032304531
-6.5028176e-05
0.00035749294
-3.8262147e-05
0.00037768314
2.4396276e-06
0.00037309759
5.0887189e-05
0.00034396352
0.00011250915
0.00028588053
0.00018879343
0.00018619078
0.00028221584
3.6412362e-05
0.00039532535
-0.00017313936
0.00052778636
-0.0004490334
0.0006880388
-0.00080430303
0.000884169
-0.0012650192
0.0011220152
-0.0018539998
0.0013876984
-0.0025568498
0.0016977063
-0.0033673958
0.0020431238
-0.0042972026
0.0024363183
-0.0053379281
0.0028577348
-0.0064473481
0.0033139849
-0.0075710444
0.0037508517
-0.0086441976
0.0041545798
-0.0095554715
0.0044697173
-0.010142991
0.0046735416
-0.010232795
0.0046438229
-0.0097457471
0.0039941328
-0.008387885
-0.003591063
-7.6917077e-05
5.2659664e-06
-7.7090561e-05
6.2958071e-06
-7.7296074e-05
7.5445307e-06
-7.7540244e-05
9.0412389e-06
-7.7828289e-05
1.0835037e-05
-7.8169164e-05
1.2985169e-05
-7.857011e-05
1.5562522e-05
-7.9041906e-05
1.8651513e-05
-7.9595779e-05
2.2354169e-05
-8.0244218e-05
2.6791472e-05
-8.1003079e-05
3.210774e-05
-8.1884949e-05
3.8476295e-05
-8.2907688e-05
4.6099678e-05
-8.4080685e-05
5.5215331e-05
-8.5404793e-05
6.6104796e-05
-8.6863168e-05
7.9094663e-05
-8.8447182e-05
9.4546614e-05
-9.0159812e-05
0.00011283511
-9.1924986e-05
0.00013431229
-9.3548153e-05
0.00015928231
-9.4711968e-05
0.00018793942
-9.5050793e-05
0.00022027395
-9.4068499e-05
0.00025596181
-9.0813328e-05
0.00029395048
-8.4910221e-05
0.00033279313
-7.2319715e-05
0.00036797357
-4.5941532e-05
0.00038765474
-6.2219434e-06
0.00038156867
4.09352e-05
0.00035050428
0.00010145174
0.00028930857
0.00017668281
0.00018427413
0.00026907892
2.6611897e-05
0.00038120145
-0.00019385379
0.00051257614
-0.00048374011
0.00067192786
-0.00085674741
0.00086700406
-0.0013401111
0.0011041428
-0.001957775
0.0013693728
-0.002695525
0.0016798663
-0.0035477784
0.0020270613
-0.0045275823
0.0024238075
-0.0056274202
0.0028483454
-0.0068032613
0.0033088118
-0.0079977826
0.0037506703
-0.0091416898
0.0041607954
-0.010116189
0.0044837251
-0.010752978
0.0046948348
-0.010867155
0.004663273
-0.010363396
0.0039991674
-0.0089120587
-0.0038273391
-8.0123066e-05
5.4280881e-06
-8.0307608e-05
6.4901528e-06
-8.0525848e-05
7.7776157e-06
-8.0784537e-05
9.3205491e-06
-8.1089515e-05
1.1170207e-05
-8.1450243e-05
1.3387402e-05
-8.1874582e-05
1.6044827e-05
-8.2375157e-05
1.9230694e-05
-8.2964892e-05
2.3049227e-05
-8.3658926e-05
2.7626266e-05
-8.4475798e-05
3.311144e-05
-8.5431702e-05
3.9683496e-05
-8.6544846e-05
4.7552972e-05
-8.7837477e-05
5.6966489e-05
-8.9297364e-05
6.8214565e-05
-9.0886146e-05
8.1629167e-05
-9.2588217e-05
9.7582902e-05
-9.4401318e-05
0.0001164582
-9.6278703e-05
0.00013860918
-9.8054752e-05
0.00016434922
-9.9427223e-05
0.00019387432
-0.00010005677
0.00022718589
-9.9380593e-05
0.00026391623
-9.6591946e-05
0.00030301651
-9.135654e-05
0.00034313358
-7.9123023e-05
0.0003791146
-5.3106385e-05
0.00039829764
-1.4335e-05
0.00039078228
3.1574262e-05
0.00035791865
9.100215e-05
0.00029376497
0.00016519245
0.00018355186
0.00025655916
1.8196227e-05
0.00036768565