/*--------------------------------*- C++ -*----------------------------------*\
  =========                 |
  \\      /  F ield         | OpenFOAM: The Open Source CFD Toolbox
   \\    /   O peration     | Website:  https://openfoam.org
    \\  /    A nd           | Version:  8
     \\/     M anipulation  |
\*---------------------------------------------------------------------------*/
FoamFile
{
    version     2.0;
    format      ascii;
    class       volScalarField;
    location    "0.0099963";
    object      nut;
}
// * * * * * * * * * * * * * * * * * * * * * * * * * * * * * * * * * * * * * //

dimensions      [0 2 -1 0 0 0 0];

internalField   nonuniform List<scalar> 
20000
(
0.0010897729
0.002909454
0.0040722768
0.0046643485
0.0045393418
0.003441174
0.001110786
4.7464747e-06
4.4421742e-09
4.257683e-09
4.1400814e-09
4.1603427e-09
4.1175425e-09
4.1537262e-09
4.1583032e-09
4.1939569e-09
4.2168293e-09
4.2576478e-09
4.2999953e-09
4.3607501e-09
4.4329233e-09
4.524304e-09
4.6311742e-09
4.7592026e-09
4.9065178e-09
5.0745002e-09
5.2597202e-09
5.4592417e-09
5.6682566e-09
5.8798375e-09
6.0822709e-09
6.2757125e-09
6.4891082e-09
6.6626308e-09
6.7530734e-09
7.0047186e-09
7.3930373e-09
7.6092296e-09
7.65911e-09
7.5190085e-09
7.4231015e-09
7.3763653e-09
7.3579841e-09
7.3516984e-09
7.3497733e-09
7.349238e-09
7.3491054e-09
7.3490776e-09
7.3490728e-09
7.3490723e-09
0.0010940936
0.0028852901
0.0040229929
0.0045871712
0.0044221682
0.0032810386
0.00096492299
1.7386838e-06
4.3806052e-09
4.2638445e-09
4.1433944e-09
4.1652894e-09
4.1246935e-09
4.1619626e-09
4.167419e-09
4.2045363e-09
4.2289879e-09
4.2716667e-09
4.3160551e-09
4.3792078e-09
4.4542863e-09
4.5490941e-09
4.6599927e-09
4.7924567e-09
4.9446529e-09
5.1176416e-09
5.3075246e-09
5.5107806e-09
5.7221294e-09
5.9338508e-09
6.1343413e-09
6.3285203e-09
6.5371075e-09
6.6982105e-09
6.7917488e-09
7.0754663e-09
7.4364573e-09
7.6216775e-09
7.6600533e-09
7.5163128e-09
7.4223666e-09
7.376577e-09
7.3582666e-09
7.3518254e-09
7.3498062e-09
7.3492439e-09
7.3491061e-09
7.3490775e-09
7.3490728e-09
7.3490723e-09
0.0011003953
0.0028712864
0.0039795991
0.004507311
0.0042995691
0.0030973077
0.0008139071
5.9646996e-07
4.3476138e-09
4.271271e-09
4.1515632e-09
4.1730236e-09
4.1342976e-09
4.1723327e-09
4.1787891e-09
4.2172963e-09
4.2434027e-09
4.2879632e-09
4.3345301e-09
4.4002397e-09
4.4784231e-09
4.5768976e-09
4.6921095e-09
4.8293707e-09
4.9867977e-09
5.1651059e-09
5.360001e-09
5.5673009e-09
5.7812553e-09
5.9933204e-09
6.1924513e-09
6.3873618e-09
6.5909714e-09
6.7387579e-09
6.8389799e-09
7.1535682e-09
7.4897399e-09
7.6384929e-09
7.6607927e-09
7.5132561e-09
7.4221154e-09
7.3767774e-09
7.3584214e-09
7.3518891e-09
7.3498262e-09
7.3492482e-09
7.3491069e-09
7.3490777e-09
7.3490728e-09
7.3490723e-09
0.0011032344
0.0028554365
0.0039355415
0.0044256287
0.0041768774
0.002908293
0.00068339484
2.1521152e-07
4.3294193e-09
4.2791084e-09
4.1609559e-09
4.183588e-09
4.1453602e-09
4.1842858e-09
4.1918149e-09
4.231762e-09
4.2595965e-09
4.3061343e-09
4.354963e-09
4.4233233e-09
4.5047406e-09
4.6070284e-09
4.726712e-09
4.8689129e-09
5.0316828e-09
5.2153651e-09
5.4151264e-09
5.6261602e-09
5.8421135e-09
6.05384e-09
6.2513335e-09
6.4457943e-09
6.6425788e-09
6.7792489e-09
6.8888876e-09
7.220835e-09
7.5308933e-09
7.6602973e-09
7.6604208e-09
7.5118726e-09
7.4215337e-09
7.3768451e-09
7.3584695e-09
7.3519119e-09
7.3498327e-09
7.3492496e-09
7.3491072e-09
7.3490777e-09
7.3490729e-09
7.3490723e-09
0.0011049593
0.0028396865
0.0038922267
0.0043475616
0.0040531773
0.0027111496
0.00056243725
8.3640119e-08
4.3230541e-09
4.2892756e-09
4.1719935e-09
4.195567e-09
4.1583526e-09
4.1980972e-09
4.2067758e-09
4.2481968e-09
4.2778555e-09
4.3264444e-09
4.3776946e-09
4.4488617e-09
4.5337014e-09
4.6400125e-09
4.7644027e-09
4.9117838e-09
5.080102e-09
5.2692776e-09
5.4739133e-09
5.6885179e-09
5.9061504e-09
6.1171673e-09
6.3128596e-09
6.5060701e-09
6.6953235e-09
6.8222316e-09
6.9431108e-09
7.2842932e-09
7.5712347e-09
7.6869909e-09
7.6588748e-09
7.5101936e-09
7.4208314e-09
7.3767531e-09
7.3584957e-09
7.3519231e-09
7.3498365e-09
7.3492506e-09
7.3491074e-09
7.3490777e-09
7.3490729e-09
7.3490723e-09
0.0011058503
0.002823061
0.0038474564
0.0042675426
0.003928666
0.0025067322
0.00045336561
3.6825846e-08
4.3240526e-09
4.3001814e-09
4.1846023e-09
4.2092193e-09
4.1730587e-09
4.213612e-09
4.2235397e-09
4.2665041e-09
4.2980942e-09
4.3488653e-09
4.4026541e-09
4.4767776e-09
4.5652271e-09
4.6757671e-09
4.8050874e-09
4.9578589e-09
5.1318892e-09
5.3266062e-09
5.5360141e-09
5.7538883e-09
5.972699e-09
6.1824857e-09
6.3759584e-09
6.5669104e-09
6.7478928e-09
6.8666158e-09
7.0000958e-09
7.3423993e-09
7.6084607e-09
7.714143e-09
7.6568615e-09
7.5084747e-09
7.4198628e-09
7.3764281e-09
7.3584196e-09
7.351912e-09
7.3498349e-09
7.3492502e-09
7.3491072e-09
7.3490777e-09
7.3490728e-09
7.3490723e-09
0.0011063512
0.0028059753
0.0038014806
0.0041861626
0.0038034425
0.0022959099
0.00035537796
1.8957995e-08
4.3298112e-09
4.3130139e-09
4.1987292e-09
4.2244399e-09
4.1895421e-09
4.2309236e-09
4.2422084e-09
4.2867781e-09
4.3204143e-09
4.3734567e-09
4.4299789e-09
4.5072448e-09
4.5995217e-09
4.7145193e-09
4.8490138e-09
5.0074011e-09
5.1873129e-09
5.3876174e-09
5.6016568e-09
5.8224553e-09
6.0419344e-09
6.249975e-09
6.4407775e-09
6.6285338e-09
6.8007936e-09
6.9133137e-09
7.0599735e-09
7.3974544e-09
7.6438491e-09
7.7391654e-09
7.6550053e-09
7.5064748e-09
7.4186588e-09
7.3759298e-09
7.3582434e-09
7.3518549e-09
7.3498178e-09
7.3492456e-09
7.3491061e-09
7.3490775e-09
7.3490728e-09
7.3490723e-09
0.0011065881
0.0027881508
0.0037537215
0.0041028503
0.0036773934
0.0020807035
0.00026752107
1.1511332e-08
4.3389373e-09
4.3270668e-09
4.2143953e-09
4.2413217e-09
4.2077645e-09
4.2500457e-09
4.262788e-09
4.3090284e-09
4.3448256e-09
4.4002954e-09
4.4596934e-09
4.5402833e-09
4.6366032e-09
4.7562927e-09
4.8962114e-09
5.0604435e-09
5.2463921e-09
5.4522952e-09
5.670765e-09
5.8940732e-09
6.1136394e-09
6.3193674e-09
6.5069742e-09
6.6906005e-09
6.8538292e-09
6.9621769e-09
7.122121e-09
7.4495638e-09
7.6768158e-09
7.7620346e-09
7.652959e-09
7.5041338e-09
7.4171915e-09
7.3752686e-09
7.3579938e-09
7.3517717e-09
7.3497929e-09
7.3492391e-09
7.3491047e-09
7.3490773e-09
7.3490728e-09
7.3490723e-09
0.0011066732
0.002770053
0.0037049092
0.0040171234
0.0035496083
0.0018643854
0.00018847867
8.1261435e-09
4.3509012e-09
4.342738e-09
4.2318394e-09
4.2599099e-09
4.2277913e-09
4.27102e-09
4.2853199e-09
4.3333003e-09
4.3713929e-09
4.4294064e-09
4.491908e-09
4.5760333e-09
4.6766332e-09
4.8012655e-09
4.9468693e-09
5.1171744e-09
5.3092913e-09
5.5207532e-09
5.743384e-09
5.9687184e-09
6.1877323e-09
6.3905471e-09
6.5744168e-09
6.7530237e-09
6.9069137e-09
7.0126294e-09
7.1864576e-09
7.499505e-09
7.7071253e-09
7.7826578e-09
7.6503452e-09
7.5013551e-09
7.4154835e-09
7.3744841e-09
7.3576899e-09
7.3516692e-09
7.3497628e-09
7.3492315e-09
7.3491031e-09
7.349077e-09
7.3490728e-09
7.3490723e-09
0.0011067365
0.0027516891
0.0036550011
0.0039283269
0.003418977
0.0016557508
0.00011869056
6.4747034e-09
4.3652611e-09
4.3598976e-09
4.2510904e-09
4.2802027e-09
4.2496208e-09
4.2938455e-09
4.3098185e-09
4.3596292e-09
4.400163e-09
4.4609023e-09
4.5266653e-09
4.6145218e-09
4.7196385e-09
4.8494742e-09
5.0010378e-09
5.1776491e-09
5.3760515e-09
5.592986e-09
5.8194468e-09
6.0462536e-09
6.2640225e-09
6.4632984e-09
6.6428894e-09
6.8156512e-09
6.9598871e-09
7.0640193e-09
7.2523996e-09
7.5477956e-09
7.7344308e-09
7.8009732e-09
7.6469245e-09
7.498113e-09
7.4135553e-09
7.3736009e-09
7.3573504e-09
7.351556e-09
7.3497301e-09
7.3492235e-09
7.3491015e-09
7.3490768e-09
7.3490727e-09
7.3490723e-09
0.0011069665
0.0027334931
0.0036043468
0.0038360997
0.0032837778
0.0014550954
6.2552039e-05
5.6294479e-09
4.3815945e-09
4.3785154e-09
4.2719342e-09
4.3021816e-09
4.2732699e-09
4.3185589e-09
4.336335e-09
4.3880713e-09
4.431208e-09
4.4948029e-09
4.5640674e-09
4.6558829e-09
4.7657815e-09
4.9011046e-09
5.0589082e-09
5.2420502e-09
5.4468135e-09
5.6690635e-09
5.8989355e-09
6.1265697e-09
6.3423368e-09
6.5374227e-09
6.7122056e-09
6.8783702e-09
7.0126416e-09
7.115925e-09
7.3192536e-09
7.5954189e-09
7.7595252e-09
7.8156721e-09
7.6425745e-09
7.4944212e-09
7.4114425e-09
7.3726478e-09
7.3569887e-09
7.3514375e-09
7.3496966e-09
7.3492155e-09
7.3491e-09
7.3490765e-09
7.3490727e-09
7.3490723e-09
0.0011073956
0.0027154071
0.0035535689
0.0037413096
0.0031438035
0.0012646511
2.6493388e-05
5.1890484e-09
4.3997361e-09
4.3987032e-09
4.2945422e-09
4.3259135e-09
4.2987594e-09
4.3451972e-09
4.3648979e-09
4.4186922e-09
4.4645732e-09
4.5312148e-09
4.6041377e-09
4.700133e-09
4.8150891e-09
4.9562019e-09
5.1205374e-09
5.3104318e-09
5.5216021e-09
5.7489501e-09
5.9817414e-09
6.2094903e-09
6.4224519e-09
6.6126988e-09
6.7821514e-09
6.9410869e-09
7.0651713e-09
7.1680321e-09
7.3852694e-09
7.6435809e-09
7.7833547e-09
7.8255807e-09
7.6373038e-09
7.490319e-09
7.4091787e-09
7.3716458e-09
7.3566154e-09
7.3513174e-09
7.3496635e-09
7.3492077e-09
7.3490985e-09
7.3490763e-09
7.3490727e-09
7.3490723e-09
0.0011078558
0.0026976373
0.003503196
0.003649143
0.0029978466
0.0010851983
9.251007e-06
4.9607532e-09
4.4196581e-09
4.4204178e-09
4.318825e-09
4.3513481e-09
4.3261408e-09
4.3737882e-09
4.3955981e-09
4.4515199e-09
4.5003182e-09
4.5701246e-09
4.6469778e-09
4.7474262e-09
4.867754e-09
5.0149819e-09
5.1861404e-09
5.3829801e-09
5.6005375e-09
5.832673e-09
6.0677821e-09
6.2948442e-09
6.5041374e-09
6.6888844e-09
6.8525042e-09
7.0036579e-09
7.117489e-09
7.2201087e-09
7.4481801e-09
7.6920036e-09
7.8104041e-09
7.830615e-09
7.6311406e-09
7.4858642e-09
7.4068003e-09
7.3706153e-09
7.3562389e-09
7.3511987e-09
7.3496314e-09
7.3492004e-09
7.3490972e-09
7.3490762e-09
7.3490727e-09
7.3490723e-09
0.0011083997
0.0026798309
0.0034526554
0.0035539323
0.0028422676
0.00091872342
2.8805848e-06
4.8468276e-09
4.4410995e-09
4.4436716e-09
4.3448321e-09
4.3786151e-09
4.3554395e-09
4.4044326e-09
4.4284263e-09
4.4866067e-09
4.5384278e-09
4.6116042e-09
4.692609e-09
4.7977952e-09
4.9238242e-09
5.0775009e-09
5.2557775e-09
5.4597359e-09
5.6836142e-09
5.9201433e-09
6.1568876e-09
6.3823951e-09
6.5871234e-09
6.7657113e-09
6.9230183e-09
7.0659169e-09
7.1696465e-09
7.272092e-09
7.5072769e-09
7.7393584e-09
7.841173e-09
7.8315626e-09
7.6241897e-09
7.481114e-09
7.404338e-09
7.3695714e-09
7.3558651e-09
7.3510832e-09
7.3496008e-09
7.3491936e-09
7.349096e-09
7.349076e-09
7.3490727e-09
7.3490723e-09
0.0011087805
0.0026617839
0.0034029377
0.0034554479
0.0026767252
0.00076686159
8.6785685e-07
4.7950844e-09
4.4643435e-09
4.4686256e-09
4.3726725e-09
4.4077427e-09
4.3867604e-09
4.4370914e-09
4.4634223e-09
4.5238886e-09
4.5789616e-09
4.6557268e-09
4.7411933e-09
4.8514518e-09
4.9835383e-09
5.1440098e-09
5.3296831e-09
5.5408817e-09
5.7709201e-09
6.0113301e-09
6.2489141e-09
6.4719116e-09
6.6711376e-09
6.8429041e-09
6.9934429e-09
7.1277093e-09
7.2216864e-09
7.3240706e-09
7.5627429e-09
7.7836791e-09
7.875216e-09
7.8306499e-09
7.6165955e-09
7.4761294e-09
7.4018236e-09
7.3685289e-09
7.355499e-09
7.3509722e-09
7.349572e-09
7.3491874e-09
7.3490949e-09
7.3490759e-09
7.3490727e-09
7.3490723e-09
0.0011090686
0.0026425999
0.0033491209
0.003354344
0.0025014658
0.00063269041
2.7127287e-07
4.7778119e-09
4.4894086e-09
4.4952873e-09
4.4023956e-09
4.4387575e-09
4.4199849e-09
4.4717645e-09
4.5004865e-09
4.5634777e-09
4.6219723e-09
4.7025673e-09
4.792798e-09
4.9084593e-09
5.0469584e-09
5.2145725e-09
5.4079107e-09
5.6264336e-09
5.8623958e-09
6.1060851e-09
6.3436259e-09
6.5631081e-09
6.7558837e-09
6.9201762e-09
7.0635024e-09
7.1888458e-09
7.2736492e-09
7.3762629e-09
7.6154542e-09
7.825277e-09
7.9083232e-09
7.8280664e-09
7.6085149e-09
7.4709619e-09
7.3992824e-09
7.3674984e-09
7.355144e-09
7.3508664e-09
7.3495451e-09
7.3491817e-09
7.349094e-09
7.3490758e-09
7.3490727e-09
7.3490723e-09
0.0011094005
0.0026230204
0.0032944669
0.0032521172
0.0023169872
0.00051280906
9.3530042e-08
4.7799328e-09
4.5162912e-09
4.523656e-09
4.4338489e-09
4.4714963e-09
4.4551062e-09
4.508344e-09
4.5397334e-09
4.6053239e-09
4.6675634e-09
4.7522985e-09
4.8476444e-09
4.9690717e-09
5.1143608e-09
5.2894665e-09
5.4907087e-09
5.7165565e-09
5.9580822e-09
6.2043082e-09
6.4408054e-09
6.6556996e-09
6.8410638e-09
6.9972337e-09
7.1329114e-09
7.2491263e-09
7.3256596e-09
7.42915e-09
7.6659453e-09
7.8629469e-09
7.9383843e-09
7.8206369e-09
7.600088e-09
7.4656573e-09
7.3967423e-09
7.3664906e-09
7.3548029e-09
7.3507666e-09
7.3495202e-09
7.3491766e-09
7.3490931e-09
7.3490757e-09
7.3490727e-09
7.3490723e-09
0.0011097509
0.0026025122
0.0032381396
0.0031482144
0.0021240637
0.00040352187
3.7390301e-08
4.7929924e-09
4.5446409e-09
4.5534183e-09
4.4669059e-09
4.5059243e-09
4.4920108e-09
4.5469542e-09
4.5811434e-09
4.6496936e-09
4.715897e-09
4.8050349e-09
4.905814e-09
5.0333572e-09
5.185811e-09
5.3687541e-09
5.5781128e-09
5.8112237e-09
6.0578533e-09
6.3057633e-09
6.5401468e-09
6.749354e-09
6.9263666e-09
7.0737861e-09
7.2013696e-09
7.3083137e-09
7.3777601e-09
7.4832144e-09
7.7147009e-09
7.8958213e-09
7.9641291e-09
7.8101665e-09
7.5912108e-09
7.4602503e-09
7.3942254e-09
7.3655121e-09
7.3544772e-09
7.3506729e-09
7.3494972e-09
7.349172e-09
7.3490925e-09
7.3490756e-09
7.3490727e-09
7.3490723e-09
0.0011100293
0.0025805041
0.0031789076
0.0030365682
0.0019248494
0.00030551608
1.81678e-08
4.8124601e-09
4.5744406e-09
4.58468e-09
4.5015736e-09
4.5420825e-09
4.5309278e-09
4.5877105e-09
4.6250295e-09
4.6966254e-09
4.7671212e-09
4.8609743e-09
4.9675493e-09
5.1016001e-09
5.2616173e-09
5.4527369e-09
5.6703685e-09
5.9105628e-09
6.1616803e-09
6.4102705e-09
6.6413657e-09
6.8437382e-09
7.0114697e-09
7.1495378e-09
7.2685724e-09
7.3661593e-09
7.4299944e-09
7.5391684e-09
7.7624281e-09
7.9240863e-09
7.98372e-09
7.7978896e-09
7.5817743e-09
7.4547986e-09
7.391756e-09
7.3645701e-09
7.3541685e-09
7.3505854e-09
7.3494762e-09
7.3491679e-09
7.3490919e-09
7.3490756e-09
7.3490727e-09
7.3490723e-09
0.0011100814
0.0025566366
0.003116678
0.0029210911
0.001722897
0.00021728184
1.0833212e-08
4.8360519e-09
4.6057965e-09
4.6175334e-09
4.5380726e-09
4.5802386e-09
4.5719875e-09
4.6309103e-09
4.6714305e-09
4.7464023e-09
4.8213796e-09
4.9202114e-09
5.0329265e-09
5.1738738e-09
5.3418521e-09
5.5414716e-09
5.7674793e-09
6.0144815e-09
6.2693469e-09
6.5175183e-09
6.7440934e-09
6.9384849e-09
7.0960546e-09
7.2242157e-09
7.3342323e-09
7.4223879e-09
7.4821772e-09
7.5972977e-09
7.8096721e-09
7.949937e-09
7.9977927e-09
7.7840931e-09
7.5719003e-09
7.4493568e-09
7.3893506e-09
7.363668e-09
7.3538771e-09
7.350504e-09
7.349457e-09
7.3491643e-09
7.3490914e-09
7.3490756e-09
7.3490727e-09
7.3490723e-09
0.0011098434
0.0025308077
0.0030487415
0.002803609
0.0015211844
0.00013800278
7.7290784e-09
4.8623378e-09
4.6389755e-09
4.6523031e-09
4.5766369e-09
4.6205955e-09
4.6154882e-09
4.6765885e-09
4.7205879e-09
4.7989919e-09
4.8787904e-09
4.982951e-09
5.1022219e-09
5.2505062e-09
5.4268638e-09
5.6352794e-09
5.8696716e-09
6.1230471e-09
6.3807409e-09
6.6272444e-09
6.8479752e-09
7.0332221e-09
7.1797963e-09
7.2975443e-09
7.3980693e-09
7.4766857e-09
7.5340212e-09
7.6574843e-09
7.8568082e-09
7.9748598e-09
8.0046145e-09
7.7689953e-09
7.5617388e-09
7.4439833e-09
7.3870266e-09
7.3628097e-09
7.3536035e-09
7.3504287e-09
7.3494396e-09
7.3491611e-09
7.349091e-09
7.3490756e-09
7.3490727e-09
7.3490723e-09
0.0011094501
0.0025044133
0.0029778389
0.0026823326
0.0013228932
7.1803474e-05
6.3159531e-09
4.8907247e-09
4.6742366e-09
4.6892052e-09
4.617517e-09
4.6633314e-09
4.6614219e-09
4.724817e-09
4.7724464e-09
4.8546158e-09
4.9394716e-09
5.0492993e-09
5.1755315e-09
5.3315909e-09
5.5167333e-09
5.7341992e-09
5.9768996e-09
6.2360806e-09
6.4955504e-09
6.7390412e-09
6.952581e-09
7.1275646e-09
7.2624021e-09
7.3692976e-09
7.4598803e-09
7.5288768e-09
7.5850508e-09
7.7179505e-09
7.9033798e-09
8.000031e-09
8.0056003e-09
7.7528529e-09
7.5514284e-09
7.4387199e-09
7.384793e-09
7.3619963e-09
7.3533474e-09
7.3503592e-09
7.3494239e-09
7.3491584e-09
7.3490908e-09
7.3490756e-09
7.3490727e-09
7.3490723e-09
0.0011089711
0.0024778945
0.0029088064
0.0025544307
0.001131319
2.8066385e-05
5.6537384e-09
4.9213344e-09
4.7118024e-09
4.728414e-09
4.660655e-09
4.7084026e-09
4.7098256e-09
4.7756189e-09
4.8271567e-09
4.9132638e-09
5.0035992e-09
5.1195235e-09
5.2531953e-09
5.4175095e-09
5.6118425e-09
5.8385508e-09
6.089338e-09
6.353561e-09
6.613553e-09
6.8525464e-09
7.0574935e-09
7.2211355e-09
7.3435705e-09
7.4392459e-09
7.5194811e-09
7.5788141e-09
7.6347229e-09
7.7759684e-09
7.9481876e-09
8.0286849e-09
8.0040948e-09
7.7359855e-09
7.541116e-09
7.4336097e-09
7.3826601e-09
7.3612295e-09
7.3531088e-09
7.3502954e-09
7.3494097e-09
7.349156e-09
7.3490906e-09
7.3490757e-09
7.3490728e-09
7.3490723e-09
0.0011081904
0.0024496725
0.0028358142
0.0024181145
0.00095050485
8.3451323e-06
5.3502386e-09
4.9554122e-09
4.7514554e-09
4.7696947e-09
4.7060304e-09
4.7557357e-09
4.7606808e-09
4.8291088e-09
4.8847845e-09
4.9752142e-09
5.071348e-09
5.1937699e-09
5.3353389e-09
5.5083727e-09
5.7122696e-09
5.948334e-09
6.2068577e-09
6.4751961e-09
6.7343177e-09
6.9672496e-09
7.1622251e-09
7.3135751e-09
7.4230464e-09
7.5072189e-09
7.5767854e-09
7.626531e-09
7.68276e-09
7.830387e-09
7.9898797e-09
8.0606992e-09
7.9996384e-09
7.7187639e-09
7.5309309e-09
7.4286765e-09
7.380631e-09
7.3605087e-09
7.3528869e-09
7.3502367e-09
7.3493969e-09
7.349154e-09
7.3490905e-09
7.3490757e-09
7.3490728e-09
7.3490723e-09
0.0011073113
0.0024207076
0.0027601509
0.0022744544
0.00078311333
2.1014317e-06
5.222189e-09
4.99185e-09
4.7929823e-09
4.8129463e-09
4.7534864e-09
4.8053814e-09
4.8140974e-09
4.8853904e-09
4.9455207e-09
5.0405432e-09
5.1429631e-09
5.2723749e-09
5.4223604e-09
5.6046081e-09
5.8184127e-09
6.0638383e-09
6.3295463e-09
6.6008391e-09
6.8574773e-09
7.0826684e-09
7.2663238e-09
7.4045346e-09
7.5005718e-09
7.5730425e-09
7.6317373e-09
7.6721284e-09
7.7291475e-09
7.8811539e-09
8.0281026e-09
8.0922651e-09
7.9880822e-09
7.7016456e-09
7.5209889e-09
7.4239426e-09
7.3787105e-09
7.3598341e-09
7.3526812e-09
7.3501831e-09
7.3493855e-09
7.3491523e-09
7.3490904e-09
7.3490758e-09
7.3490728e-09
7.3490723e-09
0.0011064557
0.0023914207
0.0026819352
0.0021252812
0.00063276168
5.2055634e-07
5.1794344e-09
5.0298698e-09
4.8363585e-09
4.8582605e-09
4.8032548e-09
4.857487e-09
4.8702212e-09
4.9446035e-09
5.0095518e-09
5.1095961e-09
5.2186581e-09
5.3555141e-09
5.5144095e-09
5.7063363e-09
5.9303319e-09
6.1849965e-09
6.4571626e-09
6.7300515e-09
6.9824413e-09
7.1981822e-09
7.3693293e-09
7.4936687e-09
7.5759447e-09
7.6365935e-09
7.6843807e-09
7.7159765e-09
7.774399e-09
7.928862e-09
8.0630734e-09
8.118885e-09
7.9708105e-09
7.6849518e-09
7.5113379e-09
7.419414e-09
7.3768981e-09
7.3592043e-09
7.3524907e-09
7.350134e-09
7.3493753e-09
7.3491509e-09
7.3490905e-09
7.3490759e-09
7.3490728e-09
7.3490724e-09
0.0011056405
0.0023625366
0.0026032994
0.0019662012
0.00050132198
1.4725291e-07
5.1790374e-09
5.0698374e-09
4.8818947e-09
4.9059545e-09
4.8554524e-09
4.9122825e-09
4.9292919e-09
5.0070135e-09
5.0771037e-09
5.1824801e-09
5.2987356e-09
5.4435839e-09
5.6119395e-09
5.81402e-09
6.0484181e-09
6.31203e-09
6.5896657e-09
6.8625115e-09
7.1087086e-09
7.3133207e-09
7.4709152e-09
7.580578e-09
7.6489366e-09
7.6977473e-09
7.7347669e-09
7.7585775e-09
7.8194132e-09
7.9739493e-09
8.0934771e-09
8.1373635e-09
7.9487263e-09
7.6687318e-09
7.5019912e-09
7.4151025e-09
7.375196e-09
7.3586185e-09
7.3523149e-09
7.3500894e-09
7.3493663e-09
7.3491498e-09
7.3490906e-09
7.349076e-09
7.3490729e-09
7.3490724e-09
0.0011049817
0.0023337067
0.0025336823
0.001798039
0.00038904919
5.293925e-08
5.1996328e-09
5.1118639e-09
4.9297494e-09
4.9561538e-09
4.9103829e-09
4.9699306e-09
4.991472e-09
5.0727997e-09
5.1483918e-09
5.2595832e-09
5.3834368e-09
5.536784e-09
5.7151165e-09
5.9277764e-09
6.1726845e-09
6.4447652e-09
6.7266487e-09
6.9975977e-09
7.2355953e-09
7.4276289e-09
7.5707883e-09
7.6648299e-09
7.7193208e-09
7.7564026e-09
7.7829559e-09
7.8004702e-09
7.8652473e-09
8.0167502e-09
8.1190252e-09
8.1498325e-09
7.9245953e-09
7.6525033e-09
7.4929505e-09
7.4110126e-09
7.3736018e-09
7.3580746e-09
7.3521527e-09
7.3500487e-09
7.3493583e-09
7.3491489e-09
7.3490907e-09
7.3490761e-09
7.3490729e-09
7.3490724e-09
0.0011041351
0.0023023334
0.0024538505
0.0016203354
0.00028875049
2.3605505e-08
5.2315146e-09
5.1561382e-09
4.9801172e-09
5.0090723e-09
4.9681177e-09
5.0306245e-09
5.0569735e-09
5.1421741e-09
5.2236502e-09
5.3410462e-09
5.4731277e-09
5.635573e-09
5.8244444e-09
6.0480857e-09
6.3034786e-09
6.5832903e-09
6.8678731e-09
7.1348169e-09
7.362629e-09
7.5409412e-09
7.6685451e-09
7.7460701e-09
7.7868019e-09
7.8124417e-09
7.8289992e-09
7.8421164e-09
7.9127162e-09
8.0575253e-09
8.1414268e-09
8.1532197e-09
7.8990625e-09
7.6362891e-09
7.4842608e-09
7.4071555e-09
7.372115e-09
7.3575711e-09
7.3520034e-09
7.3500118e-09
7.3493513e-09
7.3491483e-09
7.349091e-09
7.3490763e-09
7.349073e-09
7.3490724e-09
0.0011034939
0.0022701428
0.0023749497
0.0014380937
0.00019981845
1.3326907e-08
5.2705168e-09
5.2029169e-09
5.033095e-09
5.0647831e-09
5.02887e-09
5.0944943e-09
5.1259313e-09
5.2153288e-09
5.303115e-09
5.4272336e-09
5.5680631e-09
5.7401697e-09
5.9401011e-09
6.1750467e-09
6.4407165e-09
6.7272668e-09
7.0127086e-09
7.2734188e-09
7.4892818e-09
7.6530092e-09
7.7634444e-09
7.824128e-09
7.8511058e-09
7.8656952e-09
7.8729584e-09
7.8836608e-09
7.9613957e-09
8.0962415e-09
8.1640444e-09
8.1527927e-09
7.872583e-09
7.6202292e-09
7.475959e-09
7.4035312e-09
7.3707309e-09
7.3571054e-09
7.3518661e-09
7.3499784e-09
7.3493452e-09
7.349148e-09
7.3490913e-09
7.3490765e-09
7.349073e-09
7.3490724e-09
0.0011028343
0.0022360425
0.0022921106
0.0012566531
0.00012143658
9.2441759e-09
5.3143104e-09
5.2520979e-09
5.0887843e-09
5.1234035e-09
5.0927204e-09
5.1616716e-09
5.1986274e-09
5.292506e-09
5.3871333e-09
5.5184757e-09
5.6686939e-09
5.8511016e-09
6.0626387e-09
6.30912e-09
6.5846353e-09
6.8765564e-09
7.1606972e-09
7.4128892e-09
7.6153744e-09
7.7631099e-09
7.8549591e-09
7.8986375e-09
7.912188e-09
7.9159409e-09
7.9149924e-09
7.9250115e-09
8.0094546e-09
8.1329794e-09
8.1903726e-09
8.150347e-09
7.8456502e-09
7.60452e-09
7.4680902e-09
7.4001423e-09
7.3694464e-09
7.3566757e-09
7.3517401e-09
7.349948e-09
7.3493399e-09
7.3491478e-09
7.3490916e-09
7.3490767e-09
7.3490731e-09
7.3490724e-09
0.0011020197
0.0021978732
0.0022053052
0.0010863998
5.9474731e-05
7.4734054e-09
5.3617027e-09
5.3039487e-09
5.1472832e-09
5.1850894e-09
5.159835e-09
5.2324851e-09
5.2752338e-09
5.3741491e-09
5.476042e-09
5.615156e-09
5.7753075e-09
5.9686241e-09
6.1922433e-09
6.4503425e-09
6.7349825e-09
7.0305816e-09
7.3110452e-09
7.5526082e-09
7.7406033e-09
7.8701643e-09
7.9423161e-09
7.9693419e-09
7.9700537e-09
7.9630008e-09
7.9553198e-09
7.9658802e-09
8.0560284e-09
8.1685211e-09
8.2184372e-09
8.1424099e-09
7.8188571e-09
7.5893482e-09
7.4606715e-09
7.3969802e-09
7.3682553e-09
7.3562793e-09
7.3516245e-09
7.3499206e-09
7.3493353e-09
7.3491479e-09
7.3490921e-09
7.3490769e-09
7.3490732e-09
7.3490725e-09
0.0011006507
0.0021540268
0.0021122303
0.00092603613
2.1850493e-05
6.6683469e-09
5.412135e-09
5.3584329e-09
5.2087464e-09
5.2500471e-09
5.2305811e-09
5.3071263e-09
5.3562862e-09
5.4602489e-09
5.5701211e-09
5.7176883e-09
5.8884349e-09
6.093342e-09
6.3294904e-09
6.5990905e-09
6.8917705e-09
7.1889378e-09
7.4632207e-09
7.6923152e-09
7.8641961e-09
7.9731906e-09
8.0248601e-09
8.0365742e-09
8.0246081e-09
8.0068735e-09
7.9939864e-09
8.0060649e-09
8.1006893e-09
8.2018131e-09
8.2446185e-09
8.1276843e-09
7.7929279e-09
7.5748987e-09
7.4537165e-09
7.3940387e-09
7.3671534e-09
7.3559144e-09
7.3515186e-09
7.3498957e-09
7.3493315e-09
7.3491481e-09
7.3490926e-09
7.3490771e-09
7.3490733e-09
7.3490725e-09
0.0010985429
0.0021045479
0.0020109471
0.00077704905
6.2685036e-06
6.3068423e-09
5.4653969e-09
5.4158449e-09
5.273395e-09
5.3186316e-09
5.3051943e-09
5.3859862e-09
5.4417793e-09
5.5515252e-09
5.6697749e-09
5.8264108e-09
6.0084248e-09
6.2255481e-09
6.4745361e-09
6.7552458e-09
7.0544939e-09
7.3508212e-09
7.6164763e-09
7.8316474e-09
7.9847317e-09
8.0712082e-09
8.1028882e-09
8.1005714e-09
8.0751641e-09
8.0479349e-09
8.0310103e-09
8.0455815e-09
8.1432018e-09
8.2315077e-09
8.2636393e-09
8.1063379e-09
7.768463e-09
7.5612595e-09
7.4472071e-09
7.3913038e-09
7.3661344e-09
7.3555784e-09
7.3514216e-09
7.3498733e-09
7.3493284e-09
7.3491485e-09
7.3490931e-09
7.3490774e-09
7.3490734e-09
7.3490725e-09
0.0010954868
0.0020485954
0.0018917662
0.00064050873
1.5867243e-06
6.1594366e-09
5.5222263e-09
5.4767249e-09
5.3417798e-09
5.3911287e-09
5.3840367e-09
5.4691803e-09
5.5322904e-09
5.6480861e-09
5.7753786e-09
5.9418723e-09
6.1359261e-09
6.3659085e-09
6.6279017e-09
6.9189748e-09
7.2228571e-09
7.5156757e-09
7.7704285e-09
7.9699538e-09
8.1008402e-09
8.1635125e-09
8.177561e-09
8.1605524e-09
8.1217944e-09
8.0863541e-09
8.0665466e-09
8.0847199e-09
8.1833582e-09
8.2568331e-09
8.2765461e-09
8.0784395e-09
7.745881e-09
7.5484415e-09
7.4411247e-09
7.3887664e-09
7.3651941e-09
7.3552695e-09
7.3513329e-09
7.3498532e-09
7.3493258e-09
7.3491491e-09
7.3490937e-09
7.3490776e-09
7.3490735e-09
7.3490726e-09
0.0010918516
0.0019882004
0.0017565522
0.00051860272
4.0894144e-07
6.1177479e-09
5.5825561e-09
5.5411468e-09
5.4140133e-09
5.4676497e-09
5.4671879e-09
5.5570273e-09
5.6278789e-09
5.750483e-09
5.8874712e-09
6.0645647e-09
6.271354e-09
6.5147129e-09
6.7896183e-09
7.0899024e-09
7.3960879e-09
7.6826889e-09
7.9246105e-09
8.105558e-09
8.2114267e-09
8.2507157e-09
8.2485652e-09
8.2163507e-09
8.1644014e-09
8.1224103e-09
8.1008463e-09
8.1239664e-09
8.2206922e-09
8.2784068e-09
8.280541e-09
8.0467116e-09
7.7245745e-09
7.5363443e-09
7.4354392e-09
7.3864138e-09
7.3643266e-09
7.3549854e-09
7.3512519e-09
7.3498351e-09
7.3493238e-09
7.3491498e-09
7.3490944e-09
7.349078e-09
7.3490736e-09
7.3490726e-09
0.0010878728
0.0019247331
0.0016082057
0.00041011152
1.2367533e-07
6.1287973e-09
5.6465471e-09
5.6091652e-09
5.4901229e-09
5.5483344e-09
5.5548339e-09
5.6497878e-09
5.7290275e-09
5.8590657e-09
6.0066234e-09
6.1951747e-09
6.4154442e-09
6.6726096e-09
6.9600226e-09
7.2678739e-09
7.5736524e-09
7.8513787e-09
8.078618e-09
8.2366451e-09
8.3155754e-09
8.3339953e-09
8.3153378e-09
8.26787e-09
8.203101e-09
8.1563303e-09
8.134148e-09
8.1635651e-09
8.2542726e-09
8.2990762e-09
8.2799497e-09
8.0131709e-09
7.7038658e-09
7.5249101e-09
7.4301383e-09
7.3842386e-09
7.363528e-09
7.3547246e-09
7.351178e-09
7.349819e-09
7.3493224e-09
7.3491508e-09
7.3490951e-09
7.3490783e-09
7.3490737e-09
7.3490726e-09
0.0010834977
0.0018576372
0.0014581558
0.0003167214
4.8403783e-08
6.1657157e-09
5.7137747e-09
5.680687e-09
5.5701345e-09
5.6332828e-09
5.6473955e-09
5.7479732e-09
5.8362721e-09
5.9746932e-09
6.1334858e-09
6.3342467e-09
6.5686207e-09
6.8397835e-09
7.1388973e-09
7.4521807e-09
7.7546877e-09
8.0210636e-09
8.2306308e-09
8.3619382e-09
8.4137219e-09
8.4132069e-09
8.3775653e-09
8.3149304e-09
8.2381596e-09
8.1883803e-09
8.1666167e-09
8.202321e-09
8.2845936e-09
8.3218754e-09
8.2773245e-09
7.9787286e-09
7.6836463e-09
7.5141174e-09
7.425206e-09
7.3822297e-09
7.3627929e-09
7.3544852e-09
7.3511107e-09
7.3498047e-09
7.3493214e-09
7.3491518e-09
7.3490959e-09
7.3490786e-09
7.3490738e-09
7.3490727e-09
0.0010789248
0.001782807
0.0013097594
0.00023242235
2.3379936e-08
6.2161298e-09
5.7843662e-09
5.7560552e-09
5.6544986e-09
5.7231617e-09
5.7454767e-09
5.8523418e-09
5.9503976e-09
6.0977956e-09
6.2687176e-09
6.4825463e-09
6.7316235e-09
7.0167454e-09
7.3262297e-09
7.6423435e-09
7.938574e-09
8.1913373e-09
8.3786469e-09
8.4801916e-09
8.5070962e-09
8.4876835e-09
8.4351675e-09
8.3573379e-09
8.2700604e-09
8.2187758e-09
8.1983254e-09
8.2396732e-09
8.3132456e-09
8.3450818e-09
8.2690269e-09
7.9440425e-09
7.6640379e-09
7.5039869e-09
7.4206365e-09
7.3803794e-09
7.3621175e-09
7.3542658e-09
7.3510497e-09
7.3497921e-09
7.3493208e-09
7.3491531e-09
7.3490967e-09
7.349079e-09
7.349074e-09
7.3490728e-09
0.0010759173
0.0017129217
0.0011602591
0.00015636266
1.4089024e-08
6.2747233e-09
5.8586234e-09
5.8359603e-09
5.7440555e-09
5.8186867e-09
5.8499117e-09
5.9635006e-09
6.0719654e-09
6.2292803e-09
6.4129959e-09
6.6406266e-09
6.9048138e-09
7.2034432e-09
7.5214584e-09
7.8374271e-09
8.1244511e-09
8.3608116e-09
8.5207674e-09
8.5913481e-09
8.5959499e-09
8.5570086e-09
8.4879261e-09
8.3948133e-09
8.2994615e-09
8.247761e-09
8.2293395e-09
8.2756407e-09
8.3408178e-09
8.3651214e-09
8.2554483e-09
7.9097841e-09
7.6452106e-09
7.4945266e-09
7.4164133e-09
7.3786763e-09
7.3614968e-09
7.3540648e-09
7.3509944e-09
7.3497811e-09
7.3493207e-09
7.3491545e-09
7.3490976e-09
7.3490794e-09
7.3490741e-09
7.3490728e-09
0.0010738121
0.001641773
0.0010117615
8.9847488e-05
1.0201117e-08
6.3384028e-09
5.9374492e-09
5.9212999e-09
5.839629e-09
5.9207228e-09
5.9612922e-09
6.0821543e-09
6.2016763e-09
6.3695868e-09
6.5670772e-09
6.8093209e-09
7.0888519e-09
7.4000718e-09
7.7241867e-09
8.0368128e-09
8.3117466e-09
8.5272432e-09
8.6554932e-09
8.6966478e-09
8.6794426e-09
8.6212037e-09
8.5357722e-09
8.4277493e-09
8.3265345e-09
8.2755445e-09
8.2597546e-09
8.310479e-09
8.3672489e-09
8.3831798e-09
8.2366203e-09
7.8766824e-09
7.6273741e-09
7.4857531e-09
7.4125238e-09
7.3771112e-09
7.360927e-09
7.3538808e-09
7.3509446e-09
7.3497717e-09
7.3493212e-09
7.349156e-09
7.3490986e-09
7.3490799e-09
7.3490743e-09
7.3490729e-09
0.0010727295
0.0015660892
0.00086764013
4.030237e-05
8.4626647e-09
6.4072644e-09
6.0222157e-09
6.0130643e-09
5.9418914e-09
6.0295767e-09
6.0801387e-09
6.2087768e-09
6.3401291e-09
6.5197267e-09
6.7316964e-09
6.9891771e-09
7.283901e-09
7.6062183e-09
7.9335163e-09
8.2395175e-09
8.4995927e-09
8.6880606e-09
8.7819459e-09
8.7970006e-09
8.7569505e-09
8.6802006e-09
8.5786067e-09
8.4564349e-09
8.35165e-09
8.3023792e-09
8.2897352e-09
8.3442456e-09
8.3917032e-09
8.3986706e-09
8.2125949e-09
7.8454651e-09
7.6106919e-09
7.4776509e-09
7.408944e-09
7.3756721e-09
7.3604037e-09
7.3537126e-09
7.3508997e-09
7.3497637e-09
7.349322e-09
7.3491577e-09
7.3490996e-09
7.3490804e-09
7.3490745e-09
7.349073e-09
0.0010731456
0.0014855572
0.0007309578
1.3569518e-05
7.6759929e-09
6.4810353e-09
6.1127809e-09
6.1112973e-09
6.0509803e-09
6.145665e-09
6.2069357e-09
6.3441989e-09
6.4881787e-09
6.6803165e-09
6.9077508e-09
7.1809991e-09
7.4903455e-09
7.8216149e-09
8.148765e-09
8.4447406e-09
8.6856481e-09
8.8415118e-09