/*--------------------------------*- C++ -*----------------------------------*\
  =========                 |
  \\      /  F ield         | OpenFOAM: The Open Source CFD Toolbox
   \\    /   O peration     | Website:  https://openfoam.org
    \\  /    A nd           | Version:  8
     \\/     M anipulation  |
\*---------------------------------------------------------------------------*/
FoamFile
{
    version     2.0;
    format      ascii;
    class       volScalarField;
    location    "0.0099963";
    object      nuTilda;
}
// * * * * * * * * * * * * * * * * * * * * * * * * * * * * * * * * * * * * * //

dimensions      [0 2 -1 0 0 0 0];

internalField   nonuniform List<scalar> 
20000
(
0.0010919461
0.0029097902
0.0040724493
0.0046644791
0.0045394775
0.003441402
0.0011128171
5.9605034e-05
1.0239455e-05
1.0121626e-05
1.005139e-05
1.0052616e-05
1.0020912e-05
1.0028216e-05
1.0019048e-05
1.0020544e-05
1.0014695e-05
1.0011502e-05
1.0006952e-05
1.0004474e-05
1.000327e-05
1.0002988e-05
1.0002999e-05
1.0003412e-05
1.00039e-05
1.0004207e-05
1.0004263e-05
1.0004525e-05
1.0005457e-05
1.0006006e-05
1.0006082e-05
1.0006175e-05
1.0007475e-05
1.0008679e-05
1.0005024e-05
1.0003841e-05
1.0002705e-05
1.0001624e-05
1.0000816e-05
1.0000218e-05
1.0000094e-05
1.0000036e-05
1.0000016e-05
1.0000003e-05
1.0000001e-05
1e-05
1e-05
1e-05
1e-05
1e-05
0.0010963631
0.0028856332
0.0040231697
0.0045873062
0.004422311
0.0032812885
0.00096759768
4.5849989e-05
1.0201255e-05
1.0121839e-05
1.0049783e-05
1.0051309e-05
1.002062e-05
1.0027912e-05
1.0018766e-05
1.0020341e-05
1.0014642e-05
1.001149e-05
1.0006957e-05
1.000444e-05
1.0003213e-05
1.000293e-05
1.000294e-05
1.0003339e-05
1.0003813e-05
1.0004132e-05
1.000419e-05
1.000447e-05
1.0005355e-05
1.0005891e-05
1.0005979e-05
1.0006044e-05
1.0007279e-05
1.000873e-05
1.0005059e-05
1.0003805e-05
1.0002767e-05
1.0001419e-05
1.0000689e-05
1.0000135e-05
1.0000047e-05
1.0000011e-05
1.0000003e-05
1.0000001e-05
1e-05
9.9999999e-06
9.9999999e-06
1e-05
1e-05
1e-05
0.0011026935
0.0028716328
0.0039797793
0.0045074504
0.0042997196
0.0030975865
0.00081762645
3.4886602e-05
1.0176967e-05
1.0120845e-05
1.004934e-05
1.0050164e-05
1.0020394e-05
1.0027546e-05
1.001849e-05
1.0020102e-05
1.0014557e-05
1.0011448e-05
1.0006941e-05
1.0004402e-05
1.0003165e-05
1.0002882e-05
1.0002896e-05
1.0003286e-05
1.0003739e-05
1.0004039e-05
1.0004114e-05
1.0004411e-05
1.0005293e-05
1.0005849e-05
1.0005939e-05
1.0005972e-05
1.0007118e-05
1.000877e-05
1.0005028e-05
1.0003893e-05
1.0002763e-05
1.0001294e-05
1.0000648e-05
1.0000126e-05
1.0000046e-05
1.0000012e-05
1.0000005e-05
1.0000001e-05
1e-05
9.9999999e-06
9.9999999e-06
1e-05
1e-05
1e-05
0.0011055454
0.0028557865
0.0039357254
0.004425773
0.0041770363
0.0029086074
0.00068859728
2.6965842e-05
1.016074e-05
1.0119816e-05
1.0048751e-05
1.0049781e-05
1.002014e-05
1.0027176e-05
1.0018221e-05
1.0019859e-05
1.0014476e-05
1.0011403e-05
1.0006928e-05
1.0004362e-05
1.0003112e-05
1.000283e-05
1.0002847e-05
1.0003227e-05
1.0003663e-05
1.0003965e-05
1.0004044e-05
1.0004353e-05
1.0005213e-05
1.0005777e-05
1.0005876e-05
1.0005901e-05
1.0006904e-05
1.0008693e-05
1.000503e-05
1.0003979e-05
1.0002544e-05
1.000136e-05
1.0000519e-05
1.0000136e-05
1.0000052e-05
1.0000014e-05
1.0000003e-05
1.0000001e-05
1e-05
9.9999999e-06
9.9999999e-06
1e-05
1e-05
1e-05
0.0011072687
0.0028400394
0.0038924142
0.0043477107
0.0040533454
0.0027115088
0.00056994701
2.1259401e-05
1.0150383e-05
1.0118559e-05
1.0048175e-05
1.004928e-05
1.0019939e-05
1.0026796e-05
1.0017958e-05
1.001961e-05
1.0014389e-05
1.0011355e-05
1.0006914e-05
1.0004323e-05
1.0003062e-05
1.0002779e-05
1.0002801e-05
1.0003172e-05
1.0003591e-05
1.0003886e-05
1.0003975e-05
1.0004291e-05
1.0005138e-05
1.0005709e-05
1.0005821e-05
1.0005844e-05
1.0006706e-05
1.0008477e-05
1.0005026e-05
1.0004057e-05
1.0002426e-05
1.0001287e-05
1.0000385e-05
1.0000137e-05
1.0000051e-05
1.0000014e-05
1.0000002e-05
1e-05
1e-05
9.9999999e-06
9.9999999e-06
1e-05
1e-05
1e-05
0.0011081547
0.0028234171
0.0038476477
0.0042676968
0.003928844
0.002507149
0.00046448789
1.7302122e-05
1.0143392e-05
1.0117148e-05
1.0047564e-05
1.0048742e-05
1.0019765e-05
1.0026406e-05
1.0017703e-05
1.0019355e-05
1.00143e-05
1.0011303e-05
1.00069e-05
1.0004285e-05
1.0003011e-05
1.0002728e-05
1.0002756e-05
1.0003118e-05
1.000352e-05
1.0003805e-05
1.0003908e-05
1.0004229e-05
1.0005059e-05
1.0005636e-05
1.0005763e-05
1.0005794e-05
1.0006511e-05
1.0008023e-05
1.0005019e-05
1.0004133e-05
1.000242e-05
1.0001213e-05
1.0000268e-05
1.0000139e-05
1.0000053e-05
1.0000014e-05
1.0000001e-05
1e-05
1e-05
9.9999999e-06
9.9999999e-06
1e-05
1e-05
1e-05
0.0011086456
0.0028063344
0.0038016759
0.0041863222
0.0038036315
0.0022964025
0.0003722258
1.4644546e-05
1.0138251e-05
1.0115603e-05
1.004693e-05
1.0048163e-05
1.0019614e-05
1.0026007e-05
1.0017455e-05
1.0019095e-05
1.0014207e-05
1.0011246e-05
1.0006885e-05
1.0004249e-05
1.0002962e-05
1.0002678e-05
1.0002713e-05
1.0003066e-05
1.0003452e-05
1.0003732e-05
1.0003845e-05
1.0004167e-05
1.0004979e-05
1.0005562e-05
1.0005704e-05
1.0005749e-05
1.0006338e-05
1.0007604e-05
1.0005007e-05
1.0004205e-05
1.0002495e-05
1.0001251e-05
1.0000269e-05
1.000014e-05
1.0000053e-05
1.0000015e-05
1.0000001e-05
1e-05
1e-05
9.9999999e-06
9.9999999e-06
1e-05
1e-05
1e-05
0.0011088731
0.0027885132
0.003753921
0.0041030157
0.0036775945
0.0020812976
0.00029330068
1.2917769e-05
1.0134207e-05
1.011396e-05
1.0046271e-05
1.0047544e-05
1.0019451e-05
1.00256e-05
1.0017215e-05
1.001883e-05
1.0014112e-05
1.0011187e-05
1.0006871e-05
1.0004214e-05
1.0002914e-05
1.0002629e-05
1.0002671e-05
1.0003016e-05
1.0003386e-05
1.0003663e-05
1.0003786e-05
1.0004106e-05
1.0004896e-05
1.0005484e-05
1.0005643e-05
1.0005706e-05
1.0006195e-05
1.0007265e-05
1.0004996e-05
1.0004283e-05
1.0002584e-05
1.0001314e-05
1.0000275e-05
1.0000141e-05
1.0000054e-05
1.0000015e-05
1.0000001e-05
1e-05
1e-05
1e-05
9.9999999e-06
1e-05
1e-05
1e-05
0.0011089468
0.0027704185
0.0037051131
0.0040172951
0.0035498229
0.0018651179
0.00022728838
1.1830825e-05
1.0130787e-05
1.011219e-05
1.004559e-05
1.0046888e-05
1.0019285e-05
1.0025186e-05
1.0016982e-05
1.0018561e-05
1.0014013e-05
1.0011123e-05
1.0006856e-05
1.0004181e-05
1.0002868e-05
1.0002581e-05
1.0002632e-05
1.0002967e-05
1.0003321e-05
1.0003595e-05
1.0003729e-05
1.0004045e-05
1.000481e-05
1.0005403e-05
1.0005583e-05
1.0005663e-05
1.0006058e-05
1.0006909e-05
1.0004987e-05
1.0004343e-05
1.0002661e-05
1.0001364e-05
1.0000279e-05
1.0000141e-05
1.0000054e-05
1.0000015e-05
1.0000002e-05
1e-05
1e-05
1e-05
1e-05
1e-05
1e-05
1e-05
0.0011089995
0.0027520578
0.0036552096
0.0039285056
0.0034192067
0.0016566695
0.00017341046
1.116673e-05
1.0127715e-05
1.0110289e-05
1.004489e-05
1.0046194e-05
1.001912e-05
1.0024766e-05
1.0016757e-05
1.0018288e-05
1.0013912e-05
1.0011057e-05
1.0006842e-05
1.000415e-05
1.0002824e-05
1.0002534e-05
1.0002592e-05
1.0002919e-05
1.0003258e-05
1.0003529e-05
1.0003674e-05
1.0003985e-05
1.0004722e-05
1.0005318e-05
1.0005522e-05
1.0005615e-05
1.0005908e-05
1.0006506e-05
1.0004973e-05
1.0004358e-05
1.0002707e-05
1.0001406e-05
1.0000281e-05
1.000014e-05
1.0000053e-05
1.0000015e-05
1.0000002e-05
1e-05
1e-05
1e-05
1e-05
1e-05
1e-05
1e-05
0.0011092159
0.0027338648
0.0036045601
0.003836286
0.0032840251
0.0014562714
0.00013023753
1.0771168e-05
1.0124817e-05
1.0108279e-05
1.0044171e-05
1.0045468e-05
1.0018956e-05
1.0024339e-05
1.0016538e-05
1.0018013e-05
1.0013809e-05
1.0010987e-05
1.0006827e-05
1.0004121e-05
1.0002782e-05
1.0002489e-05
1.0002553e-05
1.0002874e-05
1.0003196e-05
1.0003463e-05
1.0003621e-05
1.0003927e-05
1.0004633e-05
1.0005231e-05
1.0005462e-05
1.0005571e-05
1.0005749e-05
1.0006095e-05
1.0004953e-05
1.0004384e-05
1.000274e-05
1.0001434e-05
1.0000282e-05
1.0000138e-05
1.0000053e-05
1.0000015e-05
1.0000003e-05
1.0000001e-05
1e-05
1e-05
1e-05
1e-05
1e-05
1e-05
0.0011096305
0.0027157818
0.0035537872
0.0037415043
0.0031440712
0.0012661889
9.6517307e-05
1.054107e-05
1.0121999e-05
1.0106173e-05
1.0043436e-05
1.0044712e-05
1.0018792e-05
1.0023909e-05
1.0016328e-05
1.0017736e-05
1.0013702e-05
1.0010915e-05
1.0006813e-05
1.0004094e-05
1.0002742e-05
1.0002447e-05
1.0002513e-05
1.0002829e-05
1.0003136e-05
1.0003398e-05
1.000357e-05
1.0003869e-05
1.0004543e-05
1.0005147e-05
1.0005403e-05
1.0005534e-05
1.0005598e-05
1.000573e-05
1.0004926e-05
1.0004445e-05
1.0002685e-05
1.0001332e-05
1.0000285e-05
1.0000136e-05
1.0000052e-05
1.0000015e-05
1.0000003e-05
1.0000001e-05
1e-05
1e-05
1e-05
1e-05
1e-05
1e-05
0.0011100744
0.0026980147
0.0035034192
0.0036493463
0.0029981385
0.0010872593
7.0808372e-05
1.0409216e-05
1.0119209e-05
1.0103977e-05
1.0042687e-05
1.0043926e-05
1.0018629e-05
1.0023474e-05
1.0016124e-05
1.0017456e-05
1.0013593e-05
1.0010839e-05
1.0006798e-05
1.000407e-05
1.0002705e-05
1.0002407e-05
1.0002475e-05
1.0002787e-05
1.0003077e-05
1.0003334e-05
1.0003519e-05
1.0003813e-05
1.0004451e-05
1.0005065e-05
1.0005342e-05
1.0005499e-05
1.0005473e-05
1.0005449e-05
1.0004884e-05
1.0004428e-05
1.0002674e-05
1.0001093e-05
1.0000286e-05
1.0000134e-05
1.0000051e-05
1.0000015e-05
1.0000003e-05
1.0000001e-05
1e-05
1e-05
1e-05
1e-05
1e-05
1e-05
0.0011106026
0.002680211
0.0034528838
0.0035541452
0.0028425893
0.00092155669
5.1734542e-05
1.0334003e-05
1.0116432e-05
1.010171e-05
1.0041926e-05
1.0043118e-05
1.0018469e-05
1.0023036e-05
1.0015927e-05
1.0017177e-05
1.0013482e-05
1.0010762e-05
1.0006783e-05
1.0004048e-05
1.0002671e-05
1.0002369e-05
1.0002438e-05
1.0002745e-05
1.000302e-05
1.0003269e-05
1.0003469e-05
1.0003757e-05
1.0004358e-05
1.0004983e-05
1.000528e-05
1.0005459e-05
1.0005381e-05
1.0005253e-05
1.0004833e-05
1.000446e-05
1.0002746e-05
1.0000795e-05
1.0000287e-05
1.0000131e-05
1.0000049e-05
1.0000014e-05
1.0000004e-05
1.0000001e-05
1e-05
1e-05
1e-05
1e-05
1e-05
1e-05
0.0011109672
0.0026621667
0.0034031713
0.0034556714
0.0026770842
0.00077085855
3.7949127e-05
1.0290492e-05
1.0113664e-05
1.0099372e-05
1.0041155e-05
1.0042286e-05
1.001831e-05
1.0022597e-05
1.0015736e-05
1.0016897e-05
1.0013368e-05
1.0010682e-05
1.0006768e-05
1.0004029e-05
1.000264e-05
1.0002335e-05
1.0002402e-05
1.0002705e-05
1.0002964e-05
1.0003205e-05
1.0003419e-05
1.0003703e-05
1.0004265e-05
1.0004902e-05
1.0005217e-05
1.0005418e-05
1.0005314e-05
1.0005122e-05
1.0004785e-05
1.0004492e-05
1.0002729e-05
1.0000522e-05
1.0000284e-05
1.0000128e-05
1.0000048e-05
1.0000014e-05
1.0000004e-05
1.0000001e-05
1e-05
1e-05
1e-05
1e-05
1e-05
1e-05
0.0011112381
0.0026429856
0.0033493605
0.0033545793
0.0025018724
0.00063843263
2.8240417e-05
1.0264382e-05
1.0110904e-05
1.0096971e-05
1.0040375e-05
1.0041434e-05
1.0018154e-05
1.0022156e-05
1.0015551e-05
1.0016617e-05
1.0013253e-05
1.00106e-05
1.0006753e-05
1.0004013e-05
1.0002613e-05
1.0002304e-05
1.0002368e-05
1.0002666e-05
1.0002909e-05
1.0003141e-05
1.0003368e-05
1.000365e-05
1.0004175e-05
1.0004821e-05
1.0005156e-05
1.0005375e-05
1.0005263e-05
1.0005027e-05
1.0004742e-05
1.0004513e-05
1.0002737e-05
1.0000429e-05
1.0000279e-05
1.0000124e-05
1.0000046e-05
1.0000013e-05
1.0000004e-05
1.0000001e-05
1e-05
1e-05
1e-05
1e-05
1e-05
1e-05
0.0011115527
0.0026234091
0.0032947127
0.0032523655
0.0023174555
0.00052126458
2.1579434e-05
1.0247772e-05
1.0108151e-05
1.0094522e-05
1.0039589e-05
1.0040567e-05
1.0018002e-05
1.0021715e-05
1.0015372e-05
1.0016339e-05
1.0013135e-05
1.0010517e-05
1.0006737e-05
1.0004e-05
1.0002588e-05
1.0002275e-05
1.0002336e-05
1.0002628e-05
1.0002856e-05
1.0003077e-05
1.0003317e-05
1.0003598e-05
1.0004088e-05
1.0004738e-05
1.0005095e-05
1.000533e-05
1.0005225e-05
1.0004955e-05
1.0004704e-05
1.0004495e-05
1.00028e-05
1.0000436e-05
1.0000272e-05
1.000012e-05
1.0000044e-05
1.0000013e-05
1.0000004e-05
1.0000001e-05
1e-05
1e-05
1e-05
1e-05
1e-05
1e-05
0.0011118852
0.0026029041
0.003238392
0.0031484771
0.0021246137
0.00041642795
1.7123947e-05
1.0236264e-05
1.0105403e-05
1.0092028e-05
1.0038799e-05
1.0039686e-05
1.0017852e-05
1.0021281e-05
1.0015199e-05
1.0016064e-05
1.0013016e-05
1.0010432e-05
1.0006722e-05
1.0003989e-05
1.0002567e-05
1.0002249e-05
1.0002305e-05
1.000259e-05
1.0002804e-05
1.0003014e-05
1.0003265e-05
1.0003548e-05
1.0004006e-05
1.0004654e-05
1.0005034e-05
1.0005287e-05
1.0005197e-05
1.0004902e-05
1.0004672e-05
1.0004347e-05
1.0002831e-05
1.000044e-05
1.0000265e-05
1.0000116e-05
1.0000042e-05
1.0000012e-05
1.0000005e-05
1.0000001e-05
1e-05
1e-05
1e-05
1e-05
1e-05
1e-05
0.0011121458
0.0025808996
0.0031791674
0.0030368481
0.0019255102
0.00032571568
1.4271969e-05
1.0227517e-05
1.0102661e-05
1.0089507e-05
1.0038006e-05
1.0038797e-05
1.0017707e-05
1.0020869e-05
1.001503e-05
1.001579e-05
1.0012895e-05
1.0010347e-05
1.0006707e-05
1.0003981e-05
1.0002549e-05
1.0002226e-05
1.0002276e-05
1.0002554e-05
1.0002753e-05
1.0002951e-05
1.0003211e-05
1.0003498e-05
1.0003926e-05
1.0004566e-05
1.0004974e-05
1.0005249e-05
1.0005174e-05
1.0004863e-05
1.0004646e-05
1.0004259e-05
1.0002808e-05
1.0000445e-05
1.0000257e-05
1.0000112e-05
1.000004e-05
1.0000011e-05
1.0000005e-05
1.0000001e-05
1e-05
1e-05
1e-05
1e-05
1e-05
1e-05
0.0011121803
0.0025570363
0.0031169461
0.0029213907
0.00172371
0.00024906954
1.2520039e-05
1.0220162e-05
1.0099925e-05
1.0086963e-05
1.0037212e-05
1.0037902e-05
1.0017565e-05
1.0020473e-05
1.0014866e-05
1.0015521e-05
1.0012772e-05
1.0010261e-05
1.0006692e-05
1.0003976e-05
1.0002534e-05
1.0002205e-05
1.0002249e-05
1.0002518e-05
1.0002704e-05
1.0002888e-05
1.0003157e-05
1.0003448e-05
1.0003847e-05
1.0004474e-05
1.0004913e-05
1.0005211e-05
1.0005148e-05
1.0004832e-05
1.0004603e-05
1.0004261e-05
1.0002516e-05
1.000045e-05
1.0000249e-05
1.0000107e-05
1.0000038e-05
1.0000011e-05
1.0000005e-05
1.0000001e-05
1e-05
1e-05
1e-05
1e-05
1e-05
1e-05
0.0011119255
0.0025312121
0.0030490192
0.0028039312
0.0015222117
0.00018599013
1.1486077e-05
1.0213378e-05
1.0097196e-05
1.0084403e-05
1.003642e-05
1.0037004e-05
1.0017428e-05
1.0020067e-05
1.0014706e-05
1.0015254e-05
1.0012649e-05
1.0010174e-05
1.0006677e-05
1.0003973e-05
1.0002523e-05
1.0002186e-05
1.0002224e-05
1.0002483e-05
1.0002657e-05
1.0002827e-05
1.0003102e-05
1.0003398e-05
1.0003766e-05
1.0004378e-05
1.0004852e-05
1.0005164e-05
1.0005123e-05
1.00048e-05
1.0004579e-05
1.0004221e-05
1.0002031e-05
1.0000452e-05
1.000024e-05
1.0000102e-05
1.0000036e-05
1.000001e-05
1.0000005e-05
1.0000001e-05
1e-05
1e-05
1e-05
1e-05
1e-05
1e-05
0.0011115159
0.0025048227
0.0029781272
0.0026826809
0.0013242302
0.00013559279
1.0899721e-05
1.0206674e-05
1.0094478e-05
1.0081836e-05
1.003563e-05
1.0036105e-05
1.0017297e-05
1.0019646e-05
1.0014549e-05
1.0014992e-05
1.0012524e-05
1.0010087e-05
1.0006662e-05
1.0003973e-05
1.0002514e-05
1.000217e-05
1.0002201e-05
1.0002448e-05
1.0002611e-05
1.0002766e-05
1.0003045e-05
1.0003347e-05
1.0003684e-05
1.0004278e-05
1.0004791e-05
1.0005115e-05
1.0005102e-05
1.0004764e-05
1.0004534e-05
1.0004143e-05
1.0001428e-05
1.0000449e-05
1.0000232e-05
1.0000098e-05
1.0000034e-05
1.0000009e-05
1.0000005e-05
1.0000001e-05
1e-05
1e-05
1e-05
1e-05
1e-05
1e-05
0.0011110196
0.0024783088
0.0029091056
0.0025548104
0.0011331163
9.6511883e-05
1.0580058e-05
1.0199933e-05
1.0091769e-05
1.0079262e-05
1.0034845e-05
1.0035208e-05
1.0017171e-05
1.0019242e-05
1.0014395e-05
1.0014735e-05
1.0012399e-05
1.001e-05
1.0006647e-05
1.0003976e-05
1.0002509e-05
1.0002156e-05
1.0002179e-05
1.0002414e-05
1.0002566e-05
1.0002708e-05
1.0002989e-05
1.0003296e-05
1.0003603e-05
1.0004174e-05
1.0004732e-05
1.0005067e-05
1.000508e-05
1.0004733e-05
1.0004474e-05
1.0004045e-05
1.000097e-05
1.0000442e-05
1.0000223e-05
1.0000093e-05
1.0000032e-05
1.0000008e-05
1.0000005e-05
1.0000001e-05
1e-05
1e-05
1e-05
1e-05
1e-05
1e-05
0.0011102233
0.0024500926
0.0028361258
0.0024185331
0.00095300438
6.7430619e-05
1.0412214e-05
1.0193942e-05
1.0089074e-05
1.0076694e-05
1.0034067e-05
1.0034317e-05
1.0017051e-05
1.0018864e-05
1.0014244e-05
1.0014483e-05
1.0012272e-05
1.0009914e-05
1.0006633e-05
1.0003982e-05
1.0002507e-05
1.0002143e-05
1.0002159e-05
1.0002381e-05
1.0002523e-05
1.0002651e-05
1.0002933e-05
1.0003245e-05
1.0003524e-05
1.0004071e-05
1.0004674e-05
1.0005018e-05
1.0005056e-05
1.0004704e-05
1.0004402e-05
1.0003993e-05
1.0000665e-05
1.0000431e-05
1.0000214e-05
1.0000088e-05
1.000003e-05
1.0000008e-05
1.0000004e-05
1.0000001e-05
1e-05
1e-05
1e-05
1e-05
1e-05
1e-05
0.0011093269
0.0024211336
0.0027604763
0.0022749214
0.00078671757
4.6632707e-05
1.0325423e-05
1.0188249e-05
1.0086386e-05
1.0074132e-05
1.0033298e-05
1.0033432e-05
1.0016938e-05
1.0018484e-05
1.0014095e-05
1.0014236e-05
1.0012146e-05
1.0009829e-05
1.0006619e-05
1.000399e-05
1.0002508e-05
1.0002133e-05
1.000214e-05
1.0002348e-05
1.0002481e-05
1.0002595e-05
1.0002877e-05
1.0003195e-05
1.0003449e-05
1.0003969e-05
1.0004619e-05
1.0004967e-05
1.0005029e-05
1.0004676e-05
1.000433e-05
1.0004066e-05
1.0000584e-05
1.0000418e-05
1.0000205e-05
1.0000084e-05
1.0000028e-05
1.0000007e-05
1.0000004e-05
1.0000001e-05
1e-05
1e-05
1e-05
1e-05
1e-05
1e-05
0.0011084565
0.0023918529
0.0026822762
0.0021258085
0.00063813638
3.2580299e-05
1.0279696e-05
1.0182465e-05
1.0083707e-05
1.0071599e-05
1.0032539e-05
1.0032561e-05
1.0016832e-05
1.0018103e-05
1.0013949e-05
1.0013995e-05
1.001202e-05
1.0009744e-05
1.0006605e-05
1.0004e-05
1.0002512e-05
1.0002124e-05
1.0002121e-05
1.0002316e-05
1.0002441e-05
1.0002543e-05
1.0002822e-05
1.0003146e-05
1.000338e-05
1.0003872e-05
1.0004566e-05
1.0004913e-05
1.0005002e-05
1.0004642e-05
1.0004261e-05
1.0004095e-05
1.0000584e-05
1.0000402e-05
1.0000196e-05
1.0000079e-05
1.0000026e-05
1.0000006e-05
1.0000004e-05
1.0000001e-05
1e-05
1e-05
1e-05
1e-05
1e-05
1e-05
0.0011076225
0.0023629748
0.0026036573
0.0019668079
0.00050956414
2.3651468e-05
1.0254126e-05
1.0176667e-05
1.0081041e-05
1.0069113e-05
1.0031793e-05
1.0031705e-05
1.0016734e-05
1.001774e-05
1.0013803e-05
1.001376e-05
1.0011893e-05
1.0009661e-05
1.0006592e-05
1.0004013e-05
1.0002519e-05
1.0002117e-05
1.0002103e-05
1.0002285e-05
1.0002402e-05
1.0002493e-05
1.0002769e-05
1.0003097e-05
1.0003317e-05
1.0003781e-05
1.0004516e-05
1.0004862e-05
1.0004972e-05
1.0004605e-05
1.0004217e-05
1.000365e-05
1.0000582e-05
1.0000385e-05
1.0000186e-05
1.0000075e-05
1.0000025e-05
1.0000006e-05
1.0000004e-05
1.0000001e-05
1e-05
1e-05
1e-05
1e-05
1e-05
1e-05
0.0011069462
0.0023341511
0.0025340557
0.0017987526
0.00040189566
1.8256691e-05
1.0238062e-05
1.0170829e-05
1.0078387e-05
1.006667e-05
1.0031061e-05
1.0030864e-05
1.0016644e-05
1.0017392e-05
1.001366e-05
1.001353e-05
1.0011767e-05
1.0009579e-05
1.000658e-05
1.0004028e-05
1.0002529e-05
1.000211e-05
1.0002086e-05
1.0002254e-05
1.0002365e-05
1.0002447e-05
1.0002717e-05
1.0003048e-05
1.0003259e-05
1.0003698e-05
1.0004468e-05
1.0004814e-05
1.000494e-05
1.000456e-05
1.0004195e-05
1.0002976e-05
1.0000584e-05
1.0000368e-05
1.0000177e-05
1.0000071e-05
1.0000023e-05
1.0000005e-05
1.0000004e-05
1.0000001e-05
1e-05
1e-05
1e-05
1e-05
1e-05
1e-05
0.0011060802
0.002302785
0.0024542438
0.0016211986
0.00030935868
1.4878897e-05
1.0226533e-05
1.0164972e-05
1.007575e-05
1.006426e-05
1.0030347e-05
1.0030045e-05
1.0016563e-05
1.001705e-05
1.0013513e-05
1.0013304e-05
1.0011642e-05
1.0009499e-05
1.0006568e-05
1.0004046e-05
1.0002542e-05
1.0002105e-05
1.000207e-05
1.0002224e-05
1.0002329e-05
1.0002405e-05
1.0002668e-05
1.0003e-05
1.0003206e-05
1.0003623e-05
1.0004421e-05
1.0004768e-05
1.0004904e-05
1.0004506e-05
1.0004184e-05
1.0002141e-05
1.0000588e-05
1.0000351e-05
1.0000168e-05
1.0000067e-05
1.0000022e-05
1.0000005e-05
1.0000003e-05
1.0000001e-05
1e-05
1e-05
1e-05
1e-05
1e-05
1e-05
0.0011054222
0.0022706024
0.0023753645
0.0014391692
0.00023281374
1.2864038e-05
1.0217351e-05
1.015909e-05
1.007313e-05
1.0061891e-05
1.0029651e-05
1.0029246e-05
1.0016492e-05
1.0016721e-05
1.0013365e-05
1.0013067e-05
1.0011518e-05
1.0009421e-05
1.0006558e-05
1.0004065e-05
1.0002557e-05
1.0002101e-05
1.0002054e-05
1.0002194e-05
1.0002294e-05
1.0002365e-05
1.0002619e-05
1.0002953e-05
1.0003157e-05
1.0003557e-05
1.0004373e-05
1.0004722e-05
1.0004867e-05
1.0004443e-05
1.0004195e-05
1.000151e-05
1.0000583e-05
1.0000334e-05
1.0000158e-05
1.0000063e-05
1.000002e-05
1.0000005e-05
1.0000003e-05
1.0000001e-05
1e-05
1e-05
1e-05
1e-05
1e-05
1e-05
0.0011047416
0.0022365107
0.0022925502
0.0012580334
0.00017118499
1.1708767e-05
1.0209348e-05
1.0153193e-05
1.0070529e-05
1.0059568e-05
1.0028977e-05
1.0028473e-05
1.0016431e-05
1.0016404e-05
1.0013218e-05
1.0012832e-05
1.0011394e-05
1.0009345e-05
1.0006548e-05
1.0004086e-05
1.0002574e-05
1.0002099e-05
1.0002037e-05
1.0002165e-05
1.0002261e-05
1.0002326e-05
1.0002572e-05
1.0002905e-05
1.000311e-05
1.0003499e-05
1.0004326e-05
1.0004677e-05
1.000483e-05
1.0004371e-05
1.0004208e-05
1.0001081e-05
1.0000576e-05
1.0000317e-05
1.0000149e-05
1.0000059e-05
1.0000019e-05
1.0000004e-05
1.0000003e-05
1.0000001e-05
1e-05
1e-05
1e-05
1e-05
1e-05
1e-05
0.0011039076
0.0021983519
0.0022057737
0.0010882071
0.00012348863
1.1071475e-05
1.0201903e-05
1.0147292e-05
1.0067951e-05
1.0057297e-05
1.0028325e-05
1.0027725e-05
1.001638e-05
1.0016092e-05
1.0013072e-05
1.001262e-05
1.0011272e-05
1.0009271e-05
1.000654e-05
1.0004109e-05
1.0002594e-05
1.0002097e-05
1.0002022e-05
1.0002138e-05
1.0002229e-05
1.0002289e-05
1.0002527e-05
1.0002858e-05
1.0003065e-05
1.0003449e-05
1.000428e-05
1.000463e-05
1.0004791e-05
1.0004306e-05
1.0004247e-05
1.0000784e-05
1.0000562e-05
1.00003e-05
1.0000141e-05
1.0000056e-05
1.0000018e-05
1.0000004e-05
1.0000002e-05
1.0000001e-05
1e-05
1e-05
1e-05
1e-05
1e-05
1e-05
0.0011025207
0.0021545192
0.002112734
0.00092846651
8.7377974e-05
1.0729016e-05
1.0194691e-05
1.0141402e-05
1.0065403e-05
1.0055084e-05
1.0027696e-05
1.0027003e-05
1.0016344e-05
1.001574e-05
1.0012929e-05
1.0012429e-05
1.0011151e-05
1.0009199e-05
1.0006533e-05
1.0004134e-05
1.0002615e-05
1.0002097e-05
1.000201e-05
1.0002111e-05
1.0002196e-05
1.0002254e-05
1.0002483e-05
1.000281e-05
1.000302e-05
1.0003404e-05
1.0004236e-05
1.000458e-05
1.0004746e-05
1.0004242e-05
1.0004295e-05
1.0000705e-05
1.0000544e-05
1.0000284e-05
1.0000132e-05
1.0000052e-05
1.0000017e-05
1.0000004e-05
1.0000002e-05
1.0000001e-05
1e-05
1e-05
1e-05
1e-05
1e-05
1e-05
0.001100397
0.0021050573
0.0020114947
0.00078041342
6.0948592e-05
1.0548382e-05
1.0187605e-05
1.0135531e-05
1.0062888e-05
1.0052932e-05
1.0027093e-05
1.0026295e-05
1.0016323e-05
1.0015436e-05
1.0012787e-05
1.0012241e-05
1.0011031e-05
1.0009129e-05
1.0006526e-05
1.000416e-05
1.000264e-05
1.0002098e-05
1.0001998e-05
1.0002084e-05
1.0002163e-05
1.0002219e-05
1.0002441e-05
1.0002762e-05
1.0002974e-05
1.0003364e-05
1.0004197e-05
1.0004528e-05
1.0004685e-05
1.0004185e-05
1.0003609e-05
1.000068e-05
1.0000522e-05
1.0000269e-05
1.0000124e-05
1.0000049e-05
1.0000016e-05
1.0000004e-05
1.0000002e-05
1.0000001e-05
1e-05
1e-05
1e-05
1e-05
1e-05
1e-05
0.0010973276
0.0020491261
0.0018923753
0.00064531333
4.2345446e-05
1.0452925e-05
1.0180651e-05
1.0129683e-05
1.006041e-05
1.0050843e-05
1.002652e-05
1.0025607e-05
1.0016321e-05
1.0015185e-05
1.0012648e-05
1.001206e-05
1.0010913e-05
1.0009062e-05
1.0006521e-05
1.0004187e-05
1.0002666e-05
1.00021e-05
1.0001987e-05
1.0002057e-05
1.0002129e-05
1.0002185e-05
1.0002401e-05
1.0002715e-05
1.0002925e-05
1.0003324e-05
1.0004162e-05
1.000448e-05
1.0004597e-05
1.0004165e-05
1.0002797e-05
1.0000658e-05
1.0000497e-05
1.0000254e-05
1.0000116e-05
1.0000046e-05
1.0000015e-05
1.0000004e-05
1.0000002e-05
1.0000001e-05
1e-05
1e-05
1e-05
1e-05
1e-05
1e-05
0.0010936798
0.0019887562
0.0017572469
0.00052565605
2.9895982e-05
1.0400658e-05
1.0173824e-05
1.0123871e-05
1.0057976e-05
1.0048822e-05
1.0025978e-05
1.0024952e-05
1.0016361e-05
1.001494e-05
1.0012511e-05
1.0011885e-05
1.0010797e-05
1.0008996e-05
1.0006517e-05
1.0004215e-05
1.0002694e-05
1.0002102e-05
1.000198e-05
1.0002029e-05
1.0002094e-05
1.0002153e-05
1.0002363e-05
1.0002666e-05
1.0002874e-05
1.0003283e-05
1.000413e-05
1.0004444e-05
1.0004496e-05
1.0004173e-05
1.0002078e-05
1.0000649e-05
1.000047e-05
1.0000239e-05
1.0000108e-05
1.0000043e-05
1.0000014e-05
1.0000004e-05
1.0000001e-05
1.0000001e-05
1e-05
1e-05
1e-05
1e-05
1e-05
1e-05
0.0010896893
0.0019253182
0.0016090195
0.00042076708
2.2054903e-05
1.0369554e-05
1.0167072e-05
1.0118114e-05
1.0055593e-05
1.0046877e-05
1.0025471e-05
1.002433e-05
1.0016357e-05
1.0014712e-05
1.0012376e-05
1.0011717e-05
1.0010682e-05
1.0008932e-05
1.0006514e-05
1.0004246e-05
1.0002724e-05
1.0002106e-05
1.0001972e-05
1.0001999e-05
1.000206e-05
1.0002123e-05
1.0002327e-05
1.0002617e-05
1.000282e-05
1.0003241e-05
1.0004095e-05
1.0004409e-05
1.0004384e-05
1.0004207e-05
1.0001542e-05
1.000065e-05
1.0000444e-05
1.0000225e-05
1.0000101e-05
1.000004e-05
1.0000013e-05
1.0000004e-05
1.0000001e-05
1.0000001e-05
1e-05
1e-05
1e-05
1e-05
1e-05
1e-05
0.0010853034
0.0018582565
0.0014591271
0.00033300153
1.737554e-05
1.0348367e-05
1.0160334e-05
1.0112425e-05
1.005327e-05
1.0045011e-05
1.0025001e-05
1.0023744e-05
1.0016349e-05
1.0014499e-05
1.0012244e-05
1.0011554e-05
1.0010568e-05
1.000887e-05
1.0006512e-05
1.0004278e-05
1.0002757e-05
1.000211e-05
1.0001961e-05
1.0001969e-05
1.0002028e-05
1.0002095e-05
1.0002292e-05
1.0002568e-05
1.0002764e-05
1.0003198e-05
1.0004058e-05
1.0004364e-05
1.0004247e-05
1.0004295e-05
1.000118e-05
1.0000657e-05
1.0000417e-05
1.0000211e-05
1.0000094e-05
1.0000037e-05
1.0000012e-05
1.0000003e-05
1.0000001e-05
1.0000001e-05
1e-05
1e-05
1e-05
1e-05
1e-05
1e-05
0.0010807173
0.0017834691
0.0013109382
0.00025769005
1.4432456e-05
1.0331622e-05
1.015357e-05
1.0106817e-05
1.0051014e-05
1.0043227e-05
1.0024569e-05
1.0023194e-05
1.0016334e-05
1.0014301e-05
1.0012115e-05
1.0011396e-05
1.0010456e-05
1.0008809e-05
1.0006511e-05
1.0004313e-05
1.0002794e-05
1.0002115e-05
1.0001947e-05
1.0001939e-05
1.0001999e-05
1.0002067e-05
1.0002257e-05
1.0002519e-05
1.0002705e-05
1.0003154e-05
1.0004025e-05
1.0004308e-05
1.0004081e-05
1.0004397e-05
1.0000931e-05
1.0000656e-05
1.0000392e-05
1.0000197e-05
1.0000087e-05
1.0000034e-05
1.0000012e-05
1.0000003e-05
1.0000001e-05
1.0000001e-05
1e-05
1e-05
1e-05
1e-05
1e-05
1e-05
0.0010776929
0.0017136282
0.0011617287
0.00019490305
1.2670927e-05
1.0316843e-05
1.0146764e-05
1.0101307e-05
1.0048833e-05
1.0041527e-05
1.0024177e-05
1.002268e-05
1.0016313e-05
1.0014117e-05
1.001199e-05
1.0011244e-05
1.0010343e-05
1.0008748e-05
1.000651e-05
1.000435e-05
1.0002833e-05
1.0002121e-05
1.0001932e-05
1.0001911e-05
1.0001972e-05
1.000204e-05
1.0002224e-05
1.0002469e-05
1.0002643e-05
1.0003109e-05
1.0003993e-05
1.0004265e-05
1.0003933e-05
1.0003849e-05
1.000083e-05
1.0000648e-05
1.0000368e-05
1.0000184e-05
1.0000081e-05
1.0000032e-05
1.0000011e-05
1.0000003e-05
1.0000001e-05
1e-05
1e-05
1e-05
1e-05
1e-05
1e-05
1e-05
0.0010755653
0.0016425295
0.0010136485
0.00014387599
1.16454e-05
1.0302543e-05
1.0139913e-05
1.0095914e-05
1.0046736e-05
1.0039916e-05
1.0023828e-05
1.0022207e-05
1.0016289e-05
1.0013948e-05
1.001187e-05
1.0011095e-05
1.0010231e-05
1.0008688e-05
1.0006511e-05
1.0004389e-05
1.0002876e-05
1.0002127e-05
1.0001915e-05
1.0001886e-05
1.0001945e-05
1.0002012e-05
1.000219e-05
1.0002418e-05
1.0002579e-05
1.0003062e-05
1.0003958e-05
1.0004224e-05
1.0003832e-05
1.0003097e-05
1.0000788e-05
1.0000632e-05
1.0000345e-05
1.0000171e-05
1.0000075e-05
1.0000029e-05
1.000001e-05
1.0000003e-05
1.0000001e-05
1e-05
1e-05
1e-05
1e-05
1e-05
1e-05
1e-05
0.0010744576
0.001566907
0.00087014097
0.00010375401
1.1071267e-05
1.0287973e-05
1.0133025e-05
1.0090658e-05
1.0044732e-05
1.0038395e-05
1.0023523e-05
1.002178e-05
1.0016259e-05
1.0013793e-05
1.0011753e-05
1.0010949e-05
1.0010117e-05
1.0008628e-05
1.0006514e-05
1.0004431e-05
1.0002921e-05
1.0002134e-05
1.0001898e-05
1.0001864e-05
1.0001918e-05
1.0001985e-05
1.0002157e-05
1.0002366e-05
1.0002512e-05
1.000301e-05
1.0003914e-05
1.0004163e-05
1.0003788e-05
1.0002432e-05
1.0000748e-05
1.0000609e-05
1.0000324e-05
1.000016e-05
1.0000069e-05
1.0000027e-05
1.0000009e-05
1.0000003e-05
1.0000001e-05
1e-05
1e-05
1e-05
1e-05
1e-05
1e-05
1e-05
0.0010748406
0.0014864494
0.00073437928
7.3216895e-05
1.0759512e-05
1.0273246e-05
1.0126123e-05
1.0085562e-05
1.0042829e-05
1.0036968e-05
1.0023265e-05
1.0021409e-05
1.0016225e-05
1.0013653e-05
1.0011637e-05
1.0010806e-05
1.0010002e-05
1.0008568e-05
1.0006518e-05
1.0004475e-05
1.0002968e-05
1.0002144e-05
1.0001884e-05
1.0001844e-05
1.0001892e-05
1.0001957e-05
1.0002122e-05
1.0002313e-05
1.0002444e-05
1.0002947e-05
1.0003862e-05
1.0004078e-05
1.000376e-05
1.000189e-05
1.0000715e-05
1.0000581e-05
1.0000304e-05
1.0000148e-05
1.0000064e-05
1.0000025e-05
1.0000009e-05
1.0000003e-05
1.0000001e-05
1e-05
1e-05
1e-05
1e-05
1e-05
1e-05
1e-05
0.0010772591
0.0014034046
0.0006087478
5.0842494e-05
1.059295e-05
1.025953e-05
1.0119247e-05
1.0080641e-05
1.0041031e-05
1.0035635e-05
1.0023054e-05
1.0021068e-05
1.0016188e-05
1.0013525e-05
1.0011524e-05
1.0010664e-05
1.0009885e-05
1.0008507e-05
1.0006523e-05
1.0004522e-05
1.0003016e-05
1.0002161e-05
1.0001875e-05
1.0001825e-05
1.0001866e-05
1.0001929e-05
1.0002085e-05
1.0002255e-05
1.0002372e-05
1.0002866e-05
1.0003805e-05
1.0003976e-05
1.0003702e-05
1.0001488e-05
1.0000688e-05
1.0000549e-05
1.0000285e-05
1.0000138e-05
1.0000059e-05
1.0000023e-05
1.0000008e-05
1.0000002e-05
1.0000001e-05
1e-05
1e-05
1e-05
1e-05
1e-05
1e-05
1e-05
0.0010811326
0.0013153306
0.00049489833
3.5447814e-05
1.0500114e-05
1.0246079e-05
1.0112399e-05
1.0075926e-05
1.003935e-05
1.0034402e-05
1.0022894e-05
1.0020764e-05
1.0016148e-05
1.001341e-05
1.0011413e-05
1.0010521e-05
1.0009765e-05
1.0008446e-05
1.000653e-05
1.000457e-05
1.0003066e-05
1.0002188e-05
1.0001872e-05
1.0001808e-05
1.000184e-05
1.00019e-05
1.0002046e-05
1.0002191e-05
1.0002297e-05
1.0002765e-05
1.0003744e-05
1.0003875e-05
1.0003544e-05
1.0001225e-05
1.0000668e-05
1.0000514e-05
1.0000267e-05
1.0000128e-05
1.0000055e-05
1.0000021e-05
1.0000007e-05
1.0000002e-05
1.0000001e-05
1e-05
1e-05
1e-05
1e-05
1e-05
1e-05
1e-05
0.0010853913
0.0012134205
0.00039389816
2.5331831e-05
1.044363e-05
1.0232294e-05
1.010563e-05
1.0071422e-05
1.0037787e-05
1.0033265e-05
1.0022785e-05
1.0020493e-05
1.0016108e-05
1.0013306e-05
1.0011303e-05
1.0010378e-05
1.0009642e-05
1.0008383e-05
1.0006538e-05
1.0004618e-05
1.000312e-05
1.0002229e-05
1.0001873e-05
1.0001793e-05