/*--------------------------------*- C++ -*----------------------------------*\
  =========                 |
  \\      /  F ield         | OpenFOAM: The Open Source CFD Toolbox
   \\    /   O peration     | Website:  https://openfoam.org
    \\  /    A nd           | Version:  8
     \\/     M anipulation  |
\*---------------------------------------------------------------------------*/
FoamFile
{
    version     2.0;
    format      ascii;
    class       volScalarField;
    location    "0.0099963";
    object      p;
}
// * * * * * * * * * * * * * * * * * * * * * * * * * * * * * * * * * * * * * //

dimensions      [1 -1 -2 0 0 0 0];

internalField   nonuniform List<scalar> 
20000
(
74692.256
74706.702
74722.699
74745.019
74775.36
74815.428
74870.361
74935.334
75016.926
75114.048
75229.104
75372.709
75534.726
75742.453
75972.233
76266.955
76594.73
77006.917
77472.749
78043.157
78696.266
79475.122
80368.242
81404.662
82575.207
83886.773
85315.228
86828.07
88375.458
89917.167
91376.057
92731.713
94168.735
95363.224
96050.03
97591.072
100064.46
101567.33
101943.71
101114.03
100482.84
100178.38
100058.03
100017.07
100004.52
100001.06
100000.21
100000.03
100000
100000
74713.813
74728.892
74745.572
74768.987
74801.097
74843.877
74903.109
74973.205
75059.906
75162.241
75281.978
75431.701
75599.462
75815.417
76052.763
76358.289
76697.111
77123.882
77605.95
78196.166
78872.084
79677.161
80600.226
81669.117
82874.391
84219.96
85678.801
87214.034
88774.585
90313.902
91755.094
93112.986
94522.704
95620.063
96314.407
98086.238
100429.23
101654.81
101957.42
101085.68
100480.65
100181.25
100060.5
100018.1
100004.83
100001.13
100000.22
100000.04
100000
100000
74768.814
74784.267
74801.653
74825.85
74859.015
74903.208
74964.175
75035.685
75124.655
75229.909
75353.066
75507.945
75680.545
75904.202
76149.064
76465.421
76815.54
77257.248
77755.943
78366.522
79065.902
79898.177
80852.089
81954.604
83195.381
84575.436
86064.244
87620.836
89191.998
90725.758
92150.1
93505.565
94878.317
95883.923
96609.97
98569.423
100749.66
101759.76
101968.23
101068.11
100478.01
100182.22
100061.51
100018.53
100004.96
100001.16
100000.23
100000.04
100000
100000
74833.124
74848.864
74866.787
74891.654
74925.819
74971.528
75034.647
75108.453
75200.656
75310.032
75437.409
75598.258
75776.091
76007.835
76260.468
76588.041
76949.896
77407.016
77923.071
78554.817
79278.599
80139.112
81124.93
82262.09
83539.042
84953.726
86471.703
88047.92
89626.472
91151.203
92557.796
93904.735
95232.455
96156.638
96930.27
99012.032
101031.69
101891.98
101973.31
101056.8
100474.2
100182.38
100061.83
100018.69
100005
100001.17
100000.23
100000.04
100000
100000
74908.972
74925.303
74944.141
74970.237
75006.069
75053.97
75119.845
75196.339
75291.665
75405.081
75536.404
75703.156
75886.477
76126.64
76387.363
76726.637
77100.802
77574.031
78108.176
78761.903
79511.143
80401.006
81419.919
82592.785
83906.631
85355.975
86902.154
88495.969
90078.622
91591.028
92978.149
94310.39
95587.5
96442.485
97273.414
99417.731
101289.23
102060.18
101971.16
101046.07
100469.31
100181.62
100061.88
100018.73
100005.02
100001.17
100000.23
100000.04
100000
100000
75000.96
75017.893
75037.363
75064.36
75101.501
75151.202
75219.51
75298.379
75396.65
75513.999
75649.306
75822.213
76011.176
76260.2
76529.502
76881.073
77268.234
77758.265
78311.524
78988.305
79764.246
80684.702
81737.951
82947.542
84298.86
85782.612
87355.625
88964.473
90547.517
92043.971
93408.907
94720.081
95942.382
96741.777
97635.294
99792.553
101528.93
102234.96
101963.01
101034.61
100462.97
100179.54
100061.4
100018.63
100005
100001.16
100000.23
100000.04
100000
100000
75103.371
75121.031
75141.359
75169.584
75208.481
75260.44
75331.626
75413.223
75514.681
75636.277
75775.738
75955.194
76150.211
76408.663
76687.084
77051.603
77452.488
77960.188
78533.49
79234.369
80038.27
80990.582
82079.43
83326.758
84716.046
86233.732
87831.852
89452.794
91032.319
92509.125
93848.775
95132.639
96297.037
97054.376
98014.313
100144.24
101752.9
102394.63
101953.69
101021.71
100455.08
100176.27
100060.28
100018.28
100004.89
100001.14
100000.22
100000.03
100000
100000
75219.605
75237.963
75258.963
75288.179
75328.55
75382.449
75456.401
75540.69
75645.55
75771.726
75915.757
76102.316
76303.813
76572.237
76860.295
77238.364
77653.738
78179.923
78774.508
79500.748
80334.008
81319.522
82445.27
83731.313
85158.906
86709.744
88330.812
89960.43
91532.162
92985.348
94296.205
95546.843
96651.06
97378.315
98407.728
100476.6
101961.24
102540.25
101943.57
101006.73
100445.58
100171.99
100058.66
100017.75
100004.73
100001.1
100000.21
100000.03
100000
100000
75345.097
75364.39
75386.433
75417.118
75459.661
75516.127
75593.481
75681.165
75789.952
75921.172
76070.063
76264.036
76472.236
76751.058
77049.242
77441.519
77872.231
78417.936
79034.909
79787.679
80651.642
81671.706
82835.655
84161.359
85627.438
87210.339
88851.782
90486.276
92045.696
93471.24
94749.814
95961.68
97003.726
97711.057
98814.071
100793.69
102151.86
102672.55
101929.81
100989.09
100434.53
100166.88
100056.68
100017.08
100004.54
100001.05
100000.2
100000.03
100000
100000
75487.563
75507.71
75530.633
75562.495
75606.847
75665.25
75745.367
75835.953
75948.436
76084.661
76238.397
76440.121
76655.362
76945.115
77254.023
77661.234
78108.246
78674.45
79315.177
80095.803
80991.935
82047.99
83251.485
84617.728
86122.24
87735.716
89394.48
91029.559
92571.8
93965.494
95208.248
96376.347
97354.501
98049.362
99230.439
101099.81
102323.91
102791.41
101910.78
100968.56
100422.07
100161.13
100054.46
100016.34
100004.33
100000.99
100000.19
100000.03
100000
100000
75640.452
75661.482
75685.307
75718.465
75764.966
75825.724
75909.2
76003.112
76119.709
76261.494
76420.475
76630.515
76853.224
77154.479
77474.781
77897.779
78362.132
78949.939
79615.54
80425.216
81354.974
82448.501
83692.899
85100.468
86643.118
88285.272
89957.805
91588.757
93108.726
94466.411
95670.085
96789.986
97702.694
98389.804
99652.26
101400.18
102482.24
102889.24
101885.64
100945.18
100408.42
100154.92
100052.09
100015.57
100004.11
100000.94
100000.18
100000.03
100000
100000
75804.444
75826.598
75851.624
75886.399
75935.486
75998.949
76086.207
76183.649
76304.581
76452.254
76616.607
76835.318
77065.886
77379.291
77711.787
78151.444
78634.17
79244.522
79936.358
80776.499
81741.531
82874.146
84160.816
85610.352
87190.486
88858.914
90541.107
92162.738
93655.053
94972.487
96133.944
97201.857
98047.927
98729.273
100069.54
101701.37
102633.63
102960.63
101854.35
100919.18
100393.79
100148.38
100049.64
100014.78
100003.89
100000.89
100000.17
100000.03
100000
100000
75981.962
76005.195
76031.361
76067.687
76119.476
76185.584
76276.594
76377.575
76502.816
76656.622
76826.565
77054.461
77293.441
77619.783
77965.288
78422.465
78924.526
79558.467
80277.713
81149.734
82151.753
83325.107
84655.369
86147.332
87763.934
89455.708
91142.941
92749.682
94208.791
95481.853
96598.295
97611.108
98390.02
99065.541
100468.17
102005.19
102798.38
103007.26
101817.15
100890.91
100378.42
100141.66
100047.17
100014
100003.68
100000.84
100000.16
100000.03
100000
100000
76172.353
76196.728
76223.999
76261.765
76316.295
76384.859
76479.73
76584.27
76713.938
76874.377
77050.361
77288.156
77536.235
77876.234
78235.48
78710.838
79233.181
79891.706
80640.008
81545.673
82586.587
83802.403
85177.486
86712.064
88363.613
90075.19
91762.254
93348.11
94768.277
95992.867
97061.65
98016.882
98728.955
99397.707
100842.37
102302.43
102985.18
103029.27
101774.73
100860.72
100362.49
100134.85
100044.71
100013.24
100003.48
100000.8
100000.16
100000.03
100000
100000
76371.796
76397.561
76426.273
76465.862
76523.753
76594.777
76694.565
76803.52
76938.111
77105.908
77288.517
77536.875
77794.482
78148.643
78522.133
79016.351
79559.985
80244.426
81023.505
81964.628
83046.356
84306.299
85727.289
87304.345
88988.831
90716.044
92397.222
93955.89
95331.33
96503.531
97522.261
98418.124
99065.201
99726.809
101192.56
102580.69
103194.98
103036.6
101727.97
100828.98
100346.21
100128.04
100042.31
100012.51
100003.29
100000.76
100000.15
100000.02
100000
100000
76585.376
76612.45
76642.513
76683.826
76745.179
76818.657
76923.035
77036.815
77176.54
77352.027
77541.35
77800.5
78067.831
78436.472
78824.857
79338.731
79905.154
80617.181
81429.056
82407.635
83532.168
84837.878
86305.665
87924.633
89639.377
91377.345
93046.354
94571.216
95896.114
97012.127
97978.517
98813.771
99399.081
100054.62
101523.8
102841.16
103402.3
103030.49
101677.81
100796.03
100329.75
100121.32
100039.97
100011.81
100003.11
100000.72
100000.14
100000.02
100000
100000
76810.293
76838.948
76870.683
76914.134
76979.599
77056.055
77165.17
77283.966
77428.722
77611.948
77807.934
78078.079
78355.38
78739.182
79143.447
79678.407
80269.3
81010.615
81857.238
82875.185
84044.426
85397.432
86912.649
88572.504
90314.168
92057.384
93707.495
95191.781
96460.416
97516.66
98428.493
99202.454
99731.445
100384.58
101840
103078.59
103590.66
102992.81
101625.19
100762.15
100313.29
100114.73
100037.73
100011.16
100002.95
100000.69
100000.14
100000.02
100000
100000
77049.569
77079.698
77112.931
77158.277
77227.351
77306.812
77419.976
77543.567
77693.11
77884.193
78086.986
78368.697
78656.777
79056.819
79478.485
80035.944
80653.23
81425.683
82309.098
83368.407
84584.29
85986.033
87548.999
89248.098
91012.538
92754.742
94378.749
95815.533
97022.325
98015.431
98870.531
99582.892
100062.64
100719.81
102144.33
103288.85
103754.4
102935.61
101569.73
100727.57
100296.96
100108.34
100035.59
100010.54
100002.8
100000.66
100000.13
100000.02
100000
100000
77296.62
77328.382
77363.23
77410.488
77483.58
77566.505
77684.064
77813.158
77968.048
78167.803
78378.179
78672.556
78972.552
79390.278
79830.893
80412.534
81057.904
81863.096
82785.205
83887.805
85152.19
86603.94
88214.575
89950.641
91732.95
93467.224
95057.646
96440.042
97579.71
98506.577
99302.647
99953.3
100392.92
101064.72
102441.16
103469.42
103885.79
102865.68
101510.69
100692.64
100280.93
100102.18
100033.56
100009.96
100002.66
100000.63
100000.13
100000.02
100000
100000
77552.136
77585.76
77622.475
77672.19
77749.761
77836.516
77958.78
78093.903
78254.625
78463.891
78682.672
78990.947
79304.157
79740.873
80201.95
80808.92
81484.037
82323.698
83286.581
84434.556
85749.337
87252.179
88909.902
90679.832
92474.191
94192.915
95741.93
97063.07
98130.677
98988.518
99723.301
100312.25
100721.47
101421.64
102734.34
103630.42
103985.59
102785.28
101448.74
100657.71
100265.3
100096.29
100031.65
100009.43
100002.53
100000.61
100000.13
100000.02
100000
100000
77818.496
77854.01
77892.623
77944.955
78027.248
78117.907
78245.153
78386.989
78554.183
78773.992
79002.173
79325.549
79652.969
80109.705
80592.323
81225.859
81932.25
82808.07
83813.82
85009.253
86376.219
87930.941
89634.568
91434.439
93234.193
94929.25
96428.892
97682.145
98673.277
99459.664
100130.78
100657.88
101046.35
101790.18
103025.92
103783.84
104050.38
102695.85
101384.77
100623.15
100250.18
100090.68
100029.85
100008.93
100002.42
100000.58
100000.12
100000.02
100000
100000
78096.138
78133.88
78174.712
78230.042
78316.925
78411.938
78544.861
78694.44
78868.907
79100.192
79338.296
79677.493
80019.75
80497.107
81002.359
81663.512
82403.083
83317.134
84368.112
85613.223
87034.095
88641.124
90388.726
92213.62
94011.18
95673.862
97115.982
98294.959
99205.717
99918.648
100523.96
100989.15
101364.7
102161.48
103314.3
103939.42
104082.09
102599.02
101319.7
100589.24
100235.65
100085.36
100028.17
100008.47
100002.31
100000.57
100000.12
100000.02
100000
100000
78390.287
78430.082
78472.816
78530.862
78621.961
78721.832
78860.555
79018.307
79200.178
79443.217
79691.296
80046.637
80404.179
80902.898
81432.08
82122.495
82897.28
83851.696
84950.257
86247.202
87723.471
89382.716
91171.543
93015.553
94802.523
96423.702
97800.269
98899.17
99726.32
100364.3
100901.81
101305.1
101673.17
102519.09
103593.1
104112.79
104093.59
102496.67
101254.41
100556.27
100221.75
100080.34
100026.6
100008.05
100002.22
100000.55
100000.12
100000.02
100000
100000
78695.613
78737.98
78783.277
78845.196
78941.702
79047.987
79192.076
79357.886
79546.976
79802.049
80060.079
80432.163
80805.875
81327.121
81882.021
82603.424
83415.819
84413.016
85561.678
86912.64
88445.557
90156.312
91982.616
93838.705
95605.744
97175.826
98478.955
99492.656
100233.5
100795.54
101263.84
101605.82
101969.85
102854.61
103853.38
104307.92
104086.64
102391.04
101189.75
100524.39
100208.53
100075.62
100025.15
100007.67
100002.13
100000.54
100000.12
100000.02
100000
100000
79015.265
79060.306
79108.346
79174.326
79276.406
79388.21
79537.604
79711.331
79907.562
80175.251
80443.927
80833.809
81225.104
81770.41
82353.047
83107.476
83959.816
85002.153
86203.352
87610.343
89200.747
90961.546
92820.512
94680.548
96417.523
97926.68
99149.059
100073.4
100725.92
101211.58
101609.96
101892.22
102254.85
103167.08
104093
104501.84
104032.81
102284.96
101126.45
100493.75
100195.99
100071.21
100023.8
100007.32
100002.06
100000.53
100000.12
100000.02
100000
100000
79349.066
79396.51
79446.728
79516.073
79622.807
79739.53
79894.598
80077.142
80281.187
80562.812
80843.219
81252.373
81662.892
82233.838
82846.27
83635.656
84530.542
85620.606
86876.861
88341.787
89990.055
91798.539
93684.102
95538.694
97234.593
98672.899
99808.055
100639.47
101202.31
101611.6
101940.35
102166.16
102530.74
103460.02
104309.85
104670.01
103938.81
102180.67
101064.88
100464.41
100184.16
100067.08
100022.55
100006.99
100001.99
100000.52
100000.12
100000.02
100000
100000
79688.528
79739.014
79792.336
79866.268
79979.223
80102.475
80263.906
80456.725
80669.248
80966.118
81259.345
81689.126
82120.41
82718.509
83362.833
84189.354
85129.291
86269.598
87583.288
89107.756
90813.637
92666.38
94571.17
96409.739
98052.958
99411.012
100453.77
101188.74
101661.65
101995.14
102255.61
102430.84
102803.1
103736.54
104498.86
104801.87
103816
102079.02
101005.11
100436.43
100173.04
100063.24
100021.4
100006.7
100001.93
100000.51
100000.12
100000.03
100000
100000
80043.64
80097.108
80153.404
80231.681
80350.57
80480.195
80648.031
80851.925
81073.487
81386.574
81693.562
82145.205
82598.81
83225.528
83903.929
84769.739
85757.531
86950.786
88324.281
89909.626
91672.125
93564.458
95479.593
97290.3
98868.962
100138.69
101084.73
101718.85
102102.65
102361.58
102556.1
102689.33
103078.18
103999.12
104658.07
104898.33
103677.66
101977.36
100947.19
100409.86
100162.61
100059.68
100020.34
100006.43
100001.88
100000.5
100000.12
100000.03
100000
100000
80408.672
80465.644
80525.669
80609.055
80734.907
80872.058
81047.285
81263.385
81494.674
81825.225
82146.866
82621.507
83098.995
83755.935
84470.831
85378.419
86416.73
87665.513
89100.968
90748.052
92565.219
94491.039
96406.106
98176.145
99678.908
100854.39
101698.81
102227.81
102523.95
102710.45
102842.36
102944.7
103361.56
104249.6
104795.91
104951.74
103528.7
101875.54
100891.37
100384.76
100152.88
100056.38
100019.36
100006.19
100001.83
100000.5
100000.12
100000.03
100000.01
100000
80792.172
80852.596
80916.151
81004.197
81136.932
81281.441
81463.895
81692.519
81933.733
82282.771
82619.899
83118.708
83621.928
84310.926
85064.915
86016.765
87108.535
88415.557
89915.009
91624.167
93492.897
95444.412
97347.361
99063.296
100480.27
101557.25
102292.37
102714.61
102924.12
103040.92
103114.72
103197.92
103652.14
104487.94
104931.21
104976.03
103372.09
101774.38
100837.92
100361.16
100143.82
100053.32
100018.46
100005.97
100001.79
100000.5
100000.13
100000.03
100000.01
100000
81185.905
81250.23
81318.293
81412.1
81553.007
81706.062
81896.781
82139.107
82390.792
82759.44
83113.228
83637.601
84168.71
84891.822
85687.626
86686.421
87834.494
89202.356
90767.518
92538.297
94454.027
96421.634
98298.977
99947.597
101271.17
102243.59
102862.16
103177.61
103302.85
103351.9
103374.09
103448.63
103940.02
104714.16
105086.25
104983.24
103210.64
101675.1
100787.14
100339.05
100135.39
100050.5
100017.64
100005.77
100001.76
100000.5
100000.13
100000.03
100000.01
100000
81597.137
81665.622
81738.548
81838.016
81986.657
82148.478
82347.375
82603.965
82866.536
83255.857
83627.756
84179.372
84740.866
85500.15
86340.604
87389.116
88596.474
90027.831
91660.097
93491.054
95447.483
97419.564
99256.756
100825.97
102050.51
102907.89
103404.29
103615.61
103660.34
103642.43
103621.7
103695.15
104219.36
104932.13
105255.45
104960.82
103047.85
101578.91
100739.17
100318.4
100127.58
100047.89
100016.89
100005.59
100001.73
100000.5
100000.13
100000.03
100000.01
100000
82023.399
82096.117
82174.06
82279.315
82435.903
82607.207
82814.645
83086.8
83361.245
83773.082
84164.986
84745.732
85340.025
86137.69
87025.562
88126.616
89396.237
90893.58
92593.717
94482.052
96470.841
98433.897
100216.13
101695.97
102814.26
103544.4
103915.08
104029.95
103996.41
103912.38
103858.14
103936.35
104487.47
105136.62
105416.72
104892.15
102888.19
101486.96
100694.09
100299.17
100120.35
100045.49
100016.2
100005.43
100001.7
100000.5
100000.13
100000.03
100000.01
100000
82462.94
82540.376
82624.22
82736.022
82901.015
83083.119
83299.977
83589.412
83876.755
84313.151
84726.919
85338.31
85967.785
86805.773
87744.105
88900.922
90235.981
91801.663
93569.636
95510.845
97521.377
99460.277
101173.35
102556.13
103555.43
104147.9
104395.59
104422.67
104308.21
104163.57
104083.56
104171.99
104743.15
105319.41
105553.25
104780.21
102735.83
101399.9
100651.85
100281.27
100113.66
100043.28
100015.57
100005.28
100001.68
100000.5
100000.14
100000.03
100000.01
100000
82917.455
83000.029
83090.751
83209.492
83383.25
83577.895
83805.471
84114.124
84415.291
84877.693
85314.934
85958.192
86625.17
87506.085
88498.243
89714.226
91117.797
92753.686
94588.237
96575.719
98595.071
100493.81
102125.1
103402.88
104266.11
104714.36
104851.69
104790.78
104595.11
104397.5
104298.84
104403.72
104985.46
105474.79
105655
104629.28
102593.67
101317.85
100612.31
100264.65
100107.48
100041.25
100014.99
100005.15
100001.67
100000.5
100000.14
100000.04
100000.01
100000
83392.016
83479.911
83578.299
83705.01
83887.912
84095.539
84333.524
84662.605
84978.264
85467.378
85929.676
86606.191
87313.716
88240.498
89290.331
90569.15
92044.182
93751.509
95649.832
97674.562
99687.663
101530.26
103069.24
104228.24
104940.23
105246.36
105284.18
105132.9
104857.09
104615.81
104505.38
104634.1
105212.34
105605.11
105706.64
104452.7
102459.47
101240.26
100575.3
100249.23
100101.77
100039.38
100014.46
100005.03
100001.65
100000.51
100000.15
100000.04
100000.01
100000
83884.456
83978.208
84085.695
84222.606
84415.304
84635.94
84884.229
85234.562
85565.247
86082.138
86571.693
87283.703
88035.452
89011.85
90123.28
91468.405
93017.354
94796.287
96753.538
98803.895
100794.11
102565.52
104003.07
105022.14
105572.86
105750.23
105690.33
105448.43
105094.6
104820.14
104704.77
104865.19
105418.6
105727.21
105728.06
104261.57
102328.99
101166.73
100540.73
100234.95
100096.52
100037.66
100013.98
100004.93
100001.65
100000.52
100000.15
100000.04
100000.01
100000
84396.228
84496.762
84613.049
84759.806
84963.039
85197.606
85456.263
85829.229
86176.101
86722.76
87242.782
87993.346
88793.547
89823.24
91000.126
92414.876
94039.681
95889.064
97897.963
99959.709
101909.65
103596.38
104918.39
105777.22
106165.55
106227.66
106068.51
105736.99
105309.06
105012.07
104897.91
105091.93
105605.18
105859.64
105733.3
104061.66
102201.34
101097.14
100508.52
100221.75
100091.68
100036.08
100013.54
100004.84
100001.64
100000.52
100000.15
100000.04
100000.01
100000
84930.821
85038.692
85161.344
85313.949
85528.171
85779.354
86049.498
86447.36
86812.658
87391.848
87946.362
88738.736
89591.49
90678.135
91923.931
93411.209
95112.964
97029.798
99080.286
101136.86
103029.35
104619.59
105804.27
106487.06
106724.73
106675.81
106417.98
105997.38
105503.22
105193.18
105085.3
105310.75
105780.61
105996.3
105708.57
103857.1
102077.18
101031.63
100478.62
100209.58
100087.23
100034.64
100013.14
100004.76
100001.64
100000.53
100000.16
100000.04
100000.01
100000
85483.522
85598.765
85730.735
85892.55
86115.617
86384.133
86666.491
87092.112
87479.016
88093.798
88686.7
89523.723
90432.719
91579.578
92897.663
94460.15
96238.919
98217.935
100296.98
102330.2
104148.72
105628.97
106650.43
107150.72
107253.93
107092.47
106738.25
106228.55
105680.63
105364.83
105267.17
105521.36
105948.41
106130.6
105648.91
103651.97
101957.64
100970.3
100450.96
100198.38
100083.14
100033.32
100012.78
100004.69
100001.64
100000.54
100000.17
100000.05
100000.01
100000
86052.67
86176.55
86318.55
86491.059
86724.657
87014.305
87311.515
87768.889
88180.423
88833.099
89467.513
90351.44
91320.195
92530.798
93924.349
95564.138
97418.396
99451.504
101543.24
103534.29
105263.55
106613.01
107448.77
107774.15
107750.36
107477.38
107028.87
106431.91
105843.2
105528.54
105444.25
105725.05
106107.6
106258.52
105556.46
103450.79
101844
100913.27
100425.43
100188.06
100079.38
100032.11
100012.46
100004.63
100001.64
100000.55
100000.17
100000.05
100000.01
100000
86647.865
86781.114
86933.297
87118.436
87364.767
87679.351
87992.573
88483.57
88920.921
89612.404
90291.207
91224.584
92256.943
93534.925
95007.104
96725.565
98651.712
100727.65
102813.75
104743.94
106369.47
107558.4
108194.61
108363.73
108210.7
107830.79
107289.95
106609.2
105992.7
105685.77
105617.34
105923.03
106252.76
106371.21
105433.27
103258.32
101737.39
100860.49
100401.91
100178.57
100075.93
100031
100012.16
100004.58
100001.65
100000.56
100000.18
100000.05
100000.01
100000
87271.656
87415.917
87580.715
87783.57
88044.064
88383.351
88711.321
89236.724
89701.133
90432.843
91159.946
92146.16
93246.382
94595.655
96149.064
97946.158
99937.83
102041.99
104102.51
105953.53
107455.36
108455.14
108892.45
108916.9
108634.92
108153.29
107521.93
106762.28
106131.22
105838.16
105787.38
106113.46
106379.67
106434.78
105280.57
103079.73
101638.61
100811.8
100380.24
100169.85
100072.76
100029.99
100011.9
100004.53
100001.65
100000.57
100000.19
100000.06
100000.02
100000.01
87934.362
88089.551
88266.517
88485.693
88756.846
89121.915
89465.097
90026.858
90522.419
91296.871
92077.107
93120.113
94292.483
95716.654
97353.271
99227.116
101274.68
103389.25
105403.53
107157.64
108506.82
109294.71
109550.84
109429.41
109023.66
108445.86
107725.87
106893.22
106260.72
105986.56
105954.89
106287.46
106498.21
106462.06
105101.93
102918.55
101547.62
100766.85
100360.27
100161.82
100069.86
100029.07
100011.66
100004.5
100001.67
100000.59
100000.19
100000.06
100000.02
100000.01
88616.407
88784.607
88975.352
89214.09
89499.022
89894.845
90255.958
90857.573
91388.372
92208.801
93047.098
94150.889
95399.417
96901.821
98622.358
100568.44
102658.58
104763.16
106710.18
108347.96
109509.85
110078.57
110168.91
109900.33
109378.02
108709.45
107902.62
107005.28
106383.44
106130.37
106120.67
106440.37
106613.81
106469.35
104903.6
102772.06
101463.32
100725.25
100341.85
100154.44
100067.2
100028.23
100011.45
100004.48
100001.68
100000.6
100000.2
100000.06
100000.02
100000.01
89333.838
89516.663
89721.683
89982.118
90279.327
90708.899
91089.735
91733.216
92304.051
93173.46
94074.718
95243.074
96571.515
98154.893
99958.396
101968.93
104084.62
106157.1
108015.73
109509.47
110453.76
110813.98
110742.39
110330.2
109699.25
108944.68
108052.05
107102.97
106500.81
106267.82
106282.17
106579.44
106724.21
106451.42
104695.88
102633.57
101384.57
100686.66
100324.85
100147.66
100064.77
100027.47
100011.27
100004.46
100001.7
100000.62
100000.21
100000.07
100000.02
100000.01
90085.213
90285.271
90505.269
90789.558
91099.718
91567.066
91970.519
92659.136
93274.576
94195.949
95164.737
96401.548
97813.238
99479.37
101362.41
103425.7
105546.41
107563.77
109312.81
110625.23
111333.94
111505.11
111268.17
110720.2
109988.51
109151.43
108173.14
107191.96
106613.09
106399.45
106439.02
106710.97
106830.65
106401.34
104484.49
102500.66
101310.72
100650.86
100309.19
100141.44
100062.55
100026.79
100011.11
100004.45
100001.72
100000.63
100000.22
100000.07
100000.02
100000.01
90875.862
91095.542
91331.492
91642.587
91967.247
92475.914
92904.413
93640.672
94305.198
95281.077
96322.029
97631.085
99128.964
100878.25
102834.18
104934.27
107036.68
108974.88
110587.35
111681.39
112155.47
112147.79
111746.45
111071.73
110246.83
109329.53
108269.38
107273.62
106720.68
106526.47
106591.46
106837.74
106933.49
106321.92
104272.93
102372.91
101241.5
100617.71
100294.8
100135.76
100060.53
100026.18
100010.97
100004.45
100001.74
100000.65
100000.23
100000.08
100000.03
100000.01
91713.836
91954.244
92206.091
92547.006
92886.412
93439.981
93896.004
94681.731
95400.386
96433.688
97551.553
98937.09
100523.23
102353.61
104371.61
106488.24
108547.17
110381.42
111820.69
112667.51
112927.64
112736.26
112178.3
111386.64
110475.43
109479.51
108344.62
107348.76
106824.37
106650.2
106740.14
106958.73
107030.12
106215.6
104063.86
102250.67
101176.84
100587.1
100281.6
100130.57
100058.71
100025.63
100010.86
100004.46
100001.77
100000.67
100000.24
100000.08
100000.03
100000.01
92599.817
92863.407
93131.973
93507.029
93861.212
94462.859
94949.23
95786.532
96565.191
97659.591
98859.438
100325.3
102000.17
103906.24
105970.71
108079.78
110068.53
111771.55
112994.3
113586.05
113646.25
113270.18
112565.31
111666.98
110676.34
109603.98
108402.14
107417.95
106924.68
106771.34
106884.54
107071.7
107110.97
106086.57
103859.82
102134.56
101116.76
100558.96
100269.54
100125.85
100057.06
100025.15
100010.77
100004.48
100001.8
100000.69
100000.25
100000.09
100000.03
100000.01
93534.738
93825.058
94111.263
94525.495
94895.173
95548.206
96068.608
96960.197
97806.056
98966.017
100252.45
101801.66
103562.98
105534.76
107625.15
109699.63
111589.85
113125.14
114094.28
114445.76
114305.21
113750.36
112909.6
111915.11
110852.3
109707.54
108444.38
107482.1
107022.06
106889.85
107020.88
107177.38
107154.75
105939.52
103663.77
102025.48
101061.33
100533.21
100258.54
100121.56
100055.57
100024.73
100010.71
100004.5
100001.83
100000.71
100000.27
100000.09
100000.03
100000.02
94525.76
94845.684
95148.232
95605.888
95992.346
96700.948
97261.982
98210.692
99131.398
100361.44
101737.87
103371.29
105213.04
107235.35
109326.47
111337.17
113098.88
114420.19
115117.72
115246.25
114901.92
114178.33
113213.56
112133.3
111005.3
109792.35
108471.89
107541.9
107116.57
107005.07
107147.27
107281.21
107172.12
105778.7
103479.24
101924.38
101010.56
100509.74
100248.54
100117.67
100054.23
100024.36
100010.66
100004.53
100001.87
100000.74
100000.28
100000.1
100000.04
100000.02
95573.354
95927.561
96247.404
96755.221
97160.732
97929.673
98540.084
99548.473
100550.71
101854.56
103322.34
105037.96
106949.39
109001.48
111064.21
112979.57
114575.31
115638.86
116071.19
115981.18
115436.87
114556.41
113480.15
112324.14
111135.61
109848.36
108488.9
107598.39
107208.51
107117.08
107266.67
107382.15
107176.89
105604.31
103310.79
101832.13
100964.37
100488.38
100239.45
100114.15
100053.05
100024.05
100010.64
100004.57
100001.91
100000.76
100000.29
100000.11
100000.04
100000.02
96686.971
97083.613
97420.786
97986.522
98413.101
99246.188
99913.944
100984.06
102073.14
103453.32
105011.22
106803.14
108768.11
110823.81
112825.98
114612.1
115994.51
116771.96
116958.62
116645.56
115911.52
114887.36
113712.55
112490.52
111243.87
109875
108500.48
107652.53
107298.47
107226.72
107379.73
107477.93
107162.53
105416.22
103162.44
101748.79
100922.39
100468.95
100231.2
100110.99
100052
100023.8
100010.63
100004.62
100001.95
100000.79
100000.31
100000.11
100000.04
100000.02
97879.397
98327.73
98679.376
99311.477
99761.581
100661.2
101394.8
102527.37
103706.61
105164.24
106808.07
108665.75
110662.15
112690.31
114596.76
116214.46
117333.68
117823.74
117773.14
117239.52
116328.35
115174.54
113914.21
112635.25
111331.93
109882.96
108509.98
107705.51
107387.38
107335.61
107485.3
107567.01
107126.39
105222.22
103029.76
101673.05
100884.11
100451.24
100223.71
100108.15
100051.09
100023.6
100010.65
100004.69
100002
100000.82
100000.32
100000.12
100000.05
100000.03
99157.812
99670.586
100034.32
100742.17
101218.94
102185.06
102992.73
104187.35
105457.75
106992.46
108714.52
110621.63
112621.16
114586.44
116358.75
117758.64
118578.21
118801.13
118507.66
117764.4
116690.39
115421.43
114088.17
112759.65
111398.29
109875.26
108518.32
107758.4
107475.53
107442.63
107584.11
107649.24
107069.6
105030.46
102907.2
101603.54
100849.06
100435.09
100216.93
100105.62
100050.31
100023.46
100010.7
100004.76
100002.05
100000.85
100000.34
100000.13
100000.05
100000.03
100526.7
101119.83
101493.2
102286.63
102795.13
103825.44
104714.94
105971.88
107332.71
108941.98
110729.8
112663
114631.1
116494.25
118089.86
119217.01
119730.22
119696.12
119161.95
118222.85
117001.43
115631.89
114237.27
112863.75
111438.29
109854.17
108526.76
107812.42
107562.23
107547.15
107676.84
107724.72
106994.67
104844.52
102792.58
101539.42
100816.94
100420.38
100210.82
100103.38
100049.66
100023.37
100010.76
100004.84
100002.11
100000.89
100000.36
100000.14
100000.06
100000.03
102033.11
102706.28
103063.33
103944.82
104497.11
105586.02
106566.62
107889.43
109338.65
111015.67
112849.63
114777.52
116674.15
118391.56
119757.67
120570.95
120797.2
120500.08
119737.33
118618.41
117265.54
115809.69
114364.24
112948.59
111457.69
109823.28
108536.05
107868.4
107645.53
107649.2
107764.47
107793.79
106904.88
104665.9
102685.07
101480.17
100787.51
100407.04
100205.35
100101.43
100049.13
100023.34
100010.85
100004.93
100002.17
100000.93
100000.38
100000.15
100000.07
100000.04
103665.39
104420.57
104756.53
105721.55
106337.76
107481.07
108558.19
109950.44
111482.75
113213.41
115064.47
116947.68
118728.08
120252.2
121330.02
121821.03
121769.52
121212.53
120236.94
118955.45
117487.19
115958.77
114472.3
113017.61
111462.41
109785.55
108546.87
107925.04
107725
107748.44
107849.29
107854.71
106803.19
104495.47
102584.37
101425.52
100760.64
100395
100200.51
100099.77
100048.72
100023.35
100010.97
100005.03
100002.24
100000.97
100000.4
100000.16
100000.07
100000.04
105425.44
106261.6
106600.34
107641.68
108339.26
109538.05
110711.56
112167
113768.28
115528.15
117357.65
119150.06
120764.64
122038.4
122786.23
122972.45
122637.86
121834.99
120664.93
119238.73
117670.75
116082.76
114564.55
113074.62
111452.73
109743.17
108559.21
107981.41
107801.2
107842.12
107935.63
107899.4
106693.26
104334.01
102490.34
101375.28