/*--------------------------------*- C++ -*----------------------------------*\
  =========                 |
  \\      /  F ield         | OpenFOAM: The Open Source CFD Toolbox
   \\    /   O peration     | Website:  https://openfoam.org
    \\  /    A nd           | Version:  8
     \\/     M anipulation  |
\*---------------------------------------------------------------------------*/
FoamFile
{
    version     2.0;
    format      ascii;
    class       surfaceScalarField;
    location    "0.0099963";
    object      phi;
}
// * * * * * * * * * * * * * * * * * * * * * * * * * * * * * * * * * * * * * //

dimensions      [1 0 -1 0 0 0 0];

internalField   nonuniform List<scalar> 
39600
(
-0.00019638407
-0.0083442417
0.0084858859
-0.00027290971
-0.011544257
0.011624748
-0.00035387195
-0.015052253
0.015138642
-0.00043976403
-0.019326958
0.019419421
-0.00052803297
-0.024681804
0.024777653
-0.00061320507
-0.031461121
0.031554933
-0.00078535396
-0.039782313
0.039964678
-0.0010969226
-0.048429959
0.048754138
-0.001483171
-0.057796553
0.058198136
-0.0019387748
-0.069424415
0.069898147
-0.002484411
-0.082989512
0.083557273
-0.003135176
-0.099567905
0.10024502
-0.0039074212
-0.11913292
0.11993672
-0.0048314633
-0.14284967
0.14381151
-0.0059328912
-0.17102183
0.17216874
-0.0072517325
-0.20500471
0.20637852
-0.0088237354
-0.24551123
0.24714932
-0.010704303
-0.294225
0.29618541
-0.012944967
-0.35240186
0.35473842
-0.01562528
-0.42221845
0.42501381
-0.018823981
-0.50568234
0.50901856
-0.022652615
-0.605686
0.60967862
-0.027237
-0.72523129
0.73001056
-0.032742075
-0.86819118
0.87393005
-0.039369692
-1.0388547
1.0457638
-0.047371243
-1.2424222
1.2507686
-0.057057385
-1.484771
1.4948776
-0.068801512
-1.7728731
1.7851239
-0.083019802
-2.1150685
2.1299074
-0.10013858
-2.52167
2.539574
-0.12062844
-3.0050641
3.0265238
-0.1449371
-3.5811906
3.6068434
-0.17359069
-4.2676009
4.2981556
-0.20667519
-5.0852764
5.1202414
-0.24531411
-6.065289
6.1064578
-0.28662477
-7.2478413
7.2975953
-0.33676382
-8.6397784
8.7000029
-0.38594579
-10.318761
10.373821
-0.4518129
-12.355444
12.420739
-0.52996026
-14.791539
14.864195
-0.61747385
-17.718071
17.801066
-0.70868431
-21.224596
21.313017
-0.7998542
-25.432789
25.522549
-0.88497
-30.485295
30.569884
-0.95399186
-36.55135
36.620343
-0.98994467
-43.834778
43.871228
-0.96681205
-52.579581
52.556822
-0.8441271
-63.085121
62.962844
-0.56044824
-75.713015
75.430137
-90.895184
90.360029
-0.00010797449
-0.008279281
-0.00017662944
-0.011471242
-0.00025196653
-0.014971292
-0.00033350596
-0.019239011
-0.00041826772
-0.02458953
-0.00049980106
-0.031371203
-0.00067692213
-0.039595115
-0.0009724288
-0.048122135
-0.001340267
-0.057413784
-0.0017757683
-0.068971149
-0.0023024728
-0.082441625
-0.0029332531
-0.098912021
-0.0036830217
-0.1183529
-0.0045816978
-0.14191477
-0.0056531065
-0.16990669
-0.0069367516
-0.20366834
-0.0084654034
-0.24391901
-0.01029611
-0.29231812
-0.012476747
-0.35012918
-0.015085841
-0.41949864
-0.018198816
-0.50243671
-0.021927742
-0.60179884
-0.026393271
-0.72057746
-0.03176149
-0.86259725
-0.038229565
-1.0321146
-0.046050385
-1.2342681
-0.055530714
-1.4748841
-0.067043069
-1.7608707
-0.08099114
-2.1005186
-0.097796325
-2.5041052
-0.11791818
-2.9839964
-0.14172898
-3.5560433
-0.16954638
-4.2379316
-0.20244295
-5.0506528
-0.24016826
-6.0248357
-0.28203392
-7.1978592
-0.32775762
-8.5844691
-0.37762918
-10.263209
-0.44368786
-12.290482
-0.52114243
-14.719193
-0.60682111
-17.63665
-0.69659401
-21.137562
-0.78663084
-25.344187
-0.87125141
-30.40123
-0.94072908
-36.481916
-0.97877084
-43.796275
-0.96027598
-52.597683
-0.84604843
-63.198895
-0.57707869
-75.981174
-91.406511
-9.4450284e-05
-0.008217702
-0.00015721464
-0.011404231
-0.00022513767
-0.014898004
-0.0002979707
-0.019160183
-0.00037214326
-0.024508192
-0.0004371221
-0.031298296
-0.0006102119
-0.039412323
-0.00090381927
-0.047816581
-0.0012590163
-0.057044374
-0.0016826887
-0.068530641
-0.0021885516
-0.081915596
-0.0027946671
-0.098281961
-0.0035163613
-0.11760222
-0.0043815958
-0.14101487
-0.0054118772
-0.16883447
-0.0066468223
-0.20238291
-0.0081171207
-0.2423879
-0.0098778817
-0.29048411
-0.01197546
-0.34794374
-0.014486503
-0.4168824
-0.017484153
-0.49931351
-0.021077029
-0.59805671
-0.025386313
-0.71609077
-0.030575361
-0.85719564
-0.036842301
-1.0255909
-0.044442208
-1.2263533
-0.053684142
-1.4652577
-0.064940696
-1.7491502
-0.078607831
-2.0862784
-0.095102573
-2.4868853
-0.11486387
-2.9633164
-0.13822407
-3.5313653
-0.1655889
-4.2088174
-0.19795853
-5.0166456
-0.23474687
-5.9850185
-0.27633562
-7.1485933
-0.32022856
-8.5318527
-0.36921392
-10.208069
-0.43576441
-12.226506
-0.51242846
-14.64728
-0.59663863
-17.556612
-0.68514109
-21.051794
-0.77427157
-25.256508
-0.8585992
-30.317476
-0.92876301
-36.411808
-0.96913508
-43.755477
-0.95545666
-52.610945
-0.85010584
-63.303752
-0.59607818
-76.234368
-91.89364
-7.8982411e-05
-0.0081596222
-0.00013663038
-0.011340917
-0.00019905242
-0.014829442
-0.00026557517
-0.019087075
-0.00033286021
-0.024433447
-0.00038720235
-0.031236035
-0.00055968768
-0.039230168
-0.00084469419
-0.047520139
-0.0011849016
-0.056690355
-0.0015914382
-0.068107903
-0.0020764531
-0.081411242
-0.0026576229
-0.097677753
-0.0033511727
-0.11688099
-0.0041831348
-0.14014969
-0.0051732821
-0.16780423
-0.0063608532
-0.20114709
-0.0077741668
-0.2409165
-0.0094671256
-0.28872142
-0.011484529
-0.34584206
-0.013899836
-0.41436581
-0.016785264
-0.49630704
-0.020248084
-0.59444977
-0.024406098
-0.71176132
-0.029424294
-0.8519719
-0.035501124
-1.0192657
-0.042893477
-1.2186561
-0.051914067
-1.4558652
-0.062933428
-1.7376827
-0.076343047
-2.0723145
-0.092549652
-2.4699777
-0.11197024
-2.9429995
-0.13491279
-3.5071286
-0.16186699
-4.1801891
-0.19371238
-4.9832053
-0.22952021
-5.9459343
-0.27017341
-7.100879
-0.31368089
-8.4806163
-0.36128134
-10.153041
-0.42840995
-12.162173
-0.50421475
-14.57618
-0.58723837
-17.477704
-0.67462015
-20.967145
-0.76303283
-25.169555
-0.84726756
-30.233825
-0.91833688
-36.340799
-0.96127593
-43.71214
-0.95273951
-52.619047
-0.85649052
-63.399477
-0.61760991
-76.47238
-92.356391
-6.7940856e-05
-0.0081062065
-0.00012243024
-0.01128297
-0.00017956196
-0.014767614
-0.00023907681
-0.01902221
-0.0002976678
-0.024368267
-0.000339157
-0.031187301
-0.00050925865
-0.039051022
-0.0007809279
-0.047237517
-0.001107744
-0.056350306
-0.0014978217
-0.067702222
-0.0019638269
-0.080926491
-0.0025230168
-0.097096401
-0.0031886941
-0.11618872
-0.0039884122
-0.1393182
-0.0049393053
-0.16681503
-0.0060806124
-0.1999597
-0.007438316
-0.23950321
-0.0090658022
-0.28702694
-0.01100444
-0.3438232
-0.013327882
-0.41194651
-0.016105076
-0.49341574
-0.019441803
-0.59097763
-0.023455733
-0.70758649
-0.028311195
-0.84692344
-0.034209364
-1.0131339
-0.041409444
-1.2111686
-0.050227471
-1.4466969
-0.061033435
-1.726454
-0.074210355
-2.0586115
-0.090156455
-2.453362
-0.10926153
-2.9230238
-0.13182787
-3.483308
-0.1584116
-4.1520412
-0.18974015
-4.9502622
-0.2245631
-5.9074789
-0.26406798
-7.0547412
-0.30707334
-8.4307109
-0.35471256
-10.097821
-0.42160368
-12.099416
-0.4966383
-14.505901
-0.5786467
-17.399763
-0.66507784
-20.883415
-0.75294951
-25.083152
-0.83728028
-30.150087
-0.90948854
-36.268657
-0.95523619
-43.66602
-0.95206394
-52.621771
-0.86519809
-63.485794
-0.64182634
-76.694843
-92.794429
-5.3775518e-05
-0.0080553704
-0.00010368314
-0.011228548
-0.00015548528
-0.014710375
-0.00020889253
-0.018963372
-0.00026038827
-0.024310167
-0.00029299065
-0.031147887
-0.00046339359
-0.038871753
-0.00072426315
-0.046966196
-0.0010380558
-0.056023735
-0.001413274
-0.067312125
-0.0018607532
-0.08046114
-0.0023978628
-0.096538121
-0.0030367226
-0.11552442
-0.0038048259
-0.13851966
-0.004717469
-0.16586572
-0.0058136663
-0.19881943
-0.007117302
-0.23814656
-0.0086812403
-0.28539942
-0.010544312
-0.34188326
-0.012778507
-0.40962011
-0.01545082
-0.4906334
-0.018666724
-0.58763096
-0.022543154
-0.7035545
-0.027245729
-0.84203407
-0.032976651
-1.0071766
-0.040000255
-1.2038664
-0.048634974
-1.4377228
-0.059249755
-1.7154302
-0.07221995
-2.0451318
-0.087930361
-2.4370031
-0.10674623
-2.9033586
-0.12897174
-3.4598642
-0.15521914
-4.1243126
-0.18603925
-4.9177906
-0.21989696
-5.8696878
-0.25835814
-7.0099736
-0.30103261
-8.3817659
-0.34903782
-10.043179
-0.41543594
-12.037455
-0.48974239
-14.436398
-0.57087106
-17.322666
-0.65654886
-20.800413
-0.74405733
-24.997106
-0.82868985
-30.066053
-0.90226343
-36.195155
-0.9510836
-43.616848
-0.95361294
-52.618784
-0.87646949
-63.562368
-0.6688499
-76.901513
-93.207545
-4.3728127e-05
-0.0080086837
-9.0458364e-05
-0.011179022
-0.00013729034
-0.014659161
-0.00018390859
-0.018912242
-0.00022709185
-0.024260929
-0.00025086745
-0.031117629
-0.00042128275
-0.038692995
-0.00067088098
-0.046706582
-0.00097223499
-0.055710305
-0.0013321275
-0.066938025
-0.0017617011
-0.080014353
-0.0022776694
-0.096001866
-0.0028902324
-0.1148875
-0.0036276295
-0.13775321
-0.0045031609
-0.16495519
-0.0055557296
-0.19772486
-0.0068070816
-0.23684458
-0.0083089692
-0.28383652
-0.010099331
-0.34001997
-0.012247161
-0.40738533
-0.014819659
-0.48795764
-0.017919538
-0.58440869
-0.02166568
-0.6996629
-0.026224085
-0.83730077
-0.031801361
-1.0013868
-0.038664765
-1.196741
-0.047136898
-1.4289318
-0.057584452
-1.7045976
-0.070373476
-2.0318599
-0.085875534
-2.4208805
-0.10442917
-2.8839795
-0.12634922
-3.4367736
-0.15229237
-4.09699
-0.18262521
-4.8857476
-0.21556379
-5.8324371
-0.25320419
-6.96635
-0.29558128
-8.3338154
-0.3439766
-9.9893389
-0.40988908
-11.97612
-0.48356426
-14.367558
-0.56394404
-17.246284
-0.64904026
-20.717959
-0.73637913
-24.911217
-0.82152499
-29.981502
-0.89670845
-36.120043
-0.94887116
-43.56435
-0.95741723
-52.609772
-0.89027252
-63.628925
-0.69877195
-77.092023
-93.595342
-3.1159791e-05
-0.007964526
-7.285504e-05
-0.011133038
-0.00011479951
-0.014612447
-0.00015432577
-0.01886722
-0.00018973839
-0.024219551
-0.0002082421
-0.031092565
-0.00037928938
-0.038513904
-0.00061960957
-0.046456624
-0.00090820822
-0.055410093
-0.0012536715
-0.066578915
-0.0016650868
-0.079586628
-0.0021600338
-0.095487605
-0.0027470394
-0.11427727
-0.0034547225
-0.13701778
-0.0042944499
-0.16408207
-0.0053048602
-0.19667437
-0.006506479
-0.23559478
-0.0079486697
-0.28233659
-0.0096683754
-0.33823047
-0.011733168
-0.40523693
-0.014208903
-0.48538228
-0.017199353
-0.5813
-0.020822964
-0.69589846
-0.025247306
-0.83270695
-0.030684151
-0.99574363
-0.03740472
-1.1897661
-0.045735759
-1.420292
-0.056040331
-1.6939209
-0.068675365
-2.0187575
-0.083994375
-2.4049596
-0.10231473
-2.8648532
-0.12396371
-3.4139933
-0.14962915
-4.0700219
-0.17949892
-4.8541163
-0.211573
-5.7957377
-0.24852793
-6.9236985
-0.29071688
-8.2867088
-0.33953047
-9.9359976
-0.40497902
-11.915343
-0.47812115
-14.299297
-0.55789263
-17.170474
-0.64258513
-20.63587
-0.7299467
-24.825283
-0.81583611
-29.896198
-0.8928807
-36.043067
-0.9486691
-43.508238
-0.96350717
-52.594462
-0.90678904
-63.685039
-0.73174484
-77.266036
-93.957516
-2.1430006e-05
-0.0079249004
-5.9176773e-05
-0.011091985
-9.6149594e-05
-0.014571784
-0.00012894971
-0.018829871
-0.00015492763
-0.024188398
-0.00016784063
-0.031073582
-0.00033823747
-0.038336017
-0.00056804346
-0.046217531
-0.00084400623
-0.055123203
-0.001175309
-0.066234643
-0.0015688131
-0.07917755
-0.0020438769
-0.094994106
-0.0026064698
-0.11369255
-0.0032857482
-0.13631214
-0.0040910641
-0.163245
-0.0050610836
-0.19566625
-0.0062139802
-0.23439596
-0.0075992959
-0.28089597
-0.0092513597
-0.33651242
-0.011236738
-0.40317304
-0.013620473
-0.48290544
-0.016506724
-0.57830353
-0.020015221
-0.69225875
-0.024317052
-0.8282469
-0.029627375
-0.99023997
-0.036223754
-1.1829308
-0.044436528
-1.4117897
-0.054622797
-1.6833852
-0.06712997
-2.0058081
-0.082293796
-2.3892194
-0.10040906
-2.8459529
-0.12181885
-3.3914955
-0.14723168
-4.0433895
-0.17667997
-4.8228702
-0.20797053
-5.759517
-0.2443031
-6.8818887
-0.28643972
-8.2403198
-0.33569584
-9.8830717
-0.40074768
-11.855129
-0.47343872
-14.231525
-0.55274936
-17.095082
-0.63721115
-20.553965
-0.72480083
-24.739091
-0.81164922
-29.809919
-0.89082215
-35.963958
-0.95053863
-43.448208
-0.97200469
-52.57252
-0.92604895
-63.730375
-0.76789002
-77.423127
-94.293673
-9.2466846e-06
-0.0078873171
-4.26717e-05
-0.011054141
-7.4171593e-05
-0.014535307
-0.0001006568
-0.018798232
-0.00011779402
-0.024165647
-0.00012751541
-0.031057913
-0.00029693671
-0.038159151
-0.0005185768
-0.045987175
-0.00078301398
-0.054848287
-0.0011015717
-0.065903782
-0.0014785886
-0.078785819
-0.0019347681
-0.094520513
-0.0024739691
-0.11313237
-0.0031258322
-0.13563519
-0.003898248
-0.16244236
-0.0048293344
-0.19469889
-0.0059364603
-0.23324527
-0.0072662799
-0.27951397
-0.008851686
-0.33486395
-0.010760689
-0.40118853
-0.013059325
-0.48051696
-0.015847932
-0.5754083
-0.019250018
-0.68872952
-0.023440213
-0.82390313
-0.028640253
-0.98485194
-0.035132163
-1.1762067
-0.043248516
-1.4033929
-0.053342601
-1.6729528
-0.065748266
-1.9929736
-0.08078396
-2.373623
-0.098724237
-2.8272438
-0.11992552
-3.36924
-0.14510574
-4.0170537
-0.17416859
-4.7919953
-0.20481673
-5.7236988
-0.24052771
-6.840798
-0.2827179
-8.1945157
-0.33249645
-9.8306714
-0.39721433
-11.795408
-0.46955406
-14.164129
-0.54853744
-17.019966
-0.63294878
-20.472057
-0.7209676
-24.652435
-0.80902718
-29.722413
-0.89060228
-35.88244
-0.95454993
-43.383954
-0.98303162
-52.54356
-0.9482042
-63.764569
-0.80729856
-77.562929
-94.603325
-2.2738855e-06
-0.0078524123
-3.2801316e-05
-0.011020289
-6.0565825e-05
-0.014503714
-8.1541918e-05
-0.018773153
-8.9770789e-05
-0.024152634
-9.7899968e-05
-0.031044389
-0.00026286723
-0.037987426
-0.00047533795
-0.045766441
-0.00072825073
-0.054585587
-0.001033869
-0.065586604
-0.0013948319
-0.078410842
-0.0018326352
-0.094066144
-0.0023494349
-0.11259562
-0.0029751722
-0.13498564
-0.003715962
-0.16167288
-0.0046096917
-0.1937707
-0.0056704959
-0.23214302
-0.0069444979
-0.27819009
-0.0084647169
-0.33328435
-0.010300999
-0.39928166
-0.012519984
-0.47821439
-0.015220719
-0.57260863
-0.018528252
-0.68530397
-0.022619933
-0.81966854
-0.027725135
-0.97957088
-0.034133041
-1.169581
-0.042177211
-1.3950859
-0.052204371
-1.6626077
-0.064535631
-1.9802367
-0.07947021
-2.3581511
-0.097265835
-2.8086978
-0.11828904
-3.3471955
-0.14325329
-3.9909863
-0.17197139
-4.7614736
-0.20236505
-5.6880784
-0.23736632
-6.8004683
-0.27946632
-8.1493076
-0.32996196
-9.7788072
-0.39440005
-11.736103
-0.46648362
-14.096985
-0.5452972
-16.944954
-0.62983074
-20.389964
-0.71849756
-24.565092
-0.80800872
-29.633434
-0.89226943
-35.798229
-0.96078235
-43.315141
-0.99661845
-52.507244
-0.97334603
-63.787193
-0.85021376
-77.684923
-94.886107
7.5279894e-06
-0.0078209287
-1.9122813e-05
-0.010990754
-4.2191362e-05
-0.014477256
-5.6735737e-05
-0.018754501
-5.4957824e-05
-0.024150042
-6.3182278e-05
-0.03103108
-0.00022348091
-0.03782073
-0.00042738236
-0.045554849
-0.00066937663
-0.054334261
-0.00096279838
-0.06528218
-0.0013085061
-0.078051869
-0.0017288712
-0.093630092
-0.0022240098
-0.11208145
-0.002824423
-0.13436258
-0.0035346188
-0.16093526
-0.0043905096
-0.19288213
-0.0054041086
-0.23109007
-0.0066235671
-0.2769237
-0.0080850463
-0.33176607
-0.0098527634
-0.39744601
-0.011994453
-0.47599193
-0.014614464
-0.56989278
-0.017840578
-0.68196328
-0.021848932
-0.81552124
-0.026877749
-0.9743708
-0.033222823
-1.1630238
-0.041219409
-1.3868342
-0.051205419
-1.6523139
-0.063488973
-1.9675601
-0.078349909
-2.3427673
-0.096031185
-2.7902797
-0.11690806
-3.325322
-0.14167115
-3.9651595
-0.17007287
-4.7312983
-0.20064837
-5.6525323
-0.23502195
-6.760575
-0.27648372
-8.1043656
-0.32806386
-9.7272375
-0.39231549
-11.677084
-0.46424185
-14.029973
-0.54303751
-16.869886
-0.62788669
-20.307489
-0.71742027
-24.476839
-0.80864206
-29.542725
-0.89589036
-35.711024
-0.969303
-43.241434
-1.0129174
-52.463148
-1.0015961
-63.797853
-0.89666578
-77.788683
-95.141441
1.4687766e-05
-0.0077927333
-8.7890919e-06
-0.010965208
-2.7754662e-05
-0.014455854
-3.7073487e-05
-0.018741886
-2.5593449e-05
-0.024157852
-3.7022842e-05
-0.031014968
-0.00019402822
-0.037657987
-0.00039021747
-0.045351309
-0.00062223976
-0.054093564
-0.00090429305
-0.064989688
-0.0012353669
-0.077708175
-0.0016386181
-0.093211799
-0.0021128112
-0.11158927
-0.0026885203
-0.13376523
-0.0033681344
-0.16022983
-0.004185714
-0.19203348
-0.0051562385
-0.23008237
-0.0063279234
-0.27570719
-0.0077345994
-0.33030606
-0.0094388957
-0.39567843
-0.011508211
-0.47384778
-0.014050614
-0.56726184
-0.017200776
-0.67870715
-0.021143996
-0.81144913
-0.026116585
-0.96923818
-0.032421592
-1.1565199
-0.04039521
-1.3786214
-0.05036596
-1.6420537
-0.062627327
-1.9549269
-0.077441544
-2.3274523
-0.095040428
-2.7719626
-0.11580315
-3.3035866
-0.14038177
-3.9395285
-0.16848371
-4.7014305
-0.19929116
-5.6172467
-0.23365732
-6.7207031
-0.27378032
-8.0598377
-0.3268509
-9.6756033
-0.39098373
-11.618237
-0.46287261
-13.962944
-0.54180636
-16.794595
-0.62716432
-20.224432
-0.71778976
-24.38745
-0.8109907
-29.450014
-0.90153187
-35.620519
-0.98020337
-43.162472
-1.031959
-52.410911
-1.0331068
-63.796031
-0.94686751
-77.873721
-95.368779
2.355017e-05
-0.0077662112
3.4537565e-06
-0.010942174
-1.1075136e-05
-0.014438001
-1.5198038e-05
-0.018734147
6.0976343e-06
-0.024175195
-9.8895851e-06
-0.030994576
-0.00016308553
-0.0374989
-0.0003514179
-0.045156093
-0.00057291215
-0.053863599
-0.00084312286
-0.064709574
-0.0011593108
-0.077380019
-0.0015457161
-0.092811306
-0.0019993019
-0.11111855
-0.0025506721
-0.13319359
-0.003199534
-0.15955646
-0.0039825967
-0.19122129
-0.004915823
-0.22911372
-0.0060437172
-0.27453665
-0.0073986904
-0.32889986
-0.0090436179
-0.39397241
-0.011048625
-0.47177036
-0.013521074
-0.56470345
-0.016602869
-0.67552231
-0.02049249
-0.80743395
-0.025431431
-0.96414317
-0.031719689
-1.1500376
-0.039695804
-1.3704131
-0.049677645
-1.6317911
-0.061942541
-1.9423014
-0.076736232
-2.312171
-0.094284125
-2.7537082
-0.11496721
-3.2819459
-0.13938003
-3.9140702
-0.16719464
-4.6718648
-0.19813718
-5.5823032
-0.2328611
-6.6809215
-0.27179249
-8.0155838
-0.32630798
-9.6230492
-0.39040848
-11.559429
-0.46237706
-13.895764
-0.54162107
-16.718903
-0.62768401
-20.140594
-0.71964193
-24.296684
-0.81509697
-29.35503
-0.90925778
-35.526388
-0.99355662
-43.077888
-1.053926
-52.350061
-1.0679693
-63.781302
-1.0010015
-77.939458
-95.567603
3.1558629e-05
-0.0077428062
1.5289188e-05
-0.010923195
6.0570933e-06
-0.014425553
8.3552303e-06
-0.018732958
3.9844509e-05
-0.024202833
1.9992621e-05
-0.030970442
-0.00012934983
-0.03734391
-0.00031017081
-0.044968761
-0.00052174168
-0.053644119
-0.0007811406
-0.064441006
-0.0010834636
-0.077066412
-0.0014540234
-0.09242746
-0.0018884196
-0.1106682
-0.0024160904
-0.13264675
-0.0030376441
-0.15891205
-0.0037905422
-0.19044049
-0.0046883257
-0.22818249
-0.0057732829
-0.27341157
-0.0070794086
-0.32754589
-0.0086707766
-0.39232441
-0.010617855
-0.46975653
-0.013031577
-0.5622107
-0.016058151
-0.67240086
-0.019907193
-0.80346871
-0.024830777
-0.9590739
-0.031128175
-1.143558
-0.039132917
-1.36219
-0.049150522
-1.6215083
-0.061444763
-1.929665
-0.076242082
-2.2969068
-0.093767818
-2.7354972
-0.1144062
-3.2603712
-0.13868034
-3.8887203
-0.16622765
-4.6424938
-0.19718125
-5.5477156
-0.23182299
-6.6416044
-0.27132819
-7.9706028
-0.3264738
-9.5700328
-0.39060273
-11.500541
-0.46279316
-13.828274
-0.54251706
-16.642632
-0.62949651
-20.05576
-0.72302803
-24.204298
-0.82102456
-29.257483
-0.919138
-35.4283
-1.0094602
-42.987283
-1.0788487
-52.280193
-1.1063359
-63.753117
-1.0591587
-77.985377
-95.737244
3.7981046e-05
-0.0077215539
2.4263902e-05
-0.010907277
1.9198796e-05
-0.014417646
2.6789032e-05
-0.018737368
6.6380284e-05
-0.024239055
4.0236081e-05
-0.030940186
-0.00010358272
-0.037194814
-0.00027704961
-0.044789192
-0.00047918645
-0.053434416
-0.00072819965
-0.064183248
-0.0010177884
-0.076766199
-0.0013740631
-0.09205875
-0.0017899926
-0.11023706
-0.0022961866
-0.13212267
-0.0028933543
-0.15829303
-0.0036176019
-0.18969049
-0.0044807469
-0.22728789
-0.0055255979
-0.27232861
-0.0067870111
-0.32623862
-0.0083288443
-0.39072793
-0.010224876
-0.46779577
-0.012589735
-0.55976899
-0.015576261
-0.66932181
-0.019399266
-0.79953227
-0.024327219
-0.95400344
-0.030661317
-1.1370463
-0.03871937
-1.3539196
-0.048799263
-1.6111711
-0.061143687
-1.9169889
-0.075967606
-2.281629
-0.093501023
-2.7172921
-0.11413138
-3.2388167
-0.13830275
-3.8634453
-0.16561694
-4.6132892
-0.19657781
-5.5133666
-0.23139369
-6.6025496
-0.27161222
-7.9253552
-0.3273436
-9.5178222
-0.39159114
-11.441436
-0.46415344
-13.760319
-0.54453578
-16.565601
-0.63263761
-19.969724
-0.72800254
-24.110034
-0.82884341
-29.157073
-0.93126081
-35.325903
-1.0279995
-42.890267
-1.1068704
-52.200844
-1.1483284
-63.710949
-1.1216133
-78.010806
-95.877062
4.4800937e-05
-0.0077029851
3.4693136e-05
-0.010895149
3.4760884e-05
-0.014415061
4.872887e-05
-0.018748431
9.633505e-05
-0.024283434
6.3183803e-05
-0.030903201
-7.3246526e-05
-0.03705347
-0.00024011086
-0.044616603
-0.0004338706
-0.053233582
-0.00067376011
-0.063935222
-0.00095167372
-0.076478211
-0.0012945163
-0.091704085
-0.001693665
-0.10982375
-0.0021797335
-0.13161952
-0.0027537558
-0.15769876
-0.0034493844
-0.18897006
-0.004279952
-0.22642761
-0.0052874363
-0.27128552
-0.0065083027
-0.32497528
-0.0080040083
-0.38918193
-0.0098540088
-0.46588647
-0.012179846
-0.55737287
-0.015143651
-0.66627318
-0.018964252
-0.79560691
-0.023919039
-0.9489156
-0.0303122
-1.1304864
-0.038450507
-1.3455809
-0.048613373
-1.6007639
-0.061028938
-1.9042569
-0.075906274
-2.2663167
-0.093483822
-2.6990692
-0.11414521
-3.2172599
-0.13825279
-3.8381769
-0.16536952
-4.5840979
-0.1963403
-5.4791572
-0.23156452
-6.5636699
-0.2725356
-7.8800093
-0.32879205
-9.4659598
-0.39338041
-11.381876
-0.466476
-13.691735
-0.54769729
-16.487621
-0.63715228
-19.882253
-0.73461089
-24.013631
-0.83860522
-29.053491
-0.94569012
-35.218835
-1.049275
-42.786407
-1.1381492
-52.111493
-1.194099
-63.654279
-1.1883955
-78.015198
-95.986296
5.0898602e-05
-0.0076858071
4.4001538e-05
-0.010885637
4.8642653e-05
-0.014416783
6.8617981e-05
-0.018765221
0.00012167312
-0.024333331
7.9943424e-05
-0.030857588
-5.1132735e-05
-0.036917549
-0.00021260357
-0.044449645
-0.00039871209
-0.053040642
-0.00062991475
-0.063696196
-0.00089655669
-0.076202045
-0.0012260808
-0.091363454
-0.0016089207
-0.10942729
-0.0020763277
-0.13113609
-0.002627434
-0.15712811
-0.0032964936
-0.18827812
-0.0040967535
-0.22559944
-0.0050704214
-0.27027803
-0.006252532
-0.32375247
-0.0077060944
-0.38767981
-0.0095171341
-0.46401786
-0.011815034
-0.55500646
-0.014771074
-0.66323422
-0.018614101
-0.79166131
-0.023620425
-0.94377886
-0.03009661
-1.123847
-0.038337677
-1.3371448
-0.048603579
-1.5902605
-0.061116492
-1.8914369
-0.076077933
-2.2509328
-0.093730921
-2.6807879
-0.1144616
-3.1956504
-0.13854835
-3.8128762
-0.16550991
-4.5548834
-0.19646344
-5.4450336
-0.23226656
-6.5248256
-0.27411759
-7.8347159
-0.33081658
-9.4139756
-0.39601515
-11.321746
-0.46979911
-13.622363
-0.55205191
-16.408497
-0.64309173
-19.793115
-0.74291687
-23.91482
-0.85038602
-28.946418
-0.96251416
-35.106721
-1.0733842
-42.675267
-1.1727522
-52.011651
-1.2438306
-63.58247
-1.2598706
-77.997821
-96.064245
5.6329461e-05
-0.0076705703
5.2132628e-05
-0.010879122
6.146083e-05
-0.014423379
8.8224229e-05
-0.018789009
0.00014552325
-0.024387629
9.5459252e-05
-0.030803924
-3.0624666e-05
-0.036786906
-0.00018618419
-0.044288916
-0.00036448275
-0.052855932
-0.00058729432
-0.063466096
-0.00084324159
-0.075937039
-0.0011596183
-0.091036489
-0.0015263112
-0.10904788
-0.0019749941
-0.13067212
-0.0025049662
-0.15658011
-0.0031488793
-0.18761214
-0.0039213746
-0.2248006
-0.0048632226
-0.26930472
-0.0060098758
-0.32256836
-0.0074294697
-0.38621584
-0.0092147978
-0.46218017
-0.011496993
-0.55266199
-0.014458688
-0.66019682
-0.018340642
-0.78768473
-0.023422646
-0.93857496
-0.030005877
-1.1171099
-0.038371949
-1.3285937
-0.048768652
-1.5796363
-0.061408633
-1.8785011
-0.076478121
-2.2354562
-0.094233653
-2.6624343
-0.11507037
-3.1739782
-0.13918971
-3.7874924
-0.16605624
-4.5254979
-0.19700931
-5.4108676
-0.23346779
-6.4858229
-0.27639744
-7.7893808
-0.33361128
-9.3616819
-0.39952263
-11.260918
-0.47415065
-13.552028
-0.55763181
-16.328024
-0.650489
-19.702079
-0.75297207
-23.813309
-0.86424972
-28.835522
-0.98181513
-34.989169
-1.1004274
-42.556388
-1.2108286
-51.900778
-1.2976143
-63.494944
-1.3360995
-77.957974
-96.110118
6.1996867e-05
-0.0076578817
6.0714278e-05
-0.01087597
7.4846478e-05
-0.014435106
0.00010918346
-0.018820763
0.00016880899
-0.024444595
0.00010958025
-0.030741371
-1.1328047e-05
-0.036661669
-0.00016141832
-0.044134011
-0.00033226706
-0.052678942
-0.00054689906
-0.063244524
-0.00079245888
-0.07568293
-0.0010963921
-0.090722639
-0.0014477786
-0.10868436
-0.0018791184
-0.13022658
-0.0023892572
-0.15605266
-0.0030107626
-0.18697037
-0.0037588897
-0.22402775
-0.0046708974
-0.26836282
-0.0057879947
-0.32141533
-0.0071843125
-0.38477663
-0.0089536709
-0.46035989
-0.01123499
-0.55031984
-0.0142191
-0.65713853
-0.018157491
-0.78365341
-0.023337762
-0.93327464
-0.030049586
-1.1102476
-0.038566007
-1.3198967
-0.049124966
-1.5688557
-0.061914213
-1.8654239
-0.077113469
-2.2198612
-0.094998821
-2.6439719
-0.11597581
-3.1521959
-0.14018602
-3.7619764
-0.16704262
-4.4958721
-0.19813255
-5.3764471
-0.23508554
-6.4463961
-0.2793595
-7.7435975
-0.33720419
-9.3089033
-0.40392579
-11.199261
-0.47955816
-13.480559
-0.56447556
-16.245997
-0.65940173
-19.608896
-0.76483437
-23.708811
-0.88027551
-28.720448
-1.0036813
-34.865775
-1.1305144
-42.429293
-1.2525063
-51.778317
-1.3556634
-63.391037
-1.4173257
-77.894928
-96.123032
6.6935564e-05
-0.0076470902
6.8224125e-05
-0.010875609
8.6812324e-05
-0.014451401
0.00012909117
-0.018860638
0.00018850596
-0.024501521
0.00011889061
-0.030668673
2.6273206e-06
-0.036541324
-0.00014207857
-0.043984781
-0.00030557118
-0.052509698
-0.00051211474
-0.063031549
-0.00074650602
-0.075440475
-0.0010385063
-0.090421296
-0.0013770367
-0.10833462
-0.0017929511
-0.12979719
-0.0022859046
-0.15554371
-0.0028872019
-0.1863495
-0.0036131251
-0.22327864
-0.004500252
-0.26744808
-0.0055950984
-0.32028766
-0.0069741474
-0.38335869
-0.0087370695
-0.45855101
-0.011031107
-0.54797088
-0.014059348
-0.65404287
-0.018080113
-0.779547
-0.023379738
-0.92786255
-0.030243503
-1.1032418
-0.038939383
-1.3110286
-0.04968187
-1.5578989
-0.062639277
-1.8521852
-0.077990968
-2.2041233
-0.096032626
-2.625382
-0.11718072
-3.1302968
-0.14154443
-3.7363083
-0.16870792
-4.4657476
-0.20007211
-5.3416869
-0.23706967
-6.4068956
-0.28302898
-7.6974077
-0.34161094
-9.2554884
-0.40925835
-11.136615
-0.4860647
-13.40777
-0.57262799
-16.162201
-0.66988765
-19.513303
-0.7785738
-23.601022
-0.89853039
-28.600846
-1.0282101
-34.736107
-1.1637608
-42.293484
-1.2979221
-51.64369
-1.4181301
-63.27007
-1.5037319
-77.807919
-96.102102
7.2895031e-05
-0.0076390245
7.768329e-05
-0.010878484
0.00010113041
-0.01447252
0.00015279939
-0.018909918
0.00021038923
-0.024556742
0.0001316289
-0.030586618
2.0547334e-05
-0.036426421
-0.00011857403
-0.043841414
-0.00027491203
-0.052347915
-0.00047395187
-0.062826401
-0.00069884471
-0.075208071
-0.00098029957
-0.090131096
-0.0013071627
-0.10799707
-0.0017094774
-0.12938217
-0.0021872354
-0.1550506
-0.0027712718
-0.18574749
-0.0034762066
-0.22255193
-0.0043431644
-0.26655489
-0.0054230615
-0.31917624
-0.0067922256
-0.38195188
-0.0085573497
-0.4567411
-0.010877914
-0.54559651
-0.013970433
-0.65088421
-0.018098979
-0.77533403
-0.023544474
-0.92230607
-0.030590584
-1.096056
-0.03948916
-1.3019613
-0.050433636
-1.5467445
-0.063580645
-1.838763
-0.079107205
-2.1882197
-0.097330729
-2.6066325
-0.11867897
-3.1082411
-0.14324881
-3.7104554
-0.17106176
-4.4349852
-0.20287011
-5.3063815
-0.23948159
-6.3674509
-0.2874205
-7.6497866
-0.34683896
-9.201287
-0.41553183
-11.072831
-0.49369122
-13.333479
-0.58213429
-16.076408
-0.68198932
-19.415042
-0.79424826
-23.489626
-0.91909964
-28.476338
-1.0554898
-34.59973
-1.2002763
-42.148444
-1.3472162
-51.496287
-1.4851666
-63.131352
-1.5955617
-77.696096
-96.046355
7.606613e-05
-0.0076316557
8.1912347e-05
-0.0108828
0.0001082477
-0.014496707
0.00016857677
-0.018968091
0.00022117575
-0.024606908
0.00013985655
-0.030502431
3.3241822e-05
-0.036316285
-0.00010124248
-0.043703028
-0.00025135191
-0.052192693
-0.00044404113
-0.062628068
-0.00066128175
-0.074983616
-0.00093422245
-0.089849917
-0.0012508809
-0.1076703
-0.0016409415
-0.12898014
-0.0021051958
-0.15457203
-0.0026731757
-0.1851623
-0.0033612309
-0.22184357
-0.0042127412
-0.26567931
-0.0052826027
-0.31807781
-0.006649347
-0.3805513
-0.0084268651
-0.45492349
-0.010789953
-0.54318517
-0.013968289
-0.64764602
-0.018227221
-0.77099724
-0.023848587
-0.91658032
-0.031106055
-1.0886658
-0.040228776
-1.2926765
-0.051394746
-1.5353735
-0.064750708
-1.8251343
-0.080476397
-2.1721195
-0.098908434
-2.5876939
-0.12048467
-3.0860031
-0.14529773
-3.6844125
-0.17366655
-4.4038726
-0.20602559
-5.2707168
-0.24283357
-6.326962
-0.29258153
-7.6005979
-0.35292585
-9.1461298
-0.42278744
-11.007745
-0.50248465
-13.257492
-0.59303975
-15.988386
-0.69576759
-19.313839
-0.8119308
-23.374293
-0.94206237
-28.346541
-1.0856207
-34.456186
-1.2401855
-41.99363
-1.4005346
-51.335478
-1.5570167
-62.974095
-1.6930281
-77.558636
-95.954847
8.1398224e-05
-0.0076264502
9.0243711e-05
-0.010889863
0.00012106305
-0.014525077
0.00019169422
-0.019036672
0.00023786295
-0.024650841
0.00016045234
-0.030422625
5.7275645e-05
-0.036209501
-7.3994113e-05
-0.043568009
-0.00021970715
-0.052042068
-0.00040720876
-0.062435142
-0.00061785878
-0.074766238
-0.00088321923
-0.08957671
-0.0011908114
-0.10735318
-0.0015699629
-0.12858972
-0.0020225433
-0.15410603
-0.0025755006
-0.18459356
-0.0032504681
-0.2211495
-0.0040925382
-0.26481429
-0.0051574469
-0.31698539
-0.0065286272
-0.37914728
-0.0083349485
-0.45307801
-0.010762807
-0.54070997
-0.014048408
-0.64430155
-0.018461823
-0.76650693
-0.024286799
-0.91065227
-0.031778933
-1.0810433
-0.04114491
-1.2831511