/*--------------------------------*- C++ -*----------------------------------*\
  =========                 |
  \\      /  F ield         | OpenFOAM: The Open Source CFD Toolbox
   \\    /   O peration     | Website:  https://openfoam.org
    \\  /    A nd           | Version:  8
     \\/     M anipulation  |
\*---------------------------------------------------------------------------*/
FoamFile
{
    version     2.0;
    format      ascii;
    class       pointVectorField;
    location    "0.0099963";
    object      pointDisplacement;
}
// * * * * * * * * * * * * * * * * * * * * * * * * * * * * * * * * * * * * * //

dimensions      [0 1 0 0 0 0 0];

internalField   nonuniform List<vector> 
40800
(
(-0.0010914189 0 -0.00089284142)
(-0.0010897737 0 -0.00073991741)
(-0.0010896276 0 -0.0007407473)
(-0.0010912838 0 -0.00089695955)
(-0.0010896096 0 -0.00074080126)
(-0.001091267 0 -0.00089710982)
(-0.0010895742 0 -0.00074090597)
(-0.001091233 0 -0.0008972888)
(-0.0010895137 0 -0.00074104897)
(-0.0010911747 0 -0.00089751938)
(-0.0010894173 0 -0.00074124446)
(-0.0010910816 0 -0.00089781806)
(-0.0010892707 0 -0.0007415123)
(-0.0010909393 0 -0.0008982078)
(-0.0010890536 0 -0.00074188069)
(-0.0010907283 0 -0.00089872042)
(-0.0010887388 0 -0.00074238917)
(-0.0010904218 0 -0.00089939963)
(-0.0010882893 0 -0.00074309398)
(-0.0010899832 0 -0.00090030632)
(-0.0010876552 0 -0.00074407457)
(-0.0010893637 0 -0.00090152473)
(-0.0010867699 0 -0.00074544344)
(-0.0010884978 0 -0.0009031723)
(-0.0010855452 0 -0.00074735929)
(-0.0010872983 0 -0.00090541208)
(-0.0010838649 0 -0.00075004488)
(-0.0010856508 0 -0.0009084703)
(-0.0010815771 0 -0.00075381237)
(-0.0010834057 0 -0.00091266088)
(-0.001078487 0 -0.0007590967)
(-0.0010803699 0 -0.00091841742)
(-0.0010743458 0 -0.00076649803)
(-0.0010762977 0 -0.00092633404)
(-0.0010688424 0 -0.00077685556)
(-0.0010708804 0 -0.00093723838)
(-0.0010615961 0 -0.00079130658)
(-0.0010637397 0 -0.00095224304)
(-0.0010521546 0 -0.00081136089)
(-0.001054424 0 -0.00097282037)
(-0.0010399999 0 -0.00083900667)
(-0.0010424139 0 -0.0010009086)
(-0.0010245649 0 -0.00087679248)
(-0.0010271372 0 -0.001038983)
(-0.0010052686 0 -0.00092787567)
(-0.001008002 0 -0.0010901028)
(-0.00098157004 0 -0.00099597993)
(-0.00098445009 0 -0.0011578725)
(-0.00095304442 0 -0.0010851997)
(-0.00095603162 0 -0.0012462543)
(-0.00091946651 0 -0.0011996003)
(-0.00092249224 0 -0.0013591755)
(-0.0008808713 0 -0.0013426182)
(-0.00088383362 0 -0.001499956)
(-0.00083762622 0 -0.0015160943)
(-0.00084040376 0 -0.0016702911)
(-0.00079041557 0 -0.0017195382)
(-0.00079288363 0 -0.0018695787)
(-0.0007402399 0 -0.0019491415)
(-0.00074228778 0 -0.0020939721)
(-0.00068834018 0 -0.0021976696)
(-0.00068989959 0 -0.0023361726)
(-0.00063599194 0 -0.0024554397)
(-0.00063704783 0 -0.0025864634)
(-0.00058443616 0 -0.0027112344)
(-0.00058502959 0 -0.0028336733)
(-0.00053476156 0 -0.0029535954)
(-0.00053497374 0 -0.0030664845)
(-0.0004877568 0 -0.0031728007)
(-0.00048767796 0 -0.0032755085)
(-0.00044405484 0 -0.0033610803)
(-0.00044378618 0 -0.0034532768)
(-0.00040405368 0 -0.0035131284)
(-0.00040368723 0 -0.0035948321)
(-0.00036788623 0 -0.0036267413)
(-0.00036749552 0 -0.0036983322)
(-0.00033556635 0 -0.0037016678)
(-0.00033520715 0 -0.0037638446)
(-0.00030695178 0 -0.0037388961)
(-0.00030667164 0 -0.0037924884)
(-0.00028173639 0 -0.0037382939)
(-0.00028156322 0 -0.0037841021)
(-0.00025948351 0 -0.0036995005)
(-0.00025945937 0 -0.0037384107)
(-0.00023857041 0 -0.0036158139)
(-0.00023856912 0 -0.0036479608)
(-0.00021852883 0 -0.0034868967)
(-0.00021857844 0 -0.0035134021)
(-0.00019934418 0 -0.0033046342)
(-0.00019942495 0 -0.003325373)
(-0.00018019036 0 -0.003065719)
(-0.00018034547 0 -0.0030819555)
(-0.00016111795 0 -0.0027780355)
(-0.00016145244 0 -0.0027923626)
(-0.00013702395 0 -0.0023740487)
(-0.0001373237 0 -0.0023842192)
(-0.00010603559 0 -0.0018232167)
(-0.00010634432 0 -0.0018302546)
(-6.6260337e-05 0 -0.0011132335)
(-6.6815765e-05 0 -0.0011218824)
(0 0 0)
(0 0 0)
(-0.0010875765 0 -0.00059029086)
(-0.001087433 0 -0.00059107747)
(-0.0010874135 0 -0.0005910472)
(-0.0010873758 0 -0.00059102123)
(-0.0010873121 0 -0.00059100719)
(-0.0010872116 0 -0.00059101534)
(-0.0010870595 0 -0.00059106118)
(-0.0010868352 0 -0.00059116791)
(-0.001086511 0 -0.00059136965)
(-0.0010860489 0 -0.00059171662)
(-0.0010853986 0 -0.00059228108)
(-0.0010844922 0 -0.00059316752)
(-0.0010832403 0 -0.0005945251)
(-0.0010815248 0 -0.00059656627)
(-0.0010791924 0 -0.00059959284)
(-0.0010760456 0 -0.00060402846)
(-0.0010718334 0 -0.00061047205)
(-0.0010662422 0 -0.00061975711)
(-0.0010588894 0 -0.00063302507)
(-0.0010493223 0 -0.00065180952)
(-0.001037024 0 -0.00067813205)
(-0.0010214325 0 -0.00071460259)
(-0.0010019768 0 -0.00076446719)
(-0.00097813307 0 -0.00083156592)
(-0.0009495011 0 -0.0009201314)
(-0.00091588357 0 -0.0010343902)
(-0.00087734966 0 -0.0011779302)
(-0.00083428585 0 -0.0013528058)
(-0.00078738152 0 -0.0015587069)
(-0.00073762724 0 -0.001791929)
(-0.00068622176 0 -0.002045387)
(-0.00063439094 0 -0.0023094825)
(-0.00058332217 0 -0.0025729926)
(-0.00053406305 0 -0.0028243405)
(-0.0004873901 0 -0.0030534982)
(-0.00044392511 0 -0.0032523672)
(-0.00040406583 0 -0.0034153075)
(-0.00036796465 0 -0.0035396842)
(-0.00033564708 0 -0.0036248886)
(-0.00030698111 0 -0.0036716805)
(-0.0002816729 0 -0.0036799057)
(-0.00025928308 0 -0.0036491005)
(-0.00023832457 0 -0.0035731252)
(-0.0002182719 0 -0.0034511151)
(-0.00019903439 0 -0.0032753705)
(-0.00017983385 0 -0.0030422983)
(-0.00016055048 0 -0.0027571501)
(-0.0001364547 0 -0.0023576195)
(-0.00010549941 0 -0.0018114482)
(-6.546742e-05 0 -0.0011005747)
(0 0 0)
(-0.0010848397 0 -0.00044389325)
(-0.001084699 0 -0.00044460453)
(-0.0010846764 0 -0.00044445873)
(-0.0010846348 0 -0.00044429745)
(-0.0010845664 0 -0.00044412755)
(-0.0010844601 0 -0.00044395576)
(-0.0010843006 0 -0.00044379248)
(-0.001084067 0 -0.00044365448)
(-0.0010837309 0 -0.00044356911)
(-0.0010832537 0 -0.00044357839)
(-0.0010825838 0 -0.00044374574)
(-0.0010816524 0 -0.00044416615)
(-0.0010803684 0 -0.00044497847)
(-0.001078612 0 -0.00044638568)
(-0.0010762278 0 -0.00044867914)
(-0.0010730157 0 -0.00045227709)
(-0.001068722 0 -0.00045777205)
(-0.0010630305 0 -0.00046599725)
(-0.001055557 0 -0.00047810213)
(-0.0010458479 0 -0.00049563798)
(-0.0010333884 0 -0.00052066828)
(-0.001017622 0 -0.0005558665)
(-0.00099798921 0 -0.00060456814)
(-0.00097398483 0 -0.00067072768)
(-0.00094523527 0 -0.00075871024)
(-0.00091157381 0 -0.00087289101)
(-0.00087310514 0 -0.0010169952)
(-0.00083023649 0 -0.0011932651)
(-0.00078366394 0 -0.0014015398)
(-0.00073436737 0 -0.0016382024)
(-0.00068350208 0 -0.0018963087)
(-0.00063224191 0 -0.0021663488)
(-0.00058171875 0 -0.0024371139)
(-0.00053293618 0 -0.0026969385)
(-0.00048665423 0 -0.0029355358)
(-0.00044348193 0 -0.0031445146)
(-0.00040381592 0 -0.0033179214)
(-0.00036782559 0 -0.0034527165)
(-0.00033554913 0 -0.0035479374)
(-0.00030686513 0 -0.0036041104)
(-0.00028149266 0 -0.0036210352)
(-0.00025899268 0 -0.0035981463)
(-0.00023799936 0 -0.0035297861)
(-0.00021794385 0 -0.0034146475)
(-0.00019866708 0 -0.0032453804)
(-0.00017942691 0 -0.0030181102)
(-0.00015995597 0 -0.0027357506)
(-0.00013585679 0 -0.0023406388)
(-0.00010493722 0 -0.0017991362)
(-6.469046e-05 0 -0.0010880246)
(0 0 0)
(-0.0010815812 0 -0.00030065743)
(-0.0010814435 0 -0.00030131826)
(-0.0010814179 0 -0.00030108282)
(-0.0010813722 0 -0.00030081156)
(-0.0010812984 0 -0.00030050438)
(-0.001081185 0 -0.0003001632)
(-0.0010810163 0 -0.00029979412)
(-0.001080771 0 -0.00029940931)
(-0.00108042 0 -0.00029903095)
(-0.001079924 0 -0.0002986946)
(-0.0010792304 0 -0.00029845706)
(-0.001078269 0 -0.00029840482)
(-0.0010769471 0 -0.0002986683)
(-0.001075143 0 -0.00029944082)
(-0.001072699 0 -0.00030100488)
(-0.0010694121 0 -0.00030377017)
(-0.0010650259 0 -0.00030832528)
(-0.0010592213 0 -0.00031550285)
(-0.001051612 0 -0.00032645851)
(-0.0010417443 0 -0.00034276837)
(-0.0010291054 0 -0.00036654037)
(-0.0010131456 0 -0.00040051475)
(-0.00099331779 0 -0.00044811784)
(-0.00096913743 0 -0.00051341584)
(-0.00094025945 0 -0.00060090107)
(-0.00090655065 0 -0.00071508307)
(-0.00086815208 0 -0.00085981077)
(-0.00082549331 0 -0.0010374891)
(-0.00077927887 0 -0.0012480728)
(-0.00073047617 0 -0.0014880176)
(-0.00068019573 0 -0.0017505122)
(-0.0006295574 0 -0.0020261376)
(-0.00057963562 0 -0.0023037173)
(-0.00053138774 0 -0.0025715237)
(-0.00048555332 0 -0.0028190562)
(-0.00044272736 0 -0.003037666)
(-0.00040330424 0 -0.003221109)
(-0.0003674684 0 -0.0033659653)
(-0.00033527105 0 -0.0034709264)
(-0.0003066021 0 -0.0035362807)
(-0.00028119375 0 -0.0035617611)
(-0.00025861005 0 -0.0035467006)
(-0.00023759382 0 -0.0034858523)
(-0.00021754428 0 -0.0033775375)
(-0.00019824134 0 -0.0032146992)
(-0.00017896924 0 -0.0029931869)
(-0.00015933285 0 -0.002713842)
(-0.00013523021 0 -0.0023231226)
(-0.00010434934 0 -0.0017862956)
(-6.3927758e-05 0 -0.0010755624)
(0 0 0)
(-0.0010778179 0 -0.00016051735)
(-0.0010776814 0 -0.00016111678)
(-0.0010776513 0 -0.00016078095)
(-0.0010776 0 -0.0001603905)
(-0.0010775192 0 -0.000159942)
(-0.0010773971 0 -0.00015943314)
(-0.0010772176 0 -0.0001588649)
(-0.0010769587 0 -0.00015824361)
(-0.0010765904 0 -0.00015758444)
(-0.0010760727 0 -0.00015691546)
(-0.0010753517 0 -0.00015628515)
(-0.0010743559 0 -0.00015577122)
(-0.0010729906 0 -0.00015549518)
(-0.0010711321 0 -0.00015564126)
(-0.0010686201 0 -0.00015648371)
(-0.0010652489 0 -0.00015842517)
(-0.0010607587 0 -0.00016204951)
(-0.0010548277 0 -0.00016818987)
(-0.0010470674 0 -0.00017801252)
(-0.001037024 0 -0.00019312067)
(-0.0010241875 0 -0.00021567131)
(-0.0010080157 0 -0.00024847542)
(-0.0009879754 0 -0.00029505138)
(-0.00096360442 0 -0.00035957495)
(-0.00093458827 0 -0.00044665949)
(-0.00090082995 0 -0.00056093539)
(-0.00086250772 0 -0.00070636102)
(-0.00082007498 0 -0.00088547716)
(-0.00077424553 0 -0.0010983235)
(-0.00072597242 0 -0.0013414128)
(-0.00067631996 0 -0.0016080577)
(-0.00062635213 0 -0.0018889316)
(-0.00057708446 0 -0.0021729063)
(-0.000529426 0 -0.0024482178)
(-0.0004840928 0 -0.0027041913)
(-0.0004416643 0 -0.0029319577)
(-0.00040253181 0 -0.0031250035)
(-0.00036689274 0 -0.0032795547)
(-0.00033481179 0 -0.0033939657)
(-0.00030619035 0 -0.0034682859)
(-0.00028077435 0 -0.0035021622)
(-0.00025813305 0 -0.0034948262)
(-0.0002371069 0 -0.0034413789)
(-0.00021707259 0 -0.0033398276)
(-0.00019775621 0 -0.0031833613)
(-0.00017846035 0 -0.0029675591)
(-0.00015867949 0 -0.0026914278)
(-0.00013457465 0 -0.0023050822)
(-0.00010373599 0 -0.0017729394)
(-6.3177864e-05 0 -0.0010631725)
(0 0 0)
(-0.0010735626 0 -2.3408807e-05)
(-0.0010734274 0 -2.3945719e-05)
(-0.0010733921 0 -2.3507822e-05)
(-0.0010733343 0 -2.2996341e-05)
(-0.0010732454 0 -2.2404996e-05)
(-0.0010731131 0 -2.1727634e-05)
(-0.0010729209 0 -2.0960489e-05)
(-0.001072646 0 -2.010426e-05)
(-0.0010722578 0 -1.9167424e-05)
(-0.0010717151 0 -1.8170521e-05)
(-0.0010709628 0 -1.7153545e-05)
(-0.0010699277 0 -1.6185124e-05)
(-0.0010685133 0 -1.5377323e-05)
(-0.0010665935 0 -1.4904917e-05)
(-0.0010640051 0 -1.5033592e-05)
(-0.0010605395 0 -1.6159317e-05)
(-0.0010559335 0 -1.8861999e-05)
(-0.0010498622 0 -2.3976403e-05)
(-0.0010419353 0 -3.2682053e-05)
(-0.0010316988 0 -4.6613383e-05)
(-0.0010186465 0 -6.7982943e-05)
(-0.0010022444 0 -9.9676951e-05)
(-0.0009819745 0 -0.00014530574)
(-0.00095739903 0 -0.00020915235)
(-0.00092823614 0 -0.00029594463)
(-0.00089442765 0 -0.00041041964)
(-0.00085618964 0 -0.00055663175)
(-0.00081400043 0 -0.00073722921)
(-0.00076858355 0 -0.00095230616)
(-0.00072087545 0 -0.00119842)
(-0.00067189268 0 -0.0014689965)
(-0.00062264168 0 -0.0017548029)
(-0.0005740778 0 -0.0020447733)
(-0.00052706027 0 -0.0023271298)
(-0.00048227894 0 -0.0025910621)
(-0.00044029653 0 -0.0028275154)
(-0.00040150029 0 -0.00302973)
(-0.00036609897 0 -0.0031936023)
(-0.00033417064 0 -0.0033171611)
(-0.00030562866 0 -0.0034002169)
(-0.00028023284 0 -0.0034423156)
(-0.00025755968 0 -0.0034425851)
(-0.0002365375 0 -0.0033964196)
(-0.0002165282 0 -0.0033015604)
(-0.0001972108 0 -0.0031514009)
(-0.00017789983 0 -0.0029412572)
(-0.00015799443 0 -0.0026685141)
(-0.00013388988 0 -0.0022865312)
(-0.00010309755 0 -0.0017590844)
(-6.2439322e-05 0 -0.0010508385)
(0 0 0)
(-0.0010688298 0 0.0001107308)
(-0.0010686957 0 0.00011025274)
(-0.0010686544 0 0.00011078775)
(-0.0010685892 0 0.00011141411)
(-0.001068491 0 0.00011214254)
(-0.0010683472 0 0.00011298393)
(-0.0010681405 0 0.00011394746)
(-0.0010678475 0 0.00011503808)
(-0.0010674367 0 0.00011625362)
(-0.0010668657 0 0.00011758039)
(-0.001066078 0 0.00011898595)
(-0.0010649987 0 0.00012040996)
(-0.0010635291 0 0.00012174905)
(-0.0010615407 0 0.00012283768)
(-0.0010588672 0 0.00012341869)
(-0.0010552968 0 0.00012310338)
(-0.0010505626 0 0.00012131573)
(-0.0010443368 0 0.00011721789)
(-0.001036227 0 0.00010961401)
(-0.0010257799 0 9.6834514e-05)
(-0.0010124937 0 7.6601406e-05)
(-0.00099584345 0 4.5949529e-05)
(-0.00097532759 0 1.1793601e-06)
(-0.00095053479 0 -6.2097612e-05)
(-0.00092121807 0 -0.00014871624)
(-0.00088736041 0 -0.00026350728)
(-0.00084921638 0 -0.00041060551)
(-0.00080728987 0 -0.00059273866)
(-0.00076231392 0 -0.00081002774)
(-0.00071520602 0 -0.0010590615)
(-0.00066693328 0 -0.0013333689)
(-0.00061844312 0 -0.0016238111)
(-0.00057062968 0 -0.0019193975)
(-0.00052430121 0 -0.0022083569)
(-0.00048011933 0 -0.002479778)
(-0.00043862894 0 -0.0027244554)
(-0.0004002124 0 -0.0029354057)
(-0.00036508815 0 -0.0031082201)
(-0.00033334764 0 -0.0032406145)
(-0.00030491626 0 -0.003332163)
(-0.00027956805 0 -0.0033822971)
(-0.00025688832 0 -0.0033900396)
(-0.00023588468 0 -0.0033510288)
(-0.00021591059 0 -0.0032627788)
(-0.00019660431 0 -0.0031188528)
(-0.0001772872 0 -0.0029143115)
(-0.00015727623 0 -0.0026451076)
(-0.00013317557 0 -0.0022674812)
(-0.00010243432 0 -0.0017447463)
(-6.1710792e-05 0 -0.0010385467)
(0 0 0)
(-0.0010636351 0 0.00024196354)
(-0.0010635017 0 0.00024154556)
(-0.0010634536 0 0.00024217978)
(-0.0010633798 0 0.00024292352)
(-0.001063271 0 0.00024379157)
(-0.001063114 0 0.00024479908)
(-0.0010628908 0 0.00024596026)
(-0.0010625773 0 0.0002472854)
(-0.0010621409 0 0.00024877848)
(-0.001061538 0 0.00025043264)
(-0.0010607107 0 0.00025222305)
(-0.001059582 0 0.00025409789)
(-0.0010580512 0 0.00025596287)
(-0.0010559867 0 0.00025766192)
(-0.0010532192 0 0.00025894703)
(-0.0010495331 0 0.00025943689)
(-0.0010446579 0 0.00025855918)
(-0.0010382626 0 0.0002554718)
(-0.0010299533 0 0.00024895705)
(-0.0010192777 0 0.00023730666)
(-0.0010057399 0 0.00021815969)
(-0.00098882424 0 0.00018847054)
(-0.00096804672 0 0.00014446071)
(-0.00094302491 0 8.1635161e-05)
(-0.00091354879 0 -4.9393492e-06)
(-0.00087964492 0 -0.00012017467)
(-0.00084160654 0 -0.00026826883)
(-0.00079996358 0 -0.00045200126)
(-0.00075545802 0 -0.00067149432)
(-0.00070898542 0 -0.00092335624)
(-0.00066146178 0 -0.0012012091)
(-0.00061377423 0 -0.001496008)
(-0.00056675491 0 -0.001796849)
(-0.00052116034 0 -0.0020919859)
(-0.00047762232 0 -0.0023704388)
(-0.0004366672 0 -0.002622885)
(-0.00039867146 0 -0.0028421404)
(-0.00036386202 0 -0.003023514)
(-0.00033234321 0 -0.0031644236)
(-0.00030405279 0 -0.0032642103)
(-0.00027877906 0 -0.0033221812)
(-0.00025611751 0 -0.0033372511)
(-0.00023514749 0 -0.0033052594)
(-0.00021521926 0 -0.0032235254)
(-0.00019593601 0 -0.0030857518)
(-0.00017662205 0 -0.0028867521)
(-0.00015652364 0 -0.002621217)
(-0.00013243141 0 -0.0022479451)
(-0.00010174669 0 -0.0017299429)
(-6.099096e-05 0 -0.0010262836)
(0 0 0)
(-0.0010579937 0 0.00037034967)
(-0.0010578596 0 0.00036999289)
(-0.0010578033 0 0.000370729)
(-0.0010577195 0 0.00037159417)
(-0.0010575983 0 0.00037260597)
(-0.0010574261 0 0.00037378306)
(-0.0010571843 0 0.00037514367)
(-0.0010568478 0 0.00037670328)
(-0.001056383 0 0.00037847201)
(-0.0010557449 0 0.00038045001)
(-0.0010548739 0 0.00038262059)
(-0.0010536909 0 0.0003849409)
(-0.0010520926 0 0.00038732639)
(-0.0010499443 0 0.00038963104)
(-0.0010470734 0 0.00039161655)
(-0.00104326 0 0.00039290977)
(-0.0010382302 0 0.0003929423)
(-0.0010316496 0 0.00039086601)
(-0.0010231236 0 0.00038542959)
(-0.0010122014 0 0.00037489006)
(-0.00099839532 0 0.00035677019)
(-0.00098119834 0 0.00032794701)
(-0.00096014414 0 0.00028459134)
(-0.00093488302 0 0.00022208861)
(-0.00090524378 0 0.00013541968)
(-0.00087129874 0 1.9602616e-05)
(-0.00083337986 0 -0.00012960508)
(-0.00079204328 0 -0.00031500763)
(-0.00074803852 0 -0.0005367059)
(-0.00070223626 0 -0.00079131573)
(-0.00065549953 0 -0.0010725422)
(-0.00060865404 0 -0.0013714348)
(-0.00056246956 0 -0.0016771865)
(-0.00051765035 0 -0.0019780923)
(-0.00047479748 0 -0.0022631333)
(-0.00043441798 0 -0.002522902)
(-0.0003968818 0 -0.0027500356)
(-0.00036242297 0 -0.0029395841)
(-0.00033115846 0 -0.0030886818)
(-0.00030303837 0 -0.0031964422)
(-0.00027786536 0 -0.0032620406)
(-0.00025524618 0 -0.0032842805)
(-0.00023432523 0 -0.0032591645)
(-0.00021445376 0 -0.0031838433)
(-0.00019520526 0 -0.003052133)
(-0.00017590396 0 -0.0028586092)
(-0.00015573544 0 -0.0025968519)
(-0.00013165705 0 -0.0022279351)
(-0.00010103495 0 -0.0017146903)
(-6.0278628e-05 0 -0.0010140377)
(0 0 0)
(-0.0010519177 0 0.00049594796)
(-0.0010517825 0 0.00049565272)
(-0.0010517172 0 0.00049649111)
(-0.0010516224 0 0.00049747788)
(-0.0010514876 0 0.00049863303)
(-0.0010512987 0 0.0004999787)
(-0.0010510362 0 0.00050153729)
(-0.0010506743 0 0.00050332955)
(-0.0010501781 0 0.00050537174)
(-0.0010495012 0 0.00050767135)
(-0.0010485819 0 0.00051022)
(-0.0010473391 0 0.0005129841)
(-0.0010456665 0 0.00051588922)
(-0.0010434261 0 0.00051879973)
(-0.0010404415 0 0.00052148764)
(-0.0010364886 0 0.00052358824)
(-0.0010312892 0 0.00052453887)
(-0.0010245063 0 0.00052348905)
(-0.0010157465 0 0.00051911537)
(-0.0010045645 0 0.00050959243)
(-0.00099047491 0 0.0004924302)
(-0.00097297737 0 0.00046443238)
(-0.00095163177 0 0.00042162091)
(-0.00092612274 0 0.00035930043)
(-0.00089631853 0 0.00027238976)
(-0.00086233967 0 0.00015584435)
(-0.00082455659 0 5.3975229e-06)
(-0.00078355107 0 -0.00018175196)
(-0.00074007858 0 -0.00040566213)
(-0.0006949816 0 -0.0006629485)
(-0.00064906833 0 -0.00094738839)
(-0.00060310215 0 -0.0012501259)
(-0.00055779027 0 -0.0015604607)
(-0.00051378462 0 -0.0018667427)
(-0.00047165491 0 -0.0021579417)
(-0.00043188858 0 -0.002424596)
(-0.00039484818 0 -0.0026591861)
(-0.00036077394 0 -0.0028565246)
(-0.00032979485 0 -0.0030134781)
(-0.00030187344 0 -0.0031289391)
(-0.00027682666 0 -0.0032019457)
(-0.00025427341 0 -0.0032311873)
(-0.00023341718 0 -0.0032127959)
(-0.00021361371 0 -0.0031437746)
(-0.0001944115 0 -0.0030180312)
(-0.00017513255 0 -0.0028299127)
(-0.00015491055 0 -0.0025720239)
(-0.00013085222 0 -0.0022074648)
(-0.00010029946 0 -0.0016990061)
(-5.9572612e-05 0 -0.0010017978)
(0 0 0)
(-0.001045419 0 0.00061881594)
(-0.0010452834 0 0.0006185782)
(-0.0010452084 0 0.0006195132)
(-0.0010451016 0 0.00062061404)
(-0.0010449522 0 0.00062190495)
(-0.0010447452 0 0.00062341254)
(-0.0010444604 0 0.00062516437)
(-0.0010440708 0 0.00062718677)
(-0.0010435402 0 0.00062950243)
(-0.0010428205 0 0.00063212595)
(-0.0010418482 0 0.00063505681)
(-0.0010405395 0 0.0006382702)
(-0.0010387852 0 0.00064170104)
(-0.0010364438 0 0.00064522419)
(-0.0010333345 0 0.00064862167)
(-0.0010292287 0 0.00065153959)
(-0.0010238436 0 0.00065341845)
(-0.0010168449 0 0.00065334709)
(-0.0010078431 0 0.00064993337)
(-0.00099639159 0 0.00064128214)
(-0.00098199933 0 0.00062498964)
(-0.00096418102 0 0.0005977959)
(-0.0009425273 0 0.00055550801)
(-0.0009167582 0 0.00049330421)
(-0.00088678925 0 0.00040599817)
(-0.00085278654 0 0.00028857001)
(-0.00081515799 0 0.00013675418)
(-0.00077451021 0 -5.222223e-05)
(-0.00073160247 0 -0.00027835615)
(-0.0006872456 0 -0.00053825474)
(-0.00064219106 0 -0.00082575787)
(-0.00059713915 0 -0.0011321047)
(-0.00055273469 0 -0.0014467108)
(-0.00050957744 0 -0.0017579922)
(-0.00046820569 0 -0.0020549326)
(-0.00042908716 0 -0.0023280465)
(-0.00039257629 0 -0.0025696778)
(-0.00035891855 0 -0.0027744226)
(-0.00032825448 0 -0.0029388962)
(-0.00030055895 0 -0.0030617777)
(-0.00027566312 0 -0.003141965)
(-0.00025319864 0 -0.0031780301)
(-0.0002324229 0 -0.0031662047)
(-0.00021269882 0 -0.0031033617)
(-0.00019355426 0 -0.0029834815)
(-0.00017430746 0 -0.0028006924)
(-0.00015404796 0 -0.002546745)
(-0.00013001655 0 -0.002186547)
(-9.9540463e-05 0 -0.0016829067)
(-5.8871897e-05 0 -0.00098955539)
(0 0 0)
(-0.0010385142 0 0.00073901045)
(-0.0010383758 0 0.00073883044)
(-0.0010382902 0 0.00073986248)
(-0.0010381704 0 0.00074107741)
(-0.001038005 0 0.00074250342)
(-0.0010377782 0 0.00074417166)
(-0.0010374689 0 0.00074611516)
(-0.0010370489 0 0.0007483661)
(-0.0010364806 0 0.00075095395)
(-0.0010357142 0 0.0007539005)
(-0.0010346838 0 0.00075721366)
(-0.0010333031 0 0.00076087714)
(-0.0010314596 0 0.00076483582)
(-0.0010290078 0 0.0007689748)
(-0.0010257623 0 0.00077308828)
(-0.0010214895 0 0.00077682977)
(-0.0010159086 0 0.00077958813)
(-0.0010086911 0 0.00078034985)
(-0.00099944044 0 0.000777748)
(-0.00098770009 0 0.00076992017)
(-0.00097298401 0 0.00075441139)
(-0.00095482875 0 0.00072788807)
(-0.00093284924 0 0.00068610396)
(-0.00090680598 0 0.00062404719)
(-0.0008766721 0 0.00053626784)
(-0.00084265839 0 0.00041779432)
(-0.00080520553 0 0.00026447551)
(-0.0007649443 0 7.3590831e-05)
(-0.00072263486 0 -0.00015478119)
(-0.00067905279 0 -0.000417233)
(-0.00063489091 0 -0.00070765736)
(-0.00059078595 0 -0.0010173893)
(-0.00054732081 0 -0.0013359692)
(-0.00050504356 0 -0.0016518882)
(-0.00046446137 0 -0.0019541669)
(-0.00042602234 0 -0.0022333254)
(-0.0003900722 0 -0.0024815896)
(-0.00035686084 0 -0.0026933595)
(-0.00032653978 0 -0.0028650153)
(-0.00029909615 0 -0.0029950313)
(-0.0002743751 0 -0.0030821643)
(-0.00025202152 0 -0.0031248655)
(-0.00023134199 0 -0.0031194406)
(-0.00021170885 0 -0.0030626459)
(-0.00019263312 0 -0.0029485183)
(-0.00017342837 0 -0.002770978)
(-0.00015314677 0 -0.0025210291)
(-0.00012914978 0 -0.0021651958)
(-9.8758265e-05 0 -0.0016664091)
(-5.8175445e-05 0 -0.00097730188)
(0 0 0)
(-0.0010312111 0 0.00085658626)
(-0.001031072 0 0.00085645542)
(-0.0010309751 0 0.00085757723)
(-0.0010308414 0 0.00085890116)
(-0.0010306586 0 0.00086046107)
(-0.00103041 0 0.00086229265)
(-0.0010300737 0 0.00086443288)
(-0.0010296202 0 0.00086691907)
(-0.0010290105 0 0.00086978592)
(-0.0010281928 0 0.00087306153)
(-0.0010270991 0 0.00087676096)
(-0.0010256401 0 0.00088087649)
(-0.0010236996 0 0.00088536318)
(-0.0010211279 0 0.00089011846)
(-0.0010177343 0 0.00089494869)
(-0.0010132859 0 0.00089947492)
(-0.0010075082 0 0.00090299334)
(-0.0010000646 0 0.00090449943)
(-0.00099054436 0 0.00090268207)
(-0.00097849116 0 0.00089566578)
(-0.00096343259 0 0.00088087598)
(-0.00094492444 0 0.00085488597)
(-0.0009226087 0 0.00081341908)
(-0.00089628719 0 0.00075139693)
(-0.00086598789 0 0.00066314165)
(-0.00083197541 0 0.00054353215)
(-0.00079472199 0 0.00038857577)
(-0.0007548781 0 0.00019570212)
(-0.0007132015 0 -3.4924012e-05)
(-0.00067042875 0 -0.00029987415)
(-0.00062719201 0 -0.00059308443)
(-0.00058406435 0 -0.00090598736)
(-0.00054156749 0 -0.0012282576)
(-0.0005001985 0 -0.0015484672)
(-0.00046043426 0 -0.0018556947)
(-0.00042270352 0 -0.0021404948)
(-0.00038734272 0 -0.0023949921)
(-0.00035460547 0 -0.0026134095)
(-0.00032465376 0 -0.0027919089)
(-0.00029748674 0 -0.002928769)
(-0.00027296338 0 -0.0030226068)
(-0.00025074202 0 -0.0030717491)
(-0.00023017431 0 -0.0030725527)
(-0.00021064366 0 -0.0030216687)
(-0.00019164779 0 -0.0029131765)
(-0.00017249501 0 -0.002740799)
(-0.00015220617 0 -0.0024948908)
(-0.00012825157 0 -0.0021434248)
(-9.795311e-05 0 -0.0016495299)
(-5.7482348e-05 0 -0.00096503063)
(0 0 0)
(-0.0010235258 0 0.00097159786)
(-0.0010233831 0 0.0009715367)
(-0.0010232724 0 0.00097276993)
(-0.001023122 0 0.00097422392)
(-0.0010229191 0 0.00097593288)
(-0.0010226463 0 0.00097793566)
(-0.0010222805 0 0.00098027362)
(-0.001021791 0 0.00098298985)
(-0.001021137 0 0.00098612574)
(-0.0010202646 0 0.00098971746)
(-0.0010191032 0 0.00099378908)
(-0.0010175602 0 0.00099834283)
(-0.0010155154 0 0.0010033453)
(-0.0010128142 0 0.0010087073)
(-0.0010092646 0 0.0010142231)
(-0.0010046394 0 0.0010194398)
(-0.00099865801 0 0.0010236505)
(-0.00099096732 0 0.0010259184)
(-0.0009811543 0 0.0010248994)
(-0.00096876821 0 0.0010186525)
(-0.00095334768 0 0.0010045239)
(-0.00093447025 0 0.00097898543)
(-0.00091181178 0 0.00093764147)
(-0.00088521704 0 0.00087537763)
(-0.00085475561 0 0.00078656039)
(-0.00082075558 0 0.00066579498)
(-0.00078373027 0 0.00050906576)
(-0.00074433666 0 0.00031412431)
(-0.00070332838 0 8.1227878e-05)
(-0.00066139913 0 -0.00018616844)
(-0.00061911852 0 -0.00048203452)
(-0.00057699616 0 -0.00079790319)
(-0.00053549364 0 -0.0011235927)
(-0.00049506102 0 -0.0014478166)
(-0.00045614294 0 -0.0017596786)
(-0.00041914335 0 -0.0020496725)
(-0.00038439495 0 -0.0023099501)
(-0.00035215742 0 -0.0025346417)
(-0.00032259965 0 -0.0027196462)
(-0.00029573267 0 -0.0028630568)
(-0.00027142888 0 -0.0029633531)
(-0.00024936027 0 -0.0030187342)
(-0.00022891975 0 -0.0030255883)
(-0.00020950319 0 -0.0029804702)
(-0.00019059801 0 -0.0028774901)
(-0.00017150715 0 -0.0027101847)
(-0.00015122543 0 -0.002468346)
(-0.00012732171 0 -0.0021212491)
(-9.7125242e-05 0 -0.0016322859)
(-5.6791749e-05 0 -0.00095273612)
(0 0 0)
(-0.0010154705 0 0.0010840979)
(-0.0010153232 0 0.0010840956)
(-0.0010151984 0 0.0010854295)
(-0.0010150306 0 0.0010870035)
(-0.0010148064 0 0.001088855)
(-0.0010145074 0 0.0010910266)
(-0.0010141096 0 0.001093564)
(-0.0010135807 0 0.0010965148)
(-0.0010128782 0 0.0010999262)
(-0.0010119462 0 0.0011038406)
(-0.0010107112 0 0.0011082895)
(-0.0010090773 0 0.0011132835)
(-0.0010069199 0 0.001118798)
(-0.001004081 0 0.0011247531)
(-0.001000372 0 0.0011308977)
(-0.00099556359 0 0.0011367552)
(-0.00098936062 0 0.0011416725)
(-0.0009814027 0 0.0011447058)
(-0.00097127777 0 0.0011444558)
(-0.00095853863 0 0.0011389346)
(-0.00094273673 0 0.0011254099)
(-0.0009234752 0 0.0011002338)
(-0.00090046656 0 0.0010588852)
(-0.00087360215 0 0.00099615528)
(-0.00084299244 0 0.00090654335)
(-0.0008090246 0 0.00078452888)
(-0.00077225487 0 0.00062595856)
(-0.00073334602 0 0.00042887495)
(-0.00069304237 0 0.0001936937)
(-0.00065199035 0 -7.609769e-05)
(-0.00061070032 0 -0.00037455988)
(-0.00056961476 0 -0.00069328102)
(-0.00052913 0 -0.0010221409)
(-0.00048965769 0 -0.0013501086)
(-0.00045160843 0 -0.0016662981)
(-0.00041535736 0 -0.0019610377)
(-0.00038123896 0 -0.0022265843)
(-0.00034952214 0 -0.0024571177)
(-0.00032038118 0 -0.0026482905)
(-0.00029383627 0 -0.002797956)
(-0.00026977295 0 -0.0029044607)
(-0.0002478767 0 -0.0029658723)
(-0.00022757847 0 -0.0029785938)
(-0.00020828749 0 -0.0029390902)
(-0.00018948364 0 -0.0028414933)
(-0.00017046459 0 -0.0026791645)
(-0.0001502039 0 -0.0024414112)
(-0.00012635988 0 -0.0020986832)
(-9.6274858e-05 0 -0.001614693)
(-5.6102837e-05 0 -0.00094041337)
(0 0 0)
(-0.0010070527 0 0.0011941381)
(-0.0010069019 0 0.0011941938)
(-0.001006762 0 0.0011956274)
(-0.0010065756 0 0.0011973197)
(-0.0010063285 0 0.0011993117)
(-0.0010060016 0 0.0012016497)
(-0.0010055694 0 0.001204384)
(-0.0010049983 0 0.0012075674)
(-0.0010042438 0 0.0012112526)
(-0.0010032478 0 0.0012154885)
(-0.0010019336 0 0.0012203139)
(-0.001000202 0 0.001225747)
(-0.00099792385 0 0.0012317723)
(-0.00099494127 0 0.0012382919)
(-0.00099106714 0 0.0012450268)
(-0.00098606215 0 0.0012515269)
(-0.00097962043 0 0.0012571505)
(-0.00097137808 0 0.001260921)
(-0.00096092164 0 0.0012614066)
(-0.00094780872 0 0.0012565675)
(-0.00093160617 0 0.0012435908)
(-0.00091194761 0 0.0012186811)
(-0.00088858433 0 0.001177187)
(-0.00086145412 0 0.0011138177)
(-0.00083072058 0 0.0010231067)
(-0.00079680988 0 0.00089967623)
(-0.00076031891 0 0.00073926274)
(-0.00072193266 0 0.00053997174)
(-0.00068237074 0 0.00030249394)
(-0.00064223712 0 3.0279682e-05)
(-0.00060197995 0 -0.00027082268)
(-0.00056195976 0 -0.00059231412)
(-0.00052251031 0 -0.00092410681)
(-0.0004840103 0 -0.0012554349)
(-0.00044684088 0 -0.0015755163)
(-0.00041135653 0 -0.0018746517)
(-0.00037788713 0 -0.0021450652)
(-0.00034670745 0 -0.0023809523)
(-0.00031800234 0 -0.0025779002)
(-0.00029180015 0 -0.0027335239)
(-0.00026799708 0 -0.002845984)
(-0.00024629193 0 -0.0029132129)
(-0.00022615071 0 -0.0029316137)
(-0.00020699668 0 -0.0028975673)
(-0.0001883046 0 -0.0028052193)
(-0.00016936722 0 -0.0026477673)
(-0.00014914103 0 -0.0024141039)
(-0.0001253659 0 -0.0020757428)
(-9.5402167e-05 0 -0.001596768)
(-5.5414885e-05 0 -0.0009280592)
(0 0 0)
(-0.00099828641 0 0.0013017689)
(-0.00099813007 0 0.0013018823)
(-0.00099797375 0 0.0013034154)
(-0.00099776735 0 0.0013052257)
(-0.00099749582 0 0.0013073576)
(-0.00099713893 0 0.0013098613)
(-0.00099666996 0 0.0013127914)
(-0.00099605361 0 0.0013162057)
(-0.00099524353 0 0.0013201628)
(-0.00099417884 0 0.001324718)
(-0.00099278001 0 0.001329917)
(-0.00099094362 0 0.0013357859)
(-0.00098853736 0 0.0013423199)
(-0.00098540532 0 0.001349385)
(-0.00098135689 0 0.0013566955)
(-0.00097614126 0 0.001363832)
(-0.00096944529 0 0.0013701381)
(-0.0009609005 0 0.001374616)
(-0.00095009205 0 0.0013758036)
(-0.00093658423 0 0.0013716011)
(-0.00091996923 0 0.0013590432)
(-0.00089991086 0 0.0013342186)
(-0.00087619251 0 0.0012924251)
(-0.00084879818 0 0.0012283134)
(-0.00081795589 0 0.0011363304)
(-0.00078412633 0 0.0010113194)
(-0.00074794576 0 0.00084899862)
(-0.00071012403 0 0.00064743607)
(-0.00067135255 0 0.00040755796)
(-0.00063219094 0 0.00013277371)
(-0.00059299666 0 -0.00017091931)
(-0.00055405229 0 -0.00049494774)
(-0.00051564853 0 -0.00082940147)
(-0.00047812852 0 -0.0011637058)
(-0.00044184821 0 -0.0014872507)
(-0.00040714759 0 -0.0017904442)
(-0.00037434767 0 -0.0020654324)
(-0.0003437215 0 -0.0023062579)
(-0.00031546713 0 -0.0025085297)
(-0.00028962719 0 -0.0026698135)
(-0.00026610307 0 -0.0027879743)
(-0.00024460684 0 -0.0028608033)
(-0.00022463689 0 -0.0028846914)
(-0.00020563099 0 -0.0028559398)
(-0.00018706089 0 -0.0027687016)