/*--------------------------------*- C++ -*----------------------------------*\
  =========                 |
  \\      /  F ield         | OpenFOAM: The Open Source CFD Toolbox
   \\    /   O peration     | Website:  https://openfoam.org
    \\  /    A nd           | Version:  8
     \\/     M anipulation  |
\*---------------------------------------------------------------------------*/
FoamFile
{
    version     2.0;
    format      ascii;
    class       volScalarField;
    location    "0.0099963";
    object      rho;
}
// * * * * * * * * * * * * * * * * * * * * * * * * * * * * * * * * * * * * * //

dimensions      [1 -3 0 0 0 0 0];

internalField   nonuniform List<scalar> 
20000
(
0.90871287
0.90923442
0.91003924
0.9121346
0.9170364
0.92757959
0.94820238
0.95621181
0.95543735
0.95671107
0.95666001
0.95805843
0.95879653
0.96066019
0.96218662
0.96473916
0.96724315
0.97076825
0.97456638
0.9794592
0.98499381
0.99175649
0.99950727
1.0085828
1.0188212
1.0302806
1.0426649
1.0556587
1.0688363
1.0819014
1.0941747
1.1056478
1.1178552
1.1275612
1.133192
1.1472965
1.1683008
1.1797575
1.1824565
1.1752932
1.1702904
1.1678363
1.1668679
1.1665371
1.1664357
1.1664074
1.1664004
1.1663989
1.1663987
1.1663986
0.90903022
0.90945196
0.91020446
0.91236038
0.91750291
0.92853567
0.94923526
0.95655735
0.95577811
0.95714702
0.95712175
0.9586047
0.9593887
0.96133335
0.96292575
0.96557564
0.9681796
0.97183308
0.97577837
0.98084539
0.98658352
0.99357504
1.0015873
1.0109396
1.0214695
1.0332059
1.045828
1.0589815
1.0722297
1.0852239
1.0973055
1.1087615
1.1206348
1.1295543
1.1353452
1.151149
1.1705777
1.1804324
1.1825285
1.1751656
1.1702591
1.1678513
1.1668847
1.1665443
1.1664375
1.1664077
1.1664004
1.1663989
1.1663987
1.1663986
0.90992573
0.91018634
0.91091044
0.91316086
0.91860922
0.93031966
0.95088486
0.95727699
0.95641279
0.95782502
0.95780867
0.95934565
0.96016255
0.96217782
0.96383643
0.96658228
0.96928927
0.97307447
0.97717065
0.98241709
0.98836707
0.99559974
1.0038873
1.0135342
1.0243724
1.0364025
1.0492742
1.0625977
1.0759195
1.0888442
1.1007671
1.1121995
1.1237281
1.1318214
1.1379792
1.1553579
1.1733704
1.1813206
1.1825745
1.1750076
1.170246
1.1678619
1.1668926
1.1665476
1.1664385
1.166408
1.1664005
1.1663989
1.1663987
1.1663986
0.91076418
0.91087948
0.91156858
0.9138991
0.91965331
0.93211662
0.9523623
0.95795101
0.95711879
0.95854065
0.95860562
0.9602034
0.96105089
0.96314364
0.96487146
0.96771751
0.9705316
0.97445217
0.97870678
0.98413982
0.9903093
0.99779027
1.0063593
1.016305
1.0274511
1.0397681
1.0528733
1.0663412
1.0796966
1.0925104
1.1042566
1.1155941
1.1266885
1.1340933
1.1407407
1.1589567
1.1755547
1.1824353
1.1825761
1.1749338
1.1702145
1.1678651
1.1668955
1.1665489
1.1664389
1.166408
1.1664005
1.1663989
1.1663987
1.1663986
0.91168129
0.91168704
0.91237057
0.91480672
0.92089989
0.93424581
0.95396123
0.95881954
0.95795445
0.95945763
0.95952731
0.96118379
0.96208064
0.96425091
0.96605163
0.969001
0.97192823
0.97599012
0.98040857
0.98603423
0.99243208
1.0001708
1.0090316
1.0192851
1.0307452
1.0433488
1.0566791
1.0702751
1.0836386
1.0963179
1.1078775
1.119071
1.1296933
1.1365139
1.1437307
1.1623308
1.177665
1.1838211
1.1825179
1.1748463
1.1701776
1.1678602
1.166897
1.1665495
1.1664391
1.1664081
1.1664005
1.1663989
1.1663987
1.1663986
0.91287597
0.91270275
0.9133545
0.91587105
0.92229549
0.93661477
0.95558165
0.95972237
0.9589132
0.96044868
0.9605705
0.96229373
0.96323615
0.96548808
0.96736675
0.97042456
0.97347071
0.97767931
0.98227199
0.98810027
0.99473743
1.0027441
1.0119061
1.0224742
1.0342502
1.0471348
1.0606745
1.0743726
1.0877088
1.1002201
1.1115678
1.122559
1.1326749
1.1390386
1.1468523
1.1654039
1.1795934
1.1852253
1.1824306
1.1747561
1.1701264
1.167843
1.1668931
1.1665489
1.166439
1.1664081
1.1664005
1.1663989
1.1663987
1.1663986
0.91399979
0.91374572
0.91439946
0.9170322
0.92380783
0.93921055
0.95722214
0.9608269
0.95998829
0.96159961
0.96173372
0.96352751
0.96452263
0.96686004
0.96882224
0.97199321
0.97516559
0.97952838
0.98430185
0.99034053
0.99722691
1.0055114
1.0149843
1.0258743
1.0379685
1.0511276
1.0648593
1.0786327
1.0919079
1.1042215
1.1153328
1.126068
1.1356547
1.1416836
1.1501191
1.1683003
1.1814088
1.1864993
1.1823339
1.1746516
1.170063
1.1678166
1.1668838
1.1665459
1.1664381
1.1664078
1.1664004
1.1663989
1.1663987
1.1663986
0.91541095
0.9149931
0.915615
0.91836411
0.92547798
0.94202705
0.95887989
0.96201285
0.96117871
0.96285422
0.96301274
0.96488898
0.96594066
0.96836775
0.97041813
0.97370701
0.97701178
0.98153511
0.9865018
0.99276248
0.99991025
1.0084838
1.0182775
1.0294959
1.0419084
1.055332
1.069234
1.0830506
1.0962266
1.1083079
1.1191525
1.129581
1.1386241
1.1444216
1.1534871
1.1710272
1.183093
1.1876586
1.1822276
1.1745293
1.1699858
1.1677817
1.1668706
1.1665415
1.1664368
1.1664075
1.1664004
1.1663989
1.1663987
1.1663986
0.91673151
0.91625635
0.91688638
0.91978084
0.92727549
0.94501722
0.96055024
0.96332263
0.96249348
0.96424058
0.96442888
0.96638225
0.96749296
0.97001189
0.97215545
0.97556714
0.97901278
0.98370569
0.98887333
0.99536461
1.002784
1.0116568
1.0217809
1.033334
1.0460639
1.0597397
1.073787
1.0876128
1.1006506
1.1124671
1.1230171
1.1330916
1.1415778
1.1472346
1.1569545
1.1736296
1.184636
1.1887015
1.1820923
1.1743842
1.1698959
1.1677402
1.1668545
1.1665361
1.1664352
1.1664071
1.1664003
1.1663989
1.1663987
1.1663986
0.91845474
0.9177443
0.91837423
0.92140741
0.92930231
0.94822246
0.96227686
0.96476033
0.96394327
0.96575069
0.96597817
0.96800287
0.96917692
0.97179212
0.97403453
0.97757514
0.98116956
0.98603988
0.99142179
0.99815563
1.0058591
1.015043
1.0255076
1.0374008
1.0504444
1.0643564
1.0785199
1.0923157
1.1051728
1.1166889
1.1269145
1.1365933
1.1445133
1.1500931
1.160488
1.176142
1.1860268
1.1896288
1.1819157
1.174215
1.1697944
1.1676935
1.1668364
1.1665301
1.1664335
1.1664066
1.1664002
1.1663989
1.1663987
1.1663986
0.91995362
0.91922019
0.91989258
0.92311287
0.93146729
0.95152882
0.96402736
0.96630183
0.96550963
0.96737831
0.96764813
0.96975153
0.97099345
0.97370866
0.97605659
0.97973291
0.98348616
0.98854318
0.99414672
1.0011317
1.0091304
1.0186367
1.0294516
1.0416893
1.0550411
1.0691698
1.0834164
1.0971406
1.1097737
1.1209563
1.130832
1.1400783
1.1474236
1.1529692
1.1640484
1.178609
1.1873067
1.1903717
1.1816911
1.1740223
1.1696833
1.1676432
1.1668172
1.1665238
1.1664317
1.1664062
1.1664001
1.1663989
1.1663987
1.1663986
0.92177427
0.92086582
0.92155262
0.92498204
0.93384995
0.95494456
0.96583648
0.96796813
0.96720165
0.96913332
0.96944673
0.97162874
0.9729427
0.97576295
0.9782241
0.98204314
0.98596347
0.99121433
0.99705262
1.0043014
1.0126093
1.0224513
1.0336264
1.0462114
1.0598623
1.0741836
1.0884753
1.1020816
1.1144448
1.1252589
1.1347585
1.1435414
1.1503067
1.155837
1.1675464
1.1810889
1.1885282
1.1908935
1.1814188
1.1738082
1.1695642
1.1675903
1.1667974
1.1665174
1.1664299
1.1664058
1.1664
1.1663989
1.1663987
1.1663986
0.9236087
0.92262381
0.92333725
0.92698978
0.93646586
0.95842366
0.96770899
0.96975279
0.96901239
0.97100773
0.97136817
0.97363353
0.97502492
0.97795707
0.98053822
0.98450729
0.98860273
0.99405654
1.0001373
1.0076606
1.0162909
1.0264811
1.0380255
1.050959
1.0648969
1.0793824
1.0936774
1.1071178
1.1191647
1.1295781
1.1386802
1.1469747
1.1531619
1.1586797
1.170859
1.1835818
1.1899064
1.1911874
1.1811005
1.1735757
1.1694392
1.1675359
1.1667774
1.1665111
1.1664282
1.1664054
1.1664
1.1663989
1.1663987
1.1663986
0.92575141
0.92454483
0.92526475
0.92914537
0.93934286
0.96189236
0.96964946
0.97164887
0.97094035
0.97300066
0.97341451
0.9757672
0.97724453
0.98029244
0.98300123
0.98712383
0.99140293
0.9970672
1.0034063
1.01122
1.0201887
1.0307406
1.0426624
1.0559429
1.0701508
1.0847666
1.099018
1.1122403
1.1239228
1.1339027
1.1425856
1.1503723
1.155988
1.1614879
1.1739582
1.1860028
1.1914575
1.1912834
1.1807415
1.1733276
1.1693097
1.1674807
1.1667576
1.166505
1.1664266
1.1664051
1.1663999
1.1663988
1.1663987
1.1663986
0.92777332
0.92649522
0.92725475
0.93139243
0.94245508
0.96536236
0.97161283
0.97365682
0.9729841
0.97511644
0.97559009
0.97803553
0.97960129
0.98276911
0.98560844
0.98989132
0.99436157
1.0002479
1.0068587
1.0149769
1.0242987
1.0352245
1.0475303
1.0611533
1.0756105
1.0903178
1.1044753
1.117426
1.1286967
1.138213
1.1464583
1.1537241
1.1587921
1.1642749
1.1768513
1.1882569
1.1931836
1.1912784
1.1803495
1.1730673
1.1691775
1.1674257
1.1667382
1.1664991
1.1664251
1.1664047
1.1663998
1.1663988
1.1663987
1.1663986
0.93002166
0.92860286
0.92938552
0.93378712
0.94585938
0.9688466
0.97363761
0.97579237
0.9751584
0.97736395
0.97789686
0.98043463
0.98209167
0.98537975
0.98835707
0.99280466
0.99748098
1.0036046
1.0105049
1.0189449
1.0286358
1.0399479
1.0526424
1.0665993
1.0812784
1.096032
1.1100403
1.122663
1.1334742
1.1424976
1.1502872
1.1570231
1.161574
1.1670495
1.1795879
1.1903703
1.1948537
1.1911591
1.1799324
1.1727973
1.1690438
1.1673713
1.1667194
1.1664935
1.1664236
1.1664044
1.1663998
1.1663988
1.1663987
1.1663986
0.93231707
0.93081326
0.93163519
0.93630245
0.94953676
0.97232714
0.97580786
0.97805043
0.97745412
0.97973072
0.98032401
0.98295483
0.98470477
0.98812031
0.99124341
0.99587149
1.0007672
1.0071413
1.0143461
1.0231223
1.0331963
1.0449052
1.0579906
1.0722688
1.0871376
1.101888
1.1156892
1.1279278
1.1382337
1.1467372
1.1540537
1.1602562
1.1643451
1.1698487
1.1821973
1.1922807
1.1963539
1.1907803
1.1794975
1.1725201
1.1689102
1.1673181
1.1667013
1.1664882
1.1664223
1.1664042
1.1663998
1.1663988
1.1663987
1.1663986
0.9348083
0.93318297
0.9340437
0.93897095
0.95349668
0.97579669
0.97814353
0.98041445
0.97985545
0.98220292
0.98285871
0.98558684
0.98744004
0.99099098
0.99427609
0.99909355
1.0042265
1.0108675
1.0183942
1.0275233
1.0379956
1.0501115
1.0635869
1.078168
1.0931866
1.1078775
1.1214093
1.1332061
1.1429619
1.1509204
1.1577472
1.163416
1.1671049
1.1726883
1.184705
1.1939648
1.1976438
1.1902479
1.1790389
1.1722374
1.1687778
1.1672665
1.166684
1.1664832
1.1664211
1.1664039
1.1663997
1.1663988
1.1663987
1.1663986
0.93726595
0.93558891
0.93652702
0.94171739
0.95765696
0.97918539
0.98052435
0.98286011
0.98234643
0.984772
0.98550043
0.98833564
0.9903019
0.99400199
0.9974608
1.002485
1.0078674
1.0147869
1.0226495
1.0321459
1.0430297
1.0555605
1.0694214
1.0842818
1.0994047
1.1139753
1.1271751
1.1384743
1.1476391
1.1550299
1.1613483
1.1664842
1.1698585
1.1756143
1.1871499
1.1954026
1.1986319
1.1896226
1.178551
1.1719523
1.1686479
1.1672168
1.1666677
1.1664786
1.16642
1.1664037
1.1663997
1.1663988
1.1663987
1.1663986
0.93982264
0.93809131
0.93912299
0.94460041
0.96202773
0.98250802
0.98300891
0.98540657
0.98494388
0.98745314
0.98826161
0.9912133
0.99330605
0.99716417
1.0008115
1.0060478
1.0116945
1.0189077
1.0271238
1.0370048
1.0483146
1.0612666
1.0755038
1.0906123
1.1057857
1.120169
1.1329705
1.143716
1.1522514
1.1590546
1.1648478
1.1694543
1.1725975
1.178635
1.1895621
1.1967003
1.1993877
1.1889193
1.17804
1.1716675
1.1685214
1.1671692
1.1666523
1.1664743
1.166419
1.1664035
1.1663997
1.1663988
1.1663987
1.1663986
0.94247254
0.94070692
0.94186211
0.94765397
0.96658597
0.98576
0.98559242
0.98806305
0.98765792
0.99025883
0.99115821
0.99423583
0.99646244
1.0004874
1.0043298
1.009791
1.0157125
1.0232321
1.0318174
1.0420985
1.0538464
1.0672229
1.0818218
1.0971406
1.1123048
1.1264314
1.1387691
1.1489088
1.1567821
1.1629807
1.1682291
1.1723068
1.1753047
1.1817469
1.191955
1.1979585
1.1998047
1.1881493
1.1775138
1.1713863
1.1683991
1.167124
1.1666378
1.1664703
1.1664181
1.1664033
1.1663996
1.1663988
1.1663987
1.1663986
0.94522269
0.94343716
0.94475379
0.95090914
0.97130091
0.98895578
0.98829741
0.99084903
0.99051057
0.99320982
0.99420383
0.99741108
0.99977758
1.0039718
1.0080195
1.0137112
1.0199253
1.0277696
1.0367439
1.047443
1.0596413
1.0734422
1.0883815
1.1038638
1.1189506
1.1327458
1.144552
1.154035
1.1612172
1.1667978
1.1714861
1.1750388
1.1779584
1.184859
1.1943167
1.1992294
1.1999508
1.1873257
1.1769792
1.1711106
1.1682815
1.1670811
1.1666242
1.1664666
1.1664172
1.1664032
1.1663996
1.1663988
1.1663987
1.1663986
0.94810739
0.94631654
0.94783827
0.9544418
0.97615601
0.99213844
0.99114793
0.99378351
0.99351184
0.99630762
0.99739789
1.0007347
1.0032447
1.0076139
1.0118778
1.0178164
1.0243386
1.0325241
1.041905
1.0530378
1.0656955
1.0799157
1.0951669
1.1107583
1.1256943
1.1390815
1.150292
1.1590744
1.1655437
1.1704973
1.1746094
1.1776403
1.1805293
1.1878254
1.1965781
1.2006775
1.1999468
1.1864645
1.1764442
1.1708429
1.1681693
1.1670407
1.1666116
1.1664632
1.1664165
1.1664031
1.1663996
1.1663988
1.1663987
1.1663986
0.95106192
0.94927909
0.95105543
0.95825274
0.98107124
0.99541668
0.99413394
0.99685368
0.9966464
0.99954074
1.0007258
1.0041982
1.0068598
1.0114148
1.0159105
1.0221094
1.0289608
1.0375085
1.0473164
1.0588997
1.0720242
1.0866531
1.1021791
1.117815
1.1325185
1.145417
1.1559679
1.1640111
1.1697485
1.1740698
1.1775968
1.1801156
1.1830051
1.1905976
1.198682
1.202282
1.1997712
1.1855844
1.1759153
1.1705844
1.1680625
1.1670026
1.1665999
1.1664601
1.1664158
1.166403
1.1663996
1.1663988
1.1663987
1.1663986
0.95410061
0.95235816
0.95442892
0.96239898
0.98602703
0.9987685
0.99723466
1.0000388
0.99989703
1.0028933
1.0041836
1.0077992
1.0106265
1.0153801
1.0201256
1.0266026
1.0338006
1.0427281
1.0529808
1.0650284
1.0786223
1.0936425
1.1093971
1.1250048
1.1393892
1.1517183
1.1615532
1.1688283
1.1738225
1.1775111
1.1804487
1.1824741
1.1853888
1.1931704
1.2006021
1.2038383
1.1992022
1.1847088
1.1753987
1.1703362
1.1679613
1.1669671
1.166589
1.1664573
1.1664152
1.1664029
1.1663996
1.1663988
1.1663987
1.1663986
0.95735311
0.95556982
0.95796087
0.96688122
0.99092343
1.0019408
1.0004309
1.0033262
1.0032603
1.0063695
1.0077755
1.0115472
1.014555
1.0195203
1.0245316
1.0313015
1.0388686
1.0481979
1.0589151
1.0714407
1.0855031
1.1008892
1.1168152
1.1323112
1.1462823
1.1579608
1.1670299
1.173511
1.1777548
1.1808131
1.1831663
1.1847309
1.1877013
1.1955811
1.2023558
1.2051556
1.1983366
1.1838541
1.1748967
1.1700987
1.1678659
1.1669338
1.166579
1.1664547
1.1664147
1.1664028
1.1663996
1.1663988
1.1663987
1.1663986
0.96046246
0.95873368
0.96149851
0.97165398
0.99571671
1.0052331
1.0037329
1.0067366
1.0067518
1.0099833
1.0115162
1.0154531
1.0186546
1.0238429
1.0291383
1.0362199
1.0441743
1.053924
1.0651224
1.0781357
1.0926591
1.1083762
1.1244063
1.1396984
1.1531591
1.1641126
1.1723795
1.1780417
1.1815393
1.1839749
1.1857578
1.1869191
1.1899983
1.1978508
1.2038736
1.2061464
1.197228
1.1830228
1.1744103
1.1698725
1.1677763
1.1669029
1.1665697
1.1664523
1.1664142
1.1664027
1.1663996
1.1663988
1.1663987
1.1663986
0.96384928
0.96211339
0.96523157
0.97685513
1.0004586
1.0086844
1.0071699
1.0102854
1.0103874
1.0137466
1.0154143
1.0195262
1.0229346
1.028358
1.0339544
1.0413645
1.0497303
1.0599227
1.0716201
1.0851289
1.1000998
1.1161024
1.1321559
1.1471412
1.1599932
1.1701603
1.1775934
1.182401
1.1851641
1.18699
1.1882239
1.1890589
1.1923237
1.1999997
1.2051419
1.2068725
1.1960139
1.1821897
1.1739394
1.1696578
1.1676923
1.1668742
1.1665612
1.1664502
1.1664138
1.1664027
1.1663996
1.1663988
1.1663987
1.1663986
0.9672508
0.96553255
0.96903199
0.98239259
1.0050968
1.0122572
1.0107379
1.0139727
1.01417
1.017667
1.0194785
1.0237729
1.0274015
1.0330726
1.0389912
1.0467509
1.055547
1.0662006
1.0784112
1.0924179
1.1078136
1.124044
1.1400284
1.1545981
1.1667503
1.1760902
1.1826516
1.1865748
1.1886195
1.1898569
1.1905726
1.1911822
1.1947278
1.2020406
1.2062521
1.2071743
1.1947266
1.1813563
1.1734866
1.1694554
1.167614
1.1668477
1.1665533
1.1664482
1.1664134
1.1664027
1.1663996
1.1663989
1.1663987
1.1663986
0.97096985
0.96919794
0.97306424
0.9883462
1.0096989
1.0159666
1.0144655
1.0178158
1.0181099
1.0217498
1.0237122
1.0281981
1.0320633
1.0379977
1.0442588
1.0523875
1.0616385
1.072775
1.0855128
1.1000158
1.1158038
1.1321895
1.1479986
1.1620397
1.1734157
1.1818997
1.1875223
1.1905583
1.1918932
1.1925673
1.1928056
1.1932895
1.19718
1.2039762
1.2073657
1.2072512
1.1933898
1.1805296
1.1730536
1.169265
1.1675411
1.1668231
1.1665461
1.1664465
1.1664131
1.1664026
1.1663997
1.1663989
1.1663987
1.1663986
0.97455815
0.97283296
0.97713963
0.9945701
1.0142729
1.0197869
1.0183272
1.021806
1.022203
1.0259946
1.0281196
1.0328086
1.0369281
1.0431434
1.0497687
1.0582883
1.0680148
1.0796527
1.0929274
1.107917
1.1240517
1.1405055
1.1560228
1.1694274
1.1799725
1.1875501
1.1921812
1.1943358
1.1949865
1.1951129
1.1949342
1.1953822
1.1995913
1.2058047
1.208662
1.2071981
1.1920276
1.1797199
1.172643
1.1690871
1.1674734
1.1668004
1.1665394
1.1664449
1.1664128
1.1664026
1.1663997
1.1663989
1.1663987
1.1663986
0.97841034
0.97669338
0.98147756
1.001116
1.0187881
1.0237599
1.0223484
1.0259515
1.0264585
1.0304066
1.0327094
1.0376134
1.0420106
1.0485207
1.0555338
1.0644669
1.0746925
1.0868521
1.1006712
1.1161292
1.1325502
1.1489678
1.1640694
1.1767415
1.1864168
1.1929952
1.1965959
1.1979006
1.1979023
1.1974871
1.1969691
1.1974415
1.2019199
1.2075729
1.2100394
1.2068531
1.19067
1.1789367
1.1722557
1.168921
1.1674106
1.1667795
1.1665334
1.1664434
1.1664125
1.1664026
1.1663997
1.1663989
1.1663987
1.1663987
0.98239423
0.98068752
0.98601227
1.0078529
1.023236
1.0278601
1.0265077
1.0302476
1.0308753
1.0349965
1.0374937
1.0426292
1.0473213
1.0541473
1.0615688
1.0709367
1.0816827
1.0943808
1.108745
1.1246407
1.1412697
1.157533
1.1720955
1.1839602
1.1927064
1.1981878
1.2007372
1.2012691
1.2006383
1.1996913
1.1989142
1.1994625
1.2041452
1.2092217
1.2113167
1.2061336
1.1893546
1.17819
1.1718924
1.1687664
1.1673525
1.1667602
1.1665278
1.1664421
1.1664123
1.1664027
1.1663997
1.1663989
1.1663987
1.1663987
0.98645532
0.98478458
0.99078619
1.014728
1.0276591
1.0321071
1.0308262
1.0347151
1.0354731
1.039783
1.0424913
1.0478675
1.0528763
1.0600295
1.0678844
1.077714
1.0890052
1.1022582
1.1171613
1.133449
1.150189
1.1661668
1.1800751
1.1910774
1.1987805
1.2030882
1.2046276
1.2044605
1.2031646
1.2017471
1.2007698
1.2014413
1.2062604
1.210689
1.2123681
1.2050807
1.188111
1.1774843
1.1715521
1.1686227
1.1672988
1.1667424
1.1665227
1.1664409
1.1664122
1.1664027
1.1663997
1.1663989
1.1663987
1.1663987
0.99065967
0.98900419
0.99585441
1.0216422
1.0320615
1.0365147
1.0353211
1.0393722
1.0402704
1.0447776
1.0477103
1.0533363
1.058678
1.066184
1.0744982
1.0848152
1.0966729
1.1104912
1.1259152
1.1425309
1.1592661
1.1748233
1.1879784
1.1980562
1.2045727
1.207666
1.2083249
1.2074352
1.205485
1.2036645
1.2025459
1.2033969
1.2082551
1.2119336
1.2131296
1.2036976
1.1869624
1.1768205
1.1712341
1.1684894
1.1672493
1.1667261
1.1665181
1.1664399
1.166412
1.1664027
1.1663998
1.1663989
1.1663987
1.1663987
0.99506916
0.99339999
1.0013281
1.0285133
1.0365182
1.0411226
1.0400162
1.0442324
1.0452775
1.0499833
1.0531545
1.0590404
1.064743
1.072623
1.0814281
1.0922623
1.1047077
1.1190966
1.13501
1.151869
1.1684669
1.1834711
1.1957941
1.2048236
1.2100402
1.2119609
1.211822
1.2101924
1.2075996
1.2054588
1.204254
1.2053478
1.2101096
1.2129856
1.2134373
1.2021203
1.1858762
1.1761933
1.1709367
1.1683657
1.1672035
1.1667111
1.1665138
1.1664389
1.1664119
1.1664027
1.1663998
1.1663989
1.1663987
1.1663987
0.99968532
0.99795491
1.0072193
1.0354406
1.0412954
1.0459221
1.0449036
1.0492871
1.0504866
1.0553966
1.0588276
1.0649919
1.0710856
1.0793731
1.0886987
1.1000751
1.1131228
1.1280765
1.1444294
1.1614257
1.1777431
1.1920737
1.2034964
1.2112936
1.2151441
1.2160318
1.2150908
1.2127251
1.2095147
1.2071432
1.2059097
1.2073119
1.2117714
1.213992
1.2134904
1.2004461
1.184819
1.1756
1.1706593
1.1682514
1.1671615
1.1666973
1.1665099
1.1664381
1.1664119
1.1664028
1.1663999
1.166399
1.1663987
1.1663987
1.0045117
1.0026844
1.0135291
1.0423234
1.0461685
1.0508981
1.049968
1.054528
1.0558947
1.0610267
1.0647451
1.0712152
1.0777344
1.0864573
1.0963333
1.1082769
1.121938
1.1374396
1.1541614
1.1711674
1.1870577
1.2006093
1.2110064
1.2174155
1.2199163
1.2198809
1.2181241
1.2150331
1.2112452
1.2087301
1.2075186
1.2092264
1.2132772
1.2150911
1.213425
1.1987213
1.1837848
1.1750394
1.1704011
1.1681458
1.1671227
1.1666846
1.1665064
1.1664373
1.1664118
1.1664029
1.1663999
1.166399
1.1663987
1.1663987
1.0095515
1.0076581
1.0202187
1.049079
1.0511683
1.0560353
1.0552122
1.0599619
1.0615213
1.0668961
1.0709395
1.0777401
1.0847178
1.0939058
1.1043556
1.1168853
1.1311618
1.147177
1.1641733
1.181044
1.1963663
1.2090494
1.2182308
1.2231371
1.2244201
1.223477
1.2209163
1.2171029
1.2128185
1.2102334
1.2090873
1.2110694
1.2147016
1.2162034
1.213056
1.1969808
1.1827802
1.1745129
1.1701618
1.1680485
1.1670871
1.1666731
1.1665032
1.1664367
1.1664118
1.1664029
1.1663999
1.166399
1.1663987
1.1663987
1.0148811
1.0128295
1.0273639
1.0557694
1.0563539
1.0613705
1.0606654
1.0656196
1.067405
1.0730462
1.0774463
1.0846
1.0920628
1.1017391
1.1127878
1.1259224
1.1408076
1.1572829
1.1744344
1.1910142
1.2056349
1.2173379
1.2250887
1.2284683
1.2286766
1.226807
1.2234653
1.21893
1.2142643
1.2116621
1.2106155
1.2128378
1.2160691
1.2172713
1.2124073
1.1952574
1.1818138
1.1740207
1.1699406
1.167959
1.1670544
1.1666624
1.1665003
1.1664361
1.1664118
1.166403
1.1664
1.166399
1.1663987
1.1663987
1.0203555
1.0181667
1.0348181
1.0622891
1.0616872
1.0669144
1.0663618
1.0715518
1.0735921
1.0795132
1.0842948
1.0918162
1.0997912
1.1099843
1.1216523
1.1354026
1.1508746
1.1677314
1.1848971
1.2010283
1.2148285
1.2253679
1.2315203
1.2334745
1.2326497
1.2298737
1.2257659
1.2205314
1.215596
1.2130313
1.2121132
1.2145451
1.2173692
1.2182697
1.2114893
1.1935895
1.180897
1.173564
1.1697368
1.1678767
1.1670244
1.1666527
1.1664977
1.1664356
1.1664118
1.1664031
1.1664
1.166399
1.1663988
1.1663987
1.0261852
1.023839
1.0426794
1.0687724
1.0673005
1.0727733
1.0723815
1.0778094
1.0801128
1.0863153
1.0915001
1.0994105
1.1079261
1.1186626
1.1309725
1.1453442
1.1613631
1.1784962
1.1955162
1.2110458
1.2239121
1.2330295
1.2374972
1.2382083
1.2363157
1.2326804
1.2278212
1.2219234
1.2168272
1.2143497
1.2135847
1.216201
1.218561
1.2191334
1.2103168
1.1920127
1.180038
1.173142
1.1695491
1.1678011
1.1669968
1.1666439
1.1664953
1.1664352
1.1664118
1.1664032
1.1664001
1.1663991
1.1663988
1.1663987
1.0322661
1.0298791
1.0508722
1.0753141
1.0732497
1.078959
1.0787192
1.0843817
1.0869615
1.093456
1.0990783
1.107405
1.1164945
1.1278048
1.1407703
1.1557543
1.1722552
1.1895321
1.2062368
1.2210175
1.2327774
1.2402514
1.2430821
1.2426262
1.2396843
1.2352325
1.2296336
1.2231248
1.2179781
1.215633
1.2150425
1.217778
1.2196125
1.2195499
1.2088783
1.1905697
1.1792441
1.1727534
1.1693766
1.1677316
1.1669716
1.1666358
1.1664932
1.1664348
1.1664119
1.1664033
1.1664001
1.1663991
1.1663988
1.1663987
1.0388248
1.0364815
1.059413
1.0822941
1.0794781
1.0854128
1.0853435
1.091254
1.0941522
1.1009582
1.1070582
1.1158333
1.1255271
1.1374361
1.1510677
1.1666394
1.1835301
1.2007928
1.2170101
1.2309016
1.2413029
1.2469672
1.248353
1.2466963
1.242761
1.2375399
1.2312142
1.2241532
1.2190612
1.2168836
1.2164875
1.2191903
1.2206101
1.2196565
1.2072332
1.1892834
1.1785138
1.1723949
1.1692176
1.1676676
1.1669484
1.1666284
1.1664913
1.1664346
1.166412
1.1664034
1.1664002
1.1663991
1.1663988
1.1663987
1.0453762
1.043403
1.0679666
1.0890894
1.0859366
1.0921449
1.0922813
1.0984658
1.101717
1.1088601
1.1154749
1.1247301
1.1350551
1.147586
1.1618802
1.1779907
1.1951475
1.21222
1.2277777
1.2406225
1.2493767
1.2532197
1.2532784
1.2504219
1.2455578
1.2396091
1.2325674
1.2250433
1.2200993
1.2180948
1.2179265
1.2204242
1.2215663
1.2196101
1.2054495
1.1881153
1.1778385
1.1720636
1.1690711
1.1676089
1.1669272
1.1666217
1.1664896
1.1664344
1.1664121
1.1664035
1.1664003
1.1663992
1.1663988
1.1663987
1.0522897
1.0509943
1.0767486
1.0958706
1.0927393
1.0992238
1.0995891
1.1060461
1.1096997
1.1171982
1.1243677
1.1341281
1.145111
1.1582813
1.1732207
1.1897929
1.2070626
1.2237579
1.2384863
1.2500419
1.2569221
1.2590803
1.257822
1.2538098
1.248085
1.2414459
1.2336911
1.225832
1.2210966
1.2192512
1.2193277
1.2215551
1.2224535
1.2193139
1.2036194
1.1870089
1.1772084
1.1717564
1.1689361
1.1675551
1.1669078
1.1666156
1.1664881
1.1664342
1.1664122
1.1664036
1.1664004
1.1663992
1.1663988
1.1663987
1.0594002
1.0592232
1.0855895
1.1031474
1.0998726
1.1066619
1.1072923
1.1140453
1.1181377
1.1260156
1.133769
1.1440688
1.1557289
1.1695452
1.1850888
1.2020121
1.2192144
1.2353423
1.2490736
1.2590216
1.2639192
1.2645768
1.2619641
1.2568738
1.2503535
1.243046
1.2345768
1.2265731
1.2220575
1.2203651
1.2206896
1.2226423
1.2232981
1.2187493
1.2017859
1.1859467
1.1766188
1.171472
1.168812
1.1675058
1.1668902
1.1666102
1.1664868
1.1664342
1.1664124
1.1664037
1.1664004
1.1663992
1.1663988
1.1663987
1.0667483
1.0681671
1.0945723
1.1107385
1.1074238
1.1145244
1.1154462
1.1225056
1.1270737
1.135347
1.1437209
1.154584
1.1669387
1.1813966
1.197476
1.2146049
1.2315396
1.2469041
1.2594084
1.2674582
1.2704372
1.2696548
1.265716
1.2596254
1.2523706
1.2444086
1.2352679
1.2272607
1.2229833
1.2214443
1.2220116
1.2237047
1.2241003
1.2179409
1.1999773
1.1849256
1.1760672
1.1712089
1.1686979
1.1674607
1.1668742
1.1666053
1.1664857
1.1664341
1.1664126
1.1664039
1.1664005
1.1663993
1.1663988
1.1663987
1.0744215
1.0778594
1.1037542
1.1186903
1.1154223
1.1228372
1.1240805
1.1314527
1.1365379
1.1452305
1.1542553
1.1657176
1.178774
1.1938443
1.2103545
1.2275089
1.2439655
1.258368
1.269332
1.275277
1.2765633
1.2742711
1.2690899
1.2620831
1.254148
1.245537
1.2357976
1.2279066
1.2238873
1.2225041
1.2232973
1.2247359
1.224833
1.2168972
1.1982144
1.1839487
1.1755532
1.1709664
1.1685935
1.1674196
1.1668596
1.1666009
1.1664848
1.1664342
1.1664128
1.166404
1.1664006
1.1663993
1.1663989
1.1663987
1.0824303
1.08837
1.1131385
1.1270515
1.1238967
1.131625
1.1332258
1.1409198
1.1465703
1.1557109
1.1654242
1.1775092
1.1912607
1.2068862
1.2236828
1.240654
1.2564129
1.2696316
1.2786953
1.2825375
1.2822245
1.2784396
1.2720999
1.264263
1.255703
1.2464574
1.2361931
1.228505
1.2247676
1.2235477
1.2245362
1.2257136
1.2254193
1.215657
1.1965163
1.1830206
1.1750763
1.1707438
1.1684981
1.1673822
1.1668465
1.1665971
1.1664841
1.1664343
1.166413
1.1664042
1.1664007
1.1663994
1.1663989
1.1663988
1.0906607
1.0997953
1.1227176
1.1358546
1.1328756
1.1409148
1.1429155
1.1509471
1.1572216
1.1668461
1.1772754
1.1900036
1.2044168
1.2204992
1.2373978
1.2539577
1.2687891
1.280512
1.2874019
1.2893262
1.2873797
1.2821696
1.2747677
1.2661873
1.257059
1.2472092
1.2364798
1.2290673
1.2256304
1.2245785
1.2256821
1.2266518
1.2256662
1.2142416
1.194908
1.1821495
1.1746373
1.1705404
1.1684114
1.1673483
1.1668348
1.1665937
1.1664836
1.1664345
1.1664133
1.1664044
1.1664008
1.1663994
1.1663989
1.1663988
1.0991502
1.112074
1.1325439
1.1451331
1.1423912
1.1507487
1.1532128
1.1616036
1.1685589
1.1787033
1.1898641
1.203232
1.2182424
1.2346408
1.2514219
1.2673291
1.2809927
1.2908301
1.2954597
1.295615
1.2920168
1.2854767
1.277112
1.2678721
1.2582299
1.2478029
1.2366613
1.2295929
1.2264721
1.2255902
1.2267373
1.227562
1.2256981
1.2127165
1.1934141
1.1813424
1.1742358
1.1703552
1.1683325
1.1673176
1.1668242
1.1665908
1.1664832
1.1664348
1.1664136
1.1664046
1.1664009
1.1663995
1.1663989
1.1663988
1.1078532
1.1250904
1.1426862
1.1549401
1.1525085
1.1611938
1.1642124
1.172973
1.1806568
1.1913455
1.2032362
1.2172162
1.2327169
1.2492447
1.2656606
1.280658
1.29284
1.3004561
1.3029504
1.3013461
1.296152
1.2883844
1.2791618
1.2693418
1.2592156
1.2481215
1.236786
1.2300932
1.2272968
1.2265868
1.2277353
1.2284431
1.2256258
1.21108
1.1920719
1.1806077
1.1738713
1.1701871
1.168261
1.1672899
1.1668148
1.1665884
1.166483
1.1664351
1.1664139
1.1664048
1.166401
1.1663995
1.166399
1.1663988
1.1169243
1.13897
1.1532773
1.1654103
1.1633407
1.1723514
1.1759973
1.1851377
1.1935802
1.2048309
1.2174239
1.2319533
1.2477944
1.2642238
1.2800071
1.2938226
1.3041246
1.3093414
1.3098979
1.3064861
1.2997981
1.2909158
1.2809413
1.2706175
1.2600243
1.2482026
1.236889
1.2305714
1.2281053
1.227574
1.2286739
1.2292493
1.2253804
1.2093434
1.190907
1.1799451
1.1735404
1.1700343
1.1681962
1.167265
1.1668065
1.1665863
1.166483
1.1664355
1.1664143
1.166405
1.1664011
1.1663996
1.166399
1.1663988
1.1265729
1.1538832
1.1643867
1.176625
1.1749759
1.1843053
1.1886503
1.198171
1.2073832
1.2191979
1.2324435
1.2474209
1.2634035
1.2794685
1.2943327
1.3066468
1.3146723
1.3175625
1.3162232
1.3110552
1.3029823
1.2931026
1.2824828
1.271723
1.260663
1.2481593
1.2369946
1.2310433
1.2289057
1.2285673
1.2295503
1.229968
1.2249536
1.2075895
1.1898666
1.1793443
1.1732392
1.1698952
1.1681374
1.1672427
1.1667994
1.1665848
1.1664831
1.166436
1.1664147
1.1664053
1.1664013
1.1663996
1.166399
1.1663989
1.1368285
1.1698331
1.176201
1.1886846
1.187516
1.197134
1.2022417
1.2121365
1.2221061
1.2344768
1.2482938
1.2635683
1.2794454
1.2948528
1.3084882
1.3188871
1.3243897
1.3251817
1.3218759
1.3150652
1.3057292
1.2949717
1.2838074
1.2726641
1.2611071
1.2479943
1.2371029
1.2315137
1.2296939
1.22955
1.2303811
1.2306042
1.2243599
1.2058848
1.1889051
1.178794
1.1729637
1.1697686
1.1680843
1.1672229
1.1667933
1.1665837
1.1664835
1.1664366
1.1664151
1.1664055
1.1664014
1.1663997
1.1663991
1.1663989
1.147758
1.1866688
1.1888184
1.2016327
1.2010163
1.2108863
1.2168103
1.2270849
1.2377876
1.2506849
1.2649526
1.2803161
1.2957929
1.310223
1.3222898
1.3303298
1.3333474
1.3320966
1.3268805
1.3185455
1.3080759
1.2965595
1.2849414
1.2734398
1.261314
1.2477372
1.2372262
1.2319998
1.23046
1.2305174
1.2311793
1.2311682
1.223599
1.2042557
1.1880054
1.1782878
1.1727117
1.1696536
1.1680365
1.1672054
1.1667882
1.166583
1.166484
1.1664372
1.1664156
1.1664058
1.1664015
1.1663998
1.1663991
1.1663989
1.1601159
1.2043267
1.2023444
1.2154592
1.215502
1.2255793
1.2323789
1.2430734
1.2544749
1.2678319
1.2823676
1.2975461
1.3122905
1.3253919
1.3354516
1.3408522
1.3416204
1.3382472
1.3312483
1.3215258
1.3100536
1.2978934
1.2859033
1.2740577
1.2613627
1.247418
1.237364
1.2325056
1.2311849
1.2314665
1.2319575
1.231667
1.2227042
1.2027118
1.1871606
1.1778213
1.1724811
1.1695493
1.1679938
1.1671902
1.1667841
1.1665828
1.1664848
1.166438
1.1664161
1.1664061
1.1664017
1.1663999
1.1663992
1.166399
1.1741614
1.2223026
1.2168023
1.2301704
1.2311018
1.2413359
1.2490296
1.2601736
1.2722136
1.2858969
1.3004377
1.3150997
1.3287485
1.3401468