/*--------------------------------*- C++ -*----------------------------------*\
  =========                 |
  \\      /  F ield         | OpenFOAM: The Open Source CFD Toolbox
   \\    /   O peration     | Website:  https://openfoam.org
    \\  /    A nd           | Version:  8
     \\/     M anipulation  |
\*---------------------------------------------------------------------------*/
FoamFile
{
    version     2.0;
    format      ascii;
    class       surfaceVectorField;
    location    "0.0099963";
    object      rhoUf;
}
// * * * * * * * * * * * * * * * * * * * * * * * * * * * * * * * * * * * * * //

dimensions      [1 -2 -1 0 0 0 0];

internalField   nonuniform List<vector> 
39600
(
(212.17051 -1.5276294e-17 -4.1927861)
(197.80864 7.1523202e-17 -4.5791418)
(198.26048 1.1830546e-17 -3.8197798)
(238.1066 -1.1238368e-16 -4.7355001)
(228.87423 -1.0162104e-16 -4.9331228)
(228.84834 -6.2335378e-17 -4.0307416)
(257.11248 3.2214086e-17 -5.1671168)
(249.08313 4.3099068e-17 -5.4745526)
(248.76818 -1.1042676e-20 -4.4891843)
(274.73068 3.8625391e-17 -5.6086724)
(266.95147 3.5012737e-17 -5.9385475)
(266.36275 3.7178931e-17 -4.8731089)
(292.46241 2.9697008e-21 -6.1057029)
(284.55669 -3.1767604e-17 -6.438461)
(283.67688 0 -5.2934231)
(310.02945 -3.2498777e-19 -6.6717162)
(302.75043 8.6781149e-19 -6.983352)
(301.54611 4.7786137e-22 -5.7545738)
(321.73637 -9.5564403e-19 -7.07601)
(319.5277 4.7782757e-17 -7.7606279)
(318.77233 -2.1283704e-17 -6.4611528)
(324.09876 -3.0560782e-17 -7.1656359)
(324.67484 -8.0898599e-17 -7.6090536)
(324.58402 1.7186274e-17 -6.3458385)
(323.78178 1.3893615e-17 -7.1788312)
(323.3934 1.3818492e-18 -8.0713605)
(323.39321 -3.4321938e-17 -6.7650184)
(323.88249 3.9579422e-17 -7.2152853)
(324.23048 5.4052046e-17 -7.5263325)
(324.18265 5.70441e-17 -6.2629581)
(323.67594 -6.7712471e-18 -7.2487131)
(323.47862 -4.4657174e-17 -8.2353962)
(323.44909 -1.2417637e-17 -6.922541)
(323.69801 6.3844153e-18 -7.2990064)
(323.92488 3.8442725e-17 -7.5761583)
(323.87392 2.0540873e-18 -6.3035187)
(323.55804 -1.8812338e-17 -7.3601619)
(323.46223 -1.5673701e-17 -8.3279591)
(323.40807 -1.6463814e-17 -7.0123763)
(323.56054 -1.1786182e-17 -7.4380489)
(323.70999 6.9083403e-20 -7.7605477)
(323.64555 4.4914361e-18 -6.4699316)
(323.47087 -3.640833e-18 -7.5301568)
(323.42966 -1.0857023e-17 -8.4128105)
(323.37008 -1.1286687e-17 -7.0927561)
(323.44944 9.9395659e-18 -7.6395543)
(323.55897 9.0959568e-18 -8.0443178)
(323.49651 9.3403492e-18 -6.7318837)
(323.36206 -1.1633951e-17 -7.7693714)
(323.36514 -1.1877845e-19 -8.5486772)
(323.3057 -4.8900908e-21 -7.2186398)
(323.29758 -6.4406944e-18 -7.9192798)
(323.39502 -1.2533461e-17 -8.4003787)
(323.33673 -1.2999912e-17 -7.065372)
(323.17603 1.3235909e-17 -8.0940099)
(323.22217 2.7438591e-17 -8.7863992)
(323.16699 1.071215e-17 -7.4395691)
(323.04688 2.215302e-17 -8.28959)
(323.15082 -9.0755462e-18 -8.8232507)
(323.10035 -1.4998647e-19 -7.4648088)
(322.86217 9.2861479e-18 -8.5068851)
(322.94999 3.0114648e-17 -9.1445143)
(322.90637 2.0303388e-17 -7.7763403)
(322.639 -1.4133658e-17 -8.734734)
(322.76891 -2.4987611e-17 -9.304687)
(322.7361 -1.407407e-17 -7.9249738)
(322.337 -1.5891526e-17 -8.961276)
(322.48174 -6.4044921e-19 -9.5858879)
(322.46381 8.676271e-20 -8.2010713)
(321.94502 -1.1991623e-17 -9.1595738)
(322.13608 -1.6618457e-17 -9.7771448)
(322.1396 -1.6966598e-17 -8.3908338)
(321.42276 -3.0144143e-18 -9.2944157)
(321.65847 1.4619183e-17 -9.9632536)
(321.69028 6.502469e-18 -8.5881327)
(320.73481 -4.3937269e-18 -9.3151895)
(321.04068 5.3156629e-19 -10.027733)
(321.10809 -9.7834201e-18 -8.677988)
(319.83441 1.1663214e-17 -9.1611977)
(320.2206 -2.0781634e-17 -9.9489169)
(320.32899 5.9997082e-18 -8.6479655)
(318.70632 1.8642278e-18 -8.773792)
(319.17057 -7.2771338e-18 -9.6326487)
(319.32175 1.5574231e-18 -8.4052462)
(317.38209 1.0735531e-17 -8.1234093)
(317.89674 -6.7919498e-17 -9.0518692)
(318.08801 -2.8054164e-19 -7.9195232)
(315.91095 -1.1566636e-17 -7.224384)
(316.46129 2.1898992e-17 -8.2031308)
(316.68367 8.1310751e-18 -7.1873236)
(314.38165 -2.9229809e-17 -6.1365814)
(314.91622 -4.4266293e-17 -7.0762938)
(315.15441 -2.1207263e-17 -6.1931295)
(312.88811 1.8326968e-19 -4.9721174)
(313.39606 1.4040781e-17 -5.8632533)
(313.64615 1.8077926e-18 -5.0724682)
(311.36976 -2.3231105e-17 -3.7859502)
(311.86482 1.0335146e-16 -4.7973958)
(312.12545 1.5500055e-19 -4.1085802)
(309.81516 -1.7831732e-17 -2.8512143)
(310.30897 9.003546e-17 -3.5503836)
(310.49637 -1.8566372e-17 -3.0519212)
(308.85425 -1.3283269e-17 -2.1372015)
(309.02722 9.5833203e-17 -2.1893198)
(309.20825 9.4774114e-18 -1.7163266)
(308.07466 -3.7770289e-17 -2.7938549)
(308.27499 8.7530588e-17 -2.843795)
(308.53781 -1.7981928e-17 -2.2135134)
(307.3512 2.3266055e-17 -2.6736243)
(306.72049 -1.6295546e-17 -4.9948596)
(307.10401 -1.7048046e-18 -4.4062548)
(305.95126 3.0755006e-17 -4.5226977)
(305.74409 -6.4104046e-17 -5.9095786)
(305.71372 1.5778476e-17 -5.6390595)
(305.3734 2.8218275e-17 -3.996101)
(305.54412 1.3293585e-16 -4.7993229)
(305.57058 -5.8052494e-18 -4.8030209)
(304.97585 -1.0578395e-17 -2.6558232)
(305.27395 -2.2053525e-19 -2.7127828)
(305.26601 1.76176e-17 -2.8064917)
(304.88883 -9.0928378e-17 -1.2890903)
(305.14104 -1.6370255e-16 -1.090121)
(305.17182 -2.3592714e-17 -1.1422227)
(304.82307 -9.5299031e-18 -0.49142265)
(304.97915 1.172459e-19 -0.33348416)
(304.99879 -8.1857737e-19 -0.35000645)
(304.7963 -4.0148806e-18 -0.12060386)
(304.86534 1.7739733e-16 -0.044406615)
(304.87443 -4.0208201e-18 -0.048590505)
(304.78491 9.0722034e-18 0.018828688)
(304.81003 1.3036868e-16 0.049069702)
(304.81281 4.9182519e-19 0.048344694)
(304.78139 7.9579616e-18 0.065448198)
(304.78898 0 0.075407117)
(304.78969 2.0174006e-21 0.075311638)
(304.78029 -2.1182291e-18 0.079153845)
(304.78225 8.97031e-18 0.081913753)
(304.78238 1.4874745e-18 0.081905157)
(304.78005 -1.0420006e-17 0.082738454)
(304.78045 -2.9764156e-19 0.083320458)
(304.78047 -5.4603879e-19 0.083319633)
(304.77999 5.5949018e-18 0.083499271)
(304.78005 -1.4841642e-17 0.083583746)
(304.78005 6.8678765e-19 0.083583673)
(304.77997 0 0.083620556)
(304.77997 7.6142074e-18 0.083625074)
(304.77997 -2.5337589e-22 0.083625063)
(304.77997 -4.7234792e-17 0.083630255)
(304.77997 0 0.083630256)
(211.83842 1.8820923e-19 -5.0248716)
(197.58949 -6.0069484e-19 -5.3546071)
(238.09541 3.897647e-17 -5.6733377)
(228.97982 5.4396508e-17 -5.8512851)
(257.36618 4.6456497e-17 -6.1838548)
(249.44533 -8.9974845e-17 -6.4778683)
(275.24424 -2.8539818e-17 -6.6981989)
(267.5616 1.4984467e-16 -7.0228439)
(293.2573 -3.3451686e-17 -7.268475)
(285.43711 -9.5934143e-17 -7.6025751)
(310.79114 4.419895e-17 -7.8995519)
(303.95254 -3.8054563e-20 -8.23165)
(322.05344 -2.0283417e-17 -8.3243551)
(320.19439 4.7004185e-17 -9.0774358)
(324.13015 -5.6108059e-17 -8.4267331)
(324.81607 -7.9689056e-17 -8.8823229)
(323.79699 3.6492872e-17 -8.4516815)
(323.43607 -1.4768238e-18 -9.3966023)
(323.91524 -2.0508861e-17 -8.5023621)
(324.3114 5.7487927e-17 -8.8009671)
(323.70418 -7.0038455e-18 -8.5443583)
(323.5199 -4.7752204e-17 -9.5735339)
(323.73977 2.1138911e-17 -8.6029541)
(323.97975 1.9146366e-17 -8.8663943)
(323.60387 1.5323927e-18 -8.6711141)
(323.51357 -2.0875138e-17 -9.6725666)
(323.60852 1.8408786e-18 -8.7556464)
(323.76858 1.6241844e-18 -9.07108)
(323.51726 0 -8.8545731)
(323.48111 -4.2271421e-20 -9.7595128)
(323.49571 0 -8.9711567)
(323.61238 9.664877e-18 -9.3773995)
(323.4066 0 -9.1099181)
(323.41554 0 -9.9034573)
(323.33989 1.7372493e-17 -9.268559)
(323.44325 0 -9.756937)
(323.21401 8.5928582e-18 -9.4540839)
(323.26715 2.0246062e-18 -10.15672)
(323.07809 -4.5110358e-18 -9.659406)
(323.18883 -2.2967229e-17 -10.203336)
(322.88362 1.1519671e-18 -9.8870511)
(322.98047 1.9158515e-17 -10.534634)
(322.64601 -1.3818733e-17 -10.121733)
(322.78602 -1.2486179e-17 -10.704669)
(322.32398 1.2181462e-20 -10.351554)
(322.48224 -1.0867274e-17 -10.989868)
(321.90462 6.7812879e-18 -10.543943)
(322.112 9.1251143e-18 -11.18009)
(321.34744 1.9348721e-17 -10.660908)
(321.60318 -7.7859818e-18 -11.352134)
(320.61769 -1.3678018e-17 -10.645359)
(320.94625 -1.3001057e-17 -11.386934)
(319.67137 -4.0630443e-17 -10.43283)
(320.08206 2.1665932e-17 -11.254604)
(318.4977 -7.0366359e-17 -9.9627169)
(318.98687 -8.1514787e-18 -10.860363)
(317.13269 -6.537499e-17 -9.2108652)
(317.67262 -1.1959299e-17 -10.17982)
(315.63171 -4.0123631e-18 -8.1953473)
(316.2073 1.0194393e-16 -9.2108866)
(314.08789 -7.1288145e-18 -6.9834014)
(314.64783 -3.6273184e-17 -7.9557896)
(312.57731 1.070621e-16 -5.7247312)
(313.12129 1.3867734e-17 -6.6486658)
(311.03535 2.1650155e-16 -4.5650087)
(311.60377 2.0768807e-17 -5.4661166)
(309.58098 2.0153665e-16 -3.3433246)
(310.08364 1.8790491e-16 -4.0433955)
(308.5836 1.9648913e-16 -2.5966651)
(308.82595 -1.4167464e-16 -2.6635032)
(307.83566 1.2305617e-16 -2.6942637)
(307.94254 3.0726107e-17 -3.4513581)
(306.88158 -1.0826855e-16 -3.5250728)
(306.45711 -1.5150253e-16 -5.4766175)
(305.84512 2.1942599e-17 -4.8883777)
(305.71894 -1.9070122e-16 -6.1323049)
(305.35896 1.1920487e-16 -3.9980244)
(305.49315 -1.6373551e-16 -4.8148191)
(305.00782 -1.3470458e-16 -2.5344113)
(305.26173 1.6860096e-16 -2.6499977)
(304.87388 -9.1178287e-17 -1.2451923)
(305.11395 6.2181997e-17 -1.0594518)
(304.81632 1.6691532e-16 -0.47789154)
(304.961 -2.2635002e-16 -0.32470447)
(304.79214 3.1704227e-16 -0.12209277)
(304.8576 1.1000044e-17 -0.042718259)
(304.78326 1.3599061e-16 0.01674199)
(304.80754 -2.4113311e-17 0.049233643)
(304.78074 0 0.064528513)
(304.78829 1.1972634e-17 0.075383486)
(304.78015 1.1820965e-17 0.078932808)
(304.78209 -8.8397468e-18 0.081899753)
(304.78002 -3.1412176e-18 0.082696836)
(304.78041 -1.9024514e-16 0.08331748)
(304.77998 -1.5292539e-17 0.083494822)
(304.78004 -2.0131499e-17 0.083583309)
(304.77997 -3.4405644e-17 0.083619768)
(304.77997 7.7235514e-18 0.083625038)
(304.77997 -9.6170769e-17 0.083630254)
(211.88058 4.8123218e-17 -5.8773408)
(197.4083 2.6006059e-20 -6.1453948)
(238.4451 -6.0333434e-17 -6.6451025)
(229.15752 1.6354131e-16 -6.7901116)
(257.96437 -7.5977903e-18 -7.2461795)
(249.8737 -3.0872661e-16 -7.5045234)
(276.0983 1.0308452e-16 -7.8468454)
(268.23228 2.2279721e-16 -8.136013)
(294.41437 -7.0744945e-17 -8.507315)
(286.37499 -6.3388388e-17 -8.8028944)
(311.84992 -9.5091292e-19 -9.2211062)
(305.24721 -8.6166082e-19 -9.5263284)
(322.50828 -1.1589857e-18 -9.6685125)
(320.81071 1.5547837e-18 -10.434926)
(324.22877 -3.2429948e-17 -9.7576233)
(324.8799 5.3574475e-20 -10.191791)
(323.85774 1.4430512e-17 -9.7803333)
(323.45942 -3.373126e-17 -10.755177)
(323.97771 3.9099232e-17 -9.8283873)
(324.36109 5.6149483e-17 -10.103579)
(323.75057 -2.7453692e-17 -9.8732842)
(323.55433 -2.4869252e-17 -10.937582)
(323.78927 -1.8753544e-17 -9.9371363)
(324.02895 -5.0955277e-18 -10.181536)
(323.6573 -2.256571e-17 -10.009402)
(323.55379 -1.6150257e-17 -11.03996)
(323.66191 -7.7477415e-20 -10.099156)
(323.81717 -4.1783056e-20 -10.406672)
(323.56835 8.6262648e-18 -10.204957)
(323.52332 2.3661653e-17 -11.129068)
(323.54573 1.0437677e-17 -10.329356)
(323.65625 -3.6777343e-19 -10.736163)
(323.45408 0 -10.477215)
(323.45618 -8.2452299e-18 -11.282272)
(323.38389 -1.5179439e-17 -10.64594)
(323.48072 0 -11.139994)
(323.25325 -2.6813103e-17 -10.842231)
(323.30107 -5.03813e-18 -11.552547)
(323.10961 -3.2720828e-18 -11.058226)
(323.21484 9.9299585e-18 -11.610374)
(322.90457 8.449471e-18 -11.295613)
(322.99778 -8.3701636e-18 -11.950965)
(322.6514 -9.7323966e-18 -11.536998)
(322.78804 0 -12.130853)
(322.30825 -3.6375977e-18 -11.767943)
(322.4653 1.1544883e-17 -12.418421)
(321.86027 -3.7020523e-18 -11.951587)
(322.06733 1.8266595e-17 -12.605164)
(321.2671 -3.9096891e-17 -12.045218)
(321.52374 8.3128131e-18 -12.758806)
(320.49486 1.8637947e-17 -11.985856)
(320.82386 2.6496779e-17 -12.757472)
(319.50331 5.6333147e-17 -11.704778)
(319.91223 1.4626923e-16 -12.56304)
(318.28726 4.9733614e-17 -11.141243)
(318.76968 -8.621781e-18 -12.08119)
(316.88809 1.4217819e-16 -10.276752)
(317.41477 6.9302443e-17 -11.290542)
(315.36635 8.3428814e-17 -9.1357452)
(315.92112 7.8799949e-17 -10.192461)
(313.81821 -2.0368409e-17 -7.7996187)
(314.34933 5.5599905e-19 -8.8085213)
(312.3154 -7.2243837e-17 -6.4400386)
(312.82097 -1.3402107e-16 -7.4040837)
(310.79306 -2.4580796e-17 -5.1533873)
(311.32208 -6.8293406e-17 -6.0917271)
(309.37089 -1.1853454e-16 -3.8171494)
(309.84125 -1.0203178e-16 -4.504239)
(308.3581 -3.2466216e-16 -3.0839635)
(308.60245 1.1814106e-16 -3.1595787)
(307.68698 -2.1599952e-16 -2.944529)
(307.58377 -2.5239413e-16 -4.0427723)
(306.71617 -2.2917991e-16 -4.0101772)
(306.2418 1.8988245e-17 -5.9040837)
(305.70251 -3.7730851e-16 -5.27702)
(305.66962 1.0386127e-16 -6.3087172)
(305.31185 -1.5123363e-16 -3.9754539)
(305.43754 -1.4114858e-16 -4.8127979)
(304.99893 3.767016e-16 -2.4347673)
(305.23493 -2.9711495e-17 -2.576811)
(304.8657 -3.5761388e-17 -1.2008921)
(305.09042 4.8379585e-16 -1.0239784)
(304.81137 -4.089408e-16 -0.46295721)
(304.94517 3.0777198e-17 -0.31239572)
(304.78921 -3.2720233e-16 -0.11988671)
(304.851 -1.9936483e-16 -0.03953201)
(304.78221 -1.5186064e-16 0.016563054)
(304.80533 1.2139485e-16 0.049919236)
(304.78048 5.4674251e-18 0.06428104)
(304.78766 7.740763e-20 0.075510369)
(304.78011 -1.9140864e-16 0.078867142)
(304.78193 -8.8814463e-18 0.081920124)
(304.78002 -2.2665225e-16 0.082683116)
(304.78038 9.8406365e-18 0.083320597)
(304.77998 0 0.083492704)
(304.78003 0 0.083583721)
(304.77997 -4.3433347e-17 0.083619155)
(304.77997 0 0.08362508)
(304.77997 4.194439e-17 0.083630257)
(211.82027 1.0022868e-16 -6.7385305)
(197.24384 5.9834007e-19 -6.9483057)
(238.69093 -4.2433137e-17 -7.626814)
(229.33722 1.0802462e-16 -7.7374969)
(258.46517 -1.2494177e-16 -8.3183722)
(250.30854 -2.673387e-16 -8.545178)
(276.85616 8.2433102e-17 -9.0048016)
(268.91161 1.5282581e-16 -9.2645306)
(295.48976 0 -9.7545322)
(287.32022 -6.7773156e-17 -10.021617)
(312.79827 1.3975334e-18 -10.543541)
(306.57908 -4.3999395e-20 -10.842654)
(322.81504 2.8556757e-18 -11.00411)
(321.35173 -1.1376417e-19 -11.804065)
(324.24673 1.4150644e-18 -11.088912)
(324.92017 4.1409526e-17 -11.513206)
(323.88588 0 -11.115459)
(323.48246 0 -12.13342)
(324.01281 0 -11.169092)
(324.40882 0 -11.425083)
(323.7946 -4.5783721e-18 -11.219565)
(323.5858 3.1140072e-17 -12.324365)
(323.83366 -1.6818756e-18 -11.290656)
(324.07622 -4.6482814e-17 -11.516952)
(323.69543 4.5809148e-18 -11.368332)
(323.58584 4.1011992e-18 -12.428678)
(323.70095 2.1287629e-17 -11.464606)
(323.85684 -4.7332254e-20 -11.764308)
(323.60534 1.678999e-17 -11.578037)
(323.55643 -1.0161758e-18 -12.520995)
(323.58133 -1.8004128e-17 -11.710788)
(323.69014 -9.6476213e-18 -12.118587)
(323.48679 -8.9099811e-18 -11.86845)
(323.48668 3.226016e-19 -12.684492)
(323.41239 1.0332947e-17 -12.047427)
(323.50714 1.4033044e-17 -12.547816)
(323.27548 2.9697306e-17 -12.254827)
(323.32265 3.4699115e-17 -12.972825)
(323.1224 6.4528684e-18 -12.481526)
(323.22666 -6.9659299e-19 -13.042574)
(322.90459 -1.7346954e-17 -12.728189)
(322.99906 5.9754918e-19 -13.391965)
(322.63301 1.9880441e-17 -12.975277)
(322.77161 0 -13.581207)
(322.26524 3.2452647e-17 -13.205185)
(322.42714 6.7236005e-17 -13.869414)
(321.78434 3.0932865e-17 -13.376733)
(321.99809 9.1529207e-18 -14.04982)
(321.15045 7.1132764e-17 -13.441796)
(321.41607 -8.5571399e-18 -14.180427)
(320.33097 1.4118162e-16 -13.331695)
(320.66945 -1.4853849e-17 -14.136229)
(319.29015 9.6538505e-17 -12.973728)
(319.70735 7.60174e-18 -13.871189)
(318.02869 3.3785789e-18 -12.308318)
(318.51599 7.1566377e-17 -13.292496)
(316.59371 5.887892e-18 -11.323298)
(317.12105 -4.8541078e-19 -12.382403)
(315.05127 4.5951681e-18 -10.051891)
(315.60161 1.2695668e-18 -11.148493)
(313.4986 -9.8477275e-17 -8.5922192)
(314.02132 1.7040665e-16 -9.6357532)
(312.00064 -1.3674765e-16 -7.1266009)
(312.49595 -1.3284741e-16 -8.130269)
(310.504 -1.4167175e-16 -5.7091346)
(311.01837 1.1680417e-17 -6.6801996)
(309.12557 1.1019677e-16 -4.2770699)
(309.58159 -2.3622132e-17 -4.9437027)
(308.07254 2.2827394e-16 -3.5868354)
(308.36379 -1.2184925e-16 -3.6640944)
(307.37766 -4.8077781e-17 -3.4223965)
(307.23815 -9.0158194e-18 -4.6121546)
(306.53473 3.4891211e-16 -4.3133497)
(306.03139 1.6930246e-16 -6.3024705)
(305.5282 3.6711106e-16 -5.6537748)
(305.58986 1.9212634e-16 -6.4578362)
(305.26347 -3.341769e-17 -3.9485779)
(305.34624 1.7187872e-16 -4.7967064)
(304.98277 2.2488072e-17 -2.3655986)
(305.20352 -2.6650056e-16 -2.5020073)
(304.85654 6.059372e-16 -1.157224)
(305.06811 -6.4167322e-16 -0.9883787)
(304.80637 2.6409679e-16 -0.45060781)
(304.93186 -4.6845179e-19 -0.29925253)
(304.78734 2.1387649e-16 -0.11686455)
(304.84514 3.4314239e-16 -0.035755068)
(304.78162 2.8802223e-16 0.017065513)
(304.80336 9.0963158e-18 0.050837904)
(304.78033 -1.3137211e-17 0.06432047)
(304.78708 3.6828027e-16 0.075708287)
(304.78008 1.9159161e-16 0.078869137)
(304.78179 -8.7355348e-18 0.081957941)
(304.78001 2.394725e-16 0.082680271)
(304.78035 2.2294366e-16 0.083327017)
(304.77998 0 0.083491265)
(304.78003 3.1725411e-16 0.083584651)
(304.77997 8.2156488e-17 0.083618711)
(304.77997 -7.2435102e-18 0.083625185)
(304.77997 -8.6291569e-17 0.083630266)
(211.88567 -9.0352401e-22 -7.6107942)
(197.14241 0 -7.7716489)
(239.04282 -8.251649e-17 -8.6219837)
(229.57203 9.0571539e-19 -8.7008236)
(259.05879 -2.8667121e-17 -9.4081166)
(250.7989 -8.9632787e-17 -9.6097925)
(277.69812 2.325675e-17 -10.185477)
(269.6449 1.5486833e-16 -10.419972)
(296.65263 -7.3075692e-17 -11.031654)
(288.31196 -1.3538639e-16 -11.271946)
(313.78919 -1.5217016e-18 -11.897555)
(307.97516 -4.2973526e-20 -12.194914)
(323.12792 3.4312226e-17 -12.367387)
(321.83438 4.6948058e-17 -13.199272)
(324.28702 4.3256418e-17 -12.451906)
(324.96563 -1.6898852e-18 -12.857698)
(323.92067 0 -12.479469)
(323.49445 0 -13.537469)
(324.0537 2.7983545e-17 -12.537774)
(324.44969 3.0404656e-17 -12.769311)
(323.82627 -3.7023292e-18 -12.590903)
(323.60544 -1.2334837e-18 -13.734598)
(323.86786 -4.4807831e-17 -12.666124)
(324.11185 -4.0565268e-17 -12.874306)
(323.72807 -1.0213741e-19 -12.749812)
(323.60915 -4.6626366e-20 -13.839162)
(323.73358 -2.17655e-17 -12.852712)
(323.88678 -4.6265793e-20 -13.144553)
(323.63524 -2.6174851e-17 -12.974189)
(323.57993 -3.598757e-17 -13.934965)
(323.60899 7.474712e-18 -13.115844)
(323.71353 2.0378319e-17 -13.52497)
(323.51067 2.1657727e-17 -13.28382)
(323.50622 8.2032641e-18 -14.10992)
(323.43099 3.6193186e-17 -13.473793)
(323.5212 -1.4870398e-17 -13.980479)
(323.28712 7.8570258e-18 -13.692576)
(323.33143 -1.2894193e-17 -14.417458)
(323.12322 -6.5339365e-18 -13.930071)
(323.22443 -3.9049864e-17 -14.500006)
(322.89086 1.764301e-17 -14.185612)
(322.98469 1.5947613e-17 -14.857593)
(322.59856 4.0714941e-17 -14.437275)
(322.73725 0 -15.055586)
(322.20336 4.9380456e-17 -14.663799)
(322.3681 -1.6131194e-18 -15.342399)
(321.68636 -2.8072281e-17 -14.819382)
(321.90446 -6.763613e-17 -15.513164)
(321.00845 -9.2494611e-17 -14.849987)
(321.28006 -3.878808e-17 -15.615443)
(320.13889 -1.4826565e-16 -14.681207)
(320.4829 -6.4152949e-17 -15.520814)
(319.04731 -2.2831412e-17 -14.236891)
(319.46745 -1.7335709e-16 -15.175746)
(317.74098 7.4492168e-17 -13.459958)
(318.22611 2.4816315e-17 -14.490098)
(316.27311 -5.2040204e-18 -12.34577)
(316.79212 -1.4178995e-17 -13.450784)
(314.7148 1.4853949e-16 -10.938938)
(315.24978 -1.0775841e-16 -12.074596)
(313.16322 1.6645911e-16 -9.3554552)
(313.66501 5.8547678e-18 -10.432528)
(311.67726 -5.7457233e-19 -7.7796076)
(312.14796 1.0648189e-16 -8.8221775)
(310.21005 1.32186e-16 -6.2303044)
(310.69623 1.2008104e-17 -7.2300819)
(308.87439 -2.4322148e-16 -4.7207652)
(309.30373 -2.8533952e-16 -5.3622481)
(307.79675 -3.6984256e-16 -4.0996343)
(308.10688 -2.3823216e-16 -4.1670479)
(307.07157 1.8008145e-16 -4.0030793)
(306.9107 1.5485049e-16 -5.1572189)
(306.31727 1.8872709e-17 -4.7469614)
(305.82864 3.4323903e-17 -6.6594397)
(305.40478 0 -5.8085964)
(305.47412 -1.3011314e-17 -6.5731628)
(305.20015 -1.2458637e-17 -3.9198805)
(305.27079 3.094628e-16 -4.7628198)
(304.95848 -8.8147144e-16 -2.3020748)
(305.17024 -1.4034467e-17 -2.4236469)
(304.84737 -1.3197024e-15 -1.1148406)
(305.04668 -3.1733194e-16 -0.9510883)
(304.80157 3.9485364e-17 -0.43612761)
(304.92038 -1.4834524e-17 -0.28505011)
(304.78558 1.771391e-16 -0.11337774)
(304.84017 5.4068641e-19 -0.031353264)
(304.78113 4.8370087e-17 0.017913501)
(304.80161 -2.5176691e-16 0.05199437)
(304.78021 4.1629213e-16 0.064489949)
(304.78657 -3.7571103e-16 0.075974773)
(304.78006 -3.9579393e-18 0.07889385)
(304.78166 -1.7463666e-17 0.082012093)
(304.78001 2.9066119e-16 0.082681438)
(304.78033 1.2902106e-17 0.083336632)
(304.77998 3.4738692e-16 0.083490476)
(304.78002 1.6839697e-17 0.083586109)
(304.77997 -1.6962997e-16 0.083618295)
(304.77997 -3.7899754e-18 0.083625358)
(304.77997 -1.1777872e-17 0.083630279)
(211.91775 8.1627809e-19 -8.503522)
(197.05062 1.3052834e-18 -8.6114683)
(239.38803 9.771269e-19 -9.644714)
(229.8212 1.1943102e-16 -9.6806119)
(259.66182 7.0641951e-17 -10.529631)
(251.30778 3.0452362e-20 -10.696652)
(278.55536 2.2468666e-17 -11.400698)
(270.40162 -3.4592844e-18 -11.600602)
(297.8382 -7.4575126e-17 -12.346181)
(289.3227 -1.3830772e-16 -12.552413)
(314.75933 4.3636485e-17 -13.283014)
(309.39856 6.3282678e-17 -13.579751)
(323.3819 1.5569792e-17 -13.752425)
(322.23412 5.071524e-17 -14.615278)
(324.30731 -4.4077383e-17 -13.834221)
(325.00364 -8.4422086e-17 -14.220099)
(323.93684 2.7326279e-17 -13.863468)
(323.49599 3.7124839e-17 -14.962054)
(324.07547 4.3325501e-18 -13.925608)
(324.47957 3.3578404e-17 -14.132231)
(323.84959 -3.4154898e-17 -13.982481)
(323.61489 -6.3243933e-17 -15.165929)
(323.89331 -9.4803713e-21 -14.063132)
(324.13831 2.6869703e-17 -14.252591)
(323.74985 0 -14.152868)
(323.62286 0 -15.271217)
(323.75488 -1.1084358e-17 -14.262999)
(323.9066 0 -14.54762)
(323.65359 4.9992642e-18 -14.393187)
(323.59336 4.5638184e-19 -15.371178)
(323.6245 2.2068758e-17 -14.544422)
(323.72583 9.4737293e-18 -14.955496)
(323.52193 -2.5668148e-17 -14.723262)
(323.51431 -1.0112939e-19 -15.558647)
(323.43584 -6.3067863e-17 -14.924406)
(323.52265 -2.8090568e-17 -15.438023)
(323.28315 -5.6663203e-17 -15.154853)
(323.32591 1.3143209e-18 -15.886374)
(323.10642 -2.1606123e-17 -15.40311)
(323.20574 7.3856361e-19 -15.982409)
(322.85713 0 -15.666909)
(322.95156 0 -16.347423)
(322.54116 -4.13804e-17 -15.921668)
(322.68127 -4.2498136e-17 -16.553237)
(322.11504 -1.1073239e-16 -16.142028)
(322.28409 -5.7063585e-17 -16.836256)
(321.55799 -8.0680253e-17 -16.277168)
(321.78207 1.2183304e-17 -16.993542)
(320.83196 -8.665078e-18 -16.266735)
(321.11124 -7.8177709e-18 -17.061523)
(319.90874 -7.8938042e-17 -16.030597)
(320.25979 0 -16.908117)
(318.76421 -1.4476891e-16 -15.489949)
(319.18841 1.4048914e-17 -16.472906)
(317.41287 -5.890627e-17 -14.591617)
(317.8967 8.5948593e-17 -15.669755)
(315.91413 -1.0642872e-16 -13.340012)
(316.42575 2.4895927e-19 -14.491594)
(314.34371 -2.5979228e-16 -11.793555)
(314.86476 -1.1823448e-16 -12.967399)
(312.79713 -6.3404086e-17 -10.085909)
(313.28101 -3.1945628e-16 -11.195519)
(311.32667 1.2847416e-16 -8.3969975)
(311.77744 1.0568698e-16 -9.4770331)
(309.89336 -3.7113623e-16 -6.7178694)
(310.35506 2.3294343e-16 -7.7421676)
(308.60266 -2.854324e-16 -5.1471328)
(309.00906 -1.1537828e-16 -5.7614527)
(307.50479 2.4080255e-16 -4.6115169)
(307.83685 2.0142931e-16 -4.6599034)
(306.75554 1.5417965e-17 -4.5707701)
(306.59696 0 -5.6738788)
(306.099 1.4524051e-17 -5.1384993)
(305.62494 2.9742523e-16 -6.9707142)
(305.30733 2.5953142e-16 -5.8640319)
(305.34934 -1.2955022e-17 -6.6513917)
(305.13594 3.4403078e-16 -3.879463)
(305.19503 -2.1259763e-18 -4.7083476)
(304.93265 5.8611173e-16 -2.241551)
(305.13652 -1.4145946e-17 -2.3421566)
(304.83658 9.5165677e-16 -1.0763013)
(305.0265 1.0030965e-15 -0.91242737)
(304.79694 -5.3529783e-17 -0.41982403)
(304.91028 -2.2705402e-16 -0.27013758)
(304.78387 -3.9893581e-16 -0.10829171)
(304.83592 -3.7637802e-16 -0.026559524)
(304.78062 -6.6292637e-16 0.019207982)
(304.80014 2.4231001e-17 0.053319246)
(304.78007 -8.5284892e-16 0.064780975)
(304.78614 -3.9507808e-16 0.076293778)
(304.78002 -3.9594602e-18 0.078950288)
(304.78156 -8.7305788e-18 0.082079587)
(304.78 -2.6411908e-16 0.082691444)
(304.7803 1.9124871e-17 0.083349043)
(304.77998 -3.3614701e-16 0.083491467)
(304.78002 -3.2599576e-16 0.083588042)
(304.77997 1.5795732e-16 0.083618156)
(304.77997 2.3476057e-16 0.083625596)
(304.77997 1.7445977e-16 0.0836303)
(212.02935 1.0812434e-16 -9.4088317)
(197.00502 -5.4760864e-20 -9.465777)
(239.78959 1.2776859e-16 -10.681655)
(230.11243 1.1673621e-16 -10.678922)
(260.31188 -7.2077245e-17 -11.667947)
(251.85741 2.9745441e-20 -11.805887)
(279.45242 -1.5001938e-16 -12.636797)
(271.20489 -8.0947576e-17 -12.807577)
(299.05502 -1.9329463e-17 -13.687048)
(290.37336 -1.3906701e-16 -13.864879)
(315.71018 7.1175939e-17 -14.691963)
(310.84747 1.2250882e-16 -14.997396)
(323.60055 -3.6430207e-17 -15.155321)
(322.55779 3.2210503e-18 -16.052292)
(324.33106 -1.4587506e-17 -15.235778)
(325.03971 -3.7792695e-17 -15.601397)
(323.95063 4.3510527e-17 -15.266577)
(323.48807 3.6274334e-17 -16.407918)
(324.09462 -2.4860302e-17 -15.334406)
(324.50366 -1.5250767e-19 -15.51466)
(323.86214 -1.0705474e-17 -15.395016)
(323.6132 -2.5006401e-17 -16.618999)
(323.90864 2.9000108e-17 -15.481528)
(324.15486 4.3176775e-18 -15.652692)
(323.76229 0 -15.578179)
(323.62726 -9.2145148e-18 -16.725381)
(323.76649 1.1248479e-17 -15.696168)
(323.91622 -3.0639919e-17 -15.974261)
(323.66175 4.093427e-18 -15.835588)
(323.59636 5.0499498e-17 -16.829986)
(323.62891 -1.1427945e-17 -15.996803)
(323.72638 -3.1501547e-17 -16.410518)
(323.5209 -2.1027951e-19 -16.186811)
(323.5099 1.7722683e-17 -17.030794)
(323.42707 3.2543871e-17 -16.399734)
(323.50994 -2.9775776e-17 -16.920544)
(323.26462 5.7573116e-17 -16.641939)
(323.30559 3.5589792e-17 -17.37969)
(323.07325 2.1966232e-17 -16.900816)
(323.1707 5.1048975e-17 -17.489832)
(322.80466 -3.8075603e-17 -17.172056)
(322.90004 3.4654271e-17 -17.861332)
(322.46201 -5.6629243e-17 -17.428109)
(322.60409 3.050403e-17 -18.07371)
(322.00136 5.759021e-17 -17.639072)
(322.1754 -1.1331669e-17 -18.35012)
(321.40026 8.550652e-17 -17.748669)
(321.63102 6.7217825e-17 -18.489467)
(320.62214 0 -17.689867)
(320.90954 6.7104727e-17 -18.516383)
(319.64215 9.0249706e-17 -17.37691)
(320.00009 1.4002982e-17 -18.294953)
(318.44334 2.3462839e-16 -16.729299)
(318.87057 -3.9420481e-18 -17.758717)
(317.04802 1.5232729e-16 -15.699346)
(317.52856 -3.7536043e-18 -16.827058)
(315.5219 0 -14.302246)
(316.02323 -7.620006e-18 -15.500539)
(313.94455 -1.574382e-16 -12.61234)
(314.44813 -1.8704582e-16 -13.823145)
(312.4084 -1.9468535e-16 -10.780316)
(312.87081 2.9381885e-16 -11.920962)
(310.95858 1.9617667e-16 -8.9772496)
(311.38658 -1.9933976e-19 -10.091925)
(309.56297 5.2248262e-16 -7.172642)
(309.998 2.0561659e-17 -8.2169388)
(308.31847 3.3377006e-16 -5.5535347)
(308.69824 2.9207225e-16 -6.1414469)
(307.21113 -1.6194717e-17 -5.1130272)
(307.55111 2.7199317e-19 -5.1349308)
(306.46146 2.4818317e-16 -5.0761748)
(306.29133 0 -6.1563998)
(305.87937 3.1085843e-16 -5.4766891)
(305.42576 -2.9272444e-18 -7.2384126)
(305.19905 -2.7494117e-16 -5.8840075)
(305.22655 4.3657331e-16 -6.6935604)
(305.06938 -3.5792987e-16 -3.8324714)
(305.11812 -3.194173e-16 -4.6328871)
(304.90585 2.896467e-16 -2.181701)
(305.10275 4.4054589e-16 -2.2572695)
(304.82621 -3.4380978e-17 -1.03926)
(305.00767 9.7267515e-18 -0.87240447)
(304.79299 -5.3481036e-16 -0.40314116)
(304.90129 -4.6910549e-16 -0.25467212)
(304.7824 1.9581174e-18 -0.10228774)
(304.83226 -7.0591118e-16 -0.021524766)
(304.78013 3.4135441e-16 0.02109118)
(304.79887 2.4203897e-17 0.054741522)
(304.77994 4.0779191e-16 0.065311689)
(304.78577 7.418372e-16 0.076644811)
(304.77999 1.1278816e-17 0.079081844)
(304.78147 -2.0718817e-22 0.082155441)
(304.77999 -2.5743254e-18 0.082718492)
(304.78028 6.5047557e-18 0.083363207)
(304.77998 1.8590653e-16 0.083495194)
(304.78002 -1.8968218e-17 0.083590257)
(304.77997 2.5848902e-16 0.083618235)
(304.77997 1.4272152e-17 0.083625867)
(304.77997 3.3205042e-16 0.083630321)
(212.12413 -5.8020068e-19 -10.330746)
(196.97229 6.048548e-20 -10.33251)
(240.19447 1.0193951e-18 -11.74323)
(230.42221 -3.9606816e-20 -11.694264)
(260.98033 -2.340447e-18 -12.835568)
(252.42755 -1.5598617e-18 -12.936253)
(280.37445 -6.5727387e-17 -13.906948)
(272.0363 1.1057764e-19 -14.039356)
(300.29344 -2.0870099e-17 -15.065829)
(291.45585 -1.4446403e-16 -15.209433)
(316.62834 6.5419448e-17 -16.130819)
(312.2854 1.2724429e-16 -16.444699)
(323.76565 5.0928501e-18 -16.580391)
(322.79805 -5.4946058e-17 -17.510401)
(324.33866 6.1083457e-18 -16.657722)
(325.06095 4.5864874e-17 -17.00229)
(323.95096 -3.5370658e-18 -16.690978)
(323.47162 0 -17.876667)
(324.09994 1.6582656e-18 -16.763917)
(324.51785 4.18485e-18 -16.917954)
(323.86425 -1.2642713e-17 -16.829529)
(323.60332 -2.0390088e-17 -18.095107)
(323.91427 -3.1957735e-17 -16.922697)
(324.16217 2.3201047e-17 -17.075798)
(323.76439 -3.7481729e-17 -17.0266)
(323.62183 -8.9801515e-18 -18.202254)
(323.76693 1.2939638e-18 -17.152774)
(323.91461 3.2314979e-17 -17.425005)
(323.65813 2.2275312e-17 -17.30168)
(323.58784 1.150269e-17 -18.311545)
(323.62051 -6.9390295e-18 -17.473244)
(323.71413 -2.0766217e-17 -17.890296)
(323.50633 -7.3532875e-18 -17.674787)
(323.4922 1.7411076e-17 -18.526591)
(323.40336 -3.213798e-17 -17.899531)
(323.48266 -1.3985421e-17 -18.428355)
(323.2289 2.7929033e-17 -18.153627)
(323.2687 3.7874215e-17 -18.897517)
(323.02051 6.4856188e-17 -18.422756)
(323.11655 -1.1488348e-17 -19.022085)
(322.72981 1.0225597e-16 -18.700271)
(322.82657 7.8439471e-17 -19.398818)
(322.35711 7.8527446e-17 -18.955364)
(322.50162 5.617456e-17 -19.61609)
(321.85808 -8.7228199e-18 -19.153135)
(322.03753 1.1121426e-16 -19.882583)
(321.20882 4.9164575e-17 -19.231345)
(321.44663 -3.0299274e-17 -19.998836)
(320.37467 8.5641351e-17 -19.115968)
(320.6702 6.3023866e-18 -19.977043)
(319.33511 -7.7097447e-17 -18.715874)
(319.69933 -8.5679363e-17 -19.677393)
(318.08126 -2.3885433e-16 -17.95012)
(318.51001 -8.2535239e-18 -19.028535)