/*--------------------------------*- C++ -*----------------------------------*\
  =========                 |
  \\      /  F ield         | OpenFOAM: The Open Source CFD Toolbox
   \\    /   O peration     | Website:  https://openfoam.org
    \\  /    A nd           | Version:  8
     \\/     M anipulation  |
\*---------------------------------------------------------------------------*/
FoamFile
{
    version     2.0;
    format      ascii;
    class       volScalarField;
    location    "0.0099963";
    object      T;
}
// * * * * * * * * * * * * * * * * * * * * * * * * * * * * * * * * * * * * * //

dimensions      [0 0 0 1 0 0 0];

internalField   nonuniform List<scalar> 
20000
(
285.70127
285.59261
285.40114
284.83057
283.42308
280.35174
274.45564
272.39292
272.91055
272.90006
273.33267
273.4547
273.83154
274.05191
274.44723
274.78294
275.24948
275.72582
276.31268
276.95662
277.70513
278.54119
279.48711
280.544
281.71825
283.00963
284.41015
285.89061
287.398
288.88047
290.2746
291.52428
292.80903
293.97072
294.61663
295.66349
297.7066
299.24338
299.66672
299.03942
298.44308
298.16406
298.05302
298.01549
298.00403
298.00093
298.00018
298.00003
298
298
285.68396
285.60911
285.43668
284.85139
283.37647
280.16956
274.27691
272.43213
272.96955
272.95078
273.39282
273.51278
273.89706
274.12383
274.52725
274.87368
275.3508
275.84205
276.44396
277.10743
277.87708
278.73817
279.71175
280.79922
282.00592
283.32927
284.7583
286.2604
287.78231
289.26676
290.64703
291.90086
293.18064
294.24236
294.86728
296.16913
298.21065
299.3299
299.68877
298.98806
298.44458
298.16876
298.05607
298.01672
298.00446
298.00104
298.00021
298.00003
298
298
285.6129
285.59013
285.42945
284.81813
283.25434
279.85398
274.02432
272.4542
273.02372
273.00313
273.45473
273.57777
273.96984
274.20398
274.61515
274.97267
275.46026
275.96654
276.58361
277.26684
278.05725
278.94294
279.94297
281.05947
282.29592
283.64757
285.09987
286.61689
288.14386
289.61972
290.98035
292.22544
293.47357
294.46329
295.08755
296.54387
298.45011
299.41362
299.7089
298.97628
298.44006
298.16896
298.05706
298.01717
298.00457
298.00106
298.00021
298.00003
298
298
285.5954
285.61931
285.47174
284.83834
283.18525
279.56923
273.85641
272.52653
273.09834
273.08985
273.53321
273.66031
274.06217
274.30301
274.7219
275.09052
275.58884
276.11059
276.74305
277.44652
278.25846
279.16986
280.19767
281.34483
282.61264
283.99404
285.47046
287.00283
288.53455
290.0014
291.34412
292.57994
293.795
294.70925
295.34917
296.95049
298.72945
299.52004
299.72342
298.96161
298.43677
298.16863
298.05728
298.0173
298.00462
298.00107
298.00021
298.00003
298
298
285.59728
285.65774
285.5155
284.85432
283.10481
279.23881
273.70783
272.59827
273.19032
273.17319
273.62907
273.76052
274.16763
274.41628
274.84285
275.22331
275.7325
276.2703
276.91894
277.64348
278.47773
279.41557
280.47179
281.64997
282.94905
284.35944
285.85822
287.40302
288.93525
290.3887
291.71074
292.93088
294.10596
294.95577
295.6199
297.30167
298.95429
299.66328
299.73186
298.95213
298.43166
298.1676
298.05705
298.01726
298.00461
298.00107
298.00021
298.00003
298
298
285.57377
285.69245
285.56269
284.8805
283.03608
278.89338
273.60622
272.71139
273.29773
273.28549
273.74045
273.8748
274.28872
274.54548
274.97993
275.37273
275.89343
276.44797
277.11318
277.85937
278.71675
279.6819
280.76748
281.97748
283.30834
284.74751
286.26749
287.82265
289.35246
290.7897
292.08926
293.28925
294.42081
295.21531
295.91202
297.63563
299.17185
299.82082
299.73002
298.94117
298.42589
298.16581
298.05661
298.01713
298.00458
298.00106
298.00021
298.00003
298
298
285.6121
285.75869
285.63167
284.91862
282.97525
278.52684
273.54443
272.81335
273.41902
273.40039
273.8663
274.00383
274.42392
274.68962
275.13218
275.53813
276.07067
276.64264
277.32554
278.09445
278.97608
279.96953
281.08539
282.32776
283.69048
285.15764
286.69697
288.25949
289.78297
291.20019
292.4741
293.64879
294.73376
295.48309
296.21698
297.94408
299.3711
299.96664
299.72715
298.92961
298.41863
298.16282
298.05565
298.01686
298.0045
298.00104
298.0002
298.00003
298
298
285.61316
285.81333
285.69892
284.95426
282.91553
278.14428
273.52382
272.93758
273.55365
273.53312
274.00795
274.14719
274.57378
274.84908
275.30013
275.71985
276.26498
276.85519
277.5563
278.34866
279.25547
280.27811
281.42513
282.70049
284.09513
285.58938
287.14598
288.71281
290.22623
291.62004
292.8655
294.01008
295.04585
295.76002
296.53757
298.23681
299.55702
300.10001
299.72433
298.9164
298.4101
298.15899
298.05422
298.01638
298.00436
298.00101
298.0002
298.00003
298
298
285.67754
285.89888
285.78599
285.00261
282.85857
277.75588
273.54421
273.07335
273.70145
273.67855
274.16173
274.30524
274.73832
275.02399
275.48371
275.91796
276.47606
277.0853
277.80596
278.62296
279.55618
280.60906
281.78819
283.09701
284.52342
286.04347
287.61482
289.18229
290.68143
292.04792
293.26164
294.37173
295.35624
296.04297
296.86963
298.5146
299.72615
300.22358
299.7182
298.9011
298.4002
298.15437
298.05244
298.01579
298.00419
298.00096
298.00019
298.00003
298
298
285.68071
285.97816
285.86876
285.04791
282.79217
277.36362
273.60202
273.22408
273.86128
273.83903
274.32773
274.47828
274.91773
275.21427
275.68302
276.13243
276.70442
277.33361
278.07446
278.91686
279.87744
280.96146
282.17359
283.51631
284.97419
286.51847
288.1017
289.66601
291.14665
292.48222
293.66141
294.73291
295.66401
296.32961
297.21281
298.78158
299.8789
300.33686
299.707
298.8834
298.38906
298.14917
298.05043
298.01512
298.004
298.00092
298.00018
298.00003
298
298
285.79291
286.10046
285.98136
285.10856
282.72492
276.98604
273.69592
273.38951
274.03358
274.01367
274.50834
274.66577
275.1117
275.41994
275.89805
276.36348
276.94993
277.59998
278.36244
279.23144
280.22063
281.3369
282.58294
283.95991
285.44863
287.01517
288.6069
290.16375
291.62128
292.922
294.06365
295.09308
295.96887
296.61675
297.56331
299.04205
300.01912
300.43506
299.69002
298.86323
298.37685
298.14353
298.04827
298.01442
298.0038
298.00087
298.00017
298.00003
298
298
285.84681
286.21243
286.09351
285.16349
282.63825
276.62581
273.82027
273.56717
274.21856
274.20163
274.70226
274.86777
275.32027
275.64092
276.12886
276.61117
277.2131
277.8849
278.66957
279.56591
280.58478
281.73429
283.0151
284.42653
285.94527
287.53172
289.12824
290.67313
292.10294
293.36521
294.46696
295.45133
296.27025
296.90164
297.91408
299.30053
300.15354
300.51181
299.66703
298.84077
298.36375
298.1376
298.04604
298.0137
298.0036
298.00082
298.00016
298.00003
298
298
285.94714
286.33991
286.21717
285.22562
282.53165
276.29851
273.97428
273.75881
274.41722
274.40389
274.91017
275.08413
275.54351
275.87726
276.37581
276.87569
277.4939
278.18813
278.99643
279.92139
280.97135
282.1553
283.47174
284.91764
286.46513
288.06864
289.66569
291.19362
292.59083
293.81085
294.87026
295.80714
296.56784
297.182
298.25463
299.56236
300.28715
300.57373
299.63832
298.81624
298.34995
298.13148
298.04377
298.01298
298.00341
298.00078
298.00015
298.00002
298
298
286.00015
286.46503
286.34459
285.28994
282.39461
276.02224
274.15417
273.964
274.62811
274.61973
275.13138
275.31508
275.78125
276.12934
276.63871
277.1572
277.79227
278.50983
279.3425
280.29707
281.37939
282.59884
283.95163
285.4318
287.0065
288.62379
290.21679
291.72265
293.08242
294.25675
295.27195
296.15956
296.86192
297.45752
298.57517
299.82199
300.44119
300.61374
299.60456
298.78997
298.33565
298.12527
298.04152
298.01228
298.00322
298.00074
298.00014
298.00002
298
298
286.12407
286.61544
286.4883
285.36332
282.2272
275.7859
274.36873
274.18171
274.85209
274.84918
275.36635
275.56048
276.03409
276.39693
276.91785
277.45511
278.10809
278.84989
279.70858
280.69429
281.81054
283.06669
284.45642
285.97034
287.57011
289.19733
290.7811
292.25941
293.57676
294.70189
295.67102
296.50799
297.15215
297.72797
298.87545
300.06722
300.61772
300.63636
299.56634
298.76224
298.32099
298.11906
298.03931
298.01161
298.00305
298.0007
298.00014
298.00002
298
298
286.2306
286.76927
286.6402
285.44284
282.02512
275.5973
274.61379
274.41268
275.08912
275.09244
275.61546
275.8208
276.30157
276.67995
277.21236
277.7696
278.44116
279.20825
280.09428
281.11242
282.26393
283.55773
284.9848
286.53162
288.15395
289.78679
291.35596
292.80118
294.07129
295.14403
296.06552
296.85112
297.43958
297.99648
299.15813
300.29503
300.80065
300.64865
299.52448
298.73337
298.30617
298.11292
298.03717
298.01097
298.00288
298.00066
298.00013
298.00002
298
298
286.36442
286.93407
286.79932
285.531
281.79101
275.45942
274.86552
274.65747
275.33979
275.35003
275.87828
276.09518
276.58336
276.9774
277.52232
278.09976
278.7916
279.5856
280.50087
281.55305
282.74135
284.07379
285.53834
287.11674
288.75841
290.39186
291.94052
293.34683
294.56488
295.58214
296.45453
297.18835
297.72388
298.26381
299.42749
300.50604
300.97068
300.6343
299.47984
298.70357
298.29129
298.10689
298.03511
298.01037
298.00273
298.00063
298.00013
298.00002
298
298
286.49096
287.10217
286.96127
285.6233
281.52387
275.37321
275.11465
274.91557
275.60289
275.62041
276.15368
276.38279
276.87815
277.28916
277.84709
278.44677
279.16011
279.9822
280.92811
282.01557
283.24188
284.61368
286.11555
287.72381
289.38113
291.00983
292.53198
293.89371
295.05515
296.01414
296.83587
297.51781
298.00621
298.53522
299.68661
300.69428
301.12176
300.60175
299.43285
298.67308
298.27653
298.10105
298.03314
298.0098
298.00259
298.00061
298.00012
298.00002
298
298
286.65593
287.28776
287.12933
285.72121
281.23086
275.34207
275.38281
275.1849
275.87685
275.9024
276.44047
276.68274
277.18634
277.61526
278.18802
278.8105
279.54726
280.39908
281.37739
282.50166
283.76733
285.17916
286.71786
288.35358
290.02205
291.63996
293.1291
294.44042
295.54081
296.43896
297.20877
297.83898
298.28611
298.81194
299.93847
300.85767
301.25454
300.55543
299.38269
298.64212
298.262
298.0954
298.03128
298.00926
298.00246
298.00058
298.00012
298.00002
298
298
286.82112
287.47506
287.29514
285.81215
280.91488
275.36615
275.65816
275.46406
276.16065
276.19551
276.73905
276.99598
277.5084
277.95698
278.54535
279.19263
279.95384
280.83632
281.84835
283.01062
284.31673
285.76896
287.34355
289.00382
290.67844
292.27923
293.72901
294.98442
296.01984
296.85489
297.57109
298.14943
298.56328
299.09871
300.18694
300.99904
301.35392
300.49818
299.32974
298.61108
298.24781
298.09
298.02951
298.00877
298.00235
298.00056
298.00012
298.00002
298
298
286.99702
287.66692
287.45659
285.89167
280.58798
275.44994
275.94553
275.75449
276.45601
276.50144
277.05074
277.32367
277.8461
278.3151
278.92061
279.59285
280.3802
281.29485
282.34238
283.54416
284.89192
286.38474
287.99377
289.67485
291.34978
292.92644
294.33016
295.52411
296.49083
297.26088
297.9222
298.44877
298.83637
299.39508
300.43458
301.12806
301.43689
300.43127
299.27471
298.58022
298.23406
298.08485
298.02786
298.00831
298.00224
298.00054
298.00011
298.00002
298
298
287.18297
287.86554
287.61459
285.95508
280.26257
275.59325
276.24434
276.05768
276.76424
276.82149
277.37717
277.6673
278.19996
278.69042
279.31356
280.01228
280.82669
281.77458
282.85907
284.10162
285.4919
287.02508
288.66651
290.36405
292.03295
293.5784
294.92964
296.05715
296.95217
297.65571
298.26049
298.73477
299.10249
299.69794
300.67979
301.2599
301.49204
300.3562
299.21844
298.54987
298.22082
298.07996
298.02631
298.00789
298.00214
298.00052
298.00011
298.00002
298
298
287.38758
288.07761
287.77182
285.99219
279.95479
275.79487
276.55698
276.37529
277.08715
277.1575
277.71908
278.02727
278.57042
279.08288
279.72465
280.45033
281.29372
282.27662
283.4
284.68483
286.11851
287.69146
289.36251
291.07123
292.72694
294.2336
295.52568
296.58186
297.40243
298.03832
298.58552
299.00739
299.35936
299.99595
300.92138
301.39843
301.52633
300.27436
299.16161
298.52023
298.20813
298.07535
298.02486
298.0075
298.00206
298.00051
298.00011
298.00002
298
298
287.61067
288.30596
287.93303
285.995
279.68502
276.02548
276.88542
276.70815
277.42516
277.50883
278.07643
278.40277
278.95696
279.49198
280.1537
280.90788
281.78174
282.80105
283.96489
285.29317
286.77065
288.38221
290.07937
291.79332
293.42826
294.88855
296.11534
297.09626
297.84043
298.40813
298.89666
299.26595
299.60457
300.27696
301.14798
301.56033
301.55034
300.18761
299.10506
298.49151
298.19604
298.07101
298.02352
298.00714
298.00198
298.00049
298.00011
298.00002
298
298
287.85919
288.55025
288.09915
285.95157
279.45919
276.28318
277.22884
277.05531
277.77674
277.87461
278.44756
278.79329
279.35911
279.91799
280.60104
281.38503
282.29161
283.34928
284.5555
285.92851
287.45003
289.09843
290.81728
292.52949
294.13528
295.5412
296.69673
297.59882
298.26485
298.76413
299.1937
299.51091
299.83778
300.53975
301.36008
301.73039
301.53742
300.09821
299.04934
298.46381
298.18456
298.06694
298.02227
298.00682
298.00191
298.00048
298.00011
298.00002
298
298
288.09315
288.80337
288.26473
285.85452
279.29339
276.62718
277.58345
277.41483
278.13997
278.25335
278.83228
279.19856
279.77726
280.36124
281.06764
281.88312
282.82402
283.92151
285.17159
286.59017
288.15538
289.83807
291.57336
293.27615
294.84412
296.18789
297.26713
298.08797
298.67494
299.1062
299.47709
299.74408
300.06139
300.78542
301.54739
301.88559
301.48257
300.00869
298.99492
298.43724
298.17372
298.06314
298.02112
298.00652
298.00185
298.00048
298.00011
298.00002
298
298
288.38899
289.09205
288.45351
285.70315
279.19308
276.97618
277.94917
277.78561
278.51518
278.64573
279.23106
279.61963
280.21244
280.82297
281.55418
282.40248
283.38005
284.51932
285.81498
287.27998
288.8881
290.60177
292.34707
294.03176
295.55256
296.82656
297.82511
298.5622
299.06958
299.43342
299.74673
299.96659
300.27775
301.01787
301.71295
302.01761
301.40518
299.92085
298.94186
298.41181
298.16349
298.0596
298.02006
298.00625
298.00179
298.00047
298.00011
298.00002
298
298
288.65625
289.37022
288.63814
285.48218
279.15996
277.33008
278.32635
278.16952
278.90365
279.05295
279.6455
280.05742
280.6656
281.30373
282.06173
282.94456
283.9604
285.14292
286.48541
287.99711
289.64664
291.38697
293.13495
294.79216
296.25644
297.45401
298.36884
299.01977
299.44825
299.74585
300.00363
300.1824
300.49401
301.23943
301.85461
302.11374
301.3091
299.8333
298.89028
298.38762
298.1539
298.05631
298.01908
298.006
298.00174
298.00046
298.00011
298.00002
298
298
288.9529
289.67222
288.84144
285.20821
279.20083
277.69682
278.71683
278.56844
279.30694
279.47618
280.0762
280.51284
281.13756
281.80455
282.5909
283.50978
284.56634
285.79401
287.1847
288.7432
290.43196
292.19352
293.93557
295.55507
296.95363
298.06945
298.89753
299.45888
299.80976
300.04279
300.24751
300.3925
300.7138
301.45224
301.97396
302.19195
301.20037
299.74521
298.84028
298.36468
298.14493
298.05326
298.01818
298.00577
298.0017
298.00046
298.00011
298.00002
298
298
289.21899
289.96445
289.03935
284.87982
279.31225
278.0835
279.12014
278.98213
279.72504
279.91593
280.52402
280.98637
281.62884
282.3259
283.14284
284.09963
285.19856
286.47274
287.91249
289.51721
291.24202
293.01825
294.74477
296.31598
297.64059
298.67136
299.40893
299.87816
300.15327
300.32404
300.4791
300.59959
300.9415
301.6557
302.08496
302.24268
301.08162
299.65731
298.79223
298.34307
298.13656
298.05043
298.01735
298.00557
298.00166
298.00046
298.00011
298.00003
298
298
289.55839
290.30171
289.26434
284.52264
279.4785
278.48904
279.53923
279.41183
280.15913
280.3727
280.98929
281.47834
282.1404
282.86884
283.71857
284.715
285.8585
287.18087
288.67051
290.3204
292.07707
293.85993
295.56015
297.07244
298.31647
299.25914
299.90012
300.27715
300.47792
300.58881
300.69832
300.80235
301.17073
301.85038
302.20682
302.27674
300.95489
299.57045
298.74631
298.32276
298.12877
298.04782
298.0166
298.00539
298.00163
298.00046
298.00012
298.00003
298.00001
298
289.87927
290.63258
289.47417
284.14102
279.71941
278.91037
279.97168
279.85773
280.60864
280.84678
281.47224
281.9898
282.67279
283.43479
284.3192
285.35694
286.54675
287.91853
289.45827
291.15137
292.93435
294.71455
296.37698
297.82053
298.97932
299.82873
300.36845
300.65447
300.78384
300.83613
300.90614
301.00061
301.39509
302.03579
302.34887
302.29856
300.82281
299.48585
298.70279
298.30376
298.12155
298.04541
298.0159
298.00522
298.0016
298.00046
298.00012
298.00003
298.00001
298
290.21191
290.9747
289.67812
283.76367
280.02954
279.34904
280.41949
280.31976
281.07443
281.33831
281.97412
282.52131
283.22793
284.02409
284.94561
286.0267
287.26493
288.68752
290.27732
292.01073
293.81302
295.57968
297.19253
298.55881
299.62846
300.37584
300.8111
301.0103
301.07136
301.06554
301.10343
301.19243
301.612
302.21173
302.49284
302.28099
300.68895
299.40438
298.6617
298.286
298.11484
298.04319
298.01526
298.00507
298.00158
298.00046
298.00012
298.00003
298.00001
298
290.56591
291.33219
289.86161
283.40548
280.39744
279.8023
280.88121
280.79783
281.55683
281.84861
282.49596
283.07462
283.80606
284.63869
285.59918
286.7253
288.01366
289.48794
291.12689
292.89635
294.70933
296.45056
298.00242
299.28498
300.25931
300.89593
301.22611
301.34604
301.33994
301.27704
301.29065
301.3781
301.81988
302.37028
302.62192
302.22225
300.55792
299.32686
298.6231
298.26946
298.10863
298.04114
298.01468
298.00494
298.00156
298.00046
298.00013
298.00003
298.00001
298
290.92748
291.70467
290.01476
283.09835
280.82547
280.27169
281.35885
281.29441
282.05782
282.37938
283.03954
283.65045
284.40909
285.27871
286.28081
287.45431
288.79481
290.32158
292.00799
293.80777
295.62103
297.32405
298.80456
299.99822
300.86622
301.38573
301.61642
301.66332
301.58716
301.47266
301.46791
301.55764
302.01866
302.50539
302.72349
302.13367
300.43248
299.25336
298.58683
298.25405
298.10288
298.03925
298.01415
298.00482
298.00155
298.00046
298.00013
298.00003
298.00001
298
291.29597
292.09296
290.12182
282.88166
281.31036
280.75944
281.85349
281.81086
282.57877
282.93146
283.6053
284.24949
285.03681
285.94607
286.99217
288.21502
289.60912
291.18834
292.91918
294.74174
296.54341
298.19549
299.59597
300.69429
301.44321
301.84344
301.98651
301.95867
301.81311
301.65339
301.63645
301.73392
302.20752
302.61649
302.79467
302.01951
300.31431
299.18364
298.55282
298.23973
298.09757
298.03751
298.01366
298.00471
298.00153
298.00047
298.00013
298.00003
298.00001
298
291.66307
292.49534
290.17591
282.72665
281.78023
281.26699
282.36707
282.34797
283.11974
283.50493
284.19336
284.87225
285.69109
286.64179
287.73491
289.00946
290.45856
292.08958
293.86043
295.69632
297.47321
299.0622
300.37558
301.3663
301.98668
302.27321
302.33595
302.23241
302.01781
301.82082
301.79702
301.90835
302.3847
302.71518
302.84276
301.88731
300.19948
299.1172
298.52093
298.22644
298.09267
298.03592
298.01322
298.00462
298.00153
298.00047
298.00014
298.00004
298.00001
298
292.03259
292.9133
290.17793
282.65114
282.28753
281.79291
282.8988
282.90482
283.6805
284.09923
284.80467
285.51989
286.37357
287.36861
288.51118
289.83904
291.34365
293.02455
294.82913
296.66703
298.40546
299.92049
301.13998
302.00673
302.49406
302.67979
302.66222
302.48378
302.20172
301.97649
301.95088
302.08211
302.54393
302.82019
302.87407
301.74203
300.08695
299.05407
298.49114
298.21413
298.08815
298.03445
298.01282
298.00454
298.00152
298.00048
298.00014
298.00004
298.00001
298
292.41533
293.33685
290.14327
282.667
282.81353
282.33688
283.44695
283.48152
284.26123
284.71613
285.44091
286.19528
287.08683
288.12829
289.32296
290.70578
292.26597
293.99365
295.82365
297.65053
299.33676
300.76842
301.88176
302.61118
302.9688
303.06336
302.96497
302.71301
302.36616
302.12156
302.09781
302.25044
302.69114
302.93383
302.89535
301.58675
299.97695
298.99425
298.46337
298.20275
298.08399
298.03311
298.01245
298.00446
298.00152
298.00049
298.00015
298.00004
298.00001
298
292.77266
293.7612
290.05177
282.78066
283.35818
282.89823
284.01161
284.07949
284.86423
285.35809
286.10545
286.90084
287.83345
288.92369
290.17213
291.6107
293.22541
294.99491
296.83995
298.64149
300.26269
301.60266
302.59263
303.17572
303.41627
303.42123
303.24363
302.91848
302.51398
302.25771
302.23865
302.41331
302.83039
303.05153
302.88636
301.42508
299.87066
298.93803
298.43761
298.19225
298.08016
298.03188
298.01212
298.0044
298.00152
298.0005
298.00015
298.00004
298.00001
298
293.1407
294.19377
289.93685
283.00346
283.92869
283.48125
284.59693
284.70211
285.49346
286.02905
286.80138
287.63968
288.61563
289.7562
291.06045
292.55554
294.22274
296.02724
297.87472
299.63616
301.18013
302.41755
303.26559
303.70204
303.83815
303.75247
303.4986
303.10017
302.64741
302.38566
302.373
302.57116
302.9615
303.16817
302.85065
301.2604
299.76898
298.88543
298.41374
298.18256
298.07664
298.03075
298.01182
298.00434
298.00152
298.00051
298.00016
298.00005
298.00001
298
293.49141
294.61633
289.80016
283.32708
284.52006
284.08783
285.20686
285.35397
286.15287
286.73156
287.53118
288.4133
289.43531
290.62834
291.98954
293.54083
295.25677
297.08708
298.92276
300.6295
302.08561
303.20345
303.8958
304.19603
304.23145
304.05739
303.72964
303.2592
302.76825
302.5074
302.50209
302.72501
303.07928
303.27466
302.79025
301.09769
299.67317
298.83658
298.39171
298.17364
298.0734
298.02972
298.01155
298.0043
298.00153
298.00052
298.00016
298.00005
298.00001
298
293.86295
295.03092
289.68223
283.75347
285.14291
284.7271
285.84717
286.03863
286.84482
287.46709
288.29605
289.22381
290.29441
291.5416
292.96121
294.56772
296.32685
298.17141
299.97972
301.61768
302.97494
303.9511
304.48173
304.66184
304.59419
304.33666
303.93771
303.39634
302.87746
302.62379
302.62561
302.87654
303.17965
303.35228
302.7115
300.94124
299.58377
298.7913
298.37135
298.16541
298.07042
298.02878
298.0113
298.00426
298.00154
298.00053
298.00017
298.00005
298.00001
298
294.22499
295.41064
289.59692
284.17837
285.7928
285.39926
286.51655
286.75403
287.56873
288.23607
289.0976
290.07309
291.1953
292.49859
293.97672
295.63577
297.43005
299.27509
301.04002
302.59593
303.83831
304.65434
305.02932
305.09609
304.92736
304.59099
304.1233
303.51327
302.97759
302.73665
302.74475
303.02174
303.26942
303.4035
302.60966
300.79568
299.50102
298.74941
298.35255
298.15783
298.06769
298.02792
298.01108
298.00423
298.00155
298.00054
298.00018
298.00005
298.00002
298.00001
294.64887
295.76642
289.58451
284.72998
286.46863
286.09997
287.21336
287.50001
288.32624
289.04062
289.93878
290.96408
292.14068
293.50124
295.03754
296.7448
298.56372
300.39343
302.09907
303.55986
304.66535
305.30846
305.5447
305.4961
305.23156
304.82164
304.28783
303.61067
303.06942
302.84601
302.86017
303.15088
303.36095
303.43583
302.48556
300.66285
299.42399
298.71049
298.33514
298.15085
298.06518
298.02713
298.01089
298.00421
298.00156
298.00055
298.00018
298.00006
298.00002
298.00001
295.08284
296.05117
289.63187
285.4041
287.16732
286.83164
287.94018
288.28143
289.12028
289.88468
290.82238
291.9003
293.13301
294.55145
296.14393
297.89264
299.72297
301.52048
303.15104
304.50215
305.44668
305.91754
306.02574
305.86235
305.50811
305.02928
304.43167
303.69235
303.156
302.95061
302.97253
303.26595
303.45471
303.45843
302.34561
300.53754
299.35173
298.6743
298.31906
298.14442
298.06289
298.02642
298.01072
298.0042
298.00158
298.00057
298.00019
298.00006
298.00002
298.00001
295.56754
296.27342
289.78207
286.0656
287.8975
287.59915
288.7019
289.10038
289.95544
290.77099
291.7526
292.88365
294.17444
295.65094
297.29618
299.07693
300.90311
302.6509
304.19096
305.41069
306.17627
306.48754
306.46948
306.19525
305.75798
305.21473
304.55421
303.76103
303.23696
303.04902
303.08112
303.37019
303.54763
303.45617
302.19551
300.41716
299.28356
298.6406
298.30419
298.13851
298.06079
298.02578
298.01058
298.00419
298.0016
298.00058
298.0002
298.00007
298.00002
298.00001
296.10782
296.42935
290.02763
286.77996
288.65735
288.40469
289.50161
289.96079
290.83493
291.70328
292.73108
293.91777
295.26759
296.80079
298.49286
300.29326
302.09775
303.7782
305.21236
306.27422
306.85309
307.02117
306.87447
306.49643
305.98246
305.378
304.65462
303.82212
303.31321
303.1427
303.18686
303.46691
303.64072
303.43095
302.03818
300.30132
299.21936
298.6093
298.2905
298.1331
298.05888
298.02521
298.01045
298.00419
298.00162
298.0006
298.00021
298.00007
298.00002
298.00001
296.70403
296.53294
290.36919
287.5516
289.45172
289.2539
290.34407
290.86607
291.7625
292.68412
293.76197
295.00477
296.4143
298.00171
299.73198
301.53678
303.3007
304.89588
306.20354
307.08417
307.48303
307.51412
307.2414
306.76683
306.18235
305.51989
304.73566
303.87501
303.38365
303.23173
303.29064
303.55478
303.73329
303.3875
301.87607
300.1902
299.15902
298.58028
298.2779
298.12815
298.05714
298.0247
298.01035
298.0042
298.00165
298.00062
298.00022
298.00007
298.00003
298.00001
297.35378
296.5728
290.81236
288.37908
290.28396
290.14949
291.23145
291.81836
292.74075
293.71692
294.84745
296.14842
297.61673
299.25306
301.00954
302.80081
304.50472
305.99674
307.15158
307.83512
308.07348
307.96308
307.57187
307.00867
306.35934
305.64137
304.79988
303.92274
303.45028
303.31721
303.39368
303.633
303.8173
303.32807
301.71176
300.08458
299.10272
298.55353
298.26635
298.12363
298.05557
298.02424
298.01027
298.00422
298.00167
298.00064
298.00023
298.00008
298.00003
298.00001
298.08941
296.5311
291.36295
289.26075
291.15561
291.09356
292.16666
292.82045
293.77341
294.80563
295.99216
297.35132
298.87596
300.55316
302.32057
304.07838
305.70217
307.07096
308.04419
308.53196
308.61899
308.36888
307.86697
307.22324
306.51541
305.74576
304.84795
303.9651
303.51282
303.39827
303.49669
303.70023
303.88026
303.2607
301.54753
299.98499
299.05048
298.52893
298.25579
298.11951
298.05415
298.02384
298.01021
298.00424
298.0017
298.00066
298.00024
298.00009
298.00003
298.00001
298.92099
296.44708
292.01754
290.19634
292.06871
292.08786
293.15475
293.87598
294.86545
295.95498
297.19983
298.61651
300.19201
301.89827
303.6581
305.36134
306.88448
308.10366
308.87413
309.18194
309.11663
308.73278
308.12912
307.41313
306.65283
305.83653
304.88052
304.00421
303.57238
303.47461
303.59373
303.76905
303.92161
303.18117
301.38757
299.89246
299.00244
298.50644
298.24616
298.11577
298.05288
298.0235
298.01016
298.00427
298.00174
298.00068
298.00025
298.00009
298.00003
298.00001
299.85955
296.35977
292.76915
291.19118
293.02852
293.1385
294.2009
294.99175
296.02251
297.17069
298.47409
299.94513
301.56311
303.28304
305.01425
306.64085
308.04171
309.08032
309.64196
309.78329
309.56503
309.05601
308.35975
307.57978
306.77249
305.91444
304.89762
304.0402
303.62878
303.54543
303.685
303.83676
303.95304
303.09032
301.23573
299.80749
298.95851
298.4859
298.23738
298.11238
298.05173
298.02321
298.01014
298.00431
298.00178
298.0007
298.00027
298.0001
298.00004
298.00002
300.88981
296.2763
293.61698
292.24748
294.04192
294.25191
295.31332
296.17424
297.25086
298.4569
299.81763
301.3374
302.98547
304.69996
306.37973
307.90662
309.15882
309.99088
310.35451
310.3321
309.96596
309.3411
308.562
307.72612
306.87424
305.96875
304.90476
304.07496
303.6835
303.61178
303.77285
303.90832
303.97319
302.98496
301.09742
299.73035
298.91846
298.46715
298.22938
298.10931
298.05072
298.02296
298.01014
298.00436
298.00182
298.00073
298.00028
298.0001
298.00004
298.00002
301.99188
296.1948
294.57265
293.37605
295.11931
295.43482
296.50011
297.42966
298.55517
299.81762
301.23144
302.79099
304.45304
306.14013
307.74407
309.14715
310.21905
310.83138
311.01401
310.82528
310.3204
309.58988
308.73768
307.85419
306.96156
306.00152
304.90542
304.10802
303.73717
303.67437
303.85476
303.98247
303.97656
302.86662
300.9731
299.65982
298.8818
298.45001
298.2221
298.10655
298.04984
298.02277
298.01015
298.00441
298.00186
298.00076
298.0003
298.00011
298.00004
298.00002
303.1763
296.14635
295.61791
294.58317
296.26856
296.69341
297.76801
298.76296
299.93893
301.25449
302.71505
304.30187
305.95779
307.59274
309.09537
310.34762
311.20917
311.60784
311.61549
311.26478
310.63132
309.80573
308.89013
307.96629
307.03638
306.02053
304.90217
304.14113
303.79164
303.73421
303.92872
304.0576
303.96275
302.74203
300.8582
299.59474
298.84814
298.43432
298.21549
298.10408
298.04908
298.02263
298.0102
298.00448
298.00191
298.00079
298.00031
298.00012
298.00005
298.00002
304.43485
296.18978
296.74588
295.87645
297.49997
298.03254
299.12246
300.17832
301.40415
302.76846
304.26609
305.86328
307.48939
309.04559
310.41966
311.4886
312.12153
312.32564
312.15411
311.65176
310.90054
309.99054
309.02085
308.06284
307.09623
306.02483
304.89549
304.17354
303.84744
303.79065
303.99348
304.1314
303.9389
302.61487
300.75067
299.53428
298.81715
298.41998
298.2095
298.10189
298.04844
298.02254
298.01026
298.00455
298.00197
298.00082
298.00033
298.00013
298.00005
298.00003
305.70533
296.42576
297.94669
297.25265
298.82153
299.45273
300.56624
301.67923
302.95284
304.35882
305.87987
307.46615
309.03517
310.48434
311.7012
312.55398
312.96118
312.97834
312.63226
311.9893
311.13194
310.14811
309.13289
308.14489
307.13783
306.01708
304.88763
304.20657
303.90369
303.84458
304.04869
304.20314
303.90609
302.48715
300.64992
299.47808
298.78867
298.40692
298.20412
298.09997
298.04792
298.0225
298.01034
298.00464
298.00202
298.00085
298.00035
298.00014
298.00006
298.00003
306.88045
296.94128
299.24326
298.71809
300.23189
300.95803
302.1017
303.27028
304.58668
306.02364
307.54947
309.09802
310.58031
311.89176
312.91752
313.53388
313.73444
313.56024
313.05103
312.27983
311.32788
310.28043
309.22773
308.21501
307.16938
305.99804
304.87908
304.23887
303.95804
303.89828
304.09316
304.27374
303.86824
302.35952
300.55583
299.42584
298.76256
298.39507
298.19932
298.09831
298.0475
298.0225
298.01044
298.00474
298.00209
298.00089
298.00037
298.00015
298.00007
298.00003
307.80559
297.93675
300.62011
300.27441
301.74407
302.56271
303.74299
304.95456
306.3067
307.75829
309.26258
310.74294
312.10697
313.24972
314.05011
314.43237
314.4336
314.07404
313.41401
312.52767
311.4926
310.39152
309.30873
308.27602
307.19344
305.96921
304.87175
304.27054
304.01058
303.94991
304.13221
304.33457
303.82681
302.23296
300.4684
299.37753
298.73874
298.38442
298.1951
298.09692
298.04721
298.02257
298.01057
298.00484
298.00216
298.00093
298.00039
298.00016
298.00007
298.00004
308.55393
299.32024
302.12779
301.94588
303.36285