/*--------------------------------*- C++ -*----------------------------------*\
  =========                 |
  \\      /  F ield         | OpenFOAM: The Open Source CFD Toolbox
   \\    /   O peration     | Website:  https://openfoam.org
    \\  /    A nd           | Version:  8
     \\/     M anipulation  |
\*---------------------------------------------------------------------------*/
FoamFile
{
    version     2.0;
    format      ascii;
    class       volVectorField;
    location    "0.0099963";
    object      U;
}
// * * * * * * * * * * * * * * * * * * * * * * * * * * * * * * * * * * * * * //

dimensions      [0 1 -1 0 0 0 0];

internalField   nonuniform List<vector> 
20000
(
(217.98186 1.5945677e-16 -4.6155311)
(251.83178 -2.267122e-16 -4.9256871)
(273.66361 -2.3110191e-20 -5.4696639)
(292.48653 7.7675721e-17 -5.9245382)
(309.97506 0 -6.3983879)
(325.90351 7.0394657e-21 -6.8733406)
(336.73635 -7.6190847e-19 -7.5076908)
(339.53364 -1.291833e-18 -7.3063518)
(338.50237 -6.8795521e-17 -7.7631115)
(338.88894 1.1435147e-16 -7.2061084)
(338.13538 -4.6189216e-17 -7.9102695)
(338.09022 3.9801385e-17 -7.2356708)
(337.34712 -3.308144e-17 -7.9834261)
(336.94354 -3.4482938e-18 -7.3962344)
(336.12125 -2.2830623e-17 -8.0418585)
(335.36369 1.9074742e-17 -7.6471432)
(334.29716 -2.4840927e-19 -8.1365757)
(333.1144 -2.6113106e-17 -7.9545039)
(331.64058 1.675477e-17 -8.312065)
(329.91362 9.7054072e-18 -8.3038607)
(327.85994 3.7992539e-17 -8.5780699)
(325.44798 -2.4945322e-17 -8.6763609)
(322.64542 -1.2945145e-18 -8.8881732)
(319.41148 -3.3305609e-17 -8.9980177)
(315.74837 1.3983157e-17 -9.0963946)
(311.65588 -2.3313442e-17 -9.0709769)
(307.18915 1.8747503e-17 -8.9115658)
(302.43555 1.9215816e-18 -8.5372487)
(297.53611 1.5558784e-18 -7.9331608)
(292.63413 2.0218325e-17 -7.1064862)
(287.94959 -4.8159876e-17 -6.0558385)
(283.59259 -3.8094583e-19 -4.9382725)
(279.14494 9.6369561e-19 -3.9801323)
(275.32127 -4.6856943e-17 -2.9196008)
(272.80408 2.2654941e-17 -1.728991)
(268.84437 -5.4279866e-17 -2.2115953)
(262.84681 3.0307946e-19 -4.0507515)
(259.16998 6.3785299e-17 -4.8995462)
(258.40461 -3.2301511e-17 -4.0462926)
(259.71757 9.4823179e-17 -2.3298811)
(260.75662 -1.3979533e-16 -0.94224615)
(261.14603 2.0098415e-19 -0.28781196)
(261.26475 -1.8663371e-17 -0.038178572)
(261.2929 1.3988407e-17 0.042192176)
(261.29889 0 0.064710659)
(261.2998 1.5348838e-17 0.070245207)
(261.29997 -2.3140438e-17 0.071437177)
(261.3 8.6851564e-18 0.071660115)
(261.3 0 0.071695143)
(261.3 0 0.071699549)
(217.41745 0 -5.4523309)
(251.63271 4.5448202e-19 -5.9133075)
(273.77128 9.3601595e-17 -6.5488171)
(292.84525 2.9072987e-20 -7.0821875)
(310.53701 -6.8427987e-17 -7.626074)
(326.60047 1.8402192e-18 -8.1610546)
(336.92433 1.0023e-16 -8.8368704)
(339.48213 -1.6589119e-16 -8.5909789)
(338.36973 7.001163e-17 -9.1137668)
(338.78559 0 -8.5086924)
(337.98767 -4.713717e-17 -9.2862259)
(337.94219 4.0419412e-17 -8.5596888)
(337.18093 0 -9.3664141)
(336.76109 3.5085423e-18 -8.7388002)
(335.90948 0 -9.421898)
(335.12285 0 -9.0062179)
(334.0201 0 -9.5150322)
(332.79413 0 -9.3266161)
(331.27036 3.9257538e-17 -9.6921098)
(329.483 -2.7792027e-17 -9.6840744)
(327.35982 2.327256e-17 -9.958867)
(324.86747 -2.539364e-17 -10.054954)
(321.97406 0 -10.257868)
(318.64143 2.6664362e-20 -10.352403)
(314.87398 1.4670165e-17 -10.422364)
(310.68023 2.3854346e-17 -10.353989)
(306.12502 -5.7779999e-17 -10.130759)
(301.30884 -1.551829e-17 -9.6725222)
(296.37754 -1.2725987e-16 -8.9681747)
(291.49075 2.0201731e-17 -8.0265625)
(286.86439 -3.2759922e-17 -6.8537863)
(282.5229 2.5549498e-17 -5.6475568)
(278.16628 1.8248418e-16 -4.5886782)
(274.61682 2.0491568e-16 -3.3698202)
(272.09473 1.4565118e-16 -2.1291954)
(267.61188 2.0513669e-16 -2.7339189)
(261.87075 -2.8045093e-17 -4.491687)
(259.00509 -1.7165104e-16 -5.1152462)
(258.35183 2.5640509e-16 -4.0706321)
(259.76991 -9.4883803e-17 -2.2864675)
(260.73241 -1.3998266e-16 -0.92083836)
(261.12851 0 -0.28306533)
(261.25555 3.2259485e-16 -0.037795758)
(261.28983 2.0958856e-16 0.041991355)
(261.29788 0 0.064600544)
(261.2996 0 0.070213942)
(261.29994 2.2782662e-17 0.071431413)
(261.29999 -3.434529e-17 0.07165933)
(261.3 1.3149025e-17 0.071695076)
(261.3 -8.182612e-17 0.071699546)
(217.05627 -1.3047627e-18 -6.310654)
(251.68735 1.1766844e-16 -6.9355925)
(274.0906 -2.8652656e-16 -7.6647763)
(293.38605 3.242795e-16 -8.2900135)
(311.2506 -1.396724e-16 -8.9190201)
(327.41801 -1.8746621e-18 -9.5335885)
(337.09182 0 -10.25324)
(339.37638 -2.6625093e-18 -9.9560576)
(338.19217 -7.1378764e-17 -10.524732)
(338.627 1.1863753e-16 -9.8580293)
(337.78993 -5.2544333e-17 -10.694108)
(337.73278 0 -9.9151257)
(336.96124 -4.2982282e-17 -10.772407)
(336.52444 -8.7860962e-20 -10.108242)
(335.6441 -8.6720374e-20 -10.822238)
(334.82719 1.9773394e-17 -10.390546)
(333.68777 0 -10.914515)
(332.41674 0 -10.723516)
(330.84156 -3.4255806e-17 -11.094298)
(328.99112 -1.910168e-17 -11.088138)
(326.79589 1.5617323e-17 -11.361495)
(324.21926 0 -11.454949)
(321.23134 -2.1437352e-17 -11.646247)
(317.79548 1.7809188e-17 -11.722261)
(313.92017 -2.9422832e-17 -11.758577)
(309.62235 -4.8234109e-17 -11.640154)
(304.97831 9.7585738e-17 -11.344049)
(300.10144 0 -10.792181)
(295.14528 1.0288817e-16 -9.9775776)
(290.28323 1.661024e-16 -8.9121546)
(285.71609 -3.3244605e-17 -7.6173787)
(281.40535 -3.8051309e-19 -6.3213265)
(277.17868 -1.4329323e-16 -5.1490931)
(273.87133 1.279052e-16 -3.7798377)
(271.28837 -3.920094e-16 -2.554713)
(266.38401 -1.499619e-16 -3.2471884)
(261.11013 -2.2958721e-16 -4.8527163)
(258.78172 -1.5140878e-16 -5.2703688)
(258.29463 -5.3158322e-16 -4.0718942)
(259.77902 3.8099975e-16 -2.223758)
(260.7165 2.4575215e-16 -0.88981805)
(261.11612 -3.873318e-16 -0.27269814)
(261.24926 -3.037238e-16 -0.035220303)
(261.28763 -2.5119835e-16 0.042500075)
(261.29734 2.0555486e-17 0.064681604)
(261.29949 -1.5191829e-17 0.07022422)
(261.29992 -3.502935e-16 0.071432675)
(261.29999 0 0.071659463)
(261.3 0 0.071695089)
(261.3 -8.3088799e-17 0.071699547)
(216.65115 1.3300361e-18 -7.1791155)
(251.66301 2.4007006e-16 -7.9660241)
(274.33484 -3.898316e-16 -8.7921832)
(293.85495 1.6545378e-16 -9.5072713)
(311.88782 0 -10.219647)
(328.16191 0 -10.908884)
(337.14925 3.2268886e-18 -11.65995)
(339.15138 2.7088016e-18 -11.313501)
(337.96609 0 -11.940603)
(338.41122 0 -11.214701)
(337.5457 0 -12.117931)
(337.48724 -1.0491272e-17 -11.284804)
(336.68487 8.7346557e-18 -12.195798)
(336.23099 0 -11.495689)
(335.32127 4.8578091e-17 -12.241632)
(334.47299 -2.0060857e-17 -11.794349)
(333.29562 -1.6803653e-17 -12.333234)
(331.97781 0 -12.140082)
(330.34923 2.328405e-17 -12.515401)
(328.4333 3.8634963e-17 -12.510974)
(326.16328 -3.1996421e-17 -12.781682)
(323.49917 0 -12.871078)
(320.41364 4.3689243e-17 -13.048221)
(316.87151 1.818244e-17 -13.102152)
(312.88658 4.4840127e-17 -13.099886)
(308.48467 9.7774956e-17 -12.924953)
(303.7549 1.7991245e-16 -12.54855)
(298.82344 -1.6045711e-17 -11.89569)
(293.85272 2.6401309e-17 -10.963864)
(289.02614 -2.0042333e-17 -9.770233)
(284.52289 3.3728182e-17 -8.355384)
(280.26115 -2.3852621e-16 -6.9676115)
(276.18042 2.083841e-17 -5.6750287)
(273.09406 -3.0555343e-16 -4.1693623)
(270.42244 5.9411753e-16 -2.9890386)
(265.23989 -2.8556381e-16 -3.7376905)
(260.41486 2.598479e-16 -5.2008742)
(258.46548 3.2576654e-16 -5.4043843)
(258.23958 2.9125752e-16 -4.0664543)
(259.77586 -4.3031963e-16 -2.1622411)
(260.70294 5.8070972e-16 -0.86025931)
(261.10619 4.396145e-16 -0.26210751)
(261.24517 -3.7974855e-17 -0.032346923)
(261.2863 4.5981831e-16 0.043167264)
(261.29699 -2.0483964e-17 0.064817353)
(261.29942 3.8522849e-22 0.070248591)
(261.29991 3.6979853e-16 0.071436637)
(261.29999 0 0.071660011)
(261.3 0 0.071695148)
(261.3 1.5745809e-16 0.071699552)
(216.28194 0 -8.0598783)
(251.66939 -2.1761681e-21 -9.0024535)
(274.60557 -1.9883488e-16 -9.9334792)
(294.34188 1.6879009e-16 -10.742076)
(312.52544 -1.4546692e-16 -11.543177)
(328.88673 -9.3091291e-20 -12.310937)
(337.13164 -3.3821063e-18 -13.08997)
(338.90546 8.2727775e-17 -12.695768)
(337.68904 0 -13.384629)
(338.14484 0 -12.595453)
(337.24747 6.4160251e-17 -13.565123)
(337.18406 -8.5371992e-17 -12.674602)
(336.35474 -9.8050597e-20 -13.637603)
(335.8821 -9.7064852e-20 -12.902221)
(334.94201 -4.9511767e-17 -13.678907)
(334.06046 -1.0169778e-19 -13.217697)
(332.84344 1.7068161e-17 -13.770125)
(331.47653 2.8445796e-17 -13.576171)
(329.79206 4.7283121e-17 -13.954798)
(327.80768 -3.9154864e-17 -13.952272)
(325.45945 3.2469207e-17 -14.218804)
(322.70423 0 -14.302695)
(319.51739 8.9251322e-17 -14.462787)
(315.86581 0 -14.490691)
(311.76925 -6.0358297e-17 -14.44426)
(307.26349 -1.2401948e-16 -14.205577)
(302.45146 -1.6211469e-16 -13.740518)
(297.4724 1.4846492e-16 -12.978331)
(292.49802 -2.6821987e-17 -11.921712)
(287.71806 2.199388e-17 -10.595492)
(283.28658 2.72556e-16 -9.061823)
(279.09276 -9.2774148e-19 -7.5803077)
(275.17241 0 -6.16367)
(272.27728 2.6080125e-16 -4.5374267)
(269.50206 -8.0017408e-16 -3.4238464)
(264.19007 2.6731813e-16 -4.2075611)
(259.7793 2.8819789e-17 -5.5109)
(258.07407 0 -5.5096043)
(258.18712 0 -4.0463709)
(259.76667 -2.3922166e-17 -2.0969077)
(260.69287 -1.6753014e-15 -0.8289834)
(261.09783 -4.4006291e-16 -0.25032729)
(261.24164 6.2623356e-16 -0.028840169)
(261.28519 -4.450369e-16 0.044044443)
(261.2967 6.5306998e-16 0.065011457)
(261.29936 -1.5018345e-17 0.07028649)
(261.2999 1.1110206e-17 0.071443153)
(261.29999 5.4690686e-16 0.071660978)
(261.3 -1.2512378e-17 0.071695261)
(261.3 -3.1017534e-16 0.071699562)
(215.90767 0 -8.9646549)
(251.66065 1.9639666e-18 -10.060199)
(274.86041 0 -11.104997)
(294.81347 1.695826e-16 -12.009197)
(313.1369 -1.4830639e-16 -12.900812)
(329.56127 0 -13.743491)
(337.02123 1.0041875e-16 -14.540353)
(338.61924 -8.421716e-17 -14.094265)
(337.35848 0 -14.846462)
(337.82486 6.258539e-17 -13.991502)
(336.89658 -6.5162132e-17 -15.029244)
(336.82837 -1.805572e-20 -14.081228)
(335.97028 0 -15.096659)
(335.47737 0 -14.326826)
(334.50561 -2.5231572e-17 -15.133294)
(333.58869 4.1635212e-17 -14.659805)
(332.33003 0 -15.224443)
(330.91143 -5.7880884e-17 -15.030644)
(329.16817 -7.2175475e-17 -15.411267)
(327.11203 -3.9958067e-17 -15.410645)
(324.68181 0 -15.671399)
(321.83162 0 -15.748034)
(318.53964 -9.0466514e-17 -15.887881)
(314.77551 -1.310883e-16 -15.885366)
(310.56569 -1.5250615e-17 -15.788703)
(305.95714 0 -15.478538)
(301.06752 -1.6534622e-16 -14.916159)
(296.04932 -9.9860704e-17 -14.036256)
(291.08313 4.6090242e-19 -12.847716)
(286.36154 -2.1628396e-16 -11.385447)
(282.01169 -2.5801735e-16 -9.7342635)
(277.90412 1.8963671e-16 -8.1573773)
(274.1535 2.1101394e-17 -6.6162331)
(271.41989 -7.5689282e-16 -4.8862233)
(268.53623 3.7814066e-16 -3.8504083)
(263.21461 0 -4.6528912)
(259.17731 2.9421686e-17 -5.7883404)
(257.6828 -2.1906266e-17 -5.5872292)
(258.13971 5.2250784e-16 -4.0094668)
(259.75838 0 -2.0291229)
(260.68633 1.1308524e-15 -0.79659643)
(261.09247 4.1447873e-16 -0.23783775)
(261.23894 -6.2579382e-16 -0.024880112)
(261.28424 1.3879775e-17 0.045111197)
(261.29643 -1.3008891e-15 0.065261256)
(261.2993 -1.4925746e-17 0.070338084)
(261.29988 1.1012349e-17 0.071452485)
(261.29998 -5.2388806e-16 0.071662424)
(261.3 6.1527299e-18 0.071695439)
(261.3 2.9613889e-16 0.071699576)
(215.54959 2.8228567e-18 -9.8777182)
(251.65975 2.56435e-16 -11.127818)
(275.11941 6.5832148e-20 -12.289037)
(295.2866 -1.7288391e-16 -13.291769)
(313.73715 -1.5133163e-16 -14.27927)
(330.18469 1.331962e-16 -15.195131)
(336.82297 6.8092142e-18 -16.004065)
(338.27849 -9.1520973e-17 -15.505175)
(336.97822 7.6456289e-17 -16.324123)
(337.45423 7.9593061e-18 -15.402001)
(336.49417 -6.6422102e-17 -16.510449)
(336.41954 5.5159444e-17 -15.504588)
(335.53195 0 -16.57241)
(335.01683 0 -15.769566)
(334.01187 2.5567981e-17 -16.604502)
(333.05724 -2.1378235e-17 -16.120314)
(331.75477 -2.0516894e-19 -16.695489)
(330.28165 -2.0272283e-19 -16.502952)
(328.47644 7.3163502e-17 -16.884163)
(326.3449 4.0527908e-17 -16.885231)
(323.82865 0 -17.138321)
(320.87944 -8.3710361e-17 -17.205569)
(317.47844 -2.288762e-17 -17.321557)
(313.59879 1.5183567e-16 -17.283705)
(309.27452 0 -17.13014)
(304.56512 0 -16.740163)
(299.60385 1.8833723e-16 -16.071367)
(294.55646 2.562293e-16 -15.065215)
(289.61137 0 -13.737967)
(284.96074 0 -12.136853)
(280.70385 -3.1536527e-16 -10.369547)
(276.70036 -3.558195e-19 -8.6964317)
(273.12673 3.8749294e-16 -7.0332618)
(270.5254 5.4772622e-16 -5.2160455)
(267.53254 -2.5353719e-17 -4.2616762)
(262.29941 0 -5.0704463)
(258.60951 4.7299568e-16 -6.0204051)
(257.3021 0 -5.6305982)
(258.09459 -5.2452415e-16 -3.9545219)
(259.75255 -2.4059151e-17 -1.9584954)
(260.68394 5.8400394e-16 -0.76297287)
(261.09032 -8.0330315e-16 -0.22479759)
(261.23767 -1.8956411e-17 -0.020644909)
(261.28373 2.7680489e-17 0.046301384)
(261.29628 6.2738854e-16 0.065553487)
(261.29927 0 0.070401039)
(261.29988 2.1825234e-17 0.071464245)
(261.29998 -3.233938e-17 0.071664273)
(261.3 3.9934427e-16 0.071695667)
(261.3 0 0.071699596)
(215.19497 -2.8728317e-18 -10.804665)
(251.65665 2.0438072e-18 -12.215651)
(275.37368 0 -13.4993)
(295.75523 -5.6035157e-18 -14.603508)
(314.32536 -1.4949473e-16 -15.691688)
(330.74124 1.273626e-16 -16.673324)
(336.53691 0 -17.487213)
(337.88884 1.1642956e-17 -16.932159)
(336.54815 0 -17.81988)
(337.03253 -8.0810864e-18 -16.828024)
(336.03975 1.3485541e-17 -18.0088)
(335.95711 -4.4992107e-17 -16.945316)
(335.03879 -1.8865423e-17 -18.065102)
(334.49948 -6.2579293e-17 -17.230512)
(333.45987 7.7969169e-17 -18.092099)
(332.46524 -4.3124411e-17 -17.598833)
(331.11667 3.6090721e-17 -18.182712)
(329.58599 -5.9833368e-17 -17.992307)
(327.71535 -8.1817739e-20 -18.372532)
(325.50452 6.2190461e-17 -18.374898)
(322.89801 6.8630193e-17 -18.618206)
(319.84562 1.4178066e-16 -18.673564)
(316.33165 3.4069646e-19 -18.761664)
(312.33367 -1.9187552e-17 -18.682994)
(307.89422 1.2771694e-16 -18.465214)
(303.08688 2.6323679e-17 -17.986475)
(298.06126 -1.9203575e-16 -17.201823)
(292.996 -2.5847197e-16 -16.060928)
(288.08592 -1.3810747e-17 -14.588718)
(283.51942 -3.354925e-16 -12.846719)
(279.36752 8.3303944e-16 -10.964877)
(275.48477 0 -9.1955578)
(272.09361 -3.4713712e-16 -7.4157061)
(269.59917 -3.3724556e-17 -5.5272619)
(266.49674 2.5579499e-17 -4.6519662)
(261.43045 0 -5.4550234)
(258.07323 -4.7505323e-16 -6.2237697)
(256.94384 7.3380576e-16 -5.6464655)
(258.05289 -1.6500057e-17 -3.882365)
(259.75132 7.7351246e-16 -1.8849649)
(260.68569 -5.6697437e-16 -0.72828326)
(261.09084 3.8888395e-20 -0.2113666)
(261.23771 -1.1918494e-15 -0.016251225)
(261.28372 1.3796471e-17 0.047550906)
(261.29628 6.4462026e-16 0.065863817)
(261.29927 -3.5637584e-22 0.07046839)
(261.29988 -1.0811296e-17 0.071476837)
(261.29998 0 0.071666234)
(261.3 -3.8080063e-16 0.071695905)
(261.3 5.7518568e-16 0.071699615)
(214.85843 2.9322657e-18 -11.741432)
(251.66227 -2.0793877e-18 -13.314006)
(275.63025 -3.3632734e-18 -14.722935)
(296.22396 5.7038088e-18 -15.930907)
(314.90835 -1.6223537e-16 -17.126902)
(331.20681 1.4216236e-16 -18.165099)
(336.16159 -1.1309667e-16 -18.984954)
(337.44788 8.2774645e-17 -18.37333)
(336.06693 0 -19.333356)
(336.5583 1.6468566e-17 -18.270124)
(335.53191 -5.4970359e-17 -19.525034)
(335.43983 9.13949e-17 -18.403688)
(334.49003 5.8920482e-20 -19.574278)
(333.92473 1.2698838e-16 -18.709301)
(332.84908 -5.2724148e-17 -19.595399)
(331.81202 0 -19.094764)
(330.41484 -6.0240675e-20 -19.685453)
(328.82329 3.0315006e-17 -19.498252)
(326.88349 7.5894104e-17 -19.875811)
(324.58937 -8.363512e-17 -19.87871)
(321.88827 8.7818283e-17 -20.109759)
(318.72845 -2.8655589e-17 -20.150275)
(315.09758 2.1536455e-16 -20.205968)
(310.97863 -3.934852e-17 -20.080353)
(306.42393 -1.1314086e-16 -19.790336)
(301.52265 -1.8621887e-16 -19.213254)
(296.44145 1.7313397e-16 -18.303016)
(291.37107 -1.739169e-17 -17.019027)
(286.51091 0 -15.396237)
(282.04229 3.6113424e-16 -13.51213)
(278.0076 -5.7269172e-16 -11.517663)
(274.26102 -2.8339728e-17 -9.6530798)
(271.05696 7.4820647e-16 -7.7645809)
(268.64911 -5.2602797e-16 -5.8206391)
(265.43477 -2.579891e-17 -5.0167724)
(260.59828 1.9922891e-17 -5.8022569)
(257.57674 9.1274256e-16 -6.3971418)
(256.60732 8.8229898e-19 -5.6394474)
(258.01973 1.656323e-17 -3.7938093)
(259.75616 -7.7513749e-16 -1.8086287)
(260.69152 1.1347558e-15 -0.69273783)
(261.09359 1.6577808e-15 -0.19770457)
(261.2387 1.2087282e-15 -0.011789034)
(261.28404 8.804422e-16 0.048821341)
(261.29638 -6.6147819e-16 0.066179449)
(261.29929 9.5071411e-16 0.070536646)
(261.29989 0 0.071489476)
(261.29999 1.0089903e-15 0.071668168)
(261.3 0 0.071696134)
(261.3 -2.5359487e-26 0.071699633)
(214.51986 -2.9821825e-18 -12.695297)
(251.6629 -4.246588e-18 -14.437025)
(275.87696 3.4229734e-18 -15.976211)
(296.68176 -1.8632278e-16 -17.289837)
(315.47884 1.6025791e-16 -18.599829)
(331.59848 -8.5025993e-18 -19.680376)
(335.69433 1.0794048e-16 -20.504892)
(336.95378 -9.6201122e-17 -19.834005)
(335.53311 0 -20.867037)
(336.03065 -8.3675438e-17 -19.728906)
(334.97041 5.5764697e-17 -21.058126)
(334.86758 0 -19.878686)
(333.88552 -3.8737172e-17 -21.098748)
(333.29226 8.4578336e-20 -20.205335)
(332.17897 0 -21.113785)
(331.09678 4.4785777e-17 -20.6078)
(329.64816 -7.4485528e-17 -21.203351)
(327.99223 3.0823357e-17 -21.020092)
(325.97943 2.583183e-17 -21.393016)
(323.59796 -2.1241506e-17 -21.395406)
(320.79783 -1.4140919e-16 -21.611466)
(317.52619 1.1766691e-16 -21.633784)
(313.77445 -1.9362389e-16 -21.652056)
(309.53219 -2.0177142e-17 -21.472683)
(304.86293 -2.1472779e-16 -21.101644)
(299.87299 1.8852552e-16 -20.416019)
(294.74651 0 -19.370268)
(289.68517 0 -17.935147)
(284.89085 0 -16.156948)
(280.53417 2.3079474e-17 -14.130437)
(276.6287 -6.0088394e-16 -12.025642)
(273.03235 4.2884903e-16 -10.067441)
(270.01949 -6.6475761e-16 -8.0807038)
(267.68366 5.6375577e-16 -6.0981545)
(264.35294 -8.3929817e-16 -5.3533051)
(259.79287 -1.9374201e-15 -6.1112148)
(257.11658 -9.612007e-16 -6.5444003)
(256.29567 -2.1528986e-15 -5.6102396)
(257.99984 -1.0584244e-15 -3.6899968)
(259.76797 0 -1.7299209)
(260.70111 -1.1354218e-15 -0.65661455)
(261.09811 -8.2831715e-16 -0.18395896)
(261.24039 1.2062381e-15 -0.0073280428)
(261.28458 -9.0475717e-16 0.050083845)
(261.29653 -1.2561879e-15 0.066490913)
(261.29933 -4.867859e-22 0.070603329)
(261.29989 1.35729e-15 0.071501644)
(261.29999 -9.9606218e-16 0.071669993)
(261.3 0 0.071696344)
(261.3 -5.4594076e-16 0.071699649)
(214.19018 -3.891631e-16 -13.658994)
(251.672 2.809516e-16 -15.57135)
(276.12325 8.2890763e-20 -17.243251)
(297.13468 -1.8388823e-16 -18.662378)
(316.04329 0 -20.093494)
(331.9068 -1.3855183e-16 -21.20463)
(335.16112 2.4153555e-16 -22.033884)
(336.40854 -9.7804699e-17 -21.305223)
(334.94834 0 -22.415822)
(335.45073 -1.7024594e-17 -21.201376)
(334.35596 -5.6820121e-17 -22.60665)
(334.24054 4.716756e-17 -21.370108)
(333.22514 -5.9229796e-17 -22.638215)
(332.60165 3.2691553e-17 -21.718496)
(331.44885 0 -22.646977)
(330.31852 -4.5394445e-17 -22.137649)
(328.81546 3.7959157e-17 -22.735946)
(327.09161 -6.2918777e-17 -22.557298)
(325.00196 -2.3996862e-19 -22.923414)
(322.529 1.0864663e-16 -22.923865)
(319.62521 3.624291e-17 -23.121891)
(316.23718 -2.9025726e-17 -23.122167)
(312.36061 0 -23.097395)
(307.99308 0 -22.85666)
(303.21088 2.670577e-16 -22.395002)
(298.13904 0 -21.590048)
(292.97921 -3.8148035e-16 -20.398771)
(287.94259 3.0872213e-16 -18.804936)
(283.23089 -4.9705747e-16 -16.867429)
(279.00042 2.3071158e-17 -14.699239)
(275.23564 1.5645261e-17 -12.486925)
(271.80206 -4.7505668e-16 -10.437335)
(268.98401 0 -8.3643482)
(266.71162 1.1064428e-15 -6.3625241)
(263.26218 8.4309133e-16 -5.6611138)
(259.0043 1.9047007e-15 -6.3804491)
(256.68608 4.528729e-17 -6.6621298)
(256.03971 1.4174142e-15 -5.5620221)
(257.99571 -3.2725185e-17 -3.5723364)
(259.78694 -1.5297816e-15 -1.649411)
(260.71404 -3.544381e-17 -0.62021253)
(261.10401 1.6806531e-15 -0.17026701)
(261.24256 -1.2034021e-15 -0.0029241575)
(261.28526 2.7309895e-17 0.051318767)
(261.29671 1.2690468e-15 0.066792398)
(261.29937 -9.3665778e-16 0.070667022)
(261.2999 -1.3298554e-22 0.071513063)
(261.29999 0 0.071671665)
(261.3 0 0.07169653)
(261.3 -4.2055926e-18 0.071699662)
(213.85679 3.961798e-16 -14.635295)
(251.6851 -4.4067462e-18 -16.723056)
(276.36543 2.2786741e-16 -18.53289)
(297.57803 -5.9365055e-18 -20.059395)
(316.59845 -1.5591451e-16 -21.621845)
(332.12476 -8.8113705e-18 -22.749146)
(334.58659 1.3414234e-16 -23.582346)
(335.81246 -9.941859e-17 -22.792776)
(334.31231 -8.3218631e-17 -23.984136)
(334.818 1.036235e-16 -22.690343)
(333.68802 -2.8879959e-17 -24.171641)
(333.55826 -4.8080734e-17 -22.878526)
(332.50842 8.0040458e-17 -24.192478)
(331.85222 0 -23.248779)
(330.65779 0 -24.194839)
(329.4762 4.6295712e-17 -23.684215)
(327.91565 7.7056997e-17 -24.282767)
(326.12043 0 -24.108916)
(323.95004 0 -24.465799)
(321.38127 -2.1801175e-17 -24.462714)
(318.36885 -9.1830759e-17 -24.639454)
(314.85964 -1.2062156e-16 -24.613348)
(310.85435 -2.487846e-17 -24.539243)
(306.36014 0 -24.228682)
(301.4678 2.5605275e-16 -23.66597)
(296.32243 1.3795855e-17 -22.730373)
(291.14296 3.622956e-16 -21.383615)
(286.14815 -3.11895e-16 -19.624128)
(281.53661 4.8630825e-16 -17.524515)
(277.44657 0 -15.216509)
(273.83325 -2.876408e-18 -12.900056)
(270.57344 0 -10.761751)
(267.95322 0 -8.6151862)
(265.74086 -1.1121447e-15 -6.6159394)
(262.18145 1.6797728e-15 -5.9424162)
(258.22204 -1.2954959e-15 -6.596279)
(256.25942 1.5101281e-17 -6.7629336)
(255.81793 -1.4232296e-15 -5.4981679)
(258.00822 2.1090941e-15 -3.442834)
(259.81279 1.5316106e-15 -1.5677438)
(260.72983 5.3224978e-17 -0.58383024)
(261.11095 -5.1772956e-17 -0.15674934)
(261.24504 1.8762273e-17 0.0013788971)
(261.28602 0 0.052512199)
(261.29691 -1.9712608e-17 0.067080172)
(261.29942 9.2933136e-16 0.070726906)
(261.29991 -1.3508397e-15 0.071523593)
(261.29999 1.516047e-17 0.071673168)
(261.3 7.2303972e-16 0.071696692)
(261.3 5.1851099e-16 0.071699673)
(213.53087 -3.9694591e-16 -15.629515)
(251.69835 5.7806709e-16 -17.898326)
(276.60493 -2.39347e-16 -19.851107)
(298.0115 0 -21.484838)
(317.14428 1.5890733e-16 -23.187916)
(332.24215 -1.2516311e-16 -24.313059)
(333.94362 -1.3638886e-16 -25.149248)
(335.16374 8.8370148e-17 -24.294148)
(333.62408 1.0571531e-16 -25.569843)
(334.13192 -1.5802763e-16 -24.194286)
(332.96634 8.7807225e-17 -25.751401)
(332.82034 0 -24.403425)
(331.73475 4.0886826e-17 -25.761293)
(331.04303 -3.3658668e-17 -24.796424)
(329.80481 -5.1319384e-20 -25.757234)
(328.56891 -6.9267292e-20 -25.247044)
(326.94801 -7.8030923e-17 -25.843057)
(325.07795 -3.2516597e-17 -25.674124)
(322.82274 -5.404623e-17 -26.019363)
(320.15341 -6.7259146e-17 -26.010851)
(317.02705 3.3540877e-16 -26.162688)
(313.39171 -2.781185e-16 -26.105207)
(309.25404 0 -25.974673)
(304.63248 3.3777703e-16 -25.584861)
(299.63414 -2.7592066e-16 -24.909804)
(294.42544 -4.5489072e-16 -23.831815)
(289.24181 0 -22.319836)
(284.30717 -5.9931413e-16 -20.388563)
(279.814 0 -18.125282)
(275.87845 -7.6591578e-16 -15.680538)
(272.42652 6.0148383e-16 -13.263995)
(269.34984 -2.9587483e-17 -11.040114)
(266.92927 7.5520891e-16 -8.8324824)
(264.77733 -3.5321606e-17 -6.8587499)
(261.1352 -1.6589701e-15 -6.2022122)
(257.44262 2.5614614e-15 -6.7802019)
(255.78956 1.517771e-17 -6.8322385)
(255.6404 1.4492352e-15 -5.4196938)
(258.03682 -2.1289245e-15 -3.3039244)
(259.84498 0 -1.4855656)
(260.74798 1.1698053e-15 -0.54775011)
(261.11863 -2.5919582e-17 -0.14351106)
(261.24772 0 0.0055469143)
(261.28681 0 0.053654654)
(261.29711 0 0.067352022)
(261.29946 -9.0763747e-16 0.070782562)
(261.29992 -1.3162204e-15 0.071533176)
(261.29999 9.5742255e-16 0.071674498)
(261.3 -6.9996588e-16 0.071696828)
(261.3 -5.074493e-16 0.071699682)
(213.194 -1.282123e-17 -16.634848)
(251.70397 -2.9197737e-16 -19.088579)
(276.83603 2.3643632e-16 -21.190688)
(298.43149 0 -22.932369)
(317.67531 0 -24.786285)
(332.2554 2.4356675e-20 -25.889121)
(333.24331 -1.5424942e-17 -26.731355)
(334.46424 1.1561901e-16 -25.806264)
(332.88474 -1.0719066e-16 -27.171638)
(333.39309 0 -25.713015)
(332.19078 0 -27.34618)
(332.02607 0 -25.9454)
(330.90314 0 -27.345023)
(330.17317 -6.8841321e-17 -26.361528)
(328.88926 2.5600155e-19 -27.333747)
(327.59631 -1.4322852e-16 -26.825523)
(325.91221 3.9871497e-17 -27.416003)
(323.96365 6.6238577e-17 -27.251889)
(321.61893 -1.3745243e-16 -27.582999)
(318.84374 0 -27.566976)
(315.59778 -1.891236e-16 -27.689908)
(311.83135 3.1288853e-16 -27.595347)
(307.55804 1.8243408e-16 -27.400436)
(302.8094 2.2836207e-18 -26.920967)
(297.71082 0 -26.121447)
(292.45098 4.5902744e-16 -24.889011)
(287.28047 0 -23.202492)
(282.4256 5.851793e-16 -21.094305)
(278.06939 1.507046e-17 -18.667161)
(274.30204 7.7147895e-16 -16.090051)
(271.0206 -1.9141581e-17 -13.578186)
(268.13469 1.4811845e-17 -11.272368)
(265.91385 -7.3645277e-16 -9.0154486)
(263.82418 0 -7.0884007)
(260.13843 -8.6551552e-16 -6.4462035)
(256.67795 -1.3064097e-15 -6.9263953)
(255.30748 0 -6.8569991)
(255.5007 0 -5.3238138)
(258.08039 1.0990129e-15 -3.1579856)
(259.88281 1.5560391e-15 -1.4035033)
(260.76805 -1.1512225e-15 -0.51223124)
(261.12683 -1.6461086e-15 -0.13064076)
(261.2505 1.1924041e-15 0.0095541367)
(261.28762 0 0.054739979)
(261.29731 1.2263319e-15 0.06760678)
(261.2995 2.8127285e-17 0.07083384)
(261.29992 1.2920825e-15 0.071541807)
(261.29999 -9.4462098e-16 0.071675656)
(261.3 1.0753226e-17 0.071696941)
(261.3 -7.8842826e-18 0.071699688)
(212.87108 4.3050445e-16 -17.654602)
(251.71515 -2.9694817e-16 -20.295735)
(277.07321 -2.0611051e-20 -22.551446)
(298.84955 -6.4068937e-18 -24.401532)
(318.19088 0 -26.415035)
(332.16661 1.2931351e-16 -27.476174)
(332.48799 1.5803071e-17 -28.331057)
(333.71398 -9.1205267e-17 -27.32966)
(332.09375 -6.5453429e-17 -28.790365)
(332.60026 7.2425461e-17 -27.248605)
(331.36004 -3.0298487e-17 -28.957037)
(331.17418 0 -27.505482)
(330.01286 0 -28.943519)
(329.2424 3.4909442e-17 -27.943658)
(327.91132 -5.8363138e-17 -28.923393)
(326.55864 4.8266386e-17 -28.418706)
(324.80815 -4.0211262e-17 -29.000899)
(322.77675 -1.3462746e-16 -28.841712)
(320.33702 1.1138783e-16 -29.156263)
(317.45019 0 -29.130046)
(314.0788 1.5435624e-16 -29.219412)
(310.17645 -3.2121543e-17 -29.081187)
(305.7648 -3.9571179e-16 -28.812974)
(300.89055 -3.6866134e-16 -28.232402)
(295.69934 -3.4198017e-19 -27.295522)
(290.40268 -1.5019765e-17 -25.896449)
(285.26433 2.3551933e-17 -24.026687)
(280.50987 6.1699414e-16 -21.737643)
(276.30942 0 -19.147923)
(272.7235 -2.4585921e-17 -16.44414)
(269.62087 -1.9033914e-19 -13.842517)
(266.93165 -9.4947846e-16 -11.458977)
(264.9077 0 -9.1636)
(262.88087 0 -7.3006449)
(259.19183 8.9550294e-16 -6.6754765)
(255.95118 -2.039284e-17 -7.0383357)
(254.79653 0 -6.826184)
(255.40243 -2.2621463e-17 -5.206588)
(258.13733 1.6781301e-17 -3.006558)
(259.92553 -3.1119792e-15 -1.3221309)
(260.7896 0 -0.47750389)
(261.13533 1.6419427e-15 -0.11821172)
(261.25331 -2.375975e-15 0.013381644)
(261.28841 0 0.055764446)
(261.29751 -1.2374196e-15 0.067843979)
(261.29954 2.7885328e-17 0.070880749)
(261.29993 1.2680507e-15 0.07154951)
(261.29999 -1.4560532e-17 0.071676651)
(261.3 1.0572494e-17 0.071697031)
(261.3 0 0.071699691)
(212.54786 -6.6249369e-18 -18.694071)
(251.72203 0 -21.528659)
(277.31083 2.4515353e-16 -23.94427)
(299.26304 -1.953248e-16 -25.9031)
(318.67259 1.7831264e-16 -28.076735)
(331.95976 -1.4988448e-16 -29.077388)
(331.67661 -1.5931059e-17 -29.958084)
(332.91027 -1.3228019e-17 -28.869663)
(331.24881 -2.2107489e-17 -30.42805)
(331.75177 0 -28.802487)
(330.47332 -3.0865554e-17 -30.583999)
(330.26468 5.107339e-17 -29.082988)
(329.06462 0 -30.555387)
(328.25169 7.1185118e-17 -29.54161)
(326.87176 5.9059177e-17 -30.525191)
(325.45606 9.8346601e-17 -30.026077)
(323.63497 8.2201267e-17 -30.597482)
(321.51541 -6.4864314e-19 -30.443169)
(318.97473 0 -30.738371)
(315.97028 -1.890446e-16 -30.698669)
(312.46762 9.3462152e-19 -30.749143)
(308.42482 -3.2655425e-17 -30.559771)
(303.87291 2.4019648e-16 -30.208324)
(298.87599 0 -29.514178)
(293.60185 2.9169126e-16 -28.426369)
(288.28494 4.7710368e-16 -26.848548)
(283.19947 0 -24.787705)
(278.56691 -6.0208837e-16 -22.315216)
(274.54097 4.5393056e-16 -19.565773)
(271.14902 2.4605994e-17 -16.742334)
(268.23281 -6.4426225e-16 -14.057357)
(265.74452 9.8479353e-16 -11.601043)
(263.91093 -2.350877e-17 -9.27723)
(261.94426 -1.1325079e-15 -7.4912946)
(258.28885 0 -6.8876975)
(255.27537 -1.3020266e-15 -7.1274834)
(254.29065 -1.5367344e-17 -6.7507611)
(255.34851 0 -5.0675963)
(258.20591 0 -2.8506529)
(259.97241 1.5309587e-15 -1.2419533)
(260.81223 1.7701251e-17 -0.44376843)
(261.14398 -1.6630124e-15 -0.10628189)
(261.25609 1.2016861e-15 0.017016777)
(261.28918 0 0.056726357)
(261.29769 0 0.068063684)
(261.29958 2.7638791e-17 0.070923414)
(261.29994 -1.4797161e-22 0.071556329)
(261.29999 -1.8527417e-15 0.071677491)
(261.3 0 0.071697099)
(261.3 0 0.071699693)
(212.21535 4.3189944e-16 -19.745753)
(251.7211 1.2014009e-19 -22.77778)
(277.54544 -2.4941752e-16 -25.36081)
(299.66907 -6.6190694e-18 -27.432855)
(319.10503 -1.1336216e-17 -29.768324)
(331.6177 -9.5587016e-18 -30.685088)
(330.80832 -5.203886e-20 -31.606489)
(332.05235 1.0772551e-16 -30.425225)
(330.35004 -1.7988867e-16 -32.082742)
(330.84872 7.4704885e-17 -30.372375)
(329.53238 0 -32.224584)
(329.29961 -5.2065185e-17 -30.675996)
(328.06027 0 -32.179134)
(327.20214 2.8432282e-19 -31.154686)
(325.7706 6.0284856e-17 -32.138958)
(324.28735 -1.0008599e-16 -31.647753)
(322.39053 -8.3467574e-17 -32.206089)
(320.17716 1.7280126e-16 -32.056089)
(317.52939 0 -32.328646)
(314.40131 1.6691998e-16 -32.271373)
(310.76171 -1.3876313e-16 -32.276849)
(306.57432 2.6437589e-16 -32.027844)
(301.88117 2.1868157e-16 -31.582122)
(296.76624 3.6075963e-16 -30.76088)
(291.42122 -3.1278531e-16 -29.508046)
(286.10286 -4.6605102e-16 -27.73968)
(281.09257 2.4684043e-17 -25.481017)
(276.60393 6.1491626e-16 -22.824013)
(272.77093 5.4190999e-16 -19.919322)
(269.58477 -2.4901124e-17 -16.984536)
(266.86207 1.8708905e-15 -14.223526)
(264.57737 -9.6708182e-16 -11.700269)
(262.92307 2.3691162e-17 -9.3572335)
(261.00841 -1.21629e-15 -7.6568225)
(257.4221 5.4920023e-17 -7.0801429)
(254.65836 1.2838499e-15 -7.1885607)