/*--------------------------------*- C++ -*----------------------------------*\
  =========                 |
  \\      /  F ield         | OpenFOAM: The Open Source CFD Toolbox
   \\    /   O peration     | Website:  https://openfoam.org
    \\  /    A nd           | Version:  8
     \\/     M anipulation  |
\*---------------------------------------------------------------------------*/
FoamFile
{
    version     2.0;
    format      ascii;
    class       volVectorField;
    location    "0.0099963";
    object      wallShearStress;
}
// * * * * * * * * * * * * * * * * * * * * * * * * * * * * * * * * * * * * * //

dimensions      [1 -1 -2 0 0 0 0];

internalField   uniform (0 0 0);

boundaryField
{
    aerofoil
    {
        type            calculated;
        value           nonuniform List<vector> 
300
(
(-144.27973 -1.0554743e-16 3.9889298)
(-143.54383 4.8018939e-23 4.5281128)
(-143.50627 8.8147511e-19 5.1000858)
(-143.40399 -8.8046676e-19 5.6795892)
(-143.34722 -4.9321253e-20 6.2705867)
(-143.30856 3.5207826e-22 6.8823546)
(-143.27433 -1.8914599e-18 7.500554)
(-143.27158 1.8737925e-18 8.1325192)
(-143.27311 -1.9558204e-18 8.772707)
(-143.31264 1.9928681e-18 9.429662)
(-143.3315 2.6038467e-16 10.092714)
(-143.37828 -2.6568347e-16 10.770403)
(-143.43113 2.6673891e-16 11.462007)
(-143.50005 8.6077584e-18 12.167062)
(-143.56547 -2.9047875e-16 12.883961)
(-143.65334 4.5021185e-18 13.618745)
(-143.73185 -2.9250638e-16 14.36559)
(-143.81708 -4.7213334e-18 15.129439)
(-143.89054 -3.1339187e-20 15.905344)
(-143.97949 3.1456423e-16 16.701146)
(-144.07916 -5.7777898e-34 17.518021)
(-144.18545 1.9972211e-19 18.354701)
(-144.29236 2.8750316e-19 19.211231)
(-144.3833 5.2259252e-18 20.083263)
(-144.47819 -5.3018289e-18 20.980843)
(-144.571 -5.4234957e-18 21.901733)
(-144.66563 -3.4736016e-16 22.842492)
(-144.76778 -3.593902e-16 23.816255)
(-144.84406 -3.7743068e-16 24.811621)
(-144.91334 1.1615631e-17 25.839698)
(-144.93908 -2.5563689e-21 26.888188)
(-144.92371 5.3467125e-33 27.969092)
(-144.85896 -1.0977801e-32 29.078658)
(-144.76253 4.009955e-16 30.224211)
(-144.6531 1.2792207e-17 31.417175)
(-144.54544 -1.2352354e-17 32.659518)
(-144.44084 0 33.952918)
(-144.35898 1.155558e-33 35.310056)
(-144.30217 4.5353855e-16 36.737722)
(-144.2804 5.9856719e-19 38.246212)
(-144.28888 -1.4846048e-17 39.843443)
(-144.29943 1.8881748e-20 41.535333)
(-144.26297 1.3044971e-17 43.310224)
(-144.15043 4.6864329e-16 45.169951)
(-143.89709 -1.5434947e-17 47.111355)
(-143.54088 1.7668572e-17 49.1731)
(-143.04545 5.0874135e-16 51.349672)
(-142.41735 -5.4099784e-16 53.668233)
(-141.67763 1.3457836e-17 56.115918)
(-140.80163 -3.8518599e-33 58.685373)
(-139.61873 -5.3555132e-16 61.360789)
(-138.05448 -1.8633808e-17 64.147029)
(-135.98894 5.7556547e-16 67.032193)
(-133.35321 -6.8235637e-18 70.049066)
(-130.12001 1.1113095e-17 73.257266)
(-126.2731 1.7906113e-19 76.706353)
(-121.86101 1.9170392e-17 80.487992)
(-117.0936 -9.1634408e-18 84.662115)
(-112.38515 6.1398559e-16 88.950785)
(-108.57869 -6.5256575e-16 93.244617)
(-105.17146 1.424626e-17 97.380673)
(-101.42834 0 101.04193)
(-96.715831 6.8636681e-16 103.9988)
(-90.743807 -1.4001917e-15 105.83829)
(-83.423298 -1.5172265e-19 106.19857)
(-74.574374 1.1431583e-17 104.6068)
(-64.361058 -1.1215032e-17 100.6077)
(-53.166992 -7.35158e-16 93.84791)
(-41.539313 -7.4687317e-16 83.960869)
(-30.105859 -1.090907e-18 70.70072)
(-19.472672 1.1005007e-17 54.367607)
(-10.118896 -3.3928317e-16 35.538326)
(-4.9335541 3.013917e-16 17.116922)
(-2.0581947 9.5133657e-20 5.6745193)
(-0.82490185 -1.8055593e-35 -0.10837841)
(-182.35924 -2.5351646e-15 -22.807542)
(-205.28933 -1.2039688e-15 -24.364871)
(-208.05894 1.205922e-15 -24.259424)
(-208.79723 -1.2020778e-15 -23.985419)
(-208.65385 5.7340022e-26 -23.620548)
(-208.14931 -5.7373566e-19 -23.220739)
(-207.29534 1.469881e-19 -22.795295)
(-206.17142 -1.4101152e-22 -22.35192)
(-204.75649 1.1842241e-15 -21.887654)
(-203.03269 6.896372e-19 -21.404479)
(-201.03036 -1.1765445e-15 -20.900728)
(-198.84738 -1.1674693e-15 -20.388215)
(-196.62838 -1.7385954e-25 -19.882814)
(-194.38599 1.1541471e-15 -19.385856)
(-192.15216 1.0935017e-21 -18.895388)
(-189.92921 -5.4446199e-22 -18.415391)
(-187.70173 1.0675068e-19 -17.943892)
(-185.45639 1.0497255e-19 -17.47845)
(-183.22549 -2.2366929e-15 -17.019354)
(-181.00691 1.1114535e-15 -16.5671)
(-178.80155 1.3146111e-22 -16.124646)
(-176.6071 -1.0979899e-15 -15.689748)
(-174.42991 -1.091133e-15 -15.264613)
(-172.26722 -1.0834831e-15 -14.846171)
(-170.11629 -2.1541644e-15 -14.43621)
(-167.96957 1.0698804e-15 -14.033018)
(-165.85769 1.0625685e-15 -13.639564)
(-163.75254 8.5509477e-26 -13.251666)
(-161.6826 1.5189673e-32 -12.872987)
(-159.73858 5.8901893e-21 -12.506235)
(-157.89067 -5.1612641e-16 -12.147448)
(-156.11827 1.8417563e-26 -11.799254)
(-154.42568 -9.8126328e-27 -11.456842)
(-152.76582 -4.2805418e-19 -11.119529)
(-151.08494 4.0171817e-21 -10.784338)
(-149.35392 1.7754922e-27 -10.448992)
(-147.50893 9.8233672e-16 -10.110781)
(-145.56486 4.8675527e-16 -9.7718814)
(-143.54967 9.6483746e-16 -9.4343166)
(-141.49267 -3.5649051e-19 -9.1042959)
(-139.59298 -2.1113526e-20 -8.7793197)
(-137.74882 2.4594485e-20 -8.4856035)
(-136.64674 -4.6313929e-16 -8.2185607)
(-136.0108 1.0393116e-21 -7.9812606)
(-136.34174 4.5281675e-16 -7.7649853)
(-137.18109 4.475012e-16 -7.5842633)
(-138.84027 1.3443476e-19 -7.4178618)
(-140.91274 5.6380606e-20 -7.2536199)
(-143.17792 5.4832945e-20 -7.0997538)
(-145.53725 1.4479607e-19 -6.9111893)
(-147.40526 -4.9828623e-20 -6.7062365)
(-149.00377 4.2318043e-16 -6.4647823)
(-150.04516 -4.1938314e-16 -6.2163773)
(-150.91358 4.1750079e-16 -5.9210503)
(-151.20749 9.1050386e-26 -5.6101116)
(-151.29101 -1.6843781e-19 -5.2782877)
(-151.0885 -8.6036327e-21 -4.9404376)
(-150.90954 -8.945691e-26 -4.5784993)
(-150.49755 -1.7912567e-19 -4.2077535)
(-150.06737 -2.0288273e-16 -3.8259197)
(-149.56109 4.0434835e-16 -3.4347617)
(-149.09145 3.0763778e-21 -3.0326605)
(-148.58733 2.0071737e-16 -2.6209081)
(-148.11206 4.002708e-16 -2.1999871)
(-147.64829 -8.1382347e-20 -1.7727782)
(-147.2255 9.9557371e-17 -1.3416327)
(-146.80439 8.4517001e-20 -0.90372963)
(-146.4017 -4.9530004e-17 -0.43942325)
(-146.00555 -4.9447084e-17 0.095703786)
(-145.62432 2.4678532e-17 0.61416936)
(-145.23665 -1.5349562e-18 1.1598554)
(-144.84297 -2.4661029e-17 1.7299291)
(-144.46343 -4.9289001e-17 2.2924187)
(-144.12677 -1.9711802e-16 2.839213)
(-144.4749 9.8739398e-17 3.4196991)
(-144.38294 -1.0205236e-16 2.9448745)
(-147.18071 -5.2760505e-17 2.4226374)
(-149.35112 -1.6107396e-21 1.7822568)
(-151.51232 -2.7656382e-17 1.1547265)
(-153.65117 -2.6773047e-20 0.486198)
(-155.77208 -9.0808308e-19 -0.221878)
(-157.85526 -2.9781478e-17 -0.91032828)
(-159.90632 5.9040728e-17 -1.596304)
(-161.90012 6.2426776e-17 -2.3231933)
(-163.84579 1.2978496e-16 -3.0858543)
(-165.72979 -2.6344462e-16 -3.8760903)
(-167.57664 2.1756229e-18 -4.6987611)
(-169.38036 2.8970585e-20 -5.553008)
(-171.13482 1.3939559e-16 -6.4385546)
(-172.83336 1.5532557e-19 -7.3536635)
(-174.46296 1.5026616e-16 -8.3006035)
(-176.00799 -9.2862267e-18 -9.2796459)
(-177.47457 4.7316205e-18 -10.295926)
(-178.85788 -2.3668822e-19 -11.340539)
(-180.18299 4.9392474e-18 -12.421324)
(-181.46476 -3.3207002e-16 -13.542063)
(-182.69762 -6.5212271e-16 -14.699648)
(-183.90075 -1.8421716e-19 -15.898918)
(-185.08152 3.4184317e-16 -17.139233)
(-186.27089 5.4607888e-18 -18.432806)
(-187.47436 3.4992681e-16 -19.779316)
(-188.69452 3.5085302e-16 -21.176923)
(-189.95729 2.2943801e-17 -22.640963)
(-191.20921 -2.3525203e-17 -24.163228)
(-192.49516 3.9529791e-16 -25.773853)
(-193.77327 3.9024803e-16 -27.471184)
(-195.0385 3.9741365e-16 -29.248203)
(-196.28053 -4.8148249e-35 -31.103381)
(-197.49371 4.1181763e-16 -33.055772)
(-198.68826 3.2137525e-20 -35.107855)
(-199.85597 1.2078275e-17 -37.262705)
(-200.99502 -4.4773538e-16 -39.516778)
(-202.12885 3.8518599e-34 -41.875936)
(-203.26067 1.9506294e-18 -44.337105)
(-204.37437 -4.5894136e-16 -46.904647)
(-205.38797 -4.6322111e-16 -49.567324)
(-206.29552 -4.72798e-16 -52.33207)
(-207.0191 -4.7510634e-16 -55.199269)
(-207.56212 6.4057696e-20 -58.200079)
(-207.85835 -4.9441109e-16 -61.312024)
(-207.83258 -1.5739971e-17 -64.518602)
(-207.37986 1.0379829e-15 -67.831492)
(-206.54224 -6.1629758e-33 -71.276447)
(-205.28158 -1.0448669e-15 -74.850019)
(-203.55335 9.558709e-19 -78.551671)
(-201.33508 1.4444475e-34 -82.400026)
(-198.59171 -1.6066277e-17 -86.39922)
(-195.27222 -5.2329068e-18 -90.549706)
(-191.36563 4.374197e-18 -94.868116)
(-186.84734 6.4993795e-18 -99.349919)
(-181.72468 -1.9041554e-19 -103.9907)
(-176.04767 1.8598796e-17 -108.75161)
(-169.98887 -6.1391417e-16 -113.52544)
(-163.78461 2.8791026e-18 -118.1409)
(-157.46476 2.7120644e-18 -122.53917)
(-150.74451 -1.9746108e-17 -126.61296)
(-143.2943 -1.1724352e-17 -130.15822)
(-134.8322 2.0272084e-17 -132.77977)
(-125.27285 -1.0709042e-17 -134.33753)
(-114.54326 6.917231e-16 -134.68486)
(-102.67629 1.6993166e-17 -133.30892)
(-89.486531 -9.6296497e-35 -129.64102)
(-75.269191 4.6222319e-33 -123.34593)
(-60.405997 1.4129944e-18 -113.62361)
(-45.564063 2.7283523e-18 -100.18676)
(-31.559741 -3.6057708e-16 -82.992634)
(-19.124436 7.1533134e-16 -62.748132)
(-9.8425759 -1.7274868e-16 -40.4321)
(-4.6649441 -2.7102009e-18 -19.354577)
(-2.0436907 3.2351004e-17 -6.5762317)
(0.26278658 1.3602265e-19 0.35784516)
(-0.61577555 4.0976707e-16 0.10586199)
(-0.6624302 2.0581088e-16 0.11851163)
(-1.0386505 2.2540723e-16 0.1785985)
(-1.407664 -3.9506795e-27 0.23635296)
(-1.9200542 5.616918e-21 0.31649037)
(-2.5115794 -1.2699475e-20 0.40735865)
(-3.1861716 1.4222176e-22 0.5093809)
(-3.9258359 -1.5013624e-22 0.61944554)
(-4.7301883 -1.1672302e-20 0.73452577)
(-5.5104009 -3.5688966e-16 0.84858605)
(-6.4300924 -3.7403529e-16 0.98164154)
(-7.4314014 3.9110928e-16 1.119644)
(-8.4902748 2.0324219e-20 1.2655274)
(-9.5878445 4.2273208e-16 1.415093)
(-10.723491 4.3699601e-16 1.5673427)
(-11.903654 -1.8276651e-20 1.7324137)
(-13.304482 -4.7890773e-21 1.9140557)
(-14.548952 -2.4052053e-26 2.0623218)
(-15.804234 4.7252422e-16 2.2179747)
(-17.071241 4.8309298e-16 2.3726487)
(-18.344867 -4.9311804e-16 2.5248581)
(-19.624823 5.0261196e-16 2.6748391)
(-20.914085 -1.0233891e-15 2.8221062)
(-22.213983 -5.2038164e-16 2.9676213)
(-23.523856 0 3.1097776)
(-24.828474 5.3738956e-16 3.2470538)
(-26.10316 5.4650565e-16 3.3637977)
(-27.066474 2.1979634e-24 3.4560378)
(-28.349145 -1.7057835e-20 3.5984311)
(-29.63777 5.9937246e-20 3.7223041)
(-30.920931 -5.6697458e-22 3.8412893)
(-32.210468 -5.7066355e-22 3.9571856)
(-33.501323 -6.0583292e-16 4.0688984)
(-34.799202 -6.1179923e-16 4.1776332)
(-36.101191 -2.495279e-20 4.2820947)
(-37.41099 1.1853162e-21 4.3845154)
(-38.741151 1.2545498e-15 4.4869908)
(-40.123042 -1.2038593e-21 4.608656)
(-41.774486 6.1494054e-16 4.7299016)
(-42.979563 -6.1840698e-16 4.7773747)
(-44.040106 4.3176497e-20 4.8263473)
(-44.933623 -6.2472101e-16 4.8562268)
(-45.621148 2.3908014e-21 4.8608859)
(-46.119143 6.2762112e-16 4.8481157)
(-46.488207 -6.2779699e-16 4.8172103)
(-46.930266 -1.2539769e-15 4.7987878)
(-47.65854 6.2673685e-16 4.7917152)
(-49.09467 4.2358877e-20 4.8620726)
(-51.620002 6.2963801e-16 5.0126497)
(-55.42995 -2.2301336e-20 5.269243)
(-60.610273 3.2078721e-16 5.6155565)
(-66.784881 3.2507439e-16 6.0172571)
(-73.590378 3.2898587e-16 6.4503632)
(-80.414626 3.3316685e-16 6.830787)
(-86.83356 -3.3622354e-16 7.1850941)
(-92.65444 5.0218364e-20 7.4237764)
(-97.569082 -3.420232e-16 7.5936697)
(-101.83885 -3.4485411e-16 7.6682533)
(-105.48425 -3.4701408e-16 7.6960957)
(-108.72052 2.7328228e-20 7.6489697)
(-111.54935 -9.086259e-26 7.5610222)
(-114.18971 3.4068085e-20 7.4336586)
(-116.68959 -4.0440135e-21 7.2816112)
(-119.1652 7.184377e-16 7.0915268)
(-121.56412 3.611251e-16 6.8721869)
(-123.94338 -3.629391e-16 6.6230277)
(-126.29003 4.0291846e-20 6.3440086)
(-128.63778 1.8332542e-16 6.0346206)
(-130.97444 -8.3554743e-21 5.6924044)
(-133.32472 1.8527094e-16 5.3160369)
(-135.68004 1.280591e-20 4.9069156)
(-138.06222 1.8727727e-16 4.4614963)
(-140.46985 1.2882359e-20 3.9844016)
(-142.22067 1.2563684e-33 3.4586584)
)
;
    }
    inlet
    {
        type            calculated;
        value           uniform (0 0 0);
    }
    outlet
    {
        type            calculated;
        value           uniform (0 0 0);
    }
    back
    {
        type            empty;
    }
    front
    {
        type            empty;
    }
}


// ************************************************************************* //
