/*--------------------------------*- C++ -*----------------------------------*\
  =========                 |
  \\      /  F ield         | OpenFOAM: The Open Source CFD Toolbox
   \\    /   O peration     | Website:  https://openfoam.org
    \\  /    A nd           | Version:  8
     \\/     M anipulation  |
\*---------------------------------------------------------------------------*/
FoamFile
{
    version     2.0;
    format      ascii;
    class       volScalarField;
    location    "0.0099963";
    object      yPlus;
}
// * * * * * * * * * * * * * * * * * * * * * * * * * * * * * * * * * * * * * //

dimensions      [0 0 0 0 0 0 0];

internalField   uniform 0;

boundaryField
{
    aerofoil
    {
        type            calculated;
        value           nonuniform List<scalar> 
300
(
132.55522
131.50326
130.66165
129.82119
129.03949
128.31918
127.62758
127.00045
126.3982
125.86966
125.34459
124.87986
124.44534
124.0639
123.69762
123.38012
123.08367
122.82569
122.58124
122.3704
122.1904
122.03817
121.91489
121.80371
121.71816
121.66183
121.61072
121.59651
121.58541
121.60555
121.61143
121.6306
121.64953
121.67006
121.70676
121.77043
121.85969
121.98224
122.14097
122.34758
122.59015
122.8733
123.1683
123.48793
123.76578
124.05885
124.33843
124.6206
124.92499
125.24393
125.51056
125.71406
125.81293
125.80816
125.73237
125.61196
125.50821
125.61476
126.04025
127.15331
128.74071
130.48177
132.09768
133.32639
134.02042
133.87612
132.54235
129.6329
124.56545
116.37549
103.92271
85.307288
60.096784
35.011235
9.7397667
180.23148
178.44776
178.68209
178.48223
177.85607
177.17712
176.37814
175.50742
174.54848
173.48317
172.32644
171.11126
169.89174
168.66824
167.45959
166.26088
165.07056
163.87196
162.68287
161.50211
160.33151
159.16667
158.0118
156.86597
155.72796
154.58585
153.46011
152.33158
151.21815
150.1463
149.12405
148.13088
147.18372
146.2595
145.32651
144.38731
143.38795
142.34177
141.2602
140.10516
139.06608
137.80007
136.96306
136.11499
135.82803
135.52248
135.6186
135.87243
136.15389
136.67971
136.90892
137.18253
137.14577
137.29038
137.13896
136.98663
136.66528
136.50505
136.20338
135.94081
135.62765
135.37699
135.09868
134.84872
134.60053
134.39569
134.19401
134.01248
133.83998
133.68154
133.52943
133.37806
133.23474
133.11175
133.07831
128.77819
128.88604
128.91844
128.97148
129.03778
129.12992
129.22184
129.33418
129.44771
129.58216
129.70739
129.84732
129.99999
130.16702
130.33359
130.50349
130.66859
130.8362
130.99485
131.15314
131.32648
131.51244
131.71919
131.93849
132.19396
132.49103
132.81163
133.1909
133.58534
134.03436
134.50737
135.01031
135.52799
136.06389
136.62312
137.21396
137.82653
138.47308
139.14656
139.85975
140.57039
141.29147
141.96814
142.63667
143.25999
143.83405
144.30706
144.71276
145.05179
145.31121
145.4977
145.62332
145.68338
145.70345
145.69868
145.70458
145.74348
145.9376
146.32225
146.97782
147.80797
148.72196
149.52895
150.16352
150.55476
150.54299
149.69847
147.76832
144.00587
137.64435
127.61688
112.83011
91.754767
64.002806
37.361739
7.6250261
10.096574
10.431085
13.046633
15.164584
17.687803
20.200734
22.720543
25.183503
27.599432
29.74281
32.081592
34.433341
36.745674
38.985082
41.161988
43.299263
45.700914
47.705731
49.636199
51.499609
53.296373
55.030084
56.712908
58.347234
59.938843
61.470551
62.909028
63.94197
65.336575
66.688855
67.997727
69.273872
70.520098
71.737938
72.932604
74.100439
75.263506
76.45526
77.870609
78.825725
79.640412
80.293532
80.766794
81.029379
81.198294
81.3166
81.722991
82.49326
84.151209
86.548806
89.816854
93.504695
97.270694
100.95201
104.02643
106.93263
109.11515
111.07579
112.60871
114.03296
115.21236
116.33546
117.35165
118.41061
119.41542
120.41869
121.39477
122.3819
123.35577
124.33969
125.3216
126.31695
127.32064
128.2616
)
;
    }
    inlet
    {
        type            calculated;
        value           uniform 0;
    }
    outlet
    {
        type            calculated;
        value           uniform 0;
    }
    back
    {
        type            empty;
    }
    front
    {
        type            empty;
    }
}


// ************************************************************************* //
