/*--------------------------------*- C++ -*----------------------------------*\
  =========                 |
  \\      /  F ield         | OpenFOAM: The Open Source CFD Toolbox
   \\    /   O peration     | Website:  https://openfoam.org
    \\  /    A nd           | Version:  8
     \\/     M anipulation  |
\*---------------------------------------------------------------------------*/
FoamFile
{
    version     2.0;
    format      ascii;
    class       volScalarField;
    location    "0.140008";
    object      alphat;
}
// * * * * * * * * * * * * * * * * * * * * * * * * * * * * * * * * * * * * * //

dimensions      [1 -1 -1 0 0 0 0];

internalField   nonuniform List<scalar> 
20000
(
0.00094056494
0.0024660565
0.0034451881
0.0039591927
0.0038955894
0.0030497625
0.0010939219
7.2800565e-06
2.0621844e-09
1.9584857e-09
1.9029131e-09
1.9250534e-09
1.9039561e-09
1.9318995e-09
1.937334e-09
1.9709213e-09
1.9969976e-09
2.0432923e-09
2.0927803e-09
2.1624382e-09
2.2439118e-09
2.350697e-09
2.4805058e-09
2.6457953e-09
2.8490376e-09
3.1014505e-09
3.4076217e-09
3.7740068e-09
4.1995464e-09
4.6796825e-09
5.1982649e-09
5.7248427e-09
6.2213776e-09
6.6619069e-09
7.0366494e-09
7.3457444e-09
7.5926399e-09
7.7901572e-09
7.944852e-09
8.0676616e-09
8.1655057e-09
8.245017e-09
8.3116066e-09
8.3713521e-09
8.4200406e-09
8.4568899e-09
8.5089612e-09
8.5495544e-09
8.5765726e-09
8.6572926e-09
0.00094679148
0.0024604607
0.0034177196
0.003907184
0.0038105932
0.0029276595
0.00096202104
2.7432963e-06
2.0317124e-09
1.9783809e-09
1.9216656e-09
1.94505e-09
1.9241099e-09
1.9533566e-09
1.9594867e-09
1.9946838e-09
2.0222336e-09
2.0706703e-09
2.1225391e-09
2.1953225e-09
2.2805759e-09
2.3920669e-09
2.5275972e-09
2.6996818e-09
2.9108495e-09
3.1718021e-09
3.4861508e-09
3.8582239e-09
4.2843003e-09
4.7572418e-09
5.2613857e-09
5.770565e-09
6.2521509e-09
6.6822377e-09
7.0488463e-09
7.353081e-09
7.596948e-09
7.7925394e-09
7.946264e-09
8.068644e-09
8.1665357e-09
8.2459882e-09
8.3132731e-09
8.3733213e-09
8.4215438e-09
8.4585259e-09
8.5086247e-09
8.5518106e-09
8.5766371e-09
8.6599708e-09
0.00094844012
0.0024509668
0.0033886936
0.0038527699
0.0037239147
0.0027967624
0.00083060618
9.6609696e-07
2.020719e-09
1.9982799e-09
1.9412394e-09
1.9656962e-09
1.9450846e-09
1.9755521e-09
1.9825238e-09
2.0193319e-09
2.0484716e-09
2.0991482e-09
2.1536039e-09
2.2297639e-09
2.3191314e-09
2.4357568e-09
2.5775462e-09
2.7571257e-09
2.9770902e-09
3.2476547e-09
3.5713389e-09
3.9502062e-09
4.3777071e-09
4.8441621e-09
5.3339054e-09
5.8247236e-09
6.289171e-09
6.7058416e-09
7.0639129e-09
7.3625076e-09
7.6026495e-09
7.7958252e-09
7.9481652e-09
8.0697961e-09
8.167452e-09
8.2467548e-09
8.3144848e-09
8.3745885e-09
8.4223882e-09
8.4599987e-09
8.5139492e-09
8.5548774e-09
8.5925109e-09
8.6583315e-09
0.0009500242
0.002442179
0.0033597729
0.0037954837
0.0036360332
0.0026594694
0.00071107242
3.4101807e-07
2.022186e-09
2.0191945e-09
1.9619131e-09
1.9875187e-09
1.9673214e-09
1.9990115e-09
2.0068538e-09
2.0453023e-09
2.0760922e-09
2.1290991e-09
2.1862673e-09
2.265952e-09
2.3596105e-09
2.4815677e-09
2.6298614e-09
2.8172587e-09
3.0463834e-09
3.3269527e-09
3.6603475e-09
4.0465176e-09
4.4764288e-09
4.9382203e-09
5.4159904e-09
5.8901342e-09
6.3375828e-09
6.7400004e-09
7.0869857e-09
7.3779303e-09
7.612798e-09
7.8023864e-09
7.9525251e-09
8.0728483e-09
8.1698528e-09
8.2487687e-09
8.3167819e-09
8.376648e-09
8.4237512e-09
8.462001e-09
8.516336e-09
8.5587601e-09
8.5996864e-09
8.6583038e-09
0.00095167046
0.0024340841
0.0033322747
0.0037415539
0.0035471415
0.0025146857
0.0006021348
1.2445055e-07
2.0318328e-09
2.0412535e-09
1.9837337e-09
2.010443e-09
1.9907348e-09
2.0236265e-09
2.0324246e-09
2.0725882e-09
2.1051752e-09
2.1606805e-09
2.2207942e-09
2.3042638e-09
2.4025388e-09
2.5302167e-09
2.6855106e-09
2.8813193e-09
3.1202903e-09
3.411564e-09
3.7552659e-09
4.1491128e-09
4.5816494e-09
5.0390551e-09
5.5052476e-09
5.9629373e-09
6.3929119e-09
6.7799408e-09
7.114922e-09
7.397141e-09
7.6257858e-09
7.8110528e-09
7.958413e-09
8.0770003e-09
8.173011e-09
8.2513561e-09
8.3194327e-09
8.3788162e-09
8.4250722e-09
8.464233e-09
8.5200384e-09
8.5629936e-09
8.6089453e-09
8.6579693e-09
0.00095329002
0.0024258807
0.0033044149
0.0036871328
0.0034570954
0.0023626167
0.00050059795
4.8624503e-08
2.0468765e-09
2.0642147e-09
2.0066251e-09
2.0344481e-09
2.0153042e-09
2.0494613e-09
2.059324e-09
2.1013032e-09
2.135841e-09
2.1940169e-09
2.2572888e-09
2.3447811e-09
2.4479715e-09
2.5817362e-09
2.7444992e-09
2.9492771e-09
3.1987161e-09
3.5012694e-09
3.8556729e-09
4.2573804e-09
4.6926625e-09
5.146018e-09
5.6012752e-09
6.0430443e-09
6.4555167e-09
6.8265271e-09
7.1483118e-09
7.4206421e-09
7.6420543e-09
7.8221974e-09
7.9661642e-09
8.0825605e-09
8.1772304e-09
8.2547919e-09
8.3227222e-09
8.3814033e-09
8.4265769e-09
8.4667992e-09
8.5234554e-09
8.5677715e-09
8.6156569e-09
8.657811e-09
0.00095489478
0.0024178871
0.0032760645
0.0036318773
0.0033660511
0.0022032238
0.00040754234
2.1261477e-08
2.0655908e-09
2.0879239e-09
2.0305434e-09
2.0595032e-09
2.0410235e-09
2.0765177e-09
2.0875806e-09
2.1314958e-09
2.1681606e-09
2.2291915e-09
2.2958568e-09
2.3876397e-09
2.4960961e-09
2.6363888e-09
2.8071809e-09
3.0215866e-09
3.2822018e-09
3.5966591e-09
3.9621274e-09
4.3717075e-09
4.8094991e-09
5.2585878e-09
5.7029104e-09
6.1288655e-09
6.5237029e-09
6.878179e-09
7.1860733e-09
7.4476888e-09
7.6610896e-09
7.8354637e-09
7.9755173e-09
8.0893233e-09
8.1823419e-09
8.2589211e-09
8.3264546e-09
8.3842601e-09
8.428334e-09
8.4696619e-09
8.5273202e-09
8.5733702e-09
8.6216301e-09
8.6578489e-09
0.00095660126
0.0024097398
0.0032468964
0.0035755067
0.0032739975
0.0020369526
0.00032261002
1.0742035e-08
2.0869002e-09
2.1124726e-09
2.0555217e-09
2.0856526e-09
2.0679517e-09
2.1048697e-09
2.1172778e-09
2.1632515e-09
2.2022131e-09
2.2662781e-09
2.3365663e-09
2.4329141e-09
2.5470102e-09
2.6943022e-09
2.8737162e-09
3.0984312e-09
3.3709319e-09
3.6978612e-09
4.0746333e-09
4.491931e-09
4.93182e-09
5.3762592e-09
5.8095135e-09
6.2196901e-09
6.5968262e-09
6.9344371e-09
7.2278368e-09
7.4780375e-09
7.6827491e-09
7.8507759e-09
7.9864425e-09
8.0972862e-09
8.1883658e-09
8.2637684e-09
8.3306751e-09
8.3874107e-09
8.4304918e-09
8.4728198e-09
8.5313929e-09
8.579938e-09
8.6259266e-09
8.6584019e-09
0.00095836943
0.0024015295
0.0032167613
0.003517682
0.0031807043
0.0018649416
0.00024513802
6.3599697e-09
2.1102177e-09
2.1380295e-09
2.0816038e-09
2.1129466e-09
2.096153e-09
2.1345854e-09
2.1484815e-09
2.1966272e-09
2.2380544e-09
2.3053344e-09
2.3794926e-09
2.4807107e-09
2.6008669e-09
2.7556845e-09
2.9443694e-09
3.1801251e-09
3.4652445e-09
3.8051768e-09
4.1933834e-09
4.6180632e-09
5.0594048e-09
5.498539e-09
5.920317e-09
6.3145652e-09
6.6739013e-09
6.9944201e-09
7.2729402e-09
7.5112142e-09
7.7067057e-09
7.8679126e-09
7.9987897e-09
8.1063446e-09
8.1952285e-09
8.2692772e-09
8.3353637e-09
8.3908015e-09
8.4328966e-09
8.4762854e-09
8.5359063e-09
8.5866795e-09
8.6293866e-09
8.6590752e-09
0.00096024831
0.0023934697
0.0031863306
0.0034580074
0.0030856215
0.0016894041
0.00017438194
4.377101e-09
2.1351966e-09
2.1646231e-09
2.1088539e-09
2.1414645e-09
2.1257094e-09
2.1657326e-09
2.181245e-09
2.2316701e-09
2.2757335e-09
2.3464198e-09
2.4247104e-09
2.5311387e-09
2.65782e-09
2.8207356e-09
3.0193824e-09
3.2669449e-09
3.5654099e-09
3.9188045e-09
4.3184306e-09
4.7499723e-09
5.1919319e-09
5.6249347e-09
6.034684e-09
6.4127592e-09
6.7541959e-09
7.0574898e-09
7.3208655e-09
7.5468365e-09
7.7326923e-09
7.8866941e-09
8.0124415e-09
8.116423e-09
8.2028851e-09
8.2754183e-09
8.3404895e-09
8.3943855e-09
8.4352067e-09
8.4801333e-09
8.5410163e-09
8.593185e-09
8.6323236e-09
8.6598555e-09
0.00096237121
0.0023855439
0.0031551282
0.0033958492
0.0029877561
0.0015156743
0.00011124975
3.4165162e-09
2.1616302e-09
2.1923486e-09
2.1373751e-09
2.1712893e-09
2.1566694e-09
2.1983373e-09
2.2155925e-09
2.2684136e-09
2.3152967e-09
2.3895951e-09
2.4723166e-09
2.5843405e-09
2.7180618e-09
2.8896946e-09
3.0990401e-09
3.3592087e-09
3.6717345e-09
4.0389633e-09
4.4498354e-09
4.8875272e-09
5.3290779e-09
5.7549517e-09
6.1519781e-09
6.5135435e-09
6.8369691e-09
7.1229776e-09
7.371072e-09
7.584494e-09
7.7604121e-09
7.9069126e-09
8.027255e-09
8.1274244e-09
8.2112708e-09
8.2821405e-09
8.3459804e-09
8.3981611e-09
8.4378583e-09
8.4844441e-09
8.5469916e-09
8.5991037e-09
8.6349964e-09
8.6606504e-09
0.00096476712
0.0023779361
0.0031236158
0.0033309784
0.0028860529
0.0013468341
6.010781e-05
2.9308723e-09
2.1895943e-09
2.2213466e-09
2.1672304e-09
2.2024226e-09
2.1890193e-09
2.2323996e-09
2.2515496e-09
2.3068998e-09
2.3567984e-09
2.4349403e-09
2.522428e-09
2.640481e-09
2.7818041e-09
2.9628182e-09
3.1836459e-09
3.4572494e-09
3.7845212e-09
4.1658404e-09
4.5876008e-09
5.0305275e-09
5.4704664e-09
5.8880814e-09
6.2715974e-09
6.616262e-09
6.9215668e-09
7.190293e-09
7.4230667e-09
7.6238027e-09
7.7895806e-09
7.9283651e-09
8.0430888e-09
8.1392524e-09
8.2203234e-09
8.2893963e-09
8.3517721e-09
8.4021238e-09
8.4408976e-09
8.4893311e-09
8.5539047e-09
8.6042643e-09
8.6373893e-09
8.6614221e-09
0.00096748841
0.0023710113
0.0030925802
0.0032644174
0.002780272
0.0011842487
2.638698e-05
2.6824084e-09
2.2189611e-09
2.251481e-09
2.1982969e-09
2.2347952e-09
2.2227498e-09
2.2679507e-09
2.2891625e-09
2.3471798e-09
2.4003068e-09
2.4825538e-09
2.575196e-09
2.6997588e-09
2.8492885e-09
3.0403898e-09
3.273531e-09
3.5614149e-09
3.9040703e-09
4.299594e-09
4.7316879e-09
5.1787295e-09
5.6156918e-09
6.0238082e-09
6.3929584e-09
6.7202977e-09
7.0073811e-09
7.2588847e-09
7.4763862e-09
7.6643942e-09
7.8199186e-09
7.9508482e-09
8.059798e-09
8.151806e-09
8.2299772e-09
8.2971372e-09
8.3578388e-09
8.4062122e-09
8.4444134e-09
8.494969e-09
8.5612606e-09
8.6088782e-09
8.63954e-09
8.662142e-09
0.00097036745
0.0023642008
0.003061538
0.0032013668
0.0026681092
0.0010296976
9.4849371e-06
2.5592517e-09
2.2493676e-09
2.2826217e-09
2.2305646e-09
2.2684605e-09
2.2579315e-09
2.3050533e-09
2.3284792e-09
2.3893093e-09
2.4458996e-09
2.532569e-09
2.6307963e-09
2.7623924e-09
2.9207706e-09
3.1227218e-09
3.3690525e-09
3.6720849e-09
4.0306798e-09
4.4403592e-09
4.8820073e-09
5.3318345e-09
5.7643054e-09
6.1615989e-09
6.5154901e-09
6.8250705e-09
7.0938529e-09
7.328248e-09
7.5306007e-09
7.7059209e-09
7.8511573e-09
7.9741618e-09
8.0772385e-09
8.1649827e-09
8.2401671e-09
8.3053153e-09
8.3641542e-09
8.4103694e-09
8.4483506e-09
8.501569e-09
8.5685631e-09
8.6131126e-09
8.6414754e-09
8.6627951e-09
0.00097332748
0.002357448
0.0030300327
0.0031319915
0.0025475249
0.00088339341
2.9642272e-06
2.5061557e-09
2.2810622e-09
2.3149956e-09
2.2641843e-09
2.3035168e-09
2.2946255e-09
2.3437405e-09
2.3695407e-09
2.4333492e-09
2.4937009e-09
2.585151e-09
2.6894387e-09
2.8286221e-09
2.9965355e-09
3.2101484e-09
3.4705972e-09
3.78963e-09
4.1646232e-09
4.5882097e-09
5.0384001e-09
5.4894842e-09
5.9158214e-09
6.3009131e-09
6.638641e-09
6.9300399e-09
7.1804721e-09
7.3979269e-09
7.5853193e-09
7.7480615e-09
7.8830438e-09
7.9981139e-09
8.0952695e-09
8.1786813e-09
8.2508284e-09
8.3138761e-09
8.3706511e-09
8.414577e-09
8.4527573e-09
8.5093033e-09
8.5754575e-09
8.6170063e-09
8.643209e-09
8.6633758e-09
0.00097648026
0.002350774
0.0029995348
0.0030616864
0.0024184544
0.00074690925
8.6625553e-07
2.492226e-09
2.314092e-09
2.3486409e-09
2.2991811e-09
2.3399711e-09
2.3328307e-09
2.3840351e-09
2.4123962e-09
2.4794157e-09
2.5438642e-09
2.6404917e-09
2.7513416e-09
2.8986995e-09
3.0768881e-09
3.3030418e-09
3.5785898e-09
3.9144542e-09
4.3061674e-09
4.7431818e-09
5.2006525e-09
5.6512657e-09
6.0697162e-09
6.4411968e-09
6.7618706e-09
7.0346932e-09
7.2667661e-09
7.4675023e-09
7.6401817e-09
7.7905169e-09
7.9153388e-09
8.0225198e-09
8.1137546e-09
8.1928038e-09
8.2618885e-09
8.3227599e-09
8.3772669e-09
8.4188292e-09
8.4576656e-09
8.5181534e-09
8.5817574e-09
8.6205726e-09
8.6447706e-09
8.6638855e-09
0.00097966591
0.0023430911
0.0029648791
0.0029877573
0.0022799964
0.00062252714
2.5719888e-07
2.5004375e-09
2.3484197e-09
2.3835526e-09
2.3355362e-09
2.3778127e-09
2.3725631e-09
2.4259859e-09
2.4571555e-09
2.52765e-09
2.5965769e-09
2.6988016e-09
2.8167381e-09
2.9728998e-09
3.1621638e-09
3.4018047e-09
3.693467e-09
4.0469364e-09
4.4555195e-09
4.9052283e-09
5.3684679e-09
5.8167043e-09
6.2254366e-09
6.5818938e-09
6.8846603e-09
7.1385566e-09
7.35231e-09
7.5366005e-09
7.6948694e-09
7.8330175e-09
7.9478229e-09
8.0472065e-09
8.1325646e-09
8.2072584e-09
8.2732747e-09
8.3319047e-09
8.3839498e-09
8.4231584e-09
8.463121e-09
8.5275521e-09
8.587686e-09
8.6238625e-09
8.6461851e-09
8.6643278e-09
0.00098309915
0.0023354781
0.0029299794
0.002912936
0.0021322776
0.0005124996
8.4239827e-08
2.5213244e-09
2.3839973e-09
2.4196621e-09
2.3732266e-09
2.4170591e-09
2.4138818e-09
2.4697112e-09
2.5039753e-09
2.5782376e-09
2.652038e-09
2.760288e-09
2.8858649e-09
3.0515201e-09
3.2527357e-09
3.5068923e-09
3.8157068e-09
4.1874762e-09
4.6128644e-09
5.0742558e-09
5.5414906e-09
5.9852801e-09
6.3824014e-09
6.7224423e-09
7.0065038e-09
7.2411836e-09
7.436714e-09
7.6048884e-09
7.749094e-09
7.8753161e-09
7.9802925e-09
8.0720121e-09
8.1515756e-09
8.221958e-09
8.2849181e-09
8.341245e-09
8.3906589e-09
8.4276351e-09
8.4691912e-09
8.5370686e-09
8.5933388e-09
8.6269004e-09
8.6474614e-09
8.6647026e-09
0.00098660962
0.0023269602
0.0028932616
0.0028358382
0.001975583
0.00041025931
3.1071491e-08
2.5494152e-09
2.4207623e-09
2.4569941e-09
2.4123066e-09
2.457815e-09
2.456932e-09
2.5153815e-09
2.5530478e-09
2.6313782e-09
2.7104393e-09
2.8251628e-09
2.9589861e-09
3.1348946e-09
3.3490205e-09
3.6187829e-09
3.9457823e-09
4.3364178e-09
4.7782945e-09
5.2500609e-09
5.7192718e-09
6.1564117e-09
6.5400036e-09
6.8622835e-09
7.1269195e-09
7.342167e-09
7.519633e-09
7.6720755e-09
7.8026043e-09
7.9171937e-09
8.0125643e-09
8.0967894e-09
8.1706725e-09
8.2368212e-09
8.2967603e-09
8.3507095e-09
8.397361e-09
8.4323703e-09
8.4759778e-09
8.5464179e-09
8.5987044e-09
8.6296819e-09
8.6485878e-09
8.6650102e-09
0.00099013723
0.0023172806
0.0028540591
0.0027513259
0.001811139
0.00031725008
1.3692775e-08
2.5821733e-09
2.4588974e-09
2.4957039e-09
2.4529268e-09
2.5002467e-09
2.5018898e-09
2.5631903e-09
2.6045472e-09
2.6872511e-09
2.7719611e-09
2.8936444e-09
3.0363916e-09
3.2234004e-09
3.4514872e-09
3.7380113e-09
4.0842083e-09
4.4941075e-09
4.9518665e-09
5.4323775e-09
5.9013058e-09
6.3294765e-09
6.6976183e-09
7.0008611e-09
7.2454438e-09
7.4411304e-09
7.6007575e-09
7.7379059e-09
7.8551764e-09
7.9584534e-09
8.0444703e-09
8.1214041e-09
8.1897489e-09
8.2517704e-09
8.3087379e-09
8.3602209e-09
8.4040278e-09
8.4375004e-09
8.4836374e-09
8.5553794e-09
8.603721e-09
8.6322032e-09
8.6495551e-09
8.6652495e-09
0.00099362016
0.0023061736
0.0028125096
0.0026633239
0.0016415831
0.00023231089
7.4047835e-09
2.618014e-09
2.4984349e-09
2.5359097e-09
2.4952478e-09
2.5445399e-09
2.5489442e-09
2.6132995e-09
2.6586285e-09
2.7459996e-09
2.8367892e-09
2.9659893e-09
3.1184216e-09
3.3174671e-09
3.5606411e-09
3.8651265e-09
4.2314569e-09
4.6608032e-09
5.1335074e-09
5.6208147e-09
6.0869914e-09
6.5037941e-09
6.8546021e-09
7.1376333e-09
7.3616459e-09
7.5377384e-09
7.6798232e-09
7.8021641e-09
7.9066187e-09
7.9989255e-09
8.0758627e-09
8.1457369e-09
8.20871e-09
8.2667329e-09
8.320784e-09
8.3696976e-09
8.4106316e-09
8.4431611e-09
8.4924792e-09
8.5637237e-09
8.6083492e-09
8.6344854e-09
8.6503993e-09
8.6654115e-09
0.00099693459
0.002293258
0.0027660159
0.0025730046
0.0014691966
0.00015469398
4.8772163e-09
2.656197e-09
2.5395693e-09
2.5778335e-09
2.5394744e-09
2.5908781e-09
2.5982271e-09
2.6658326e-09
2.715402e-09
2.8077828e-09
2.9051394e-09
3.0424904e-09
3.2054652e-09
3.417568e-09
3.677054e-09
4.0007227e-09
4.3880402e-09
4.8367358e-09
5.323097e-09
5.8149211e-09
6.2756698e-09
6.6786491e-09
7.0103041e-09
7.2720785e-09
7.4751297e-09
7.6316877e-09
7.7566019e-09
7.8646628e-09
7.9567636e-09
8.0384622e-09
8.1066115e-09
8.1696814e-09
8.2274716e-09
8.2816402e-09
8.3328313e-09
8.3790586e-09
8.4171474e-09
8.4494412e-09
8.5026293e-09
8.5713226e-09
8.6125949e-09
8.6365568e-09
8.6511186e-09
8.6654605e-09
0.0010003586
0.0022800432
0.0027155144
0.0024792474
0.0012963218
8.6716409e-05
3.7693559e-09
2.6963569e-09
2.5825583e-09
2.6216291e-09
2.5857196e-09
2.6393365e-09
2.6498218e-09
2.7208699e-09
2.7749982e-09
2.8727834e-09
2.9772765e-09
3.1235112e-09
3.2979638e-09
3.524238e-09
3.8013151e-09
4.1453985e-09
4.5543727e-09
5.0220108e-09
5.5203448e-09
6.0140937e-09
6.4665705e-09
6.8532649e-09
7.1640668e-09
7.4037123e-09
7.5855535e-09
7.722715e-09
7.8309057e-09
7.9252456e-09
8.0054751e-09
8.0769408e-09
8.1366099e-09
8.1931445e-09
8.2459625e-09
8.29643e-09
8.3448127e-09
8.3882294e-09
8.4235575e-09
8.4563393e-09
8.5136522e-09
8.5782937e-09
8.6165093e-09
8.638451e-09
8.6517515e-09
8.6654393e-09
0.001003787
0.00226659
0.0026673469
0.0023797675
0.0011261651
3.7350498e-05
3.2656385e-09
2.7384816e-09
2.627337e-09
2.6673374e-09
2.6339962e-09
2.6899565e-09
2.7037768e-09
2.7785251e-09
2.8375774e-09
2.9412547e-09
3.0535224e-09
3.2094526e-09
3.3964063e-09
3.6380543e-09
3.9340893e-09
4.2997886e-09
4.7308925e-09
5.2166865e-09
5.7248939e-09
6.2176502e-09
6.6588623e-09
7.026841e-09
7.3152576e-09
7.5321011e-09
7.6926315e-09
7.8105893e-09
7.9025711e-09
7.9837763e-09
8.0526479e-09
8.1142566e-09
8.1657718e-09
8.2160444e-09
8.2641233e-09
8.3110477e-09
8.3566614e-09
8.3971506e-09
8.4298634e-09
8.4637945e-09
8.5247747e-09
8.5849865e-09
8.6201534e-09
8.6401773e-09
8.6523007e-09
8.6653909e-09
0.0010072554
0.0022518048
0.0026153312
0.0022724326
0.00096176154
1.1932979e-05
3.0426143e-09
2.7822592e-09
2.6739354e-09
2.7148474e-09
2.6843176e-09
2.7427819e-09
2.7602066e-09
2.8389535e-09
2.9033667e-09
3.0134771e-09
3.1342645e-09
3.300776e-09
3.5013356e-09
3.7596458e-09
4.0760529e-09
4.46448e-09
4.9178972e-09
5.4206297e-09
5.9361851e-09
6.4247402e-09
6.8516087e-09
7.1985639e-09
7.4632981e-09
7.6568726e-09
7.7961263e-09
7.895123e-09
7.9714555e-09
8.0401499e-09
8.098216e-09
8.1503207e-09
8.194027e-09
8.2383126e-09
8.2819058e-09
8.325449e-09
8.3683135e-09
8.4057851e-09
8.4361078e-09
8.4717707e-09
8.5358289e-09
8.5914023e-09
8.6235387e-09
8.6417285e-09
8.6527449e-09
8.6653334e-09
0.0010106195
0.0022358998
0.0025602336
0.0021569388
0.00080745436
3.0774648e-06
2.9566897e-09
2.8282209e-09
2.7220388e-09
2.7643099e-09
2.7368054e-09
2.7979698e-09
2.8192689e-09
2.9023696e-09
2.9726447e-09
3.0898136e-09
3.2199231e-09
3.3979756e-09
3.6133344e-09
3.889709e-09
4.2279523e-09
4.6401021e-09
5.1156703e-09
5.6336462e-09
6.1535746e-09
6.6344461e-09
7.0438644e-09
7.3677094e-09
7.6077253e-09
7.777711e-09
7.8957975e-09
7.9761734e-09
8.0374265e-09
8.0943052e-09
8.1421433e-09
8.1850534e-09
8.2213029e-09
8.2598958e-09
8.2992707e-09
8.3395987e-09
8.3797123e-09
8.4141237e-09
8.442399e-09
8.4802898e-09
8.5466445e-09
8.5974607e-09
8.6266376e-09
8.643091e-09
8.6530885e-09
8.6651635e-09
0.0010140269
0.0022194214
0.0025023022
0.0020369727
0.00066548557
7.2806522e-07
2.9389017e-09
2.8759118e-09
2.7721168e-09
2.8158299e-09
2.7915418e-09
2.8556765e-09
2.8811747e-09
2.9690474e-09
3.0457526e-09
3.170658e-09
3.3109694e-09
3.5015951e-09
3.7330479e-09
4.0289815e-09
4.3905167e-09
4.8271661e-09
5.3242881e-09
5.8552874e-09
6.3761821e-09
6.8456997e-09
7.234695e-09
7.5337037e-09
7.7482039e-09
7.894324e-09
7.9913368e-09
8.0536474e-09
8.1003829e-09
8.146258e-09
8.1843993e-09
8.2183917e-09
8.2475059e-09
8.2807594e-09
8.3161853e-09
8.3534668e-09
8.3908107e-09
8.4221803e-09
8.4489109e-09
8.4894864e-09
8.5568994e-09
8.6030967e-09
8.6294233e-09
8.6442472e-09
8.6533337e-09
8.6649329e-09
0.0010176551
0.0022030611
0.0024427689
0.0019069958
0.00053660514
1.8223022e-07
2.9555338e-09
2.9255809e-09
2.824106e-09
2.8695814e-09
2.8487172e-09
2.9160892e-09
2.9461987e-09
3.0393181e-09
3.1230723e-09
3.2564473e-09
3.4078966e-09
3.6122201e-09
3.8611908e-09
4.1782917e-09
4.564552e-09
5.0262047e-09
5.5437825e-09
6.0850208e-09
6.6030533e-09
7.0574448e-09
7.4233636e-09
7.6962066e-09
7.884479e-09
8.0063867e-09
8.0823449e-09
8.1274702e-09
8.1602975e-09
8.1961077e-09
8.2249088e-09
8.2503014e-09
8.2725216e-09
8.3008838e-09
8.3326218e-09
8.367022e-09
8.4015709e-09
8.4299826e-09
8.4558303e-09
8.4995824e-09
8.5662931e-09
8.608245e-09
8.6319171e-09
8.6452222e-09
8.6534577e-09
8.6646621e-09
0.0010215471
0.0021866572
0.0023892283
0.0017675986
0.00042605348
5.777905e-08
2.9896589e-09
2.9772039e-09
2.8782507e-09
2.9257871e-09
2.9084813e-09
2.9794973e-09
3.0146571e-09
3.1135548e-09
3.2050105e-09
3.3476297e-09
3.5112463e-09
3.7305059e-09
3.998548e-09
4.3384883e-09
4.7507832e-09
5.2375396e-09
5.7738962e-09
6.3220083e-09
6.8330302e-09
7.268646e-09
7.6093801e-09
7.8549668e-09
8.0161393e-09
8.1134635e-09
8.1684941e-09
8.1975307e-09
8.2172945e-09
8.243983e-09
8.2635225e-09
8.2807867e-09
8.2962761e-09
8.3202523e-09
8.3485569e-09
8.3802247e-09
8.4119585e-09
8.4375608e-09
8.4632903e-09
8.5106509e-09
8.5747068e-09
8.6128837e-09
8.6341637e-09
8.6460703e-09
8.6535227e-09
8.664361e-09
0.0010254168
0.0021681924
0.0023285444
0.0016177013
0.00032629029
2.2544988e-08
3.0330273e-09
3.0309319e-09
2.9347149e-09
2.9846639e-09
2.9712244e-09
3.0462536e-09
3.0869107e-09
3.1921056e-09
3.2919732e-09
3.4447005e-09
3.6216048e-09
3.8571919e-09
4.1459966e-09
4.5105357e-09
4.9499768e-09
5.4614922e-09
6.0142758e-09
6.5653341e-09
7.0649753e-09
7.4785317e-09
7.7925198e-09
8.009442e-09
8.1422515e-09
8.2149794e-09
8.2499725e-09
8.2636376e-09
8.2716806e-09
8.2898565e-09
8.3000814e-09
8.3098549e-09
8.3188563e-09
8.3388294e-09
8.3639725e-09
8.3930278e-09
8.4219388e-09
8.4449438e-09
8.4713423e-09
8.522528e-09
8.5821509e-09
8.6170679e-09
8.6361969e-09
8.6468241e-09
8.6535606e-09
8.6640251e-09
0.0010295039
0.0021486911
0.0022668938
0.0014602296
0.00023662204
1.1082184e-08
3.0823421e-09
3.0869901e-09
2.9938227e-09
3.0464844e-09
3.037308e-09
3.1166964e-09
3.1632975e-09
3.2753184e-09
3.3844272e-09
3.5481878e-09
3.7396561e-09
3.9930984e-09
4.3045023e-09
4.6953369e-09
5.1627481e-09
5.6980386e-09
6.2642175e-09
6.8137751e-09
7.2977045e-09
7.6865759e-09
7.9723538e-09
8.1581807e-09
8.2620603e-09
8.3106324e-09
8.3270731e-09
8.3256473e-09
8.3238278e-09
8.3332532e-09
8.3346901e-09
8.3374262e-09
8.3406021e-09
8.3565564e-09
8.378857e-09
8.4053829e-09
8.4314754e-09
8.452161e-09
8.4799361e-09
8.5344133e-09
8.5891424e-09
8.6208825e-09
8.6380058e-09
8.6474489e-09
8.6535436e-09
8.6636111e-09
0.0010338358
0.0021276122
0.0022017158
0.0012978988
0.00015567636
6.8430172e-09
3.1363734e-09
3.1458271e-09
3.0558877e-09
3.1115538e-09
3.1068649e-09
3.1910898e-09
3.2441454e-09
3.3636626e-09
3.4828519e-09
3.6587003e-09
3.8661569e-09
4.1391727e-09
4.4751265e-09
4.8939108e-09
5.3897007e-09
5.9471185e-09
6.5229059e-09
7.0661259e-09
7.5302931e-09
7.8925066e-09
8.1473507e-09
8.3002001e-09
8.3747709e-09
8.4004611e-09
8.400185e-09
8.3837518e-09
8.3737459e-09
8.3738273e-09
8.367523e-09
8.3632606e-09
8.3619373e-09
8.3733924e-09
8.3932058e-09
8.41725e-09
8.4405374e-09
8.459258e-09
8.4889688e-09
8.5460379e-09
8.5957242e-09
8.6243428e-09
8.6395567e-09
8.6479111e-09
8.6534117e-09
8.6631217e-09
0.0010382878
0.0021035837
0.0021330844
0.0011389527
8.606902e-05
5.0959453e-09
3.1943703e-09
3.2075689e-09
3.1210383e-09
3.179968e-09
3.1801394e-09
3.2697126e-09
3.3298704e-09
3.457559e-09
3.5878034e-09
3.7769513e-09
4.0019931e-09
4.2964608e-09
4.6589627e-09
5.1071306e-09
5.6311387e-09
6.2082245e-09
6.7891391e-09
7.3210429e-09
7.7620091e-09
8.0956092e-09
8.3157632e-09
8.4342335e-09
8.4802946e-09
8.4859782e-09
8.4689668e-09
8.438812e-09
8.4204158e-09
8.4125089e-09
8.3983173e-09
8.3873178e-09
8.3826705e-09
8.3894083e-09
8.4070207e-09
8.4286062e-09
8.4491215e-09
8.4663213e-09
8.4983886e-09
8.5571876e-09
8.6019072e-09
8.627454e-09
8.6408208e-09
8.6481046e-09
8.6531939e-09
8.6625631e-09
0.0010424661
0.0020742328
0.0020591332
0.00098799007
3.6461412e-05
4.3293596e-09
3.2557469e-09
3.2722579e-09
3.1893979e-09
3.2520361e-09
3.2574407e-09
3.3530137e-09
3.4208682e-09
3.5575262e-09
3.699937e-09
3.9037527e-09
4.1481695e-09
4.4661299e-09
4.8572144e-09
5.3359215e-09
5.8873232e-09
6.4807592e-09
7.0617069e-09
7.5774391e-09
7.992469e-09
8.2938496e-09
8.4761823e-09
8.5596262e-09
8.5802164e-09
8.5668341e-09
8.5333613e-09
8.4909728e-09
8.4640988e-09
8.4489541e-09
8.4271639e-09
8.4099592e-09
8.4023504e-09
8.404855e-09
8.4203013e-09
8.4394449e-09
8.4572589e-09
8.4734955e-09
8.5082848e-09
8.5675969e-09
8.6076035e-09
8.63026e-09
8.6419162e-09
8.6481842e-09
8.6529061e-09
8.6619331e-09
0.0010462579
0.0020398686
0.001978127
0.00084450429
1.1567008e-05
3.9964476e-09
3.3204432e-09
3.3401152e-09
3.2612772e-09
3.3281498e-09
3.3393552e-09
3.4412605e-09
3.5176333e-09
3.6641504e-09
3.8200279e-09
4.0400731e-09
4.3058151e-09
4.6494223e-09
5.0710107e-09
5.5809251e-09
6.158045e-09
6.7636193e-09
7.3391283e-09
7.8343002e-09
8.2209542e-09
8.4848278e-09
8.6271045e-09
8.6771669e-09
8.6754014e-09
8.6425021e-09
8.593562e-09
8.5401006e-09
8.5049407e-09
8.4833987e-09
8.4542517e-09
8.4313338e-09
8.4204083e-09
8.4200482e-09
8.4330314e-09
8.4497683e-09
8.4650174e-09
8.4809647e-09
8.5188756e-09
8.5769542e-09
8.6126996e-09
8.6327452e-09
8.6428835e-09
8.6482162e-09
8.6525527e-09
8.6612224e-09
0.0010495183
0.001999539
0.0018829324
0.00070986951
2.9946593e-06
3.8700966e-09
3.3885955e-09
3.4115016e-09
3.3371009e-09
3.4086692e-09
3.42616e-09
3.5350084e-09
3.6207298e-09
3.7781787e-09
3.9489936e-09
4.1869985e-09
4.4761861e-09
4.8477076e-09
5.3015702e-09
5.8427824e-09
6.4430088e-09
7.0556674e-09
7.6201303e-09
8.0909903e-09
8.4451021e-09
8.6668329e-09
8.7678205e-09
8.7891534e-09
8.7646978e-09
8.7131755e-09
8.649717e-09
8.5861942e-09
8.5431611e-09
8.5158526e-09
8.4797163e-09
8.4515301e-09
8.4370351e-09
8.4348439e-09
8.445166e-09
8.4595779e-09
8.4724878e-09
8.4888805e-09
8.5302926e-09
8.5850727e-09
8.6171109e-09
8.6347809e-09
8.6436235e-09
8.6482179e-09
8.6521182e-09
8.6604191e-09
0.0010524163
0.0019541983
0.0017719193
0.00058654791
7.244486e-07
3.8459955e-09
3.4605632e-09
3.486899e-09
3.417337e-09
3.4940484e-09
3.5182767e-09
3.6347038e-09
3.7308446e-09
3.9004547e-09
4.0879006e-09
4.3457636e-09
4.6606372e-09
5.0623588e-09
5.549883e-09
6.1216708e-09
6.7413112e-09
7.3553408e-09
7.9033526e-09
8.3466988e-09
8.6620463e-09
8.8380955e-09
8.8999005e-09
8.8952764e-09
8.8480861e-09
8.7789062e-09
8.7019997e-09
8.6292658e-09
8.5789486e-09
8.5464226e-09
8.5035281e-09
8.4703486e-09
8.4526574e-09
8.4491967e-09
8.4566424e-09
8.4688665e-09
8.4797654e-09
8.4972895e-09
8.54217e-09
8.5921046e-09
8.6208767e-09
8.6363973e-09
8.6440547e-09
8.6480124e-09
8.65157e-09
8.6595295e-09
0.0010551935
0.0019052625
0.0016466973
0.00047617692
1.8913304e-07
3.8743737e-09
3.5368495e-09
3.5666522e-09
3.5022723e-09
3.5846204e-09
3.6161087e-09
3.7410277e-09
3.8488499e-09
4.0320382e-09
4.2379413e-09
4.5176879e-09
4.8606877e-09
5.2948338e-09
5.81702e-09
6.4176517e-09
7.0520279e-09
7.6612085e-09
8.1878401e-09
8.5993617e-09
8.869349e-09
8.9976223e-09
9.0257248e-09
8.9945754e-09
8.9256074e-09
8.839888e-09
8.7505632e-09
8.6693658e-09
8.6125119e-09
8.5751577e-09
8.5256595e-09
8.4878897e-09
8.4674425e-09
8.4630438e-09
8.4674586e-09
8.4776214e-09
8.4869358e-09
8.5061257e-09
8.5537332e-09
8.5985237e-09
8.6241543e-09
8.6376988e-09
8.6442755e-09
8.6476885e-09
8.6509543e-09
8.6585688e-09
0.0010580326
0.0018532679
0.0015125319
0.00037806736
6.1839944e-08
3.9302068e-09
3.6173632e-09
3.6508283e-09
3.5920217e-09
3.6807039e-09
3.720352e-09
3.8548872e-09
3.9758316e-09
4.1740817e-09
4.4003843e-09
4.7042632e-09
5.0778736e-09
5.5465246e-09
6.1035436e-09
6.7301876e-09
7.3735587e-09
7.9716313e-09
8.4725616e-09
8.8455964e-09
9.0649466e-09
9.1470545e-09
9.1448164e-09
9.0869454e-09
8.9974229e-09
8.8962972e-09
8.7955682e-09
8.7066039e-09
8.6440187e-09
8.6021161e-09
8.5461383e-09
8.5042652e-09
8.4814589e-09
8.4762284e-09
8.4777653e-09
8.4858374e-09
8.4940565e-09
8.5153018e-09
8.5647033e-09
8.6044373e-09
8.6270796e-09
8.6388105e-09
8.6443962e-09
8.6472979e-09
8.6502818e-09
8.6575448e-09
0.0010609746
0.0017960011
0.0013817054
0.00029050888
2.5660386e-08
4.0007493e-09
3.7021497e-09
3.7398564e-09
3.6870526e-09
3.7830108e-09
3.8319881e-09
3.977406e-09
4.1129775e-09
4.3278051e-09
4.5766048e-09
4.9070979e-09
5.3139235e-09
5.8188605e-09
6.4100143e-09
7.0586077e-09
7.7044671e-09
8.2853056e-09
8.7560744e-09
9.0819981e-09
9.2473125e-09
9.2889362e-09
9.2561508e-09
9.1724957e-09
9.0637288e-09
8.948347e-09
8.8371812e-09
8.7411666e-09
8.6735784e-09
8.627353e-09
8.5650838e-09
8.5196541e-09
8.4947093e-09
8.48843e-09
8.4878418e-09
8.4935521e-09
8.5011725e-09
8.524828e-09
8.5748816e-09
8.6098684e-09
8.6297082e-09
8.6397917e-09
8.6444776e-09
8.6468371e-09
8.6495487e-09
8.6564601e-09
0.0010644487
0.0017320395
0.001245329
0.00020964314
1.3214082e-08
4.0810055e-09
3.7918517e-09
3.8343975e-09
3.7885186e-09
3.8926604e-09
3.9521377e-09
4.1096962e-09
4.2614461e-09
4.4945057e-09
4.7681746e-09
5.1279623e-09
5.5705637e-09
6.1129116e-09
6.7362909e-09
7.4014824e-09
8.0428646e-09
8.6008073e-09
9.0345826e-09
9.3061134e-09
9.4174716e-09
9.4233911e-09
9.3593667e-09
9.2514059e-09
9.1247563e-09
8.9962545e-09
8.8755829e-09
8.7732294e-09
8.7013062e-09
8.6509402e-09
8.5826518e-09
8.5341875e-09
8.5072752e-09
8.4995088e-09
8.4977274e-09
8.5008896e-09
8.5083824e-09
8.5348387e-09
8.5840757e-09
8.614788e-09
8.6320078e-09
8.6405406e-09
8.6443761e-09
8.6462577e-09
8.6487478e-09
8.6553198e-09
0.0010700754
0.0016748062
0.0011078666
0.00013586486
8.4272366e-09
4.1684603e-09
3.8872422e-09
3.9355218e-09
3.8976774e-09
4.0108765e-09
4.0820434e-09
4.2525651e-09
4.4224261e-09
4.6757062e-09
4.9768506e-09
5.3688553e-09
5.8496239e-09
6.429738e-09
7.0821159e-09
7.7574165e-09
8.3871839e-09
8.916993e-09
9.3040411e-09
9.5157345e-09
9.5781609e-09
9.5491916e-09
9.4546594e-09
9.3239232e-09
9.1807628e-09
9.0402497e-09
8.9109616e-09
8.8029709e-09
8.7273066e-09
8.6729648e-09
8.5990008e-09
8.5478686e-09
8.5190214e-09
8.5097851e-09
8.5071914e-09
8.5080642e-09
8.5159578e-09
8.5455267e-09
8.5921242e-09
8.6190735e-09
8.6338937e-09
8.6410144e-09
8.6440422e-09
8.64556e-09
8.6478739e-09
8.6541251e-09
0.0010768285
0.0016116316
0.00097066359
7.3068802e-05
6.3907322e-09
4.2629314e-09
3.9899181e-09
4.0445738e-09
4.0153106e-09
4.1384792e-09
4.222355e-09
4.4073095e-09
4.5973539e-09
4.8731725e-09
5.2046589e-09
5.6318686e-09
6.152694e-09
6.7697161e-09
7.4463228e-09
8.1243358e-09