/*--------------------------------*- C++ -*----------------------------------*\
  =========                 |
  \\      /  F ield         | OpenFOAM: The Open Source CFD Toolbox
   \\    /   O peration     | Website:  https://openfoam.org
    \\  /    A nd           | Version:  8
     \\/     M anipulation  |
\*---------------------------------------------------------------------------*/
FoamFile
{
    version     2.0;
    format      ascii;
    class       volVectorField;
    location    "0.140008";
    object      cellDisplacement;
}
// * * * * * * * * * * * * * * * * * * * * * * * * * * * * * * * * * * * * * //

dimensions      [0 1 0 0 0 0 0];

internalField   nonuniform List<vector> 
20000
(
(0.00085397594 0 0.00066108625)
(0.00085396761 0 0.00066101641)
(0.00085394801 0 0.00066086808)
(0.00085391192 0 0.0006607013)
(0.00085385226 0 0.00066051632)
(0.00085375935 0 0.00066031532)
(0.00085361956 0 0.00066010352)
(0.00085341457 0 0.0006598913)
(0.00085311902 0 0.00065969433)
(0.00085269913 0 0.0006595404)
(0.00085210876 0 0.00065947051)
(0.00085128702 0 0.00065954968)
(0.00085015243 0 0.00065987455)
(0.00084859818 0 0.00066058974)
(0.00084648532 0 0.00066190619)
(0.00084363457 0 0.0006641324)
(0.00083981879 0 0.00066770387)
(0.00083475721 0 0.00067324183)
(0.00082810322 0 0.0006816164)
(0.00081945043 0 0.00069400795)
(0.0008083274 0 0.00071201139)
(0.00079422684 0 0.00073767765)
(0.00077664136 0 0.00077355832)
(0.00075509732 0 0.00082263794)
(0.00072928477 0 0.00088807986)
(0.00069902052 0 0.00097306048)
(0.00066451573 0 0.0010794791)
(0.00062609803 0 0.0012089729)
(0.00058469575 0 0.0013586481)
(0.00054084289 0 0.0015267079)
(0.00049571995 0 0.0017053327)
(0.00045057567 0 0.0018866507)
(0.00040611004 0 0.0020609661)
(0.00036375708 0 0.0022190818)
(0.00032407085 0 0.0023499495)
(0.00028722042 0 0.0024554604)
(0.00025352436 0 0.0025238658)
(0.00022264237 0 0.0025597891)
(0.00019443825 0 0.0025588495)
(0.0001691841 0 0.0025213725)
(0.00014505041 0 0.002454579)
(0.00012399072 0 0.0023480786)
(0.00010540936 0 0.0022158367)
(8.8619904e-05 0 0.0020373491)
(7.1858377e-05 0 0.0018383834)
(5.6257879e-05 0 0.0015750359)
(4.0604071e-05 0 0.0012641338)
(2.5921387e-05 0 0.00087102576)
(1.2007081e-05 0 0.00044619839)
(6.6901713e-07 0 6.8638183e-06)
(0.00085439363 0 0.00054115576)
(0.0008543851 0 0.00054095327)
(0.00085436477 0 0.00054072071)
(0.00085432763 0 0.00054045298)
(0.00085426647 0 0.00054014737)
(0.00085417138 0 0.0005398028)
(0.00085402848 0 0.00053941976)
(0.00085381909 0 0.00053900356)
(0.00085351737 0 0.00053856508)
(0.00085308898 0 0.00053812606)
(0.00085248697 0 0.00053772176)
(0.00085164958 0 0.00053741009)
(0.00085049406 0 0.00053727997)
(0.00084891223 0 0.00053746822)
(0.00084676357 0 0.00053817898)
(0.00084386603 0 0.00053971293)
(0.00083999196 0 0.00054250316)
(0.00083485586 0 0.0005471751)
(0.00082811184 0 0.00055459596)
(0.00081934975 0 0.00056597887)
(0.00080810114 0 0.00058295865)
(0.00079386236 0 0.00060765533)
(0.00077613308 0 0.00064271014)
(0.00075445887 0 0.00069121723)
(0.00072854107 0 0.00075648325)
(0.00069823699 0 0.00084177888)
(0.00066375549 0 0.00094925004)
(0.00062547819 0 0.0010803952)
(0.00058428292 0 0.0012327903)
(0.00054073498 0 0.0014044618)
(0.00049597269 0 0.0015878603)
(0.00045114167 0 0.0017751935)
(0.00040701429 0 0.0019564929)
(0.00036485664 0 0.0021226482)
(0.00032529425 0 0.0022625761)
(0.00028849553 0 0.0023769155)
(0.00025478923 0 0.0024548017)
(0.00022386884 0 0.00249965)
(0.00019562747 0 0.0025074395)
(0.00017024694 0 0.0024784127)
(0.00014615824 0 0.0024187425)
(0.00012498002 0 0.0023197085)
(0.0001062658 0 0.0021931233)
(8.9332089e-05 0 0.0020212149)
(7.2571588e-05 0 0.0018259047)
(5.6896092e-05 0 0.0015683102)
(4.1248678e-05 0 0.0012617194)
(2.6498458e-05 0 0.00087486592)
(1.2527133e-05 0 0.00045405301)
(1.0457337e-06 0 1.9848265e-05)
(0.0008543368 0 0.00042380325)
(0.0008543271 0 0.00042352713)
(0.00085430521 0 0.00042320606)
(0.000854266 0 0.00042283383)
(0.00085420209 0 0.0004224044)
(0.00085410337 0 0.00042191423)
(0.00085395563 0 0.00042135939)
(0.00085373989 0 0.00042074152)
(0.0008534297 0 0.00042006451)
(0.00085299025 0 0.00041934363)
(0.00085237343 0 0.00041860591)
(0.00085151692 0 0.0004179016)
(0.0008503358 0 0.00041731208)
(0.00084872149 0 0.00041696848)
(0.00084652965 0 0.00041706549)
(0.00084357836 0 0.00041790624)
(0.00083963538 0 0.00041990871)
(0.00083441459 0 0.00042370742)
(0.00082756717 0 0.0004301819)
(0.00081868181 0 0.00044057617)
(0.00080729179 0 0.00045656753)
(0.0007928989 0 0.00048034268)
(0.00077501049 0 0.00051463221)
(0.00075319336 0 0.00056263231)
(0.00072716152 0 0.00062778875)
(0.00069681686 0 0.00071344992)
(0.0006623649 0 0.00082199166)
(0.00062424776 0 0.00095474716)
(0.00058328622 0 0.0011097583)
(0.00054008307 0 0.0012848464)
(0.00049571969 0 0.0014727649)
(0.00045126186 0 0.0016657253)
(0.00040751633 0 0.0018536444)
(0.00036561752 0 0.0020273858)
(0.00032622885 0 0.0021759472)
(0.00028953159 0 0.0022987731)
(0.00025585605 0 0.0023857973)
(0.00022493293 0 0.0024393366)
(0.00019667927 0 0.0024556495)
(0.00017120416 0 0.0024349087)
(0.00014716474 0 0.0023823302)
(0.00012589485 0 0.0022906451)
(0.00010706529 0 0.0021697673)
(9.000239e-05 0 0.0020043378)
(7.3242855e-05 0 0.001812872)
(5.7503973e-05 0 0.0015609261)
(4.1865034e-05 0 0.0012587605)
(2.7056832e-05 0 0.0008780673)
(1.3031922e-05 0 0.00046142779)
(1.4038091e-06 0 3.1963061e-05)
(0.00085381838 0 0.00030898982)
(0.00085380692 0 0.00030866501)
(0.0008537828 0 0.00030828582)
(0.00085374064 0 0.00030783474)
(0.00085367299 0 0.00030729914)
(0.00085356926 0 0.0003066707)
(0.00085341526 0 0.00030594199)
(0.00085319109 0 0.00030511066)
(0.00085287038 0 0.00030417669)
(0.00085241672 0 0.00030315308)
(0.00085178223 0 0.00030206211)
(0.00085090196 0 0.00030095021)
(0.00084969119 0 0.00029989248)
(0.00084803772 0 0.00029900972)
(0.00084579686 0 0.00029849619)
(0.00084278269 0 0.00029862828)
(0.00083876181 0 0.00029985338)
(0.0008334447 0 0.00030277903)
(0.00082648077 0 0.00030831849)
(0.00081745767 0 0.00031773707)
(0.00080591103 0 0.00033276056)
(0.00079134775 0 0.00035564662)
(0.00077328637 0 0.00038921689)
(0.00075131239 0 0.00043677021)
(0.0007251613 0 0.00050186964)
(0.00069477179 0 0.0005879581)
(0.00066036248 0 0.00069756326)
(0.00062241882 0 0.00083192815)
(0.00058172395 0 0.0009894418)
(0.00053889898 0 0.001167801)
(0.00049497572 0 0.0013599894)
(0.00045094256 0 0.0015582475)
(0.00040762436 0 0.0017524189)
(0.00036603979 0 0.0019333441)
(0.00032687757 0 0.0020900953)
(0.00029032685 0 0.0022210915)
(0.00025672519 0 0.002316897)
(0.00022583233 0 0.0023788973)
(0.00019759365 0 0.0024035242)
(0.00017205376 0 0.0023909003)
(0.00014807001 0 0.0023453747)
(0.00012673232 0 0.0022609159)
(0.00010780634 0 0.0021457984)
(9.062899e-05 0 0.0019867398)
(7.3871849e-05 0 0.001799301)
(5.8080279e-05 0 0.0015528969)
(4.2453209e-05 0 0.0012552562)
(2.7596946e-05 0 0.00088067124)
(1.3521724e-05 0 0.00046830972)
(1.7460439e-06 0 4.3321354e-05)
(0.00085285299 0 0.00019661333)
(0.00085283906 0 0.00019616927)
(0.00085281183 0 0.00019565246)
(0.00085276573 0 0.00019505516)
(0.00085269313 0 0.00019437442)
(0.00085258312 0 0.00019359275)
(0.00085242111 0 0.00019270283)
(0.00085218669 0 0.00019168772)
(0.00085185287 0 0.00019054505)
(0.00085138239 0 0.00018926978)
(0.00085072634 0 0.00018787813)
(0.00084981853 0 0.00018640147)
(0.00084857253 0 0.00018490668)
(0.00084687436 0 0.00018350821)
(0.0008445767 0 0.00018238633)
(0.00084149152 0 0.00018183692)
(0.00083738216 0 0.00018226703)
(0.00083195694 0 0.00018433031)
(0.00082486309 0 0.00018894035)
(0.0008156879 0 0.00019740529)
(0.00080396929 0 0.00021150065)
(0.00078922027 0 0.00023355333)
(0.00077097184 0 0.00026647702)
(0.00074882907 0 0.00031366408)
(0.00072255288 0 0.00037878629)
(0.00069211823 0 0.00046537633)
(0.00065776239 0 0.00057607959)
(0.00062001093 0 0.00071204596)
(0.0005796109 0 0.00087198265)
(0.00053719961 0 0.0010534674)
(0.00049375374 0 0.0012496978)
(0.00045019593 0 0.0014529269)
(0.00040734661 0 0.001652998)
(0.0003661304 0 0.0018407003)
(0.00032724151 0 0.0020052134)
(0.00029088307 0 0.0021440436)
(0.00025739429 0 0.0022482757)
(0.00022656626 0 0.0023184822)
(0.00019836753 0 0.0023511987)
(0.0001727937 0 0.0023465025)
(0.00014887315 0 0.0023079646)
(0.00012749147 0 0.0022306016)
(0.00010848655 0 0.002121265)
(9.1211021e-05 0 0.0019684724)
(7.4458213e-05 0 0.0017852044)
(5.8625393e-05 0 0.0015442587)
(4.3012959e-05 0 0.0012512217)
(2.8117798e-05 0 0.00088267798)
(1.3995954e-05 0 0.00047470479)
(2.0713782e-06 0 5.3908225e-05)
(0.0008514534 0 8.6706389e-05)
(0.00085143667 0 8.623562e-05)
(0.0008514059 0 8.5681969e-05)
(0.00085135521 0 8.5023083e-05)
(0.00085127664 0 8.4239483e-05)
(0.00085115896 0 8.3316717e-05)
(0.00085098715 0 8.2239675e-05)
(0.00085074028 0 8.0997275e-05)
(0.00085039064 0 7.9580256e-05)
(0.00084990017 0 7.7988966e-05)
(0.00084921877 0 7.6233547e-05)
(0.00084827894 0 7.4343979e-05)
(0.00084699243 0 7.2379517e-05)
(0.00084524314 0 7.0443803e-05)
(0.00084288125 0 6.8713542e-05)
(0.00083971567 0 6.7453615e-05)
(0.00083550739 0 6.71086e-05)
(0.00082996156 0 6.829919e-05)
(0.00082272424 0 7.1987822e-05)
(0.0008133824 0 7.9515594e-05)
(0.00080147618 0 9.2711357e-05)
(0.00078652595 0 0.00011397306)
(0.00076807626 0 0.00014631577)
(0.00074575306 0 0.00019321093)
(0.00071934626 0 0.00025843141)
(0.00068886664 0 0.00034559897)
(0.00065457707 0 0.00045742594)
(0.000617034 0 0.0005950142)
(0.00057696022 0 0.00075729748)
(0.00053499502 0 0.00094179207)
(0.00049206518 0 0.0011418485)
(0.00044902754 0 0.0013497605)
(0.00040668934 0 0.0015553863)
(0.00036588976 0 0.001749491)
(0.00032732245 0 0.0019213376)
(0.00029119847 0 0.0020676751)
(0.00025786296 0 0.0021799758)
(0.00022713218 0 0.0022581335)
(0.00019900032 0 0.002298713)
(0.00017342127 0 0.0023017534)
(0.00014957346 0 0.0022701284)
(0.00012816938 0 0.0021997292)
(0.00010910422 0 0.0020961905)
(9.1746177e-05 0 0.0019495575)
(7.5001176e-05 0 0.0017705939)
(5.9137646e-05 0 0.0015350223)
(4.3544271e-05 0 0.0012466622)
(2.8619543e-05 0 0.00088412032)
(1.4454984e-05 0 0.00048061748)
(2.3821551e-06 0 6.3811807e-05)
(0.00084963073 0 -2.0874731e-05)
(0.0008496099 0 -2.1461214e-05)
(0.00084957407 0 -2.2147742e-05)
(0.00084951724 0 -2.2948012e-05)
(0.00084943128 0 -2.3872524e-05)
(0.0008493045 0 -2.4945293e-05)
(0.00084912144 0 -2.6182247e-05)
(0.00084886045 0 -2.7608553e-05)
(0.00084849307 0 -2.9236652e-05)
(0.00084798011 0 -3.1083016e-05)
(0.00084727025 0 -3.3143842e-05)
(0.00084629434 0 -3.5402468e-05)
(0.0008449622 0 -3.7807802e-05)
(0.00084315544 0 -4.0262451e-05)
(0.00084072133 0 -4.2603607e-05)
(0.00083746614 0 -4.455056e-05)
(0.00083314712 0 -4.5701308e-05)
(0.00082746801 0 -4.5387417e-05)
(0.00082007382 0 -4.2615445e-05)
(0.00081055113 0 -3.5992724e-05)
(0.00079844227 0 -2.3643805e-05)
(0.00078327595 0 -3.1067921e-06)
(0.00076461195 0 2.8750125e-05)
(0.00074209768 0 7.5449466e-05)
(0.0007155563 0 0.00014086382)
(0.00068503382 0 0.00022870385)
(0.00065082374 0 0.0003417064)
(0.00061350963 0 0.00048093041)
(0.00057379031 0 0.00064550915)
(0.00053230484 0 0.0008328991)
(0.00048992644 0 0.0010365821)
(0.00044745266 0 0.0012488914)
(0.00040566404 0 0.0014597411)
(0.00036532755 0 0.0016598718)
(0.00032712454 0 0.0018386401)
(0.00029127679 0 0.0019921444)
(0.00025813104 0 0.0021121583)
(0.00022753053 0 0.0021979935)
(0.00019949038 0 0.0022461944)
(0.00017393529 0 0.0022567642)
(0.00015017064 0 0.0022319528)
(0.0001287657 0 0.0021683776)
(0.00010965765 0 0.0020706242)
(9.2233772e-05 0 0.0019300458)
(7.550059e-05 0 0.0017554864)
(5.9617492e-05 0 0.0015252221)
(4.4046787e-05 0 0.0012415904)
(2.9101303e-05 0 0.00088499875)
(1.4898128e-05 0 0.00048604621)
(2.6773566e-06 0 7.3021894e-05)
(0.0008473986 0 -0.00012609016)
(0.00084737394 0 -0.00012671033)
(0.00084733325 0 -0.00012744445)
(0.00084727011 0 -0.00012831752)
(0.00084717592 0 -0.00012935355)
(0.00084703866 0 -0.00013057295)
(0.00084684231 0 -0.00013199743)
(0.00084656465 0 -0.00013364802)
(0.00084617633 0 -0.00013554349)
(0.0008456372 0 -0.00013769751)
(0.00084489453 0 -0.00014011311)
(0.00084387753 0 -0.00014277724)
(0.00084249387 0 -0.00014564746)
(0.00084062253 0 -0.00014863817)
(0.00083810784 0 -0.00015159149)
(0.00083475225 0 -0.00015425857)
(0.00083031072 0 -0.00015620741)
(0.00082448446 0 -0.00015681798)
(0.00081692102 0 -0.00015494516)
(0.0008072034 0 -0.00014918951)
(0.00079487655 0 -0.00013764103)
(0.00077947883 0 -0.00011777817)
(0.00076058777 0 -8.6310101e-05)
(0.00073787195 0 -3.9718653e-05)
(0.00071119216 0 2.5982167e-05)
(0.00068063113 0 0.00011458605)
(0.00064651454 0 0.00022881639)
(0.00060944852 0 0.00036970829)
(0.00057011451 0 0.000536536)
(0.00052914071 0 0.00072672556)
(0.00048734963 0 0.00093384945)
(0.0004454789 0 0.0011502994)
(0.00040427807 0 0.0013660551)
(0.00036444645 0 0.00157186)
(0.00032665073 0 0.001757146)
(0.00029111781 0 0.0019174831)
(0.00025819899 0 0.002044857)
(0.00022775981 0 0.0021380967)
(0.00019983758 0 0.0021936782)
(0.00017433352 0 0.0022115698)
(0.00015066399 0 0.0021934646)
(0.00012927803 0 0.0021365738)
(0.00011014537 0 0.0020445881)
(9.2671571e-05 0 0.0019099606)
(7.5955569e-05 0 0.0017398943)
(6.0063194e-05 0 0.0015148688)
(4.4520545e-05 0 0.0012360188)
(2.9563103e-05 0 0.00088534215)
(1.5325827e-05 0 0.0004910079)
(2.9590334e-06 0 8.1608718e-05)
(0.00084476876 0 -0.00022907271)
(0.00084473834 0 -0.00022980507)
(0.00084469064 0 -0.00023066691)
(0.00084461914 0 -0.0002316758)
(0.00084451508 0 -0.0002328473)
(0.00084436584 0 -0.00023421228)
(0.00084415485 0 -0.00023579367)
(0.00084385896 0 -0.00023762707)
(0.00084344788 0 -0.00023973468)
(0.00084288009 0 -0.0002421466)
(0.00084210134 0 -0.00024487202)
(0.00084103887 0 -0.0002479109)
(0.000839598 0 -0.00025122818)
(0.00083765495 0 -0.00025474544)
(0.00083505051 0 -0.00025831895)
(0.00083158384 0 -0.0002616907)
(0.00082700519 0 -0.00026447035)
(0.0008210251 0 -0.00026583033)
(0.00081328483 0 -0.00026475187)
(0.00080336003 0 -0.00025978477)
(0.00079080024 0 -0.00024897491)
(0.00077515663 0 -0.00022975116)
(0.00075601681 0 -0.00019883629)
(0.00073308964 0 -0.00015224841)
(0.00070627036 0 -8.6154209e-05)
(0.00067567627 0 3.3266723e-06)
(0.00064166973 0 0.00011885209)
(0.0006048742 0 0.00026143881)
(0.00056595449 0 0.00043048319)
(0.00052552485 0 0.00062337989)
(0.00048435426 0 0.00083376974)
(0.00044312428 0 0.0010541066)
(0.0004025458 0 0.0012744624)
(0.00036325857 0 0.0014855912)
(0.00032590794 0 0.0016770062)
(0.00029072719 0 0.0018438348)
(0.00025806877 0 0.0019782184)
(0.00022782175 0 0.0020785765)
(0.00020004167 0 0.0021412838)
(0.00017461574 0 0.0021662768)
(0.00015105385 0 0.0021547488)
(0.00012970659 0 0.0021043948)
(0.00011056632 0 0.002018133)
(9.3059144e-05 0 0.0018893519)
(7.6366163e-05 0 0.0017238386)
(6.047528e-05 0 0.0015039961)
(4.4965078e-05 0 0.001229957)
(3.000415e-05 0 0.00088515106)
(1.573731e-05 0 0.00049549438)
(3.2261998e-06 0 8.9566971e-05)
(0.00084175438 0 -0.00032978505)
(0.00084171918 0 -0.00033054746)
(0.00084166543 0 -0.00033144912)
(0.000841586 0 -0.00033252198)
(0.00084147146 0 -0.00033379681)
(0.00084130878 0 -0.00033530202)
(0.00084108067 0 -0.00033706827)
(0.00084076338 0 -0.0003391259)
(0.00084032552 0 -0.00034150471)
(0.00083972452 0 -0.00034422968)
(0.00083890447 0 -0.00034731737)
(0.0008377907 0 -0.00035076906)
(0.00083628595 0 -0.00035455855)
(0.00083426326 0 -0.00035861813)
(0.00083155972 0 -0.00036281137)
(0.0008279696 0 -0.00036692131)
(0.00082325426 0 -0.00037037166)
(0.0008171161 0 -0.00037238512)
(0.00080918162 0 -0.00037201404)
(0.00079903239 0 -0.00036777962)
(0.00078622132 0 -0.00035766744)
(0.00077030912 0 -0.00033903419)
(0.00075090829 0 -0.00030863705)
(0.00072775937 0 -0.00026223456)
(0.00070079939 0 -0.00019564033)
(0.00067018178 0 -0.00010517144)
(0.00063630093 0 1.1716378e-05)
(0.00059979836 0 0.00015603814)
(0.00056132389 0 0.00032727001)
(0.00052147007 0 0.0005227949)
(0.00048095297 0 0.00073628879)
(0.0004403979 0 0.00096028054)
(0.00040047544 0 0.0011849456)
(0.00036176824 0 0.0014010681)
(0.00032490009 0 0.0015982346)
(0.00029010601 0 0.0017712199)
(0.00025774159 0 0.0019122679)
(0.00022771572 0 0.0020194606)
(0.00020010283 0 0.0020890415)
(0.00017478024 0 0.0021209167)
(0.00015133953 0 0.0021158307)
(0.00013004937 0 0.0020718662)
(0.0001109192 0 0.0019912805)
(9.3394417e-05 0 0.0018682421)
(7.6731371e-05 0 0.0017073322)
(6.0852042e-05 0 0.0014926139)
(4.5380449e-05 0 0.0012234222)
(3.0424412e-05 0 0.00088445247)
(1.6133044e-05 0 0.00049952923)
(3.4807413e-06 0 9.6956251e-05)
(0.00083836379 0 -0.000428358)
(0.0008383211 0 -0.00042923099)
(0.00083825831 0 -0.00043025912)
(0.00083816818 0 -0.0004314671)
(0.00083804111 0 -0.00043287791)
(0.00083786333 0 -0.00043453002)
(0.00083761692 0 -0.00043645537)
(0.00083727694 0 -0.00043869817)
(0.00083681096 0 -0.00044129209)
(0.00083617467 0 -0.00044427751)
(0.00083531042 0 -0.00044767716)
(0.00083414117 0 -0.000451504)
(0.0008325669 0 -0.00045573884)
(0.0008304573 0 -0.00046031858)
(0.0008276452 0 -0.00046511187)
(0.0008239299 0 -0.00046986561)
(0.00081907243 0 -0.00047393647)
(0.00081275699 0 -0.00047665628)
(0.00080461247 0 -0.0004770011)
(0.00079422115 0 -0.00047347112)
(0.0007811413 0 -0.00046400388)
(0.00076494631 0 -0.00044587608)
(0.00074527663 0 -0.00041567949)
(0.00072190025 0 -0.00036935875)
(0.0006947981 0 -0.00030241984)
(0.00066416682 0 -0.00021082515)
(0.00063043115 0 -9.2506384e-05)
(0.00059424668 0 5.3585808e-05)
(0.0005562472 0 0.00022698687)
(0.00051700081 0 0.00042506406)
(0.00047716767 0 0.00064150654)
(0.00043731992 0 0.00086892393)
(0.0003980836 0 0.0010976175)
(0.00035998952 0 0.0013184077)
(0.00032363633 0 0.0015209619)
(0.00028926158 0 0.0016997673)
(0.00025722117 0 0.0018471378)
(0.00022744465 0 0.0019608732)
(0.00020002201 0 0.0020370632)
(0.00017482768 0 0.0020755906)
(0.00015152193 0 0.0020767934)
(0.00013030711 0 0.0020390629)
(0.00011120349 0 0.0019640822)
(9.3677219e-05 0 0.0018466805)
(7.7051388e-05 0 0.0016903998)
(6.1194062e-05 0 0.0014807553)
(4.5766125e-05 0 0.001216422)
(3.082315e-05 0 0.00088324675)
(1.65122e-05 0 0.00050310015)
(3.7216704e-06 0 0.00010377383)
(0.00083461118 0 -0.00052475595)
(0.0008345624 0 -0.00052566697)
(0.00083449179 0 -0.00052674838)
(0.00083439149 0 -0.00052803497)
(0.00083425109 0 -0.00052956268)
(0.00083405644 0 -0.00053136567)
(0.00083378878 0 -0.00053348197)
(0.00083342251 0 -0.00053595099)
(0.00083292393 0 -0.00053881229)
(0.00083224748 0 -0.00054210379)
(0.00083133353 0 -0.00054585545)
(0.00083010279 0 -0.00055008396)
(0.00082845203 0 -0.0005547819)
(0.00082624779 0 -0.00055989693)
(0.0008233193 0 -0.00056530843)
(0.00081947475 0 -0.00057059351)
(0.00081446156 0 -0.00057529882)
(0.00080795569 0 -0.00057870659)
(0.00079958514 0 -0.00057975352)
(0.00078893366 0 -0.00057690819)
(0.00077556678 0 -0.00056805031)
(0.00075907394 0 -0.00055036872)
(0.00073912475 0 -0.00052030252)
(0.00071552251 0 -0.00047370971)
(0.00068828135 0 -0.00040632783)
(0.00065764471 0 -0.00031372367)
(0.00062407214 0 -0.00019390131)
(0.00058823131 0 -4.5998758e-05)
(0.0005507386 0 0.0001295532)
(0.00051213067 0 0.0003301156)
(0.00047301145 0 0.00054936222)
(0.00043390044 0 0.00077999296)
(0.00039537914 0 0.0010124493)
(0.00035792793 0 0.0012375987)
(0.00032212143 0 0.0014451896)
(0.00028819603 0 0.0016294863)
(0.0002565094 0 0.0017828437)
(0.00022700872 0 0.0019028343)
(0.00019979974 0 0.0019853735)
(0.00017475688 0 0.0020303253)
(0.00015160043 0 0.0020376598)
(0.00013047816 0 0.0020060081)
(0.00011141806 0 0.0019365589)
(9.3905684e-05 0 0.0018246882)
(7.7325148e-05 0 0.0016730545)
(6.14997e-05 0 0.0014684294)
(4.6122194e-05 0 0.0012089769)
(3.1200313e-05 0 0.00088155988)
(1.687526e-05 0 0.00050623498)
(3.9507656e-06 0 0.00011007144)
(0.00083050457 0 -0.00061909955)
(0.00083044651 0 -0.00062011973)
(0.00083036469 0 -0.00062132686)
(0.00083025115 0 -0.00062274846)
(0.00083009533 0 -0.0006244138)
(0.00082988221 0 -0.00062636577)
(0.00082959231 0 -0.00062864367)
(0.0008291986 0 -0.00063130008)
(0.00082866626 0 -0.00063437764)
(0.00082794743 0 -0.00063793048)
(0.00082698083 0 -0.00064199193)
(0.00082568349 0 -0.00064659695)
(0.0008239499 0 -0.0006517406)
(0.00082164063 0 -0.00065739632)
(0.00081859618 0 -0.00066334615)
(0.00081461656 0 -0.0006691843)
(0.00080943207 0 -0.00067451136)
(0.00080272041 0 -0.000678588)
(0.00079410699 0 -0.00068031641)
(0.00078317771 0 -0.00067812219)
(0.00076950659 0 -0.00066982199)
(0.00075270207 0 -0.00065251695)
(0.00073246586 0 -0.00062248119)
(0.00070863616 0 -0.00057548825)
(0.00068127074 0 -0.00050731335)
(0.00065063025 0 -0.00041378095)
(0.00061724908 0 -0.00029239365)
(0.00058177991 0 -0.00014264399)
(0.00054482501 0 3.5044263e-05)
(0.00050688613 0 0.00023802845)
(0.00046850825 0 0.00045993681)
(0.0004301727 0 0.00069380796)
(0.00039239133 0 0.00092979373)
(0.0003556081 0 0.0011589907)
(0.00032037323 0 0.0013712539)
(0.00028692308 0 0.0015606826)
(0.00025561499 0 0.0017196617)
(0.00022641207 0 0.0018454586)
(0.00019943814 0 0.0019340753)
(0.00017456943 0 0.0019852159)
(0.00015157654 0 0.0019985099)
(0.00013056373 0 0.0019727745)
(0.0001115629 0 0.0019087632)
(9.4079918e-05 0 0.001802314)
(7.7552996e-05 0 0.0016553243)
(6.176958e-05 0 0.0014556693)
(4.6448057e-05 0 0.0012010928)
(3.1555191e-05 0 0.00087939194)
(1.7221353e-05 0 0.00050891865)
(4.1670213e-06 0 0.00011584826)
(0.00082605644 0 -0.00071136465)
(0.00082599042 0 -0.00071243794)
(0.00082589866 0 -0.00071371047)
(0.00082577269 0 -0.00071521726)
(0.00082560095 0 -0.0007169967)
(0.0008253681 0 -0.00071909091)
(0.00082505326 0 -0.00072154761)
(0.00082462905 0 -0.0007244145)
(0.00082405828 0 -0.00072774628)
(0.00082329253 0 -0.00073159086)
(0.00082226681 0 -0.00073599722)
(0.00082089693 0 -0.00074099426)
(0.00081907194 0 -0.00074659376)
(0.00081665626 0 -0.00075275883)
(0.00081349075 0 -0.00075920528)
(0.00080935991 0 -0.00076564015)
(0.00080399097 0 -0.00077160281)
(0.00079705816 0 -0.00077633955)
(0.00078818462 0 -0.00077873435)
(0.00077695891 0 -0.00077716881)
(0.00076296562 0 -0.00076938897)
(0.00074583526 0 -0.000752412)
(0.00072530587 0 -0.00072230417)
(0.0007012494 0 -0.00067477326)
(0.00067376234 0 -0.00060567731)
(0.00064313498 0 -0.00051111325)
(0.00060997439 0 -0.00038806255)
(0.00057490565 0 -0.00023642836)
(0.00053852108 0 -5.6620903e-05)
(0.00050128149 0 0.0001487284)
(0.0004636913 0 0.00037345075)
(0.0004261562 0 0.0006104047)
(0.00038913313 0 0.00084968237)
(0.00035303829 0 0.0010826125)
(0.00031839806 0 0.001299183)
(0.00028544609 0 0.0014933834)
(0.00025453986 0 0.0016576232)
(0.00022565444 0 0.0017887617)
(0.000198938 0 0.0018831877)
(0.00017426462 0 0.0019402845)
(0.00015144977 0 0.0019593642)
(0.00013056247 0 0.0019393825)
(0.00011163703 0 0.0018807144)
(9.4198261e-05 0 0.0017795769)
(7.7733837e-05 0 0.0016372223)
(6.2002148e-05 0 0.001442483)
(4.674382e-05 0 0.0011927923)
(3.1887731e-05 0 0.00087676854)
(1.7550962e-05 0 0.00051118109)
(4.3721598e-06 0 0.00012115132)
(0.00082127731 0 -0.00080163243)
(0.00082120188 0 -0.00080277617)
(0.00082109859 0 -0.00080413186)
(0.00082095846 0 -0.00080573669)
(0.00082076926 0 -0.00080763321)
(0.0008205149 0 -0.00080986653)
(0.00082017344 0 -0.00081248948)
(0.00081971623 0 -0.00081555576)
(0.00081910453 0 -0.00081912488)
(0.00081828792 0 -0.00082325171)
(0.00081719905 0 -0.00082799045)
(0.00081575052 0 -0.00083338008)
(0.00081382825 0 -0.00083943971)
(0.00081130141 0 -0.00084605777)
(0.00080800482 0 -0.0008530208)
(0.00080371124 0 -0.000860044)
(0.00079814499 0 -0.00086662559)
(0.0007909753 0 -0.00087200949)
(0.00078182384 0 -0.00087504999)
(0.00077028381 0 -0.00087407753)
(0.00075595212 0 -0.00086675506)
(0.00073850097 0 -0.00084979273)
(0.00071767686 0 -0.00081948852)
(0.00069338043 0 -0.00077150947)
(0.0006657788 0 -0.00070133011)
(0.00063520056 0 -0.00060541777)
(0.00060227623 0 -0.00048084012)
(0.00056763799 0 -0.00032729078)
(0.00053187357 0 -0.00014513314)
(0.00049537338 0 6.2630376e-05)
(0.00045859555 0 0.00029007746)
(0.00042186518 0 0.00052972132)
(0.00038561587 0 0.00077199609)
(0.00035022789 0 0.0010083409)
(0.00031620251 0 0.0012288775)
(0.0002837708 0 0.0014275176)
(0.00025328757 0 0.0015966927)
(0.00022474388 0 0.0017329897)
(0.00019830239 0 0.0018328061)
(0.00017384478 0 0.0018956198)
(0.00015122212 0 0.0019202992)
(0.00013047601 0 0.0019059021)
(0.00011164087 0 0.0018524655)
(9.4261068e-05 0 0.0017565255)
(7.7868132e-05 0 0.001618779)
(6.2198058e-05 0 0.0014289037)
(4.7008842e-05 0 0.0011840802)
(3.2197246e-05 0 0.00087368939)
(1.7863195e-05 0 0.00051300603)
(4.5651312e-06 0 0.00012597999)
(0.00081617597 0 -0.00088993514)
(0.00081609027 0 -0.00089115097)
(0.00081597436 0 -0.00089259245)
(0.00081581875 0 -0.00089429888)
(0.00081561053 0 -0.00089631576)
(0.00081533274 0 -0.00089869161)
(0.0008149624 0 -0.00090148342)
(0.00081446955 0 -0.00090474844)
(0.00081381371 0 -0.00090855225)
(0.00081294235 0 -0.00091295566)
(0.00081178538 0 -0.00091801954)
(0.00081025195 0 -0.00092378921)
(0.00080822852 0 -0.00093029697)
(0.00080558646 0 -0.00093736581)
(0.00080214676 0 -0.00094485015)
(0.0007976794 0 -0.00095243116)
(0.00079190129 0 -0.00095962115)
(0.00078447829 0 -0.00096563163)
(0.00077503009 0 -0.00096930739)
(0.00076315722 0 -0.00096890055)
(0.00074849531 0 -0.00096176425)
(0.00073071697 0 -0.00094469501)
(0.00070958125 0 -0.00091405451)
(0.00068504759 0 -0.00086551971)
(0.00065733578 0 -0.00079436548)
(0.00062684137 0 -0.00069677532)
(0.00059416219 0 -0.00057079175)
(0.0005600165 0 -0.00041505728)
(0.00052491994 0 -0.00023039708)
(0.00048918527 0 -2.0205791e-05)
(0.00045322027 0 0.00020957124)
(0.00041730861 0 0.00045166726)
(0.00038184759 0 0.00069666441)
(0.0003471828 0 0.00093612429)
(0.00031379171 0 0.001160303)
(0.00028190035 0 0.0013630638)
(0.0002518616 0 0.0015368584)
(0.00022368204 0 0.0016781525)
(0.00019753408 0 0.001783071)
(0.00017330965 0 0.0018512391)
(0.00015089328 0 0.0018813319)
(0.00013030327 0 0.001872351)
(0.0001115736 0 0.0018240339)
(9.4266888e-05 0 0.0017331767)
(7.7954805e-05 0 0.0016000069)
(6.2355852e-05 0 0.0014149388)
(4.7243261e-05 0 0.0011749807)
(3.2483691e-05 0 0.00087017994)
(1.815853e-05 0 0.00051442446)
(4.7476166e-06 0 0.00013037745)
(0.00081076162 0 -0.00097631242)
(0.00081066483 0 -0.00097759995)
(0.00081053535 0 -0.00097912666)
(0.00081036307 0 -0.00098093437)
(0.00081013434 0 -0.00098307161)
(0.00080983136 0 -0.00098558993)
(0.00080942995 0 -0.00098855032)
(0.00080889872 0 -0.00099201518)
(0.00080819543 0 -0.00099605445)
(0.00080726533 0 -0.0010007342)
(0.0008060356 0 -0.00100612)
(0.00080441216 0 -0.001012261)
(0.00080228275 0 -0.0010191819)
(0.0007995164 0 -0.0010267205)
(0.00079592487 0 -0.0010347079)
(0.00079127043 0 -0.0010428514)
(0.00078526674 0 -0.0010506235)
(0.00077757298 0 -0.0010572435)
(0.00076780864 0 -0.0010615389)
(0.00075561087 0 -0.0010614499)
(0.00074061061 0 -0.0010543805)
(0.00072247553 0 -0.0010372728)
(0.00070102602 0 -0.0010061887)
(0.00067627248 0 -0.00095674684)
(0.0006484685 0 -0.0008844796)
(0.00061806823 0 -0.00078531928)
(0.00058569086 0 -0.00065761455)
(0.00055209799 0 -0.00049945816)
(0.00051768553 0 -0.00031242138)
(0.00048272848 0 -9.9977253e-05)
(0.00044758881 0 0.00013194167)
(0.00041250828 0 0.00037626368)
(0.00037784741 0 0.00062372178)
(0.00034391973 0 0.00086600973)
(0.00031117867 0 0.0010935218)
(0.00027984539 0 0.0013000949)
(0.00025026943 0 0.0014782014)
(0.00022247258 0 0.0016241979)
(0.00019663747 0 0.001734077)
(0.00017266154 0 0.0018072249)
(0.00015046575 0 0.0018425345)
(0.00013004628 0 0.0018387958)
(0.00011143604 0 0.0017954722)
(9.4216333e-05 0 0.0017095785)
(7.7994443e-05 0 0.0015809388)
(6.247621e-05 0 0.0014006219)
(4.7446392e-05 0 0.0011654976)
(3.2746387e-05 0 0.00086623961)
(1.8436064e-05 0 0.00051541982)
(4.9185251e-06 0 0.00013434316)
(0.00080504342 0 -0.0010608041)
(0.00080493467 0 -0.0010621639)
(0.00080479052 0 -0.0010637767)
(0.00080460025 0 -0.0010656866)
(0.00080434944 0 -0.0010679451)
(0.00080401929 0 -0.0010706074)
(0.00080358441 0 -0.0010737382)
(0.00080301192 0 -0.0010774041)
(0.00080225759 0 -0.001081681)
(0.00080126421 0 -0.0010866419)
(0.00079995583 0 -0.0010923617)
(0.00079823472 0 -0.0010989037)
(0.00079599575 0 -0.0011061999)
(0.00079309899 0 -0.0011141738)
(0.00078934487 0 -0.0011226591)
(0.00078449261 0 -0.0011313279)
(0.00077824741 0 -0.001139671)
(0.00077026578 0 -0.0011468572)
(0.00076018599 0 -0.0011516164)
(0.00074765493 0 -0.0011517412)
(0.00073228108 0 -0.0011448361)
(0.00071377888 0 -0.0011276106)
(0.00069201608 0 -0.0010959654)
(0.00066705109 0 -0.0010454963)
(0.00063918896 0 -0.0009717632)
(0.00060889435 0 -0.00087113197)
(0.00057690681 0 -0.00074113965)
(0.00054389226 0 -0.00058063155)
(0.00051017929 0 -0.00039134815)
(0.00047601284 0 -0.00017681127)
(0.00044171101 0 5.7075989e-05)
(0.00040747273 0 0.00030341521)
(0.00037362297 0 0.00055309149)
(0.00034044454 0 0.00079793791)
(0.0003083685 0 0.0010284914)
(0.0002776093 0 0.0012385815)
(0.00024851389 0 0.0014207039)
(0.00022111697 0 0.0015711181)
(0.00019561153 0 0.0016857132)
(0.00017190265 0 0.0017636944)
(0.00014993938 0 0.0018039208)
(0.0001297042 0 0.0018052512)
(0.00011122754 0 0.0017667961)
(9.4108141e-05 0 0.0016857458)
(7.7986007e-05 0 0.0015615862)
(6.2557768e-05 0 0.0013859593)
(4.7618412e-05 0 0.0011556565)
(3.2985319e-05 0 0.00086189424)
(1.8696273e-05 0 0.00051602378)
(5.0795096e-06 0 0.00013791764)
(0.00079903004 0 -0.0011434483)
(0.0007989085 0 -0.00114488)
(0.00079874867 0 -0.0011465783)
(0.00079853918 0 -0.0011485898)
(0.00079826473 0 -0.0011509692)
(0.00079790552 0 -0.0011537746)
(0.00079743482 0 -0.0011570749)
(0.00079681803 0 -0.0011609418)
(0.00079600885 0 -0.0011654556)
(0.00079494735 0 -0.001170695)
(0.00079355412 0 -0.0011767401)
(0.00079173379 0 -0.0011836643)
(0.00078938258 0 -0.0011913436)
(0.00078634385 0 -0.0011997515)
(0.00078241649 0 -0.0012087097)
(0.00077735112 0 -0.00121791)
(0.00077084966 0 -0.0012268035)
(0.00076256617 0 -0.0012345653)
(0.00075217037 0 -0.0012395614)
(0.00073927707 0 -0.0012399522)
(0.00072351488 0 -0.0012331364)