/*--------------------------------*- C++ -*----------------------------------*\
  =========                 |
  \\      /  F ield         | OpenFOAM: The Open Source CFD Toolbox
   \\    /   O peration     | Website:  https://openfoam.org
    \\  /    A nd           | Version:  8
     \\/     M anipulation  |
\*---------------------------------------------------------------------------*/
FoamFile
{
    version     2.0;
    format      ascii;
    class       volScalarField;
    location    "0.140008";
    object      Ma;
}
// * * * * * * * * * * * * * * * * * * * * * * * * * * * * * * * * * * * * * //

dimensions      [0 0 0 0 0 0 0];

internalField   nonuniform List<scalar> 
20000
(
0.77076752
0.89194247
0.96957374
1.0365881
1.1004195
1.1631859
1.2189646
1.236102
1.2313758
1.232782
1.2285184
1.2281883
1.224125
1.2220879
1.2175696
1.2136836
1.2079409
1.2018018
1.1939654
1.1848868
1.1738985
1.1608835
1.1454646
1.1273019
1.1061924
1.0819024
1.054531
1.024333
0.99194057
0.95823192
0.92467205
0.89324614
0.8656694
0.84259452
0.82398834
0.80921705
0.79752739
0.78834971
0.78117803
0.77554487
0.77108609
0.76747399
0.76454687
0.76200381
0.75999904
0.75846248
0.75700612
0.75530505
0.75559339
0.7522935
0.76830633
0.89045982
0.96866686
1.0362662
1.100732
1.1641173
1.2184754
1.2337512
1.2287586
1.2302219
1.225822
1.2254817
1.2212917
1.2191731
1.2145191
1.210484
1.2045715
1.1982152
1.190146
1.1807698
1.1694537
1.1560483
1.140205
1.1215896
1.1000364
1.0753767
1.0478118
1.0177546
0.98597978
0.95341111
0.92129482
0.89119208
0.86455003
0.84205491
0.82369917
0.80908011
0.79748144
0.78835743
0.78121279
0.77559103
0.77113278
0.76751952
0.76457862
0.76202861
0.76002659
0.75847679
0.75669834
0.75534693
0.75478884
0.75249112
0.76577522
0.8888136
0.96772735
1.0360214
1.1012157
1.1653787
1.2179515
1.2312602
1.2260694
1.2275669
1.2230359
1.2226692
1.2183611
1.216153
1.2113731
1.2071878
1.2011157
1.1945443
1.1862497
1.1765764
1.1649378
1.1511424
1.1348789
1.1158064
1.0938018
1.0687485
1.0409485
1.0109464
0.97963651
0.94798646
0.91710362
0.88824784
0.86260864
0.84081218
0.82292016
0.80859794
0.79718991
0.78818905
0.78111757
0.77553768
0.77109862
0.76749716
0.7645438
0.76199562
0.76001339
0.75845217
0.75662758
0.75527243
0.75454359
0.75248511
0.76330398
0.8872185
0.96681278
1.0357681
1.1016505
1.1666319
1.2170993
1.2286056
1.223263
1.2247957
1.2201365
1.2197422
1.2153166
1.2130165
1.2081106
1.2037721
1.1975373
1.1907434
1.1822138
1.1722311
1.1602568
1.1460568
1.1293573
1.1098088
1.0873326
1.0618647
1.0338103
1.0038397
0.97295555
0.94215962
0.91244866
0.88482981
0.86025352
0.83925094
0.8218966
0.80793845
0.79677317
0.78793272
0.78096144
0.77544236
0.77103723
0.76745592
0.76449977
0.76196026
0.76000093
0.75842259
0.75653268
0.75517802
0.754153
0.75253084
0.76092061
0.88568494
0.96595802
1.0355668
1.1021168
1.1679776
1.215987
1.2258055
1.2203397
1.2218973
1.2171117
1.2166827
1.2121431
1.2097458
1.2047159
1.2002171
1.1938157
1.1867883
1.1780137
1.167709
1.1553872
1.1407705
1.1236208
1.1035816
1.0806189
1.054725
1.0264097
0.99646057
0.96597191
0.93596766
0.90735388
0.88093553
0.85744796
0.83730442
0.8205764
0.80705753
0.79619402
0.78755773
0.78071841
0.7752828
0.77092825
0.76737762
0.76442761
0.76190562
0.75997556
0.75837985
0.75645487
0.7550664
0.75387547
0.75255475
0.75858892
0.88418913
0.96513175
1.03539
1.1025795
1.1693469
1.2145638
1.2229026
1.2172915
1.2188712
1.2139658
1.2134983
1.2088478
1.2063468
1.2011902
1.1965205
1.1899433
1.182668
1.1736346
1.162993
1.1503075
1.1352563
1.1176358
1.097085
1.073617
1.0472871
1.0187132
0.98879557
0.9587054
0.92947481
0.90192459
0.87668592
0.85430306
0.83506558
0.81901833
0.80599345
0.79547798
0.78708153
0.78040116
0.77506889
0.77078002
0.76726969
0.76433534
0.76183909
0.75994218
0.75832651
0.75636222
0.75493867
0.7536147
0.75258005
0.75631154
0.88272868
0.96434915
1.035262
1.1030633
1.1707362
1.2128398
1.2198955
1.2141376
1.2157324
1.2107101
1.2101958
1.2054339
1.2028191
1.1975308
1.1926775
1.1859145
1.1783775
1.1690724
1.1580797
1.1450144
1.1295107
1.1113979
1.0903151
1.066325
1.0395545
1.0107328
0.98086729
0.95119022
0.9227274
0.89621573
0.87213536
0.85086149
0.83256055
0.81723984
0.80475575
0.79462952
0.78650571
0.78000956
0.77479957
0.77059077
0.76713023
0.76422062
0.76175858
0.75989849
0.75826158
0.75626428
0.75478524
0.75341434
0.75260431
0.75410745
0.88133451
0.9636322
1.0352044
1.1035923
1.1721195
1.2108237
1.2167779
1.2108864
1.2124865
1.2073486
1.2067776
1.2019025
1.1991621
1.1937357
1.1886855
1.1817269
1.1739148
1.1643253
1.1529671
1.1395038
1.1235265
1.1048974
1.0832604
1.0587322
1.0315205
1.0024697
0.97268818
0.94345353
0.91577015
0.89028815
0.86735138
0.84718551
0.8298394
0.8152753
0.80336714
0.79366332
0.78583971
0.77954974
0.77447899
0.77036333
0.76696147
0.76408539
0.76166565
0.75984559
0.75818513
0.75615485
0.75459943
0.75326267
0.75262004
0.7519861
0.88001133
0.96298259
1.0352235
1.1041856
1.1734527
1.2085147
1.2135563
1.2075369
1.2091324
1.2038802
1.2032413
1.1982502
1.1953718
1.1898014
1.1845423
1.1773793
1.16928
1.1593938
1.1476549
1.1337734
1.1173001
1.0981298
1.075917
1.0508376
1.0231903
0.99393755
0.96428086
0.93552684
0.90864354
0.88419009
0.8623852
0.84332188
0.82693912
0.81315194
0.80184608
0.79259135
0.78509111
0.77902638
0.77410999
0.77009925
0.76676436
0.76393019
0.76156048
0.75978299
0.75809689
0.75603263
0.7543925
0.75315136
0.7526247
0.74994691
0.87875834
0.96239427
1.0353164
1.1048592
1.1746807
1.2059037
1.2102264
1.2040868
1.2056672
1.2003017
1.1995828
1.194473
1.1914454
1.1857265
1.1802479
1.1728724
1.1644744
1.1542782
1.1421416
1.1278194
1.1108255
1.0910882
1.0682789
1.0426383
1.0145674
0.98514812
0.95566604
0.92743936
0.9013852
0.87796661
0.85728538
0.83931658
0.82389816
0.8108986
0.80021294
0.79142746
0.78426912
0.77844551
0.77369654
0.76980108
0.76654069
0.76375653
0.76144465
0.75970991
0.75799552
0.75589043
0.75418621
0.75305966
0.75262371
0.74795788
0.87756125
0.96185142
1.035471
1.1056203
1.1757687
1.2029595
1.2067906
1.2005344
1.2020867
1.1966082
1.1957979
1.1905689
1.1873828
1.1815122
1.175804
1.1682078
1.1594991
1.1489778
1.1364243
1.1216363
1.1040967
1.0837666
1.0603412
1.0341341
1.0056592
0.97611803
0.94686806
0.91922166
0.89403085
0.87165769
0.85209388
0.8352094
0.8207503
0.80854162
0.79848696
0.79018512
0.78338288
0.77781321
0.77324264
0.76947133
0.76629223
0.76356598
0.76132001
0.75962682
0.75787809
0.75572016
0.75399456
0.7529809
0.75261972
0.74601182
0.87642625
0.96135311
1.0356822
1.1064834
1.1766667
1.1995655
1.2032429
1.1968732
1.1983846
1.1927965
1.1918871
1.1865408
1.1831876
1.1771613
1.171213
1.1633868
1.1543541
1.1434901
1.1304978
1.1152175
1.097106
1.0761575
1.0520985
1.0253247
0.99647391
0.96686422
0.93791119
0.91090325
0.88661389
0.86529978
0.8468485
0.83103649
0.81752692
0.806106
0.79668687
0.7888778
0.78244182
0.77713592
0.77275265
0.76911282
0.76602103
0.76336041
0.76118813
0.75953442
0.75774031
0.75551736
0.75382602
0.75291201
0.75261487
0.74410265
0.87532952
0.96089327
1.0359386
1.1074607
1.1773126
1.1959051
1.1995695
1.1930997
1.1945639
1.1888734
1.1878574
1.1823943
1.1788632
1.1726756
1.1664759
1.1584096
1.149038
1.1378104
1.1243554
1.1085548
1.0898454
1.0682535
1.0435461
1.016212
0.9870226
0.95740682
0.92882199
0.90251438
0.87916654
0.85892636
0.84158309
0.82683005
0.81425624
0.80361473
0.7948304
0.78751859
0.78145525
0.77642014
0.77223098
0.76872846
0.76572919
0.76314186
0.76105033
0.75943139
0.75757696
0.75529045
0.75367963
0.75285178
0.75261053
0.74222746
0.87426881
0.96047997
1.0362402
1.1085623
1.1776505
1.1924237
1.1957906
1.1892319
1.1906408
1.1848494
1.1837144
1.178131
1.1744101
1.1680556
1.1615937
1.1532751
1.1435466
1.1319319
1.1179886
1.1016397
1.0823062
1.0600464
1.0346792
1.0067987
0.97731764
0.94776696
0.91962727
0.89408445
0.87171909
0.85256795
0.83632786
0.82261872
0.81096362
0.80108883
0.79293409
0.78611998
0.78043229
0.77567233
0.77168212
0.7683212
0.76541895
0.76291252
0.76090805
0.75931501
0.75738173
0.75505701
0.75354871
0.7527989
0.75260754
0.74044454
0.8732953
0.96014981
1.036627
1.1098233
1.1776791
1.1886791
1.1919263
1.1852786
1.1866163
1.1807228
1.179455
1.1737494
1.1698288
1.1633024
1.156566
1.1479797
1.1378735
1.1258457
1.1113886
1.0944629
1.0744789
1.0515278
1.0254941
0.99709
0.9673748
0.93796875
0.91035569
0.88564334
0.86430083
0.84625286
0.83111011
0.8184281
0.80767177
0.79854735
0.79101326
0.78469381
0.77938174
0.77489887
0.77111052
0.76789404
0.76509262
0.76267459
0.76076235
0.75918328
0.75714847
0.7548312
0.7534299
0.75275312
0.75260629
0.73871946
0.87237816
0.95988969
1.037079
1.1112077
1.1773539
1.1848108
1.1879592
1.1812254
1.1824802
1.1764885
1.1750786
1.1692511
1.1651214
1.1584162
1.1513896
1.1425165
1.1320097
1.1195426
1.1045461
1.0870149
1.0663536
1.0426892
1.0159876
0.9870928
0.95721138
0.92803735
0.90103595
0.87721998
0.8569392
0.84000681
0.82595412
0.8142807
0.80440071
0.79600729
0.78908186
0.78325107
0.77831193
0.77410589
0.77052054
0.76744993
0.76475257
0.76243011
0.76061325
0.75903446
0.75687614
0.75462136
0.75332206
0.7527129
0.75260689
0.73701439
0.87149027
0.95968675
1.037587
1.1126816
1.1765783
1.1807602
1.1838891
1.1770745
1.1782361
1.1721508
1.1705901
1.1646397
1.1602888
1.1533938
1.146058
1.1368763
1.1259457
1.1130132
1.0974517
1.0792854
1.0579194
1.0335221
1.006159
0.97681733
0.94684854
0.91800074
0.89169822
0.86884335
0.84966064
0.83385366
0.82088176
0.81019649
0.8011681
0.7934838
0.78715252
0.78180193
0.77723071
0.77329923
0.76991637
0.76699181
0.76440128
0.76218093
0.76045961
0.75886651
0.7565754
0.75442694
0.753224
0.75267735
0.7526093
0.73534709
0.87065743
0.95956704
1.0381728
1.1142299
1.1752891
1.1766416
1.1797226
1.1728344
1.1738916
1.1677156
1.1659929
1.1599153
1.1553269
1.1482271
1.1405609
1.1310486
1.1196725
1.1062486
1.0900955
1.0712632
1.0491647
1.0240183
0.99600864
0.96627598
0.93630915
0.90788773
0.88237235
0.8605413
0.84248974
0.82781497
0.81591225
0.80619277
0.79798918
0.79099007
0.78523653
0.78035565
0.77614534
0.77248438
0.769302
0.7665226
0.76404135
0.76192868
0.76029904
0.75867672
0.7562634
0.75424292
0.75313451
0.75264594
0.75261345
0.73369662
0.86987571
0.95953554
1.0388572
1.1158109
1.1735515
1.1724484
1.1754667
1.1685111
1.1694521
1.1631843
1.1612846
1.1550713
1.1502263
1.1429051
1.1348882
1.1250244
1.1131819
1.0992397
1.0824667
1.0629354
1.0400771
1.0141709
0.98554046
0.95548548
0.92561985
0.89772946
0.87308907
0.85234143
0.83545005
0.8219106
0.81106269
0.80228461
0.79487709
0.78853758
0.78334388
0.7789206
0.77506246
0.77166641
0.76868118
0.76604517
0.76367552
0.76167485
0.76012824
0.75846016
0.75595188
0.75406883
0.75305334
0.75261884
0.75261936
0.73210517
0.86918271
0.95963216
1.0396945
1.1173984
1.1713686
1.1681573
1.1711267
1.1641024
1.1649128
1.1585498
1.1564553
1.1500963
1.1449752
1.137417
1.1290311
1.1187966
1.1064663
1.0919766
1.0745525
1.0542882
1.0306441
1.0039742
0.97476044
0.94446507
0.91480885
0.88755745
0.8638785
0.84426997
0.82856325
0.81615822
0.80634778
0.7984847
0.79184283
0.78613613
0.7814833
0.77750428
0.77398809
0.77084994
0.76805735
0.76556239
0.76330672
0.76142089
0.75994377
0.75821032
0.75564964
0.75390591
0.75298058
0.75259595
0.75262703
0.73055385
0.8685528
0.95984783
1.0406928
1.1189022
1.1687119
1.1637734
1.1666935
1.1595971
1.160262
1.1538
1.1514924
1.1449782
1.1395634
1.131755
1.1229844
1.1123589
1.0995172
1.0844472
1.0663387
1.0453065
1.0208537
0.99342503
0.96367926
0.9332386
0.90390804
0.8774052
0.85477146
0.83635275
0.82184972
0.81057373
0.80178024
0.79480368
0.78889557
0.7837941
0.77966235
0.77611333
0.7729276
0.77003915
0.76743366
0.76507709
0.76293793
0.76116821
0.75974279
0.75792206
0.75536397
0.75375552
0.75291588
0.75257587
0.75263667
0.72903768
0.86797027
0.96016758
1.0418727
1.1202375
1.1655362
1.1592841
1.162162
1.1549847
1.1554879
1.1489223
1.1463846
1.1397083
1.1339855
1.1259153
1.1167435
1.1057041
1.0923238
1.0766374
1.0578092
1.0359746
1.0106941
0.98252259
0.9523105
0.92183248
0.89295056
0.86730644
0.84579806
0.82861403
0.81532761
0.80517061
0.79737062
0.79125008
0.78604279
0.78151838
0.77788735
0.77475348
0.77188574
0.76923774
0.76681293
0.764592
0.76257215
0.76091811
0.75952357
0.75759499
0.75509984
0.75361785
0.75285825
0.75255873
0.75264939
0.72755881
0.86742297
0.96056971
1.0432558
1.1213243
1.1618134
1.1546758
1.1575111
1.1502514
1.1505784
1.1439079
1.1411264
1.1342838
1.1282399
1.1198949
1.1103035
1.0988225
1.0848721
1.0685307
1.0489466
1.0262766
1.0001558
0.97127025
0.94067326
0.91027797
0.88197301
0.85729688
0.83698897
0.82107725
0.80901312
0.79995999
0.79312776
0.7878307
0.78329056
0.77931455
0.77616358
0.77342951
0.77086667
0.76844896
0.76619767
0.76410973
0.76221208
0.76067147
0.75928584
0.75723551
0.75485661
0.75349178
0.75280681
0.75254489
0.75266468
0.7260743
0.86688238
0.96101177
1.0448386
1.1220517
1.1575772
1.1499324
1.1527276
1.145387
1.1455298
1.1387572
1.1357195
1.1287057
1.1223259
1.1136895
1.1036554
1.0917008
1.0771458
1.0601092
1.0397329
1.0161962
0.9892307
0.95967443
0.92879013
0.89860881
0.87101329
0.84741244
0.8283737
0.81376334
0.80291946
0.79495017
0.78905858
0.7845508
0.7806437
0.77718667
0.77449534
0.77214525
0.76987399
0.76767558
0.76559016
0.76363272
0.76186
0.76042834
0.75903081
0.75685764
0.75462786
0.75337568
0.75276111
0.75253415
0.75268127
0.72460189
0.86635351
0.96151042
1.0466798
1.122374
1.153259
1.1450536
1.1478228
1.1403961
1.1403471
1.1334746
1.1301665
1.1229735
1.1162393
1.1072906
1.0967868
1.0843224
1.0691268
1.0513542
1.0301491
1.0057185
0.97791431
0.94774751
0.91668965
0.88686393
0.8601128
0.83769048
0.81998064
0.80669048
0.79705727
0.79014755
0.78516835
0.78141472
0.77810571
0.7751373
0.7728862
0.77090385
0.76891071
0.76691997
0.76499242
0.76316323
0.76151752
0.76018748
0.75875994
0.75647641
0.75440973
0.75326867
0.75272096
0.75252671
0.75269861
0.72312117
0.86582629
0.96203429
1.0487655
1.1222028
1.1489131
1.1400735
1.1428174
1.1352975
1.1350381
1.1280602
1.1244651
1.1170817
1.1099717
1.100685
1.0896812
1.0766686
1.0607956
1.0422459
1.0201761
0.99482903
0.96620483
0.93550562
0.90440426
0.87508469
0.84931368
0.82816651
0.81183337
0.7998717
0.7914344
0.78555782
0.78146032
0.77842586
0.77567822
0.77316758
0.77133912
0.76970824
0.76797918
0.76618402
0.76440635
0.76270336
0.76118546
0.75994588
0.75847263
0.75610283
0.75420362
0.75317092
0.7526863
0.75252268
0.75271766
0.7217065
0.8653654
0.96262527
1.0511379
1.1215016
1.1442261
1.1350085
1.1377107
1.130086
1.1296001
1.1225099
1.1186079
1.1110207
1.1035102
1.0938565
1.0823203
1.0687201
1.0521325
1.0327643
1.0097945
0.98351583
0.95410587
0.92297221
0.89197296
0.86331719
0.83865964
0.81887299
0.80394897
0.79331525
0.78605767
0.78118856
0.77793592
0.77558651
0.77336028
0.77127826
0.76985644
0.76856183
0.76708101
0.76546924
0.76383367
0.76225513
0.76086393
0.75969876
0.75816449
0.75574491
0.7540121
0.75308297
0.75265758
0.7525224
0.75273833
0.72033793
0.86494879
0.96324408
1.0537459
1.1202089
1.1393498
1.1298287
1.1324792
1.1247427
1.1240247
1.1168173
1.1125858
1.1047769
1.0968384
1.0867863
1.0746849
1.0604571
1.0431174
1.022888
0.99898444
0.97176869
0.94162533
0.91017548
0.87943849
0.8516088
0.82819168
0.80983379
0.79633569
0.78702612
0.78093444
0.77704962
0.77459533
0.77289627
0.7711479
0.76947116
0.7684394
0.76746853
0.76621707
0.76477671
0.76327596
0.76182044
0.76055248
0.75944069
0.75782815
0.75541043
0.75383721
0.75300488
0.75263489
0.75252623
0.75275986
0.71895918
0.86455873
0.96387653
1.0565172
1.1182642
1.1342605
1.1245325
1.1271194
1.1192682
1.1182996
1.1109718
1.1063854
1.098333
1.0899375
1.0794551
1.0667561
1.0518597
1.0337288
1.0125947
0.98772704
0.95958178
0.92877854
0.89715163
0.86684983
0.84000923
0.81794631
0.80106265
0.78899807
0.78101347
0.77607527
0.77314931
0.77143928
0.77034993
0.76903597
0.76775034
0.76708785
0.76643107
0.76538799
0.76410717
0.76273462
0.76140102
0.76025035
0.75916758
0.75745876
0.75510642
0.75367984
0.75293606
0.75261638
0.75253264
0.7527818
0.71759454
0.8642207
0.96457844
1.0594199
1.1156664
1.1291215
1.1191197
1.1216277
1.1136507
1.1124132
1.1049554
1.0999882
1.0916706
1.0827893
1.0718445
1.0585154
1.0429074
1.0239437
1.0018604
0.9760041
0.94695322
0.91558676
0.88394218
0.85425881
0.82856561
0.80794944
0.79256408
0.78194787
0.77529823
0.77149342
0.76948443
0.7684704
0.76793624
0.7670232
0.76612068
0.76580109
0.76544744
0.76459482
0.76346109
0.7622108
0.76099828
0.75995668
0.7588781
0.7570608
0.75483402
0.75353905
0.75287557
0.7526011
0.75254078
0.75280406
0.71623393
0.86394221
0.96536147
1.0623262
1.1123608
1.1237864
1.1135831
1.1159895
1.1078776
1.1063516
1.098745
1.093375
1.0847726
1.0753779
1.0639365
1.0499434
1.0335776
1.0137364
0.99066049
0.96380035
0.9338884
0.90208038
0.87059697
0.84172115
0.81732098
0.79821581
0.78434702
0.77521807
0.76990734
0.76719741
0.76603972
0.76569126
0.76564125
0.76511818
0.76458248
0.7645805
0.76450784
0.76383952
0.76283874
0.76170544
0.76061307
0.75967042
0.75857359
0.75665085
0.75458519
0.75341248
0.75282322
0.75258909
0.75255089
0.75282698
0.71484304
0.86370721
0.96626297
1.0651004
1.1083018
1.1182984
1.1079027
1.1101841
1.1019311
1.1000988
1.0923286
1.0865316
1.0776241
1.0676878
1.055713
1.0410188
1.0238452
1.0030791
0.97897002
0.95110354
0.9203992
0.88829655
0.85717044
0.82929086
0.80630793
0.7887521
0.77644463
0.76884959
0.76485942
0.7631801
0.76279824
0.76309657
0.76345887
0.76333189
0.76313063
0.76343171
0.76359811
0.76312407
0.76224025
0.76121936
0.76024559
0.75939017
0.75825684
0.75624492
0.75435244
0.75329856
0.75277955
0.75258103
0.75256427
0.75285079
0.71335914
0.86348745
0.96729701
1.0676174
1.1035592
1.1126184
1.1020561
1.1041962
1.095801
1.0936453
1.0857004
1.0794459
1.0702094
1.0597029
1.0471532
1.0317168
1.0136813
0.99194168
0.96676517
0.93790805
0.90650711
0.87428289
0.84372286
0.81701928
0.79554854
0.77957494
0.76891307
0.76287476
0.76015504
0.75940965
0.75975366
0.76066639
0.7614032
0.76165509
0.76176436
0.76235959
0.76271376
0.76244766
0.76166572
0.76075338
0.75989542
0.75911354
0.75792955
0.75585134
0.75413565
0.75319669
0.75274484
0.75257744
0.75258073
0.75287544
0.71177597
0.86328985
0.96849213
1.0697553
1.0987088
1.1067599
1.0960434
1.0980254
1.089485
1.0869845
1.0788475
1.0721043
1.062512
1.0514046
1.0382332
1.0220089
1.0030543
0.98029291
0.95402468
0.92421448
0.89224225
0.86009345
0.83031485
0.80494809
0.78505522
0.77073245
0.76180382
0.75731147
0.75575653
0.75586042
0.7569094
0.75838044
0.75948669
0.7600741
0.76048487
0.76135931
0.76186669
0.76180367
0.76111546
0.76030834
0.75956177
0.75883659
0.75758972
0.75547857
0.75393665
0.7531061
0.75271738
0.75257872
0.75260071
0.75290091
0.71014807
0.86313502
0.96987627
1.0714306
1.0934629
1.1007415
1.0898664
1.0916664
1.0829724
1.0800995
1.0717485
1.0644945
1.0545138
1.0427713
1.0289244
1.0118619
0.9919296
0.96810181
0.94073227
0.91003357
0.8776465
0.84579112
0.81700644
0.7931097
0.77484746
0.76229986
0.75515642
0.75213809
0.75161676
0.75254232
0.75426093
0.75623456
0.75770127
0.75858898
0.75928545
0.76042175
0.76107426
0.76118152
0.7605904
0.75988499
0.75924352
0.7585542
0.75723115
0.75513624
0.75375831
0.75302671
0.75269511
0.75258483
0.7526234
0.75292757
0.70850373
0.86302149
0.97145032
1.0725406
1.0878167
1.0945578
1.0835145
1.0851025
1.0762477
1.0729685
1.0643849
1.0565998
1.0461923
1.0337754
1.0191926
1.0012391
0.98027135
0.95533873
0.92687729
0.89538508
0.86277062
0.83144158
0.80385042
0.78152613
0.76497904
0.75434265
0.74898719
0.7472921
0.74773264
0.74945839
0.75179913
0.75422837
0.75603845
0.75719371
0.75815958
0.75954243
0.76034322
0.76057616
0.76009229
0.75948355
0.7589391
0.75826179
0.75684862
0.75483192
0.75360302
0.75296099
0.75267938
0.7525949
0.75264849
0.75295565
0.70687833
0.8629752
0.97318529
1.0729524
1.0818187
1.0881937
1.0769708
1.0783116
1.0692908
1.0655748
1.0567442
1.0483988
1.0375195
1.024383
1.0089995
0.99010093
0.96804333
0.94197747
0.91245819
0.88030163
0.84767662
0.8171132
0.79089252
0.77022181
0.75553868
0.74690694
0.7432602
0.74273151
0.74412079
0.74659954
0.74951556
0.752359
0.75448943
0.75588461
0.7571049
0.7587213
0.7596636
0.75998956
0.75962301
0.75910345
0.75864597
0.75795769
0.75644719
0.75456533
0.7534703
0.75291064
0.7526731
0.75260966
0.75267588
0.7529851
0.70533759
0.86305974
0.97504754
1.0722598
1.0754929
1.0816221
1.0702131
1.0712734
1.0620855
1.0579062
1.0488096
1.0398659
1.0284607
1.0145536
0.99830373
0.97840726
0.9552101
0.92799641
0.8974825
0.8648268
0.83243255
0.80286984
0.77816821
0.75924772
0.74660984
0.74001429
0.73789786
0.73846952
0.74077649
0.74395694
0.74740152
0.75062272
0.75304549
0.75465776
0.75612185
0.7579587
0.75902487
0.75942332
0.75918299
0.75874347
0.7583605
0.7576437
0.75604424
0.75432742
0.75335665
0.7528729
0.7526741
0.75262961
0.75270526
0.75301545
0.70390439
0.86332683
0.97696174
1.0707332
1.0688994
1.0748195
1.0632282
1.0639818
1.0546271
1.0499486
1.0405551
1.0309638
1.0189718
1.0042442
0.98706389
0.96611768
0.94173827
0.91338124
0.88197112
0.84901809
0.81711325
0.78877087
0.76570967
0.74869681
0.73825487
0.73362995
0.73285772
0.7345201
0.73769047
0.74152012
0.7454486
0.7490144
0.7516985
0.75350996
0.75520933
0.75724965
0.75842318
0.75888158
0.75876847
0.75840247
0.75807893
0.75732281
0.75565474
0.75411121
0.75325799
0.75284395
0.75267908
0.75265262
0.75273602
0.75304631
0.70255731
0.86381577
0.97875886
1.0682631
1.0619727
1.0677981
1.0560209
1.0564292
1.0469016
1.0416743
1.031939
1.0216462
1.0090055
0.99341259
0.97523924
0.95319179
0.92759661
0.89812621
0.86595691
0.83294261
0.80179204
0.7748665
0.75356107
0.738675
0.73050683
0.7276697
0.72815528
0.73087755
0.73485127
0.73927836
0.74364807
0.74752684
0.75044198
0.75243784
0.75436362
0.75658789
0.75785731
0.75837285
0.75837139
0.75807972
0.75779904
0.75699553
0.755287
0.7539156
0.75317181
0.75282133
0.75268661
0.75267802
0.75276804
0.75307742
0.70130511
0.86454529
0.98045584
1.0648606
1.0547841
1.0605481
1.0485742
1.0485828
1.0388666
1.0330353
1.02291
1.0118682
0.99851911
0.98201756
0.9627882
0.9395884
0.91275878
0.88223781
0.84948908
0.81667776
0.78654071
0.76120119
0.74181208
0.72926708
0.72334582
0.72207749
0.72380756
0.72753047
0.73224658
0.73722062
0.74199104
0.74615189
0.74927048
0.75143767
0.75357891
0.7559673
0.75732597
0.75790512
0.75798568
0.75777393
0.75752228
0.75665799
0.75494819
0.7537412
0.75309756
0.7528049
0.75270187
0.75270647
0.75280131
0.75310865
0.70029521
0.86563853
0.9818619
1.060399
1.0472997
1.0530271
1.0408432
1.0403904
1.0304612
1.0239769
1.0134188
1.0015955
0.98747476
0.97001607
0.94966613
0.925266
0.89720486
0.86573569
0.83262964
0.80030464
0.77142392
0.74781981
0.73058596
0.72052366
0.71668987
0.71685969
0.71981117
0.72446517
0.72986328
0.7353357
0.74046844
0.74488162
0.74817864
0.75050531
0.75284901
0.7553849
0.75682874
0.75747678
0.7576139
0.75748151
0.75723331
0.75630389
0.75464511
0.75358926
0.75303645
0.75279611
0.75272127
0.75273837
0.75283634
0.75313994
0.69936171
0.867118
0.98283566
1.0547884
1.0394945
1.0451714
1.0327691
1.0317936
1.0216357
1.0144594
1.0034321
0.99079495
0.97583194
0.95735971
0.93582415
0.91018519
0.88092591
0.84865702
0.81545524
0.78390699
0.75650339
0.73480139
0.71999446
0.7124534
0.71045879
0.71204104
0.71615275
0.72166697
0.72768808
0.73361247
0.73907126
0.74370834
0.74716133
0.74963631
0.7521686
0.75484011
0.75636588
0.75708065
0.75726344
0.75719505
0.75695082
0.75593069
0.75438282
0.75346105
0.75299013
0.75279477
0.75274442
0.75277219
0.7528725
0.75317221
0.6984389
0.86897983
0.98314365
1.0479786
1.0313028
1.0369114
1.0243007
1.0227541
1.0123656
1.0044611
0.9929204
0.97942445
0.96354103
0.94399313
0.9212108
0.89431154
0.86392622
0.83105483
0.79805052
0.76756357
0.74183603
0.72227337
0.7101143
0.70498905
0.70463936
0.70762401
0.71281653
0.71912023
0.72570746
0.73203984
0.73779051
0.74262466
0.7462135
0.74882623
0.75153377
0.75433205
0.75593483
0.75671242
0.75693913
0.75690989
0.75665111
0.75555347
0.75415574
0.75335472
0.75295783
0.75279895
0.75276808
0.75280417
0.75290661
0.75321006
0.69734673
0.871192
0.98252706
1.0406109
1.0227144
1.0282287
1.0154392
1.013266
1.0026323
0.99395348
0.98184097
0.96742967
0.95054312
0.92985565
0.90577501
0.87762046
0.8462286
0.81300082
0.78050781
0.75135121
0.72749247
0.71038209
0.70098498
0.69802426
0.69926616
0.70359327
0.70978529
0.71680903
0.72390802
0.73060695
0.73661745
0.74162355
0.74533022
0.74807069
0.75094152
0.7538598
0.75553385
0.75636919
0.75663721
0.75662591
0.75635293
0.75519211
0.7539539
0.75326577
0.75293576
0.75280694
0.75279126
0.75283248
0.75293541
0.7532567
0.69609497
0.87384116
0.9809063
1.0333392
1.0137702
1.0191421
1.0061851
1.0033173
0.99239706
0.98288704
0.97013294
0.95474429
0.93677369
0.91488438
0.88946965
0.86010052
0.82787489
0.79458044
0.7629192
0.73534322
0.71359356
0.69923966
0.69256594
0.69151789
0.69435017
0.69993106
0.7070405
0.71471712
0.72227635
0.72930307
0.73554347
0.74069823
0.74450663
0.74736552
0.75038967
0.75342291
0.75516268
0.75604986
0.75635026
0.75634634
0.75604236
0.75485592
0.75377566
0.75318984
0.75291901
0.75281918
0.75281552
0.75286088
0.75296276
0.7533061
0.6945784
0.87692835
0.97818495
1.0251074
1.0045014
1.0096163
0.99649861
0.99285144
0.98159557
0.97119776
0.95771851
0.94130006
0.92216441
0.89901607
0.87225474
0.84175858
0.80892851
0.77589283
0.745378
0.71961875
0.70030525
0.68890995
0.68474907
0.68550359
0.68987543
0.69661729
0.70456322
0.71282839
0.72079945
0.72811782
0.7345603
0.73984225
0.74373802
0.74670698
0.74987711
0.75302109
0.75481968
0.75574901
0.75607351
0.75607046
0.75573266
0.75455171
0.75362167
0.75312591
0.75290562
0.75283263
0.75284174
0.7528917
0.75299377
0.75335442
0.69289256
0.88037906
0.97428501
1.0161851
0.99483286
0.99957098
0.98629042
0.98179216
0.97015706
0.95881865
0.94452457
0.92702163
0.90664508
0.88218987
0.8541026
0.82262222
0.78947184
0.75704211
0.72797688
0.70428782
0.68777628
0.67939269
0.67746269
0.68000027
0.68582281
0.69363044
0.70233408
0.71112684
0.71946457
0.72704118
0.73365997
0.73904944
0.74301988
0.7460919
0.74940368
0.75265352
0.75450249
0.75546376
0.75580342
0.75579654
0.75543067
0.75428618
0.75349408
0.75307768
0.75289897
0.75284779
0.75286718
0.75292269
0.75303184
0.75339894
0.69094544
0.88388752
0.96909596
1.0065953
0.98468164
0.98892556
0.97548649
0.9700741
0.95801566
0.94567829
0.93047891
0.91183137
0.89014173
0.86434965
0.83500304
0.80274406
0.76960596
0.73813615
0.71081135
0.68951958
0.67611271
0.67060043
0.6707137
0.67500259
0.68216922
0.69094834
0.70033398
0.709597
0.71825953
0.72606353
0.73283489
0.73831402
0.74234805
0.7455178
0.74896963
0.75231831
0.75420726
0.75518956
0.75553754
0.75552353
0.75512252
0.7540647
0.75339259
0.75304587
0.7529009
0.75286584
0.75289177
0.75295095
0.75307503
0.7534412
0.68873034
0.88718688
0.96272666
0.99642116
0.97400893
0.97762175
0.96403557
0.95764568
0.94510509
0.9316988
0.91550093
0.89564351
0.87257842
0.84544977
0.81496827
0.78220047
0.74944342
0.71928243
0.6939874
0.67550498
0.66535776
0.66242689
0.66453556
0.6704883
0.67888971
0.68854802
0.69854379
0.70822368
0.71717247
0.7251756
0.73207777
0.73763046
0.74171873
0.74498278
0.74857488
0.75201248
0.7539301
0.75492341
0.75527402
0.7552531
0.75482177
0.7538817
0.75331185
0.75302517
0.75290728
0.75288695
0.75291845
0.75298025
0.75311967
0.75348046
0.68624121
0.89019085
0.95524314
0.98548373
0.96276825
0.96561576
0.95187811
0.94444341
0.93134243
0.91679582
0.89949501
0.87836393
0.85388232
0.82546272
0.79403915
0.76109357
0.72910739
0.70059777
0.6776745
0.66239489
0.65545694
0.65484578
0.65893442
0.66643166
0.67595811
0.68640671
0.69694497
0.70699233
0.71619212
0.72436857
0.73138169
0.73699363
0.7411286
0.74448536
0.74821847
0.75173192
0.75366671
0.75466268
0.75501281
0.75498853
0.75454309
0.75372416
0.75324573
0.75301194
0.75291871
0.75291049
0.75294723
0.75301145
0.75316417
0.75351716
0.68321338
0.89289063
0.94665847
0.9737854
0.95090407
0.95284623
0.93894113
0.93037534
0.91661688
0.9008734
0.88235612
0.85989515
0.83399143
0.8043867
0.77228631
0.73954506
0.70872623
0.68220994
0.66209282
0.65027217
0.64628217
0.64790115
0.65388583
0.66280362
0.67334727
0.68450163
0.69551939
0.70588892
0.71530766
0.72363398
0.73074009
0.73639873
0.7405746
0.74402405
0.74789841
0.75147192
0.75341334
0.75440597
0.75475496
0.75473199
0.75428789
0.75358683
0.75319047
0.75300317
0.75293403
0.75293661
0.75297794
0.75304403
0.75320846
0.75355169
0.67933606
0.89517415
0.93701183
0.96126346
0.9383472
0.93922266
0.92511474
0.91532461
0.90080132
0.88380777
0.86397161
0.84014369
0.81286386
0.78225201
0.74981217
0.71769382
0.68844032
0.66428898
0.64743837
0.63912229
0.63777627
0.64161026
0.64936187
0.65957364
0.67103019
0.68281075
0.69424979
0.7049002
0.71450889
0.72296388
0.73014683
0.73584128
0.74005369
0.74359681
0.747612
0.75122768
0.75316699
0.75415283
0.75450194
0.75448572
0.7540568
0.75346687
0.75314469
0.753
0.75295342
0.75296559
0.75301042
0.75307781
0.75325235
0.75358421
0.67443405
0.8968977
0.92632682
0.94784905
0.92498945
0.92462008
0.9102532
0.899152
0.8837587
0.86545514
0.84422731
0.8190335
0.79048723
0.75912467
0.72674543
0.69568866
0.66840074
0.64706564
0.6338406
0.62882714
0.62997848
0.63595171
0.64532904
0.65670977
0.66897984
0.68131254
0.69311954
0.7040135
0.71378609
0.72235072
0.72959607
0.73531696
0.73956268
0.74320092
0.74735599
0.75099478
0.75292565
0.75390369
0.75425525
0.75425125
0.75384932
0.7533643
0.75310945
0.75300085
0.75297459
0.75299531
0.753044
0.75311381
0.75329555
0.75361478
0.66831298
0.8974778
0.9144772
0.93339778
0.91068069
0.90887962
0.89418382
0.88170332
0.86533034
0.8456842
0.82302485
0.79651251
0.76688375
0.73510728
0.70323905
0.67369263
0.64878743
0.63078592
0.62132605
0.61930572
0.62291539
0.63089478
0.6417519
0.65417984
0.66716991
0.6799864
0.69211287
0.70321684
0.71313009
0.72178731
0.72908227
0.73482175
0.73909897
0.74283451
0.74712542
0.75076903
0.75268793
0.75365917
0.75401623
0.75402965
0.75366495
0.75327889
0.7530853
0.75300577
0.75299623
0.75302322
0.75307535
0.7531534
0.75333767
0.75364351
0.66095593
0.89731583
0.90112937
0.91772373
0.89523502
0.89183238
0.87673558
0.86283268
0.84536438
0.82437377
0.80028643
0.77255914
0.74211377
0.71033544
0.67946269