/*--------------------------------*- C++ -*----------------------------------*\
  =========                 |
  \\      /  F ield         | OpenFOAM: The Open Source CFD Toolbox
   \\    /   O peration     | Website:  https://openfoam.org
    \\  /    A nd           | Version:  8
     \\/     M anipulation  |
\*---------------------------------------------------------------------------*/
FoamFile
{
    version     2.0;
    format      ascii;
    class       surfaceScalarField;
    location    "0.140008";
    object      meshPhi;
}
// * * * * * * * * * * * * * * * * * * * * * * * * * * * * * * * * * * * * * //

dimensions      [0 3 -1 0 0 0 0];

internalField   nonuniform List<scalar> 
39600
(
6.8592617e-05
4.3399225e-06
-4.3837528e-06
6.8663895e-05
5.2088055e-06
-5.2936191e-06
6.8749527e-05
6.240233e-06
-6.3416518e-06
6.8854862e-05
7.4754986e-06
-7.5971389e-06
6.8982693e-05
8.9549013e-06
-9.1009195e-06
6.9138061e-05
1.0726788e-05
-1.0901931e-05
6.9323931e-05
1.2848696e-05
-1.3058623e-05
6.9549437e-05
1.5389248e-05
-1.5640778e-05
6.98158e-05
1.8430425e-05
-1.8731553e-05
7.013526e-05
2.2069721e-05
-2.2429854e-05
7.0523398e-05
2.6422466e-05
-2.6852894e-05
7.1007294e-05
3.1624969e-05
-3.2139178e-05
7.1627868e-05
3.7837346e-05
-3.8451475e-05
7.2419991e-05
4.5246981e-05
-4.5980442e-05
7.3394507e-05
5.4072059e-05
-5.4947122e-05
7.4630452e-05
6.4564974e-05
-6.5608693e-05
7.5726809e-05
7.7021082e-05
-7.826673e-05
7.6362186e-05
9.1801748e-05
-9.3281178e-05
7.6763386e-05
0.00010931059
-0.0001110561
7.7195165e-05
0.00012993903
-0.00013199833
7.8616675e-05
0.00015401418
-0.0001564595
8.2224544e-05
0.00018161565
-0.00018455445
8.8256897e-05
0.00021301141
-0.00021663495
9.971215e-05
0.00024795564
-0.00025252467
0.0001166898
0.00028626786
-0.00029228027
0.00014598317
0.00032662648
-0.00033475572
0.00018618842
0.00036727585
-0.00037820671
0.00024367028
0.00040465519
-0.00041958714
0.00030797872
0.00043704776
-0.00045753868
0.00037998223
0.00047208533
-0.00049952073
0.00046242193
0.00051295917
-0.00054946122
0.00055917191
0.00055961377
-0.00060757972
0.00068146739
0.00060607306
-0.00066888055
0.00083264066
0.00064477279
-0.00072607737
0.0010294744
0.00066716014
-0.00077202269
0.0012422204
0.00068062847
-0.00081461403
0.0014849203
0.00068667975
-0.00085385216
0.0017379121
0.00068677342
-0.00089056334
0.0020206932
0.00069085617
-0.00093471794
0.0023138049
0.00072473513
-0.0010144429
0.002640733
0.00079263103
-0.0011299927
0.0029375408
0.00083346256
-0.0012117549
0.003237373
0.00084246036
-0.0012554187
0.0034897602
0.0008850474
-0.0013296258
0.0037292012
0.00098519614
-0.0014474724
0.0037872022
0.0011413885
-0.0015995985
0.0036234179
0.0013804684
-0.0017966629
0.0034446901
0.0016864299
-0.0020314216
0.002865115
0.0020942723
-0.0023374388
0.001295704
-0.0013610716
5.5135753e-05
4.2862966e-06
5.5207365e-05
5.1446517e-06
5.5296131e-05
6.1633048e-06
5.5402206e-05
7.3834978e-06
5.5520573e-05
8.8451273e-06
5.565392e-05
1.0595517e-05
5.5797808e-05
1.2691829e-05
5.5959738e-05
1.5201645e-05
5.6138681e-05
1.8206054e-05
5.6348133e-05
2.1801081e-05
5.6599679e-05
2.6100837e-05
5.6921123e-05
3.1240144e-05
5.7337094e-05
3.7378026e-05
5.7872112e-05
4.4700624e-05
5.8514591e-05
5.3426027e-05
5.931474e-05
6.3803259e-05
6.0033438e-05
7.6123995e-05
6.0427821e-05
9.0742009e-05
6.067389e-05
0.00010805236
6.1064845e-05
0.0001284408
6.2444104e-05
0.00015220511
6.5826996e-05
0.00017944961
7.1614084e-05
0.00021032661
8.2356591e-05
0.00024452947
9.8615156e-05
0.00028164327
0.00012613508
0.00032017469
0.00016388828
0.00035848305
0.00021931457
0.0003922043
0.00028255019
0.00041940252
0.00035366471
0.0004477116
0.00043551978
0.00047993364
0.00053173258
0.0005153179
0.00065341559
0.00054741817
0.00080387768
0.00056766319
0.00099881431
0.00056660339
0.0012090261
0.00055169105
0.0014517387
0.00052487275
0.0017033738
0.00048873744
0.0019876982
0.00045309804
0.0022822185
0.00044212627
0.0026115328
0.000462188
0.0029140542
0.0004593154
0.0032190367
0.00042987742
0.003482831
0.00043956399
0.0037258865
0.00051896546
0.003809813
0.00067604104
0.0036466877
0.00095316714
0.0034874839
0.0013281429
0.0028812394
0.0018333911
0.0012184572
4.2386735e-05
4.2488868e-06
4.2237386e-05
5.1008609e-06
4.2099055e-05
6.1120825e-06
4.2005399e-05
7.323445e-06
4.1963539e-05
8.7743342e-06
4.1968127e-05
1.0511703e-05
4.2015984e-05
1.2592047e-05
4.2110091e-05
1.5082413e-05
4.2254373e-05
1.8062935e-05
4.2453923e-05
2.1628859e-05
4.2709945e-05
2.5893167e-05
4.3028682e-05
3.0990191e-05
4.3402512e-05
3.7078022e-05
4.3822148e-05
4.4343389e-05
4.4277164e-05
5.3004179e-05
4.4773959e-05
6.3306151e-05
4.5211616e-05
7.5538067e-05
4.548995e-05
9.0046254e-05
4.5688173e-05
0.00010722375
4.6091627e-05
0.00012745192
4.7412579e-05
0.00015100468
5.0483244e-05
0.00017799469
5.5973274e-05
0.00020847497
6.5902319e-05
0.0002420979
8.1426606e-05
0.00027820686
0.00010703802
0.00031520314
0.00014242321
0.00035150551
0.00019581135
0.00038192104
0.00025783442
0.00040426246
0.00032812015
0.00042610048
0.00040907535
0.00044994166
0.0005049148
0.00047436414
0.00062533847
0.00049244028
0.00077553487
0.00049456241
0.00096821018
0.00047045202
0.0011767711
0.00042764486
0.0014185218
0.00036827402
0.0016695963
0.00029592729
0.0019546212
0.00022037049
0.0022510294
0.00016458262
0.0025822337
0.00013641659
0.0028903301
8.7880919e-05
0.0032010251
1.7711179e-05
0.0034746661
-7.2526528e-06
0.0037229937
4.9074576e-05
0.0038269274
0.00020363138
0.0036696318
0.0005157032
0.0035254239
0.00095649221
0.0028947026
0.0015585341
0.0011323971
3.0587179e-05
4.2262899e-06
3.0398017e-05
5.073044e-06
3.0199579e-05
6.0779305e-06
3.0017878e-05
7.2819247e-06
2.9864442e-05
8.7245395e-06
2.9738985e-05
1.0452758e-05
2.9647198e-05
1.2522815e-05
2.9602137e-05
1.5001751e-05
2.9614958e-05
1.7969413e-05
2.9697883e-05
2.1520687e-05
2.9849627e-05
2.576826e-05
3.0068226e-05
3.0846101e-05
3.0335478e-05
3.6911654e-05
3.061831e-05
4.4152053e-05
3.0913596e-05
5.2784533e-05
3.1209303e-05
6.3053218e-05
3.1461303e-05
7.5242493e-05
3.162424e-05
8.9696509e-05
3.1740044e-05
0.00010680993
3.2107953e-05
0.00012695532
3.3320145e-05
0.00015039044
3.6097118e-05
0.00017722483
4.1229269e-05
0.00020743497
5.0377673e-05
0.00024063389
6.5134175e-05
0.0002759428
8.8941248e-05
0.00031169754
0.00012231792
0.00034625284
0.00017388273
0.00037362503
0.00023469769
0.00039139738
0.00030414311
0.00040703221
0.00038422655
0.00042273238
0.00047956464
0.00043645729
0.00059876443
0.00044078295
0.00074844124
0.00042511788
0.00093900609
0.00037837047
0.001146327
0.0003080688
0.0013869776
0.00021645628
0.0016379981
0.00010790531
0.0019236965
-7.8399214e-06
0.0022220751
-0.00010875857
0.0025552754
-0.00018582416
0.0028687517
-0.00028168902
0.0031853462
-0.00039452586
0.0034677455
-0.00045615942
0.0037219741
-0.00042540676
0.0038425398
-0.00027633594
0.0036923514
6.8085335e-05
0.0035593501
0.00057177893
0.0029074267
0.0012697496
0.0010373017
1.9688726e-05
4.2189602e-06
1.9636258e-05
5.0641503e-06
1.9549606e-05
6.0671669e-06
1.9420909e-05
7.2690253e-06
1.9260031e-05
8.709062e-06
1.9076796e-05
1.0434336e-05
1.8886579e-05
1.2501083e-05
1.8708703e-05
1.4976379e-05
1.855631e-05
1.7940257e-05
1.8450128e-05
2.1488041e-05
1.8388085e-05
2.5732782e-05
1.8380163e-05
3.0809137e-05
1.8411888e-05
3.6875227e-05
1.8467347e-05
4.4118475e-05
1.8536953e-05
5.2756349e-05
1.8619707e-05
6.3031426e-05
1.8682163e-05
7.5225678e-05
1.8676784e-05
8.968349e-05
1.8672071e-05
0.00010679867
1.8953773e-05
0.00012693566
2.0019546e-05
0.00015034236
2.2509456e-05
0.00017711917
2.7246791e-05
0.00020718144
3.5649602e-05
0.0002401055
4.959484e-05
0.00027481044
7.1698974e-05
0.00030958083
0.0001033749
0.00034263402
0.000153364
0.00036720465
0.00021299263
0.00038067097
0.00028157914
0.00039036626
0.00036082825
0.00039816061
0.00045557084
0.00040142999
0.00057361118
0.00039226152
0.00072256176
0.0003591171
0.00091112915
0.00029013971
0.0011173731
0.00019272954
0.0013569086
6.9175436e-05
0.0016081633
-7.5528321e-05
0.0018946189
-0.00023173125
0.0021950183
-0.00037817059
0.0025303471
-0.00050488145
0.0028490958
-0.00064951977
0.0031717554
-0.00080690224
0.0034623376
-0.0009073188
0.0037228486
-0.00090467319
0.003857299
-0.00076387687
0.0037148123
-0.00038943025
0.0035898634
0.0001753364
0.0029195069
0.00096848048
0.00093384211
9.3070148e-06
4.2263039e-06
9.2274695e-06
5.0733577e-06
9.1135218e-06
6.0787259e-06
8.9664838e-06
7.2834112e-06
8.799068e-06
8.7267794e-06
8.6159286e-06
1.0455911e-05
8.426467e-06
1.2527181e-05
8.2371857e-06
1.5007854e-05
8.0488165e-06
1.797838e-05
7.8708962e-06
2.1534705e-05
7.6928628e-06
2.5790777e-05
7.5247927e-06
3.0882566e-05
7.3563449e-06
3.696959e-05
7.1911676e-06
4.4240876e-05
7.0408385e-06
5.2914849e-05
6.9053194e-06
6.3233766e-05
6.7548632e-06
7.5479077e-05
6.5575356e-06
8.9994633e-05
6.3978098e-06
0.0001071737
6.5461629e-06
0.00012737615
7.4313142e-06
0.00015084236
9.6269532e-06
0.00017766079
1.3946757e-05
0.00020770162
2.1634876e-05
0.00024049955
3.4721172e-05
0.00027481159
5.5239463e-05
0.00030887275
8.5482132e-05
0.00034062119
0.00013410279
0.00036255199
0.00019256136
0.00037194407
0.00026026484
0.00037597885
0.00033870172
0.00037610588
0.00043278566
0.00036916594
0.00054971698
0.00034676309
0.00069779677
0.00029646847
0.00088445161
0.00020565761
0.0010896685
8.1517863e-05
0.00132812
-7.3659552e-05
0.0015797685
-0.00025447502
0.0018670935
-0.0004514394
0.0021695421
-0.00064391158
0.002507128
-0.00082100536
0.0028310781
-0.0010157246
0.0031599358
-0.0012194189
0.0034584005
-0.0013608357
0.0037254249
-0.0013888072
0.0038715633
-0.0012587724
0.0037369648
-0.00085649965
0.0036174327
-0.00023269157
0.0029309925
0.00065478837
0.00082200797
-4.0179975e-07
4.2474098e-06
-4.873124e-07
5.0983909e-06
-6.0110952e-07
6.1083672e-06
-7.4371746e-07
7.3185103e-06
-9.0260477e-07
8.7685189e-06
-1.0800557e-06
1.0505797e-05
-1.2731216e-06
1.2587223e-05
-1.4835429e-06
1.5080719e-05
-1.7190471e-06
1.8067581e-05
-1.97541e-06
2.1644834e-05
-2.2681429e-06
2.5927674e-05
-2.5860889e-06
3.1053654e-05
-2.9377151e-06
3.7184035e-05
-3.3078685e-06
4.4509646e-05
-3.6713848e-06
5.3250731e-05
-4.0215555e-06
6.3650373e-05
-4.3885785e-06
7.5990144e-05
-4.7928983e-06
9.0614893e-05
-5.1354701e-06
0.00010791889
-5.1613329e-06
0.00012825995
-4.4925033e-06
0.00015187177
-2.6066666e-06
0.00017883178
1.2783555e-06
0.00020897207
8.2737046e-06
0.00024178923
2.0460496e-05
0.00027590965
3.9515546e-05
0.00030951071
6.8576976e-05
0.00034014737
0.00011600917
0.00035959281
0.00017330883
0.00036512763
0.00024010801
0.00036376611
0.00031774771
0.00035645835
0.00041112158
0.00033953872
0.00052698528
0.00030414914
0.00067408652
0.00023700383
0.00085890374
0.00012474062
0.0010630783
-2.5742594e-05
0.0013005037
-0.00021222868
0.0015526246
-0.00042908572
0.0018409471
-0.00066709277
0.0021454524
-0.00090609554
0.0024854168
-0.001134306
0.002814513
-0.0013803409
0.0031496734
-0.0016321376
0.0034558671
-0.0018167807
0.0037295209
-0.001877859
0.0038856606
-0.0017609311
0.0037588698
-0.0013327639
0.0036426545
-0.00065122589
0.0029420006
0.00032977279
0.00070233724
-9.4583431e-06
4.2821701e-06
-9.5098486e-06
5.1400587e-06
-9.5749854e-06
6.1580972e-06
-9.6731175e-06
7.377748e-06
-9.8020049e-06
8.8391826e-06
-9.9743153e-06
1.0590433e-05
-1.0191155e-05
1.2689107e-05
-1.0455729e-05
1.5204032e-05
-1.0774929e-05
1.8217554e-05
-1.1141305e-05
2.1827917e-05
-1.1568394e-05
2.6151871e-05
-1.2039941e-05
3.1328754e-05
-1.2562694e-05
3.752196e-05
-1.3115958e-05
4.4924908e-05
-1.367077e-05
5.3760096e-05
-1.4222105e-05
6.4273065e-05
-1.4798786e-05
7.6747188e-05
-1.5412817e-05
9.152972e-05
-1.5958758e-05
0.00010901807
-1.6191786e-05
0.00012957004
-1.5773176e-05
0.00015341381
-1.4220868e-05
0.00018061727
-1.0787305e-05
0.00021098223
-4.4618177e-06
0.00024396151
6.8208853e-06
0.00027808832
2.4534577e-05
0.00031146091
5.2618404e-05
0.00034112106
9.9017812e-05
0.00035818583
0.00015517784
0.00036004465
0.000221065
0.0003535237
0.00029791273
0.00033900216
0.00039054021
0.00031233503
0.00050536281
0.00026421102
0.00065141411
0.00018052458
0.0008344568
4.7160541e-05
0.0010375602
-0.00012929867
0.0012740147
-0.00034677611
0.0015266418
-0.00059961669
0.0018160682
-0.00087895993
0.0021226244
-0.0011650026
0.0024650667
-0.0014449781
0.0027992502
-0.0017434551
0.0031407764
-0.0020450322
0.0034545946
-0.0022750813
0.0037349295
-0.0023716262
0.0038997039
-0.0022699163
0.0037805408
-0.0018178464
0.0036659053
-0.001080252
0.0029525697
-6.4960359e-06
0.00057491795
-1.795111e-05
4.3300545e-06
-1.8011915e-05
5.1977043e-06
-1.8088155e-05
6.2275092e-06
-1.8202636e-05
7.4615842e-06
-1.8356595e-05
8.9405725e-06
-1.856343e-05
1.0713066e-05
-1.8823096e-05
1.2837379e-05
-1.9139179e-05
1.538318e-05
-1.9517195e-05
1.843379e-05
-1.9950839e-05
2.2088951e-05
-2.0454744e-05
2.6467019e-05
-2.1014569e-05
3.1709542e-05
-2.1641877e-05
3.7982584e-05
-2.2318453e-05
4.5482709e-05
-2.3021461e-05
5.4436805e-05
-2.374679e-05
6.5093849e-05
-2.451575e-05
7.773964e-05
-2.5334059e-05
9.272646e-05
-2.6093758e-05
0.00011045719
-2.65579e-05
0.00013128901
-2.6416731e-05
0.00015544765
-2.5226347e-05
0.00018299368
-2.2266018e-05
0.00021370351
-1.6583558e-05
0.00024698192
-6.1926972e-06
0.00028129734
1.0288816e-05
0.00031464881
3.755244e-05
0.00034347413
8.3051275e-05
0.00035826557
0.00013810514
0.00035661179
0.00020307365
0.00034514891
0.00027913427
0.00032362131
0.00037098816
0.00028741622
0.00048479102
0.00022679159
0.0006297449
0.00012684132
0.00081107715
-2.728356e-05
0.0010130724
-0.00022934735
0.0012486076
-0.00047749726
0.0015017486
-0.00076623492
0.0017923696
-0.0010871769
0.0021009584
-0.001420736
0.0024459585
-0.0017531223
0.0027851643
-0.0021051424
0.003133084
-0.0024581925
0.0034544441
-0.002735803
0.0037414545
-0.0028701539
0.0039138639
-0.0027857143
0.0038020869
-0.0023114456
0.0036876993
-0.0015189126
0.002962786
-0.00035312635
0.00044026909
-2.5910836e-05
4.3908869e-06
-2.6029115e-05
5.2713327e-06
-2.6179079e-05
6.3166457e-06
-2.6367699e-05
7.5695851e-06
-2.6588064e-05
9.0712405e-06
-2.6847632e-05
1.0870769e-05
-2.7145433e-05
1.3027341e-05
-2.7487315e-05
1.561156e-05
-2.7881944e-05
1.870808e-05
-2.8329979e-05
2.241791e-05
-2.8852476e-05
2.6861717e-05
-2.9444614e-05
3.2183329e-05
-3.012767e-05
3.8552556e-05
-3.0894827e-05
4.617034e-05
-3.1728403e-05
5.5268746e-05
-3.262619e-05
6.6102242e-05
-3.3588527e-05
7.896075e-05
-3.4606022e-05
9.4200086e-05
-3.5583024e-05
0.00011222955
-3.629327e-05
0.00013341
-3.6449106e-05
0.00015796537
-3.5632745e-05
0.0001859478
-3.3155926e-05
0.00021711748
-2.8088378e-05
0.0002508267
-1.8553128e-05
0.00028548749
-3.1841427e-06
0.00031899513
2.3370642e-05
0.00034709007
6.8029264e-05
0.00035970784
0.00012199279
0.00035474128
0.00018603005
0.00033857627
0.00026130176
0.00031026794
0.00035236099
0.00026476467
0.0004651598
0.0001919009
0.00060898609
7.5993163e-05
0.00078866702
-9.8560861e-05
0.00098952695
-0.00032586382
0.0012241857
-0.00060436099
0.0014778382
-0.00092890945
0.0017697184
-0.0012916905
0.0020803165
-0.0016731898
0.0024279337
-0.0020585373
0.0027720894
-0.0024651069
0.0031264038
-0.002871187
0.0034552169
-0.0031983809
0.0037489066
-0.0033727278
0.0039282112
-0.0033075511
0.0038235613
-0.0028131398
0.0037083723
-0.0019673019
0.0029726779
-0.00071004226
0.00029855677
-3.3300355e-05
4.4636336e-06
-3.3425759e-05
5.3580892e-06
-3.3581284e-05
6.4199222e-06
-3.3774236e-05
7.6924578e-06
-3.3999081e-05
9.2175232e-06
-3.4265799e-05
1.1045592e-05
-3.4575491e-05
1.3236701e-05
-3.4936678e-05
1.5863171e-05
-3.5360165e-05
1.9011389e-05
-3.5848484e-05
2.2784697e-05
-3.6427146e-05
2.7305998e-05
-3.7093361e-05
3.2722842e-05
-3.788028e-05
3.9208671e-05
-3.8782858e-05
4.6969714e-05
-3.9796745e-05
5.6244619e-05
-4.0893565e-05
6.7291841e-05
-4.2053606e-05
8.0403409e-05
-4.328214e-05
9.5943078e-05
-4.4480136e-05
0.00011432901
-4.5445142e-05
0.00013592466
-4.591157e-05
0.00016095679
-4.5467156e-05
0.00018946492
-4.3464652e-05
0.0002211979
-3.8967981e-05
0.00025545032
-3.0227058e-05
0.00029059231
-1.5845248e-05
0.00032441871
1.0084313e-05
0.00035189419
5.3912362e-05
0.00036244437
0.00010677984
0.00035435942
0.00016987591
0.0003337178
0.00024435253
0.00029883471
0.00033459573
0.00024424745
0.00044640078
0.00015937999
0.00058907916
2.7789122e-05
0.00076716702
-0.00016687198
0.00096687359
-0.00041905341
0.0012006948
-0.00072757706
0.0014548517
-0.0010878337
0.0017480407
-0.001492673
0.0020606206
-0.0019225225
0.0024109008
-0.0023614
0.0027599286
-0.0028235273
0.003120623
-0.003284215
0.0034567908
-0.0036629995
0.0037571616
-0.0038795321
0.003942843
-0.0038355949
0.003845043
-0.0033227891
0.0037282629
-0.0024247815
0.002982305
-0.0010766029
0.00015017233
-4.0152792e-05
4.5485187e-06
-4.0238684e-05
5.4598264e-06
-4.0335513e-05
6.5413631e-06
-4.0465298e-05
7.8371531e-06
-4.0632221e-05
9.3898279e-06
-4.0856661e-05
1.1250621e-05
-4.1144144e-05
1.3481186e-05
-4.1509803e-05
1.6155283e-05
-4.1964755e-05
1.9361332e-05
-4.2517682e-05
2.3205524e-05
-4.3192259e-05
2.7814085e-05
-4.3988518e-05
3.3338924e-05
-4.4939175e-05
3.9958925e-05
-4.6038751e-05
4.7887037e-05
-4.7258158e-05
5.7364784e-05
-4.8540107e-05
6.865244e-05
-4.9882955e-05
8.2050393e-05
-5.132869e-05
9.7934674e-05
-5.2788542e-05
0.00011673574
-5.4040483e-05
0.00013882032
-5.4832792e-05
0.00016440945
-5.4761942e-05
0.00019353243
-5.3216018e-05
0.00022593032
-4.9228952e-05
0.00026082758
-4.1215706e-05
0.00029656473
-2.7703445e-05
0.00033082199
-2.3272238e-06
0.00035775111
4.0667294e-05
0.00036634902
9.2437215e-05
0.00035532857
0.00015459407
0.00033041178
0.00022827533
0.00028915042
0.00031769624
0.00022568953
0.00042851711
0.00012905519
0.0005700383
-1.7943568e-05
0.00074658835
-0.00023241974
0.00094513377
-0.00050915159
0.0011781441
-0.00084739016
0.0014327859
-0.0012432405
0.0017273145
-0.0016903171
0.0020418465
-0.0021688569
0.0023948191
-0.0026617308
0.0027486364
-0.0031803077
0.0031156705
-0.0036970123
0.00345908
-0.0041292112
0.0037661255
-0.00438993
0.0039577688
-0.0043691178
0.0038665591
-0.003839997
0.0037475468
-0.0028914068
0.0029916629
-0.0014526338
-4.6558381e-06
-4.6434355e-05
4.6440376e-06
-4.6411786e-05
5.5718474e-06
-4.6404915e-05
6.6729897e-06
-4.6458181e-05
7.9925636e-06
-4.6582826e-05
9.5746396e-06
-4.679285e-05
1.1472076e-05
-4.7095919e-05
1.3747908e-05
-4.7503493e-05
1.6477693e-05
-4.8024889e-05
1.9752424e-05
-4.8671247e-05
2.3680554e-05
-4.9458847e-05
2.8391983e-05
-5.0395186e-05
3.4042206e-05
-5.150114e-05
4.0815446e-05
-5.2759177e-05
4.89273e-05
-5.4107719e-05
5.8622116e-05
-5.5502237e-05
7.0167366e-05
-5.7010212e-05
8.3879847e-05
-5.8700938e-05
0.00010015745
-6.0481302e-05
0.00011943823
-6.2079481e-05
0.0001420821
-6.3224256e-05
0.00016830635
-6.3534043e-05
0.00019812948
-6.2432387e-05
0.00023128978
-5.8893253e-05
0.00026692526
-5.1546478e-05
0.00030335437
-3.8788001e-05
0.00033814259
-1.3900595e-05
0.0003646048
2.8246181e-05
0.00037136175
7.8928833e-05
0.00035757536
0.00014015722
0.00032856036
0.00021306311
0.00028107897
0.0003016695
0.00020890519
0.00041151974
0.00010069513
0.00055188157
-6.1474919e-05
0.00072694815
-0.0002954877
0.00092432957
-0.00059644764
0.0011565387
-0.00096408314
0.0014116261
-0.0013953686
0.0017075081
-0.0018848259
0.0020239586
-0.002412396
0.0023796396
-0.0029597578
0.0027381537
-0.0035356849
0.0031114671
-0.0041098329
0.0034619911
-0.0045972711
0.0037756861
-0.0049041858
0.003973001
-0.0049083823
0.0038881222
-0.0043646399
0.003766396
-0.0033665329
0.0030007506
-0.0018374948
-0.00016550523
-5.2392837e-05
4.7530494e-06
-5.2401989e-05
5.7056775e-06
-5.2434201e-05
6.8368428e-06
-5.2522806e-05
8.1922694e-06
-5.2679882e-05
9.8166178e-06
-5.2909659e-05
1.1763069e-05
-5.3227989e-05
1.4095874e-05
-5.3642913e-05
1.689245e-05
-5.4173501e-05
2.0244893e-05
-5.4832985e-05
2.4265343e-05
-5.5640734e-05
2.9086338e-05
-5.6610501e-05
3.4868128e-05
-5.7751584e-05
4.1799134e-05
-5.9028566e-05
5.0098494e-05
-6.0393095e-05
6.0016744e-05
-6.1853626e-05
7.1837747e-05
-6.3521621e-05
8.5901414e-05
-6.549861e-05
0.00010262551
-6.7631858e-05
0.00012244823
-6.9597523e-05
0.00014571353
-7.1106979e-05
0.00017263393
-7.1799646e-05
0.00020323365
-7.1130491e-05
0.00023724714
-6.8010349e-05
0.00027372309
-6.1277241e-05
0.00031095228
-4.9159612e-05
0.00034633884
-2.4713842e-05
0.00037238994
1.6581699e-05
0.000377427
6.6195056e-05
0.00036104504
0.00012651034
0.00032811965
0.00019865759
0.00027460056
0.00028644674
0.00019392363
0.00039533713
7.4376923e-05
0.00053454276
-0.00010269783
0.00070817653
-0.00035596869
0.00090439973
-0.00068084454
0.0011358182
-0.0010775731
0.0013913076
-0.0015441419
0.0016885361
-0.0020760633
0.0020068712
-0.0026528944
0.0023652649
-0.0032551249
0.0027283811
-0.0038891825
0.0031078979
-0.0045220301
0.0034654061
-0.0050663391
0.0037857372
-0.0054213137
0.0039885314
-0.0054524436
0.0039097328
-0.0048962748
0.0037849146
-0.0038502272
0.0030095433
-0.0022309692
-0.00033209425
-5.8021195e-05
4.8719074e-06
-5.8163537e-05
5.8484658e-06
-5.8328006e-05
7.0084034e-06
-5.8520614e-05
8.398878e-06
-5.8749704e-05
1.0065337e-05
-5.9022982e-05
1.2062974e-05
-5.9359279e-05
1.4457666e-05
-5.976972e-05
1.7328362e-05
-6.0280058e-05
2.0770398e-05
-6.0909134e-05
2.489727e-05
-6.1678915e-05
2.9845318e-05
-6.2610492e-05
3.5777251e-05
-6.3699521e-05
4.2884318e-05
-6.492814e-05
5.1390438e-05
-6.6276363e-05
6.155688e-05
-6.780412e-05
7.3685859e-05
-6.968469e-05
8.8150519e-05
-7.1947423e-05
0.00010538457
-7.436482e-05
0.00012579328
-7.664417e-05
0.00014971062
-7.8495201e-05
0.00017737513
-7.9560936e-05
0.00020881718
-7.9316504e-05
0.00024376818
-7.6613314e-05
0.00028118445
-7.0442402e-05
0.00031931115
-5.8856005e-05
0.00035536017
-3.4808698e-05
0.0003810556
5.6574228e-06
0.00038446857
5.4223347e-05
0.00036563229
0.00011363279
0.00032896338
0.00018500778
0.00026957866
0.00027195874
0.00018059234
0.00037989429
4.992146e-05
0.0005179481
-0.00014181743
0.00069019741
-0.00041407353
0.00088527499
-0.00076255613
0.0011159345
-0.0011880951
0.0013718125
-0.0016898423
0.0016703567
-0.0022643336
0.0019905314
-0.0028906488
0.0023516333
-0.0035481531
0.0027192551
-0.0042411449
0.0031048908
-0.0049339829
0.0034692498
-0.0055368221
0.0037962116
-0.0059417419
0.0040043692
-0.0060017288
0.0039314044
-0.0054349199
0.0038031885
-0.0043419854
0.0030180351
-0.0026325931
-0.00050411969
-6.3116677e-05
5.0012714e-06
-6.3278175e-05
6.0038034e-06
-6.3470492e-05
7.194905e-06
-6.3698928e-05
8.6225907e-06
-6.3972071e-05
1.0333973e-05
-6.4297519e-05
1.2385839e-05
-6.4689015e-05
1.4845739e-05
-6.5158291e-05
1.7795392e-05
-6.5722977e-05
2.1332644e-05
-6.6401556e-05
2.5574216e-05
-6.7208157e-05
3.0660464e-05
-6.8162037e-05
3.6757223e-05
-6.9256885e-05
4.4060503e-05
-7.0487875e-05
5.2799001e-05
-7.1876086e-05
6.3244275e-05
-7.3546301e-05
7.5726042e-05
-7.5743161e-05
9.0657939e-05
-7.8247015e-05
0.00010846327
-8.0771874e-05
0.00012948642
-8.3260839e-05
0.00015407072
-8.5412203e-05
0.00018251494
-8.6836147e-05
0.00021486247
-8.7002701e-05
0.00025082734
-8.4721743e-05
0.00028928897
-7.9074354e-05
0.00032842944
-6.7920774e-05
0.00036519079
-4.4208543e-05
0.00039054554
-4.531424e-06
0.00039240284
4.3010104e-05
0.00037122804
0.00010151502
0.00033095945
0.00017209458
0.00026588047
0.00025819393
0.00016878354
0.00036518009
2.7205066e-05
0.00050209167
-0.00017895964
0.00067300411
-0.00046995718
0.00086695244
-0.00084177291
0.0010968912
-0.0012958628
0.0013531617
-0.0018326853
0.0016529877
-0.0024498268
0.0019749422
-0.0031257624
0.0023387345
-0.0038388114
0.0027107652
-0.0045914075
0.0031024213
-0.0053453393
0.0034734894
-0.0060081467
0.0038070591
-0.0064647156
0.0040204689
-0.0065554174
0.0039530981
-0.0059801428
0.0038212408
-0.0048418014
0.0030262067
-0.0030420625
-0.00068125965
-6.7818602e-05
5.1409598e-06
-6.7992801e-05
6.1716371e-06
-6.8200846e-05
7.3961999e-06
-6.844896e-05
8.8642063e-06
-6.8746344e-05
1.0624023e-05
-6.9101312e-05
1.2734116e-05
-6.9527546e-05
1.5263941e-05
-7.003792e-05
1.829817e-05
-7.064833e-05
2.1936661e-05
-7.1376847e-05
2.630077e-05
-7.2235005e-05
3.1534039e-05
-7.3237634e-05
3.7807414e-05
-7.4386109e-05
4.5321873e-05
-7.568221e-05
5.4314306e-05
-7.7183168e-05
6.5069127e-05
-7.9088454e-05
7.7940503e-05
-8.1805597e-05
9.3411008e-05
-8.4509898e-05
0.00011188504
-8.6866652e-05
0.00013354201
-8.946899e-05
0.00015877403
-9.1893113e-05
0.00018803523
-9.3662583e-05
0.00022135233
-9.4222603e-05
0.00025840822
-9.2361332e-05
0.00029801073
-8.7218078e-05
0.00033826634
-7.6402269e-05
0.00037579291
-5.2944648e-05
0.00040081255
-1.4029552e-05
0.000401163
3.2507902e-05
0.00037775822
9.0110378e-05
0.00033401861
0.00015988688
0.00026338305
0.0002451321
0.00015833077
0.00035117795
6.0234434e-06
0.00048696179
-0.00021435992
0.00065658467
-0.00052386466
0.00084942698
-0.00091874444
0.0010786693
-0.0014011174
0.0013353317
-0.0019728933
0.0016364232
-0.0026327942
0.0019600953
-0.003358555
0.0023265441
-0.0041274624
0.0027028798
-0.0049403391
0.0031004406
-0.005756498
0.0034780769
-0.006480752
0.0038182111
-0.0069906791
0.004036788
-0.0071139191
0.0039747737
-0.0065318439
0.0038390573
-0.0053490062
0.0030339879
-0.0034587705
-0.00086314207
-7.214659e-05
5.290774e-06
-7.233264e-05
6.3515687e-06
-7.2554757e-05
7.6119945e-06
-7.2819484e-05
9.1229266e-06
-7.3136401e-05
1.09347e-05
-7.3514168e-05
1.3106716e-05
-7.3966827e-05
1.5711553e-05
-7.4507144e-05
1.8835526e-05
-7.5151417e-05
2.258235e-05
-7.5916918e-05
2.7076345e-05
-7.6818802e-05
3.2465795e-05
-7.7869769e-05
3.8926767e-05
-7.9078858e-05
4.6666442e-05
-8.0468107e-05
5.5930536e-05
-8.2107753e-05
6.7013441e-05
-8.4167228e-05
8.026608e-05
-8.7194634e-05
9.6191827e-05
-9.0115056e-05
0.00011528407
-9.2488974e-05
0.0001377148
-9.5254902e-05
0.00016375742
-9.79591e-05
0.00019390821
-0.00010006498
0.00022827067
-0.00010100269
0.00026649746
-9.9549906e-05
0.0003073353
-9.4899861e-05
0.00034882657
-8.4341385e-05
0.00038716344
-6.1071845e-05
0.00041183712
-2.2903386e-05
0.00041073803
2.2646354e-05
0.00038521536
7.9348472e-05
0.00033815161
0.00014832203
0.00026212326
0.00023271266
0.00014930563
0.00033782759
-1.3515826e-05
0.00047250008
-0.00024788524
0.00064087807
-0.00057566117
0.00083263731
-0.00099334556
0.0010611998
-0.0015037373
0.0013182415
-0.0021103123
0.0016205864
-0.0028129954
0.0019459333
-0.0035887046
0.0023149791
-0.0044136631
0.0026955167
-0.0052873373
0.00309886
-0.0061666759
0.0034829123
-0.0069536473
0.0038295749
-0.0075185241
0.0040532709
-0.0076761919
0.0039963784
-0.0070895266
0.0038566218
-0.0058635879
0.0030413427
-0.0038823988
-0.0010494193
-7.6123345e-05
5.450476e-06
-7.6320664e-05
6.5431452e-06
-7.6555937e-05
7.8418978e-06
-7.6836332e-05
9.3987509e-06
-7.717066e-05
1.1265649e-05
-7.7568854e-05
1.3503942e-05
-7.8043742e-05
1.6188465e-05
-7.8608829e-05
1.9407839e-05
-7.9280102e-05
2.3269376e-05
-8.0076391e-05
2.7901162e-05
-8.1016818e-05
3.3456133e-05
-8.2115703e-05
4.0115896e-05
-8.3391333e-05
4.8096295e-05
-8.4876761e-05
5.7651139e-05
-8.6618214e-05
6.9082383e-05
-8.866259e-05
8.2734275e-05
-9.1200269e-05
9.90095e-05
-9.4280712e-05
0.00011851819
-9.7479006e-05
0.00014178905
-0.00010061781
0.00016891017
-0.00010362977
0.00020010316
-0.00010606175
0.00023559564
-0.00010735585
0.0002750654
-0.00010630524
0.00031722935
-0.00010213437
0.00036006226
-9.1770798e-05
0.00039925375
-6.8643132e-05
0.00042357563
-3.1196779e-05
0.00042105934
1.3377699e-05
0.00039351478
6.9184371e-05
0.00034325858
0.0001373553
0.00026197074
0.00022089143
0.00014153928
0.00032508441
-3.1621182e-05
0.00045866231
-0.00027977534
0.00062583744
-0.00062559822
0.00081653813
-0.0010658328
0.0010444367
-0.0016039857
0.0013018369
-0.0022452135
0.0016054201
-0.0029907333
0.0019324047
-0.0038165559
0.0023039789
-0.0046978217
0.0026886154
-0.0056328647
0.003097617
-0.0065763915
0.003487944
-0.0074274063
0.0038410941
-0.0080488402
0.0040698629
-0.0082427683
0.0040178768
-0.0076532608
0.0038739336
-0.0063851038
0.003048236
-0.0043125671
-0.0012398572
-7.976579e-05
5.619632e-06
-7.9974025e-05
6.7460928e-06
-8.0221641e-05
8.0853149e-06
-8.0516661e-05
9.6909549e-06
-8.0867223e-05
1.1616006e-05
-8.1284181e-05
1.3924459e-05
-8.1779551e-05
1.6693048e-05
-8.2367835e-05
2.0013401e-05
-8.3067213e-05
2.3996525e-05
-8.3898459e-05
2.8774696e-05
-8.488285e-05
3.4505635e-05
-8.6040242e-05
4.1378382e-05
-8.7397108e-05
4.9616477e-05
-8.8984054e-05
5.9483979e-05
-9.0828796e-05
7.1295123e-05
-9.2887596e-05
8.5411618e-05
-9.4914729e-05
0.00010220111
-9.8033349e-05
0.00012224542
-0.00010203521
0.00014622535
-0.00010560813
0.00017432396
-0.00010892073
0.00020662623
-0.00011165635
0.00024331186
-0.00011327932
0.00028408514
-0.00011263615
0.00032766195
-0.00010890683
0.00037192835
-9.8677272e-05
0.00041197259
-7.568568e-05
0.00043593804
-3.8932506e-05
0.00043206929
4.6881845e-06
0.00040257615
5.9612339e-05
0.00034922964
0.00012698519
0.00026281203
0.000209671
0.00013492296
0.0003129539
-4.8397541e-05
0.00044545726
-0.00031014298
0.00061146982
-0.00067381576
0.00080113852
-0.0011363868
0.0010283869
-0.0017020778
0.0012861276
-0.0023778124
0.0015909174
-0.0031661473
0.0019195031
-0.0040421481
0.0022935484
-0.0049798909
0.0026821712
-0.0059767387
0.0030966933
-0.0069852554
0.0034931467
-0.0079014225
0.0038527174
-0.008580839
0.0040865243
-0.0088128052
0.0040392292
-0.0082225854
0.0038909482
-0.0069134737
0.0030546349
-0.0047488797
-0.0014340835
-8.3089665e-05
5.7977645e-06
-8.3308627e-05
6.9603163e-06
-8.356856e-05
8.3423173e-06
-8.3877563e-05
9.9990529e-06
-8.4244416e-05
1.1985855e-05
-8.468048e-05
1.4368502e-05
-8.5198528e-05
1.7225805e-05
-8.581517e-05
2.065358e-05
-8.6550407e-05
2.4765476e-05
-8.7428678e-05
2.9699311e-05
-8.8471441e-05
3.5618469e-05
-8.9706105e-05
4.2718741e-05
-9.1158814e-05
5.1233467e-05
-9.2869869e-05
6.1437541e-05
-9.4857731e-05
7.3658681e-05
-9.7073181e-05
8.827553e-05
-9.93307e-05
0.00010571292
-0.00010247586
0.00012649618
-0.00010648101
0.00015118253
-0.00011029744
0.00018011622
-0.00011385295
0.00021349395
-0.00011686576
0.00025141174
-0.00011878764
0.00029354257
-0.00011854967
0.0003386008
-0.00011521632
0.00038437162
-0.00010506655
0.00042527523
-8.2226999e-05
0.00044887472
-4.6143955e-05
0.0004436984
-3.4437124e-06
0.00041231879
5.0612709e-05
0.00035596585