/*--------------------------------*- C++ -*----------------------------------*\
  =========                 |
  \\      /  F ield         | OpenFOAM: The Open Source CFD Toolbox
   \\    /   O peration     | Website:  https://openfoam.org
    \\  /    A nd           | Version:  8
     \\/     M anipulation  |
\*---------------------------------------------------------------------------*/
FoamFile
{
    version     2.0;
    format      ascii;
    class       volScalarField;
    location    "0.140008";
    object      nut;
}
// * * * * * * * * * * * * * * * * * * * * * * * * * * * * * * * * * * * * * //

dimensions      [0 2 -1 0 0 0 0];

internalField   nonuniform List<scalar> 
20000
(
0.0012781153
0.0033456314
0.0046645435
0.0053388091
0.0052102008
0.004013224
0.0013958357
9.1658697e-06
2.5986868e-09
2.462861e-09
2.3927275e-09
2.4147424e-09
2.3853393e-09
2.4128666e-09
2.4135932e-09
2.4450899e-09
2.4672392e-09
2.509583e-09
2.5541367e-09
2.6172958e-09
2.6905137e-09
2.7857596e-09
2.9001769e-09
3.0438686e-09
3.2175663e-09
3.4290104e-09
3.6797989e-09
3.972648e-09
4.304031e-09
4.6680247e-09
5.0508434e-09
5.429916e-09
5.779432e-09
6.0836757e-09
6.338585e-09
6.5463199e-09
6.71063e-09
6.8412583e-09
6.9429535e-09
7.0232872e-09
7.0870796e-09
7.1388168e-09
7.1820396e-09
7.2205944e-09
7.2520663e-09
7.2755657e-09
7.3089734e-09
7.3350642e-09
7.3526309e-09
7.4047939e-09
0.0012830049
0.003329374
0.0046156312
0.0052549545
0.0050817411
0.0038390861
0.0012230429
3.4455566e-06
2.554213e-09
2.4817427e-09
2.4102681e-09
2.4334899e-09
2.4041906e-09
2.4329109e-09
2.4342049e-09
2.4671287e-09
2.490556e-09
2.5347369e-09
2.5813086e-09
2.6470726e-09
2.7234029e-09
2.8224356e-09
2.9413584e-09
3.0902282e-09
3.269762e-09
3.4871637e-09
3.743201e-09
4.0389392e-09
4.3690017e-09
4.7259045e-09
5.0967377e-09
5.4623745e-09
5.8008297e-09
6.0975742e-09
6.3468058e-09
6.5512105e-09
6.7134715e-09
6.8428135e-09
6.9438714e-09
7.0239265e-09
7.0877423e-09
7.1394247e-09
7.1830786e-09
7.2218656e-09
7.2530656e-09
7.276609e-09
7.3087459e-09
7.3364656e-09
7.3525981e-09
7.4064971e-09
0.0012813559
0.0033074357
0.004564082
0.0051672691
0.004950451
0.0036529712
0.0010518533
1.2103488e-06
2.5340815e-09
2.5003034e-09
2.428535e-09
2.4527639e-09
2.4237665e-09
2.4535695e-09
2.455582e-09
2.4899156e-09
2.5147209e-09
2.5608122e-09
2.6095744e-09
2.6781466e-09
2.7578557e-09
2.8610098e-09
2.9848471e-09
3.1394107e-09
3.3254069e-09
3.5495195e-09
3.8115906e-09
4.1109373e-09
4.4402376e-09
4.7905056e-09
5.1493243e-09
5.5007715e-09
5.8265696e-09
6.1137173e-09
6.3569692e-09
6.5575031e-09
6.7172427e-09
6.8449713e-09
6.9451146e-09
7.0246738e-09
7.088332e-09
7.1399033e-09
7.1838361e-09
7.2226705e-09
7.2536212e-09
7.2775468e-09
7.3121705e-09
7.3384353e-09
7.3628006e-09
7.4054204e-09
0.0012796093
0.0032862266
0.0045126763
0.0050759245
0.0048180006
0.0034593512
0.00089702909
4.2615041e-07
2.529384e-09
2.5197471e-09
2.4477726e-09
2.4730672e-09
2.4444722e-09
2.4753362e-09
2.4780958e-09
2.5138472e-09
2.5400765e-09
2.5881388e-09
2.6391834e-09
2.7106633e-09
2.7938691e-09
2.9012648e-09
3.0301629e-09
3.1906199e-09
3.3832858e-09
3.6143203e-09
3.8826116e-09
4.1858739e-09
4.5151164e-09
4.8600896e-09
5.2086345e-09
5.5470255e-09
5.8601666e-09
6.1370533e-09
6.3725273e-09
6.5677983e-09
6.7239607e-09
6.8492821e-09
6.9479672e-09
7.0266641e-09
7.0898896e-09
7.1411971e-09
7.1853051e-09
7.2239868e-09
7.2544999e-09
7.2788316e-09
7.3137036e-09
7.3409279e-09
7.3673969e-09
7.405393e-09
0.0012778158
0.0032655841
0.0044627006
0.0049888032
0.0046842193
0.0032565169
0.00075664507
1.5510771e-07
2.5345629e-09
2.5401793e-09
2.4680186e-09
2.4943218e-09
2.4662194e-09
2.498102e-09
2.5016884e-09
2.5389088e-09
2.5666852e-09
2.6168497e-09
2.6703629e-09
2.7449486e-09
2.8318948e-09
2.9438129e-09
3.0781228e-09
3.2448756e-09
3.4446563e-09
3.6830373e-09
3.9578753e-09
4.2652117e-09
4.594471e-09
4.9343186e-09
5.2728705e-09
5.5983586e-09
5.898488e-09
6.1643028e-09
6.3913483e-09
6.5806146e-09
6.732556e-09
6.8549782e-09
6.95182e-09
7.0293714e-09
7.0919408e-09
7.142866e-09
7.1870123e-09
7.2253737e-09
7.2553313e-09
7.2802649e-09
7.316083e-09
7.3436474e-09
7.3733332e-09
7.4051452e-09
0.0012757912
0.003244788
0.0044120514
0.0049009014
0.004549175
0.003045205
0.00062660895
6.0432747e-08
2.5461383e-09
2.5613309e-09
2.4891947e-09
2.5164987e-09
2.4889675e-09
2.5219164e-09
2.5264308e-09
2.5651931e-09
2.594644e-09
2.6470419e-09
2.7031879e-09
2.7810523e-09
2.8719539e-09
2.9886482e-09
3.1286893e-09
3.3021028e-09
3.5093831e-09
3.7554279e-09
4.0369744e-09
4.3484057e-09
4.6777019e-09
5.0126545e-09
5.34169e-09
5.65466e-09
5.9417481e-09
6.1960358e-09
6.4138208e-09
6.5962829e-09
6.7433186e-09
6.8623028e-09
6.9568921e-09
7.0329975e-09
7.0946832e-09
7.1450878e-09
7.1891374e-09
7.2270372e-09
7.2562561e-09
7.2819165e-09
7.3182792e-09
7.3467164e-09
7.3776314e-09
7.4050106e-09
0.0012736443
0.0032238232
0.0043605986
0.0048118767
0.0044132
0.0028256981
0.00050816452
2.6347913e-08
2.5619458e-09
2.5830252e-09
2.5112526e-09
2.5395624e-09
2.5127045e-09
2.5467717e-09
2.5523386e-09
2.5927322e-09
2.6240036e-09
2.6787747e-09
2.7377344e-09
2.8190729e-09
2.9141846e-09
3.0359665e-09
3.1821249e-09
3.3626338e-09
3.577851e-09
3.8318982e-09
4.1202771e-09
4.4356837e-09
4.7647688e-09
5.0946583e-09
5.4142076e-09
5.7147711e-09
5.988746e-09
6.2311562e-09
6.4392048e-09
6.6143e-09
6.7559054e-09
6.8710199e-09
6.9630111e-09
7.0374071e-09
7.0980059e-09
7.1477604e-09
7.1915447e-09
7.2288781e-09
7.2573534e-09
7.2837587e-09
7.3207642e-09
7.3503127e-09
7.3814551e-09
7.4049991e-09
0.0012715573
0.0032025531
0.0043079077
0.004721426
0.0042763672
0.0025989137
0.00040073176
1.3272219e-08
2.5806191e-09
2.605366e-09
2.534216e-09
2.5635461e-09
2.5374761e-09
2.5727259e-09
2.579477e-09
2.621591e-09
2.6548206e-09
2.7120969e-09
2.7740426e-09
2.8590518e-09
2.958642e-09
3.0858408e-09
3.2385202e-09
3.4265655e-09
3.6501441e-09
3.9124755e-09
4.2077088e-09
4.5268496e-09
4.8553577e-09
5.1799106e-09
5.4899236e-09
5.7781578e-09
6.0390105e-09
6.2693338e-09
6.4672409e-09
6.6344975e-09
6.7702184e-09
6.8810782e-09
6.9701569e-09
7.0425982e-09
7.1019217e-09
7.1508992e-09
7.1942646e-09
7.2309072e-09
7.2587436e-09
7.285789e-09
7.3233837e-09
7.3545308e-09
7.3842021e-09
7.405324e-09
0.0012694526
0.0031810738
0.0042538758
0.0046291343
0.0041384115
0.002366626
0.00030335438
7.8339007e-09
2.6013905e-09
2.6285393e-09
2.5581176e-09
2.5884874e-09
2.5633318e-09
2.5998303e-09
2.6078934e-09
2.6518072e-09
2.6871293e-09
2.7470418e-09
2.8121573e-09
2.9010565e-09
3.0054279e-09
3.1384107e-09
3.2980496e-09
3.4940983e-09
3.7264656e-09
3.9973201e-09
4.2993404e-09
4.6218426e-09
4.9492484e-09
5.2680089e-09
5.5682557e-09
5.8441246e-09
6.0918406e-09
6.309954e-09
6.4974743e-09
6.656554e-09
6.7860383e-09
6.8923303e-09
6.9782302e-09
7.0485019e-09
7.106382e-09
7.1544674e-09
7.1972911e-09
7.2330874e-09
7.2602906e-09
7.2880163e-09
7.3262872e-09
7.3588589e-09
7.3864124e-09
7.4057237e-09
0.0012674091
0.0031596296
0.0041993549
0.0045344335
0.0039985527
0.0021319044
0.00021499125
5.3744931e-09
2.6238067e-09
2.6525609e-09
2.5830085e-09
2.6144498e-09
2.5903363e-09
2.6281351e-09
2.6376233e-09
2.6834087e-09
2.7209569e-09
2.7836426e-09
2.8521214e-09
2.9451549e-09
3.0546409e-09
3.1938041e-09
3.3608627e-09
3.5653947e-09
3.8069567e-09
4.0865052e-09
4.395132e-09
4.7204947e-09
5.0461515e-09
5.3585591e-09
5.6487236e-09
5.9121385e-09
6.1467153e-09
6.3525704e-09
6.5295482e-09
6.6802092e-09
6.8031853e-09
6.9046562e-09
6.9871533e-09
7.0550686e-09
7.1113571e-09
7.1584458e-09
7.200603e-09
7.2353885e-09
7.2617001e-09
7.2904917e-09
7.3295741e-09
7.3630337e-09
7.3882873e-09
7.4061944e-09
0.001265536
0.0031381814
0.0041437235
0.0044365587
0.0038555533
0.0019017271
0.00013665346
4.1814697e-09
2.6475925e-09
2.677512e-09
2.6089743e-09
2.6414998e-09
2.6185225e-09
2.6576514e-09
2.6686744e-09
2.7164099e-09
2.7563267e-09
2.8219328e-09
2.8939961e-09
2.9914415e-09
3.1064098e-09
3.2521775e-09
3.4271394e-09
3.6406444e-09
3.8917807e-09
4.1801156e-09
4.4950489e-09
4.8226423e-09
5.1457827e-09
5.4511742e-09
5.7308559e-09
5.9816761e-09
6.2031132e-09
6.39672e-09
6.5630928e-09
6.7051857e-09
6.8214602e-09
6.9179177e-09
6.9968318e-09
7.0622345e-09
7.1168045e-09
7.1628003e-09
7.2041479e-09
7.2378151e-09
7.2633594e-09
7.2932657e-09
7.3334163e-09
7.366831e-09
7.3899933e-09
7.4066752e-09
0.0012639366
0.0031170278
0.0040876559
0.0043352746
0.0037080379
0.0016800211
7.356493e-05
3.5751193e-09
2.6727616e-09
2.7035132e-09
2.6360625e-09
2.6696283e-09
2.6478661e-09
2.6883666e-09
2.7010551e-09
2.7508325e-09
2.7932689e-09
2.8619617e-09
2.9378574e-09
3.0400274e-09
3.1608755e-09
3.3136968e-09
3.4970682e-09
3.7200414e-09
3.9810912e-09
4.2782069e-09
4.5990129e-09
4.9280741e-09
5.247827e-09
5.545466e-09
5.8142138e-09
6.0522718e-09
6.2605779e-09
6.4419958e-09
6.5977722e-09
6.7312241e-09
6.8406728e-09
6.9319801e-09
7.0071721e-09
7.0699365e-09
7.1226835e-09
7.1674991e-09
7.2078804e-09
7.2403704e-09
7.2653006e-09
7.2964092e-09
7.3378596e-09
7.3701411e-09
7.3915201e-09
7.4071422e-09
0.0012625457
0.0030964181
0.0040319759
0.0042317757
0.003555615
0.0014684373
3.2175443e-05
3.2607413e-09
2.6991587e-09
2.7304285e-09
2.6641507e-09
2.6987609e-09
2.6783468e-09
2.7202956e-09
2.7347922e-09
2.7867054e-09
2.8318241e-09
2.903793e-09
2.9838095e-09
3.0910491e-09
3.2181999e-09
3.3785448e-09
3.5708533e-09
3.8037841e-09
4.0750326e-09
4.3808087e-09
4.7069151e-09
5.036553e-09
5.351956e-09
5.6410498e-09
5.8983802e-09
6.1234938e-09
6.3186896e-09
6.488021e-09
6.6332723e-09
6.7580771e-09
6.8606367e-09
6.9467084e-09
7.0180787e-09
7.0781083e-09
7.1289512e-09
7.1725113e-09
7.2117899e-09
7.2430116e-09
7.267583e-09
7.3000342e-09
7.3425848e-09
7.3730996e-09
7.3928918e-09
7.407577e-09
0.001261378
0.0030760252
0.0039765516
0.0041333468
0.0033958063
0.0012692685
1.152292e-05
3.1001318e-09
2.7264265e-09
2.7581354e-09
2.6932203e-09
2.7289374e-09
2.7100162e-09
2.7534817e-09
2.7699125e-09
2.8240607e-09
2.8720403e-09
2.9475188e-09
3.0319744e-09
3.1446559e-09
3.2785512e-09
3.4469213e-09
3.6487119e-09
3.8920876e-09
4.1737409e-09
4.4879304e-09
4.8186118e-09
5.1478081e-09
5.4578196e-09
5.7375378e-09
5.9829538e-09
6.1949421e-09
6.3770666e-09
6.5344534e-09
6.6693035e-09
6.7855117e-09
6.8811731e-09
6.9619703e-09
7.0294568e-09
7.0866825e-09
7.1355657e-09
7.1778063e-09
7.2158657e-09
7.2456986e-09
7.2701478e-09
7.3042778e-09
7.3472723e-09
7.375814e-09
7.3941255e-09
7.4079697e-09
0.0012602216
0.0030556094
0.0039206356
0.0040271347
0.0032259835
0.0010825769
3.5882312e-06
3.024937e-09
2.7547729e-09
2.7868302e-09
2.7233976e-09
2.7602344e-09
2.7429161e-09
2.7879399e-09
2.8064362e-09
2.8629337e-09
2.9140049e-09
2.9932568e-09
3.0824999e-09
3.2010111e-09
3.3421168e-09
3.5190373e-09
3.7308772e-09
3.9851506e-09
4.2773263e-09
4.5995331e-09
4.9339117e-09
5.2615332e-09
5.5650501e-09
5.8345453e-09
6.0675545e-09
6.2662496e-09
6.4353648e-09
6.5809865e-09
6.705604e-09
6.8133139e-09
6.9021142e-09
6.9776388e-09
7.0412138e-09
7.0955927e-09
7.1424854e-09
7.1833489e-09
7.2200618e-09
7.2484187e-09
7.2730212e-09
7.30925e-09
7.3516946e-09
7.3783092e-09
7.3952298e-09
7.4083168e-09
0.0012591683
0.0030350724
0.0038659407
0.0039200348
0.0030461987
0.00091002304
1.0448007e-06
2.9970815e-09
2.7842251e-09
2.8165375e-09
2.754694e-09
2.7926462e-09
2.7770321e-09
2.8236759e-09
2.8443896e-09
2.9034074e-09
2.9578283e-09
3.0411442e-09
3.1355371e-09
3.2602827e-09
3.4090939e-09
3.5951266e-09
3.8176028e-09
4.0831896e-09
4.3858883e-09
4.71555e-09
5.052589e-09
5.3773923e-09
5.6732628e-09
5.9316872e-09
6.151817e-09
6.3370739e-09
6.4932692e-09
6.6273413e-09
6.7419339e-09
6.8412854e-09
6.9233018e-09
6.9935924e-09
7.0532601e-09
7.1047746e-09
7.1496618e-09
7.1891e-09
7.2243352e-09
7.2511655e-09
7.2762111e-09
7.3149385e-09
7.3557327e-09
7.3805935e-09
7.396225e-09
7.4086192e-09
0.0012580854
0.0030131787
0.0038060175
0.0038088243
0.0028556885
0.0007541572
3.090917e-07
2.9956812e-09
2.8147355e-09
2.8472458e-09
2.7870811e-09
2.8261529e-09
2.8123647e-09
2.8607182e-09
2.8838517e-09
2.9455832e-09
3.0036475e-09
3.0913308e-09
3.1912448e-09
3.3226524e-09
3.4796982e-09
3.6754392e-09
3.9091418e-09
4.1863917e-09
4.4994752e-09
4.8358531e-09
5.1743648e-09
5.4950152e-09
5.7820625e-09
6.0285847e-09
6.2353972e-09
6.4071033e-09
6.5505004e-09
6.6732707e-09
6.7780832e-09
6.8692482e-09
6.9445916e-09
7.009717e-09
7.0655113e-09
7.1141682e-09
7.1570466e-09
7.1950191e-09
7.2286511e-09
7.2539577e-09
7.2797429e-09
7.3209784e-09
7.3595304e-09
7.3826995e-09
7.3971255e-09
7.4088789e-09
0.0012571772
0.0029911534
0.0037457516
0.0036969215
0.0026548594
0.00061737145
1.0085378e-07
3.0091336e-09
2.8462485e-09
2.8788824e-09
2.8205267e-09
2.8607573e-09
2.848952e-09
2.8991546e-09
2.924941e-09
2.9895972e-09
3.0516062e-09
3.1439591e-09
3.24978e-09
3.3883146e-09
3.5541684e-09
3.7602572e-09
4.0057691e-09
4.294951e-09
4.6181154e-09
4.9602841e-09
5.2989258e-09
5.6140104e-09
5.8910443e-09
6.1248636e-09
6.3179653e-09
6.4760489e-09
6.6068058e-09
6.7185581e-09
6.8138628e-09
6.8970401e-09
6.9658498e-09
7.0259066e-09
7.0778863e-09
7.1237169e-09
7.1645944e-09
7.2010637e-09
7.2329824e-09
7.2568383e-09
7.2836572e-09
7.3270932e-09
7.3631502e-09
7.3846427e-09
7.3979351e-09
7.4090961e-09
0.0012563351
0.0029680121
0.0036834254
0.0035828797
0.0024446198
0.00049150395
3.7055757e-08
3.0308273e-09
2.8786958e-09
2.9114631e-09
2.8550677e-09
2.8965411e-09
2.8869076e-09
2.9391181e-09
2.9678034e-09
3.0356023e-09
3.1018377e-09
3.1991714e-09
3.3113176e-09
3.4574873e-09
3.6327696e-09
3.8498705e-09
4.1077439e-09
4.4090101e-09
4.7417651e-09
5.0886091e-09
5.4259028e-09
5.7339548e-09
5.9997958e-09
6.2201592e-09
6.3992135e-09
6.5436522e-09
6.6619648e-09
6.7630161e-09
6.8491096e-09
6.9245183e-09
6.9869567e-09
7.0420651e-09
7.0903098e-09
7.1333677e-09
7.1722688e-09
7.2071877e-09
7.2373081e-09
7.2598792e-09
7.2880111e-09
7.3331003e-09
7.3665849e-09
7.3864204e-09
7.3986467e-09
7.4092706e-09
0.0012554464
0.0029433338
0.0036180786
0.0034601134
0.0022267746
0.00037804829
1.6266324e-08
3.0576052e-09
2.9122286e-09
2.9451155e-09
2.8908252e-09
2.9336374e-09
2.9263694e-09
2.9807582e-09
3.0125663e-09
3.0837247e-09
3.154462e-09
3.2571113e-09
3.3760483e-09
3.5304163e-09
3.7157993e-09
3.9446014e-09
4.2153461e-09
4.5287055e-09
4.8703546e-09
5.2205563e-09
5.554898e-09
5.8544084e-09
6.1079018e-09
6.3141154e-09
6.4788505e-09
6.6096776e-09
6.7157829e-09
6.8064817e-09
6.8836794e-09
6.9515551e-09
7.0078032e-09
7.0581049e-09
7.1027125e-09
7.14307e-09
7.1800291e-09
7.2133407e-09
7.241611e-09
7.2631722e-09
7.2928998e-09
7.3388582e-09
7.3697953e-09
7.3880304e-09
7.3992544e-09
7.4094019e-09
0.0012544171
0.0029167775
0.0035498754
0.0033336288
0.0020049364
0.00027539666
8.7616133e-09
3.0875378e-09
2.9468617e-09
2.9799329e-09
2.9279268e-09
2.9721935e-09
2.9674838e-09
3.0241939e-09
3.0593371e-09
3.1340566e-09
3.2096e-09
3.3179494e-09
3.4441979e-09
3.6073812e-09
3.8035728e-09
4.0447703e-09
4.3288098e-09
4.6541003e-09
5.0037201e-09
5.3557738e-09
5.6854588e-09
5.9749034e-09
6.2149439e-09
6.4063919e-09
6.5566111e-09
6.6739199e-09
6.7680968e-09
6.8488199e-09
6.9174501e-09
6.9780414e-09
7.0282934e-09
7.0739487e-09
7.1150327e-09
7.1527767e-09
7.1878315e-09
7.2194698e-09
7.2458745e-09
7.2668113e-09
7.2985574e-09
7.3442179e-09
7.3727566e-09
7.3894869e-09
7.3997821e-09
7.4094841e-09
0.0012531411
0.0028879797
0.0034756494
0.0032049206
0.001782193
0.00018246741
5.7476359e-09
3.119662e-09
2.9827529e-09
3.0160993e-09
2.9665363e-09
3.0123525e-09
3.0103443e-09
3.0695083e-09
3.1081818e-09
3.1867013e-09
3.2673946e-09
3.3818814e-09
3.5160248e-09
3.6886868e-09
3.8964454e-09
4.1507184e-09
4.4483883e-09
4.7852325e-09
5.1416685e-09
5.4938785e-09
5.8171069e-09
6.0949604e-09
6.3205075e-09
6.4966682e-09
6.6322567e-09
6.7361968e-09
6.8187686e-09
6.889915e-09
6.9503161e-09
7.0038828e-09
7.0483438e-09
7.0895275e-09
7.1272158e-09
7.162443e-09
7.1956318e-09
7.2255223e-09
7.250083e-09
7.2708583e-09
7.305088e-09
7.3490953e-09
7.3754731e-09
7.3908082e-09
7.4002308e-09
7.4094942e-09
0.0012518345
0.0028586062
0.0033964027
0.0030724268
0.0015615337
0.00010178653
4.4237172e-09
3.1534464e-09
3.0201084e-09
3.0537302e-09
3.0067339e-09
3.0541594e-09
3.0550002e-09
3.1167448e-09
3.159182e-09
3.2417795e-09
3.3280237e-09
3.4491548e-09
3.5918209e-09
3.7746761e-09
3.9947717e-09
4.2627754e-09
4.5742488e-09
4.9220446e-09
5.2838905e-09
5.6343938e-09
5.9493011e-09
6.2140705e-09
6.4241817e-09
6.5846526e-09
6.705587e-09
6.7963541e-09
6.8676874e-09
6.9296721e-09
6.9821929e-09
7.0290016e-09
7.0678862e-09
7.1047817e-09
7.1392159e-09
7.1720284e-09
7.2033866e-09
7.2314497e-09
7.2542245e-09
7.2753102e-09
7.3121742e-09
7.3535672e-09
7.3779779e-09
7.3920168e-09
7.4006262e-09
7.4094621e-09
0.001250514
0.0028290308
0.003320408
0.0029334741
0.0013470119
4.3632351e-05
3.8162979e-09
3.1887489e-09
3.0588506e-09
3.0928294e-09
3.0485114e-09
3.0976301e-09
3.1014692e-09
3.1659745e-09
3.2124414e-09
3.299469e-09
3.3917084e-09
3.52004e-09
3.6719064e-09
3.8657121e-09
4.0989503e-09
4.3812832e-09
4.7065666e-09
5.0644447e-09
5.4300404e-09
5.7768036e-09
6.0814748e-09
6.3317209e-09
6.5255801e-09
6.6700916e-09
6.7764405e-09
6.8542594e-09
6.9147591e-09
6.9680101e-09
7.0130164e-09
7.0533324e-09
7.0868658e-09
7.1196586e-09
7.1509946e-09
7.1814977e-09
7.2110524e-09
7.2372135e-09
7.2582978e-09
7.280125e-09
7.3192933e-09
7.3578604e-09
7.3803101e-09
7.3931194e-09
7.4009703e-09
7.409416e-09
0.0012490322
0.0027975985
0.0032396104
0.0027853048
0.0011421583
1.3872649e-05
3.5402006e-09
3.2253234e-09
3.0989888e-09
3.1332816e-09
3.0918599e-09
3.14278e-09
3.1498245e-09
3.2173008e-09
3.2681176e-09
3.3599589e-09
3.4587169e-09
3.5948475e-09
3.7566332e-09
3.9621845e-09
4.2093714e-09
4.5065309e-09
4.8454037e-09
5.2122051e-09
5.5796419e-09
5.9204932e-09
6.2130057e-09
6.4474012e-09
6.6243585e-09
6.7527746e-09
6.8446886e-09
6.9098097e-09
6.9599034e-09
7.0048683e-09
7.0427484e-09
7.0768199e-09
7.1052386e-09
7.1341147e-09
7.1625214e-09
7.1908219e-09
7.218588e-09
7.24279e-09
7.2623278e-09
7.2852794e-09
7.3263836e-09
7.3619754e-09
7.382477e-09
7.394111e-09
7.401249e-09
7.4093673e-09
0.0012474531
0.0027650223
0.0031555845
0.0026280777
0.0009521742
3.5607467e-06
3.4251309e-09
3.2638364e-09
3.1402261e-09
3.17522e-09
3.1368638e-09
3.1897228e-09
3.200174e-09
3.270875e-09
3.3264067e-09
3.4235043e-09
3.5293357e-09
3.6739035e-09
3.8463712e-09
4.0645193e-09
4.3264609e-09
4.6388248e-09
4.9908061e-09
5.3650617e-09
5.7321771e-09
6.0648214e-09
6.3432821e-09
6.5606717e-09
6.7202542e-09
6.8325303e-09
6.9102012e-09
6.9629314e-09
7.0030466e-09
7.0402149e-09
7.0713701e-09
7.0994154e-09
7.1229592e-09
7.1481162e-09
7.1737712e-09
7.1999789e-09
7.2259569e-09
7.2481736e-09
7.2663843e-09
7.2907833e-09
7.3333423e-09
7.3658599e-09
7.3844605e-09
7.3949822e-09
7.4014651e-09
7.4092494e-09
0.0012458112
0.0027318275
0.0030685299
0.0024663146
0.00077933957
8.3856166e-07
3.3892924e-09
3.3035935e-09
3.1829306e-09
3.218716e-09
3.1835711e-09
3.2385675e-09
3.2526681e-09
3.3268942e-09
3.387551e-09
3.4903786e-09
3.6038833e-09
3.7575625e-09
3.9415253e-09
4.1731567e-09
4.450612e-09
4.7783678e-09
5.1426657e-09
5.52258e-09
5.8869825e-09
6.2090648e-09
6.4717154e-09
6.6712007e-09
6.8130918e-09
6.9092036e-09
6.9728038e-09
7.0135828e-09
7.0441356e-09
7.074068e-09
7.0988662e-09
7.1210806e-09
7.1399682e-09
7.1616416e-09
7.1847233e-09
7.2089499e-09
7.2331288e-09
7.2533738e-09
7.2705809e-09
7.2967184e-09
7.3399336e-09
7.3694728e-09
7.3862433e-09
7.3957214e-09
7.401619e-09
7.4090952e-09
0.0012443264
0.0026987969
0.0029799758
0.0022934849
0.00062413927
2.0892395e-07
3.392897e-09
3.3448384e-09
3.2270359e-09
3.2638958e-09
3.2321206e-09
3.2894461e-09
3.3075064e-09
3.3855972e-09
3.4518198e-09
3.5608819e-09
3.6826853e-09
3.8461987e-09
4.0425383e-09
4.2885865e-09
4.582256e-09
4.9253661e-09
5.3008443e-09
5.6842826e-09
6.0433676e-09
6.3525299e-09
6.5978623e-09
6.7788156e-09
6.9027497e-09
6.9826182e-09
7.0322631e-09
7.0617339e-09
7.0831649e-09
7.1064996e-09
7.1251925e-09
7.1417962e-09
7.1561934e-09
7.1746792e-09
7.1953601e-09
7.2177149e-09
7.2400798e-09
7.2584088e-09
7.2750399e-09
7.3032228e-09
7.3459637e-09
7.372773e-09
7.3878388e-09
7.3963446e-09
7.4016953e-09
7.4089176e-09
0.0012430403
0.0026658041
0.0028993299
0.0021107761
0.000492281
6.593917e-08
3.4160751e-09
3.3875124e-09
3.2727385e-09
3.3109297e-09
3.282612e-09
3.3425743e-09
3.3649176e-09
3.4472512e-09
3.5194944e-09
3.6353134e-09
3.766094e-09
3.9402271e-09
4.1498888e-09
4.4112918e-09
4.7217423e-09
5.0798606e-09
5.4650022e-09
5.8494985e-09
6.200527e-09
6.494557e-09
6.7214525e-09
6.883404e-09
6.9890036e-09
7.0525266e-09
7.0883935e-09
7.1073294e-09
7.1202266e-09
7.1375997e-09
7.1502563e-09
7.1615679e-09
7.1715887e-09
7.1872189e-09
7.2056668e-09
7.2262486e-09
7.2467883e-09
7.2632981e-09
7.2798479e-09
7.3103394e-09
7.3513681e-09
7.3757461e-09
7.3892757e-09
7.3968857e-09
7.4017333e-09
7.4087226e-09
0.0012416824
0.0026304674
0.002810658
0.0019173374
0.00037458819
2.5604681e-08
3.4491401e-09
3.431725e-09
3.3201579e-09
3.3599777e-09
3.3353446e-09
3.3982139e-09
3.4251618e-09
3.5120874e-09
3.5908465e-09
3.7140002e-09
3.8544846e-09
4.0401118e-09
4.2641055e-09
4.5418198e-09
4.8694323e-09
5.2418869e-09
5.634745e-09
6.0175286e-09
6.357696e-09
6.6346794e-09
6.8423943e-09
6.9846629e-09
7.0712912e-09
7.1185915e-09
7.1413441e-09
7.1502621e-09
7.1555304e-09
7.1673567e-09
7.1739593e-09
7.1804029e-09
7.1862122e-09
7.1992387e-09
7.2156319e-09
7.2345201e-09
7.2532319e-09
7.2680603e-09
7.2850378e-09
7.3179734e-09
7.356149e-09
7.3784275e-09
7.3905758e-09
7.3973655e-09
7.4017534e-09
7.4085072e-09
0.0012404593
0.0025939662
0.0027214729
0.0017171384
0.0002699619
1.2525497e-08
3.4881817e-09
3.477645e-09
3.3695463e-09
3.4112395e-09
3.3905883e-09
3.456608e-09
3.488474e-09
3.5803381e-09
3.6661885e-09
3.7972839e-09
3.9482948e-09
4.1463604e-09
4.3857605e-09
4.6806447e-09
5.0255563e-09
5.4112297e-09
5.8094495e-09
6.1874908e-09
6.5141036e-09
6.772604e-09
6.9604629e-09
7.0817008e-09
7.149171e-09
7.1806542e-09
7.191329e-09
7.1904554e-09
7.1893259e-09
7.1954686e-09
7.1963732e-09
7.198252e-09
7.2002857e-09
7.2107015e-09
7.2252483e-09
7.242498e-09
7.2593874e-09
7.2727141e-09
7.2905764e-09
7.3256125e-09
7.3606359e-09
7.3808718e-09
7.3917322e-09
7.3977614e-09
7.4017377e-09
7.4082402e-09
0.0012393753
0.0025555729
0.0026285909
0.0015137533
0.0001765408
7.6959149e-09
3.531585e-09
3.5256263e-09
3.4211404e-09
3.4649373e-09
3.4484123e-09
3.5179316e-09
3.5550727e-09
3.6523351e-09
3.7458328e-09
3.8855574e-09
4.0480015e-09
4.2595565e-09
4.5154718e-09
4.8283019e-09
5.1903223e-09
5.5876548e-09
5.9884405e-09
6.3585474e-09
6.6691739e-09
6.9082099e-09
7.0747177e-09
7.1739431e-09
7.2221791e-09
7.2387749e-09
7.2386208e-09
7.2280492e-09
7.2216269e-09
7.2217183e-09
7.2176148e-09
7.2149623e-09
7.2140845e-09
7.221582e-09
7.2345135e-09
7.2501566e-09
7.2652344e-09
7.2772891e-09
7.2963967e-09
7.3330816e-09
7.3648564e-09
7.383089e-09
7.3927231e-09
7.3980511e-09
7.4016478e-09
7.4079234e-09
0.0012382431
0.0025136231
0.0025320753
0.0013170394
9.7028316e-05
5.7020015e-09
3.5783928e-09
3.5757456e-09
3.4750164e-09
3.5211142e-09
3.508982e-09
3.5823524e-09
3.6252418e-09
3.7283508e-09
3.8301397e-09
3.9792811e-09
4.1541627e-09
4.3803331e-09
4.6538507e-09
4.9851911e-09
5.3637103e-09
5.7706244e-09
6.1708069e-09
6.5297982e-09
6.8224746e-09
7.0410891e-09
7.1840956e-09
7.2606368e-09
7.290309e-09
7.293961e-09
7.2830176e-09
7.263613e-09
7.2517822e-09
7.2467133e-09
7.2375177e-09
7.2305106e-09
7.2274849e-09
7.2319268e-09
7.2434294e-09
7.2574816e-09
7.2707714e-09
7.2818407e-09
7.302465e-09
7.3402451e-09
7.3688241e-09
7.3850822e-09
7.3935302e-09
7.398167e-09
7.4015025e-09
7.4075612e-09
0.0012366706
0.0024654783
0.0024298623
0.0011325067
4.0860488e-05
4.8190919e-09
3.6279218e-09
3.6280067e-09
3.5312432e-09
3.5799878e-09
3.5725094e-09
3.6502004e-09
3.6992392e-09
3.8087282e-09
3.9195361e-09
4.0789745e-09
4.2674041e-09
4.5093855e-09
4.8015593e-09
5.1517266e-09
5.5456666e-09
5.9595603e-09
6.3556678e-09
6.7005437e-09
6.973812e-09
7.1699855e-09
7.2877681e-09
7.3414297e-09
7.354626e-09
7.346011e-09
7.3245005e-09
7.2972502e-09
7.2799692e-09
7.2702361e-09
7.2561445e-09
7.2451331e-09
7.2401963e-09
7.241899e-09
7.2519963e-09
7.2644694e-09
7.2760192e-09
7.2864625e-09
7.3088385e-09
7.3469303e-09
7.3724779e-09
7.3868797e-09
7.3942293e-09
7.3982095e-09
7.401312e-09
7.4071525e-09
0.0012344897
0.0024115894
0.0023199282
0.00095945919
1.2888082e-05
4.4248841e-09
3.6800078e-09
3.6825606e-09
3.5900417e-09
3.6418378e-09
3.6394255e-09
3.7216348e-09
3.7773935e-09
3.8938538e-09
4.0145272e-09
4.1852576e-09
4.3884185e-09
4.6474318e-09
4.9591699e-09
5.3280949e-09
5.7358079e-09
6.1535633e-09
6.5419962e-09
6.8701548e-09
7.1227785e-09
7.2934335e-09
7.3848559e-09
7.4168939e-09
7.4157192e-09
7.3946097e-09
7.3632108e-09
7.3288837e-09
7.3062895e-09
7.2924436e-09
7.2736201e-09
7.2589277e-09
7.2518526e-09
7.2517029e-09
7.2602042e-09
7.2711221e-09
7.2810216e-09
7.2912738e-09
7.3156578e-09
7.3529349e-09
7.3757463e-09
7.3884713e-09
7.3948468e-09
7.3982235e-09
7.40108e-09
7.4066915e-09
0.0012315006
0.002350902
0.002194033
0.00079932493
3.3178638e-06
4.2616634e-09
3.7346918e-09
3.73967e-09
3.6517211e-09
3.7069113e-09
3.7098985e-09
3.7970402e-09
3.8600776e-09
3.9842248e-09
4.1157095e-09
4.2988145e-09
4.5179631e-09
4.795248e-09
5.1272872e-09
5.5144673e-09
5.9337056e-09
6.3517492e-09
6.7289416e-09
7.0382681e-09
7.2679145e-09
7.4104365e-09
7.4749953e-09
7.4885533e-09
7.4728802e-09
7.4399043e-09
7.3992584e-09
7.3585214e-09
7.3308914e-09
7.3133464e-09
7.2900349e-09
7.2719532e-09
7.2625787e-09
7.261246e-09
7.2680246e-09
7.2774407e-09
7.2858373e-09
7.296372e-09
7.323007e-09
7.3581394e-09
7.3785751e-09
7.3897748e-09
7.3953195e-09
7.3982201e-09
7.4007965e-09
7.4061707e-09
0.0012278907
0.0022846821
0.0020506205
0.00065467052
7.9816783e-07
4.211497e-09
3.7922168e-09
3.7996898e-09
3.7166194e-09
3.7755291e-09
3.784207e-09
3.8767016e-09
3.9477488e-09
4.0803866e-09
4.2237704e-09
4.4204125e-09
4.6568321e-09
4.9535718e-09
5.3063169e-09
5.7106777e-09
6.1385337e-09
6.552987e-09
6.9156268e-09
7.2044167e-09
7.4074721e-09
7.5199735e-09
7.5592725e-09
7.5562495e-09
7.5261275e-09
7.4819482e-09
7.4327676e-09
7.3861796e-09
7.3539016e-09
7.3330167e-09
7.3053723e-09
7.2840822e-09
7.2726516e-09
7.2704991e-09
7.2754173e-09
7.2834208e-09
7.2905275e-09
7.3017866e-09
7.33065e-09
7.3626453e-09
7.3809897e-09
7.3908092e-09
7.3955959e-09
7.3980852e-09
7.4004385e-09
7.4055942e-09
0.0012239466
0.0022147001
0.0018919185
0.00052691589
2.072053e-07
4.2180984e-09
3.8529333e-09
3.8628531e-09
3.7849155e-09
3.8478993e-09
3.8626053e-09
3.9610801e-09
4.0409934e-09
4.1830412e-09
4.3394655e-09
4.5508481e-09
4.8059016e-09
5.1231615e-09
5.4966955e-09
5.9164822e-09
6.3494882e-09
6.7562795e-09
7.1014686e-09
7.3673409e-09
7.5400134e-09
7.6215271e-09
7.6392658e-09
7.6194094e-09
7.5755154e-09
7.5208838e-09
7.4638479e-09
7.4118978e-09
7.3754594e-09
7.3514895e-09
7.3196169e-09
7.2953809e-09
7.2821796e-09
7.2794222e-09
7.2823812e-09
7.2890538e-09
7.2951481e-09
7.3074743e-09
7.3380879e-09
7.3667593e-09
7.3830909e-09
7.3916413e-09
7.3957383e-09
7.3978742e-09
7.400036e-09
7.4049716e-09
0.0012198148
0.0021415493
0.0017243382
0.00041475972
6.7345797e-08
4.2534409e-09
3.9166944e-09
3.9291622e-09
3.8566435e-09
3.9242003e-09
3.9455712e-09
4.050799e-09
4.1405428e-09
4.2929316e-09
4.4635745e-09
4.6910073e-09
4.9660138e-09
5.304684e-09
5.6984747e-09
6.1312357e-09
6.5653493e-09
6.9605329e-09
7.2858522e-09
7.5249728e-09
7.6643626e-09
7.7162449e-09
7.7147213e-09
7.6780051e-09
7.6211721e-09
7.5568397e-09
7.492612e-09
7.4357533e-09
7.3956766e-09
7.3688052e-09
7.3327887e-09
7.3059228e-09
7.2912078e-09
7.2879143e-09
7.289014e-09
7.2943363e-09
7.2997357e-09
7.3133785e-09
7.3451412e-09
7.3705508e-09
7.3849663e-09
7.3923516e-09
7.3958157e-09
7.3976203e-09
7.3995962e-09
7.4043079e-09
0.0012154572
0.0020625275
0.0015622969
0.00031604134
2.7778159e-08
4.303382e-09
3.983468e-09
3.9989084e-09
3.9321185e-09
4.004929e-09
4.0337923e-09
4.1466299e-09
4.2471793e-09
4.4108211e-09
4.5969207e-09
4.8418179e-09
5.1381035e-09
5.4987915e-09
5.9116951e-09
6.3542312e-09
6.7850597e-09
7.1649134e-09
7.467918e-09
7.6752806e-09
7.7796962e-09
7.8058171e-09
7.7850392e-09
7.7321414e-09
7.6632448e-09
7.5899658e-09
7.519175e-09
7.4578713e-09
7.414627e-09
7.3850019e-09
7.3449663e-09
7.3158241e-09
7.2997384e-09
7.2957694e-09
7.2954959e-09
7.2992929e-09
7.3043176e-09
7.3195062e-09
7.3516827e-09
7.3740359e-09
7.3866516e-09
7.3929786e-09
7.3958669e-09
7.3973213e-09
7.3991163e-09
7.4036049e-09
0.0012114582
0.001976446
0.0013959516
0.00022618928
1.4216726e-08
4.3621398e-09
4.0537044e-09
4.0725588e-09
4.0121914e-09
4.0908844e-09
4.128042e-09
4.2493108e-09
4.361631e-09
4.5374972e-09
4.7404332e-09
5.0042763e-09
5.3230497e-09
5.7058428e-09
6.1359098e-09
6.5842875e-09
7.007313e-09
7.3685399e-09
7.6453373e-09
7.8168742e-09
7.886796e-09
7.8903839e-09
7.8500402e-09
7.7819635e-09
7.7018998e-09
7.6204127e-09
7.5436598e-09
7.4783693e-09
7.4323877e-09
7.4001282e-09
7.3562515e-09
7.3251702e-09
7.3078246e-09
7.3028982e-09
7.301853e-09
7.3040049e-09
7.3089528e-09
7.3259439e-09
7.3575821e-09
7.3771948e-09
7.3881259e-09
7.3934572e-09
7.3958022e-09
7.3969464e-09
7.3985921e-09
7.4028659e-09
0.0012096592
0.0018986984
0.0012307096
0.00014541939
9.0097761e-09
4.4267527e-09
4.1279463e-09
4.15089e-09
4.0977679e-09
4.1829215e-09
4.2291596e-09
4.3593093e-09
4.484616e-09
4.6738785e-09
4.8951298e-09
5.179489e-09
5.521751e-09
5.9261621e-09
6.3706106e-09
6.8203012e-09
7.2310653e-09
7.5707398e-09
7.8156913e-09
7.9485412e-09
7.9874892e-09
7.9692339e-09
7.9098919e-09
7.8276551e-09
7.7373171e-09
7.6483369e-09
7.5661933e-09
7.4973659e-09
7.4490282e-09
7.4142422e-09
7.3667476e-09
7.3339637e-09
7.31538e-09
7.3095075e-09
7.3079366e-09
7.3086109e-09
7.3138169e-09
7.3328153e-09
7.3627421e-09
7.3799436e-09
7.3893352e-09
7.3937604e-09
7.3955855e-09
7.3964954e-09
7.3980202e-09
7.4020916e-09
0.0012087534
0.0018146628
0.0010681894
7.7595754e-05
6.7880595e-09
4.4964551e-09
4.207374e-09
4.2348698e-09
4.1893519e-09
4.2815517e-09
4.3374954e-09
4.4774366e-09
4.6170063e-09
4.8210179e-09
5.0621694e-09
5.3685646e-09
5.7348814e-09
6.1595812e-09
6.6147057e-09
7.0607781e-09
7.4550576e-09
7.7694613e-09
7.9769422e-09
8.0702556e-09