/*--------------------------------*- C++ -*----------------------------------*\
  =========                 |
  \\      /  F ield         | OpenFOAM: The Open Source CFD Toolbox
   \\    /   O peration     | Website:  https://openfoam.org
    \\  /    A nd           | Version:  8
     \\/     M anipulation  |
\*---------------------------------------------------------------------------*/
FoamFile
{
    version     2.0;
    format      ascii;
    class       volScalarField;
    location    "0.140008";
    object      nuTilda;
}
// * * * * * * * * * * * * * * * * * * * * * * * * * * * * * * * * * * * * * //

dimensions      [0 2 -1 0 0 0 0];

internalField   nonuniform List<scalar> 
20000
(
0.0012813466
0.0033461117
0.0046647895
0.0053389947
0.005210391
0.0040135292
0.0013981261
8.1675309e-05
1.0292847e-05
1.0139652e-05
1.0065883e-05
1.007075e-05
1.003068e-05
1.0036172e-05
1.001807e-05
1.0018819e-05
1.0010415e-05
1.0008711e-05
1.0005214e-05
1.0003931e-05
1.0002473e-05
1.0001697e-05
1.0001108e-05
1.00009e-05
1.0000831e-05
1.0000684e-05
1.0000525e-05
1.0000426e-05
1.0000406e-05
1.0000434e-05
1.0000512e-05
1.0000615e-05
1.0000698e-05
1.0000702e-05
1.0000783e-05
1.0000892e-05
1.0000895e-05
1.0001103e-05
1.0001211e-05
1.0001226e-05
1.0001249e-05
1.000132e-05
1.0001364e-05
1.0001197e-05
1.0001204e-05
1.0000807e-05
1.0000591e-05
1.0000536e-05
1.0000797e-05
1.0001246e-05
0.0012862215
0.0033298558
0.0046158806
0.0052551446
0.0050819393
0.0038394162
0.0012259868
6.2845429e-05
1.023025e-05
1.0140234e-05
1.0065377e-05
1.0070586e-05
1.0030432e-05
1.0036065e-05
1.0017837e-05
1.0018672e-05
1.0010299e-05
1.0008624e-05
1.0005146e-05
1.0003872e-05
1.0002426e-05
1.0001658e-05
1.0001066e-05
1.0000852e-05
1.0000786e-05
1.0000644e-05
1.0000494e-05
1.0000412e-05
1.0000392e-05
1.0000395e-05
1.0000457e-05
1.000056e-05
1.0000652e-05
1.0000672e-05
1.0000758e-05
1.0000875e-05
1.0000875e-05
1.0001083e-05
1.00012e-05
1.0001223e-05
1.0001238e-05
1.0001288e-05
1.0001307e-05
1.0001193e-05
1.0001242e-05
1.000079e-05
1.0000576e-05
1.0000468e-05
1.0000696e-05
1.0001227e-05
0.0012845642
0.0033079201
0.004564335
0.005167464
0.0049506578
0.0036533314
0.001055772
4.7920706e-05
1.0190984e-05
1.0139683e-05
1.0064872e-05
1.0070289e-05
1.0030215e-05
1.0035884e-05
1.0017618e-05
1.0018506e-05
1.0010178e-05
1.0008533e-05
1.0005088e-05
1.0003835e-05
1.0002413e-05
1.0001664e-05
1.0001081e-05
1.0000855e-05
1.0000788e-05
1.0000646e-05
1.0000499e-05
1.0000414e-05
1.0000385e-05
1.0000384e-05
1.0000449e-05
1.0000556e-05
1.0000656e-05
1.000067e-05
1.0000747e-05
1.0000868e-05
1.0000865e-05
1.0001075e-05
1.0001197e-05
1.0001216e-05
1.0001229e-05
1.0001262e-05
1.000127e-05
1.0001172e-05
1.0001255e-05
1.0000774e-05
1.0000569e-05
1.0000464e-05
1.0000696e-05
1.0001192e-05
0.0012828017
0.0032867131
0.004512933
0.0050761248
0.0048182168
0.0034597479
0.00090232181
3.6716012e-05
1.0166548e-05
1.0139055e-05
1.0064326e-05
1.0069925e-05
1.0030029e-05
1.0035675e-05
1.0017408e-05
1.0018326e-05
1.0010058e-05
1.000843e-05
1.0005022e-05
1.0003783e-05
1.0002382e-05
1.0001648e-05
1.0001072e-05
1.0000852e-05
1.000079e-05
1.000065e-05
1.0000499e-05
1.000041e-05
1.0000381e-05
1.000038e-05
1.0000445e-05
1.0000548e-05
1.0000649e-05
1.0000666e-05
1.0000738e-05
1.0000864e-05
1.0000858e-05
1.0001062e-05
1.0001191e-05
1.0001214e-05
1.0001222e-05
1.0001243e-05
1.0001243e-05
1.0001151e-05
1.0001252e-05
1.0000764e-05
1.0000564e-05
1.0000457e-05
1.0000677e-05
1.000118e-05
0.0012809904
0.0032660724
0.0044629608
0.0049890086
0.0046844458
0.0032569587
0.00076391663
2.8417045e-05
1.0151062e-05
1.0138321e-05
1.0063744e-05
1.0069493e-05
1.0029874e-05
1.0035442e-05
1.0017208e-05
1.0018138e-05
1.000994e-05
1.0008327e-05
1.0004958e-05
1.0003734e-05
1.0002357e-05
1.0001639e-05
1.0001071e-05
1.0000853e-05
1.0000791e-05
1.0000651e-05
1.0000504e-05
1.0000409e-05
1.0000376e-05
1.0000374e-05
1.0000438e-05
1.0000544e-05
1.0000645e-05
1.0000663e-05
1.0000727e-05
1.0000859e-05
1.000085e-05
1.0001051e-05
1.0001185e-05
1.000121e-05
1.0001217e-05
1.0001228e-05
1.000123e-05
1.000113e-05
1.0001221e-05
1.0000756e-05
1.0000557e-05
1.0000453e-05
1.0000663e-05
1.0001135e-05
0.0012789456
0.0032452782
0.0044123151
0.0049011124
0.0045494125
0.0030457031
0.00063688053
2.2387852e-05
1.014116e-05
1.0137343e-05
1.006313e-05
1.0068991e-05
1.0029697e-05
1.0035182e-05
1.0017019e-05
1.0017941e-05
1.0009824e-05
1.0008219e-05
1.0004894e-05
1.0003682e-05
1.000233e-05
1.0001627e-05
1.0001068e-05
1.0000854e-05
1.0000793e-05
1.0000653e-05
1.0000507e-05
1.0000408e-05
1.0000372e-05
1.0000369e-05
1.0000433e-05
1.0000538e-05
1.0000641e-05
1.000066e-05
1.0000717e-05
1.0000854e-05
1.0000843e-05
1.0001039e-05
1.0001178e-05
1.0001207e-05
1.0001213e-05
1.0001217e-05
1.0001222e-05
1.0001117e-05
1.0001155e-05
1.0000751e-05
1.0000552e-05
1.0000448e-05
1.0000647e-05
1.000109e-05
0.0012767779
0.003224315
0.0043608661
0.0048120934
0.0044134496
0.0028262679
0.00052303184
1.8146106e-05
1.0134706e-05
1.0136021e-05
1.0062487e-05
1.0068424e-05
1.002951e-05
1.0034897e-05
1.001684e-05
1.0017735e-05
1.0009711e-05
1.0008107e-05
1.000483e-05
1.0003629e-05
1.0002303e-05
1.0001615e-05
1.0001066e-05
1.0000855e-05
1.0000793e-05
1.0000654e-05
1.000051e-05
1.0000408e-05
1.0000368e-05
1.0000365e-05
1.0000428e-05
1.0000533e-05
1.0000636e-05
1.0000657e-05
1.0000708e-05
1.0000849e-05
1.0000836e-05
1.0001027e-05
1.0001171e-05
1.0001203e-05
1.0001209e-05
1.0001207e-05
1.0001208e-05
1.0001109e-05
1.0001107e-05
1.0000746e-05
1.0000548e-05
1.0000444e-05
1.0000631e-05
1.0001042e-05
0.0012746693
0.0032030467
0.0043081792
0.0047216489
0.0042766301
0.0025995769
0.00042269206
1.525038e-05
1.0130298e-05
1.0134457e-05
1.0061818e-05
1.0067795e-05
1.0029314e-05
1.0034588e-05
1.0016672e-05
1.0017521e-05
1.0009599e-05
1.0007992e-05
1.0004765e-05
1.0003575e-05
1.0002276e-05
1.0001603e-05
1.0001063e-05
1.0000856e-05
1.0000794e-05
1.0000656e-05
1.0000513e-05
1.0000408e-05
1.0000365e-05
1.0000361e-05
1.0000424e-05
1.0000527e-05
1.0000631e-05
1.0000653e-05
1.0000698e-05
1.0000844e-05
1.0000829e-05
1.0001015e-05
1.0001163e-05
1.0001199e-05
1.0001206e-05
1.0001197e-05
1.0001189e-05
1.0001098e-05
1.0001104e-05
1.0000737e-05
1.0000545e-05
1.0000438e-05
1.0000616e-05
1.0001001e-05
0.0012725424
0.0031815691
0.0042541515
0.0046293637
0.0041386889
0.0023674127
0.00033606217
1.3334954e-05
1.0127095e-05
1.0132801e-05
1.0061126e-05
1.0067106e-05
1.0029111e-05
1.0034254e-05
1.0016514e-05
1.0017298e-05
1.000949e-05
1.0007874e-05
1.0004701e-05
1.000352e-05
1.0002249e-05
1.000159e-05
1.0001061e-05
1.0000857e-05
1.0000794e-05
1.0000656e-05
1.0000516e-05
1.0000409e-05
1.0000362e-05
1.0000358e-05
1.000042e-05
1.0000522e-05
1.0000625e-05
1.000065e-05
1.0000689e-05
1.0000839e-05
1.0000822e-05
1.0001003e-05
1.0001155e-05
1.0001194e-05
1.0001202e-05
1.0001189e-05
1.0001177e-05
1.0001081e-05
1.0001094e-05
1.0000728e-05
1.0000543e-05
1.0000432e-05
1.0000602e-05
1.0000958e-05
0.0012704758
0.0031601265
0.0041996349
0.0045346701
0.0039988463
0.0021328575
0.00026288334
1.2106632e-05
1.0124613e-05
1.0131045e-05
1.0060414e-05
1.0066359e-05
1.0028902e-05
1.0033896e-05
1.0016367e-05
1.0017067e-05
1.0009384e-05
1.0007754e-05
1.0004637e-05
1.0003464e-05
1.0002221e-05
1.0001577e-05
1.0001059e-05
1.0000859e-05
1.0000794e-05
1.0000657e-05
1.0000518e-05
1.0000409e-05
1.000036e-05
1.0000355e-05
1.0000416e-05
1.0000516e-05
1.000062e-05
1.0000647e-05
1.000068e-05
1.0000834e-05
1.0000816e-05
1.0000992e-05
1.0001146e-05
1.0001189e-05
1.0001198e-05
1.0001181e-05
1.0001167e-05
1.0001059e-05
1.0000979e-05
1.000072e-05
1.0000541e-05
1.0000424e-05
1.0000588e-05
1.0000918e-05
0.001268578
0.0031386799
0.004144008
0.0044368031
0.0038558652
0.0019029038
0.00020251396
1.1342227e-05
1.0122559e-05
1.0129198e-05
1.0059686e-05
1.0065558e-05
1.0028687e-05
1.0033515e-05
1.001623e-05
1.0016828e-05
1.000928e-05
1.0007631e-05
1.0004573e-05
1.0003408e-05
1.0002194e-05
1.0001563e-05
1.0001057e-05
1.000086e-05
1.0000794e-05
1.0000658e-05
1.000052e-05
1.0000411e-05
1.0000359e-05
1.0000352e-05
1.0000413e-05
1.000051e-05
1.0000614e-05
1.0000643e-05
1.0000671e-05
1.0000828e-05
1.0000809e-05
1.0000981e-05
1.0001138e-05
1.0001184e-05
1.0001194e-05
1.0001174e-05
1.0001154e-05
1.0001041e-05
1.0000908e-05
1.0000714e-05
1.0000537e-05
1.0000417e-05
1.0000575e-05
1.0000879e-05
0.0012669525
0.0031175277
0.0040879452
0.0043355276
0.0037083707
0.0016815015
0.00015373194
1.087896e-05
1.0120757e-05
1.0127269e-05
1.0058943e-05
1.0064707e-05
1.0028468e-05
1.0033113e-05
1.0016103e-05
1.0016583e-05
1.0009179e-05
1.0007506e-05
1.0004509e-05
1.0003351e-05
1.0002167e-05
1.000155e-05
1.0001055e-05
1.0000862e-05
1.0000793e-05
1.0000658e-05
1.0000522e-05
1.0000412e-05
1.0000358e-05
1.000035e-05
1.000041e-05
1.0000505e-05
1.0000608e-05
1.0000639e-05
1.0000662e-05
1.0000822e-05
1.0000802e-05
1.000097e-05
1.0001129e-05
1.0001179e-05
1.0001188e-05
1.0001165e-05
1.0001131e-05
1.0001034e-05
1.0000882e-05
1.0000705e-05
1.0000532e-05
1.0000411e-05
1.0000563e-05
1.0000841e-05
0.0012655332
0.0030969191
0.00403227
0.0042320382
0.0035559719
0.0014703384
0.00011500281
1.0603753e-05
1.0119101e-05
1.0125255e-05
1.0058189e-05
1.0063807e-05
1.0028246e-05
1.003269e-05
1.0015986e-05
1.0016331e-05
1.000908e-05
1.000738e-05
1.0004446e-05
1.0003294e-05
1.000214e-05
1.0001537e-05
1.0001053e-05
1.0000865e-05
1.0000793e-05
1.0000658e-05
1.0000523e-05
1.0000414e-05
1.0000357e-05
1.0000349e-05
1.0000408e-05
1.00005e-05
1.0000602e-05
1.0000635e-05
1.0000653e-05
1.0000816e-05
1.0000795e-05
1.000096e-05
1.0001119e-05
1.0001174e-05
1.0001183e-05
1.0001156e-05
1.0001109e-05
1.0001034e-05
1.0000902e-05
1.0000693e-05
1.0000523e-05
1.0000404e-05
1.0000552e-05
1.0000805e-05
0.0012643362
0.0030765272
0.0039768505
0.0041336185
0.003396192
0.0012717631
8.4766307e-05
1.044306e-05
1.0117531e-05
1.0123177e-05
1.0057427e-05
1.0062865e-05
1.0028022e-05
1.003225e-05
1.0015878e-05
1.0016074e-05
1.0008983e-05
1.0007252e-05
1.0004383e-05
1.0003236e-05
1.0002114e-05
1.0001523e-05
1.0001052e-05
1.0000867e-05
1.0000792e-05
1.0000658e-05
1.0000524e-05
1.0000416e-05
1.0000357e-05
1.0000348e-05
1.0000405e-05
1.0000494e-05
1.0000596e-05
1.0000631e-05
1.0000645e-05
1.000081e-05
1.0000789e-05
1.000095e-05
1.000111e-05
1.0001169e-05
1.0001178e-05
1.0001148e-05
1.0001095e-05
1.0001035e-05
1.0000936e-05
1.0000681e-05
1.0000512e-05
1.0000398e-05
1.0000541e-05
1.000077e-05
0.0012631499
0.0030561124
0.0039209396
0.0040274174
0.0032264044
0.0010859355
6.180799e-05
1.0351199e-05
1.0116012e-05
1.0121034e-05
1.0056657e-05
1.0061883e-05
1.0027796e-05
1.0031792e-05
1.0015778e-05
1.0015812e-05
1.0008888e-05
1.0007123e-05
1.000432e-05
1.0003179e-05
1.0002087e-05
1.000151e-05
1.000105e-05
1.0000869e-05
1.0000791e-05
1.0000658e-05
1.0000524e-05
1.0000417e-05
1.0000358e-05
1.0000347e-05
1.0000403e-05
1.0000489e-05
1.000059e-05
1.0000628e-05
1.0000636e-05
1.0000804e-05
1.0000781e-05
1.0000941e-05
1.00011e-05
1.0001164e-05
1.0001176e-05
1.0001142e-05
1.0001086e-05
1.0001038e-05
1.0000977e-05
1.0000667e-05
1.0000498e-05
1.0000391e-05
1.000053e-05
1.0000736e-05
0.0012620659
0.0030355762
0.0038662497
0.0039203294
0.0030466632
0.00091466648
4.4870946e-05
1.0298815e-05
1.0114526e-05
1.0118832e-05
1.0055884e-05
1.0060863e-05
1.0027569e-05
1.0031318e-05
1.0015685e-05
1.0015546e-05
1.0008796e-05
1.0006994e-05
1.0004258e-05
1.0003121e-05
1.0002061e-05
1.0001497e-05
1.0001049e-05
1.000087e-05
1.000079e-05
1.0000657e-05
1.0000524e-05
1.0000417e-05
1.0000358e-05
1.0000346e-05
1.00004e-05
1.0000484e-05
1.0000584e-05
1.0000624e-05
1.0000627e-05
1.0000797e-05
1.0000774e-05
1.0000931e-05
1.0001091e-05
1.0001159e-05
1.0001173e-05
1.0001137e-05
1.0001079e-05
1.0001039e-05
1.0001008e-05
1.0000652e-05
1.0000482e-05
1.0000384e-05
1.0000521e-05
1.0000702e-05
0.0012609524
0.0030136839
0.0038063325
0.0038091324
0.0028562082
0.00076073241
3.2886058e-05
1.0268627e-05
1.0113065e-05
1.0116588e-05
1.0055108e-05
1.0059814e-05
1.0027343e-05
1.0030831e-05
1.0015599e-05
1.001527e-05
1.0008705e-05
1.0006865e-05
1.0004196e-05
1.0003064e-05
1.0002036e-05
1.0001484e-05
1.0001048e-05
1.0000872e-05
1.0000789e-05
1.0000656e-05
1.0000524e-05
1.0000418e-05
1.0000357e-05
1.0000345e-05
1.0000397e-05
1.0000479e-05
1.0000577e-05
1.0000619e-05
1.0000619e-05
1.0000789e-05
1.0000766e-05
1.0000922e-05
1.0001081e-05
1.0001154e-05
1.0001169e-05
1.0001132e-05
1.0001072e-05
1.0001033e-05
1.0001025e-05
1.0000636e-05
1.0000465e-05
1.0000375e-05
1.0000512e-05
1.000067e-05
0.0012600125
0.0029916598
0.0037460728
0.0036972442
0.00265545
0.0006268319
2.4750796e-05
1.0250584e-05
1.0111622e-05
1.0114301e-05
1.0054333e-05
1.0058737e-05
1.0027118e-05
1.003033e-05
1.001552e-05
1.0014979e-05
1.0008615e-05
1.0006736e-05
1.0004134e-05
1.0003008e-05
1.0002011e-05
1.0001471e-05
1.0001047e-05
1.0000873e-05
1.0000788e-05
1.0000655e-05
1.0000523e-05
1.0000417e-05
1.0000357e-05
1.0000344e-05
1.0000394e-05
1.0000474e-05
1.0000571e-05
1.0000615e-05
1.000061e-05
1.0000782e-05
1.0000759e-05
1.0000912e-05
1.0001072e-05
1.0001148e-05
1.0001164e-05
1.0001128e-05
1.0001064e-05
1.0001019e-05
1.0001023e-05
1.0000622e-05
1.0000448e-05
1.0000366e-05
1.0000499e-05
1.0000639e-05
0.0012591386
0.00296852
0.0036837534
0.0035832186
0.0024453035
0.00050562086
1.9203075e-05
1.0239047e-05
1.0110191e-05
1.0111988e-05
1.005356e-05
1.0057641e-05
1.0026894e-05
1.0029818e-05
1.0015446e-05
1.001469e-05
1.0008527e-05
1.0006607e-05
1.0004073e-05
1.0002953e-05
1.0001986e-05
1.0001459e-05
1.0001046e-05
1.0000874e-05
1.0000787e-05
1.0000654e-05
1.0000522e-05
1.0000417e-05
1.0000356e-05
1.0000342e-05
1.0000392e-05
1.0000469e-05
1.0000564e-05
1.0000611e-05
1.0000601e-05
1.0000774e-05
1.000075e-05
1.0000902e-05
1.0001062e-05
1.0001143e-05
1.0001159e-05
1.0001125e-05
1.0001055e-05
1.0000996e-05
1.0000991e-05
1.0000609e-05
1.0000431e-05
1.0000356e-05
1.0000485e-05
1.0000608e-05
0.0012582183
0.0029438439
0.0036184143
0.0034604718
0.0022275826
0.00039968262
1.5580922e-05
1.0231077e-05
1.0108767e-05
1.0109652e-05
1.005279e-05
1.0056526e-05
1.0026672e-05
1.0029297e-05
1.0015377e-05
1.0014402e-05
1.000844e-05
1.0006479e-05
1.0004013e-05
1.0002898e-05
1.0001962e-05
1.0001447e-05
1.0001046e-05
1.0000875e-05
1.0000785e-05
1.0000652e-05
1.0000521e-05
1.0000416e-05
1.0000354e-05
1.0000341e-05
1.0000389e-05
1.0000465e-05
1.0000558e-05
1.0000606e-05
1.0000593e-05
1.0000766e-05
1.0000742e-05
1.0000891e-05
1.0001053e-05
1.0001138e-05
1.0001156e-05
1.0001123e-05
1.0001048e-05
1.000097e-05
1.0000922e-05
1.00006e-05
1.0000415e-05
1.0000345e-05
1.0000467e-05
1.0000579e-05
0.0012571577
0.0029172903
0.0035502195
0.0033340094
0.0020059132
0.00030898245
1.3306442e-05
1.0224983e-05
1.0107345e-05
1.0107301e-05
1.0052025e-05
1.0055397e-05
1.0026454e-05
1.0028768e-05
1.0015312e-05
1.0014116e-05
1.0008354e-05
1.0006353e-05
1.0003953e-05
1.0002844e-05
1.0001939e-05
1.0001435e-05
1.0001045e-05
1.0000876e-05
1.0000783e-05
1.000065e-05
1.0000519e-05
1.0000414e-05
1.0000353e-05
1.0000339e-05
1.0000386e-05
1.000046e-05
1.0000552e-05
1.0000602e-05
1.0000584e-05
1.0000757e-05
1.0000732e-05
1.000088e-05
1.0001042e-05
1.0001133e-05
1.0001153e-05
1.0001121e-05
1.0001044e-05
1.000095e-05
1.0000868e-05
1.000059e-05
1.00004e-05
1.0000334e-05
1.0000449e-05
1.0000549e-05
0.0012558519
0.0028884961
0.0034760037
0.0032053264
0.0017834035
0.00023335613
1.1938159e-05
1.021979e-05
1.0105923e-05
1.0104944e-05
1.0051267e-05
1.005426e-05
1.0026239e-05
1.0028234e-05
1.0015248e-05
1.0013836e-05
1.000827e-05
1.0006228e-05
1.0003893e-05
1.0002792e-05
1.0001916e-05
1.0001424e-05
1.0001045e-05
1.0000876e-05
1.0000781e-05
1.0000648e-05
1.0000517e-05
1.0000413e-05
1.0000351e-05
1.0000337e-05
1.0000382e-05
1.0000456e-05
1.0000545e-05
1.0000597e-05
1.0000576e-05
1.0000748e-05
1.0000723e-05
1.0000869e-05
1.0001032e-05
1.0001128e-05
1.000115e-05
1.0001119e-05
1.0001044e-05
1.0000943e-05
1.0000855e-05
1.0000578e-05
1.0000386e-05
1.0000323e-05
1.0000431e-05
1.000052e-05
0.001254515
0.0028591262
0.0033967685
0.0030728616
0.0015630764
0.0001718432
1.1146621e-05
1.0214861e-05
1.0104483e-05
1.0102575e-05
1.0050516e-05
1.0053115e-05
1.0026029e-05
1.0027698e-05
1.0015187e-05
1.0013563e-05
1.0008186e-05
1.0006105e-05
1.0003835e-05
1.0002741e-05
1.0001894e-05
1.0001413e-05
1.0001044e-05
1.0000877e-05
1.0000779e-05
1.0000646e-05
1.0000515e-05
1.0000411e-05
1.0000349e-05
1.0000335e-05
1.0000379e-05
1.0000451e-05
1.0000539e-05
1.0000592e-05
1.0000567e-05
1.0000739e-05
1.0000713e-05
1.0000857e-05
1.000102e-05
1.0001122e-05
1.0001147e-05
1.0001116e-05
1.0001046e-05
1.0000945e-05
1.0000834e-05
1.0000565e-05
1.0000374e-05
1.0000314e-05
1.0000417e-05
1.0000495e-05
0.0012531644
0.0028295546
0.0033207854
0.0029339435
0.0013490386
0.00012346851
1.0708124e-05
1.0209827e-05
1.0103015e-05
1.010015e-05
1.0049775e-05
1.0051968e-05
1.0025823e-05
1.0027162e-05
1.0015127e-05
1.0013307e-05
1.0008102e-05
1.0005984e-05
1.0003777e-05
1.0002692e-05
1.0001872e-05
1.0001402e-05
1.0001044e-05
1.0000877e-05
1.0000777e-05
1.0000643e-05
1.0000512e-05
1.0000408e-05
1.0000347e-05
1.0000332e-05
1.0000376e-05
1.0000447e-05
1.0000533e-05
1.0000587e-05
1.0000559e-05
1.000073e-05
1.0000703e-05
1.0000845e-05
1.0001009e-05
1.0001116e-05
1.0001143e-05
1.0001113e-05
1.0001048e-05
1.0000953e-05
1.0000775e-05
1.0000553e-05
1.0000364e-05
1.0000307e-05
1.0000406e-05
1.0000475e-05
0.0012516527
0.0027981268
0.003240001
0.0027858168
0.0011449098
8.6533493e-05
1.0474464e-05
1.0204833e-05
1.0101522e-05
1.0097668e-05
1.0049044e-05
1.005082e-05
1.0025624e-05
1.0026628e-05
1.0015068e-05
1.0013057e-05
1.0008017e-05
1.0005866e-05
1.000372e-05
1.0002644e-05
1.0001851e-05
1.0001392e-05
1.0001043e-05
1.0000878e-05
1.0000775e-05
1.000064e-05
1.0000509e-05
1.0000406e-05
1.0000345e-05
1.000033e-05
1.0000373e-05
1.0000443e-05
1.0000527e-05
1.0000581e-05
1.0000551e-05
1.000072e-05
1.0000693e-05
1.0000832e-05
1.0000997e-05
1.0001109e-05
1.000114e-05
1.0001108e-05
1.0001046e-05
1.0000967e-05
1.0000742e-05
1.0000543e-05
1.0000356e-05
1.0000302e-05
1.0000398e-05
1.0000459e-05
0.0012500445
0.0027655557
0.0031559901
0.0026286425
0.00095603155
5.9660703e-05
1.0354004e-05
1.0200574e-05
1.0099983e-05
1.00952e-05
1.0048322e-05
1.0049678e-05
1.002543e-05
1.0026098e-05
1.001501e-05
1.001281e-05
1.0007932e-05
1.000575e-05
1.0003664e-05
1.0002597e-05
1.0001831e-05
1.0001382e-05
1.0001043e-05
1.0000878e-05
1.0000773e-05
1.0000637e-05
1.0000506e-05
1.0000403e-05
1.0000343e-05
1.0000328e-05
1.0000369e-05
1.000044e-05
1.0000521e-05
1.0000576e-05
1.0000544e-05
1.000071e-05
1.0000682e-05
1.0000819e-05
1.0000985e-05
1.0001102e-05
1.0001135e-05
1.0001104e-05
1.000104e-05
1.0000983e-05
1.0000741e-05
1.0000532e-05
1.0000348e-05
1.0000298e-05
1.0000392e-05
1.0000447e-05
0.0012483734
0.0027323664
0.0030689523
0.0024669438
0.0007849271
4.0997941e-05
1.029211e-05
1.0196159e-05
1.0098327e-05
1.0092749e-05
1.0047611e-05
1.0048545e-05
1.0025243e-05
1.0025575e-05
1.0014951e-05
1.0012569e-05
1.0007847e-05
1.0005638e-05
1.0003609e-05
1.0002552e-05
1.0001811e-05
1.0001372e-05
1.0001043e-05
1.0000878e-05
1.000077e-05
1.0000634e-05
1.0000503e-05
1.00004e-05
1.000034e-05
1.0000325e-05
1.0000366e-05
1.0000436e-05
1.0000515e-05
1.000057e-05
1.0000536e-05
1.00007e-05
1.0000671e-05
1.0000806e-05
1.0000973e-05
1.0001094e-05
1.0001131e-05
1.0001099e-05
1.0001032e-05
1.0000992e-05
1.0000732e-05
1.0000521e-05
1.0000341e-05
1.0000295e-05
1.0000387e-05
1.0000438e-05
0.0012468584
0.0026993411
0.0029804167
0.0022941979
0.00063251757
2.8767775e-05
1.0259524e-05
1.0191736e-05
1.0096583e-05
1.0090309e-05
1.0046908e-05
1.0047424e-05
1.0025063e-05
1.0025059e-05
1.0014891e-05
1.0012334e-05
1.0007762e-05
1.0005529e-05
1.0003555e-05
1.0002509e-05
1.0001791e-05
1.0001363e-05
1.0001043e-05
1.0000879e-05
1.0000768e-05
1.0000631e-05
1.0000499e-05
1.0000396e-05
1.0000337e-05
1.0000323e-05
1.0000363e-05
1.0000433e-05
1.0000509e-05
1.0000564e-05
1.0000529e-05
1.000069e-05
1.000066e-05
1.0000793e-05
1.000096e-05
1.0001087e-05
1.0001126e-05
1.0001095e-05
1.0001024e-05
1.000099e-05
1.0000717e-05
1.0000513e-05
1.0000334e-05
1.0000291e-05
1.0000383e-05
1.0000433e-05
0.0012455412
0.0026663539
0.0028997883
0.0021115999
0.00050500886
2.146423e-05
1.0241053e-05
1.0187252e-05
1.0094776e-05
1.0087894e-05
1.004621e-05
1.0046319e-05
1.0024889e-05
1.0024553e-05
1.0014829e-05
1.0012106e-05
1.0007677e-05
1.0005423e-05
1.0003502e-05
1.0002467e-05
1.0001772e-05
1.0001354e-05
1.0001043e-05
1.0000879e-05
1.0000766e-05
1.0000627e-05
1.0000494e-05
1.0000393e-05
1.0000335e-05
1.000032e-05
1.0000359e-05
1.0000429e-05
1.0000502e-05
1.0000557e-05
1.0000522e-05
1.0000679e-05
1.0000648e-05
1.0000779e-05
1.0000948e-05
1.000108e-05
1.0001122e-05
1.000109e-05
1.0001018e-05
1.000097e-05
1.000071e-05
1.0000505e-05
1.0000327e-05
1.0000287e-05
1.0000378e-05
1.000043e-05
0.0012441526
0.0026310239
0.0028111381
0.0019183133
0.00039451204
1.6874815e-05
1.0229093e-05
1.0182711e-05
1.0092916e-05
1.0085512e-05
1.0045512e-05
1.004523e-05
1.002472e-05
1.0024034e-05
1.0014765e-05
1.0011884e-05
1.0007592e-05
1.0005321e-05
1.000345e-05
1.0002427e-05
1.0001753e-05
1.0001345e-05
1.0001043e-05
1.000088e-05
1.0000763e-05
1.0000623e-05
1.000049e-05
1.000039e-05
1.0000333e-05
1.0000318e-05
1.0000356e-05
1.0000425e-05
1.0000496e-05
1.000055e-05
1.0000515e-05
1.0000668e-05
1.0000637e-05
1.0000765e-05
1.0000934e-05
1.0001073e-05
1.0001118e-05
1.0001086e-05
1.0001014e-05
1.0000951e-05
1.0000705e-05
1.0000498e-05
1.0000321e-05
1.0000282e-05
1.0000372e-05
1.000043e-05
0.0012428978
0.00259453
0.0027219767
0.0017183262
0.00030153214
1.4058983e-05
1.0220506e-05
1.0178116e-05
1.0091014e-05
1.008316e-05
1.0044816e-05
1.004416e-05
1.0024561e-05
1.0023509e-05
1.0014699e-05
1.001167e-05
1.0007507e-05
1.0005223e-05
1.0003399e-05
1.0002389e-05
1.0001735e-05
1.0001336e-05
1.0001042e-05
1.000088e-05
1.000076e-05
1.0000618e-05
1.0000486e-05
1.0000387e-05
1.0000331e-05
1.0000317e-05
1.0000352e-05
1.0000421e-05
1.0000489e-05
1.0000543e-05
1.0000508e-05
1.0000657e-05
1.0000626e-05
1.0000751e-05
1.000092e-05
1.0001064e-05
1.0001115e-05
1.0001082e-05
1.0001011e-05
1.0000934e-05
1.0000696e-05
1.0000491e-05
1.0000315e-05
1.0000276e-05
1.0000366e-05
1.0000428e-05
0.0012417812
0.0025561451
0.002629122
0.0015152431
0.00022520718
1.2399667e-05
1.0213701e-05
1.0173474e-05
1.0089075e-05
1.0080838e-05
1.0044113e-05
1.0043108e-05
1.0024412e-05
1.0023006e-05
1.0014631e-05
1.0011463e-05
1.0007422e-05
1.0005129e-05
1.0003349e-05
1.0002351e-05
1.0001716e-05
1.0001327e-05
1.0001042e-05
1.0000881e-05
1.0000757e-05
1.0000614e-05
1.0000482e-05
1.0000385e-05
1.0000329e-05
1.0000314e-05
1.0000348e-05
1.0000417e-05
1.0000482e-05
1.0000536e-05
1.00005e-05
1.0000645e-05
1.0000614e-05
1.0000736e-05
1.0000904e-05
1.0001053e-05
1.0001111e-05
1.0001076e-05
1.0001008e-05
1.0000918e-05
1.0000684e-05
1.0000485e-05
1.0000309e-05
1.0000266e-05
1.0000359e-05
1.0000424e-05
0.0012406162
0.0025142054
0.0025326379
0.001318955
0.00016447955
1.1459631e-05
1.0207839e-05
1.0168791e-05
1.0087107e-05
1.0078546e-05
1.0043414e-05
1.0042038e-05
1.0024273e-05
1.0022524e-05
1.001456e-05
1.0011265e-05
1.0007338e-05
1.0005039e-05
1.0003301e-05
1.0002315e-05
1.0001697e-05
1.0001318e-05
1.0001042e-05
1.0000881e-05
1.0000753e-05
1.0000609e-05
1.000048e-05
1.0000384e-05
1.0000327e-05
1.0000312e-05
1.0000344e-05
1.0000412e-05
1.0000476e-05
1.0000528e-05
1.0000491e-05
1.0000633e-05
1.0000603e-05
1.0000722e-05
1.0000889e-05
1.0001041e-05
1.0001107e-05
1.000107e-05
1.0001005e-05
1.0000905e-05
1.0000678e-05
1.000048e-05
1.0000304e-05
1.0000255e-05
1.0000351e-05
1.0000419e-05
0.0012390125
0.0024660739
0.0024304623
0.0011350244
0.00011746561
1.0944517e-05
1.0202465e-05
1.0164072e-05
1.0085114e-05
1.0076286e-05
1.0042724e-05
1.0040994e-05
1.0024145e-05
1.0022067e-05
1.0014486e-05
1.0011075e-05
1.0007255e-05
1.0004953e-05
1.0003253e-05
1.0002279e-05
1.0001678e-05
1.0001309e-05
1.0001042e-05
1.0000882e-05
1.000075e-05
1.0000606e-05
1.0000479e-05
1.0000382e-05
1.0000325e-05
1.0000308e-05
1.000034e-05
1.0000408e-05
1.0000469e-05
1.000052e-05
1.0000482e-05
1.000062e-05
1.0000591e-05
1.0000708e-05
1.0000872e-05
1.0001029e-05
1.0001104e-05
1.0001064e-05
1.0001002e-05
1.0000892e-05
1.0000671e-05
1.0000475e-05
1.0000299e-05
1.0000244e-05
1.0000343e-05
1.0000412e-05
0.0012368022
0.002412202
0.0023205744
0.00096286113
8.2197358e-05
1.0670606e-05
1.0197351e-05
1.0159322e-05
1.0083099e-05
1.0074061e-05
1.0042045e-05
1.003998e-05
1.002403e-05
1.0021644e-05
1.0014407e-05
1.0010895e-05
1.0007172e-05
1.0004871e-05
1.0003206e-05
1.0002244e-05
1.0001659e-05
1.00013e-05
1.0001043e-05
1.0000882e-05
1.0000747e-05
1.0000605e-05
1.0000478e-05
1.0000379e-05
1.0000321e-05
1.0000305e-05
1.0000336e-05
1.0000403e-05
1.0000462e-05
1.0000511e-05
1.0000473e-05
1.0000608e-05
1.0000579e-05
1.0000693e-05
1.0000856e-05
1.0001015e-05
1.0001101e-05
1.0001058e-05
1.0001e-05
1.0000876e-05
1.0000665e-05
1.0000471e-05
1.0000295e-05
1.0000235e-05
1.0000336e-05
1.0000405e-05
0.0012337862
0.002351536
0.0021947415
0.00080406311
5.6716118e-05
1.0527553e-05
1.0192392e-05
1.0154549e-05
1.008107e-05
1.0071877e-05
1.0041379e-05
1.0038999e-05
1.0023927e-05
1.0021259e-05
1.0014326e-05
1.0010723e-05
1.0007091e-05
1.0004792e-05
1.000316e-05
1.000221e-05
1.000164e-05
1.0001291e-05
1.0001045e-05
1.0000882e-05
1.0000746e-05
1.0000605e-05
1.0000476e-05
1.0000375e-05
1.0000317e-05
1.0000302e-05
1.0000332e-05
1.0000397e-05
1.0000455e-05
1.0000501e-05
1.0000463e-05
1.0000595e-05
1.0000567e-05
1.000068e-05
1.000084e-05
1.0001001e-05
1.0001098e-05
1.0001052e-05
1.0000998e-05
1.0000858e-05
1.000066e-05
1.0000467e-05
1.0000292e-05
1.0000229e-05
1.000033e-05
1.0000398e-05
0.0012301508
0.0022853421
0.0020514149
0.00066145945
3.916332e-05
1.0452457e-05
1.0187551e-05
1.0149761e-05
1.0079035e-05
1.006975e-05
1.0040729e-05
1.0038054e-05
1.0023838e-05
1.0020889e-05
1.0014242e-05
1.0010561e-05
1.0007011e-05
1.0004717e-05
1.0003114e-05
1.0002176e-05
1.000162e-05
1.0001282e-05
1.0001047e-05
1.0000883e-05
1.0000746e-05
1.0000605e-05
1.0000473e-05
1.000037e-05
1.0000313e-05
1.0000298e-05
1.0000329e-05
1.0000391e-05
1.0000448e-05
1.0000492e-05
1.0000452e-05
1.0000582e-05
1.0000555e-05
1.0000666e-05
1.0000823e-05
1.0000986e-05
1.0001095e-05
1.0001046e-05
1.0000995e-05
1.000084e-05
1.0000656e-05
1.0000463e-05
1.0000292e-05
1.0000225e-05
1.0000321e-05
1.0000389e-05
0.0012261819
0.0022153904
0.0018928315
0.00053687506
2.7745682e-05
1.0411289e-05
1.018278e-05
1.0144965e-05
1.0077e-05
1.0067686e-05
1.0040098e-05
1.0037147e-05
1.0023764e-05
1.002054e-05
1.0014155e-05
1.0010408e-05
1.0006933e-05
1.0004645e-05
1.0003068e-05
1.0002141e-05
1.00016e-05
1.0001274e-05
1.000105e-05
1.0000885e-05
1.0000749e-05
1.0000605e-05
1.0000468e-05
1.0000365e-05
1.0000309e-05
1.0000295e-05
1.0000326e-05
1.0000385e-05
1.000044e-05
1.0000481e-05
1.0000441e-05
1.0000569e-05
1.0000543e-05
1.0000652e-05
1.0000805e-05
1.0000969e-05
1.0001093e-05
1.0001038e-05
1.0000993e-05
1.0000826e-05
1.0000652e-05
1.0000459e-05
1.0000293e-05
1.000022e-05
1.0000311e-05
1.0000381e-05
0.0012220248
0.0021422745
0.0017254115
0.00042966207
2.0832723e-05
1.0386467e-05
1.0178025e-05
1.0140166e-05
1.0074965e-05
1.0065658e-05
1.0039486e-05
1.003628e-05
1.0023705e-05
1.0020212e-05
1.0014066e-05
1.0010264e-05
1.0006856e-05
1.0004575e-05
1.0003022e-05
1.0002107e-05
1.000158e-05
1.0001266e-05
1.0001054e-05
1.000089e-05
1.0000752e-05
1.0000603e-05
1.0000463e-05
1.000036e-05
1.0000305e-05
1.0000291e-05
1.0000322e-05
1.0000379e-05
1.0000432e-05
1.0000471e-05
1.000043e-05
1.0000556e-05
1.0000531e-05
1.0000638e-05
1.0000787e-05
1.000095e-05
1.000109e-05
1.000103e-05
1.0000989e-05
1.0000816e-05
1.0000649e-05
1.0000455e-05
1.0000293e-05
1.0000216e-05
1.0000299e-05
1.0000371e-05
0.0012176412
0.0020632948
0.0015635718
0.0003386546
1.6613475e-05
1.0369152e-05
1.0173243e-05
1.0135371e-05
1.0072939e-05
1.0063677e-05
1.0038897e-05
1.0035458e-05
1.0023664e-05
1.0019906e-05
1.0013975e-05
1.0010129e-05
1.0006781e-05
1.0004508e-05
1.0002976e-05
1.0002073e-05
1.0001559e-05
1.0001259e-05
1.0001057e-05
1.0000895e-05
1.0000755e-05
1.0000598e-05
1.0000457e-05
1.0000355e-05
1.0000301e-05
1.0000287e-05
1.0000319e-05
1.0000372e-05
1.0000424e-05
1.0000459e-05
1.0000418e-05
1.0000542e-05
1.0000518e-05
1.0000624e-05
1.0000769e-05
1.0000929e-05
1.0001085e-05
1.0001021e-05
1.0000985e-05
1.0000812e-05
1.0000646e-05
1.0000451e-05
1.0000291e-05
1.0000211e-05
1.0000286e-05
1.0000361e-05
0.0012136139
0.0019772657
0.0013975061
0.00026076767
1.3984398e-05
1.0355334e-05
1.0168405e-05
1.013059e-05
1.0070929e-05
1.0061745e-05
1.0038335e-05
1.0034695e-05
1.0023643e-05
1.001962e-05
1.0013884e-05
1.0010003e-05
1.0006707e-05
1.0004443e-05
1.000293e-05
1.0002039e-05
1.000154e-05
1.0001252e-05
1.0001058e-05
1.00009e-05
1.0000756e-05
1.0000592e-05
1.0000451e-05
1.000035e-05
1.0000296e-05
1.0000282e-05
1.0000315e-05
1.0000364e-05
1.0000415e-05
1.0000448e-05
1.0000406e-05
1.0000528e-05
1.0000505e-05
1.000061e-05
1.000075e-05
1.0000907e-05
1.0001072e-05
1.0001012e-05
1.0000971e-05
1.0000811e-05
1.0000644e-05
1.0000448e-05
1.0000292e-05
1.0000207e-05
1.0000272e-05
1.0000351e-05
0.0012117781
0.0018995693
0.0012326534
0.00019629782
1.2417479e-05
1.0342942e-05
1.016349e-05
1.0125828e-05
1.0068942e-05
1.0059867e-05
1.0037801e-05
1.0033989e-05
1.0023642e-05
1.0019356e-05
1.0013792e-05
1.0009885e-05
1.0006635e-05
1.000438e-05
1.0002884e-05
1.0002005e-05
1.000152e-05
1.0001244e-05
1.0001057e-05
1.0000906e-05
1.0000754e-05
1.0000587e-05
1.0000446e-05
1.0000345e-05
1.0000292e-05
1.0000278e-05
1.0000311e-05
1.0000357e-05
1.0000406e-05
1.0000435e-05
1.0000394e-05
1.0000514e-05
1.0000492e-05
1.0000595e-05
1.0000732e-05
1.0000885e-05
1.0001052e-05
1.0001003e-05
1.0000954e-05
1.0000807e-05
1.0000642e-05
1.0000447e-05
1.0000288e-05
1.0000202e-05
1.0000257e-05
1.000034e-05
0.0012108313
0.0018155967
0.0010706922
0.00014432005
1.1511923e-05
1.0330715e-05
1.0158486e-05
1.0121094e-05
1.0066984e-05
1.0058047e-05
1.0037299e-05
1.0033322e-05
1.0023668e-05
1.0019114e-05
1.00137e-05
1.0009774e-05
1.0006563e-05
1.0004318e-05
1.0002838e-05
1.0001972e-05
1.00015e-05
1.0001235e-05
1.0001054e-05
1.0000914e-05
1.000075e-05