/*--------------------------------*- C++ -*----------------------------------*\
  =========                 |
  \\      /  F ield         | OpenFOAM: The Open Source CFD Toolbox
   \\    /   O peration     | Website:  https://openfoam.org
    \\  /    A nd           | Version:  8
     \\/     M anipulation  |
\*---------------------------------------------------------------------------*/
FoamFile
{
    version     2.0;
    format      ascii;
    class       volScalarField;
    location    "0.140008";
    object      p;
}
// * * * * * * * * * * * * * * * * * * * * * * * * * * * * * * * * * * * * * //

dimensions      [1 -1 -2 0 0 0 0];

internalField   nonuniform List<scalar> 
20000
(
57420.248
57434.466
57453.054
57478.69
57513.502
57559.551
57623.079
57698.736
57793.821
57906.482
58040.732
58206.886
58397.456
58640.333
58914.219
59266.283
59664.362
60171.741
60753.689
61483.153
62334.366
63382.45
64618.46
66110.194
67861.597
69918.205
72272.742
74917.358
77796.654
80835.889
83903.072
86813.506
89392.319
91562.705
93322.125
94720.92
95817.963
96674.518
97336.905
97855.304
98265.176
98598.485
98874.137
99124.656
99328.373
99488.148
99682.128
99873.876
99937.708
100268.82
57594.719
57611.468
57630.631
57657.033
57692.974
57740.792
57807.367
57886.975
57986.056
58103.292
58242.387
58415.141
58612.26
58864.647
59147.914
59513.355
59925.078
60450.751
61052.66
61807.43
62687.769
63770.422
65045.76
66580.381
68376.497
70473.743
72856.397
75502.045
78341.701
81293.284
84239.987
87032.255
89523.1
91637.267
93364.489
94744.543
95830.549
96680.467
97339.622
97856.743
98267.004
98600.588
98878.96
99130.255
99332.124
99493.087
99702.521
99880.322
99975.474
100266.5
57781.378
57799.022
57818.568
57846.073
57883.464
57933.241
58002.398
58084.612
58187.028
58308.427
58452.136
58631.356
58835.135
59097.056
59389.849
59768.588
60194.066
60738.159
61360.485
62141.267
63051.556
64169.898
65485.683
67064.938
68907.756
71048.415
73462.438
76113.903
78921.259
81795.99
84632.029
87307.979
89703.049
91749.489
93433.959
94787.03
95856.058
96695.271
97348.397
97862.403
98271.675
98604.831
98885.229
99136.633
99336.149
99499.17
99718.143
99892.81
100023.17
100264.82
57975.723
57994.55
58014.328
58042.873
58081.745
58133.562
58205.438
58290.573
58396.758
58522.899
58671.702
58857.826
59068.435
59340.084
59642.409
60034.642
60474.147
61037.251
61680.812
62488.589
63429.889
64585.028
65942.518
67567.908
69459.102
71644.977
74092.129
76752.003
79531.972
82338.284
85072.943
87636.518
89931.924
91902.581
93534.062
94851.856
95897.647
96721.656
97365.56
97874.228
98280.863
98612.634
98894.205
99144.803
99341.317
99506.696
99731.056
99908.255
100060.55
100263.92
58178.821
58199.406
58219.686
58249.427
58290.049
58344.25
58419.148
58507.43
58617.376
58748.214
58902.009
59094.987
59312.354
59593.86
59905.957
60312.221
60766.536
61349.719
62015.819
62851.974
63825.84
65019.43
66420.593
68094.253
70036
72268.816
74750.001
77418.717
80172.571
82913.979
85552.097
88005.805
90199.133
92088.049
93659.765
94935.947
95953.379
96758.365
97390.232
97891.54
98293.987
98623.457
98905.249
99154.142
99347.225
99515.366
99745.003
99925.329
100095.51
100263.4
58392.1
58414.112
58435.289
58466.207
58508.53
58565.113
58643.056
58734.495
58848.079
58983.508
59142.253
59342.239
59566.547
59858.344
60180.74
60601.857
61071.984
61676.446
62366.438
63232.353
64240.37
65474.169
66921.121
68645.276
70639.671
72920.745
75436.03
78112.781
80840.214
83518.399
86063.38
88409.627
90499.857
92302.941
93809.284
95038.399
96022.873
96805.292
97422.455
97914.444
98311.214
98637.455
98918.538
99164.814
99354.083
99525.275
99759.481
99944.337
100124.96
100263.21
58614.767
58636.839
58659.194
58691.41
58735.481
58794.478
58875.502
58970.085
59087.496
59227.75
59391.685
59599.072
59830.722
60133.457
60466.906
60903.879
61390.934
62017.911
62733.147
63630.236
64674.152
65950.191
67445.357
69222.484
71271.699
73602.077
76150.823
78833.621
81532.667
84147.253
86600.607
88841.045
90827.835
92542.392
93979.402
95157.179
96104.871
96861.658
97461.741
97942.618
98332.337
98654.46
98933.916
99176.696
99361.866
99536.417
99775.018
99966.31
100149.36
100263.73
58844.755
58867.337
58890.758
58924.271
58970.165
59031.671
59115.935
59213.789
59335.307
59480.75
59650.225
59865.522
60105.046
60419.507
60764.855
61218.691
61723.737
62374.367
63116.151
64045.848
65127.543
66448.029
67993.971
69826.591
71932.636
74312.896
76893.687
79579.569
82247.175
84796.594
87158.759
89294.616
91178.135
92802.592
94167.421
95290.528
96198.274
96926.793
97507.689
97975.823
98357.234
98674.389
98951.333
99189.774
99370.604
99548.808
99791.637
99991.977
100167.71
100265.79
59080.983
59104.363
59129.036
59164.066
59212.13
59276.538
59364.508
59465.946
59591.82
59742.737
59918.076
60141.863
60389.894
60716.907
61074.951
61546.553
62070.563
62745.922
63515.555
64479.402
65600.977
66968.336
68567.79
70458.468
72623.19
75053.395
77664.015
80349.071
82981.174
85462.804
87733.268
89765.3
91546.004
93079.644
94370.49
95436.492
96301.797
96999.865
97559.769
98013.715
98385.693
98697.092
98970.665
99203.949
99380.363
99562.498
99809.784
100019
100182.39
100268.68
59325.374
59349.656
59375.651
59412.272
59462.67
59530.045
59621.743
59726.816
59857.197
60013.912
60195.567
60428.56
60685.748
61026.018
61397.392
61887.542
62431.446
63132.602
63931.485
64931.213
66094.996
67511.823
69167.588
71118.832
73343.747
75823.314
78460.678
81140.121
83731.876
86142.388
88320.028
90248.692
91927.259
93370.045
94585.939
95593.176
96414.149
97080.02
97617.424
98055.93
98417.489
98722.414
98991.775
99219.032
99391.091
99577.699
99830.184
100045.42
100195.08
100272.02
59578.135
59603.275
59630.475
59668.588
59721.319
59791.453
59886.658
59995.807
60131.466
60294.809
60483.381
60726.14
60992.846
61346.844
61732.101
62241.598
62806.37
63534.46
64364.147
65401.724
66610.274
68079.31
69794.253
71808.508
74094.766
76622.391
79282.521
81950.727
84496.597
86832.101
88915.34
90740.854
92318.116
93670.544
94811.221
95758.711
96534.021
97166.361
97680.055
98102.069
98452.367
98750.172
99014.489
99234.907
99402.681
99594.69
99853.843
100069.79
100206.46
100275.49
59838.28
59864.595
59893.353
59933.331
59988.765
60061.778
60161.043
60274.672
60416.062
60586.396
60781.898
61034.486
61310.857
61679.103
62078.945
62608.678
63195.354
63951.628
64813.936
65891.594
67147.649
68671.708
70448.695
72528.239
74876.48
77450.019
80127.997
82778.569
85272.487
87528.745
89515.757
91238.231
92715.172
93978.175
95043.956
95931.303
96660.115
97257.985
97747.04
98151.712
98490.054
98780.172
99038.611
99251.407
99415.261
99613.966
99881.256
100091.24
100216.65
100278.9
60110.527
60137.793
60167.866
60209.503
60267.513
60343.39
60447.372
60564.672
60710.84
60887.735
61090.058
61352.798
61639.366
62022.677
62437.937
62988.814
63598.503
64384.414
65281.43
66401.622
67708.043
69290.003
71131.924
73278.845
75689.136
78305.533
80995.496
83621.306
86056.777
88229.322
90118.151
91737.656
93115.401
94290.269
95281.957
96109.257
96791.18
97353.993
97817.753
98204.427
98530.267
98812.207
99063.924
99268.341
99429.017
99636.23
99910.933
100110.26
100225.79
100282.1
60387.674
60416.22
60447.603
60491.066
60552.093
60631.337
60740.338
60861.868
61013.195
61197.301
61407.199
61681.01
61978.543
62377.725
62809.132
63382.046
64016.041
64833.317
65767.429
66932.755
68292.47
69935.241
71844.963
74061.022
76532.698
79187.874
81883.014
84476.313
86846.561
88930.864
90719.574
92236.237
93516.076
94604.412
95523.214
96290.986
96926.012
97453.506
97891.565
98259.779
98572.717
98846.058
99090.195
99285.55
99444.188
99662.258
99940.8
100127.63
100234.01
100285.03
60670.179
60700.326
60733.31
60778.911
60843.377
60925.755
61040.054
61166.939
61324.19
61516.139
61734.145
62019.656
62328.635
62744.268
63192.502
63788.514
64448.406
65299.107
66272.862
67485.985
68901.957
70608.563
72588.905
74875.531
77407.051
80095.891
82788.471
85340.957
87639.021
89630.594
91317.351
92731.405
93914.79
94918.465
95765.923
96475.031
97063.482
97555.683
97967.865
98317.339
98617.115
98881.496
99117.196
99302.937
99461.095
99692.789
99969.336
100143.55
100241.41
100287.67
60962.238
60993.889
61028.337
61075.921
61144.007
61229.937
61348.697
61481.15
61644.698
61844.812
62071.1
62368.664
62689.44
63122.133
63588.107
64208.607
64896.376
65782.741
66798.758
68062.354
69537.623
71311.156
73364.845
75722.897
78311.725
81027.97
83709.388
86212.346
88431.239
90325.773
91908.954
93220.811
94309.385
95230.514
96008.455
96660.053
97202.534
97659.719
98046.059
98376.685
98663.175
98918.281
99144.713
99320.503
99480.038
99727.905
99995.644
100158.14
100248.05
100290.01
61261.18
61294.592
61330.758
61380.684
61452.807
61542.521
61666.097
61804.123
61974.296
62182.952
62417.657
62727.625
63060.677
63511.353
63996.362
64643.123
65360.934
66285.211
67346.091
68662.883
70200.648
72044.319
74173.945
76603.619
79246.127
81982.356
84643.213
87087.612
89220.423
91013.858
92492.108
93702.385
94697.982
95538.9
96249.381
96844.853
97342.2
97764.864
98125.587
98437.416
98710.613
98956.161
99172.552
99338.393
99501.275
99765.818
100020.22
100171.57
100254.05
100292.07
61570.078
61605.145
61642.964
61695.023
61771.143
61864.614
61993.183
62136.021
62312.386
62529.828
62773.289
63096.308
63442.491
63912.46
64418.147
65093.088
65843.115
66807.484
67915.848
69288.705
70892.341
72809.428
75017.249
77517.859
80209.171
82956.809
85587.018
87963.689
90003.717
91692.358
93064.671
94174.248
95078.913
95842.166
96487.439
97028.35
97481.593
97870.422
98205.917
98499.15
98759.148
98994.867
99200.55
99356.905
99525.107
99804.567
100043.61
100183.97
100259.46
100293.86
61883.926
61920.792
61960.42
62014.739
62095.462
62193.253
62326.782
62475.357
62658.197
62885.087
63138.056
63475.16
63835.629
64326.462
64854.569
65559.559
66343.832
67350.409
68509.001
69941.043
71614.139
73607.974
75895.804
78465.676
81199.581
83948.963
86537.858
88837.595
90778.428
92358.986
93624.732
94634.775
95450.76
96139.08
96721.545
97209.594
97619.917
97975.756
98286.563
98561.528
98808.5
99034.107
99228.555
99376.463
99552.039
99842.906
100065.82
100195.32
100264.24
100295.39
62203.388
62242.295
62283.992
62340.987
62426.353
62528.759
62667.318
62822.929
63012.724
63249.61
63512.811
63865.179
64241.236
64754.524
65306.678
66043.357
66863.833
67914.839
69126.691
70621.313
72367.633
74441.421
76810.423
79446.637
82215.518
84955.943
87492.461
89706.189
91541.836
93011.527
94170.519
95082.522
95812.297
96428.593
96950.762
97387.748
97756.454
98080.291
98367.077
98624.221
98858.389
99073.57
99256.423
99397.541
99582.803
99879.857
100086.61
100205.61
100268.38
100296.65
62530.188
62571.134
62614.839
62674.642
62764.843
62871.89
63015.763
63178.914
63376.382
63624.211
63898.641
64267.59
64660.475
65197.611
65775.197
66545.087
67403.796
68501.723
69770.218
71331.097
73154.535
75311.299
77761.829
80460.123
83254.94
85974.758
88447.567
90566.431
92291.394
93647.984
94700.49
95516.279
96162.529
96709.85
97174.3
97562.096
97890.573
98183.517
98447.059
98686.927
98908.538
99112.932
99284.007
99420.57
99618.127
99914.508
100105.81
100214.9
100271.98
100297.61
62862.837
62906.192
62952.33
63015.547
63110.973
63222.963
63372.702
63544.348
63750.283
64010.269
64296.863
64683.511
65094.134
65656.238
66260.533
67065.213
67964.518
69112.273
70441.138
72072.165
73976.611
76218.997
78750.314
81504.899
84315.184
87001.957
89399.626
91415.153
93024.567
94266.486
95213.285
95935.004
96500.636
96982.142
97391.494
97732.031
98021.726
98284.978
98526.156
98749.371
98958.673
99151.866
99311.174
99445.815
99658.282
99946.264
100123.42
100223.3
100275.04
100298.16
63206.993
63252.549
63300.737
63366.948
63467.281
63584.144
63740.437
63921.546
64135.89
64408.79
64708.194
65113.355
65542.425
66130.576
66763.007
67604.391
68547.081
69747.956
71141.207
72846.401
74835.741
77165.841
79776.015
82579.435
85393.388
88034.004
90345.102
92249.294
93739.021
94865.447
95707.834
96337.858
96825.992
97244.903
97601.817
97897.056
98149.464
98384.28
98604.059
98811.311
99008.527
99190.075
99337.839
99473.302
99702.353
99975.369
100139.61
100230.95
100277.74
100298.37
63558.091
63606.46
63657.433
63727.577
63833.731
63957.048
64120.637
64311.538
64534.216
64820.261
65132.46
65556.936
66005.287
66620.829
67283.176
68163.577
69152.9
70410.521
71872.337
73655.804
75733.732
78152.874
80838.433
83681.519
86486.041
89066.883
91280.171
93065.706
94432.542
95443.505
96183.315
96724.153
97138.091
97497.668
97804.876
98056.76
98273.43
98481.08
98680.506
98872.531
99057.846
99227.311
99364.014
99502.852
99747.837
100003.09
100154.62
100237.86
100280.06
100298.41
63922.222
63973.362
64027.117
64101.337
64213.584
64343.478
64513.205
64712.89
64944.016
65243.849
65569.318
66014.123
66482.946
67127.532
67821.996
68744.143
69783.69
71101.869
72636.543
74502.456
76672.432
79180.981
81936.797
84808.601
87589.398
90096.467
92201.051
93861.502
95103.316
95999.642
96639.156
97093.391
97436.53
97740.103
98000.446
98210.804
98393.34
98575.09
98755.28
98932.839
99106.394
99263.41
99389.875
99534.319
99793.158
100029.62
100168.54
100244.02
100281.93
100298.39
64293.521
64347.422
64403.824
64482.216
64600.605
64736.928
64913.39
65122.833
65363.196
65679.329
66019.059
66485.446
66976.026
67651.617
68380.792
69347.746
70441.366
71824.026
73435.933
75388.492
77653.512
80250.558
83069.563
85957.35
88699.071
91118.241
93103.901
94634.14
95749.974
96533.072
97074.802
97445.256
97720.956
97972.045
98188.436
98358.896
98508.921
98666.089
98828.202
98992.062
99153.953
99298.303
99415.816
99567.809
99837.397
100054.71
100181.27
100249.4
100283.35
100297.92
64670.519
64727.707
64787.339
64870.624
64995.644
65138.912
65323.176
65543.694
65794.39
66127.072
66482.016
66971.61
67485.502
68194.403
68961.227
69976.273
71127.918
72579.053
74272.694
76316.125
78678.587
81361.71
84234.782
87124.058
89810.483
92127.762
93985.395
95381.954
96371.818
97043.187
97489.49
97779.645
97991.128
98193.626
98368.802
98500.805
98619.827
98753.934
98899.135
99050.042
99200.32
99332.016
99442.463
99603.878
99879.679
100078.09
100192.71
100253.98
100284.36
100297.18
65059.758
65120.166
65182.851
65270.903
65402.411
65552.577
65744.542
65976.648
66237.812
66588.051
66958.936
67473.487
68012.777
68757.575
69565.18
70631.653
71845.387
73369.114
75149.151
77287.567
79748.92
82513.798
85429.588
88304.203
90918.526
93120.552
94842.933
96104.164
96968.456
97529.243
97882.068
98096.545
98247.067
98405.314
98541.354
98636.411
98725.626
98838.55
98967.977
99106.626
99245.304
99364.635
99470.528
99643.486
99918.874
100099.46
100202.94
100257.8
100284.83
100296.25
65457.022
65520.969
65587.134
65680.607
65819.385
65977.325
66177.295
66421.694
66694.179
67063.423
67450.62
67992.463
68559.538
69343.007
70194.553
71315.817
72595.822
74196.481
76067.785
78305.078
80865.563
83705.724
86650.63
89492.935
92018.129
94092.851
95675.292
96800.638
97539.107
97990.147
98251.57
98395.858
98489.347
98607.741
98705.614
98765.754
98825.995
98919.888
99034.656
99161.667
99288.727
99396.273
99500.565
99687.233
99954.15
100118.75
100212.12
100261.09
100285.02
100295.21
65863.108
65930.899
66000.993
66100.435
66247.055
66413.333
66621.768
66879.431
67164.329
67554.216
67959.266
68530.5
69127.625
69952.471
70851.197
72030.674
73381.409
75063.651
77031.225
79370.731
82028.918
84935.384
87893.538
90684.65
93104.121
95041.825
96482.231
97470.196
98081.08
98424.237
98598.721
98677.169
98719.247
98801.046
98860.996
98888.925
98921.163
98997.838
99099.124
99215.026
99330.43
99427.04
99532.8
99734.57
99985.425
100136.12
100220.39
100264.01
100285.06
100294.04
66277.93
66349.887
66424.354
66530.108
66684.985
66860.419
67078.545
67351.162
67649.828
68061.92
68487.019
69089.434
69718.608
70587.571
71536.886
72778.257
74204.526
75973.383
78042.233
80486.509
83238.891
86200.096
89153.39
91873.674
94172.064
95966.208
97263.248
98108.615
98591.878
98830.665
98925.098
98940.11
98938.411
98983.797
99007.742
99005.746
99012.325
99072.182
99161.351
99266.578
99370.291
99457.048
99567.064
99782.602
100014.53
100151.91
100227.74
100266.48
100284.92
100292.65
66705.333
66781.719
66860.897
66972.946
67136.311
67321.968
67550.583
67839.378
68152.603
68588.193
69034.592
69670.467
70333.983
71249.858
72253.553
73560.826
75067.883
76928.694
79103.605
81653.861
84494.434
87495.951
90424.324
93054.048
95218.353
96865.59
98013.913
98712.294
99069.121
99209.92
99232.607
99185.357
99147.38
99154.551
99146.577
99115.423
99101.193
99142.714
99221.321
99316.21
99408.248
99486.459
99602.977
99829.933
100041.93
100166.22
100234.03
100268.33
100284.33
100291.03
67146.824
67227.854
67312.065
67430.661
67603.564
67800.073
68039.233
68344.83
68673.121
69133.393
69602.62
70274.962
70975.373
71941.084
73003.327
74380.961
75974.515
77932.845
80218.089
82873.838
85793.761
88818.344
91700.176
94220.457
96240.916
97738.615
98728.432
99277.482
99512.728
99567.325
99520.953
99415.929
99343.167
99315.966
99276.938
99217.594
99187.652
99209.582
99279.028
99363.827
99444.317
99515.567
99640.31
99875.634
100067.6
100179.09
100239.15
100269.21
100283.34
100289.21
67600.28
67686.436
67776.501
67902.634
68085.998
68293.929
68544.014
68867.472
69211.88
69698.37
70192.62
70904.334
71644.426
72663.149
73788.68
75241.687
76927.817
78989.226
81388.105
84146.554
87133.792
90161.43
92974.282
95368.266
97238.74
98579.116
99401.941
99802.115
99928.346
99903.682
99789.911
99633.267
99525.737
99468.006
99398.924
99313.32
99270.177
99273.63
99334.455
99409.342
99478.597
99544.879
99679.338
99918.707
100091.3
100190.65
100243.46
100269.58
100282.06
100287.17
68065.629
68157.419
68254.406
68388.811
68582.827
68803.409
69065.23
69408.082
69769.966
70285.229
70807.043
71559.745
72342.966
73418.318
74612.593
76146.458
77931.454
80101.261
82615.73
85471.36
88510.527
91518.806
94240.386
96494.284
98210.505
99379.154
100030.02
100289.25
100320.78
100217.4
100040.27
99837.312
99695.904
99611.144
99513.308
99403.405
99346.607
99336.114
99387.526
99452.685
99511.258
99575.081
99720.896
99957.945
100112.59
100200.9
100247.19
100269.68
100280.47
100284.89
68546.14
68643.779
68748.212
68891.054
69095.574
69329.686
69604.09
69968.249
70349.061
70895.996
71447.353
72243.22
73073.366
74209.4
75478.581
77099.153
78989.27
81272.207
83902.274
86846.28
89918.511
92883.215
95492.613
97596.341
99149.142
100132.72
100610.62
100747.54
100687.82
100508.92
100272.91
100028.12
99854.565
99745.757
99620.74
99488.281
99416.981
99396.969
99438.073
99493.827
99542.538
99606.805
99765.716
99992.406
100131.11
100209.42
100250.16
100269.59
100278.52
100282.3
69040.991
69144.754
69257.102
69408.534
69624.057
69873.605
70162.429
70550.391
70951.722
71532.133
72114.929
72956.656
73838.288
75039.965
76390.645
78103.901
80105.167
82505.094
85248.335
88268.309
91351.438
94247.508
96726.264
98672.689
100045.34
100834.82
101149.36
101178.96
101028.79
100778.98
100488.7
100205.93
100002.59
99872.257
99721.293
99567.484
99482.767
99455.989
99485.868
99532.795
99572.763
99640.315
99812.846
100022.29
100146.94
100216.2
100251.8
100268.6
100276.15
100279.43
69550.514
69661.208
69782.971
69945.273
70173.475
70439.586
70743.265
71156.368
71579.139
72194.78
72811.322
73702.658
74641.36
75914.184
77353.068
79164.946
81282.974
83802.39
86653.241
89732.794
92801.76
95604.552
97937.534
99717.174
100890.8
101482.72
101655.87
101580.95
101344.25
101028.5
100688.45
100371.04
100140.87
99990.969
99814.882
99641.181
99544.874
99513.002
99530.863
99569.662
99602.342
99675.405
99859.424
100049.32
100160.67
100221.62
100252.53
100267.08
100273.49
100276.33
70077.206
70195.968
70328.675
70503.713
70745.148
71028.472
71346.502
71786.006
72231.322
72885.181
73539.239
74485.14
75487.158
76836.469
78370.141
80286.525
82526.438
85165.915
88115.246
91233.855
94261.642
96948.108
99123.825
100719.53
101679.51
102082.27
102131.88
101952.92
101635.18
101258.5
100872.98
100523.97
100270.19
100102.18
99901.611
99709.849
99603.645
99567.513
99573.528
99604.51
99631.692
99711.71
99904.09
100074.12
100172.86
100226.18
100252.79
100265.27
100270.61
100273.04
70629.062
70756.226
70897.112
71080.889
71335.234
71638.137
71971.689
72440.318
72909.924
73606.351
74303.08
75308.972
76380.467
77811.137
79446.087
81472.983
83838.981
86596.461
89630.794
92764.084
95722.792
98272.64
100280.72
101668.4
102407.39
102643.72
102574.71
102295.64
101902.68
101470.02
101043.11
100665.49
100391.11
100206.19
99981.908
99774.173
99659.142
99618.409
99614.871
99637.435
99661.146
99749.158
99945.995
100096.83
100183.79
100230.13
100252.84
100263.15
100267.49
100269.57
71196.06
71331.931
71484.021
71680.098
71946.545
72270.737
72621.491
73122.837
73619.722
74363.388
75108.103
76178.67
77325.45
78842.413
80585.271
82728.78
85223.65
88093.685
91194.908
94315.259
97177.629
99573.962
101397.55
102556.37
103078.4
103170.96
102983.18
102610.29
102147.97
101664.12
101199.69
100796.39
100504.16
100303.32
100056.39
99834.757
99711.616
99664.941
99655.308
99668.686
99691.016
99788.246
99984.442
100117.37
100193.34
100233.16
100252.24
100260.56
100264.12
100265.93
71781.429
71927.02
72091.064
72300.722
72580.224
72929.057
73300.01
73838.578
74367.392
75162.005
75959.214
77097.29
78325.892
79934.772
81792.501
84058.403
86682.692
89655.46
92800.653
95878.171
98618.887
100848.05
102460.93
103377.49
103702.97
103661.52
103358.16
102898.2
102372.31
101841.88
101343.58
100917.46
100609.83
100393.96
100125.7
99891.761
99760.769
99707.896
99694.219
99698.855
99721.906
99829.881
100018.58
100135.4
100201.21
100235.06
100250.73
100257.5
100260.48
100262.14
72386.114
72543.488
72721.534
72948.064
73243.379
73620.947
74014.976
74594.045
75157.031
76005.438
76859.099
78068.531
79386.051
81093.359
83073.001
85466.177
88217.303
91278.007
94439.818
97443.796
100040.22
102086.02
103460.29
104131.79
104289.23
104112.94
103701.01
103160.84
102576.99
102004.36
101475.64
101029.43
100708.6
100478.55
100190.36
99945.23
99806.648
99747.857
99730.687
99728.82
99753.881
99874.467
100047.5
100150.59
100207.46
100236.1
100248.95
100254.28
100256.6
100258
73025.162
73194.589
73386.432
73632.449
73945.099
74353.041
74769.743
75392.079
75990.563
76895.801
77811.096
79096.52
80511.208
82324.039
84432.258
86955.805
89826.969
92955.308
96102.677
99003.216
101435.99
103273.4
104388
104828.98
104835.26
104526.1
104013.28
103399.71
102763.3
102152.63
101596.72
101133.03
100800.93
100557.51
100250.7
99995.256
99849.572
99785.319
99764.267
99758.89
99786.825
99918.616
100073.16
100163.41
100212.27
100236.56
100247.39
100251.49
100253
100252.59
73694.694
73878.276
74085.96
74355.298
74685.088
75124.202
75563.634
76232.179
76869.676
77836.119
78819.275
80187.664
81707.486
83633.157
85875.709
88530
91509.334
94679.569
97779.123
100548.32
102799.86
104394.66
105239.43
105482.22
105337.01
104902.49
104296.71
103616.38
102932.55
102287.72
101707.67
101228.92
100887.28
100631.29
100307.03
100041.92
99889.603
99820.359
99795.82
99788.701
99820.448
99960.606
100096.32
100174.5
100216.14
100236.71
100245.99
100249.46
100250.71
100245.48
74397.886
74596.821
74820.652
75113.18
75458.614
75932.685
76396.199
77116.303
77799.085
78832.28
79890.535
81348.196
82981.635
85027.278
87408.323
90189.821
93259.482
96440.809
99458.568
102071.19
104116.89
105440
106022.79
106090.7
105795.08
105243.94
104553.09
103812.4
103086
102410.66
101809.31
101317.76
100968.09
100700.3
100359.51
100085.24
99926.729
99853.115
99826.033
99818.054
99854.557
99999.375
100117.15
100184.39
100219.61
100236.71
100244.28
100247.3
100248.51
100238.06
75127.163
75343.786
75584.369
75902.844
76267.646
76783.072
77273.805
78050.979
78785.644
79890.55
81032.586
82585.593
84340.607
86512.939
89034.27
91934.455
95070.267
98227.912
101130.89
103564.69
105369.61
106402.13
106751.35
106650.86
106211.1
105552.46
104784.29
103989.32
103224.91
102522.42
101902.42
101400.17
101043.83
100764.91
100408.23
100125.23
99961.107
99884.001
99855.354
99847.046
99889.646
100033.95
100135.35
100192.99
100222.67
100236.42
100242.13
100244.65
100245.91
100230.71
75891.831
76129.202
76388.367
76736.984
77122.086
77683.697
78206.03
79044.378
79836.269
81017.645
82252.703
83907.313
85791.641
88096.434
90756.284
93760.373
96931.896
100028.63
102785.67
105016.49
106543.26
107283.9
107430.17
107161.27
106587.14
105830.14
104992.15
104148.67
103350.47
102623.97
101987.76
101476.72
101114.9
100825.42
100453.14
100161.96
99993.04
99913.478
99884.154
99875.972
99925.706
100063.52
100150.39
100199.48
100224.78
100236.2
100240.73
100242.15
100242.11
100223.71
76700.413
76960.928
77239.863
77622.868
78028.474
78641.801
79198.629
80102.149
80957.163
82220.898
83557.851
85321.303
87342.337
89783.468
92575.093
95661.34
98832.689
101831.04
104413.45
106407.69
107627.91
108097.59
108056.33
107623.61
106925.52
106079.2
105178.55
104291.93
103463.84
102716.22
102066.07
101547.97
101181.72
100882.05
100494.19
100195.6
100022.89
99941.913
99912.711
99905.072
99962.817
100087.49
100162.35
100204.24
100225.72
100235.54
100239.4
100240.62
100237.21
100217.24
77555.919
77841.872
78141.762
78563.554
78990.731
79662.514
80257.127
81229.45
82154.784
83508.375
84956.4
86836.397
89000.48
91578.487
94488.637
97627.878
100759.15
103622.9
106004.25
107717.59
108619.73
108855.28
108626.06
108040.12
107228.7
106301.83
105345.29
104420.54
103566.16
102800.04
102138.03
101614.44
101244.64
100934.92
100531.38
100226.47
100051.08
99969.636
99941.15
99934.327
99998.27
100107.52
100172.08
100207.86
100226.08
100234.5
100237.74
100238.81
100232.19
100211.14
78462.297
78777.291
79100.229
79565.695
80014.876
80749.487
81386.736
82432.665
83437.298
84888.845
86458.088
88462.139
90773.342
93483.722
96491.528
99647.737
102697.15
105391.8
107537.76
108933.6
109529.41
109554.87
109140.98
108413.51
107499.28
106500.24
105494.17
104535.89
103658.48
102876.28
102204.3
101676.63
101303.97
100984.11
100564.86
100254.98
100078.05
99996.886
99969.423
99963.469
100030.76
100124.96
100180.32
100210.78
100226.14
100233.14
100235.79
100236.68
100227.21
100205.34
79426.76
79774.63
80121.664
80635.827
81106.302
81908.796
82595.234
83721.675
84816.979
86371.361
88073.282
90208.41
92666.821
95498.23
98574.434
101705.88
104631.73
107124.97
108990.42
110046.11
110373.88
110191.23
109603.52
108746.67
107739.88
106676.6
105626.88
104639.3
103741.82
102945.73
102265.52
101734.98
101360
101029.68
100594.87
100281.61
100104.2
100023.79
99997.377
99992.174
100060.2
100140.51
100187.44
100212.95
100225.65
100231.33
100233.55
100234.31
100222.26
100199.86
80450.418
80835.811
81206.894
81777.624
82272.269
83149.135
83893.399
85108.263
86305.382
87969.915
89813.609
92084.181
94684.222
97617.113
100724.46
103785.75
106547.46
108804.08
110343.64
111063.29
111153.17
110765.1
110016.79
109042.66
107953.12
106833.03
105745.08
104732.02
103817.15
103009.15
102322.28
101789.93
101413.01
101071.77
100621.75
100306.8
100129.83
100050.39
100024.83
100020.18
100086.7
100154.37
100193.55
100214.37
100224.49
100229.1
100231.01
100231.72
100217.38
100194.7
81537.909
81966.866
82360.779
83000.713
83524.292
84483.626
85296.363
86607.31
87916.489
89698.508
91690.091
94096.285
96825.153
99830.923
102925.11
105869.64
108428.37
110403.12
111585
112001.23
111862.55
111279.1
110384.09
109304.57
108141.58
106971.55
105850.32
104815.24
103885.39
103067.25
102375.12
101841.88
101463.36
101110.6
100645.9
100330.97
100155.1
100076.61
100051.6
100047.29
100110.35
100166.36
100198.59
100215.52
100223.54
100226.83
100228.03
100228.61
100212.62
100189.87
82700.553
83183.556
83602.295
84319.221
84877.198
85928.373
86821.708
88235.003
89665.901
91569.919
93711.661
96248.23
99084.745
102125.75
105157.4
107939.15
110256.8
111897.11
112716.89
112865.77
112500.81
111736.76
110709.05
109535.54
108307.77
107094.13
105944.1
104890.08
103947.38
103120.73
102424.59
101891.2
101511.28
101146.29
100667.9
100354.47
100180.14
100102.39
100077.54
100073.31
100131.21
100176.53
100202.49
100216.12
100222.55
100225.19
100226.09
100224.41
100208
100185.37
83951.712
84502.55
84944.977
85752.211
86350.288
87500.969
88485.832
90004.344
91569.216
93595.561
95884.367
98539.681
101453.26
104483.34
107400.46
109974.41
112003.67
113270.34
113754.67
113652.49
113070.81
112141.97
110995.34
109738.64
108454.11
107202.61
106027.83
104957.63
104003.97
103170.22
102471.19
101938.24
101556.78
101178.36
100689
100377.74
100205.03
100127.64
100102.5
100098.12
100149.26
100185.16
100205.65
100216.35
100221.46
100223.54
100224.26
100220.11
100203.53
100181.2
85296.953
85938.307
86408.126
87323.568
87966.269
89217.231
90302.459
91929.937
93634.271
95783.293
98211.555
100965.7
103915.62
106881.71
109632.13
111954.86
113639.07
114519.97
114709.09
114358.53
113576.49
112499
111246.67
109916.88
108582.93
107298.78
106102.83
105018.86
104055.92
103216.35
102515.41
101983.24
101599.54
101206.01
100710.9
100401.18
100229.82
100152.3
100126.38
100121.59
100164.48
100192.46
100208.38
100216.37
100220.2
100221.74
100222.29
100215.72
100199.21
100177.35
86774.64
87523.711
88011.6
89048.98
89739.87
91086.162
92279.777
94020.599
95869.933
98140.818
100693.98
103516.01
106451.05
109295.65
111827.78
113848.67
115142.77
115660.82
115575.68
114986.96
114022.43
112812.18
111466.7
110073.11
108696.44
107384.29
106170.35
105074.74
104103.96
103259.71
102557.71
102026.38
101639.29
101230.96
100733.35
100424.91
100254.48
100176.31
100149.14
100143.66
100177.18
100197.98
100209.76
100215.8
100218.59
100219.71
100220.12
100211.48
100195.02
100173.77
88439.428
89298.725
89752.346
90915.36
91672.772
93117.244
94432.813
96285.491
98286.909
100675.62
103327.68
106173.16
109033.4
111697.83
113961.76
115621.59
116508.63
116706.46
116350.7
115542.31
114413.68
113086
111659.03
110210.14
108796.72
107460.71
106231.58
105126.14
104148.79
103300.87
102598.49
102067.81
101676.05
101254.61
100756.29
100448.84
100278.82
100199.6
100170.86
100164.47
100187.58
100202.06
100210.3
100214.66
100216.68
100217.5
100217.84
100207.32
100190.96
100170.46
90229.848
91229.731
91665.529
92940.549
93779.819
95327.609
96777.645
98748.171
100900.21
103390.61
106099.95
108911.05
111631.42
114057.67
115998.66