/*--------------------------------*- C++ -*----------------------------------*\
  =========                 |
  \\      /  F ield         | OpenFOAM: The Open Source CFD Toolbox
   \\    /   O peration     | Website:  https://openfoam.org
    \\  /    A nd           | Version:  8
     \\/     M anipulation  |
\*---------------------------------------------------------------------------*/
FoamFile
{
    version     2.0;
    format      ascii;
    class       surfaceScalarField;
    location    "0.140008";
    object      phi;
}
// * * * * * * * * * * * * * * * * * * * * * * * * * * * * * * * * * * * * * //

dimensions      [1 0 -1 0 0 0 0];

internalField   nonuniform List<scalar> 
39600
(
-6.39276e-05
-0.0078785992
0.0078914909
-0.0001330049
-0.010958815
0.011026813
-0.00020878785
-0.014293778
0.014368611
-0.0002908437
-0.018354884
0.018435657
-0.00037484952
-0.023454994
0.023537426
-0.00045280944
-0.0299687
0.030044888
-0.00059256156
-0.038209297
0.038346968
-0.00089160803
-0.046710596
0.04700717
-0.0012570754
-0.055762225
0.056124709
-0.0016900714
-0.067016135
0.067445581
-0.0022091896
-0.080104533
0.080619357
-0.0028276449
-0.09619022
0.096803518
-0.0035663426
-0.11511316
0.1158456
-0.0044486848
-0.13816752
0.13904232
-0.0054999772
-0.16550134
0.16654351
-0.0067561851
-0.19862897
0.19987418
-0.0082508664
-0.2381028
0.23958452
-0.010035225
-0.28581005
0.28757944
-0.012156453
-0.34285805
0.34496145
-0.014689628
-0.41170587
0.41421764
-0.017704637
-0.49426247
0.49725097
-0.021310017
-0.59381846
0.59739052
-0.025621449
-0.71342264
0.71769291
-0.030814183
-0.85750666
0.86264699
-0.037101012
-1.0306196
1.0368421
-0.044796254
-1.2386072
1.2462197
-0.054297052
-1.4876892
1.4970897
-0.066118216
-1.7851873
1.7968843
-0.080780389
-2.1390176
2.1535409
-0.098712786
-2.5583995
2.5761759
-0.12019288
-3.0543472
3.0756506
-0.14548628
-3.6409476
3.666043
-0.17501903
-4.336485
4.3657963
-0.20939307
-5.1641192
5.1982393
-0.24932206
-6.1518833
6.1915329
-0.29545254
-7.3338184
7.3796877
-0.34848527
-8.748341
8.8011254
-0.40900025
-10.443382
10.503695
-0.47740374
-12.475351
12.543594
-0.55360339
-14.912221
14.988371
-0.63685291
-17.835023
17.918372
-0.72508264
-21.340163
21.428738
-0.81458663
-25.546314
25.636514
-0.89867123
-30.592748
30.677998
-0.96687276
-36.651217
36.720716
-1.0016949
-43.927851
43.964484
-0.98426177
-52.670099
52.656505
-0.84778386
-63.174037
63.042626
-0.57032661
-75.852145
75.581389
-90.962944
90.41383
-9.6402468e-05
-0.0078229394
-0.00016022012
-0.010896388
-0.00023191452
-0.014223083
-0.00031049696
-0.018277498
-0.00039173013
-0.02337527
-0.00046701608
-0.029895152
-0.0006121972
-0.038066155
-0.00089182142
-0.046433393
-0.001235478
-0.055421466
-0.0016426722
-0.066612389
-0.0021326089
-0.079618774
-0.0027159957
-0.095611858
-0.0034137465
-0.11442149
-0.0042469412
-0.13734166
-0.0052395664
-0.16451754
-0.0064260595
-0.19745314
-0.0078362981
-0.23670518
-0.0095212834
-0.28413988
-0.011522606
-0.3408744
-0.013912268
-0.40933749
-0.016753682
-0.4914474
-0.020153853
-0.59045124
-0.024220199
-0.70939713
-0.029126208
-0.85265225
-0.035077151
-1.0247323
-0.04238676
-1.2313786
-0.051449631
-1.4787242
-0.062790414
-1.773968
-0.076946905
-2.1249969
-0.094390433
-2.5411069
-0.11544494
-3.0334624
-0.14037515
-3.6162063
-0.16955334
-4.3075212
-0.20350668
-5.1304048
-0.2429016
-6.1127526
-0.28837283
-7.288593
-0.34061259
-8.6963369
-0.4001904
-10.383992
-0.46753722
-12.408152
-0.54259111
-14.837199
-0.62464448
-17.752851
-0.71178327
-21.252658
-0.80042335
-25.456952
-0.88419487
-30.50782
-0.95299524
-36.581132
-0.98986572
-43.889143
-0.97095641
-52.685124
-0.84926918
-63.290565
-0.58559471
-76.109027
-91.486818
-8.5787423e-05
-0.0077691347
-0.00014650755
-0.010836426
-0.00021360926
-0.014156795
-0.00028575794
-0.018206518
-0.00035781696
-0.023304653
-0.00041674366
-0.029837875
-0.00055569224
-0.037929183
-0.00082597466
-0.046165475
-0.0011538831
-0.055096434
-0.0015426664
-0.066227044
-0.0020093241
-0.079156295
-0.0025654206
-0.095060766
-0.0032293548
-0.1137636
-0.00402301
-0.13655522
-0.0049673927
-0.16358183
-0.0060969193
-0.19633398
-0.0074384949
-0.23537598
-0.0090413337
-0.28255171
-0.010943339
-0.33899
-0.013214278
-0.40708781
-0.015913416
-0.48877453
-0.019142885
-0.58725439
-0.023008424
-0.705572
-0.027677084
-0.84803413
-0.033352558
-1.0191191
-0.040346273
-1.224463
-0.049054806
-1.4701095
-0.060005343
-1.7631341
-0.073740839
-2.1113912
-0.090753712
-2.5242366
-0.11139727
-3.0129771
-0.13594873
-3.5918314
-0.16474559
-4.2789251
-0.19827294
-5.0971033
-0.23715322
-6.0741233
-0.28198572
-7.2439944
-0.33346009
-8.6450871
-0.39214613
-10.325483
-0.45848704
-12.341946
-0.53245463
-14.763251
-0.61340861
-17.671762
-0.6995395
-21.166145
-0.78744638
-25.368305
-0.87105872
-30.42306
-0.94064579
-36.510273
-0.97990366
-43.848017
-0.96304411
-52.697978
-0.85328118
-63.39498
-0.60302236
-76.352815
-91.984843
-7.2954719e-05
-0.0077194377
-0.00012861833
-0.010781576
-0.00018925929
-0.014096758
-0.00025385246
-0.018142892
-0.00031710498
-0.023242656
-0.00036205662
-0.029794394
-0.00049809718
-0.037794926
-0.00075781594
-0.045907998
-0.0010698382
-0.054787143
-0.0014401242
-0.065860091
-0.0018841205
-0.078716364
-0.0024138327
-0.09453597
-0.0030456087
-0.11313775
-0.0038014348
-0.13580648
-0.0046998256
-0.16269195
-0.0057747506
-0.19526925
-0.0070498432
-0.23411309
-0.0085727918
-0.28104331
-0.010378747
-0.33720149
-0.012533894
-0.40495379
-0.01509489
-0.48623954
-0.018161322
-0.58422015
-0.021833159
-0.70194006
-0.026275992
-0.843641
-0.031692021
-1.0137645
-0.038392094
-1.2178393
-0.046778295
-1.461815
-0.057379043
-1.7526475
-0.070742463
-2.0981549
-0.087368544
-2.5077494
-0.10763157
-2.9928664
-0.13181737
-3.5678146
-0.16024321
-4.2506908
-0.19335332
-5.0642073
-0.23174083
-6.0359737
-0.27597724
-7.1999797
-0.32674293
-8.5945336
-0.38460454
-10.267785
-0.45002554
-12.276645
-0.52301336
-14.690266
-0.6029878
-17.591634
-0.68826911
-21.08046
-0.77560717
-25.280207
-0.8592597
-30.338271
-0.92985214
-36.438424
-0.97167109
-43.80428
-0.95999998
-52.705577
-0.85941647
-63.490062
-0.62321322
-76.582695
-92.457065
-6.132586e-05
-0.0076731819
-0.00011293933
-0.010731138
-0.00016830451
-0.014042413
-0.00022571303
-0.018086537
-0.00028004308
-0.023189629
-0.00031025253
-0.029765654
-0.0004429791
-0.037663955
-0.00068939503
-0.045663711
-0.00098575002
-0.054493392
-0.0013381428
-0.065510871
-0.001760329
-0.078298054
-0.0022648673
-0.094036145
-0.0028656857
-0.11254265
-0.0035852316
-0.13509382
-0.0044389456
-0.16184655
-0.0054607091
-0.19425747
-0.0066707274
-0.23291508
-0.0081162874
-0.27961209
-0.0098277701
-0.33550734
-0.01187158
-0.40293103
-0.014299492
-0.4838375
-0.017208246
-0.5813433
-0.020695288
-0.69849241
-0.024923022
-0.83946198
-0.030095505
-1.0086521
-0.036525263
-1.2114833
-0.044620955
-1.4538076
-0.05491348
-1.7424649
-0.067948118
-2.0852425
-0.084227995
-2.4916021
-0.10413599
-2.9731026
-0.12796893
-3.544141
-0.15603008
-4.2228097
-0.18873933
-5.0317004
-0.22665487
-5.9982829
-0.270336
-7.1565082
-0.32044406
-8.5446251
-0.37755712
-10.210825
-0.44214542
-12.212162
-0.51426349
-14.618134
-0.5933885
-17.512338
-0.67796164
-20.995463
-0.76491446
-25.192477
-0.84879112
-30.253268
-0.92062151
-36.365356
-0.96526737
-43.757648
-0.95900122
-52.707679
-0.867901
-63.575532
-0.64609332
-76.798426
-92.903034
-5.0785953e-05
-0.0076301054
-9.7413371e-05
-0.010684763
-0.00014746364
-0.013993308
-0.00019808843
-0.018036949
-0.00024422693
-0.023144743
-0.00026175581
-0.029749566
-0.00039332848
-0.037534122
-0.00062696345
-0.045432188
-0.00090912734
-0.054213787
-0.0012449537
-0.065178147
-0.0016464822
-0.077900305
-0.0021267093
-0.093560494
-0.0026975466
-0.11197736
-0.0033816341
-0.13441642
-0.0041917637
-0.16104452
-0.0051614668
-0.19329755
-0.0063077776
-0.23178057
-0.0076775821
-0.27825645
-0.0092982556
-0.33390379
-0.01123416
-0.40101593
-0.013533411
-0.48156383
-0.016290934
-0.57861725
-0.019601169
-0.69522106
-0.023625747
-0.83548535
-0.02856991
-1.0037672
-0.034752346
-1.2053732
-0.04258858
-1.4460582
-0.052611605
-1.7325503
-0.065362173
-2.0726119
-0.081337726
-2.4757563
-0.10092483
-2.9536554
-0.12442571
-3.5207937
-0.15213763
-4.1952699
-0.1844607
-4.9995706
-0.22193224
-5.9610252
-0.26510276
-7.1135368
-0.31461125
-8.4953048
-0.37104328
-10.154534
-0.43488782
-12.148409
-0.50623627
-14.546757
-0.58464768
-17.433738
-0.66866735
-20.910999
-0.75541058
-25.104943
-0.83971768
-30.167846
-0.91300758
-36.290844
-0.96073388
-43.707846
-0.96020582
-52.703959
-0.87889442
-63.651151
-0.67189381
-76.999559
-93.322636
-4.0431604e-05
-0.0075902114
-8.3203264e-05
-0.010642592
-0.00012774227
-0.01394973
-0.0001713342
-0.017994439
-0.00020906521
-0.023108289
-0.00021473023
-0.029745335
-0.0003457392
-0.037404855
-0.00056833958
-0.04521167
-0.00083670801
-0.053947938
-0.0011565111
-0.064861377
-0.0015379155
-0.077522567
-0.0019947008
-0.093108144
-0.0025363107
-0.11144113
-0.0031857951
-0.13377344
-0.0039532491
-0.16028498
-0.0048719236
-0.19238846
-0.0059557647
-0.23070831
-0.0072514631
-0.27697469
-0.0087847325
-0.33238748
-0.010616613
-0.39920473
-0.012793167
-0.47941267
-0.015405182
-0.57603641
-0.018546992
-0.69211758
-0.02237896
-0.83170037
-0.027112064
-0.99909187
-0.033070377
-1.1994847
-0.040678835
-1.4385338
-0.050470932
-1.722863
-0.062978933
-2.0602196
-0.078691814
-2.4601681
-0.097991263
-2.9344897
-0.12118421
-3.4977468
-0.14856636
-4.1680508
-0.18052498
-4.9677954
-0.21758574
-5.9241668
-0.2602782
-7.0710323
-0.30923867
-8.4465208
-0.36506875
-10.098835
-0.42826062
-12.085295
-0.49895696
-14.476017
-0.57678025
-17.355709
-0.66040006
-20.826915
-0.74712124
-25.017419
-0.83206944
-30.081799
-0.9070595
-36.214626
-0.95813363
-43.65459
-0.96366038
-52.694089
-0.89240256
-63.716753
-0.70076654
-77.18552
-93.715786
-3.051549e-05
-0.0075533022
-6.9343315e-05
-0.010604364
-0.00010878093
-0.013911274
-0.00014557061
-0.017958707
-0.00017496613
-0.023080187
-0.0001704432
-0.02975128
-0.00030100852
-0.037276016
-0.00051300973
-0.045001708
-0.00076754025
-0.053695852
-0.0010714365
-0.064560416
-0.0014330318
-0.07716453
-0.0018666849
-0.092678796
-0.0023795553
-0.11093348
-0.0029950779
-0.13316425
-0.0037207296
-0.15956706
-0.004589687
-0.19152889
-0.0056150139
-0.22969438
-0.0068411991
-0.27576224
-0.0082907843
-0.33095461
-0.010022911
-0.39749297
-0.012080175
-0.47738046
-0.014551169
-0.57359613
-0.01753082
-0.68917581
-0.021181767
-0.82809567
-0.025720502
-0.99461018
-0.03147867
-1.1937952
-0.038891259
-1.4312043
-0.048490263
-1.7133674
-0.060797833
-2.0480258
-0.076287329
-2.4448009
-0.095335335
-2.9155721
-0.11824911
-3.4749745
-0.1453237
-4.141133
-0.17693903
-4.9363559
-0.21361694
-5.887682
-0.25587962
-7.0289483
-0.30435858
-8.3982081
-0.35965258
-10.043661
-0.42228202
-12.022731
-0.49243999
-14.405801
-0.56981223
-17.278116
-0.65319782
-20.743046
-0.74008468
-24.92972
-0.82591111
-29.994899
-0.90284882
-36.136452
-0.95753027
-43.597597
-0.96939369
-52.677781
-0.91024766
-63.770387
-0.73306523
-77.357237
-94.082518
-2.0956306e-05
-0.00751964
-5.5666158e-05
-0.010570309
-8.9881612e-05
-0.013878079
-0.00011967163
-0.017930004
-0.0001399036
-0.023061267
-0.00012649141
-0.02976611
-0.00025666123
-0.037147557
-0.00045796005
-0.044802397
-0.00069913782
-0.053457074
-0.00098767205
-0.064274763
-0.0013299844
-0.076825703
-0.0017410531
-0.09227195
-0.0022257978
-0.11045387
-0.0028082489
-0.13258803
-0.0034933438
-0.15888955
-0.0043155089
-0.19071594
-0.0052858329
-0.22873524
-0.0064475757
-0.27461402
-0.0078172937
-0.32960141
-0.0094537209
-0.39587674
-0.011396654
-0.47546236
-0.013731288
-0.57129185
-0.016553884
-0.68639048
-0.020034579
-0.82466024
-0.02439636
-0.99030382
-0.029979765
-1.1882779
-0.03722939
-1.4240352
-0.046672677
-1.7040243
-0.058819366
-2.0359889
-0.074125597
-2.4296125
-0.09295681
-2.8968661
-0.1156213
-3.4524454
-0.14241528
-4.1144883
-0.17371984
-4.9052188
-0.21004826
-5.8515368
-0.25192701
-6.9872382
-0.29997552
-8.3503154
-0.35481131
-9.9889345
-0.41698031
-11.960615
-0.48670681
-14.336002
-0.56377362
-17.200815
-0.64709016
-20.65923
-0.73434465
-24.841647
-0.82127828
-29.906918
-0.9004297
-36.056091
-0.95898783
-43.536583
-0.97751965
-52.65469
-0.93011423
-63.812471
-0.76877796
-77.513315
-94.422724
-1.1612688e-05
-0.0074890093
-4.2199305e-05
-0.010540245
-7.1231492e-05
-0.013849902
-9.4041915e-05
-0.017908164
-0.00010472953
-0.023051776
-8.4350793e-05
-0.02978785
-0.00021546709
-0.037018097
-0.00040714283
-0.044612691
-0.00063560319
-0.053230985
-0.00090923811
-0.064003988
-0.0012326076
-0.0765058
-0.0016216198
-0.091887126
-0.0020791594
-0.11000139
-0.0026299607
-0.13204335
-0.0032769979
-0.15824997
-0.0040553094
-0.18994668
-0.0049723458
-0.22782921
-0.0060685839
-0.27353112
-0.0073607109
-0.32832555
-0.008903991
-0.39435334
-0.010737416
-0.47365336
-0.012946072
-0.56911311
-0.01562448
-0.68374882
-0.018944893
-0.82138453
-0.0231474
-0.98615602
-0.028582575
-1.182908
-0.035700893
-1.4169967
-0.045026532
-1.6947979
-0.057051066
-2.0240724
-0.072212229
-2.4145671
-0.090862499
-2.8783385
-0.113309
-3.4301307
-0.13985138
-4.0880904
-0.17087154
-4.8743601
-0.20689192
-5.815692
-0.24842732
-6.9458635
-0.2961122
-8.3027774
-0.35057062
-9.9345768
-0.41237149
-11.898856
-0.48179452
-14.266494
-0.55868871
-17.123673
-0.64211037
-20.575295
-0.72992973
-24.753008
-0.81817636
-29.817639
-0.89978695
-35.973256
-0.96257982
-43.471212
-0.98815748
-52.624424
-0.95225837
-63.84328
-0.80789376
-77.652562
-94.736077
-3.4980789e-06
-0.007460934
-3.0386601e-05
-0.010513938
-5.4582041e-05
-0.013826606
-7.0636528e-05
-0.017893116
-7.1306161e-05
-0.023052301
-4.5540904e-05
-0.02981494
-0.00017950874
-0.036885789
-0.00036096736
-0.044433169
-0.00057631441
-0.053017973
-0.00083491739
-0.063748194
-0.0011397334
-0.07620437
-0.0015076308
-0.091523327
-0.0019393606
-0.10957461
-0.0024599095
-0.13152879
-0.0030713744
-0.1576458
-0.0038073621
-0.18921955
-0.0046708692
-0.22697652
-0.005703115
-0.27251198
-0.0069194954
-0.32712526
-0.0083727855
-0.39291974
-0.010100834
-0.47194949
-0.01219017
-0.5670533
-0.014738291
-0.68123679
-0.017917026
-0.81824944
-0.021977419
-0.98214862
-0.027289796
-1.1776585
-0.034310773
-1.410053
-0.043555274
-1.6856494
-0.055495978
-2.0122359
-0.070548743
-2.3996262
-0.089053
-2.8599525
-0.11131391
-3.4079967
-0.13763623
-4.0619068
-0.16840721
-4.8437437
-0.20415853
-5.780108
-0.24540777
-6.9047664
-0.29279012
-8.2555331
-0.3469521
-9.8805067
-0.40848007
-11.837359
-0.47772115
-14.197157
-0.55459974
-17.046534
-0.63829404
-20.491076
-0.72689248
-24.663591
-0.81669449
-29.72684
-0.90104247
-35.887621
-0.96838976
-43.401122
-1.0013371
-52.586647
-0.97721997
-63.862571
-0.85060197
-77.774248
-95.022314
5.1786569e-06
-0.0074361784
-1.7353092e-05
-0.010492033
-3.6125356e-05
-0.013808796
-4.4911675e-05
-0.017885377
-3.4147816e-05
-0.02306431
-3.9491888e-06
-0.029846487
-0.00013783813
-0.036753582
-0.00030852892
-0.044264411
-0.00051111705
-0.052817686
-0.00075579138
-0.06350626
-0.0010434704
-0.075919995
-0.0013916467
-0.091179125
-0.0017985083
-0.10917256
-0.0022901233
-0.13104298
-0.0028668617
-0.15707615
-0.003560823
-0.18853426
-0.004373323
-0.22617465
-0.0053446067
-0.27155361
-0.0064882159
-0.32599744
-0.0078547467
-0.39157256
-0.0094824036
-0.47034563
-0.011457003
-0.56510781
-0.013883112
-0.67884635
-0.01693822
-0.81523755
-0.020881177
-0.97825809
-0.026097091
-1.1725046
-0.03305482
-1.4031719
-0.042254521
-1.6765446
-0.054148374
-2.0004447
-0.069128814
-2.3847557
-0.087522617
-2.8416748
-0.10963382
-3.3860094
-0.13576927
-4.035906
-0.16632691
-4.8133356
-0.20184827
-5.7447475
-0.24286617
-6.8638935
-0.29001266
-8.2085169
-0.34395505
-9.8266483
-0.40532389
-11.776012
-0.47450442
-14.127869
-0.55151811
-16.969249
-0.63567398
-20.406386
-0.72526683
-24.573188
-0.81688081
-29.634272
-0.90425682
-35.798938
-0.97648578
-43.325937
-1.0179842
-52.540217
-1.0053222
-63.870692
-0.89691462
-77.877916
-95.280934
1.2107342e-05
-0.0074135629
-7.458342e-06
-0.010473218
-2.2076838e-05
-0.013795205
-2.5422072e-05
-0.017883154
-4.8061292e-06
-0.023086217
2.5151104e-05
-0.029877828
-0.00010114585
-0.03662894
-0.00026423496
-0.044103208
-0.00045648915
-0.052627676
-0.00068902544
-0.06327639
-0.00096072445
-0.075651486
-0.0012898972
-0.090853812
-0.0016729561
-0.10879415
-0.0021373057
-0.1305843
-0.0026798791
-0.15654054
-0.0033324379
-0.18789024
-0.0040958195
-0.22542175
-0.0050085322
-0.27065353
-0.0060812377
-0.32494027
-0.0073646163
-0.39030824
-0.0088960959
-0.46883767
-0.01076397
-0.56326858
-0.013076525
-0.67656883
-0.01602363
-0.81233252
-0.0198731
-0.97445935
-0.025024694
-1.1674127
-0.031953466
-1.3963172
-0.041144279
-1.6674455
-0.053026134
-1.9886618
-0.067970764
-2.3699173
-0.086291068
-2.8234668
-0.10828617
-3.3641339
-0.13426962
-4.0100523
-0.16465248
-4.7830964
-0.19999194
-5.7095618
-0.24083125
-6.8231918
-0.28781221
-8.1616584
-0.34162745
-9.7729093
-0.40293558
-11.714716
-0.47219232
-14.058494
-0.54949478
-16.891664
-0.63430114
-20.321041
-0.7251096
-24.48158
-0.81880459
-29.539662
-0.90950491
-35.706896
-0.98695161
-43.245278
-1.0373237
-52.484987
-1.0367125
-63.866962
-0.9470295
-77.96305
-95.511442
1.9079099e-05
-0.0073930391
2.4036799e-06
-0.010457248
-8.3392702e-06
-0.013785454
-6.1591536e-06
-0.01788645
2.5090746e-05
-0.02311874
5.3166837e-05
-0.029907347
-6.6696786e-05
-0.036510734
-0.0002209839
-0.043950832
-0.00040179334
-0.052449134
-0.00062098107
-0.063059869
-0.00087600973
-0.075399669
-0.001186004
-0.090547663
-0.0015462981
-0.1084385
-0.0019843007
-0.13015196
-0.0024939173
-0.15603785
-0.0031070301
-0.18728563
-0.0038230922
-0.22471594
-0.004678787
-0.26981023
-0.0056838926
-0.32395032
-0.0068872318
-0.3891236
-0.0083300332
-0.46741791
-0.010100481
-0.56152644
-0.012310504
-0.67439333
-0.01516209
-0.80952285
-0.018944585
-0.97072702
-0.024064524
-1.162352
-0.030997407
-1.389458
-0.040216915
-1.6583168
-0.052123753
-1.9768525
-0.067066416
-2.3550793
-0.085343174
-2.8053004
-0.10725249
-3.3423418
-0.13311944
-3.9843118
-0.16336774
-4.7529876
-0.19857517
-5.6745027
-0.23929709
-6.7826015
-0.2861905
-8.114881
-0.33996206
-9.7192075
-0.40132863
-11.653355
-0.47078926
-13.988907
-0.54854965
-16.813612
-0.63419876
-20.234849
-0.7264583
-24.388539
-0.82249646
-29.442751
-0.91683703
-35.611145
-0.99985685
-43.158739
-1.0592365
-52.420919
-1.0714524
-63.85062
-1.0011155
-78.029021
-95.713346
2.6830504e-05
-0.0073757568
1.4402532e-05
-0.010445436
9.168432e-06
-0.013781056
1.8228257e-05
-0.017896486
6.1463979e-05
-0.02316315
8.7652016e-05
-0.029934885
-2.9735044e-05
-0.036394961
-0.00017549725
-0.04380695
-0.0003452848
-0.052281615
-0.00055227387
-0.062855569
-0.0007918537
-0.075163321
-0.0010840862
-0.090259299
-0.0014229494
-0.10810433
-0.00183558
-0.12974501
-0.0023139751
-0.15556641
-0.0028897943
-0.18671817
-0.0035603373
-0.22405552
-0.0043605987
-0.26902218
-0.0053002979
-0.32302561
-0.0064304586
-0.3880119
-0.0077928585
-0.46607824
-0.0094749203
-0.5598722
-0.011593813
-0.67230814
-0.014367422
-0.80678997
-0.018108701
-0.96703406
-0.023228794
-1.1572889
-0.030201077
-1.3825569
-0.039485858
-1.6491196
-0.051452922
-1.9649794
-0.066421689
-2.3402117
-0.084681802
-2.7871473
-0.10653792
-3.3205992
-0.13232591
-3.9586463
-0.16248348
-4.7229646
-0.19761014
-5.6395185
-0.23828341
-6.7420537
-0.28516225
-8.0681117
-0.33899402
-9.665439
-0.40052636
-11.591821
-0.47033616
-13.918963
-0.54872076
-16.734927
-0.63542032
-20.147605
-0.7293665
-24.293833
-0.82802693
-29.343257
-0.92633479
-35.511351
-1.0153267
-43.065909
-1.0840204
-52.347772
-1.1096917
-63.821031
-1.0592582
-78.075279
-95.885988
3.2951394e-05
-0.0073604802
2.3527037e-05
-0.01043663
2.2733468e-05
-0.013781096
3.7582191e-05
-0.017912307
9.1629154e-05
-0.023218335
0.00011315845
-0.029957685
-3.3802607e-07
-0.03628306
-0.00013805291
-0.043671061
-0.00029758972
-0.052124282
-0.00049297144
-0.062662819
-0.0007181279
-0.074941357
-0.0009941675
-0.089987108
-0.0013125254
-0.10779063
-0.0017006667
-0.12936256
-0.0021492034
-0.15512477
-0.0026888536
-0.18618682
-0.0033152133
-0.22343906
-0.004062326
-0.26828709
-0.0049418026
-0.32216104
-0.0060041651
-0.38696773
-0.0072896096
-0.4648152
-0.0088893365
-0.55829991
-0.010934084
-0.6702968
-0.013652446
-0.80411209
-0.017376786
-0.96335778
-0.022530904
-1.1521914
-0.029581307
-1.3755773
-0.038964692
-1.6398228
-0.051017248
-1.9530193
-0.066040392
-2.3252882
-0.084315111
-2.7689778
-0.1061543
-3.2988713
-0.13190282
-3.9330174
-0.16201611
-4.6929823
-0.19712101
-5.6045514
-0.23780275
-6.7014923
-0.28475325
-8.0212654
-0.3387452
-9.6115048
-0.40056597
-11.529993
-0.47086739
-13.84852
-0.550052
-16.655434
-0.63800385
-20.059109
-0.73389042
-24.197212
-0.83546804
-29.240874
-0.93808996
-35.407153
-1.0340425
-42.96584
-1.1119466
-52.265697
-1.1515568
-63.777702
-1.1217275
-78.101126
-96.028732
3.9402901e-05
-0.007347809
3.3621952e-05
-0.010431462
3.791922e-05
-0.013786233
5.9300765e-05
-0.017934641
0.00012442132
-0.023284571
0.00013956918
-0.029974095
3.2324426e-05
-0.036177363
-9.7370621e-05
-0.043543173
-0.00024709822
-0.051976729
-0.00043157248
-0.062480938
-0.00064282084
-0.074733247
-0.00090341632
-0.089730309
-0.0012027223
-0.10749595
-0.0015673685
-0.12900353
-0.0019869399
-0.15471201
-0.0024911399
-0.18569069
-0.003074828
-0.22286487
-0.003772252
-0.26760164
-0.0045969825
-0.32135147
-0.0055939321
-0.3859889
-0.0068055391
-0.46362572
-0.0083316023
-0.55680069
-0.010317497
-0.66834344
-0.013006958
-0.80146169
-0.016743391
-0.95966754
-0.021966422
-1.1470228
-0.029133377
-1.3684788
-0.038641121
-1.6303986
-0.050806028
-1.9409435
-0.065911837
-2.3102787
-0.08423514
-2.7507564
-0.10609275
-3.2771217
-0.13184225
-3.9073838
-0.16195897
-4.6629921
-0.19709783
-5.5695452
-0.23786492
-6.6608401
-0.28497109
-7.9742578
-0.33921908
-9.5573092
-0.4014581
-11.467741
-0.47240248
-13.777429
-0.55256546
-16.574955
-0.6419962
-19.969134
-0.74007641
-24.098423
-0.84487022
-29.135288
-0.95215611
-35.298173
-1.0553836
-42.858442
-1.1431132
-52.173936
-1.1972103
-63.720061
-1.1885426
-78.105967
-96.140804
4.4666939e-05
-0.0073367476
4.1732331e-05
-0.010429103
5.0368189e-05
-0.013795656
7.7347032e-05
-0.017962544
0.00015159382
-0.023359911
0.00015852427
-0.029982259
5.8507397e-05
-0.036078869
-6.4566298e-05
-0.043421861
-0.00020548765
-0.051837944
-0.00037982536
-0.062309151
-0.00057791472
-0.074538258
-0.00082339721
-0.089488584
-0.0011038794
-0.10722002
-0.0014458047
-0.12866715
-0.0018370379
-0.15432743
-0.0023069716
-0.18522869
-0.0028497753
-0.22233113
-0.0035018563
-0.26696109
-0.0042737404
-0.32059452
-0.0052080262
-0.38507252
-0.00635351
-0.46250197
-0.0078181262
-0.55536271
-0.0097593074
-0.66643442
-0.012442527
-0.79881751
-0.016225276
-0.95593067
-0.021554632
-1.1417481
-0.028867649
-1.3612341
-0.038527987
-1.620821
-0.050832938
-1.9287263
-0.066050304
-2.2951562
-0.084452775
-2.7324544
-0.10636466
-3.2553159
-0.13215705
-3.8817051
-0.16232823
-4.6329445
-0.19756112
-5.5344412
-0.23849149
-6.6200205
-0.28583607
-7.9270076
-0.34045528
-9.502738
-0.4032356
-11.404944
-0.4749811
-13.705533
-0.55631345
-16.493301
-0.64744981
-19.877459
-0.74798841
-23.997203
-0.85630588
-29.026169
-0.96861126
-35.184025
-1.0793405
-42.743607
-1.1775619
-52.071832
-1.2468359
-63.647413
-1.2600695
-78.08902
-96.221496
4.9957825e-05
-0.0073276367
5.0066318e-05
-0.010429791
6.3455541e-05
-0.01380984
9.6935669e-05
-0.017996946
0.00017949924
-0.02344354
0.00017863269
-0.029982605
8.4147092e-05
-0.035985889
-3.2145704e-05
-0.043307315
-0.00016412955
-0.051708088
-0.00032851918
-0.062147296
-0.00051450285
-0.074355332
-0.00074545599
-0.089261333
-0.0010068123
-0.10696316
-0.0013259194
-0.12835348
-0.0016897207
-0.15397022
-0.002127029
-0.18479927
-0.0026324976
-0.22183503
-0.0032407966
-0.26636387
-0.003961369
-0.31988787
-0.0048379603
-0.38421337
-0.0059283243
-0.46143293
-0.0073447525
-0.55397225
-0.0092608513
-0.66454947
-0.011959717
-0.79615615
-0.015822622
-0.95211162
-0.02129291
-1.1363303
-0.028778682
-1.3538145
-0.038620229
-1.6110593
-0.051092321
-1.9163388
-0.066448598
-2.2798918
-0.084960838
-2.7140397
-0.10696347
-3.2334164
-0.1328425
-3.8559365
-0.16312065
-4.6027861
-0.19851571
-5.4991707
-0.23968211
-6.5789604
-0.28736721
-7.8794126
-0.34245583
-9.4476931
-0.40592143
-11.341457
-0.47863158
-13.632671
-0.56132953
-16.410277
-0.65439822
-19.783857
-0.7576773
-23.893267
-0.86983232
-28.913173
-0.98752544
-35.064296
-1.1061551
-42.621038
-1.215461
-51.95882
-1.3005028
-63.559166
-1.3363803
-78.049593
-96.270019
5.5257597e-05
-0.0073207182
5.8664396e-05
-0.010433783
7.7176067e-05
-0.013829152
0.00011797114
-0.01803865
0.00020759575
-0.023534243
0.00019822985
-0.029974438
0.0001087281
-0.035897881
-1.1214778e-06
-0.043199177
-0.00012484318
-0.051586463
-0.00027968095
-0.061994958
-0.00045364004
-0.074184391
-0.00067023287
-0.089048398
-0.00091315423
-0.10672465
-0.0012103911
-0.12806162
-0.0015480778
-0.15363904
-0.0019543395
-0.18440098
-0.0024264469
-0.22137291
-0.0029934636
-0.26580811
-0.0036654377
-0.31922915
-0.0044923347
-0.38340342
-0.005536918
-0.46040936
-0.0069200053
-0.5526149
-0.0088303737
-0.66267008
-0.011573249
-0.79345066
-0.015550146
-0.94817847
-0.021190286
-1.1307427
-0.028875505
-1.3461953
-0.038925925
-1.6010879
-0.05159056
-1.9037575
-0.067112241
-2.2644605
-0.085764965
-2.695483
-0.1078955
-3.2113872
-0.13390618
-3.8300342
-0.16434642
-4.5724629
-0.19996926
-5.463669
-0.24145468
-6.5375775
-0.28957086
-7.8313827
-0.34525856
-9.3920457
-0.40954174
-11.277148
-0.48338435
-13.558673
-0.56765396
-16.32568
-0.66289896
-19.688089
-0.76919981
-23.786336
-0.8855274
-28.795941
-1.0089819
-34.938534
-1.1359973
-42.490317
-1.2569594
-51.834351
-1.3584193
-63.454673
-1.4177219
-77.986923
-96.285497
5.9633815e-05
-0.0073152992
6.5676534e-05
-0.010440417
8.886619e-05
-0.01385315
0.00013710584
-0.018087782
0.00023114192
-0.023629341
0.0002117099
-0.029956198
0.00012695608
-0.035814618
2.3352053e-05
-0.043097273
-9.2352693e-05
-0.051472811
-0.00023786638
-0.061851901
-0.00039937539
-0.074025853
-0.00060160977
-0.08884976
-0.00082710147
-0.10650352
-0.001103825
-0.12779018
-0.0014171531
-0.15333213
-0.0017948775
-0.18403108
-0.0022345313
-0.22094318
-0.0027627955
-0.2652914
-0.0033910824
-0.31861438
-0.004175121
-0.38263619
-0.0051829172
-0.45942214
-0.0065436602
-0.55127925
-0.0084705043
-0.66077299
-0.011293241
-0.7906637
-0.015417318
-0.94409599
-0.021253815
-1.1249567
-0.029168858
-1.338344
-0.039453026
-1.5908798
-0.05233368
-1.890957
-0.068046524
-2.2488352
-0.086871003
-2.6767518
-0.10916707
-3.1891897
-0.13535659
-3.8039499
-0.16601638
-4.5419166
-0.20194176
-5.4278608
-0.24382693
-6.495791
-0.29247785
-7.7828144
-0.34888259
-9.335678
-0.41413231
-11.211869
-0.48928525
-13.483362
-0.57533203
-16.239308
-0.67300905
-19.589903
-0.78262528
-23.676116
-0.90346931
-28.674113
-1.0330995
-34.806245
-1.169033
-42.350965
-1.3022141
-51.697877
-1.4207737
-63.333248
-1.5042533
-77.900185
-96.267204
6.4978503e-05
-0.0073124975
7.4460164e-05
-0.010450446
0.00010302745
-0.013882489
0.00016023547
-0.018145849
0.00025719026
-0.023727337
0.00022725389
-0.029927425
0.0001477246
-0.035736571
5.0970146e-05
-0.043002194
-5.6586811e-05
-0.051367264
-0.00019301247
-0.061717858
-0.00034295409
-0.07387884
-0.00053161155
-0.088664658
-0.00074079481
-0.1062986
-0.00099833871
-0.12753784
-0.0012890941
-0.15304764
-0.0016413685
-0.1836865
-0.0020502246
-0.22054388
-0.0025414594
-0.26481153
-0.0031321286
-0.31803739
-0.0038792002
-0.38190575
-0.0048578062
-0.45846407
-0.006212458
-0.54994942
-0.0081819408
-0.65883338
-0.011116047
-0.78776513
-0.015416735
-0.93983695
-0.021482379
-1.1189417
-0.029654757
-1.3302354
-0.040196481
-1.5804136
-0.05331831
-1.8779142
-0.069248665
-2.232991
-0.088275673
-2.6578167
-0.11077661
-3.1667856
-0.13719322
-3.7776367
-0.16813195
-4.5110889
-0.20442516
-5.3916819
-0.24681017
-6.4535017
-0.29610014
-7.7336043
-0.35334051
-9.2784725
-0.41970949
-11.145468
-0.49635618
-13.406555
-0.58440711
-16.150935
-0.68476992
-19.48905
-0.79801067
-23.562302
-0.92375851
-28.547301
-1.0603072
-34.666717
-1.205421
-42.202748
-1.3513846
-51.548829
-1.4877424
-63.194178
-1.5961968
-77.788626
-96.213831
6.8429666e-05
-0.0073106246
7.9854506e-05
-0.01046239
0.00011229941
-0.013915699
0.0001782547
-0.018212621
0.00027499606
-0.023825153
0.00023530655
-0.029888914
0.00016146872
-0.035664205
7.1661086e-05
-0.042913831
-2.7794883e-05
-0.051270078
-0.00015543169
-0.061592627
-0.00029492261
-0.073742268
-0.00047149351
-0.088491585
-0.00066603734
-0.10610828
-0.000906116
-0.12730284
-0.001176225
-0.15278369
-0.0015040676
-0.18336618
-0.0018842054
-0.22017309
-0.0023416533
-0.26436539
-0.0029002464
-0.31749249
-0.0036175117
-0.38120503
-0.0045773711
-0.4575243
-0.0059462149
-0.54860464
-0.0079877842
-0.65682037
-0.011061291
-0.78472538
-0.015567495
-0.93537028
-0.021893256
-1.1126646
-0.030351101
-1.321839
-0.041174048
-1.5696636
-0.054557754
-1.8646068
-0.07073164
-2.2169007
-0.089993296
-2.6386444
-0.11273932
-3.144134
-0.13943248
-3.7510442
-0.17071185
-4.4799174
-0.20745614
-5.3550486
-0.250425
-6.4106253
-0.30046254
-7.6836437
-0.35867626
-9.2202917
-0.42632017
-11.077789
-0.5046446
-13.328066
-0.59492386
-16.060338
-0.69824138
-19.385265
-0.81542738
-23.44457
-0.94647122
-28.415114
-1.0906986
-34.519464
-1.2452405
-42.045215
-1.4045917
-51.386559
-1.5595775
-63.03664
-1.6937659
-77.651427
-96.124477
7.3451522e-05
-0.007311413
8.8334939e-05
-0.010477756
0.00012629101
-0.0139543
0.00020346023
-0.018290586
0.00029922673
-0.023921819
0.0002577525
-0.029848551
0.00018906933
-0.035596881
0.00010415615
-0.042830515
1.1006466e-05
-0.051178902
-0.00010939259
-0.061474599
-0.00023951773
-0.073614987
-0.00040522104
-0.088329321
-0.00058618641
-0.10593144
-0.00081016281
-0.12708384
-0.0010619281
-0.15253797
-0.0013662494
-0.18306924
-0.0017189755
-0.21982949
-0.0021471546
-0.26394833
-0.0026786187
-0.3169746
-0.0033728524
-0.38052719
-0.0043295819
-0.45658763
-0.0057358608
-0.54722228
-0.0078753162
-0.65470965
-0.011116503
-0.78151782
-0.015861682
-0.93066472