/*--------------------------------*- C++ -*----------------------------------*\
  =========                 |
  \\      /  F ield         | OpenFOAM: The Open Source CFD Toolbox
   \\    /   O peration     | Website:  https://openfoam.org
    \\  /    A nd           | Version:  8
     \\/     M anipulation  |
\*---------------------------------------------------------------------------*/
FoamFile
{
    version     2.0;
    format      ascii;
    class       pointVectorField;
    location    "0.140008";
    object      pointDisplacement;
}
// * * * * * * * * * * * * * * * * * * * * * * * * * * * * * * * * * * * * * //

dimensions      [0 1 0 0 0 0 0];

internalField   nonuniform List<vector> 
40800
(
(0.0008536504 0 0.00072170384)
(0.00085430804 0 0.00060046884)
(0.00085418059 0 0.00060104802)
(0.00085349121 0 0.0007248428)
(0.00085416639 0 0.00060088461)
(0.00085347808 0 0.00072470923)
(0.0008541381 0 0.00060068076)
(0.00085345113 0 0.00072456488)
(0.00085408959 0 0.00060044949)
(0.00085340458 0 0.00072440372)
(0.00085401238 0 0.00060019044)
(0.00085333013 0 0.00072422738)
(0.00085389471 0 0.00059990533)
(0.00085321625 0 0.00072403999)
(0.00085372044 0 0.0005995995)
(0.00085304716 0 0.00072384941)
(0.00085346754 0 0.00059928352)
(0.00085280122 0 0.00072366897)
(0.00085310615 0 0.00059897639)
(0.00085244914 0 0.00072352038)
(0.00085259599 0 0.00059870955)
(0.00085195134 0 0.00072343817)
(0.00085188313 0 0.0005985328)
(0.00085125483 0 0.00072347518)
(0.00085089586 0 0.00059852324)
(0.00085028904 0 0.00072371176)
(0.00084953937 0 0.00059879759)
(0.00084896074 0 0.00072426731)
(0.00084769009 0 0.00059952992)
(0.00084714812 0 0.00072531738)
(0.00084518787 0 0.00060097619)
(0.00084469335 0 0.0007271168)
(0.00084182876 0 0.00060350566)
(0.00084139498 0 0.00073003117)
(0.00083735768 0 0.00060764678)
(0.00083700049 0 0.00073457941)
(0.00083146025 0 0.00061414485)
(0.0008311979 0 0.00074149024)
(0.00082375976 0 0.00062403127)
(0.00082361216 0 0.00075176697)
(0.00081381806 0 0.0006387093)
(0.00081380537 0 0.00076676517)
(0.00080114905 0 0.00066002446)
(0.0008012888 0 0.00078826346)
(0.00078525063 0 0.00069030927)
(0.0007855533 0 0.00081850791)
(0.00076564283 0 0.00073236713)
(0.00076610589 0 0.00086019877)
(0.00074194694 0 0.000789312)
(0.00074254926 0 0.00091633676)
(0.00071393674 0 0.00086433804)
(0.00071463129 0 0.00099000792)
(0.00068164309 0 0.00096002682)
(0.00068236036 0 0.001083681)
(0.00064535619 0 0.0010781194)
(0.00064600282 0 0.0011990659)
(0.00060570426 0 0.0012180659)
(0.00060618152 0 0.0013355435)
(0.00056341646 0 0.0013775701)
(0.00056363711 0 0.0014907494)
(0.00051932621 0 0.0015519884)
(0.00051921819 0 0.0016600247)
(0.00047458597 0 0.0017336977)
(0.0004741415 0 0.0018356561)
(0.0004301472 0 0.0019140931)
(0.00042938229 0 0.0020091265)
(0.00038700509 0 0.002083848)
(0.00038598216 0 0.0021712258)
(0.00034613549 0 0.0022330755)
(0.00034496069 0 0.0023120259)
(0.00030792818 0 0.0023564197)
(0.00030667356 0 0.0024268156)
(0.00027262432 0 0.0024494171)
(0.00027136034 0 0.0025111824)
(0.00024026116 0 0.0025076647)
(0.00023902995 0 0.0025610036)
(0.00021061541 0 0.0025314239)
(0.00020943312 0 0.0025767808)
(0.00018372734 0 0.0025184605)
(0.00018263544 0 0.0025562071)
(0.00015897335 0 0.0024718646)
(0.00015792762 0 0.0025028616)
(0.00013620783 0 0.002391078)
(0.00013522021 0 0.0024157746)
(0.00011619555 0 0.0022764815)
(0.00011533354 0 0.0022956965)
(9.8344452e-05 0 0.0021267398)
(9.7613676e-05 0 0.0021407606)
(8.1527538e-05 0 0.0019417484)
(8.086282e-05 0 0.0019516784)
(6.5260413e-05 0 0.0017163912)
(6.464253e-05 0 0.0017223628)
(4.9608354e-05 0 0.0014342562)
(4.9028781e-05 0 0.0014362662)
(3.4359905e-05 0 0.0010889803)
(3.3821732e-05 0 0.0010867883)
(1.9969425e-05 0 0.00068373772)
(1.949622e-05 0 0.00067784681)
(7.1360793e-06 0 0.00025373576)
(6.7576177e-06 0 0.00024466289)
(0 0 0)
(0 0 0)
(0.00085448588 0 0.00048184046)
(0.00085436065 0 0.0004823552)
(0.00085434554 0 0.00048209714)
(0.0008543159 0 0.00048179875)
(0.00085426555 0 0.00048145501)
(0.00085418582 0 0.00048106257)
(0.00085406471 0 0.00048061941)
(0.00085388577 0 0.00048012643)
(0.00085362652 0 0.00047958904)
(0.00085325658 0 0.00047902018)
(0.00085273492 0 0.00047844468)
(0.00085200676 0 0.00047790514)
(0.00085099915 0 0.00047747116)
(0.00084961602 0 0.00047725228)
(0.00084773198 0 0.00047741515)
(0.00084518487 0 0.00047821033)
(0.00084176883 0 0.00048000137)
(0.00083722615 0 0.0004833157)
(0.00083124055 0 0.00048890432)
(0.00082343355 0 0.00049781692)
(0.00081336694 0 0.00051149336)
(0.00080055804 0 0.00053183371)
(0.0007845107 0 0.00056124919)
(0.00076475865 0 0.00060264077)
(0.00074093921 0 0.00065924557)
(0.00071285319 0 0.00073437093)
(0.00068055132 0 0.0008307583)
(0.00064435038 0 0.00095019284)
(0.00060488133 0 0.001092273)
(0.00056286265 0 0.0012548448)
(0.00051912174 0 0.0014333011)
(0.00047474272 0 0.001620184)
(0.00043065436 0 0.0018068219)
(0.00038781076 0 0.0019838041)
(0.00034713298 0 0.0021412762)
(0.00030904255 0 0.0022733435)
(0.0002737862 0 0.0023752641)
(0.00024142024 0 0.0024425749)
(0.0002117526 0 0.002475048)
(0.000184802 0 0.0024705895)
(0.00016000803 0 0.0024317997)
(0.00013722231 0 0.0023582581)
(0.00011709663 0 0.0022503113)
(9.9116097e-05 0 0.0021066425)
(8.222425e-05 0 0.0019269649)
(6.5927673e-05 0 0.0017062586)
(5.0241682e-05 0 0.0014292796)
(3.4970656e-05 0 0.0010892736)
(2.0522355e-05 0 0.00068938725)
(7.5941746e-06 0 0.00026397513)
(0 0 0)
(0.00085419455 0 0.00036576455)
(0.00085407228 0 0.00036624197)
(0.00085405549 0 0.00036591669)
(0.00085402364 0 0.00036553581)
(0.00085397041 0 0.00036508874)
(0.00085388691 0 0.00036456784)
(0.00085376086 0 0.00036396731)
(0.00085357545 0 0.00036328414)
(0.00085330775 0 0.00036251911)
(0.00085292675 0 0.00036168025)
(0.00085239065 0 0.00036078696)
(0.00085164365 0 0.00035987573)
(0.00085061151 0 0.00035900984)
(0.00084919666 0 0.00035829137)
(0.00084727166 0 0.00035788049)
(0.00084467234 0 0.00035801926)
(0.00084119044 0 0.00035906873)
(0.00083656581 0 0.00036155545)
(0.00083047998 0 0.0003662375)
(0.00082255275 0 0.00037418917)
(0.00081234637 0 0.00038688613)
(0.00079938181 0 0.00040628563)
(0.00078317025 0 0.00043487838)
(0.00076326004 0 0.00047566152)
(0.00073930697 0 0.00053198707)
(0.00071114046 0 0.00060726912)
(0.00067883404 0 0.00070438563)
(0.00064273226 0 0.00082515414)
(0.00060346924 0 0.00096930394)
(0.00056175281 0 0.0011348052)
(0.00051839932 0 0.0013170909)
(0.00047442852 0 0.0015088468)
(0.00043074074 0 0.0017013671)
(0.00038824663 0 0.0018851846)
(0.00034781599 0 0.0020504721)
(0.00030989156 0 0.0021908776)
(0.00027472745 0 0.0023013838)
(0.00024239703 0 0.0023774617)
(0.00021273803 0 0.0024184277)
(0.00018575298 0 0.0024222847)
(0.00016093843 0 0.0023911927)
(0.00013814671 0 0.0023248225)
(0.00011792982 0 0.0022234815)
(9.9836584e-05 0 0.0020858669)
(8.2878317e-05 0 0.0019115277)
(6.6557616e-05 0 0.0016955258)
(5.0845021e-05 0 0.0014236899)
(3.5557273e-05 0 0.0010889747)
(2.1057985e-05 0 0.00069445988)
(8.0359891e-06 0 0.00027355517)
(0 0 0)
(0.00085344914 0 0.00025218811)
(0.0008533293 0 0.00025260533)
(0.00085331012 0 0.00025218913)
(0.00085327522 0 0.00025170305)
(0.00085321809 0 0.00025113688)
(0.00085312959 0 0.00025048029)
(0.00085299715 0 0.00024972313)
(0.00085280351 0 0.00024885689)
(0.00085252523 0 0.00024787614)
(0.00085213057 0 0.0002467823)
(0.0008515769 0 0.00024558695)
(0.00085080726 0 0.00024431919)
(0.00084974609 0 0.00024303394)
(0.00084829405 0 0.00024182549)
(0.00084632163 0 0.00024084626)
(0.00084366239 0 0.00024033288)
(0.00084010542 0 0.00024064189)
(0.00083538809 0 0.0002423019)
(0.00082918955 0 0.00024608431)
(0.00082112826 0 0.000253088)
(0.00081076728 0 0.00026482925)
(0.00079763153 0 0.00028332494)
(0.00078124087 0 0.00031114656)
(0.00076115909 0 0.00035138597)
(0.00073706317 0 0.00040750042)
(0.0007088123 0 0.00048300603)
(0.00067650614 0 0.0005808928)
(0.00064051753 0 0.00070299992)
(0.00060148362 0 0.00084917025)
(0.00056010182 0 0.0010174812)
(0.00051717232 0 0.0012034071)
(0.00047365434 0 0.0013997564)
(0.00043041431 0 0.0015978182)
(0.00038831809 0 0.0017880922)
(0.00034818672 0 0.001960778)
(0.00031047589 0 0.0021091366)
(0.00027544723 0 0.0022278896)
(0.00024319006 0 0.00231243)
(0.00021356994 0 0.0023616579)
(0.00018657843 0 0.00237363)
(0.00016176314 0 0.0023501132)
(0.00013897988 0 0.0022908287)
(0.00011869312 0 0.002196039)
(0.00010050421 0 0.0020644508)
(8.3488814e-05 0 0.001895463)
(6.7149846e-05 0 0.001684212)
(5.1418077e-05 0 0.0014175041)
(3.611958e-05 0 0.0010880975)
(2.1576095e-05 0 0.00069896619)
(8.4618258e-06 0 0.00028249764)
(0 0 0)
(0.00085226397 0 0.000141059)
(0.00085214548 0 0.00014142741)
(0.00085212332 0 0.00014093111)
(0.00085208462 0 0.00014034947)
(0.00085202263 0 0.00013966936)
(0.00085192792 0 0.0001388772)
(0.00085178754 0 0.00013795938)
(0.00085158377 0 0.00013690329)
(0.00085129258 0 0.00013569904)
(0.00085088148 0 0.00013434252)
(0.00085030689 0 0.00013283917)
(0.00084951063 0 0.0001312109)
(0.00084841563 0 0.00012950459)
(0.0008469207 0 0.00012780627)
(0.00084489407 0 0.0001262597)
(0.00084216673 0 0.00012509425)
(0.00083852507 0 0.00012466288)
(0.00083370371 0 0.00012549682)
(0.00082737966 0 0.00012838307)
(0.00081917034 0 0.00013445178)
(0.00080863979 0 0.00014526397)
(0.00079531741 0 0.00016289737)
(0.0007787329 0 0.00019000684)
(0.0007584666 0 0.00022977566)
(0.00073421911 0 0.00028575637)
(0.00070588106 0 0.00036156169)
(0.00067358099 0 0.0004602714)
(0.00063772017 0 0.0005837354)
(0.00059893885 0 0.00073189146)
(0.00055792341 0 0.00090290919)
(0.00051545362 0 0.0010923019)
(0.00047243078 0 0.0012929837)
(0.00042968323 0 0.001496262)
(0.00038803073 0 0.0016926263)
(0.00034824788 0 0.0018723041)
(0.00031079627 0 0.002028233)
(0.00027594495 0 0.0021548906)
(0.00024379777 0 0.0022475832)
(0.00021424661 0 0.0023048313)
(0.00018727621 0 0.0023247087)
(0.00016248049 0 0.00230863)
(0.0001397205 0 0.0022563335)
(0.00011938454 0 0.0021680302)
(0.00010111709 0 0.0020424308)
(8.405461e-05 0 0.001878797)
(6.7703744e-05 0 0.0016723345)
(5.1960445e-05 0 0.0014107399)
(3.6657291e-05 0 0.0010866554)
(2.207638e-05 0 0.00070291751)
(8.8719128e-06 0 0.00029082361)
(0 0 0)
(0.00085064985 0 3.2326509e-05)
(0.00085053262 0 3.2648037e-05)
(0.00085050658 0 3.2073701e-05)
(0.00085046305 0 3.1398889e-05)
(0.00085039504 0 3.0607099e-05)
(0.00085029279 0 2.968122e-05)
(0.00085014296 0 2.8603877e-05)
(0.00084992728 0 2.7358248e-05)
(0.00084962106 0 2.5929847e-05)
(0.00084919095 0 2.4309219e-05)
(0.00084859229 0 2.249582e-05)
(0.00084776556 0 2.0504798e-05)
(0.00084663199 0 1.8375397e-05)
(0.00084508839 0 1.6185457e-05)
(0.0008430005 0 1.4070095e-05)
(0.00084019654 0 1.2250539e-05)
(0.00083645997 0 1.1074722e-05)
(0.00083152274 0 1.1076313e-05)
(0.00082506014 0 1.3066e-05)
(0.00081668889 0 1.8215033e-05)
(0.00080597392 0 2.8130584e-05)
(0.00079244967 0 4.4949109e-05)
(0.00077565692 0 7.1413672e-05)
(0.00075519375 0 0.00011079457)
(0.00073078677 0 0.00016672672)
(0.00070235974 0 0.00024291702)
(0.00067007282 0 0.0003425118)
(0.00063435548 0 0.00046736057)
(0.00059585069 0 0.00061748003)
(0.00055523292 0 0.00079111622)
(0.00051325764 0 0.00098381709)
(0.00047077015 0 0.0011885876)
(0.00042855718 0 0.0013967734)
(0.00038739171 0 0.0015988745)
(0.00034800353 0 0.0017851501)
(0.0003108548 0 0.0019482698)
(0.000276221 0 0.0020824888)
(0.00024421959 0 0.0021830186)
(0.00021476693 0 0.0022480363)
(0.00018784486 0 0.0022756002)
(0.00016308917 0 0.0022668101)
(0.00014036756 0 0.0022213926)
(0.00012000241 0 0.0021395004)
(0.00010167363 0 0.0020198435)
(8.457466e-05 0 0.001861556)
(6.8218779e-05 0 0.0016599116)
(5.2471688e-05 0 0.0014034139)
(3.7170139e-05 0 0.0010846613)
(2.2558582e-05 0 0.00070632462)
(9.2664565e-06 0 0.00029855278)
(0 0 0)
(0.00084861922 0 -7.4058809e-05)
(0.00084850322 0 -7.3787338e-05)
(0.00084847272 0 -7.4444137e-05)
(0.0008484236 0 -7.5217607e-05)
(0.00084834857 0 -7.6126044e-05)
(0.00084823752 0 -7.7189183e-05)
(0.00084807666 0 -7.8427538e-05)
(0.00084784715 0 -7.9862064e-05)
(0.00084752357 0 -8.1512113e-05)
(0.00084707162 0 -8.3393025e-05)
(0.00084644548 0 -8.5512134e-05)
(0.00084558414 0 -8.7861816e-05)
(0.000844407 0 -9.0411262e-05)
(0.00084280859 0 -9.3091343e-05)
(0.000840652 0 -9.577615e-05)
(0.00083776235 0 -9.8253156e-05)
(0.00083391997 0 -0.00010018158)
(0.00082885433 0 -0.00010103102)
(0.00082224011 0 -9.9945313e-05)
(0.0008136934 0 -9.5692904e-05)
(0.00080277936 0 -8.6631727e-05)
(0.00078903811 0 -7.057414e-05)
(0.00077202314 0 -4.4677403e-05)
(0.00075135139 0 -5.5905419e-06)
(0.00072677772 0 5.0385898e-05)
(0.00069826139 0 0.00012705454)
(0.00066599601 0 0.00022760696)
(0.00063043885 0 0.000353878)
(0.00059223517 0 0.0005059487)
(0.0005520461 0 0.00068212754)
(0.00051059935 0 0.00087799023)
(0.00046868537 0 0.001086621)
(0.00042704669 0 0.00129942)
(0.00038640894 0 0.0015069169)
(0.0003474587 0 0.0016994079)
(0.00031065422 0 0.001869344)
(0.00027627644 0 0.0020107803)
(0.00024445531 0 0.00211883)
(0.00021513022 0 0.0021913584)
(0.00018828311 0 0.0022263826)
(0.00016358801 0 0.0022247198)
(0.00014092017 0 0.0021860612)
(0.00012054523 0 0.0021104954)
(0.00010217227 0 0.0019967255)
(8.5047921e-05 0 0.0018437674)
(6.8694364e-05 0 0.0016469618)
(5.2951387e-05 0 0.0013955446)
(3.7657836e-05 0 0.0010821294)
(2.3022395e-05 0 0.00070919914)
(9.6456115e-06 0 0.00030570403)
(0 0 0)
(0.00084618515 0 -0.00017814595)
(0.00084606983 0 -0.00017792257)
(0.00084603397 0 -0.00017865966)
(0.00084597821 0 -0.00017952912)
(0.00084589499 0 -0.00018055145)
(0.0008457738 0 -0.00018174939)
(0.00084560034 0 -0.0001831469)
(0.00084535512 0 -0.0001847693)
(0.00084501189 0 -0.00018664099)
(0.00084453532 0 -0.00018878315)
(0.00084387824 0 -0.00019120978)
(0.00084297804 0 -0.00019392065)
(0.00084175208 0 -0.00019689311)
(0.00084009243 0 -0.00020006678)
(0.00083785918 0 -0.00020332526)
(0.00083487408 0 -0.00020646646)
(0.00083091393 0 -0.00020915816)
(0.00082570815 0 -0.00021083314)
(0.00081893219 0 -0.00021058903)
(0.00081019847 0 -0.00020717356)
(0.00079907121 0 -0.0001989106)
(0.00078509794 0 -0.00018356553)
(0.00076784472 0 -0.00015823198)
(0.00074695072 0 -0.00011940836)
(0.00072220406 0 -6.3289899e-05)
(0.00069359967 0 1.395781e-05)
(0.00066136589 0 0.00011554883)
(0.00062598692 0 0.00024328674)
(0.00058810957 0 0.00039730444)
(0.00054838017 0 0.00057596017)
(0.00050749513 0 0.00077484991)
(0.00046619083 0 0.00098712626)
(0.00042516364 0 0.0012042584)
(0.00038509169 0 0.001416823)
(0.0003466196 0 0.0016151592)
(0.00031019845 0 0.0017915435)
(0.00027611327 0 0.001939854)
(0.00024450568 0 0.0020551047)
(0.00021533645 0 0.0021348785)
(0.00018859029 0 0.0021771304)
(0.00016397624 0 0.0021824232)
(0.00014137773 0 0.0021503937)
(0.00012101183 0 0.0020810603)
(0.0001026117 0 0.0019731132)
(8.5473458e-05 0 0.0018254591)
(6.9129993e-05 0 0.0016335044)
(5.3399098e-05 0 0.0013871494)
(3.8120075e-05 0 0.0010790726)
(2.3467537e-05 0 0.00071155191)
(1.0009519e-05 0 0.00031229551)
(0 0 0)
(0.00084336049 0 -0.00027998247)
(0.00084324508 0 -0.00027980536)
(0.00084320331 0 -0.0002806199)
(0.00084314022 0 -0.00028158117)
(0.00084304784 0 -0.00028271315)
(0.00084291521 0 -0.00028404223)
(0.00084272746 0 -0.00028559663)
(0.00084246439 0 -0.00028740623)
(0.00084209887 0 -0.0002895005)
(0.00084159444 0 -0.00029190623)
(0.00084090256 0 -0.0002946436)
(0.00083995882 0 -0.00029771936)
(0.0008386784 0 -0.0003011185)
(0.00083695063 0 -0.00030478917)
(0.00083463234 0 -0.00030862478)
(0.00083154141 0 -0.00031243658)
(0.00082745418 0 -0.00031586428)
(0.00082210199 0 -0.00031826521)
(0.00081515532 0 -0.00031874702)
(0.00080622098 0 -0.00031608697)
(0.00079486482 0 -0.00030856297)
(0.00078064193 0 -0.00029388387)
(0.00076313269 0 -0.00026912469)
(0.00074200291 0 -0.00023061591)
(0.00071707765 0 -0.00017432205)
(0.00068838837 0 -9.6386165e-05)
(0.00065619799 0 6.3330807e-06)
(0.00062101645 0 0.00013558824)
(0.00058349152 0 0.00029155491)
(0.00054425271 0 0.00047263027)
(0.00050396181 0 0.00067442223)
(0.00046330141 0 0.00089014161)
(0.00042292054 0 0.0011113395)
(0.00038344982 0 0.0013286558)
(0.00034549322 0 0.0015324792)
(0.00030949198 0 0.0017149504)
(0.00027573408 0 0.0018697936)
(0.00024437179 0 0.0019919265)
(0.00021538589 0 0.0020786752)
(0.00018876595 0 0.002127916)
(0.00016425322 0 0.0021399836)
(0.00014173973 0 0.0021144439)
(0.00012140119 0 0.00205124)
(0.0001029907 0 0.0019490434)
(8.5850359e-05 0 0.0018066588)
(6.9525126e-05 0 0.0016195588)
(5.381441e-05 0 0.0013782467)
(3.8556553e-05 0 0.001075505)
(2.38937e-05 0 0.00071339423)
(1.0358288e-05 0 0.00031834467)
(0 0 0)
(0.00084015558 0 -0.00037961482)
(0.00084003952 0 -0.00037948296)
(0.00083999092 0 -0.00038037423)
(0.00083991939 0 -0.00038142685)
(0.0008398166 0 -0.00038266843)
(0.00083967109 0 -0.00038412911)
(0.00083946734 0 -0.00038584128)
(0.0008391844 0 -0.00038783921)
(0.00083879413 0 -0.0003901574)
(0.00083825885 0 -0.00039282807)
(0.00083752847 0 -0.00039587736)
(0.00083653667 0 -0.00039931864)
(0.0008351962 0 -0.00040314414)
(0.00083339345 0 -0.00040730977)
(0.00083098162 0 -0.00041171589)
(0.00082777662 0 -0.00041617806)
(0.00082355754 0 -0.00042027396)
(0.00081805183 0 -0.00042333749)
(0.00081092029 0 -0.00042451486)
(0.0008017683 0 -0.00042256962)
(0.00079016555 0 -0.00041574019)
(0.00077567488 0 -0.0004016703)
(0.00075789537 0 -0.00037736426)
(0.00073652079 0 -0.00033910131)
(0.00071141224 0 -0.00028266375)
(0.00068264225 0 -0.00020399059)
(0.00065050888 0 -0.00010004698)
(0.00061554541 0 3.0778208e-05)
(0.00057839989 0 0.00018870138)
(0.00053968257 0 0.00037214665)
(0.00050001736 0 0.00057672489)
(0.00046003315 0 0.00079569552)
(0.00042033098 0 0.0010207043)
(0.00038149426 0 0.0012424685)
(0.0003440875 0 0.0014514332)
(0.00030854029 0 0.0016396381)
(0.00027514226 0 0.0018006758)
(0.00024405553 0 0.0019293728)
(0.00021527944 0 0.002022822)
(0.00018881017 0 0.0020788087)
(0.00016441871 0 0.0020974618)
(0.00014200595 0 0.0020782642)
(0.00012171253 0 0.0020210787)
(0.00010330826 0 0.0019245523)
(8.6177814e-05 0 0.0017873951)
(6.9879287e-05 0 0.0016051453)
(5.4196891e-05 0 0.001368854)
(3.8966967e-05 0 0.0010714401)
(2.430059e-05 0 0.00071473674)
(1.0692003e-05 0 0.00032386807)
(0 0 0)
(0.00083658055 0 -0.00047708843)
(0.00083646452 0 -0.00047700537)
(0.00083640831 0 -0.00047797873)
(0.00083632735 0 -0.00047912972)
(0.00083621288 0 -0.00048048794)
(0.00083605291 0 -0.00048208629)
(0.00083583129 0 -0.00048396041)
(0.00083552621 0 -0.00048614869)
(0.00083510851 0 -0.00048869035)
(0.0008345392 0 -0.00049162326)
(0.00083376648 0 -0.00049498016)
(0.00083272196 0 -0.00049878163)
(0.00083131575 0 -0.00050302841)
(0.00082943112 0 -0.00050768498)
(0.00082691766 0 -0.00051265947)
(0.00082359282 0 -0.00051771994)
(0.0008192357 0 -0.00052242325)
(0.00081356361 0 -0.00052614895)
(0.00080623116 0 -0.00052802921)
(0.00079684465 0 -0.00052678548)
(0.00078497745 0 -0.00052061656)
(0.00077020274 0 -0.00050709781)
(0.00075214105 0 -0.00048311228)
(0.00073051602 0 -0.0004448844)
(0.00070522361 0 -0.00038820241)
(0.00067637786 0 -0.00030880104)
(0.00064431536 0 -0.00020359311)
(0.00060959194 0 -7.1143885e-05)
(0.0005728538 0 8.8745806e-05)
(0.00053468893 0 0.00027451688)
(0.00049568008 0 0.00048177267)
(0.00045640241 0 0.00070381198)
(0.00041740896 0 0.0009323877)
(0.00037923639 0 0.0011583081)
(0.00034241098 0 0.0013720801)
(0.00030734934 0 0.0015656739)
(0.00027434169 0 0.0017325719)
(0.00024355914 0 0.001867517)
(0.00021501831 0 0.0019673897)
(0.00018872324 0 0.0020298748)
(0.00016447263 0 0.0020549173)
(0.00014217627 0 0.0020419062)
(0.00012194523 0 0.0019906202)
(0.00010356345 0 0.001899676)
(8.6455062e-05 0 0.001767696)
(7.019199e-05 0 0.0015902839)
(5.4546155e-05 0 0.0013589898)
(3.9351007e-05 0 0.0010668918)
(2.4687901e-05 0 0.00071559058)
(1.1010743e-05 0 0.00032888204)
(0 0 0)
(0.00083264938 0 -0.00057244815)
(0.00083253107 0 -0.00057241277)
(0.00083246625 0 -0.00057346767)
(0.00083237469 0 -0.00057471682)
(0.00083224718 0 -0.00057619208)
(0.00083207118 0 -0.00057792902)
(0.00083182985 0 -0.00057996624)
(0.00083150047 0 -0.00058234606)
(0.00083105275 0 -0.00058511202)
(0.00083044621 0 -0.00058830769)
(0.00082962727 0 -0.00059197188)
(0.00082852514 0 -0.00059613332)
(0.00082704709 0 -0.00060080182)
(0.00082507271 0 -0.00060595455)
(0.00082245126 0 -0.00061148713)
(0.00081900226 0 -0.00061710778)
(0.00081449732 0 -0.00062239614)
(0.00080864445 0 -0.00062677496)
(0.00080109576 0 -0.00062934013)
(0.00079145758 0 -0.000628776)
(0.00077930816 0 -0.00062323249)
(0.00076423334 0 -0.00061021091)
(0.0007458777 0 -0.00058647123)
(0.00072399768 0 -0.0005481159)
(0.00069852587 0 -0.00049095738)
(0.00066961135 0 -0.00041076379)
(0.00063763364 0 -0.00030430857)
(0.00060317518 0 -0.00017018277)
(0.00056687342 0 -8.315252e-06)
(0.00052929205 0 0.00017974147)
(0.00049096922 0 0.00038957241)
(0.00045242917 0 0.00061456211)
(0.00041417492 0 0.00084653931)
(0.00037669341 0 0.0010763398)
(0.00034047695 0 0.0012945889)
(0.00030592884 0 0.0014932217)
(0.00027333909 0 0.001665634)
(0.00024288649 0 0.0018064693)
(0.00021460423 0 0.001912444)
(0.00018850597 0 0.0019811771)
(0.00016441529 0 0.0020124069)
(0.00014225082 0 0.0020054199)
(0.00012209891 0 0.0019599074)
(0.00010375557 0 0.0018744507)
(8.6681442e-05 0 0.0017475904)
(7.0462805e-05 0 0.0015749957)
(5.4861794e-05 0 0.0013486716)
(3.9708363e-05 0 0.001061874)
(2.5055331e-05 0 0.00071596628)
(1.1314552e-05 0 0.00033340201)
(0 0 0)
(0.00082836893 0 -0.00066573729)
(0.00082824938 0 -0.00066575753)
(0.00082817497 0 -0.00066690077)
(0.0008280717 0 -0.00066825274)
(0.00082792994 0 -0.00066984598)
(0.00082773656 0 -0.00067171866)
(0.00082747389 0 -0.00067391378)
(0.00082711823 0 -0.00067647816)
(0.00082663798 0 -0.00067946121)
(0.00082599107 0 -0.00068291275)
(0.00082512186 0 -0.00068687888)
(0.00082395701 0 -0.00069139611)
(0.00082240061 0 -0.00069648211)
(0.00082032982 0 -0.00070212271)
(0.00081759626 0 -0.0007081765)
(0.00081401645 0 -0.00071434326)
(0.00080935101 0 -0.00072023332)
(0.0008033025 0 -0.00072525859)
(0.00079552137 0 -0.0007284928)
(0.00078561395 0 -0.00072858536)
(0.00077316445 0 -0.00072363106)
(0.00075777376 0 -0.00071105492)
(0.00073911375 0 -0.00068748111)
(0.00071697511 0 -0.00064888146)
(0.00069132802 0 -0.00059106098)
(0.00066235371 0 -0.00050994958)
(0.00063047967 0 -0.00040220224)
(0.00059631474 0 -0.00026634143)
(0.00056047938 0 -0.00010248519)
(0.00052351255 0 8.7819814e-05)
(0.00048590914 0 0.00030019722)
(0.000448141 0 0.00052810871)
(0.0004106528 0 0.0007633432)
(0.00037388431 0 0.00099675394)
(0.00033829992 0 0.0012191453)
(0.00030428934 0 0.0014224563)
(0.00027214158 0 0.0016000231)
(0.00024204141 0 0.0017463443)
(0.00021403897 0 0.0018580484)
(0.00018815937 0 0.0019327756)
(0.00016424716 0 0.0019699858)
(0.00014222986 0 0.0019688542)
(0.00012217331 0 0.0019289825)
(0.00010388399 0 0.0018489115)
(8.6856358e-05 0 0.0017271065)
(7.0691312e-05 0 0.0015593015)
(5.5143449e-05 0 0.0013379178)
(4.0038718e-05 0 0.0010564004)
(2.5402585e-05 0 0.00071587484)
(1.1603473e-05 0 0.00033744302)
(0 0 0)
(0.00082375259 0 -0.00075699883)
(0.00082363141 0 -0.00075705471)
(0.00082354729 0 -0.00075826598)
(0.000823432 0 -0.0007597009)
(0.00082327525 0 -0.00076139774)
(0.00082306321 0 -0.00076339855)
(0.00082277734 0 -0.00076575026)
(0.00082239292 0 -0.00076850337)
(0.00082187695 0 -0.00077171176)
(0.00082118576 0 -0.00077542969)
(0.00082026154 0 -0.00077970862)
(0.00081902833 0 -0.00078459131)
(0.00081738697 0 -0.00079010244)
(0.00081521462 0 -0.0007962126)
(0.00081236364 0 -0.00080276023)
(0.00080864232 0 -0.00080947648)
(0.00080380297 0 -0.00081597635)
(0.00079754454 0 -0.00082164195)
(0.00078951444 0 -0.00082553084)
(0.0007793199 0 -0.00082625666)
(0.00076655266 0 -0.00082185203)
(0.00075083525 0 -0.00080960608)
(0.0007318667 0 -0.00078605089)
(0.00070946442 0 -0.000747138)
(0.00068364132 0 -0.00068857163)
(0.00065462281 0 -0.00060636561)
(0.00062287695 0 -0.0004972294)
(0.00058903139 0 -0.00035962686)
(0.00055369752 0 -0.00019371284)
(0.00051738339 0 -1.106669e-06)
(0.0004805346 0 0.00021383006)
(0.0004435638 0 0.0004445495)
(0.0004068572 0 0.000682772)
(0.00037081965 0 0.00091950533)
(0.0003358876 0 0.0011457076)
(0.0003024364 0 0.0013533486)
(0.00027075286 0 0.0015357262)
(0.00024102716 0 0.0016872004)
(0.00021332552 0 0.0018043006)
(0.00018768488 0 0.0018847269)
(0.00016396902 0 0.0019277063)
(0.00014211388 0 0.0019322563)
(0.00012216838 0 0.0018978868)
(0.00010394826 0 0.0018230939)
(8.6979299e-05 0 0.0017062728)
(7.0877133e-05 0 0.0015432228)
(5.5390737e-05 0 0.001326746)
(4.0341763e-05 0 0.0010504849)
(2.5729357e-05 0 0.00071532669)
(1.1877532e-05 0 0.00034101996)
(0 0 0)
(0.00081881082 0 -0.00084627435)
(0.00081868625 0 -0.00084637545)
(0.00081859117 0 -0.0008476646)
(0.00081846244 0 -0.00084919166)
(0.00081828916 0 -0.00085099777)
(0.00081805677 0 -0.00085312834)
(0.00081774578 0 -0.00085563424)
(0.00081733033 0 -0.00085857066)
(0.00081677594 0 -0.00086199658)
(0.00081603708 0 -0.00086597221)
(0.00081505365 0 -0.00087055523)
(0.00081374673 0 -0.00087579544)
(0.00081201488 0 -0.00088172677)
(0.00080973633 0 -0.00088828991)
(0.00080676022 0 -0.00089532291)
(0.00080288623 0 -0.00090258512)
(0.00079786048 0 -0.00090967828)
(0.00079137725 0 -0.00091596903)
(0.00078308099 0 -0.00092049644)
(0.00077258106 0 -0.000921832)
(0.00075948496 0 -0.00091787794)
(0.00074343851 0 -0.0009057699)
(0.0007241565 0 -0.0008820586)
(0.00070148335 0 -0.00084276191)
(0.0006754845 0 -0.00078343166)
(0.00064644221 0 -0.0006999579)
(0.00061484848 0 -0.00058933327)
(0.00058135113 0 -0.00044998095)
(0.00054656605 0 -0.00028183938)
(0.00051094569 0 -8.6818932e-05)
(0.00047487465 0 0.00013057744)
(0.00043871204 0 0.00036382947)
(0.00040279882 0 0.00060474086)
(0.00036750817 0 0.00084450259)
(0.00033324679 0 0.0010741977)
(0.00030037521 0 0.001285841)
(0.00026917698 0 0.0014727074)
(0.00023984785 0 0.0016290813)
(0.00021246788 0 0.001751325)
(0.00018708456 0 0.00183712)
(0.00016358181 0 0.0018856189)
(0.00014190344 0 0.0018956718)
(0.00012208417 0 0.0018666606)
(0.00010394801 0 0.0017970321)
(8.7049821e-05 0 0.0016851173)
(7.1019914e-05 0 0.0015267807)
(5.5603332e-05 0 0.0013151743)
(4.0617186e-05 0 0.0010441415)
(2.6035354e-05 0 0.00071433262)
(1.2136737e-05 0 0.00034414671)
(0 0 0)
(0.00081355012 0 -0.00093360473)
(0.00081342307 0 -0.00093375126)
(0.0008133161 0 -0.00093511911)
(0.00081317279 0 -0.00093673964)
(0.00081298158 0 -0.00093865665)
(0.00081272715 0 -0.00094091865)
(0.00081238903 0 -0.00094358016)
(0.00081194008 0 -0.00094670058)
(0.00081134429 0 -0.00095034368)
(0.00081055416 0 -0.00095457507)
(0.00080950714 0 -0.00095945807)
(0.00080812129 0 -0.00096504789)
(0.00080629393 0 -0.00097138237)
(0.00080390372 0 -0.00097839092)
(0.000800794 0 -0.00098591011)
(0.00079675608 0 -0.00099370843)
(0.00079153078 0 -0.0010013792)
(0.00078480721 0 -0.0010082765)
(0.00077622677 0 -0.0010134265)
(0.00076540925 0 -0.0010152967)
(0.00075198167 0 -0.0010116267)
(0.00073559723 0 -0.00099954559)
(0.000715988 0 -0.00097560338)
(0.00069304421 0 -0.00093574692)
(0.00066688024 0 -0.00087553025)
(0.00063783099 0 -0.00079072614)
(0.00060641693 0 -0.00067850995)
(0.00057331448 0 -0.00053723439)
(0.00053912502 0 -0.00036672991)
(0.00050422408 0 -0.00016932781)
(0.00046894378 0 5.0346832e-05)
(0.00043359897 0 0.00028586977)
(0.00039849222 0 0.00052922264)
(0.00036396241 0 0.00077173475)
(0.00033038781 0 0.0010046206)
(0.0002981139 0 0.0012199526)
(0.00026742018 0 0.0014109963)
(0.0002385077 0 0.0015719964)
(0.00021146914 0 0.0016991623)
(0.00018636087 0 0.0017900427)
(0.00016308661 0 0.0018437713)
(0.0001415994 0 0.0018591444)
(0.00012192096 0 0.001835343)
(0.00010388308 0 0.0017707602)
(8.7067582e-05 0 0.0016636684)
(7.1119347e-05 0 0.0015099973)
(5.5780888e-05 0 0.0013032204)
(4.0864675e-05 0 0.0010373838)
(2.6320273e-05 0 0.00071290314)
(1.2381096e-05 0 0.00034683754)
(0 0 0)
(0.00080798229 0 -0.0010190298)
(0.00080785103 0 -0.0010192216)
(0.00080773124 0 -0.0010206683)
(0.0008075722 0 -0.0010223825)
(0.00080736168 0 -0.0010244108)
(0.00080708352 0 -0.0010268048)
(0.00080671617 0 -0.0010296227)
(0.00080623118 0 -0.001032928)
(0.00080559086 0 -0.0010367896)
(0.0008047456 0 -0.0010412787)
(0.00080363023 0 -0.001046465)
(0.00080215961 0 -0.0010524119)
(0.00080023144 0 -0.0010591366)
(0.00079772368 0 -0.0010665685)
(0.00079447169 0 -0.0010745641)
(0.00079025896 0 -0.0010828846)
(0.00078482069 0 -0.0010911155)
(0.00077784072 0 -0.0010985949)
(0.00076896278 0 -0.0011043096)
(0.00075782289 0 -0.0011065835)
(0.0007440529 0 -0.0011031042)
(0.00072730965 0 -0.0010910419)
(0.00070736277 0 -0.00106681)
(0.00068415436 0 -0.0010262201)
(0.00065784467 0 -0.000964877)
(0.00062880701 0 -0.0008786701)
(0.0005976138 0 -0.00076469774)
(0.00056496407 0 -0.00062123446)
(0.0005313998 0 -0.00044838746)
(0.00049723247 0 -0.00024875052)
(0.00046275539 0 -2.697087e-05)
(0.00042824046 0 0.00021062574)
(0.00039395166 0 0.00045618779)
(0.00036019473 0 0.00070118772)
(0.00032732089 0 0.00093697768)
(0.00029566056 0 0.0011556988)
(0.00026548864 0 0.0013506194)
(0.00023701068 0 0.00151595)
(0.00021033145 0 0.0016477921)
(0.00018551577 0 0.0017435354)
(0.00016248518 0 0.001802238)
(0.00014120265 0 0.0018227162)
(0.00012167912 0 0.001803972)
(0.00010375334 0 0.0017443114)
(8.70323e-05 0 0.0016419537)
(7.1175153e-05 0 0.0014928939)
(5.592311e-05 0 0.0012909025)
(4.1083938e-05 0 0.0010302261)
(2.6583826e-05 0 0.00071104905)
(1.2610592e-05 0 0.00034910554)
(0 0 0)
(0.00080211395 0 -0.0011025885)
(0.00080197906 0 -0.0011028255)
(0.00080184549 0 -0.0011043511)
(0.00080166956 0 -0.0011061592)
(0.00080143831 0 -0.001108299)
(0.00080113466 0 -0.0011108252)
(0.00080073593 0 -0.0011137998)
(0.00080021223 0 -0.0011172907)
(0.00079952404 0 -0.0011213715)
(0.00079861947 0 -0.001126119)
(0.00079743037 0 -0.0011316101)
(0.00079586965 0 -0.0011379176)
(0.00079383682 0 -0.0011450276)
(0.00079120553 0 -0.0011528664)
(0.00078780149 0 -0.0011613221)
(0.00078340209 0 -0.0011701494)
(0.00077773667 0 -0.0011789248)
(0.00077048487 0 -0.0011869699)