/*--------------------------------*- C++ -*----------------------------------*\
  =========                 |
  \\      /  F ield         | OpenFOAM: The Open Source CFD Toolbox
   \\    /   O peration     | Website:  https://openfoam.org
    \\  /    A nd           | Version:  8
     \\/     M anipulation  |
\*---------------------------------------------------------------------------*/
FoamFile
{
    version     2.0;
    format      ascii;
    class       volScalarField;
    location    "0.140008";
    object      rho;
}
// * * * * * * * * * * * * * * * * * * * * * * * * * * * * * * * * * * * * * //

dimensions      [1 -3 0 0 0 0 0];

internalField   nonuniform List<scalar> 
20000
(
0.73590948
0.7370905
0.73859821
0.74158778
0.74768389
0.75992852
0.78370344
0.79425764
0.79354895
0.79520809
0.79529056
0.79720884
0.7981909
0.80066575
0.80267621
0.80607313
0.80940569
0.81419606
0.81936891
0.82621081
0.83400863
0.84382616
0.85529463
0.86922122
0.88546365
0.904474
0.92603498
0.94999803
0.97572429
1.0024976
1.0291877
1.0543153
1.0764688
1.0950464
1.1101294
1.1221182
1.1314347
1.1387024
1.1443044
1.1487016
1.1521679
1.1549557
1.1572766
1.1593716
1.161054
1.1623687
1.1641801
1.1655732
1.1664631
1.169147
0.7379924
0.7389899
0.74047119
0.74352742
0.74985966
0.76259268
0.78657924
0.79618409
0.79543603
0.79717457
0.797283
0.79928433
0.80031506
0.80288865
0.80498021
0.80850409
0.81196074
0.81691728
0.82227249
0.82933979
0.8373994
0.84751876
0.85932985
0.87361892
0.89023273
0.90956493
0.93132863
0.95525659
0.98061294
1.0066308
1.0323044
1.0564205
1.0778028
1.0958846
1.1106132
1.1224003
1.1315976
1.1387917
1.1443564
1.148737
1.1522055
1.1549934
1.1573412
1.1594402
1.1611013
1.1624269
1.1641703
1.1656581
1.1664771
1.1692397
0.74019179
0.7410475
0.74247563
0.74560948
0.75223577
0.76561265
0.78965874
0.79819752
0.79741677
0.79921536
0.79934587
0.80142109
0.80250485
0.80517474
0.80735388
0.81100419
0.81459202
0.81971977
0.8252701
0.83257718
0.84091822
0.85136256
0.86354374
0.87823038
0.89525594
0.9149563
0.93696826
0.96090177
0.98591747
1.0112008
1.0358458
1.0588922
1.0793952
1.0968518
1.1112077
1.1227608
1.131811
1.1389128
1.1444253
1.1487788
1.1522389
1.1550233
1.1573879
1.1594864
1.1611288
1.1624795
1.1643532
1.1657631
1.1670167
1.1691884
0.74244516
0.7431502
0.74453185
0.74774562
0.75467686
0.76877667
0.7926969
0.80022915
0.79947773
0.80134825
0.80150955
0.80366551
0.80480413
0.8075717
0.809837
0.81361437
0.81733445
0.82263713
0.82838781
0.83594006
0.84456735
0.85534
0.86789437
0.88298157
0.9004214
0.92049182
0.94275381
0.9667078
0.99143138
1.0160758
1.0398099
1.0618544
1.081468
1.098247
1.1121154
1.1233491
1.1321895
1.1391539
1.144583
1.1488878
1.1523244
1.1550961
1.157471
1.1595603
1.161176
1.1625494
1.1644355
1.1658962
1.1672625
1.169189
0.7447847
0.74535155
0.74669002
0.74999133
0.75725157
0.77219949
0.79579435
0.80234925
0.80165016
0.80358655
0.80377587
0.80600797
0.80720097
0.81006559
0.81242113
0.81633024
0.82019215
0.82568012
0.83164505
0.83945601
0.8483855
0.85950317
0.87245072
0.8879599
0.90583509
0.9262911
0.94880874
0.97278025
0.99720953
1.0212263
1.0440704
1.0651225
1.0838222
1.0998715
1.1132114
1.1240806
1.1326732
1.1394716
1.1447956
1.1490359
1.1524364
1.1551884
1.1575648
1.1596378
1.161225
1.1626271
1.1645628
1.1660409
1.1675785
1.1691829
0.7472117
0.74765809
0.74895047
0.75233899
0.75993864
0.77584736
0.79889936
0.8046052
0.80391425
0.80591516
0.80613425
0.80844399
0.80969483
0.81266028
0.81511193
0.81915982
0.823173
0.82885617
0.83504696
0.84312737
0.85237146
0.8638475
0.8772041
0.89315116
0.91147517
0.93232225
0.95508956
0.97906679
1.0031981
1.0266052
1.048596
1.0686839
1.0864675
1.1017572
1.1145169
1.1249733
1.1332779
1.1398794
1.1450751
1.1492341
1.1525857
1.1553101
1.1576802
1.1597288
1.1612844
1.1627158
1.1646803
1.1662042
1.167808
1.1691828
0.74972292
0.75001722
0.75128455
0.75477236
0.76272188
0.77970851
0.80198792
0.80695114
0.80625856
0.80832514
0.80857797
0.81096782
0.81228152
0.81535286
0.81790887
0.82210409
0.82627957
0.83216844
0.83859726
0.84695909
0.8565332
0.86838528
0.88217179
0.8985774
0.91736692
0.93861051
0.9616169
0.9855771
1.0093879
1.0321769
1.0533233
1.0724604
1.0893271
1.1038367
1.1159877
1.125998
1.1339842
1.140364
1.1454121
1.149475
1.1527663
1.1554558
1.1578117
1.1598287
1.1613509
1.1628147
1.1648128
1.1663953
1.1680123
1.1691897
0.75230521
0.75245664
0.75370352
0.75729503
0.76560088
0.78376995
0.80505125
0.8093624
0.80868207
0.8108163
0.81110754
0.81358114
0.81496396
0.81814764
0.82081666
0.82516738
0.8295148
0.83561845
0.84229651
0.85095148
0.86087137
0.87311773
0.88735463
0.90423807
0.9235063
0.94514599
0.96837318
0.99228614
1.0157479
1.0379057
1.0582138
1.076414
1.0923687
1.1060883
1.1176075
1.1271445
1.134786
1.1409223
1.1458053
1.1497584
1.1529789
1.1556265
1.1579606
1.1599389
1.1614258
1.1629241
1.1649523
1.1666194
1.1681596
1.1692131
0.75493364
0.75495169
0.7561896
0.75989966
0.7685778
0.78801566
0.80808989
0.81185256
0.81118841
0.81339096
0.8137249
0.81628632
0.81774545
0.82104791
0.82383784
0.82835097
0.83287926
0.8392063
0.84614485
0.85510589
0.86538976
0.87805089
0.89276075
0.91014195
0.92990121
0.95193222
0.9753553
0.9991825
1.0222574
1.0437605
1.0632266
1.0804981
1.0955476
1.1084741
1.1193488
1.1283938
1.1356708
1.1415461
1.146249
1.1500805
1.1532209
1.1558201
1.1581251
1.1600581
1.1615095
1.1630442
1.1651067
1.1668493
1.1682785
1.1692409
0.75765354
0.75753086
0.75876692
0.76261235
0.77168358
0.79243764
0.81111081
0.81442117
0.81377828
0.81605049
0.81643314
0.819088
0.82063062
0.82405676
0.8269736
0.8316549
0.83637243
0.84293146
0.85014279
0.8594247
0.87009244
0.88318993
0.8983949
0.91629251
0.93655095
0.95896212
0.9825483
1.0062444
1.0288893
1.0497102
1.0683269
1.0846767
1.0988301
1.110966
1.1211902
1.1297305
1.1366282
1.1422284
1.146739
1.1504386
1.1534908
1.1560356
1.1583043
1.1601845
1.1616022
1.1631771
1.1652814
1.1670712
1.1683795
1.169272
0.76043992
0.7601776
0.76142003
0.76542301
0.77492084
0.79699775
0.81409951
0.81706099
0.81645112
0.8188007
0.81923963
0.82199107
0.82362068
0.82717284
0.83022202
0.83507773
0.83999348
0.84679388
0.85429152
0.8639113
0.87498481
0.88854145
0.90426434
0.92269635
0.94345889
0.96623274
0.9899417
1.0134544
1.0356206
1.0557271
1.0734834
1.0889162
1.1021836
1.113536
1.1231095
1.1311386
1.1376468
1.1429614
1.14727
1.150829
1.1537862
1.1562713
1.1584965
1.1603172
1.1617019
1.1633258
1.1654857
1.1672731
1.1684715
1.1693034
0.76330055
0.76289481
0.76415354
0.76834235
0.7783211
0.80167585
0.81706995
0.81979689
0.81922533
0.82165198
0.8221467
0.82499222
0.82671061
0.83039249
0.83358136
0.83861871
0.84374197
0.8507942
0.85859444
0.86857148
0.88007389
0.8941126
0.91037549
0.92935761
0.95062376
0.97373491
0.99751832
1.0207895
1.0424249
1.0617829
1.0786664
1.0931865
1.1055795
1.1161592
1.1250868
1.1326027
1.1387156
1.1437374
1.1478366
1.1512483
1.1541048
1.1565256
1.1587001
1.160455
1.1618098
1.1634944
1.165722
1.1674491
1.1685539
1.1693338
0.76628249
0.76573265
0.76700804
0.77140298
0.78193439
0.80646629
0.82009521
0.82263751
0.82209338
0.82458885
0.82513991
0.82808182
0.82989615
0.83371467
0.83705159
0.84227763
0.84761844
0.85493505
0.8630563
0.87341172
0.88536696
0.89991107
0.91673624
0.93628237
0.9580465
0.98146165
1.0052634
1.0282292
1.0492786
1.0678524
1.0838499
1.0974614
1.1089928
1.1188134
1.1271038
1.1341087
1.139824
1.144549
1.1484337
1.1516928
1.1544443
1.1567967
1.1589132
1.1605963
1.1619287
1.1636889
1.1659737
1.1676064
1.168628
1.1693624
0.76928942
0.76859721
0.76989435
0.77451924
0.78570423
0.81124992
0.82313556
0.82553005
0.82502403
0.82759632
0.82821463
0.83126144
0.83318008
0.83714112
0.84063269
0.84605431
0.85162456
0.8592207
0.86768425
0.87844024
0.89087238
0.90594497
0.92335379
0.94347397
0.96572323
0.98939987
1.0131561
1.0357483
1.0561552
1.0739098
1.0890089
1.1017166
1.1124006
1.1214783
1.1291435
1.1356433
1.140962
1.1453887
1.1490558
1.1521587
1.1548022
1.1570827
1.1591338
1.1607396
1.1620604
1.1639164
1.1662237
1.1677508
1.1686947
1.1693886
0.77234389
0.77152057
0.77284154
0.77772169
0.78968673
0.81600781
0.82609592
0.82849876
0.82803966
0.83069136
0.83138209
0.83453667
0.83656402
0.84067099
0.84432351
0.84994982
0.85576411
0.86365817
0.87248603
0.88366496
0.89659801
0.91222332
0.93023642
0.95093782
0.9736514
0.99753843
1.0211779
1.0433243
1.0630313
1.0799323
1.0941214
1.1059311
1.1157833
1.1241365
1.1311911
1.1371943
1.1421202
1.1462493
1.149698
1.1526424
1.1551761
1.1573816
1.15936
1.1608845
1.1622072
1.1641828
1.16646
1.1678836
1.1687546
1.1694122
0.77549168
0.7745408
0.77588463
0.78103314
0.79392205
0.82075731
0.82910854
0.83155114
0.83114384
0.83387537
0.83464097
0.8379044
0.84004451
0.84430168
0.8481244
0.85396755
0.86004447
0.86825602
0.8774705
0.88909453
0.90255294
0.91875511
0.93739163
0.95867513
0.981823
1.0058594
1.0293042
1.0509303
1.0698809
1.0858961
1.0991663
1.1100854
1.1191229
1.1267719
1.1332329
1.1387505
1.1432896
1.1471243
1.1503552
1.1531406
1.1555635
1.1576915
1.15959
1.1610312
1.1623722
1.1644874
1.1666761
1.1680053
1.1688085
1.1694332
0.77868909
0.77761803
0.77899322
0.78442765
0.7984014
0.82545874
0.83211013
0.83468044
0.83433004
0.83714323
0.83798628
0.84136012
0.84361833
0.8480337
0.85203939
0.85811551
0.86447444
0.87302246
0.88264529
0.89473677
0.90874637
0.92555055
0.94482823
0.96668868
0.99023132
1.0143464
1.0375128
1.0585423
1.0766811
1.091781
1.1041255
1.1141629
1.1224044
1.1293713
1.1352575
1.140302
1.1444623
1.1480073
1.1510228
1.1536498
1.1559621
1.1580101
1.1598222
1.1611811
1.1625577
1.1648104
1.1668796
1.1681178
1.1688574
1.1694519
0.78198729
0.78080137
0.7822124
0.78793376
0.80315662
0.83013027
0.8352651
0.83789068
0.83759245
0.84048676
0.84141229
0.84490156
0.84728756
0.85187262
0.85607729
0.86240291
0.86906292
0.87796561
0.88801851
0.90060106
0.91518885
0.93261995
0.95255256
0.97497591
0.99886264
1.0229764
1.0457759
1.0661325
1.0834073
1.0975659
1.108981
1.1181483
1.1256141
1.1319227
1.1372542
1.14184
1.1456309
1.1488926
1.1516963
1.1541669
1.1563695
1.1583351
1.1600552
1.161337
1.1627663
1.1651372
1.1670737
1.1682218
1.168902
1.1694683
0.7853028
0.78401775
0.78547762
0.79149391
0.80813142
0.83470065
0.83850443
0.84116142
0.84092238
0.84390341
0.84492078
0.84853429
0.85105994
0.85582849
0.8602481
0.86683913
0.87381713
0.88309186
0.89359753
0.90669714
0.92189172
0.93997521
0.96057193
0.98353572
1.0077043
1.0317284
1.0540685
1.0736766
1.0900378
1.1032329
1.1137181
1.122029
1.1287411
1.1344163
1.1392144
1.1433566
1.1467889
1.1497749
1.1523717
1.154689
1.1567832
1.1586641
1.1602879
1.1615028
1.1630029
1.1654577
1.1672579
1.1683172
1.1689419
1.1694822
0.78866594
0.78730126
0.78882774
0.79515161
0.81334086
0.83917746
0.84178422
0.84450872
0.84433448
0.84740433
0.84852107
0.85226824
0.85494662
0.85991182
0.86456094
0.87143026
0.87874272
0.88840818
0.89939206
0.91303676
0.92886777
0.94762663
0.96888997
0.99235962
1.0167359
1.0405741
1.0623605
1.0811469
1.0965496
1.1087635
1.1183224
1.1257932
1.1317753
1.1368437
1.1411305
1.144845
1.1479304
1.1506494
1.1530452
1.1552134
1.1572011
1.1589943
1.1605191
1.1616825
1.1632735
1.1657644
1.1674301
1.1684038
1.1689766
1.1694938
0.79208584
0.79065981
0.79227699
0.79892302
0.8187648
0.84354848
0.84513613
0.84792932
0.84782854
0.85099555
0.85222318
0.85611493
0.85895781
0.86413064
0.86902089
0.87618083
0.88384484
0.89392212
0.9054127
0.91963277
0.93613067
0.95558602
0.97751098
1.0014404
1.0259388
1.0494874
1.0706248
1.088519
1.1029228
1.1141426
1.1227822
1.129432
1.1347094
1.1391983
1.1429961
1.1462995
1.1490503
1.151512
1.1537136
1.1557376
1.1576209
1.159323
1.1607476
1.1618798
1.1635833
1.1660498
1.167589
1.1684824
1.1690073
1.1695027
0.79554068
0.79407462
0.79582124
0.80282697
0.82436938
0.84778839
0.84855675
0.85143786
0.85141711
0.85469188
0.85603992
0.86008413
0.86309955
0.86848803
0.87363041
0.88109382
0.88912998
0.89964432
0.91167271
0.92649982
0.94369387
0.96386231
0.98643295
1.0107624
1.0352854
1.058436
1.0788298
1.0957656
1.1091361
1.119355
1.1270869
1.1329371
1.137537
1.1414746
1.144806
1.1477151
1.1501442
1.1523591
1.1543739
1.1562591
1.1580403
1.1596475
1.1609726
1.1620968
1.1639325
1.1663099
1.1677346
1.1685538
1.1690336
1.1695077
0.79910246
0.79760831
0.79951758
0.80693197
0.83015107
0.85194188
0.85207558
0.85505697
0.85511501
0.85850069
0.85997567
0.86417746
0.86737172
0.87298428
0.87839131
0.88617494
0.89460758
0.90558711
0.91818667
0.93365293
0.95157237
0.9724649
0.9956551
1.0203105
1.0447506
1.06739
1.0869465
1.1028626
1.115172
1.1243893
1.1312289
1.1363027
1.1402537
1.1436682
1.146556
1.1490879
1.1512084
1.1531874
1.1550236
1.1567759
1.1584569
1.1599651
1.1611934
1.1623338
1.164312
1.1665486
1.1678687
1.168619
1.1690567
1.1695099
0.80269245
0.80119134
0.8033157
0.81124004
0.83604372
0.8560253
0.85570644
0.85879368
0.85892921
0.86242553
0.86402648
0.86839127
0.87177271
0.87762057
0.88330849
0.89143259
0.90029009
0.91176575
0.92497043
0.94110818
0.95977897
0.98139887
1.0051676
1.0300604
1.0542999
1.0763128
1.0949417
1.1097836
1.1210125
1.129235
1.1352024
1.1395234
1.1428556
1.1457756
1.1482431
1.1504146
1.1522402
1.1539942
1.1556607
1.1572861
1.1588685
1.160274
1.1614105
1.1625892
1.1646992
1.1667776
1.1679934
1.1686782
1.1690765
1.1695106
0.80640441
0.80490231
0.80728669
0.81585751
0.84205019
0.86017794
0.85944406
0.862629
0.86284006
0.86645461
0.86818833
0.87272406
0.87630459
0.88240184
0.88839077
0.89687924
0.90619238
0.91819604
0.93204036
0.94888194
0.96832803
0.99066933
1.0149616
1.0399885
1.0639014
1.0851703
1.1027852
1.1165065
1.1266448
1.1338855
1.1390038
1.1425963
1.14534
1.1477946
1.1498659
1.1516925
1.1532374
1.1547772
1.1562836
1.1577882
1.1592729
1.1605728
1.1616259
1.1628615
1.1650808
1.1669969
1.1681091
1.1687312
1.1690925
1.1695106
0.8101475
0.80864188
0.8113302
0.82072393
0.84800459
0.86427185
0.86323119
0.86653206
0.86682757
0.87058792
0.87246507
0.87718196
0.88097318
0.8873368
0.89365
0.90252936
0.91233094
0.92489492
0.93941342
0.95699068
0.97723028
1.0002746
1.0250178
1.0500612
1.0735138
1.0939223
1.1104445
1.1230113
1.132059
1.1383353
1.1426291
1.1455194
1.1477043
1.1497241
1.1514237
1.1529194
1.1541977
1.1555346
1.1568909
1.158281
1.1596682
1.1608612
1.1618432
1.1631521
1.1654501
1.1672039
1.168215
1.1687778
1.1691048
1.1695063
0.81392369
0.81242211
0.8154593
0.82590704
0.85390249
0.86822676
0.86710976
0.87054
0.87092978
0.87482913
0.87685858
0.88177061
0.88578745
0.89243747
0.89910113
0.90839954
0.91872225
0.93187902
0.94710698
0.96545168
0.9864973
1.0102129
1.0353172
1.0602458
1.0830991
1.1025335
1.1178948
1.1292877
1.1372524
1.142581
1.1460723
1.1482929
1.1499471
1.1515663
1.1529164
1.1540934
1.155118
1.1562655
1.1574816
1.1587633
1.1600527
1.1611397
1.1620682
1.1634664
1.1658007
1.1673965
1.1683102
1.1688173
1.1691136
1.1694995
0.81782675
0.81631403
0.81971909
0.83147789
0.85974425
0.87222866
0.87109056
0.87465504
0.87513655
0.87918834
0.88137641
0.88649784
0.89076047
0.8977193
0.90476055
0.91450585
0.92538326
0.93916599
0.95513949
0.97428115
0.99613525
1.0204725
1.045829
1.0704988
1.092611
1.1109657
1.1251162
1.1353319
1.1422228
1.1466166
1.1493234
1.1509171
1.1520694
1.1533256
1.154342
1.1552138
1.1559947
1.1569693
1.1580549
1.1592342
1.1604252
1.1614092
1.1623071
1.1638126
1.1661224
1.1675722
1.1683954
1.1688506
1.1691184
1.1694909
0.82177425
0.82024811
0.82404156
0.83740382
0.86545828
0.87624387
0.87516991
0.87887549
0.87946044
0.88367524
0.88602501
0.89137681
0.89590752
0.90319864
0.91064435
0.92086436
0.93233044
0.94677397
0.96353066
0.98349625
1.0061503
1.031041
1.0565226
1.0807788
1.1020086
1.1191909
1.1321039
1.1411459
1.1469647
1.1504337
1.152376
1.1533912
1.1540777
1.1550078
1.155696
1.1562812
1.1568254
1.1576456
1.1586099
1.1596923
1.1607844
1.1616707
1.1625642
1.1641937
1.1664097
1.1677305
1.1684723
1.1688798
1.1691211
1.1694811
0.82580906
0.82425832
0.82845488
0.84371598
0.87105422
0.88050033
0.8793534
0.88320855
0.88390628
0.88829824
0.89082827
0.89642633
0.90124464
0.90889022
0.91676792
0.92749049
0.93958176
0.95472326
0.97230096
0.99311069
1.0165398
1.0418931
1.0673546
1.0910343
1.1112472
1.1271878
1.1388584
1.1467183
1.1514518
1.1540175
1.1552408
1.1557111
1.1559843
1.1566128
1.1569736
1.1572965
1.1576135
1.1582932
1.1591462
1.1601361
1.1611291
1.1619254
1.1628412
1.1646022
1.1666635
1.1678732
1.1685418
1.1689059
1.1691231
1.1694698
0.8299134
0.82833747
0.83294899
0.85037631
0.87649144
0.88476686
0.88364773
0.88766642
0.88849134
0.89307212
0.89580354
0.9016618
0.90678424
0.91480732
0.92314527
0.93440111
0.94715639
0.96303625
0.98147179
1.0031387
1.0272993
1.0530032
1.0782816
1.1012186
1.1202935
1.1349517
1.1453772
1.1520088
1.155667
1.1573643
1.1579325
1.1578748
1.1578037
1.1581252
1.1581793
1.1582571
1.158371
1.1589103
1.1596635
1.1605641
1.1614583
1.1621742
1.1631366
1.1650102
1.1669022
1.1680033
1.1686037
1.1689278
1.1691232
1.169456
0.83414091
0.83253932
0.83759001
0.85739933
0.8818054
0.8891734
0.88808738
0.89227452
0.89323339
0.89801136
0.90095308
0.90709148
0.91253911
0.92096201
0.92979278
0.94161494
0.95507698
0.97173702
0.99106408
1.0135868
1.0384124
1.0643303
1.0892488
1.1112793
1.1291189
1.1424818
1.1516147
1.1569926
1.1595905
1.160481
1.1604676
1.1598914
1.1595373
1.1595339
1.1593197
1.1591551
1.1591128
1.1594956
1.1601617
1.1609749
1.1617708
1.1624189
1.1634467
1.1654088
1.1671272
1.1681212
1.1686569
1.1689445
1.1691196
1.16944
0.83849012
0.83686915
0.84240677
0.86477095
0.88703999
0.89370921
0.89267704
0.89703336
0.89813155
0.90311434
0.90628234
0.91272764
0.91852265
0.9273695
0.93672802
0.9491534
0.96336817
0.98085169
1.0010981
1.0244602
1.0498597
1.075833
1.1002039
1.1211753
1.1377123
1.149767
1.1575243
1.1616384
1.1632286
1.1634253
1.1628376
1.1617926
1.1611512
1.1608723
1.1603864
1.1599897
1.1598323
1.1600516
1.1606409
1.1613679
1.1620667
1.1626623
1.1637698
1.1657904
1.1673378
1.1682272
1.1687003
1.1689523
1.1691132
1.1694217
0.84293526
0.84130454
0.84740989
0.87238352
0.89232892
0.89837361
0.89740848
0.90194133
0.90319158
0.90838981
0.91180661
0.91858136
0.92474843
0.93404531
0.94397179
0.95704207
0.97205783
0.99040647
1.0115896
1.0357522
1.0616066
1.0874545
1.1110875
1.1308687
1.1460684
1.1567453
1.1630695
1.1659345
1.166642
1.1661885
1.1650434
1.1635852
1.1626558
1.1621293
1.1613832
1.1607736
1.1605142
1.1605872
1.1611012
1.1617428
1.162347
1.1629094
1.164109
1.1661465
1.1675319
1.1683228
1.1687379
1.1689564
1.1691044
1.1694012
0.8474876
0.84584943
0.85264374
0.88017382
0.89748281
0.90317123
0.90228655
0.90700692
0.9084224
0.91386013
0.91754827
0.92466183
0.9312315
0.94100893
0.95154956
0.96530952
0.98117547
1.0004276
1.0225521
1.0474525
1.0736154
1.0991395
1.1218497
1.1403389
1.1541785
1.163352
1.1682158
1.1699194
1.1698666
1.1687571
1.1670944
1.1652662
1.1640575
1.1633136
1.1623169
1.1615123
1.1611389
1.1611132
1.1615419
1.1620996
1.162614
1.1631664
1.1644716
1.1664668
1.1677055
1.1684075
1.1687711
1.1689585
1.1690933
1.169378
0.85219492
0.85053219
0.85818368
0.88807544
0.90257342
0.90811438
0.90732275
0.91224442
0.91383996
0.91954144
0.92351655
0.93098814
0.93799306
0.94828433
0.95949111
0.9739881
0.99075138
1.0109383
1.0339896
1.059535
1.085831
1.1108214
1.1324407
1.1495706
1.1619699
1.1695439
1.1729533
1.1736783
1.1728674
1.1711408
1.1689978
1.1668369
1.1653646
1.1644263
1.1631928
1.1622091
1.1617134
1.1616249
1.1619617
1.1624386
1.1628708
1.1634385
1.164862
1.166745
1.1678557
1.1684769
1.1687965
1.1689593
1.1690793
1.1693518
0.85704844
0.85533132
0.86406071
0.89592798
0.90762393
0.91320832
0.91253471
0.91767712
0.91946994
0.92544348
0.9297235
0.9375746
0.9450548
0.95590305
0.96783011
0.98311113
1.0008158
1.0219601
1.0459017
1.0719692
1.0981975
1.1224415
1.1428267
1.1585538
1.1693666
1.1752831
1.1773491
1.177208
1.1756493
1.173345
1.1707617
1.168299
1.1665846
1.1654716
1.1640102
1.1628574
1.1622525
1.1621206
1.1623584
1.1627595
1.163121
1.1637274
1.1652678
1.1669861
1.1679838
1.168532
1.1688111
1.1689528
1.1690618
1.1693227
0.86207527
0.86026264
0.87035546
0.90368873
0.9127693
0.91850512
0.91795368
0.92331782
0.92531804
0.9315745
0.93618167
0.94444462
0.95244966
0.96390085
0.97660173
0.99271245
1.0113968
1.0335076
1.0582732
1.0847058
1.1106434
1.1339381
1.1529778
1.1672266
1.1763038
1.1805537
1.181491
1.1804819
1.1782178
1.1753789
1.172393
1.1696553
1.1677255
1.1664517
1.1647685
1.1634608
1.1627621
1.1625983
1.1627321
1.163062
1.1633672
1.1640309
1.1656624
1.1672057
1.1680954
1.1685766
1.1688185
1.1689424
1.1690422
1.1692913
0.86731924
0.86536957
0.8771303
0.91150276
0.91822686
0.92400044
0.92356655
0.92915891
0.93138015
0.93794467
0.94291626
0.95163403
0.96021809
0.97231428
0.98584023
1.0028243
1.0225227
1.0455899
1.0710835
1.09769
1.1231034
1.1452631
1.1628796
1.1754995
1.1827401
1.1854286
1.1853724
1.1835035
1.1805826
1.1772511
1.1738988
1.1709108
1.1687935
1.1673692
1.1654691
1.1640234
1.1632447
1.1630527
1.1630881
1.1633461
1.1636115
1.1643458
1.1660366
1.1674076
1.1681948
1.1686147
1.1688226
1.1689297
1.1690208
1.1692578
0.87287288
0.8707737
0.8843799
0.9192005
0.9237439
0.92967115
0.92936949
0.93521266
0.93767394
0.94458425
0.94996863
0.95918634
0.96839984
0.98117801
0.99557829
1.0134802
1.0342161
1.0582048
1.0842911
1.1108501
1.1355031
1.1563714
1.1724912
1.1832785
1.1886469
1.1900016
1.1889664
1.1862813
1.1827534
1.1789706
1.175286
1.1720726
1.1697929
1.1682262
1.1661162
1.1645515
1.1637005
1.1634729
1.1634359
1.163613
1.1638558
1.1646725
1.1663835
1.1675924
1.1682842
1.1686483
1.1688255
1.1689146
1.1689975
1.1692223
0.87858883
0.87631875
0.89205954
0.92683154
0.92945235
0.93554695
0.93539408
0.94151509
0.94424739
0.95154102
0.95738565
0.96713819
0.97702675
0.99052528
1.0058493
1.024714
1.0464967
1.0713423
1.0978476
1.1241147
1.1477827
1.1672353
1.1817125
1.1905166
1.1940815
1.1942883
1.1922701
1.1888268
1.184741
1.1805469
1.1765619
1.1731474
1.1707283
1.1690257
1.1667154
1.1650497
1.1641324
1.1638542
1.1637768
1.1638669
1.1641042
1.1650156
1.1666979
1.1677593
1.1683623
1.1686739
1.168822
1.1688955
1.1689721
1.169185
0.88457288
0.88207504
0.90015203
0.93428672
0.9353196
0.94164737
0.94167779
0.94811075
0.95116399
0.95886519
0.96520632
0.97551098
0.98612797
1.0003913
1.0166914
1.0365582
1.0593751
1.0849724
1.111683
1.1373996
1.1598806
1.1778223
1.1904304
1.1971673
1.1991452
1.198257
1.1952955
1.1911514
1.1865563
1.1819889
1.1777338
1.1741418
1.1716034
1.1697709
1.1672723
1.1655183
1.1645357
1.1642077
1.1641031
1.1641151
1.1643657
1.1653814
1.1669734
1.1679051
1.1684263
1.1686901
1.1688111
1.1688725
1.1689444
1.1691459
0.89078461
0.88808716
0.90865236
0.9416456
0.94143906
0.94805679
0.9483014
0.95505941
0.95845098
0.96657613
0.97344755
0.98433479
0.99573786
1.0108174
1.0281448
1.0490433
1.0728532
1.099055
1.1257236
1.1506311
1.1717501
1.1880506
1.19857
1.2032516
1.2038992
1.2018922
1.1980554
1.1932686
1.1882106
1.1833059
1.178809
1.1750623
1.1724223
1.1704654
1.167791
1.1659576
1.1649121
1.1645371
1.1644065
1.1643654
1.1646412
1.1657708
1.1672032
1.1680269
1.1684765
1.1686993
1.1687984
1.1688486
1.1689146
1.1691035
0.89741216
0.89456072
0.9176115
0.94901731
0.94790215
0.95482769
0.95527554
0.96237516
0.96611766
0.97468968
0.98213759
0.99364216
1.0059001
1.021851
1.0402508
1.0621922
1.0869146
1.1135263
1.1398784
1.1637321
1.1833463
1.1977897
1.2060757
1.2088753
1.2083033
1.2052106
1.2005635
1.1951909
1.1897145
1.1845065
1.1797946
1.1759146
1.1731887
1.1711131
1.1682742
1.1663684
1.1652644
1.1648471
1.1646844
1.1646169
1.164927
1.1661467
1.1674101
1.1681297
1.1685152
1.1687044
1.1687888
1.1688297
1.1688886
1.1690481
0.90432542
0.90148393
0.92688878
0.95654967
0.95468244
0.96192544
0.96258633
0.97004345
0.9741758
0.98323171
0.99130828
1.0034926
1.0166634
1.0335416
1.0530491
1.0760188
1.1015293
1.1283134
1.1540621
1.1766403
1.19462
1.2069154
1.2129211
1.2141559
1.2123271
1.2082255
1.2028355
1.1969322
1.1910794
1.1855997
1.1806977
1.1767047
1.1739064
1.1717176
1.168724
1.1667514
1.1655924
1.1651372
1.1649475
1.1648639
1.165217
1.1664994
1.1675968
1.168219
1.1685468
1.1687073
1.1687802
1.1688167
1.168873
1.1689796
0.91155483
0.90896069
0.93642842
0.9644763
0.96173136
0.96933331
0.97022856
0.97808664
0.98267253
0.99225681
1.0010235
1.0139319
1.0280821
1.0459394
1.0665735
1.0905195
1.1166414
1.1433203
1.1681817
1.1892899
1.2054259
1.2153649
1.2192118
1.2190479
1.2159893
1.2109535
1.2048866
1.1985052
1.1923155
1.1865939
1.1815252
1.1774377
1.1745791
1.1722825
1.1691419
1.1671067
1.1658958
1.1654107
1.1652006
1.1651057
1.1655081
1.1668209
1.1677648
1.1682994
1.1685762
1.1687095
1.168769
1.168802
1.1688568
1.1689099
0.91893905
0.91696722
0.94606816
0.9721854
0.96909408
0.97710487
0.97827543
0.98656721
0.99166824
1.0018162
1.0113438
1.0250241
1.0402094
1.0590925
1.080849
1.1056759
1.1321804
1.1584505
1.182156
1.2016301
1.2156239
1.2230858
1.2250686
1.2235277
1.2193047
1.2134128
1.2067332
1.1999235
1.1934337
1.1874974
1.1822836
1.178119
1.1752106
1.1728108
1.169528
1.1674343
1.1661756
1.1656656
1.1654475
1.1653457
1.1658138
1.1671028
1.1679109
1.1683692
1.1686026
1.1687091
1.1687539
1.1687826
1.1688367
1.1688411
0.92659389
0.92571104
0.95591264
0.98001229
0.97687105
0.98531396
0.98681292
0.99555664
1.001219
1.0119624
1.0223274
1.0368258
1.0531005
1.0730454
1.0958863
1.1214421
1.1480499
1.1735937
1.1958972
1.213545
1.2251011
1.2301343
1.2305114
1.2275889
1.2222929
1.2156211
1.2083905
1.2011994
1.1944437
1.1883179
1.1829793
1.1787532
1.1758043
1.1733049
1.1698819
1.1677353
1.1664361
1.1659108
1.1656911
1.1655874
1.1661391
1.1673384
1.1680305
1.1684201
1.1686191
1.1687092
1.1687463
1.1687661
1.1688057
1.1687753
0.93453582
0.93526151
0.96595276
0.98825177
0.98510761
0.99401567
0.99587587
1.0050934
1.0113718
1.0227556
1.0340269
1.0493993
1.0668123
1.0878354
1.1116778
1.1377528
1.1641452
1.1886535
1.2093351
1.2248711
1.2337938
1.2366383
1.2355029
1.231256
1.2249746
1.2175978
1.2098747
1.2023456
1.1953552
1.1890633
1.1836183
1.179345
1.1763635
1.1737664
1.1702031
1.1680112
1.1666798
1.1661472
1.1659338
1.1658317
1.1664612
1.1675249
1.1681249
1.1684578
1.1686272
1.1687054
1.1687384
1.168757
1.1687661
1.1687147
0.94276696
0.94562631
0.97622355
0.99709553
0.99383684
1.0032474
1.0055109
1.015218
1.022178
1.0342618
1.0465095
1.062814
1.0814013
1.1034867
1.1281888
1.1545113
1.1803429
1.2035251
1.2223864
1.2354373
1.2416892
1.2426953
1.2400146
1.234548
1.2273708
1.2193611
1.2112006
1.2033737
1.1961775
1.1897406
1.1842063
1.1798986
1.1768912
1.1741961
1.1704921
1.168265
1.1669108
1.1663783
1.1661757
1.1660781
1.1667637
1.1676834
1.168202
1.168487
1.168631
1.1686985
1.1687276
1.1687452
1.1687257
1.1686576
0.95132691
0.95692292
0.98678821
1.0063195
1.0031185
1.0130333
1.0157544
1.0259834
1.0337048
1.0465525
1.0598514
1.0771421
1.096917
1.1200016
1.1453579
1.1716042
1.196525
1.2181109
1.2348638
1.2451703
1.2489215
1.2482526
1.2440786
1.2374904
1.2295046
1.2209301
1.2123831
1.2042954
1.1969193
1.1903568
1.1847488
1.1804181
1.1773899
1.1745944
1.1707503
1.1685002
1.1671325
1.1666054
1.1664163
1.1663259
1.1670398
1.1678211
1.1682675
1.168511
1.1686332
1.1686896
1.1687147
1.1687308
1.1686853
1.1686034
0.96021888
0.96936477
0.99764464
1.0160873
1.012998
1.0234211
1.0266778
1.037475
1.0460614
1.059696
1.0741318
1.0924573
1.1133939
1.1373531
1.1630865
1.1888922
1.212562
1.2323068
1.2465729
1.2539978
1.2556434
1.2532707
1.2477142
1.2401075
1.2313973
1.2223222
1.2134363
1.2051214
1.197589
1.1909186
1.185251
1.1809071
1.1778617
1.1749614
1.1709809
1.1687209
1.1673484
1.1668293
1.1666539
1.1665715
1.1672856
1.1679447
1.1683243
1.1685286
1.16863
1.1686766
1.1686994
1.1687141
1.1686452
1.1685522
0.96933889
0.98288055
1.008773
1.0263923
1.0235364
1.0344868
1.0383696
1.0497939
1.0593327
1.0738128
1.0894412
1.108819
1.1308403
1.1554793
1.1812527
1.2062334
1.2283309
1.2459543
1.2573824
1.262047
1.2618101
1.2577764
1.250952
1.2424266
1.2330715
1.2235554
1.2143738
1.2058621
1.1981946
1.1914321
1.1857177
1.181369
1.1783093
1.1752981
1.1711871
1.1689307
1.1675608
1.16705
1.1668867
1.1668127
1.1675041
1.1680548
1.1683732
1.1685407
1.1686214
1.16866
1.1686817
1.1686952
1.1686058
1.1685041
0.97867974
0.9974263
1.0202511
1.0373554
1.0348366
1.0463486
1.0509608
1.0630674
1.0736324
1.0890077
1.1058561
1.1262666
1.1492312
1.1742787
1.1997021
1.2234745
1.2437005
1.2588249
1.2672089
1.2694671
1.2673834
1.261794
1.2538194
1.2444729
1.234548
1.224646
1.2152081
1.2065269
1.1987433
1.1919032
1.1861535
1.1818072
1.1787355
1.1756064
1.1713731
1.1691327
1.1677712
1.1672675
1.1671131
1.1670477
1.1676964
1.1681495
1.1684123
1.1685501
1.1686157
1.1686441
1.1686608
1.1686714
1.1685676
1.1684592
0.98831984
1.0130449
1.0322948
1.049098
1.0470261
1.0591394
1.064598
1.0774281
1.0890777
1.1053743
1.1234317
1.144805
1.1685011
1.1936162
1.218269
1.240467
1.2585304
1.2707289
1.2761221
1.2762822
1.2723677
1.2653581
1.2563489
1.2462736
1.2358482
1.2256104
1.2159517
1.2071254
1.1992425
1.1923376
1.1865628
1.1822247
1.179142
1.1758867
1.1715452
1.1693295
1.1679801
1.1674805
1.1673315
1.1672747
1.1678634
1.1682295
1.1684427
1.1685552
1.1686093
1.1686333
1.1686495
1.1686384
1.1685306
1.1684173
0.99846902
1.0300574
1.0449263
1.0617935
1.0602718
1.0730032
1.0794029
1.0929583
1.1057903
1.1229891
1.1421947
1.164407
1.1885443
1.2133203
1.2367723
1.2570456
1.272555
1.2815676
1.284284
1.282435
1.2767982
1.2685012
1.2585705
1.2478533
1.2369914
1.2264634
1.2166158
1.2076659
1.1996987
1.1927407
1.1869498
1.1826239
1.1795283
1.1761335
1.1717155
1.1695249
1.1681882
1.1676887
1.1675406
1.1674924
1.1680051
1.1682971
1.1684672
1.1685575
1.1686021
1.1686222
1.168638
1.1686053
1.168495
1.1683788
1.0092116
1.0483513
1.0584007
1.0756516
1.0747649
1.0880546
1.0954746
1.1097696
1.1237973
1.1418887
1.1621491
1.1850025
1.2092116
1.2331961
1.2550311
1.2730512
1.2855447
1.2913601
1.2917731
1.2879175
1.2807122
1.2712616
1.2605161
1.2492372
1.2379969
1.2272197
1.2172113
1.2081567
1.2001183
1.1931174
1.1873185
1.1830066
1.179891
1.1763402
1.1718987
1.1697223
1.1683959
1.1678915
1.1677393
1.167699
1.1681221
1.1683541
1.1684889
1.1685586
1.1685936
1.1686099
1.1686248
1.1685721
1.1684607
1.1683434
1.0209896
1.0682257
1.0730522
1.0907729
1.0905788
1.1043491
1.1128411