/*--------------------------------*- C++ -*----------------------------------*\
  =========                 |
  \\      /  F ield         | OpenFOAM: The Open Source CFD Toolbox
   \\    /   O peration     | Website:  https://openfoam.org
    \\  /    A nd           | Version:  8
     \\/     M anipulation  |
\*---------------------------------------------------------------------------*/
FoamFile
{
    version     2.0;
    format      ascii;
    class       surfaceVectorField;
    location    "0.140008";
    object      rhoUf;
}
// * * * * * * * * * * * * * * * * * * * * * * * * * * * * * * * * * * * * * //

dimensions      [1 -2 -1 0 0 0 0];

internalField   nonuniform List<vector> 
39600
(
(200.99488 0 2.5313509)
(187.49947 2.5510658e-17 1.7729786)
(187.5668 0 2.5434009)
(225.9375 0 2.8261259)
(217.33775 -3.6646198e-17 2.3230888)
(217.09663 0 3.1524419)
(244.08489 6.679556e-22 3.007472)
(236.62031 2.9077275e-17 2.459964)
(236.14017 0 3.3837889)
(260.93726 8.0056745e-22 3.1361646)
(253.62911 -6.2322116e-18 2.5711712)
(252.9053 1.1372137e-22 3.560975)
(278.20606 -8.2879478e-18 3.2161527)
(270.53627 -5.4081948e-18 2.6383125)
(269.5273 0 3.6958429)
(296.42561 -2.7768923e-18 3.2286115)
(288.53595 -9.0024833e-18 2.6877118)
(287.18309 -2.5935905e-17 3.8206109)
(309.60392 8.5835294e-18 3.1850717)
(307.06932 7.7774708e-18 2.4595291)
(305.95936 3.6682471e-17 3.6841251)
(312.71321 -2.8665949e-18 3.1632826)
(313.35132 0 2.7186654)
(313.06939 -1.2140282e-17 3.9460294)
(312.57386 2.8013152e-19 3.1148236)
(312.24231 -2.0276231e-18 2.2657879)
(312.01482 -3.2966788e-18 3.538538)
(312.79235 2.6872084e-18 3.0533684)
(313.24904 4.0397839e-18 2.7358872)
(312.98457 4.262538e-18 3.976466)
(312.74507 -2.4967952e-18 2.9792247)
(312.53939 -9.1575456e-19 2.0464525)
(312.29141 -2.0279938e-18 3.3355037)
(312.99755 -7.7485594e-19 2.8870901)
(313.29046 -4.6173595e-18 2.6195781)
(313.01702 -6.4937618e-18 3.8784516)
(313.09641 -2.4344404e-18 2.7744512)
(312.95782 1.7478541e-18 1.8415787)
(312.69196 9.821632e-18 3.1502347)
(313.41372 1.6804646e-19 2.6358547)
(313.57749 1.3952788e-19 2.351283)
(313.29319 -6.6213439e-18 3.6426505)
(313.66601 1.6942143e-18 2.4643365)
(313.54361 -1.06857e-19 1.595364)
(313.25953 6.55047e-18 2.9323167)
(314.0852 -1.7396572e-18 2.2541138)
(314.14308 -3.2335539e-18 1.9168499)
(313.84428 -7.7330318e-18 3.2548451)
(314.50171 -2.0280839e-18 1.9928769)
(314.3581 2.7430032e-18 1.2226012)
(314.05425 5.2498634e-18 2.6022348)
(315.06575 -2.4414135e-18 1.6736586)
(315.02006 9.2170729e-20 1.2835841)
(314.70413 -4.5098115e-18 2.6836826)
(315.67411 0 1.2786386)
(315.47825 -3.8886844e-18 0.61705273)
(315.15428 -1.1654882e-19 2.0600768)
(316.42715 0 0.7988733)
(316.26901 3.2240039e-18 0.38068116)
(315.93549 1.6080057e-18 1.8637326)
(317.25707 4.273708e-18 0.21343018)
(316.98538 -1.0962495e-17 -0.34589154)
(316.64438 -2.7443235e-18 1.1891528)
(318.22017 1.1775916e-17 -0.48258559)
(317.94873 4.6408033e-18 -0.90183644)
(317.60475 5.4445447e-18 0.69187973)
(319.25441 -3.3082234e-18 -1.2974706)
(318.90829 -5.7581464e-19 -1.782475)
(318.5673 6.1777121e-18 -0.12455143)
(320.35798 -1.3729935e-17 -2.2078215)
(320.01184 5.2163097e-19 -2.640184)
(319.68682 -1.036121e-17 -0.91185436)
(321.43928 -5.0328675e-19 -3.1707454)
(321.08346 0 -3.6722743)
(320.78946 2.1792078e-20 -1.8756564)
(322.41466 2.0001305e-17 -4.087213)
(322.11994 -9.7645646e-18 -4.6547538)
(321.87948 -4.8407726e-19 -2.7948229)
(323.13296 2.4683768e-17 -4.8143022)
(322.94519 -8.5490412e-18 -5.5506661)
(322.78099 1.917359e-17 -3.6464525)
(323.44025 -1.4822276e-17 -5.1740775)
(323.44012 5.9037701e-18 -6.1189555)
(323.37029 2.3216358e-18 -4.1984791)
(323.18572 -2.476226e-17 -5.0400181)
(323.43297 -3.8033047e-17 -6.2149622)
(323.45522 -1.273412e-17 -4.3188386)
(322.29834 -9.8714799e-18 -4.4276561)
(322.82472 -8.1349153e-18 -5.746105)
(322.90945 -7.2178784e-18 -3.928613)
(320.83105 -1.6976213e-18 -3.5109153)
(321.59928 -9.173856e-19 -4.8303865)
(321.70132 9.9287122e-19 -3.1648634)
(318.96638 2.5858395e-17 -2.4982576)
(319.8816 -7.5193939e-19 -3.6876167)
(319.96808 9.8639696e-19 -2.2456741)
(316.93938 5.3949372e-17 -1.5285701)
(317.89128 -2.0169621e-17 -2.5309451)
(317.95184 1.6749106e-17 -1.3479415)
(314.96745 1.5445564e-17 -0.66843981)
(315.86139 -3.226597e-17 -1.4842531)
(315.89826 1.2682214e-17 -0.55112349)
(313.18952 -1.2979164e-17 0.062816918)
(313.96169 8.2582157e-19 -0.57825729)
(313.98278 -7.6972419e-18 0.13895932)
(311.62636 -4.0243293e-19 0.64892345)
(312.30015 9.7526102e-18 0.15878623)
(312.30769 1.8843268e-18 0.70284672)
(310.2791 -9.9839156e-18 1.0997232)
(310.84358 -2.9703711e-17 0.73228241)
(310.84166 1.4900161e-18 1.1421346)
(309.15284 -4.5297604e-18 1.4246889)
(309.62264 3.9603813e-19 1.1617088)
(309.61443 -4.4289436e-18 1.4689491)
(308.22624 4.1800092e-17 1.6418669)
(308.60934 1.4139139e-16 1.4592616)
(308.59751 1.8599331e-18 1.6895414)
(307.47355 -1.6114164e-17 1.7634658)
(307.78704 -1.2942966e-17 1.6495404)
(307.77343 1.3486105e-17 1.8268272)
(306.85877 -7.1585938e-17 1.8020409)
(307.12041 -9.0037903e-18 1.7405155)
(307.10628 -1.8424215e-17 1.8724377)
(306.35948 7.1122956e-17 1.7642961)
(306.56984 1.3589454e-17 1.7512954)
(306.55528 7.8654453e-19 1.8524086)
(305.96162 1.4181816e-16 1.6606272)
(306.13736 1.5045027e-16 1.68484)
(306.12427 1.9658858e-17 1.7638312)
(305.64388 6.5939866e-17 1.4994876)
(305.78224 1.1115106e-16 1.5483247)
(305.7706 1.2452182e-17 1.6092747)
(305.40456 0 1.3173376)
(305.50948 1.0931426e-16 1.3836697)
(305.4987 0 1.4264396)
(305.27454 0 1.089823)
(305.30978 -1.3767148e-16 1.2040776)
(305.30005 0 1.2400263)
(305.3303 -3.3047835e-17 1.4452657)
(305.16846 9.6690706e-17 0.90137467)
(305.2144 0 0.93384389)
(305.17911 -3.770807e-17 0.34769103)
(305.06027 -6.4563482e-17 0.54004585)
(305.01325 -3.8512143e-18 0.55761006)
(305.28168 9.2616233e-18 0.78348782)
(305.18766 -6.2562906e-17 0.13669285)
(305.23808 -5.3392821e-19 0.16134284)
(304.85897 -4.3455563e-17 -0.78225924)
(304.81429 7.6656109e-20 -0.78281442)
(201.11036 -5.3914365e-18 1.736011)
(187.47434 3.8297692e-17 0.97567309)
(226.28967 -1.334032e-17 1.9255021)
(217.60464 -4.4793474e-17 1.4804532)
(244.6302 2.57241e-17 2.0310472)
(237.09446 3.2375951e-17 1.5091384)
(261.70423 -1.157695e-17 2.0909491)
(254.32345 -9.279526e-18 1.5525874)
(279.24347 -5.8272472e-18 2.1022986)
(271.49751 -5.9745637e-18 1.5496772)
(297.50742 0 2.0416958)
(289.83412 0 1.522362)
(310.25438 0 1.9564596)
(308.04522 0 1.2012868)
(312.98568 9.7694961e-19 1.9113735)
(313.66106 0 1.4728472)
(312.82795 1.1713188e-18 1.8546161)
(312.48756 2.5453073e-18 0.97044014)
(313.05978 9.0751577e-19 1.7821743)
(313.5308 -3.3817074e-22 1.4809376)
(313.0143 -2.69742e-18 1.6982078)
(312.79614 3.0531171e-18 0.73025554)
(313.27763 -2.6514053e-18 1.5929323)
(313.57451 -2.3987747e-18 1.3437304)
(313.37928 4.3891906e-18 1.4666833)
(313.22965 -8.2429514e-19 0.50451067)
(313.70602 -1.0872503e-19 1.3109902)
(313.86902 2.3011387e-18 1.0411679)
(313.96339 -4.6747648e-18 1.1198506)
(313.83311 -4.9073829e-18 0.23112173)
(314.39161 6.7452841e-19 0.88656472)
(314.44691 -1.621281e-18 0.5591158)
(314.81467 5.0288373e-18 0.59768469)
(314.66662 2.6819986e-18 -0.18177784)
(315.38676 -1.0023397e-18 0.24696531)
(315.33934 2.2509919e-18 -0.13638791)
(316.00139 -1.3161264e-18 -0.18667926)
(315.80616 -3.8045431e-18 -0.84833075)
(316.75962 -6.3417641e-18 -0.71027596)
(316.60491 3.155452e-18 -1.1219263)
(317.59108 -1.1902527e-17 -1.3482049)
(317.32898 6.0336553e-18 -1.90073)
(318.54924 -7.023545e-18 -2.1016107)
(318.29293 -2.8212999e-20 -2.5122728)
(319.56868 3.0878422e-18 -2.9801091)
(319.24804 3.5096348e-19 -3.4543603)
(320.64263 1.40327e-17 -3.9546103)
(320.33208 6.0801419e-18 -4.3771116)
(321.67593 -8.236141e-18 -4.9793403)
(321.36926 5.7146435e-18 -5.4707299)
(322.58178 -3.7904677e-17 -5.9460919)
(322.34711 5.2258986e-18 -6.5063245)
(323.21391 -2.8322164e-17 -6.7034263)
(323.09042 -3.0699323e-17 -7.4330474)
(323.43466 -1.2844933e-17 -7.0625457)
(323.48404 6.3558969e-18 -8.0011321)
(323.11929 -2.4421772e-17 -6.8858352)
(323.37652 3.4511527e-17 -8.0569034)
(322.21706 0 -6.1698198)
(322.69506 -9.2039049e-18 -7.5001836)
(320.77558 0 -5.0753763)
(321.44193 -1.5669875e-17 -6.4367757)
(318.95154 -4.4342034e-17 -3.8275065)
(319.73562 1.2361796e-17 -5.0868616)
(316.96241 -1.0424928e-16 -2.6072511)
(317.77552 -4.9361849e-17 -3.6899048)
(315.0033 -5.0189516e-17 -1.5147125)
(315.7782 1.5331901e-16 -2.407752)
(313.21627 2.2385407e-17 -0.58700728)
(313.90488 -1.2622769e-17 -1.2943221)
(311.65193 -1.5191753e-17 0.15641661)
(312.26534 1.9261055e-17 -0.3871971)
(310.30485 -2.2589244e-17 0.72904989)
(310.82518 -2.9052831e-17 0.31945968)
(309.17884 1.3017745e-16 1.1471861)
(309.61586 1.0967655e-17 0.85153309)
(308.25244 1.0384923e-16 1.4347585)
(308.61007 1.5431365e-17 1.2265436)
(307.50029 -6.2471626e-18 1.6083606)
(307.79251 -6.1898149e-17 1.4751407)
(306.88586 7.3459099e-17 1.6840226)
(307.12866 3.6575946e-17 1.6080867)
(306.38761 7.7421674e-17 1.675255)
(306.57993 -2.0467548e-16 1.6506991)
(305.99022 1.2415361e-16 1.5926397)
(306.1472 9.0331162e-17 1.607403)
(305.6696 1.5479722e-16 1.4498073)
(305.7917 -8.863967e-17 1.4900061)
(305.42675 -9.6881401e-19 1.281069)
(305.51901 -1.4105962e-16 1.34399)
(305.24524 -6.6876602e-17 1.0631525)
(305.31933 -9.4004722e-18 1.170065)
(305.17128 8.3062174e-17 0.94784302)
(305.15781 1.9324953e-16 0.87240319)
(305.08235 -9.0141818e-17 0.33966534)
(305.07682 4.4385061e-17 0.52564514)
(305.16766 -1.1745234e-16 0.69800413)
(305.14121 -1.1865252e-16 0.11733137)
(304.89841 -8.7659349e-17 -0.77913414)
(201.21221 6.3315676e-18 0.93003453)
(187.45199 1.1799728e-17 0.18244514)
(226.64613 -6.1285529e-18 1.0177359)
(217.87634 -8.802149e-18 0.62222808)
(245.22033 1.4237916e-18 1.0475836)
(237.58763 3.8924023e-18 0.54255462)
(262.55271 -4.0651122e-18 1.035012)
(255.04901 -3.93832e-18 0.51818866)
(280.41566 -7.4775381e-19 0.96900664)
(272.50436 -2.0980278e-18 0.44110195)
(298.70898 0 0.81916332)
(291.22728 -2.5909186e-21 0.32867348)
(310.93348 0 0.6814976)
(308.99648 3.2012438e-18 -0.087785439)
(313.26388 1.3335994e-18 0.62510303)
(313.94899 1.8109169e-18 0.1998327)
(313.0918 1.5994049e-18 0.56315031)
(312.73463 -6.1546287e-20 -0.35141651)
(313.33073 1.8569332e-18 0.48310941)
(313.81446 5.0520436e-18 0.20125356)
(313.28361 3.7719954e-18 0.38994998)
(313.05776 -7.3349809e-20 -0.61043254)
(313.55543 -7.3701953e-19 0.27300019)
(313.86311 1.6918941e-18 0.04270268)
(313.65992 -3.1121318e-18 0.13238497)
(313.50744 -5.7634815e-18 -0.85670459)
(313.99593 -1.8184229e-18 -0.040193834)
(314.1654 -1.1150766e-21 -0.29486674)
(314.25945 -2.1836928e-18 -0.25173789)
(314.12753 -1.9953172e-18 -1.1571404)
(314.69723 0 -0.50856674)
(314.75447 -6.782113e-21 -0.82508266)
(315.12861 0 -0.82576823)
(314.97874 1.1523454e-17 -1.6109745)
(315.71059 0 -1.2096823)
(315.66158 4.7429108e-20 -1.5841823)
(316.33463 0 -1.6831868)
(316.13702 -1.2148275e-17 -2.341063)
(317.10122 1.5036433e-17 -2.2531466)
(316.9429 -1.3645205e-17 -2.6547225)
(317.93809 1.8162234e-17 -2.9445096)
(317.67361 -7.4367871e-19 -3.4856652)
(318.89515 7.1684219e-18 -3.7567364)
(318.63593 4.7663443e-18 -4.1540421)
(319.90399 2.7935569e-18 -4.6976923)
(319.58381 7.8452202e-18 -5.1563956)
(320.95201 -2.0480121e-18 -5.7337886)
(320.64439 -3.3957077e-17 -6.1422196)
(321.93967 1.8995318e-17 -6.8128068)
(321.64228 -2.5168572e-19 -7.2919233)
(322.775 1.5555308e-17 -7.8164128)
(322.55544 -2.0393189e-17 -8.3705954)
(323.31299 0 -8.5819992)
(323.21017 0 -9.3112639)
(323.42575 5.0386638e-17 -8.9120449)
(323.49607 0 -9.8558555)
(323.01017 5.3683165e-17 -8.664166)
(323.28234 -4.8949107e-17 -9.8455789)
(322.03916 -2.4039436e-17 -7.8285059)
(322.52147 3.2909431e-19 -9.1812209)
(320.57309 -6.2313485e-18 -6.56041)
(321.23444 -1.5471578e-17 -7.965682)
(318.76163 1.3601184e-17 -5.0957866)
(319.53667 1.2218309e-17 -6.4204278)
(316.80259 1.8489412e-16 -3.6450585)
(317.60978 0 -4.802302)
(314.8808 2.0767848e-16 -2.3357675)
(315.65179 -5.2831425e-17 -3.3019895)
(313.13137 -1.9073954e-17 -1.2219084)
(313.81325 -2.3986955e-16 -1.9930139)
(311.59591 1.0608241e-17 -0.32748411)
(312.20376 -4.0259056e-19 -0.92318817)
(310.26999 0 0.36311833)
(310.78671 1.4772461e-17 -0.08780474)
(309.15892 -1.0368309e-16 0.87183134)
(309.59421 -1.796383e-16 0.5441194)
(308.24239 -1.4106358e-16 1.227197)
(308.59993 1.6939824e-16 0.99480711)
(307.49662 -3.0195337e-17 1.4514105)
(307.79 -1.2326535e-17 1.2997891)
(306.88618 -2.1385872e-16 1.5645275)
(307.13109 -2.7695146e-17 1.4749753)
(306.39005 -2.2500935e-16 1.5839382)
(306.58572 2.0532943e-16 1.5488397)
(305.99285 -1.0223524e-16 1.5222385)
(306.15393 -4.7206002e-16 1.5284607)
(305.67322 -3.7902827e-16 1.3981699)
(305.7989 1.2508683e-16 1.4305224)
(305.43231 -1.6444731e-16 1.2424688)
(305.52719 -2.5132797e-16 1.3034604)
(305.25792 2.2907877e-16 1.031046)
(305.32759 3.7776986e-16 1.13338)
(305.12816 1.7124547e-16 0.70665549)
(305.16228 -9.9608196e-17 0.84178649)
(305.10499 3.3888068e-17 0.32842191)
(305.07786 6.8289782e-17 0.50747221)
(305.17502 -9.3073501e-17 0.58088112)
(305.10253 6.2501732e-17 0.098010136)
(304.93174 3.617798e-17 -0.77167585)
(201.34008 -1.3628205e-18 0.11191162)
(187.46595 4.8082232e-18 -0.630849)
(227.03361 0 0.09343618)
(218.18525 -9.7544709e-18 -0.24823941)
(245.8307 -7.3685369e-19 0.043429803)
(238.11864 -3.3220024e-21 -0.43991433)
(263.41624 -2.160138e-18 -0.045210478)
(255.8118 6.7375036e-18 -0.53813078)
(281.61425 -1.5329389e-18 -0.19120956)
(273.5482 -2.1129333e-18 -0.69294494)
(299.89865 2.8745105e-18 -0.4288652)
(292.69451 -2.5304511e-21 -0.8946368)
(311.55947 5.0780732e-18 -0.6113995)
(309.8979 9.4319211e-19 -1.4012379)
(313.52841 5.9407337e-19 -0.67877699)
(314.22882 -7.4713384e-18 -1.0932469)
(313.35711 2.9120924e-18 -0.74768811)
(312.98989 6.2529372e-18 -1.696888)
(313.60681 3.5664172e-18 -0.8372169)
(314.10539 1.0097868e-17 -1.1005858)
(313.56062 -2.2429006e-18 -0.94071581)
(313.32598 -6.3453849e-18 -1.9752362)
(313.84205 -2.6334551e-18 -1.0702836)
(314.15698 -3.5757783e-18 -1.2809083)
(313.9492 -3.179099e-18 -1.2254315)
(313.78958 6.1435598e-18 -2.2415342)
(314.29362 -1.5980253e-20 -1.4149463)
(314.46492 0 -1.6538097)
(314.562 -2.5295775e-20 -1.6467837)
(314.4248 1.260065e-17 -2.5684709)
(315.00807 1.0345331e-17 -1.9272965)
(315.06417 -7.0263612e-18 -2.2329626)
(315.4464 1.249823e-17 -2.2733844)
(315.2933 1.1270733e-17 -3.0640602)
(316.03671 -1.0854607e-17 -2.6913145)
(315.98578 5.0108216e-18 -3.0576052)
(316.66798 -2.5381953e-17 -3.2056793)
(316.46977 -7.7438286e-18 -3.8598922)
(317.43983 -3.0163971e-17 -3.8226889)
(317.28161 5.2613152e-19 -4.2152071)
(318.27787 -1.4330194e-17 -4.5675175)
(318.01753 6.6811345e-18 -5.0982332)
(319.22827 5.1685657e-18 -5.437784)
(318.97573 -1.5123277e-17 -5.823691)
(320.21964 -2.4613133e-17 -6.4390154)
(319.91327 -2.497589e-17 -6.8849366)
(321.23352 -3.5123322e-17 -7.5326213)
(320.94623 -5.935482e-18 -7.9313049)
(322.16645 -3.7167694e-17 -8.65837)
(321.89946 -5.7572435e-18 -9.1315073)
(322.92224 -3.7514204e-17 -9.6866513)
(322.74142 1.6220869e-17 -10.243281)
(323.35977 0 -10.442834)
(323.30054 -8.2895467e-18 -11.182124)
(323.3645 -9.328903e-17 -10.722593)
(323.47255 0 -11.682474)
(322.8564 -1.062119e-16 -10.383359)
(323.14795 -8.8381324e-18 -11.583953)
(321.82995 1.0319382e-17 -9.4164288)
(322.30377 9.7854817e-17 -10.794484)
(320.353 0 -7.9769979)
(320.97931 -7.8853865e-18 -9.4208505)
(318.56485 0 -6.3089332)
(319.2887 0 -7.6876632)
(316.64583 -2.3003719e-16 -4.6440192)
(317.3977 0 -5.8637101)
(314.76322 -4.7694272e-16 -3.1325642)
(315.48502 -1.2582599e-16 -4.1612164)
(313.04622 -2.4658915e-16 -1.8421261)
(313.68871 -2.0082064e-16 -2.6694319)
(311.53895 2.1779528e-18 -0.80289565)
(312.11644 -1.5719229e-16 -1.4454329)
(310.23475 -1.4271006e-16 0.001869786)
(310.72869 -1.9843954e-19 -0.48679392)
(309.13943 5.3826454e-17 0.59882851)
(309.55794 -1.7879787e-16 0.24145931)
(308.23376 3.176769e-16 1.0207962)
(308.57894 1.448251e-17 0.76562437)
(307.49538 -8.1390548e-18 1.2949217)
(307.77948 5.9051932e-20 1.1258119)
(306.88985 3.6457954e-16 1.4450173)
(307.12765 -2.7810641e-17 1.3423921)
(306.39684 3.5127587e-17 1.4924186)
(306.58711 -8.8551653e-19 1.4469804)
(306.00084 -3.1251688e-16 1.4517624)
(306.15748 1.7034776e-16 1.4494204)
(305.6819 2.9606279e-16 1.3465457)
(305.80386 1.570663e-17 1.3710661)
(305.44165 2.2078659e-16 1.2038785)
(305.53406 1.8389541e-16 1.262254)
(305.25965 1.0188463e-16 0.9973286)
(305.33492 -1.3140643e-17 1.0959014)
(305.12497 -2.2257565e-16 0.67988972)
(305.16585 -1.9760833e-16 0.81023897)
(305.07672 9.7951514e-17 0.31372242)
(305.07778 2.7675569e-16 0.48679681)
(305.13564 2.0287339e-16 0.48835118)
(305.06914 1.1624648e-16 0.079481516)
(304.95987 2.4664512e-16 -0.76063276)
(201.50916 -2.2452185e-18 -0.71746177)
(187.51766 6.3420595e-18 -1.4479644)
(227.46951 -1.0512653e-17 -0.84580763)
(218.53405 -2.9495121e-17 -1.14497)
(246.49305 6.773346e-18 -0.97855048)
(238.6924 1.6104936e-17 -1.4385731)
(264.3314 7.4705502e-18 -1.1471783)
(256.61968 2.0237563e-17 -1.6173529)
(282.88546 -7.8206498e-19 -1.3782718)
(274.63735 -1.2619063e-17 -1.8545458)
(301.12575 -1.9629029e-18 -1.7062475)
(294.24468 1.2982538e-18 -2.1507162)
(312.16716 -1.0659827e-17 -1.9298293)
(310.75171 -9.9594184e-18 -2.7417172)
(313.79743 -3.014051e-18 -2.0087414)
(314.5159 -7.1477923e-18 -2.4092696)
(313.63129 1.2972434e-17 -2.0842458)
(313.24971 1.2286435e-17 -3.0666667)
(313.88902 1.6997705e-18 -2.1825421)
(314.39869 7.68341e-18 -2.4251126)
(313.84173 -7.8642107e-18 -2.2955785)
(313.59646 -4.2031933e-18 -3.3634274)
(314.13092 4.2368125e-18 -2.4369697)
(314.45201 -3.5071585e-18 -2.6267187)
(314.23985 9.7357567e-18 -2.606198)
(314.0733 -3.4667106e-18 -3.6487772)
(314.59208 1.1334799e-17 -2.8125081)
(314.76544 5.1218527e-18 -3.0355532)
(314.86547 7.3182566e-18 -3.0650059)
(314.72368 3.7650515e-18 -4.0024745)
(315.32003 -7.5820456e-18 -3.3699641)
(315.37509 -1.407699e-17 -3.6653151)
(315.76593 4.4565343e-18 -3.7460824)
(315.60959 6.0520539e-18 -4.5416858)
(316.36492 9.0842271e-18 -4.1993763)
(316.31113 9.9664917e-18 -4.5579718)
(317.00374 1.6943709e-17 -4.7557894)
(316.80343 4.0585763e-18 -5.4057952)
(317.7805 3.6105111e-17 -5.420716)
(317.6197 1.3599497e-17 -5.8044754)
(318.61899 7.7175053e-18 -6.219251)
(318.35905 -2.4946952e-17 -6.7393021)
(319.5613 -4.3844255e-17 -7.147146)
(319.31034 7.3218531e-19 -7.5222134)
(320.5331 -8.2650899e-18 -8.2069596)
(320.23404 4.3684795e-17 -8.6409791)
(321.5096 2.2879301e-17 -9.3542873)
(321.23463 2.7950847e-17 -9.7453265)
(322.38315 4.4753834e-17 -10.519285)
(322.1371 4.2889543e-17 -10.990098)
(323.05338 4.719601e-17 -11.559662)
(322.90062 4.921746e-17 -12.124358)
(323.38343 -9.0510887e-18 -12.288237)
(323.35675 -6.8978078e-17 -13.044925)
(323.27212 8.4086794e-17 -12.495819)
(323.40916 -7.1313238e-18 -13.480087)
(322.66204 1.8221412e-16 -12.044136)
(322.97054 9.2986741e-17 -13.271554)
(321.56934 9.0177844e-17 -10.932248)
(322.04162 7.6884879e-18 -12.339866)
(320.07225 -8.668247e-18 -9.3202788)
(320.67883 -1.3901218e-16 -10.801251)
(318.30358 0 -7.4589992)
(318.99558 -1.9844937e-16 -8.8853101)
(316.42635 1.16249e-16 -5.5951573)
(317.14322 -2.1020365e-17 -6.8689829)
(314.5917 1.5580451e-16 -3.8960907)
(315.281 1.5473556e-16 -4.9797232)
(312.91992 -1.1677036e-16 -2.4405752)
(313.53325 -1.3673746e-17 -3.3181661)
(311.45063 -1.7646737e-16 -1.2645072)
(312.00464 2.1967738e-17 -1.9496001)
(310.17579 -1.6572284e-17 -0.35087344)
(310.65188 -2.5607253e-16 -0.87428095)
(309.10203 -2.3937729e-16 0.3308083)
(309.50747 1.8155727e-16 -0.054146412)
(308.21146 -3.0039134e-16 0.81712062)
(308.54737 -2.6928663e-16 0.54056682)
(307.48346 -1.6457122e-17 1.1397406)
(307.7611 0 0.95408688)
(306.885 -3.9586119e-16 1.3260311)
(307.11841 -1.855861e-17 1.2109574)
(306.39648 1.1503959e-16 1.4008206)
(306.58415 2.4674254e-16 1.3454553)
(306.00268 5.163794e-16 1.3810426)
(306.15788 6.6304738e-16 1.3704093)
(305.68587 -1.1599923e-16 1.2941585)
(305.80661 -2.5826449e-16 1.3115876)
(305.44778 -2.8499917e-17 1.1641825)
(305.53958 -1.6017132e-16 1.2195516)
(305.26636 -2.930177e-16 0.96253484)
(305.341 -5.172803e-16 1.0575592)
(305.1285 2.5129683e-16 0.65167929)
(305.16835 -3.6213428e-16 0.77787393)
(305.06954 3.1373798e-16 0.29752039)
(305.07651 2.7565987e-16 0.46394463)
(305.12 1.4580434e-16 0.39585281)
(305.04146 0 0.06213899)
(304.98254 1.6470689e-16 -0.74764812)
(201.70756 -1.7459819e-17 -1.5631586)
(187.60127 -2.8521042e-17 -2.2426288)
(227.9281 -7.0320892e-18 -1.8065497)
(218.91153 9.3392413e-19 -2.077729)
(247.19113 2.8934819e-17 -2.0254971)
(239.3004 2.7511848e-19 -2.4560676)
(265.28562 3.1672959e-18 -2.2773387)
(257.46641 1.4334328e-17 -2.7202943)
(284.2095 -1.1669037e-17 -2.5975834)
(275.76361 -2.3844325e-17 -3.0448822)
(302.36432 -5.6368881e-18 -3.0149736)
(295.86119 1.0550559e-17 -3.4404988)
(312.75015 -6.746805e-18 -3.2725095)
(311.54098 -7.6459611e-18 -4.107708)
(314.0765 6.2820754e-18 -3.3612676)
(314.81129 1.8434226e-18 -3.7461903)
(313.90648 7.478715e-18 -3.442552)
(313.50901 7.8615678e-18 -4.4578352)
(314.17213 2.8463354e-18 -3.5492528)
(314.69112 -1.3578717e-17 -3.7698803)
(314.12416 0 -3.6717232)
(313.86718 -2.7810489e-20 -4.7733725)
(314.42125 -1.1040199e-17 -3.8251985)
(314.74703 2.2541222e-17 -3.9938059)
(314.53228 -8.6593427e-18 -4.0089505)
(314.35771 -1.1982132e-17 -5.0780864)
(314.89233 -2.1723081e-18 -4.2327807)
(315.06633 -5.4878111e-18 -4.4403821)
(315.17089 -1.5733337e-17 -4.50686)
(315.02361 -4.0051636e-18 -5.4598591)
(315.63375 -2.3557995e-18 -4.8374793)
(315.68674 2.8211993e-19 -5.1232072)
(316.08698 1.113269e-17 -5.244909)
(315.92701 5.9212312e-18 -6.0450091)
(316.69378 5.5241891e-18 -5.7348001)
(316.63675 -1.1340236e-19 -6.0863681)
(317.33873 0 -6.3341829)
(317.13665 -1.3044871e-17 -6.9796336)
(318.11812 -4.3016448e-17 -7.0475652)
(317.95548 7.2399127e-18 -7.4231563)
(318.95413 -3.3938235e-17 -7.8998156)
(318.69624 -2.2533385e-17 -8.4094312)
(319.88442 8.293186e-17 -8.884711)
(319.63765 -2.1819401e-17 -9.2501135)
(320.83164 8.0584389e-17 -10.001136)
(320.54372 4.0936696e-17 -10.424956)
(321.76434 4.6310607e-17 -11.197851)
(321.50683 -1.1796381e-19 -11.584374)
(322.57084 4.670198e-17 -12.393863)
(322.35193 -7.547641e-18 -12.867142)
(323.14746 -5.4324639e-17 -13.432943)
(323.02931 -1.0708079e-17 -14.012314)
(323.36354 -7.2773247e-17 -14.115399)
(323.37499 1.9581291e-17 -14.897343)
(323.1333 -7.8019785e-18 -14.22957)
(323.30272 -7.0264883e-18 -15.246281)
(322.42237 -7.1037201e-17 -13.645801)
(322.74824 0 -14.906768)
(321.26697 -2.0432136e-16 -12.376185)
(321.73516 -8.9101232e-17 -13.816696)
(319.75357 -3.2072556e-16 -10.589736)
(320.33532 1.1367722e-17 -12.106081)
(318.00806 -2.3731704e-16 -8.5435525)
(318.66107 4.2874214e-18 -10.011091)
(316.1772 -1.0513114e-18 -6.4945961)
(316.85032 -1.0272197e-17 -7.8141318)
(314.39466 4.3066513e-18 -4.6222122)
(315.04316 2.4697378e-17 -5.7527148)
(312.7716 1.203533e-16 -3.0133665)
(313.34941 1.8226397e-16 -3.9347075)
(311.34465 -2.7187638e-17 -1.7091273)
(311.87003 4.9730129e-16 -2.4318837)
(310.10321 -1.0686107e-16 -0.6926786)
(310.55733 2.5330329e-16 -1.2473044)
(309.05438 2.0174579e-16 0.069575218)
(309.44347 1.8092889e-16 -0.3404862)
(308.18163 0 0.61751462)
(308.5056 5.1984818e-16 0.32126119)
(307.46615 0 0.98687623)
(307.73507 -3.7906155e-16 0.78582859)
(306.8764 5.9334746e-16 1.2082938)
(307.10349 -9.2943988e-18 1.081537)
(306.39362 7.4691232e-16 1.3097481)
(306.57689 2.1855688e-16 1.2449263)
(306.00312 -6.4138702e-18 1.3105843)
(306.15517 -3.1057942e-16 1.2919724)
(305.68913 -3.1402972e-16 1.2412409)
(305.80723 -2.202984e-17 1.2526244)
(305.45331 -6.096319e-16 1.1234446)
(305.54375 7.8217124e-18 1.175972)
(305.26961 -6.0503065e-16 0.92674326)
(305.34576 -1.1009127e-17 1.0185526)
(305.12808 -4.1207648e-16 0.6227394)
(305.16979 1.1092836e-17 0.74457046)
(305.05572 -9.6221038e-18 0.27938065)
(305.07447 -5.4899124e-16 0.43954821)
(305.09897 2.2982532e-22 0.31418626)
(305.01861 -2.1169994e-16 0.045819924)
(305.0002 -1.5568431e-16 -0.7331371)
(201.94309 -1.2868929e-17 -2.4238714)
(187.7147 -2.9208452e-17 -3.0350051)
(228.42917 8.1226998e-18 -2.7848475)
(219.32077 1.9964894e-17 -3.0324121)
(247.92709 -1.5079294e-17 -3.0934857)
(239.94581 -3.4104766e-17 -3.4934825)
(266.28008 -9.0839274e-18 -3.4323734)
(258.3559 -1.3593985e-17 -3.8461532)
(285.58425 -4.8141529e-18 -3.8467946)
(276.93044 1.3060612e-17 -4.2631761)
(303.60776 1.000545e-17 -4.3528251)
(297.53663 -1.2672325e-17 -4.7632054)
(313.29793 7.0488995e-21 -4.638323)
(312.26244 1.6339613e-17 -5.4973605)
(314.35683 2.9159769e-18 -4.7335717)
(315.10526 -1.9589185e-18 -5.1034957)
(314.18116 -1.1036892e-17 -4.8210637)
(313.76833 -1.2888113e-19 -5.8704314)
(314.45471 -1.7448445e-17 -4.9367439)
(314.98288 -7.5498791e-18 -5.1351163)
(314.40634 2.0225513e-17 -5.0692629)
(314.13815 -4.595343e-18 -6.2055407)
(314.71128 2.4340282e-17 -5.2354833)
(315.04173 1.4380545e-17 -5.383082)
(314.82468 -9.3960117e-18 -5.4345278)
(314.64248 2.7067491e-20 -6.5304281)
(315.1926 -7.3929109e-18 -5.6768303)
(315.36724 -1.0262517e-17 -5.869738)
(315.47667 1.1316504e-17 -5.9736632)
(315.32429 2.2284572e-17 -6.9420167)
(315.9478 7.9257177e-18 -6.3312173)
(315.9986 -1.5387691e-17 -6.6082031)
(316.40825 -4.5907507e-18 -6.7711556)
(316.24469 -1.2634717e-17 -7.5752843)
(317.02209 -1.7242053e-17 -7.2986845)
(316.9614 -5.0056908e-18 -7.6439199)
(317.67211 -7.6310978e-18 -7.9417143)
(317.46797 -1.2774181e-17 -8.5822306)
(318.45238 2.9791198e-17 -8.7039687)
(318.2873 -2.2882932e-17 -9.0720008)
(319.28365 -1.0722472e-17 -9.6099467)
(319.02727 5.5579429e-17 -10.109383)
(320.1988 -6.8366631e-17 -10.651231)
(319.95562 1.6119722e-18 -11.008148)
(321.11717 -3.4713623e-17 -11.822112)
(320.83982 -2.9907371e-17 -12.237452)
(322.00034 -5.2378897e-17 -13.06339)
(321.75971 -7.1477749e-18 -13.448522)
(322.73269 -6.3705957e-17 -14.281339)
(322.54008 -5.5347238e-17 -14.761794)
(323.20811 5.9270975e-17 -15.30473)
(323.12309 7.0784229e-17 -15.90503)
(323.30384 8.6828005e-17 -15.921893)
(323.35085 8.7195934e-17 -16.736163)
(322.95095 0 -15.921525)
(323.14958 0 -16.977555)
(322.13808 -9.221786e-18 -15.186766)
(322.4789 -1.2867617e-17 -16.486836)
(320.92033 1.141987e-16 -13.747171)
(321.38421 -1.5709122e-16 -15.223412)
(319.39156 3.3363885e-16 -11.783738)
(319.95058 4.0375394e-16 -13.334371)
(317.67114 2.3058916e-16 -9.5596327)
(318.28839 4.1755047e-16 -11.063478)
(315.88999 1.1644659e-17 -7.3382901)
(316.52267 -4.6033091e-19 -8.6965444)
(314.16471 1.8461816e-16 -5.3064959)
(314.77475 2.5494653e-17 -6.4768624)
(312.59647 5.2296451e-16 -3.5565042)
(313.13966 1.936982e-16 -4.5155881)
(311.21741 8.0275684e-16 -2.1334721)
(311.71437 5.9713353e-18 -2.8892027)
(310.01417 5.4754668e-16 -1.021013)
(310.44622 2.61929e-16 -1.6033773)
(308.99414 4.6017665e-16 -0.18298953)
(309.36669 -3.6717625e-16 -0.61566138)
(308.14222 2.4279019e-16 0.42333811)
(308.45409 5.2719243e-16 0.10911145)
(307.44157 -4.3024635e-16 0.8372992)
(307.70169 1.4283299e-17 0.62205072)
(306.86225 -4.0999035e-16 1.0924819)
(307.08307 -5.8763881e-16 0.95484102)
(306.38646 -7.7844159e-16 1.2196914)
(306.56543 -9.030597e-16 1.145908)
(306.00034 -3.5956481e-16 1.2408327)
(306.14939 -9.5160763e-16 1.2144907)
(305.69015 2.9752589e-16 1.1886409)
(305.80581 -4.6789564e-16 1.1946147)
(305.45723 6.115289e-16 1.0823823)
(305.54653 -7.5323239e-18 1.1333211)
(305.27268 6.0674921e-16 0.89005672)
(305.34911 -2.5451704e-16 0.97891666)
(305.12764 -6.1475473e-17 0.59341966)
(305.17005 3.8505273e-16 0.71031756)
(305.04635 -7.9338588e-16 0.25969391)
(305.07217 -2.75482e-16 0.41433522)
(305.0873 -3.7669116e-16 0.24474937)
(304.99973 -4.1991947e-16 0.030863128)
(305.01398 -1.5644032e-16 -0.71675474)
(202.20613 -1.0009475e-18 -3.2985412)
(187.85636 6.0707032e-17 -3.8500956)
(228.9634 -1.7088158e-17 -3.7815236)
(219.76132 -8.5604904e-17 -3.9994291)
(248.70356 -3.4248772e-17 -4.1832443)
(240.62697 5.1668803e-17 -4.5514155)
(267.31681 5.9664838e-18 -4.6129085)
(259.28784 -4.4434658e-17 -4.9956431)
(287.00598 7.3869111e-18 -5.126745)
(278.14065 5.0030907e-17 -5.5110588)
(304.8487 -8.749111e-18 -5.7192256)
(299.25745 -6.5724511e-17 -6.1196333)
(313.80527 1.5847149e-17 -6.0264467)
(312.91447 5.6589855e-17 -6.91038)
(314.6339 -5.0775838e-18 -6.1267621)
(315.39607 -1.8913231e-18 -6.4819938)
(314.45532 3.8607814e-18 -6.2210767)
(314.02821 -1.6663527e-17 -7.305986)
(314.73678 4.7796281e-18 -6.3463391)
(315.27392 1.3655352e-17 -6.5222871)
(314.6884 -1.1806507e-17 -6.4894624)
(314.40902 -1.8543233e-17 -7.6612128)
(315.00116 -8.2579551e-18 -6.6691273)
(315.33571 8.1909601e-18 -6.7961123)
(315.11729 0 -6.884377)
(314.92743 0 -8.0072734)
(315.49313 1.6173596e-17 -7.1462968)
(315.66794 1.0987835e-17 -7.3253757)
(315.78281 -8.1496371e-19 -7.4670609)
(315.62526 8.4694693e-18 -8.4504115)
(316.26174 -3.5726361e-17 -7.8526581)
(316.3098 -1.4401447e-17 -8.1217143)
(316.72874 -1.3658497e-17 -8.3260112)
(316.56145 4.8002326e-19 -9.133553)
(317.34829 0 -8.8919474)
(317.28363 -5.4376186e-18 -9.2315268)
(318.0017 -2.6892229e-17 -9.5791408)
(317.79563 4.5118448e-18 -10.214324)
(318.78053 -4.1458104e-18 -10.390674)
(318.61326 -2.9585041e-17 -10.751805)
(319.60421 7.2242186e-17 -11.350433)
(319.35014 6.3513148e-17 -11.840087)
(320.50027 4.203969e-17 -12.447421)
(320.26202 4.1695428e-17 -12.797228)
(321.3845 -4.8047826e-18 -13.670208)
(321.11975 -1.816765e-17 -14.079141)
(322.21126 -5.8128999e-18 -14.950448)
(321.99016 7.6518149e-18 -15.337791)
(322.86133 6.5592871e-17 -16.18007)
(322.69799 -1.3057347e-17 -16.672971)
(323.2275 9.6699952e-17 -17.172073)
(323.17808 -2.8994616e-18 -17.79993)
(323.19711 9.7781851e-18 -17.70392)
(323.2808 8.8119526e-18 -18.557582)
(322.71993 -1.1470527e-17 -17.568019)
(322.94718 -1.2584438e-16 -18.669769)
(321.8075 -1.4488519e-16 -16.664428)
(322.1615 -2.082864e-16 -18.008359)
(320.5319 7.3704196e-17 -15.043791)
(320.98945 1.4277006e-17 -16.557908)
(318.99234 4.8537433e-16 -12.901236)
(319.52696 -1.4476364e-17 -14.484916)
(317.30094 2.316208e-16 -10.505594)
(317.88104 -4.4912564e-18 -12.041202)
(315.57337 1.0617277e-17 -8.1237636)
(316.16412 -3.7391949e-16 -9.5142426)