/*--------------------------------*- C++ -*----------------------------------*\
  =========                 |
  \\      /  F ield         | OpenFOAM: The Open Source CFD Toolbox
   \\    /   O peration     | Website:  https://openfoam.org
    \\  /    A nd           | Version:  8
     \\/     M anipulation  |
\*---------------------------------------------------------------------------*/
FoamFile
{
    version     2.0;
    format      ascii;
    class       volScalarField;
    location    "0.140008";
    object      T;
}
// * * * * * * * * * * * * * * * * * * * * * * * * * * * * * * * * * * * * * //

dimensions      [0 0 0 1 0 0 0];

internalField   nonuniform List<scalar> 
20000
(
271.2089
270.84139
270.376
269.40619
267.37147
263.27397
255.56888
252.50394
253.14593
253.11021
253.67071
253.78475
254.30238
254.57072
255.11912
255.56214
256.2194
256.87796
257.72494
258.65955
259.78871
261.08343
262.60569
264.36343
266.38919
268.69368
271.2754
274.10882
277.13863
280.27485
283.36522
286.20688
288.64367
290.63598
292.19602
293.40708
294.36129
295.09717
295.66454
296.10136
296.44705
296.7346
296.96741
297.18186
297.36111
297.50256
297.61884
297.83492
297.79791
298.09867
271.26517
270.9778
270.52567
269.53711
267.42759
263.1803
255.44887
252.71477
253.38539
253.34397
253.91592
254.0314
254.56034
254.83701
255.398
255.85593
256.52922
257.20943
258.07866
259.04275
260.20368
261.53706
263.10092
264.90339
266.97252
269.31274
271.91177
274.72738
277.68898
280.70343
283.64411
286.35626
288.70817
290.65017
292.20132
293.40647
294.35759
295.09219
295.65934
296.09661
296.44289
296.73125
296.96532
297.18107
297.36023
297.50244
297.68223
297.83245
297.90688
298.06815
271.33567
271.10512
270.67516
269.66571
267.46306
263.01589
255.31115
252.93795
253.63202
253.58921
254.17271
254.29185
254.83105
255.11675
255.68871
256.16109
256.84836
257.54877
258.43775
259.42921
260.61855
261.9872
263.58779
265.43021
267.53719
269.90897
272.52335
275.32666
278.23817
281.16282
283.98991
286.59291
288.86171
290.7495
292.26229
293.44379
294.38041
295.106
295.66819
296.10296
296.44838
296.73632
296.97218
297.18833
297.36524
297.50717
297.68209
297.84285
297.91119
298.07624
271.42201
271.25256
270.84153
269.81015
267.51115
262.83912
255.22292
253.1904
253.89003
253.84453
254.43875
254.56117
255.11062
255.40555
255.98872
256.47591
257.17764
257.89916
258.80917
259.82973
261.04954
262.4559
264.09606
265.98191
268.13075
270.5385
273.17254
275.96739
278.83184
281.66894
284.38112
286.86885
289.04369
290.86466
292.33662
293.49072
294.40968
295.12405
295.67959
296.11064
296.45411
296.74111
296.97781
297.19391
297.36862
297.51178
297.6996
297.8549
297.95975
298.07342
271.51726
271.40676
271.01466
269.95954
267.55773
262.62244
255.16296
253.46082
254.15857
254.11206
254.71728
254.8441
255.40345
255.70817
256.30205
256.80454
257.5207
258.26409
259.19567
260.24611
261.49692
262.94138
264.62149
266.55104
268.74195
271.18566
273.83931
276.62695
279.44906
282.20782
284.81583
287.19377
289.27279
291.02118
292.44127
293.55976
294.45498
295.15374
295.69959
296.12483
296.46487
296.74996
296.9869
297.20203
297.37375
297.51782
297.70867
297.86883
297.9832
298.0734
271.62748
271.56764
271.1973
270.11868
267.61098
262.37712
255.14543
253.73109
254.44026
254.39264
255.00797
255.13924
255.70801
256.02297
256.62771
257.14647
257.87793
258.64461
259.59918
260.68103
261.96447
263.44878
265.17088
267.14617
269.38108
271.86188
274.53517
277.3148
280.09413
282.77561
285.28142
287.55013
289.53056
291.20104
292.56504
293.64335
294.51101
295.19125
295.72521
296.14304
296.47843
296.76082
296.9972
297.21069
297.37907
297.52475
297.72186
297.88378
298.01231
298.07288
271.74998
271.74564
271.39066
270.28493
267.6687
262.10031
255.17026
254.00823
254.73259
254.68444
255.30952
255.44602
256.02415
256.35031
256.96626
257.50248
258.2501
259.04139
260.02009
261.13457
262.45195
263.97747
265.7432
267.76571
270.04572
272.56364
275.25536
278.02519
280.76103
283.36688
285.77387
287.93579
289.81705
291.40644
292.70931
293.74277
294.57893
295.23761
295.75743
296.16618
296.49568
296.77455
297.00963
297.22071
297.38533
297.53273
297.73434
297.90046
298.03279
298.07264
271.87981
271.92941
271.58756
270.45336
267.72763
261.79403
255.23739
254.29809
255.03433
254.98653
255.62123
255.76385
256.35146
256.68989
257.31765
257.87264
258.63741
259.45462
260.45864
261.60706
262.96001
264.52856
266.34004
268.41163
270.7381
273.29303
276.00134
278.75838
281.44811
283.97741
286.28651
288.34287
290.12472
291.63092
292.86984
293.85522
294.65688
295.29156
295.79533
296.19356
296.51606
296.79066
297.02372
297.23165
297.39232
297.54178
297.74828
297.91972
298.04979
298.07281
272.02086
272.12199
271.78993
270.6232
267.78492
261.46361
255.34683
254.59768
255.34549
255.29896
255.94316
256.09295
256.69026
257.04219
257.68234
258.25731
259.04004
259.8843
260.91476
262.0984
263.4886
265.10205
266.96131
269.08366
271.45746
274.0486
276.7708
279.51126
282.15165
284.60304
286.81492
288.76712
290.45001
291.87201
293.0448
293.9795
294.74415
295.3527
295.83874
296.22512
296.5396
296.80922
297.03955
297.24359
297.40008
297.55196
297.76297
297.94151
298.06314
298.07433
272.16552
272.32101
271.99647
270.79185
267.83567
261.11654
255.49814
254.90807
255.66634
255.62197
256.27554
256.43361
257.04091
257.40749
258.06051
258.65647
259.45793
260.33029
261.38833
262.60861
264.03801
265.69844
267.60771
269.78248
272.20428
274.83028
277.5629
280.28216
282.86906
285.24022
287.35469
289.20372
290.78837
292.12591
293.23146
294.11372
294.83946
295.4202
295.88709
296.26046
296.56604
296.83002
297.05694
297.25639
297.40845
297.56339
297.77918
297.96354
298.07513
298.07633
272.32359
272.53251
272.21199
270.96145
267.87693
260.76259
255.69124
255.22881
255.997
255.9558
256.61874
256.7863
257.40378
257.78594
258.45211
259.06998
259.89089
260.79238
261.87931
263.13784
264.60861
266.31812
268.27952
270.50816
272.97811
275.63681
278.37556
281.0683
283.5971
285.88536
287.90197
289.64877
291.13625
292.38969
293.42756
294.25629
294.94173
295.49332
295.93991
296.2993
296.59518
296.85295
297.0758
297.26996
297.41761
297.57614
297.79755
297.98457
298.08553
298.07864
272.48763
272.75245
272.43397
271.12959
267.90103
260.413
255.92894
255.5594
256.3376
256.30111
256.97342
257.15129
257.77877
258.17721
258.85682
259.49755
260.33872
261.27048
262.38777
263.68639
265.20087
266.96167
268.97732
271.26111
273.77893
276.46748
279.20724
281.86749
284.3331
286.53538
288.45337
290.09876
291.4903
292.66052
293.63088
294.40557
295.0498
295.57126
295.99666
296.34127
296.6268
296.87785
297.09596
297.28408
297.42761
297.5906
297.8189
298.00352
298.09483
298.081
272.66218
272.98174
272.6641
271.29826
267.90217
260.07988
256.1984
255.90227
256.68965
256.65849
257.33936
257.52796
258.16519
258.58084
259.27437
259.93899
260.80131
261.76459
262.91405
264.25483
265.81545
267.62967
269.70154
272.04142
274.60613
277.32076
280.05561
282.67688
285.07396
287.18712
289.00569
290.55052
291.84756
292.93583
293.8394
294.56001
295.16254
295.65324
296.05679
296.38601
296.66064
296.90454
297.11725
297.2986
297.43832
297.60735
297.84309
298.02
298.1031
298.08325
272.84865
273.22348
272.90483
271.47028
267.87571
259.78002
256.48921
256.25695
257.05168
257.02596
257.71498
257.9153
258.56263
258.99664
259.70468
260.39418
261.27863
262.27493
263.45862
264.84376
266.45299
268.32277
270.45279
272.84943
275.45941
278.1955
280.91875
283.49408
285.81706
287.83789
289.55619
291.00133
292.20546
293.21337
294.05127
294.7182
295.2789
295.7385
296.11977
296.43314
296.69647
296.93284
297.13948
297.31342
297.45001
297.62691
297.86826
298.03483
298.11052
298.08529
273.04098
273.46817
273.14909
271.6389
267.80689
259.51943
256.83115
256.61861
257.42098
257.40243
258.10002
258.31356
258.97134
259.42466
260.14767
260.86299
261.77091
262.80197
264.02224
265.45397
267.11425
269.04162
271.23153
273.68504
276.3378
279.08974
281.794
284.31611
286.55946
288.48486
290.10221
291.44865
292.56167
293.4911
294.26479
294.87879
295.39785
295.82627
296.18505
296.4823
296.73404
296.96257
297.16247
297.32836
297.463
297.64996
297.89296
298.04834
298.11723
298.0871
273.24173
273.71922
273.39946
271.809
267.69441
259.30585
257.19186
256.99004
257.79994
257.7896
258.49551
258.72312
259.39128
259.8647
260.60312
261.34558
262.27857
263.34643
264.60566
266.08616
267.79991
269.78697
272.03839
274.54847
277.24062
280.00189
282.6791
285.14044
287.29863
289.12568
290.64153
291.89037
292.91419
293.76725
294.47848
295.04057
295.51846
295.91587
296.25211
296.53312
296.77309
296.99353
297.18601
297.3434
297.47741
297.67693
297.91615
298.0607
298.12323
298.08868
273.45416
273.98016
273.65786
271.98321
267.53691
259.14521
257.58995
257.37151
258.18856
258.18728
258.90106
259.14342
259.82198
260.3164
261.07115
261.84232
262.80242
263.90918
265.20973
266.74115
268.51076
270.55955
272.87376
275.43931
278.16639
280.92951
283.57108
285.96406
288.0318
289.75787
291.17194
292.3245
293.26123
294.04023
294.69099
295.20243
295.63984
296.00661
296.32044
296.58521
296.81341
297.02552
297.20995
297.35856
297.49345
297.7075
297.93739
298.07197
298.1286
298.09005
273.67383
274.24561
273.91896
272.15962
267.33059
259.03552
257.97812
257.76227
258.58593
258.5947
259.31599
259.57395
260.26314
260.77991
261.55229
262.35414
263.34339
264.49099
265.83513
267.41961
269.24761
271.36022
273.73823
276.35743
279.11394
281.87053
284.46742
286.7844
288.75662
290.37939
291.69166
292.7494
293.60128
294.30872
294.90118
295.3634
295.76119
296.09788
296.38959
296.63825
296.85474
297.05832
297.23414
297.37404
297.51131
297.73962
297.95753
298.0823
298.13332
298.09122
273.90753
274.51993
274.18507
272.33948
267.07986
258.9857
258.36437
258.16221
258.99134
259.01099
259.73979
260.01456
260.71515
261.25595
262.04756
262.88196
263.90236
265.09261
266.48266
268.12242
270.01142
272.18973
274.632
277.3019
280.0812
282.82201
285.36491
287.59848
289.47053
290.9881
292.1989
293.16354
293.93299
294.57153
295.10803
295.52259
295.88178
296.18911
296.45913
296.69189
296.89685
297.09169
297.25842
297.39011
297.53129
297.77209
297.97662
298.09173
298.13736
298.0922
274.14746
274.79443
274.4464
272.51286
266.7833
258.99374
258.76384
258.56951
259.4042
259.43612
260.17285
260.46603
261.17894
261.74565
262.558
263.42669
264.47998
265.71459
267.15296
268.85047
270.80317
273.04905
275.55543
278.27212
281.06637
283.78147
286.26087
288.4038
290.17139
291.58228
292.69225
293.56572
294.25531
294.82774
295.3107
295.67927
296.00098
296.27978
296.52867
296.74583
296.93948
297.1254
297.28268
297.40718
297.55398
297.80392
297.99457
298.10024
298.14084
298.09299
274.39788
275.07279
274.70306
272.67806
266.45296
259.06559
259.17064
258.98569
259.82604
259.87134
260.61628
260.92952
261.65578
262.25003
263.08447
263.98881
265.07673
266.35759
267.84699
269.60487
271.62394
273.93885
276.50825
279.2665
282.06671
284.74558
287.152
289.19749
290.8569
292.16012
293.1703
293.95482
294.56726
295.07651
295.50847
295.83277
296.1182
296.36941
296.59785
296.79983
296.98238
297.15916
297.30674
297.42559
297.5803
297.83431
298.0112
298.10784
298.1437
298.0936
274.65965
275.35651
274.95369
272.82806
266.10087
259.20934
259.58799
259.41032
260.25736
260.31749
261.07124
261.40622
262.1466
262.76978
263.62734
264.56868
265.69309
267.02235
268.56578
270.38681
272.47494
274.85997
277.49042
280.28373
283.07986
285.71148
288.03553
289.97717
291.52518
292.72024
293.63203
294.33002
294.86817
295.31724
295.70073
295.98254
296.23293
296.4576
296.66638
296.85367
297.02532
297.19273
297.33048
297.44555
297.61092
297.86253
298.02645
298.11462
298.14609
298.09394
274.93241
275.64596
275.1972
272.95379
265.73945
259.41921
260.01607
259.84567
260.6993
260.77609
261.53895
261.89693
262.65188
263.30503
264.18681
265.16653
266.32973
267.70996
269.31064
271.19764
273.35719
275.81281
278.50095
281.32143
284.1024
286.6755
288.90809
290.74008
292.17417
293.26121
294.07646
294.69057
295.15744
295.54939
295.88701
296.12812
296.34476
296.54397
296.73394
296.90717
297.06808
297.22584
297.35375
297.46709
297.64548
297.88829
298.0404
298.12073
298.14824
298.094
275.22313
275.94864
275.43945
273.04944
265.38997
259.69589
260.45716
260.2935
261.15355
261.24768
262.01955
262.4016
263.17142
263.85572
264.76303
265.78296
266.98766
268.42166
270.08296
272.0387
274.27195
276.79782
279.53918
282.37753
285.13145
287.63452
289.76686
291.48395
292.80231
293.7821
294.503
295.03596
295.43468
295.77258
296.06695
296.26914
296.45334
296.62822
296.80028
296.96014
297.1105
297.25826
297.37649
297.49011
297.68229
297.91242
298.05327
298.12619
298.15008
298.09392
275.52578
276.2608
275.6763
273.09644
265.06489
260.00368
260.91213
260.75342
261.6207
261.73212
262.5125
262.91973
263.70505
264.42197
265.35654
266.41888
267.66821
269.15898
270.88423
272.9114
275.22001
277.81483
280.6032
283.4488
286.16298
288.5846
290.60843
292.20626
293.40797
294.28199
294.91116
295.36574
295.69954
295.98649
296.2403
296.40531
296.55842
296.71006
296.86516
297.01242
297.15241
297.28984
297.39875
297.5145
297.71999
297.93545
298.06516
298.13097
298.15156
298.09389
275.84581
276.59109
275.91625
273.09021
264.79004
260.35444
261.37884
261.2233
262.09808
262.22817
263.01744
263.45119
264.25302
265.00432
265.96834
267.07564
268.37289
269.92345
271.71594
273.81713
276.20241
278.86375
281.69152
284.53236
287.19356
289.52236
291.43002
292.90515
293.9902
294.76044
295.30071
295.6797
295.9518
296.19095
296.40699
296.53638
296.65976
296.78929
296.92841
297.06379
297.19367
297.32045
297.42073
297.54024
297.75759
297.95732
298.07601
298.1351
298.15264
298.0936
276.17599
276.93112
276.15386
273.01102
264.56917
260.77779
261.85235
261.70104
262.58445
262.73585
263.53475
263.99663
264.81601
265.60375
266.59973
267.75474
269.10337
270.71669
272.57964
274.75717
277.21959
279.94352
282.80122
285.62407
288.21867
290.44372
292.2286
293.57893
294.54827
295.21698
295.67122
295.97773
296.19122
296.38596
296.56701
296.66213
296.75712
296.86575
296.98988
297.11405
297.23409
297.35007
297.44284
297.56763
297.79412
297.97777
298.08576
298.13864
298.15338
298.09312
276.51227
277.28189
276.39588
272.85517
264.41601
261.22978
262.33707
262.19035
263.08338
263.25562
264.06473
264.55669
265.39506
266.22158
267.25235
268.45787
269.86124
271.54023
273.47684
275.73291
278.27217
281.0532
283.92975
286.72031
289.23448
291.34541
293.00218
294.22708
295.08213
295.65136
296.02211
296.25995
296.41776
296.57183
296.72033
296.78242
296.85019
296.93937
297.0495
297.16303
297.27343
297.3787
297.46564
297.59741
297.82877
297.99657
298.09444
298.1415
298.15359
298.09255
276.86431
277.65043
276.65136
272.62488
264.34491
261.71763
262.83301
262.6914
263.59362
263.78877
264.60816
265.13235
265.99163
266.8595
267.92786
269.18662
270.64813
272.39571
274.40909
276.74545
279.35987
282.19057
285.07307
287.81617
290.23626
292.2239
293.74927
294.84944
295.59154
296.06297
296.35248
296.52647
296.63165
296.74908
296.86672
296.89724
296.93859
297.01013
297.10724
297.21062
297.31147
297.40641
297.48966
297.6306
297.86055
298.01359
298.10214
298.14385
298.15343
298.09196
277.22082
278.02825
276.91398
272.31484
264.35325
262.17364
263.33948
263.20405
264.11662
264.33637
265.16607
265.72509
266.60741
267.51916
268.62786
269.94251
271.46556
273.28478
275.37807
277.796
280.48255
283.35362
286.22759
288.90738
291.22019
293.07702
294.46988
295.44617
296.07569
296.45101
296.66207
296.77728
296.83368
296.9182
297.00572
297.00674
297.02219
297.07798
297.16308
297.25679
297.34803
297.43326
297.51514
297.66747
297.88891
298.02888
298.109
298.14585
298.15305
298.09137
277.58719
278.41726
277.18658
271.93828
264.45005
262.66579
263.85646
263.72941
264.65297
264.89938
265.74112
266.33684
267.24403
268.20192
269.35389
270.727
272.31525
274.20925
276.38542
278.88513
281.63886
284.53868
287.38819
289.98852
292.18207
293.90314
295.16407
296.01561
296.53209
296.81436
296.95218
297.01203
297.02519
297.07895
297.13694
297.11099
297.10151
297.14277
297.21704
297.30157
297.38306
297.45933
297.54198
297.70653
297.91468
298.04267
298.11506
298.14761
298.15262
298.09072
277.96134
278.81498
277.4623
271.50607
264.63543
263.16832
264.38492
264.26925
265.20443
265.47938
266.33476
266.96904
267.90264
268.90914
270.10729
271.54169
273.19897
275.17114
277.4328
280.01354
282.82741
285.74246
288.55025
291.05517
293.1192
294.70229
295.83108
296.5541
296.9593
297.15314
297.22454
297.2306
297.20751
297.22988
297.26089
297.20967
297.17787
297.20422
297.26908
297.34495
297.41661
297.48468
297.56996
297.74587
297.93886
298.05518
298.12022
298.14886
298.15176
298.09001
278.34972
279.22542
277.73738
271.03139
264.9047
263.69215
264.92827
264.82583
265.77254
266.07765
266.94718
267.62254
268.58458
269.64194
270.88965
272.38842
274.11886
276.17251
278.52163
281.18077
284.04537
286.9598
289.70784
292.10227
294.02926
295.47422
296.46634
297.05924
297.3561
297.46893
297.48064
297.43401
297.3805
297.3705
297.37812
297.302
297.25261
297.26212
297.31916
297.38685
297.44877
297.50942
297.59884
297.78467
297.96154
298.06641
298.12439
298.14949
298.15049
298.08924
278.75171
279.64798
278.00262
270.54682
265.21379
264.23381
265.48662
265.3989
266.35695
266.69424
267.57898
268.29861
269.29115
270.40177
271.70273
273.26925
275.07719
277.21559
279.65323
282.38637
285.28981
288.18606
290.85587
293.12642
294.91174
296.21732
297.06567
297.52871
297.72434
297.76661
297.71985
297.62502
297.54146
297.50361
297.48798
297.38787
297.32513
297.31677
297.36724
297.42706
297.47956
297.53381
297.62867
297.82213
297.98256
298.07642
298.12759
298.14955
298.14892
298.08842
279.16295
280.0808
278.24435
270.0722
265.61495
264.79095
266.05918
265.98841
266.95862
267.32994
268.23213
268.99804
270.02372
271.19018
272.54862
274.1867
276.07646
278.30241
280.8281
283.62829
286.55598
289.41484
291.98844
294.12429
295.76599
296.92546
297.62576
297.96256
298.06971
298.04522
297.94229
297.80432
297.69132
297.62842
297.59105
297.46832
297.39394
297.36912
297.41322
297.46537
297.50889
297.55831
297.66005
297.85727
298.00164
298.0853
298.13021
298.14929
298.14703
298.08754
279.58079
280.52637
278.44821
269.63498
266.09147
265.36397
266.64671
266.59565
267.57863
267.98697
268.90862
269.7219
270.78385
272.00921
273.42992
275.14348
277.11924
279.43492
282.04657
284.90441
287.83933
290.6406
293.10119
295.09452
296.59058
297.59303
298.1442
298.36552
298.39485
298.3038
298.14889
297.97186
297.83064
297.74584
297.68799
297.54382
297.45744
297.42023
297.45698
297.50166
297.53667
297.58349
297.69402
297.8889
298.01844
298.09295
298.13257
298.14886
298.14478
298.08654
280.00444
280.98823
278.60142
269.27935
266.63469
265.95402
267.25048
267.22236
268.21847
268.66714
269.60916
270.47203
271.57381
272.86136
274.34959
276.14258
278.20803
280.61449
283.30765
286.21064
289.13336
291.85654
294.1896
296.03565
297.37842
298.21626
298.62155
298.74475
298.69684
298.54341
298.34032
298.12795
297.9602
297.85606
297.77921
297.61468
297.51621
297.46989
297.49838
297.53604
297.56301
297.6097
297.73095
297.91639
298.03285
298.09905
298.13374
298.14754
298.1422
298.08542
280.4261
281.46423
278.68659
269.03128
267.22386
266.56215
267.87217
267.87108
268.88013
269.3714
270.33486
271.25011
272.39604
273.74982
275.31085
277.18691
279.34523
281.84218
284.6101
287.54279
290.43224
293.05727
295.25107
296.94639
298.12291
298.79247
299.0648
299.09986
298.97634
298.76472
298.51743
298.27289
298.0807
297.95953
297.86463
297.68049
297.57148
297.51812
297.53726
297.56883
297.58841
297.63691
297.76903
297.94082
298.04524
298.1038
298.13402
298.1457
298.1393
298.08422
280.84136
281.95111
278.69655
268.85447
267.79961
267.19207
268.51451
268.54252
269.56398
270.10044
271.08736
272.0589
273.25395
274.67808
276.31684
278.27941
280.53264
283.11815
285.9506
288.89472
291.72828
294.23704
296.28288
297.82043
298.81843
299.32168
299.48135
299.42867
299.23401
298.96867
298.68091
298.40704
298.1929
298.0565
297.94425
297.74166
297.62363
297.56479
297.57371
297.60029
297.61359
297.66477
297.80663
297.96311
298.05614
298.10764
298.13377
298.14354
298.13617
298.08297
281.25206
282.43768
278.64609
268.78552
268.42056
267.8417
269.17613
269.23607
270.27014
270.85562
271.86971
272.90218
274.15165
275.64951
277.37056
279.42265
281.77208
284.44197
287.32579
290.26031
293.01531
295.39189
297.28374
298.64985
299.46198
299.81138
299.87067
299.7317
299.47094
299.15621
298.83153
298.53095
298.29744
298.14728
298.01826
297.79863
297.67282
297.60937
297.60827
297.63037
297.63909
297.69303
297.84292
297.98357
298.06585
298.11082
298.13315
298.14108
298.13284
298.08169
281.66543
282.934
278.53412
268.81968
269.05811
268.50981
269.85708
269.95353
271.00147
271.64075
272.68619
273.78403
275.09283
276.66716
278.47486
280.6191
283.06458
285.81157
288.72994
291.63161
294.28619
296.51771
298.24894
299.42665
300.0523
300.26974
300.23058
300.0099
299.68815
299.32826
298.97004
298.6453
298.39478
298.23218
298.08709
297.85204
297.71908
297.65083
297.64185
297.65877
297.66478
297.722
297.87721
298.00214
298.07432
298.11329
298.13227
298.13826
298.1293
298.0804
282.06016
283.4326
278.37411
268.98355
269.72521
269.20032
270.56087
270.69954
271.76305
272.46083
273.54172
274.70731
276.08025
277.73405
279.63247
281.87122
284.41068
287.22439
290.15719
293.00156
295.53578
297.61237
299.16967
300.14727
300.59566
300.69824
300.56108
300.26455
299.88683
299.48581
299.09722
298.75076
298.4854
298.31154
298.15126
297.9023
297.76266
297.68869
297.67462
297.68539
297.69012
297.75272
297.90857
298.0186
298.08143
298.11481
298.13056
298.13502
298.12556
298.0791
282.45276
283.92662
278.18169
269.27098
270.42038
269.91705
271.29168
271.4795
272.56054
273.32029
274.43911
275.6744
277.11654
278.85334
280.84643
283.18102
285.80956
288.67555
291.59942
294.36175
296.75833
298.67205
300.03615
300.80854
301.10129
301.09427
300.86339
300.49686
300.06808
299.62979
299.21381
298.84797
298.56974
298.3857
298.21127
297.94945
297.80335
297.72377
297.70592
297.71085
297.71514
297.78619
297.93601
298.03271
298.08721
298.11556
298.12847
298.13155
298.12161
298.07761
282.84197
284.40185
277.98425
269.68599
271.14972
270.66805
272.05737
272.29808
273.39647
274.22025
275.38005
276.6882
278.2049
280.02858
282.11983
284.55009
287.25963
290.15962
293.04899
295.70561
297.95007
299.68927
300.84256
301.41377
301.57455
301.4568
301.13895
300.70823
300.2331
299.76117
299.32059
298.93756
298.64824
298.45505
298.26749
297.99359
297.84134
297.75632
297.73509
297.73629
297.74039
297.82179
297.95964
298.04462
298.09165
298.11564
298.12633
298.12807
298.11755
298.07564
283.25315
284.85381
277.82515
270.189
271.91817
271.45743
272.85783
273.15579
274.27169
275.16207
276.3675
277.75166
279.34953
281.26378
283.45556
285.97881
288.75707
291.66867
294.49655
297.02595
299.10662
300.65242
301.58463
301.97295
302.01219
301.78738
301.38916
300.89998
300.38298
299.88082
299.41826
299.02011
298.72131
298.51993
298.32019
298.03479
297.87692
297.78671
297.76199
297.76212
297.76658
297.85687
297.98093
298.05483
298.09509
298.11534
298.12434
298.12536
298.11471
298.07194
283.68807
285.25843
277.72193
270.69975
272.72083
272.28197
273.69128
274.05148
275.18765
276.14887
277.40503
278.87039
280.55464
282.56283
284.85593
287.46657
290.29699
293.19475
295.93414
298.31747
300.22297
301.55183
302.26185
302.49611
302.41199
302.0876
301.61571
301.07352
300.51888
299.98968
299.50755
299.09621
298.78937
298.5807
298.36961
298.07309
297.91008
297.81453
297.78744
297.78789
297.79394
297.89028
298.00007
298.06376
298.09791
298.11478
298.12212
298.12269
298.11231
298.06767
284.16694
285.59914
277.69805
271.37649
273.5506
273.14143
274.5582
274.98876
276.14931
277.18558
278.49934
280.04865
281.82481
283.92946
286.32248
289.01057
291.87195
294.72753
297.35297
299.57405
301.28631
302.3825
302.88394
302.97991
302.77564
302.3591
301.82011
301.23016
300.64187
300.08859
299.58915
299.16638
298.85281
298.6377
298.41589
298.10848
297.94106
297.84151
297.81181
297.81305
297.82048
297.92132
298.01696
298.07153
298.10026
298.11402
298.11957
298.11975
298.10969
298.06336
284.68781
285.8506
277.76165
272.16763
274.41307
274.04288
275.46643
275.97407
277.16246
278.27778
279.65554
281.29195
283.16425
285.36685
287.85546
290.60678
293.47371
296.25782
298.74592
300.79102
302.2855
303.14142
303.4617
303.42278
303.10479
302.60383
302.00407
301.3713
300.75304
300.1784
299.66373
299.23114
298.91202
298.6912
298.45905
298.14097
297.96968
297.86676
297.83545
297.83756
297.84488
297.94923
298.03119
298.07787
298.10235
298.11332
298.11733
298.11651
298.1063
298.05934
285.27586
286.0227
277.93861
273.01427
275.3168
274.99417
276.42398
277.01356
278.23241
279.43037
280.87862
282.60509
284.57718
286.87748
289.45329
292.24818
295.09153
297.77496
300.10489
301.95755
303.21146
303.83417
303.99728
303.82428
303.40138
302.82355
302.16909
301.49817
300.85338
300.2599
299.73191
299.29099
298.96735
298.74145
298.49906
298.17066
297.99637
297.89112
297.85859
297.86188
297.87321
297.97298
298.0427
298.08241
298.10308
298.11233
298.11541
298.1143
298.10182
298.05555
285.93931
286.12578
278.22567
273.87199
276.26401
276.00011
277.43426
278.11054
279.36346
280.64855
282.17347
283.9931
286.06763
288.46268
291.11264
293.92662
296.71505
299.27047
301.42414
303.06039
304.05986
304.47255
304.48823
304.18679
303.66762
303.02025
302.31684
301.61206
300.94388
300.33385
299.79429
299.34639
299.01913
298.78863
298.53583
298.19774
298.02137
297.91471
297.88156
297.88617
297.90161
297.9922
298.05198
298.08573
298.10318
298.11101
298.11322
298.1119
298.0972
298.05195
286.67809
286.14579
278.62306
274.82309
277.25651
277.06351
278.50191
279.2687
280.56078
281.93751
283.54625
285.46162
287.63903
290.12197
292.82709
295.63088
298.33204
300.73449
302.69495
304.08595
304.83082
305.06507
304.93222
304.51231
303.90558
303.19573
302.44878
301.71414
301.02545
300.40097
299.85145
299.39777
299.06765
298.8329
298.56935
298.22252
298.04508
297.93792
297.90438
297.90972
297.92792
298.00894
298.05979
298.08829
298.10281
298.10924
298.11071
298.10926
298.09269
298.04853
287.51458
286.04926
279.14982
275.84194
278.29748
278.18868
279.63021
280.49398
281.83108
283.30337
285.0033
287.01582
289.29352
291.8524
294.58833
297.34924
299.93194
302.15872
303.90225
305.02904
305.53662
305.60849
305.33223
304.80346
304.11761
303.35193
302.56643
301.8056
301.09901
300.46198
299.90394
299.44555
299.11317
298.87438
298.59965
298.24539
298.06783
297.9609
297.92699
297.93254
297.95282
298.02369
298.06648
298.09026
298.10217
298.10717
298.10794
298.10648
298.08819
298.04528
288.48015
285.86852
279.80968
276.93915
279.39168
279.38048
280.82714
281.79348
283.18404
284.75337
286.55079
288.66068
291.03124
293.648
296.38444
299.06781
301.50254
303.53329
305.03044
305.88507
306.19008
306.09959
305.69025
305.06261
304.3058
303.49056
302.67117
301.88749
301.16537
300.5175
299.95227
299.49012
299.15595
298.91321
298.62686
298.26678
298.08987
297.98374
297.94933
297.95438
297.97597
298.03685
298.0722
298.0914
298.10088
298.10478
298.1049
298.10356
298.08372
298.04221
289.58912
285.64116
280.59287
278.11059
280.54614
280.64637
282.10273
283.17638
284.62823
286.29749
288.19542
290.39863
292.8492
295.49979
298.20244
300.77365
303.03333
304.84517
306.07008
306.66527
306.78912
306.54088
306.0094
305.29251
304.47243
303.61345
302.76439
301.96087
301.22535
300.56816
299.99692
299.53186
299.19625
298.94961
298.65109
298.28711
298.1114
298.00633
297.97127
297.97511
297.99729
298.04836
298.07718
298.09242
298.09953
298.10206
298.10136
298.10042
298.07932
298.03931
290.85342
285.41189
281.49955
279.36615
281.77134
281.99846
283.46925
284.65307
286.17502
287.94314
289.9414
292.22981
294.74126
297.39509
300.02671
302.45241
304.51237
306.07596
307.01529
307.38228
307.33095
306.93464
306.29234
305.49559
304.61952
303.72216
302.84732
302.02669
301.27966
300.61454
300.03834
299.57112
299.23436
298.98386
298.67251
298.30676
298.13259
298.0287
297.99275
297.99466
298.01677
298.0582
298.08105
298.0929
298.09822
298.09993
298.0985
298.09632
298.07501
298.03658
292.2525
285.14887
282.56301
280.7169
283.08043
283.44913
284.94001
286.23527
287.83261
289.69632
291.79036
294.1505
296.69754
299.3194
301.84199
304.09121
305.92783
307.21184
307.87287
308.03983
307.81621
307.28446
306.54234
305.67459
304.74923
303.81838
302.92122
302.08591
301.32904
300.6572
300.07698
299.60824
299.27043
299.01592
298.69167
298.32607
298.15353
298.05073
298.01369
298.01296
298.03431
298.06662
298.08419
298.09297
298.0968
298.09786
298.09598
298.09198
298.0708
298.03401
293.7748
284.93331
283.77082
282.17796
284.48932
285.0108
286.52369
287.93033
289.60771
291.56089
293.74063
296.15416
298.70452
301.25518
303.63138
305.67528
307.25838
308.24576
308.65608
308.63403
308.24793
307.59339
306.76224
305.83186
304.8634
303.90352
302.9872
302.13936
301.37413
300.69665
300.11326
299.64352
299.30441
299.04505
298.70992
298.34539
298.17427
298.07235
298.03404
298.03008
298.04975
298.07382
298.08679
298.09277
298.09523
298.09564
298.09348
298.0874
298.06671
298.03158
295.41651
284.79081
285.09024
283.76439
286.01687
286.68784
288.22832
289.74235
291.50205
293.5365
295.788
298.22969
300.74574
303.18415
305.37898
307.1911
308.48735
309.1805
309.37329
309.16442
308.63002
307.86525
306.95524
305.96994
304.96401
303.97908
303.04636
302.18787
301.41558
300.7334
300.14757
299.67722
299.33624
299.07031
298.72889
298.36486
298.19483
298.09347
298.05378
298.04616
298.0629
298.07963
298.08858
298.09226
298.09336
298.09317
298.09089
298.08304
298.06273
298.02926
297.11447
284.88537
286.53286
285.48212
287.66769
288.48477
290.05438
291.67258
293.51777
295.62338
297.92633
300.36251
302.80127
305.08612
307.0667
308.61592
309.60532
310.02993
310.01967
309.63465
308.96611
308.10339
307.12411
306.09101
305.05271
304.04633
303.09967
302.23221
301.45397
300.76791
300.18027
299.70954
299.36614
299.09299
298.74814
298.38458
298.21513
298.114
298.07289
298.06145
298.07391
298.08404
298.08933
298.09121
298.09125
298.0905
298.08832
298.07873
298.05886
298.02704
298.79136
285.14621
288.09242
287.31434
289.43851
290.40432
292.01291
293.72639
295.65695
297.81976
300.14329
302.53287