/*--------------------------------*- C++ -*----------------------------------*\
  =========                 |
  \\      /  F ield         | OpenFOAM: The Open Source CFD Toolbox
   \\    /   O peration     | Website:  https://openfoam.org
    \\  /    A nd           | Version:  8
     \\/     M anipulation  |
\*---------------------------------------------------------------------------*/
FoamFile
{
    version     2.0;
    format      ascii;
    class       volVectorField;
    location    "0.140008";
    object      U;
}
// * * * * * * * * * * * * * * * * * * * * * * * * * * * * * * * * * * * * * //

dimensions      [0 1 -1 0 0 0 0];

internalField   nonuniform List<vector> 
20000
(
(254.8275 0 2.9667709)
(294.68639 0 3.7223717)
(320.06025 0 3.9773657)
(341.56879 1.9802077e-21 4.1590691)
(361.2318 0 4.2602722)
(378.90072 -2.3979396e-17 4.3026723)
(391.22216 2.0087468e-17 3.9369067)
(394.33388 0 4.2035793)
(393.33042 -7.9441584e-18 3.6703979)
(393.74624 1.0282757e-17 4.2290871)
(392.82659 -4.9013892e-18 3.4021531)
(392.8028 -1.0228358e-18 4.0863889)
(391.91089 -9.1010683e-19 3.1468986)
(391.45967 -5.601937e-18 3.7551006)
(390.43989 7.1699126e-18 2.8394716)
(389.52851 -3.9528818e-18 3.2204723)
(388.18959 0 2.3797164)
(386.71226 -5.4883705e-18 2.4485811)
(384.82771 0 1.6480151)
(382.59447 0 1.3694776)
(379.87493 0 0.51697042)
(376.59853 1.1184102e-17 -0.11563531)
(372.67665 1.7076466e-17 -1.1075057)
(367.9888 -2.8805661e-17 -2.0387663)
(362.47087 0 -3.1307888)
(356.03124 -1.2333897e-18 -4.1191492)
(348.675 4.9401856e-17 -4.9693303)
(340.44557 -1.1785738e-18 -5.4356226)
(331.4949 -3.2452608e-17 -5.4039028)
(322.04325 -1.6346258e-17 -4.8303112)
(312.48399 -1.7946528e-18 -3.8864616)
(303.38414 -1.4351784e-18 -2.812402)
(295.27412 5.5497603e-17 -1.7976663)
(288.39747 4.2684771e-17 -0.92390295)
(282.78636 -2.1073226e-17 -0.19239323)
(278.2917 0 0.38837239)
(274.71623 -7.997575e-19 0.83178197)
(271.89289 -1.8738005e-17 1.1575854)
(269.67726 1.4374828e-17 1.3774775)
(267.92952 6.4049216e-17 1.5116163)
(266.54422 -1.1165749e-16 1.5680166)
(265.42426 0 1.5595373)
(264.51602 1.3854646e-16 1.4888538)
(263.73203 1.0230011e-16 1.3602237)
(263.11821 0 1.2085316)
(262.64936 0 1.0495525)
(262.19717 0 0.78570183)
(261.7037 -6.3540145e-17 0.46846905)
(261.78773 6.1176914e-18 0.12452478)
(260.77518 -4.8565527e-18 -0.66967227)
(254.05056 6.8352217e-17 1.859193)
(294.28271 -9.7999445e-17 2.5873678)
(319.86274 7.760715e-17 2.6922416)
(341.55963 -1.6567495e-17 2.7840683)
(361.38654 -1.4254039e-17 2.8058435)
(379.15093 0 2.7789091)
(390.98604 0 2.3496462)
(393.76164 0 2.6539538)
(392.69175 2.7010209e-18 2.0542382)
(393.1236 -8.5852566e-22 2.6636417)
(392.16457 2.5048235e-18 1.7591468)
(392.14085 -1.0423249e-17 2.4975438)
(391.21187 5.2042887e-18 1.4829073)
(390.74238 5.801941e-18 2.1310769)
(389.68308 -7.2491701e-18 1.1517181)
(388.73503 -4.0565246e-18 1.5498818)
(387.34748 6.6810819e-18 0.65857182)
(385.8139 5.5725665e-18 0.7212283)
(383.86332 -9.3556127e-18 -0.12202971)
(381.54964 7.6918187e-18 -0.42700292)
(378.73676 -2.5908086e-17 -1.3216607)
(375.35036 -6.7265052e-20 -1.9937485)
(371.30437 -1.798467e-17 -3.0270115)
(366.48166 2.9288852e-17 -3.9967205)
(360.82532 0 -5.1174713)
(354.26203 -2.0074625e-17 -6.1209196)
(346.82481 -6.6485842e-17 -6.9615203)
(338.60316 1.3414038e-17 -7.3892172)
(329.79327 -4.5170507e-17 -7.2838055)
(320.63626 0 -6.5926679)
(311.47188 0 -5.4722291)
(302.74983 0 -4.1652485)
(294.91653 -9.2094242e-17 -2.893987)
(288.21579 -1.0081201e-16 -1.7804054)
(282.68849 2.2354108e-17 -0.84558417)
(278.24457 1.7308416e-17 -0.10307361)
(274.69955 -5.1520281e-17 0.46405467)
(271.89428 1.9316813e-17 0.88369283)
(269.68785 2.3218455e-16 1.1735421)
(267.94413 -8.6286773e-17 1.3607206)
(266.55914 9.5730921e-17 1.4534646)
(265.439 2.350901e-17 1.4732238)
(264.52644 1.2141926e-16 1.4229132)
(263.74051 8.9397687e-17 1.3107445)
(263.12751 1.8850673e-16 1.1749122)
(262.65436 -2.3736765e-16 1.0221624)
(262.11854 1.6666457e-16 0.76236319)
(261.71714 -4.7112379e-17 0.45817642)
(261.55682 -1.1423789e-16 0.1094053)
(260.83033 -7.0140197e-17 -0.66868246)
(253.25205 3.5723792e-17 0.79617799)
(293.81554 -2.4041972e-17 1.4288614)
(319.64906 1.061112e-17 1.3958337)
(341.56887 -8.466009e-18 1.4048183)
(361.57771 -1.8232858e-18 1.3406112)
(379.45138 0 1.2272607)
(390.71895 0 0.72134299)
(393.14759 0 1.0620403)
(392.02812 3.677959e-18 0.40429471)
(392.47258 0 1.0678525)
(391.47498 5.1100697e-18 0.091984094)
(391.44833 4.2383778e-18 0.88121992)
(390.48333 -7.101788e-18 -0.20207317)
(389.99382 -2.80188e-21 0.48008095)
(388.89611 -4.9549086e-18 -0.55633927)
(387.91068 0 -0.14713602)
(386.47543 0 -1.0832936)
(384.88484 0 -1.032189)
(382.86794 0 -1.9148091)
(380.47168 0 -2.2502133)
(377.56376 3.946643e-17 -3.1849032)
(374.06397 0 -3.8974172)
(369.89064 1.8349912e-17 -4.9686593)
(364.92717 -1.4866109e-17 -5.972911)
(359.12521 1.2649559e-17 -7.113832)
(352.42712 3.0935257e-17 -8.1188784)
(344.89425 0 -8.9290718)
(336.65672 0 -9.2914151)
(327.94959 1.1377318e-16 -9.0848851)
(319.03326 -1.8077819e-17 -8.2588451)
(310.21358 -3.0061175e-17 -6.9642647)
(301.85377 2.3210969e-17 -5.4444267)
(294.32029 0 -3.9415309)
(287.83328 3.779467e-16 -2.6075469)
(282.44798 -4.4769212e-17 -1.4818245)
(278.09584 1.7008438e-17 -0.58498362)
(274.61014 0 0.10161355)
(271.84332 0 0.61239508)
(269.65983 -2.0415735e-16 0.97041228)
(267.9293 -2.159929e-17 1.207715)
(266.5504 -3.2071457e-17 1.3378963)
(265.43401 -3.776053e-16 1.3851176)
(264.51781 3.4719682e-17 1.3547425)
(263.73256 -2.4244077e-16 1.2593534)
(263.12531 -4.3227236e-16 1.1400069)
(262.64805 2.222222e-16 0.99085117)
(262.09405 1.6534327e-16 0.73612027)
(261.69592 1.241616e-16 0.44365358)
(261.47373 -8.8746237e-17 0.091885865)
(260.8318 -8.0594587e-17 -0.6645553)
(252.47601 -3.3645347e-18 -0.2891233)
(293.37135 0 0.26339833)
(319.44813 0 0.081312004)
(341.57967 -2.1665175e-18 0.0017041877)
(361.75547 -3.7202255e-18 -0.14992612)
(379.7336 -6.6615267e-21 -0.34889371)
(390.3777 7.9825536e-18 -0.92094142)
(392.49673 4.473286e-18 -0.54116115)
(391.32783 -3.7353933e-18 -1.2628668)
(391.78472 1.2462935e-17 -0.54390201)
(390.74801 -5.1597297e-18 -1.5952564)
(390.71824 3.2571283e-20 -0.75347833)
(389.71655 -7.2393726e-18 -1.9077184)
(389.20661 0 -1.1896814)
(388.0699 -4.3441228e-20 -2.2833461)
(387.04626 -1.6486014e-20 -1.8621138)
(385.56199 2.7887344e-17 -2.8426836)
(383.91221 1.1405794e-19 -2.8033787)
(381.82605 -2.9016468e-17 -3.7248085)
(379.34359 -3.2303882e-17 -4.0906038)
(376.33675 -4.0232622e-17 -5.0634588)
(372.71926 1.1033358e-17 -5.8141919)
(368.41397 0 -6.9192293)
(363.30431 -6.1683785e-17 -7.9523543)
(357.35114 -1.2903781e-17 -9.1048088)
(350.51279 -7.4144709e-17 -10.099006)
(342.87982 0 -10.861954)
(334.62092 0 -11.139245)
(326.00614 -2.0952358e-16 -10.812972)
(317.31133 1.8391238e-17 -9.8405387)
(308.81585 0 -8.3735116)
(300.81225 0 -6.6555109)
(293.59392 0 -4.9410254)
(287.34734 -4.6975375e-16 -3.4045991)
(282.1286 -3.852245e-16 -2.1006367)
(277.88984 -1.7589941e-17 -1.0570283)
(274.48013 2.6013407e-17 -0.25543999)
(271.7637 -3.1455348e-16 0.34382431)
(269.61177 4.9860926e-16 0.76849078)
(267.90049 1.0295043e-19 1.0553755)
(266.53232 -1.601762e-17 1.2223597)
(265.42234 7.3244783e-16 1.2967933)
(264.50542 -8.5040732e-16 1.2864136)
(263.72304 4.5865901e-16 1.2080648)
(263.12264 1.7754468e-20 1.1050658)
(262.63996 4.2819526e-16 0.95895601)
(262.06896 -3.3811747e-16 0.70950547)
(261.66853 -7.6871932e-18 0.42686819)
(261.35969 1.9772304e-16 0.075774943)
(260.84644 1.4401205e-16 -0.65585326)
(251.72815 1.6036019e-17 -1.3921924)
(292.94617 -2.5867004e-17 -0.91547143)
(319.26529 -8.7938498e-21 -1.2435529)
(341.60489 1.9866657e-17 -1.4199041)
(361.93631 -1.8942919e-18 -1.6630551)
(380.01003 0 -1.95114)
(389.96762 -5.4237982e-18 -2.584678)
(391.80566 -2.2765967e-17 -2.1661575)
(390.58993 1.9059061e-17 -2.9540444)
(391.05782 1.2700609e-17 -2.1775419)
(389.98186 -1.0580701e-17 -3.3040597)
(389.94799 -8.8035881e-18 -2.4077909)
(388.90962 2.2103579e-17 -3.6317787)
(388.37822 0 -2.8776821)
(387.20195 3.0716121e-17 -4.0270072)
(386.13813 -1.7008559e-17 -3.5951996)
(384.60276 0 -4.6189166)
(382.8903 1.1895456e-17 -4.593407)
(380.73113 9.8651586e-18 -5.5523825)
(378.15807 3.2741597e-17 -5.9492272)
(375.04768 5.4827283e-17 -6.9579587)
(371.30743 -4.5604719e-17 -7.7452045)
(366.86434 -5.6704653e-17 -8.8799596)
(361.60221 4.6963246e-17 -9.936623)
(355.49161 0 -11.091884)
(348.50817 1.071706e-16 -12.06247)
(340.77264 -1.7332764e-17 -12.760868)
(332.49063 0 -12.933223)
(323.96251 1.8780507e-16 -12.468549)
(315.47536 1.7232155e-16 -11.33758)
(307.28613 -1.5013454e-17 -9.6974746)
(299.62991 0 -7.7927439)
(292.73468 0 -5.8846853)
(286.74791 2.3710233e-16 -4.1633664)
(281.72075 2.2449053e-17 -2.6947804)
(277.61738 -2.6125875e-16 -1.5137514)
(274.30118 -2.619802e-17 -0.60316377)
(271.64823 -1.3673612e-19 0.080724143)
(269.53748 -4.7129502e-16 0.569598)
(267.85234 0 0.90453371)
(266.49998 -3.2232459e-17 1.1074984)
(265.39963 -7.3331516e-16 1.2085037)
(264.48483 1.1450315e-15 1.2179067)
(263.70796 -4.3230698e-16 1.1565883)
(263.11627 3.1722874e-16 1.0688989)
(262.62794 -4.5307598e-16 0.92622531)
(262.04607 0 0.68196337)
(261.636 4.8500724e-16 0.40801774)
(261.27379 0 0.060361217)
(260.85474 2.7927268e-16 -0.64558342)
(250.99935 1.1668598e-18 -2.474531)
(292.53172 -5.2796022e-17 -2.1352445)
(319.0916 4.2514509e-17 -2.58592)
(341.63812 3.3829497e-17 -2.8667824)
(362.11391 -3.098141e-17 -3.2054437)
(380.26595 3.3078861e-18 -3.5831571)
(389.48298 -1.9366693e-17 -4.2691466)
(391.07357 4.6161665e-18 -3.8090312)
(389.81341 1.1646589e-17 -4.6633041)
(390.29193 6.4753552e-18 -3.8275345)
(389.17723 0 -5.0299045)
(389.1386 0 -4.0781555)
(388.06325 -3.0005288e-17 -5.3719313)
(387.50885 1.2464029e-17 -4.5825091)
(386.29151 -2.0800133e-17 -5.7868632)
(385.18463 -1.7414369e-17 -5.346342)
(383.59508 1.4544693e-17 -6.412314)
(381.81579 1.219518e-17 -6.402344)
(379.57925 0 -7.3973412)
(376.91079 0 -7.8253299)
(373.69153 -1.1142228e-16 -8.867384)
(369.82254 4.6169022e-17 -9.6890897)
(365.23472 1.5398993e-16 -10.849255)
(359.81296 1.6180591e-17 -11.923641)
(353.5384 9.3285136e-17 -13.072406)
(346.40613 0 -14.005988)
(338.56856 -1.2635449e-16 -14.622426)
(330.26711 -1.445932e-17 -14.670816)
(321.82814 0 -14.050773)
(313.5452 -1.5438138e-16 -12.750507)
(305.65359 -2.4880626e-16 -10.936411)
(298.33897 -3.6940259e-16 -8.8544566)
(291.77138 -3.8508455e-17 -6.7688601)
(286.05808 4.5017969e-17 -4.8795369)
(281.2393 -4.6666116e-17 -3.2602497)
(277.28807 2.9829123e-16 -1.9518126)
(274.07961 -4.246267e-16 -0.93902368)
(271.50118 3.1797363e-16 -0.17505251)
(269.43997 0 0.37507645)
(267.78712 0 0.75621091)
(266.45528 0 0.9940198)
(265.36754 1.1599616e-15 1.1208064)
(264.45779 1.2694409e-19 1.1496923)
(263.68899 -1.2670963e-17 1.1053249)
(263.10722 -5.9474974e-16 1.0314211)
(262.61264 -4.3669233e-16 0.89286366)
(262.01985 -6.2433925e-16 0.65370601)
(261.59834 -1.4857525e-17 0.38751121)
(261.19617 0 0.045923634)
(260.86331 4.4095426e-22 -0.6334389)
(250.28988 -7.6334825e-17 -3.5040387)
(292.13228 5.3868732e-17 -3.3955225)
(318.93259 -4.0676118e-17 -3.9445096)
(341.68557 4.6037283e-18 -4.3334028)
(362.29463 -3.1646763e-17 -4.7721966)
(380.49764 2.3535203e-17 -5.2404986)
(388.92661 0 -5.9710562)
(390.30516 1.9209878e-20 -5.4672133)
(389.00211 7.9312433e-18 -6.3879577)
(389.49005 -3.9523278e-17 -5.4919322)
(388.3363 -6.8008109e-20 -6.7717328)
(388.29135 5.4963552e-17 -5.7643728)
(387.17797 6.7405411e-20 -7.1281218)
(386.5982 -2.545786e-17 -6.304744)
(385.33766 1.0586246e-17 -7.5634559)
(384.18427 1.765292e-17 -7.1164032)
(382.53719 0 -8.2233767)
(380.68686 -1.2159777e-17 -8.2305343)
(378.36869 -3.0786933e-17 -9.2595197)
(375.60006 1.6921746e-17 -9.7184988)
(372.26639 5.6584893e-17 -10.791163)
(368.26217 -9.480458e-17 -11.645181)
(363.52213 -5.832332e-17 -12.826233)
(357.93326 -1.6053016e-17 -13.912048)
(351.48853 -1.0741888e-16 -15.044286)
(344.205 -2.2629603e-17 -15.92664)
(336.26837 1.6400084e-16 -16.443314)
(327.95457 0 -16.349214)
(319.61136 0 -15.558142)
(311.53387 -1.9937972e-17 -14.079076)
(303.93509 2.663913e-16 -12.090162)
(296.95717 3.7234044e-16 -9.839219)
(290.71886 1.92794e-17 -7.5905561)
(285.28807 0 -5.5492292)
(280.69101 3.7177377e-16 -3.7931792)
(276.90587 5.8440607e-16 -2.3679327)
(273.81756 8.6779267e-16 -1.2604578)
(271.32359 1.4172847e-19 -0.4215982)
(269.31963 9.0626015e-16 0.18630945)
(267.7049 -6.5881566e-16 0.61138941)
(266.398 -1.6115992e-17 0.88260791)
(265.3258 -7.8143632e-16 1.0341877)
(264.42392 -5.3691737e-16 1.0821292)
(263.66578 -2.5333912e-17 1.0547012)
(263.09501 6.1061505e-16 0.99371812)
(262.59379 4.2025548e-16 0.85897441)
(261.99148 6.4853594e-16 0.62465333)
(261.55252 -9.3156989e-16 0.36605874)
(261.1357 -3.6524343e-16 0.03245148)
(260.87165 -2.68946e-16 -0.62060228)
(249.60281 -2.4384273e-18 -4.5640565)
(291.752 0 -4.6594837)
(318.79102 -4.9844666e-17 -5.3222148)
(341.75091 -3.9970534e-17 -5.8211186)
(362.48388 6.4528531e-17 -6.3641056)
(380.69778 -5.484128e-17 -6.9219526)
(388.30081 4.0127738e-17 -7.6887043)
(389.50252 -4.8041457e-18 -7.1405259)
(388.15738 -8.0427014e-18 -8.1292268)
(388.65294 2.0096702e-17 -7.1717729)
(387.45946 -1.1136894e-17 -8.5302382)
(387.40616 -1.8603327e-17 -7.4673898)
(386.25331 0 -8.9011597)
(385.64538 0 -8.0456268)
(384.33917 4.3386112e-17 -9.357786)
(383.13573 -5.409842e-17 -8.906338)
(381.42783 -3.0137343e-17 -10.052534)
(379.50241 0 -10.078073)
(377.09842 0 -11.138643)
(374.22469 -6.9740159e-17 -11.628329)
(370.77051 7.2661049e-17 -12.728885)
(366.62391 9.6153127e-17 -13.612917)
(361.72358 -9.8741866e-18 -14.809999)
(355.95986 0 -15.90026)
(349.33913 -1.3952686e-17 -17.004981)
(341.90336 1.7068859e-16 -17.820831)
(333.87319 1.8336804e-17 -18.21943)
(325.55753 0 -17.96479)
(317.3208 -2.5169307e-17 -16.988396)
(309.45464 -2.8128654e-16 -15.322546)
(302.14814 4.9664113e-16 -13.15868)
(295.50378 4.0467625e-16 -10.746446)
(289.59487 -1.9894261e-17 -8.3480601)
(284.45204 4.5918836e-17 -6.1699281)
(280.08575 -2.3265924e-17 -4.2908253)
(276.47731 -5.6992407e-16 -2.7595769)
(273.51922 -4.0253515e-16 -1.5653783)
(271.11813 -6.4257534e-16 -0.65729712)
(269.17818 1.5500383e-17 0.0045075057)
(267.60679 6.8228867e-16 0.47095793)
(266.32886 -1.0028405e-15 0.77389655)
(265.27495 -7.8157116e-16 0.94912236)
(264.38366 -1.1071717e-15 1.0155839)
(263.63866 -7.8250427e-16 1.0051009)
(263.07992 -6.2627011e-16 0.95784812)
(262.57142 -8.6195252e-16 0.82452278)
(261.95977 9.8725109e-18 0.59469522)
(261.49662 4.6722178e-16 0.34435301)
(261.09058 -3.5379483e-16 0.020122615)
(260.87721 4.1066073e-18 -0.60532852)
(248.94296 1.6134586e-16 -5.6398017)
(291.39384 -2.2417741e-16 -5.9354542)
(318.6684 1.8362444e-16 -6.7173172)
(341.8355 -7.6687616e-17 -7.3296397)
(362.68558 6.5893169e-17 -7.9831756)
(380.85545 -1.1160461e-16 -8.6278226)
(387.60488 9.9396112e-17 -9.4229667)
(388.66501 7.4221434e-20 -8.8298625)
(387.27846 -3.2782679e-17 -9.8882189)
(387.77981 1.361679e-17 -8.8682869)
(386.5459 -3.4212981e-17 -10.306448)
(386.48192 3.7972813e-17 -9.1886586)
(385.28792 0 -10.692233)
(384.64887 2.6471301e-17 -9.8064957)
(383.29469 -2.1949737e-17 -11.170574)
(382.03788 1.8335602e-17 -10.716638)
(380.26614 3.0520645e-17 -11.899757)
(378.2618 -1.2823739e-17 -11.944731)
(375.76779 1.0555318e-17 -13.034314)
(372.78374 -4.8618256e-19 -13.554452)
(369.20239 7.4476901e-17 -14.680221)
(364.90569 2.6943101e-19 -15.591747)
(359.83665 -3.0693376e-17 -16.79955)
(353.89042 1.66674e-17 -17.886464)
(347.08867 -1.4223477e-17 -18.95158)
(339.50159 -1.7288383e-16 -19.684539)
(331.38611 0 -19.946286)
(323.08207 -2.5014847e-16 -19.513632)
(314.96549 -3.8020223e-16 -18.339064)
(307.3195 3.0371723e-16 -16.480056)
(300.30727 -5.162543e-16 -14.142033)
(293.99444 -4.0765394e-16 -11.576049)
(288.41389 -6.6005486e-16 -9.0404516)
(283.56164 1.5294838e-17 -6.7399162)
(279.4321 7.575785e-16 -4.7510963)
(276.00825 0 -3.1246903)
(273.18843 8.9185725e-16 -1.8520102)
(270.88727 5.8459141e-16 -0.88072564)
(269.01714 -9.272204e-16 -0.16923248)
(267.49374 6.8395317e-16 0.33573726)
(266.24842 1.5837805e-17 0.66848102)
(265.21534 7.5755236e-16 0.86606442)
(264.33724 1.1051446e-15 0.95042104)
(263.60773 8.0508739e-16 0.95665825)
(263.06179 5.8646576e-16 0.92567326)
(262.54546 1.7116625e-15 0.78950474)
(261.92396 0 0.56372948)
(261.4345 0 0.32289384)
(261.05785 6.8486778e-16 0.009194168)
(260.87953 0 -0.58943818)
(248.30636 0 -6.7324253)
(291.05588 0 -7.2313473)
(318.56156 0 -8.1372811)
(341.93638 4.9024341e-18 -8.8656512)
(362.90121 6.3003878e-17 -9.6373678)
(380.95775 7.4831725e-20 -10.360539)
(386.83489 -4.7618769e-17 -11.177205)
(387.7917 -1.0004081e-17 -10.536694)
(386.36437 -3.3445577e-17 -11.665326)
(386.86949 4.1662907e-17 -10.582136)
(385.59428 -2.3247899e-17 -12.101364)
(385.51704 1.9354401e-17 -10.929825)
(384.28028 1.5675227e-19 -12.502401)
(383.60742 -5.360967e-17 -11.588163)
(382.20337 2.236276e-17 -13.00192)
(380.89014 0 -12.547296)
(379.05169 -1.5660763e-17 -13.76474)
(376.96459 -1.5331029e-19 -13.830149)
(374.37611 -1.1048778e-17 -14.946196)
(371.27595 1.0792502e-16 -15.496664)
(367.56003 -1.4967018e-16 -16.644972)
(363.105 1.2347693e-17 -17.581103)
(357.85859 1.6689503e-16 -18.793729)
(351.72241 0 -19.868534)
(344.73573 0 -20.880713)
(337.00039 -2.3952495e-17 -21.513219)
(328.81068 -2.927572e-16 -21.618947)
(320.53461 2.5212077e-16 -20.991506)
(312.55447 4.0888764e-16 -19.607466)
(305.13989 0 -17.550659)
(298.42598 -5.2694575e-16 -15.040429)
(292.44361 4.1491216e-16 -12.328414)
(287.18963 1.2910732e-15 -9.6675629)
(282.62837 4.9935073e-16 -7.2583258)
(278.73879 -7.3788034e-16 -5.1726457)
(275.50487 -5.9650587e-16 -3.4617734)
(272.82941 -8.6837398e-16 -2.1189604)
(270.6338 -6.2803017e-16 -1.0907111)
(268.83836 9.4551744e-16 -0.33397298)
(267.36695 -7.2917825e-16 0.20644861)
(266.15743 1.052776e-15 0.56689536)
(265.14752 2.3690376e-17 0.78543101)
(264.28511 -1.7209428e-17 0.88697907)
(263.57348 0 0.9093266)
(263.04033 0 0.88413648)
(262.5155 1.3729482e-19 0.75409811)
(261.88189 1.241322e-15 0.5320228)
(261.37269 0 0.30177732)
(261.03131 -6.7350579e-16 -0.00013552698)
(260.8801 3.9253543e-18 -0.57248203)
(247.68672 0 -7.8391659)
(290.73644 0 -8.5445964)
(318.46783 9.7060313e-17 -9.5796603)
(342.05062 -8.9792082e-17 -10.426323)
(363.13065 4.2719778e-18 -11.324635)
(381.00043 0 -12.113893)
(385.98021 -4.858579e-17 -12.948337)
(386.88255 5.073029e-17 -12.260683)
(385.41413 0 -13.461667)
(385.9203 -1.4101975e-17 -12.314985)
(384.60276 -4.7319279e-17 -13.916556)
(384.50996 5.8862847e-17 -12.692212)
(383.22945 -3.2915641e-17 -14.331891)
(382.52056 -2.7433378e-17 -13.390476)
(381.06497 -2.2865291e-17 -14.851348)
(379.69233 -1.8939647e-17 -14.397984)
(377.7842 0 -15.647073)
(375.61031 0 -15.734023)
(372.92237 -8.8463979e-17 -16.874142)
(369.69961 0 -17.454925)
(365.84106 -1.228177e-16 -18.622967)
(361.2191 0 -19.580279)
(355.78661 -1.8995372e-16 -20.791093)
(349.45346 -1.2394937e-16 -21.8439)
(342.27934 -2.3406538e-16 -22.788454)
(334.40131 2.4402824e-17 -23.301803)
(326.1514 2.9484371e-16 -23.232134)
(317.92232 2.5911276e-16 -22.394054)
(310.09699 0 -20.790943)
(302.92667 -3.363268e-16 -18.533506)
(296.5164 5.4734305e-16 -15.854283)
(290.86403 4.3563963e-16 -13.004319)
(285.9342 -3.7924353e-17 -10.229809)
(281.66258 -1.4943393e-15 -7.7249353)
(278.0139 -7.4529961e-16 -5.554718)
(274.97312 5.6308479e-16 -3.7697983)
(272.44632 -9.2853806e-16 -2.3651776)
(270.36057 1.9923788e-15 -1.2863137)
(268.64374 -2.9503555e-17 -0.48892792)
(267.22768 2.2079682e-17 0.08371718)
(266.05668 3.2452355e-17 0.46961488)
(265.07204 -2.3599627e-17 0.70760266)
(264.22776 0 0.82549728)
(263.53651 0 0.86296466)
(263.01574 1.8146294e-17 0.84469106)
(262.48055 -1.699566e-15 0.71834839)
(261.83104 -1.2479091e-15 0.50010877)
(261.31552 8.9928228e-16 0.28110261)
(261.00856 6.7248612e-16 -0.0078843252)
(260.87977 -3.8400969e-18 -0.55480882)
(247.07812 -3.3611119e-20 -8.9568298)
(290.43534 2.3759584e-16 -9.8694287)
(318.38528 -9.8933925e-17 -11.040205)
(342.17483 5.0785959e-18 -12.007582)
(363.37324 -7.8617114e-17 -13.04093)
(380.97541 1.2494381e-16 -13.883528)
(385.00476 -6.1792899e-17 -14.73664)
(385.93461 0 -14.00725)
(384.42508 0 -15.282988)
(384.93011 1.4417887e-17 -14.070074)
(383.57022 2.4091349e-17 -15.752297)
(383.46048 4.0103837e-17 -14.475118)
(382.13576 3.3493167e-17 -16.179498)
(381.38859 1.2977032e-20 -15.212807)
(379.87959 1.1604941e-16 -16.718404)
(378.44428 0 -16.268489)
(376.4633 0 -17.546442)
(374.19819 0 -17.656205)
(371.40506 8.9440633e-17 -18.818225)
(368.05241 0 -19.429315)
(364.04264 1.2408041e-16 -20.613982)
(359.24492 -1.3113685e-17 -21.588391)
(353.61768 -1.4082281e-16 -22.789925)
(347.08116 1.0671008e-16 -23.809563)
(339.71884 2.5057178e-16 -24.670317)
(331.70647 0 -25.044722)
(323.41345 0 -24.780285)
(315.25286 -2.6097191e-16 -23.716862)
(307.6024 -2.6829824e-17 -21.886928)
(300.69029 3.5953972e-16 -19.42791)
(294.58976 -5.4123293e-16 -16.584241)
(289.26721 -1.7214087e-15 -13.604904)
(284.65859 -1.2974268e-15 -10.728111)
(280.67382 1.0131014e-15 -8.1401058)
(277.26507 -8.012191e-16 -5.8971043)
(274.41875 1.2078335e-15 -4.048185)
(272.04332 8.3559011e-16 -2.5899468)
(270.07047 -2.6112191e-15 -1.4668314)
(268.43524 -1.8846241e-15 -0.63347242)
(267.07727 -2.2107019e-17 -0.031937638)
(265.94704 0 0.37704873)
(264.98952 -2.363618e-17 0.63292409)
(264.16577 1.7125694e-17 0.7662687)
(263.49725 1.5920708e-15 0.81811747)
(262.98829 0 0.80630148)
(262.43931 8.3654003e-16 0.68217662)
(261.77022 1.9023326e-17 0.46862657)
(261.26543 -9.1508122e-16 0.26108715)
(260.98876 -6.4093648e-16 -0.014228448)
(260.87915 -4.8154546e-16 -0.53654117)
(246.4801 5.3674628e-18 -10.092979)
(290.14455 1.2107105e-16 -11.217087)
(318.31215 -9.783026e-17 -12.531048)
(342.30599 0 -13.616825)
(363.62846 -4.1570767e-20 -14.789921)
(380.87114 3.5248084e-20 -15.674487)
(383.95682 6.2919621e-17 -16.546235)
(384.94486 -5.2562468e-17 -15.774321)
(383.39672 -5.2819671e-17 -17.12645)
(383.89988 -1.0770319e-19 -15.84459)
(382.49832 7.339832e-17 -17.605132)
(382.36995 -4.061851e-17 -16.276587)
(381.00001 0 -18.04427)
(380.21165 -5.6657062e-17 -17.05526)
(378.64698 -4.7125793e-17 -18.603038)
(377.1456 3.9532423e-17 -18.158744)
(375.0883 4.9417918e-17 -19.462706)
(372.7269 1.3608821e-17 -19.59686)
(369.82199 0 -20.778787)
(366.33151 0 -21.419942)
(362.16157 1.4342995e-16 -22.617627)
(357.17915 1.9918654e-16 -23.604272)
(351.3486 1.7483824e-16 -24.788123)
(344.60319 1.8506066e-17 -25.761992)
(337.05401 -1.4841266e-17 -26.521208)
(328.91876 0 -26.73593)
(320.60279 2.0758794e-17 -26.257639)
(312.53444 -5.5264364e-16 -24.955597)
(305.08014 -4.32986e-16 -22.893079)
(298.44078 0 -20.233449)
(292.65638 1.0755859e-15 -17.231226)
(287.6635 8.679164e-16 -14.131646)
(283.37261 1.3516397e-15 -11.163815)
(279.67071 -1.0407608e-15 -8.5046739)
(276.49934 2.3616195e-15 -6.2000546)
(273.84718 -1.1754845e-15 -4.2967441)
(271.62443 -1.3712875e-17 -2.7928578)
(269.76639 -1.3149441e-18 -1.6317859)
(268.21489 9.967134e-16 -0.76713846)
(266.91708 -4.4334428e-17 -0.14010187)
(265.82941 1.0205808e-15 0.28954179)
(264.90063 2.3532762e-17 0.56171012)
(264.09975 0 0.70958023)
(263.45611 -3.169689e-15 0.77500096)
(262.95746 0 0.76990927)
(262.39021 1.2982694e-17 0.64552915)
(261.70228 -9.3900243e-18 0.43794638)
(261.22194 8.7579307e-16 0.24214231)
(260.9715 6.4010208e-16 -0.01938971)
(260.87867 4.785889e-16 -0.51778544)
(245.8919 -5.4409286e-18 -11.249906)
(289.8654 1.1946295e-16 -12.569941)
(318.25266 -9.3474782e-17 -14.040584)
(342.44593 0 -15.24505)
(363.89617 9.0329796e-18 -16.567753)
(380.68154 -7.5663016e-18 -17.488818)
(382.97125 1.2830209e-17 -18.375295)
(383.91943 -8.5710989e-17 -17.548894)
(382.33364 3.5678684e-17 -18.982482)
(382.83299 -1.4841196e-17 -17.634642)
(381.38877 -4.9820312e-17 -19.474563)
(381.23877 2.0571949e-17 -18.097398)
(379.82183 3.447753e-17 -19.927125)
(378.98916 2.8920371e-17 -18.918332)
(377.3667 2.4087399e-17 -20.50518)
(375.79573 -2.0023281e-17 -20.068597)
(373.6581 -4.9841876e-17 -21.395954)
(371.19449 -1.3846047e-17 -21.556372)
(368.17038 0 -22.756235)
(364.53367 -1.5567343e-16 -23.426749)
(360.19443 -1.1229247e-16 -24.633238)
(355.01831 -2.4101857e-16 -25.626424)
(348.97607 1.1020909e-17 -26.783134)
(342.01738 2.988845e-16 -27.697056)
(334.28522 0 -28.335405)
(326.04186 2.5778486e-17 -28.36894)
(317.72616 -2.0447717e-17 -27.658321)
(309.77577 1.1022185e-15 -26.106086)
(302.53976 4.2225964e-16 -23.807362)
(296.18782 7.0224019e-16 -20.950029)
(290.72583 -5.5143611e-16 -17.79647)
(286.06225 -8.9597065e-16 -14.586337)
(282.08506 -6.4936561e-16 -11.538636)
(278.661 2.0625879e-15 -8.8198844)
(275.72315 2.6588893e-17 -6.464217)
(273.26351 -1.8399863e-17 -4.5156341)
(271.19351 0 -2.9737811)
(269.45114 1.3125157e-15 -1.7809116)
(267.98468 3.0310528e-17 -0.88961119)
(266.7485 -2.2138373e-17 -0.24046774)
(265.7047 -1.0356247e-15 0.20737477)
(264.80606 -1.5293347e-15 0.49424042)
(264.0304 1.1079419e-15 0.65570736)
(263.41354 1.5771438e-15 0.73354721)
(262.92244 0 0.73302128)
(262.3313 -1.6462396e-15 0.60888026)
(261.63249 -1.1912363e-15 0.40809768)
(261.18308 -8.7744893e-16 0.22461209)
(260.95642 -1.2489441e-15 -0.023500346)
(260.87857 0 -0.4986219)
(245.32989 0 -12.425684)
(289.60902 3.9134055e-18 -13.943625)
(318.21414 -2.0964692e-16 -15.577805)
(342.60281 -5.5571036e-18 -16.902835)
(364.17685 1.3802444e-16 -18.385364)
(380.41035 -7.7182747e-18 -19.32988)
(381.92704 -1.1720912e-16 -20.230709)
(382.86036 1.0865379e-16 -19.34099)
(381.23588 3.6381343e-17 -20.857293)
(381.72818 0 -19.445474)
(380.2401 0 -21.364048)
(380.06552 -2.0999707e-17 -19.939812)
(378.60028 7.0308631e-17 -21.828477)
(377.72062 -2.9222945e-17 -20.801981)
(376.03832 -4.8753132e-17 -22.42445)
(374.39377 2.0488911e-17 -21.998217)
(372.17089 -3.4022407e-17 -23.34674)
(369.59824 -1.2839217e-16 -23.535471)
(366.44694 2.3466234e-17 -24.751022)
(362.65542 -1.3208006e-18 -25.449502)
(358.13762 0 -26.659919)
(352.75866 0 -27.653046)
(346.4967 0 -28.771934)
(339.32183 -3.0114689e-16 -29.609957)
(331.41352 0 -30.106561)
(323.08038 4.1608413e-16 -29.936909)
(314.79108 0 -28.976463)
(306.98598 -1.1029953e-15 -27.164435)
(299.99082 2.8056146e-17 -24.628136)
(293.94072 -1.4400882e-15 -21.57793)
(288.80697 1.762091e-17 -18.281518)
(284.47188 8.5967858e-16 -14.971059)
(280.80377 -1.3795296e-15 -11.854595)
(277.65164 -1.0375226e-15 -9.0873116)
(274.94234 -1.5415659e-15 -6.6905655)
(272.67243 -3.7116499e-17 -4.7053075)
(270.75419 1.3823746e-17 -3.1328343)
(269.12743 1.3170087e-15 -1.9141363)
(267.74657 9.3954609e-16 -1.0007197)
(266.57292 2.2142197e-17 -0.33283041)
(265.57383 -3.2372768e-17 0.13076617)
(264.70653 3.0509748e-15 0.43075401)
(263.95839 -1.1036202e-15 0.60485529)
(263.36983 -1.5939299e-15 0.69391534)
(262.88266 1.7664222e-17 0.69682044)
(262.26074 3.2638917e-15 0.57284182)
(261.56514 1.1965082e-15 0.37912403)
(261.14783 -1.330521e-17 0.20860837)
(260.94348 1.2374929e-15 -0.026650305)
(260.87896 0 -0.47912815)
(244.7834 -3.5602329e-16 -13.622272)
(289.36634 0 -15.344799)
(318.19309 0 -17.148246)
(342.77261 5.4754357e-18 -18.593208)
(364.4573 -1.405565e-16 -20.238851)
(380.04901 2.5791361e-16 -21.189017)
(380.84387 -9.2494689e-17 -22.115283)
(381.76321 -9.9572409e-17 -21.157509)
(380.09994 5.5410788e-17 -22.753405)
(380.58289 -6.1624898e-17 -21.277405)
(379.05086 2.5523775e-17 -23.273019)
(378.84962 0 -21.803186)
(377.33531 -7.1489337e-17 -23.747376)
(376.40592 -2.1139032e-19 -22.705666)
(374.66116 4.9736806e-17 -24.360853)
(372.93802 2.1025219e-19 -23.948312)
(370.62393 -1.719941e-17 -25.316031)
(367.93479 -8.6548449e-19 -25.534866)
(364.6481 0 -26.763313)
(360.69314 3.2123892e-16 -27.487638)
(355.98737 -1.3450695e-16 -28.696485)
(350.39626 0 -29.681983)
(343.90704 2.1019001e-16 -30.75094)
(336.51503 3.1083631e-16 -31.495199)
(328.44082 -1.5674035e-17 -31.827708)
(320.03986 4.9024236e-18 -31.432729)
(311.80586 3.4687194e-16 -30.206311)
(304.17464 1.1031836e-15 -28.127136)
(297.44287 4.2355549e-17 -25.354224)
(291.70838 6.7099421e-16 -22.117849)
(286.90798 3.5356174e-17 -18.688244)
(282.89999 -1.3712389e-17 -15.288172)
(279.5357 1.3857001e-15 -12.113986)
(276.64879 -3.2675055e-17 -9.3088132)
(274.16213 8.3007323e-16 -6.8803513)
(272.07825 -1.85838e-17 -4.8664717)
(270.30985 0 -3.2703526)
(268.79783 -2.6378942e-15 -2.0315649)
(267.50246 -9.6993692e-16 -1.1004276)
(266.39167 1.3977214e-15 -0.41708377)
(265.43773 1.6117452e-17 0.059872679)
(264.60276 2.3995334e-17 0.3714536)
(263.88433 -1.6892428e-17 0.55720881)
(263.32497 1.5606361e-15 0.65617835)
(262.83758 -1.7575621e-17 0.66153541)
(262.17836 -3.2479173e-15 0.53796059)
(261.50264 3.64026e-17 0.35126752)
(261.11587 -1.3124962e-17 0.19406672)
(260.93217 -9.5072076e-18 -0.028917662)
(260.8799 6.9064706e-18 -0.45936397)
(244.24141 -5.7377879e-18 -14.831825)
(289.13044 -2.642319e-16 -16.762358)
(318.18645 2.1067227e-16 -18.742571)
(342.95374 0 -20.312378)
(364.72457 1.523367e-16 -22.131461)
(379.57075 -1.5692476e-17 -23.060753)
(379.71648 -1.3435756e-16 -24.018211)
(380.62776 8.9961721e-17 -22.995794)
(378.92591 -7.5060175e-17 -24.670365)
(379.39759 6.2643628e-17 -23.128937)
(377.82169 2.6274652e-17 -25.199789)
(377.59174 -8.7041364e-17 -23.686382)
(376.02718 -2.1587001e-19 -25.683304)
(375.04444 6.079304e-17 -24.629642)
(373.23348 -2.5395324e-17 -26.315311)
(371.42568 2.0976479e-17 -25.920173)
(369.01376 0 -27.304908)
(366.2006 1.1700451e-16 -27.554986)
(362.77032 0 -28.792943)
(358.64315 -1.627279e-16 -29.540295)
(353.73963 1.5285919e-16 -30.741461)
(347.92692 -1.3995382e-17 -31.710659)
(341.20371 -1.8801378e-16 -32.715899)
(333.59608 -3.3225745e-16 -33.346488)
(325.36994 -2.622644e-16 -33.49127)
(316.92694 -4.4025223e-16 -32.849113)
(308.77954 2.5438289e-17 -31.342355)
(301.35159 -5.6650774e-16 -28.991161)
(294.90536 0 -25.984967)
(289.4993 0 -22.57093)
(285.03641 0 -19.01886)
(281.35336 0 -15.540299)
(278.28699 0 -12.319341)
(275.65785 1.6516638e-17 -9.4864777)
(273.38715 -1.2419317e-17 -7.0350506)
(271.48483 -1.1998301e-15 -5.0000438)
(269.86364 0 -3.38686)
(268.46477 2.6421769e-15 -2.1334591)