/*--------------------------------*- C++ -*----------------------------------*\
  =========                 |
  \\      /  F ield         | OpenFOAM: The Open Source CFD Toolbox
   \\    /   O peration     | Website:  https://openfoam.org
    \\  /    A nd           | Version:  8
     \\/     M anipulation  |
\*---------------------------------------------------------------------------*/
FoamFile
{
    version     2.0;
    format      ascii;
    class       volVectorField;
    location    "0.140008";
    object      wallShearStress;
}
// * * * * * * * * * * * * * * * * * * * * * * * * * * * * * * * * * * * * * //

dimensions      [1 -1 -2 0 0 0 0];

internalField   uniform (0 0 0);

boundaryField
{
    aerofoil
    {
        type            calculated;
        value           nonuniform List<vector> 
300
(
(-160.74088 6.3402357e-23 -2.5901081)
(-160.86253 -4.3283728e-17 -1.8751989)
(-160.62084 -2.2661838e-17 -1.1930181)
(-160.4012 2.1376497e-18 -0.49074338)
(-160.21845 -1.0168618e-17 0.22764574)
(-160.06163 -7.4377546e-19 0.92814719)
(-159.93223 4.8776899e-17 1.5843358)
(-159.82684 1.588932e-18 2.26757)
(-159.74825 -1.0352675e-16 2.9654341)
(-159.69978 1.2037062e-35 3.6780039)
(-159.67173 2.3846235e-20 4.4029817)
(-159.65909 -7.6267672e-20 5.1400503)
(-159.66936 -3.4789073e-18 5.8923262)
(-159.68412 3.6658065e-18 6.6652079)
(-159.72633 1.8035049e-21 7.4558616)
(-159.79439 2.322142e-16 8.2642712)
(-159.86825 3.6449286e-18 9.0866165)
(-159.95942 3.8502011e-18 9.9267307)
(-160.05124 -2.5451103e-16 10.781418)
(-160.15992 5.0768604e-16 11.655904)
(-160.28173 -2.1500784e-20 12.551893)
(-160.41206 -2.5773503e-16 13.468965)
(-160.56044 -4.1325493e-18 14.40996)
(-160.70593 1.008104e-34 15.369668)
(-160.86388 -3.0493319e-21 16.357452)
(-161.01428 -9.01744e-18 17.368413)
(-161.1838 9.1435006e-18 18.408462)
(-161.37512 -9.3850108e-18 19.481392)
(-161.56052 9.5179768e-18 20.581146)
(-161.7463 3.1099569e-16 21.715914)
(-161.92824 -3.168388e-16 22.888518)
(-162.10054 -3.2308533e-16 24.099881)
(-162.24008 -3.1900438e-16 25.346462)
(-162.33872 -1.0450139e-17 26.632103)
(-162.41398 -1.0948529e-17 27.96858)
(-162.48027 -3.2643833e-16 29.361607)
(-162.54842 -3.5574053e-16 30.81399)
(-162.64404 -3.7387994e-16 32.335694)
(-162.77668 -7.7284022e-19 33.939967)
(-162.94665 8.6301319e-19 35.632019)
(-163.1391 -3.8569627e-16 37.414897)
(-163.41264 -3.7998401e-16 39.313114)
(-163.69828 -2.7493717e-17 41.329937)
(-163.9846 1.2662535e-17 43.47016)
(-164.19212 5.1342513e-19 45.715419)
(-164.31408 8.5169585e-16 48.091206)
(-164.2825 -1.7906479e-17 50.607859)
(-164.13384 1.1357456e-17 53.299512)
(-163.82931 -3.0222623e-18 56.168456)
(-163.36082 2.6707232e-34 59.2065)
(-162.71258 -8.5386853e-19 62.418923)
(-161.75484 -1.4625085e-17 65.798102)
(-160.32023 1.984846e-17 69.334928)
(-158.28835 1.2187149e-17 73.044783)
(-155.52945 -6.7157064e-18 76.939222)
(-151.95302 1.9944544e-19 81.10479)
(-147.54229 -1.8209339e-17 85.659743)
(-142.35873 1.0491298e-15 90.749252)
(-136.60552 1.0959642e-15 96.501796)
(-130.57077 5.5146585e-16 102.50628)
(-125.91198 1.7572884e-17 109.04894)
(-122.35392 5.7707476e-16 115.80631)
(-118.87487 -3.7596164e-19 122.31314)
(-114.26699 6.1769402e-16 128.03698)
(-107.95967 -9.7090918e-18 132.47455)
(-99.847239 -1.2662095e-15 135.10156)
(-89.825102 6.5628445e-16 135.37871)
(-77.746089 -6.7131406e-16 132.46459)
(-64.081339 -3.2889205e-16 125.66964)
(-49.639702 -9.4438985e-18 114.62627)
(-35.371302 -6.8658993e-16 99.031605)
(-22.316004 2.373498e-18 79.408493)
(-12.126427 -1.7207901e-16 57.038932)
(-5.9630204 2.5521688e-18 33.482947)
(-2.6534709 -6.9748563e-20 15.073558)
(-187.97061 5.5183927e-19 -29.159216)
(-181.6166 5.2682186e-20 -29.488745)
(-183.39513 2.5848319e-20 -29.53183)
(-185.14024 -1.1072427e-15 -29.489175)
(-185.66212 -1.0574679e-21 -29.263391)
(-185.79056 -1.1005257e-15 -28.97757)
(-185.47175 1.097188e-15 -28.626115)
(-184.93762 3.8628345e-21 -28.247564)
(-184.16822 -1.0913722e-15 -27.842048)
(-183.17393 -2.7702371e-19 -27.414364)
(-181.91553 1.5234272e-19 -26.956332)
(-180.35304 -1.0848529e-15 -26.462068)
(-178.50323 1.0792135e-15 -25.934565)
(-176.51274 1.0719713e-15 -25.394575)
(-174.47782 1.065617e-15 -24.857367)
(-172.40679 -2.1178134e-15 -24.32545)
(-170.31589 -2.1042631e-15 -23.797654)
(-168.22112 1.0455512e-15 -23.274185)
(-166.12639 1.0855975e-19 -22.757899)
(-164.01841 -1.0707781e-19 -22.246664)
(-161.90852 -3.7836682e-21 -21.743524)
(-159.80516 -4.8426377e-22 -21.246631)
(-157.70087 4.8270532e-22 -20.756167)
(-155.59622 -1.3763059e-19 -20.267922)
(-153.48246 9.9716969e-16 -19.786412)
(-151.36454 9.4606138e-22 -19.309552)
(-149.23471 -9.2145085e-26 -18.837843)
(-147.10038 9.4013867e-26 -18.369539)
(-144.97779 9.6968752e-16 -17.910159)
(-142.88673 -9.1649727e-22 -17.459383)
(-140.77459 -9.5567088e-16 -17.010924)
(-138.64154 3.1736436e-24 -16.566175)
(-136.53654 1.7937907e-21 -16.126998)
(-134.4763 2.4809731e-19 -15.69667)
(-132.42193 -9.2565156e-16 -15.270815)
(-130.37606 3.4206439e-21 -14.850272)
(-128.34137 9.1084156e-16 -14.434264)
(-126.32299 -9.0327177e-16 -14.023143)
(-124.31762 8.9538887e-16 -13.615717)
(-122.30456 1.9949617e-19 -13.211028)
(-120.24686 3.6854968e-20 -12.804997)
(-118.10575 8.6938441e-16 -12.394663)
(-115.85814 -8.6039856e-16 -11.978588)
(-113.50806 4.2683412e-24 -11.558595)
(-111.07457 1.2426029e-19 -11.136161)
(-108.59638 -4.0575877e-20 -10.716024)
(-106.14631 -8.215218e-16 -10.30151)
(-103.79117 -4.1472439e-20 -9.891963)
(-101.46924 1.6025774e-15 -9.4782738)
(-98.762859 -3.956771e-16 -9.0398523)
(-95.153949 3.8999726e-16 -8.5381968)
(-90.573461 -3.4783936e-20 -7.9567837)
(-84.703531 -2.3039796e-20 -7.2999198)
(-76.862483 8.4058341e-20 -6.541802)
(-67.663948 2.6932286e-21 -5.7189063)
(-58.780737 3.3713224e-16 -4.9078281)
(-51.651477 -2.4227544e-21 -4.2701788)
(-49.623053 -3.1046015e-16 -3.9396289)
(-59.254939 9.0828861e-20 -4.3680396)
(-81.793335 4.9506801e-21 -5.4932467)
(-110.46414 -1.4005803e-19 -7.058348)
(-135.35119 -5.0236035e-21 -8.3599344)
(-151.74136 2.152182e-20 -9.0600537)
(-159.53366 3.3536698e-20 -9.177297)
(-163.00425 3.4234412e-20 -8.9485409)
(-164.28407 -5.3444438e-20 -8.5412481)
(-164.61857 -2.9745329e-20 -8.0562792)
(-164.54791 1.5780623e-16 -7.526623)
(-164.33519 -1.5771569e-16 -6.9688846)
(-164.07629 1.2037062e-35 -6.3938794)
(-163.66794 -6.0185311e-36 -5.7941299)
(-163.20749 1.5814174e-16 -5.1771927)
(-162.73195 2.0306682e-20 -4.5455734)
(-162.27724 -9.6621027e-21 -3.9116938)
(-161.25584 0 -3.2514308)
(-130.65758 6.5942522e-23 -3.0515515)
(-132.7685 -4.5571575e-23 -3.6164305)
(-135.43823 1.1312811e-16 -4.2296782)
(-137.99756 -9.0277966e-36 -4.8679469)
(-140.54508 3.9078089e-20 -5.5377139)
(-143.03791 -1.9061275e-18 -6.242953)
(-145.47431 3.9211755e-18 -6.9802193)
(-147.83343 -2.6036436e-16 -7.7433451)
(-150.11738 2.0526919e-18 -8.5342556)
(-152.32511 -5.3747912e-16 -9.3540236)
(-154.47981 2.7288171e-16 -10.204397)
(-156.57574 -5.5788892e-16 -11.081385)
(-158.61212 2.8499424e-16 -11.992749)
(-160.60274 -5.1621551e-21 -12.930892)
(-162.53027 1.2745138e-20 -13.900672)
(-164.35155 2.2250696e-20 -14.899265)
(-166.06434 -2.4116788e-22 -15.923902)
(-167.68983 -3.1954971e-16 -16.980622)
(-169.2338 3.2618062e-16 -18.067268)
(-170.7177 3.3303811e-16 -19.188884)
(-172.14628 1.1832965e-21 -20.347382)
(-173.52764 -6.9413097e-16 -21.544031)
(-174.88488 5.237957e-18 -22.784631)
(-176.22018 1.6115829e-20 -24.066498)
(-177.55292 3.5683818e-16 -25.401098)
(-178.8482 3.7559793e-16 -26.780297)
(-180.11823 5.9740274e-18 -28.210703)
(-181.35915 3.9041705e-16 -29.697118)
(-182.5578 -1.2472498e-17 -31.237867)
(-183.71078 -7.8561549e-16 -32.839662)
(-184.78458 4.0020391e-16 -34.502058)
(-185.79472 4.2087228e-16 -36.229465)
(-186.73793 -1.3432925e-17 -38.035512)
(-187.64215 4.641522e-16 -39.941058)
(-188.50946 -4.5885435e-16 -41.941818)
(-189.34485 -4.4098359e-16 -44.010285)
(-190.18036 -4.7626614e-16 -46.156711)
(-190.94589 -1.4727066e-17 -48.376721)
(-191.61387 -4.6198071e-16 -50.673163)
(-192.15097 -1.5659445e-18 -53.043478)
(-192.5148 1.7277146e-18 -55.481182)
(-192.67028 -5.1165019e-20 -57.984494)
(-192.57401 -5.0572132e-16 -60.55237)
(-192.19946 5.7644209e-20 -63.183741)
(-191.50608 5.2741554e-16 -65.888936)
(-190.505 -1.540744e-33 -68.678853)
(-189.15278 -1.0843253e-15 -71.536837)
(-187.43951 -5.530944e-16 -74.473123)
(-185.33876 5.6640978e-16 -77.482785)
(-182.82509 5.6983062e-16 -80.561443)
(-179.88994 3.0814879e-33 -83.716373)
(-176.51295 -6.0553757e-16 -86.939586)
(-172.67557 -5.8283648e-16 -90.21197)
(-168.39134 -3.0920298e-17 -93.507598)
(-163.68535 1.2407862e-15 -96.775289)
(-158.61758 3.9104426e-17 -99.936152)
(-153.28106 -1.2795556e-15 -102.92787)
(-147.63254 -6.4303831e-16 -105.68993)
(-141.45636 -4.1095084e-17 -108.11858)
(-134.61944 6.9389964e-16 -110.04613)
(-127.02746 2.0880949e-19 -111.35158)
(-118.63227 6.8424198e-16 -111.89783)
(-109.39016 6.9775564e-16 -111.47518)
(-99.289972 -7.0560328e-16 -109.80732)
(-88.237964 -7.1228856e-16 -106.67083)
(-76.361593 6.7401882e-18 -101.82698)
(-63.838316 -7.2085729e-16 -94.726733)
(-51.047844 2.1570415e-32 -85.044779)
(-38.472738 8.570086e-19 -72.589378)
(-26.159746 5.1098194e-19 -57.3366)
(-15.049756 -1.532318e-32 -39.875166)
(-7.4376005 -2.1976274e-19 -21.006549)
(-3.1702877 -1.2629065e-16 -8.1161483)
(-1.0000605 3.4518496e-17 -0.61948691)
(-1.3042794 5.3050045e-20 4.0431946)
(0.16864895 -1.8444119e-16 0.36006824)
(-1.3982327 -2.2664579e-16 0.15946304)
(-1.3725763 -4.4522871e-16 0.17159738)
(-2.0561938 2.4871546e-16 0.24900893)
(-2.6438675 1.2707807e-22 0.31396991)
(-3.4041872 -9.2754036e-21 0.39763202)
(-4.2139028 -3.0688343e-16 0.48461095)
(-5.1127559 2.1239051e-21 0.57967357)
(-6.0753719 3.4306623e-16 0.6801329)
(-7.1079542 2.9452169e-20 0.78321466)
(-8.2099111 7.528928e-16 0.88893397)
(-9.3685481 3.7545202e-20 0.9999748)
(-10.561237 -6.9994339e-26 1.112624)
(-11.786695 -3.0274006e-20 1.2254909)
(-13.041566 4.7606849e-26 1.337888)
(-14.320542 -4.4727688e-16 1.4495276)
(-15.620989 7.5273917e-20 1.5599469)
(-16.936418 -4.7069403e-16 1.6684217)
(-18.260864 6.2656767e-26 1.7745908)
(-19.5927 -8.1154934e-20 1.878008)
(-20.934287 -5.0155922e-16 1.9788756)
(-22.291562 -5.2830524e-22 2.0774363)
(-23.663855 -1.3410993e-25 2.1740594)
(-25.052078 1.1707574e-19 2.2682285)
(-26.453865 -6.4154454e-23 2.3601921)
(-27.868303 2.7309939e-38 2.4492645)
(-29.289467 2.38214e-20 2.5356161)
(-30.716985 5.6082562e-16 2.6183743)
(-32.151913 -3.2740809e-33 2.6980026)
(-33.603326 -1.8766896e-20 2.7744)
(-35.071909 -9.9310891e-20 2.8480262)
(-36.563128 -2.9449935e-16 2.9197019)
(-38.080462 -7.0977445e-23 2.9883146)
(-39.614301 -1.0936332e-20 3.0536133)
(-41.163104 -3.0416181e-16 3.1152444)
(-42.725086 3.0735844e-16 3.1731704)
(-44.300909 -3.6939599e-23 3.2269161)
(-45.896041 3.1333621e-16 3.2763534)
(-47.518335 3.1623177e-16 3.3216218)
(-49.167875 3.1907735e-16 3.363163)
(-50.846575 -3.2181969e-16 3.4002543)
(-52.552728 -3.2468837e-16 3.4322496)
(-54.28568 3.2733942e-16 3.459008)
(-56.040495 -6.3038282e-22 3.4803919)
(-57.8152 6.7322819e-20 3.4950587)
(-59.610112 -5.9753366e-20 3.5031332)
(-61.437311 -3.3761029e-16 3.5042398)
(-63.305738 -6.0797406e-20 3.4981826)
(-65.219168 -6.0612972e-20 3.4853217)
(-67.175558 3.4474884e-16 3.4655036)
(-69.173824 3.4708446e-16 3.4371189)
(-71.210412 -3.4919624e-16 3.3993161)
(-73.286412 3.7337746e-20 3.3529667)
(-75.405025 7.0565716e-16 3.2957674)
(-77.55359 -3.5427682e-16 3.2249368)
(-79.719248 -1.0357414e-20 3.1391185)
(-81.904437 -1.7890712e-16 3.0386838)
(-84.118974 -1.7993023e-16 2.9240294)
(-86.364414 -1.8099031e-16 2.7948854)
(-88.637131 1.820741e-16 2.6505715)
(-90.933027 3.6636257e-16 2.4882013)
(-93.244111 2.8172191e-21 2.3079253)
(-95.577785 3.7063798e-16 2.1073025)
(-97.943423 -1.8634546e-16 1.8854626)
(-100.35849 2.9885931e-20 1.6416944)
(-102.82078 9.4195557e-17 1.3748409)
(-105.32448 -2.8970499e-21 1.0867812)
(-107.86987 9.5263015e-17 0.7815606)
(-110.4627 -9.5778273e-17 0.44590138)
(-113.11865 4.814629e-17 0.034177789)
(-115.8494 -2.420075e-17 -0.39178294)
(-118.62704 1.3322534e-20 -0.86236228)
(-121.44439 2.4481543e-17 -1.3838635)
(-124.29402 -1.8788198e-20 -1.9245993)
(-127.64739 -9.879572e-17 -2.4839846)
)
;
    }
    inlet
    {
        type            calculated;
        value           uniform (0 0 0);
    }
    outlet
    {
        type            calculated;
        value           uniform (0 0 0);
    }
    back
    {
        type            empty;
    }
    front
    {
        type            empty;
    }
}


// ************************************************************************* //
