/*--------------------------------*- C++ -*----------------------------------*\
  =========                 |
  \\      /  F ield         | OpenFOAM: The Open Source CFD Toolbox
   \\    /   O peration     | Website:  https://openfoam.org
    \\  /    A nd           | Version:  8
     \\/     M anipulation  |
\*---------------------------------------------------------------------------*/
FoamFile
{
    version     2.0;
    format      ascii;
    class       volScalarField;
    location    "0.140008";
    object      yPlus;
}
// * * * * * * * * * * * * * * * * * * * * * * * * * * * * * * * * * * * * * //

dimensions      [0 0 0 0 0 0 0];

internalField   uniform 0;

boundaryField
{
    aerofoil
    {
        type            calculated;
        value           nonuniform List<scalar> 
300
(
126.38405
125.58696
124.82501
124.10792
123.44172
122.82198
122.24732
121.71625
121.22611
120.78144
120.37539
120.00493
119.67687
119.37598
119.11179
118.88631
118.68687
118.52217
118.37807
118.26248
118.17435
118.10885
118.07621
118.05768
118.06956
118.09583
118.14402
118.22372
118.31583
118.42741
118.55455
118.69848
118.84931
119.0009
119.16264
119.34416
119.54684
119.78095
120.05482
120.37735
120.73151
121.14942
121.60216
122.10947
122.62231
123.15652
123.6748
124.20907
124.75507
125.31159
125.88415
126.44273
126.93167
127.32514
127.6069
127.79428
127.92711
128.14045
128.60332
129.36765
131.15145
133.88133
137.18212
140.54968
143.65447
146.27858
148.22453
148.8848
147.70319
144.04349
136.82364
125.01673
107.69958
83.293513
55.963171
164.10617
169.5396
169.5201
169.84917
169.51862
169.12836
168.54391
167.90473
167.18416
166.38748
165.49365
164.48434
163.35945
162.18101
160.99126
159.79198
158.58749
157.38757
156.19133
154.99229
153.79158
152.5962
151.39899
150.20382
149.00123
147.79728
146.58348
145.36814
144.15514
142.95646
141.74363
140.51552
139.29807
138.09898
136.89874
135.69766
134.49594
133.29723
132.10065
130.89716
129.6693
128.39662
127.06199
125.66299
124.20285
122.69217
121.15858
119.63086
118.10394
116.41227
114.22822
111.44003
107.92038
103.06879
96.901165
90.346087
84.558105
82.096805
87.610897
99.091643
110.57242
118.54201
123.56658
125.65788
126.6126
126.94803
127.03814
127.02837
126.98916
126.98816
126.94454
126.90026
126.86072
126.84232
126.80007
130.20063
130.28221
130.53844
130.74377
130.9769
131.19874
131.42895
131.64874
131.8669
132.07739
132.29631
132.51596
132.73954
132.96595
133.20035
133.42793
133.64033
133.85099
134.05973
134.27861
134.51151
134.75759
135.03251
135.32737
135.66265
136.01497
136.38905
136.78792
137.20004
137.6274
138.05874
138.50014
138.94436
139.40665
139.89244
140.40423
140.95057
141.50271
142.05405
142.59506
143.10631
143.57839
143.99158
144.35493
144.63485
144.86365
145.01345
145.09528
145.111
145.0521
144.92788
144.75239
144.52867
144.27233
144.005
143.75129
143.54153
143.40971
143.24387
142.99919
142.58692
141.9812
141.10719
139.834
137.9544
135.31367
131.46912
125.91456
117.95845
106.39204
89.955343
66.395753
41.9618
13.583472
28.971801
7.2056952
15.224813
15.036616
18.388331
20.818572
23.591847
26.210316
28.828949
31.380596
33.890849
36.367777
38.790253
41.123331
43.377172
45.558716
47.667981
49.710136
51.683068
53.585809
55.42315
57.204061
58.942224
60.639674
62.301567
63.926872
65.518441
67.071058
68.587831
70.070599
71.531931
72.973267
74.400301
75.818134
77.218001
78.599006
79.960537
81.303538
82.633555
83.957501
85.274808
86.58763
87.89522
89.196491
90.488007
91.768815
93.038776
94.306478
95.578558
96.857234
98.140977
99.427982
100.71723
102.00796
103.30321
104.59169
105.86334
107.11964
108.37047
109.61653
110.85592
112.08602
113.30177
114.50743
115.70834
116.91393
118.12566
119.33735
120.55298
121.77222
123.0036
124.25277
125.5069
126.7632
128.02052
129.33957
)
;
    }
    inlet
    {
        type            calculated;
        value           uniform 0;
    }
    outlet
    {
        type            calculated;
        value           uniform 0;
    }
    back
    {
        type            empty;
    }
    front
    {
        type            empty;
    }
}


// ************************************************************************* //
