/*--------------------------------*- C++ -*----------------------------------*\
  =========                 |
  \\      /  F ield         | OpenFOAM: The Open Source CFD Toolbox
   \\    /   O peration     | Website:  https://openfoam.org
    \\  /    A nd           | Version:  8
     \\/     M anipulation  |
\*---------------------------------------------------------------------------*/
FoamFile
{
    version     2.0;
    format      ascii;
    class       volScalarField;
    location    "0.0999939";
    object      alphat;
}
// * * * * * * * * * * * * * * * * * * * * * * * * * * * * * * * * * * * * * //

dimensions      [1 -1 -1 0 0 0 0];

internalField   nonuniform List<scalar> 
20000
(
0.0010469019
0.0025555612
0.0033774688
0.0036086135
0.0031364925
0.0014998956
9.3024284e-05
5.0789832e-09
3.4065549e-09
3.3733539e-09
3.2277982e-09
3.2549601e-09
3.1847174e-09
3.2197797e-09
3.2075185e-09
3.2506395e-09
3.2699689e-09
3.3224134e-09
3.3702516e-09
3.4472603e-09
3.5339678e-09
3.6536186e-09
3.7985664e-09
3.9857666e-09
4.2157905e-09
4.5080314e-09
4.85255e-09
5.2353136e-09
5.6447609e-09
6.0644599e-09
6.4727162e-09
6.8542967e-09
7.1965677e-09
7.4918814e-09
7.7380714e-09
7.9383258e-09
8.097209e-09
8.2235299e-09
8.3224737e-09
8.4012169e-09
8.4634714e-09
8.5126835e-09
8.5553548e-09
8.5978013e-09
8.6468756e-09
8.6803769e-09
8.6923475e-09
8.683953e-09
8.6514485e-09
8.6493253e-09
0.0010380938
0.0024955826
0.0032544153
0.0034270702
0.0029129124
0.0012458086
3.3036425e-05
4.1975191e-09
3.2450638e-09
3.2188773e-09
3.0822796e-09
3.1109994e-09
3.0452352e-09
3.0816989e-09
3.0722366e-09
3.1171743e-09
3.1392937e-09
3.1948102e-09
3.24694e-09
3.3293127e-09
3.423342e-09
3.5520767e-09
3.7091926e-09
3.9114211e-09
4.1629286e-09
4.4718614e-09
4.8305768e-09
5.2271591e-09
5.6443529e-09
6.0700804e-09
6.4847274e-09
6.8688808e-09
7.2104622e-09
7.5039916e-09
7.7479436e-09
7.946015e-09
8.1031102e-09
8.2279817e-09
8.3259409e-09
8.4042294e-09
8.4661036e-09
8.5148411e-09
8.5573667e-09
8.6019014e-09
8.6513315e-09
8.6809832e-09
8.6933487e-09
8.684477e-09
8.6507561e-09
8.6487277e-09
0.0010227913
0.0024318055
0.0031431268
0.0032623179
0.0027092391
0.0010284684
9.0999074e-06
3.7650096e-09
3.1207515e-09
3.1009609e-09
2.9719415e-09
3.0025313e-09
2.9406906e-09
2.978391e-09
2.9712712e-09
3.017608e-09
3.0422881e-09
3.1006765e-09
3.1569057e-09
3.2444429e-09
3.3455136e-09
3.4832236e-09
3.6540404e-09
3.8744705e-09
4.1403872e-09
4.4611069e-09
4.8279313e-09
5.2277963e-09
5.6533692e-09
6.0865609e-09
6.5038894e-09
6.8879696e-09
7.2278131e-09
7.5184135e-09
7.7591662e-09
7.9543036e-09
8.10909e-09
8.2322953e-09
8.3291543e-09
8.4069853e-09
8.4685835e-09
8.5169505e-09
8.5595135e-09
8.6071626e-09
8.6573664e-09
8.6848671e-09
8.6944165e-09
8.6789088e-09
8.6511812e-09
8.6469675e-09
0.0010087064
0.0023748749
0.0030413443
0.0031156776
0.0025188742
0.00084170006
2.273597e-06
3.5253124e-09
3.0266807e-09
3.0123695e-09
2.8895934e-09
2.9220736e-09
2.8633123e-09
2.9022213e-09
2.8972793e-09
2.9453799e-09
2.9730267e-09
3.0351003e-09
3.096097e-09
3.1896998e-09
3.3004321e-09
3.4501545e-09
3.631423e-09
3.8598036e-09
4.1326269e-09
4.4581357e-09
4.8277819e-09
5.2405906e-09
5.676348e-09
6.1147387e-09
6.5337844e-09
6.9163286e-09
7.2524831e-09
7.5386484e-09
7.7749683e-09
7.9661927e-09
8.1178776e-09
8.2387346e-09
8.3339681e-09
8.4109503e-09
8.4718815e-09
8.5194965e-09
8.5620479e-09
8.6131853e-09
8.6615253e-09
8.6869933e-09
8.6957419e-09
8.677548e-09
8.650473e-09
8.6457955e-09
0.00099696822
0.0023253806
0.0029513113
0.0029875791
0.0023366478
0.00068210463
5.8825532e-07
3.3811878e-09
2.9579785e-09
2.9484675e-09
2.830524e-09
2.8646194e-09
2.8081258e-09
2.8484264e-09
2.845959e-09
2.8965239e-09
2.9276982e-09
2.9941684e-09
3.0626102e-09
3.1640303e-09
3.2813345e-09
3.4361967e-09
3.6225698e-09
3.8562503e-09
4.1320011e-09
4.4632364e-09
4.8464112e-09
5.2689746e-09
5.7121522e-09
6.1540145e-09
6.5723204e-09
6.9512804e-09
7.2822589e-09
7.5627121e-09
7.7935719e-09
7.9800848e-09
8.128049e-09
8.2461319e-09
8.3394394e-09
8.4153774e-09
8.4754783e-09
8.5222123e-09
8.5648964e-09
8.6193837e-09
8.6657835e-09
8.6896214e-09
8.6972447e-09
8.6748691e-09
8.6496457e-09
8.6445398e-09
0.00098533266
0.0022793685
0.0028676778
0.0028640587
0.0021584072
0.00054969424
1.7051035e-07
3.289928e-09
2.9084544e-09
2.9028897e-09
2.7886595e-09
2.8240629e-09
2.7699084e-09
2.8124107e-09
2.8133004e-09
2.8683818e-09
2.9047083e-09
2.9761295e-09
3.0481879e-09
3.1530387e-09
3.2738214e-09
3.4323198e-09
3.6211657e-09
3.8568502e-09
4.1433041e-09
4.4866057e-09
4.8795222e-09
5.3117448e-09
5.7608641e-09
6.2040421e-09
6.6198184e-09
6.993445e-09
7.3176478e-09
7.5911058e-09
7.8154772e-09
7.9964712e-09
8.1400765e-09
8.2548974e-09
8.3459167e-09
8.4205405e-09
8.4795675e-09
8.5252529e-09
8.5682719e-09
8.6256253e-09
8.6695387e-09
8.6917618e-09
8.6985964e-09
8.6730337e-09
8.6485668e-09
8.6435443e-09
0.00097659145
0.0022392379
0.0027918326
0.0027502365
0.0019822949
0.00043588279
5.7037322e-08
3.2284776e-09
2.8728385e-09
2.8710585e-09
2.7605619e-09
2.7992643e-09
2.7489414e-09
2.7949125e-09
2.7988147e-09
2.8562138e-09
2.8946474e-09
2.9684434e-09
3.0428333e-09
3.1501888e-09
3.2725426e-09
3.4324441e-09
3.6276595e-09
3.8741641e-09
4.170711e-09
4.5245534e-09
4.9284113e-09
5.368404e-09
5.8214638e-09
6.264063e-09
6.6753173e-09
7.0418617e-09
7.3578671e-09
7.623173e-09
7.8401376e-09
8.0148984e-09
8.1535884e-09
8.2647421e-09
8.3531825e-09
8.4262701e-09
8.4840343e-09
8.5286395e-09
8.5723975e-09
8.6317712e-09
8.6730948e-09
8.6935966e-09
8.699366e-09
8.6711053e-09
8.64754e-09
8.6426922e-09
0.00096814419
0.0022008924
0.0027190527
0.0026400294
0.0018082215
0.00033719763
2.3108682e-08
3.1897197e-09
2.851132e-09
2.8538389e-09
2.7469775e-09
2.7876703e-09
2.7396761e-09
2.7871136e-09
2.7925422e-09
2.8511877e-09
2.8912899e-09
2.966479e-09
3.0418103e-09
3.1501674e-09
3.2773776e-09
3.4452361e-09
3.6490031e-09
3.9043529e-09
4.2121408e-09
4.5774612e-09
4.9909777e-09
5.4378093e-09
5.8932155e-09
6.3333567e-09
6.738316e-09
7.0961733e-09
7.4026302e-09
7.6587116e-09
7.8674222e-09
8.0352918e-09
8.1685547e-09
8.2756611e-09
8.3612506e-09
8.4325699e-09
8.4888693e-09
8.5324642e-09
8.5775979e-09
8.6376878e-09
8.6762388e-09
8.6950354e-09
8.6997608e-09
8.6693655e-09
8.6465624e-09
8.6420227e-09
0.00096113588
0.0021651667
0.0026476143
0.0025279061
0.001635695
0.0002504115
1.1567726e-08
3.1656348e-09
2.8388725e-09
2.8448135e-09
2.7402542e-09
2.7828863e-09
2.7360839e-09
2.7844903e-09
2.7908759e-09
2.8498812e-09
2.8906409e-09
2.9670421e-09
3.0467197e-09
3.1610218e-09
3.2946084e-09
3.469203e-09
3.6818178e-09
3.9478416e-09
4.2669747e-09
4.6434775e-09
5.0665708e-09
5.5190335e-09
5.9751574e-09
6.4110789e-09
6.8080136e-09
7.1556788e-09
7.451373e-09
7.6972757e-09
7.8969844e-09
8.0573865e-09
8.1847796e-09
8.2875138e-09
8.3700226e-09
8.4393589e-09
8.4939934e-09
8.5367661e-09
8.5841433e-09
8.6432907e-09
8.6789795e-09
8.6961103e-09
8.6998634e-09
8.6676922e-09
8.6456742e-09
8.6414754e-09
0.00095428036
0.0021308294
0.0025771863
0.0024210268
0.0014660946
0.00017321225
7.0832657e-09
3.1501223e-09
2.836122e-09
2.8400389e-09
2.7369372e-09
2.7782344e-09
2.7349693e-09
2.7835845e-09
2.7910865e-09
2.8524171e-09
2.8966759e-09
2.9774745e-09
3.0615177e-09
3.1807565e-09
3.320982e-09
3.5037416e-09
3.7259673e-09
4.0026951e-09
4.3338355e-09
4.7218795e-09
5.1539941e-09
5.6110715e-09
6.0663961e-09
6.4963922e-09
6.8836955e-09
7.2197881e-09
7.5036202e-09
7.7384997e-09
7.9285505e-09
8.0809817e-09
8.202124e-09
8.300207e-09
8.3794319e-09
8.4465801e-09
8.4993397e-09
8.5415408e-09
8.5920526e-09
8.6486055e-09
8.6814366e-09
8.6968195e-09
8.6998801e-09
8.6661247e-09
8.644841e-09
8.6410188e-09
0.00094867763
0.0020989375
0.0025120679
0.0023160555
0.001299165
0.00010501484
5.1203855e-09
3.1407266e-09
2.832836e-09
2.8363687e-09
2.7330706e-09
2.7749398e-09
2.7376843e-09
2.7885439e-09
2.7988843e-09
2.8629094e-09
2.9103536e-09
2.9947899e-09
3.0838291e-09
3.2090165e-09
3.3564496e-09
3.547506e-09
3.7799103e-09
4.0683379e-09
4.4120253e-09
4.8117124e-09
5.2524645e-09
5.7130266e-09
6.1660057e-09
6.5884233e-09
6.9645695e-09
7.2878269e-09
7.5588279e-09
7.7819592e-09
7.9617963e-09
8.1058344e-09
8.2204123e-09
8.31362e-09
8.3893882e-09
8.4541559e-09
8.5048202e-09
8.5467202e-09
8.6005896e-09
8.6540752e-09
8.6839608e-09
8.6972222e-09
8.6992967e-09
8.6646099e-09
8.6440319e-09
8.6406132e-09
0.00094284382
0.0020679842
0.002448722
0.0022113358
0.001137247
5.1913571e-05
4.188277e-09
3.1392415e-09
2.8330182e-09
2.8373859e-09
2.7352929e-09
2.7775747e-09
2.7463142e-09
2.7996264e-09
2.8125016e-09
2.8793486e-09
2.9304366e-09
3.0191363e-09
3.1133082e-09
3.2444794e-09
3.3995336e-09
3.5997167e-09
3.8431191e-09
4.1439379e-09
4.5008205e-09
4.9123283e-09
5.3611376e-09
5.8240186e-09
6.2730911e-09
6.6863177e-09
7.0498786e-09
7.3591594e-09
7.6164842e-09
7.827257e-09
7.9964191e-09
8.1317171e-09
8.2394816e-09
8.3276423e-09
8.3998129e-09
8.4620171e-09
8.5104367e-09
8.5522031e-09
8.6092757e-09
8.6596339e-09
8.6866692e-09
8.6975135e-09
8.697794e-09
8.6631067e-09
8.6432099e-09
8.6402375e-09
0.00093764659
0.0020382351
0.0023869372
0.0021062215
0.00098287308
2.0246311e-05
3.7340502e-09
3.1423561e-09
2.8429526e-09
2.8440988e-09
2.7465909e-09
2.788323e-09
2.7604058e-09
2.8161515e-09
2.8317847e-09
2.901489e-09
2.9562369e-09
3.0491666e-09
3.1488386e-09
3.2865625e-09
3.4498689e-09
3.659827e-09
3.9150568e-09
4.2291807e-09
4.5998366e-09
5.023173e-09
5.4793477e-09
5.9432288e-09
6.3867709e-09
6.7892192e-09
7.1388506e-09
7.4331307e-09
7.6760605e-09
7.8739811e-09
8.0321036e-09
8.1583921e-09
8.2591598e-09
8.3421578e-09
8.4106288e-09
8.4700888e-09
8.5161589e-09
8.5579174e-09
8.617681e-09
8.6650362e-09
8.689634e-09
8.6982357e-09
8.6953682e-09
8.661405e-09
8.6423614e-09
8.639878e-09
0.00093223204
0.0020090057
0.0023255397
0.001998982
0.00083762321
6.528519e-06
3.5016657e-09
3.1446705e-09
2.8532104e-09
2.8567795e-09
2.7616609e-09
2.8047707e-09
2.7793331e-09
2.8372546e-09
2.855604e-09
2.9283157e-09
2.9869569e-09
3.0844645e-09
3.1900049e-09
3.3347193e-09
3.5069228e-09
3.727495e-09
3.9954808e-09
4.3237538e-09
4.7087084e-09
5.1437508e-09
5.6064047e-09
6.0698309e-09
6.5061798e-09
6.8962993e-09
7.23075e-09
7.5091235e-09
7.7370619e-09
7.9217466e-09
8.0685542e-09
8.1856352e-09
8.2792834e-09
8.3570548e-09
8.4217653e-09
8.4783189e-09
8.5219954e-09
8.5638778e-09
8.6256086e-09
8.6700072e-09
8.6925642e-09
8.7001081e-09
8.6921224e-09
8.659542e-09
8.6415046e-09
8.6395288e-09
0.00092739563
0.0019807556
0.0022646422
0.0018911982
0.00070270827
1.894701e-06
3.3827333e-09
3.1515549e-09
2.8658815e-09
2.8724398e-09
2.7796608e-09
2.8250508e-09
2.8019892e-09
2.8622645e-09
2.883574e-09
2.9594075e-09
3.0221978e-09
3.1245588e-09
3.2364306e-09
3.3887437e-09
3.5705924e-09
3.8026351e-09
4.0843323e-09
4.4276237e-09
4.8272746e-09
5.2736824e-09
5.7416999e-09
6.2030467e-09
6.6304709e-09
7.0067388e-09
7.3248448e-09
7.5865228e-09
7.7989952e-09
7.9701691e-09
8.1054755e-09
8.2132223e-09
8.2996892e-09
8.3722188e-09
8.4331454e-09
8.4866855e-09
8.5279884e-09
8.5702363e-09
8.6329877e-09
8.6745306e-09
8.6953613e-09
8.7020128e-09
8.688749e-09
8.6576285e-09
8.640666e-09
8.6391884e-09
0.00092288163
0.0019536525
0.002203898
0.0017796185
0.00057917145
5.4302616e-07
3.3248546e-09
3.1620155e-09
2.8821643e-09
2.891697e-09
2.8012516e-09
2.8488933e-09
2.8281282e-09
2.89085e-09
2.9152401e-09
2.9944372e-09
3.0616622e-09
3.1692478e-09
3.2879669e-09
3.448495e-09
3.6407793e-09
3.8852122e-09
4.1816194e-09
4.5407216e-09
4.9553322e-09
5.4125313e-09
5.884574e-09
6.3420781e-09
6.7588043e-09
7.1197476e-09
7.4204454e-09
7.6647599e-09
7.8614098e-09
8.0188967e-09
8.1425967e-09
8.2409464e-09
8.3202261e-09
8.3875407e-09
8.4446772e-09
8.4951196e-09
8.5342287e-09
8.5772573e-09
8.6397901e-09
8.6786269e-09
8.6977191e-09
8.7034599e-09
8.6851509e-09
8.6557375e-09
8.6398649e-09
8.63886e-09
0.00091874798
0.0019280488
0.0021446342
0.0016630224
0.0004684185
1.6845971e-07
3.3007903e-09
3.1756204e-09
2.9013783e-09
2.9137949e-09
2.8258453e-09
2.8756545e-09
2.8574001e-09
2.9227067e-09
2.950459e-09
3.0331886e-09
3.1052063e-09
3.2184378e-09
3.3445821e-09
3.5140324e-09
3.7176069e-09
3.9754109e-09
4.2875351e-09
4.663187e-09
5.0928068e-09
5.5599576e-09
6.0344274e-09
6.4861596e-09
6.8903679e-09
7.2345549e-09
7.516879e-09
7.7432825e-09
7.9238683e-09
8.0675851e-09
8.1796537e-09
8.2686069e-09
8.3407479e-09
8.4029146e-09
8.4562646e-09
8.5034951e-09
8.5408097e-09
8.5851658e-09
8.6459757e-09
8.6822744e-09
8.6995335e-09
8.7043205e-09
8.6815943e-09
8.6539383e-09
8.6391101e-09
8.6385496e-09
0.00091508808
0.0019038129
0.0020937231
0.0015406084
0.00037339213
6.1322888e-08
3.2960918e-09
3.1920305e-09
2.9233215e-09
2.9385463e-09
2.8533113e-09
2.9053133e-09
2.8896844e-09
2.9577459e-09
2.9890473e-09
3.0756011e-09
3.1527812e-09
3.2721331e-09
3.4063221e-09
3.5854355e-09
3.8011937e-09
4.0734007e-09
4.4022448e-09
4.7950675e-09
5.2395118e-09
5.7154905e-09
6.1905613e-09
6.6344747e-09
7.0243437e-09
7.3504159e-09
7.6135173e-09
7.8215884e-09
7.9859787e-09
8.1159265e-09
8.2164096e-09
8.2960263e-09
8.3611227e-09
8.4182443e-09
8.4678405e-09
8.5119873e-09
8.5477575e-09
8.5938228e-09
8.6517105e-09
8.6854229e-09
8.7008983e-09
8.7045894e-09
8.6782619e-09
8.652244e-09
8.6383987e-09
8.6382495e-09
0.0009115549
0.0018788223
0.002037482
0.0014114897
0.00028788383
2.6561984e-08
3.3021645e-09
3.2108331e-09
2.947838e-09
2.9658197e-09
2.883373e-09
2.9377223e-09
2.9249031e-09
2.9958488e-09
3.0309897e-09
3.1216155e-09
3.2044254e-09
3.3304217e-09
3.4733433e-09
3.6629184e-09
3.8918339e-09
4.1795366e-09
4.5260983e-09
4.936563e-09
5.3953699e-09
5.8787275e-09
6.3523222e-09
6.7862425e-09
7.159937e-09
7.4666084e-09
7.7097534e-09
7.8991942e-09
8.0473631e-09
8.1636297e-09
8.2526374e-09
8.3230395e-09
8.3812261e-09
8.4334365e-09
8.4793072e-09
8.5204093e-09
8.5550716e-09
8.6029962e-09
8.6572313e-09
8.6881461e-09
8.7019181e-09
8.7045865e-09
8.6751487e-09
8.6506519e-09
8.6377248e-09
8.6379509e-09
0.00090836163
0.0018542753
0.0019834122
0.00127838
0.00021103763
1.3988084e-08
3.3151263e-09
3.232243e-09
2.9748753e-09
2.9956297e-09
2.9160994e-09
2.972855e-09
2.9629818e-09
3.0369875e-09
3.0762533e-09
3.171319e-09
3.260243e-09
3.3934432e-09
3.5458113e-09
3.746691e-09
3.989795e-09
4.2941254e-09
4.6593452e-09
5.0877172e-09
5.5601156e-09
6.0491012e-09
6.5189367e-09
6.9406186e-09
7.2963388e-09
7.5824384e-09
7.8050288e-09
7.9756623e-09
8.1076866e-09
8.2104541e-09
8.2881398e-09
8.349506e-09
8.4009506e-09
8.4484068e-09
8.4906039e-09
8.5287306e-09
8.5626771e-09
8.6125078e-09
8.6627064e-09
8.6905262e-09
8.7024183e-09
8.7044835e-09
8.6722692e-09
8.6491558e-09
8.6370789e-09
8.6376473e-09
0.00090548529
0.0018294815
0.0019282376
0.0011453572
0.0001423483
8.8732056e-09
3.3328811e-09
3.2560681e-09
3.0043425e-09
3.0278911e-09
2.9513241e-09
3.0106168e-09
3.0038775e-09
3.0811811e-09
3.1249265e-09
3.2248132e-09
3.3203932e-09
3.4613983e-09
3.6239863e-09
3.8370952e-09
4.0955204e-09
4.4176612e-09
4.8024071e-09
5.2487017e-09
5.7335725e-09
6.2260974e-09
6.6896682e-09
7.0967757e-09
7.4327685e-09
7.6972522e-09
7.898821e-09
8.0505762e-09
8.1666342e-09
8.2561916e-09
8.3227347e-09
8.3752902e-09
8.4202001e-09
8.4630738e-09
8.5016598e-09
8.5369022e-09
8.5704876e-09
8.6221149e-09
8.6681571e-09
8.6928641e-09
8.7027058e-09
8.7034746e-09
8.6696353e-09
8.6477394e-09
8.6364475e-09
8.6373316e-09
0.00090287584
0.0018042065
0.0018722574
0.0010196954
8.4198927e-05
6.5603749e-09
3.3541223e-09
3.2822146e-09
3.036064e-09
3.0624941e-09
2.9890456e-09
3.0509851e-09
3.0476566e-09
3.1285138e-09
3.1771521e-09
3.2822811e-09
3.3850587e-09
3.5344955e-09
3.7081202e-09
3.9344678e-09
4.2094087e-09
4.5505544e-09
4.9555348e-09
5.4194718e-09
5.9153214e-09
6.408991e-09
6.8636108e-09
7.2537922e-09
7.5684343e-09
7.8104435e-09
7.9906717e-09
8.1235783e-09
8.2239541e-09
8.300682e-09
8.3562798e-09
8.4002604e-09
8.4388981e-09
8.4773663e-09
8.5124195e-09
8.5449079e-09
8.578443e-09
8.6315271e-09
8.6734616e-09
8.6953306e-09
8.7029156e-09
8.7010275e-09
8.6672405e-09
8.6463741e-09
8.6358174e-09
8.6369967e-09
0.00090048649
0.0017766532
0.0018137734
0.00090017946
4.1536222e-05
5.4284218e-09
3.378463e-09
3.3105839e-09
3.0700461e-09
3.0993887e-09
3.0292528e-09
3.0940639e-09
3.0944416e-09
3.1791646e-09
3.2330969e-09
3.3438823e-09
3.4544454e-09
3.6130012e-09
3.7985835e-09
4.0392906e-09
4.3320572e-09
4.6933908e-09
5.1191496e-09
5.6000854e-09
6.1050155e-09
6.5970857e-09
7.0398818e-09
7.4107796e-09
7.7026047e-09
7.9214722e-09
8.0801767e-09
8.1943661e-09
8.2794599e-09
8.3437568e-09
8.3886592e-09
8.4242692e-09
8.4569753e-09
8.4912198e-09
8.5228371e-09
8.5527762e-09
8.5865745e-09
8.640475e-09
8.6783801e-09
8.6976362e-09
8.7040862e-09
8.6973137e-09
8.6647769e-09
8.645021e-09
8.6351809e-09
8.6366351e-09
0.00089779726
0.0017459526
0.0017517146
0.00078777101
1.7076552e-05
4.8487312e-09
3.4053664e-09
3.3411892e-09
3.1061364e-09
3.1386783e-09
3.0720843e-09
3.1400477e-09
3.1444177e-09
3.23329e-09
3.29293e-09
3.4098124e-09
3.5287732e-09
3.6972079e-09
3.8957476e-09
4.1520502e-09
4.4639761e-09
4.8466295e-09
5.2934101e-09
5.7903231e-09
6.3019956e-09
6.7894407e-09
7.2174383e-09
7.5668187e-09
7.8346121e-09
8.029862e-09
8.166993e-09
8.2627374e-09
8.3330747e-09
8.385213e-09
8.4197901e-09
8.4471828e-09
8.4743642e-09
8.5045834e-09
8.5328832e-09
8.5605728e-09
8.5950421e-09
8.6486961e-09
8.6829252e-09
8.6998408e-09
8.705108e-09
8.6930825e-09
8.6622548e-09
8.6436889e-09
8.6345392e-09
8.6362396e-09
0.00089493757
0.0017121126
0.0016852305
0.00068272857
6.1261343e-06
4.5458308e-09
3.4347227e-09
3.374015e-09
3.1448927e-09
3.180689e-09
3.1177974e-09
3.1890854e-09
3.1977426e-09
3.2910382e-09
3.3568015e-09
3.4802486e-09
3.6083155e-09
3.7874978e-09
4.0001405e-09
4.2733851e-09
4.6058935e-09
5.0108766e-09
5.4786421e-09
5.9900252e-09
6.5056618e-09
6.9851391e-09
7.3953051e-09
7.7211547e-09
7.9639574e-09
8.1351957e-09
8.2508017e-09
8.3285683e-09
8.3847633e-09
8.4247836e-09
8.449567e-09
8.4689312e-09
8.4909776e-09
8.5174163e-09
8.5425406e-09
8.568372e-09
8.6039769e-09
8.6559469e-09
8.6868889e-09
8.7016563e-09
8.7055666e-09
8.6887191e-09
8.659749e-09
8.6424021e-09
8.6338947e-09
8.6358032e-09
0.00089165371
0.0016744857
0.0016113692
0.00058694064
2.0758765e-06
4.3915288e-09
3.4669822e-09
3.409493e-09
3.1862316e-09
3.2255711e-09
3.1664935e-09
3.2412699e-09
3.2545058e-09
3.3525286e-09
3.4248838e-09
3.5554344e-09
3.6934004e-09
3.8843053e-09
4.112301e-09
4.4039166e-09
4.7584082e-09
5.1865281e-09
5.6748235e-09
6.1986666e-09
6.7150568e-09
7.1830129e-09
7.572461e-09
7.8731887e-09
8.0902618e-09
8.2370584e-09
8.3312753e-09
8.3917732e-09
8.4343841e-09
8.4622754e-09
8.4778151e-09
8.4896016e-09
8.5067198e-09
8.5296907e-09
8.5518029e-09
8.5762234e-09
8.6134272e-09
8.6621104e-09
8.6900385e-09
8.7028664e-09
8.7057538e-09
8.6842225e-09
8.6573742e-09
8.6411808e-09
8.6332472e-09
8.6353192e-09
0.0008880622
0.0016333059
0.0015267034
0.00050629609
7.0314641e-07
4.3160968e-09
3.5018995e-09
3.4474352e-09
3.2302323e-09
3.2732309e-09
3.2182108e-09
3.2966881e-09
3.3148221e-09
3.4179175e-09
3.4973754e-09
3.6356572e-09
3.7844383e-09
3.9881917e-09
4.2329182e-09
4.5444506e-09
4.9223131e-09
5.3741467e-09
5.8820556e-09
6.4157923e-09
6.9292742e-09
7.3820252e-09
7.7481796e-09
8.0226316e-09
8.2131871e-09
8.3349975e-09
8.4080651e-09
8.4521651e-09
8.4813708e-09
8.49784e-09
8.5042626e-09
8.5094351e-09
8.5215262e-09
8.5413807e-09
8.5606689e-09
8.5841271e-09
8.622931e-09
8.6675688e-09
8.6924252e-09
8.7034421e-09
8.705748e-09
8.6800916e-09
8.6551702e-09
8.6400284e-09
8.6325925e-09
8.6347817e-09
0.0008842866
0.0015897175
0.0014337195
0.00042583332
2.4339444e-07
4.2862376e-09
3.5392979e-09
3.4879175e-09
3.2769694e-09
3.3236144e-09
3.2730207e-09
3.3554445e-09
3.3788424e-09
3.487379e-09
3.5745539e-09
3.7213057e-09
3.8819321e-09
4.0997597e-09
4.3626855e-09
4.6957185e-09
5.0982077e-09
5.5739618e-09
6.1000001e-09
6.6404933e-09
7.1470697e-09
7.5810711e-09
7.9219359e-09
8.1691729e-09
8.3320349e-09
8.4284911e-09
8.4809208e-09
8.5093269e-09
8.5254188e-09
8.5315891e-09
8.5287474e-09
8.5286092e-09
8.5354609e-09
8.5524579e-09
8.569139e-09
8.5920533e-09
8.6323367e-09
8.6725365e-09
8.6942915e-09
8.7037134e-09
8.7056749e-09
8.6764105e-09
8.6531525e-09
8.6389394e-09
8.6319245e-09
8.6341858e-09
0.00088054375
0.0015442839
0.0013333069
0.00034855872
9.3956789e-08
4.2831303e-09
3.5792541e-09
3.5310449e-09
3.3265554e-09
3.3770568e-09
3.3310262e-09
3.4176851e-09
3.4467598e-09
3.5611576e-09
3.6567662e-09
3.8128162e-09
3.9864811e-09
4.2197394e-09
4.5024539e-09
4.8586459e-09
5.2868852e-09
5.786366e-09
6.3284215e-09
6.8719541e-09
7.3673808e-09
7.7794251e-09
8.0935574e-09
8.3120075e-09
8.445763e-09
8.5170419e-09
8.5496975e-09
8.5629661e-09
8.5668575e-09
8.5636336e-09
8.5513928e-09
8.5466697e-09
8.5487716e-09
8.5628813e-09
8.5772163e-09
8.5999586e-09
8.6414683e-09
8.6772647e-09
8.6961097e-09
8.703823e-09
8.7049483e-09
8.6731617e-09
8.651315e-09
8.6379011e-09
8.6312355e-09
8.6335278e-09
0.00087673025
0.0014968433
0.0012297479
0.00027940372
4.261494e-08
4.2960881e-09
3.6218205e-09
3.5770694e-09
3.3790715e-09
3.4336225e-09
3.3923563e-09
3.4835697e-09
3.5187895e-09
3.6395885e-09
3.7444839e-09
3.9107757e-09
4.0987471e-09
4.3488811e-09
4.6530558e-09
5.0340013e-09
5.4888443e-09
6.0112665e-09
6.566551e-09
7.1088857e-09
7.5889681e-09
7.97651e-09
8.2625467e-09
8.4495189e-09
8.5535598e-09
8.6002177e-09
8.6144187e-09
8.6135509e-09
8.6062747e-09
8.5933512e-09
8.5726056e-09
8.5630298e-09
8.5617587e-09
8.5726103e-09
8.5849284e-09
8.6078493e-09
8.650106e-09
8.6817477e-09
8.6979651e-09
8.7037849e-09
8.7031685e-09
8.6703177e-09
8.6496295e-09
8.6368947e-09
8.6305175e-09
8.6328053e-09
0.00087291717
0.0014458695
0.0011307297
0.00021525957
2.2451435e-08
4.3184925e-09
3.6670821e-09
3.6258827e-09
3.4345879e-09
3.4933474e-09
3.4572069e-09
3.5532996e-09
3.595305e-09
3.7231345e-09
3.8382294e-09
4.0158736e-09
4.2194761e-09
4.48808e-09
4.8154856e-09
5.2227897e-09
5.7047441e-09
6.2487291e-09
6.8137202e-09
7.3502177e-09
7.8109955e-09
8.1721302e-09
8.427231e-09
8.5806241e-09
8.6546259e-09
8.6782303e-09
8.6759838e-09
8.6611244e-09
8.6431626e-09
8.6209556e-09
8.5922603e-09
8.577972e-09
8.574262e-09
8.5816372e-09
8.5923436e-09
8.6158264e-09
8.6580122e-09
8.6856822e-09
8.6993553e-09
8.7038539e-09
8.6999367e-09
8.6678628e-09
8.6480533e-09
8.6359005e-09
8.6297651e-09
8.6320175e-09
0.00086969716
0.0013935522
0.0010296305
0.00015579379
1.3807213e-08
4.3468203e-09
3.714935e-09
3.6775686e-09
3.4931765e-09
3.5564346e-09
3.5258494e-09
3.6272453e-09
3.6767653e-09
3.8123217e-09
3.9386396e-09
4.1288292e-09
4.3494787e-09
4.6382248e-09
4.990696e-09
5.4257327e-09
5.9348304e-09
6.4981588e-09
7.0686955e-09
7.5945445e-09
8.0327038e-09
8.3655156e-09
8.5856242e-09
8.7039468e-09
8.748985e-09
8.7526858e-09
8.7335814e-09
8.7056342e-09
8.6776691e-09
8.6463647e-09
8.6102961e-09
8.5917122e-09
8.5861478e-09
8.5900502e-09
8.5995727e-09
8.6241028e-09
8.6648346e-09
8.6889525e-09
8.700475e-09
8.7041262e-09
8.6960176e-09
8.6654594e-09
8.6465281e-09
8.6349085e-09
8.6289781e-09
8.6311654e-09
0.00086763662
0.0013454836
0.00092959969
0.00010268657
9.7363261e-09
4.3795025e-09
3.7651678e-09
3.7322516e-09
3.5551778e-09
3.6232885e-09
3.5986582e-09
3.705888e-09
3.7637048e-09
3.907736e-09
4.0463692e-09
4.2503689e-09
4.4896465e-09
4.800395e-09
5.1798073e-09
5.6438167e-09
6.1794635e-09
6.7591631e-09
7.3304137e-09
7.8409461e-09
8.2538246e-09
8.5545145e-09
8.7362839e-09
8.8188972e-09
8.8385403e-09
8.8226425e-09
8.7873605e-09
8.7471344e-09
8.7097373e-09
8.6696446e-09
8.6268061e-09
8.6043736e-09
8.5971063e-09
8.5980685e-09
8.6067245e-09
8.6328138e-09
8.6704098e-09
8.6916252e-09
8.7013857e-09
8.7042624e-09
8.6920557e-09
8.6630998e-09
8.6450538e-09
8.6339213e-09
8.6281592e-09
8.6302512e-09
0.00086593394
0.001294792
0.00083132244
5.9501961e-05
7.6781267e-09
4.4153598e-09
3.8185923e-09
3.7904043e-09
3.6209618e-09
3.6941666e-09
3.6762318e-09
3.7897994e-09
3.8566637e-09
4.0100073e-09
4.1621429e-09
4.3813497e-09
4.6409368e-09
4.9756496e-09
5.3838099e-09
5.8775832e-09
6.4383908e-09
7.0305958e-09
7.5973751e-09
8.0883672e-09
8.4735358e-09
8.7364777e-09
8.8776377e-09
8.926578e-09
8.9235442e-09
8.8878443e-09
8.8372837e-09
8.7856952e-09
8.7394253e-09
8.6908535e-09
8.6419314e-09
8.6160551e-09
8.606832e-09
8.6059267e-09
8.6138573e-09
8.6413302e-09
8.6752306e-09
8.6938313e-09
8.7020832e-09
8.7043073e-09
8.6882862e-09
8.6608381e-09
8.6436496e-09
8.6329451e-09
8.6273122e-09
8.6292787e-09
0.00086509856
0.0012423836
0.00073653644
2.9775447e-05
6.5827576e-09
4.4549218e-09
3.8754251e-09
3.8524076e-09
3.6909094e-09
3.7696664e-09
3.758989e-09
3.8794297e-09
3.9562693e-09
4.1197921e-09
4.286755e-09
4.5226835e-09
4.8044588e-09
5.1652379e-09
5.6039216e-09
6.127782e-09
6.7115162e-09
7.3115611e-09
7.8685293e-09
8.336348e-09
8.6893658e-09
8.9096968e-09
9.0090266e-09
9.0292635e-09
9.0029159e-09
8.9483294e-09
8.8834854e-09
8.8213975e-09
8.7667677e-09
8.7100867e-09
8.6557323e-09
8.6267672e-09
8.6155695e-09
8.613505e-09
8.6209689e-09
8.6494259e-09
8.6795004e-09
8.6957503e-09
8.7026896e-09
8.7042598e-09
8.684654e-09
8.6587797e-09
8.6423394e-09
8.6319854e-09
8.626443e-09
8.6282522e-09
0.0008653729
0.0011879717
0.0006465914
1.3101958e-05
5.9830793e-09
4.4990863e-09
3.9359918e-09
3.9186335e-09
3.7655114e-09
3.8502627e-09
3.8474765e-09
3.975282e-09
4.06315e-09
4.2378601e-09
4.4210747e-09
4.6754147e-09
4.9813711e-09
5.3703618e-09
5.8410323e-09
6.3945243e-09
6.9979304e-09
7.60047e-09
8.1424987e-09
8.5839546e-09
8.8981581e-09
9.0723144e-09
9.1322747e-09
9.1262481e-09
9.0766226e-09
9.0041692e-09
8.9260735e-09
8.8543442e-09
8.7918338e-09
8.727431e-09
8.6682098e-09
8.6364341e-09
8.6235738e-09
8.6207808e-09
8.6280044e-09
8.6570483e-09
8.6834211e-09
8.697454e-09
8.7031554e-09
8.7042176e-09
8.6815226e-09
8.6569571e-09
8.6411429e-09
8.6310567e-09
8.625558e-09
8.6271749e-09
0.0008671895
0.0011324565
0.00056227284
5.3132844e-06
5.653769e-09
4.550643e-09
4.0007793e-09
3.9896551e-09
3.8452248e-09
3.9365179e-09
3.942129e-09
4.0780585e-09
4.1779824e-09
4.3650304e-09
4.5660772e-09
4.8406891e-09
5.1730478e-09
5.5924478e-09
6.096275e-09
6.6780943e-09
7.2969809e-09
7.8961922e-09
8.4185516e-09
8.8290306e-09
9.0975225e-09
9.2234156e-09
9.2497757e-09
9.2165667e-09
9.14468e-09
9.0555075e-09
8.9652e-09
8.8846467e-09
8.8146938e-09
8.7429468e-09
8.6793634e-09
8.645131e-09
8.6309875e-09
8.6277046e-09
8.634884e-09
8.6641629e-09
8.6871003e-09
8.6990039e-09
8.7034773e-09
8.7040432e-09
8.6788131e-09
8.6553546e-09
8.6400746e-09
8.6301856e-09
8.6246739e-09
8.6260501e-09
0.00086986846
0.0010797441
0.00048431712
2.0915154e-06
5.4785551e-09
4.6057992e-09
4.0703748e-09
4.0658014e-09
3.9306837e-09
4.0287182e-09
4.0435786e-09
4.1883421e-09
4.301596e-09
4.5022709e-09
4.72284e-09
5.019822e-09
5.3808422e-09
5.8327943e-09
6.3701314e-09
6.977976e-09
7.6070402e-09
8.1971095e-09
8.6955091e-09
9.0678813e-09
9.285262e-09
9.3648881e-09
9.3606212e-09
9.3001298e-09
9.2072154e-09
9.1025026e-09
9.0010254e-09
8.912438e-09
8.8354343e-09
8.7566793e-09
8.6892449e-09
8.6529341e-09
8.637938e-09
8.6342702e-09
8.641548e-09
8.6706461e-09
8.6904461e-09
8.7005147e-09
8.7037693e-09
8.7034422e-09
8.6764219e-09
8.6539052e-09
8.6391109e-09
8.629401e-09
8.6238383e-09
8.6248817e-09
0.00087260831
0.0010166459
0.00041242902
8.3654981e-07
5.394915e-09
4.665933e-09
4.1448446e-09
4.1475338e-09
4.0220823e-09
4.1275693e-09
4.1523555e-09
4.306913e-09
4.4349188e-09
4.6505812e-09
4.892594e-09
5.2142222e-09
5.6064388e-09
6.0928061e-09
6.6634217e-09
7.2937607e-09
7.9270743e-09
8.5021424e-09
8.9719874e-09
9.2971113e-09
9.4599735e-09
9.4993088e-09
9.4637955e-09
9.3770139e-09
9.2644034e-09
9.1453474e-09
9.0337268e-09
8.9378545e-09
8.8541349e-09
8.7686692e-09
8.6979265e-09
8.6599322e-09
8.6442649e-09
8.6405029e-09
8.6480494e-09
8.6763554e-09
8.6932068e-09
8.7017898e-09
8.7044535e-09
8.7021101e-09
8.6742099e-09
8.6525201e-09
8.6381759e-09
8.6286951e-09
8.6231522e-09
8.623674e-09
0.00087583876
0.00095270301
0.00034772653
3.5397443e-07
5.366649e-09
4.7306494e-09
4.2244776e-09
4.235057e-09
4.1199782e-09
4.2334792e-09
4.2695207e-09
4.4346526e-09
4.5789009e-09
4.8111094e-09
5.0767445e-09
5.4255116e-09
5.851401e-09
6.3735074e-09
6.9759836e-09
7.624085e-09
8.2551943e-09
8.8097806e-09
9.2437542e-09
9.5141403e-09
9.6229382e-09
9.6262998e-09
9.5589606e-09
9.4473633e-09
9.3164428e-09
9.1842448e-09
9.0634854e-09
8.9610236e-09
8.8708467e-09
8.778957e-09
8.705494e-09
8.6662668e-09
8.6502812e-09
8.6464522e-09
8.65448e-09
8.6812042e-09
8.6955508e-09
8.7028071e-09
8.7050723e-09
8.7001702e-09
8.6720525e-09
8.6511295e-09
8.6372226e-09
8.6280334e-09
8.6226328e-09
8.6224426e-09
0.00087905892
0.00088358474
0.0002895105
1.6403557e-07
5.3712865e-09
4.8000365e-09
4.3099109e-09
4.3291861e-09
4.2252239e-09
4.3474348e-09
4.3957525e-09
4.5725125e-09
4.7346749e-09
4.985236e-09
5.2768404e-09
5.6555619e-09
6.1175239e-09
6.6761289e-09
7.3078808e-09
7.9679603e-09
8.5901925e-09
9.1190515e-09
9.5067568e-09
9.7168869e-09
9.776942e-09
9.7446672e-09
9.6462876e-09
9.5114108e-09
9.3635798e-09
9.2194204e-09
9.0904793e-09
8.9820338e-09
8.8855597e-09
8.7876005e-09
8.7120407e-09
8.6719928e-09
8.6559216e-09
8.6521746e-09
8.6609662e-09
8.6851696e-09
8.6976147e-09
8.7036076e-09
8.7053203e-09
8.6977903e-09
8.6698759e-09
8.6497038e-09
8.6362814e-09
8.6274246e-09
8.6221595e-09
8.6212121e-09
0.00088240076
0.00081590528
0.00023770186
8.4640321e-08
5.398576e-09
4.8755697e-09
4.4020959e-09
4.430752e-09
4.3385593e-09
4.4701584e-09
4.5319407e-09
4.7215622e-09
4.9034836e-09
5.1747063e-09
5.4947398e-09
5.9062809e-09
6.4063431e-09
7.001065e-09
7.6580265e-09
8.3233642e-09
8.9300091e-09
9.4261501e-09
9.7572788e-09
9.905219e-09
9.9229029e-09
9.8535654e-09
9.725901e-09
9.5693958e-09
9.406063e-09
9.2511016e-09
9.1148815e-09
9.0009528e-09
8.8982397e-09
8.7947132e-09
8.7176768e-09
8.6772066e-09
8.6612787e-09
8.6576911e-09
8.6670988e-09
8.6885974e-09
8.6993487e-09
8.704234e-09
8.7054366e-09
8.6950652e-09
8.6676567e-09
8.6482347e-09
8.6353495e-09
8.626888e-09
8.621643e-09
8.6200229e-09
0.00088620568
0.0007446776
0.00019184132
4.9133585e-08
5.4415622e-09
4.9573611e-09
4.50165e-09
4.5402418e-09
4.460705e-09
4.6024055e-09
4.6791608e-09
4.8830122e-09
5.0868005e-09
5.3811412e-09
5.7325042e-09
6.1798176e-09
6.7195567e-09