/*--------------------------------*- C++ -*----------------------------------*\
  =========                 |
  \\      /  F ield         | OpenFOAM: The Open Source CFD Toolbox
   \\    /   O peration     | Website:  https://openfoam.org
    \\  /    A nd           | Version:  8
     \\/     M anipulation  |
\*---------------------------------------------------------------------------*/
FoamFile
{
    version     2.0;
    format      ascii;
    class       volVectorField;
    location    "0.0999939";
    object      cellDisplacement;
}
// * * * * * * * * * * * * * * * * * * * * * * * * * * * * * * * * * * * * * //

dimensions      [0 1 0 0 0 0 0];

internalField   nonuniform List<vector> 
20000
(
(0.0023159596 0 0.0018393756)
(0.0023159425 0 0.0018390093)
(0.002315904 0 0.0018380414)
(0.0023158226 0 0.001836921)
(0.0023156794 0 0.0018356216)
(0.0023154479 0 0.0018341254)
(0.0023150912 0 0.0018324198)
(0.0023145585 0 0.001830499)
(0.0023137806 0 0.0018283709)
(0.0023126633 0 0.0018260647)
(0.0023110798 0 0.0018236438)
(0.0023088596 0 0.0018212243)
(0.0023057764 0 0.0018190018)
(0.0023015311 0 0.001817292)
(0.002295733 0 0.0018165849)
(0.0022878774 0 0.0018176269)
(0.0022773216 0 0.0018215123)
(0.0022632595 0 0.0018298666)
(0.002244706 0 0.0018449615)
(0.0022204883 0 0.0018700076)
(0.002189261 0 0.0019093805)
(0.0021495511 0 0.001968836)
(0.0020998555 0 0.0020555774)
(0.0020387997 0 0.0021781802)
(0.0019653393 0 0.0023460658)
(0.0018789888 0 0.0025684337)
(0.0017800714 0 0.0028525808)
(0.0016696834 0 0.003202342)
(0.0015499369 0 0.0036159135)
(0.0014236082 0 0.0040839968)
(0.0012938639 0 0.0045914298)
(0.0011641547 0 0.0051149289)
(0.0010377907 0 0.0056309929)
(0.00091707345 0 0.0061146712)
(0.00080431556 0 0.0065481007)
(0.00070076405 0 0.0069130494)
(0.00060706939 0 0.0072011905)
(0.00052306644 0 0.007407074)
(0.00044887581 0 0.0075279462)
(0.00038338299 0 0.0075641567)
(0.00032665563 0 0.0075127793)
(0.00027647494 0 0.0073718841)
(0.00023237299 0 0.0071238263)
(0.00019317167 0 0.0067792257)
(0.00015956962 0 0.0063115776)
(0.00012925589 0 0.0057029287)
(0.00010225445 0 0.0049176269)
(7.5926192e-05 0 0.0039463953)
(4.8886089e-05 0 0.0026766613)
(1.7536721e-05 0 0.00098516627)
(0.0023211896 0 0.0015109846)
(0.0023211795 0 0.001509981)
(0.002321139 0 0.001508817)
(0.0023210551 0 0.0015074463)
(0.0023209082 0 0.001505848)
(0.0023206712 0 0.0015039941)
(0.0023203065 0 0.0015018594)
(0.0023197623 0 0.0014994233)
(0.0023189683 0 0.0014966774)
(0.0023178285 0 0.0014936324)
(0.0023162141 0 0.0014903329)
(0.0023139519 0 0.0014868745)
(0.0023108124 0 0.0014834328)
(0.0023064922 0 0.0014803023)
(0.0023005958 0 0.0014779534)
(0.0022926127 0 0.0014771109)
(0.0022818931 0 0.0014788706)
(0.0022676252 0 0.0014848343)
(0.002248817 0 0.001497334)
(0.0022242929 0 0.001519642)
(0.0021927083 0 0.0015562813)
(0.0021525984 0 0.0016132061)
(0.0021024809 0 0.0016978336)
(0.0020410195 0 0.0018190513)
(0.0019672248 0 0.0019866195)
(0.0018806799 0 0.0022100816)
(0.001781763 0 0.0024971216)
(0.0016716308 0 0.0028518783)
(0.0015523845 0 0.0032728017)
(0.001426745 0 0.0037509557)
(0.0012977891 0 0.0042711618)
(0.0011688218 0 0.0048105427)
(0.0010430172 0 0.0053451375)
(0.00092268358 0 0.0058498037)
(0.00081004415 0 0.0063055665)
(0.00070638913 0 0.0066939335)
(0.00061240624 0 0.0070054685)
(0.00052801903 0 0.0072341275)
(0.00045332412 0 0.0073767088)
(0.00038733849 0 0.0074330798)
(0.00033002185 0 0.0074004575)
(0.00027937447 0 0.0072765603)
(0.00023482834 0 0.0070453389)
(0.00019527208 0 0.006714704)
(0.00016121952 0 0.0062603444)
(0.00013057107 0 0.0056636023)
(0.00010317694 0 0.00488956)
(7.6548368e-05 0 0.003925147)
(4.9179356e-05 0 0.002661679)
(1.7520442e-05 0 0.00097511109)
(0.0023250325 0 0.0011896297)
(0.0023250198 0 0.0011884266)
(0.0023249759 0 0.0011870203)
(0.0023248871 0 0.0011853679)
(0.0023247336 0 0.0011834339)
(0.0023244877 0 0.0011811806)
(0.002324111 0 0.0011785727)
(0.0023235508 0 0.0011755772)
(0.0023227351 0 0.0011721728)
(0.0023215663 0 0.0011683546)
(0.0023199131 0 0.0011641497)
(0.0023175994 0 0.0011596337)
(0.0023143916 0 0.00115496)
(0.002309982 0 0.0011504009)
(0.0023039691 0 0.001146403)
(0.0022958361 0 0.0011436748)
(0.0022849261 0 0.0011432915)
(0.0022704199 0 0.0011468785)
(0.0022513202 0 0.001156785)
(0.0022264484 0 0.0011763752)
(0.0021944627 0 0.0012103475)
(0.0021539065 0 0.001264871)
(0.0021033206 0 0.0013475303)
(0.0020414144 0 0.0014675403)
(0.0019672579 0 0.0016349793)
(0.0018805113 0 0.0018596924)
(0.001781614 0 0.0021497012)
(0.0016717858 0 0.0025093958)
(0.0015531201 0 0.0029374315)
(0.0014282813 0 0.003425177)
(0.001300247 0 0.0039574736)
(0.0011721758 0 0.0045118131)
(0.0010470985 0 0.0050638858)
(0.00092731086 0 0.0055884144)
(0.00081494913 0 0.0060654573)
(0.00071133625 0 0.0064762503)
(0.00061719253 0 0.0068103543)
(0.00053252683 0 0.0070611307)
(0.00045742013 0 0.0072249167)
(0.00039101148 0 0.007301097)
(0.0003331726 0 0.0072869677)
(0.0002820995 0 0.0071799285)
(0.00023714622 0 0.0069653172)
(0.00019725975 0 0.006648687)
(0.00016279078 0 0.0062075699)
(0.0001318244 0 0.0056227733)
(0.00010406016 0 0.004860006)
(7.7142414e-05 0 0.0039027732)
(4.9459995e-05 0 0.0026459432)
(1.7506999e-05 0 0.00096510196)
(0.0023275253 0 0.00087517699)
(0.0023275085 0 0.0008737743)
(0.0023274592 0 0.00087212868)
(0.0023273633 0 0.00087019212)
(0.0023272004 0 0.00086792224)
(0.002326942 0 0.00086527339)
(0.002326549 0 0.00086219899)
(0.0023259673 0 0.00085865359)
(0.0023251235 0 0.00085460068)
(0.0023239179 0 0.00085001724)
(0.0023222166 0 0.00084491221)
(0.0023198402 0 0.00083933931)
(0.0023165509 0 0.00083343187)
(0.0023120358 0 0.0008274376)
(0.0023058872 0 0.00082178313)
(0.0022975812 0 0.00081715315)
(0.0022864531 0 0.00081462073)
(0.0022716768 0 0.0008157988)
(0.0022522493 0 0.00082311634)
(0.0022269907 0 0.00083998806)
(0.0021945634 0 0.0008713746)
(0.0021535179 0 0.00092367096)
(0.0021024208 0 0.0010045166)
(0.0020400351 0 0.0011235169)
(0.0019654959 0 0.0012910349)
(0.001878544 0 0.0015171783)
(0.0017796912 0 0.0018102537)
(0.0016702163 0 0.0021748556)
(0.0015522116 0 0.002609799)
(0.0014282788 0 0.0031067083)
(0.0013012927 0 0.0036504669)
(0.0011742591 0 0.0042189071)
(0.0010500661 0 0.0047874619)
(0.00093097458 0 0.0053307676)
(0.00081904149 0 0.005828062)
(0.00071560798 0 0.0062602956)
(0.00062142724 0 0.0066161342)
(0.00053658479 0 0.0068883517)
(0.00046115819 0 0.0070728094)
(0.00039439497 0 0.0071684136)
(0.00033610124 0 0.0071724899)
(0.0002846443 0 0.0070821376)
(0.00023932196 0 0.0068838968)
(0.00019913101 0 0.006581269)
(0.00016427981 0 0.0061533394)
(0.00013301313 0 0.0055805034)
(0.00010490231 0 0.0048290095)
(7.7707415e-05 0 0.0038793004)
(4.9727014e-05 0 0.0026294781)
(1.7494713e-05 0 0.00095515513)
(0.0023287099 0 0.00056748567)
(0.002328687 0 0.00056589334)
(0.0023286298 0 0.0005640242)
(0.0023285238 0 0.00056181988)
(0.002328348 0 0.00055922796)
(0.0023280733 0 0.00055619178)
(0.0023276593 0 0.00055265312)
(0.0023270506 0 0.00054855439)
(0.0023261721 0 0.00054384527)
(0.0023249218 0 0.00053848861)
(0.0023231628 0 0.00053247481)
(0.002320712 0 0.00052583956)
(0.0023173272 0 0.0005186918)
(0.0023126896 0 0.00051125695)
(0.0023063848 0 0.00050393444)
(0.002297881 0 0.00049738924)
(0.0022865059 0 0.00049266859)
(0.0022714263 0 0.00049141339)
(0.0022516338 0 0.00049614758)
(0.0022259492 0 0.00051025263)
(0.0021930425 0 0.00053915747)
(0.0021514643 0 0.00058946972)
(0.0020998116 0 0.00066864128)
(0.0020369137 0 0.00078685147)
(0.0019619712 0 0.00095468196)
(0.0018748144 0 0.0011824528)
(0.0017760311 0 0.0014787239)
(0.0016669623 0 0.0018482286)
(0.0015496975 0 0.0022899116)
(0.0014267748 0 0.0027955998)
(0.0013009568 0 0.0033502406)
(0.001175097 0 0.0039319752)
(0.0010519355 0 0.0045160574)
(0.00093368511 0 0.0050770937)
(0.00082232332 0 0.0055936253)
(0.00071920276 0 0.0060463224)
(0.00062510456 0 0.0064230473)
(0.0005401871 0 0.0067160059)
(0.00046453044 0 0.0069205751)
(0.00039748301 0 0.0070351899)
(0.0003388009 0 0.007057155)
(0.00028700446 0 0.0069832923)
(0.00024135137 0 0.0068011696)
(0.00020088309 0 0.0065125147)
(0.00016568337 0 0.0060977026)
(0.00013413572 0 0.0055368326)
(0.00010570116 0 0.0047966178)
(7.8242328e-05 0 0.0038547415)
(4.9979936e-05 0 0.0026122906)
(1.7484101e-05 0 0.00094523215)
(0.0023286226 0 0.00026640757)
(0.0023285921 0 0.00026461538)
(0.0023285252 0 0.00026250586)
(0.0023284069 0 0.00026001749)
(0.0023282154 0 0.00025709163)
(0.0023279206 0 0.00025366308)
(0.0023274809 0 0.00024966365)
(0.0023268394 0 0.00024502185)
(0.0023259192 0 0.00023967194)
(0.0023246156 0 0.00023355747)
(0.0023227887 0 0.00022664978)
(0.0023202513 0 0.00021896097)
(0.0023167561 0 0.00021057858)
(0.0023119779 0 0.00020170127)
(0.0023054951 0 0.00019270317)
(0.0022967673 0 0.00018421713)
(0.0022851138 0 0.00017727276)
(0.0022696974 0 0.00017346593)
(0.0022495018 0 0.00017574856)
(0.0022233569 0 0.000187723)
(0.0021899401 0 0.00021432201)
(0.0021477784 0 0.00026220942)
(0.0020955235 0 0.00033980534)
(0.0020320829 0 0.00045749489)
(0.0019567196 0 0.00062590707)
(0.0018693597 0 0.00085553447)
(0.0017706752 0 0.0011551587)
(0.0016620657 0 0.0015295961)
(0.0015456208 0 0.0019778814)
(0.0014238085 0 0.002492004)
(0.001299275 0 0.0030569813)
(0.0011747169 0 0.0036512497)
(0.001052726 0 0.0042499399)
(0.00093545292 0 0.0048276863)
(0.0008247991 0 0.0053624511)
(0.00072211883 0 0.0058346337)
(0.00062822005 0 0.006231383)
(0.0005433265 0 0.0065443612)
(0.00046752922 0 0.0067684528)
(0.00040026735 0 0.0069016294)
(0.00034126354 0 0.0069411386)
(0.00028917305 0 0.0068835339)
(0.00024322882 0 0.006717264)
(0.00020251161 0 0.0064425121)
(0.00016699727 0 0.0060407344)
(0.00013518898 0 0.0054918127)
(0.00010645471 0 0.0047628661)
(7.8745946e-05 0 0.0038291155)
(5.0217794e-05 0 0.0025944017)
(1.7473659e-05 0 0.00093534447)
(0.0023272969 0 -2.818585e-05)
(0.0023272568 0 -3.0167354e-05)
(0.0023271779 0 -3.2500234e-05)
(0.0023270445 0 -3.5255917e-05)
(0.002326834 0 -3.8503084e-05)
(0.0023265153 0 -4.2317435e-05)
(0.0023260455 0 -4.6778931e-05)
(0.002325366 0 -5.1971046e-05)
(0.0023243976 0 -5.7973189e-05)
(0.0023230328 0 -6.4856613e-05)
(0.0023211282 0 -7.2669032e-05)
(0.002318492 0 -8.1417586e-05)
(0.0023148712 0 -9.1040892e-05)
(0.0023099339 0 -0.00010136595)
(0.00230325 0 -0.00011205148)
(0.0022942695 0 -0.00012249782)
(0.0022823023 0 -0.00013170543)
(0.002266525 0 -0.00013760033)
(0.00224592 0 -0.00013750554)
(0.0022192772 0 -0.0001274778)
(0.0021852664 0 -0.0001029951)
(0.0021424723 0 -5.7398687e-05)
(0.0020895984 0 1.8657413e-05)
(0.0020255757 0 0.00013533059)
(0.0019497751 0 0.00030461915)
(0.0018622176 0 0.00053634413)
(0.0017636634 0 0.0008395033)
(0.0016555704 0 0.0012189193)
(0.0015400252 0 0.0016736953)
(0.0014194227 0 0.0021959413)
(0.0012962844 0 0.0027707488)
(0.0011731499 0 0.0033768367)
(0.0010524599 0 0.0039892547)
(0.00093629417 0 0.0045827304)
(0.00082647678 0 0.0051347447)
(0.00072435937 0 0.0056254485)
(0.00063077209 0 0.0060413548)
(0.00054600011 0 0.0063736157)
(0.00047014927 0 0.0066166193)
(0.00040274356 0 0.0067678859)
(0.00034348373 0 0.0068245684)
(0.00029114628 0 0.0067829667)
(0.00024495073 0 0.0066322699)
(0.00020401403 0 0.0063713277)
(0.00016821865 0 0.0059824857)
(0.00013617139 0 0.0054454847)
(0.00010716071 0 0.0047277998)
(7.9217253e-05 0 0.0038024423)
(5.0439977e-05 0 0.0025758175)
(1.7463853e-05 0 0.00092546194)
(0.0023247694 0 -0.00031643648)
(0.0023247181 0 -0.00031861649)
(0.0023246252 0 -0.00032118691)
(0.0023244743 0 -0.00032422367)
(0.0023242418 0 -0.00032780151)
(0.0023238955 0 -0.00033200579)
(0.0023233909 0 -0.00033692647)
(0.0023226676 0 -0.00034266068)
(0.0023216439 0 -0.00034930318)
(0.0023202093 0 -0.00035694399)
(0.0023182164 0 -0.00036564972)
(0.0023154684 0 -0.00037545103)
(0.0023117062 0 -0.00038630885)
(0.0023065902 0 -0.00039807906)
(0.0022996806 0 -0.00041045249)
(0.0022904175 0 -0.00042288927)
(0.0022781291 0 -0.00043399632)
(0.0022619758 0 -0.00044172172)
(0.0022409047 0 -0.00044364556)
(0.0022137106 0 -0.00043591043)
(0.0021790668 0 -0.00041348873)
(0.002135598 0 -0.00036948928)
(0.0020820445 0 -0.00029472222)
(0.0020174175 0 -0.000178942)
(0.001941175 0 -9.1794573e-06)
(0.0018534286 0 0.00022490306)
(0.0017550408 0 0.00053180184)
(0.0016475231 0 0.00091626629)
(0.0015329589 0 0.0013774441)
(0.0014136629 0 0.0019075328)
(0.0012920268 0 0.0024916912)
(0.0011704303 0 0.0031089242)
(0.001051163 0 0.0037342214)
(0.00093622578 0 0.0043424739)
(0.00082736656 0 0.0049107686)
(0.00072592784 0 0.0054190352)
(0.00063276033 0 0.0058532257)
(0.00054820417 0 0.006204018)
(0.00047238544 0 0.0064653017)
(0.00040490544 0 0.006634156)
(0.00034545481 0 0.0067076159)
(0.00029291811 0 0.0066817309)
(0.00024651201 0 0.0065463149)
(0.00020538633 0 0.0062990526)
(0.00016934358 0 0.0059230328)
(0.00013707986 0 0.0053979027)
(0.00010781728 0 0.004691455)
(7.9654963e-05 0 0.0037747411)
(5.0645595e-05 0 0.0025565603)
(1.7453319e-05 0 0.00091559372)
(0.0023210772 0 -0.00059846948)
(0.0023210128 0 -0.00060084065)
(0.0023209035 0 -0.00060363691)
(0.0023207321 0 -0.00060694363)
(0.0023204742 0 -0.0006108451)
(0.0023200961 0 -0.00061543598)
(0.0023195518 0 -0.00062081818)
(0.0023187787 0 -0.00062710059)
(0.0023176924 0 -0.00063439212)
(0.002316179 0 -0.00064279714)
(0.0023140868 0 -0.00065240172)
(0.0023112137 0 -0.00066325566)
(0.0023072937 0 -0.00067534444)
(0.0023019784 0 -0.00068854494)
(0.0022948175 0 -0.00070256244)
(0.0022852613 0 -0.00071681822)
(0.002272635 0 -0.00072965171)
(0.0022560583 0 -0.00073938265)
(0.0022344778 0 -0.00074338276)
(0.0022066852 0 -0.0007377922)
(0.0021713626 0 -0.000717342)
(0.0021271702 0 -0.00067490361)
(0.0020728984 0 -0.0006011687)
(0.0020076421 0 -0.00048544581)
(0.0019309315 0 -0.00031559522)
(0.0018430311 0 -7.8859759e-05)
(0.0017448504 0 0.00023200392)
(0.0016379707 0 0.00062159315)
(0.0015244699 0 0.0010890994)
(0.001406576 0 0.001626775)
(0.0012865444 0 0.0022198358)
(0.0011665945 0 0.0028475802)
(0.0010488631 0 0.0034849432)
(0.00093526885 0 0.0041070595)
(0.00082748139 0 0.0046906904)
(0.00072683165 0 0.0052155792)
(0.00063418701 0 0.0056671819)
(0.00054993864 0 0.0060357468)
(0.00047423499 0 0.0063146626)
(0.00040675019 0 0.0065005845)
(0.00034717284 0 0.0065904042)
(0.00029448548 0 0.0065799283)
(0.00024790968 0 0.0064594865)
(0.00020662627 0 0.0062257541)
(0.00017036955 0 0.0058624272)
(0.00013791292 0 0.0053491084)
(0.0001084222 0 0.0046538763)
(8.0058031e-05 0 0.0037460354)
(5.0833939e-05 0 0.0025366356)
(1.7442447e-05 0 0.00090571454)
(0.0023162538 0 -0.00087441931)
(0.0023161742 0 -0.00087698828)
(0.0023160463 0 -0.0008800218)
(0.0023158517 0 -0.00088360929)
(0.0023155649 0 -0.0008878416)
(0.0023151508 0 -0.00089282245)
(0.0023145616 0 -0.00089866324)
(0.0023137324 0 -0.00090548688)
(0.0023125759 0 -0.00091341701)
(0.0023109746 0 -0.00092257712)
(0.002308772 0 -0.00093307191)
(0.0023057601 0 -0.0009449751)
(0.0023016656 0 -0.00095829529)
(0.0022961317 0 -0.00097294155)
(0.0022886998 0 -0.00098866698)
(0.0022788325 0 -0.0010044379)
(0.0022658343 0 -0.0010190805)
(0.0022487981 0 -0.0010307777)
(0.002226665 0 -0.0010368131)
(0.0021982262 0 -0.001033271)
(0.0021621768 0 -0.0010146932)
(0.0021172139 0 -0.00097371579)
(0.0020621874 0 -0.00090076192)
(0.0019962667 0 -0.00078481589)
(0.0019191085 0 -0.00061397877)
(0.0018310713 0 -0.00037492179)
(0.0017331417 0 -5.9845946e-05)
(0.001626965 0 0.00033495608)
(0.0015146117 0 0.00080873218)
(0.0013982132 0 0.0013537603)
(0.0012798845 0 0.0019552946)
(0.0011616822 0 0.0025929514)
(0.0010455917 0 0.003241594)
(0.00093344602 0 0.0038766898)
(0.00082683661 0 0.0044747312)
(0.00072707907 0 0.0050153128)
(0.00063505568 0 0.0054834576)
(0.00055120311 0 0.0058690286)
(0.00047569529 0 0.0061649139)
(0.0004082736 0 0.0063673584)
(0.00034863265 0 0.0064730986)
(0.00029584338 0 0.0064776968)
(0.00024913929 0 0.0063719098)
(0.00020773021 0 0.0061515252)
(0.00017129295 0 0.005800746)
(0.00013866762 0 0.0052991579)
(0.00010897369 0 0.0046151001)
(8.0425133e-05 0 0.0037163459)
(5.1004165e-05 0 0.0025160666)
(1.7430042e-05 0 0.0008958321)
(0.0023103286 0 -0.0011444053)
(0.0023102321 0 -0.001147165)
(0.0023100832 0 -0.0011504241)
(0.0023098626 0 -0.0011542813)
(0.0023095437 0 -0.0011588365)
(0.0023090896 0 -0.001164203)
(0.0023084506 0 -0.0011705042)
(0.0023075593 0 -0.001177874)
(0.0023063251 0 -0.001186451)
(0.0023046266 0 -0.0011963731)
(0.002302302 0 -0.0012077644)
(0.002299137 0 -0.0012207175)
(0.0022948498 0 -0.001235264)
(0.002289073 0 -0.0012513275)
(0.0022813607 0 -0.0012686541)
(0.0022711698 0 -0.0012860102)
(0.0022577589 0 -0.0013024225)
(0.0022402224 0 -0.0013160254)
(0.0022174912 0 -0.0013240577)
(0.0021883569 0 -0.001322491)
(0.0021515309 0 -0.0013056944)
(0.0021057524 0 -0.0012660668)
(0.0020499391 0 -0.0011936356)
(0.0019833407 0 -0.0010771636)
(0.0019057469 0 -0.0009044063)
(0.0018175711 0 -0.00066334916)
(0.0017199612 0 -0.00034379592)
(0.0016145563 0 5.6301751e-05)
(0.0015034362 0 0.00053629756)
(0.0013886258 0 0.0010884617)
(0.0012720935 0 0.0016980628)
(0.0011557342 0 0.0023450659)
(0.0010413975 0 0.0030048929)
(0.00093079607 0 0.0036521546)
(0.0008254589 0 0.0042636647)
(0.00072668706 0 0.0048189531)
(0.00063537517 0 0.0053026878)
(0.00055200029 0 0.0057040256)
(0.00047676602 0 0.0060162026)
(0.00040947447 0 0.0062346119)
(0.00034983172 0 0.0063558158)
(0.00029698953 0 0.0063751352)
(0.00025019846 0 0.0062836697)
(0.00020869621 0 0.0060764333)
(0.00017211161 0 0.0057380413)
(0.00013934252 0 0.0052480936)
(0.00010946963 0 0.0045751725)
(8.0755204e-05 0 0.0036856991)
(5.1155501e-05 0 0.0024948592)
(1.7416383e-05 0 0.00088592516)
(0.0023033362 0 -0.0014085564)
(0.0023032207 0 -0.0014115134)
(0.0023030484 0 -0.0014150082)
(0.0023027988 0 -0.0014191442)
(0.002302444 0 -0.001424028)
(0.0023019455 0 -0.0014297824)
(0.0023012514 0 -0.0014365407)
(0.0023002914 0 -0.0014444513)
(0.0022989717 0 -0.0014536672)
(0.0022971662 0 -0.0014643458)
(0.0022947079 0 -0.0014766301)
(0.0022913753 0 -0.0014906376)
(0.0022868784 0 -0.0015064282)
(0.0022808415 0 -0.0015239722)
(0.0022728336 0 -0.0015425957)
(0.0022622863 0 -0.0015615913)
(0.0022484315 0 -0.0015797676)
(0.0022303542 0 -0.0015952627)
(0.0022069786 0 -0.0016052396)
(0.0021770984 0 -0.0016055792)
(0.0021394457 0 -0.0015904633)
(0.0020928093 0 -0.0015520701)
(0.0020361836 0 -0.0014798551)
(0.0019688971 0 -0.001362533)
(0.0018908645 0 -0.0011874921)
(0.001802611 0 -0.00094348854)
(0.0017053639 0 -0.00061980228)
(0.0016008007 0 -0.0002143282)
(0.0014910015 0 0.00027184459)
(0.0013778695 0 0.00083093998)
(0.0012632485 0 0.0014488541)
(0.0011488303 0 0.0021048393)
(0.0010363322 0 0.0027751869)
(0.0009273509 0 0.0034337864)
(0.00082336975 0 0.0040577993)
(0.00072566856 0 0.0046267894)
(0.00063515027 0 0.0051251557)
(0.00055233208 0 0.0055413737)
(0.000477447 0 0.0058687263)
(0.00041035062 0 0.0061025193)
(0.00035076647 0 0.0062387126)
(0.00029792001 0 0.0062723765)
(0.00025108346 0 0.0061948875)
(0.0002095211 0 0.0060005716)
(0.00017282225 0 0.0056743905)
(0.00013993487 0 0.0051959733)
(0.00010990834 0 0.00453413)
(8.1046888e-05 0 0.0036541168)
(5.1287138e-05 0 0.0024730382)
(1.7400382e-05 0 0.00087600007)
(0.0022953067 0 -0.0016669876)
(0.0022951702 0 -0.0016701355)
(0.0022949721 0 -0.0016738559)
(0.0022946906 0 -0.0016782612)
(0.0022942964 0 -0.0016834675)
(0.002293749 0 -0.0016896069)
(0.0022929942 0 -0.0016968249)
(0.0022919589 0 -0.0017052817)
(0.0022905453 0 -0.0017151443)
(0.0022886227 0 -0.0017265849)
(0.0022860177 0 -0.001739765)
(0.0022825013 0 -0.00175482)
(0.002277773 0 -0.0017718266)
(0.0022714694 0 -0.0017907644)
(0.0022631552 0 -0.0018107796)
(0.0022522141 0 -0.0018313481)
(0.0022378774 0 -0.0018512603)
(0.0022192164 0 -0.0018685985)
(0.0021951471 0 -0.0018804887)
(0.0021644692 0 -0.0018826745)
(0.0021259404 0 -0.0018691199)
(0.0020784383 0 -0.0018311281)
(0.0020209841 0 -0.0017587671)
(0.0019530022 0 -0.0016403211)
(0.0018745172 0 -0.0014633191)
(0.0017862406 0 -0.0012154045)
(0.001689383 0 -0.00088789067)
(0.0015857515 0 -0.00047699793)
(0.0014773635 0 1.5311479e-05)
(0.0013660437 0 0.0005818492)
(0.0012534304 0 0.0012080063)
(0.0011410224 0 0.0018725679)
(0.0010304153 0 0.0025521109)
(0.00092312848 0 0.0032211234)
(0.00082058195 0 0.0038566983)
(0.00072403294 0 0.0044384552)
(0.00063438922 0 0.0049505698)
(0.00055220432 0 0.0053812405)
(0.00047773923 0 0.005722976)
(0.00041090244 0 0.0059712048)
(0.00035143576 0 0.0061218973)
(0.00029863342 0 0.0061695148)
(0.00025179253 0 0.0061056442)
(0.00021020328 0 0.0059240067)
(0.00017342303 0 0.0056098459)
(0.00014044333 0 0.0051428402)
(0.00011028779 0 0.0044920199)
(8.1299102e-05 0 0.003621628)
(5.1398254e-05 0 0.0024506101)
(1.7382226e-05 0 0.00086603855)
(0.0022862693 0 -0.0019198214)
(0.0022861097 0 -0.0019231658)
(0.0022858832 0 -0.0019271205)
(0.0022855668 0 -0.001931804)
(0.0022851294 0 -0.0019373392)
(0.0022845287 0 -0.0019438683)
(0.002283708 0 -0.0019515464)
(0.0022825907 0 -0.0019605467)
(0.0022810751 0 -0.0019710512)
(0.0022790252 0 -0.0019832499)
(0.0022762613 0 -0.001997325)
(0.0022725463 0 -0.0020134379)
(0.0022675714 0 -0.002031704)
(0.0022609885 0 -0.0020517671)
(0.0022523369 0 -0.0020732293)
(0.002240974 0 -0.0020953804)
(0.0022261186 0 -0.0021170005)
(0.0022068291 0 -0.0021361594)
(0.002182015 0 -0.0021499296)
(0.0021504889 0 -0.0021538881)
(0.0021110913 0 -0.0021411383)
(0.0020627014 0 -0.0021032065)
(0.0020043747 0 -0.0020303451)
(0.0019356772 0 -0.001910418)
(0.0018567638 0 -0.001731191)
(0.0017684821 0 -0.0014796859)
(0.001672074 0 -0.0011480943)
(0.0015694702 0 -0.0007316865)
(0.0014626439 0 -0.00023249375)
(0.0013532442 0 0.00034168751)
(0.0012426812 0 0.00097533396)
(0.0011323377 0 0.0016477426)
(0.0010236832 0 0.0023356915)
(0.00091815775 0 0.0030142348)
(0.0008171175 0 0.0036604647)
(0.00072179541 0 0.0042540809)
(0.00063310186 0 0.0047790781)
(0.00055162211 0 0.005223402)
(0.00047764546 0 0.0055791444)
(0.00041112764 0 0.0058408315)
(0.00035183749 0 0.0060055167)
(0.00029912694 0 0.0060666774)
(0.00025232272 0 0.0060160569)
(0.00021074003 0 0.0058468313)
(0.00017391103 0 0.0055444847)
(0.00014086531 0 0.0050887533)
(0.00011060637 0 0.004448879)
(8.1510477e-05 0 0.0035882558)
(5.1488049e-05 0 0.0024276001)
(1.7360982e-05 0 0.00085604698)
(0.002276258 0 -0.0021671706)
(0.0022760731 0 -0.00217071)
(0.0022758155 0 -0.0021748967)
(0.0022754608 0 -0.0021798558)
(0.0022749762 0 -0.0021857186)
(0.0022743171 0 -0.0021926356)
(0.0022734241 0 -0.0022007731)
(0.0022722172 0 -0.0022103168)
(0.0022705903 0 -0.0022214624)
(0.0022684016 0 -0.0022344161)
(0.0022654642 0 -0.0022493772)
(0.0022615316 0 -0.0022665241)
(0.0022563038 0 -0.0022859942)
(0.0022494314 0 -0.0023072688)
(0.0022404097 0 -0.0023301166)
(0.0022285907 0 -0.0023538069)
(0.0022131769 0 -0.0023771041)
(0.0021932115 0 -0.0023980344)
(0.0021675991 0 -0.0024136753)
(0.0021352295 0 -0.0024187706)
(0.0020949327 0 -0.0024065299)
(0.0020455734 0 -0.0023689136)
(0.00198635 0 -0.0022953311)
(0.0019169403 0 -0.002173564)
(0.0018376466 0 -0.0019911905)
(0.0017493669 0 -0.0017363141)
(0.0016535305 0 -0.0013998614)
(0.0015520864 0 -0.00097765432)
(0.0014469508 0 -0.00047108966)
(0.0013395096 0 0.00011011788)
(0.0012310454 0 0.00075067531)
(0.0011228169 0 0.0014302511)
(0.0010161707 0 0.0021258565)
(0.00091246743 0 0.0028130995)
(0.00081299833 0 0.0034691185)
(0.00071897212 0 0.0040737222)
(0.00063129893 0 0.004610759)
(0.0005505924 0 0.005067951)
(0.00047716776 0 0.0054370032)
(0.00041102986 0 0.0057118272)
(0.00035197179 0 0.0058896719)
(0.00029939997 0 0.0059639525)
(0.00025267284 0 0.0059262026)
(0.0002111301 0 0.0057691103)
(0.00017428469 0 0.0054783592)
(0.00014119956 0 0.0050337563)
(0.00011086216 0 0.004404756)
(8.1679927e-05 0 0.0035540318)
(5.1555678e-05 0 0.0024040166)
(1.7336699e-05 0 0.00084600873)
(0.0022652974 0 -0.0024091483)
(0.0022650851 0 -0.0024128823)
(0.0022647937 0 -0.0024173008)
(0.0022643974 0 -0.0024225352)
(0.0022638616 0 -0.0024287249)
(0.0022631394 0 -0.0024360297)
(0.0022621683 0 -0.0024446266)
(0.0022608646 0 -0.0024547128)
(0.0022591175 0 -0.0024664992)
(0.0022567793 0 -0.0024802087)
(0.0022536558 0 -0.0024960605)
(0.0022494919 0 -0.0025142602)
(0.002244 0 -0.0025347384)
(0.0022368106 0 -0.0025572771)
(0.0022273933 0 -0.0025815153)
(0.0022150853 0 -0.002606733)
(0.0021990726 0 -0.0026316617)
(0.0021783833 0 -0.0026542803)
(0.0021519644 0 -0.0026713943)
(0.0021187245 0 -0.0026773209)
(0.0020774397 0 -0.002665858)
(0.0020270747 0 -0.0026283538)
(0.0019669402 0 -0.0025537543)
(0.0018968288 0 -0.002429767)
(0.0018171806 0 -0.0022438675)
(0.0017290075 0 -0.0019847169)
(0.0016338348 0 -0.0016432813)
(0.0015337177 0 -0.0012141975)
(0.0014303303 0 -0.00070074791)
(0.0013248922 0 -0.00011298949)
(0.0012185728 0 0.00053393684)
(0.0011125049 0 0.0012200431)
(0.0010079162 0 0.0019225928)
(0.00090608867 0 0.0026177477)
(0.00080824884 0 0.0032827246)
(0.00071558093 0 0.0038974738)
(0.00062899275 0 0.0044457317)
(0.00054912285 0 0.0049150211)
(0.00047631182 0 0.0052966891)
(0.0004106113 0 0.0055843551)
(0.00035183639 0 0.0057744996)
(0.00029945079 0 0.00586146)
(0.00025284072 0 0.0058361931)
(0.00021137128 0 0.005690935)
(0.00017454149 0 0.0054115463)
(0.00014144373 0 0.0049779095)
(0.00011105364 0 0.0043596883)
(8.1806062e-05 0 0.0035189801)
(5.1600327e-05 0 0.002379885)
(1.7308557e-05 0 0.00083593074)
(0.0022534141 0 -0.0026458645)
(0.002253172 0 -0.0026497934)
(0.0022528441 0 -0.0026544433)
(0.0022524029 0 -0.0026599527)
(0.0022518118 0 -0.0026664684)
(0.0022510214 0 -0.0026741595)
(0.002249966 0 -0.0026832133)
(0.0022485579 0 -0.0026938398)
(0.0022466812 0 -0.0027062628)
(0.0022441816 0 -0.0027207202)
(0.0022408563 0 -0.0027374485)
(0.0022364526 0 -0.002756687)
(0.0022306861 0 -0.002778218)
(0.0022231533 0 -0.0028019677)
(0.0022133106 0 -0.0028275683)
(0.0022004789 0 -0.0028542721)
(0.0021838263 0 -0.0028808047)
(0.0021623759 0 -0.0029051376)
(0.0021351344 0 -0.0029231558)
(0.0021009497 0 -0.0029300905)
(0.0020586268 0 -0.0029192538)
(0.0020072236 0 -0.0028816629)
(0.001946173 0 -0.0028057018)
(0.0018753774 0 -0.0026791051)
(0.0017954254 0 -0.0024893063)
(0.0017074598 0 -0.0022249339)
(0.0016130857 0 -0.0018779668)
(0.0015144262 0 -0.0014417355)
(0.0014128282 0 -0.00092173128)
(0.0013094387 0 -0.00032785865)
(0.001205308 0 0.00032493349)
(0.0011014424 0 0.001016978)
(0.00099895491 0 0.001725799)
(0.00089905127 0 0.0024281264)
(0.00080289249 0 0.0031012707)
(0.00071163965 0 0.0037253609)
(0.00062619596 0 0.0042840464)
(0.00054722222 0 0.0047646823)
(0.00047508301 0 0.0051582792)
(0.00040987337 0 0.0054582033)
(0.0003514324 0 0.0056600825)
(0.00029927965 0 0.0057592812)
(0.0002528258 0 0.0057461005)
(0.00021146268 0 0.0056123679)
(0.00017468017 0 0.0053440976)
(0.00014159667 0 0.0049212571)
(0.000111179 0 0.0043137259)
(8.1887804e-05 0 0.0034831346)
(5.1621134e-05 0 0.0023552151)
(1.7276506e-05 0 0.00082579822)
(0.0022406345 0 -0.0028774272)
(0.0022403603 0 -0.0028815509)
(0.002239993 0 -0.0028864324)
(0.0022395035 0 -0.0028922164)
(0.002238853 0 -0.0028990577)
(0.0022379893 0 -0.0029071343)
(0.0022368435 0 -0.0029166433)
(0.0022353236 0 -0.0029278058)
(0.0022333083 0 -0.0029408583)
(0.0022306367 0 -0.0029560508)
(0.0022270981 0 -0.0029736271)
(0.0022224421 0 -0.0029938226)
(0.0022163791 0 -0.0030164568)
(0.0022084787 0 -0.0030414282)
(0.0021981817 0 -0.0030683669)
(0.0021847895 0 -0.0030965292)
(0.0021674522 0 -0.0031245884)
(0.002145226 0 -0.0031503447)
(0.0021171196 0 -0.003169381)
(0.0020819237 0 -0.0031771505)
(0.0020385121 0 -0.00316677)
(0.0019860887 0 -0.0031282589)
(0.0019241335 0 -0.0030504933)
(0.0018526815 0 -0.0029208991)
(0.0017724822 0 -0.0027268785)
(0.0016847641 0 -0.002457643)
(0.0015914199 0 -0.0021033385)
(0.0014942569 0 -0.0016604522)
(0.0013944963 0 -0.0011342241)
(0.001293201 0 -0.00053464024)
(0.0011913007 0 0.00012354877)
(0.0010896745 0 0.00082097839)
(0.00098932584 0 0.0015354322)
(0.00089138755 0 0.0022442337)
(0.00079695513 0 0.0029247896)
(0.00070716796 0 0.0035574468)
(0.00062292283 0 0.004125793)
(0.00054490001 0 0.0046170428)
(0.00047348724 0 0.0050218911)
(0.00040881908 0 0.005333495)
(0.00035076304 0 0.0055468194)
(0.00029888589 0 0.0056575289)
(0.00025262667 0 0.0056560308)
(0.00021140259 0 0.005533498)
(0.00017469858 0 0.0052760893)
(0.00014165625 0 0.0048638601)
(0.00011123682 0 0.004266907)
(8.1923785e-05 0 0.0034465216)
(5.1617265e-05 0 0.0023300329)
(1.7239849e-05 0 0.00081561842)
(0.0022269837 0 -0.0031039415)
(0.002226675 0 -0.0031082604)
(0.0022262655 0 -0.0031133738)
(0.0022257241 0 -0.0031194331)
(0.0022250098 0 -0.0031266011)
(0.0022240676 0 -0.0031350648)
(0.0022228248 0 -0.0031450324)
(0.0022211848 0 -0.0031567384)
(0.0022190205 0 -0.0031704342)
(0.0022161634 0 -0.0031863903)
(0.0022123939 0 -0.0032048811)
(0.0022074747 0 -0.0032259661)
(0.0022010989 0 -0.0032496416)
(0.002192808 0 -0.0032757879)
(0.002182026 0 -0.0033040362)
(0.002168037 0 -0.00333362)
(0.0021499789 0 -0.0033632382)
(0.0021269604 0 -0.0033899247)
(0.0020979203 0 -0.0034100637)
(0.002061661 0 -0.003418537)
(0.0020171687 0 -0.0034080346)
(0.0019637276 0 -0.0033681585)
(0.001900857 0 -0.0032881524)
(0.0018287792 0 -0.0031551834)
(0.0017483863 0 -0.0029565351)
(0.0016610748 0 -0.0026817466)
(0.0015688762 0 -0.0023200501)
(0.0014732516 0 -0.0018706564)
(0.0013753799 0 -0.0013384956)
(0.001276225 0 -0.00073357072)
(0.0011765947 0 -7.041787e-05)
(0.0010772415 0 0.00063188405)
(0.00097906403 0 0.0013513677)
(0.00088312752 0 0.0020659911)
(0.00079046086 0 0.0027532415)
(0.00070218475 0 0.0033937294)
(0.00061918723 0 0.003970997)
(0.0005421663 0 0.0044721503)
(0.00047153117 0 0.0048875846)
(0.00040745414 0 0.005210298)
(0.00034983112 0 0.0054347929)
(0.00029826909 0 0.0055562764)
(0.00025224327 0 0.005566051)
(0.00021119045 0 0.0054543851)
(0.0001745957 0 0.0052075721)
(0.00014162143 0 0.0048057631)
(0.00011122539 0 0.0042192829)
(8.1912911e-05 0 0.0034091763)
(5.158786e-05 0 0.0023043503)
(1.7198427e-05 0 0.00080537857)
(0.0022124891 0 -0.0033255112)
(0.0022121434 0 -0.0033300257)