/*--------------------------------*- C++ -*----------------------------------*\
  =========                 |
  \\      /  F ield         | OpenFOAM: The Open Source CFD Toolbox
   \\    /   O peration     | Website:  https://openfoam.org
    \\  /    A nd           | Version:  8
     \\/     M anipulation  |
\*---------------------------------------------------------------------------*/
FoamFile
{
    version     2.0;
    format      ascii;
    class       volScalarField;
    location    "0.0999939";
    object      Ma;
}
// * * * * * * * * * * * * * * * * * * * * * * * * * * * * * * * * * * * * * //

dimensions      [0 0 0 0 0 0 0];

internalField   nonuniform List<scalar> 
20000
(
0.63301688
0.75258708
0.83474328
0.9084529
0.97937851
1.0503346
1.0698899
1.0801963
1.0718924
1.0762793
1.0712296
1.0727738
1.0689136
1.0684219
1.0648464
1.062612
1.0584441
1.0543434
1.0487491
1.04229
1.034249
1.0245384
1.0127977
0.99870619
0.98206889
0.96284735
0.94092309
0.91734155
0.89332478
0.87003377
0.84846622
0.82921445
0.81268222
0.79889158
0.78771501
0.77885803
0.77194285
0.76662144
0.7625768
0.7595379
0.7572134
0.75548796
0.75421256
0.75306993
0.75184228
0.75096273
0.75058127
0.75080107
0.75244448
0.75277993
0.65267137
0.77390946
0.85649391
0.9301535
1.0006628
1.0697857
1.0841843
1.09418
1.0858304
1.0901845
1.0850325
1.0865321
1.0825318
1.0819072
1.0781382
1.0756605
1.0712023
1.0667049
1.0606336
1.0535275
1.0446948
1.0339865
1.0210355
1.0055382
0.98719959
0.96587791
0.94242415
0.91804331
0.89363422
0.87006306
0.84828665
0.82895374
0.81240044
0.79865641
0.78754985
0.77876524
0.77190204
0.76661179
0.76258281
0.75954383
0.75721052
0.755479
0.75419368
0.75301021
0.75158246
0.75077352
0.75059744
0.7511024
0.75237783
0.75283825
0.66893022
0.79163232
0.87466458
0.9484246
1.0188302
1.0859607
1.0959445
1.1057697
1.0972956
1.1016578
1.0963527
1.0977775
1.093611
1.0928155
1.0888521
1.0861056
1.0813598
1.0764346
1.0698794
1.0621017
1.0524664
1.0407577
1.0265913
1.0096875
0.98996311
0.96756741
0.94332884
0.91833063
0.89342447
0.86949241
0.84750822
0.82814709
0.81168101
0.79806968
0.78710458
0.77844953
0.77168616
0.76646887
0.7624875
0.75947189
0.75715237
0.75543631
0.75415073
0.75286819
0.75140239
0.75068871
0.75058891
0.75119325
0.75236877
0.75286856
0.68275027
0.80666599
0.89006398
0.9639014
1.0342924
1.0991411
1.1051441
1.1148807
1.1062537
1.1105935
1.1051163
1.1064527
1.1021206
1.1011605
1.0970093
1.0939976
1.0889555
1.0835838
1.0765263
1.0680771
1.0576231
1.0449284
1.0297186
1.0117276
0.99117996
0.96815813
0.943464
0.91795571
0.89254565
0.86832023
0.84627891
0.82700859
0.81071405
0.79730335
0.7865321
0.77804595
0.77141134
0.76628654
0.76236619
0.7593829
0.7570831
0.75538854
0.75410218
0.75269513
0.75124184
0.75060056
0.75056382
0.75130945
0.75236201
0.75290497
0.69419711
0.8190603
0.90280525
0.976747
1.0472568
1.1096959
1.1120596
1.1217792
1.112981
1.1173088
1.1116675
1.1129273
1.1084462
1.1073146
1.102956
1.0996327
1.0942557
1.0883999
1.0807706
1.0716283
1.0604492
1.0469664
1.0310992
1.0125555
0.99156816
0.96810397
0.94288196
0.91673167
0.89090277
0.86653617
0.84455779
0.82548557
0.80945506
0.79631632
0.78579424
0.77751939
0.77104639
0.7660389
0.76219762
0.75925982
0.75699071
0.75532778
0.75404104
0.75250366
0.75110795
0.75052754
0.7505297
0.75138194
0.75237757
0.75293358
0.70366215
0.82932834
0.91337514
0.98744351
1.0581375
1.1179742
1.1170645
1.1268076
1.1178446
1.1221688
1.1163753
1.11756
1.1129257
1.1115868
1.1069742
1.1032627
1.0975036
1.0911595
1.0830395
1.073344
1.0617237
1.0478338
1.0316133
1.0126954
0.99120373
0.9671481
0.94124376
0.91461559
0.88854139
0.86417752
0.84239502
0.82362869
0.80794494
0.79514245
0.78491882
0.77689287
0.77060994
0.76574035
0.76199286
0.75911117
0.75688117
0.75525597
0.7539649
0.75230652
0.7509835
0.75045988
0.75049423
0.75145267
0.75240024
0.75295847
0.71136204
0.83773301
0.92215263
0.99639002
1.0672859
1.1243995
1.1205178
1.1303303
1.1212124
1.1255438
1.1195868
1.1206354
1.1157996
1.1141926
1.109317
1.1052438
1.0991663
1.0924426
1.0840677
1.0740725
1.0622071
1.0480258
1.0314265
1.0120164
0.98981743
0.96507622
0.93864859
0.91167069
0.88550093
0.86128264
0.83981513
0.82145356
0.80619512
0.79378893
0.78390972
0.77616791
0.77010193
0.76539007
0.7617507
0.75893586
0.75675395
0.75517011
0.75386513
0.75210888
0.75087099
0.75040466
0.75046867
0.75151338
0.75242637
0.75297705
0.7178117
0.84482219
0.92960352
1.0040321
1.0750369
1.1292197
1.1227456
1.1326103
1.1233071
1.1276307
1.1214655
1.1222989
1.117327
1.1154758
1.1104287
1.1061429
1.0999239
1.092981
1.0844519
1.0742277
1.0620762
1.0474916
1.0303269
1.0102159
0.98735682
0.96202656
0.93515237
0.90796711
0.88184556
0.85790205
0.83686147
0.81899531
0.80423234
0.79227593
0.78278196
0.77535565
0.76953044
0.76499373
0.76147505
0.75873689
0.75661145
0.75506843
0.75373156
0.75191586
0.75077014
0.75036245
0.75045914
0.75157143
0.75245135
0.75299065
0.72313447
0.85079984
0.93600105
1.0106406
1.081619
1.1326746
1.123958
1.1338409
1.1242893
1.1286591
1.1222366
1.1230303
1.1180157
1.1160391
1.1109195
1.1064924
1.1001806
1.0930435
1.0842953
1.0737399
1.0611383
1.0459599
1.0281753
1.0074323
0.98393864
0.9580709
0.93085724
0.90358273
0.87763685
0.85408705
0.83357403
0.81628452
0.80207974
0.79062037
0.78154763
0.77446456
0.76890116
0.76455501
0.76116823
0.75851603
0.75645544
0.75494945
0.75355456
0.75173136
0.75068336
0.75033366
0.750459
0.75162594
0.75247454
0.75300001
0.72779011
0.8560766
0.94174588
1.0166127
1.0873254
1.1350769
1.1244826
1.1344475
1.1248172
1.1291411
1.1226979
1.1234171
1.1182808
1.116205
1.1110199
1.1064096
1.099942
1.0925191
1.083413
1.0723715
1.0592672
1.0435321
1.0251386
1.0037545
0.97966297
0.95332105
0.92584898
0.89859592
0.87294218
0.84989289
0.82999767
0.81335633
0.79976399
0.78884205
0.7802212
0.7735051
0.76822145
0.76407888
0.76083364
0.75827593
0.75628824
0.7548137
0.75333134
0.75155595
0.75060763
0.7503177
0.75046492
0.75167825
0.75249601
0.7530066
0.73195098
0.86093465
0.94710354
1.0222802
1.0924083
1.1367518
1.1247158
1.1347782
1.125055
1.1293253
1.1228543
1.1235534
1.1181814
1.1159534
1.1106456
1.1057526
1.0990211
1.0912013
1.0817277
1.0702285
1.0566214
1.0403072
1.0213004
0.99929325
0.97462497
0.94785739
0.92020983
0.89307958
0.86782458
0.84537284
0.82617553
0.8102446
0.79731093
0.78696021
0.77881678
0.77248745
0.76749844
0.7635701
0.76047455
0.75801929
0.756112
0.75466366
0.753074
0.75138352
0.75053646
0.75031267
0.75048278
0.75172907
0.75251673
0.75301153
0.73592377
0.86551934
0.95218786
1.0277837
1.0968956
1.1378642
1.1246343
1.1348928
1.1248907
1.1291975
1.1225157
1.1230959
1.1175761
1.1151062
1.1096126
1.1044143
1.0974257
1.0892354
1.0793821
1.0674071
1.0532858
1.0363932
1.0167665
0.9941314
0.96890559
0.94176194
0.914016
0.88710552
0.86234777
0.84058083
0.82215161
0.80698397
0.79474702
0.7849946
0.77734892
0.77142223
0.76673963
0.76303374
0.76009444
0.75774913
0.75592883
0.75450285
0.75280239
0.7512094
0.7504637
0.75031335
0.75052726
0.75178013
0.75253759
0.75301563
0.73952744
0.86966796
0.95684984
1.0330037
1.100604
1.1383625
1.1239894
1.1340516
1.1241065
1.1282083
1.1215467
1.1218641
1.1163938
1.1136808
1.1080186
1.1025162
1.0952641
1.0866919
1.0764532
1.0640008
1.049352
1.0318619
1.0115992
0.98833401
0.96256855
0.93509872
0.90733421
0.88073788
0.8565701
0.83556711
0.81796725
0.80360725
0.79209754
0.78296424
0.77583179
0.77031983
0.76595244
0.76247481
0.75969665
0.75746841
0.75574013
0.75433392
0.75253115
0.75103888
0.75037551
0.75030755
0.75060216
0.7518344
0.75255911
0.75301936
0.74264123
0.87325459
0.96098986
1.0378874
1.1034205
1.1381054
1.1228401
1.1329881
1.122857
1.1269495
1.120157
1.1203059
1.1147181
1.1117646
1.1059376
1.1001293
1.0926139
1.0836598
1.0730235
1.0600771
1.0448789
1.026773
1.0058562
0.98195494
0.9556711
0.9279303
0.90022915
0.87403983
0.85054915
0.83038111
0.81366303
0.80014664
0.78938727
0.78088779
0.77427932
0.76919057
0.76514422
0.76189834
0.75928443
0.75717962
0.75554631
0.75415676
0.75226994
0.7508787
0.75028658
0.75028098
0.75069756
0.75189304
0.75258099
0.75302293
0.74537438
0.87644008
0.96474906
1.042618
1.1054646
1.1371773
1.1213638
1.1314521
1.121226
1.1252175
1.1183324
1.1183094
1.1126359
1.1094391
1.103449
1.0973294
1.0895411
1.0801931
1.0691409
1.0556822
1.0399095
1.0211634
0.99957245
0.97503276
0.94825773
0.92030805
0.89275725
0.86706786
0.84433694
0.82506784
0.80927626
0.79663192
0.78663924
0.77878272
0.77270471
0.76804434
0.76432208
0.76130927
0.75886096
0.75688405
0.75534649
0.75396714
0.75202316
0.75073323
0.75020417
0.75023423
0.75080821
0.75195349
0.75260259
0.75302638
0.74780733
0.87929149
0.96816352
1.047247
1.1067746
1.1356623
1.1195383
1.1296049
1.1192648
1.1231665
1.1161856
1.1159881
1.1102122
1.1067596
1.1006019
1.0941611
1.0860883
1.0763338
1.0648435
1.0508492
1.0344742
1.0150635
0.99277944
0.96760284
0.94037191
0.91228384
0.88497487
0.85987785
0.83798432
0.81967104
0.80484286
0.79309157
0.78387541
0.77666573
0.77112056
0.76689063
0.76349284
0.76071243
0.75842986
0.75658241
0.75513846
0.75375696
0.75179304
0.75060297
0.75013481
0.75019308
0.75092608
0.7520133
0.7526233
0.75302953
0.74995539
0.88183295
0.97124685
1.0517794
1.1073631
1.1336228
1.11742
1.1274429
1.1170094
1.120801
1.1137452
1.113353
1.1074832
1.1037642
1.0974323
1.0906602
1.0822867
1.0721079
1.0601532
1.0455978
1.0285911
1.0084902
0.98549595
0.9596906
0.93204916
0.90390251
0.8769321
0.85251958
0.83153695
0.81423009
0.80039522
0.78955125
0.78111562
0.77455209
0.76953848
0.76573828
0.7626629
0.76011238
0.75799518
0.75627694
0.75491964
0.75351822
0.75158092
0.75048836
0.75008326
0.75017323
0.75104338
0.75207066
0.75264272
0.75303261
0.75184525
0.88412024
0.9740551
1.0562392
1.1072815
1.1313686
1.1150461
1.1250173
1.1145049
1.1181703
1.1110525
1.1104454
1.1044793
1.10048
1.0939653
1.0868484
1.0781554
1.0675327
1.0550853
1.0399422
1.022274
1.001458
0.97773991
0.95132255
0.92332703
0.89521123
0.86868004
0.84504266
0.82503957
0.80878295
0.7959641
0.78603503
0.77837841
0.77245606
0.7679693
0.76459546
0.76183826
0.75951338
0.75756049
0.75597106
0.75468877
0.75324997
0.75138477
0.75039139
0.75004864
0.75017175
0.75115534
0.75212474
0.75266084
0.75303577
0.75349171
0.88616454
0.97662634
1.0606003
1.1065689
1.1289433
1.1124506
1.122358
1.1117831
1.1152947
1.1081187
1.1072804
1.1012172
1.0969254
1.0902174
1.082742
1.0737068
1.0626176
1.0496472
1.0338888
1.0155288
0.99397269
0.96952201
0.94251927
0.91423861
0.88625248
0.86026494
0.83749195
0.81853232
0.80336346
0.79157677
0.78256423
0.77568023
0.77039019
0.76642272
0.76346943
0.7610244
0.75891937
0.75712872
0.75566689
0.75444672
0.75295859
0.75119849
0.75030938
0.75002805
0.75018043
0.75126188
0.75217552
0.75267783
0.75303921
0.75495692
0.88804656
0.97902942
1.06477
1.105285
1.1262517
1.1096522
1.1194772
1.1088494
1.1121863
1.1049594
1.1038735
1.0977124
1.0931149
1.0862009
1.0783491
1.0689466
1.0573672
1.0438436
1.0274421
1.0083594
0.98603994
0.96085473
0.93330529
0.90482125
0.87707195
0.85173466
0.82991271
0.81205462
0.79800399
0.7872588
0.7791587
0.77303626
0.76836558
0.7649076
0.76236669
0.76022628
0.75833404
0.75670287
0.75536611
0.75419579
0.75265094
0.75101714
0.75023976
0.75002092
0.75019559
0.75136266
0.75222323
0.752694
0.75304315
0.75621058
0.88974676
0.98129396
1.0686523
1.1034727
1.1233944
1.1066557
1.1163755
1.1057099
1.1088547
1.1015855
1.1002377
1.0939761
1.0890582
1.0819207
1.0736734
1.0638763
1.0517826
1.0376747
1.0206009
1.0007639
0.97765968
0.95174641
0.9237024
0.89510961
0.86771209
0.84313342
0.82234632
0.80564194
0.79273275
0.78303216
0.77583567
0.77045952
0.76639115
0.76343154
0.76129302
0.75944816
0.75776077
0.75628563
0.75507056
0.75393897
0.75233476
0.75083947
0.75017664
0.75002652
0.75022922
0.7514574
0.75226834
0.75270974
0.75304779
0.75724394
0.89127714
0.98345694
1.0722861
1.1012017
1.1203119
1.1034733
1.1130731
1.1023819
1.1053157
1.098011
1.0963844
1.090015
1.0847584
1.077377
1.068714
1.0584951
1.0458634
1.0311397
1.0133628
0.99273945
0.96883318
0.94220953
0.91373781
0.88514346
0.85821914
0.83450794
0.81483508
0.79932888
0.78757588
0.77891664
0.77261056
0.76796119
0.76447442
0.76200102
0.7602541
0.75869369
0.75720261
0.75587939
0.75478125
0.75367827
0.75201982
0.75066853
0.75010764
0.75003701
0.75030684
0.75154623
0.7523116
0.75272541
0.75305331
0.75805509
0.89265782
0.98554861
1.0756108
1.0985385
1.1170481
1.1001191
1.1095823
1.09888
1.1015803
1.0942425
1.0923163
1.0858283
1.0802134
1.0725669
1.0634692
1.0528014
1.039607
1.0242337
1.0057203
0.98427835
0.95955861
0.93225481
0.90343791
0.87496134
0.84863762
0.82590252
0.80741794
0.79314533
0.78255491
0.77492821
0.76949537
0.76554901
0.76262208
0.76062102
0.7592556
0.75796592
0.75666223
0.755486
0.75449806
0.75341327
0.75171647
0.75050896
0.75003869
0.75004033
0.75042494
0.7516328
0.75235385
0.75274127
0.7530599
0.75867633
0.89390149
0.9875894
1.0785583
1.0955705
1.1136052
1.096604
1.1059077
1.0952085
1.0976509
1.0902779
1.0880291
1.0814108
1.0754194
1.0674872
1.0579372
1.0467927
1.0330091
1.01695
0.99766452
0.97537365
0.94983742
0.92189913
0.89283572
0.86460793
0.83901659
0.81736369
0.80013271
0.78711795
0.77768885
0.77108082
0.76649905
0.76322757
0.76084198
0.75929555
0.75830293
0.75726776
0.75614185
0.7551068
0.75421954
0.75313998
0.75143417
0.75036414
0.74997726
0.75003288
0.75056442
0.75172026
0.75239528
0.75275742
0.75306774
0.75916949
0.89505548
0.98962173
1.0810971
1.0924774
1.1100032
1.0929261
1.1020489
1.0913598
1.0935172
1.0861097
1.0835168
1.0767577
1.0703743
1.0621363
1.0521165
1.0404648
1.0260618
1.0092773
0.98918218
0.96601529
0.93967033
0.91115999
0.88196524
0.85412806
0.82940371
0.80893381
0.79300948
0.78126601
0.77299297
0.76738593
0.7636267
0.76099885
0.75914318
0.75802852
0.75739927
0.75660238
0.75564321
0.75474261
0.75394372
0.7528524
0.7511809
0.75024014
0.74992906
0.75003594
0.75071622
0.75180655
0.75243537
0.75277386
0.75307701
0.75951745
0.89607871
0.99160152
1.0831076
1.0885579
1.1062279
1.0890817
1.098001
1.0873213
1.0891699
1.0817308
1.0787787
1.0718679
1.0650783
1.0565128
1.0460036
1.0338106
1.0187539
1.0012016
0.98025927
0.95619575
0.9290636
0.90006288
0.87086824
0.84357294
0.8198495
0.80065263
0.78607112
0.77560417
0.76848225
0.7638552
0.76088218
0.75886747
0.75753353
0.75682578
0.75654318
0.75597329
0.75516758
0.75439384
0.75366918
0.75254808
0.75096169
0.75013944
0.74990101
0.75005256
0.750867
0.75188902
0.7524736
0.75279064
0.75308786
0.75977397
0.89700795
0.9935209
1.084583
1.0848408
1.1022678
1.0850619
1.0937582
1.0830991
1.0846128
1.0771432
1.0738161
1.0667426
1.0595314
1.0506139
1.0395923
1.0268189
1.0110698
0.99270527
0.97087929
0.9459065
0.91802527
0.88863535
0.85958854
0.83299306
0.81039992
0.79254931
0.77932967
0.77014418
0.76417145
0.76049962
0.75827064
0.75684581
0.7560131
0.75569582
0.75572788
0.75538312
0.75471588
0.75406074
0.75339578
0.75223397
0.75077252
0.75006476
0.74989262
0.75007464
0.7510099
0.75196594
0.75250986
0.75280794
0.75310044
0.7599874
0.89789344
0.99535297
1.0854632
1.0807369
1.0981328
1.080874
1.089326
1.0786928
1.0798556
1.0723497
1.0686309
1.0613807
1.0537321
1.0444331
1.0328713
1.019474
1.0029907
0.98376948
0.96102687
0.93514397
0.90657105
0.87691432
0.84817762
0.82244274
0.80109756
0.78464335
0.77279584
0.76490593
0.7600777
0.75732868
0.75580213
0.7549474
0.7545758
0.75464655
0.75494688
0.75483109
0.75428913
0.75374357
0.75312466
0.75191984
0.75060458
0.75001114
0.74990413
0.75009979
0.75114204
0.75203686
0.75254437
0.752826
0.75311484
0.76018432
0.89877421
0.99708906
1.0857133
1.0764781
1.093829
1.076524
1.084705
1.0741009
1.0748988
1.0673515
1.0632225
1.0557789
1.0476749
1.0379592
1.0258246
1.0117562
0.99449491
0.97437312
0.950686
0.92390612
0.89472001
0.86494005
0.83668783
0.81197189
0.79197239
0.77694319
0.76649092
0.75991987
0.75621672
0.75434599
0.7534853
0.7531697
0.75321768
0.75367863
0.75420585
0.75431072
0.75388865
0.75344233
0.7528571
0.75161161
0.75045129
0.74996103
0.7499235
0.75013749
0.75126248
0.7521019
0.75257755
0.75284509
0.75313113
0.76041757
0.89972063
0.99871339
1.0853371
1.0719691
1.0893544
1.0720054
1.0798906
1.0693238
1.0697356
1.0621473
1.057589
1.0499307
1.0413489
1.0311757
1.0184315
1.0036429
0.98555953
0.9644956
0.93984442
0.91219843
0.88250154
0.85276229
0.82517722
0.80162796
0.78304419
0.76946331
0.76045922
0.75521813
0.75259949
0.75154797
0.75131538
0.75149758
0.75194529
0.75278411
0.75352201
0.75381215
0.75351611
0.75315619
0.75259315
0.75131587
0.75030902
0.74991499
0.7499572
0.75020411
0.75137165
0.75216186
0.75260995
0.75286548
0.75314933
0.76068937
0.90073934
1.0001532
1.0842894
1.0673089
1.0846993
1.0673149
1.0748836
1.0643614
1.0643706
1.0567321
1.0517261
1.043823
1.0347371
1.0240613
1.0106682
0.99510983
0.97615994
0.9541157
0.92849082
0.90003042
0.86994972
0.84043367
0.8137005
0.79144618
0.77432322
0.76224388
0.75474825
0.75082137
0.74921973
0.74891777
0.74928183
0.74992754
0.75076597
0.75195705
0.75290148
0.75333187
0.75317237
0.75288296
0.75232988
0.75104116
0.75018388
0.74987894
0.74998563
0.75031037
0.75147081
0.75221807
0.75264216
0.75288738
0.7531694
0.76102632
0.90184067
1.0013526
1.0825789
1.0624625
1.0798688
1.0624646
1.0696898
1.0592163
1.058801
1.0510959
1.0456205
1.0374364
1.0278176
1.0165914
1.0025091
0.98613182
0.96627164
0.94321404
0.91662016
0.88742146
0.85711013
0.82801456
0.80231133
0.78145227
0.76583105
0.75535097
0.74939605
0.74673004
0.74604512
0.74645017
0.74738414
0.74846489
0.74967703
0.751199
0.75233614
0.75287525
0.75285541
0.7526194
0.75206144
0.75079833
0.75008321
0.74985674
0.75001378
0.75043979
0.75156374
0.75227198
0.75267458
0.75291087
0.75319125
0.76143665
0.90307633
1.0022614
1.0802196
1.0574675
1.0748626
1.0574589
1.0643068
1.0538794
1.0530129
1.0452206
1.0392507
1.0307477
1.0205658
1.0087407
0.9939282
0.97668287
0.95586915
0.93177174
0.90423106
0.87439706
0.84403304
0.81556429
0.79105234
0.7716612
0.75762179
0.74884232
0.74442178
0.7429038
0.74305953
0.74415585
0.74562038
0.74710679
0.74867786
0.75050811
0.75182001
0.75245042
0.75255919
0.75236249
0.75178381
0.75059571
0.7500031
0.74984689
0.75004016
0.75057761
0.7516537
0.75232414
0.75270731
0.75293597
0.75321479
0.76190708
0.90449027
1.0028285
1.0772326
1.0523254
1.0696757
1.0522802
1.0587165
1.048332
1.046987
1.0390832
1.0325916
1.0237324
1.0129573
1.0004834
0.98489866
0.9667365
0.94492764
0.91977395
0.89133161
0.86099507
0.830779
0.8031429
0.77995845
0.7620975
0.74977969
0.7427614
0.73980101
0.73930297
0.74028146
0.74203104
0.74398696
0.74585169
0.7477656
0.74987955
0.75134925
0.75206716
0.75227578
0.7521109
0.75150449
0.75042843
0.74993968
0.74984322
0.75006811
0.7507154
0.75173952
0.75237428
0.7527403
0.75296264
0.75323987
0.76243315
0.90607658
1.0029813
1.0736303
1.0470165
1.0642865
1.0469045
1.0528953
1.0425528
1.0407007
1.0326591
1.0256212
1.0163656
1.0049672
0.99179323
0.97539274
0.9562649
0.93342175
0.90720886
0.87793619
0.84726048
0.81740969
0.79080188
0.76905341
0.75282186
0.74237601
0.73712576
0.73547044
0.73593561
0.73771279
0.74007124
0.74247935
0.74469643
0.7469368
0.74930938
0.75092148
0.7517266
0.75200235
0.75186506
0.75123525
0.75028474
0.74988219
0.74984728
0.75009642
0.7508446
0.75181911
0.7524219
0.75277346
0.75299081
0.75326633
0.76294413
0.9078303
1.0026196
1.069414
1.0415187
1.058669
1.0413188
1.0468241
1.0365197
1.0341313
1.0259253
1.018321
1.0086233
0.99656977
0.9826428
0.96538098
0.94523917
0.92132799
0.89407227
0.86407199
0.83325025
0.80399124
0.77858773
0.75836646
0.74393259
0.73546093
0.73189892
0.7313977
0.73281906
0.73534825
0.73827016
0.74109275
0.74363773
0.74618789
0.74879629
0.75053653
0.7514204
0.75174116
0.75162608
0.75097954
0.75015699
0.74983491
0.74986154
0.75012469
0.75096098
0.75189105
0.75246654
0.75280651
0.75302031
0.75329401
0.7633903
0.9097511
1.0016893
1.0646216
1.0358249
1.0528025
1.0355066
1.0404812
1.0302098
1.0272574
1.0188629
1.0106694
1.0004811
0.98773704
0.97300315
0.95483224
0.93362866
0.90862432
0.88036604
0.84977515
0.81902593
0.79058417
0.76653659
0.74795553
0.73551875
0.72905722
0.727003
0.72760415
0.72994993
0.73318065
0.73662073
0.73982155
0.74267165
0.74551592
0.74833967
0.75019355
0.75114191
0.75149315
0.75139584
0.75073982
0.75004262
0.74979602
0.74987808
0.75015446
0.75106483
0.75195569
0.75250789
0.75283883
0.75305073
0.75332281
0.76378242
0.91182237
1.0001137
1.059288
1.0299182
1.0466635
1.0294441
1.0338469
1.0236021
1.0200623
1.0114533
1.0026422
0.99191137
0.978439
0.96284342
0.94371308
0.92140274
0.89529388
0.86610425
0.83509592
0.80465746
0.77724701
0.75468444
0.73792402
0.7276462
0.72312932
0.72240475
0.72410525
0.72732162
0.73120188
0.73511552
0.73865996
0.74179416
0.74491866
0.74793796
0.74988911
0.75088832
0.75125901
0.75117624
0.75051991
0.74994446
0.74976772
0.74989694
0.75019108
0.7511589
0.7520147
0.75254634
0.75286966
0.75308086
0.75335264
0.7640649
0.91399076
0.99786502
1.0535358
1.0237696
1.0402313
1.0231137
1.0269064
1.0166824
1.0125288
1.0036712
0.99421364
0.98288432
0.96864369
0.95213014
0.93198789
0.9085304
0.88132572
0.85131082
0.82009241
0.7902126
0.76402939
0.74308159
0.72838416
0.7203493
0.71759278
0.71812798
0.72089631
0.72492456
0.72940265
0.73374639
0.7376017
0.74100118
0.74439433
0.74758847
0.74961905
0.7506541
0.75103835
0.75096786
0.75032508
0.74986252
0.74974757
0.7499128
0.75024257
0.75124696
0.75207067
0.75258341
0.75289871
0.75310848
0.75338343
0.76426029
0.91617024
0.99490092
1.0477731
1.0173761
1.033498
1.0165079
1.0196507
1.0094341
1.0046371
0.99548323
0.98535469
0.97336893
0.95831615
0.94082648
0.9196183
0.8949836
0.86671931
0.83602609
0.80483419
0.77576001
0.75097846
0.73182838
0.71942495
0.71360728
0.71240182
0.71419125
0.71796872
0.72274862
0.72777351
0.73250536
0.73664109
0.74028954
0.74394133
0.74728774
0.74937968
0.75043873
0.75082992
0.75076673
0.75015833
0.74978878
0.74973264
0.74992762
0.7503121
0.75133268
0.75212588
0.75262055
0.75292645
0.75313237
0.75341477
0.76438966
0.91828573
0.99123924
1.0416708
1.0107518
1.0264613
1.0096131
1.0120582
1.0018298
0.99635806
0.98686046
0.97603414
0.96333182
0.94741818
0.92889157
0.90656397
0.8807375
0.85148461
0.82030081
0.78939423
0.76136136
0.73814279
0.7210563
0.71109828
0.70733757
0.707572
0.71059177
0.71531054
0.72078218
0.72630422
0.73138426
0.73577314
0.73965741
0.74355756
0.74703178
0.749167
0.7502386
0.75063228
0.75056791
0.7500194
0.7497289
0.74972982
0.74994966
0.75039594
0.7514186
0.75218153
0.75265762
0.75295303
0.75315479
0.75344576
0.76451522
0.92023621
0.98690885
1.0350263
1.0038695
1.0190862
1.002396
1.0040958
0.9938378
0.98766252
0.97777664
0.96621894
0.95273527
0.9359061
0.91627983
0.89278481
0.86577604
0.83564765
0.80420082
0.77385004
0.74707959
0.72561007
0.71088313
0.70341245
0.70147044
0.7031293
0.70731891
0.71290919
0.71901352
0.72498473
0.73037546
0.73499388
0.73910389
0.74323949
0.74681613
0.74897768
0.75005221
0.75044472
0.75037508
0.74990484
0.74968386
0.74973684
0.74997836
0.75049267
0.75150579
0.75223833
0.75269445
0.75297828
0.75317841
0.75347464
0.76459507
0.92193637
0.9819271
1.0281226
0.99669465
1.0113349
0.99482632
0.99573883
0.98543361
0.97852609
0.96819909
0.95587094
0.94153491
0.92373043
0.90294252
0.87824314
0.85009375
0.81924836
0.78779925
0.75827432
0.73297363
0.71351634
0.70138701
0.69630007
0.6960024
0.69907683
0.70435853
0.71075037
0.7174301
0.72380459
0.72947107
0.73429837
0.73862531
0.74298105
0.74663591
0.74880834
0.74987767
0.75026766
0.75019681
0.7498099
0.74965684
0.74974999
0.75001071
0.75060016
0.75159429
0.75229601
0.75273132
0.75300272
0.75320378
0.7535023
0.76464444
0.9233356
0.97632275
1.0207778
0.98920399
1.0031939
0.98688929
0.98697268
0.97659575
0.96891851
0.95808538
0.94494241
0.92967956
0.91083577
0.88882894
0.86290839
0.83370169
0.80234555
0.77117925
0.74274233
0.71911955
0.7020152
0.69260942
0.68966397
0.69097142
0.69540221
0.70169552
0.70881983
0.71601965
0.72275376
0.72866323
0.73367895
0.73821046
0.74277471
0.7464863
0.74865616
0.74971409
0.75010153
0.75003626
0.74973637
0.74964368
0.74977231
0.75004549
0.75071438
0.75168336
0.7523537
0.75276837
0.75302759
0.75323092
0.75352887
0.76442668
0.92442193
0.97016949
1.0130306
0.98140149
0.99464551
0.97856991
0.97778119
0.96729116
0.95879533
0.94738294
0.93337708
0.91711256
0.8971626
0.87388916
0.84675957
0.81662698
0.7850103
0.75442394
0.72732778
0.70564514
0.69122248
0.68451073
0.68347255
0.68639
0.69208919
0.69931263
0.70710228
0.71476953
0.72182208
0.72794357
0.73312537
0.73784115
0.7426167
0.74636336
0.74851883
0.7495609
0.74994688
0.74989544
0.74966887
0.74963665
0.74980082
0.75008642
0.75083224
0.75177207
0.75241085
0.75280535
0.75305361
0.75325952
0.7535547
0.76391946
0.92521669
0.96357042
1.0048632
0.97327288
0.98567937
0.96983974
0.96812415
0.95746747
0.94810253
0.93603402
0.92111413
0.90377065
0.88264862
0.85807817
0.8297915
0.79891798
0.76732873
0.73762195
0.71211398
0.69272576
0.68120767
0.67698926
0.6777658
0.68224413
0.68911984
0.6971925
0.70558286
0.71366758
0.72099988
0.72730428
0.73263026
0.7375089
0.74251323
0.74626416
0.74839469
0.74941811
0.74980406
0.74977292
0.74961822
0.74963988
0.74983287
0.75014045
0.75095155
0.7518596
0.75246713
0.75284189
0.7530811
0.75328924
0.75357984
0.76299482
0.92566133
0.95682361
0.99626141
0.96480744
0.97624421
0.96063957
0.95793576
0.94705134
0.93679122
0.92397651
0.90808489
0.88958488
0.86723087
0.84135932
0.81201615
0.78063922
0.74939173
0.72086234
0.69721413
0.68051605
0.67197384
0.66998117
0.6725651
0.67851649
0.6864737
0.6953166
0.70424623
0.7127015
0.72027742
0.72673835
0.73219447
0.73724097
0.74246577
0.74618513
0.7482825
0.74928603
0.74967363
0.74966965
0.74958081
0.74964768
0.74986662
0.75021112
0.75107085
0.75194511
0.75252217
0.75287803
0.75311015
0.75331976
0.75360423
0.76156994
0.92580935
0.94834679
0.98715284
0.95592884
0.96626445
0.95089636
0.94714993
0.93597988
0.92479707
0.91114309
0.89421233
0.87448104
0.85084998
0.82371111
0.79346929
0.76187488
0.73129841
0.70424247
0.68280441
0.66912864
0.66343977
0.66350325
0.66786718
0.67518617
0.68413018
0.69366702
0.7030778
0.71185965
0.71964557
0.72623998
0.7318235
0.73707358
0.74245591
0.7461223
0.74818132
0.74916517
0.7495569
0.74958667
0.74956067
0.7496625
0.74990192
0.7502967
0.75118863
0.75202792
0.75257585
0.75291388
0.75314063
0.75335074
0.75362778
0.75938619
0.92531476
0.94010201
0.97744394
0.9465484
0.95567658
0.94055116
0.93571517
0.9241954
0.91204061
0.89745038
0.87941131
0.85838385
0.83345515
0.80513156
0.7742074
0.74272097
0.71314959
0.68787057
0.66908227
0.65861393
0.65550771
0.65759205
0.66365238
0.67222954
0.68206713
0.6922253
0.70206287
0.71113044
0.71909517
0.72580272
0.73151405
0.73699146
0.74246557
0.74607202
0.74809038
0.74905555
0.74946001
0.74952114
0.74955194
0.74968463
0.74993898
0.75039428
0.75130379
0.75210761
0.75262819
0.7529496
0.75317228
0.75338189
0.75365044
0.75621536
0.92447456
0.9311745
0.96711458
0.93665951
0.94444399
0.92954564
0.92356696
0.9116169
0.89843429
0.8828064
0.86359177
0.8412217
0.81501071
0.7856431
0.75431154
0.72328683
0.69506083
0.67191821
0.65620851
0.6489284
0.64815925
0.6522581
0.65989729
0.66962197
0.68026288
0.6909738
0.70118757
0.71050299
0.71861754
0.72541897
0.73125215
0.73695515
0.74248655
0.74603182
0.74800918
0.74895383
0.74936356
0.7494758
0.74955216
0.749712
0.74997931
0.75050176
0.75141573
0.75218427
0.75267916
0.7529854
0.75320486
0.753413
0.75367215
0.75218035
0.92314048
0.92149695
0.95610916
0.92619682
0.9324921
0.91778969
0.91061697
0.89814236
0.88387523
0.86711296
0.84666641
0.82293336
0.79550187
0.76529317
0.73388118
0.70368878
0.67715892
0.65660916
0.6442767
0.63995427
0.64144235
0.64747995
0.6565743
0.66733698
0.67869509
0.68989477
0.70043808
0.70996642
0.71820402
0.72508224
0.73102906
0.73695289
0.74251671
0.74600004
0.7479374
0.74886722
0.74928471
0.74944404
0.74955834
0.74974355
0.75002431
0.75061661
0.75152402
0.75225825
0.75272878
0.7530216
0.75323831
0.75344388
0.75369287
0.74719012
0.92121015
0.91116431
0.94432369
0.9150524
0.9197312
0.90518035
0.8967698
0.88364755
0.868254
0.85027526
0.82855442
0.80347234
0.77493784
0.74415697
0.7130351
0.68406038
0.65961052
0.64215213
0.63329009
0.63163916
0.63538115
0.64323285
0.65365468
0.66534861
0.67734248
0.68897149
0.69980148
0.70951057
0.717847
0.72479133
0.7308616
0.73698708
0.74255521
0.74597519
0.74787418
0.74879193
0.74921792
0.74942391
0.74956868
0.74977799
0.75007729
0.75073497
0.75162851
0.75232984
0.75277729
0.75305849
0.75327248
0.75347432
0.75371257
0.74118774
0.91854322
0.90005755
0.93164998
0.90312776
0.90606616
0.89160575
0.88191319
0.86801328
0.85146311
0.83220544
0.8091861
0.7828097
0.75335413
0.72233261
0.6919028
0.66454835
0.64264513
0.628692
0.62314648
0.62402506
0.62995931
0.63948509
0.65110705
0.66363
0.67618359
0.68818747
0.69926513
0.70912553
0.71754016
0.72454777
0.73076431
0.73705042
0.74260145
0.74595577
0.74781932
0.74873121
0.74917009
0.7494122
0.74958338
0.74981315
0.75014217
0.75085437
0.75172944
0.75239927
0.75282495
0.7530961
0.75330699
0.75350417
0.75373125
0.73416207
0.91500222
0.88816694
0.91798116
0.89030208
0.8913887
0.87693752
0.86592332
0.85114367
0.83340755
0.81282082
0.78849911
0.76093697
0.73081624
0.6999439
0.67063269
0.64532704
0.62652334
0.61628139
0.61376819
0.61714826
0.62515078
0.63620351
0.64890035
0.66215549
0.67519843
0.68752768
0.6988176
0.70880247
0.71727859
0.72434908
0.73071718
0.73713498
0.74265356
0.74594107
0.74777331
0.74868512
0.74914124
0.7494068
0.74960366
0.7498495
0.75021914
0.75097344
0.75182703
0.75246679
0.752872
0.75313422
0.75334155
0.75353328
0.75374889
0.72612567
0.91032451
0.87540871
0.90318913
0.87643922
0.87559461
0.86105659
0.8487006
0.83294257
0.81398914
0.79203512
0.76644238
0.73787269
0.70742044
0.67713491
0.64939579
0.62663883
0.6114465
0.60485438
0.60516758
0.61100648
0.62091925
0.63335091
0.64700218
0.66089928
0.67436754
0.68697779
0.69844789
0.70853303
0.71705732
0.72418991
0.73069862
0.7372346
0.74270815
0.74593109
0.74773744
0.74865284
0.74912567
0.7494077
0.74962954
0.74988846
0.75030672
0.75109143
0.75192149
0.75253265
0.7529188
0.75317266
0.75337602
0.75356158
0.75376551
0.71711791
0.90422753
0.86171108
0.88714682
0.86140952
0.85859153