/*--------------------------------*- C++ -*----------------------------------*\
  =========                 |
  \\      /  F ield         | OpenFOAM: The Open Source CFD Toolbox
   \\    /   O peration     | Website:  https://openfoam.org
    \\  /    A nd           | Version:  8
     \\/     M anipulation  |
\*---------------------------------------------------------------------------*/
FoamFile
{
    version     2.0;
    format      ascii;
    class       surfaceScalarField;
    location    "0.0999939";
    object      meshPhi;
}
// * * * * * * * * * * * * * * * * * * * * * * * * * * * * * * * * * * * * * //

dimensions      [0 3 -1 0 0 0 0];

internalField   nonuniform List<scalar> 
39600
(
-3.2405795e-05
-2.0088631e-06
2.0011149e-06
-3.2425414e-05
-2.4205139e-06
2.4521727e-06
-3.244577e-05
-2.9004124e-06
2.9371772e-06
-3.2469604e-05
-3.4746138e-06
3.5183102e-06
-3.2497202e-05
-4.1622728e-06
4.2142679e-06
-3.2530432e-05
-4.9857869e-06
5.0476271e-06
-3.2570409e-05
-5.9717517e-06
6.0453555e-06
-3.2619382e-05
-7.15183e-06
7.2396146e-06
-3.2681916e-05
-8.5638129e-06
8.6687004e-06
-3.2762009e-05
-1.0252586e-05
1.0378091e-05
-3.2864481e-05
-1.2271327e-05
1.2421713e-05
-3.2991107e-05
-1.4683e-05
1.4863294e-05
-3.3144316e-05
-1.7561495e-05
1.7777731e-05
-3.3328303e-05
-2.0993087e-05
2.1252369e-05
-3.3577893e-05
-2.507656e-05
2.5387847e-05
-3.3887822e-05
-2.9922898e-05
3.0297436e-05
-3.4418947e-05
-3.5653531e-05
3.6104112e-05
-3.5256259e-05
-4.2390024e-05
4.2933648e-05
-3.6211242e-05
-5.0269395e-05
5.0929131e-05
-3.7282209e-05
-5.9464831e-05
6.0268185e-05
-3.8521311e-05
-7.0164744e-05
7.1145185e-05
-3.9974941e-05
-8.2596416e-05
8.3800135e-05
-4.2485179e-05
-9.6784759e-05
9.8272158e-05
-4.7027334e-05
-0.00011257939
0.00011444785
-5.4543805e-05
-0.00012939004
0.00013171733
-6.3324878e-05
-0.00014707009
0.00014997164
-7.3205255e-05
-0.00016540669
0.00016904744
-8.098825e-05
-0.00018571597
0.00019018965
-8.8441193e-05
-0.00020999304
0.0002153847
-9.3555776e-05
-0.00023771232
0.00024420501
-9.753879e-05
-0.00026848772
0.00027621023
-0.00010596783
-0.00029563192
0.00030463252
-0.00010965052
-0.00031641699
0.00032596372
-0.00011137912
-0.00033582973
0.00034552218
-0.00011397441
-0.00036007564
0.00037043892
-0.00012391133
-0.00038591162
0.00039771806
-0.00014581716
-0.0004080974
0.00042219153
-0.00017690476
-0.00042392493
0.00044082351
-0.00020184075
-0.00043229147
0.00045268341
-0.00022430916
-0.00043220417
0.00045508784
-0.00024537007
-0.0004265906
0.00045132732
-0.00028100924
-0.00042917124
0.00045800904
-0.00029964906
-0.00045100533
0.00048491214
-0.0002813831
-0.00049627318
0.00052925037
-0.00024954957
-0.00053303116
0.0005603545
-0.00017892111
-0.00056170246
0.00058021494
-3.4540113e-05
-0.00060368674
0.00061009333
0.00033757151
-0.00064539156
0.00063095507
0.00077632322
-0.00061423914
0.00058401362
-0.00029834887
0.00029282575
-2.605387e-05
-1.9911453e-06
-2.6055754e-05
-2.3991681e-06
-2.6054249e-05
-2.8741144e-06
-2.6053292e-05
-3.4430164e-06
-2.605623e-05
-4.1244157e-06
-2.6065378e-05
-4.9403247e-06
-2.6084429e-05
-5.9173192e-06
-2.6114949e-05
-7.0867466e-06
-2.6160138e-05
-8.4862688e-06
-2.6220838e-05
-1.0160386e-05
-2.6299212e-05
-1.2162005e-05
-2.6392629e-05
-1.4553423e-05
-2.6506771e-05
-1.7407809e-05
-2.664646e-05
-2.0810074e-05
-2.6854312e-05
-2.4856533e-05
-2.7139402e-05
-2.9657112e-05
-2.7597556e-05
-3.5332791e-05
-2.8287473e-05
-4.2007309e-05
-2.9077754e-05
-4.9818032e-05
-2.9972019e-05
-5.8925116e-05
-3.1026474e-05
-6.9510558e-05
-3.2320492e-05
-8.1773544e-05
-3.4581272e-05
-9.5742267e-05
-3.8675128e-05
-0.00011124976
-4.5328335e-05
-0.0001277617
-5.3327267e-05
-0.00014505397
-6.2760155e-05
-0.00016277474
-7.0287128e-05
-0.00018245004
-7.7521734e-05
-0.00020598995
-8.2615635e-05
-0.00023289462
-8.7008237e-05
-0.00026269439
-9.5131693e-05
-0.00028885331
-9.9084115e-05
-0.00030911808
-0.00010184745
-0.00032844872
-0.00010469792
-0.00035223704
-0.00011526814
-0.00037673582
-0.00013633887
-0.00039678789
-0.00016739067
-0.00040967318
-0.00019304961
-0.00041452071
-0.00021597483
-0.00041187786
-0.00023697652
-0.00040455676
-0.00027176847
-0.00040357006
-0.0002929519
-0.00042115884
-0.00027442319
-0.00046592052
-0.00024512481
-0.00050740797
-0.00017221839
-0.00054439053
-3.6480793e-05
-0.00059674312
0.00033137615
-0.00065670828
0.00076072686
-0.00064022192
-0.00030234257
-2.0206311e-05
-1.9799669e-06
-2.0293832e-05
-2.385115e-06
-2.0379856e-05
-2.8564901e-06
-2.0449583e-05
-3.4210862e-06
-2.0499776e-05
-4.0974745e-06
-2.0535288e-05
-4.9076839e-06
-2.0557989e-05
-5.8781518e-06
-2.0569951e-05
-7.0402451e-06
-2.0570604e-05
-8.4315476e-06
-2.0562206e-05
-1.0096585e-05
-2.0548871e-05
-1.208819e-05
-2.0534066e-05
-1.4468316e-05
-2.0534598e-05
-1.7309666e-05
-2.0567313e-05
-2.0695697e-05
-2.0670679e-05
-2.4721651e-05
-2.0870739e-05
-2.9497376e-05
-2.120625e-05
-3.51437e-05
-2.1682779e-05
-4.1787578e-05
-2.2249362e-05
-4.9563035e-05
-2.2924953e-05
-5.8620557e-05
-2.3757287e-05
-6.9137367e-05
-2.4871868e-05
-8.1290079e-05
-2.6854528e-05
-9.5111514e-05
-3.0479039e-05
-0.00011041862
-3.6305693e-05
-0.0001267303
-4.3607603e-05
-0.00014374706
-5.2556917e-05
-0.00016098469
-5.9771206e-05
-0.00018014273
-6.6652119e-05
-0.00020310053
-7.1524178e-05
-0.00022938081
-7.6111214e-05
-0.00025839339
-8.3766884e-05
-0.0002838422
-8.7907788e-05
-0.00030380081
-9.1241418e-05
-0.00032308043
-9.4367692e-05
-0.00034647531
-0.00010549613
-0.00036982467
-0.00012583013
-0.00038795574
-0.00015649168
-0.00039795956
-0.0001828013
-0.00039926898
-0.00020599791
-0.00039395944
-0.00022669915
-0.00038491433
-0.00026184825
-0.00038069639
-0.00028502912
-0.00039388601
-0.00026744495
-0.00043713804
-0.00023922496
-0.00048270671
-0.00016635607
-0.00052756794
-3.7447238e-05
-0.00058954062
0.00032474788
-0.00066782671
0.00074352544
-0.00066723926
-0.0003086977
-1.4634234e-05
-1.9763759e-06
-1.4723874e-05
-2.381546e-06
-1.4817905e-05
-2.8529418e-06
-1.4904837e-05
-3.4174796e-06
-1.4977995e-05
-4.093494e-06
-1.5039115e-05
-4.9029033e-06
-1.5084309e-05
-5.8719367e-06
-1.5109311e-05
-7.0320219e-06
-1.5108478e-05
-8.4206246e-06
-1.5078432e-05
-1.0082268e-05
-1.5022863e-05
-1.2069904e-05
-1.4945716e-05
-1.4445476e-05
-1.4867171e-05
-1.7281751e-05
-1.4811329e-05
-2.0661929e-05
-1.4810036e-05
-2.4681145e-05
-1.4896349e-05
-2.9449712e-05
-1.5085691e-05
-3.5090165e-05
-1.5370139e-05
-4.1729946e-05
-1.5735956e-05
-4.9499139e-05
-1.6197376e-05
-5.8544943e-05
-1.6816478e-05
-6.9037541e-05
-1.7736058e-05
-8.1137221e-05
-1.9438443e-05
-9.4879341e-05
-2.2626348e-05
-0.00011006402
-2.7736062e-05
-0.00012625655
-3.4420032e-05
-0.00014308489
-4.285547e-05
-0.00015997145
-4.9708955e-05
-0.00017876698
-5.6181532e-05
-0.00020132986
-6.0817291e-05
-0.00022716282
-6.5468316e-05
-0.00025556799
-7.2653034e-05
-0.00028055223
-7.6896814e-05
-0.00030043063
-8.0566525e-05
-0.00031975336
-8.3984926e-05
-0.00034283403
-9.5452118e-05
-0.00036520432
-0.00011513216
-0.0003816244
-0.00014523987
-0.0003889383
-0.00017205756
-0.00038681344
-0.00019542222
-0.00037882379
-0.00021599815
-0.00036808167
-0.00025176232
-0.00036078224
-0.00027664405
-0.00036933078
-0.00026063256
-0.00041039764
-0.00023324423
-0.00045951796
-0.0001611818
-0.00051171667
-3.8021163e-05
-0.0005824306
0.00031861319
-0.00067882045
0.0007274169
-0.00069513287
-0.00031715264
-9.3228424e-06
-1.9794256e-06
-9.3302793e-06
-2.3853883e-06
-9.3492423e-06
-2.8577311e-06
-9.383801e-06
-3.4234962e-06
-9.4271657e-06
-4.1010213e-06
-9.4756677e-06
-4.9123658e-06
-9.5195969e-06
-5.883848e-06
-9.5507272e-06
-7.046935e-06
-9.5612253e-06
-8.4391157e-06
-9.5420262e-06
-1.0104958e-05
-9.4959394e-06
-1.2097299e-05
-9.4189951e-06
-1.4478079e-05
-9.3278936e-06
-1.7320185e-05
-9.2355068e-06
-2.0707035e-05
-9.1730945e-06
-2.4734277e-05
-9.1665359e-06
-2.9513611e-05
-9.2286949e-06
-3.5169297e-05
-9.3626769e-06
-4.1828263e-05
-9.5549993e-06
-4.9619665e-05
-9.8212875e-06
-5.8689784e-05
-1.0236099e-05
-6.9203106e-05
-1.0950132e-05
-8.1305193e-05
-1.2379323e-05
-9.5029945e-05
-1.5165484e-05
-0.00011016314
-1.9649068e-05
-0.00012631246
-2.5784233e-05
-0.000143043
-3.3673609e-05
-0.00015970848
-4.0077874e-05
-0.00017830439
-4.6101709e-05
-0.00020066074
-5.0493495e-05
-0.00022621815
-5.5117635e-05
-0.00025418193
-6.1833466e-05
-0.00027891355
-6.6098635e-05
-0.00029892393
-6.9977021e-05
-0.00031841679
-7.366672e-05
-0.00034127249
-8.530602e-05
-0.00036280225
-0.00010436106
-0.00037772608
-0.0001338146
-0.00038259541
-0.00016098053
-0.00037719932
-0.0001844735
-0.00036654655
-0.00020504812
-0.00035413673
-0.00024146023
-0.00034379815
-0.00026776989
-0.00034753251
-0.00025369241
-0.00038590008
-0.0002271145
-0.00043803252
-0.00015644526
-0.00049708336
-3.8157251e-05
-0.00057580669
0.00031302669
-0.00068991582
0.00071235587
-0.00072408137
-0.0003276987
-4.4224413e-06
-1.9889763e-06
-4.4250859e-06
-2.396771e-06
-4.4346361e-06
-2.8712746e-06
-4.449887e-06
-3.4396722e-06
-4.4618626e-06
-4.1205248e-06
-4.4684488e-06
-4.9360978e-06
-4.4619869e-06
-5.912963e-06
-4.4396383e-06
-7.0828331e-06
-4.3984727e-06
-8.4834481e-06
-4.3340238e-06
-1.0159594e-05
-4.2518151e-06
-1.2164294e-05
-4.146375e-06
-1.4559664e-05
-4.0308295e-06
-1.7418728e-05
-3.9060522e-06
-2.0825293e-05
-3.788865e-06
-2.4875931e-05
-3.7023198e-06
-2.9683923e-05
-3.6612668e-06
-3.5374781e-05
-3.6698045e-06
-4.2076557e-05
-3.7148202e-06
-4.9918815e-05
-3.8071737e-06
-5.9047848e-05
-4.0232044e-06
-6.9624936e-05
-4.5248795e-06
-8.178292e-05
-5.6886368e-06
-9.5550104e-05
-8.1029818e-06
-0.00011069928
-1.2045011e-05
-0.00012686771
-1.7685579e-05
-0.00014356246
-2.4999268e-05
-0.00016012631
-3.0880263e-05
-0.00017869975
-3.6432121e-05
-0.00020104037
-4.0574247e-05
-0.00022648099
-4.5107265e-05
-0.00025416962
-5.1358942e-05
-0.00027884213
-5.5577119e-05
-0.00029917438
-5.9585642e-05
-0.00031896297
-6.3505523e-05
-0.00034169234
-7.518999e-05
-0.00036253116
-9.362119e-05
-0.00037617909
-0.00012236205
-0.00037888806
-0.00014972473
-0.00037043729
-0.00017333074
-0.00035718606
-0.00019396587
-0.00034311302
-0.00023096184
-0.00032974454
-0.0002584649
-0.00032854018
-0.00024649133
-0.00036388357
-0.0002207936
-0.00041852072
-0.00015198124
-0.00048379266
-3.785487e-05
-0.00056973077
0.00030803001
-0.00070111951
0.00069831611
-0.00075390446
-0.00034007424
1.7379719e-07
-2.0050746e-06
1.8505467e-07
-2.4164023e-06
1.9665855e-07
-2.8951923e-06
2.1005987e-07
-3.468843e-06
2.3489385e-07
-4.1561015e-06
2.7105955e-07
-4.9794249e-06
3.2401829e-07
-5.9656108e-06
3.9344805e-07
-7.1466335e-06
4.7910368e-07
-8.5605035e-06
5.8349948e-07
-1.0252359e-05
6.9980459e-07
-1.2275594e-05
8.3515031e-07
-1.4692853e-05
9.7914358e-07
-1.7577811e-05
1.139134e-06
-2.101526e-05
1.3096024e-06
-2.5103094e-05
1.4709234e-06
-2.9956092e-05
1.6020488e-06
-3.5701412e-05
1.7024063e-06
-4.2469743e-05
1.7926293e-06
-5.0392559e-05
1.8630504e-06
-5.9615218e-05
1.8352997e-06
-7.0295298e-05
1.5422403e-06
-8.2557529e-05
6.3593281e-07
-9.6423796e-05
-1.4311714e-06
-0.00011165269
-4.9070458e-06
-0.0001278998
-1.0098453e-05
-0.00014462366
-1.6807425e-05
-0.00016120244
-2.2103488e-05
-0.00017992728
-2.7171317e-05
-0.0002024363
-3.1056164e-05
-0.0002279169
-3.5450354e-05
-0.00025548707
-4.1246788e-05
-0.00028027657
-4.5361348e-05
-0.00030110979
-4.9447896e-05
-0.00032132919
-5.354635e-05
-0.0003440351
-6.5173372e-05
-0.00036432312
-8.2966702e-05
-0.0003769236
-0.00011096017
-0.00037776735
-0.00013838253
-0.00036649847
-0.00016209265
-0.00035072727
-0.00018281228
-0.00033500369
-0.00022028128
-0.00031860896
-0.0002487794
-0.00031241644
-0.00023895552
-0.00034446597
-0.00021425933
-0.0004010836
-0.00014763185
-0.00047197232
-3.711386e-05
-0.00056442878
0.00030358374
-0.00071261122
0.00068515365
-0.00078463093
-0.00035414843
4.487395e-06
-2.0273046e-06
4.5304654e-06
-2.443298e-06
4.5847213e-06
-2.9277465e-06
4.6437512e-06
-3.5083438e-06
4.7131414e-06
-4.2040453e-06
4.7888581e-06
-5.0375306e-06
4.8752286e-06
-6.0358507e-06
4.9717947e-06
-7.2313328e-06
5.0795608e-06
-8.6624308e-06
5.2032869e-06
-1.0374829e-05
5.3383352e-06
-1.2422636e-05
5.4959213e-06
-1.4869352e-05
5.6686929e-06
-1.7789678e-05
5.8697449e-06
-2.1269731e-05
6.0998209e-06
-2.5409237e-05
6.3361094e-06
-3.0324273e-05
6.5545497e-06
-3.6144467e-05
6.7627425e-06
-4.3004376e-05
6.987838e-06
-5.1036847e-05
7.218014e-06
-6.0387065e-05
7.3679674e-06
-7.1209269e-05
7.2732127e-06
-8.3621916e-05
6.6091784e-06
-9.7638885e-05
4.867854e-06
-0.00011301066
1.8074488e-06
-0.00012939646
-2.9751236e-06
-0.00014620601
-9.0661945e-06
-0.00016290824
-1.3729707e-05
-0.00018195512
-1.8306132e-05
-0.00020481892
-2.1920067e-05
-0.00023050324
-2.6138787e-05
-0.00025812439
-3.1488938e-05
-0.00028320449
-3.5454049e-05
-0.00030470142
-3.9576434e-05
-0.00032547935
-4.3798595e-05
-0.00034828003
-5.5286826e-05
-0.00036817824
-7.2424934e-05
-0.00037995995
-9.9651489e-05
-0.0003792357
-0.00012701803
-0.00036540364
-0.00015082345
-0.00034721337
-0.00017162583
-0.00032982976
-0.00020945819
-0.00031040905
-0.00023878649
-0.00029919765
-0.000231094
-0.00032775749
-0.00020751286
-0.00038584833
-0.00014332144
-0.00046164038
-3.5948129e-05
-0.0005598979
0.00029965626
-0.00072440606
0.00067272813
-0.0008160716
-0.00036966699
8.5064577e-06
-2.0555083e-06
8.5602435e-06
-2.4772619e-06
8.6276101e-06
-2.9683885e-06
8.701353e-06
-3.5569415e-06
8.7862014e-06
-4.2621597e-06
8.8784852e-06
-5.1071069e-06
8.9838651e-06
-6.1193494e-06
9.1024322e-06
-7.3317985e-06
9.2367602e-06
-8.7835562e-06
9.3924317e-06
-1.05212e-05
9.5658046e-06
-1.2599747e-05
9.7696752e-06
-1.5083888e-05
9.997321e-06
-1.8049647e-05
1.0264106e-05
-2.1584823e-05
1.0569463e-05
-2.5790247e-05
1.088908e-05
-3.0784165e-05
1.1204177e-05
-3.6700547e-05
1.1527414e-05
-4.3676083e-05
1.1889982e-05
-5.1846212e-05
1.2277724e-05
-6.1357232e-05
1.2600295e-05
-7.2361046e-05
1.2696948e-05
-8.4970069e-05
1.2257845e-05
-9.9187742e-05
1.0820484e-05
-0.0001147596
8.1329897e-06
-0.00013134106
3.7195706e-06
-0.00014829539
-1.7566491e-06
-0.00016522443
-5.7528403e-06
-0.00018475721
-9.8293229e-06
-0.00020815757
-1.3159962e-05
-0.00023420581
-1.7171757e-05
-0.00026203581
-2.2083435e-05
-0.00028756935
-2.5860328e-05
-0.00030988898
-2.9982486e-05
-0.00033135806
-3.4272518e-05
-0.00035437289
-4.555296e-05
-0.00037403682
-6.2015851e-05
-0.00038523687
-8.8463328e-05
-0.00038324614
-0.00011567791
-0.00036711309
-0.00013956562
-0.00034661532
-0.00016043723
-0.00032758411
-0.00019852649
-0.00030515841
-0.00022854778
-0.00028894891
-0.00022292837
-0.00031384062
-0.00020056804
-0.00037289827
-0.00013894575
-0.00045294797
-3.4342528e-05
-0.0005563668
0.00029622123
-0.00073668084
0.00066097181
-0.00084832081
-0.00038658813
1.2242913e-05
-2.0894337e-06
1.228377e-05
-2.5178327e-06
1.2333285e-05
-3.01668e-06
1.2392063e-05
-3.6144665e-06
1.2469178e-05
-4.330832e-06
1.2564371e-05
-5.1893041e-06
1.2684548e-05
-6.2180622e-06
1.2829836e-05
-7.4507049e-06
1.3002803e-05
-8.9272564e-06
1.3207515e-05
-1.0695196e-05
1.3439616e-05
-1.2810898e-05
1.3710324e-05
-1.5340293e-05
1.4011829e-05
-1.836105e-05
1.4357526e-05
-2.1962665e-05
1.4743491e-05
-2.6246944e-05
1.5145404e-05
-3.1335053e-05
1.5558623e-05
-3.7365252e-05
1.6004785e-05
-4.4478879e-05
1.6509287e-05
-5.2814206e-05
1.7054411e-05
-6.2518427e-05
1.7547879e-05
-7.3741797e-05
1.7832118e-05
-8.6592665e-05
1.7606546e-05
-0.00010106271
1.6454699e-05
-0.00011689543
1.4109141e-05
-0.00013374125
1.0043099e-05
-0.00015090472
5.1601644e-06
-0.00016815263
1.8282127e-06
-0.00018830519
-1.7511278e-06
-0.00021238555
-4.7905668e-06
-0.00023893925
-8.5700516e-06
-0.00026713279
-1.3055713e-05
-0.00029326529
-1.6618706e-05
-0.00031653191
-2.070441e-05
-0.00033880218
-2.5008326e-05
-0.00036215443
-3.601985e-05
-0.00038175362
-5.1782479e-05
-0.00039260896
-7.7436704e-05
-0.00038965225
-0.00010441726
-0.00037148906
-0.00012836813
-0.00034880471
-0.00014928309
-0.00032812557
-0.00018753375
-0.00030272381
-0.00021812097
-0.00028156084
-0.00021449524
-0.00030266508
-0.00019342691
-0.00036221617
-0.00013443542
-0.00044582214
-3.2284445e-05
-0.00055380227
0.00029326591
-0.00074946932
0.00064984521
-0.00088124118
-0.00040471223
1.5740318e-05
-2.1292178e-06
1.5790368e-05
-2.5660586e-06
1.5851919e-05
-3.0750699e-06
1.5925522e-05
-3.6851883e-06
1.6019918e-05
-4.4163497e-06
1.6134588e-05
-5.2926455e-06
1.6276285e-05
-6.3426061e-06
1.6445505e-05
-7.6005553e-06
1.664531e-05
-9.1072298e-06
1.6881743e-05
-1.0911176e-05
1.7150391e-05
-1.3069814e-05
1.7465185e-05
-1.5650849e-05
1.7816023e-05
-1.8733582e-05
1.8216147e-05
-2.2408919e-05
1.8655964e-05
-2.6780833e-05
1.9127173e-05
-3.1975275e-05
1.9639217e-05
-3.8136983e-05
2.0207083e-05
-4.5410297e-05
2.0856823e-05
-5.3936349e-05
2.1560225e-05
-6.3865095e-05
2.2223844e-05
-7.5345037e-05
2.2693737e-05
-8.8482267e-05
2.2674809e-05
-0.00010325562
2.1798849e-05
-0.00011941004
1.9778602e-05
-0.00013658639
1.6048147e-05
-0.00015402068
1.1728563e-05
-0.00017167782
9.0314266e-06
-0.00019257937
5.9336312e-06
-0.00021747475
3.1858412e-06
-0.00024466319
-3.4924145e-07
-0.0002733511
-4.4275233e-06
-0.00030020899
-7.7627082e-06
-0.00032453857
-1.1777516e-05
-0.00034771694
-1.6042952e-05
-0.00037152545
-2.6729463e-05
-0.00039122487
-4.176102e-05
-0.00040198553
-6.6598239e-05
-0.00039838336
-9.3268745e-05
-0.00037848889
-0.00011725744
-0.00035376274
-0.00013818566
-0.00033146588
-0.00017650693
-0.00030314677
-0.00020754214
-0.00027711972
-0.00020581557
-0.00029433279
-0.00018608999
-0.0003539143
-0.00012972973
-0.00044046337
-2.9782281e-05
-0.00055246467
0.00029073513
-0.00076291606
0.00063922941
-0.00091475432
-0.00042387635
1.9011685e-05
-2.1743957e-06
1.9091755e-05
-2.6205912e-06
1.9193634e-05
-3.1408212e-06
1.9311235e-05
-3.7646651e-06
1.9449484e-05
-4.5125806e-06
1.9603538e-05
-5.4090953e-06
1.9779464e-05
-6.4835029e-06
1.9976451e-05
-7.7707997e-06
2.0199172e-05
-9.3126068e-06
2.0453358e-05
-1.1158548e-05
2.0738124e-05
-1.3367112e-05
2.1068737e-05
-1.6007405e-05
2.1439231e-05
-1.9160406e-05
2.186085e-05
-2.2917845e-05
2.2337507e-05
-2.738887e-05
2.2882511e-05
-3.2706898e-05
2.3501022e-05
-3.9020341e-05
2.4190198e-05
-4.6476739e-05
2.4966664e-05
-5.5217399e-05
2.5814988e-05
-6.5395289e-05
2.6640622e-05
-7.716339e-05
2.7288761e-05
-9.0627538e-05
2.7473877e-05
-0.0001057553
2.6875002e-05
-0.00012230124
2.5171522e-05
-0.0001398855
2.1771831e-05
-0.0001576748
1.7984624e-05
-0.00017582256
1.5881475e-05
-0.00019756002
1.3240582e-05
-0.00022338687
1.0772589e-05
-0.00025132944
7.4821353e-06
-0.00028063594
3.8054773e-06
-0.00030834627
7.2410465e-07
-0.00033386606
-3.1850857e-06
-0.00035807241
-7.3624199e-06
-0.00038247259
-1.7674057e-05
-0.00040245466
-3.1952984e-05
-0.00041335396
-5.5957724e-05
-0.00040938252
-8.2244007e-05
-0.0003880408
-0.0001062377
-0.00036144213
-0.00012714729
-0.00033755657
-0.00016546358
-0.00030637246
-0.00019684054
-0.00027556343
-0.00019691833
-0.00028880081
-0.00017856008
-0.00034797855
-0.00012480287
-0.00043681741
-2.6848555e-05
-0.00055233612
0.00028858398
-0.00077707102
0.00062900945
-0.00094873907
-0.00044389644
2.2093041e-05
-2.2254653e-06
2.2235437e-05
-2.6834306e-06
2.2398726e-05
-3.2177485e-06
2.2566257e-05
-3.8583474e-06
2.2740223e-05
-4.6258406e-06
2.2920067e-05
-5.545355e-06
2.3111866e-05
-6.6467811e-06
2.3318283e-05
-7.9658359e-06
2.3546721e-05
-9.5453315e-06
2.3803967e-05
-1.1435963e-05
2.4095193e-05
-1.3698038e-05
2.4434842e-05
-1.640261e-05
2.4824053e-05
-1.9632517e-05
2.5278713e-05
-2.3483558e-05
2.5823073e-05
-2.8071518e-05
2.6473744e-05
-3.3534535e-05
2.7208034e-05
-4.0023103e-05
2.8005336e-05
-4.7682547e-05
2.8878474e-05
-5.6657296e-05
2.9837385e-05
-6.7106779e-05
3.0803461e-05
-7.9190496e-05
3.1617213e-05
-9.3018378e-05
3.2006639e-05
-0.00010854968
3.1690604e-05
-0.0001255528
3.0303992e-05
-0.00014362287
2.7240959e-05
-0.00016184844
2.3950169e-05
-0.00018056396
2.2382358e-05
-0.00020321995
2.0161083e-05
-0.00023007807
1.7962362e-05
-0.00025888301
1.4930188e-05
-0.00028893268
1.1664068e-05
-0.00031763041
8.8753409e-06
-0.00034447931
5.106068e-06
-0.0003698451
1.0623406e-06
-0.00039497077
-8.8301513e-06
-0.00041541471
-2.2344548e-05
-0.00042669719
-4.5521576e-05
-0.00042263059
-7.1362105e-05
-0.00040010776
-9.5315404e-05
-0.00037181896
-0.0001161748
-0.00034642354
-0.00015441783
-0.00031246207
-0.00018604297
-0.00027699412
-0.00018782906
-0.00028618816
-0.00017084767
-0.00034454517
-0.00011961971
-0.00043513133
-2.3482552e-05
-0.00055370939
0.00028679235
-0.0007920893
0.00061915466
-0.0009832407
-0.00046473112
2.4895568e-05
-2.2804315e-06
2.5034137e-05
-2.7480049e-06
2.5191476e-05
-3.2934165e-06
2.5356472e-05
-3.9474135e-06
2.5532033e-05
-4.7316876e-06
2.572263e-05
-5.6721098e-06
2.5931452e-05
-6.7996907e-06
2.6164643e-05
-8.1516009e-06
2.6425814e-05
-9.7716698e-06
2.6723627e-05
-1.1712593e-05
2.7063439e-05
-1.4036151e-05
2.7459659e-05
-1.6815817e-05
2.7916696e-05
-2.0136379e-05
2.8461501e-05
-2.409868e-05
2.9122485e-05
-2.8823923e-05
2.9900324e-05
-3.4451909e-05
3.0755258e-05
-4.1133073e-05
3.164206e-05
-4.9013636e-05
3.2588258e-05
-5.8240955e-05
3.3633387e-05
-6.8985418e-05
3.4721675e-05
-8.1417692e-05
3.569425e-05
-9.564765e-05
3.6286889e-05
-0.00011163109
3.6249097e-05
-0.0001291528
3.5185706e-05
-0.0001477916
3.2459087e-05
-0.00016654886
2.9609016e-05
-0.00018588672
2.8512332e-05
-0.00020949472
2.6674843e-05
-0.00023745007
2.4755798e-05
-0.00026721972
2.2009727e-05
-0.00029814732
1.9161752e-05
-0.00032796029
1.6695239e-05
-0.00035625198
1.3097824e-05
-0.00038289107
9.2275909e-06
-0.00040887633
-2.0863399e-07
-0.00042996165
-1.2944231e-05
-0.00044186029
-3.530142e-05
-0.00043795906
-6.0657816e-05
-0.00041449322
-8.4522667e-05
-0.00038466717
-0.00010528974
-0.00035783488
-0.0001433949
-0.00032120076
-0.00017517727
-0.00028120854
-0.00017857195
-0.0002863337
-0.00016295172
-0.00034351304
-0.00011415462
-0.00043529768
-1.9679828e-05
-0.00055654864
0.0002853541
-0.00080803971
0.0006096556
-0.0010182111
-0.00048625769
2.7442806e-05
-2.3410814e-06
2.7529778e-05
-2.8208962e-06
2.7637459e-05
-3.3806835e-06
2.7768502e-05
-4.0519077e-06
2.7927508e-05
-4.8565664e-06
2.811836e-05
-5.8213903e-06
2.8343891e-05
-6.9782178e-06
2.8609262e-05
-8.3651308e-06
2.89174e-05
-1.0027896e-05
2.9275052e-05
-1.2020553e-05
2.9689026e-05
-1.4407788e-05
3.0170493e-05
-1.7265569e-05
3.0729959e-05
-2.0682901e-05
3.1390875e-05
-2.4765394e-05
3.218028e-05
-2.9637437e-05
3.3085847e-05
-3.5441584e-05
3.4051914e-05
-4.2327373e-05
3.5031428e-05
-5.0443234e-05
3.6059372e-05
-5.9947984e-05
3.7195593e-05
-7.102148e-05
3.8406573e-05
-8.3839106e-05
3.9537238e-05
-9.8511184e-05
4.0330897e-05
-0.00011499453
4.0559502e-05
-0.00013309225
3.9826883e-05
-0.000152376
3.7424543e-05
-0.00017174555
3.4941493e-05
-0.0001917471
3.4260925e-05
-0.00021634094
3.279334e-05
-0.00024547143
3.1175359e-05
-0.00027631364
2.8737583e-05
-0.00030824169
2.6311998e-05
-0.00033929078
2.4187894e-05
-0.00036914437
2.079027e-05
-0.00039717292
1.7127411e-05
-0.00042414364
8.1781574e-06
-0.0004460417
-3.7629524e-06
-0.00045879989
-2.5300989e-05
-0.00045534544
-5.0150273e-05
-0.00043118639
-7.3889341e-05
-0.00039996948
-9.4506424e-05
-0.00037181104
-0.00013240801
-0.0003326694
-0.00016426066
-0.00028833306
-0.00016916009
-0.00028938491
-0.00015487002
-0.00034504694
-0.00010839274
-0.00043758588
-1.5463665e-05
-0.00056113849
0.00028422308
-0.0008250012
0.000600433
-0.0010534822
-0.00050828787
2.984876e-05
-2.4065683e-06
2.9937928e-05
-2.8997298e-06
3.0045652e-05
-3.4753224e-06
3.0175044e-05
-4.1653876e-06
3.0331187e-05
-4.9927126e-06
3.0518688e-05
-5.9847751e-06
3.0743244e-05
-7.1741943e-06
3.10113e-05
-8.6003118e-06
3.1330195e-05
-1.031014e-05
3.1708686e-05
-1.2359454e-05
3.2158917e-05
-1.4815454e-05
3.2691645e-05
-1.7756291e-05
3.3320999e-05
-2.1275214e-05
3.4070839e-05
-2.5482767e-05
3.4959234e-05
-3.0507531e-05
3.5969616e-05
-3.6493313e-05
3.7041384e-05
-4.3592968e-05
3.8133079e-05
-5.1963441e-05
3.9273879e-05
-6.1772914e-05
4.0523262e-05
-7.320808e-05
4.1866438e-05
-8.6445726e-05
4.3154753e-05
-0.00010159735
4.4144095e-05
-0.0001186253
4.4627245e-05
-0.0001373514
4.4215671e-05
-0.00015734756
4.2114175e-05
-0.00017740998
3.9943523e-05
-0.00019812002
3.9648596e-05
-0.000223728
3.8555332e-05
-0.00025411025
3.7254735e-05
-0.00028613659
3.5141388e-05
-0.00031919188
3.3143625e-05
-0.00035160003
3.1380838e-05
-0.00038313086
2.8208886e-05
-0.00041266758
2.4783354e-05
-0.00044076242
1.6348001e-05
-0.00046365482
5.2158077e-06
-0.00047750531
-1.5500301e-05
-0.0004747597
-3.9824734e-05
-0.00045014378
-6.3407706e-05
-0.00041768076
-8.3815462e-05
-0.00038828901
-0.0001214534
-0.00034678394
-0.00015329833
-0.00029826375
-0.00015960282
-0.00029524519
-0.00014659977
-0.00034909489
-0.00010233068
-0.00044192554
-1.0855231e-05
-0.0005674576
0.00028335834
-0.00084305609
0.00059140558
-0.0010890243
-0.00053070853
3.2071546e-05
-2.476793e-06
3.2165804e-05
-2.9842943e-06
3.2278962e-05
-3.5767495e-06
3.2414539e-05
-4.2871236e-06
3.2577451e-05
-5.1388359e-06
3.2772523e-05
-6.1601985e-06
3.3006018e-05
-7.3847962e-06
3.3284876e-05
-8.8534506e-06
3.3617723e-05
-1.0614237e-05
3.4015113e-05
-1.2725272e-05
3.4491131e-05
-1.5255524e-05
3.5058966e-05
-1.8286201e-05
3.5731779e-05
-2.1913883e-05
3.6536415e-05
-2.6253162e-05
3.7488502e-05
-3.1435679e-05
3.8573969e-05
-3.7609919e-05
3.9749404e-05
-4.4935517e-05
4.0967981e-05
-5.3577664e-05
4.2241549e-05
-6.3715175e-05
4.3624713e-05
-7.5540814e-05
4.5106593e-05
-8.922936e-05
4.6549519e-05
-0.00010489545
4.7726849e-05
-0.00012250952
4.8450393e-05
-0.00014191218
4.8342415e-05
-0.00016268724
4.65112e-05
-0.00018350823
4.4618983e-05
-0.00020495942
4.4702499e-05
-0.00023162461
4.3987647e-05
-0.00026334528
4.3014873e-05
-0.00029666183
4.1241791e-05
-0.00033096184
3.9678913e-05
-0.00036485144
3.8295562e-05
-0.00039818186
3.5373399e-05
-0.00042934708
3.2212191e-05
-0.00045869497
2.4312637e-05
-0.00048275308
1.4002102e-05
-0.00049793555
-5.8897004e-06
-0.00049617505
-2.9670254e-05
-0.00047135599
-5.306767e-05
-0.00043781199
-7.3219183e-05
-0.00040730096
-0.00011053094
-0.00036362137
-0.00014229951
-0.00031113907
-0.00014991232
-0.00030407376
-0.00013814645
-0.00035583231
-9.5965334e-05
-0.00044859564
-5.8686465e-06
-0.00057578316
0.00028275049
-0.00086229948
0.00058257004
-0.0011248351
-0.00055347546
3.4117808e-05
-2.5516562e-06
3.4217419e-05
-3.0744516e-06
3.4336936e-05
-3.6849222e-06
3.4479951e-05
-4.4168843e-06
3.4651698e-05
-5.2947373e-06
3.4857067e-05
-6.3473114e-06
3.5103115e-05
-7.609744e-06
3.5396886e-05
-9.1237423e-06
3.574833e-05
-1.0939393e-05
3.6168751e-05
-1.3116538e-05
3.6671138e-05
-1.5726247e-05
3.7270041e-05
-1.8852816e-05
3.7977634e-05
-2.2596253e-05
3.8815905e-05
-2.7074128e-05
3.9803154e-05
-3.242169e-05
4.0945581e-05
-3.8792434e-05
4.221549e-05
-4.6354624e-05
4.3560623e-05
-5.5285049e-05
4.4977771e-05
-6.5772718e-05
4.6503597e-05
-7.8011939e-05
4.8124939e-05
-9.2177411e-05
4.9716148e-05
-0.0001083864
5.1072875e-05
-0.00012662029
5.2017989e-05
-0.00014673593
5.2185533e-05
-0.00016832572
5.0592162e-05
-0.00018996462
4.8963505e-05
-0.00021222113
4.9432912e-05
-0.00023998674
4.9095031e-05
-0.00027310329
4.8456005e-05
-0.00030779419
4.7036505e-05
-0.00034344682
4.5914727e-05
-0.00037892715
4.492587e-05
-0.00041416124
4.2273789e-05
-0.00044706237
3.9398527e-05
-0.00047778621
3.2050246e-05
-0.00050316793
2.2569515e-05
-0.00051988906
3.5013573e-06
-0.00051934648
-1.9713353e-05
-0.00049454847
-4.2897231e-05
-0.00046007186
-6.2749142e-05
-0.00042853571
-9.9659752e-05
-0.00038288118
-0.00013128379
-0.00032668275
-0.00014010519
-0.00031563605
-0.00012951429
-0.00036510219
-8.9294068e-05
-0.00045745346
-5.0805061e-07
-0.00058606737
0.00028239967
-0.00088283566
0.00057394167
-0.0011609648
-0.00057653752
3.5997989e-05
-2.6310489e-06
3.6102675e-05
-3.1699302e-06
3.6228297e-05
-3.7995079e-06
3.6378641e-05
-4.5543736e-06
3.6559105e-05
-5.4597465e-06
3.6775006e-05
-6.5454501e-06
3.703378e-05
-7.8478092e-06
3.7342899e-05
-9.4098089e-06
3.7713302e-05
-1.1283452e-05
3.81564e-05
-1.3530591e-05
3.8683454e-05
-1.6224185e-05
3.93063e-05
-1.9451213e-05
4.0039952e-05
-2.3315598e-05
4.0897764e-05
-2.7937176e-05
4.1909483e-05
-3.3455956e-05
4.3103273e-05
-4.0033864e-05
4.4459865e-05
-4.7846239e-05
4.5933371e-05
-5.7082038e-05
4.7498684e-05
-6.7940956e-05
4.9167498e-05
-8.0615016e-05
5.092748e-05
-9.5282663e-05
5.2662746e-05
-0.00011206417
5.4189372e-05
-0.00013094994
5.5335085e-05
-0.0001518125
5.5731302e-05
-0.0001742422
5.434414e-05
-0.0001967424
5.2987543e-05
-0.00021986475
5.3853877e-05
-0.00024878691
5.3888785e-05
-0.00028336456
5.3588024e-05
-0.00031951088
5.2532257e-05
-0.00035661718
5.1855613e-05
-0.00039379621
5.1271981e-05
-0.00043104271
4.8905251e-05
-0.00046578372
4.6330651e-05
-0.00049798941
3.9542283e-05
-0.00052483535
3.0891364e-05
-0.00054329711
1.2644027e-05
-0.00054421196
-9.9834152e-06
-0.0005196702
-3.291936e-05
-0.00048444379
-5.2424303e-05
-0.00045203835
-8.8854774e-05
-0.00040465884
-0.00012026633
-0.00034503429
-0.00013019278
-0.00033010226
-0.00012070634
-0.00037709083
-8.2322914e-05
-0.00046877265
5.1951873e-06
-0.00059854289
0.00028227063
-0.00090464924
0.00056546616
-0.0011971637
-0.00059968271
3.7718402e-05
-2.7147583e-06
3.7825819e-05
-3.2705485e-06
3.7954331e-05
-3.9201093e-06
3.8108629e-05
-4.6990331e-06
3.8294075e-05
-5.6330834e-06
3.8516779e-05
-6.7533832e-06
3.878387e-05
-8.0972185e-06
3.9104383e-05
-9.7090833e-06
3.9488232e-05
-1.1642776e-05
3.9948364e-05
-1.3962152e-05
4.0493664e-05
-1.6742475e-05
4.1136326e-05
-2.0074103e-05
4.1888934e-05
-2.4063457e-05
4.2767266e-05
-2.8835301e-05
4.381199e-05
-3.453621e-05
4.5058706e-05
-4.1332833e-05
4.6505348e-05
-4.9410753e-05
4.8106411e-05
-5.8970597e-05
4.9816967e-05
-7.0217e-05
5.1626511e-05
-8.3345006e-05
5.3525491e-05
-9.853828e-05
5.540253e-05
-0.00011591744
5.708545e-05
-0.00013547895
5.8397255e-05
-0.00015709643
5.8976017e-05
-0.00018036853
5.7787026e-05
-0.00020378402
5.6721503e-05
-0.00022786782
5.7987357e-05
-0.00025801276
5.8393596e-05
-0.00029410454
5.8436991e-05
-0.00033179041
5.7754305e-05
-0.00037045648
5.7523849e-05
-0.00040943875
5.73535e-05
-0.00044879632
5.5288571e-05
-0.0004854894
5.302642e-05
-0.00051930186
4.6801832e-05