/*--------------------------------*- C++ -*----------------------------------*\
  =========                 |
  \\      /  F ield         | OpenFOAM: The Open Source CFD Toolbox
   \\    /   O peration     | Website:  https://openfoam.org
    \\  /    A nd           | Version:  8
     \\/     M anipulation  |
\*---------------------------------------------------------------------------*/
FoamFile
{
    version     2.0;
    format      ascii;
    class       volScalarField;
    location    "0.0999939";
    object      nut;
}
// * * * * * * * * * * * * * * * * * * * * * * * * * * * * * * * * * * * * * //

dimensions      [0 2 -1 0 0 0 0];

internalField   nonuniform List<scalar> 
20000
(
0.0012440866
0.0030374393
0.0040020754
0.0042441182
0.0036340989
0.0016874581
0.00010296354
5.5971368e-09
3.7640917e-09
3.7180474e-09
3.5615253e-09
3.5836377e-09
3.5066113e-09
3.5369357e-09
3.5201186e-09
3.5569485e-09
3.5702935e-09
3.6130295e-09
3.6508462e-09
3.7129005e-09
3.7822432e-09
3.8776546e-09
3.9923379e-09
4.1389697e-09
4.3167996e-09
4.5392658e-09
4.7969541e-09
5.0779401e-09
5.3728752e-09
5.6696789e-09
5.9535025e-09
6.2147845e-09
6.4461453e-09
6.6435971e-09
6.8066872e-09
6.9383643e-09
7.0422899e-09
7.1246787e-09
7.1890918e-09
7.2401642e-09
7.2803676e-09
7.3119272e-09
7.3394148e-09
7.3667067e-09
7.39815e-09
7.4195075e-09
7.427116e-09
7.4215228e-09
7.4005376e-09
7.3993648e-09
0.0012498022
0.0030026187
0.0039011493
0.0040741272
0.0034077811
0.0014131914
3.697973e-05
4.6791962e-09
3.627088e-09
3.5885453e-09
3.4398875e-09
3.4638692e-09
3.3906087e-09
3.4224739e-09
3.4081152e-09
3.4468163e-09
3.4627147e-09
3.5084197e-09
3.550191e-09
3.6172057e-09
3.6930932e-09
3.7965405e-09
3.9216655e-09
4.0809131e-09
4.2761108e-09
4.5118825e-09
4.7806079e-09
5.0719637e-09
5.372547e-09
5.6735897e-09
5.9617655e-09
6.2246832e-09
6.4554616e-09
6.651638e-09
6.8131905e-09
6.9433964e-09
7.0461282e-09
7.1275549e-09
7.1913232e-09
7.2420988e-09
7.2820548e-09
7.3133124e-09
7.3407065e-09
7.3693467e-09
7.4010223e-09
7.4199108e-09
7.4277753e-09
7.4218482e-09
7.4000706e-09
7.3989641e-09
0.0012443007
0.0029550112
0.0038032159
0.003911846
0.0031934031
0.001174426
1.0279555e-05
4.2359095e-09
3.5202916e-09
3.4884553e-09
3.3466362e-09
3.3726579e-09
3.3027727e-09
3.3359549e-09
3.3236981e-09
3.3638481e-09
3.3821158e-09
3.4305741e-09
3.4760897e-09
3.5478247e-09
3.6299481e-09
3.7412231e-09
3.8778546e-09
4.051966e-09
4.2587335e-09
4.503743e-09
4.7786474e-09
5.0724313e-09
5.378985e-09
5.6851398e-09
5.9749695e-09
6.2376475e-09
6.4671057e-09
6.6612203e-09
6.8205892e-09
6.9488282e-09
7.0500243e-09
7.1303479e-09
7.1933945e-09
7.2438739e-09
7.283646e-09
7.3146713e-09
7.3420882e-09
7.3727324e-09
7.4049041e-09
7.4224114e-09
7.4284497e-09
7.4182867e-09
7.4003366e-09
7.3978197e-09
0.0012376631
0.0029084035
0.0037067274
0.0037603053
0.0029847096
0.00096586427
2.5866904e-06
3.9945672e-09
3.4384927e-09
3.4124676e-09
3.2763772e-09
3.3044162e-09
3.2372194e-09
3.2716555e-09
3.2613653e-09
3.3032226e-09
3.324167e-09
3.3759828e-09
3.4257379e-09
3.5028246e-09
3.5931992e-09
3.7145518e-09
3.8598378e-09
4.0404571e-09
4.2527459e-09
4.5014917e-09
4.7785332e-09
5.0817355e-09
5.3953715e-09
5.7048653e-09
5.9955518e-09
6.256893e-09
6.4836449e-09
6.6746539e-09
6.8309996e-09
6.9566128e-09
7.0557507e-09
7.1345228e-09
7.1965021e-09
7.2464328e-09
7.2857675e-09
7.3163166e-09
7.3437218e-09
7.3766083e-09
7.4075829e-09
7.4237857e-09
7.4292951e-09
7.417417e-09
7.3998787e-09
7.3970504e-09
0.0012299197
0.0028631879
0.0036153764
0.0036219798
0.0027777836
0.00078523504
6.7282722e-07
3.8514757e-09
3.3779857e-09
3.3570773e-09
3.2255533e-09
3.2553311e-09
3.190154e-09
3.2259559e-09
3.2178818e-09
3.2619806e-09
3.2860469e-09
3.341745e-09
3.3978963e-09
3.4816509e-09
3.5775911e-09
3.7032745e-09
3.852776e-09
4.0376671e-09
4.2522646e-09
4.5053549e-09
4.7923559e-09
5.1023635e-09
5.4208744e-09
5.7323242e-09
6.0220506e-09
6.2805879e-09
6.503592e-09
6.6906202e-09
6.8432507e-09
6.9657072e-09
7.0623769e-09
7.1393183e-09
7.2000325e-09
7.2492885e-09
7.2880773e-09
7.3180705e-09
7.3455557e-09
7.3805932e-09
7.410323e-09
7.4254857e-09
7.4302509e-09
7.4157021e-09
7.3993432e-09
7.396227e-09
0.0012219571
0.0028185462
0.0035258715
0.0034826747
0.0025698031
0.00063395148
1.9576079e-07
3.7614044e-09
3.3337421e-09
3.3171278e-09
3.1892429e-09
3.2204576e-09
3.1573773e-09
3.195198e-09
3.1900897e-09
3.2381166e-09
3.2666385e-09
3.3265969e-09
3.3858706e-09
3.4725614e-09
3.5714395e-09
3.7001367e-09
3.8516526e-09
4.0381377e-09
4.2609849e-09
4.5230332e-09
4.8168883e-09
5.1333924e-09
5.4555058e-09
5.7672354e-09
6.0546583e-09
6.309133e-09
6.5272729e-09
6.7094432e-09
6.8576665e-09
6.9764292e-09
7.0702104e-09
7.145002e-09
7.2042135e-09
7.2526195e-09
7.2907052e-09
7.3200342e-09
7.3477299e-09
7.3846037e-09
7.4127399e-09
7.4268761e-09
7.4311049e-09
7.4145269e-09
7.3986462e-09
7.3955704e-09
0.0012138474
0.0027754384
0.0034399612
0.0033496839
0.0023605605
0.000503054
6.565573e-08
3.7006901e-09
3.3013797e-09
3.2888482e-09
3.1646423e-09
3.1989671e-09
3.1392755e-09
3.1801513e-09
3.1777073e-09
3.2277374e-09
3.2581114e-09
3.3201107e-09
3.381389e-09
3.4701912e-09
3.5703865e-09
3.7002343e-09
3.8568291e-09
4.0517244e-09
4.282103e-09
4.5516906e-09
4.8530348e-09
5.1744009e-09
5.4984857e-09
5.8090268e-09
6.0926841e-09
6.3418583e-09
6.5541524e-09
6.7306808e-09
6.8738837e-09
6.9884804e-09
7.0790075e-09
7.1513851e-09
7.2089045e-09
7.2563163e-09
7.2935786e-09
7.3222208e-09
7.3503874e-09
7.3885508e-09
7.4150273e-09
7.4280717e-09
7.4315898e-09
7.4132913e-09
7.3979824e-09
7.3950057e-09
0.0012057962
0.0027319618
0.0033538081
0.0032175424
0.0021511783
0.00038914404
2.6642095e-08
3.6614991e-09
3.2809933e-09
3.2730615e-09
3.1524706e-09
3.1887473e-09
3.1311795e-09
3.1733574e-09
3.1723122e-09
3.2234e-09
3.2552387e-09
3.3184197e-09
3.3805164e-09
3.4701576e-09
3.5743358e-09
3.7105691e-09
3.8738329e-09
4.0753771e-09
4.3139612e-09
4.591546e-09
4.8991631e-09
5.2244871e-09
5.5492303e-09
5.85715e-09
6.1357525e-09
6.3785015e-09
6.584026e-09
6.7541917e-09
6.8918115e-09
7.0018096e-09
7.0887476e-09
7.1584637e-09
7.2141153e-09
7.2603813e-09
7.2966923e-09
7.3246892e-09
7.3537373e-09
7.3923499e-09
7.4170485e-09
7.4290132e-09
7.4318453e-09
7.4121758e-09
7.3973501e-09
7.394558e-09
0.001197788
0.0026890126
0.003266388
0.0030800886
0.0019422439
0.00028879972
1.3345948e-08
3.636038e-09
3.2688787e-09
3.2642708e-09
3.1461506e-09
3.1841968e-09
3.127961e-09
3.1709694e-09
3.170844e-09
3.2222127e-09
3.2546536e-09
3.3188484e-09
3.3845883e-09
3.4791052e-09
3.5884142e-09
3.7299084e-09
3.8999278e-09
4.1093708e-09
4.3560067e-09
4.6411147e-09
4.954703e-09
5.2828995e-09
5.6069924e-09
5.9109695e-09
6.1832832e-09
6.4185683e-09
6.6165046e-09
6.7796736e-09
6.911218e-09
7.0162411e-09
7.0993021e-09
7.166146e-09
7.2197818e-09
7.2647619e-09
7.2999933e-09
7.3274641e-09
7.3579524e-09
7.3959476e-09
7.4188101e-09
7.4297196e-09
7.431912e-09
7.4111024e-09
7.3967749e-09
7.3941887e-09
0.0011903522
0.0026468669
0.0031790855
0.0029478167
0.0017368803
0.00019959974
8.1748697e-09
3.6189772e-09
3.2661616e-09
3.2590573e-09
3.1424886e-09
3.1789518e-09
3.1268864e-09
3.1700394e-09
3.1709798e-09
3.2242813e-09
3.259713e-09
3.3275523e-09
3.3968908e-09
3.4953659e-09
3.6099296e-09
3.7577201e-09
3.9349452e-09
4.1521146e-09
4.4070919e-09
4.6997551e-09
5.018677e-09
5.3488292e-09
5.6710751e-09
5.9698579e-09
6.2347571e-09
6.4616418e-09
6.6512598e-09
6.806878e-09
6.9319195e-09
7.0316415e-09
7.1105793e-09
7.1743704e-09
7.2258597e-09
7.2694208e-09
7.3034351e-09
7.3305424e-09
7.3630429e-09
7.3993608e-09
7.4203903e-09
7.4301903e-09
7.4319311e-09
7.4100963e-09
7.396235e-09
7.3938773e-09
0.0011832702
0.0026064566
0.0030966786
0.0028168501
0.0015350639
0.00012090918
5.9100463e-09
3.6082696e-09
3.2624053e-09
3.2546767e-09
3.1377707e-09
3.1744814e-09
3.1290605e-09
3.1741106e-09
3.1775826e-09
3.2330888e-09
3.2712156e-09
3.3420095e-09
3.4154206e-09
3.5186133e-09
3.6387981e-09
3.7928628e-09
3.9775901e-09
4.203074e-09
4.4665838e-09
4.7666467e-09
5.0904106e-09
5.4215476e-09
5.7407622e-09
6.0331664e-09
6.2896059e-09
6.5072509e-09
6.687919e-09
6.8355187e-09
6.9537e-09
7.0478501e-09
7.1224639e-09
7.1830581e-09
7.2322891e-09
7.2743075e-09
7.306956e-09
7.3338801e-09
7.3685335e-09
7.4028723e-09
7.4220155e-09
7.4304648e-09
7.4315652e-09
7.4091235e-09
7.3957104e-09
7.3935986e-09
0.0011758179
0.0025662942
0.0030153841
0.0026855229
0.0013398513
5.9712272e-05
4.8328999e-09
3.6051513e-09
3.2613393e-09
3.254068e-09
3.1385026e-09
3.1751474e-09
3.1362389e-09
3.1833965e-09
3.1891348e-09
3.2469155e-09
3.2880966e-09
3.3623186e-09
3.4398575e-09
3.5477173e-09
3.6737645e-09
3.8346465e-09
4.0273671e-09
4.2615092e-09
4.5338263e-09
4.8411979e-09
5.1691874e-09
5.5003432e-09
5.8153657e-09
6.1002657e-09
6.3472901e-09
6.5549536e-09
6.7261328e-09
6.8653285e-09
6.976358e-09
7.0647165e-09
7.1348489e-09
7.1921369e-09
7.2390185e-09
7.2793775e-09
7.3105673e-09
7.3374121e-09
7.3741162e-09
7.4064393e-09
7.4237603e-09
7.4306669e-09
7.4306069e-09
7.4081579e-09
7.3951777e-09
7.3933389e-09
0.0011679918
0.0025261036
0.0029341019
0.0025520813
0.0011539846
2.325449e-05
4.3051636e-09
3.6057672e-09
3.2697071e-09
3.2586464e-09
3.1480334e-09
3.1836258e-09
3.1480858e-09
3.1973005e-09
3.2054874e-09
3.2655332e-09
3.3097508e-09
3.3873221e-09
3.4692375e-09
3.5821539e-09
3.7144768e-09
3.8825653e-09
4.0837699e-09
4.327079e-09
4.6084189e-09
4.9228874e-09
5.2544251e-09
5.5845556e-09
5.8942153e-09
6.1705324e-09
6.4072652e-09
6.6042989e-09
6.7655434e-09
6.896032e-09
6.999685e-09
7.0820845e-09
7.1476218e-09
7.2015315e-09
7.2459984e-09
7.2845828e-09
7.314248e-09
7.3410919e-09
7.3795159e-09
7.4099043e-09
7.4256659e-09
7.4311396e-09
7.4290508e-09
7.4070645e-09
7.3946279e-09
7.3930895e-09
0.0011601148
0.0024859947
0.0028527724
0.0024155613
0.00097988586
7.4859843e-06
4.0323891e-09
3.6036472e-09
3.2770896e-09
3.2684488e-09
3.1604921e-09
3.1973036e-09
3.1641141e-09
3.2150685e-09
3.2256587e-09
3.2880596e-09
3.335479e-09
3.4166397e-09
3.5031769e-09
3.6214276e-09
3.7604446e-09
3.9362741e-09
4.1465207e-09
4.3994403e-09
4.689974e-09
5.0112395e-09
5.3455307e-09
5.6735282e-09
5.9766614e-09
6.24337e-09
6.4690175e-09
6.654865e-09
6.8058175e-09
6.927373e-09
7.023486e-09
7.0998069e-09
7.1606757e-09
7.2111692e-09
7.2531832e-09
7.2898895e-09
7.3180042e-09
7.3449286e-09
7.3846072e-09
7.4130916e-09
7.4275482e-09
7.4323337e-09
7.4269727e-09
7.405867e-09
7.3940729e-09
7.3928465e-09
0.0011522823
0.0024462957
0.0027711985
0.0022779298
0.00081898007
2.1686211e-06
3.8895004e-09
3.6058844e-09
3.2863512e-09
3.2806916e-09
3.1754063e-09
3.2141538e-09
3.1832736e-09
3.2361081e-09
3.2492991e-09
3.3141142e-09
3.3649168e-09
3.4498448e-09
3.5413235e-09
3.6653198e-09
3.811523e-09
3.9956289e-09
4.2154812e-09
4.4784604e-09
4.7782566e-09
5.1058676e-09
5.4419773e-09
5.7666487e-09
6.0620768e-09
6.3181967e-09
6.5320418e-09
6.7062356e-09
6.8466258e-09
6.959097e-09
7.0475671e-09
7.1177376e-09
7.1739041e-09
7.2209756e-09
7.2605227e-09
7.2952806e-09
7.3218616e-09
7.34902e-09
7.3893452e-09
7.4159913e-09
7.4293424e-09
7.4335337e-09
7.4248123e-09
7.4046368e-09
7.3935295e-09
7.3926089e-09
0.0011445296
0.0024074252
0.00268923
0.0021354338
0.00067240772
6.2028572e-07
3.8161456e-09
3.6110621e-09
3.2987135e-09
3.2959846e-09
3.193362e-09
3.2340002e-09
3.2053581e-09
3.2601187e-09
3.2760004e-09
3.3433957e-09
3.3977848e-09
3.4867344e-09
3.5835113e-09
3.7136629e-09
3.8675671e-09
4.0605212e-09
4.2905594e-09
4.5639753e-09
4.8729992e-09
5.2063477e-09
5.5432112e-09
5.8633022e-09
6.1498508e-09
6.3944591e-09
6.5958674e-09
6.7580291e-09
6.8876692e-09
6.9909723e-09
7.071751e-09
7.1357417e-09
7.1872088e-09
7.2308801e-09
7.2679582e-09
7.3006991e-09
7.325878e-09
7.353536e-09
7.3937122e-09
7.4186172e-09
7.4308536e-09
7.4344401e-09
7.4225065e-09
7.4034204e-09
7.3930102e-09
7.3923788e-09
0.0011370464
0.0023700524
0.0026088729
0.0019870616
0.00054173333
1.9201504e-07
3.7808273e-09
3.6189349e-09
3.3135526e-09
3.3136384e-09
3.2138368e-09
3.2562677e-09
3.2300457e-09
3.2868218e-09
3.305617e-09
3.3756958e-09
3.4339309e-09
3.5271942e-09
3.6296679e-09
3.7664483e-09
3.9286052e-09
4.1310102e-09
4.3718014e-09
4.6559745e-09
4.9740299e-09
5.3123316e-09
5.6487317e-09
5.9629085e-09
6.2394021e-09
6.4716256e-09
6.6600411e-09
6.8098787e-09
6.9286598e-09
7.0227736e-09
7.0958657e-09
7.1536895e-09
7.2004952e-09
7.2408138e-09
7.2754292e-09
7.306059e-09
7.330113e-09
7.3586215e-09
7.3976826e-09
7.4209553e-09
7.4320164e-09
7.4349717e-09
7.4202259e-09
7.4022626e-09
7.3925206e-09
7.3921615e-09
0.0011298604
0.0023339013
0.0025384532
0.0018320606
0.00043017534
6.9734531e-08
3.7669512e-09
3.6291558e-09
3.3306826e-09
3.3334861e-09
3.2367038e-09
3.2809228e-09
3.2572163e-09
3.3161212e-09
3.3379696e-09
3.4109357e-09
3.473281e-09
3.5711883e-09
3.6797816e-09
3.8236799e-09
3.9946567e-09
4.2071362e-09
4.4592245e-09
4.7543733e-09
5.0810944e-09
5.4233839e-09
5.7579795e-09
6.0648648e-09
6.3301564e-09
6.5491902e-09
6.7241445e-09
6.8614545e-09
6.9693418e-09
7.0543006e-09
7.1197577e-09
7.1714662e-09
7.213678e-09
7.2507144e-09
7.282892e-09
7.3115245e-09
7.3345825e-09
7.3641871e-09
7.4013628e-09
7.422973e-09
7.4328912e-09
7.4351262e-09
7.4180875e-09
7.4011718e-09
7.3920585e-09
7.3919524e-09
0.0011226725
0.0022966655
0.0024616208
0.0016698835
0.0003304191
3.0133265e-08
3.7647771e-09
3.6413812e-09
3.3499578e-09
3.355402e-09
3.2617109e-09
3.3078236e-09
3.2867837e-09
3.3478954e-09
3.3730191e-09
3.449037e-09
3.5158316e-09
3.6187448e-09
3.7339267e-09
3.8854642e-09
4.065873e-09
4.2890759e-09
4.5529788e-09
4.8591964e-09
5.1940205e-09
5.5391268e-09
5.8704397e-09
6.1686057e-09
6.4215662e-09
6.6266698e-09
6.7877791e-09
6.9124419e-09
7.0094705e-09
7.0853651e-09
7.1432802e-09
7.1889654e-09
7.2266772e-09
7.260522e-09
7.2902804e-09
7.3169403e-09
7.3392877e-09
7.3700831e-09
7.4049047e-09
7.4247195e-09
7.4335453e-09
7.4351066e-09
7.4160886e-09
7.4001463e-09
7.3916205e-09
7.3917453e-09
0.001115743
0.0022597806
0.0023874802
0.0015040568
0.00024132441
1.5828202e-08
3.7697006e-09
3.6557684e-09
3.3713178e-09
3.3793829e-09
3.2889003e-09
3.3369293e-09
3.3186644e-09
3.3820979e-09
3.4107106e-09
3.4900411e-09
3.5616305e-09
3.669932e-09
3.7921799e-09
3.9518984e-09
4.1423769e-09
4.3769597e-09
4.65313e-09
4.9703481e-09
5.3125024e-09
5.6590756e-09
5.9855273e-09
6.2735354e-09
6.5130849e-09
6.703608e-09
6.8505827e-09
6.9625594e-09
7.0488312e-09
7.1158128e-09
7.1663062e-09
7.2060969e-09
7.2394239e-09
7.270182e-09
7.2975576e-09
7.3222927e-09
7.34418e-09
7.3761943e-09
7.4084163e-09
7.4262453e-09
7.4338679e-09
7.4350241e-09
7.414239e-09
7.3991824e-09
7.3912006e-09
7.3915362e-09
0.0011090445
0.0022224115
0.0023121017
0.0013396255
0.00016218617
1.0012329e-08
3.7793622e-09
3.6721393e-09
3.3946703e-09
3.4053431e-09
3.3181138e-09
3.3681421e-09
3.3528013e-09
3.4187213e-09
3.4510887e-09
3.5339984e-09
3.6107671e-09
3.7248634e-09
3.8546889e-09
4.0231773e-09
4.2244196e-09
4.4710511e-09
4.759864e-09
5.0878238e-09
5.4363039e-09
5.7827948e-09
6.1026976e-09
6.3790829e-09
6.6041949e-09
6.7795813e-09
6.9122216e-09
7.0115418e-09
7.0872232e-09
7.1455115e-09
7.1887194e-09
7.2227737e-09
7.2518566e-09
7.2796421e-09
7.3046776e-09
7.3275474e-09
7.349203e-09
7.3823653e-09
7.4119117e-09
7.4277451e-09
7.4340552e-09
7.4343695e-09
7.4125465e-09
7.3982696e-09
7.3907902e-09
7.3913208e-09
0.0011025576
0.0021843814
0.0022359123
0.0011853033
9.5592464e-05
7.3810711e-09
3.7922964e-09
3.6904028e-09
3.4198525e-09
3.4331764e-09
3.3493329e-09
3.4014249e-09
3.3892276e-09
3.4578108e-09
3.4942407e-09
3.5810238e-09
3.663346e-09
3.783654e-09
3.9215878e-09
4.0994833e-09
4.3122066e-09
4.5715379e-09
4.8732304e-09
5.2114595e-09
5.5650224e-09
5.9097152e-09
6.2213043e-09
6.4846266e-09
6.6943803e-09
6.8542037e-09
6.9724072e-09
7.0591644e-09
7.1244888e-09
7.1743605e-09
7.2104292e-09
7.2389112e-09
7.2639263e-09
7.2888566e-09
7.3116051e-09
7.3326947e-09
7.3543173e-09
7.3884109e-09
7.415313e-09
7.4293297e-09
7.4341918e-09
7.4328039e-09
7.4110072e-09
7.3973895e-09
7.3903804e-09
7.3910941e-09
0.0010960708
0.0021433475
0.0021567779
0.0010396802
4.6989888e-05
6.0888267e-09
3.8079855e-09
3.7104576e-09
3.4468546e-09
3.4628247e-09
3.38253e-09
3.4368446e-09
3.4280218e-09
3.4994875e-09
3.5402702e-09
3.6312086e-09
3.7194866e-09
3.8464595e-09
3.9930983e-09
4.1811027e-09
4.4060847e-09
4.6787283e-09
4.9933966e-09
5.3411659e-09
5.698317e-09
6.0393029e-09
6.3407336e-09
6.5895805e-09
6.7831744e-09
6.9271377e-09
7.0308894e-09
7.1052404e-09
7.160513e-09
7.2022544e-09
7.231363e-09
7.2544153e-09
7.2755888e-09
7.2977839e-09
7.3183103e-09
7.3377532e-09
7.359544e-09
7.3941586e-09
7.4184664e-09
7.4308087e-09
7.434939e-09
7.4304354e-09
7.4094235e-09
7.3965173e-09
7.3899665e-09
7.3908515e-09
0.0010892997
0.0020986952
0.0020738229
0.00090394735
1.9250181e-05
5.4213111e-09
3.8258819e-09
3.7323128e-09
3.4755353e-09
3.4943635e-09
3.4178024e-09
3.4745427e-09
3.4693117e-09
3.5438508e-09
3.5892793e-09
3.6846697e-09
3.779314e-09
3.9134503e-09
4.0694338e-09
4.2683139e-09
4.5063198e-09
4.7928219e-09
5.1203299e-09
5.4766572e-09
5.8356391e-09
6.1708729e-09
6.4602795e-09
6.6933501e-09
6.8701597e-09
6.9980918e-09
7.0874601e-09
7.1496489e-09
7.1952526e-09
7.2290659e-09
7.2514696e-09
7.2692005e-09
7.2868008e-09
7.306392e-09
7.3247744e-09
7.3427659e-09
7.3649849e-09
7.3994384e-09
7.4213809e-09
7.4322213e-09
7.4355891e-09
7.4277367e-09
7.4078023e-09
7.3956585e-09
7.3895491e-09
7.3905881e-09
0.0010821141
0.0020502173
0.0019858218
0.00077826696
6.881261e-06
5.0658462e-09
3.8458462e-09
3.7559261e-09
3.5063441e-09
3.5280424e-09
3.4553433e-09
3.5146169e-09
3.513199e-09
3.5909899e-09
3.6413514e-09
3.7415051e-09
3.8429918e-09
3.9848607e-09
4.1509206e-09
4.3614995e-09
4.6133286e-09
4.9141146e-09
5.2541142e-09
5.6176965e-09
5.9764975e-09
6.3037759e-09
6.5792983e-09
6.7954611e-09
6.9550356e-09
7.0668161e-09
7.1419284e-09
7.1923205e-09
7.2286912e-09
7.2546266e-09
7.2706833e-09
7.2832232e-09
7.2975068e-09
7.3146549e-09
7.330986e-09
7.3477805e-09
7.3707134e-09
7.4040926e-09
7.4239236e-09
7.4333824e-09
7.4358746e-09
7.4249444e-09
7.4061914e-09
7.3948285e-09
7.3891298e-09
7.3902992e-09
0.0010743159
0.0019972888
0.0018894733
0.0006647494
2.3238515e-06
4.876973e-09
3.8682269e-09
3.7816535e-09
3.5391932e-09
3.5639691e-09
3.495213e-09
3.5571195e-09
3.5597267e-09
3.6409682e-09
3.6965837e-09
3.8018617e-09
3.9107201e-09
4.0609572e-09
4.237881e-09
4.4610132e-09
4.7274128e-09
5.0427339e-09
5.3945788e-09
5.7637982e-09
6.1201725e-09
6.437212e-09
6.6971309e-09
6.8955505e-09
7.0375834e-09
7.1330641e-09
7.1940989e-09
7.2332105e-09
7.2607437e-09
7.2788166e-09
7.288894e-09
7.2965413e-09
7.3076456e-09
7.3225553e-09
7.3369407e-09
7.3528268e-09
7.3767707e-09
7.4080474e-09
7.4259464e-09
7.4341531e-09
7.435983e-09
7.4220541e-09
7.4046644e-09
7.3940403e-09
7.3887085e-09
7.3899806e-09
0.0010659316
0.0019402122
0.0017808805
0.00056970477
7.8416319e-07
4.7758827e-09
3.8927735e-09
3.8093131e-09
3.5741278e-09
3.6020421e-09
3.5374177e-09
3.6020936e-09
3.6089561e-09
3.6938757e-09
3.7550916e-09
3.8659161e-09
3.9827573e-09
4.1420951e-09
4.3307395e-09
4.5673325e-09
4.8490025e-09
5.1789182e-09
5.5416426e-09
5.9145405e-09
6.2660007e-09
6.5704909e-09
6.8133275e-09
6.9934633e-09
7.1176135e-09
7.1965672e-09
7.2437639e-09
7.2722086e-09
7.2910509e-09
7.3017383e-09
7.3059293e-09
7.3093116e-09
7.3171764e-09
7.3300768e-09
7.3426381e-09
7.3579019e-09
7.3828644e-09
7.4115488e-09
7.4274823e-09
7.4345191e-09
7.4359693e-09
7.4193917e-09
7.4032465e-09
7.3932961e-09
7.3882826e-09
7.3896281e-09
0.0010572689
0.0018804895
0.001663299
0.00047609197
2.7043329e-07
4.7250729e-09
3.9192968e-09
3.8389499e-09
3.6111885e-09
3.6421952e-09
3.5819894e-09
3.6495954e-09
3.6609753e-09
3.7498134e-09
3.8170484e-09
3.9339184e-09
4.0594252e-09
4.2286487e-09
4.4299072e-09
4.6808584e-09
4.9783653e-09
5.3226541e-09
5.694917e-09
6.0692042e-09
6.4131126e-09
6.7028953e-09
6.9275792e-09
7.0890324e-09
7.1947044e-09
7.257014e-09
7.2907796e-09
7.3090568e-09
7.3194244e-09
7.3234676e-09
7.3216878e-09
7.3216496e-09
7.3261413e-09
7.3372016e-09
7.3480792e-09
7.3629868e-09
7.3888987e-09
7.4147339e-09
7.4286859e-09
7.434689e-09
7.4359137e-09
7.4170248e-09
7.4019476e-09
7.3925922e-09
7.387848e-09
7.3892386e-09
0.0010484228
0.0018187793
0.0015379189
0.00038723244
1.0399033e-07
4.703355e-09
3.9478199e-09
3.8706404e-09
3.6504474e-09
3.6846831e-09
3.6289849e-09
3.6997134e-09
3.7159037e-09
3.8089352e-09
3.8826777e-09
4.0061406e-09
4.1411095e-09
4.321076e-09
4.5358969e-09
4.8021171e-09
5.1158945e-09
5.4740395e-09
5.8540965e-09
6.2271575e-09
6.5607864e-09
6.8339763e-09
7.0398127e-09
7.1817721e-09
7.2682173e-09
7.3141107e-09
7.3350704e-09
7.3435777e-09
7.3460836e-09
7.3440793e-09
7.3362518e-09
7.3332639e-09
7.3347007e-09
7.3439034e-09
7.3532668e-09
7.3680538e-09
7.3947595e-09
7.417763e-09
7.4298582e-09
7.4347561e-09
7.4354387e-09
7.4149385e-09
7.4007638e-09
7.3919206e-09
7.3873998e-09
7.3888095e-09
0.0010393715
0.0017549376
0.0014098958
0.00030846273
4.6982452e-08
4.6985932e-09
3.9783445e-09
3.9045607e-09
3.691945e-09
3.7295297e-09
3.6784794e-09
3.7525429e-09
3.7738743e-09
3.8714623e-09
3.9522949e-09
4.0829767e-09
4.2282292e-09
4.4198326e-09
4.6491856e-09
4.9314952e-09
5.2617512e-09
5.6328235e-09
6.0185185e-09
6.3874714e-09
6.7082048e-09
6.9633922e-09
7.1497441e-09
7.2706796e-09
7.3376679e-09
7.3676064e-09
7.3766681e-09
7.3760832e-09
7.3714126e-09
7.3631767e-09
7.349885e-09
7.3437787e-09
7.3430485e-09
7.3501564e-09
7.358219e-09
7.3731089e-09
7.400296e-09
7.4206322e-09
7.4310505e-09
7.4347288e-09
7.4342915e-09
7.4131122e-09
7.3996773e-09
7.3912693e-09
7.3869331e-09
7.3883391e-09
0.0010301165
0.0016871991
0.001288175
0.00023618719
2.465133e-08
4.7034401e-09
4.0109043e-09
3.9406043e-09
3.7357136e-09
3.7767389e-09
3.7306e-09
3.8082106e-09
3.8351428e-09
3.9377108e-09
4.0262449e-09
4.164893e-09
4.3212537e-09
4.5254649e-09
4.7703493e-09
5.0695311e-09
5.4161989e-09
5.7988718e-09
6.1876124e-09
6.549394e-09
6.8548389e-09
7.0910569e-09
7.2563353e-09
7.3551088e-09
7.4025831e-09
7.4176635e-09
7.4161647e-09
7.4066098e-09
7.39509e-09
7.3809009e-09
7.3625084e-09
7.3533771e-09
7.3510819e-09
7.3559558e-09
7.3629792e-09
7.3782168e-09
7.4053612e-09
7.4231464e-09
7.4319399e-09
7.434775e-09
7.4322181e-09
7.4115415e-09
7.398661e-09
7.3906256e-09
7.3864442e-09
7.3878268e-09
0.0010213933
0.0016182457
0.0011653023
0.00016991426
1.509685e-08
4.7140245e-09
4.0453884e-09
3.9788196e-09
3.7817866e-09
3.8264488e-09
3.7855314e-09
3.8669747e-09
3.9000255e-09
4.0080376e-09
4.1049512e-09
4.2523543e-09
4.4206831e-09
4.6384918e-09
4.8999069e-09
5.216532e-09
5.5791938e-09
5.9715967e-09
6.3604466e-09
6.711976e-09
7.0002246e-09
7.2165136e-09
7.3583641e-09
7.4342317e-09
7.4630187e-09
7.4653329e-09
7.4530525e-09
7.4351323e-09
7.4172161e-09
7.3972025e-09
7.3740846e-09
7.3621988e-09
7.3587153e-09
7.3613587e-09
7.3676191e-09
7.3835158e-09
7.4097317e-09
7.4252325e-09
7.4326464e-09
7.4349533e-09
7.4297078e-09
7.4100032e-09
7.3976775e-09
7.3899833e-09
7.3859332e-09
7.3872732e-09
0.0010137447
0.0015545204
0.0010450125
0.00011134188
1.0599907e-08
4.7284722e-09
4.0815993e-09
4.0192862e-09
3.8304126e-09
3.878954e-09
3.8435358e-09
3.9291745e-09
3.9688896e-09
4.0828349e-09
4.1888371e-09
4.3458006e-09
4.5270589e-09
4.7595505e-09
5.0384736e-09
5.3729756e-09
5.7507688e-09
6.1505695e-09
6.5362359e-09
6.874618e-09
7.1442278e-09
7.3384257e-09
7.4549754e-09
7.5077301e-09
7.5202259e-09
7.5100294e-09
7.4874399e-09
7.4616932e-09
7.437759e-09
7.4121271e-09
7.384675e-09
7.3703239e-09
7.36575e-09
7.366506e-09
7.372209e-09
7.3890996e-09
7.4133053e-09
7.4269366e-09
7.4332205e-09
7.4350439e-09
7.42717e-09
7.4084896e-09
7.3967273e-09
7.389344e-09
7.3854017e-09
7.3866796e-09
0.0010064377
0.0014881337
0.00092804197
6.4152416e-05
8.3221796e-09
4.7455184e-09
4.1201717e-09
4.062357e-09
3.8818573e-09
3.9344232e-09
3.9050467e-09
3.9952108e-09
4.0420957e-09
4.1625168e-09
4.278365e-09
4.4457675e-09
4.6409488e-09
4.8892346e-09
5.1865406e-09
5.5389991e-09
5.9305275e-09
6.3348679e-09
6.7139368e-09
7.0366506e-09
7.2863599e-09
7.4551649e-09
7.5452406e-09
7.5763617e-09
7.5743909e-09
7.5516079e-09
7.5193147e-09
7.4863442e-09
7.45676e-09
7.4257149e-09
7.3943714e-09
7.3778162e-09
7.3719903e-09
7.3715489e-09
7.3767862e-09
7.3945659e-09
7.4163943e-09
7.4283441e-09
7.4336506e-09
7.4350704e-09
7.4247551e-09
7.407039e-09
7.3958225e-09
7.3887121e-09
7.3848522e-09
7.3860483e-09
0.00099985402
0.0014200348
0.00081642243
3.1924432e-05
7.1022978e-09
4.7654987e-09
4.1612491e-09
4.1083035e-09
3.9363881e-09
3.9932901e-09
3.9703441e-09
4.0653776e-09
4.1200608e-09
4.2475038e-09
4.3740329e-09
4.5528072e-09
4.7630082e-09
5.0282476e-09
5.3447347e-09
5.7148732e-09
6.1181932e-09
6.5237727e-09
6.8928368e-09
7.1978096e-09
7.4250868e-09
7.5657306e-09
7.6288193e-09
7.6416154e-09
7.6248501e-09
7.5901104e-09
7.5487734e-09
7.5091434e-09
7.4742449e-09
7.4380293e-09
7.403214e-09
7.3846831e-09
7.3775938e-09
7.3764107e-09
7.3813486e-09
7.3997548e-09
7.4191275e-09
7.4295694e-09
7.4340217e-09
7.4350232e-09
7.4224271e-09
7.4057181e-09
7.3949784e-09
7.388091e-09
7.3842885e-09
7.3853821e-09
0.00099447004
0.0013500207
0.00071150303
1.3969712e-05
6.4246907e-09
4.7893171e-09
4.2050661e-09
4.157389e-09
3.9943545e-09
4.0558833e-09
4.0398009e-09
4.1400017e-09
4.2031893e-09
4.338288e-09
4.4763766e-09
4.6675486e-09
4.8938992e-09
5.1772242e-09
5.5134167e-09
5.9004086e-09
6.3129476e-09
6.7161332e-09
7.0720332e-09
7.357533e-09
7.558473e-09
7.6690406e-09
7.7069409e-09
7.703075e-09
7.6716076e-09
7.6255978e-09
7.5758941e-09
7.5301621e-09
7.4902615e-09
7.4491281e-09
7.4112049e-09
7.3908764e-09
7.3827244e-09
7.3810768e-09
7.3858607e-09
7.4046391e-09
7.4216327e-09
7.4306547e-09
7.4343037e-09
7.4349895e-09
7.4204178e-09
7.4045465e-09
7.3942068e-09
7.38749e-09
7.383715e-09
7.3846831e-09
0.00099037375
0.0012790612
0.00061432241
5.6342849e-06
6.0412315e-09
4.8197547e-09
4.2519822e-09
4.2100319e-09
4.0560718e-09
4.1225914e-09
4.1136911e-09
4.2195541e-09
4.2919084e-09
4.4353809e-09
4.5859904e-09
4.7906681e-09
5.0344092e-09
5.3369256e-09
5.6930942e-09
6.095537e-09
6.5141768e-09
6.9111442e-09
7.251073e-09
7.5144936e-09
7.6851079e-09
7.7646188e-09
7.7811724e-09
7.7601626e-09
7.7146964e-09
7.6581757e-09
7.6007821e-09
7.5494762e-09
7.5048575e-09
7.4590519e-09
7.4183427e-09
7.3964451e-09
7.3874737e-09
7.3855152e-09
7.3902713e-09
7.409197e-09
7.4239828e-09
7.4316377e-09
7.4344971e-09
7.4348675e-09
7.4186764e-09
7.4035128e-09
7.393516e-09
7.3869259e-09
7.3831433e-09
7.3839533e-09
0.00098724928
0.0012116643
0.00052530582
2.2057611e-06
5.8240803e-09
4.8526002e-09
4.3023972e-09
4.2664437e-09
4.121984e-09
4.1935731e-09
4.1924325e-09
4.304397e-09
4.3867461e-09
4.5393861e-09
4.70352e-09
4.9229356e-09
5.1852722e-09
5.5079823e-09
5.8837938e-09
6.2996467e-09
6.7206456e-09
7.1077137e-09
7.4292294e-09
7.6664232e-09
7.8037257e-09
7.8537497e-09
7.8509822e-09
7.8128549e-09
7.7542177e-09
7.6879566e-09
7.6235465e-09
7.5671747e-09
7.5180906e-09
7.4678302e-09
7.4246629e-09
7.4014387e-09
7.3919238e-09
7.3897217e-09
7.3945421e-09
7.4133501e-09
7.4261202e-09
7.4325991e-09
7.4346729e-09
7.4344687e-09
7.4171365e-09
7.4025729e-09
7.3928893e-09
7.3864164e-09
7.3826032e-09
7.3831952e-09
0.00098384555
0.001133019
0.0004440815
8.7734121e-07
5.7045969e-09
4.8891042e-09
4.3563308e-09
4.3269308e-09
4.1921776e-09
4.2693066e-09
4.2763501e-09
4.3950304e-09
4.4882846e-09
4.6509054e-09
4.8296929e-09
5.0651528e-09
5.34742e-09
5.6910622e-09
6.0857644e-09
6.5122207e-09
6.9315588e-09
7.3051367e-09
7.6056677e-09
7.8112957e-09
7.9135733e-09
7.9381238e-09
7.9157741e-09
7.8612301e-09
7.7903e-09
7.7150736e-09
7.6443061e-09
7.5833484e-09
7.5300146e-09
7.4754907e-09
7.4302128e-09
7.4059147e-09
7.3959723e-09
7.3937127e-09
7.3987069e-09
7.4170067e-09
7.4278815e-09
7.4334107e-09
7.4351002e-09
7.4335976e-09
7.4157092e-09
7.4016694e-09
7.3922765e-09
7.3859554e-09
7.3821588e-09
7.3824113e-09
0.00098075723
0.0010540292
0.00037169689
3.6908772e-07
5.6433605e-09
4.9288309e-09
4.4139608e-09
4.391594e-09
4.267018e-09
4.3500274e-09
4.3661644e-09
4.492013e-09
4.5971009e-09
4.7706109e-09
4.9653339e-09
5.2182349e-09
5.52165e-09
5.8865298e-09
6.2985717e-09
6.7321308e-09
7.1455991e-09
7.5024581e-09
7.7777754e-09
7.9476369e-09
8.0155763e-09
8.0175588e-09
7.9753787e-09
7.9054057e-09
7.8230846e-09
7.7396643e-09
7.6631811e-09
7.5980817e-09
7.540664e-09
7.4820603e-09
7.435048e-09
7.4099644e-09
7.3998204e-09
7.3975205e-09
7.402824e-09
7.4201087e-09
7.4293746e-09
7.4340478e-09
7.4354878e-09
7.4323351e-09
7.4143109e-09
7.4007579e-09
7.391647e-09
7.38552e-09
7.3818207e-09
7.3816113e-09
0.00097746866
0.00097012044
0.00030723357
1.7003405e-07
5.6159226e-09
4.9718127e-09
4.475737e-09
4.4610051e-09
4.347087e-09
4.4364049e-09
4.4622804e-09
4.5959347e-09
4.7138845e-09
4.8993415e-09
5.1113318e-09
5.3832283e-09
5.7088754e-09
6.0948641e-09
6.5219463e-09
6.9585424e-09
7.3619394e-09
7.6990949e-09
7.9431291e-09
8.074304e-09
8.111571e-09
8.0913626e-09
8.0299425e-09
7.9455515e-09
7.8527403e-09
7.7618792e-09
7.680289e-09
7.6114337e-09
7.5500343e-09
7.4875768e-09
7.4392283e-09
7.4136231e-09
7.4034266e-09
7.4011817e-09
7.4069749e-09
7.4226404e-09
7.4306914e-09
7.4345442e-09
7.4356405e-09
7.4307916e-09
7.4128947e-09
7.3998211e-09
7.3910209e-09
7.3851157e-09
7.3815124e-09
7.3808105e-09
0.00097401575
0.0008886132
0.00025042632
8.7232724e-08
5.6106815e-09
5.0191402e-09
4.542336e-09
4.5357267e-09
4.4328606e-09
4.5288846e-09
4.5652455e-09
4.70745e-09
4.8393612e-09
5.0381923e-09
5.2687534e-09
5.5611492e-09
5.9097771e-09
6.3159459e-09
6.7548658e-09
7.1899878e-09
7.5792434e-09
7.8927033e-09
8.0995732e-09
8.1913726e-09
8.2022015e-09
8.1590633e-09
8.0795779e-09
7.9818378e-09
7.8794352e-09
7.7818686e-09
7.6957433e-09
7.62345e-09
7.5581054e-09
7.4921144e-09
7.4428248e-09
7.4169526e-09
7.4068501e-09
7.4047096e-09
7.4108978e-09
7.4248258e-09
7.4317978e-09
7.4349376e-09
7.4357122e-09
7.4290313e-09
7.4114508e-09
7.3988558e-09
7.3903986e-09
7.3847554e-09
7.381176e-09
7.3800349e-09
0.00097083248
0.00080420069
0.00020063823
5.0321098e-08
5.6201528e-09
5.070843e-09
4.6141626e-09
4.6160451e-09
4.5247841e-09
4.62792e-09
4.6757207e-09
4.8272861e-09
4.9743911e-09
5.1880426e-09
5.4387553e-09
5.7531243e-09
6.1251022e-09
6.5497805e-09
6.9965981e-09