/*--------------------------------*- C++ -*----------------------------------*\
  =========                 |
  \\      /  F ield         | OpenFOAM: The Open Source CFD Toolbox
   \\    /   O peration     | Website:  https://openfoam.org
    \\  /    A nd           | Version:  8
     \\/     M anipulation  |
\*---------------------------------------------------------------------------*/
FoamFile
{
    version     2.0;
    format      ascii;
    class       volScalarField;
    location    "0.0999939";
    object      nuTilda;
}
// * * * * * * * * * * * * * * * * * * * * * * * * * * * * * * * * * * * * * //

dimensions      [0 2 -1 0 0 0 0];

internalField   nonuniform List<scalar> 
20000
(
0.0012464156
0.0030378321
0.0040022997
0.0042443132
0.0036343532
0.0016885377
0.00016745766
1.127862e-05
1.023199e-05
1.0181378e-05
1.0080744e-05
1.0079782e-05
1.0025822e-05
1.0029829e-05
1.0010738e-05
1.0014681e-05
1.0007656e-05
1.0007322e-05
1.0004233e-05
1.0003349e-05
1.0002094e-05
1.0001523e-05
1.0001224e-05
1.0001165e-05
1.0001078e-05
1.0000967e-05
1.0000862e-05
1.000076e-05
1.0000651e-05
1.0000536e-05
1.0000451e-05
1.0000431e-05
1.0000538e-05
1.0000682e-05
1.0000748e-05
1.0000762e-05
1.0000833e-05
1.0001066e-05
1.0001384e-05
1.0001559e-05
1.0001572e-05
1.0001353e-05
1.0001381e-05
1.0001386e-05
1.00013e-05
1.000113e-05
1.0001046e-05
1.0000757e-05
1.000056e-05
1.0000817e-05
0.0012522006
0.0030030356
0.0039013936
0.0040743457
0.0034080789
0.0014147676
0.00011365475
1.0876971e-05
1.0225293e-05
1.0178332e-05
1.0079183e-05
1.0079095e-05
1.0025274e-05
1.0029568e-05
1.0010545e-05
1.0014569e-05
1.0007549e-05
1.0007215e-05
1.000419e-05
1.0003314e-05
1.0002072e-05
1.0001493e-05
1.0001172e-05
1.0001106e-05
1.0001001e-05
1.0000871e-05
1.0000762e-05
1.0000673e-05
1.0000582e-05
1.0000484e-05
1.0000418e-05
1.0000407e-05
1.0000516e-05
1.0000666e-05
1.0000737e-05
1.0000752e-05
1.0000819e-05
1.0001043e-05
1.0001364e-05
1.0001542e-05
1.0001557e-05
1.0001347e-05
1.0001377e-05
1.0001394e-05
1.0001318e-05
1.000115e-05
1.000107e-05
1.0000742e-05
1.0000529e-05
1.0000793e-05
0.0012467959
0.0029554546
0.0038034803
0.0039120893
0.0031937499
0.0011767496
7.8032451e-05
1.0682716e-05
1.0219233e-05
1.0175274e-05
1.0077725e-05
1.0078378e-05
1.0024781e-05
1.0029233e-05
1.0010329e-05
1.0014362e-05
1.0007425e-05
1.000712e-05
1.0004142e-05
1.0003291e-05
1.0002074e-05
1.0001509e-05
1.0001172e-05
1.0001101e-05
1.0000997e-05
1.0000871e-05
1.0000768e-05
1.0000681e-05
1.0000589e-05
1.0000489e-05
1.0000415e-05
1.0000402e-05
1.0000514e-05
1.0000664e-05
1.0000737e-05
1.0000754e-05
1.0000815e-05
1.0001031e-05
1.000135e-05
1.0001534e-05
1.0001545e-05
1.0001347e-05
1.0001378e-05
1.0001402e-05
1.0001332e-05
1.0001165e-05
1.0001057e-05
1.0000752e-05
1.000052e-05
1.0000773e-05
0.0012402498
0.002908872
0.0037070118
0.0037605737
0.0029851131
0.00096933635
5.4304583e-05
1.0583255e-05
1.021354e-05
1.0172353e-05
1.007627e-05
1.0077659e-05
1.0024277e-05
1.0028888e-05
1.0010125e-05
1.0014177e-05
1.0007307e-05
1.0007013e-05
1.0004094e-05
1.0003257e-05
1.0002062e-05
1.00015e-05
1.0001166e-05
1.00011e-05
1.0000996e-05
1.0000867e-05
1.0000762e-05
1.0000677e-05
1.0000587e-05
1.0000489e-05
1.0000414e-05
1.0000398e-05
1.0000504e-05
1.0000655e-05
1.0000732e-05
1.0000751e-05
1.0000813e-05
1.0001021e-05
1.0001336e-05
1.000153e-05
1.0001538e-05
1.0001355e-05
1.0001383e-05
1.0001412e-05
1.0001348e-05
1.0001181e-05
1.0001052e-05
1.0000755e-05
1.0000515e-05
1.0000749e-05
0.0012325819
0.0028636792
0.00361568
0.0036222731
0.0027782541
0.00079049341
3.8634447e-05
1.052849e-05
1.0208079e-05
1.0169442e-05
1.0074813e-05
1.0076917e-05
1.0023772e-05
1.0028531e-05
1.0009928e-05
1.0013975e-05
1.0007189e-05
1.0006906e-05
1.0004043e-05
1.0003221e-05
1.0002049e-05
1.0001495e-05
1.0001159e-05
1.0001099e-05
1.0001e-05
1.0000871e-05
1.0000765e-05
1.000068e-05
1.0000592e-05
1.0000493e-05
1.0000416e-05
1.0000396e-05
1.0000498e-05
1.0000649e-05
1.000073e-05
1.000075e-05
1.000081e-05
1.0001011e-05
1.0001319e-05
1.0001525e-05
1.0001525e-05
1.0001362e-05
1.0001386e-05
1.0001419e-05
1.0001361e-05
1.0001202e-05
1.0001042e-05
1.0000758e-05
1.0000509e-05
1.0000725e-05
0.0012246958
0.0028190597
0.0035261943
0.0034829949
0.0025703554
0.00064192647
2.8377447e-05
1.0495361e-05
1.0202752e-05
1.0166499e-05
1.0073338e-05
1.0076137e-05
1.0023261e-05
1.0028155e-05
1.0009741e-05
1.0013766e-05
1.0007073e-05
1.0006791e-05
1.0003988e-05
1.0003178e-05
1.000203e-05
1.0001484e-05
1.0001149e-05
1.0001098e-05
1.0001e-05
1.000087e-05
1.0000765e-05
1.0000682e-05
1.0000596e-05
1.0000497e-05
1.0000418e-05
1.0000395e-05
1.0000492e-05
1.0000642e-05
1.0000726e-05
1.0000748e-05
1.0000808e-05
1.0001002e-05
1.0001303e-05
1.0001519e-05
1.0001513e-05
1.000137e-05
1.0001391e-05
1.0001423e-05
1.0001373e-05
1.0001228e-05
1.0001026e-05
1.000076e-05
1.0000502e-05
1.0000701e-05
0.0012166416
0.0027759718
0.0034403024
0.0033500317
0.0023612156
0.0005153218
2.1613435e-05
1.0472962e-05
1.0197505e-05
1.0163507e-05
1.0071833e-05
1.0075318e-05
1.0022746e-05
1.0027756e-05
1.0009565e-05
1.0013542e-05
1.0006955e-05
1.0006667e-05
1.0003928e-05
1.0003132e-05
1.0002011e-05
1.0001476e-05
1.0001144e-05
1.0001098e-05
1.0000998e-05
1.0000868e-05
1.0000765e-05
1.0000684e-05
1.0000598e-05
1.00005e-05
1.0000419e-05
1.0000394e-05
1.0000485e-05
1.0000635e-05
1.0000723e-05
1.0000747e-05
1.0000806e-05
1.0000994e-05
1.0001287e-05
1.0001515e-05
1.0001505e-05
1.0001379e-05
1.0001397e-05
1.0001425e-05
1.0001383e-05
1.0001255e-05
1.0001015e-05
1.0000761e-05
1.0000495e-05
1.0000676e-05
0.0012086447
0.0027325148
0.0033541683
0.0032179201
0.0021519649
0.00040824165
1.725938e-05
1.0456314e-05
1.0192349e-05
1.0160443e-05
1.0070276e-05
1.0074436e-05
1.0022242e-05
1.0027324e-05
1.0009398e-05
1.0013304e-05
1.0006837e-05
1.0006536e-05
1.0003869e-05
1.0003085e-05
1.0001995e-05
1.0001471e-05
1.0001141e-05
1.0001095e-05
1.0000995e-05
1.0000866e-05
1.0000764e-05
1.0000685e-05
1.0000601e-05
1.0000502e-05
1.000042e-05
1.0000393e-05
1.0000479e-05
1.0000628e-05
1.0000719e-05
1.0000747e-05
1.0000804e-05
1.0000987e-05
1.0001274e-05
1.0001511e-05
1.0001501e-05
1.0001387e-05
1.0001406e-05
1.0001428e-05
1.000139e-05
1.0001281e-05
1.0001018e-05
1.0000761e-05
1.0000488e-05
1.0000652e-05
0.0012006794
0.0026895843
0.003266768
0.0030805005
0.0019432034
0.00031858916
1.4520909e-05
1.0442794e-05
1.0187604e-05
1.0157239e-05
1.0068562e-05
1.0073e-05
1.0021799e-05
1.0026856e-05
1.0009245e-05
1.0013056e-05
1.0006724e-05
1.0006405e-05
1.0003813e-05
1.0003041e-05
1.000198e-05
1.0001467e-05
1.0001139e-05
1.0001093e-05
1.0000992e-05
1.0000863e-05
1.0000763e-05
1.0000685e-05
1.0000603e-05
1.0000504e-05
1.0000421e-05
1.0000393e-05
1.0000474e-05
1.0000621e-05
1.0000714e-05
1.0000746e-05
1.0000802e-05
1.0000981e-05
1.0001263e-05
1.0001508e-05
1.0001499e-05
1.0001395e-05
1.0001417e-05
1.0001431e-05
1.0001397e-05
1.0001305e-05
1.0001019e-05
1.000076e-05
1.0000481e-05
1.0000627e-05
0.0011932873
0.0026474572
0.0031794865
0.0029482654
0.0017380716
0.00024486711
1.2844346e-05
1.0432178e-05
1.0186622e-05
1.0153785e-05
1.0065937e-05
1.0069015e-05
1.0021416e-05
1.0026362e-05
1.0009107e-05
1.0012804e-05
1.0006616e-05
1.0006273e-05
1.0003759e-05
1.0002996e-05
1.0001966e-05
1.0001462e-05
1.0001138e-05
1.000109e-05
1.0000989e-05
1.0000861e-05
1.0000762e-05
1.0000686e-05
1.0000604e-05
1.0000506e-05
1.0000422e-05
1.0000392e-05
1.0000468e-05
1.0000613e-05
1.0000708e-05
1.0000744e-05
1.0000801e-05
1.0000975e-05
1.0001253e-05
1.0001505e-05
1.0001494e-05
1.0001402e-05
1.0001427e-05
1.0001435e-05
1.0001404e-05
1.0001327e-05
1.0001031e-05
1.0000758e-05
1.0000474e-05
1.0000602e-05
0.0011862396
0.0026070648
0.0030971003
0.0028173399
0.0015365763
0.00018469069
1.1840905e-05
1.0424664e-05
1.0183735e-05
1.0149969e-05
1.0061483e-05
1.0063796e-05
1.0020923e-05
1.0025845e-05
1.0008985e-05
1.0012547e-05
1.0006513e-05
1.000614e-05
1.0003705e-05
1.000295e-05
1.000195e-05
1.0001457e-05
1.0001137e-05
1.0001087e-05
1.0000985e-05
1.0000859e-05
1.0000761e-05
1.0000686e-05
1.0000605e-05
1.0000507e-05
1.0000423e-05
1.0000391e-05
1.0000463e-05
1.0000606e-05
1.0000702e-05
1.0000742e-05
1.00008e-05
1.0000969e-05
1.0001242e-05
1.0001503e-05
1.000148e-05
1.0001409e-05
1.0001434e-05
1.0001439e-05
1.0001414e-05
1.0001349e-05
1.0001041e-05
1.0000756e-05
1.0000466e-05
1.0000577e-05
0.0011788235
0.0025669203
0.0030158275
0.0026860594
0.0013418172
0.00013688601
1.1255341e-05
1.0419378e-05
1.0179973e-05
1.0145359e-05
1.0057744e-05
1.0058761e-05
1.002023e-05
1.002531e-05
1.0008876e-05
1.0012283e-05
1.0006413e-05
1.0006005e-05
1.0003651e-05
1.0002904e-05
1.0001935e-05
1.0001452e-05
1.0001136e-05
1.0001084e-05
1.0000982e-05
1.0000856e-05
1.000076e-05
1.0000686e-05
1.0000606e-05
1.0000508e-05
1.0000423e-05
1.0000391e-05
1.0000458e-05
1.0000599e-05
1.0000695e-05
1.0000739e-05
1.0000798e-05
1.0000963e-05
1.000123e-05
1.0001501e-05
1.0001471e-05
1.0001415e-05
1.0001438e-05
1.0001441e-05
1.0001426e-05
1.000137e-05
1.0001047e-05
1.0000754e-05
1.0000459e-05
1.0000552e-05
0.0011710269
0.0025267474
0.0029345677
0.0025526715
0.0011566026
0.00010001721
1.0926233e-05
1.0413395e-05
1.0179267e-05
1.0141757e-05
1.005718e-05
1.0056511e-05
1.0019556e-05
1.0024754e-05
1.0008779e-05
1.0012013e-05
1.0006316e-05
1.0005869e-05
1.0003598e-05
1.0002857e-05
1.000192e-05
1.0001446e-05
1.0001136e-05
1.000108e-05
1.0000978e-05
1.0000853e-05
1.0000758e-05
1.0000685e-05
1.0000606e-05
1.0000509e-05
1.0000423e-05
1.000039e-05
1.0000453e-05
1.0000592e-05
1.0000687e-05
1.0000734e-05
1.0000797e-05
1.0000958e-05
1.0001218e-05
1.00015e-05
1.0001464e-05
1.000142e-05
1.000144e-05
1.0001442e-05
1.0001434e-05
1.0001383e-05
1.0001044e-05
1.0000751e-05
1.0000452e-05
1.0000527e-05
0.0011631818
0.0024866562
0.0028532622
0.0024162147
0.00098346447
7.2381632e-05
1.0738293e-05
1.0401537e-05
1.0174714e-05
1.0138362e-05
1.0055615e-05
1.0055254e-05
1.0019093e-05
1.0024183e-05
1.0008692e-05
1.0011738e-05
1.0006221e-05
1.0005731e-05
1.0003545e-05
1.0002809e-05
1.0001904e-05
1.0001441e-05
1.0001136e-05
1.0001077e-05
1.0000974e-05
1.0000851e-05
1.0000756e-05
1.0000684e-05
1.0000606e-05
1.0000509e-05
1.0000423e-05
1.0000389e-05
1.0000448e-05
1.0000585e-05
1.000068e-05
1.0000729e-05
1.0000795e-05
1.0000953e-05
1.0001206e-05
1.0001499e-05
1.0001461e-05
1.0001424e-05
1.0001442e-05
1.0001442e-05
1.000144e-05
1.0001376e-05
1.0001046e-05
1.0000747e-05
1.0000445e-05
1.0000501e-05
0.0011553759
0.0024469749
0.0027717137
0.0022786574
0.00082401118
5.2155535e-05
1.0629243e-05
1.0390945e-05
1.0169621e-05
1.0134707e-05
1.0053965e-05
1.0053781e-05
1.0018577e-05
1.0023592e-05
1.0008616e-05
1.001146e-05
1.0006129e-05
1.0005594e-05
1.0003493e-05
1.0002762e-05
1.0001889e-05
1.0001436e-05
1.0001138e-05
1.0001074e-05
1.000097e-05
1.0000848e-05
1.0000754e-05
1.0000683e-05
1.0000606e-05
1.000051e-05
1.0000424e-05
1.0000389e-05
1.0000444e-05
1.0000579e-05
1.0000672e-05
1.0000723e-05
1.0000793e-05
1.0000949e-05
1.0001195e-05
1.0001496e-05
1.000146e-05
1.0001427e-05
1.0001444e-05
1.0001441e-05
1.0001443e-05
1.0001349e-05
1.0001048e-05
1.0000743e-05
1.0000438e-05
1.0000475e-05
0.0011476473
0.0024081218
0.0026897724
0.0021362525
0.0006796879
3.7834754e-05
1.0564391e-05
1.0380046e-05
1.0164598e-05
1.0131057e-05
1.0052317e-05
1.0052303e-05
1.0018078e-05
1.0022987e-05
1.000855e-05
1.0011178e-05
1.000604e-05
1.0005458e-05
1.0003442e-05
1.0002716e-05
1.0001874e-05
1.0001431e-05
1.0001138e-05
1.000107e-05
1.0000966e-05
1.0000845e-05
1.0000752e-05
1.0000681e-05
1.0000605e-05
1.000051e-05
1.0000423e-05
1.0000388e-05
1.0000439e-05
1.0000573e-05
1.0000665e-05
1.0000716e-05
1.000079e-05
1.0000945e-05
1.0001183e-05
1.0001471e-05
1.0001459e-05
1.000143e-05
1.0001446e-05
1.0001441e-05
1.0001444e-05
1.0001321e-05
1.0001047e-05
1.0000738e-05
1.000043e-05
1.0000449e-05
0.0011401853
0.0023707659
0.002609444
0.0019879952
0.00055253139
2.8100046e-05
1.052367e-05
1.036924e-05
1.0159574e-05
1.0127338e-05
1.0050667e-05
1.0050796e-05
1.0017579e-05
1.002237e-05
1.0008492e-05
1.0010895e-05
1.0005952e-05
1.0005325e-05
1.0003391e-05
1.0002669e-05
1.000186e-05
1.0001426e-05
1.0001138e-05
1.0001066e-05
1.0000962e-05
1.0000842e-05
1.000075e-05
1.0000679e-05
1.0000604e-05
1.000051e-05
1.0000423e-05
1.0000387e-05
1.0000434e-05
1.0000566e-05
1.0000658e-05
1.000071e-05
1.0000786e-05
1.0000941e-05
1.0001175e-05
1.0001421e-05
1.0001458e-05
1.0001432e-05
1.0001447e-05
1.0001442e-05
1.0001444e-05
1.0001295e-05
1.0001045e-05
1.0000733e-05
1.0000423e-05
1.0000424e-05
0.0011330168
0.002334631
0.0025390504
0.0018331433
0.00044626509
2.1746885e-05
1.0496195e-05
1.0358414e-05
1.0154556e-05
1.0123574e-05
1.004902e-05
1.0049268e-05
1.0017088e-05
1.0021744e-05
1.0008441e-05
1.0010611e-05
1.0005866e-05
1.0005198e-05
1.000334e-05
1.0002624e-05
1.0001846e-05
1.0001421e-05
1.0001137e-05
1.0001063e-05
1.0000958e-05
1.0000838e-05
1.0000747e-05
1.0000677e-05
1.0000603e-05
1.0000509e-05
1.0000423e-05
1.0000387e-05
1.000043e-05
1.000056e-05
1.0000652e-05
1.0000704e-05
1.0000782e-05
1.0000938e-05
1.000117e-05
1.0001415e-05
1.0001456e-05
1.0001435e-05
1.0001449e-05
1.0001441e-05
1.0001445e-05
1.0001271e-05
1.0001042e-05
1.0000728e-05
1.0000416e-05
1.0000402e-05
0.0011258451
0.0022974127
0.0024622491
0.0016711665
0.00035475839
1.758685e-05
1.0475643e-05
1.0347635e-05
1.0149555e-05
1.0119776e-05
1.0047378e-05
1.0047725e-05
1.0016605e-05
1.002111e-05
1.0008396e-05
1.0010327e-05
1.0005782e-05
1.0005072e-05
1.000329e-05
1.0002579e-05
1.0001832e-05
1.0001416e-05
1.0001137e-05
1.0001059e-05
1.0000954e-05
1.0000835e-05
1.0000744e-05
1.0000674e-05
1.0000602e-05
1.0000509e-05
1.0000423e-05
1.0000387e-05
1.0000425e-05
1.0000553e-05
1.0000645e-05
1.0000698e-05
1.0000778e-05
1.0000935e-05
1.0001162e-05
1.0001403e-05
1.0001455e-05
1.0001438e-05
1.000145e-05
1.0001443e-05
1.0001446e-05
1.0001247e-05
1.0001038e-05
1.0000722e-05
1.0000408e-05
1.0000381e-05
0.0011189292
0.0022605454
0.0023881408
0.0015056117
0.00027790929
1.4934946e-05
1.0458564e-05
1.0336875e-05
1.0144573e-05
1.0115945e-05
1.0045745e-05
1.0046169e-05
1.001613e-05
1.0020471e-05
1.0008355e-05
1.0010044e-05
1.00057e-05
1.0004947e-05
1.0003241e-05
1.0002535e-05
1.0001819e-05
1.0001412e-05
1.0001136e-05
1.0001055e-05
1.000095e-05
1.0000831e-05
1.000074e-05
1.0000672e-05
1.00006e-05
1.0000508e-05
1.0000423e-05
1.0000386e-05
1.000042e-05
1.0000546e-05
1.0000638e-05
1.0000693e-05
1.0000774e-05
1.0000932e-05
1.0001155e-05
1.0001396e-05
1.0001456e-05
1.0001441e-05
1.000145e-05
1.0001444e-05
1.0001449e-05
1.0001225e-05
1.0001033e-05
1.0000716e-05
1.0000401e-05
1.0000362e-05
0.0011122415
0.0022231945
0.0023127979
0.0013415492
0.00021484428
1.3285543e-05
1.0443452e-05
1.0326139e-05
1.0139615e-05
1.0112095e-05
1.0044125e-05
1.0044605e-05
1.0015667e-05
1.0019831e-05
1.0008319e-05
1.0009764e-05
1.0005619e-05
1.0004825e-05
1.0003192e-05
1.0002493e-05
1.0001806e-05
1.0001409e-05
1.0001135e-05
1.0001052e-05
1.0000946e-05
1.0000828e-05
1.0000737e-05
1.0000668e-05
1.0000598e-05
1.0000507e-05
1.0000422e-05
1.0000386e-05
1.0000416e-05
1.0000539e-05
1.0000631e-05
1.0000688e-05
1.0000771e-05
1.0000928e-05
1.000115e-05
1.0001389e-05
1.0001456e-05
1.0001443e-05
1.000145e-05
1.0001446e-05
1.0001453e-05
1.0001214e-05
1.0001027e-05
1.000071e-05
1.0000394e-05
1.0000344e-05
0.0011057633
0.0021851839
0.0022366478
0.0011877117
0.00016429116
1.2279908e-05
1.0429391e-05
1.0315442e-05
1.0134689e-05
1.0108238e-05
1.0042522e-05
1.0043042e-05
1.0015216e-05
1.0019192e-05
1.0008284e-05
1.0009486e-05
1.0005539e-05
1.0004705e-05
1.0003144e-05
1.0002451e-05
1.0001793e-05
1.0001405e-05
1.0001134e-05
1.0001048e-05
1.0000941e-05
1.0000824e-05
1.0000733e-05
1.0000665e-05
1.0000596e-05
1.0000506e-05
1.0000422e-05
1.0000386e-05
1.0000412e-05
1.0000532e-05
1.0000622e-05
1.0000682e-05
1.0000768e-05
1.0000925e-05
1.0001144e-05
1.0001382e-05
1.0001455e-05
1.0001448e-05
1.0001451e-05
1.0001452e-05
1.0001456e-05
1.0001216e-05
1.0001022e-05
1.0000705e-05
1.0000386e-05
1.0000328e-05
0.0010992832
0.0021441722
0.0021575582
0.001042743
0.00012424956
1.1673737e-05
1.041591e-05
1.0304779e-05
1.01298e-05
1.0104377e-05
1.0040937e-05
1.004148e-05
1.0014779e-05
1.0018556e-05
1.0008251e-05
1.0009212e-05
1.000546e-05
1.0004588e-05
1.0003096e-05
1.0002412e-05
1.0001781e-05
1.0001402e-05
1.0001133e-05
1.0001044e-05
1.0000937e-05
1.000082e-05
1.0000729e-05
1.0000661e-05
1.0000593e-05
1.0000505e-05
1.0000421e-05
1.0000385e-05
1.0000408e-05
1.0000524e-05
1.0000613e-05
1.0000676e-05
1.0000764e-05
1.0000922e-05
1.000114e-05
1.0001377e-05
1.0001455e-05
1.0001455e-05
1.0001451e-05
1.0001455e-05
1.0001452e-05
1.0001231e-05
1.0001017e-05
1.0000699e-05
1.0000379e-05
1.0000314e-05
0.0010925208
0.002099546
0.0020746558
0.00090790457
9.3277007e-05
1.1311169e-05
1.0402805e-05
1.0294192e-05
1.0124958e-05
1.0100536e-05
1.0039377e-05
1.003993e-05
1.0014358e-05
1.0017927e-05
1.0008218e-05
1.0008943e-05
1.0005381e-05
1.0004475e-05
1.0003049e-05
1.0002373e-05
1.000177e-05
1.0001399e-05
1.0001132e-05
1.0001041e-05
1.0000933e-05
1.0000816e-05
1.0000724e-05
1.0000657e-05
1.0000591e-05
1.0000504e-05
1.0000421e-05
1.0000385e-05
1.0000404e-05
1.0000517e-05
1.0000602e-05
1.0000668e-05
1.000076e-05
1.0000918e-05
1.0001135e-05
1.0001373e-05
1.0001455e-05
1.0001462e-05
1.0001453e-05
1.0001455e-05
1.0001447e-05
1.0001247e-05
1.0001011e-05
1.0000694e-05
1.0000371e-05
1.0000301e-05
0.0010853446
0.0020510988
0.0019867176
0.00078346617
6.9681506e-05
1.1092558e-05
1.0389996e-05
1.0283647e-05
1.0120161e-05
1.0096705e-05
1.0037841e-05
1.0038389e-05
1.0013953e-05
1.0017306e-05
1.0008184e-05
1.0008679e-05
1.0005302e-05
1.0004364e-05
1.0003003e-05
1.0002337e-05
1.0001759e-05
1.0001397e-05
1.0001132e-05
1.0001038e-05
1.0000928e-05
1.0000811e-05
1.000072e-05
1.0000653e-05
1.0000588e-05
1.0000503e-05
1.000042e-05
1.0000384e-05
1.00004e-05
1.0000509e-05
1.0000591e-05
1.0000658e-05
1.0000756e-05
1.0000914e-05
1.0001129e-05
1.0001372e-05
1.0001438e-05
1.0001466e-05
1.0001457e-05
1.0001453e-05
1.0001436e-05
1.0001251e-05
1.0001006e-05
1.0000688e-05
1.0000364e-05
1.0000289e-05
0.0010775585
0.0019982067
0.0018904484
0.00067166279
5.2213905e-05
1.0958678e-05
1.0377456e-05
1.0273186e-05
1.0115419e-05
1.0092904e-05
1.0036336e-05
1.0036866e-05
1.0013567e-05
1.0016696e-05
1.0008147e-05
1.0008421e-05
1.0005224e-05
1.0004257e-05
1.0002958e-05
1.0002302e-05
1.0001748e-05
1.0001394e-05
1.0001131e-05
1.0001035e-05
1.0000924e-05
1.0000807e-05
1.0000715e-05
1.0000648e-05
1.0000584e-05
1.0000502e-05
1.000042e-05
1.0000384e-05
1.0000397e-05
1.0000502e-05
1.0000579e-05
1.0000647e-05
1.000075e-05
1.0000911e-05
1.0001123e-05
1.0001369e-05
1.0001422e-05
1.0001468e-05
1.0001463e-05
1.0001447e-05
1.000142e-05
1.0001239e-05
1.0001001e-05
1.0000681e-05
1.0000356e-05
1.0000278e-05
0.0010691878
0.0019411731
0.0017819611
0.00057879052
3.9427803e-05
1.0871595e-05
1.0365125e-05
1.0262797e-05
1.0110736e-05
1.0089133e-05
1.0034862e-05
1.0035365e-05
1.00132e-05
1.0016099e-05
1.0008108e-05
1.000817e-05
1.0005146e-05
1.0004155e-05
1.0002913e-05
1.0002268e-05
1.0001737e-05
1.0001392e-05
1.0001131e-05
1.0001032e-05
1.000092e-05
1.0000802e-05
1.0000709e-05
1.0000643e-05
1.0000581e-05
1.0000501e-05
1.000042e-05
1.0000383e-05
1.0000394e-05
1.0000494e-05
1.0000567e-05
1.0000636e-05
1.0000743e-05
1.0000907e-05
1.0001115e-05
1.0001361e-05
1.0001409e-05
1.000147e-05
1.0001471e-05
1.0001443e-05
1.0001407e-05
1.0001219e-05
1.0000995e-05
1.0000675e-05
1.0000348e-05
1.0000268e-05
0.0010605399
0.0018814995
0.0016645175
0.00048848608
3.0040953e-05
1.0811925e-05
1.0352946e-05
1.0252491e-05
1.0106117e-05
1.0085402e-05
1.0033424e-05
1.0033888e-05
1.0012853e-05
1.0015518e-05
1.0008065e-05
1.0007925e-05
1.0005069e-05
1.0004056e-05
1.000287e-05
1.0002236e-05
1.0001726e-05
1.000139e-05
1.0001132e-05
1.0001029e-05
1.0000916e-05
1.0000797e-05
1.0000703e-05
1.0000638e-05
1.0000578e-05
1.00005e-05
1.0000419e-05
1.0000383e-05
1.000039e-05
1.0000488e-05
1.0000555e-05
1.0000624e-05
1.0000735e-05
1.0000904e-05
1.0001107e-05
1.0001349e-05
1.0001405e-05
1.000147e-05
1.0001482e-05
1.0001438e-05
1.0001395e-05
1.0001209e-05
1.0000988e-05
1.0000668e-05
1.000034e-05
1.0000258e-05
0.0010517077
0.0018198448
0.0015393195
0.00040463728
2.3552338e-05
1.0768007e-05
1.0340871e-05
1.0242299e-05
1.0101571e-05
1.0081724e-05
1.0032024e-05
1.0032442e-05
1.0012529e-05
1.0014954e-05
1.0008016e-05
1.0007666e-05
1.0004994e-05
1.0003961e-05
1.0002828e-05
1.0002205e-05
1.0001716e-05
1.0001387e-05
1.0001133e-05
1.0001026e-05
1.0000912e-05
1.0000791e-05
1.0000697e-05
1.0000633e-05
1.0000575e-05
1.00005e-05
1.0000419e-05
1.0000382e-05
1.0000387e-05
1.0000481e-05
1.0000543e-05
1.0000612e-05
1.0000727e-05
1.00009e-05
1.00011e-05
1.0001333e-05
1.0001405e-05
1.0001467e-05
1.0001492e-05
1.0001433e-05
1.0001382e-05
1.0001204e-05
1.0000982e-05
1.0000661e-05
1.0000332e-05
1.0000249e-05
0.0010426705
0.0017560665
0.0014115311
0.00033290261
1.9237797e-05
1.0732728e-05
1.0328848e-05
1.0232204e-05
1.0097097e-05
1.0078098e-05
1.0030664e-05
1.0031028e-05
1.0012227e-05
1.0014407e-05
1.0007962e-05
1.0007407e-05
1.0004918e-05
1.000387e-05
1.0002786e-05
1.0002176e-05
1.0001705e-05
1.0001384e-05
1.0001134e-05
1.0001024e-05
1.0000907e-05
1.0000785e-05
1.0000691e-05
1.0000629e-05
1.0000573e-05
1.0000499e-05
1.0000419e-05
1.0000381e-05
1.0000384e-05
1.0000474e-05
1.0000531e-05
1.00006e-05
1.0000719e-05
1.0000896e-05
1.0001093e-05
1.0001314e-05
1.0001398e-05
1.0001461e-05
1.0001497e-05
1.000143e-05
1.0001373e-05
1.00012e-05
1.0000974e-05
1.0000653e-05
1.0000324e-05
1.000024e-05
0.0010334287
0.0016884033
0.0012900958
0.0002704598
1.6313853e-05
1.0701963e-05
1.0316849e-05
1.0222228e-05
1.0092702e-05
1.0074536e-05
1.0029348e-05
1.0029651e-05
1.0011948e-05
1.0013881e-05
1.0007903e-05
1.0007176e-05
1.0004841e-05
1.0003783e-05
1.0002746e-05
1.0002147e-05
1.0001694e-05
1.0001382e-05
1.0001137e-05
1.0001022e-05
1.0000903e-05
1.0000779e-05
1.0000686e-05
1.0000625e-05
1.0000571e-05
1.0000498e-05
1.0000419e-05
1.000038e-05
1.0000382e-05
1.0000467e-05
1.0000518e-05
1.0000588e-05
1.000071e-05
1.0000891e-05
1.0001086e-05
1.0001294e-05
1.0001389e-05
1.0001451e-05
1.0001495e-05
1.0001432e-05
1.0001368e-05
1.0001205e-05
1.0000967e-05
1.0000646e-05
1.0000316e-05
1.0000231e-05
0.0010247136
0.0016195352
0.0011676008
0.00021688581
1.4380614e-05
1.0673586e-05
1.0304873e-05
1.0212387e-05
1.0088393e-05
1.007105e-05
1.0028077e-05
1.0028316e-05
1.0011694e-05
1.0013376e-05
1.0007838e-05
1.0006977e-05
1.0004765e-05
1.0003701e-05
1.0002706e-05
1.0002119e-05
1.0001683e-05
1.0001379e-05
1.000114e-05
1.0001019e-05
1.0000897e-05
1.0000773e-05
1.0000681e-05
1.0000621e-05
1.0000568e-05
1.0000497e-05
1.0000418e-05
1.0000379e-05
1.000038e-05
1.0000461e-05
1.0000506e-05
1.0000576e-05
1.0000702e-05
1.0000886e-05
1.0001079e-05
1.0001273e-05
1.0001383e-05
1.0001438e-05
1.000148e-05
1.0001437e-05
1.0001369e-05
1.0001209e-05
1.0000961e-05
1.0000638e-05
1.0000308e-05
1.0000222e-05
0.0010170636
0.0015558966
0.0010478082
0.00017199955
1.3117182e-05
1.0646336e-05
1.0292918e-05
1.0202694e-05
1.0084177e-05
1.0067646e-05
1.0026855e-05
1.0027026e-05
1.0011466e-05
1.0012893e-05
1.0007768e-05
1.0006783e-05
1.000469e-05
1.0003622e-05
1.0002667e-05
1.0002092e-05
1.0001671e-05
1.0001375e-05
1.0001143e-05
1.0001017e-05
1.0000892e-05
1.0000768e-05
1.0000678e-05
1.0000617e-05
1.0000564e-05
1.0000495e-05
1.0000418e-05
1.0000377e-05
1.0000378e-05
1.0000454e-05
1.0000492e-05
1.0000564e-05
1.0000692e-05
1.0000879e-05
1.0001073e-05
1.0001262e-05
1.0001382e-05
1.0001426e-05
1.0001468e-05
1.0001442e-05
1.000137e-05
1.0001208e-05
1.0000955e-05
1.000063e-05
1.00003e-05
1.0000212e-05
0.0010097519
0.0014896115
0.00093150334
0.00013508798
1.2303601e-05
1.0619591e-05
1.0280989e-05
1.0193155e-05
1.0080059e-05
1.0064329e-05
1.0025684e-05
1.0025783e-05
1.0011262e-05
1.0012434e-05
1.0007692e-05
1.00066e-05
1.0004614e-05
1.0003547e-05
1.0002628e-05
1.0002064e-05
1.0001658e-05
1.0001371e-05
1.0001146e-05
1.0001014e-05
1.0000887e-05
1.0000765e-05
1.0000674e-05
1.0000611e-05
1.0000559e-05
1.0000494e-05
1.0000418e-05
1.0000376e-05
1.0000375e-05
1.0000447e-05
1.0000478e-05
1.0000551e-05
1.0000683e-05
1.0000873e-05
1.0001068e-05
1.0001264e-05
1.000138e-05
1.0001418e-05
1.0001445e-05
1.0001439e-05
1.000137e-05
1.0001208e-05
1.000095e-05
1.0000623e-05
1.0000292e-05
1.0000203e-05
0.001003156
0.0014216307
0.0008207809
0.0001052768
1.1783172e-05
1.0593212e-05
1.0269088e-05
1.0183771e-05
1.0076041e-05
1.0061098e-05
1.0024564e-05
1.0024587e-05
1.0011085e-05
1.0011998e-05
1.0007611e-05
1.0006426e-05
1.000454e-05
1.0003475e-05
1.000259e-05
1.0002037e-05
1.0001645e-05
1.0001367e-05
1.000115e-05
1.0001012e-05
1.0000884e-05
1.0000763e-05
1.000067e-05
1.0000604e-05
1.0000554e-05
1.0000492e-05
1.0000418e-05
1.0000374e-05
1.0000373e-05
1.000044e-05
1.0000464e-05
1.0000537e-05
1.0000672e-05
1.0000865e-05
1.0001063e-05
1.0001256e-05
1.0001374e-05
1.0001413e-05
1.0001422e-05
1.0001416e-05
1.000137e-05
1.0001207e-05
1.0000945e-05
1.0000616e-05
1.0000284e-05
1.0000193e-05
0.00099775105
0.0013517553
0.00071707689
8.164584e-05
1.1449439e-05
1.0567682e-05
1.025724e-05
1.0174558e-05
1.007213e-05
1.0057964e-05
1.0023499e-05
1.0023441e-05
1.0010935e-05
1.0011585e-05
1.0007526e-05
1.0006262e-05
1.0004466e-05
1.0003406e-05
1.0002552e-05
1.000201e-05
1.000163e-05
1.0001363e-05
1.0001154e-05
1.000101e-05
1.0000883e-05
1.0000761e-05
1.0000663e-05
1.0000596e-05
1.0000548e-05
1.0000491e-05
1.0000418e-05
1.0000371e-05
1.0000369e-05
1.0000434e-05
1.0000451e-05
1.0000522e-05
1.0000661e-05
1.0000858e-05
1.0001057e-05
1.0001249e-05
1.0001364e-05
1.0001404e-05
1.00014e-05
1.0001407e-05
1.0001366e-05
1.0001203e-05
1.000094e-05
1.0000609e-05
1.0000277e-05
1.0000183e-05
0.00099362084
0.001280957
0.00062155727
6.3284798e-05
1.1232344e-05
1.0544375e-05
1.0245474e-05
1.0165538e-05
1.0068336e-05
1.0054934e-05
1.0022493e-05
1.0022351e-05
1.0010811e-05
1.0011196e-05
1.0007437e-05
1.0006107e-05
1.0004393e-05
1.000334e-05
1.0002512e-05
1.0001982e-05
1.0001615e-05
1.0001359e-05
1.0001158e-05
1.000101e-05
1.0000883e-05
1.0000758e-05
1.0000655e-05
1.0000588e-05
1.0000543e-05
1.0000489e-05
1.0000418e-05
1.0000369e-05
1.0000365e-05
1.0000428e-05
1.0000434e-05
1.0000506e-05
1.0000648e-05
1.0000849e-05
1.000105e-05
1.0001243e-05
1.0001354e-05
1.0001391e-05
1.0001382e-05
1.0001393e-05
1.000136e-05
1.0001195e-05
1.0000932e-05
1.0000602e-05
1.0000271e-05
1.0000172e-05
0.00099045674
0.0012137359
0.0005348098
4.9262624e-05
1.1086905e-05
1.0520763e-05
1.0233743e-05
1.0156722e-05
1.0064665e-05
1.0052011e-05
1.0021546e-05
1.0021316e-05
1.0010715e-05
1.0010828e-05
1.0007349e-05
1.0005961e-05
1.000432e-05
1.0003275e-05
1.0002472e-05
1.0001953e-05
1.00016e-05
1.0001355e-05
1.0001162e-05
1.0001012e-05
1.0000884e-05
1.0000753e-05
1.0000646e-05
1.0000579e-05
1.0000536e-05
1.0000487e-05
1.0000419e-05
1.0000365e-05
1.0000359e-05
1.0000421e-05
1.0000418e-05
1.000049e-05
1.0000634e-05
1.0000839e-05
1.0001042e-05
1.0001238e-05
1.0001345e-05
1.0001383e-05
1.0001367e-05
1.0001374e-05
1.000135e-05
1.0001181e-05
1.0000921e-05
1.0000594e-05
1.0000266e-05
1.0000161e-05
0.00098701226
0.0011353373
0.00045670466
3.8729942e-05
1.098523e-05
1.0497308e-05
1.0222101e-05
1.0148115e-05
1.006112e-05
1.0049195e-05
1.002066e-05
1.0020337e-05
1.0010644e-05
1.001048e-05
1.0007255e-05
1.0005824e-05
1.0004249e-05
1.0003212e-05
1.0002431e-05
1.0001923e-05
1.0001584e-05
1.0001351e-05
1.0001168e-05
1.0001017e-05
1.0000885e-05
1.0000745e-05
1.0000637e-05
1.0000571e-05
1.000053e-05
1.0000484e-05
1.0000419e-05
1.0000362e-05
1.0000353e-05
1.0000413e-05
1.0000402e-05
1.0000474e-05
1.0000619e-05
1.0000827e-05
1.0001033e-05
1.0001233e-05
1.0001335e-05
1.0001376e-05
1.0001353e-05
1.000135e-05
1.0001337e-05
1.000116e-05
1.0000904e-05
1.0000584e-05
1.0000261e-05
1.0000149e-05
0.00098387967
0.0010566475
0.00038849288
3.0965289e-05
1.0910074e-05
1.0473863e-05
1.021057e-05
1.0139729e-05
1.0057706e-05
1.0046493e-05
1.0019837e-05
1.0019415e-05
1.0010601e-05
1.0010119e-05
1.0007159e-05
1.0005694e-05
1.0004177e-05
1.000315e-05
1.0002388e-05
1.0001892e-05
1.0001567e-05
1.0001347e-05
1.0001171e-05
1.0001024e-05
1.0000882e-05
1.0000737e-05
1.0000627e-05
1.0000561e-05
1.0000523e-05
1.0000482e-05
1.0000419e-05
1.0000359e-05
1.0000345e-05
1.0000405e-05
1.0000386e-05
1.0000458e-05
1.0000603e-05
1.0000815e-05
1.0001023e-05
1.0001225e-05
1.0001323e-05
1.0001356e-05
1.0001341e-05
1.0001323e-05
1.0001316e-05
1.0001134e-05
1.0000879e-05
1.0000569e-05
1.0000254e-05
1.0000136e-05
0.00098054706
0.00097313618
0.00032949788
2.5358858e-05
1.0849935e-05
1.0450473e-05
1.0199183e-05
1.0131585e-05
1.0054432e-05
1.0043911e-05
1.0019081e-05
1.001855e-05
1.0010589e-05
1.0009766e-05
1.000706e-05
1.0005571e-05
1.0004105e-05
1.0003087e-05
1.0002344e-05
1.000186e-05
1.000155e-05
1.0001343e-05
1.0001172e-05
1.000103e-05
1.0000877e-05
1.0000727e-05
1.0000617e-05
1.0000551e-05
1.0000516e-05
1.0000479e-05
1.0000419e-05
1.0000355e-05
1.0000337e-05
1.0000396e-05
1.000037e-05
1.0000441e-05
1.0000587e-05
1.0000801e-05
1.000101e-05
1.0001212e-05
1.0001315e-05
1.0001334e-05
1.0001333e-05
1.0001298e-05
1.0001288e-05
1.0001104e-05
1.0000849e-05
1.0000551e-05
1.0000248e-05
1.0000122e-05
0.00097704902
0.00089211434
0.00027950932
2.1349879e-05
1.0798657e-05
1.0427159e-05
1.0187966e-05
1.0123693e-05
1.0051303e-05
1.0041453e-05
1.0018392e-05
1.0017741e-05
1.0010579e-05
1.0009501e-05
1.0006959e-05
1.0005454e-05
1.0004032e-05
1.0003023e-05
1.0002297e-05
1.0001827e-05
1.0001532e-05
1.0001336e-05
1.0001171e-05
1.0001033e-05
1.0000869e-05
1.0000717e-05
1.0000607e-05
1.0000541e-05
1.0000508e-05
1.0000475e-05
1.0000419e-05
1.0000352e-05
1.0000329e-05
1.0000387e-05
1.0000354e-05
1.0000424e-05
1.0000571e-05
1.0000788e-05
1.0000997e-05
1.0001197e-05
1.0001309e-05
1.0001324e-05
1.0001329e-05
1.0001279e-05
1.000126e-05
1.0001073e-05
1.0000816e-05
1.0000529e-05
1.0000242e-05
1.0000105e-05
0.00097381736
0.00080835057
0.00023769081
1.8508156e-05
1.0752727e-05
1.0403968e-05
1.0176953e-05
1.0116071e-05
1.0048325e-05
1.0039122e-05
1.0017765e-05
1.0016979e-05
1.0010541e-05
1.0009246e-05
1.0006856e-05
1.0005342e-05
1.0003957e-05
1.0002958e-05
1.0002249e-05