/*--------------------------------*- C++ -*----------------------------------*\
  =========                 |
  \\      /  F ield         | OpenFOAM: The Open Source CFD Toolbox
   \\    /   O peration     | Website:  https://openfoam.org
    \\  /    A nd           | Version:  8
     \\/     M anipulation  |
\*---------------------------------------------------------------------------*/
FoamFile
{
    version     2.0;
    format      ascii;
    class       volScalarField;
    location    "0.0999939";
    object      p;
}
// * * * * * * * * * * * * * * * * * * * * * * * * * * * * * * * * * * * * * //

dimensions      [1 -1 -2 0 0 0 0];

internalField   nonuniform List<scalar> 
20000
(
69634.493
69646.544
69660.04
69678.76
69705.719
69740.146
69790.33
69844.844
69914.935
70000.035
70092.339
70222.274
70351.545
70544.159
70735.916
71017.083
71308.776
71715.401
72161.894
72754.512
73439.477
74313.456
75350.227
76624.526
78133.951
79936.147
81987.428
84183.213
86428.431
88621.173
90660.701
92490.192
94070.146
95393.002
96469.894
97329.16
98002.778
98529.345
98937.292
99258.707
99515.809
99721.575
99894.949
100068.02
100260.11
100401.24
100466.92
100460.17
100310.54
100279.17
68481.37
68493.583
68507.455
68526.158
68553.409
68587.431
68638.5
68692.983
68764.697
68853.006
68949.237
69086.914
69224.367
69431.093
69636.966
69939.335
70253.761
70692.522
71178.005
71823.298
72574.014
73530.018
74669.473
76063.79
77728.943
79687.236
81856.61
84133.26
86418.071
88638.967
90704.198
92542.985
94121.487
95437.163
96504.93
97355.266
98022
98543.561
98948.207
99268.307
99524.767
99729.42
99902.669
100082.05
100286.06
100415.71
100468.69
100444.05
100311.04
100273.31
67535.028
67547.954
67562.825
67583.04
67612.965
67649.433
67704.679
67763.441
67840.129
67935.42
68038.824
68187.632
68335.508
68557.337
68776.897
69099.171
69435.712
69906.64
70430.024
71126.992
71942.782
72979.518
74227.312
75755.576
77536.282
79582.354
81812.336
84124.267
86454.28
88710.812
90791.138
92629.712
94198.761
95500.641
96554.008
97391.426
98048.26
98562.668
98962.525
99280.322
99535.375
99738.129
99911.169
100101.83
100308.29
100427.6
100472.98
100428.78
100311.14
100267.05
66803.024
66816.699
66832.462
66853.768
66886.013
66924.676
66984.681
67047.883
67130.224
67233.435
67344.726
67505.019
67662.64
67898.77
68131.327
68474.108
68834.192
69340.636
69905.878
70657.547
71548.566
72678.382
74013.898
75620.147
77461.797
79551.368
81807.459
84179.906
86559.815
88841.162
90925.804
92754.138
94304.82
95585.911
96619.387
97439.701
98083.384
98588.182
98981.491
99295.728
99548.3
99748.043
99920.877
100125.05
100326.71
100437.6
100478.53
100418.15
100308.93
100261.46
66241.801
66256.85
66275.061
66299.39
66336.475
66379.779
66446.611
66516.264
66605.5
66717.359
66835.872
67005.9
67171.105
67421.401
67670
68037.719
68425.969
68971.869
69593.023
70408.341
71358.445
72543.084
73926.74
75575.839
77444.597
79569.833
81890.789
84318.686
86734.971
89028.151
91104.568
92912.184
94436.282
95690.13
96698.723
97498.143
98125.789
98618.879
99004.165
99313.792
99563.024
99758.91
99931.845
100149.54
100343.58
100447.32
100484.58
100408.29
100305.19
100256.28
65850.645
65865.822
65884.973
65910.349
65949.691
65994.977
66065.348
66138.697
66232.247
66350.474
66473.988
66652.485
66826.593
67095.305
67366.622
67771.162
68197.781
68786.579
69444.329
70297.427
71280.311
72495.895
73902.87
75572.355
77499.081
79688.101
82066.306
84539.206
86977.773
89269.101
91325.577
93102.585
94592.171
95812.648
96791.642
97566.577
98175.436
98654.791
99030.616
99334.587
99579.575
99770.954
99944.642
100174.46
100359.05
100455.88
100490.18
100399.77
100300.66
100251.83
65567.023
65583.4
65604.269
65632.081
65676.315
65724.916
65799.945
65877.183
65974.174
66098.591
66229.726
66425.679
66621.454
66918.14
67212.261
67642.968
68091.989
68706.311
69384.059
70259.233
71257.962
72488.915
73934.444
75663
77652.532
79901.937
82331.355
84836.089
87283.014
89559.776
91585.132
93322.311
94770.165
95951.71
96896.841
97644.038
98231.633
98695.436
99060.509
99357.855
99597.748
99784.395
99960.198
100199.22
100373.38
100462.92
100493.97
100391.7
100296.07
100248.11
65388.362
65408.064
65429.869
65459.36
65506.796
65557.775
65637.133
65720.107
65824.52
65960.951
66104.125
66317.098
66525.715
66839.152
67144.834
67590.149
68050.922
68680.647
69367.399
70254.362
71283.075
72561.078
74061.005
75848.249
77900.21
80206.215
82677.489
85202.723
87645.46
89895.756
91879.727
93568.652
94968.193
96105.795
97013.231
97729.761
98293.864
98740.48
99093.63
99383.423
99617.371
99799.53
99979.786
100223.23
100386.24
100468.44
100495.95
100384.11
100291.71
100245.1
65284.503
65306.245
65329.513
65361.665
65413.79
65468.882
65554.323
65644.316
65755.855
65901.981
66052.644
66275.568
66488
66810.826
67122.527
67574.824
68041.035
68681.752
69395.01
70319.267
71391.094
72717.854
74273.923
76121.443
78233.151
80590.604
83096.492
85631.785
88058.875
90271.929
92205.205
93838.349
95183.782
96273.069
97139.475
97822.782
98361.455
98789.469
99129.676
99411.041
99638.207
99816.547
100004.6
100246.07
100397.48
100472.55
100496.72
100376.9
100287.68
100242.65
65235.153
65258.964
65282.95
65317.138
65372.942
65431.108
65521.007
65616.3
65732.322
65884.525
66037.926
66265.29
66477.447
66805.325
67121.771
67591.271
68078.084
68748.938
69494.314
70457.31
71574.437
72952.608
74565.69
76472.442
78642.462
81047.494
83580.757
86116.585
88517.478
90683.381
92557.556
94128.241
95414.51
96451.725
97274.249
97922.147
98433.74
98841.958
99168.346
99440.452
99660.019
99835.429
100034.93
100267.77
100407.51
100475.16
100496.88
100370.05
100283.9
100240.6
65214.288
65240.689
65265.398
65300.81
65359.219
65419.159
65511.486
65609.928
65727.668
65884.454
66040.81
66277.507
66497.142
66840.879
67173.053
67665.78
68176.351
68877.685
69657.403
70661.043
71824.759
73254.709
74925.683
76892.557
79119.89
81568.779
84122.811
86650.136
89015.111
91124.894
92932.517
94434.969
95657.817
96639.854
97416.152
98026.837
98510.003
98897.467
99209.307
99471.364
99682.545
99855.9
100068.49
100289.77
100417.49
100476.43
100495.23
100363.44
100280.22
100238.79
65215.842
65243.961
65270.375
65307.726
65369.589
65432.775
65528.83
65632.142
65754.577
65919.392
66082.574
66331.946
66564.534
66927.587
67276.724
67793.617
68329.08
69061.907
69876.81
70921.485
72133.066
73616.712
75347.397
77375.343
79659.33
82148.443
84716.431
87226.414
89546.252
91591.662
93326.102
94755.36
95911.251
96835.613
97563.813
98135.851
98589.531
98955.515
99252.227
99503.483
99705.578
99877.541
100103.13
100312.19
100428.1
100477.15
100489.96
100356.9
100276.52
100237.12
65263.607
65292.837
65321.344
65360.946
65426.78
65493.237
65592.702
65701.053
65828.32
66001.896
66172.376
66435.159
66679.368
67061.452
67427.372
67968.319
68528.793
69293.094
70144.151
71231.314
72492.777
74032.173
75824.751
77915.205
80255.032
82780.374
85355.293
87839.223
90105.184
92078.751
93734.252
95086.196
96172.341
97037.142
97715.849
98248.174
98671.602
99015.614
99296.777
99536.502
99729.004
99900.031
100137.06
100334.15
100439.75
100479.39
100481.03
100349.66
100272.71
100235.54
65351.406
65381.961
65412.248
65453.971
65523.502
65593.361
65696.997
65811.289
65943.586
66126.592
66303.808
66580.223
66834.327
67234.59
67617.179
68182.331
68768.602
69565.322
70454.133
71585.588
72899.419
74497.255
76354.255
78508.544
80902.98
83459.911
86034.175
88483.213
90686.877
92581.746
94153.285
95424.524
96438.796
97242.705
97870.951
98362.829
98755.516
99077.286
99342.653
99570.189
99752.816
99923.385
100169.27
100354.51
100451.5
100485.88
100468.48
100341.75
100268.85
100234.02
65465.28
65497.609
65530.098
65574.507
65648.162
65721.875
65830.105
65950.725
66088.522
66281.321
66465.96
66756.762
67021.736
67440.827
67840.651
68430.737
69043.832
69874.088
70802.6
71980.62
73349.646
75008.728
76932.706
79151.901
81599.056
84182.105
86747.596
89152.808
91286.196
93096.205
94579.536
95767.43
96708.37
97450.6
98027.836
98478.86
98840.589
99140.055
99389.543
99604.464
99777.181
99948.14
100199.39
100373.08
100462.78
100493.84
100454.66
100333.59
100265.05
100232.56
65607.123
65641.152
65675.644
65722.559
65800.151
65877.465
65990.37
66117.842
66261.26
66464.321
66656.421
66961.69
67237.706
67676.124
68093.952
68709.754
69351.13
70216.542
71187.165
72414.379
73841.659
75565.026
77558.469
79843.204
82340.272
84943.022
87490.912
89843.212
91898.651
93618.208
95009.747
96112.312
96979.045
97659.281
98185.327
98595.373
98926.175
99203.46
99437.078
99639.276
99802.43
99975.309
100227.28
100389.87
100472.45
100500.39
100439.62
100325.48
100261.4
100231.16
65772.009
65808.017
65844.77
65894.466
65976.063
66057.429
66175.095
66309.451
66458.243
66671.709
66871.175
67191.321
67478.883
67937.558
68374.408
69017.08
69688.381
70590.757
71606.144
72885.346
74374.055
76164.696
78229.902
80580.067
83123.243
85738.212
88259.126
90549.442
92519.673
94143.837
95440.723
96456.659
97248.889
97867.262
98342.297
98711.514
99011.66
99267.06
99484.841
99674.299
99828.927
100005.87
100252.77
100404.84
100479.94
100504.55
100425.03
100317.72
100257.92
100229.82
65959.085
65996.958
66035.858
66088.142
66173.738
66259.164
66380.957
66522.157
66676.265
66900.614
67107.707
67443.659
67743.494
68223.314
68680.324
69350.981
70054.197
70995.728
72058.824
73392.998
74946.413
76807.395
78946.361
81361.048
83945.304
86563.938
89047.903
91267.151
93145.274
94669.674
95869.678
96798.282
97516.211
98073.227
98497.74
98826.521
99096.482
99330.452
99532.522
99709.233
99856.827
100039.63
100276.29
100417.85
100485.57
100506.42
100411.24
100310.39
100254.64
100228.51
66162.085
66201.992
66243.253
66298.338
66388.394
66478.351
66604.347
66753.232
66913.15
67149.474
67364.66
67717.426
68030.185
68532.037
69010.4
69710.538
70447.917
71430.967
72544.78
73936.951
75558.357
77492.694
79706.899
82184.159
84803.156
87415.865
89852.511
91991.756
93771.401
95192.331
96293.908
97135.093
97779.406
98275.953
98650.716
98939.701
99180.119
99393.252
99579.802
99743.926
99886.092
100075.69
100298.8
100429.03
100489.67
100507.13
100398.26
100303.47
100251.5
100227.21
66380.997
66423.202
66467.232
66525.444
66620.546
66715.638
66845.885
67003.126
67168.853
67417.912
67641.401
68011.655
68337.922
68862.711
69363.952
70095.246
70869.355
71896.475
73064.132
74517.438
76210.271
78220.93
80511.258
83047.946
85693.966
88290.186
90668.777
92719.229
94394.506
95708.886
96711.104
97465.294
98037.094
98474.43
98800.405
99050.46
99262.112
99455.11
99626.382
99778.162
99916.46
100113.36
100321
100438.75
100491.75
100507.31
100386.15
100296.94
100248.48
100225.89
66617.393
66661.842
66708.634
66769.806
66869.848
66969.997
67104.467
67271.158
67442.594
67704.888
67936.736
68325.187
68665.791
69214.746
69740.768
70505.2
71318.698
72392.427
73617.062
75134.729
76902.505
78992.207
81358.664
83950.204
86614.151
89182.476
91492.098
93445.302
95010.954
96216.485
97119.073
97787.176
98287.987
98667.804
98946.068
99158.253
99342.06
99515.697
99671.983
99811.766
99947.578
100151.7
100343.1
100448.16
100492.72
100504.7
100374.96
100290.73
100245.53
100224.53
66867.952
66914.979
66964.998
67029.404
67134.475
67239.902
67379.138
67555.534
67732.701
68009.253
68249.643
68657.358
69013.485
69588.217
70141.136
70940.713
71796.29
72919.227
74204.126
75789.651
77636.037
79807.195
82248.754
84889.058
87560.47
90088.695
92318.277
94166.116
95617.596
96712.782
97516.051
98099.349
98531.081
98855.428
99087.12
99262.555
99419.636
99574.722
99716.372
99844.644
99979.176
100189.57
100364.69
100457.91
100493.29
100496.33
100364.66
100284.75
100242.58
100223.09
67135.184
67184.571
67237.384
67304.648
67414.693
67525.195
67669.236
67855.722
68038.48
68330.07
68579.875
69008.167
69381.399
69983.58
70565.586
71402.24
72302.534
73477.345
74825.968
76483.095
78411.725
80666.163
83180.434
85861.761
88528.834
91004.123
93142.615
94877.564
96211.329
97195.602
97900.455
98400.624
98765.626
99036.668
99223.096
99362.8
99494.563
99631.925
99759.364
99876.861
100011.32
100225.84
100384.82
100467.15
100496.96
100482.17
100354.3
100278.82
100239.62
100221.56
67411.792
67464.271
67520.853
67592.104
67708.2
67824.67
67974.139
68171.651
68359.056
68667.517
68927.719
69378.417
69770.225
70401.433
71014.55
71890.117
72837.897
74067.521
75483.699
77216.457
79230.94
81569.69
84152.837
86865.693
89515.361
91924.291
93960.802
95576.137
96789.756
97663.295
98271.098
98690.273
98991.325
99210.788
99353.668
99458.447
99566.577
99687.093
99800.834
99908.637
100044.58
100259.45
100403.34
100475.91
100501.05
100465.19
100343.66
100272.97
100236.63
100219.9
67702.553
67758.115
67818.513
67893.39
68014.822
68137.894
68293.307
68502.871
68696.728
69023.015
69294.431
69768.713
70180.542
70842.078
71488.364
72404.744
73403.01
74690.744
76178.599
77991.213
80094.739
82517.779
85164.077
87897.263
90515.212
92844.088
94768.292
96258.644
97350.909
98114.332
98626.838
98967.852
99208.086
99376.802
99478.468
99549.172
99635.359
99740.059
99840.715
99940.254
100079.74
100289.4
100419.64
100483.35
100503.46
100446.91
100333.04
100267.29
100233.63
100218.09
68007.624
68066.314
68130.544
68208.979
68336.303
68466.948
68628.52
68850.938
69051.59
69397.491
69680.42
70179.278
70612.463
71305.702
71987.296
72946.624
73998.811
75348.432
76912.448
78809.237
81004.537
83510.479
86212.325
88952.822
91523.688
93758.747
95561.355
96923.149
97893.712
98547.448
98966.65
99233.171
99415.548
99533.914
99596.9
99635.21
99700.539
99790.705
99878.981
99971.945
100116.98
100315.1
100432.82
100488.62
100504.55
100428.83
100322.89
100261.86
100230.62
100216.1
68325.514
68387.922
68456.935
68540.125
68674.117
68812.607
68980.06
69215.736
69423.436
69790.431
70085.593
70610.075
71066.04
71792.461
72511.832
73516.622
74626.628
76042.308
77687.169
79672.3
81961.256
84546.969
87294.62
90027.642
92535.305
94663.231
96336.835
97568.551
98417.103
98961.118
99289.342
99485.693
99611.913
99682.471
99707.988
99717.435
99761.831
99838.935
99915.616
100003.76
100154.79
100337.69
100442.81
100491.22
100504.93
100412.04
100313.43
100256.71
100227.59
100213.93
68659.711
68725.66
68799.25
68886.827
69026.83
69173.806
69346.983
69596.963
69812.614
70200.655
70509.835
71061.147
71541.577
72302.72
73062.773
74116.026
75288.224
76774.511
78505.018
80582.442
82965.894
85626.326
88407.839
91116.958
93544.88
95553.509
97093.246
98194.375
98919.166
99353.744
99594.12
99724.133
99795.83
99823.073
99810.983
99796.672
99819.369
99884.648
99950.6
100035.59
100192.33
100358.16
100450.53
100492.33
100505.03
100396.74
100304.73
100251.83
100224.5
100211.55
69005.369
69075.255
69153.947
69246.514
69392.933
69549.665
69729.211
69994.844
70219.173
70629.4
70953.138
71532.839
72039.448
72837.22
73641.373
74746.636
75985.737
77547.364
79368.229
81541.376
84018.674
86746.511
89547.601
92215.03
94546.889
96426.33
97829.986
98798.168
99396.348
99723.62
99880.552
99947.387
99968.159
99956.266
99906.103
99871.724
99873.985
99927.698
99983.93
100067.26
100228.96
100377.49
100457.69
100492.63
100503.31
100383
100296.76
100247.15
100221.33
100208.94
69364.59
69438.777
69523.047
69621.124
69774.142
69941.675
70127.93
70410.241
70643.569
71076.729
71415.827
72025.276
72560.476
73397.183
74249.426
75410.644
76721.598
78363.429
80279.256
82550.876
85119.668
87905.165
90709.311
93316.274
95536.782
97280.232
98546.284
99374.917
99845.826
100069.47
100148.92
100156.87
100131.13
100080.34
99994.7
99940.368
99926.871
99967.916
100015.7
100098.72
100264
100395.84
100464.93
100492.3
100497.58
100370.83
100289.43
100242.61
100218.04
100206.11
69738.309
69817.085
69907.331
70011.357
70171.082
70350.09
70542.922
70842.811
71085.356
71542.368
71898.376
72539.146
73106.06
73984.45
74889.199
76110.552
77498.38
79225.282
81240.386
83612.136
86267.88
89098.542
91887.18
94414.583
96510.667
98114.44
99236.807
99920.288
100264.96
100391.96
100402.29
100353.31
100283.79
100195.42
100076.81
100002.91
99977.883
100005.23
100046.16
100130.32
100296.45
100412.25
100470.86
100492.13
100486.08
100360.07
100282.57
100238.12
100214.62
100203.05
70127.19
70210.719
70307.132
70417.173
70583.127
70774.188
70973.219
71291.842
71544.491
72026.833
72401.982
73075.945
73678.215
74601.341
75563.186
76849.027
78318.785
80135.695
82253.988
84726.257
87461.889
90322.503
93075.328
95504.756
97466.441
98927.422
99894.921
100430.09
100653.9
100696.72
100639.31
100536.66
100426.23
100301.53
100152.19
100060.27
100026.49
100039.89
100075.72
100162.85
100324.9
100426.08
100475.65
100492.64
100470.89
100349.72
100275.93
100233.64
100211.05
100199.76
70528.678
70617.585
70720.871
70837.377
71009.258
71213.51
71418.934
71757.882
72022.174
72531.796
72928.384
73637.986
74279.277
75250.354
76274.016
77628.807
79185.585
81097.371
83322.129
85893.361
88698.967
91571.419
94267.155
96582.005
98402.845
99712.194
100515.16
100902.11
101019.05
100982.66
100859.72
100707.16
100558.51
100398.83
100221.11
100113.02
100071.66
100072.65
100104.8
100196.86
100348.47
100437.4
100479.47
100493.04
100455.03
100339.59
100269.48
100229.17
100207.34
100196.26
70940.559
71036.042
71147.697
71272.385
71450.266
71668.984
71882.325
72243.181
72520.423
73059.129
73479.948
74227.852
74911.748
75933.974
77024.333
78452.703
80101.662
82113.169
84446.767
87113.189
89975.683
92839.438
95456.703
97643.231
99318.325
100460.1
101092.89
101340.28
101363.49
101248.35
101063.83
100865.22
100680.87
100487.61
100284.14
100161.55
100112.18
100104.44
100133.6
100230.49
100368.6
100446.68
100482.51
100493.24
100439.21
100329.83
100263.29
100224.74
100203.52
100192.55
71369.041
71470.718
71590.033
71724.656
71909.054
72143.305
72365.181
72749.707
73041.193
73610.936
74059.232
74847.555
75578.065
76654.748
77816.879
79323.681
81069.986
83185.817
85629.188
88384.159
91287.039
94119.609
96638.191
98686.075
100204.89
101164.55
101625.86
101753.08
101684.49
101493.95
101252.16
101011.25
100793.54
100568.25
100341.62
100206.03
100148.48
100135.16
100162.12
100262.77
100386.38
100454.62
100485.14
100493.34
100424.34
100320.86
100257.47
100220.35
100199.59
100188.67
71817.578
71925.153
72050.677
72195.616
72387.096
72638.117
72869.052
73279.256
73586.715
74189.695
74668.392
75498.969
76280.624
77415.396
78654.553
80244.865
82093.761
84318.06
86870.303
89703.938
92627.475
95405.318
97807.176
99708.643
101052.45
101820.33
102120.3
102141.21
101981.39
101720.01
101425.34
101145.76
100896.87
100641.12
100393.62
100246.26
100181.58
100164.64
100190.21
100293.36
100402.67
100461.69
100487.21
100493.4
100411.33
100312.86
100252.1
100216.07
100195.58
100184.61
72283.159
72397.844
72529.989
72685.902
72885.087
73154.908
73395.866
73833.972
74159.343
74797.432
75309.138
76184.492
77021.977
78218.857
79540.426
81219.586
83176.274
85512.266
88169.873
91068.465
93990.025
96689.695
98959.787
100703.78
101852.18
102424.52
102585.7
102501.53
102254.51
101927.23
101584.04
101269.26
100991.2
100706.52
100440.18
100282.44
100212.08
100192.73
100217.62
100322.12
100417.91
100468.16
100488.61
100493.25
100399.98
100305.83
100247.26
100212
100191.54
100180.39
72766.458
72889.642
73029.33
73197.875
73405.658
73696.501
73948.198
74416.091
74760.998
75435.881
75983.378
76906.65
77804.992
79068.253
80477.765
82251.39
84320.956
86770.526
89526.886
92472.789
95367.608
97966.926
100093.37
101660.36
102597.91
102983.63
103022.53
102833.53
102504.67
102116.46
101729.04
101382.35
101076.93
100764.65
100481.46
100314.89
100240.26
100219.39
100244.1
100348.57
100431.8
100474.32
100489.77
100491.82
100389.91
100299.55
100242.92
100208.28
100187.64
100176.01
73271.539
73404.181
73552.038
73735.25
73951.866
74265.162
74527.468
75026.596
75392.953
76106.637
76694.013
77668.127
78632.763
79966.986
81470.092
83344.102
85531.036
88094.046
90938.52
93910.365
96752.386
99231.535
101202.63
102566.41
103285.33
103507.81
103427.51
103137.72
102732.73
102288.57
101861.1
101485.63
101154.45
100815.71
100517.74
100344.05
100266.46
100244.68
100269.67
100372.12
100443.47
100479.66
100492.14
100487.83
100380.62
100293.68
100238.83
100204.92
100184.26
100171.51
73799.271
73942.447
74098.939
74297.477
74522.297
74860.231
75133.811
75666.401
76056.941
76812.017
77444.416
78472.03
79508.504
80918.649
82521.303
84501.785
86809.723
89483.128
92400.881
95373.965
98137.468
100479.35
102276
103414.35
103919.18
103999.44
103799.57
103415.11
102939.77
102444.53
101981.05
101579.68
101224.03
100859.84
100549.36
100370.3
100290.97
100268.76
100294.79
100392.44
100453.31
100484.1
100494.56
100481.27
100371.69
100287.88
100234.76
100201.79
100181.58
100166.93
74347.296
74502.235
74667.478
74882.593
75117.165
75482.331
75769.315
76338.343
76756.182
77555.323
78237.178
79321.603
80435.633
81927.247
83635.741
85728.692
88159.62
90936.505
93908.066
96855.158
99515.85
101705.92
103299.06
104197.99
104509.79
104455.47
104139.35
103666.82
103126.87
102585.29
102089.64
101664.93
101285.74
100897.27
100576.71
100394.01
100314
100291.86
100320.08
100409.42
100461.84
100487.59
100495.75
100472.73
100362.79
100282.01
100230.8
100198.93
100179.16
100162.36
74921.224
75088.925
75263.115
75496.625
75740.965
76136.026
76438.03
77045.922
77493.768
78339.24
79075.101
80220.201
81418.108
82997.336
84818.136
87029.127
89582.585
92451.625
95453.17
98345.841
100881.35
102901.46
104261.17
104918.12
105063.77
104873.58
104448.04
103894.17
103295.22
102711.88
102187.65
101741.72
101339.52
100928.36
100600.22
100415.52
100335.75
100314.07
100344.36
100424.02
100469.05
100490.2
100496.26
100462.4
100353.7
100275.98
100226.91
100196.37
100176.64
100158
75521.762
75703.989
75888.559
76142.857
76396.749
76823.966
77142.406
77791.254
78271.881
79166.359
79961.343
81171.9
82460.521
84134.082
86073.596
88406.971
91078.98
94023.721
97027.614
99837.689
102228.07
104050.53
105154.31
105584.24
105578.56
105254.4
104726.99
104098.49
103445.99
102825.27
102275.79
101810.47
101385.63
100953.81
100620.39
100435.14
100356.34
100335.39
100366.94
100436.55
100474.71
100491.91
100496.43
100450.58
100344.39
100269.86
100223.07
100193.97
100173.87
100153.88
76154.401
76351.569
76546.448
76822.068
77086.636
77548.057
77883.834
78575.604
79092.546
80039.699
80900.74
82181.623
83568.121
85343.15
87407.401
89865.455
92647.646
95646.47
98622.474
101323.03
103549.31
105137.17
105974.34
106208.43
106049.86
105599.26
104977.8
104281.24
103580.43
102926.48
102354.88
101872.01
101425.34
100974.57
100637.72
100453.17
100375.87
100355.75
100387.4
100447.04
100478.9
100492.73
100496.45
100437.77
100334.94
100263.77
100219.23
100191.54
100170.91
100149.92
76814.258
77028.507
77234.909
77534.559
77810.57
78308.852
78663.441
79400.795
79959.188
80964.371
81898.197
83255.11
84746.757
86630.653
88824.672
91406.519
94285.092
97311.348
100228.06
102793.84
104829.15
106151.23
106729.15
106788.94
106478.21
105909.78
105202.09
104443.84
103699.69
103016.45
102425.71
101927.51
101460.94
100991.13
100652.57
100469.83
100394.37
100375.07
100405.64
100456.02
100482.42
100492.99
100495.23
100424.73
100325.48
100257.75
100215.46
100188.98
100167.79
100146.08
77507.591
77740.925
77959.827
78283.832
78570.136
79108.161
79484.239
80271.268
80877.555
81945.471
82959.819
84398.62
86002.803
88002.915
90330.007
93030.534
95985.853
99008.783
101835
104242.79
106049.38
107085.07
107431.77
107321.7
106865.09
106187.86
105401.65
104587.78
103804.98
103096.13
102489.02
101977.79
101493.4
101002.14
100665.17
100485.28
100411.82
100393.28
100421.81
100463.92
100485.38
100493.02
100491.93
100411.64
100316.13
100251.87
100211.8
100186.26
100164.55
100142.36
78229.218
78483.075
78712.436
79065.523
79365.989
79950.202
80352.869
81194.464
81855.393
82988.037
84091.282
85619.069
87343.324
89466.31
91926.928
94735.493
97741.982
100727.87
103433.17
105656.99
107194.64
107941.52
108085.81
107805.2
107212.33
106435.42
105578.19
104714.48
103897.45
103166.43
102545.44
102022.57
101517.43
101008.28
100675.82
100499.61
100428.2
100410.3
100435.83
100470.45
100487.55
100493.18
100485.83
100398.65
100307.03
100246.19
100208.27
100183.4
100161.24
100138.77
78985.638
79261.828
79505.267
79894.807
80211.223
80845.129
81277.078
82176.272
82897.675
84099.248
85299.774
86924.236
88775.794
91026.756
93617.232
96517.021
99543.764
102457.91
105013.13
107017.01
108254.66
108732.35
108687.89
108240.93
107522.13
106654.6
105733.5
104825.37
103978.24
103228.27
102595.57
102060.98
101529.61
101011.59
100684.93
100512.89
100443.41
100426.02
100447.44
100475.39
100488.88
100493.23
100477.57
100385.91
100298.29
100240.72
100204.86
100180.4
100157.9
100135.32
79790.555
80092.875
80352.715
80777.616
81109.077
81796.071
82260.879
83221.378
84010.424
85286.642
86593.517
88322.748
90307.793
92689.064
95400.271
98367.689
101379.42
104187.22
106564.45
108301.3
109225.01
109468.5
109233.84
108630.87
107796.78
106847.46
105869.31
104921.82
104048.43
103282.55
102640.1
102093.15
101534.25
101013.53
100692.89
100525.19
100457.36
100440.13
100456.79
100478.88
100489.46
100493
100467.75
100373.55
100289.96
100235.47
100201.52
100177.29
100154.55
100132.03
80637.209
80969.792
81246.945
81713.581
82061.434
82807.103
83310.939
84337.091
85201.576
86559.329
87981.919
89823.573
91946.292
94456.212
97272.667
100277.7
103236.53
105903.67
108066.95
109496.57
110115.4
110147.44
109725.04
108977.61
108038.82
107016.17
105987.34
105005.18
104109.08
103330.13
102679.9
102120.76
101535.45
101014.73
100699.92
100536.57
100470.23
100452.94
100464.32
100481.45
100489.61
100492.32
100456.46
100361.67
100282.03
100230.45
100198.21
100174.09
100151.24
100128.91
81533.171
81899.692
82193.935
82709.897
83076.53
83886.544
84436.497
85532.553
86481.527
87927.668
89474.718
91435.287
93696.893
96328.597
99227.609
102234.38
105101.3
107594.31
109496.36
110592.19
110941.75
110763.53
110163.56
109283.82
108250.73
107162.8
106089.23
105076.73
104161.21
103371.85
102715.61
102144.73
101533.33
101015.23
100706.17
100547.04
100482.06
100464.68
100470.43
100483.47
100489.35
100490.96
100444.07
100350.29
100274.45
100225.64
100194.89
100170.82
100147.99
100125.97
82488.933
82894.129
83205.385
83777.113
84163.681
85043.105
85646.513
86816.561
87863.576
89403.297
91081.08
93165.193
95563.285
98303.634
101255.29
104223.5
106959.12
109241.74
110832.76
111594.64
111704.07
111316.94
110552.37
109552.49
108435.11
107289.45
106176.61
105137.71
104205.82
103408.45
102747.2
102161.24
101528.01
101015.03
100711.83
100556.63
100492.59
100474.76
100475.49
100485.17
100489.05
100488.29
100431.33
100339.4
100267.21
100221.02
100191.52
100167.5
100144.84
100123.21
83509.814
83959.595
84287.328
84923.242
85332.625
86286.92
86953.036
88202.312
89357.785
90996.095
92809.039
95019.45
97546.98
100375.34
103342.58
106229.34
108794.01
110819.53
112062.51
112518.36
112397.15
111809.85
110894.51
109786.6
108594.46
107398.1
106251.01
105189.31
104243.86
103440.55
102774.26
102170.26
101520.24
101014.01
100717.04
100565.42
100501.62
100482.34
100479.84
100486.39
100488.94
100483.54
100418.61
100328.95
100260.27
100216.54
100188.1
100164.19
100141.79
100120.65
84603.628
85106.012
85449.774
86159.709
86595.691
87629.556
88368.665
89701.935
90973.662
92714.792
94665.916
97002.754
99646.635
102534
105473.82
108235.16
110589.53
112300.88
113184.98
113370.08
113018.7
112245.53
111193.5
109989.27
108731.31
107490.7
106313.88
105232.62
104276.22
103468.65
102796.8
102174.62
101510.82
101012.5
100721.81
100573.25
100509.15
100487.82
100483.44
100486.97
100488.77
100477.02
100406.03
100318.92
100253.61
100212.17
100184.65
100160.88
100138.88
100118.29
85783.314
86347.394
86705.058
87498.942
87965.604
89081.694
89904.066
91324.736
92719.536
94567.845
96658.918
99118.297
101857.29
104765.71
107630.73
110221.47
112316.47
113668.41
114213.07
114144.99
113570.95
112627.56
111452.88
110163.49
108848.01
107569.02
106366.48
105268.64
104303.67
103493.14
102815.32
102176.4
101500.41
101010.79
100726.15
100579.95
100515.15
100492.04
100486.56
100487.13
100488.3
100468.93
100393.66
100309.28
100247.19
100207.85
100181.17
100157.63
100136.1
100116.15
87059.893
87696.688
88064.382
88951.778
89454.408
90653.012
91569.032
93076.531
94603.089
96565.355
98795.618
101366.4
104169.19
107052.67
109793.11
112167.84
113944.33
114914.81
115159.58
114838.57
114057.51
112960.1
111676.4
110312.31
108946.88
107634.72
106410.08
105298.42
104326.9
103514.48
102830.66
102176.15
101489.6
101009.03
100730.08
100585.63
100520.13
100495.3
100488.29
100487.11
100487.18
100459.52
100381.53
100300
100240.98
100203.55
100177.65
100154.46
100133.47
100114.21
88439.489
89163.84
89536.97
90525.695
91071.461
92350.791
93370.86
94967.608
96636.014
98719.635
101082.21
103742.54
106566.8
109372.97
111937.35
114044.33
115449.6
116051.36
116019.7
115453.09
114482.57
113247.39
111867.66
110438.56
109030.03
107689.37
106446.02
105323.15
104346.59
103533.23
102843.83
102173.33
101478.73
101007.07
100733.32
100590.45
100524.39
100498.01
100489.06
100486.35
100484.71
100449.06
100369.69
100291.06
100234.95
100199.27
100174.1
100151.37
100131
100112.47
89939.859
90761.684
91130.463
92222.988
92823.775
94184.219
95321.805
97017.907
98836.186
101042.59
103519.94
106234.86
109028.61
111701.67
114038.01
115815.69
116819.69
117094.82
116787.2
115992.52
114851.02
113493.86
112030.28
110545.01
109099.48
107734.65
106475.99
105344.06
104363.48
103549.98
102855.7
102168.41
101467.86
101004.72
100735.73
100594.54
100527.85
100499.89
100489.25
100485.23
100480.75
100438.01
100358.16
100282.43
100229.08
100195.01
100170.56
100148.39
100128.71
100110.94
91555.923
92484.034
92846.59
94045.96
94725.62
96174.473
97448.67
99254.128
101221.39
103540.54
106101.74
108823.59
111527.73
114009.95
116062.41
117452.9
118064.88
118039.8
117464.6
116461.78
115167.91
113703.85
112167.65
110634.19
109157.23
107772.42
106501.42
105361.34
104378.33
103565.18
102865.5
102161.8
101457.04
101001.98
100737.45
100598.01
100530.53
100500.83
100488.91
100483.57
100475.38
100426.59
100346.96
100274.11
100223.34
100190.77
100167.03
100145.52
100126.6
100109.62
93309.291
94347.116
94717.582
96025.791
96810.873
98356.033
99783.555
101698.5
103801.34
106209.65
108810.17
111481.02
114032.86
116265.98
117969.95