/*--------------------------------*- C++ -*----------------------------------*\
  =========                 |
  \\      /  F ield         | OpenFOAM: The Open Source CFD Toolbox
   \\    /   O peration     | Website:  https://openfoam.org
    \\  /    A nd           | Version:  8
     \\/     M anipulation  |
\*---------------------------------------------------------------------------*/
FoamFile
{
    version     2.0;
    format      ascii;
    class       surfaceScalarField;
    location    "0.0999939";
    object      phi;
}
// * * * * * * * * * * * * * * * * * * * * * * * * * * * * * * * * * * * * * //

dimensions      [1 0 -1 0 0 0 0];

internalField   nonuniform List<scalar> 
39600
(
0.00022383811
-0.0076574634
0.0074686372
0.00030120323
-0.010950033
0.01088055
0.00038068443
-0.014562874
0.014491434
0.00045337228
-0.019043887
0.018980128
0.00050958147
-0.024765307
0.024718984
0.00050960445
-0.032255983
0.032267675
0.00022656665
-0.039567072
0.03986285
-0.00016057243
-0.047957339
0.048359353
-0.00061649861
-0.056971137
0.057444409
-0.0011682595
-0.068634495
0.069206794
-0.0018206906
-0.081856479
0.082533309
-0.0026067273
-0.098367893
0.099182931
-0.0035339665
-0.1175293
0.11849097
-0.0046442129
-0.14103873
0.14219016
-0.0059526
-0.16869707
0.17005455
-0.0075108369
-0.20228952
0.20390695
-0.0093469693
-0.24209913
0.24400645
-0.011522212
-0.29017852
0.29244025
-0.014078002
-0.34741049
0.35006832
-0.017088163
-0.41629882
0.41942858
-0.02061057
-0.49853268
0.50219565
-0.024737674
-0.59729592
0.60158655
-0.029557531
-0.71537317
0.72038192
-0.035218194
-0.85688364
0.86275936
-0.041888049
-1.0260429
1.0329629
-0.049730366
-1.2280722
1.2361655
-0.058993357
-1.4689036
1.4784419
-0.070210627
-1.7557483
1.7672701
-0.083868842
-2.0965603
2.1105432
-0.10043881
-2.5013474
2.5182577
-0.12041896
-2.982681
3.0030185
-0.14430206
-3.556155
3.5804199
-0.17261642
-4.2407871
4.2695012
-0.20589767
-5.0595919
5.0932996
-0.24472723
-6.0402161
6.0795088
-0.28969791
-7.2158025
7.2612889
-0.34141833
-8.6252738
8.6775858
-0.40042826
-10.316278
10.375972
-0.46707529
-12.345222
12.41266
-0.54128707
-14.780928
14.856088
-0.62228483
-17.703544
17.785696
-0.70813298
-21.212143
21.299392
-0.79501529
-25.425772
25.514415
-0.87642638
-30.484854
30.568497
-0.94480405
-36.55338
36.624295
-0.98093499
-43.839272
43.877771
-0.95151313
-52.597257
52.570261
-0.82221789
-63.132442
63.00221
-0.54789914
-75.831929
75.555154
-91.076786
90.541129
8.5835526e-05
-0.0077124836
0.00015210916
-0.011007887
0.00021099625
-0.01461316
0.00025895059
-0.019082763
0.0002903656
-0.02478684
0.00024934945
-0.032204006
-3.5854139e-05
-0.039269675
-0.00040218257
-0.04757704
-0.00083034088
-0.056526496
-0.0013479296
-0.068097322
-0.0019579305
-0.081223533
-0.0026897439
-0.097608807
-0.0035519006
-0.11663449
-0.0045838852
-0.13996784
-0.0058007056
-0.16743362
-0.0072542531
-0.20077994
-0.008964822
-0.24032133
-0.010995815
-0.28806756
-0.013379145
-0.34493048
-0.016189708
-0.413373
-0.019478167
-0.49510846
-0.023346106
-0.59327162
-0.027862236
-0.71067099
-0.033199002
-0.85133593
-0.039486764
-1.0195354
-0.046930522
-1.2203803
-0.055846166
-1.4597147
-0.066729234
-1.7445678
-0.080068276
-2.0828999
-0.096321252
-2.4847572
-0.11596209
-2.9626858
-0.13947601
-3.5322628
-0.16736585
-4.2125014
-0.20015114
-5.0263834
-0.2383958
-6.0015125
-0.28267793
-7.1710083
-0.33358776
-8.5737771
-0.39165931
-10.257525
-0.4572512
-12.27884
-0.53031806
-14.706914
-0.61013411
-17.622577
-0.69487354
-21.126006
-0.78087008
-25.338006
-0.86181389
-30.401652
-0.93132942
-36.481514
-0.96806539
-43.80028
-0.94467077
-52.618201
-0.82600313
-63.252119
-0.56435703
-76.096063
-91.588453
6.1787638e-05
-0.0077507802
0.00010669326
-0.011046518
0.00014663446
-0.014646321
0.00017708152
-0.019106108
0.00019911548
-0.024800268
0.00013954581
-0.032134654
-0.00013217997
-0.038986863
-0.00047427056
-0.047222175
-0.00087716896
-0.05610887
-0.0013633343
-0.067593834
-0.0019370146
-0.080628967
-0.0026263858
-0.096894611
-0.003439323
-0.11579174
-0.0044159809
-0.13895579
-0.0055684555
-0.16623819
-0.0069482322
-0.19934919
-0.0085704751
-0.23863731
-0.010493405
-0.28607042
-0.012751785
-0.34258562
-0.015418534
-0.41060613
-0.018539114
-0.49186535
-0.022226032
-0.58944421
-0.026547418
-0.70620056
-0.031638396
-0.84607044
-0.03768101
-1.0132901
-0.04490096
-1.2129308
-0.053606437
-1.4507531
-0.064299707
-1.7335859
-0.077420047
-2.0694718
-0.093428794
-2.4684229
-0.11279432
-2.9429757
-0.13598502
-3.5087027
-0.16347928
-4.184618
-0.19578111
-4.9936639
-0.23344107
-5.9633991
-0.27701763
-7.1269235
-0.32710638
-8.5231053
-0.38423973
-10.199713
-0.44878819
-12.213502
-0.52073408
-14.634018
-0.59942428
-17.542735
-0.68311148
-21.040919
-0.7683024
-25.251028
-0.84998195
-30.317669
-0.91925389
-36.410054
-0.9577295
-43.759728
-0.93982513
-52.633682
-0.83217219
-63.36078
-0.58346765
-76.347287
-92.07591
4.7271169e-05
-0.0077755959
7.9632915e-05
-0.011070678
0.00010680842
-0.014665216
0.0001255499
-0.019116652
0.00014238383
-0.024807745
7.13736e-05
-0.032053983
-0.0001898858
-0.038715007
-0.0005124283
-0.046888098
-0.00089140257
-0.05571594
-0.0013484035
-0.067120748
-0.0018883924
-0.080070365
-0.0025396619
-0.096221363
-0.0033096221
-0.11499527
-0.0042362228
-0.13799689
-0.0053267428
-0.16510884
-0.0066306078
-0.1979989
-0.0081619676
-0.23705144
-0.0099753501
-0.284193
-0.012103045
-0.3403777
-0.014628513
-0.40798662
-0.017590612
-0.4888023
-0.021082553
-0.58583205
-0.025197901
-0.70194194
-0.030076081
-0.84102314
-0.035907239
-1.007263
-0.042914625
-1.2056905
-0.051461305
-1.4419471
-0.061960669
-1.7228072
-0.074874876
-2.056257
-0.090668417
-2.4523114
-0.10979279
-2.9235139
-0.1326904
-3.4854434
-0.1598211
-4.1571051
-0.19167379
-4.9614
-0.22879319
-5.9258325
-0.27172013
-7.0834939
-0.32105213
-8.4731959
-0.37731801
-10.142773
-0.44090978
-12.149123
-0.51184044
-14.562139
-0.58952204
-17.463903
-0.67230791
-20.956733
-0.7568489
-25.164685
-0.83891775
-30.233321
-0.90849901
-36.338382
-0.94942328
-43.716729
-0.93715121
-52.643492
-0.83987809
-63.459589
-0.60512152
-76.584651
-92.538978
2.6964174e-05
-0.0077962025
4.6867546e-05
-0.011089402
6.4288976e-05
-0.01467936
7.6420232e-05
-0.019124556
9.3939042e-05
-0.024818935
2.051915e-05
-0.031973116
-0.00022553927
-0.038460389
-0.00052646546
-0.046576883
-0.00088274137
-0.055347836
-0.0013132897
-0.066676014
-0.001823346
-0.079543563
-0.0024420466
-0.095582625
-0.0031736255
-0.11423965
-0.0040535378
-0.13708816
-0.0050787466
-0.16404908
-0.0063023254
-0.19673278
-0.0077330865
-0.23557063
-0.0094493212
-0.28241952
-0.011450651
-0.33831264
-0.013828766
-0.40553187
-0.016625545
-0.48591453
-0.019940606
-0.58240797
-0.02387852
-0.69787627
-0.028559554
-0.83619268
-0.034199899
-1.001435
-0.041034345
-1.1986448
-0.049390797
-1.4333528
-0.059706524
-1.7122307
-0.072440853
-2.0432401
-0.088047575
-2.4364027
-0.10695626
-2.9042819
-0.12958998
-3.4624612
-0.15638812
-4.1299357
-0.18783004
-4.9295565
-0.22444426
-5.8887796
-0.26677199
-7.0406706
-0.31540391
-8.4239933
-0.37088135
-10.086627
-0.43360573
-12.085614
-0.50363361
-14.491162
-0.58043867
-17.385949
-0.66246469
-20.873303
-0.74653212
-25.078786
-0.82887298
-30.148722
-0.89934079
-36.265889
-0.94303413
-43.671042
-0.93650851
-52.647708
-0.84944693
-63.54815
-0.6294714
-76.807243
-92.977262
2.4964422e-05
-0.007806435
4.1529173e-05
-0.011098356
5.4158384e-05
-0.014684916
6.213531e-05
-0.019125513
7.855234e-05
-0.024828322
-6.3450763e-07
-0.031886501
-0.00023684613
-0.038216347
-0.00052417148
-0.046280987
-0.00086446224
-0.054997268
-0.0012764052
-0.066251302
-0.0017619906
-0.079042596
-0.0023517948
-0.094972531
-0.0030388973
-0.11352942
-0.0038624258
-0.13623811
-0.0048238546
-0.16305649
-0.0059663005
-0.19555565
-0.0073037945
-0.23419204
-0.0089099487
-0.28076408
-0.010805028
-0.33635691
-0.013061025
-0.40320205
-0.015716049
-0.4831718
-0.018865892
-0.5791545
-0.022619588
-0.69398941
-0.027138235
-0.83151703
-0.032585902
-0.9958089
-0.039226752
-1.191799
-0.04740805
-1.4249409
-0.057564418
-1.7018224
-0.070146381
-2.030385
-0.085593016
-2.4206637
-0.10431416
-2.885247
-0.12671099
-3.4397258
-0.15320675
-4.103078
-0.18427074
-4.8980999
-0.22042393
-5.8521959
-0.2622085
-6.9983982
-0.31020553
-8.375433
-0.36496636
-10.031204
-0.42691465
-12.022885
-0.49614157
-14.420989
-0.5722065
-17.308738
-0.65362542
-20.790469
-0.73738475
-24.993138
-0.82009378
-30.063778
-0.89176501
-36.192245
-0.93859292
-43.622322
-0.93811136
-52.645831
-0.86118235
-63.626701
-0.65663617
-77.014373
-93.390515
6.5668755e-06
-0.0078142719
1.3942191e-05
-0.011105084
2.1217749e-05
-0.014690209
2.696199e-05
-0.019128604
4.5753721e-05
-0.024842788
-3.5326094e-05
-0.031799972
-0.00025648565
-0.037989133
-0.00052560172
-0.046003253
-0.00084800381
-0.054665201
-0.0012403465
-0.065847143
-0.0017029647
-0.078566383
-0.0022582399
-0.094402493
-0.0028872661
-0.11288263
-0.0036430189
-0.13546064
-0.0045342141
-0.16213896
-0.0056065331
-0.19445176
-0.006877084
-0.2328821
-0.0083988011
-0.27919655
-0.01019801
-0.33450295
-0.012331894
-0.40100394
-0.014856706
-0.48056213
-0.017873375
-0.57603661
-0.021461184
-0.69028536
-0.025781024
-0.82705982
-0.031035785
-0.99039312
-0.037501065
-1.1851485
-0.045525954
-1.4167061
-0.05554555
-1.6915708
-0.068000693
-2.0176761
-0.083314132
-2.4050758
-0.10187283
-2.8663909
-0.12405939
-3.4172161
-0.15028325
-4.0765057
-0.18100533
-4.8669972
-0.21674368
-5.8160379
-0.25802799
-6.9566356
-0.30544852
-8.3274582
-0.35957625
-9.9764224
-0.42084242
-11.960842
-0.48938846
-14.3515
-0.56484067
-17.232144
-0.6458064
-20.708068
-0.72943265
-24.90752
-0.81272145
-29.978291
-0.88594619
-36.117102
-0.93603773
-43.570529
-0.9419727
-52.638546
-0.87526848
-63.695038
-0.686705
-77.20545
-93.778319
2.6130953e-06
-0.0078186926
8.201908e-06
-0.011108883
1.3381133e-05
-0.014694097
1.9880737e-05
-0.01913129
3.7586171e-05
-0.024856402
-5.3611828e-05
-0.031703228
-0.00026897335
-0.037768172
-0.00052709073
-0.045738005
-0.0008291358
-0.054354772
-0.0011866864
-0.065479503
-0.0016047593
-0.078136515
-0.0021078875
-0.093885186
-0.0026952594
-0.11227804
-0.0034094806
-0.13472535
-0.0042510383
-0.1612731
-0.0052710154
-0.19340209
-0.006481066
-0.23163704
-0.0079173117
-0.2777147
-0.0096179452
-0.33274592
-0.011648955
-0.39890479
-0.014053269
-0.47807886
-0.016921917
-0.57307408
-0.020347499
-0.68674738
-0.02448758
-0.82278717
-0.02955981
-0.98516631
-0.035865133
-1.178665
-0.043754962
-1.4086141
-0.053662394
-1.6814408
-0.066017456
-2.0050769
-0.081222056
-2.389607
-0.099644422
-2.8476816
-0.12164771
-3.3949005
-0.14762812
-4.0501874
-0.1780404
-4.8362146
-0.21340336
-5.780265
-0.2542451
-6.9153249
-0.30116226
-8.2799958
-0.35472759
-9.922211
-0.41540508
-11.899393
-0.4833868
-14.282581
-0.55836482
-17.15603
-0.63904465
-20.625927
-0.72270997
-24.821706
-0.80679342
-29.892073
-0.88186869
-36.040213
-0.93552316
-43.515361
-0.94815207
-52.624593
-0.89196142
-63.752849
-0.71982879
-77.380018
-94.140376
-6.9639131e-06
-0.0078215141
-3.2446486e-06
-0.011112481
2.2415254e-06
-0.014699891
1.1224973e-05
-0.019138222
3.1439522e-05
-0.02487449
-6.2124479e-05
-0.03160561
-0.00026004235
-0.037566573
-0.00049579748
-0.045496259
-0.00077040954
-0.054073409
-0.0011004817
-0.065140993
-0.0014861806
-0.077740452
-0.0019546049
-0.093403962
-0.0025158937
-0.11170088
-0.0031979197
-0.1340245
-0.0039930094
-0.16045399
-0.0049658578
-0.19239912
-0.0061050976
-0.23046106
-0.0074772114
-0.27629979
-0.0090835565
-0.33108944
-0.010999952
-0.39692917
-0.013272126
-0.47573551
-0.015997754
-0.57026399
-0.019274832
-0.6833702
-0.02325748
-0.81868626
-0.028166679
-0.98011782
-0.034327756
-1.1723429
-0.042106195
-1.400652
-0.05192649
-1.6714172
-0.064206958
-1.9925711
-0.079328678
-2.3742389
-0.097638703
-2.8291016
-0.11948467
-3.3727583
-0.14525173
-4.0240971
-0.17539461
-4.8057148
-0.2104248
-5.744837
-0.25087811
-6.8744138
-0.29734932
-8.2329898
-0.3504349
-9.8684884
-0.41062904
-11.838434
-0.47815659
-14.214124
-0.55280696
-17.080255
-0.63336999
-20.543874
-0.71732787
-24.735424
-0.80235579
-29.804959
-0.87951052
-35.961398
-0.93714017
-43.456464
-0.95674381
-52.603808
-0.91134713
-63.799827
-0.75612901
-77.537606
-94.476314
-5.0181054e-06
-0.0078222818
1.2818173e-06
-0.011116206
1.227561e-05
-0.014708152
2.7542111e-05
-0.019150282
5.1196715e-05
-0.024894203
-4.6708629e-05
-0.031503394
-0.00023126278
-0.037377369
-0.00045206303
-0.045269575
-0.00070780907
-0.05381101
-0.0010217081
-0.064818596
-0.0013851584
-0.077366284
-0.0018331032
-0.092942657
-0.0023646932
-0.11115295
-0.003013818
-0.13335561
-0.0037757591
-0.15966824
-0.0046966328
-0.19145093
-0.00577
-0.2293553
-0.007056058
-0.27497511
-0.0085692435
-0.32952929
-0.010379654
-0.3950624
-0.01253114
-0.47351666
-0.015121614
-0.56759306
-0.018254432
-0.68014099
-0.022098655
-0.81472784
-0.026868614
-0.97521361
-0.03290202
-1.1661541
-0.04059311
-1.3927843
-0.050353458
-1.6614613
-0.062585178
-1.9801231
-0.077648848
-2.3589386
-0.095871433
-2.8106193
-0.11759053
-3.3507541
-0.14317942
-3.998196
-0.17308468
-4.7754636
-0.20782988
-5.7097048
-0.24794116
-6.8338552
-0.2940348
-8.1863715
-0.34672215
-9.8151731
-0.40652878
-11.777869
-0.47373313
-14.145998
-0.54818859
-17.004689
-0.62881297
-20.46174
-0.71370131
-24.648111
-0.79954583
-29.717008
-0.87887935
-35.880517
-0.94096434
-43.393378
-0.96786661
-52.575751
-0.93358712
-63.835637
-0.79569703
-77.677835
-94.785681
-7.6688044e-06
-0.007825828
1.7212335e-06
-0.011123545
1.8197061e-05
-0.014721994
4.2499704e-05
-0.019171696
6.7466808e-05
-0.02491502
-3.2794928e-05
-0.031398633
-0.00020578121
-0.03719948
-0.00041374974
-0.045055195
-0.00065962312
-0.053558097
-0.00096263623
-0.064506214
-0.0013157677
-0.077002926
-0.0017444292
-0.092501328
-0.0022465117
-0.11063612
-0.0028588502
-0.13272575
-0.003572259
-0.1589338
-0.0044347881
-0.19056335
-0.0054437433
-0.228316
-0.0066552552
-0.27372741
-0.0080821401
-0.32805945
-0.009791188
-0.39330231
-0.011827234
-0.47141932
-0.01429173
-0.56505549
-0.01729247
-0.67705304
-0.021008629
-0.81090839
-0.025662607
-0.97043803
-0.031597596
-1.1600782
-0.039223529
-1.384998
-0.048950915
-1.6515554
-0.0611607
-1.9677144
-0.076195562
-2.3436842
-0.094361508
-2.7922102
-0.11598131
-3.3288651
-0.14142283
-3.9724574
-0.17112838
-4.7454261
-0.20563161
-5.6748276
-0.24546207
-6.7935898
-0.29124265
-8.1400778
-0.34361304
-9.7621848
-0.40312729
-11.717604
-0.47012965
-14.078084
-0.54454472
-16.92918
-0.62540027
-20.379368
-0.71131919
-24.559752
-0.7984839
-29.627702
-0.8802645
-35.797147
-0.94684306
-43.325909
-0.98144357
-52.540808
-0.9587752
-63.859815
-0.83877678
-77.800188
-95.068136
-8.3809402e-06
-0.0078310159
1.9484157e-06
-0.011132984
2.0705483e-05
-0.014739148
5.2388244e-05
-0.019200741
7.5546992e-05
-0.024934555
-2.4235517e-05
-0.031294936
-0.00018703948
-0.037032432
-0.00038855804
-0.044848168
-0.00062022974
-0.05331985
-0.00090894725
-0.064208978
-0.0012395167
-0.076662851
-0.0016516488
-0.092077802
-0.0021179761
-0.11015628
-0.0026938699
-0.1321337
-0.0033650523
-0.15824294
-0.0041766776
-0.18972845
-0.0051257759
-0.22733881
-0.0062657505
-0.27255411
-0.0076102906
-0.32667429
-0.0092243705
-0.39163944
-0.011159072
-0.46942582
-0.013512339
-0.56263181
-0.016392417
-0.67408849
-0.019984705
-0.80721597
-0.024544285
-0.96576057
-0.030411799
-1.1540742
-0.037996014
-1.3772589
-0.047718254
-1.6416618
-0.059938219
-1.9553035
-0.074977118
-2.3284347
-0.093113179
-2.7738407
-0.11465188
-3.3070678
-0.13996475
-3.9468584
-0.16950673
-4.7155634
-0.20381134
-5.6401603
-0.24342124
-6.753556
-0.28896692
-8.0940299
-0.34110879
-9.7094345
-0.40044421
-11.657525
-0.46736623
-14.010261
-0.54188999
-16.853579
-0.62315959
-20.296591
-0.71026446
-24.470286
-0.7992253
-29.536606
-0.88398516
-35.710637
-0.95467825
-43.25413
-0.99736989
-52.498395
-0.98705594
-63.871809
-0.88539811
-77.904261
-95.323116
-1.3131889e-05
-0.0078370488
-2.1838685e-06
-0.011143951
1.8862174e-05
-0.014759879
5.8125556e-05
-0.019238605
7.7352976e-05
-0.024951309
-2.2004948e-05
-0.031192362
-0.00017604204
-0.036875183
-0.0003683778
-0.044650767
-0.00058647841
-0.053096356
-0.0008606309
-0.063927729
-0.001169514
-0.076345522
-0.001558794
-0.091678026
-0.0019987767
-0.10970385
-0.0025427063
-0.1315745
-0.003172505
-0.15759496
-0.0039366366
-0.18894238
-0.0048295217
-0.22641954
-0.0059030347
-0.27144901
-0.0071695742
-0.32536988
-0.0086994222
-0.39006445
-0.01054577
-0.46752521
-0.012799442
-0.56031345
-0.015570904
-0.67123964
-0.019056445
-0.8036391
-0.023532128
-0.96117742
-0.029354114
-1.148128
-0.036930817
-1.3695412
-0.046682836
-1.6317537
-0.058947988
-1.942863
-0.074010496
-2.3131771
-0.092130057
-2.7555031
-0.11360924
-3.2853453
-0.13882303
-3.9213731
-0.16824025
-4.6858395
-0.20239812
-5.605653
-0.2418452
-6.7136977
-0.28723232
-8.0481522
-0.33924914
-9.6568193
-0.39851154
-11.597528
-0.46548867
-13.942393
-0.54027169
-16.777733
-0.62213728
-20.213232
-0.71055283
-24.379653
-0.80163936
-29.443485
-0.88994912
-35.620484
-0.96477201
-43.17752
-1.0162166
-52.448015
-1.0186358
-63.871319
-0.93577363
-77.989592
-95.550074
-1.2806539e-05
-0.0078425529
-8.8326563e-07
-0.011154711
2.3088803e-05
-0.014782125
7.0840758e-05
-0.019284371
8.3839899e-05
-0.024961579
-1.9312147e-05
-0.031086307
-0.00016434594
-0.036726747
-0.0003440405
-0.044466694
-0.00055013301
-0.052885001
-0.00080600174
-0.063665308
-0.0010972576
-0.076046236
-0.0014603911
-0.091304987
-0.0018758998
-0.10927641
-0.0023900397
-0.1310461
-0.0029820072
-0.15698569
-0.0037014786
-0.18820247
-0.0045414
-0.2255547
-0.0055514854
-0.27040902
-0.0067494298
-0.32413569
-0.0082058601
-0.38856449
-0.0099636253
-0.465715
-0.012116324
-0.55809786
-0.014792654
-0.6684881
-0.018198773
-0.80014386
-0.022615796
-0.95665598
-0.028420139
-1.1422028
-0.036030616
-1.3617944
-0.045847798
-1.6217858
-0.058179675
-1.9303627
-0.073276161
-2.2978935
-0.091396809
-2.7371734
-0.11284535
-3.2636634
-0.13799733
-3.8959603
-0.16733036
-4.6562109
-0.20139316
-5.5712522
-0.24074079
-6.6739502
-0.28604543
-8.0023681
-0.33802036
-9.6042558
-0.39733925
-11.537483
-0.4645051
-13.874347
-0.53971004
-16.701474
-0.62235461
-20.129096
-0.71222719
-24.287723
-0.80558132
-29.348204
-0.89737076
-35.526801
-0.97813886
-43.094724
-1.0381541
-52.389598
-1.0536094
-63.857944
-0.99008574
-78.055601
-95.748488
-1.4307256e-05
-0.0078489863
-1.1677866e-06
-0.011166963
2.5684835e-05
-0.014807267
8.3777606e-05
-0.019340388
9.1320633e-05
-0.024966411
-1.3718872e-05
-0.030978432
-0.00014876756
-0.036588377
-0.00031887163
-0.044292286
-0.00051125403
-0.052687509
-0.00075298261
-0.063417177
-0.0010261546
-0.075765437
-0.0013688075
-0.090953046
-0.0017594204
-0.10887468
-0.0022427079
-0.13054929
-0.0027994075
-0.15641285
-0.0034765537
-0.18750579
-0.0042671232
-0.22474049
-0.0052203884
-0.26942748
-0.0063582132
-0.32296371
-0.0077409763
-0.38714097
-0.0094076334
-0.46399939
-0.011467444
-0.55597977
-0.014061164
-0.66582484
-0.017409656
-0.7967137
-0.021804334
-0.9521657
-0.027629871
-1.136267
-0.035312137
-1.3539877
-0.045220545
-1.6117399
-0.057630115
-1.9177986
-0.072780419
-2.2825703
-0.090928556
-2.7188305
-0.11237437
-3.2419985
-0.13749917
-3.8705888
-0.16679128
-4.6266369
-0.200811
-5.5369076
-0.24012896
-6.634245
-0.2854239
-7.9566054
-0.33745919
-9.551642
-0.39695079
-11.477274
-0.46445895
-13.805971
-0.54024415
-16.624633
-0.62386448
-20.043964
-0.71538367
-24.194293
-0.81126393
-29.250537
-0.90708586
-35.429189
-0.9940885
-43.005336
-1.0631071
-52.322069
-1.0921165
-63.831085
-1.0484256
-78.101759
-95.917683
-1.5987228e-05
-0.0078559322
-1.7714865e-06
-0.011180323
2.7066026e-05
-0.014834525
9.4646167e-05
-0.01940603
9.5099814e-05
-0.024964316
-1.1474415e-05
-0.030869169
-0.00013841745
-0.03645826
-0.00029864683
-0.044127946
-0.00047894775
-0.052502387
-0.0007070374
-0.063182976
-0.00096249683
-0.075502798
-0.0012865276
-0.090620163
-0.0016543427
-0.10849621
-0.0021095316
-0.13008134
-0.0026326036
-0.15587426
-0.0032699214
-0.18685021
-0.0040132471
-0.22397477
-0.0049170828
-0.26849661
-0.0059970945
-0.32185084
-0.0073025267
-0.38579602
-0.0088878613
-0.46236652
-0.01087021
-0.55394043
-0.013397635
-0.66322964
-0.016704666
-0.79332653
-0.021109649
-0.94766759
-0.026995963
-1.1302731
-0.034777948
-1.3460851
-0.044800531
-1.6015848
-0.057306333
-1.9051442
-0.072536361
-2.2671744
-0.090736786
-2.7004433
-0.11220923
-3.2203161
-0.1373427
-3.8452186
-0.16663921
-4.5970692
-0.20067492
-5.5025581
-0.24002109
-6.5945228
-0.28539469
-7.9107748
-0.33759155
-9.498876
-0.39738079
-11.416775
-0.4653784
-13.737114
-0.54192031
-16.547023
-0.62670891
-19.957611
-0.72017325
-24.099049
-0.81889192
-29.150177
-0.91903131
-35.327439
-1.0126948
-42.909671
-1.0912556
-52.24539
-1.1342631
-63.790203
-1.1110676
-78.12738
-96.057015
-1.6605463e-05
-0.0078638661
-5.1924897e-07
-0.011195322
3.0835676e-05
-0.014864155
0.00010829371
-0.019481354
0.00010171114
-0.024955202
-1.8148465e-06
-0.030762893
-0.00012076533
-0.036336214
-0.00027269072
-0.04397195
-0.00044185106
-0.052328591
-0.00065839043
-0.062960539
-0.00089830879
-0.075255994
-0.0012041161
-0.090305838
-0.0015487189
-0.1081415
-0.0019773955
-0.1296404
-0.0024691756
-0.15536786
-0.0030687922
-0.18623295
-0.0037694195
-0.2232527
-0.0046242584
-0.26761606
-0.0056453509
-0.3207986
-0.0068814725
-0.38452263
-0.0084018311
-0.46080156
-0.01032377
-0.55196532
-0.012802858
-0.66068775
-0.016091489
-0.78996412
-0.020524808
-0.94314906
-0.02650614
-1.1241935
-0.034421565
-1.3380596
-0.044573229
-1.5913124
-0.057202261
-1.8923788
-0.072535059
-2.2516883
-0.090814426
-2.68199
-0.11234359
-3.1985899
-0.13752263
-3.819816
-0.16686992
-4.5674637
-0.20097691
-5.46815
-0.24042795
-6.5547079
-0.2859659
-7.8647912
-0.33842245
-9.44586
-0.39862656
-11.355869
-0.46726292
-13.667623
-0.54476502
-16.468432
-0.63114956
-19.869578
-0.72667926
-24.001863
-0.8285379
-29.04679
-0.93323342
-35.221308
-1.034067
-42.807628
-1.1226522
-52.158505
-1.1801878
-63.734734
-1.1780426
-78.131904
-96.165719
-1.8262948e-05
-0.0078718789
-1.4454573e-06
-0.011211104
3.1545776e-05
-0.014895382
0.00011686217
-0.019564606
0.00010206639
-0.024937946
3.6248991e-06
-0.030661893
-0.00010867768
-0.036220982
-0.00025308294
-0.043823641
-0.00041123732
-0.052166016
-0.00061558645
-0.062750476
-0.00084078778
-0.075024183
-0.0011302094
-0.090008259
-0.0014534019
-0.10780854
-0.0018571644
-0.12922493
-0.0023192797
-0.15489154
-0.0028829591
-0.18565259
-0.0035470129
-0.22256812
-0.0043549477
-0.26678342
-0.0053175858
-0.31980582
-0.0064969728
-0.38330707
-0.0079660101
-0.45928896
-0.0098423197
-0.55003697
-0.012290571
-0.65817785
-0.01558583
-0.78659644
-0.020076432
-0.93857501
-0.026179633
-1.117994
-0.03425024
-1.3298818
-0.044554826
-1.580891
-0.057330578
-1.8794719
-0.072790331
-2.2360815
-0.091174207
-2.6634394
-0.11279111
-3.1767845
-0.13805427
-3.7943386
-0.16750188
-4.537768
-0.20173926
-5.433622
-0.24137222
-6.5147219
-0.28715748
-7.8185708
-0.33999209
-9.3924753
-0.40074103
-11.294427
-0.4701776
-13.597337
-0.5488282
-16.388667
-0.6370839
-19.77962
-0.73489034
-23.902451
-0.84020875
-28.940069
-0.94984587
-35.110407
-1.0582978
-42.697895
-1.1573729
-52.061028
-1.230074
-63.664039
-1.2497168
-78.1146
-96.243094
-1.9349165e-05
-0.0078805911
-1.3750111e-06
-0.011228237
3.3938219e-05
-0.014929105
0.00012574877
-0.019654518
0.00010374329
-0.024913689
1.0018393e-05
-0.030565709
-9.4845408e-05
-0.036113323
-0.00023114795
-0.043683534
-0.000378112
-0.052014842
-0.00057050398
-0.062552591
-0.00078112528
-0.074807211
-0.0010549062
-0.089726611
-0.0013589506
-0.10749517
-0.0017394484
-0.12883314
-0.0021742813
-0.15444318
-0.0027049961
-0.18510568
-0.0033327183
-0.22192066
-0.00409578
-0.26599674
-0.00500656
-0.31886636
-0.0061385526
-0.38214081
-0.0075633139
-0.45782317
-0.0093982568
-0.54815335
-0.01183455
-0.65568435
-0.015162373
-0.78320197
-0.019758953
-0.93390211
-0.026015353
-1.1116496
-0.034253968
-1.3215455
-0.044739421
-1.570299
-0.057685501
-1.8664057
-0.073295553
-2.2203357
-0.091810175
-2.6447698
-0.11354699
-3.1548711
-0.13893496
-3.7687488
-0.16853386
-4.5079333
-0.20296839
-5.398909
-0.24285468
-6.4744944
-0.28898901
-7.7720123
-0.34230135
-9.3386225
-0.40374108
-11.232303
-0.47414037
-13.526093
-0.55413671
-16.307528
-0.64442907
-19.687576
-0.74481437
-23.80048
-0.85391555
-28.829665
-0.96899075
-34.994195
-1.0854849
-42.58019
-1.1955687
-51.952451
-1.2840123
-63.577548
-1.3261509
-78.074768
-96.288348
-1.9820364e-05
-0.0078903444
6.7430247e-08
-0.011247304
3.8732591e-05
-0.014966209
0.0001352132
-0.019749162
0.00010713468
-0.024883506
1.8620257e-05
-0.030474763
-7.9578524e-05
-0.036012469
-0.00020875967
-0.043550632
-0.00034637771
-0.051873185
-0.00052947506
-0.062364166
-0.00072702892
-0.074603594
-0.00098483906
-0.089461239
-0.0012701767
-0.10720084
-0.0016284284
-0.12846402
-0.0020368539
-0.15402168
-0.0025392687
-0.18458776
-0.0031318394
-0.2213091
-0.0038503295
-0.26525543
-0.0047185218
-0.31797035
-0.0058080621
-0.38101788
-0.0071912458
-0.45639984
-0.0089983855
-0.54629837
-0.011446632
-0.65317977
-0.014842699
-0.77974023
-0.019575683
-0.92909409
-0.026009927
-1.1051292
-0.034443669
-1.3130165
-0.045134847
-1.5595049
-0.058273595
-1.8531513
-0.074056968
-2.2044221
-0.092729199
-2.625949
-0.11462244
-3.1328089
-0.14017796
-3.743
-0.16997798
-4.4779069
-0.20467371
-5.3639446
-0.24489433
-6.4339426
-0.2914677
-7.7250246
-0.34538844
-9.2841703
-0.40765342
-11.169363
-0.47918083
-13.453728
-0.56072811
-16.224818
-0.65331144
-19.593221
-0.75658491
-23.695605
-0.86963784
-28.715293
-0.99075867
-34.871983
-1.1157271
-42.454047
-1.2373521
-51.832225
-1.3422129
-63.474597
-1.4075894
-78.01168
-96.300594
-2.0924258e-05
-0.0079001811
2.850711e-07
-0.011267578
4.2481617e-05
-0.01500667
0.00014222043
-0.019846867
0.00010862261
-0.024847889
2.4765726e-05
-0.030388482
-6.7176709e-05
-0.035918001
-0.00018991659
-0.043424186
-0.00031867751
-0.051740596
-0.0004930702
-0.062184678
-0.00067922408
-0.074411587
-0.00092289274
-0.089210345
-0.0011910827
-0.10692395
-0.0015285337
-0.12811617
-0.0019124989
-0.15362506
-0.002386686
-0.18409851
-0.0029464159
-0.22073103
-0.0036249564
-0.264555
-0.0044590748
-0.3171097
-0.0055110914
-0.37993412
-0.006859875
-0.45501322
-0.0086615126
-0.54445189
-0.011149901
-0.65063926
-0.014651775
-0.77617793
-0.019541668
-0.92413579
-0.02616803
-1.0984243
-0.034828334
-1.3042697
-0.045748091
-1.5484918
-0.059104349
-1.8396891
-0.075088587
-2.1883177
-0.093946461
-2.606953
-0.11603003
-3.1105671
-0.14179777
-3.7170502
-0.17185379
-4.4476358
-0.20687995
-5.328661
-0.2475098
-6.3929925
-0.29462488
-7.6775056
-0.34927283
-9.2290006
-0.41251266
-11.105458
-0.48534389
-13.380065
-0.56864699
-16.140343
-0.66377735
-19.496333
-0.77033496
-23.587449
-0.88789803
-28.596388
-1.0148638
-34.743957
-1.1490635
-42.319496
-1.2828357
-51.69977
-1.4048286
-63.354495
-1.4942153
-77.924576
-96.278948
-2.1266328e-05
-0.0079107946
1.968853e-06
-0.011289726
4.8559808e-05
-0.015051388
0.00015062669
-0.019946861
0.00011357183
-0.024808632
3.3192326e-05
-0.030305662
-5.2448347e-05
-0.035829827
-0.00016884676
-0.043304213
-0.00028868962
-0.05161707
-0.00045421041
-0.062014163
-0.00062971977
-0.074230504
-0.00086061593
-0.088972403
-0.0011129623
-0.10666321
-0.001430787
-0.12778825
-0.0017939108
-0.15324969
-0.0022401751
-0.18363778
-0.0027681062
-0.22018535
-0.0034144143
-0.2638875
-0.0042177147
-0.31628054
-0.0052384219
-0.37888247
-0.0065704924
-0.45364391
-0.0083893024
-0.542589
-0.010941027
-0.6480358
-0.014570674
-0.77248873
-0.019642281
-0.91899663
-0.026492406
-1.0914972
-0.035403821
-1.2952737
-0.046578623
-1.5372263
-0.060179423
-1.8259862
-0.076387766
-2.171994
-0.095459034
-2.5877495
-0.11776238
-3.0881125
-0.14378697
-3.6908516
-0.17416419
-4.4170526
-0.20958438
-5.2929926
-0.25071708
-6.3515491
-0.2984734
-7.629355
-0.35396924
-9.1729924
-0.41833726
-11.040435
-0.49265191
-13.304925
-0.57793633
-16.053879
-0.67582457
-19.39675
-0.78607636
-23.47567
-0.90884204
-28.472283
-1.0413744
-34.610057
-1.1852125
-42.176247
-1.3321602
-51.554127
-1.4720224
-63.216547
-1.5862722
-77.812616
-96.222432
-2.3606194e-05
-0.0079208397
-5.8414145e-08
-0.011312481
4.9666904e-05
-0.015099582
0.00015079526
-0.02004609
0.00011101229
-0.024766763
3.3803563e-05
-0.030226069
-4.6247558e-05
-0.035747416
-0.00015746952
-0.043189533
-0.00027088255
-0.051500142
-0.00042827064
-0.061851879
-0.00059252891
-0.074060803
-0.00080992862
-0.088748149
-0.0010464432
-0.10641853
-0.0013443317
-0.12748061
-0.0016874065
-0.15289472
-0.0021098346
-0.18320125
-0.0026098385
-0.21966816
-0.0032313122
-0.2632456
-0.0040078638
-0.31547926
-0.0050055842
-0.37785524
-0.0063408768
-0.45227356
-0.0081946164
-0.54069393
-0.010835129
-0.64534764
-0.014613026
-0.76865615
-0.019890316
-0.913658
-0.027001181
-1.0843162
-0.036194977
-1.2860029
-0.047647771
-1.5256911
-0.061505419
-1.8120354
-0.077952825
-2.1554404
-0.097265226
-2.5683141
-0.11982562
-3.0654106
-0.14615485
-3.6643588
-0.17691445
-4.3860976
-0.21281655
-5.2568526
-0.25454033
-6.3095249
-0.30304102
-7.5804701
-0.35952126
-9.1160101
-0.42517464
-10.974138
-0.50115397
-13.228125
-0.58863956
-15.965201
-0.68951721
-19.294283
-0.80362655
-23.360106
-0.93156949
-28.342925
-1.0714984
-34.468498
-1.2249749
-42.023979
-1.3855724
-51.395003
-1.5440543
-63.060011
-1.683973
-77.674988
-96.130101
-2.3281739e-05
-0.0079319964
2.217858e-06
-0.011337128
5.7163408e-05
-0.015152817
0.00015625003
-0.020143311
0.0001169448
-0.024725857
4.2537864e-05
-0.030149384
-3.2447715e-05
-0.035670067
-0.00013931053
-0.043079183
-0.00024544547
-0.051390546
-0.00039427491
-0.06169819
-0.00054722256
-0.073902562
-0.00075186001
-0.088536846
-0.00097376129
-0.1061887
-0.0012537752
-0.12719114
-0.0015777892
-0.15255916
-0.0019786568
-0.18278678
-0.0024564913
-0.21917365
-0.003055167
-0.26262708
-0.0038101579
-0.31470009
-0.0047990303
-0.37683756
-0.0061483088
-0.45088955
-0.0080537548
-0.5387478
-0.010806687
-0.64254714
-0.014758164
-0.76465077
-0.020282097
-0.90807331
-0.027692683
-1.076837
-0.037194989
-1.2764257
-0.048936505
-1.5138701
-0.06305937