/*--------------------------------*- C++ -*----------------------------------*\
  =========                 |
  \\      /  F ield         | OpenFOAM: The Open Source CFD Toolbox
   \\    /   O peration     | Website:  https://openfoam.org
    \\  /    A nd           | Version:  8
     \\/     M anipulation  |
\*---------------------------------------------------------------------------*/
FoamFile
{
    version     2.0;
    format      ascii;
    class       pointVectorField;
    location    "0.0999939";
    object      pointDisplacement;
}
// * * * * * * * * * * * * * * * * * * * * * * * * * * * * * * * * * * * * * //

dimensions      [0 1 0 0 0 0 0];

internalField   nonuniform List<vector> 
40800
(
(0.0023130004 0 0.0020053605)
(0.0023189319 0 0.0016733995)
(0.002318568 0 0.0016748248)
(0.0023124638 0 0.0020136967)
(0.0023185414 0 0.0016739486)
(0.0023124433 0 0.0020128067)
(0.0023184804 0 0.0016727929)
(0.0023123861 0 0.0020118227)
(0.0023183665 0 0.0016714457)
(0.0023122777 0 0.0020106816)
(0.0023181769 0 0.0016698838)
(0.0023120959 0 0.0020093612)
(0.0023178794 0 0.0016680862)
(0.0023118094 0 0.0020078457)
(0.0023174298 0 0.001666037)
(0.0023113749 0 0.0020061248)
(0.0023167677 0 0.0016637293)
(0.0023107331 0 0.0020041981)
(0.0023158104 0 0.0016611731)
(0.0023098033 0 0.0020020826)
(0.0023144467 0 0.0016584052)
(0.002308476 0 0.0019998233)
(0.0023125267 0 0.0016555057)
(0.0023066043 0 0.0019975084)
(0.0023098505 0 0.0016526201)
(0.0023039917 0 0.0019952922)
(0.0023061536 0 0.0016499938)
(0.0023003781 0 0.0019934276)
(0.0023010889 0 0.0016480193)
(0.0022954219 0 0.0019923119)
(0.0022942062 0 0.0016473044)
(0.0022886795 0 0.0019925531)
(0.0022849289 0 0.0016487638)
(0.0022795817 0 0.0019950559)
(0.0022725298 0 0.0016537512)
(0.0022674094 0 0.0020011507)
(0.0022561111 0 0.0016642226)
(0.0022512727 0 0.0020127425)
(0.0022345929 0 0.0016829464)
(0.0022300974 0 0.0020325107)
(0.0022067184 0 0.0017137614)
(0.0022026281 0 0.0020641545)
(0.0021710851 0 0.0017618076)
(0.0021674569 0 0.0021126139)
(0.0021262195 0 0.0018336452)
(0.0021230939 0 0.0021842153)
(0.002070709 0 0.0019372558)
(0.0020680935 0 0.002286667)
(0.0020033834 0 0.0020817361)
(0.0020012343 0 0.002428762)
(0.0019235296 0 0.0022764703)
(0.0019217364 0 0.0026196005)
(0.0018311205 0 0.0025297615)
(0.0018295033 0 0.0028672318)
(0.0017269161 0 0.0028472065)
(0.0017252351 0 0.0031770614)
(0.00161254 0 0.0032298593)
(0.001610531 0 0.00355004)
(0.0014904051 0 0.0036723523)
(0.0014878347 0 0.003980708)
(0.0013634021 0 0.0041627442)
(0.0013601161 0 0.0044571119)
(0.0012347052 0 0.0046823992)
(0.0012306716 0 0.0049605523)
(0.0011075393 0 0.0052084115)
(0.0011028669 0 0.0054682164)
(0.00098462746 0 0.0057169367)
(0.00097949787 0 0.0059565554)
(0.0008682024 0 0.0061863792)
(0.00086284237 0 0.0064045822)
(0.00076004796 0 0.0065985457)
(0.00075469832 0 0.0067946943)
(0.00066116257 0 0.0069394256)
(0.00065602188 0 0.0071135284)
(0.00057187808 0 0.0072014656)
(0.00056707921 0 0.0073542409)
(0.00049220024 0 0.00738004)
(0.00048784347 0 0.007512631)
(0.00042174321 0 0.0074734268)
(0.00041786935 0 0.0075873359)
(0.0003599504 0 0.0074803106)
(0.00035659569 0 0.0075770951)
(0.00030590668 0 0.0073980878)
(0.00030304274 0 0.0074793574)
(0.00025821957 0 0.0072180481)
(0.0002557832 0 0.007284739)
(0.00021610062 0 0.0069348618)
(0.00021403465 0 0.0069885409)
(0.00017918597 0 0.0065423583)
(0.00017749482 0 0.0065845217)
(0.00014683782 0 0.0060181715)
(0.00014549545 0 0.0060498161)
(0.00011780155 0 0.0053363028)
(0.00011678326 0 0.0053583323)
(9.0901267e-05 0 0.004471936)
(9.0179097e-05 0 0.0044867363)
(6.4062212e-05 0 0.0033690557)
(6.3607206e-05 0 0.0033787162)
(3.4868354e-05 0 0.0019098442)
(3.4680028e-05 0 0.0019156521)
(0 0 0)
(0 0 0)
(0.0023234608 0 0.00134856)
(0.0023231055 0 0.0013497429)
(0.0023230787 0 0.0013485487)
(0.0023230144 0 0.0013471503)
(0.0023228961 0 0.0013455115)
(0.0023227003 0 0.0013436017)
(0.0023223942 0 0.0013413894)
(0.0023219328 0 0.0013388459)
(0.0023212543 0 0.0013359505)
(0.0023202748 0 0.0013326972)
(0.0023188807 0 0.0013291055)
(0.0023169199 0 0.0013252359)
(0.0023141891 0 0.0013212135)
(0.00231042 0 0.0013172622)
(0.0023052606 0 0.001313753)
(0.0022982548 0 0.0013112731)
(0.0022888196 0 0.0013107233)
(0.002276221 0 0.0013134524)
(0.0022595546 0 0.0013214359)
(0.0022377364 0 0.0013375)
(0.0022095086 0 0.0013656029)
(0.002173474 0 0.0014110685)
(0.0021281739 0 0.0014806559)
(0.0020722274 0 0.0015826016)
(0.0020045137 0 0.0017263258)
(0.0019243841 0 0.0019215368)
(0.0018318767 0 0.0021768766)
(0.0017278109 0 0.0024982567)
(0.0016138368 0 0.0028869764)
(0.001492336 0 0.0033379362)
(0.001366126 0 0.0038393572)
(0.0012382643 0 0.0043727823)
(0.0011118349 0 0.0049153219)
(0.00098948584 0 0.0054428557)
(0.00087340679 0 0.005933241)
(0.00076535049 0 0.0063676196)
(0.00066635072 0 0.0067313673)
(0.00057679676 0 0.0070160904)
(0.00049673312 0 0.0072166315)
(0.00042581961 0 0.0073307991)
(0.00036352633 0 0.0073570569)
(0.00030897616 0 0.0072927121)
(0.00026085253 0 0.0071295306)
(0.00021834529 0 0.0068618874)
(0.00018104804 0 0.0064831046)
(0.00014831465 0 0.0059716743)
(0.00011892845 0 0.0053015742)
(9.1687551e-05 0 0.0044467761)
(6.454613e-05 0 0.0033510195)
(3.5049367e-05 0 0.0018984536)
(0 0 0)
(0.002326618 0 0.0010306941)
(0.0023262716 0 0.0010317401)
(0.0023262409 0 0.0010303258)
(0.0023261714 0 0.0010286656)
(0.0023260462 0 0.0010267175)
(0.002325841 0 0.0010244411)
(0.0023255225 0 0.0010217951)
(0.0023250446 0 0.0010187394)
(0.0023243443 0 0.00101524)
(0.0023233358 0 0.0010112754)
(0.0023219036 0 0.0010068476)
(0.0023198925 0 0.0010019981)
(0.0023170958 0 0.00099683081)
(0.0023132405 0 0.00099154735)
(0.0023079693 0 0.00098649599)
(0.0023008198 0 0.00098224318)
(0.0022912017 0 0.00097967394)
(0.0022783738 0 0.00098013426)
(0.0022614256 0 0.00098562674)
(0.0022392688 0 0.00099903751)
(0.0022106467 0 0.0010244698)
(0.0021741674 0 0.0010674672)
(0.0021283884 0 0.0011349548)
(0.0020719654 0 0.0012354034)
(0.0020038335 0 0.0013785627)
(0.001923414 0 0.0015744312)
(0.0018308173 0 0.0018319445)
(0.0017269262 0 0.0021572786)
(0.0016134193 0 0.0025519306)
(0.0014926471 0 0.0030110209)
(0.0013673491 0 0.0035229207)
(0.0012404604 0 0.0040693527)
(0.0011149209 0 0.0046274729)
(0.00099329254 0 0.0051729615)
(0.00087771353 0 0.005683222)
(0.00076990261 0 0.0061388025)
(0.00067092136 0 0.0065245069)
(0.00058121267 0 0.0068311603)
(0.00050086106 0 0.0070530695)
(0.00042957244 0 0.0071875673)
(0.00036684661 0 0.0072328728)
(0.00031184551 0 0.0071861837)
(0.00026332489 0 0.0070396692)
(0.00022046133 0 0.0067874463)
(0.00018281066 0 0.0064223693)
(0.00014971858 0 0.0059236754)
(0.00012000229 0 0.0052653558)
(9.2438595e-05 0 0.004420281)
(6.5008054e-05 0 0.0033319933)
(3.5223301e-05 0 0.0018866003)
(0 0 0)
(0.0023284466 0 0.00071965707)
(0.0023281077 0 0.00072057164)
(0.0023280712 0 0.00071894428)
(0.002327994 0 0.00071703045)
(0.0023278589 0 0.00071477986)
(0.002327641 0 0.00071214326)
(0.0023273059 0 0.00070906886)
(0.0023268066 0 0.0007055047)
(0.0023260784 0 0.00070140333)
(0.0023250339 0 0.000696728)
(0.0023235549 0 0.0006914635)
(0.0023214831 0 0.00068563202)
(0.0023186078 0 0.00067931648)
(0.0023146513 0 0.00067269572)
(0.0023092501 0 0.00066609448)
(0.0023019349 0 0.00066005657)
(0.0022921079 0 0.0006554492)
(0.0022790204 0 0.00065361524)
(0.0022617556 0 0.00065660493)
(0.0022392224 0 0.00066735262)
(0.0022101669 0 0.00069014822)
(0.0021732018 0 0.00073082777)
(0.0021269004 0 0.00079639317)
(0.0020699625 0 0.00089552214)
(0.0020013851 0 0.0010383309)
(0.0019206646 0 0.0012350611)
(0.0018279903 0 0.0014948984)
(0.0017243117 0 0.0018242352)
(0.0016113371 0 0.0022247199)
(0.0014913852 0 0.0026916492)
(0.0013671122 0 0.0032135297)
(0.0012413263 0 0.0037722607)
(0.0011168208 0 0.0043450674)
(0.00099606201 0 0.0049074989)
(0.00088112925 0 0.0054365934)
(0.00077370465 0 0.0059123757)
(0.00067487057 0 0.0063191204)
(0.00058511958 0 0.0066469323)
(0.00050457664 0 0.006889585)
(0.0004329941 0 0.0070439319)
(0.00036990397 0 0.0071079284)
(0.00031450824 0 0.0070786445)
(0.00026563154 0 0.0069485837)
(0.00022244462 0 0.0067116355)
(0.00018447035 0 0.0063602253)
(0.00015104666 0 0.005874234)
(0.00012102088 0 0.0052276958)
(9.3152816e-05 0 0.004392485)
(6.5447058e-05 0 0.0033119949)
(3.5389429e-05 0 0.0018742875)
(0 0 0)
(0.0023289876 0 0.00041530674)
(0.0023286529 0 0.00041609032)
(0.0023286085 0 0.00041424963)
(0.0023285214 0 0.00041208187)
(0.0023283735 0 0.00040952936)
(0.0023281393 0 0.00040653384)
(0.0023277835 0 0.00040303328)
(0.0023272575 0 0.0003989638)
(0.0023264953 0 0.00039426411)
(0.0023254072 0 0.00038888181)
(0.0023238723 0 0.00038278395)
(0.0023217288 0 0.0003759729)
(0.0023187618 0 0.00036850975)
(0.0023146881 0 0.00036054963)
(0.0023091375 0 0.00035239192)
(0.0023016334 0 0.00034455438)
(0.0022915696 0 0.00033788042)
(0.0022781907 0 0.00033369786)
(0.0022605739 0 0.00033418333)
(0.0022376272 0 0.00034244896)
(0.0022081027 0 0.00036282493)
(0.0021706112 0 0.00040120743)
(0.0021237413 0 0.00046486018)
(0.0020662497 0 0.00056285065)
(0.0019972018 0 0.0007055562)
(0.0019161713 0 0.00090337981)
(0.0018234335 0 0.0011657192)
(0.0017200075 0 0.0014991373)
(0.001607631 0 0.0019053867)
(0.0014885896 0 0.0023799009)
(0.001365451 0 0.0029113048)
(0.0012408918 0 0.0034816713)
(0.0011175566 0 0.0040683141)
(0.00099780841 0 0.0046467119)
(0.00088366119 0 0.0051936224)
(0.00077675759 0 0.0056886151)
(0.00067819511 0 0.0061154799)
(0.00058851163 0 0.006463661)
(0.00050787274 0 0.0067264076)
(0.00043607706 0 0.0069000928)
(0.0003726911 0 0.0069823932)
(0.00031695766 0 0.0069702345)
(0.00026776713 0 0.0068563918)
(0.00022429083 0 0.0066345508)
(0.00018602345 0 0.0062967432)
(0.00015229573 0 0.0058234056)
(0.00012198194 0 0.0051886384)
(9.3828478e-05 0 0.0043634174)
(6.586213e-05 0 0.0032910386)
(3.5547102e-05 0 0.0018615178)
(0 0 0)
(0.0023282723 0 0.00011750453)
(0.0023279421 0 0.00011815799)
(0.002327888 0 0.00011610407)
(0.0023277886 0 0.00011368255)
(0.0023276252 0 0.0001108284)
(0.0023273713 0 0.00010747454)
(0.0023269905 0 0.00010354875)
(0.0023264329 0 9.8975231e-05)
(0.0023256305 0 9.367897e-05)
(0.0023244913 0 8.7591765e-05)
(0.0023228913 0 8.0662605e-05)
(0.0023206651 0 7.287365e-05)
(0.0023175928 0 6.4263381e-05)
(0.0023133851 0 5.4961959e-05)
(0.0023076649 0 4.5241135e-05)
(0.0022999468 0 3.5587825e-05)
(0.0022896158 0 2.6817237e-05)
(0.0022759145 0 2.0353465e-05)
(0.0022579202 0 1.8519884e-05)
(0.0022345309 0 2.4607149e-05)
(0.0022044909 0 4.2859785e-05)
(0.0021664195 0 7.8960072e-05)
(0.0021189402 0 0.00014065667)
(0.0020608619 0 0.00023748596)
(0.0019913173 0 0.00038017105)
(0.0019099703 0 0.00057934604)
(0.001817186 0 0.00084438946)
(0.0017140552 0 0.001181993)
(0.0016023441 0 0.0015939655)
(0.0014843027 0 0.0020758424)
(0.0013624043 0 0.0026163491)
(0.0012391902 0 0.0031977286)
(0.0011171538 0 0.0037973989)
(0.00099854918 0 0.0043908216)
(0.00088531942 0 0.0049545551)
(0.0007790652 0 0.0054677781)
(0.00068089405 0 0.005913842)
(0.00059138494 0 0.0062815898)
(0.00051074365 0 0.0065637595)
(0.00043881492 0 0.0067562453)
(0.00037520145 0 0.0068564345)
(0.00031918762 0 0.0068610933)
(0.00026972659 0 0.006763211)
(0.00022599583 0 0.0065562876)
(0.00018746642 0 0.0062319945)
(0.00015346276 0 0.0057712463)
(0.00012288316 0 0.005148228)
(9.4463895e-05 0 0.0043331103)
(6.625229e-05 0 0.0032691429)
(3.5695624e-05 0 0.0018482957)
(0 0 0)
(0.0023263365 0 -0.00017388448)
(0.0023260102 0 -0.00017336032)
(0.0023259444 0 -0.00017562641)
(0.0023258304 0 -0.00017830025)
(0.0023256486 0 -0.00018145449)
(0.0023253716 0 -0.00018516525)
(0.0023249617 0 -0.00018951527)
(0.0023243674 0 -0.00019459219)
(0.0023235187 0 -0.00020048467)
(0.0023223209 0 -0.00020727657)
(0.0023206466 0 -0.00021503678)
(0.0023183263 0 -0.0002238033)
(0.0023151346 0 -0.00023356046)
(0.0023107757 0 -0.00024420385)
(0.0023048644 0 -0.00025549155)
(0.0022969057 0 -0.00026697612)
(0.0022862822 0 -0.00027777476)
(0.002272238 0 -0.00028625843)
(0.0022538406 0 -0.00029012257)
(0.0022299702 0 -0.00028614575)
(0.0021993613 0 -0.00026999607)
(0.0021606564 0 -0.0002359105)
(0.0021125257 0 -0.00017589125)
(0.0020538259 0 -8.0243941e-05)
(0.0019837642 0 6.2300371e-05)
(0.0019020989 0 0.00026292313)
(0.0018092886 0 0.00053089185)
(0.0017064989 0 0.00087280679)
(0.0015955221 0 0.0012904827)
(0.0014785694 0 0.0017795279)
(0.0013580142 0 0.002328749)
(0.0012362577 0 0.0029205566)
(0.0011156411 0 0.0035324847)
(0.00099830488 0 0.0041400256)
(0.00088611712 0 0.0047196155)
(0.000780634 0 0.0052501027)
(0.00068296873 0 0.0057144483)
(0.00059373738 0 0.0061009508)
(0.00051318519 0 0.0064018548)
(0.00044120237 0 0.0066125799)
(0.00037742937 0 0.0067302166)
(0.00032119254 0 0.0067513586)
(0.00027150524 0 0.0066691579)
(0.00022755573 0 0.0064769419)
(0.0001887959 0 0.0061660517)
(0.0001545448 0 0.0057178131)
(0.00012372231 0 0.0051065097)
(9.5057376e-05 0 0.0043015953)
(6.6616508e-05 0 0.0032463247)
(3.5834343e-05 0 0.0018346251)
(0 0 0)
(0.0023232176 0 -0.00045899403)
(0.0023228943 0 -0.00045859892)
(0.0023228148 0 -0.00046107827)
(0.0023226837 0 -0.0004640057)
(0.0023224805 0 -0.00046746127)
(0.0023221768 0 -0.00047152973)
(0.0023217335 0 -0.00047630405)
(0.0023210972 0 -0.00048188369)
(0.0023201956 0 -0.00048837106)
(0.0023189311 0 -0.00049586568)
(0.0023171728 0 -0.00050445428)
(0.0023147464 0 -0.00051419513)
(0.0023114207 0 -0.00052509493)
(0.0023068925 0 -0.00053707342)
(0.0023007674 0 -0.00054991281)
(0.0022925456 0 -0.00056318251)
(0.0022816134 0 -0.00057583972)
(0.0022672046 0 -0.00058618838)
(0.0022483636 0 -0.00059203463)
(0.0022239619 0 -0.0005901899)
(0.0021927377 0 -0.00057615654)
(0.0021533554 0 -0.0005438674)
(0.0021045258 0 -0.00048521639)
(0.0020451679 0 -0.00039038557)
(0.0019745696 0 -0.00024793662)
(0.0018925891 0 -4.592748e-05)
(0.001799783 0 0.00022521228)
(0.0016973838 0 0.00057158294)
(0.0015872124 0 0.00099495944)
(0.0014714371 0 0.0014910015)
(0.0013523247 0 0.0020485765)
(0.0012321331 0 0.0026502612)
(0.0011130498 0 0.0032737146)
(0.00099709874 0 0.0038945005)
(0.00088606984 0 0.004489008)
(0.00078147269 0 0.0050358099)
(0.00068442253 0 0.0055175249)
(0.00059556869 0 0.0059219638)
(0.00051519451 0 0.0062408994)
(0.00044323519 0 0.0064692812)
(0.00037936995 0 0.0066039002)
(0.00032296741 0 0.0066411667)
(0.00027309871 0 0.0065743483)
(0.00022896684 0 0.0063966092)
(0.00019000869 0 0.0060989878)
(0.00015553903 0 0.0056631634)
(0.00012449718 0 0.0050635288)
(9.5607222e-05 0 0.0042689042)
(6.6953765e-05 0 0.0032226034)
(3.5962579e-05 0 0.0018205115)
(0 0 0)
(0.0023189525 0 -0.00073795392)
(0.0023186294 0 -0.00073768699)
(0.0023185341 0 -0.00074037935)
(0.0023183833 0 -0.00074356024)
(0.0023181556 0 -0.0007473171)
(0.0023178214 0 -0.0007517433)
(0.00231734 0 -0.00075694177)
(0.002316656 0 -0.00076302378)
(0.0023156947 0 -0.0007701054)
(0.0023143554 0 -0.00077830172)
(0.002312503 0 -0.00078771737)
(0.0023099582 0 -0.0007984309)
(0.0023064834 0 -0.00081047168)
(0.0023017677 0 -0.00082378467)
(0.0022954076 0 -0.00083818091)
(0.0022869042 0 -0.000853122)
(0.0022756435 0 -0.0008674963)
(0.0022608366 0 -0.00087972137)
(0.0022415094 0 -0.00088758786)
(0.0022165312 0 -0.00088781846)
(0.0021846446 0 -0.00087579333)
(0.0021445375 0 -0.00084521951)
(0.0020949662 0 -0.00078777621)
(0.0020349166 0 -0.00069335698)
(0.0019637651 0 -0.0005505964)
(0.0018814812 0 -0.00034708051)
(0.0017887133 0 -7.2662891e-05)
(0.0016867576 0 0.00027832293)
(0.001577465 0 0.00070740931)
(0.0014629555 0 0.0012102957)
(0.001345383 0 0.001775888)
(0.0012268579 0 0.0023869297)
(0.0011094139 0 0.0030212102)
(0.00099495676 0 0.0036544006)
(0.00088519595 0 0.0042629148)
(0.00078159258 0 0.0048251003)
(0.00068526108 0 0.0053232814)
(0.00059688028 0 0.005744836)
(0.00051677026 0 0.0060810893)
(0.00044491033 0 0.0063265274)
(0.00038101918 0 0.0064776421)
(0.00032450788 0 0.0065306515)
(0.0002745031 0 0.0064788964)
(0.0002302258 0 0.0063153847)
(0.00019110176 0 0.0060308764)
(0.00015644273 0 0.0056073552)
(0.00012520561 0 0.005019331)
(9.6111764e-05 0 0.0042350698)
(6.7263011e-05 0 0.0031979977)
(3.6079698e-05 0 0.0018059603)
(0 0 0)
(0.002313571 0 -0.001010891)
(0.002313247 0 -0.0010107515)
(0.0023131338 0 -0.0010136567)
(0.0023129608 0 -0.0010170909)
(0.0023127056 0 -0.0010211488)
(0.0023123371 0 -0.0010259323)
(0.002311813 0 -0.0010315544)
(0.0023110758 0 -0.001038138)
(0.0023100481 0 -0.0010458129)
(0.0023086255 0 -0.0010547098)
(0.0023066687 0 -0.0010649513)
(0.0023039928 0 -0.0010766363)
(0.0023003533 0 -0.0010898162)
(0.0022954304 0 -0.0011044593)
(0.0022888171 0 -0.0011203984)
(0.0022800172 0 -0.0011369417)
(0.0022684017 0 -0.0011529855)
(0.0022531587 0 -0.0011670728)
(0.002233304 0 -0.0011769148)
(0.0022077029 0 -0.0011791586)
(0.0021751051 0 -0.001169052)
(0.0021342259 0 -0.0011400932)
(0.0020838728 0 -0.0010836779)
(0.0020231022 0 -0.00098939749)
(0.0019513938 0 -0.00084572445)
(0.0018688184 0 -0.00064040221)
(0.0017761205 0 -0.00036274566)
(0.00167467 0 -6.9735087e-06)
(0.0015663318 0 0.0004278391)
(0.0014531767 0 0.00093743249)
(0.0013372379 0 0.0015107256)
(0.001220476 0 0.0021306313)
(0.0011047738 0 0.0027752278)
(0.00099191474 0 0.003420195)
(0.0008835217 0 0.0040418325)
(0.00078101088 0 0.0046184606)
(0.00068549404 0 0.0051321741)
(0.00059767607 0 0.0055698926)
(0.0005179124 0 0.0059226126)
(0.00044622573 0 0.00618449)
(0.00038237386 0 0.0063515947)
(0.00032581018 0 0.0064199443)
(0.00027571484 0 0.0063829152)
(0.00023132941 0 0.0062333629)
(0.00019207225 0 0.0059617914)
(0.00015725329 0 0.0055504469)
(0.00012584549 0 0.0049739627)
(9.6569373e-05 0 0.0042001264)
(6.7543196e-05 0 0.0031725281)
(3.6185009e-05 0 0.0017909772)
(0 0 0)
(0.0023071025 0 -0.0012779293)
(0.0023067792 0 -0.0012779166)
(0.0023066459 0 -0.0012810341)
(0.0023064481 0 -0.0012847207)
(0.0023061621 0 -0.0012890786)
(0.0023057555 0 -0.0012942184)
(0.0023051841 0 -0.0013002633)
(0.002304388 0 -0.001307348)
(0.0023032868 0 -0.0013156159)
(0.0023017723 0 -0.0013252139)
(0.0022997006 0 -0.0013362824)
(0.0022968806 0 -0.0013489408)
(0.0022930603 0 -0.0013632643)
(0.0022879111 0 -0.0013792493)
(0.002281028 0 -0.0013966373)
(0.0022719141 0 -0.0014147111)
(0.0022599146 0 -0.0014324442)
(0.0022441972 0 -0.0014483641)
(0.0022237717 0 -0.0014601404)
(0.0021974997 0 -0.0014643393)
(0.002164141 0 -0.0014560677)
(0.0021224428 0 -0.0014286196)
(0.0020712717 0 -0.0013730349)
(0.0020097598 0 -0.0012785957)
(0.0019374907 0 -0.0011335309)
(0.0018546409 0 -0.00092592213)
(0.0017620556 0 -0.00064488816)
(0.0016611727 0 -0.00028431046)
(0.0015538667 0 0.00015624664)
(0.0014421549 0 0.00067242096)
(0.0013279472 0 0.0012532679)
(0.0012130484 0 0.0018817758)
(0.001099185 0 0.0025362648)
(0.00098801616 0 0.0031924283)
(0.00088107742 0 0.0038263121)
(0.00077974763 0 0.0044164143)
(0.00068513282 0 0.0049446864)
(0.00059796092 0 0.0053975691)
(0.00051862212 0 0.0057657657)
(0.00044718048 0 0.0060433336)
(0.00038343167 0 0.0062259048)
(0.00032687122 0 0.0063091733)
(0.00027673082 0 0.0062865155)
(0.00023227485 0 0.0061506375)
(0.0001929175 0 0.0058918067)
(0.00015796823 0 0.0054924973)
(0.00012641478 0 0.0049274708)
(9.6978412e-05 0 0.0041641079)
(6.7793261e-05 0 0.0031462154)
(3.6277898e-05 0 0.0017755699)
(0 0 0)
(0.0022995867 0 -0.0015391911)
(0.0022992583 0 -0.0015393043)
(0.0022991027 0 -0.0015426342)
(0.0022988773 0 -0.0015465732)
(0.0022985573 0 -0.0015512308)
(0.0022981085 0 -0.0015567266)
(0.0022974848 0 -0.0015631939)
(0.0022966238 0 -0.0015707796)
(0.0022954417 0 -0.0015796407)
(0.0022938264 0 -0.0015899396)
(0.0022916286 0 -0.001601835)
(0.0022886506 0 -0.0016154659)
(0.0022846322 0 -0.0016309299)
(0.002279241 0 -0.0016482484)
(0.0022720757 0 -0.001667027)
(0.0022626239 0 -0.0016865758)
(0.0022502054 0 -0.0017059868)
(0.0022339756 0 -0.0017237151)
(0.0022129345 0 -0.0017373892)
(0.0021859422 0 -0.0017434901)
(0.0021517721 0 -0.0017369663)
(0.0021092176 0 -0.0017107377)
(0.0020572055 0 -0.0016555792)
(0.0019949376 0 -0.001560665)
(0.0019220991 0 -0.0014140477)
(0.0018389994 0 -0.0012036701)
(0.0017465734 0 -0.00091893679)
(0.0016463151 0 -0.00055368862)
(0.0015401256 0 -0.00010737658)
(0.0014299569 0 0.00041543091)
(0.0013175889 0 0.0010039521)
(0.0012046478 0 0.001640926)
(0.0010926992 0 0.0023046394)
(0.0009832915 0 0.0029710663)
(0.00087788434 0 0.0036162898)
(0.00077781712 0 0.0042189101)
(0.0006841864 0 0.0047607963)
(0.0005977401 0 0.0052280441)
(0.00051890168 0 0.0056109281)
(0.00044777439 0 0.0059033151)
(0.00038419101 0 0.0061007149)
(0.00032768847 0 0.006198463)
(0.00027754831 0 0.0061898059)
(0.00023305949 0 0.0060673006)
(0.00019363502 0 0.0058209962)
(0.00015858521 0 0.0054335656)
(0.00012691148 0 0.0048799025)
(9.7337296e-05 0 0.0041270498)
(6.8012136e-05 0 0.0031190812)
(3.635767e-05 0 0.0017597448)
(0 0 0)
(0.0022910439 0 -0.0017947949)
(0.0022907138 0 -0.0017950332)
(0.0022905336 0 -0.0017985749)
(0.002290278 0 -0.0018027657)
(0.0022899206 0 -0.0018077231)
(0.0022894257 0 -0.0018135754)
(0.0022887448 0 -0.0018204663)
(0.0022878128 0 -0.0018285543)
(0.0022865424 0 -0.00183801)
(0.002284817 0 -0.0018490111)
(0.0022824817 0 -0.0018617342)
(0.0022793317 0 -0.0018763391)
(0.0022750982 0 -0.0018929483)
(0.002269451 0 -0.0019115154)
(0.0022619884 0 -0.0019316333)
(0.0022521718 0 -0.0019526805)
(0.0022392992 0 -0.0019737411)
(0.0022225163 0 -0.001993246)
(0.0022008127 0 -0.0020087839)
(0.0021730495 0 -0.0020167372)
(0.0021380319 0 -0.0020117096)
(0.002094603 0 -0.0019861879)
(0.0020417276 0 -0.001930983)
(0.0019786817 0 -0.0018352572)
(0.0019052697 0 -0.001686944)
(0.0018219407 0 -0.0014736524)
(0.0017297138 0 -0.0011850722)
(0.0016301479 0 -0.00081513388)
(0.001525181 0 -0.00036286055)
(0.0014166759 0 0.0001669324)
(0.0013062433 0 0.00076311418)
(0.0011953255 0 0.0014080705)
(0.0010853505 0 0.0020802165)
(0.00097776667 0 0.0027559267)
(0.00087396321 0 0.0034115823)
(0.00077523451 0 0.0040258024)
(0.00068266562 0 0.0045804061)
(0.00059702109 0 0.0050612628)
(0.00051875504 0 0.005458237)
(0.00044800809 0 0.0057646896)
(0.00038465067 0 0.0059761618)
(0.0003282601 0 0.0060879339)
(0.00027816511 0 0.0060928924)
(0.00023368107 0 0.0059834433)
(0.00019422254 0 0.0057494334)
(0.00015910201 0 0.0053737109)
(0.00012733367 0 0.0048313056)
(9.7644425e-05 0 0.0040889872)
(6.8198764e-05 0 0.0030911483)
(3.6423692e-05 0 0.0017435098)
(0 0 0)
(0.0022815122 0 -0.0020448579)
(0.0022811773 0 -0.0020452221)
(0.0022809702 0 -0.0020489783)
(0.0022806814 0 -0.0020534242)
(0.0022802831 0 -0.0020586841)
(0.0022797377 0 -0.002064895)
(0.0022789943 0 -0.0020722101)
(0.0022779848 0 -0.0020807997)
(0.0022766182 0 -0.0020908478)
(0.0022747729 0 -0.002102548)
(0.002272288 0 -0.0021160945)
(0.0022689509 0 -0.0021316677)
(0.0022644885 0 -0.0021494156)
(0.0022585743 0 -0.0021691827)
(0.0022507926 0 -0.0021905929)
(0.0022405796 0 -0.0022131285)
(0.0022272184 0 -0.0022358156)
(0.0022098402 0 -0.0022570644)
(0.0021874249 0 -0.0022744376)
(0.0021588531 0 -0.0022840559)
(0.0021229708 0 -0.0022800839)
(0.002078636 0 -0.002254984)
(0.0020248543 0 -0.0021995683)
(0.0019610091 0 -0.0021027087)
(0.0018870374 0 -0.0019522262)
(0.0018035037 0 -0.0017358556)
(0.0017115271 0 -0.0014433109)
(0.0016127559 0 -0.0010683276)
(0.0015091381 0 -0.00060969594)
(0.0014024037 0 -7.2702199e-05)
(0.0012939661 0 0.00053071364)
(0.00118512 0 0.0011829719)
(0.0010771736 0 0.0018628197)
(0.00097147414 0 0.0025470085)
(0.00086933965 0 0.0032122308)
(0.00077201887 0 0.0038371673)
(0.00068058371 0 0.0044036184)
(0.00059581222 0 0.0048972596)
(0.00051818651 0 0.0053076466)
(0.00044788322 0 0.0056275812)
(0.00038481054 0 0.0058524644)
(0.00032858477 0 0.0059777033)
(0.00027857931 0 0.0059958785)
(0.00023413751 0 0.0058991551)
(0.00019467795 0 0.0056771915)
(0.0001595165 0 0.0053129928)
(0.00012767948 0 0.0047817284)
(9.789827e-05 0 0.004049957)
(6.8352062e-05 0 0.0030624396)
(3.6475303e-05 0 0.0017268738)
(0 0 0)
(0.0022710217 0 -0.0022894936)
(0.0022706782 0 -0.0022899826)
(0.0022704416 0 -0.0022939521)
(0.0022701166 0 -0.0022986516)
(0.0022696738 0 -0.002304213)
(0.0022690734 0 -0.0023107813)
(0.002268262 0 -0.0023185201)
(0.0022671684 0 -0.0023276109)
(0.0022656973 0 -0.0023382509)
(0.0022637221 0 -0.0023506493)
(0.0022610752 0 -0.0023650176)
(0.0022575359 0 -0.0023815566)
(0.002252832 0 -0.0024003793)
(0.002246637 0 -0.0024213182)
(0.0022385123 0 -0.0024440412)
(0.0022278717 0 -0.0024680373)
(0.0022139849 0 -0.0024923179)
(0.0021959675 0 -0.0025152586)
(0.0021728011 0 -0.0025343324)
(0.0021433999 0 -0.0025452785)
(0.0021066177 0 -0.0025421198)
(0.0020613177 0 -0.0025174485)
(0.0020065905 0 -0.0024617062)
(0.0019419399 0 -0.0023633994)
(0.0018674304 0 -0.0022102389)
(0.0017837382 0 -0.0019902942)
(0.0016920932 0 -0.0016933885)
(0.0015942445 0 -0.0013127987)
(0.0014920978 0 -0.00084746133)
(0.0013872021 0 -0.00030353155)
(0.0012808036 0 0.00030656765)
(0.0011740764 0 0.00096552418)
(0.0010682082 0 0.0016523857)
(0.00096444734 0 0.0023442906)
(0.00086404048 0 0.0030182574)
(0.00076819054 0 0.0036530623)
(0.00067795522 0 0.0042305187)
(0.00059412312 0 0.0047361401)
(0.00051720189 0 0.0051592002)
(0.00044740321 0 0.0054920941)
(0.00038467176 0 0.0057298413)
(0.00032866136 0 0.005867884)
(0.00027878951 0 0.0058988646)
(0.00023442712 0 0.0058145235)
(0.00019499935 0 0.0056043431)
(0.00015982674 0 0.0052514708)
(0.00012794713 0 0.0047312195)
(9.8097288e-05 0 0.0040099957)
(6.8470957e-05 0 0.0030329794)
(3.651184e-05 0 0.0017098448)
(0 0 0)
(0.0022595916 0 -0.0025288136)
(0.0022592419 0 -0.0025294266)
(0.0022589735 0 -0.0025336092)
(0.0022586093 0 -0.0025385621)
(0.0022581182 0 -0.0025444243)
(0.0022574584 0 -0.0025513494)
(0.0022565736 0 -0.0025595108)
(0.002255389 0 -0.0025691013)
(0.0022538052 0 -0.0025803314)
(0.0022516898 0 -0.0025934249)
(0.0022488682 0 -0.002608611)
(0.0022451142 0 -0.0026261147)
(0.0022401579 0 -0.0026459754)
(0.0022336631 0 -0.0026680483)
(0.002225168 0 -0.0026920782)
(0.0022140691 0 -0.0027175157)
(0.0021996195 0 -0.0027433584)
(0.0021809212 0 -0.0027679583)
(0.0021569765 0 -0.0027884771)
(0.0021267144 0 -0.0028004769)
(0.0020889723 0 -0.0027981288)
(0.0020426551 0 -0.0027738149)
(0.0019869604 0 -0.0027174858)
(0.0019215066 0 -0.0026173801)
(0.0018464852 0 -0.0024611616)
(0.0017627049 0 -0.0022369956)
(0.0016714994 0 -0.0019350974)
(0.0015747041 0 -0.0015484007)
(0.0014741285 0 -0.0010762149)
(0.0013711186 0 -0.00052577961)
(0.001266804 0 9.0516618e-05)
(0.0011622398 0 0.00075560807)
(0.0010584945 0 0.0014488362)
(0.00095672021 0 0.0021477364)
(0.00085809325 0 0.0028296671)
(0.00076377078 0 0.0034735282)
(0.00067479559 0 0.0040611783)
(0.0005919644 0 0.0045779966)
(0.00051580822 0 0.0050130019)
(0.00044657194 0 0.0053582765)
(0.00038423512 0 0.0056083287)
(0.00032848923 0 0.0057585819)
(0.0002787947 0 0.0058019477)
(0.00023454844 0 0.0057296346)
(0.00019518504 0 0.0055309602)
(0.00016003089 0 0.0051892045)
(0.00012813487 0 0.004679828)
(9.8239985e-05 0 0.0039691413)
(6.8554366e-05 0 0.0030027922)
(3.6532651e-05 0 0.0016924337)
(0 0 0)
(0.0022472556 0 -0.0027629268)
(0.002246895 0 -0.0027636631)
(0.0022465921 0 -0.002768059)
(0.0022461857 0 -0.002773265)
(0.0022456426 0 -0.0027794275)
(0.0022449187 0 -0.0027867084)
(0.0022439549 0 -0.0027952908)
(0.0022426726 0 -0.0028053784)
(0.0022409676 0 -0.002817194)
(0.0022387019 0 -0.0028309748)
(0.0022356932 0 -0.0028469628)
(0.0022317124 0 -0.0028653965)
(0.0022264903 0 -0.0028862952)
(0.0022196749 0 -0.0029095152)
(0.0022107823 0 -0.0029348283)
(0.0021991923 0 -0.002961677)
(0.0021841406 0 -0.0029890382)
(0.0021647271 0 -0.003015205)
(0.0021399764 0 -0.0030369886)
(0.0021088038 0 -0.0030499294)
(0.0020700412 0 -0.0030483125)
(0.002022678 0 -0.0030240186)
(0.0019660139 0 -0.0029666477)
(0.0018997698 0 -0.002864352)
(0.0018242747 0 -0.0027047076)
(0.0017404681 0 -0.0024759988)
(0.001649828 0 -0.0021683819)
(0.0015542208 0 -0.001775035)
(0.0014552813 0 -0.0012962198)
(0.0013542022 0 -0.00073965208)
(0.0012520156 0 -0.00011760886)
(0.0011496553 0 0.00055309296)
(0.0010480725 0 0.0012520798)
(0.00094832697 0 0.0019572948)
(0.00085152598 0 0.0026464502)
(0.00075878146 0 0.0032985913)
(0.00067112114 0 0.0038956534)
(0.00058934755 0 0.0044229079)
(0.00051401302 0 0.0048691449)
(0.00044539351 0 0.0052261639)
(0.00038350278 0 0.0054880088)
(0.00032806948 0 0.0056499741)
(0.00027859431 0 0.005705222)
(0.00023450033 0 0.0056445719)
(0.00019523353 0 0.0054571137)
(0.00016012726 0 0.0051262534)
(0.00012824108 0 0.0046276035)
(9.832491e-05 0 0.0039274326)
(6.8601209e-05 0 0.0029719035)
(3.6537052e-05 0 0.0016746486)
(0 0 0)
(0.0022340331 0 -0.0029919393)
(0.0022336632 0 -0.0029927988)
(0.0022333233 0 -0.002997408)
(0.0022328713 0 -0.0030028674)
(0.0022322724 0 -0.0030093304)
(0.0022314797 0 -0.0030169676)
(0.0022304311 0 -0.0030259715)
(0.002229044 0 -0.0030365575)
(0.0022272092 0 -0.0030489612)
(0.0022247822 0 -0.0030634349)
(0.0022215731 0 -0.0030802381)
(0.0022173523 0 -0.0030995741)
(0.002211849 0 -0.0031214704)
(0.0022046919 0 -0.0031458256)
(0.0021953749 0 -0.0031723997)
(0.0021832608 0 -0.0032006302)
(0.0021675685 0 -0.0032294827)
(0.0021474117 0 -0.0032570093)
(0.0021218195 0 -0.0032799111)
(0.0020896788 0 -0.0032937667)
(0.0020498556 0 -0.0032926182)
(0.0020014408 0 -0.0032678378)
(0.0019438126 0 -0.0032088861)
(0.001876793 0 -0.0031039898)
(0.0018008663 0 -0.0029405469)
(0.0017171104 0 -0.0027070311)
(0.0016271719 0 -0.0023931514)
(0.0015328607 0 -0.0019928426)
(0.0014356021 0 -0.0015077131)
(0.0013365016 0 -0.00094536018)
(0.0012364862 0 -0.00031798616)
(0.0011363677 0 0.00035783847)
(0.0010369823 0 0.0010620135)
(0.00093930195 0 0.0017729015)
(0.00084436706 0 0.0024685829)
(0.00075324502 0 0.0031282633)
(0.00066694889 0 0.0037339863)
(0.00058628474 0 0.0042709409)
(0.0005118246 0 0.004727712)
(0.00044387336 0 0.0050958481)
(0.0003824785 0 0.0053690412)
(0.00032740355 0 0.0055422372)
(0.00027818773 0 0.0056087779)
(0.00023428188 0 0.005559417)
(0.00019514348 0 0.0053828737)
(0.00016011424 0 0.0050626767)
(0.00012826415 0 0.0045745958)
(9.8350625e-05 0 0.0038849086)