/*--------------------------------*- C++ -*----------------------------------*\
  =========                 |
  \\      /  F ield         | OpenFOAM: The Open Source CFD Toolbox
   \\    /   O peration     | Website:  https://openfoam.org
    \\  /    A nd           | Version:  8
     \\/     M anipulation  |
\*---------------------------------------------------------------------------*/
FoamFile
{
    version     2.0;
    format      ascii;
    class       volScalarField;
    location    "0.0999939";
    object      rho;
}
// * * * * * * * * * * * * * * * * * * * * * * * * * * * * * * * * * * * * * //

dimensions      [1 -3 0 0 0 0 0];

internalField   nonuniform List<scalar> 
20000
(
0.84178738
0.8415511
0.84405963
0.85036305
0.86314103
0.88890438
0.90350331
0.90745484
0.90503324
0.90730811
0.90630918
0.90829402
0.90821026
0.91033612
0.91119959
0.91388884
0.91588625
0.91957114
0.92314588
0.92845459
0.93435598
0.94222192
0.95146092
0.96298212
0.97660402
0.993115
1.0115872
1.0309913
1.0506036
1.06963
1.0872115
1.1029017
1.1164141
1.1276845
1.1368337
1.1441206
1.1497977
1.1542317
1.157653
1.1603628
1.1625061
1.1642189
1.1656726
1.167116
1.1687889
1.1699398
1.170353
1.1701039
1.1690297
1.1689281
0.83100798
0.83138074
0.83438853
0.84129583
0.85485773
0.88159872
0.89339763
0.89708014
0.89469002
0.89700056
0.89604849
0.8981347
0.89814386
0.90043437
0.9014508
0.90436723
0.90660209
0.9106141
0.91458649
0.92041652
0.92696339
0.93561322
0.94583077
0.95847554
0.97353171
0.99113138
1.0104537
1.0305991
1.0505922
1.0698839
1.0877195
1.1034909
1.1169554
1.1281419
1.1371976
1.1443989
1.1500089
1.1543905
1.1577759
1.1604688
1.1625982
1.1642934
1.1657416
1.1672543
1.1689374
1.1699579
1.1703839
1.1701232
1.1690099
1.1689106
0.82224403
0.82308318
0.82654266
0.83401745
0.84844079
0.87575467
0.88527296
0.88885193
0.88651348
0.88892705
0.88804556
0.89026197
0.89037501
0.89281674
0.89396911
0.897071
0.89952594
0.90384049
0.90817726
0.91448483
0.92164752
0.93104243
0.94227889
0.956192
0.97220836
0.99053016
1.0103106
1.0306288
1.0510099
1.0706085
1.0885224
1.1042575
1.1176271
1.1286841
1.1376094
1.1446971
1.1502216
1.1545433
1.1578893
1.1605648
1.1626847
1.1643655
1.1658146
1.1674318
1.1691396
1.170087
1.1704214
1.1699344
1.1690254
1.1688535
0.81559102
0.81685513
0.82070851
0.82870662
0.84403599
0.87150677
0.87900813
0.88254981
0.88025853
0.88276785
0.88195212
0.88429413
0.88449812
0.88708378
0.88836659
0.89167072
0.89436588
0.89902492
0.90378373
0.91061648
0.91851975
0.92882107
0.94082414
0.95529146
0.97175512
0.99037117
1.0103081
1.031261
1.0520781
1.0718467
1.0897723
1.1053936
1.1185813
1.1294441
1.138189
1.1451252
1.1505335
1.1547702
1.1580582
1.1607022
1.1627988
1.1644516
1.1659004
1.1676349
1.1692782
1.1701568
1.1704666
1.1698881
1.169002
1.1688166
0.81029031
0.81202628
0.81628754
0.82482158
0.84120554
0.86867183
0.87431703
0.87790786
0.87566759
0.87828871
0.87753208
0.87997821
0.88024798
0.88297232
0.88442146
0.88797199
0.89095455
0.89599092
0.90131852
0.90876794
0.91718549
0.92787677
0.94024198
0.9550609
0.97171634
0.99064967
1.011278
1.0326526
1.053732
1.0735632
1.0913756
1.1067881
1.1197287
1.1303454
1.1388698
1.1456245
1.1508942
1.1550307
1.1582502
1.1608556
1.1629238
1.1645436
1.1659971
1.1678443
1.1694205
1.1702428
1.1705183
1.1697974
1.1689748
1.168777
0.8070636
0.80901852
0.81352288
0.82249838
0.83997319
0.86712355
0.871029
0.87465134
0.8724256
0.8751244
0.87439838
0.87693514
0.87729367
0.88020565
0.88189271
0.88581449
0.88919899
0.89464377
0.90026683
0.90798833
0.91666631
0.92761712
0.94016369
0.95511049
0.97238418
0.99194838
1.0130045
1.0347447
1.0559733
1.0757398
1.0933433
1.1084639
1.1210882
1.1314063
1.1396701
1.1462126
1.1513203
1.1553387
1.1584771
1.1610344
1.1630655
1.1646466
1.1661114
1.1680553
1.1695458
1.170312
1.1705657
1.1697353
1.1689391
1.1687461
0.80425614
0.8066574
0.81151042
0.82097578
0.83972439
0.86645335
0.86871332
0.87241099
0.87019291
0.87297273
0.8723136
0.87503935
0.87564943
0.87885421
0.88075994
0.88489092
0.88844361
0.89407407
0.89986945
0.90777452
0.91657902
0.92762827
0.94057782
0.95617408
0.97398425
0.99403628
1.0155302
1.0374919
1.0587387
1.0783321
1.095628
1.1103781
1.1226267
1.1326005
1.1405688
1.1468728
1.1517982
1.1556841
1.1587312
1.1612325
1.1632197
1.1647613
1.1662511
1.1682631
1.1696646
1.1703706
1.1705929
1.1696701
1.1689052
1.1687202
0.80288363
0.80555194
0.81062944
0.82051222
0.84053581
0.86651018
0.8673557
0.87114297
0.86897553
0.87191192
0.87136549
0.87421508
0.87496271
0.87828524
0.88027932
0.88452274
0.88818596
0.89394397
0.89980993
0.90779261
0.91692164
0.9284948
0.94196457
0.95803698
0.97639963
0.99693413
1.0187423
1.0408322
1.0619887
1.081304
1.0982056
1.1125144
1.124332
1.1339198
1.1415609
1.1476022
1.1523269
1.1560666
1.1590126
1.16145
1.163386
1.164891
1.166427
1.1684631
1.1697697
1.1704159
1.1706057
1.1696114
1.168873
1.1687004
0.80199609
0.80502626
0.81037165
0.82064978
0.84206149
0.8670386
0.8666977
0.87060245
0.86842298
0.87147721
0.87096804
0.87395558
0.87470983
0.87810957
0.88016671
0.88445119
0.88816079
0.89399838
0.90017336
0.90857093
0.9181217
0.93010156
0.94407091
0.96068994
0.97955918
1.0005072
1.0225768
1.0446966
1.0656611
1.0846065
1.1010351
1.1148402
1.1261796
1.135346
1.1426328
1.1483908
1.1528992
1.1564813
1.1593179
1.1616842
1.1635618
1.1650369
1.1666484
1.1686522
1.1698614
1.1704493
1.170609
1.169555
1.1688438
1.1686847
0.8018825
0.8050738
0.81068047
0.82129532
0.84408733
0.86778569
0.86645124
0.8704345
0.8683154
0.87141897
0.870941
0.87394773
0.87466515
0.87809572
0.88020177
0.88466772
0.88862767
0.89479289
0.90127098
0.90999354
0.91995892
0.93241308
0.94689369
0.9640154
0.98337945
1.004709
1.0269639
1.049029
1.069709
1.0881993
1.1040843
1.1173305
1.1281503
1.1368648
1.1437742
1.1492312
1.15351
1.1569248
1.159645
1.161933
1.1637455
1.165199
1.166916
1.1688314
1.1699434
1.1704706
1.1706083
1.1695023
1.1688164
1.1686722
0.80171407
0.80528385
0.81122126
0.82220153
0.84633237
0.8685457
0.86638171
0.87043293
0.86832151
0.87148633
0.87101967
0.87414285
0.8749213
0.87852681
0.88082145
0.88550139
0.88968567
0.89610417
0.90291213
0.91200971
0.92240417
0.93530881
0.95029959
0.96794136
0.98778342
1.0094527
1.0318337
1.0537622
1.0740736
1.0920336
1.1073138
1.1199546
1.1302211
1.1384592
1.1449726
1.1501145
1.1541529
1.1573928
1.1599907
1.1621939
1.1639348
1.1653749
1.1672051
1.1690159
1.1700273
1.1704816
1.1705874
1.1694514
1.1687899
1.1686614
0.80187183
0.80574652
0.81202825
0.82341487
0.84877708
0.86939025
0.86660335
0.87076222
0.86866347
0.87196176
0.87152555
0.8747845
0.87566867
0.87944412
0.88190123
0.88679379
0.89122525
0.89793143
0.90506921
0.91452655
0.92535537
0.93873622
0.95425263
0.9724124
0.99272176
1.014694
1.0371347
1.0588473
1.0787103
1.0960704
1.1106914
1.1226869
1.1323721
1.140114
1.1462169
1.1510323
1.1548222
1.1578815
1.1603525
1.1624644
1.1641281
1.1655612
1.1674993
1.1692034
1.1701171
1.1704889
1.1705361
1.1694009
1.168763
1.1686516
0.80250336
0.80672594
0.81338858
0.82522391
0.8516636
0.87061791
0.86730332
0.87147291
0.86946203
0.8727708
0.8724703
0.87582912
0.87684839
0.8807901
0.8834165
0.88851886
0.89318969
0.90016952
0.90764475
0.91748065
0.92876162
0.94262937
0.95868533
0.97737353
0.99813622
1.0203696
1.0428052
1.0642249
1.0835653
1.1002643
1.1141803
1.1254987
1.1345814
1.1418133
1.147495
1.1519761
1.1555116
1.1583866
1.1607274
1.1627418
1.1643246
1.1657554
1.1677841
1.1693857
1.1702161
1.1705117
1.1704548
1.1693438
1.1687351
1.1686424
0.80360441
0.80809435
0.81516704
0.82751327
0.85478993
0.87207672
0.86836532
0.87262145
0.87064092
0.87404025
0.8738016
0.87722783
0.87839111
0.88248539
0.88527791
0.89058897
0.89551017
0.90277675
0.91060378
0.92083064
0.932583
0.94696146
0.96357582
0.98279775
1.0039961
1.026444
1.0488033
1.0698521
1.0885983
1.10458
1.1177511
1.1283662
1.1368307
1.1435427
1.1487963
1.1529377
1.1562154
1.1589043
1.161113
1.1630243
1.1645245
1.1659579
1.1680525
1.1695535
1.1703141
1.1705755
1.1703453
1.1692813
1.168707
1.1686336
0.80484032
0.80964257
0.81719269
0.83020482
0.85801367
0.87367404
0.869694
0.87399631
0.87204721
0.87555588
0.87536786
0.87893941
0.88022055
0.8844772
0.88744367
0.89297063
0.8981492
0.90570914
0.91390358
0.92454127
0.93678785
0.95169726
0.96888755
0.98864683
1.0102573
1.0328654
1.0550748
1.0756754
1.0937616
1.1089772
1.1213711
1.1312638
1.1391005
1.1452878
1.1501097
1.1539091
1.1569278
1.1594304
1.1615066
1.1633117
1.1647295
1.166174
1.1683021
1.1697061
1.1704079
1.1706428
1.1702315
1.1692172
1.1686795
1.1686251
0.80633322
0.81146013
0.81950936
0.83334865
0.86132595
0.87543121
0.87124686
0.87564192
0.8737159
0.87733813
0.87720684
0.88091863
0.88231232
0.88673091
0.88987844
0.89562555
0.90107555
0.90894418
0.91752702
0.92859747
0.94136256
0.95682741
0.97461061
0.99490661
1.0168971
1.0396036
1.0615831
1.0816571
1.0990198
1.1134249
1.1250146
1.1341711
1.1413746
1.147036
1.1514259
1.154883
1.1576436
1.1599613
1.161905
1.1636036
1.1649428
1.1664126
1.1685321
1.1698443
1.1704872
1.1706947
1.1701102
1.1691539
1.1686532
1.1686171
0.8080393
0.8134805
0.82205448
0.83691526
0.86466293
0.87732211
0.87302534
0.877502
0.87560369
0.87933465
0.87927214
0.88311441
0.88463059
0.88922011
0.89255839
0.89853693
0.90427168
0.9124634
0.9214563
0.93298232
0.94629073
0.96233289
0.98072353
1.0015479
1.0238778
1.0466121
1.0682788
1.08775
1.1043309
1.117888
1.1286533
1.137066
1.1436364
1.1487747
1.1527351
1.1558521
1.1583575
1.1604931
1.1623046
1.1638963
1.1651675
1.1666813
1.1687411
1.1699672
1.1705482
1.1707268
1.1699906
1.1690937
1.1686285
1.1686094
0.80994344
0.81569633
0.8248103
0.84090321
0.86799918
0.87936913
0.87499245
0.87955228
0.87768815
0.88152552
0.8815462
0.88551786
0.88716401
0.89192933
0.89546947
0.90168662
0.90772423
0.91625867
0.92568668
0.93769307
0.95157062
0.96821361
0.9872234
1.008561
1.031179
1.0538619
1.0751282
1.0939204
1.109664
1.12234
1.1322658
1.1399317
1.1458728
1.1504935
1.1540294
1.1568104
1.1590651
1.1610227
1.162703
1.1641878
1.1654048
1.1669751
1.1689348
1.1700734
1.1705941
1.1707386
1.1698786
1.169037
1.1686053
1.1686019
0.81196633
0.81802799
0.82769936
0.8452435
0.87126492
0.88147798
0.87711087
0.88176515
0.8799561
0.88389645
0.88400437
0.88811476
0.88989798
0.89484588
0.89859816
0.9050682
0.9114277
0.92032458
0.93021177
0.94272279
0.95719433
0.97445987
0.9940947
1.0159204
1.0387641
1.0613083
1.0820851
1.1001251
1.1149824
1.1267508
1.1358283
1.14275
1.1480699
1.1521819
1.1553008
1.157752
1.1597621
1.1615469
1.1630975
1.1644771
1.1656542
1.1672862
1.1691212
1.1701649
1.1706282
1.1707413
1.1697741
1.1689839
1.1685834
1.1685942
0.81414725
0.82051975
0.83075728
0.84993524
0.87449324
0.8837419
0.87940241
0.8841543
0.88240093
0.88644672
0.8866464
0.89089695
0.89282359
0.89796013
0.90193937
0.90867566
0.91537975
0.92466111
0.93503324
0.94807451
0.96316672
0.98107639
1.0013371
1.0236156
1.0466108
1.0689217
1.0891174
1.1063336
1.120259
1.1310985
1.1393236
1.1455074
1.1502172
1.1538323
1.1565428
1.1586725
1.1604446
1.1620626
1.1634857
1.1647623
1.1659133
1.1676086
1.1693061
1.170245
1.1706447
1.1707405
1.1696776
1.168934
1.1685624
1.1685862
0.81649485
0.82317414
0.83399555
0.85497821
0.87768466
0.88623115
0.88185378
0.88670505
0.88501109
0.88916284
0.8894569
0.8938518
0.89593127
0.9012667
0.90549052
0.91251084
0.91958167
0.92926818
0.94014997
0.953747
0.96948622
0.98805798
1.0089363
1.0316191
1.0546805
1.0766578
1.096181
1.1125064
1.1254612
1.1353577
1.1427324
1.148189
1.1523037
1.1554374
1.1577493
1.159567
1.1611096
1.1625673
1.1638652
1.1650422
1.1661792
1.1679339
1.1694901
1.1703234
1.1706539
1.1707078
1.1695893
1.1688868
1.1685418
1.1685776
0.81895599
0.8259528
0.83739139
0.86028203
0.88082525
0.88881753
0.88445046
0.88940111
0.88776892
0.89203469
0.89242687
0.89697448
0.89921888
0.90476718
0.90925445
0.91657521
0.92403541
0.93414881
0.94556701
0.9597481
0.9761625
0.99541157
1.0168906
1.0399162
1.0629478
1.0844852
1.103244
1.1186144
1.1305658
1.1395117
1.1460422
1.1507848
1.1543221
1.1569926
1.1589157
1.1604315
1.1617544
1.1630585
1.164234
1.1653162
1.1664499
1.1682522
1.169669
1.1704058
1.1706606
1.1706252
1.1695091
1.1688413
1.1685214
1.1685681
0.82155704
0.82888592
0.84097499
0.86581655
0.88395193
0.89154636
0.88719317
0.89223951
0.89067131
0.89505272
0.89555553
0.90026507
0.9026907
0.90846525
0.91323521
0.92087266
0.92874332
0.93930546
0.95128725
0.96608233
0.98319796
1.0031333
1.0251821
1.0484752
1.07137
1.0923578
1.1102621
1.1246202
1.1355452
1.1435415
1.1492394
1.1532847
1.1562662
1.1584923
1.1600384
1.161261
1.1623768
1.163534
1.1645908
1.1655851
1.1667264
1.1685542
1.1698348
1.1704831
1.1707004
1.1704985
1.1694266
1.1687962
1.1685007
1.1685575
0.82423495
0.83190323
0.84470898
0.87147457
0.88707493
0.89439103
0.89007858
0.89522051
0.89370701
0.89822077
0.89884523
0.90373215
0.90635268
0.91236593
0.91743551
0.92540423
0.93370833
0.94474398
0.95732067
0.972762
0.99060537
1.0112281
1.0338045
1.0572747
1.0799167
1.100241
1.117203
1.1304985
1.1403832
1.1474362
1.1523161
1.1556845
1.1581352
1.1599304
1.161115
1.1620512
1.1629746
1.1639922
1.1649346
1.1658512
1.1670142
1.1688314
1.1699878
1.1705573
1.1707355
1.1703542
1.1693421
1.1687518
1.1684798
1.1685457
0.82705899
0.83506954
0.8486681
0.87723081
0.89027189
0.89736067
0.89309074
0.89833546
0.89690606
0.90155334
0.90230938
0.90737956
0.91020882
0.91647023
0.92185698
0.93017291
0.93893499
0.95047166
0.96367593
0.97979662
0.99838811
1.0196893
1.0427326
1.0662761
1.0885396
1.1080868
1.1240254
1.1362216
1.1450631
1.1511823
1.1552623
1.1579806
1.1599282
1.161298
1.1621421
1.1627999
1.163545
1.1644317
1.1652649
1.166117
1.1673194
1.169076
1.170121
1.1706187
1.1707522
1.1702066
1.1692581
1.1687089
1.1684589
1.1685323
0.83002295
0.83836197
0.8528525
0.88295284
0.89330956
0.90047829
0.89625558
0.90160461
0.90026022
0.90505713
0.90594805
0.91120825
0.91425825
0.92077891
0.92650069
0.93518173
0.94443076
0.95650056
0.97036855
0.98720219
1.0065585
1.0285167
1.0519515
1.0754496
1.0972018
1.1158588
1.130703
1.1417787
1.1495799
1.1547717
1.1580709
1.1601728
1.161642
1.1625895
1.1631141
1.1635104
1.1640849
1.1648517
1.1655816
1.1663845
1.167642
1.1692839
1.1702264
1.1706601
1.1707603
1.1700565
1.1691785
1.1686683
1.1684379
1.1685172
0.83312179
0.841775
0.85728933
0.88869464
0.8966739
0.90374609
0.89957046
0.90502122
0.90376917
0.90872424
0.90975954
0.91521642
0.91850041
0.92529208
0.93137032
0.94043825
0.95020671
0.9628442
0.97741261
0.99498971
1.0151181
1.0376953
1.0614269
1.0847471
1.1058511
1.123511
1.1372086
1.1471609
1.1539239
1.1581904
1.1607313
1.1622555
1.1632576
1.1638105
1.164022
1.164191
1.1645922
1.1652512
1.1658846
1.1666542
1.1679655
1.169468
1.1703057
1.1706799
1.1707617
1.1699196
1.1691047
1.1686301
1.1684167
1.1685002
0.83644126
0.84536347
0.86201457
0.89444374
0.90001414
0.90715141
0.90302414
0.90858251
0.90743656
0.91254072
0.91374157
0.91940383
0.92293758
0.93001262
0.93647236
0.94595313
0.95627768
0.96952077
0.98482706
1.0031762
1.0240749
1.0472165
1.0711329
1.0941304
1.1144476
1.1310153
1.1435366
1.1523684
1.1580792
1.1614271
1.1632394
1.1642169
1.1647663
1.1649658
1.1648609
1.1648481
1.1650691
1.1656294
1.166174
1.166925
1.1682846
1.1696356
1.1703674
1.1706896
1.1707606
1.1697966
1.1690373
1.1685941
1.168395
1.1684811
0.83989813
0.84905469
0.86698518
0.90013382
0.90350243
0.91068469
0.90661746
0.91229082
0.91126047
0.91652473
0.91789327
0.92377363
0.92757183
0.93494695
0.94181765
0.95174235
0.96266148
0.9765484
0.99262766
1.011771
1.0334231
1.057054
1.0810232
1.1035437
1.1229404
1.1383441
1.1496827
1.1573749
1.1620127
1.164467
1.1655916
1.1660481
1.1661802
1.1660595
1.1656351
1.165466
1.1655243
1.165985
1.1664498
1.1671954
1.1685936
1.1697954
1.1704274
1.1706938
1.1707377
1.1696876
1.168976
1.1685598
1.1683726
1.1684599
0.84356147
0.85291187
0.8722496
0.90580471
0.90702218
0.91436707
0.91036374
0.91615454
0.91524653
0.92067005
0.9222177
0.92832472
0.93241092
0.94010585
0.94742182
0.95782441
0.96937834
0.98394831
1.0008343
1.0207881
1.0431618
1.0671873
1.09106
1.1129432
1.1312974
1.1454929
1.1556431
1.1621366
1.1657058
1.1673017
1.1677927
1.1677677
1.1675205
1.1670712
1.1663592
1.166025
1.1659679
1.1663167
1.1667128
1.1674654
1.1688865
1.1699472
1.1704893
1.170693
1.1706789
1.1695921
1.1689198
1.1685266
1.1683492
1.1684365
0.84744415
0.85693759
0.87779101
0.91139692
0.9107349
0.91819372
0.91425434
0.92016656
0.91938553
0.92497484
0.92671794
0.93306447
0.93746722
0.94550566
0.95330504
0.9642202
0.97644895
0.99173957
1.0094626
1.0302306
1.0532741
1.0775744
1.101186
1.1222722
1.1394848
1.152455
1.1613611
1.1666205
1.1691356
1.1699409
1.1698746
1.1693776
1.1687704
1.1680086
1.1670289
1.166535
1.1663946
1.1666243
1.1669656
1.1677383
1.1691546
1.1700809
1.1705363
1.170695
1.1705707
1.1695088
1.1688674
1.1684938
1.1683247
1.1684109
0.85156609
0.86114464
0.88359648
0.9168983
0.91454881
0.92215695
0.91828047
0.92431876
0.92367846
0.92944496
0.93140583
0.93800715
0.94275879
0.95116727
0.95948777
0.97095171
0.98389493
0.99994467
1.0185308
1.0401066
1.0637457
1.0881804
1.1113539
1.1314929
1.1474931
1.1592195
1.166785
1.1707934
1.172312
1.1724443
1.1718128
1.1708783
1.1699362
1.1688696
1.1676427
1.1670036
1.1667998
1.166911
1.1672119
1.1680212
1.1693858
1.1701926
1.1705757
1.1707035
1.1704387
1.1694272
1.1688166
1.1684612
1.168299
1.1683831
0.85588591
0.86551933
0.88961999
0.92228668
0.91848821
0.9262466
0.92244855
0.92861911
0.92813792
0.93409697
0.93629677
0.94317434
0.94830595
0.95711177
0.96599194
0.97804117
0.99173789
1.008583
1.0280511
1.0504082
1.074544
1.0989476
1.1215017
1.1405628
1.1553121
1.165714
1.1718721
1.1746417
1.1753022
1.1747812
1.1736134
1.172272
1.1710163
1.1696567
1.1682039
1.1674349
1.1671732
1.1671841
1.1674553
1.1683174
1.1695741
1.170284
1.1706078
1.1707076
1.1703052
1.1693476
1.1687674
1.1684287
1.1682722
1.1683533
0.86040581
0.87007395
0.89581128
0.9275669
0.92256165
0.9304785
0.92677969
0.93309124
0.9327836
0.93894762
0.9414116
0.94858812
0.95413036
0.9633593
0.97283884
0.9855109
1.0000005
1.017677
1.0380378
1.0611309
1.0856379
1.109828
1.1315841
1.1494642
1.1629324
1.1718701
1.1765883
1.1782145
1.1781206
1.1769474
1.1752779
1.1735629
1.1720138
1.1703727
1.1687175
1.1678327
1.1675045
1.1674516
1.1676978
1.1686055
1.169737
1.1703593
1.1706339
1.1707095
1.1701782
1.1692713
1.1687205
1.1683965
1.1682444
1.1683215
0.86520689
0.87488447
0.90216883
0.9327817
0.92680498
0.93488022
0.93128616
0.93774956
0.93763191
0.94401345
0.94677416
0.95426375
0.96025136
0.96993107
0.98005057
0.99338468
1.0087053
1.0272454
1.0484942
1.0722512
1.0969747
1.1207549
1.1415493
1.1581769
1.1702698
1.1776378
1.1809195
1.1815906
1.1807332
1.1789457
1.1768117
1.1747541
1.1729302
1.1710208
1.1691857
1.1681973
1.1678021
1.1677095
1.1679395
1.1688801
1.1698816
1.1704245
1.170657
1.1707105
1.1700558
1.1692019
1.1686768
1.1683648
1.1682159
1.1682879
0.87032169
0.88001441
0.90866228
0.93794448
0.93122193
0.93946116
0.93598424
0.94260988
0.94270291
0.94931734
0.95240092
0.96021656
0.96668839
0.97684933
0.98765041
1.001687
1.0178772
1.0373086
1.059425
1.0837466
1.1085069
1.1316763
1.1513673
1.1666913
1.1772438
1.1829797
1.1849418
1.1847543
1.183145
1.1807822
1.1782206
1.1758505
1.1737686
1.1716044
1.1696087
1.1685264
1.1680747
1.1679571
1.1681786
1.1691385
1.1700149
1.1704829
1.1706753
1.1707101
1.1699506
1.1691408
1.1686369
1.1683341
1.1681867
1.1682526
0.87562508
0.88544925
0.91528445
0.94310564
0.93581682
0.94423264
0.9408916
0.94769079
0.94801692
0.95487483
0.95830436
0.96646739
0.97346262
0.98413834
0.99566286
1.0104438
1.0275407
1.0478803
1.0708184
1.0955713
1.120166
1.1425294
1.1610046
1.1749324
1.1837843
1.1878763
1.1887374
1.1876766
1.1853581
1.1824626
1.1795101
1.176856
1.1745318
1.1721257
1.1699868
1.1688224
1.1683273
1.1681927
1.1684123
1.1693795
1.1701401
1.1705366
1.1706881
1.1707059
1.16986
1.1690875
1.1686016
1.1683054
1.1681575
1.1682157
0.88118767
0.89123306
0.92195926
0.94831216
0.9406218
0.94922114
0.94603099
0.95301242
0.95358719
0.96070066
0.96450022
0.9730376
0.9805976
0.99182296
1.0041137
1.0196825
1.037722
1.0589742
1.0826624
1.1076805
1.1318946
1.1532715
1.1704478
1.1828063
1.1898506
1.19241
1.1922872
1.1903628
1.1873818
1.1839952
1.1806875
1.1777762
1.1752232
1.1725868
1.1703218
1.1690881
1.1685643
1.1684162
1.1686387
1.1695989
1.1702539
1.1705885
1.1706997
1.1706879
1.1697805
1.1690402
1.1685703
1.1682798
1.1681297
1.1681774
0.88700991
0.89741279
0.92870861
0.95362545
0.94566182
0.95444555
0.95141313
0.95857717
0.95942347
0.96680567
0.97101632
0.9799492
0.98811811
0.99993109
1.0130303
1.0294331
1.0484422
1.0705925
1.0949201
1.120009
1.1436188
1.1638553
1.1796431
1.190212
1.1954097
1.1966685
1.1955611
1.1928173
1.1892227
1.1853868
1.1817588
1.1786158
1.1758456
1.1729891
1.1706161
1.1693265
1.1687801
1.1686284
1.1688596
1.169792
1.1703481
1.1706322
1.1707244
1.1706458
1.1697074
1.1689958
1.1685407
1.1682571
1.1681071
1.1681378
0.89308633
0.90400046
0.93550738
0.95917766
0.95091298
0.95988498
0.9570334
0.96439336
0.96554127
0.97321235
0.97787935
0.98722829
0.99605013
1.0084907
1.0224434
1.0397264
1.0597249
1.082732
1.1075552
1.132495
1.1552871
1.1742544
1.1884857
1.1971039
1.2005299
1.2006529
1.1985592
1.1950513
1.1908914
1.1866465
1.1827315
1.1793798
1.1764013
1.1733342
1.1708726
1.1695423
1.1689853
1.1688311
1.1690782
1.1699565
1.1704284
1.1706687
1.1707466
1.1705837
1.169637
1.1689518
1.1685112
1.1682364
1.1680903
1.1680976
0.89939288
0.91096324
0.94229977
0.96485367
0.95638543
0.96555391
0.96291472
0.97049024
0.9719703
0.97994978
0.98510722
0.99490117
1.0044205
1.0175338
1.0323876
1.0505935
1.0715846
1.0953701
1.1205055
1.1450585
1.1668363
1.1844289
1.1968508
1.2034312
1.2053068
1.2043288
1.2012892
1.1970733
1.1923963
1.1877819
1.1836115
1.1800712
1.17689
1.1736241
1.1710947
1.1697375
1.1691777
1.1690261
1.1692987
1.1700917
1.1704987
1.1706982
1.1707559
1.1705066
1.1695668
1.1689071
1.1684829
1.1682179
1.1680749
1.1680576
0.90600943
0.91835387
0.9491672
0.9704478
0.96212611
0.97149859
0.96909575
0.97689687
0.9787349
0.98703677
0.99272369
1.0029944
1.0132614
1.0270973
1.0428992
1.0620668
1.0840307
1.1084795
1.1337102
1.1576352
1.1782225
1.1942893
1.2046676
1.2092256
1.2097861
1.2076839
1.2037638
1.1988965
1.1937485
1.1888022
1.1844057
1.1806929
1.1773109
1.1738626
1.171286
1.1699153
1.1693606
1.1692141
1.1695073
1.1702089
1.1705578
1.1707205
1.1707603
1.1704171
1.1694953
1.1688611
1.1684552
1.1682023
1.1680582
1.1680193
0.91292069
0.92616653
0.95613569
0.9765633
0.96816298
0.97773262
0.97559046
0.98362664
0.98584962
0.99449494
1.000753
1.0115425
1.0226097
1.0372228
1.0540174
1.0741716
1.0970548
1.1220065
1.1470857
1.1701495
1.189395
1.2036944
1.2118733
1.2145861
1.2139244
1.2107304
1.2059937
1.2005311
1.1949572
1.1897151
1.1851196
1.1812482
1.1776665
1.1740565
1.1714509
1.1700782
1.1695339
1.1693954
1.1697008
1.1703093
1.1706035
1.1707352
1.1707618
1.1703162
1.1694221
1.1688145
1.1684279
1.1681876
1.1680392
1.1679831
0.92018564
0.9344362
0.96323046
0.98286606
0.97450763
0.98427395
0.98240933
0.99068545
0.99333039
1.0023483
1.0092396
1.0205857
1.0325075
1.0479544
1.0657822
1.0869282
1.1106394
1.1358926
1.1605586
1.182544
1.2003024
1.2125207
1.2184506
1.2196197
1.2176905
1.2134818
1.2079944
1.2019905
1.1960336
1.1905297
1.1857605
1.1817451
1.1779698
1.1742144
1.1715933
1.1702285
1.1696983
1.1695693
1.1698747
1.1703928
1.1706374
1.170743
1.1707619
1.1702061
1.1693479
1.1687684
1.1684008
1.1681724
1.1680184
1.1679483
0.92767554
0.9430936
0.9704506
0.9894401
0.98115329
0.99111723
0.98955724
0.99809179
1.0012064
1.0106432
1.0182208
1.03017
1.0430023
1.0593393
1.0782298
1.1003417
1.1247403
1.1500525
1.1740396
1.1947481
1.2107867
1.2206988
1.2244975
1.2242727
1.2211022
1.2159514
1.2097788
1.203286
1.1969867
1.1912533
1.1863345
1.1821933
1.1782413
1.1743396
1.1717163
1.1703681
1.1698538
1.1697349
1.170029
1.1704651
1.1706672
1.1707472
1.1707481
1.1700955
1.1692737
1.1687229
1.1683744
1.1681558
1.1679964
1.1679145
0.93547071
0.95222866
0.97791145
0.99630025
0.98811981
0.99828202
0.99706486
1.0058874
1.0095327
1.0194162
1.0277475
1.0403483
1.0541434
1.0714256
1.0913912
1.1144063
1.1393039
1.1644044
1.1874553
1.2067106
1.2207045
1.2281759
1.2301354
1.2285193
1.2241734
1.2181578
1.2113632
1.204431
1.1978274
1.1918944
1.1868482
1.1825994
1.1784847
1.1744177
1.1718213
1.1704983
1.1700003
1.1698912
1.1701653
1.1705287
1.1706916
1.1707506
1.1707141
1.1699859
1.1692006
1.1686788
1.168349
1.1681377
1.1679733
1.1678819
0.94346188
0.96171425
0.98559807
1.0033874
0.99541097
1.005803
1.0049938
1.0141398
1.0183723
1.0287138
1.0378616
1.0511757
1.0659868
1.0842598
1.1052853
1.1290891
1.1542486
1.1788458
1.2007161
1.218306
1.2299357
1.2350077
1.2353651
1.2323523
1.2269205
1.2201159
1.212761
1.2054363
1.1985643
1.1924599
1.1873062
1.182959
1.1786398
1.1744623
1.1719105
1.1706198
1.1701375
1.1700374
1.1702824
1.1705811
1.1707098
1.1707551
1.1706558
1.1698785
1.1691297
1.1686364
1.1683246
1.1681182
1.1679497
1.1678505
0.95169412
0.97167768
0.99310806
1.01088
1.0031685
1.0137831
1.0134106
1.0228908
1.0277575
1.0385994
1.0486257
1.0627137
1.0785891
1.097883
1.1199153
1.1443432
1.1694872
1.1932922
1.2137526
1.2293684
1.2384158
1.2413173
1.2401513
1.2357952
1.2293644
1.2218456
1.2139884
1.2063147
1.1992078
1.1929582
1.1877136
1.1832645
1.1786881
1.1744908
1.1719876
1.1707331
1.1702647
1.1701728
1.1703785
1.1706201
1.1707204
1.1707584
1.1705799
1.1697743
1.1690619
1.1685959
1.1683012
1.1680975
1.1679258
1.1678204
0.96022363
0.98220488
1.001245
1.0188146
1.0113817
1.0222236
1.0223377
1.0321761
1.0377415
1.0491303
1.0601038
1.0750307
1.0920067
1.1123241
1.1352605
1.1600887
1.1849088
1.2076383
1.2264742
1.2397155
1.2461257
1.2471885
1.2444598
1.2388636
1.2315235
1.2233628
1.2150584
1.2070768
1.1997661
1.1933961
1.1880762
1.1835174
1.1786842
1.174512
1.1720557
1.1708385
1.1703813
1.170294
1.1704557
1.1706481
1.1707253
1.1707571
1.1704931
1.1696741
1.1689976
1.1685572
1.1682783
1.168076
1.1679019
1.1677918
0.96892039
0.99329579
1.0099966
1.0271688
1.0200802
1.0311661
1.0318389
1.0420622
1.0483892
1.0603829
1.0723721
1.0881939
1.1062879
1.1275942
1.1512788
1.176235
1.2004104
1.2217898
1.2386963
1.2492716
1.2531918
1.2525691
1.2483229
1.2415836
1.2334214
1.2246873
1.2159867
1.2077343
1.2002486
1.1937815
1.1884017
1.1837324
1.178659
1.1745293
1.1721167
1.1709363
1.1704889
1.1704046
1.1705182
1.1706694
1.1707276
1.1707513
1.1703956
1.1695784
1.1689365
1.1685206
1.1682556
1.1680537
1.1678783
1.1677648
0.97788145
1.0050341
1.0187867
1.0360179
1.0293428
1.0406857
1.0419924
1.0526255
1.0597898
1.0724389
1.0855044
1.1022669
1.121466
1.1436804
1.1678942
1.1926608
1.215868
1.2356363
1.2502121
1.2579517
1.2597566
1.2574122
1.2517552
1.2439759
1.2350772
1.2258346
1.2167854
1.208297
1.200663
1.1941207
1.1886944
1.1839144
1.1786062
1.174542
1.1721719
1.1710265
1.1705877
1.1705056
1.1705696
1.1706865
1.1707267
1.1707386
1.1702887
1.1694875
1.1688783
1.1684858
1.1682327
1.1680307
1.1678553
1.1677394
0.98719286
1.017477
1.028215
1.0454533
1.0392343
1.050853
1.0528601
1.0639336
1.0720556
1.0853962
1.0995672
1.1172948
1.1375565
1.1605436
1.1850128
1.2092441
1.2311651
1.2490308
1.2608819
1.2658712
1.2657781
1.2617428
1.2547878
1.2460688
1.2365144
1.2268235
1.217469
1.2087759
1.2010184
1.1944202
1.188953
1.1840193
1.1785307
1.1745494
1.172223
1.1711095
1.1706749
1.1705902
1.1706131
1.170701
1.1707268
1.1707128
1.1701788
1.1694008
1.1688228
1.1684525
1.1682093
1.1680074
1.1678331
1.1677159
0.99687585
1.0306879
1.0381573
1.0555199
1.0498465
1.0617524
1.064551
1.0761076
1.0852471
1.0993219
1.1146133
1.1333167
1.1545553
1.1781148
1.2025069
1.2258449
1.2461639
1.2617324
1.2706082
1.2731642
1.2712098
1.2655795
1.2574443
1.2478851
1.237752
1.2276689
1.218049
1.2091799
1.2013218
1.1946845
1.1891737
1.1840625
1.1784384
1.1745496
1.1722709
1.171186
1.1707494
1.170651
1.170652
1.1707117
1.1707288
1.1706679
1.1700707
1.169318
1.16877
1.1684204
1.1681854
1.1679843
1.167812
1.1676942
1.0070046
1.0447647
1.0488021
1.0663277
1.0612827
1.073479
1.077164
1.0892366
1.0994366
1.1142757
1.130691
1.1503533
1.1724319
1.1962957
1.2202393
1.2423273
1.26074
1.2735369
1.2794357
1.2798689
1.2760487
1.2689574
1.259758
1.2494533
1.2388124
1.2283881
1.2185379
1.2095186
1.2015812
1.1949178
1.1893551
1.1840709
1.1783359
1.1745461
1.1723154
1.171254
1.1708111
1.1706943
1.1706838
1.1707168
1.170729
1.1706082
1.169965
1.1692388
1.1687194
1.168389
1.1681614
1.1679614
1.1677919
1.1676745
1.0177183
1.0597372
1.0602473
1.0779762
1.0736387
1.0861161
1.0907691
1.1033809
1.1146788
1.1303132
1.1478453
1.1684151
1.1911247
1.2149501
1.2380459
1.2585218
1.2746162
1.2843285
1.2875061
1.2859169
1.2803247
1.2719045
1.2617563
1.2507959
1.2397134
1.2289938
1.2189451
1.2097993
1.2018023
1.1951228
1.1895021
1.1840596
1.1782292
1.1745409
1.1723564
1.171312
1.1708606
1.1707283
1.1707126
1.1707199
1.1707253
1.1705362
1.1698621
1.1691628
1.1686709
1.1683578
1.1681372
1.167939
1.1677731
1.1676567
1.0291539
1.0756713
1.0725873
1.0905334
1.0870029
1.099737
1.1054423
1.1185607
1.1310195
1.1475087
1.1661263
1.1874807
1.2105295
1.2339174
1.2557603
1.2742713
1.2875603
1.2940858
1.2949275
1.2912871
1.2840749
1.2744606
1.2634732
1.2519398
1.240475
1.2295008
1.2192815
1.2100315
1.201991
1.1953033
1.1896225
1.1840298
1.1781237
1.1745344
1.1723942
1.1713617
1.1709026
1.1707541
1.1707257
1.1707227
1.1707151
1.1704529
1.169762
1.16909
1.1686241
1.1683267
1.1681124
1.1679174
1.1677555
1.167641
1.0414376
1.0925493
1.0859077
1.1040286
1.1014253
1.114392
1.1212009
1.134879
1.1485474
1.1659541
1.1855635
1.2074897
1.2304927
1.2530014
1.2731779
1.2893035
1.2993993
1.3029577
1.3016086
1.2960179
1.2873329
1.276658
1.2649357
1.2529064
1.2411128
1.2299205
1.219558
1.2102248
1.2021523
1.1954637
1.1897254
1.1839745
1.1780224
1.1745248
1.1724249
1.1714039
1.1709387
1.1707762
1.1707325
1.1707184
1.1706927
1.1703595
1.1696649
1.16902
1.1685788
1.1682957
1.1680874
1.1678967
1.1677394
1.1676273
1.0548879
1.1102639
1.1003016
1.1184598
1.1169547
1.1301412
1.1381611
1.1524983
1.1674151
1.1857231
1.2061369
1.2283099
1.2508181
1.2719936
1.2901003
1.3033366
1.3100755
1.3110989
1.307517