/*--------------------------------*- C++ -*----------------------------------*\
  =========                 |
  \\      /  F ield         | OpenFOAM: The Open Source CFD Toolbox
   \\    /   O peration     | Website:  https://openfoam.org
    \\  /    A nd           | Version:  8
     \\/     M anipulation  |
\*---------------------------------------------------------------------------*/
FoamFile
{
    version     2.0;
    format      ascii;
    class       surfaceVectorField;
    location    "0.0999939";
    object      rhoUf;
}
// * * * * * * * * * * * * * * * * * * * * * * * * * * * * * * * * * * * * * //

dimensions      [1 -2 -1 0 0 0 0];

internalField   nonuniform List<vector> 
39600
(
(196.68857 8.4224111e-17 7.2247624)
(182.79176 -2.5897094e-19 6.2214965)
(179.85961 -7.5038551e-21 6.813388)
(226.35488 3.2862564e-17 8.1532853)
(217.05152 1.8657013e-16 7.491465)
(214.01505 1.8304983e-16 8.1900819)
(249.47905 -1.4136802e-16 8.7929986)
(240.8986 -1.5144504e-16 8.1005448)
(237.94952 -1.4828308e-16 8.9009401)
(271.84261 -1.9304501e-17 9.3606032)
(262.95592 2.2577661e-18 8.6474012)
(260.14666 -8.9725301e-18 9.5186964)
(295.62473 1.0637929e-16 9.9334545)
(285.44053 -1.9616105e-18 9.0842468)
(282.81212 5.9149273e-17 10.057744)
(313.2095 5.3567882e-17 10.274486)
(310.34016 9.8060849e-17 9.8333128)
(308.16874 6.912425e-18 10.851236)
(319.5903 -7.8212176e-19 10.480486)
(317.76945 -4.2639262e-17 9.4046047)
(317.79773 -3.0926188e-19 10.558747)
(320.46575 -5.490215e-17 10.546266)
(321.53422 6.7771542e-20 10.552172)
(321.83399 -5.4747156e-19 11.675721)
(319.83828 -4.2810468e-17 10.560728)
(318.84532 -5.8591613e-17 9.1951602)
(319.13548 -8.9939407e-17 10.3904)
(320.20647 4.5476665e-17 10.618434)
(320.69342 2.4315243e-17 10.826746)
(320.96848 7.1787847e-17 11.959438)
(319.90784 5.8968194e-18 10.655)
(319.276 2.025763e-17 9.1819774)
(319.54933 -1.7407741e-17 10.393438)
(320.11227 -1.9716514e-17 10.717683)
(320.34289 -1.6824158e-17 10.892226)
(320.59428 -2.5567776e-18 12.056437)
(319.9386 1.4626561e-19 10.764238)
(319.52339 5.547715e-20 9.3693366)
(319.76114 5.2149914e-21 10.601905)
(320.07582 1.0208666e-19 10.824405)
(320.16281 9.246154e-20 10.819415)
(320.37014 -1.1596938e-17 12.034176)
(320.00995 -1.3606316e-19 10.864875)
(319.72669 -2.4976696e-18 9.6372419)
(319.91068 -2.8530098e-20 10.905957)
(320.1271 1.2010452e-18 10.901862)
(320.1515 -1.6839768e-19 10.677279)
(320.29961 7.9954147e-18 11.956452)
(320.134 -9.5166172e-19 10.906148)
(319.94226 -1.9692539e-18 9.8657975)
(320.05995 1.738766e-18 11.186739)
(320.2599 -3.1166669e-18 10.879518)
(320.25818 -7.1246632e-18 10.472811)
(320.33458 -2.8810126e-18 11.827225)
(320.33332 3.9040292e-20 10.787715)
(320.213 1.2072895e-18 9.9164838)
(320.24554 0 11.312735)
(320.4885 3.0605459e-18 10.614113)
(320.48829 8.1956569e-18 10.107171)
(320.46682 4.2707583e-20 11.55662)
(320.61912 4.2796888e-18 10.315771)
(320.57092 -6.9034149e-18 9.6002615)
(320.49373 3.2644575e-18 11.101131)
(320.79004 1.0296089e-17 9.8657947)
(320.82671 6.9818672e-19 9.3598112)
(320.69148 -8.4097998e-20 10.925515)
(320.91815 4.4435736e-18 9.2241342)
(320.9669 -3.9606284e-18 8.6706523)
(320.77555 7.3631355e-18 10.292265)
(321.00465 3.2816507e-18 8.3917801)
(321.13125 2.0188028e-17 7.9582492)
(320.89779 -5.0016019e-18 9.6412841)
(321.0315 5.7189423e-18 7.3715161)
(321.15351 -2.7282828e-17 6.9447305)
(320.89526 1.2047148e-17 8.6714465)
(320.8964 -1.0589546e-17 6.1542136)
(320.98471 1.7792394e-18 5.8102912)
(320.69445 -1.0346992e-17 7.5646836)
(320.33071 -2.087059e-17 4.8167171)
(320.52788 0 4.4876533)
(320.23137 -1.5672837e-18 6.2246177)
(319.30975 -1.9904387e-17 3.611234)
(319.76563 2.4310867e-17 3.2426888)
(319.51984 -2.0795728e-17 4.8958414)
(317.92303 4.5806766e-18 2.6673416)
(318.60559 6.2382569e-18 2.2372126)
(318.42399 9.9435526e-18 3.7512807)
(316.27439 -3.534879e-17 2.029469)
(317.09303 -4.5446974e-17 1.5630563)
(316.97099 2.3272122e-18 2.8964942)
(314.48681 -2.7861928e-17 1.6908363)
(315.35208 -1.8752535e-17 1.2069979)
(315.27924 -2.2590203e-17 2.3395556)
(312.69888 2.4709963e-17 1.5855601)
(313.5355 -5.8602767e-19 1.1253689)
(313.49663 5.5235636e-18 2.057115)
(311.02349 2.7300422e-17 1.6244658)
(311.77876 -4.2957753e-19 1.2218534)
(311.75968 7.3419369e-18 1.9652756)
(309.53057 7.2655192e-18 1.7170872)
(310.18352 8.2598456e-18 1.3945232)
(310.17281 9.9992684e-18 1.9723111)
(308.26446 -1.5800958e-17 1.7932282)
(308.80735 1.3806348e-17 1.564001)
(308.79817 -7.3349829e-18 2.0020246)
(307.22621 -1.4190539e-18 1.8056729)
(307.67214 -1.1579818e-17 1.6662049)
(307.66043 7.7231201e-18 1.9914761)
(306.40144 0 1.7431772)
(306.75054 1.5787843e-17 1.6801295)
(306.73653 -3.5269772e-18 1.9176755)
(305.77174 0 1.6047772)
(306.0387 8.3181034e-17 1.6061144)
(306.02304 0 1.7768762)
(305.31401 0 1.4019154)
(305.50264 0 1.4533384)
(305.48699 0 1.5739831)
(304.99652 0 1.1499783)
(305.13311 1.1912837e-16 1.2334669)
(305.11876 2.1889968e-18 1.3185331)
(304.78412 5.1197769e-17 0.86434386)
(304.87033 -1.6664784e-16 0.97441442)
(304.85793 6.0379781e-20 1.0328575)
(304.67133 5.5066805e-17 0.55101994)
(304.7103 -2.264922e-19 0.68235714)
(304.69991 1.5390709e-17 0.72156539)
(304.63486 -6.0385247e-17 0.20764021)
(304.64703 -1.0325211e-17 0.36087288)
(304.6389 -5.23649e-18 0.38827596)
(304.63737 -9.516223e-18 -0.14533638)
(304.6401 7.7555147e-18 -0.0066434689)
(304.63536 -1.1549428e-17 0.019066967)
(304.73065 1.2159585e-16 -0.18842677)
(304.6158 1.1890196e-17 -0.35250264)
(304.63848 1.0849406e-17 -0.33024586)
(304.78367 2.1120497e-17 -0.18645345)
(304.6076 1.2946928e-16 -0.59035008)
(304.62971 1.0093842e-17 -0.5815999)
(304.66919 -5.3039454e-17 -0.67264718)
(304.65613 5.6539741e-18 -0.70629569)
(304.63852 -7.7496786e-18 -0.71053798)
(304.70632 -2.69948e-18 -1.1505772)
(304.76293 -9.5322563e-18 -0.61803068)
(304.72965 3.0979221e-18 -0.63910277)
(305.03031 -4.0145429e-18 -0.53158736)
(304.99029 7.2509392e-21 -0.44358123)
(305.01902 -2.4952679e-18 -0.46338498)
(305.07768 3.2300575e-18 -0.65616495)
(305.07811 3.4085549e-18 -0.66820137)
(199.66971 8.4369255e-17 6.5509681)
(185.38297 -1.3354177e-16 5.5652657)
(229.24321 3.277592e-17 7.3565073)
(219.69608 9.2200255e-17 6.7225323)
(252.21249 -2.3107064e-17 7.9077282)
(243.44238 -7.4301956e-17 7.2496071)
(274.37521 1.951777e-17 8.3951655)
(265.35691 6.4149673e-17 7.7303842)
(297.79025 -1.7835729e-17 8.8783616)
(287.7046 -5.5860677e-17 8.0610364)
(314.14717 1.5048025e-17 9.1557427)
(312.02888 2.3209849e-17 8.7692378)
(319.3358 -4.5129517e-17 9.315592)
(317.59864 -4.1372335e-17 8.2262557)
(320.13091 1.0284653e-18 9.3716127)
(321.2454 1.8367515e-17 9.4098432)
(319.51487 5.0604498e-19 9.3817954)
(318.57805 -1.6278649e-17 7.9695751)
(319.88424 0 9.4285023)
(320.44529 1.3896481e-17 9.6734469)
(319.60316 9.7346956e-19 9.4538445)
(319.03337 -2.5657957e-18 7.9270461)
(319.82745 1.1681473e-18 9.4969507)
(320.13449 1.0582721e-18 9.6984953)
(319.67811 0 9.5215731)
(319.3255 0 8.0799413)
(319.84632 -2.2437294e-18 9.5539283)
(319.99741 0 9.5644689)
(319.81286 -2.7171156e-18 9.564113)
(319.57826 2.5240397e-18 8.3053512)
(319.96902 -3.1226394e-18 9.569683)
(320.03199 -4.1670939e-18 9.3486963)
(320.01858 -7.5918992e-18 9.536484)
(319.852 9.9347845e-19 8.4769315)
(320.19484 -3.5644375e-18 9.4702257)
(320.205 -6.338087e-18 9.055744)
(320.32396 8.6216671e-18 9.3295148)
(320.20141 -7.2952108e-18 8.441856)
(320.54315 -3.2747293e-19 9.1039715)
(320.52316 3.8889317e-18 8.5781228)
(320.74226 -1.1039814e-17 8.7454858)
(320.65891 -3.1640151e-18 8.0100344)
(320.98297 -1.2881512e-17 8.2412367)
(320.96309 -2.8383671e-18 7.7024079)
(321.1787 9.4241014e-18 7.5370105)
(321.15509 -1.409044e-17 6.9543301)
(321.33597 -5.7066568e-18 6.6607632)
(321.34896 3.0043297e-18 6.18127)
(321.33512 -3.3706247e-17 5.5936314)
(321.40461 2.1655632e-17 5.1152666)
(321.06029 1.2297322e-17 4.3737828)
(321.24815 1.1091951e-17 3.9663805)
(320.43188 4.2184037e-17 3.1155046)
(320.77578 0 2.7051242)
(319.41127 5.1633664e-17 2.0298931)
(319.9572 7.8444159e-17 1.5789731)
(318.01632 -3.8164795e-17 1.2498479)
(318.72899 -5.2966126e-17 0.72716148)
(316.36101 -3.1637812e-17 0.80054927)
(317.15856 1.1926825e-18 0.23499323)
(314.5689 6.3793175e-18 0.65451698)
(315.37427 8.7625056e-17 0.080041385)
(312.76611 -2.5444052e-17 0.74104794)
(313.5303 -1.3949717e-17 0.19994245)
(311.07421 -2.0132516e-17 0.95636184)
(311.76153 -1.0089102e-16 0.48404682)
(309.57488 1.4177328e-17 1.2027821)
(310.16505 1.1434604e-16 0.821666)
(308.30756 2.0624701e-17 1.4070434)
(308.7939 4.0263868e-17 1.1302819)
(307.26971 2.5822146e-18 1.522126)
(307.66687 -1.0226133e-17 1.3448391)
(306.44333 9.1126963e-17 1.538993)
(306.75222 3.1586265e-17 1.4462849)
(305.81006 9.2241292e-17 1.4609788)
(306.04552 1.6642824e-16 1.4391535)
(305.34803 1.05477e-16 1.3028316)
(305.51216 0 1.3368166)
(305.02502 -1.5254018e-17 1.0830567)
(305.14334 -2.0028925e-16 1.1528308)
(304.80595 -2.3652879e-16 0.8210424)
(304.88003 1.6814758e-16 0.92076203)
(304.6872 -6.4387972e-17 0.52400111)
(304.71903 -5.7766133e-17 0.64823541)
(304.64908 5.5793382e-17 0.18889692)
(304.65422 -1.0658693e-17 0.3384332)
(304.62591 2.8717022e-17 -0.16050436)
(304.64475 4.7214533e-17 -0.028100177)
(304.70093 9.5873911e-18 -0.13331157)
(304.58924 -4.6562774e-17 -0.37026643)
(304.73386 1.2803808e-16 -0.2691765)
(304.59659 2.1453023e-16 -0.59465676)
(304.72072 5.1178931e-17 -0.66162672)
(304.66598 5.8060645e-17 -0.6979284)
(304.77922 -5.4822634e-18 -0.98591924)
(304.7867 -1.4597549e-17 -0.59844711)
(305.01977 6.8991841e-18 -0.51260553)
(304.9705 7.3496208e-18 -0.42452316)
(305.07752 8.8839187e-17 -0.63508206)
(202.03525 -1.4395156e-16 5.838542)
(187.60091 -6.3198292e-17 4.8720861)
(231.60451 5.3773852e-19 6.5467929)
(221.97385 -4.7507586e-17 5.9215266)
(254.48337 1.7775033e-19 7.0251671)
(245.66075 -3.9373561e-17 6.366581)
(276.55772 -1.5285746e-19 7.4418846)
(267.49603 3.2723188e-17 6.7878062)
(299.65386 -2.1911432e-17 7.8339201)
(289.82183 4.4155177e-19 7.0084462)
(314.90486 -2.6870201e-17 8.0420396)
(313.48315 -2.5892289e-17 7.6752312)
(319.12994 1.6000382e-17 8.1505891)
(317.45362 -1.7512079e-20 7.0216361)
(319.88538 4.1598603e-18 8.1865992)
(321.03684 1.7403119e-17 8.2497331)
(319.29056 -5.5533136e-18 8.1849251)
(318.3696 -1.4475907e-17 6.7063639)
(319.6771 1.2675477e-17 8.2113012)
(320.26585 1.5105965e-17 8.4897768)
(319.41089 -2.7665694e-18 8.2163232)
(318.84877 -7.664446e-18 6.6290439)
(319.65739 0 8.2343039)
(319.98311 4.3055796e-18 8.4648084)
(319.52615 0 8.2320141)
(319.17743 0 6.7489184)
(319.71594 4.4605669e-18 8.2352352)
(319.87544 -1.503128e-18 8.2687211)
(319.70241 1.6341934e-18 8.2135429)
(319.4666 7.5854556e-19 6.9351519)
(319.88385 -5.521095e-19 8.1845307)
(319.94501 4.0941393e-19 7.975441)
(319.96325 2.8125981e-18 8.1099567)
(319.79233 1.3000983e-17 7.040449)
(320.17555 -9.9055297e-18 7.9915295)
(320.1832 5.2707754e-18 7.5805024)
(320.34689 -1.2837453e-17 7.7934901)
(320.21901 8.8601902e-18 6.9037207)
(320.61129 1.693087e-18 7.5046505)
(320.58448 -4.0056574e-18 6.9730831)
(320.85965 4.8441707e-18 7.0734613)
(320.76756 -1.0532394e-17 6.3381536)
(321.16575 -3.0765185e-18 6.5047687)
(321.10715 -1.7195885e-17 5.9543055)
(321.45279 -2.1821546e-17 5.7439034)
(321.3482 -4.8163175e-18 5.1368734)
(321.65638 2.8222039e-17 4.7942863)
(321.57171 -2.3904822e-17 4.3037301)
(321.63134 6.6483726e-17 3.6967857)
(321.63627 3.2330225e-17 3.2022573)
(321.30916 0 2.5099448)
(321.47378 -4.6394563e-17 2.0626656)
(320.59239 2.854405e-17 1.3457174)
(320.97399 9.8487595e-18 0.87878973)
(319.49129 -1.2275665e-17 0.41547025)
(320.08863 -3.317956e-17 -0.11726849)
(318.06186 -1.9304353e-17 -0.19459531)
(318.79544 8.506398e-18 -0.80614266)
(316.36661 1.1047039e-16 -0.45212277)
(317.16993 3.1966317e-17 -1.1066427)
(314.53439 7.7585625e-17 -0.39180061)
(315.34661 -1.4509166e-16 -1.0516071)
(312.7147 -7.9802328e-17 -0.1051817)
(313.48166 -1.1487292e-16 -0.72338967)
(311.0225 1.0207033e-17 0.29032342)
(311.70833 1.939178e-18 -0.2485167)
(309.5304 1.4795991e-16 0.69136177)
(310.11793 -2.0262557e-17 0.25445797)
(308.27438 1.4974131e-17 1.0229741)
(308.75835 -2.0683008e-16 0.70121069)
(307.24843 1.4091045e-17 1.2391567)
(307.64498 -1.8978015e-16 1.0264845)
(306.43207 9.1754491e-17 1.3338294)
(306.74172 1.5708888e-17 1.2137826)
(305.8063 9.290306e-17 1.3148776)
(306.04359 -9.7127449e-17 1.2721949)
(305.34889 -2.8236533e-16 1.2005255)
(305.51553 -1.7992007e-17 1.2192977)
(305.02839 -5.8455916e-17 1.0124793)
(305.14926 -9.1086815e-17 1.0706619)
(304.81081 3.7179166e-16 0.7738671)
(304.88678 -1.3971917e-16 0.86549398)
(304.69243 -9.4412388e-18 0.49224611)
(304.72595 1.4556708e-17 0.6124401)
(304.6507 -2.5806592e-17 0.1659258)
(304.66033 4.1159407e-20 0.31282422)
(304.65492 -1.9064684e-17 -0.069300739)
(304.63815 -5.3317838e-16 -0.052745042)
(304.69489 1.2560586e-16 -0.13708481)
(304.57122 1.9609989e-16 -0.3884739)
(304.72122 1.6195589e-16 -0.31923753)
(304.5905 -1.3457625e-16 -0.59729044)
(304.71962 0 -0.65072898)
(304.67209 0 -0.68830628)
(304.80226 3.2507277e-18 -0.82131203)
(304.80035 0 -0.57876702)
(305.01657 8.1577857e-17 -0.49503125)
(304.95919 3.6673856e-18 -0.40645642)
(305.07723 -3.9930402e-19 -0.61453355)
(204.07937 2.9736775e-17 5.0819882)
(189.47364 -2.0279009e-18 4.159033)
(233.69417 -8.7114689e-17 5.6858341)
(223.93312 4.9441264e-17 5.0867327)
(256.53429 -1.3178709e-17 6.0852744)
(247.60624 -7.8134644e-17 5.4472313)
(278.59498 3.5807607e-17 6.426063)
(269.41539 3.2454379e-17 5.8068057)
(301.38711 -1.4018895e-18 6.7236982)
(291.8213 0 5.9061414)
(315.57333 -1.680495e-18 6.8631101)
(314.76522 -2.5218812e-17 6.5297588)
(318.965 0 6.9332084)
(317.31066 2.0218321e-17 5.764171)
(319.69905 1.6844221e-18 6.9537908)
(320.8838 -2.2385589e-18 7.0510018)
(319.11346 3.3954356e-18 6.9397385)
(318.21156 1.8305451e-18 5.3944539)
(319.51427 -2.9847522e-18 6.9465249)
(320.14347 -4.7452159e-18 7.2660256)
(319.26079 -1.6941801e-18 6.9323945)
(318.71556 -7.6188479e-18 5.2865665)
(319.52486 4.6437462e-18 6.9281947)
(319.87878 -1.2098466e-19 7.1962068)
(319.40563 -1.3506036e-18 6.9040195)
(319.06595 0 5.3832265)
(319.61337 -5.3013299e-18 6.881898)
(319.78601 -1.4692599e-18 6.9427658)
(319.61916 -4.1205714e-19 6.8282914)
(319.38995 -4.0059224e-18 5.5318587)
(319.8283 1.2659216e-17 6.7588976)
(319.89489 2.2515207e-18 6.5646326)
(319.9428 1.603224e-17 6.6365499)
(319.76985 -1.0863447e-17 5.5584486)
(320.19462 2.3345264e-17 6.4600422)
(320.20002 -7.5657879e-18 6.0518862)
(320.41025 1.8555042e-17 6.1928988)
(320.26856 9.3327796e-18 5.309781)
(320.7407 -1.5439713e-17 5.8382856)
(320.66324 1.2413573e-17 5.3057954)
(321.08034 -3.1571311e-17 5.3356826)
(320.89673 5.8404055e-19 4.5957472)
(321.44753 -1.9942751e-17 4.6786509)
(321.27026 9.4087496e-18 4.1352856)
(321.71972 -5.2270282e-18 3.8510886)
(321.53716 -4.7233344e-18 3.2531098)
(321.8675 -2.4695339e-17 2.861845)
(321.77668 8.4048025e-18 2.3717549)
(321.78557 -7.1511198e-17 1.7640054)
(321.8364 -3.4004313e-17 1.2538514)
(321.39086 -4.1757182e-17 0.61985709)
(321.65455 1.5206122e-18 0.13700509)
(320.64795 -4.6919448e-17 -0.41823468)
(321.10825 1.9695606e-17 -0.96380104)
(319.54838 -1.6543156e-17 -1.2131958)
(320.16186 -1.4083393e-17 -1.8298796)
(318.07493 5.680518e-17 -1.6505024)
(318.80382 -4.2830693e-17 -2.3486599)
(316.33567 -2.0305761e-16 -1.7037301)
(317.12493 -1.0723951e-17 -2.4463844)
(314.48007 -3.3821211e-16 -1.4304723)
(315.26777 -5.791819e-17 -2.1731915)
(312.65143 -4.5791235e-17 -0.94144169)
(313.38942 -4.5546271e-18 -1.6332381)
(310.96241 -2.6005628e-17 -0.36562373)
(311.61953 7.83505e-17 -0.96745685)
(309.4818 -3.523588e-16 0.18861907)
(310.04263 -1.1391827e-16 -0.30082529)
(308.24077 -4.1177531e-16 0.64568307)
(308.7011 -1.0099602e-17 0.28163542)
(307.22944 -2.1019402e-16 0.96099965)
(307.60684 -3.97997e-17 0.71507615)
(306.42445 -1.5982039e-16 1.1318457)
(306.71935 1.5947912e-17 0.98594723)
(305.80649 -2.1616472e-16 1.1707594)
(306.03311 -1.7948888e-16 1.1081319)
(305.35365 1.8074691e-16 1.0994229)
(305.51288 -1.7917421e-17 1.103377)
(305.03504 -1.6681668e-16 0.94274076)
(305.15101 2.2603201e-16 0.98933869)
(304.81784 -5.1363725e-16 0.72732803)
(304.89072 -1.5603633e-16 0.81078432)
(304.69913 2.5623615e-17 0.46041507)
(304.73122 -2.9329339e-20 0.57702597)
(304.65148 -4.4688544e-16 0.14302401)
(304.66539 3.4128679e-16 0.28567625)
(304.65951 -4.0240747e-16 -0.034334759)
(304.62642 -1.882915e-18 -0.077985552)
(304.67421 -2.7401818e-17 -0.15856893)
(304.55852 1.2868152e-17 -0.40539664)
(304.70677 -3.1281252e-16 -0.34573318)
(304.58488 -2.8208666e-16 -0.59844439)
(304.73251 0 -0.63779104)
(304.67523 0 -0.67596373)
(304.82934 0 -0.71692329)
(304.81057 3.0668982e-16 -0.55860074)
(305.01199 -7.9259545e-17 -0.4769029)
(304.95333 -2.3077548e-16 -0.38912173)
(305.07684 8.0558092e-17 -0.59371031)
(206.03136 1.3080272e-17 4.3056103)
(191.21676 -1.3380673e-16 3.4082953)
(235.62526 6.8101556e-17 4.802546)
(225.74671 1.427751e-16 4.1981876)
(258.43384 -4.2143148e-17 5.1194966)
(249.42907 -3.7579887e-17 4.4704102)
(280.53208 0 5.378735)
(271.25043 0 4.7708904)
(303.04521 -2.1303308e-17 5.576681)
(293.8121 0 4.7402412)
(316.20441 -7.3647083e-18 5.6453175)
(315.97922 -2.3145928e-17 5.3255586)
(318.85128 1.977991e-17 5.678411)
(317.22254 2.1114685e-17 4.4505341)
(319.58182 -2.4130757e-18 5.6803767)
(320.8025 8.1971426e-20 5.8141277)
(319.00799 -5.6109438e-18 5.6541195)
(318.10715 -3.7742359e-18 4.0381936)
(319.4208 -9.0487253e-18 5.6429996)
(320.07148 -9.2438543e-18 6.0105918)
(319.172 -6.6716684e-18 5.6123967)
(318.62056 1.0621796e-17 3.913397)
(319.44674 -4.6686522e-18 5.5906263)
(319.80377 -6.3990267e-18 5.9051986)
(319.33461 0 5.5479758)
(318.97875 4.5778255e-19 3.9914384)
(319.56086 0 5.5018738)
(319.7246 6.481435e-18 5.5849431)
(319.58808 -1.9001363e-18 5.409211)
(319.35638 6.4237388e-19 4.0884236)
(319.82536 -1.970481e-17 5.2907808)
(319.88836 -5.2712239e-18 5.1091567)
(319.97492 -3.4214047e-17 5.1061233)
(319.79378 -1.7155045e-17 4.029732)
(320.2858 -2.2643795e-17 4.879539)
(320.23982 -2.4516649e-18 4.4683213)
(320.57846 3.0775161e-18 4.5355593)
(320.36098 1.2743226e-17 3.6550048)
(320.95382 2.9063812e-17 4.0949086)
(320.77924 -8.9653609e-18 3.5807438)
(321.28775 3.9913594e-17 3.5154874)
(321.0421 1.3450013e-17 2.8008516)
(321.62494 2.5450375e-17 2.7951523)
(321.43595 3.4904184e-17 2.271911)
(321.87674 7.5272409e-18 1.9251261)
(321.71604 1.0332172e-19 1.3376342)
(321.9897 2.9600989e-18 0.90467143)
(321.96603 -5.4917921e-17 0.41755168)
(321.86603 3.4587352e-17 -0.18112476)
(322.00147 -1.379415e-17 -0.70654836)
(321.48047 6.0263517e-17 -1.2628626)
(321.78845 4.6291175e-17 -1.8007457)
(320.73061 5.518143e-17 -2.2113947)
(321.1921 8.0139517e-17 -2.8217567)
(319.56032 -3.7322214e-17 -2.8599329)
(320.17826 1.24453e-16 -3.5551304)
(318.02631 -1.124679e-16 -3.107964)
(318.7536 9.6703173e-18 -3.8907043)
(316.24498 1.3723773e-16 -2.9465203)
(317.02376 -1.7080149e-16 -3.7740401)
(314.36693 2.6649535e-16 -2.4544823)
(315.13863 1.3402068e-16 -3.2765415)
(312.53666 1.098085e-16 -1.7612542)
(313.2546 1.2996817e-16 -2.5229638)
(310.86033 1.1210994e-17 -1.0063126)
(311.49616 -2.2993119e-17 -1.6674889)
(309.39929 2.1451061e-16 -0.30146605)
(309.94011 3.1767243e-16 -0.84018589)
(308.18018 3.6224319e-16 0.278042)
(308.62294 2.0675413e-16 -0.12551727)
(307.18931 1.7891803e-16 0.68958482)
(307.55304 1.4762851e-16 0.41266615)
(306.40061 1.7793241e-17 0.93418394)
(306.68549 -2.4346046e-16 0.76414046)
(305.79453 0 1.0291006)
(306.01431 -3.893572e-16 0.94779293)
(305.3494 0 0.99949438)
(305.50432 -2.9012539e-16 0.98946225)
(305.03523 2.798586e-16 0.87347202)
(305.14862 0 0.90899958)
(304.82064 3.3906628e-16 0.68084572)
(304.89182 3.1561809e-16 0.7565915)
(304.70342 2.7668827e-16 0.42778862)
(304.7348 4.3629987e-16 0.54185074)
(304.64922 8.2611221e-16 0.11863939)
(304.66924 3.5211399e-16 0.25664293)
(304.65393 4.1252557e-16 -0.034017512)
(304.61251 5.0958537e-16 -0.10397917)
(304.66172 -2.050538e-16 -0.18043895)
(304.54806 -1.7306053e-16 -0.42082507)
(304.69766 0 -0.36491518)
(304.57982 -8.3974338e-18 -0.5984707)
(304.73436 2.7401013e-16 -0.62301764)
(304.67714 0 -0.66182618)
(304.84037 1.3247355e-16 -0.64377231)
(304.81684 1.6310612e-17 -0.53784468)
(305.00959 -1.0393397e-16 -0.45870147)
(304.95073 -1.759053e-17 -0.37225427)
(305.07618 8.6221368e-18 -0.57294279)
(207.53698 -2.9368743e-17 3.4669102)
(192.67615 -1.0079326e-16 2.6269357)
(237.27529 5.3542494e-17 3.8465157)
(227.32494 9.6338855e-17 3.2904807)
(260.14843 6.6841136e-19 4.0752087)
(251.06243 -1.9467667e-17 3.457036)
(282.37637 0 4.2495402)
(272.93968 0 3.7016823)
(304.64449 0 4.3512877)
(295.7282 0 3.5286952)
(316.80677 1.2268983e-18 4.3615778)
(317.07055 1.61367e-18 4.0863691)
(318.79349 3.511876e-18 4.371148)
(317.13578 1.3332211e-18 3.1024497)
(319.52239 -9.4576653e-19 4.3636825)
(320.74484 2.2180226e-18 4.5554539)
(318.94536 -6.8949435e-18 4.3325087)
(318.01721 3.9650208e-18 2.6536653)
(319.36245 8.4287251e-18 4.3118917)
(320.01342 -3.0655969e-18 4.7359063)
(319.10817 1.2229965e-17 4.2700261)
(318.5429 1.0193821e-17 2.5177484)
(319.39065 -1.9267766e-18 4.233612)
(319.74053 -6.5306196e-18 4.5928957)
(319.29358 6.3186926e-18 4.1625944)
(318.93023 4.4751581e-19 2.5660515)
(319.54946 7.5714792e-18 4.0778399)
(319.71184 1.4003323e-19 4.183166)
(319.62033 -2.181213e-18 3.9445555)
(319.3617 6.2820347e-19 2.5905661)
(319.9158 -1.8274559e-18 3.7715974)
(319.93342 -3.132521e-18 3.5924966)
(320.11614 1.2714267e-17 3.5233747)
(319.86643 1.2647939e-17 2.4457896)
(320.44708 3.0939013e-17 3.2202061)
(320.32639 1.4741574e-17 2.8343051)
(320.72912 2.7605135e-18 2.8140416)
(320.47142 -7.7247168e-19 1.9569163)
(321.09041 -2.606384e-17 2.3101523)
(320.90564 -2.0650179e-17 1.8213752)
(321.41931 6.7389357e-18 1.6753636)
(321.18685 -3.5438842e-18 0.98472041)
(321.74042 1.2992666e-17 0.8991372)
(321.59743 1.1663661e-17 0.39393352)
(321.95019 -5.645478e-17 -0.018036174)
(321.87874 -5.037295e-18 -0.58467385)
(322.0599 -7.4937287e-17 -1.0391032)
(322.11695 1.077701e-17 -1.5443102)
(321.97533 -7.632781e-18 -2.1302987)
(322.13405 -6.889144e-18 -2.6796211)
(321.56525 6.2794021e-17 -3.1728416)
(321.87844 0 -3.7518833)
(320.74574 1.44245e-16 -4.0168287)
(321.22064 -1.2456933e-17 -4.6905387)
(319.51377 1.8160186e-16 -4.5063295)
(320.13401 -6.1746484e-17 -5.2783412)
(317.92232 -3.0564312e-17 -4.5530932)
(318.64243 9.5083542e-17 -5.4182609)
(316.10318 -2.0391808e-16 -4.1685823)
(316.86548 1.5724645e-17 -5.0779268)
(314.21188 -5.3841931e-19 -3.4545249)
(314.95937 4.8909659e-19 -4.3518126)
(312.38813 1.4098334e-17 -2.5576442)
(313.07808 1.4507296e-17 -3.3847803)
(310.73147 2.4537089e-16 -1.6264644)
(311.33934 1.8909553e-16 -2.342679)
(309.29637 3.2155975e-16 -0.77493931)
(309.81146 2.7982085e-16 -1.3591155)
(308.10452 0 -0.07699512)
(308.52477 -1.4198586e-17 -0.5168397)
(307.13839 -2.2973262e-16 0.42712216)
(307.48428 3.5627809e-16 0.12182069)
(306.36921 -6.3253338e-16 0.74248656)
(306.64069 -1.3427741e-17 0.55027357)
(305.77732 -6.8928138e-16 0.89112499)
(305.98758 4.1944145e-16 0.79258068)
(305.34158 -3.2258526e-16 0.90166325)
(305.4901 -6.0785261e-16 0.87856435)
(305.03298 0 0.80536872)
(305.14224 1.3446194e-17 0.8304134)
(304.8218 3.9910528e-16 0.63500214)
(304.8902 -1.9849965e-17 0.70350375)
(304.7067 5.2136841e-16 0.395004)
(304.7367 -2.468664e-19 0.50726412)
(304.64569 1.698139e-17 0.092914758)
(304.67164 -3.1929531e-16 0.22620692)
(304.64286 1.459975e-18 -0.047063041)
(304.59762 -7.8165327e-18 -0.13034617)
(304.64703 8.6015266e-18 -0.2055706)
(304.53903 3.7620192e-16 -0.4345946)
(304.68829 -9.374621e-18 -0.37853964)
(304.57477 -8.4459312e-18 -0.59766785)
(304.73751 -2.6221675e-16 -0.6070252)
(304.67687 -1.2263772e-17 -0.64714092)
(304.84857 -1.3396524e-16 -0.59930445)
(304.82195 2.0924401e-18 -0.51626852)
(305.00789 9.3305741e-17 -0.44047691)
(304.94958 2.1650304e-16 -0.35578668)
(305.07518 -1.6573598e-16 -0.5523027)
(209.13928 6.123867e-18 2.626309)
(194.03852 -3.3605947e-17 1.771408)
(238.9078 3.4008743e-17 2.8920027)
(228.82199 4.7193529e-17 2.3803436)
(261.82782 -2.1633218e-17 3.0311445)
(252.64699 -1.9610705e-17 2.4124265)
(284.18915 0 3.1156142)
(274.61134 0 2.5962659)
(306.19031 1.4509403e-18 3.1168238)
(297.65085 1.9037918e-18 2.2710908)
(317.37032 1.7393734e-18 3.0716603)
(318.09648 -6.3162785e-20 2.8208608)
(318.74799 0 3.0559233)
(317.10572 2.7859427e-18 1.7285263)
(319.47665 6.8803973e-18 3.0321818)
(320.73384 -2.7784071e-21 3.2873169)
(318.90167 8.258369e-18 2.9927937)
(317.95026 1.0379444e-17 1.2519893)
(319.3317 -2.3793456e-18 2.9603467)
(319.97412 -8.4872327e-19 3.4439069)
(319.09621 -6.8287538e-18 2.9080477)
(318.47837 2.8276834e-18 1.0853449)
(319.42512 -4.7626396e-18 2.8476836)
(319.72649 -4.2891564e-18 3.2244949)
(319.37065 -5.5630104e-18 2.727898)
(318.96968 -7.4984376e-18 1.0725605)
(319.6602 -6.6821343e-18 2.5863437)
(319.78046 -2.9119389e-18 2.7187046)
(319.74201 0 2.4008437)
(319.42288 -2.6138217e-18 1.0405213)
(320.03242 9.7457614e-18 2.1799279)
(320.01167 0 2.0271694)
(320.22361 1.4431042e-17 1.8896737)
(319.95342 1.0618408e-17 0.82442525)
(320.5516 -1.5004445e-17 1.5329822)
(320.43258 9.1399747e-18 1.1725887)
(320.8366 -2.2017822e-17 1.0805779)
(320.59004 -2.506179e-17 0.24497183)
(321.18777 0 0.51809164)
(321.04468 3.0334921e-17 0.05027193)
(321.48737 0 -0.17415909)
(321.33297 3.6147065e-18 -0.83467482)
(321.80287 -4.6050751e-18 -0.98888531)
(321.74407 6.1935081e-18 -1.4872278)
(322.06237 5.9606034e-17 -1.948206)
(322.02933 -1.0157183e-17 -2.5149458)
(322.19508 7.9158585e-17 -3.010214)
(322.25251 6.265985e-17 -3.5194002)
(322.06619 0 -4.1024675)
(322.23659 7.2566359e-18 -4.6701714)
(321.59923 -7.2943773e-17 -5.0920817)
(321.92513 0 -5.7129842)
(320.71447 -2.1082807e-16 -5.822484)
(321.1956 8.670083e-17 -6.5568654)
(319.40799 -1.6189051e-16 -6.1398934)
(320.03025 -1.3432125e-16 -6.9870098)
(317.7588 1.4853017e-16 -5.9740529)
(318.47156 -1.4094594e-17 -6.9194697)
(315.90723 2.1915842e-16 -5.36013)
(316.65192 1.8211259e-16 -6.3477495)
(314.00951 1.3946187e-17 -4.4225442)
(314.73216 -2.8580917e-16 -5.3907053)
(312.20059 1.6988695e-16 -3.3242206)
(312.86201 -7.3157325e-18 -4.2121746)
(310.57166 2.1366623e-16 -2.2212031)
(311.15105 8.18495e-18 -2.9880432)
(309.1693 -2.2172888e-17 -1.2281219)
(309.6583 -3.238096e-16 -1.8538669)
(308.01037 2.999638e-16 -0.41668466)
(308.40788 1.0242989e-19 -0.88953318)
(307.07358 6.1162249e-16 0.17563515)
(307.40154 -4.5584484e-18 -0.15539357)
(306.32754 9.8599363e-16 0.55821268)
(306.58561 2.6801063e-16 0.34584601)
(305.7526 6.1483649e-16 0.75785317)
(305.95338 1.742354e-17 0.64356621)
(305.32835 -3.4260194e-16 0.80664282)
(305.4705 8.2421065e-16 0.7714341)
(305.02692 -2.5956463e-18 0.73894095)
(305.13206 -4.1876417e-16 0.75414205)
(304.82036 -4.2121901e-16 0.59014577)
(304.88596 -9.9137855e-18 0.65198722)
(304.70809 -8.0443508e-16 0.36253865)
(304.73682 -4.6555997e-16 0.47334641)
(304.64041 -3.8004119e-16 0.065821072)
(304.67214 3.3942759e-16 0.1949524)
(304.63158 3.2347153e-16 -0.061807078)
(304.58189 7.7571741e-18 -0.15672655)
(304.63644 4.0729319e-16 -0.22271717)
(304.53065 3.2903647e-18 -0.44648076)
(304.67803 -1.0911561e-17 -0.39658942)
(304.57139 -5.3884555e-16 -0.59622713)
(304.73833 2.5324581e-16 -0.59035866)
(304.68025 -6.2913339e-18 -0.63127629)
(304.85273 3.3138152e-16 -0.56742735)
(304.82627 2.5095192e-17 -0.49405992)
(305.00672 -1.5581349e-18 -0.42237184)
(304.94901 -4.3887772e-16 -0.3396317)
(305.07377 -3.1516324e-16 -0.53183132)
(210.48741 0 1.7399028)
(195.27911 0 0.87086444)
(240.41607 0 1.8813729)
(230.21878 1.5804996e-18 1.4450544)
(263.43746 0 1.9256553)
(254.16045 0 1.3294541)
(285.96234 1.7119365e-18 1.9143004)
(276.22626 -4.4620931e-18 1.4492751)
(307.68085 5.772596e-19 1.8205413)
(299.50829 5.7295334e-18 0.96693913)
(317.89824 7.370039e-19 1.7390542)
(318.95408 -7.707322e-19 1.5293887)
(318.76889 3.000396e-18 1.7154574)
(317.04475 4.839488e-18 0.32246227)
(319.51288 2.6049131e-18 1.6839779)
(320.73138 -4.7051412e-18 1.9908586)
(318.9496 2.3596053e-18 1.6318706)
(317.92348 2.8348631e-18 -0.19742126)
(319.40642 3.9506188e-18 1.5656444)
(320.02969 -8.3544204e-19 2.0972727)
(319.16637 5.8556293e-18 1.4723064)
(318.51322 -1.7125827e-19 -0.41442598)
(319.50297 -6.7284918e-18 1.3624207)
(319.80475 1.8250834e-17 1.7887266)
(319.4562 -5.2689491e-18 1.2123212)
(319.04059 7.9015381e-18 -0.4746922)
(319.74189 1.0379223e-18 1.0442958)
(319.8641 -6.4652161e-18 1.2128902)
(319.82084 -2.8226336e-18 0.82743488)
(319.50271 -1.5846329e-17 -0.53230812)
(320.1136 0 0.5733799)
(320.10248 1.3347441e-17 0.44539437)
(320.30641 5.5542635e-18 0.2486448)
(320.05065 1.4880245e-17 -0.80696935)
(320.62224 2.0715689e-18 -0.15781359)
(320.55124 9.1650125e-18 -0.49854939)
(320.88557 2.1668105e-17 -0.65963968)
(320.71308 -5.0282521e-18 -1.4669392)
(321.23846 3.6097926e-17 -1.2628504)
(321.17313 2.9773846e-17 -1.7225445)
(321.58877 9.4715259e-18 -2.0094863)
(321.47668 3.543989e-18 -2.6607239)
(321.94662 2.1380478e-18 -2.8926111)
(321.88951 4.9801116e-17 -3.3803652)
(322.19581 -1.3466362e-17 -3.9077974)
(322.16701 1.8491986e-19 -4.4630546)
(322.29199 -3.1257291e-18 -4.9989146)
(322.36284 -8.6779934e-18 -5.5132176)
(322.12168 7.9047327e-18 -6.0837835)
(322.30272 -1.2090031e-16 -6.6714956)
(321.58773 1.4926666e-16 -7.0118835)
(321.92382 -1.9021833e-19 -7.6742295)
(320.6218 1.8263434e-16 -7.6149589)
(321.11264 -1.7018682e-16 -8.4105666)
(319.24158 0 -7.7477125)
(319.86437 0 -8.6690763)
(317.53785 0 -7.3596697)
(318.23988 2.3474057e-16 -8.3830174)
(315.66019 -2.7063471e-16 -6.5117148)
(316.38341 1.9161896e-16 -7.5738803)
(313.7646 -3.3494917e-16 -5.3510408)
(314.45831 6.7913928e-18 -6.3853675)
(311.97888 -1.6914892e-16 -4.0552459)
(312.60816 0 -4.9990327)
(310.38506 -4.9006849e-16 -2.7861928)
(310.93307 -1.8887549e-16 -3.5989591)
(309.02167 -3.360567e-16 -1.6577644)
(309.48223 -3.150733e-17 -2.3209609)
(307.90074 -3.0205356e-16 -0.73860255)
(308.27358 2.8436469e-17 -1.2409777)
(306.99734 -3.7606435e-16 -0.063081248)
(307.30583 4.9151682e-18 -0.41701711)
(306.27754 -6.6879959e-16 0.38267258)
(306.52101 5.4483404e-16 0.15230051)
(305.72187 1.3615389e-16 0.63023977)