/*--------------------------------*- C++ -*----------------------------------*\
  =========                 |
  \\      /  F ield         | OpenFOAM: The Open Source CFD Toolbox
   \\    /   O peration     | Website:  https://openfoam.org
    \\  /    A nd           | Version:  8
     \\/     M anipulation  |
\*---------------------------------------------------------------------------*/
FoamFile
{
    version     2.0;
    format      ascii;
    class       volScalarField;
    location    "0.0999939";
    object      T;
}
// * * * * * * * * * * * * * * * * * * * * * * * * * * * * * * * * * * * * * //

dimensions      [0 0 0 1 0 0 0];

internalField   nonuniform List<scalar> 
20000
(
287.5314
287.6619
286.86255
284.81267
280.70485
272.70373
268.4904
267.53007
268.51509
268.16786
268.81744
268.72725
269.24677
269.35346
269.82969
270.10506
270.623
271.07556
271.70702
272.37205
273.19986
274.14323
275.26873
276.57495
278.08947
279.77373
281.71319
283.81397
285.94402
287.98323
289.84667
291.48899
292.88004
294.03036
294.95661
295.68849
296.2649
296.71252
297.06049
297.32957
297.55011
297.72669
297.87236
298.01941
298.1641
298.2901
298.37986
298.42332
298.25262
298.1853
286.43792
286.36055
285.38607
283.12024
278.73948
270.41878
267.04611
266.16099
267.15063
266.80469
267.46147
267.37302
267.90225
268.01877
268.51038
268.80661
269.34947
269.83755
270.5106
271.23405
272.13339
273.16911
274.40557
275.84187
277.52105
279.46074
281.57922
283.75349
285.91284
287.97269
289.85029
291.49962
292.89787
294.0472
294.96932
295.69589
296.2686
296.7145
297.06171
297.33116
297.55332
297.73105
297.87776
298.02589
298.2034
298.32846
298.37723
298.37051
298.25915
298.1723
285.49048
285.254
284.12261
281.66044
276.99486
268.50042
265.83046
264.98989
265.98956
265.63996
266.30837
266.22636
266.76985
266.90388
267.4135
267.73755
268.30729
268.83754
269.55692
270.34678
271.32239
272.455
273.80889
275.38024
277.21
279.26233
281.46679
283.715
285.91897
288.01103
289.91411
291.57027
292.96216
294.10145
295.0125
295.72865
296.29318
296.73276
297.07561
297.34254
297.5629
297.73862
297.88444
298.03944
298.21791
298.33088
298.3804
298.3733
298.25553
298.16828
284.69967
284.31727
283.04911
280.40668
275.44673
266.91856
264.87799
264.06395
265.07644
264.72933
265.41279
265.33992
265.89813
266.04833
266.57407
266.92248
267.51754
268.08923
268.85149
269.70333
270.75451
271.97968
273.44381
275.14707
277.07287
279.1984
281.45072
283.72859
285.97734
288.10103
290.01114
291.66184
293.04183
294.16595
295.06193
295.76462
296.31895
296.75124
297.08921
297.35349
297.57234
297.74619
297.89147
298.05674
298.23731
298.34277
298.38536
298.35351
298.25491
298.16106
284.15464
283.61159
282.2086
279.39124
274.10284
265.60933
264.16007
263.35537
264.38334
264.03701
264.7341
264.6698
265.24104
265.40796
265.95011
266.32611
266.94923
267.56645
268.38033
269.29878
270.42788
271.74964
273.29091
275.05224
277.0224
279.1847
281.46717
283.81336
286.10623
288.2458
290.15441
291.79072
293.14962
294.25187
295.12766
295.81305
296.35415
296.7767
297.10799
297.36827
297.58436
297.75509
297.89946
298.07619
298.25116
298.34971
298.39014
298.34735
298.25074
298.15576
283.60608
282.98598
281.50095
278.53631
272.90445
264.54111
263.6358
262.83545
263.87871
263.53452
264.24432
264.18742
264.76928
264.95447
265.51697
265.92883
266.58429
267.24946
268.11975
269.10541
270.28478
271.64889
273.22542
275.02528
277.0269
279.2336
281.58972
283.9803
286.29821
288.44113
290.33483
291.94663
293.27746
294.35236
295.20382
295.86878
296.39438
296.80562
297.12917
297.38474
297.59756
297.76472
297.90839
298.0965
298.26521
298.35752
298.3947
298.33787
298.24638
298.1504
283.37031
282.59734
280.99673
277.87476
271.85372
263.66235
263.27663
262.46848
263.52492
263.18116
263.90255
263.85886
264.45215
264.66121
265.24928
265.70283
266.39705
267.1077
268.00535
269.02255
270.22576
271.61947
273.2218
275.04886
277.11942
279.39481
281.79656
284.22298
286.55251
288.68467
290.55282
292.13114
293.42664
294.46876
295.2918
295.93323
296.44097
296.83916
297.15369
297.40366
297.61241
297.7755
297.91907
298.11713
298.27749
298.36349
298.39903
298.33052
298.24139
298.14597
283.08126
282.22859
280.55431
277.30007
270.89027
262.9746
263.03627
262.22379
263.29549
262.95265
263.68867
263.67593
264.27938
264.52006
265.12786
265.60587
266.31362
267.04678
267.95872
268.99854
270.21999
271.63612
273.28658
275.18614
277.31559
279.64356
282.08902
284.53521
286.86185
288.97126
290.80329
292.33985
293.5938
294.59847
295.38957
296.00479
296.49267
296.87637
297.18087
297.42447
297.62851
297.78752
297.93251
298.13755
298.2889
298.36833
298.40163
298.32294
298.23665
298.14207
282.94441
281.97327
280.21311
276.83979
270.01555
262.45797
262.90386
262.084
263.18819
262.84862
263.60355
263.58905
264.20591
264.46086
265.07369
265.56713
266.28247
267.03482
267.95715
269.0164
270.27573
271.75275
273.46076
275.41465
277.60252
279.98028
282.45549
284.91025
287.22173
289.29689
291.08347
292.57082
293.77753
294.74052
295.4965
296.08308
296.54929
296.91717
297.21067
297.44715
297.64577
297.80098
297.9499
298.15721
298.29893
298.37201
298.40308
298.31588
298.2321
298.13877
282.77058
281.75248
279.90672
276.43375
269.1993
262.08071
262.84499
262.0227
263.12659
262.79656
263.553
263.55054
264.17747
264.44325
265.06015
265.56675
266.28749
267.0587
268.0138
269.12313
270.4287
271.95418
273.71657
275.73015
277.97084
280.39002
282.88791
285.33994
287.62502
289.65601
291.38885
292.82056
293.97522
294.89299
295.61118
296.16708
296.61008
296.96105
297.24276
297.47143
297.66394
297.81588
297.97194
298.17604
298.30782
298.37433
298.40372
298.30898
298.22783
298.13586
282.73952
281.60011
279.64492
276.06005
268.42884
261.80356
262.82789
261.99772
263.10611
262.77597
263.5407
263.54029
264.17837
264.45416
265.07604
265.6092
266.35474
267.16731
268.15448
269.30465
270.65508
272.23489
274.05229
276.12042
278.41153
280.86736
283.37879
285.81823
288.06663
290.04428
291.716
293.08641
294.18486
295.05439
295.73255
296.25603
296.67452
297.00766
297.2769
297.49711
297.6828
297.83198
297.99808
298.19442
298.31606
298.37531
298.40415
298.30232
298.22367
298.13323
282.69064
281.45253
279.38832
275.68245
267.69816
261.60368
262.83023
261.98732
263.11021
262.77196
263.55429
263.56329
264.2204
264.52102
265.16009
265.72317
266.49027
267.33675
268.358
269.55337
270.94997
272.58133
274.45311
276.57656
278.91533
281.40222
283.91983
286.33733
288.53988
290.45628
292.06061
293.36507
294.40398
295.22293
295.85931
296.34898
296.74196
297.05656
297.31279
297.52393
297.70214
297.84891
298.02609
298.21325
298.32467
298.37557
298.40158
298.29575
298.21952
298.13077
282.67505
281.32141
279.13886
275.30227
267.02427
261.47618
262.87409
262.04852
263.16336
262.85695
263.62667
263.65856
264.32013
264.64507
265.29801
265.8907
266.68135
267.56476
268.6203
269.85925
271.30247
272.98752
274.91484
277.09259
279.47678
281.98962
284.50542
286.89194
289.04001
290.88791
292.41935
293.65389
294.63056
295.39707
295.9903
296.44511
296.81179
297.10736
297.35017
297.55165
297.72183
297.86636
298.0544
298.23201
298.33406
298.37642
298.3958
298.28881
298.2153
298.12841
282.66751
281.22837
278.91748
274.93137
266.44095
261.43785
262.97007
262.14271
263.2672
262.97107
263.74784
263.81295
264.46908
264.81861
265.48543
266.10792
266.92112
267.84016
268.93065
270.21478
271.70638
273.44579
275.4296
277.66174
280.0888
282.62197
285.12824
287.47522
289.561
291.33418
292.78824
293.94983
294.8623
295.57514
296.12431
296.54351
296.88338
297.15963
297.38875
297.58004
297.74179
297.88424
298.08177
298.24975
298.34398
298.37943
298.38646
298.28124
298.211
298.12615
282.72523
281.18709
278.72737
274.54469
265.94488
261.47115
263.1003
262.28487
263.42034
263.13012
263.91979
263.99737
264.65947
265.03273
265.7128
266.36509
267.20198
268.15795
269.28496
270.61543
272.15733
273.95312
275.9948
278.28093
280.74782
283.29526
285.78371
288.08262
290.09866
291.7915
293.1643
294.2505
295.09735
295.75573
296.26027
296.64339
296.95615
297.21296
297.42829
297.60893
297.76209
297.90282
298.10768
298.26601
298.35354
298.38589
298.37441
298.27334
298.20673
298.12395
282.81322
281.17213
278.55676
274.12648
265.53552
261.56409
263.27075
262.45533
263.60444
263.3206
264.12119
264.21281
264.88283
265.28146
265.97519
266.65835
267.5196
268.51311
269.67836
271.05697
272.65144
274.50515
276.60585
278.94521
281.44826
284.00317
286.46544
288.70807
290.6477
292.25547
293.54405
294.55319
295.33368
295.93732
296.39705
296.74392
297.02952
297.26693
297.4685
297.63828
297.78292
297.92285
298.13198
298.28068
298.36207
298.39213
298.36066
298.26539
298.20256
298.12183
282.92537
281.1868
278.40944
273.67223
265.2179
261.71334
263.46989
262.65797
263.81807
263.5425
264.34976
264.45968
265.13631
265.56077
266.26875
266.98319
267.87039
268.903
270.10885
271.53766
273.18707
275.10067
277.26143
279.65281
282.18739
284.74226
287.16947
289.34764
291.20454
292.72302
293.92494
294.8559
295.56972
296.1187
296.53373
296.84438
297.10296
297.32119
297.50909
297.66801
297.80453
297.9453
298.15446
298.2938
298.36876
298.39629
298.34783
298.25767
298.19854
298.1198
283.06306
281.22808
278.2845
273.1749
264.99008
261.90151
263.69535
262.88629
264.05494
263.79009
264.60046
264.73238
265.4159
265.86773
266.59059
267.33773
268.25233
269.32544
270.57422
272.0553
273.76196
275.73705
277.95849
280.39976
282.96036
285.50687
287.89008
289.99602
291.76459
293.19037
294.30399
295.15633
295.80375
296.29858
296.66934
296.94403
297.17595
297.37534
297.54967
297.69779
297.82712
297.97083
298.17502
298.30538
298.37377
298.39882
298.33541
298.25031
298.19468
298.11784
283.22685
281.29769
278.1841
272.63655
264.85319
262.13924
263.94373
263.13743
264.31008
264.06114
264.87501
265.02975
265.72028
266.20037
266.93916
267.71974
268.66383
269.77939
271.07384
272.60938
274.37571
276.41402
278.69644
281.1847
283.7647
286.29382
288.62375
290.64985
292.32481
293.65496
294.67913
295.45286
296.03449
296.47596
296.80311
297.0423
297.24804
297.42909
297.59004
297.72738
297.85065
297.9988
298.19439
298.31525
298.37723
298.40027
298.32349
298.24329
298.19095
298.11593
283.40276
281.38053
278.09726
272.06033
264.79818
262.40099
264.21064
263.40879
264.58501
264.35402
265.17062
265.35003
266.04762
266.55715
267.3128
268.12848
269.10418
270.26405
271.60668
273.19875
275.02698
277.12992
279.47282
282.00401
284.59568
287.09776
289.36523
291.30437
292.88123
294.11361
295.0479
295.74361
296.26055
296.6498
296.93424
297.13861
297.31879
297.4821
297.62991
297.75664
297.875
298.02865
298.21322
298.32373
298.37921
298.401
298.31211
298.23661
298.18733
298.11406
283.59427
281.48086
278.02355
271.44906
264.82263
262.66157
264.4954
263.70174
264.87979
264.66834
265.48687
265.69206
266.3968
266.93688
267.71092
268.56313
269.57299
270.77922
272.17273
273.82356
275.71609
277.88499
280.28723
282.85618
285.45076
287.91553
290.11126
291.95656
293.43128
294.56425
295.40869
296.02731
296.48092
296.81942
297.06213
297.23249
297.38785
297.53411
297.66906
297.78536
297.89983
298.05973
298.23201
298.33167
298.37976
298.40158
298.30137
298.23021
298.18378
298.1122
283.80545
281.59918
277.96022
270.82439
264.92266
262.95276
264.79831
264.01374
265.1928
265.00223
265.82205
266.05429
266.76682
267.33889
268.13322
269.02381
270.07019
271.32465
272.77151
274.48329
276.44231
278.67796
281.13723
283.73745
286.3251
288.74199
290.85692
292.60216
293.97152
295.0043
295.75954
296.30247
296.69451
296.9841
297.18618
297.32349
297.4549
297.58485
297.70727
297.81341
297.92484
298.09121
298.25055
298.33962
298.37973
298.39778
298.29123
298.22402
298.18024
298.11034
284.03753
281.73322
277.90156
270.1982
265.08746
263.26019
265.11625
264.34329
265.52194
265.35454
266.17511
266.43628
267.15749
267.76333
268.57994
269.5104
270.59582
271.90042
273.40342
275.17855
277.20644
279.50916
282.02228
284.64588
287.21593
289.5739
291.5991
293.23844
294.49983
295.43227
296.09936
296.5682
296.90072
297.14343
297.30599
297.41116
297.51968
297.63412
297.74438
297.84077
297.94999
298.12206
298.26808
298.34737
298.38048
298.38805
298.28147
298.21791
298.1767
298.10847
284.28118
281.88002
277.83955
269.59046
265.30426
263.58672
265.4475
264.68971
265.86683
265.72445
266.54605
266.83815
267.56923
268.21046
269.05128
270.02314
271.14989
272.50655
274.06842
275.90943
278.00807
280.37736
282.93951
285.57732
288.11814
290.40609
292.33304
293.86153
295.01347
295.84627
296.42679
296.82354
297.09897
297.2968
297.42121
297.49501
297.58197
297.68169
297.78025
297.86753
297.9756
298.15129
298.28409
298.35448
298.38369
298.37442
298.2714
298.21184
298.17313
298.10655
284.53247
282.03431
277.76253
269.01524
265.5487
263.92768
265.7944
265.05347
266.22716
266.1128
266.93537
267.26063
268.00257
268.68053
269.54736
270.56188
271.73252
273.14351
274.76742
276.67697
278.84821
281.28265
283.88781
286.52923
289.02847
291.23511
293.05571
294.46926
295.51115
296.24539
296.74116
297.06818
297.28927
297.44359
297.53163
297.57466
297.64156
297.72744
297.81481
297.89388
298.00236
298.17798
298.29856
298.3609
298.38659
298.35773
298.26126
298.20587
298.16955
298.10459
284.79396
282.2045
277.67143
268.51423
265.89659
264.28407
266.15586
265.43428
266.60537
266.52076
267.34418
267.70379
268.45762
269.17342
270.06816
271.1268
272.34405
273.81186
275.50101
277.48166
279.72649
282.22331
284.86357
287.49675
289.94142
292.05579
293.76295
295.05899
295.99127
296.62826
297.04141
297.30175
297.47145
297.58289
297.6369
297.64997
297.69814
297.77123
297.848
297.92
298.0309
298.20135
298.31084
298.36601
298.38774
298.34232
298.2514
298.20008
298.16595
298.10254
285.06092
282.38827
277.55771
268.07456
266.20844
264.65789
266.53341
265.83328
267.00036
266.94822
267.77215
268.1675
268.9342
269.68902
270.61368
271.71807
272.98513
274.51276
276.27057
278.32488
280.64369
283.19884
285.86478
288.47662
290.85334
292.86485
294.45268
295.63019
296.45358
296.99414
297.3269
297.5242
297.64504
297.71437
297.73647
297.72144
297.75141
297.813
297.8798
297.94594
298.06087
298.22157
298.32027
298.36868
298.38853
298.32734
298.2421
298.19453
298.16234
298.10041
285.31841
282.57824
277.41655
267.6988
266.58264
265.04838
266.92637
266.24974
267.412
267.39432
268.21903
268.65144
269.43217
270.2272
271.18424
272.33645
273.65684
275.24739
277.07715
279.20711
281.59901
284.20655
286.88689
289.46322
291.75859
293.65773
295.12242
296.18192
296.89676
297.34151
297.59654
297.73482
297.80834
297.83863
297.82939
297.78996
297.80117
297.85268
297.91016
297.97161
298.09116
298.23965
298.3275
298.3695
298.38909
298.31324
298.23343
298.18918
298.15869
298.09819
285.57457
282.78092
277.24809
267.3955
266.96184
265.45461
267.33385
266.68342
267.84062
267.85798
268.68455
269.15544
269.95172
270.78815
271.78052
272.98295
274.36061
276.01745
277.92242
280.12966
282.5927
285.24504
287.92687
290.45272
292.65355
294.43222
295.77214
296.71404
297.31912
297.66936
297.85013
297.93274
297.96092
297.95631
297.9152
297.8559
297.84775
297.89018
297.93906
297.99687
298.12131
298.25635
298.33346
298.36933
298.38985
298.3002
298.22538
298.18402
298.15498
298.09585
285.81457
282.98354
277.04562
267.15895
267.38674
265.87575
267.75608
267.13474
268.28588
268.34079
269.16853
269.67972
270.49301
271.37254
272.40369
273.65918
275.0981
276.82443
278.80747
281.09256
283.62305
286.31033
288.97916
291.43898
293.53311
295.1858
296.40109
297.22331
297.71741
297.97631
298.08752
298.11757
298.10406
298.06755
297.99429
297.91772
297.89209
297.92531
297.96652
298.02164
298.15079
298.27217
298.33918
298.36854
298.38782
298.28838
298.2179
298.17898
298.15117
298.09339
286.03791
283.18861
276.81834
267.00796
267.81165
266.31376
268.19439
267.604
268.74831
268.84172
269.67133
270.22408
271.05695
271.98164
273.05527
274.36702
275.87119
277.67029
279.73383
282.09678
284.68921
287.39988
290.03973
292.41801
294.39474
295.91858
297.00842
297.70583
298.09011
298.26226
298.30984
298.29104
298.23927
298.17081
298.06784
297.97382
297.93513
297.95792
297.99269
298.04604
298.17888
298.28682
298.34482
298.36753
298.38125
298.27767
298.21088
298.174
298.14724
298.09082
286.24067
283.39396
276.57229
266.94432
268.26083
266.76775
268.64726
268.09045
269.22703
269.3605
270.19342
270.78934
271.64503
272.61704
273.73737
275.1085
276.68173
278.55651
280.70236
283.14145
285.78821
288.50831
291.1022
293.38401
295.2353
296.62946
297.58828
298.15826
298.43564
298.5289
298.51947
298.45301
298.36527
298.26671
298.13552
298.02505
297.97646
297.98797
298.01786
298.07066
298.2045
298.29942
298.34902
298.36687
298.36978
298.2677
298.20409
298.16901
298.14319
298.08813
286.42646
283.59551
276.31619
266.96836
268.72289
267.23851
269.11288
268.59336
269.72238
269.89804
270.7362
271.3771
272.25913
273.28082
274.45199
275.88561
277.53163
279.48493
281.71431
284.22664
286.9179
289.63179
292.16199
294.3339
296.05445
297.31684
298.13612
298.5782
298.75625
298.78107
298.71427
298.60373
298.48271
298.35512
298.19738
298.07196
298.01565
298.0158
298.04231
298.09625
298.22654
298.30976
298.35218
298.36702
298.35671
298.2579
298.19746
298.16401
298.139
298.08532
286.58571
283.78266
276.06261
267.07874
269.19793
267.72454
269.59317
269.11383
270.23568
270.45586
271.30173
271.98971
272.90122
273.97511
275.2012
276.70037
278.42265
280.45688
282.76988
285.35024
288.07357
290.76363
293.21275
295.26364
296.85078
297.97335
298.64784
298.96545
299.05775
299.01583
298.89487
298.74342
298.59154
298.43628
298.25379
298.11489
298.05171
298.04218
298.06614
298.12281
298.24482
298.31814
298.35455
298.36715
298.34212
298.24837
298.19102
298.15902
298.13471
298.08242
286.71682
283.94923
275.82144
267.27093
269.68605
268.22752
270.09079
269.65448
270.76888
271.03628
271.89178
272.62926
273.57355
274.70177
275.98698
277.55475
279.35669
281.47404
283.86972
286.5109
289.25159
291.89908
294.25062
296.17218
297.6228
298.59317
299.12122
299.32558
299.34101
299.23309
299.06156
298.87257
298.69216
298.51047
298.30524
298.15418
298.08382
298.0678
298.08933
298.14876
298.26078
298.32509
298.35647
298.36718
298.32915
298.23938
298.18487
298.15407
298.1303
298.07943
286.82316
284.08891
275.61245
267.54508
270.19122
268.75034
270.60627
270.21679
271.32377
271.64107
272.50863
273.29715
274.27802
275.46284
276.81134
278.45082
280.33545
282.53737
285.01283
287.70474
290.44552
293.03104
295.27054
297.05723
298.36213
299.17169
299.55622
299.66496
299.60304
299.43314
299.21484
298.99151
298.78478
298.57797
298.35189
298.18989
298.11273
298.09234
298.1119
298.17383
298.27518
298.3312
298.35796
298.36745
298.31731
298.23122
298.17908
298.14916
298.1258
298.07636
286.93413
284.20076
275.4386
267.88791
270.71424
269.29465
271.14105
270.80261
271.90241
272.27233
273.15394
273.995
275.01644
276.26036
277.67634
279.39065
281.36088
283.64818
286.1987
288.92868
291.65046
294.1549
296.27028
297.91759
299.06185
299.70637
299.96058
299.98217
299.84456
299.61674
299.35539
299.1008
298.8698
298.63908
298.39378
298.22195
298.139
298.11582
298.1338
298.19784
298.28854
298.33673
298.35883
298.36809
298.30668
298.22389
298.17369
298.14438
298.12125
298.0732
287.02921
284.27443
275.32703
268.29367
271.25501
269.86262
271.69741
271.41357
272.50718
272.93117
273.82906
274.72459
275.79088
277.09664
278.58408
280.37645
282.43451
284.80666
287.42445
290.17683
292.85872
295.26448
297.24635
298.74544
299.7156
300.19667
300.34101
300.27464
300.06582
299.78444
299.48374
299.20086
298.94754
298.69398
298.43098
298.25067
298.1624
298.13809
298.15482
298.2205
298.30079
298.3418
298.35933
298.36842
298.29704
298.21729
298.16876
298.13984
298.11673
298.06997
287.1244
284.30979
275.28244
268.7575
271.81696
270.45639
272.27671
272.05169
273.13898
273.61923
274.5353
275.4879
276.60367
277.97384
279.53684
281.41031
283.55839
286.01291
288.688
291.44411
294.06522
296.35617
298.19779
299.53261
300.32059
300.65089
300.69595
300.54317
300.2679
299.93717
299.60068
299.29231
299.01842
298.74283
298.46368
298.27654
298.18525
298.15915
298.1745
298.24125
298.31147
298.34652
298.36005
298.3673
298.28808
298.21116
298.16416
298.13562
298.11242
298.06667
287.22478
284.30758
275.31384
269.23919
272.40102
271.0786
272.87993
272.71695
273.79864
274.33728
275.27584
276.28707
277.45698
278.89454
280.53696
282.49456
284.73345
287.26549
289.98397
292.72296
295.26244
297.42527
299.11832
300.27018
300.87491
301.07647
301.02277
300.78816
300.45145
300.07558
299.70678
299.37561
299.08276
298.78572
298.49216
298.29953
298.20579
298.17907
298.19345
298.2597
298.32022
298.3504
298.36158
298.36366
298.2795
298.20512
298.15957
298.13161
298.10877
298.06329
287.32869
284.27045
275.42647
269.76319
273.00431
271.72653
273.50723
273.41027
274.48817
275.08763
276.0533
277.12443
278.35317
279.86125
281.58687
283.63168
285.9608
288.56301
291.30784
294.00745
296.446
298.46987
299.99889
300.95485
301.3857
301.47369
301.32179
301.01094
300.61765
300.20067
299.80285
299.45132
299.14083
298.82275
298.51673
298.3202
298.22517
298.19801
298.21237
298.27569
298.32762
298.35324
298.36275
298.35796
298.27093
298.19908
298.15501
298.12779
298.10549
298.05991
287.4322
284.20329
275.61493
270.40743
273.62899
272.40263
274.16124
274.13482
275.21048
275.87306
276.8692
278.00236
279.29476
280.87677
282.68949
284.82365
287.24023
289.9013
292.65206
295.28919
297.60953
299.48513
300.82828
301.58271
301.86145
301.83951
301.5937
301.21233
300.76732
300.31314
299.88944
299.51971
299.19268
298.85408
298.53774
298.33875
298.24317
298.21609
298.23135
298.28916
298.33398
298.35528
298.36316
298.35007
298.26218
298.1929
298.15051
298.12419
298.10224
298.0567
287.54269
284.11421
275.87989
271.01419
274.27718
273.11144
274.84567
274.89305
275.96777
276.69503
277.72594
278.92332
280.28472
281.9442
283.84773
286.07251
288.57129
291.27643
294.01043
296.56263
298.74958
300.46321
301.60126
302.15798
302.30641
302.17328
301.84004
301.39379
300.90166
300.41399
299.96731
299.5812
299.2384
298.88008
298.55559
298.35552
298.26019
298.23322
298.24911
298.30079
298.33911
298.35663
298.36329
298.34069
298.25318
298.18658
298.14604
298.12079
298.09886
298.05367
287.66222
284.00866
276.2219
271.67828
274.95215
273.85344
275.56123
275.68632
276.76113
277.55564
278.6259
279.89072
281.32652
283.06722
285.06441
287.37911
289.95099
292.68128
295.37388
297.82019
299.86087
301.39109
302.31247
302.68984
302.71675
302.47597
302.0618
301.5563
301.02155
300.50392
300.03702
299.63626
299.27853
298.90136
298.57068
298.37074
298.27629
298.24939
298.26555
298.31064
298.34291
298.35706
298.36331
298.33071
298.24401
298.18022
298.14155
298.11744
298.09534
298.05077
287.81207
283.89645
276.63267
272.37615
275.65445
274.63071
276.30916
276.51432
277.59268
278.45778
279.57326
280.90875
282.42367
284.24953
286.34232
288.74392
291.37617
294.10952
296.73574
299.05704
300.93845
302.25937
302.96218
303.18757
303.09029
302.74927
302.26071
301.70133
301.12817
300.58391
300.09935
299.68581
299.31461
298.9185
298.5834
298.38463
298.29159
298.2646
298.28043
298.31892
298.3458
298.35677
298.3632
298.32019
298.23481
298.17391
298.13706
298.11406
298.09169
298.04796
287.98994
283.77343
277.09878
273.11472
276.3829
275.44272
277.09002
277.3793
278.46518
279.40662
280.5722
281.98102
283.58038
285.49488
287.68344
290.16515
292.84035
295.5515
298.08701
300.266
301.96795
303.06207
303.55898
303.64689
303.42836
302.99438
302.43795
301.82993
301.22237
300.65461
300.15489
299.73068
299.34852
298.93122
298.59402
298.39731
298.3061
298.27886
298.29372
298.32614
298.34835
298.35602
298.36207
298.30923
298.22567
298.16768
298.13266
298.11059
298.08795
298.04522
288.20924
283.65682
277.59189
273.89354
277.13749
276.29303
277.90814
278.28631
279.38557
280.404
281.62732
283.11211
284.80077
286.8068
289.08903
291.64047
294.33714
296.99964
299.42136
301.44295
302.93812
303.79607
304.11413
304.06617
303.73272
303.21338
302.59534
301.94354
301.30531
300.71693
300.2043
299.77115
299.38
298.93801
298.60288
298.40889
298.31978
298.29213
298.30549
298.33218
298.35016
298.35533
298.3588
298.29802
298.2167
298.1616
298.12838
298.10705
298.08412
298.04256
288.47887
283.53399
278.26761
274.71489
277.92301
277.18651
278.76991
279.24181
280.35931
281.45393
282.74221
284.30721
286.08944
288.18826
290.55869
293.16417
295.85701
298.44338
300.72996
302.57568
303.83889
304.46629
304.62794
304.44461
304.00485
303.40765
302.73411
302.0432
301.3778
300.77152
300.24802
299.80657
299.40366
298.94057
298.61027
298.41946
298.33254
298.30431
298.31548
298.33692
298.35142
298.35463
298.35362
298.28674
298.20801
298.15569
298.1242
298.10341
298.08026
298.03998
288.83005
283.43604
278.94813
275.58727
278.75178
278.13127
279.68052
280.2492
281.3891
282.56271
283.9228
285.57159
287.45058
289.64126
292.09044
294.73013
297.39121
299.87538
302.00714
303.65113
304.66565
305.08464
305.09819
304.7846
304.24704
303.57932
302.85599
302.13025
301.44091
300.81922
300.28666
299.83702
299.41832
298.94092
298.61652
298.42911
298.34426
298.31534
298.32359
298.34013
298.35189
298.35429
298.34658
298.27558
298.19964
298.14994
298.1201
298.09965
298.0764
298.03749
289.27484
283.33988
279.60852
276.51309
279.61989
279.12724
280.64246
281.31199
282.48043
283.736
285.17484
286.91106
288.88789
291.16621
293.67946
296.32856
298.92821
301.28519
303.2434
304.65401
305.41742
305.65817
305.52171
305.08762
304.46097
303.72984
302.96219
302.20567
301.49539
300.86066
300.32082
299.8636
299.42826
298.94005
298.62183
298.43796
298.35503
298.32519
298.33001
298.34235
298.35173
298.35375
298.33791
298.26465
298.19164
298.14434
298.11605
298.09582
298.07256
298.03509
289.80868
283.24663
280.42697
277.49393
280.53148
280.17925
281.66242
282.43649
283.6396
284.98124
286.50487
288.33034
290.40383
292.76141
295.31961
297.94991
300.45882
302.6648
304.42425
305.57918
306.10584
306.18393
305.90167
305.35649
304.64917
303.86134
303.05438
302.27073
301.54223
300.89664
300.35131
299.88789
299.43542
298.93831
298.62631
298.44605
298.36499
298.3343
298.33506
298.34398
298.35118
298.35292
298.32837
298.25402
298.18396
298.13892
298.11202
298.09194
298.06876
298.03279
290.44035
283.17991
281.27477
278.53773
281.49749
281.29397
282.74978
283.62946
284.87534
286.30471
287.91857
289.83391
291.999
294.42275
297.00103
299.58147
301.97072
304.00363
305.5322
306.41999
306.74301
306.65758
306.23937
305.59309
304.81339
303.97524
303.1337
302.32634
301.58214
300.92769
300.37829
299.90976
299.43892
298.93585
298.63007
298.45336
298.37402
298.34265
298.33899
298.34533
298.35026
298.35158
298.31855
298.24375
298.17656
298.13367
298.10797
298.08801
298.06503
298.03059
291.17877
283.14339
282.20349
279.65552
282.5222
282.47822
283.91057
284.89678
286.19829
287.71409
289.42054
291.42345
293.67187
296.14382
298.71359
301.21199
303.45414
305.2898
306.5575
307.18658
307.32745
307.08168
306.53818
305.80037
304.9561
304.07352
303.20167
302.37365
301.61602
300.95452
300.40168
299.92531
299.43947
298.93278
298.63329
298.45995
298.38185
298.34968
298.342
298.34623
298.34945
298.34894
298.30832
298.23383
298.16941
298.12855
298.10388
298.08404
298.06138
298.02851
292.02551
283.14248
283.19177
280.85154
283.61452
283.73986
285.15418
286.24825
287.61316
289.21421
291.0134
293.10019
295.4189
297.91515
300.44359
302.8277
304.89601
306.50311
307.49186
307.89046
307.85511
307.45761
306.80014
305.98037
305.07901
304.15754
303.25935
302.41346
301.6445
300.97748
300.4217
299.93599
299.43771
298.92918
298.63611
298.46587
298.38846
298.35491
298.3446
298.34665
298.34889
298.34477
298.2979
298.22423
298.1625
298.12356
298.09974
298.08006
298.05783
298.02653
292.98037
283.21376
284.25003
282.13496
284.78558
285.08574
286.49019
287.69099
289.12441
290.80908
292.69939
294.86277
297.23377
299.72569
302.17796
304.41688
306.2861
307.62876
308.33994
308.53697
308.32618
307.78923
307.02879
306.13609
305.18451
304.22912
303.30805
302.44678
301.6684
300.99709
300.4387
299.94408
299.43413
298.92547
298.63853
298.47096
298.39365
298.35876
298.34652
298.34636
298.34844
298.33911
298.28738
298.21493
298.15579
298.11866
298.09558
298.0761
298.05437
298.02467
294.03638
283.37848
285.38484
283.51688
286.04496
286.52115
287.92264
289.23036
290.73577
292.50185
294.47969
296.70902
299.10742
301.56065
303.90064
305.96357
307.60148
308.65707
309.11345
309.12082
308.74276
308.07887
307.22649
306.26954
305.27418
304.28943
303.34864
302.47428
301.68824
301.01368
300.45312
299.9509
299.42904
298.92189
298.64057
298.47516
298.39774
298.36189
298.34832
298.34556
298.34771
298.3324
298.27686
298.20592
298.14926
298.11381
298.09142
298.07217
298.05102
298.0229
295.17272
283.66841
286.59773
285.00653
287.40248
288.04868
289.46176
290.8635
292.45116
294.29667
296.35562
298.63226
301.02747
303.4043
305.5971
307.45517
308.82544
309.58733
309.82367
309.64056
309.10908
308.33078
307.39682
306.38352
305.35015
304.34002
303.3823
302.49699
301.70468
301.0278
300.46563
299.95665
299.42271
298.91856
298.64235
298.47869
298.4012
298.36429
298.34884
298.3444
298.34609
298.32515
298.26643
298.19718
298.14289
298.10898
298.08723
298.06827
298.04778
298.02123
296.35288
284.14471
287.88239
286.60389
288.85968
289.67347
291.10643
292.60037
294.2754
296.19958
298.32572
300.62312
302.97696
305.23757
307.24824
308.86882
309.94384
310.4313
310.46395
310.09876
309.42787
308.54771
307.54213
306.47989
305.41379
304.38198
303.41011
302.51589
301.71817
301.03988
300.47695
299.96086
299.41535
298.91525
298.64343
298.48164
298.40409
298.36621
298.34892
298.34261
298.34348
298.31728
298.25617
298.18873
298.13666
298.10417
298.08301
298.06445
298.04466
298.01966
297.51452
284.92279
289.243
288.30047
290.42446
291.40107
292.86512
294.45545
296.21994
298.21417
300.38251
302.6665
304.93667
307.0423
308.8383
310.18439
310.95333
311.2042
311.03192
310.50015
309.70402
308.73384
307.66578
306.56122
305.46703
304.41693
303.43357
302.53201
301.72941
301.05031
300.48739
299.96411
299.4069
298.91199
298.64395
298.48407
298.40622
298.36731
298.34879
298.34047
298.33986
298.30891
298.24612
298.18054
298.13057
298.09941
298.0788
298.06069
298.04166
298.01819
298.51719
286.1638
290.68359
290.09348
292.11338
293.24449
294.76469
296.44482
298.2909
300.33506
302.51316
304.74146
306.88385
308.79577