/*--------------------------------*- C++ -*----------------------------------*\
  =========                 |
  \\      /  F ield         | OpenFOAM: The Open Source CFD Toolbox
   \\    /   O peration     | Website:  https://openfoam.org
    \\  /    A nd           | Version:  8
     \\/     M anipulation  |
\*---------------------------------------------------------------------------*/
FoamFile
{
    version     2.0;
    format      ascii;
    class       volVectorField;
    location    "0.0999939";
    object      U;
}
// * * * * * * * * * * * * * * * * * * * * * * * * * * * * * * * * * * * * * //

dimensions      [0 1 -1 0 0 0 0];

internalField   nonuniform List<vector> 
20000
(
(215.36498 0 7.7800225)
(256.09916 2.2168844e-16 9.364255)
(283.67085 -1.7925835e-16 10.107404)
(307.62307 -1.5229107e-16 10.719635)
(329.25163 1.3064922e-16 11.129109)
(348.04029 1.1107777e-16 11.671094)
(351.7943 -6.5392388e-19 11.072962)
(354.51076 -1.1035668e-18 12.268918)
(352.47689 -1.3208261e-16 10.839112)
(353.63437 5.4239547e-17 12.571409)
(352.45772 4.523598e-17 10.821474)
(352.84636 -3.9898122e-17 12.645609)
(351.96976 1.2360829e-19 11.022224)
(351.82564 2.0551694e-19 12.568246)
(350.99999 0 11.303435)
(350.40439 -3.2777753e-19 12.403279)
(349.39326 3.2755054e-18 11.52428)
(348.30809 -6.2045262e-18 12.149514)
(346.88267 0 11.53013)
(345.16048 9.2716255e-20 11.694821)
(343.03471 7.1226114e-18 11.10953)
(340.40752 1.497505e-18 10.793573)
(337.21811 2.2114949e-17 9.9934937)
(333.33464 -1.6264388e-17 9.164296)
(328.70411 2.6901555e-17 8.0268009)
(323.27065 -1.9410319e-17 6.761864)
(317.02777 0 5.3034974)
(310.25103 -4.4981587e-17 3.9430072)
(303.27118 1.1967865e-17 2.8442954)
(296.42127 -4.898863e-18 2.0806198)
(290.00949 -6.6633784e-17 1.6287308)
(284.23182 2.4676028e-17 1.4419138)
(279.22887 1.9331513e-17 1.4273579)
(275.02862 3.0504887e-17 1.4928809)
(271.60721 -2.3244751e-17 1.5682333)
(268.886 -2.2334152e-18 1.597839)
(266.75843 0 1.5634003)
(265.12009 0 1.4638017)
(263.87672 0 1.3053477)
(262.94509 0 1.0971324)
(262.23845 0 0.86056869)
(261.71924 9.9150028e-17 0.59997861)
(261.34181 -1.7721912e-17 0.31810672)
(261.01047 -9.4408174e-17 0.0022210714)
(260.64806 9.9706031e-17 -0.2946066)
(260.39782 1.0364363e-16 -0.5027081)
(260.30448 -8.8577849e-17 -0.6071361)
(260.39983 8.3691797e-18 -0.53620163)
(260.89543 -6.242583e-18 -0.38776539)
(260.98194 0 -0.57057694)
(221.65974 -6.1701813e-19 7.1107853)
(262.79478 2.2453696e-16 8.561939)
(290.35053 -1.8173252e-16 9.2104532)
(314.07379 1.5560666e-16 9.7401984)
(335.26865 -1.3334198e-16 10.034233)
(353.03802 1.1049257e-16 10.557139)
(355.5734 -9.3689818e-17 9.8727462)
(358.22159 1.2398855e-18 11.131216)
(356.19066 1.0372469e-18 9.6074066)
(357.33424 0 11.439779)
(356.13702 0 9.565636)
(356.51399 2.3843625e-18 11.482244)
(355.6039 0 9.7347373)
(355.42828 0 11.34125)
(354.55498 -5.4785209e-18 9.9729641)
(353.90134 -4.5387417e-20 11.095705)
(352.81794 -7.5310928e-18 10.139413)
(351.63572 -9.3468261e-18 10.75006)
(350.089 2.6114105e-18 10.064866)
(348.20314 1.7528685e-17 10.183104)
(345.87232 -2.1769716e-17 9.5331783)
(342.98596 0 9.1560256)
(339.4751 -3.0093689e-17 8.2991898)
(335.21448 5.7737647e-17 7.4156977)
(330.12313 -8.1981822e-17 6.2304631)
(324.13965 2.2582378e-17 4.9595447)
(317.48225 0 3.5802768)
(310.47141 9.0971382e-17 2.3562412)
(303.3697 0 1.4235925)
(296.43191 -7.9521087e-17 0.85030015)
(289.95389 3.1474724e-17 0.5984382)
(284.15066 -2.5434117e-17 0.60414091)
(279.14315 -1.9870653e-17 0.76532493)
(274.95782 -1.5614125e-17 0.9829697)
(271.55806 4.7196472e-17 1.1849954)
(268.85886 -1.7940766e-17 1.31593)
(266.7471 2.7359775e-17 1.359811)
(265.11839 1.4367435e-16 1.3196628)
(263.87981 0 1.2057746)
(262.94813 2.0489157e-16 1.0290432)
(262.23901 -2.8624541e-16 0.81592709)
(261.71811 -9.9354629e-17 0.57228253)
(261.33766 0 0.30107683)
(260.99261 1.077727e-16 -0.013554278)
(260.57514 -7.9529695e-17 -0.30862196)
(260.34894 1.1787554e-16 -0.50672915)
(260.30896 9.887159e-17 -0.5997849)
(260.48132 -2.4824882e-17 -0.51989275)
(260.8752 6.3442079e-18 -0.3709369)
(260.99652 5.5834827e-18 -0.55191065)
(226.83272 -3.2048807e-16 6.3720284)
(268.32472 0 7.7065879)
(295.88673 1.4304255e-18 8.2633431)
(319.45078 -1.2302863e-18 8.7306502)
(340.32137 1.0533724e-18 8.910387)
(357.13798 -5.6236079e-17 9.4165682)
(358.64545 -4.0035987e-20 8.639493)
(361.25581 3.9625146e-17 9.9561428)
(359.20329 -3.7320548e-17 8.301955)
(360.34504 3.0903263e-17 10.237982)
(359.11151 -5.7117941e-18 8.2196304)
(359.47168 0 10.222041)
(358.52039 0 8.3489314)
(358.30706 0 10.00588)
(357.38545 1.0982906e-17 8.5436964)
(356.67058 -9.1418865e-18 9.6756998)
(355.51536 9.6105932e-18 8.64767)
(354.23026 -4.6552338e-18 9.2269498)
(352.56159 -1.8466147e-17 8.4740304)
(350.50843 -8.8541427e-18 8.5305202)
(347.97013 1.4647127e-17 7.8126281)
(344.82474 -6.0356129e-18 7.362881)
(340.99194 0 6.4459385)
(336.35317 -5.0478289e-17 5.5066217)
(330.89276 1.2457999e-16 4.2926909)
(324.61498 0 3.052642)
(317.73878 0 1.7808504)
(310.55563 6.156721e-17 0.71707372)
(303.30508 -1.0004122e-16 -0.029522064)
(296.25815 8.0570542e-17 -0.40219721)
(289.71997 1.2891577e-16 -0.44437055)
(283.90909 0 -0.2367471)
(278.92759 -1.5992769e-16 0.10480299)
(274.78251 2.1708744e-16 0.47585157)
(271.42578 2.3709906e-17 0.80411756)
(268.76598 0 1.0350894)
(266.68452 2.7566626e-17 1.1558344)
(265.07781 1.4465135e-16 1.1738844)
(263.85346 0 1.1035844)
(262.92852 -5.4862773e-16 0.95780079)
(262.22323 5.7430612e-16 0.76802073)
(261.70672 4.7300694e-20 0.54121592)
(261.32573 -1.8282152e-17 0.27951982)
(260.94932 -2.693845e-17 -0.03452075)
(260.51903 -3.317505e-20 -0.32486355)
(260.32058 2.4914637e-16 -0.50979341)
(260.3074 0 -0.59280478)
(260.51408 0 -0.50304731)
(260.8705 6.228978e-18 -0.35515814)
(261.0053 1.4787585e-16 -0.53457454)
(231.22266 1.6236755e-16 5.5556629)
(273 -1.1499683e-16 6.7592333)
(300.5573 -9.6261066e-17 7.2176899)
(323.97173 7.9272439e-17 7.6177781)
(344.55205 0 7.6733299)
(360.43886 -3.5369926e-18 8.1723553)
(361.03851 0 7.2967482)
(363.62972 0 8.6877098)
(361.54441 4.208282e-18 6.897031)
(362.68073 3.4268062e-18 8.9442106)
(361.40398 -1.1558676e-17 6.7766959)
(361.74614 9.6264827e-18 8.8731821)
(360.75158 0 6.8766712)
(360.50221 -3.3506385e-18 8.5918379)
(359.5311 -9.1213993e-18 7.0360778)
(358.75386 9.9051632e-18 8.1742653)
(357.52119 1.9300096e-17 7.0664711)
(356.12583 1.6181577e-17 7.6075371)
(354.32491 3.7562366e-17 6.7819077)
(352.09992 0 6.7677842)
(349.34582 -3.709378e-17 5.9781236)
(345.94033 -3.0728071e-17 5.4524085)
(341.83441 -1.0139098e-17 4.4719916)
(336.91701 0 3.500779)
(331.23743 -5.6279211e-17 2.2988414)
(324.78843 -9.2882094e-17 1.1167595)
(317.78022 1.9336451e-17 -0.032046784)
(310.43571 -1.2438608e-16 -0.93259637)
(303.03398 1.1453718e-16 -1.4923259)
(295.90063 -2.0144109e-17 -1.6545042)
(289.3447 -3.9177857e-16 -1.4792797)
(283.56139 -2.0664931e-16 -1.0672128)
(278.63267 1.615889e-16 -0.54538494)
(274.54917 -2.5063936e-16 -0.022382501)
(271.25194 -3.8542467e-16 0.43017454)
(268.6439 -3.3024641e-16 0.75923011)
(266.60194 -1.6431698e-19 0.95516072)
(265.02359 -3.1163737e-16 1.0301751)
(263.81792 -3.1005406e-17 1.0026096)
(262.9028 3.9005296e-16 0.88731839)
(262.20354 -8.1297372e-16 0.72077068)
(261.69355 2.4939626e-17 0.51074183)
(261.31201 1.8351625e-17 0.25710938)
(260.8969 -8.869213e-16 -0.055749465)
(260.47182 3.3595345e-16 -0.33978522)
(260.2952 -4.8087336e-16 -0.51118078)
(260.30089 0 -0.58327984)
(260.54577 0 -0.48617246)
(260.8679 0 -0.34012771)
(261.0148 -1.5160196e-16 -0.51678139)
(234.89508 -1.6437465e-16 4.6917865)
(276.8756 2.3325001e-16 5.7470987)
(304.43326 -9.470104e-17 6.1099329)
(327.72143 0 6.4458787)
(348.04683 0 6.3647654)
(363.03509 -5.3921342e-17 6.8553166)
(362.83164 4.571426e-17 5.87148)
(365.41889 -5.0408945e-18 7.350074)
(363.29299 0 5.4096779)
(364.42832 -1.4050843e-17 7.5767731)
(363.10701 -5.8112907e-18 5.2597717)
(363.43597 -9.7253644e-18 7.4592609)
(362.39997 0 5.3425745)
(362.11336 0 7.1143502)
(361.08456 0 5.4627181)
(360.2318 -4.7118239e-18 6.5973311)
(358.90896 -4.3074623e-17 5.4036869)
(357.39264 -3.2593872e-17 5.8952825)
(355.43999 -1.6364175e-17 4.9967722)
(353.03666 2.7035843e-17 4.9058881)
(350.09589 3.7595469e-17 4.0409094)
(346.49422 5.0089964e-17 3.4559353)
(342.21758 0 2.4440289)
(337.14963 1.7437319e-17 1.4638903)
(331.34484 -1.4085584e-17 0.28776546)
(324.76315 9.4249905e-17 -0.82824533)
(317.58802 1.9631464e-17 -1.8598562)
(310.05857 9.5261499e-17 -2.5998993)
(302.53357 -1.9344633e-16 -2.9571167)
(295.35726 0 -2.8970479)
(288.82053 2.8096599e-16 -2.4988591)
(283.09747 1.9592108e-16 -1.8806947)
(278.24916 -2.0559562e-17 -1.1798413)
(274.24887 4.7530766e-17 -0.50762292)
(271.02799 3.6447076e-16 0.066169454)
(268.48469 2.5857519e-16 0.49041107)
(266.49226 2.7795051e-17 0.75907525)
(264.94982 0 0.88918436)
(263.76828 0 0.90298337)
(262.86695 0 0.81738274)
(262.17696 5.4322252e-16 0.67372719)
(261.67647 -2.4967394e-17 0.48027204)
(261.29435 5.6715322e-16 0.23286198)
(260.83904 8.8511565e-16 -0.077792903)
(260.43142 -3.1497923e-16 -0.35363743)
(260.2729 0 -0.51159486)
(260.29116 0 -0.57164643)
(260.56825 5.2715852e-16 -0.46874151)
(260.87149 -3.977606e-16 -0.32551592)
(261.02243 2.9398712e-16 -0.49898729)
(237.88545 -1.6662466e-16 3.7669058)
(280.05919 1.2018881e-16 4.6357055)
(307.63426 1.507535e-18 4.8861525)
(330.82679 0 5.1618978)
(350.91728 0 4.9379149)
(365.03162 0 5.4392704)
(364.12443 3.0972636e-18 4.3492119)
(366.72048 5.1311769e-18 5.9388165)
(364.55221 -8.5530285e-18 3.8501119)
(365.69231 -7.1017664e-18 6.1533565)
(364.32676 2.9722888e-17 3.6941235)
(364.64345 -4.8876387e-18 6.0026175)
(363.56086 1.0319007e-18 3.7581504)
(363.22714 1.4562773e-17 5.5712357)
(362.12618 1.4406927e-18 3.8129075)
(361.17809 -7.1512398e-18 4.9375627)
(359.75025 4.0337034e-18 3.6619441)
(358.11182 2.6490722e-17 4.0932806)
(356.03472 4.4052535e-17 3.1218518)
(353.49651 -4.5958675e-17 2.9758748)
(350.44116 -7.8105253e-18 2.0652057)
(346.73125 2.5395283e-17 1.4382148)
(342.35567 2.1771351e-19 0.40318957)
(337.18237 -1.3106562e-16 -0.58019142)
(331.22137 -1.4293987e-17 -1.7267032)
(324.45999 0 -2.7869065)
(317.08909 1.3768218e-16 -3.6995769)
(309.41533 1.4509476e-16 -4.2637561)
(301.81515 2.0856455e-16 -4.4072035)
(294.63852 -3.1551171e-16 -4.1168585)
(288.16008 -3.3440697e-17 -3.4927276)
(282.52973 3.9717367e-17 -2.6695682)
(277.78732 -2.0484898e-17 -1.793014)
(273.89008 5.120592e-16 -0.97578205)
(270.76084 0 -0.28489173)
(268.29396 0 0.23085209)
(266.35996 -4.493814e-16 0.56921462)
(264.85989 -6.7247649e-16 0.75212152)
(263.70713 -4.9997735e-16 0.80559833)
(262.82297 0 0.74868565)
(262.14495 0 0.62742572)
(261.65588 7.7402442e-16 0.45023856)
(261.2719 3.6652915e-17 0.20721299)
(260.77958 -1.3367308e-17 -0.10025171)
(260.39439 1.961828e-17 -0.36610143)
(260.25285 -1.4390989e-17 -0.51118406)
(260.28087 0 -0.55901034)
(260.58867 -5.0499589e-16 -0.45068284)
(260.87746 3.734012e-16 -0.31129053)
(261.02874 -2.8510241e-16 -0.48127123)
(240.40263 -8.4528198e-17 2.7781954)
(282.71978 1.1836769e-16 3.5286353)
(310.33009 -4.8895731e-17 3.6416976)
(333.44569 0 3.864597)
(353.28701 0 3.4843872)
(366.53806 3.6818478e-18 4.0075855)
(365.01649 0 2.8013188)
(367.63059 0 4.5078024)
(365.41874 1.7388703e-17 2.2579561)
(366.56793 1.3891004e-20 4.6984855)
(365.15126 -6.0121386e-18 2.0874784)
(365.44138 -9.9765367e-18 4.4928715)
(364.29469 0 2.1054483)
(363.89846 -1.3931381e-17 3.9467187)
(362.72378 0 2.0726638)
(361.69268 0 3.1819722)
(360.18263 2.4163861e-17 1.8432095)
(358.45421 6.6805506e-18 2.2408569)
(356.3083 -4.4757108e-17 1.2229318)
(353.69297 0 1.0313006)
(350.56852 0 0.083442062)
(346.7785 0 -0.58177362)
(342.28778 -1.0824412e-17 -1.6332634)
(336.96095 1.508905e-16 -2.6326396)
(330.79647 0 -3.7605922)
(323.83546 0 -4.7509735)
(316.3041 -1.5957061e-16 -5.531709)
(308.52353 -2.6079984e-16 -5.9094864)
(300.89156 -2.6803052e-17 -5.828827)
(293.75628 3.3983974e-16 -5.3026892)
(287.37202 3.3877374e-17 -4.4521838)
(281.86438 -1.3243332e-17 -3.4271049)
(277.25174 3.5558425e-16 -2.3798417)
(273.47594 -1.5245582e-17 -1.4231056)
(270.45247 -2.4808e-17 -0.62023198)
(268.07289 6.1938961e-16 -0.017409669)
(266.20562 4.2362471e-16 0.38704962)
(264.75403 1.3938286e-15 0.62002422)
(263.63447 -5.4922193e-16 0.71115873)
(262.77081 2.3132964e-17 0.68174363)
(262.10753 -3.4109306e-17 0.58226506)
(261.63092 -7.7429327e-16 0.42077327)
(261.24203 -5.8450618e-16 0.18055466)
(260.72008 0 -0.12290463)
(260.36072 6.2487268e-16 -0.37705916)
(260.23631 0 -0.51018849)
(260.27393 -2.1039847e-17 -0.54648827)
(260.60655 5.143043e-16 -0.43192988)
(260.88435 -5.8270915e-18 -0.29734198)
(261.03328 4.4252546e-18 -0.46369368)
(242.46918 0 1.6375551)
(284.93838 0 2.3860038)
(312.60409 0 2.3178798)
(335.66889 0 2.4787774)
(355.23352 4.4777968e-18 1.9411814)
(367.64231 -3.7422787e-18 2.5231755)
(365.58401 6.3504862e-18 1.1999016)
(368.21547 -6.3060548e-21 3.0465902)
(365.94847 6.5999259e-18 0.62800561)
(367.10439 -1.9383806e-18 3.1951446)
(365.62153 1.2300332e-17 0.39997209)
(365.87332 2.2873998e-20 2.8750296)
(364.68012 -1.6949449e-17 0.34627153)
(364.23492 7.0752522e-18 2.2406978)
(363.00999 -5.8737157e-18 0.28703855)
(361.93218 0 1.3975635)
(360.37917 0 0.0094973755)
(358.5968 1.3692699e-17 0.37860096)
(356.40502 -1.1292824e-17 -0.67730207)
(353.72865 6.6158379e-17 -0.91291331)
(350.51648 7.8069017e-18 -1.8909961)
(346.60306 1.3213592e-17 -2.6044003)
(341.94737 -1.0757945e-17 -3.68899)
(336.4228 -1.8277305e-17 -4.7004394)
(330.06135 1.4738043e-17 -5.7961731)
(322.92093 0 -6.7062828)
(315.25215 3.2557207e-16 -7.3426332)
(307.40328 0 -7.5219649)
(299.78075 0 -7.2093176)
(292.72524 0 -6.4443807)
(286.46879 -5.5105136e-16 -5.3692988)
(281.11144 0 -4.14735)
(276.65013 -3.3741693e-16 -2.935913)
(273.01225 -5.5381523e-16 -1.8463237)
(270.10718 2.4797099e-17 -0.93742464)
(267.82461 -6.2336172e-16 -0.25258252)
(266.03146 4.2644206e-17 0.21388489)
(264.63379 -1.3580091e-15 0.49383599)
(263.55135 1.9678143e-15 0.6203507)
(262.71127 -7.4353636e-16 0.6170748)
(262.06535 1.7041168e-17 0.53868985)
(261.60101 -2.5000177e-17 0.39191375)
(261.20166 1.167722e-15 0.15356689)
(260.66209 1.3296445e-17 -0.14540402)
(260.33072 -6.2192361e-16 -0.38638629)
(260.22378 -9.2366914e-16 -0.50866705)
(260.27179 1.0425298e-17 -0.53151166)
(260.62339 -4.7711114e-16 -0.41273449)
(260.89096 -7.5077442e-16 -0.28365597)
(261.03632 -5.4937279e-16 -0.44625689)
(244.2131 0 0.52908178)
(286.8322 3.8807774e-18 1.203029)
(314.57115 0 0.9596717)
(337.60526 -1.0749211e-17 1.0595679)
(356.83613 9.0896921e-18 0.35895699)
(368.41202 1.8971103e-18 1.0076954)
(365.88835 4.8293957e-18 -0.45891389)
(368.52677 -1.0663225e-17 1.5194391)
(366.19272 0 -1.0893709)
(367.37689 0 1.6060996)
(365.81155 -1.2396754e-17 -1.3585154)
(366.06072 4.1243597e-17 1.2114385)
(364.85152 3.4422004e-17 -1.4328085)
(364.3846 -2.1485363e-17 0.51900261)
(363.13036 -2.9869813e-17 -1.5006913)
(362.02262 2.9858741e-17 -0.38917519)
(360.43758 3.3153577e-17 -1.8230783)
(358.6064 6.8832059e-18 -1.4823717)
(356.34389 0 -2.568635)
(353.56934 1.1122674e-19 -2.8612928)
(350.22658 0 -3.887133)
(346.14909 9.3135011e-17 -4.6487433)
(341.31339 1.092661e-17 -5.7541955)
(335.59956 0 -6.7701864)
(329.04652 -2.592344e-16 -7.8250627)
(321.74007 -3.7723983e-19 -8.6410018)
(313.96073 -6.4996709e-16 -9.1190873)
(306.07715 0 -9.0890025)
(298.50133 4.377298e-16 -8.5378312)
(291.56102 3.5126691e-16 -7.5331311)
(285.46289 5.5610948e-16 -6.2372666)
(280.28062 0 -4.8251591)
(275.98985 0 -3.4574084)
(272.50443 4.9371504e-16 -2.2425989)
(269.72886 2.4999034e-17 -1.2343465)
(267.55189 6.2812783e-16 -0.47308534)
(265.83937 9.0065202e-16 0.050879996)
(264.50039 2.099663e-17 0.37440574)
(263.45856 -1.0264463e-15 0.53383307)
(262.64495 7.6819477e-16 0.55514145)
(262.019 -1.7058828e-17 0.49707404)
(261.56575 0 0.36350114)
(261.14795 -1.1656072e-15 0.12707486)
(260.60671 0 -0.16720751)
(260.30499 -1.2185394e-15 -0.39408137)
(260.2154 -1.4134785e-17 -0.50676738)
(260.2724 -2.0644132e-17 -0.51657324)
(260.63925 1.5204563e-17 -0.39317359)
(260.89702 7.2134691e-16 -0.27021782)
(261.03815 5.4151087e-16 -0.42895027)
(245.7096 0 -0.64368441)
(288.50069 -1.184462e-17 -0.033915132)
(316.32992 6.432199e-18 -0.46627289)
(339.3525 0 -0.4405982)
(358.17391 2.8003157e-21 -1.3069887)
(368.92887 8.539767e-21 -0.57399389)
(366.01187 -1.3070754e-17 -2.1916121)
(368.68394 0 -0.065877764)
(366.3123 9.0724285e-18 -2.8537233)
(367.5009 -1.5044466e-17 -0.01555152)
(365.91594 1.8855802e-17 -3.1310276)
(366.16177 -2.0928294e-17 -0.45157701)
(364.90717 -1.7466728e-17 -3.2021207)
(364.42501 2.9098622e-17 -1.2033855)
(363.14215 3.6434436e-17 -3.2820629)
(361.98898 -8.0837906e-17 -2.1697844)
(360.34897 4.2306723e-17 -3.6478624)
(358.43773 -7.0221936e-17 -3.3563992)
(356.07251 0 -4.4894921)
(353.16724 -7.79357e-17 -4.836339)
(349.67978 -1.1375529e-16 -5.8979891)
(345.43974 -1.3496201e-16 -6.7025414)
(340.42293 1.1101711e-17 -7.8245512)
(334.51725 0 -8.8361429)
(327.77903 2.4660159e-16 -9.8374707)
(320.32115 0 -10.544974)
(312.45393 3.343922e-16 -10.850412)
(304.56726 1.7318898e-17 -10.599909)
(297.0727 -1.1244928e-17 -9.8051142)
(290.27993 -3.5448452e-16 -8.5615105)
(284.36769 0 -7.0503923)
(279.38249 -4.7179214e-16 -5.4562969)
(275.27898 2.1381445e-17 -3.9412093)
(271.9585 -1.0617727e-15 -2.6096142)
(269.32193 8.1062916e-16 -1.5092499)
(267.25789 -6.1232278e-16 -0.67760454)
(265.63158 -9.1900501e-16 -0.10099504)
(264.35533 1.3911507e-15 0.2624484)
(263.35712 -1.5812599e-17 0.45218612)
(262.57264 2.3346407e-17 0.49632773)
(261.96915 -1.0768465e-15 0.45765002)
(261.52529 -8.2369895e-16 0.33519507)
(261.08026 1.1819146e-15 0.10179804)
(260.55411 -1.3210261e-17 -0.18757095)
(260.2826 -1.9368583e-17 -0.40012463)
(260.21088 -2.3926824e-20 -0.50456293)
(260.27477 -1.2987837e-15 -0.50049569)
(260.6544 1.4993489e-17 -0.37333525)
(260.90261 -1.1087422e-17 -0.25702979)
(261.03919 4.1334739e-18 -0.41176321)
(247.09471 -1.9670742e-17 -1.8488084)
(290.05646 1.6048814e-17 -1.3058449)
(317.97529 -3.2718428e-17 -1.9190998)
(341.00814 2.22144e-17 -1.9803459)
(359.3227 4.6840793e-18 -3.011642)
(369.27187 0 -2.1812223)
(366.06102 0 -3.9566831)
(368.77004 2.196047e-17 -1.6758509)
(366.35727 1.8431497e-17 -4.6344096)
(367.54279 -3.0516199e-17 -1.6442906)
(365.93902 1.2767085e-17 -4.8982471)
(366.19331 0 -2.1039768)
(364.85573 3.5461898e-17 -4.9564913)
(364.34067 1.4751331e-17 -2.9225496)
(363.01006 1.2280297e-17 -5.0756527)
(361.7875 4.1038815e-17 -3.9840024)
(360.06905 -1.5413986e-16 -5.5070403)
(358.05523 7.1205489e-17 -5.2602768)
(355.58211 -9.5265921e-17 -6.4275758)
(352.54726 9.9811527e-18 -6.8276011)
(348.91202 1.2360547e-16 -7.9220792)
(344.50327 0 -8.7645982)
(339.30166 1.155758e-17 -9.8946586)
(333.20435 1.4287944e-16 -10.891893)
(326.28447 0 -11.826512)
(318.68747 2.0827719e-16 -12.409443)
(310.75513 0 -12.527077)
(302.89515 -1.7586108e-17 -12.045643)
(295.51391 -4.203011e-16 -11.003353)
(288.89829 -1.1109805e-17 -9.5233536)
(283.19656 -5.7226564e-16 -7.8040551)
(278.42759 4.1919959e-16 -6.0373839)
(274.52559 2.1598013e-17 -4.3848566)
(271.38047 5.3484483e-16 -2.9455429)
(268.89078 -8.4086665e-16 -1.7607411)
(266.94581 -1.2141467e-15 -0.86507786)
(265.41032 2.8919615e-17 -0.24094757)
(264.20012 -7.3016424e-16 0.15855145)
(263.24806 1.5855162e-17 0.37587593)
(262.4952 0 0.44095947)
(261.91646 1.1282788e-15 0.41925596)
(261.48041 7.7293778e-16 0.30659847)
(261.00253 -1.7761583e-17 0.077864571)
(260.50235 1.3161389e-17 -0.20561915)
(260.26151 1.2053778e-15 -0.40435608)
(260.20957 1.7933303e-15 -0.50187689)
(260.28118 2.5918815e-15 -0.48315691)
(260.66914 9.474404e-16 -0.35329971)
(260.90799 0 -0.24409674)
(261.03977 -4.0438912e-18 -0.39469421)
(248.40299 -2.8534942e-18 -3.0193654)
(291.51571 -1.6462574e-21 -2.6352814)
(319.52341 -2.3288895e-17 -3.3895774)
(342.59691 2.8229162e-17 -3.5414365)
(360.28885 0 -4.7351324)
(369.47906 -7.933389e-18 -3.7926058)
(366.0127 0 -5.7280084)
(368.78911 1.1142275e-17 -3.2848687)
(366.2798 -5.5955034e-17 -6.4143611)
(367.48744 3.0991135e-17 -3.2794969)
(365.8098 -3.8810574e-17 -6.684401)
(366.04661 1.7382492e-20 -3.7894859)
(364.65848 -7.1932729e-17 -6.7470216)
(364.09167 -1.5013905e-17 -4.68406)
(362.6997 1.2544523e-17 -6.9017282)
(361.40205 -1.038041e-17 -5.8279632)
(359.60403 6.9446403e-17 -7.3868809)
(357.48983 -5.8068639e-17 -7.1866013)
(354.90464 9.6481906e-17 -8.3844616)
(351.73521 0 -8.8352178)
(347.94727 1.3451527e-16 -9.9562186)
(343.36578 -1.4113365e-17 -10.831066)
(337.97442 -2.8734352e-19 -11.961509)
(331.68202 -1.443499e-16 -12.933078)
(324.58366 -2.5666555e-16 -13.785679)
(316.86038 -2.2367254e-16 -14.226597)
(308.88541 3.2586779e-17 -14.140764)
(301.08127 -1.7365854e-17 -13.418395)
(293.8436 0 -12.126078)
(287.43217 0 -10.413737)
(281.96277 -2.4824906e-18 -8.4946999)
(277.42645 -8.7894714e-16 -6.5659085)
(273.73777 6.8177816e-16 -4.786563)
(270.7764 -1.6922483e-17 -3.2490607)
(268.4399 1.7085563e-15 -1.9877939)
(266.61891 -4.0011238e-17 -1.0347085)
(265.1779 0 -0.36837538)
(264.03631 0 0.063173064)
(263.13245 -1.0190233e-15 0.30525387)
(262.41356 -2.3404945e-17 0.3893147)
(261.86158 -1.0771665e-15 0.38340467)
(261.43215 0 0.27749902)
(260.92066 -1.1396342e-15 0.054825657)
(260.45019 -1.3108523e-17 -0.22095745)
(260.24003 -1.9026845e-17 -0.40636437)
(260.20993 -8.6896117e-16 -0.49795247)
(260.29552 -1.2627197e-15 -0.46534779)
(260.684 -9.4967144e-16 -0.33331933)
(260.91342 0 -0.23143692)
(261.04014 0 -0.37775045)
(249.5958 -8.6932506e-17 -4.1878155)
(292.82924 6.6340358e-17 -4.013075)
(320.9251 -5.4103006e-17 -4.9000337)
(344.07934 -5.7420721e-17 -5.1446196)
(361.02433 -9.6891395e-18 -6.498407)
(369.53036 3.2165185e-17 -5.4305035)
(365.80073 0 -7.5263611)
(368.54057 2.2587197e-17 -4.9208488)
(366.02511 -1.8940485e-17 -8.2261307)
(367.20618 4.7168845e-17 -4.9465574)
(365.50639 -5.2556379e-17 -8.500804)
(365.68924 6.5587278e-17 -5.5142931)
(364.3029 -1.8218465e-17 -8.5747515)
(363.6839 1.5255269e-17 -6.4796169)
(362.23271 -1.2654949e-17 -8.7522411)
(360.85943 4.2411066e-17 -7.7000396)
(358.97994 0 -9.2887003)
(356.76229 5.8794301e-17 -9.1348312)
(354.0619 8.6044144e-17 -10.357239)
(350.75433 1.0146374e-17 -10.856675)
(346.80762 -1.36062e-16 -11.999485)
(342.04612 1.435473e-17 -12.900693)
(336.45819 1.7800168e-16 -14.022294)
(329.96732 0 -14.955341)
(322.694 1.4470343e-17 -15.709023)
(314.85828 4.1252004e-19 -15.989076)
(306.86433 -1.0821475e-17 -15.683857)
(299.14495 0 -14.711391)
(292.07968 0 -13.16796)
(285.89714 -7.4157075e-16 -11.228837)
(280.67918 6.0192511e-16 -9.1197318)
(276.38931 -1.7409052e-17 -7.0401448)
(272.92339 -7.0805735e-16 -5.1451558)
(270.15221 -1.0719394e-15 -3.5193074)
(267.9737 -1.6653185e-15 -2.1897249)
(266.28044 2.47297e-15 -1.1859509)
(264.93663 9.7591034e-16 -0.48285918)
(263.86547 -1.405605e-15 -0.023345654)
(263.01134 1.0204799e-15 0.24063907)
(262.32863 -1.4979452e-15 0.34174265)
(261.80491 3.3943547e-17 0.34959665)
(261.38131 -2.4838717e-17 0.24790055)
(260.83905 0 0.032219926)
(260.39925 0 -0.23378624)
(260.21354 1.2100877e-15 -0.40606562)
(260.2083 0 -0.49092453)
(260.319 0 -0.44893168)
(260.69981 -9.2256854e-16 -0.31373193)
(260.91904 -1.0531386e-17 -0.21908019)
(261.04042 1.5499674e-17 -0.3609469)
(250.62051 -1.0009187e-16 -5.3988976)
(293.96607 4.2121953e-18 -5.4120601)
(322.15893 0 -6.443435)
(345.44505 5.8286112e-18 -6.7857568)
(361.51615 -2.9379897e-17 -8.2913242)
(369.39186 4.081737e-17 -7.0798593)
(365.45141 -2.7739761e-17 -9.3398359)
(368.2353 3.4340679e-17 -6.5717034)
(365.64439 1.9227372e-17 -10.058273)
(366.84932 0 -6.6369278)
(365.08968 0 -10.340927)
(365.25747 0 -7.2670899)
(363.80996 0 -10.426581)
(363.13985 0 -8.3046088)
(361.62962 -5.1639624e-17 -10.624199)
(360.17941 -4.2939444e-17 -9.5968254)
(358.21687 -1.8025434e-17 -11.208961)
(355.89339 1.4864398e-17 -11.102761)
(353.07292 -1.9957225e-16 -12.345602)
(349.62086 1.6685781e-16 -12.891733)
(345.50745 0 -14.05096)
(340.55803 0 -14.97178)
(334.76609 -1.9157174e-16 -16.074483)
(328.07321 3.004666e-16 -16.954407)
(320.62995 2.7979538e-16 -17.590421)
(312.69781 4.384137e-16 -17.689747)
(304.71007 -3.5939727e-16 -17.149381)
(297.10454 0 -15.918806)
(290.23924 0 -14.124759)
(284.30809 1.4983078e-15 -11.965887)
(279.35813 0 -9.6774762)
(275.326 9.5194715e-16 -7.4591235)
(272.09005 -2.2220189e-17 -5.4600594)
(269.51365 2.1918497e-15 -3.7558765)
(267.49647 -8.3262864e-16 -2.366189)
(265.93358 -1.2516614e-15 -1.3185096)
(264.68879 8.0017713e-19 -0.58416244)
(263.68915 2.7744905e-15 -0.10078854)
(262.88573 3.1977743e-17 0.18230254)
(262.24118 1.4980611e-15 0.29875622)
(261.74658 2.1343683e-15 0.31811228)
(261.32779 2.4789511e-17 0.21808082)
(260.76048 -1.1510128e-15 0.0097635766)
(260.35144 0 -0.24461599)
(260.18703 -2.4233323e-15 -0.40398353)
(260.20042 1.7502628e-15 -0.4811147)
(260.34804 0 -0.43328261)
(260.71686 9.1026747e-16 -0.29485315)
(260.92476 1.0354259e-17 -0.20707965)
(261.04069 -9.7895044e-16 -0.34429913)
(251.53929 -5.987837e-18 -6.6403034)
(294.9876 -4.2900108e-18 -6.8339521)
(323.27419 0 -8.0165829)
(346.73908 -9.4847087e-17 -8.4622333)
(361.8024 6.9437242e-17 -10.112592)
(369.07816 0 -8.7528473)
(365.00917 1.4078543e-17 -11.184941)
(367.8019 0 -8.2488581)
(365.16318 1.9562798e-17 -11.917711)
(366.36101 -3.2337247e-17 -8.3537283)
(364.55582 -8.1244136e-17 -12.203414)
(364.69398 6.7641028e-17 -9.0452716)
(363.20216 0 -12.295716)
(362.47928 1.5732538e-17 -10.155148)
(360.90915 -1.3229552e-17 -12.515427)
(359.37933 -2.1928939e-17 -11.517624)
(357.33043 1.812586e-17 -13.147752)
(354.89662 1.2187945e-16 -13.090455)
(351.94977 1.0113976e-16 -14.3495)
(348.34595 -1.6867534e-16 -14.940048)
(344.05697 1.7803926e-17 -16.110198)
(338.9107 -1.450695e-17 -17.043016)
(332.90709 1.9634746e-16 -18.11534)
(326.00984 -6.4998404e-16 -18.925643)
(318.40389 0 -19.423522)
(310.39409 -4.4203249e-16 -19.321503)
(302.4397 3.6225578e-16 -18.530811)
(294.97752 0 -17.035623)
(288.33852 4.7760597e-16 -14.993173)
(282.67914 -7.5653106e-16 -12.623026)
(278.01132 1.8798091e-17 -10.167061)
(274.24585 -1.4487176e-17 -7.8225449)
(271.24497 -7.2223428e-16 -5.7312302)
(268.86617 -2.2246099e-15 -3.9587678)
(267.01233 1.6865906e-15 -2.5171449)
(265.58141 -1.2391642e-15 -1.4323198)
(264.43657 -9.527427e-16 -0.67221877)
(263.50888 8.8465806e-19 -0.16906762)
(262.75661 -1.0236649e-15 0.13037522)
(262.15158 1.4751229e-15 0.26144119)
(261.68631 -1.0743814e-15 0.28910578)
(261.27026 0 0.1886523)
(260.68627 1.146542e-15 -0.012540982)
(260.30809 -1.6562712e-15 -0.25381898)
(260.16263 1.1941616e-15 -0.40082576)
(260.18704 -1.6947672e-15 -0.46903016)
(260.38118 -1.9412922e-17 -0.41721421)
(260.73438 1.4025635e-17 -0.27687917)
(260.93039 -1.0185385e-17 -0.19546241)
(261.04095 1.3603167e-20 -0.32781569)
(252.36339 2.0050001e-16 -7.9165279)
(295.90265 4.3518139e-18 -8.29324)
(324.27566 -1.0675307e-16 -9.6336786)
(347.96775 9.6231428e-17 -10.185391)
(361.89577 2.0153333e-17 -11.967631)
(368.60742 6.7379974e-17 -10.453156)
(364.47008 -1.2836567e-16 -13.062518)
(367.27822 -9.6145732e-20 -9.9537915)
(364.58472 -1.9908025e-17 -13.804655)
(365.78126 6.5636074e-17 -10.099034)
(363.92598 2.7428413e-17 -14.09167)
(364.03566 1.4858978e-19 -10.852888)
(362.49411 0 -14.185957)
(361.71535 3.1952461e-17 -12.032266)
(360.08326 7.9837906e-17 -14.425899)
(358.47031 -6.6651738e-17 -13.462164)
(356.33089 -1.8407853e-17 -15.104717)
(353.78139 -1.0768845e-16 -15.097728)
(350.7007 -1.2782995e-17 -16.369184)
(346.93667 1.5080745e-16 -17.001456)
(342.46252 1.772963e-17 -18.176415)
(337.11024 2.3992203e-16 -19.112558)
(330.88775 1.6639367e-18 -20.141631)
(323.78534 6.6131779e-16 -20.86386)
(316.02697 -2.7514419e-16 -21.201567)
(307.96139 4.5357551e-16 -20.877249)
(300.06953 -3.7126921e-16 -19.822106)
(292.78048 0 -18.057627)
(286.39287 -4.8097811e-16 -15.770825)
(281.02358 7.9432737e-16 -13.199288)
(276.64972 5.8733655e-16 -10.588393)
(273.15757 9.4409265e-16 -8.1307471)
(270.39486 7.2599586e-16 -5.9591228)
(268.21491 1.0924467e-15 -4.1283627)
(266.52517 -8.5386095e-16 -2.6428364)
(265.22686 1.8204078e-17 -1.5275353)
(264.1821 0 -0.74712312)
(263.32616 -1.4143326e-15 -0.22820947)
(262.62511 -1.0089602e-15 0.084706275)
(262.06005 5.2482257e-19 0.22981341)
(261.62342 3.4085933e-17 0.26274226)
(261.20622 -1.6297278e-15 0.16057179)
(260.61711 3.5681779e-17 -0.034501501)
(260.26932 -1.3117968e-17 -0.26157662)
(260.1423 1.2044658e-15 -0.3971596)
(260.17552 -1.3330238e-17 -0.45508637)
(260.41608 0 -0.40038713)
(260.75167 1.7712345e-15 -0.25980548)
(260.93575 0 -0.18422833)
(261.04113 9.3113843e-16 -0.31149664)
(253.09515 0 -9.2187841)
(296.72123 0 -9.7746745)
(325.17021 -7.2263238e-18 -11.281142)
(349.12946 1.2232736e-17 -11.941091)
(361.80466 -1.0212056e-17 -13.843404)
(367.99705 1.7112869e-17 -12.173798)
(363.84379 0 -14.970906)
(366.66526 0 -11.685118)
(363.91903 2.0038573e-17 -15.7173)
(365.11091 -3.341727e-17 -11.870421)
(363.20734 -2.7936654e-17 -16.001321)
(363.28573 -2.3211805e-17 -12.686359)
(361.69501 -3.8893486e-17 -16.095141)
(360.85691 6.4680947e-17 -13.935374)
(359.16034 -1.0775581e-16 -16.355309)
(357.46008 1.5783559e-16 -15.430417)
(355.22502 0 -17.080398)
(352.55341 0 -17.125018)
(349.33045 1.0504201e-16 -18.405022)
(345.39714 -1.7420876e-16 -19.075609)
(340.72785 -1.8419085e-17 -20.248616)
(335.1603 -2.2711337e-16 -21.178203)
(328.71251 -2.015248e-16 -22.149448)
(321.40654 3.1685487e-18 -22.763148)
(313.50952 5.5726702e-16 -22.917323)
(305.41344 -4.5696795e-16 -22.349882)
(297.61525 3.7395467e-16 -21.017647)
(290.52919 1.9221594e-17 -18.981307)
(284.4168 -1.5104928e-17 -16.45615)
(279.35389 -1.5545308e-15 -13.694486)
(275.28354 -6.0970042e-16 -10.942059)
(272.06924 -9.4924237e-16 -8.3846155)
(269.54596 -1.4441886e-15 -6.144619)
(267.56464 -1.7407917e-17 -4.2653747)
(266.0386 2.6466651e-17 -2.7437567)
(264.87267 1.2476476e-15 -1.6045014)
(263.92736 0 -0.80911854)
(263.14241 1.3955221e-15 -0.27833604)
(262.49251 2.0487207e-15 0.04503057)
(261.96735 -1.4964152e-15 0.19752982)
(261.55712 -3.4023164e-17 0.23902124)
(261.13334 4.8725387e-17 0.13494089)
(260.5534 -2.2748958e-15 -0.055729003)