/*--------------------------------*- C++ -*----------------------------------*\
  =========                 |
  \\      /  F ield         | OpenFOAM: The Open Source CFD Toolbox
   \\    /   O peration     | Website:  https://openfoam.org
    \\  /    A nd           | Version:  8
     \\/     M anipulation  |
\*---------------------------------------------------------------------------*/
FoamFile
{
    version     2.0;
    format      ascii;
    class       volVectorField;
    location    "0.0999939";
    object      wallShearStress;
}
// * * * * * * * * * * * * * * * * * * * * * * * * * * * * * * * * * * * * * //

dimensions      [1 -1 -2 0 0 0 0];

internalField   uniform (0 0 0);

boundaryField
{
    aerofoil
    {
        type            calculated;
        value           nonuniform List<vector> 
300
(
(-131.79564 1.0853941e-22 -6.4011191)
(-138.3099 3.848625e-19 -6.1553144)
(-143.09192 2.0213175e-16 -5.8020001)
(-147.28779 -1.0341332e-16 -5.3757405)
(-150.88299 1.0561549e-16 -4.9002547)
(-154.0139 1.0785103e-16 -4.3685019)
(-156.67906 5.5176194e-17 -3.7734456)
(-159.04359 -7.6766126e-20 -3.0411907)
(-161.12788 -7.7450384e-35 -2.3300663)
(-163.04873 8.2754802e-35 -1.5584954)
(-164.83958 1.3313759e-17 -0.75473079)
(-166.60044 1.8156343e-18 0.022712391)
(-168.30522 5.8584853e-17 0.79890273)
(-169.8882 6.7950541e-17 1.6191005)
(-171.37087 4.0786791e-18 2.4702807)
(-172.78499 -1.3736576e-16 3.3543785)
(-174.12605 -3.6731793e-19 4.2671045)
(-175.40217 -4.3365835e-18 5.209436)
(-176.6059 1.4604743e-16 6.1798768)
(-177.76015 -4.5558927e-18 7.1820975)
(-178.85523 2.9879329e-16 8.216132)
(-179.8797 1.5467255e-16 9.2813538)
(-180.83582 1.4823354e-16 10.382808)
(-181.72113 1.5600434e-16 11.520344)
(-182.56815 -6.8547398e-21 12.701496)
(-183.37003 7.7064934e-21 13.92053)
(-184.14506 3.3059806e-16 15.1808)
(-184.91716 -3.3725083e-16 16.49126)
(-185.68847 3.8424261e-20 17.84904)
(-186.48271 -1.7023338e-19 19.264919)
(-187.30215 -3.5739961e-16 20.742104)
(-188.15766 1.1411874e-17 22.283758)
(-189.04757 -7.5389648e-16 23.893004)
(-189.9583 -1.540744e-33 25.587122)
(-190.89597 7.7069269e-16 27.384414)
(-191.83389 3.9364199e-16 29.284495)
(-192.74632 -3.9970331e-16 31.276017)
(-193.63306 -4.2004448e-16 33.37187)
(-194.47377 1.1192832e-17 35.579506)
(-195.27622 -4.2054227e-16 37.903799)
(-196.03914 -4.3223608e-16 40.358022)
(-196.79629 4.3762326e-16 42.947342)
(-197.52742 4.4148312e-16 45.665831)
(-198.24353 4.5326708e-16 48.513752)
(-198.82332 -4.6107187e-16 51.484148)
(-199.25285 -4.8147342e-16 54.587345)
(-199.44908 8.9806725e-18 57.833797)
(-199.37049 -4.7294399e-16 61.222684)
(-198.90996 -3.4750659e-17 64.723711)
(-197.91036 -1.6889281e-19 68.36152)
(-196.40707 3.1759317e-17 72.177221)
(-194.34424 -5.1623115e-16 76.161246)
(-191.6643 -5.3610023e-16 80.320549)
(-188.32381 5.4718192e-16 84.676982)
(-184.29053 5.1603832e-16 89.251311)
(-179.53573 1.7221471e-17 94.055885)
(-174.06322 0 99.120225)
(-167.98696 -9.6892633e-18 104.43135)
(-161.5226 -5.9546334e-16 109.8453)
(-155.35108 6.0482815e-16 115.22028)
(-149.382 1.5000622e-17 120.44)
(-143.2087 -3.7004648e-18 125.37401)
(-136.21592 6.0361387e-16 129.69069)
(-127.94659 6.3638053e-16 132.79909)
(-118.29941 3.0106686e-17 134.58169)
(-107.2836 6.5560335e-16 134.78006)
(-94.854665 6.6064795e-16 132.71176)
(-80.935484 1.0466858e-17 127.84016)
(-66.062191 -1.3721588e-18 119.58513)
(-50.794219 -8.5630779e-19 107.29973)
(-36.096501 -3.5849124e-16 90.924134)
(-22.793725 3.5696457e-16 70.995449)
(-12.163755 1.6747426e-16 48.477018)
(-5.9333783 3.8119279e-18 25.172069)
(-2.6066781 -7.9779391e-19 10.240228)
(-1.2671315 -3.6501181e-19 -0.51914039)
(-3.5389733 6.5033914e-16 -0.70264454)
(-4.5744226 -5.8774718e-39 -0.90163815)
(-6.1588273 -1.465027e-21 -1.1995168)
(-7.7054755 3.147064e-21 -1.4876148)
(-9.389715 5.3803536e-20 -1.7964806)
(-11.108375 -4.6145283e-16 -2.1063281)
(-12.878357 2.0938387e-26 -2.4204002)
(-14.664212 0 -2.731613)
(-16.450511 5.1865335e-16 -3.0380104)
(-18.224151 -1.0685005e-15 -3.3367605)
(-19.980357 1.096681e-15 -3.6271022)
(-21.719257 8.2293181e-21 -3.9093322)
(-23.441558 -5.7329727e-16 -4.1840583)
(-25.143638 -5.841327e-16 -4.4501584)
(-26.822307 -4.5427036e-26 -4.7078819)
(-28.476483 1.1044082e-19 -4.9567638)
(-30.098222 1.1577375e-19 -5.1956668)
(-31.683672 1.2549018e-19 -5.4245556)
(-33.237448 -1.3019571e-19 -5.6439266)
(-34.767385 6.347752e-16 -5.8554001)
(-36.283352 5.4476576e-24 -6.0600466)
(-37.785974 1.2375392e-21 -6.2589625)
(-39.27466 -1.3068034e-15 -6.4512489)
(-40.746887 1.5550961e-19 -6.637267)
(-42.205077 6.6427408e-16 -6.8166057)
(-43.647015 1.2764277e-21 -6.9898897)
(-45.074453 -6.7403972e-16 -7.1562634)
(-46.482667 -6.785286e-16 -7.3160991)
(-47.875793 6.827877e-16 -7.4692135)
(-49.258008 -6.8701777e-16 -7.616442)
(-50.643519 1.6531553e-25 -7.7605689)
(-52.036053 -6.9447061e-16 -7.9002997)
(-53.423874 6.9819772e-16 -8.0349167)
(-54.810467 7.0173242e-16 -8.1645672)
(-56.198739 6.7098414e-22 -8.2897764)
(-57.587522 -6.7667971e-22 -8.4097518)
(-58.96987 6.7657572e-22 -8.5238191)
(-60.344669 -6.821963e-22 -8.6312138)
(-61.718347 -7.1665825e-16 -8.7333794)
(-63.103767 -7.1936241e-16 -8.8307672)
(-64.504341 -7.2215911e-16 -8.923806)
(-65.917445 -7.2461915e-16 -9.0121439)
(-67.338846 1.3897805e-21 -9.0953064)
(-68.769337 2.0291814e-19 -9.1719705)
(-70.201828 -7.3148201e-16 -9.2418841)
(-71.635337 7.3334124e-16 -9.3039825)
(-73.065889 -1.2666356e-19 -9.3575281)
(-74.495193 7.3707382e-16 -9.4028458)
(-75.931784 -9.5112277e-20 -9.4410701)
(-77.391057 1.3591843e-19 -9.4720342)
(-78.876207 -4.1873306e-20 -9.4957168)
(-80.382243 -7.4365158e-16 -9.5127838)
(-81.904604 7.4507971e-16 -9.521059)
(-83.43895 -7.462104e-16 -9.5188389)
(-84.977093 1.0918419e-19 -9.5061849)
(-86.511726 -3.6987188e-21 -9.4819325)
(-88.055849 -7.4916235e-16 -9.4451829)
(-89.64389 -7.4980393e-16 -9.3982755)
(-91.2802 7.5054839e-16 -9.3416984)
(-92.947582 -1.0014673e-19 -9.2720511)
(-94.593722 3.7584272e-16 -9.1860147)
(-96.166198 -2.6060782e-20 -9.0776769)
(-97.591725 5.1393344e-20 -8.9407788)
(-98.824515 -3.7601061e-16 -8.7721516)
(-99.858692 3.7569302e-16 -8.571494)
(-100.75543 3.7507667e-16 -8.3456225)
(-101.688 -3.7415741e-16 -8.1050044)
(-102.90795 -3.7253261e-16 -7.865426)
(-104.73969 4.8148249e-35 -7.6409822)
(-107.47091 3.6783934e-16 -7.4351764)
(-111.2248 -3.6530355e-16 -7.2565727)
(-115.99673 3.63797e-16 -7.0766622)
(-121.55045 -2.0008437e-20 -6.8989904)
(-126.2912 1.120624e-20 -6.5942548)
(-136.06801 -2.1283669e-16 -7.5980906)
(-135.33819 2.181877e-16 -8.0765186)
(-136.02507 8.3215648e-19 -8.6716624)
(-136.6871 -2.2857319e-16 -9.2854472)
(-137.49918 -2.3199846e-16 -9.9011745)
(-138.58254 -1.180934e-21 -10.584786)
(-139.69618 -2.3957999e-16 -11.258377)
(-141.02907 -2.5031616e-16 -11.991731)
(-142.30564 -2.4919734e-16 -12.727513)
(-143.62799 9.3422369e-22 -13.508033)
(-144.84511 -5.2005371e-16 -14.286482)
(-146.03469 -4.2826944e-18 -15.094716)
(-147.12999 1.914193e-18 -15.911948)
(-148.1173 1.2868564e-19 -16.743926)
(-149.04851 4.2780817e-18 -17.595127)
(-149.97119 -5.8375751e-16 -18.470468)
(-150.84073 9.1527119e-18 -19.36287)
(-151.65474 -1.1936727e-15 -20.274597)
(-152.39493 -4.7353851e-18 -21.200288)
(-153.07703 -1.239812e-15 -22.143714)
(-153.69268 6.2692613e-16 -23.10329)
(-154.24569 4.5605432e-18 -24.079081)
(-154.75828 6.5570883e-16 -25.076395)
(-155.21646 6.6841097e-16 -26.089648)
(-155.6317 6.8642225e-16 -27.129307)
(-155.97899 -1.084183e-17 -28.183483)
(-156.27318 3.5910032e-16 -29.261773)
(-156.49806 -3.6012305e-16 -30.359329)
(-156.65489 3.6705348e-16 -31.479316)
(-156.75816 1.1712599e-17 -32.626918)
(-156.82221 3.8114401e-16 -33.813197)
(-156.84994 -4.1262141e-16 -35.032038)
(-156.86734 4.2052791e-16 -36.291566)
(-156.89192 2.5834042e-19 -37.602639)
(-156.93415 -2.5682201e-17 -38.976194)
(-156.97327 1.2130512e-17 -40.408621)
(-157.04539 -1.3375922e-17 -41.909013)
(-157.12384 -4.3531875e-16 -43.484898)
(-157.20094 1.4238869e-17 -45.143243)
(-157.23413 4.6570089e-16 -46.87228)
(-157.18924 -1.3665259e-17 -48.669922)
(-157.03926 -2.1145693e-20 -50.544978)
(-156.80139 4.6616874e-16 -52.515387)
(-156.46601 1.5204346e-17 -54.586772)
(-156.01413 -9.9468589e-16 -56.76598)
(-155.49065 0 -59.069435)
(-154.88685 3.1735927e-18 -61.481696)
(-154.11436 -5.2626201e-16 -63.998152)
(-153.08073 4.0522676e-18 -66.604757)
(-151.71283 5.6277486e-16 -69.292226)
(-149.94225 -5.8994086e-16 -72.05957)
(-147.70593 1.9357599e-17 -74.927254)
(-144.95369 -5.9851482e-16 -77.914318)
(-141.66899 4.4025842e-18 -81.059465)
(-137.85763 6.0218855e-16 -84.428063)
(-133.56028 -2.0006169e-19 -88.069999)
(-128.80534 7.6172034e-34 -91.807541)
(-124.03274 9.0149869e-18 -95.611554)
(-119.73438 2.3811827e-19 -99.3534)
(-115.59112 2.3793824e-17 -102.92205)
(-111.12216 -2.0388115e-17 -106.10728)
(-105.85002 6.7218047e-16 -108.66864)
(-99.514102 1.3856607e-15 -110.27938)
(-92.052623 7.0624462e-16 -110.6478)
(-83.293632 7.1226048e-16 -109.40286)
(-73.301029 2.0430449e-17 -106.22595)
(-62.262911 -1.1163004e-17 -100.6711)
(-50.547161 1.1527262e-17 -92.352629)
(-38.719395 2.8369534e-18 -80.962084)
(-27.307991 2.0945065e-18 -66.391944)
(-16.565458 3.440558e-16 -48.995037)
(-8.4332059 -5.4933366e-18 -29.634121)
(-3.9005112 2.2831431e-18 -12.949497)
(-1.5322832 -1.577283e-16 -2.9814273)
(-1.0735318 -1.6138658e-19 1.2801459)
(-75.660472 -5.4405352e-22 9.6579744)
(-105.74562 1.0315183e-15 9.4470269)
(-109.04386 -4.9261741e-19 9.6638064)
(-112.04483 -1.2518545e-32 9.7344254)
(-114.02484 -1.0213571e-15 9.7087604)
(-115.72445 5.6234392e-19 9.6597141)
(-116.98988 1.1962894e-19 9.5757278)
(-118.06888 5.4296672e-26 9.4769325)
(-118.90204 -1.3383093e-21 9.3593236)
(-119.60388 -9.9656212e-16 9.2350639)
(-120.15849 -9.9052234e-16 9.1005576)
(-120.61863 -5.8662976e-19 8.9585567)
(-120.98018 -4.9065152e-16 8.8116194)
(-121.27388 4.8758503e-16 8.6618995)
(-121.50186 -4.8598737e-16 8.5076794)
(-121.6734 9.6741492e-16 8.3515373)
(-121.79929 -9.6279911e-16 8.1934303)
(-121.88561 -9.5852565e-16 8.0328501)
(-121.9365 4.7709502e-16 7.8720279)
(-121.95914 -4.7510485e-16 7.7096871)
(-121.95586 1.4448623e-25 7.5475497)
(-121.93109 -1.9444661e-21 7.3837377)
(-121.88518 -6.4859137e-24 7.2207604)
(-121.82441 4.6631594e-16 7.0558535)
(-121.74859 1.7758203e-21 6.8917413)
(-121.66322 -1.7623774e-21 6.7258759)
(-121.56751 4.6028609e-16 6.5611597)
(-121.46727 1.5772644e-25 6.3943753)
(-121.36194 -1.7405407e-21 6.2280502)
(-121.26096 5.3970147e-19 6.0602835)
(-121.1614 -1.8394934e-19 5.8916506)
(-121.06589 1.6791623e-25 5.7245898)
(-120.97895 -1.774134e-25 5.5546399)
(-120.89069 8.9632659e-16 5.3833405)
(-120.80909 1.9518466e-19 5.2106693)
(-120.73268 4.4489056e-16 5.0370476)
(-120.66745 -4.4264472e-16 4.8613622)
(-120.60915 -4.4091813e-16 4.6838283)
(-120.55928 -6.2028225e-21 4.5034609)
(-120.51472 -8.7456102e-16 4.3213852)
(-120.48252 1.0223664e-19 4.1360574)
(-120.45916 4.3411269e-16 3.9477391)
(-120.44571 -4.3285357e-16 3.7558666)
(-120.44127 -2.1549148e-16 3.5613473)
(-120.45091 -4.2903853e-16 3.3621037)
(-120.47531 -2.1402752e-16 3.1595274)
(-120.52631 -2.4195093e-19 2.9522877)
(-120.60399 2.1225376e-16 2.7401833)
(-120.70707 -2.1173569e-16 2.5230924)
(-120.83579 2.1062811e-16 2.301841)
(-120.99936 -2.100228e-16 2.0738604)
(-121.19065 1.1449954e-19 1.8387332)
(-121.40585 -2.0880792e-16 1.5979621)
(-121.6393 1.2270955e-19 1.34973)
(-121.87593 2.0753053e-16 1.0929724)
(-122.10388 2.4074124e-35 0.82857709)
(-122.32759 -2.3929368e-19 0.55563158)
(-122.56547 -1.0262528e-16 0.27466037)
(-122.84921 -1.0204889e-16 -0.012791751)
(-123.20658 1.0171817e-16 -0.30458492)
(-123.67393 -2.5711046e-19 -0.61390006)
(-124.26777 6.2010192e-21 -0.9637007)
(-125.03097 2.5329307e-17 -1.3333077)
(-125.93248 1.0430611e-19 -1.715505)
(-126.96081 9.5154166e-20 -2.1250636)
(-128.06066 -1.1823904e-19 -2.5590641)
(-129.17576 2.2733484e-25 -2.9639816)
(-130.24552 -2.2476459e-20 -3.3981902)
(-131.20297 0 -3.8482783)
(-132.03729 -9.9797054e-17 -4.320163)
(-132.67442 -9.9725276e-17 -4.804455)
(-133.1719 5.6080634e-20 -5.3057687)
(-133.5348 9.1803167e-21 -5.8232263)
(-133.87941 1.991885e-16 -6.3716913)
(-135.48099 -1.9847829e-16 -7.007858)
)
;
    }
    inlet
    {
        type            calculated;
        value           uniform (0 0 0);
    }
    outlet
    {
        type            calculated;
        value           uniform (0 0 0);
    }
    back
    {
        type            empty;
    }
    front
    {
        type            empty;
    }
}


// ************************************************************************* //
