/*--------------------------------*- C++ -*----------------------------------*\
  =========                 |
  \\      /  F ield         | OpenFOAM: The Open Source CFD Toolbox
   \\    /   O peration     | Website:  https://openfoam.org
    \\  /    A nd           | Version:  8
     \\/     M anipulation  |
\*---------------------------------------------------------------------------*/
FoamFile
{
    version     2.0;
    format      ascii;
    class       volScalarField;
    location    "0.0999939";
    object      yPlus;
}
// * * * * * * * * * * * * * * * * * * * * * * * * * * * * * * * * * * * * * //

dimensions      [0 0 0 0 0 0 0];

internalField   uniform 0;

boundaryField
{
    aerofoil
    {
        type            calculated;
        value           nonuniform List<scalar> 
300
(
122.78213
123.72624
124.32078
124.78855
125.0863
125.34635
125.45502
125.56672
125.61618
125.6795
125.70605
125.76219
125.85248
125.95273
126.045
126.15185
126.26666
126.3923
126.51899
126.65812
126.80682
126.95596
127.10998
127.25911
127.42416
127.59953
127.78928
128.01039
128.25445
128.53582
128.85504
129.21782
129.61868
130.05225
130.52935
131.04468
131.57745
132.13301
132.70654
133.30226
133.91744
134.57237
135.25712
135.99048
136.71129
137.43754
138.13102
138.79032
139.39081
139.87813
140.28306
140.60954
140.85104
141.01474
141.12409
141.20178
141.27961
141.46754
141.81771
142.62445
143.86144
145.45839
147.19528
148.71129
149.93818
150.8294
151.02406
150.03252
147.39523
142.14839
133.34191
119.85785
100.33626
72.866258
46.467101
13.719085
24.304794
27.592788
31.968275
35.690512
39.323569
42.687305
45.869147
48.849617
51.634802
54.238922
56.678415
58.976778
61.149022
63.206722
65.1555
67.006687
68.757987
70.414296
71.986676
73.489599
74.937184
76.333931
77.682309
78.98246
80.239299
81.452816
82.627524
83.760422
84.857199
85.922073
86.966635
87.997214
89.00325
89.988865
90.956191
91.905778
92.832859
93.737408
94.622882
95.499957
96.370273
97.232844
98.08358
98.92431
99.748964
100.55853
101.3501
102.12557
102.88827
103.64811
104.40741
105.16332
105.9125
106.6526
107.37868
108.08672
108.77755
109.47288
110.17364
110.87614
111.55075
112.17633
112.7161
113.14423
113.45945
113.6711
113.85706
114.11953
114.58442
115.38678
116.50953
118.02638
119.72601
121.45272
130.91018
129.91623
129.2636
128.61434
127.96171
127.56881
127.10697
126.88843
126.60856
126.45209
126.24768
126.10341
125.96401
125.83248
125.70492
125.61715
125.54718
125.49923
125.45788
125.43356
125.42199
125.41735
125.43271
125.45102
125.49221
125.52842
125.57874
125.62291
125.66579
125.70483
125.76485
125.83235
125.91923
126.03094
126.18209
126.36359
126.58335
126.83181
127.11554
127.41606
127.7213
128.01529
128.30845
128.61086
128.90293
129.22443
129.56167
129.89125
130.18597
130.41977
130.56867
130.63614
130.6205
130.53562
130.4264
130.36808
130.3492
130.58922
131.25196
132.25779
133.39236
134.45117
135.23532
135.622
135.39432
134.33021
132.09118
128.21931
122.04785
112.57908
98.443818
77.858404
52.317303
25.699485
16.966946
124.91383
129.01852
130.47117
131.93211
132.67628
133.37092
133.7778
134.13784
134.34498
134.51284
134.59511
134.64512
134.64261
134.61317
134.55388
134.47041
134.36621
134.24565
134.10933
133.96174
133.80276
133.63611
133.45957
133.27867
133.09008
132.89882
132.70242
132.50622
132.30645
132.10988
131.91482
131.72007
131.53234
131.34226
131.15738
130.97258
130.79407
130.61763
130.44701
130.27612
130.11181
129.94994
129.79319
129.63924
129.49278
129.35009
129.21928
129.09997
128.99313
128.8944
128.81222
128.74246
128.68334
128.63317
128.58649
128.53615
128.48257
128.42866
128.39151
128.37782
128.41195
128.48142
128.62844
128.82666
129.08644
129.38478
129.69571
130.00942
130.27611
130.54088
130.71603
130.85978
130.93532
131.02872
131.21616
)
;
    }
    inlet
    {
        type            calculated;
        value           uniform 0;
    }
    outlet
    {
        type            calculated;
        value           uniform 0;
    }
    back
    {
        type            empty;
    }
    front
    {
        type            empty;
    }
}


// ************************************************************************* //
