/*--------------------------------*- C++ -*----------------------------------*\
  =========                 |
  \\      /  F ield         | OpenFOAM: The Open Source CFD Toolbox
   \\    /   O peration     | Website:  https://openfoam.org
    \\  /    A nd           | Version:  8
     \\/     M anipulation  |
\*---------------------------------------------------------------------------*/
FoamFile
{
    version     2.0;
    format      ascii;
    class       volScalarField;
    location    "0.280002";
    object      alphat;
}
// * * * * * * * * * * * * * * * * * * * * * * * * * * * * * * * * * * * * * //

dimensions      [1 -1 -1 0 0 0 0];

internalField   nonuniform List<scalar> 
20000
(
0.00093293261
0.0024261314
0.0033748964
0.0038619575
0.0037736648
0.0029134866
0.00097642164
3.2466614e-06
1.8509654e-09
1.792022e-09
1.7403267e-09
1.7613013e-09
1.7419106e-09
1.7692399e-09
1.7742502e-09
1.8069049e-09
1.8318272e-09
1.8766983e-09
1.9244526e-09
1.99223e-09
2.0715325e-09
2.1761953e-09
2.3038231e-09
2.4674847e-09
2.6698016e-09
2.9230709e-09
3.231911e-09
3.6029832e-09
4.0339657e-09
4.5198645e-09
5.0462729e-09
5.586404e-09
6.1026503e-09
6.5670478e-09
6.964843e-09
7.2959349e-09
7.5624182e-09
7.7770989e-09
7.9472902e-09
8.0843469e-09
8.1928173e-09
8.2811319e-09
8.354994e-09
8.414849e-09
8.4618347e-09
8.4982746e-09
8.5485302e-09
8.5913821e-09
8.6199715e-09
8.663556e-09
0.00093958193
0.0024230083
0.0033473753
0.0038067849
0.0036852496
0.0027838478
0.0008482961
1.1570802e-06
1.8365485e-09
1.8097113e-09
1.7572531e-09
1.7793155e-09
1.7600533e-09
1.7886463e-09
1.7943055e-09
1.8285025e-09
1.8548231e-09
1.9017758e-09
1.951849e-09
2.0227166e-09
2.1057663e-09
2.2151516e-09
2.3485765e-09
2.5192598e-09
2.7299559e-09
2.992593e-09
3.3109224e-09
3.689522e-09
4.1234161e-09
4.6047806e-09
5.1186103e-09
5.6414696e-09
6.1413777e-09
6.5932373e-09
6.9826349e-09
7.3076587e-09
7.5700564e-09
7.7821821e-09
7.9509982e-09
8.0871791e-09
8.1950863e-09
8.2833331e-09
8.3571658e-09
8.4167724e-09
8.463097e-09
8.5001789e-09
8.5500637e-09
8.5941614e-09
8.6244661e-09
8.6651119e-09
0.00093952172
0.0024114002
0.0033159907
0.0037471784
0.0035968558
0.0026485165
0.0007260622
4.0478332e-07
1.8344794e-09
1.8274254e-09
1.7748367e-09
1.7979317e-09
1.7789824e-09
1.8087865e-09
1.815233e-09
1.8509823e-09
1.8788283e-09
1.9279719e-09
1.9805778e-09
2.0547836e-09
2.1419083e-09
2.2564396e-09
2.3962056e-09
2.5746246e-09
2.7945983e-09
3.067712e-09
3.3966953e-09
3.7839154e-09
4.2215396e-09
4.6989093e-09
5.2002564e-09
5.7050797e-09
6.1868318e-09
6.6238234e-09
7.0024106e-09
7.3205828e-09
7.5784117e-09
7.7876063e-09
7.9546694e-09
8.0897327e-09
8.1969704e-09
8.2849945e-09
8.3586913e-09
8.4180617e-09
8.4638173e-09
8.5015901e-09
8.5525998e-09
8.5969307e-09
8.6342e-09
8.664562e-09
0.00094027982
0.0024013615
0.0032865397
0.0036924309
0.003507763
0.0025068054
0.00061744139
1.4630221e-07
1.840745e-09
1.8462953e-09
1.7935255e-09
1.8176595e-09
1.7990544e-09
1.8300564e-09
1.8373178e-09
1.8746561e-09
1.9040972e-09
1.9555252e-09
2.0107843e-09
2.088467e-09
2.1798334e-09
2.2997033e-09
2.4460562e-09
2.6325406e-09
2.8621573e-09
3.1461157e-09
3.4860382e-09
3.8821453e-09
4.3240438e-09
4.7987368e-09
5.2897192e-09
5.7784615e-09
6.2426737e-09
6.6641771e-09
7.0306957e-09
7.34006e-09
7.591668e-09
7.796696e-09
7.9610998e-09
8.0943759e-09
8.2004916e-09
8.2879825e-09
8.3612928e-09
8.4201901e-09
8.4651457e-09
8.5033465e-09
8.5548871e-09
8.6011226e-09
8.6392648e-09
8.6645329e-09
0.00094080444
0.0023914274
0.003256771
0.003636607
0.003417641
0.00235828
0.00051545028
5.5936635e-08
1.8523658e-09
1.866035e-09
1.8131782e-09
1.8383403e-09
1.8201701e-09
1.8523788e-09
1.8605562e-09
1.8995727e-09
1.9307575e-09
1.9846368e-09
2.0427716e-09
2.1241834e-09
2.220114e-09
2.3457215e-09
2.4991782e-09
2.6943545e-09
2.9343502e-09
3.2298986e-09
3.5813663e-09
3.9866818e-09
4.4329256e-09
4.9049765e-09
5.3857948e-09
5.8586624e-09
6.3050512e-09
6.710214e-09
7.0634754e-09
7.3630646e-09
7.6075971e-09
7.8077561e-09
7.9689126e-09
8.0999706e-09
8.2046764e-09
8.2914006e-09
8.3641549e-09
8.422457e-09
8.4665431e-09
8.5050651e-09
8.5576406e-09
8.606301e-09
8.6437523e-09
8.664448e-09
0.00094139511
0.0023816283
0.0032269367
0.0035805097
0.003326885
0.0022029682
0.00042190996
2.3714128e-08
1.8677332e-09
1.8865948e-09
1.8338097e-09
1.8600079e-09
1.8423799e-09
1.8758233e-09
1.8850277e-09
1.925819e-09
1.9588925e-09
2.0153796e-09
2.0765893e-09
2.1619602e-09
2.2627541e-09
2.3944768e-09
2.5555256e-09
2.7599842e-09
3.0110262e-09
3.3187817e-09
3.6821894e-09
4.0968117e-09
4.547329e-09
5.0168124e-09
5.4878949e-09
5.9454189e-09
6.3741118e-09
6.7624946e-09
7.1016489e-09
7.3903777e-09
7.6268503e-09
7.8213361e-09
7.9785992e-09
8.1069513e-09
8.2099056e-09
8.2956146e-09
8.3676248e-09
8.4251475e-09
8.4682372e-09
8.5069913e-09
8.5609036e-09
8.6120787e-09
8.6465462e-09
8.6644758e-09
0.00094224929
0.002372077
0.0031965387
0.0035235881
0.0032353822
0.0020411632
0.00033642637
1.1531888e-08
1.8856266e-09
1.9077619e-09
1.855362e-09
1.8826368e-09
1.8656704e-09
1.9004116e-09
1.9107706e-09
1.953446e-09
1.9885662e-09
2.0478336e-09
2.1123431e-09
2.2019389e-09
2.3079533e-09
2.4462492e-09
2.615476e-09
2.829918e-09
3.092778e-09
3.4134277e-09
3.7891667e-09
4.2130691e-09
4.6675058e-09
5.1340147e-09
5.5951774e-09
6.0373857e-09
6.4483176e-09
6.8195515e-09
7.143949e-09
7.4210821e-09
7.6487802e-09
7.8369679e-09
7.9898059e-09
8.1150464e-09
8.215957e-09
8.3004319e-09
8.371539e-09
8.4281164e-09
8.4701434e-09
8.5092207e-09
8.5650409e-09
8.6175357e-09
8.6489865e-09
8.6647348e-09
0.00094318812
0.0023625625
0.0031654152
0.0034655879
0.0031430238
0.0018738078
0.00025841387
6.5578958e-09
1.90546e-09
1.9298545e-09
1.8779204e-09
1.9063017e-09
1.8900971e-09
1.9262087e-09
1.9378475e-09
1.9825096e-09
2.0198341e-09
2.0820507e-09
2.1500846e-09
2.2441826e-09
2.355801e-09
2.5011582e-09
2.6791833e-09
2.9043362e-09
3.179794e-09
3.5139705e-09
3.9023111e-09
4.3352981e-09
4.7931277e-09
5.2561085e-09
5.7070495e-09
6.1338987e-09
6.5270381e-09
6.880896e-09
7.1900655e-09
7.4549754e-09
7.6732684e-09
7.8545944e-09
8.0025209e-09
8.1242706e-09
8.2228578e-09
8.305892e-09
8.375937e-09
8.4313878e-09
8.4723309e-09
8.5120044e-09
8.5702505e-09
8.6223426e-09
8.6509593e-09
8.6650111e-09
0.00094427221
0.0023530847
0.0031341662
0.0034060965
0.0030493232
0.0017026971
0.00018707368
4.3486949e-09
1.9268632e-09
1.9528796e-09
1.901514e-09
1.9310368e-09
1.9157035e-09
1.9532563e-09
1.9662984e-09
2.0130525e-09
2.052743e-09
2.118089e-09
2.1898923e-09
2.2888051e-09
2.4064596e-09
2.559423e-09
2.7469259e-09
2.9835789e-09
3.2724457e-09
3.6207549e-09
4.0218609e-09
4.4635671e-09
4.9240481e-09
5.3826981e-09
5.8228567e-09
6.2341014e-09
6.6093519e-09
6.945678e-09
7.2392964e-09
7.4915415e-09
7.6999503e-09
7.8739617e-09
8.0165688e-09
8.1345023e-09
8.230521e-09
8.3119296e-09
8.3807559e-09
8.4348984e-09
8.4748308e-09
8.515617e-09
8.5765478e-09
8.6264667e-09
8.6526785e-09
8.6652801e-09
0.00094537971
0.0023438481
0.0031022465
0.0033445645
0.0029535084
0.0015318759
0.00012277795
3.2922981e-09
1.9496496e-09
1.976889e-09
1.9261986e-09
1.9568936e-09
1.942535e-09
1.9815894e-09
1.99616e-09
2.045114e-09
2.0873417e-09
2.1560055e-09
2.2318433e-09
2.3359199e-09
2.460086e-09
2.6212462e-09
2.8189535e-09
3.0679383e-09
3.3710271e-09
3.7340042e-09
4.1478924e-09
4.5977663e-09
5.0599729e-09
5.5133333e-09
5.9420191e-09
6.3373222e-09
6.6945702e-09
7.0132781e-09
7.2911439e-09
7.5304027e-09
7.7285558e-09
7.8948847e-09
8.031831e-09
8.1456669e-09
8.2389014e-09
8.3185194e-09
8.3859635e-09
8.4386057e-09
8.4777136e-09
8.5203819e-09
8.5834186e-09
8.6303541e-09
8.6541669e-09
8.6655082e-09
0.00094684743
0.0023350027
0.0030701361
0.0032806693
0.0028545465
0.0013656753
6.9165089e-05
2.7605754e-09
1.9736747e-09
2.0019191e-09
1.9520141e-09
1.9839006e-09
1.9706084e-09
2.011227e-09
2.0274611e-09
2.0787363e-09
2.1236792e-09
2.1958671e-09
2.2760414e-09
2.3856757e-09
2.5168781e-09
2.6868736e-09
2.8955672e-09
3.1577593e-09
3.4758805e-09
3.8539736e-09
4.2804993e-09
4.7377933e-09
5.2006099e-09
5.6475593e-09
6.0639492e-09
6.4428809e-09
6.7819893e-09
7.0830465e-09
7.3450631e-09
7.5711367e-09
7.7587736e-09
7.917141e-09
8.0481558e-09
8.1576631e-09
8.2479313e-09
8.3256154e-09
8.3915084e-09
8.4424537e-09
8.4810524e-09
8.5266217e-09
8.5906818e-09
8.6341049e-09
8.6555134e-09
8.6656689e-09
0.00094858666
0.0023266097
0.0030381879
0.0032149321
0.002752124
0.0012051235
3.1949464e-05
2.487463e-09
1.9989777e-09
2.0280304e-09
1.9789765e-09
2.0120542e-09
1.9999295e-09
2.0421923e-09
2.0602424e-09
2.113964e-09
2.1618124e-09
2.2377552e-09
2.3226074e-09
2.4382398e-09
2.5770479e-09
2.7565664e-09
2.9770835e-09
3.2533987e-09
3.5873389e-09
3.980879e-09
4.4197087e-09
4.8834673e-09
5.3456027e-09
5.7848953e-09
6.1880813e-09
6.5501644e-09
6.8709923e-09
7.1544164e-09
7.4005744e-09
7.6133631e-09
7.7903166e-09
7.940522e-09
8.0654004e-09
8.1703962e-09
8.2575483e-09
8.3331753e-09
8.3973458e-09
8.4464104e-09
8.4849354e-09
8.5346317e-09
8.5981633e-09
8.6377828e-09
8.6567379e-09
8.6657488e-09
0.00095068942
0.0023188545
0.0030068071
0.0031518706
0.0026442824
0.0010516813
1.2058474e-05
2.3493364e-09
2.0254079e-09
2.0551152e-09
2.007023e-09
2.0413442e-09
2.0305289e-09
2.0745334e-09
2.0945494e-09
2.1508451e-09
2.2018085e-09
2.2817755e-09
2.3716961e-09
2.4938101e-09
2.640837e-09
2.8306179e-09
3.0638558e-09
3.3552397e-09
3.7057404e-09
4.1149146e-09
4.5655057e-09
5.0345623e-09
5.4945581e-09
5.9248409e-09
6.3138542e-09
6.6585812e-09
6.9609949e-09
7.2268516e-09
7.4572165e-09
7.656711e-09
7.8229003e-09
7.9648163e-09
8.083415e-09
8.1837659e-09
8.2676846e-09
8.3411476e-09
8.4034261e-09
8.450481e-09
8.4894857e-09
8.5446194e-09
8.6057185e-09
8.6413787e-09
8.6578411e-09
8.6656794e-09
0.00095287024
0.0023111387
0.002975009
0.0030850015
0.0025288891
0.00090665445
3.9052453e-06
2.2850676e-09
2.0528456e-09
2.0831906e-09
2.0362141e-09
2.0718468e-09
2.0624722e-09
2.1082982e-09
2.1304187e-09
2.1894318e-09
2.2437515e-09
2.3280613e-09
2.4234812e-09
2.5525984e-09
2.7085017e-09
2.9093472e-09
3.1562658e-09
3.4636889e-09
3.8314182e-09
4.2562399e-09
4.7178186e-09
5.19079e-09
5.6470351e-09
6.0668744e-09
6.4407181e-09
6.7675785e-09
7.0514653e-09
7.2998695e-09
7.514573e-09
7.700838e-09
7.8562566e-09
7.9898221e-09
8.1020532e-09
8.1976731e-09
8.2782723e-09
8.3494746e-09
8.4096938e-09
8.4547242e-09
8.4949321e-09
8.5564508e-09
8.6132407e-09
8.6448974e-09
8.6588175e-09
8.6654793e-09
0.00095515091
0.002303413
0.0029439342
0.0030160211
0.0024056799
0.00077069426
1.1659026e-06
2.2627142e-09
2.0814691e-09
2.1124094e-09
2.0666478e-09
2.1036157e-09
2.09579e-09
2.1435024e-09
2.1678874e-09
2.2297916e-09
2.2877669e-09
2.37678e-09
2.4781636e-09
2.6148403e-09
2.7803281e-09
2.9931073e-09
3.2547278e-09
3.5791641e-09
3.9646853e-09
4.4049629e-09
4.8765098e-09
5.3517987e-09
5.8025483e-09
6.2104566e-09
6.5681299e-09
6.8766296e-09
7.1419087e-09
7.3730226e-09
7.5722585e-09
7.7454234e-09
7.8901311e-09
8.0153453e-09
8.1211703e-09
8.2120179e-09
8.2892428e-09
8.3580901e-09
8.4160779e-09
8.4592374e-09
8.5016549e-09
8.5692513e-09
8.6209188e-09
8.6484109e-09
8.6595791e-09
8.6650323e-09
0.00095752672
0.0022951921
0.0029101443
0.0029442854
0.0022737933
0.00064559369
3.4477994e-07
2.2639405e-09
2.1112842e-09
2.1427782e-09
2.0983262e-09
2.1366436e-09
2.1304737e-09
2.1801705e-09
2.2070147e-09
2.2720466e-09
2.334012e-09
2.4281136e-09
2.5359501e-09
2.6807833e-09
2.8566284e-09
3.0822879e-09
3.3596947e-09
3.7021009e-09
4.1058411e-09
4.5611434e-09
5.0413755e-09
5.5171752e-09
5.9605726e-09
6.355037e-09
6.6955586e-09
6.9852386e-09
7.2318734e-09
7.4459108e-09
7.6299247e-09
7.7901742e-09
7.9242874e-09
8.0412038e-09
8.1406288e-09
8.2267039e-09
8.3005298e-09
8.3669221e-09
8.4224902e-09
8.4641167e-09
8.510121e-09
8.5819899e-09
8.6287064e-09
8.6519831e-09
8.660056e-09
8.6641581e-09
0.00096010883
0.002286801
0.0028753318
0.0028712481
0.0021331961
0.00053537273
1.0998537e-07
2.278724e-09
2.1422504e-09
2.1742618e-09
2.1312142e-09
2.1709185e-09
2.1665493e-09
2.2183666e-09
2.2479203e-09
2.3163469e-09
2.3826631e-09
2.4822549e-09
2.5970628e-09
2.7507033e-09
2.9377536e-09
3.1773187e-09
3.4716432e-09
3.8329241e-09
4.255136e-09
4.7247646e-09
5.2121315e-09
5.6864439e-09
6.1205481e-09
6.5000558e-09
6.8224855e-09
7.0929372e-09
7.320944e-09
7.5181712e-09
7.6872567e-09
7.8348223e-09
7.9585062e-09
8.0672272e-09
8.1603002e-09
8.2416387e-09
8.3120703e-09
8.3758961e-09
8.4288331e-09
8.4694075e-09
8.5206749e-09
8.5937061e-09
8.6362003e-09
8.6556862e-09
8.6605092e-09
8.6626029e-09
0.00096294406
0.0022780364
0.00283946
0.0027965356
0.0019839558
0.00043325005
3.9009826e-08
2.3013227e-09
2.1743199e-09
2.2068109e-09
2.1653115e-09
2.2064827e-09
2.2040951e-09
2.2582198e-09
2.2907578e-09
2.362873e-09
2.4338978e-09
2.5393942e-09
2.6617341e-09
2.8249072e-09
3.0240932e-09
3.2786796e-09
3.5910831e-09
3.9720699e-09
4.4127806e-09
4.8957468e-09
5.3884201e-09
5.8590732e-09
6.2818841e-09
6.6449479e-09
6.9484074e-09
7.1992878e-09
7.4087449e-09
7.5894817e-09
7.7439746e-09
7.8791262e-09
7.9925878e-09
8.0932582e-09
8.1800671e-09
8.256738e-09
8.3238053e-09
8.3849413e-09
8.4350277e-09
8.475093e-09
8.5332933e-09
8.6037762e-09
8.6428348e-09
8.6592832e-09
8.6609763e-09
8.6599744e-09
0.00096582934
0.0022682413
0.0028014816
0.0027165212
0.0018270192
0.00033993745
1.6209324e-08
2.3286059e-09
2.207497e-09
2.2405099e-09
2.2007012e-09
2.243451e-09
2.2432534e-09
2.299891e-09
2.335705e-09
2.4117737e-09
2.4878841e-09
2.5997321e-09
2.7302337e-09
2.9037429e-09
3.116086e-09
3.3868803e-09
3.7185383e-09
4.1199322e-09
4.5789119e-09
5.073909e-09
5.5697968e-09
6.034473e-09
6.4439643e-09
6.7891478e-09
7.0728397e-09
7.3038843e-09
7.4949374e-09
7.6595581e-09
7.7998297e-09
7.9228684e-09
8.0263502e-09
8.1191516e-09
8.199823e-09
8.2719247e-09
8.3356772e-09
8.3939936e-09
8.4410545e-09
8.4811664e-09
8.5466487e-09
8.6127963e-09
8.6481187e-09
8.661851e-09
8.6620186e-09
8.6558454e-09
0.0009686932
0.0022571736
0.0027613551
0.0026312868
0.0016644322
0.00025464884
8.1868526e-09
2.3590919e-09
2.2419166e-09
2.2754844e-09
2.2375154e-09
2.2819722e-09
2.2841868e-09
2.3435538e-09
2.382913e-09
2.4632022e-09
2.5447862e-09
2.6634906e-09
2.8028652e-09
2.9876014e-09
3.2142158e-09
3.5024818e-09
3.8545586e-09
4.276893e-09
4.7536082e-09
5.2589888e-09
5.7557433e-09
6.2120051e-09
6.6061514e-09
6.9320927e-09
7.1953188e-09
7.4063552e-09
7.5792218e-09
7.7281534e-09
7.8546055e-09
7.9658565e-09
8.0596306e-09
8.1447762e-09
8.2194713e-09
8.2871297e-09
8.347626e-09
8.4029938e-09
8.446992e-09
8.4878217e-09
8.5601109e-09
8.6208133e-09
8.6521238e-09
8.6633146e-09
8.6624603e-09
8.6506219e-09
0.00097148655
0.0022445789
0.0027176193
0.0025444169
0.001498487
0.00017636551
5.0489592e-09
2.391803e-09
2.277608e-09
2.3118254e-09
2.2758987e-09
2.322213e-09
2.327066e-09
2.3893462e-09
2.4325059e-09
2.5172947e-09
2.6047881e-09
2.7309408e-09
2.8799847e-09
3.0769258e-09
3.3190113e-09
3.6260757e-09
3.9996746e-09
4.4432635e-09
4.9368355e-09
5.4506091e-09
5.9456527e-09
6.3909816e-09
6.7677922e-09
7.0732302e-09
7.3154081e-09
7.506366e-09
7.661336e-09
7.795053e-09
7.9081135e-09
8.0079216e-09
8.0922833e-09
8.170013e-09
8.2389234e-09
8.3022889e-09
8.3595838e-09
8.4118768e-09
8.4530166e-09
8.4956405e-09
8.572985e-09
8.6278435e-09
8.6550789e-09
8.6639097e-09
8.662613e-09
8.6445667e-09
0.00097425414
0.0022310872
0.0026677916
0.0024549734
0.0013313429
0.00010617711
3.7013279e-09
2.4263802e-09
2.3147351e-09
2.3496733e-09
2.316023e-09
2.3643411e-09
2.3720013e-09
2.4373615e-09
2.4845719e-09
2.5742046e-09
2.668119e-09
2.8023962e-09
2.961991e-09
3.1721993e-09
3.4310586e-09
3.7582975e-09
4.1544333e-09
4.6193109e-09
5.1284795e-09
5.6483064e-09
6.1388492e-09
6.5706728e-09
6.9282235e-09
7.2120261e-09
7.432704e-09
7.6036201e-09
7.7410572e-09
7.8600737e-09
7.9601932e-09
8.0489215e-09
8.1241815e-09
8.1947589e-09
8.2580992e-09
8.3173418e-09
8.3714742e-09
8.420564e-09
8.4593429e-09
8.5055027e-09
8.5846717e-09
8.6338105e-09
8.6573265e-09
8.6640597e-09
8.6625154e-09
8.6379618e-09
0.00097726199
0.0022182634
0.0026220432
0.0023609767
0.0011654607
5.0739219e-05
3.086388e-09
2.4624855e-09
2.3535627e-09
2.3892365e-09
2.3580206e-09
2.4084179e-09
2.4190446e-09
2.4876546e-09
2.539235e-09
2.6341292e-09
2.7350709e-09
2.8782308e-09
3.0493311e-09
3.2739612e-09
3.5509874e-09
3.8997972e-09
4.3193231e-09
4.8051906e-09
5.328283e-09
5.8514875e-09
6.3345667e-09
6.7502991e-09
7.0867789e-09
7.3479788e-09
7.5468467e-09
7.6978565e-09
7.8181983e-09
7.9230592e-09
8.0107084e-09
8.0887375e-09
8.1552163e-09
8.2189248e-09
8.2769268e-09
8.332229e-09
8.3832146e-09
8.4289688e-09
8.4661269e-09
8.5180118e-09
8.5947011e-09
8.6387238e-09
8.659122e-09
8.6639996e-09
8.6623256e-09
8.6313323e-09
0.00098008199
0.0022037181
0.002572453
0.0022602956
0.0010041217
1.8212861e-05
2.8054482e-09
2.5001007e-09
2.3940543e-09
2.4306283e-09
2.4018866e-09
2.4544513e-09
2.4682184e-09
2.540331e-09
2.5966726e-09
2.6973407e-09
2.8059849e-09
2.9588466e-09
3.1424868e-09
3.3827957e-09
3.679494e-09
4.0512555e-09
4.4948249e-09
5.0009816e-09
5.5358905e-09
6.0594617e-09
6.5319623e-09
6.9290434e-09
7.2428047e-09
7.4806358e-09
7.6575304e-09
7.7888449e-09
7.8926044e-09
7.9838853e-09
8.0595498e-09
8.1272742e-09
8.1853008e-09
8.2424375e-09
8.2953468e-09
8.346893e-09
8.3947248e-09
8.4370279e-09
8.4734207e-09
8.5324295e-09
8.6036805e-09
8.6426783e-09
8.6598149e-09
8.6639351e-09
8.661433e-09
8.6250623e-09
0.00098297623
0.0021884249
0.002520314
0.0021520901
0.00085026865
5.0903305e-06
2.6866876e-09
2.5400329e-09
2.4359838e-09
2.4735913e-09
2.4475513e-09
2.5024615e-09
2.5196414e-09
2.5955717e-09
2.6571431e-09
2.7641696e-09
2.8812439e-09
3.0446921e-09
3.2419913e-09
3.4993568e-09
3.817306e-09
4.2133407e-09
4.6813063e-09
5.2066078e-09
5.7507704e-09
6.2713952e-09
6.7300967e-09
7.1060643e-09
7.3956867e-09
7.6096083e-09
7.7645046e-09
7.8763826e-09
7.9641426e-09
8.0424655e-09
8.1066349e-09
8.1644464e-09
8.2143687e-09
8.2652365e-09
8.3133128e-09
8.3612773e-09
8.4059298e-09
8.4447482e-09
8.4812677e-09
8.5474507e-09
8.6121989e-09
8.6463305e-09
8.6600362e-09
8.6625322e-09
8.6590763e-09
8.6189573e-09
0.00098585808
0.002172315
0.0024652784
0.0020386505
0.00070818108
1.248983e-06
2.6487042e-09
2.5812972e-09
2.4794035e-09
2.518301e-09
2.4951113e-09
2.5525928e-09
2.5735e-09
2.6536371e-09
2.7209609e-09
2.8349803e-09
2.9612486e-09
3.1362364e-09
3.3484258e-09
3.6243649e-09
3.9652196e-09
4.3867348e-09
4.8790903e-09
5.4218887e-09
5.9722751e-09
6.4863539e-09
6.9279832e-09
7.2805619e-09
7.5448992e-09
7.7345699e-09
7.8675509e-09
7.9603005e-09
8.0326973e-09
8.0987623e-09
8.1519163e-09
8.2001688e-09
8.2423711e-09
8.2872753e-09
8.3307927e-09
8.3753267e-09
8.4167646e-09
8.4522488e-09
8.4898945e-09
8.5621417e-09
8.6199857e-09
8.6496466e-09
8.6600288e-09
8.6608921e-09
8.6548106e-09
8.6133297e-09
0.00098889299
0.0021560239
0.0024081794
0.0019176651
0.00057811078
3.0546319e-07
2.6516414e-09
2.6243151e-09
2.5245932e-09
2.5650411e-09
2.5447227e-09
2.6050195e-09
2.630038e-09
2.7148429e-09
2.7884666e-09
2.9101254e-09
3.0464315e-09
3.2340032e-09
3.4624506e-09
3.758607e-09
4.1240445e-09
4.5720363e-09
5.0883279e-09
5.6464307e-09
6.1995564e-09
6.7032639e-09
7.1246235e-09
7.4518563e-09
7.6900434e-09
7.8552246e-09
7.9664273e-09
8.0404811e-09
8.0981773e-09
8.1527836e-09
8.1953749e-09
8.2343483e-09
8.269258e-09
8.3085206e-09
8.3477643e-09
8.3889877e-09
8.4271672e-09
8.4597585e-09
8.4998815e-09
8.5756416e-09
8.6263395e-09
8.6515776e-09
8.6599143e-09
8.6597201e-09
8.6485528e-09
8.6081971e-09
0.00099216861
0.0021398725
0.0023537802
0.0017875629
0.0004631347
8.6709591e-08
2.6754719e-09
2.6690041e-09
2.5715454e-09
2.6138479e-09
2.5966425e-09
2.6600389e-09
2.6895762e-09
2.7795099e-09
2.8600044e-09
2.989994e-09
3.1372513e-09
3.3385739e-09
3.5848062e-09
3.9029625e-09
4.2946465e-09
4.7698251e-09
5.3090779e-09
5.8797038e-09
6.431638e-09
6.9210028e-09
7.3191401e-09
7.619489e-09
7.8308434e-09
7.9712478e-09
8.0608103e-09
8.116881e-09
8.1605574e-09
8.2045554e-09
8.2369997e-09
8.2669122e-09
8.2949597e-09
8.328956e-09
8.3642111e-09
8.4022078e-09
8.4370726e-09
8.4675471e-09
8.5121021e-09
8.5872607e-09
8.6312002e-09
8.6523718e-09
8.6593482e-09
8.6586127e-09
8.6405973e-09
8.6036073e-09
0.00099557332
0.0021225909
0.0022986383
0.0016479413
0.00036234554
3.1240039e-08
2.7102036e-09
2.7154319e-09
2.6204286e-09
2.664799e-09
2.6510876e-09
2.7180413e-09
2.7524351e-09
2.8479528e-09
2.9359043e-09
3.0749888e-09
3.2342321e-09
3.4506169e-09
3.7163236e-09
4.0583583e-09
4.4778457e-09
4.9805177e-09
5.5411527e-09
6.1209116e-09
6.6673511e-09
7.1384392e-09
7.510879e-09
7.7832075e-09
7.9670102e-09
8.0822244e-09
8.1503261e-09
8.1895222e-09
8.2199424e-09
8.254061e-09
8.2767287e-09
8.2978673e-09
8.3193806e-09
8.3485804e-09
8.3801146e-09
8.4149334e-09
8.446424e-09
8.4758018e-09
8.526987e-09
8.5966318e-09
8.6350113e-09
8.6525999e-09
8.658302e-09
8.6570982e-09
8.6325024e-09
8.5995911e-09
0.00099907317
0.0021038102
0.002239294
0.0014996892
0.000270884
1.3849921e-08
2.7513421e-09
2.7638561e-09
2.6715974e-09
2.7181595e-09
2.7082221e-09
2.7792809e-09
2.8188972e-09
2.9204667e-09
3.0165154e-09
3.1655725e-09
3.3379698e-09
3.5708973e-09
3.8579362e-09
4.2258131e-09
4.6744794e-09
5.2044703e-09
5.7842215e-09
6.3691072e-09
6.9054677e-09
7.3546065e-09
7.6994866e-09
7.942722e-09
8.0979277e-09
8.1876455e-09
8.2348161e-09
8.2584224e-09
8.2766008e-09
8.301188e-09
8.3143988e-09
8.3273565e-09
8.3424537e-09
8.3674004e-09
8.3954504e-09
8.427112e-09
8.4552166e-09
8.4845686e-09
8.5424839e-09
8.6052874e-09
8.6384397e-09
8.6525476e-09
8.6566974e-09
8.6549813e-09
8.6248885e-09
8.5960607e-09
0.0010028299
0.0020838833
0.0021779974
0.0013452963
0.00018817428
7.725544e-09
2.7971235e-09
2.8146313e-09
2.7252381e-09
2.7743919e-09
2.7684579e-09
2.8437966e-09
2.8891682e-09
2.9973064e-09
3.1022622e-09
3.2622822e-09
3.449168e-09
3.7002831e-09
4.0106672e-09
4.4063361e-09
4.885258e-09
5.4417726e-09
6.0376428e-09
6.6230862e-09
7.1447124e-09
7.5687867e-09
7.8846906e-09
8.097061e-09
8.2226947e-09
8.2871857e-09
8.3144931e-09
8.3234945e-09
8.3308324e-09
8.345746e-09
8.3497991e-09
8.3555894e-09
8.3642604e-09
8.3854091e-09
8.4101874e-09
8.4386942e-09
8.4635551e-09
8.4939442e-09
8.5578554e-09
8.6131267e-09
8.6415972e-09
8.6524186e-09
8.6545815e-09
8.6520815e-09
8.618347e-09
8.5930013e-09
0.0010068247
0.0020624643
0.0021135911
0.0011887517
0.00011446831
5.291852e-09
2.8468055e-09
2.8679799e-09
2.7815781e-09
2.8336125e-09
2.8319469e-09
2.9119123e-09
2.9635316e-09
3.0789203e-09
3.1936396e-09
3.3657504e-09
3.5686225e-09
3.8397627e-09
4.1756402e-09
4.6010117e-09
5.1108445e-09
5.6923949e-09
6.3005952e-09
6.8815714e-09
7.38397e-09
7.7805917e-09
8.0656636e-09
8.2449747e-09
8.3405363e-09
8.3806678e-09
8.3898513e-09
8.3845694e-09
8.3825203e-09
8.3876153e-09
8.3830264e-09
8.3825454e-09
8.3851421e-09
8.4025684e-09
8.4242913e-09
8.4496386e-09
8.4716949e-09
8.5043814e-09
8.5721751e-09
8.6196274e-09
8.6432036e-09
8.6514782e-09
8.6525112e-09
8.6476284e-09
8.6127011e-09
8.5904003e-09
0.0010107272
0.0020362528
0.0020452226
0.0010404997
5.6014042e-05
4.2372712e-09
2.8997178e-09
2.9238663e-09
2.8407036e-09
2.8959561e-09
2.8989605e-09
2.9840312e-09
3.0423297e-09
3.1657383e-09
3.2912368e-09
3.4767159e-09
3.697256e-09
3.9904239e-09
4.3540387e-09
4.8108225e-09
5.3516724e-09
5.9559268e-09
6.5719216e-09
7.1431415e-09
7.6223323e-09
7.9896334e-09
8.240675e-09
8.3853286e-09
8.4508337e-09
8.4684772e-09
8.4614715e-09
8.4417575e-09
8.4311105e-09
8.4277581e-09
8.4141113e-09
8.407487e-09
8.4055659e-09
8.4188172e-09
8.4377264e-09
8.459911e-09
8.4799924e-09
8.5167789e-09
8.5843942e-09
8.6245879e-09
8.6438703e-09
8.6504724e-09
8.6507411e-09
8.6413286e-09
8.6078549e-09
8.5882082e-09
0.0010143729
0.0020056366
0.0019711724
0.00089910177
2.0677276e-05
3.7640412e-09
2.9554846e-09
2.9824267e-09
2.902853e-09
2.9617087e-09
2.9698065e-09
3.0605054e-09
3.1259971e-09
3.258323e-09
3.3957372e-09
3.5960183e-09
3.8361007e-09
4.153482e-09
4.5471318e-09
5.0367669e-09
5.6080546e-09
6.2317824e-09
6.8503295e-09
7.4064975e-09
7.8592473e-09
8.1946158e-09
8.4081799e-09
8.516915e-09
8.554022e-09
8.5524551e-09
8.5285567e-09
8.4960862e-09
8.4765349e-09
8.4654103e-09
8.4433366e-09
8.4305458e-09
8.4254459e-09
8.4341405e-09
8.4504541e-09
8.4694955e-09
8.4887428e-09
8.5316513e-09
8.5939855e-09
8.628356e-09
8.6440354e-09
8.6493059e-09
8.6489224e-09
8.6339193e-09
8.6036277e-09
8.5863649e-09
0.0010175459
0.0019698205
0.00188875
0.00076535017
5.9756739e-06
3.5625209e-09
3.0143577e-09
3.0440401e-09
2.9683431e-09
3.0312345e-09
3.0447831e-09
3.1415333e-09
3.2152225e-09
3.3573017e-09
3.5079291e-09
3.7246258e-09
3.9863124e-09
4.3302463e-09
4.7561627e-09
5.2796306e-09
5.8799149e-09
6.5189398e-09
7.134279e-09
7.6704252e-09
8.0942154e-09
8.3933458e-09
8.5666357e-09
8.6393739e-09
8.6523883e-09
8.6312084e-09
8.5914534e-09
8.5472559e-09
8.5190323e-09
8.5008764e-09
8.4704888e-09
8.4521271e-09
8.4445286e-09
8.4486752e-09
8.4624259e-09
8.4784306e-09
8.498035e-09
8.5470804e-09
8.6023664e-09
8.6315705e-09
8.6439978e-09
8.6478051e-09
8.6469652e-09
8.6264825e-09
8.5999557e-09
8.5847959e-09
0.0010202668
0.0019284889
0.0017898976
0.00064068208
1.5063928e-06
3.4944569e-09
3.0764866e-09
3.1089766e-09
3.0374602e-09
3.1048673e-09
3.1242774e-09
3.2277137e-09
3.3104074e-09
3.4634031e-09
3.6287327e-09
3.8636228e-09
4.1491799e-09
4.522147e-09
4.9824361e-09
5.5401332e-09
6.1669933e-09
6.8162046e-09
7.4222998e-09
7.9340642e-09
8.3258791e-09
8.5836628e-09
8.7148096e-09
8.7545584e-09
8.7454871e-09
8.7049256e-09
8.6501397e-09
8.5953511e-09
8.5588317e-09
8.5340965e-09
8.4958099e-09
8.4723844e-09
8.4623361e-09
8.4627575e-09
8.4735924e-09
8.4868841e-09
8.5078782e-09
8.5621482e-09
8.6097599e-09
8.6344278e-09
8.6439148e-09
8.6460983e-09
8.6447172e-09
8.619805e-09
8.5967173e-09
8.5834149e-09
0.0010228775
0.001883488
0.0016784015
0.00052744362
3.7717011e-07
3.4941913e-09
3.1420901e-09
3.1775201e-09
3.1105592e-09
3.1828614e-09
3.2086689e-09
3.3194794e-09
3.4122833e-09
3.5775066e-09
3.7592041e-09
4.0142343e-09
4.3261102e-09
4.730668e-09
5.227101e-09
5.8186234e-09
6.4685251e-09
7.1220069e-09
7.7129008e-09
8.1967269e-09
8.5515542e-09
8.7636956e-09
8.8523457e-09
8.8647317e-09
8.8324214e-09
8.7735827e-09
8.7048288e-09
8.6402277e-09
8.5962299e-09
8.5651983e-09
8.5194925e-09
8.4915001e-09
8.478462e-09
8.4766364e-09
8.4839441e-09
8.4952039e-09
8.5185204e-09
8.5759741e-09
8.6158299e-09
8.6358209e-09
8.6431209e-09
8.644119e-09
8.6415015e-09
8.614e-09
8.5939087e-09
8.5822231e-09
0.0010255304
0.0018355812
0.0015547613
0.00042552528
1.0770987e-07
3.5294518e-09
3.2113871e-09
3.2500056e-09
3.1878546e-09
3.2656043e-09
3.2984262e-09
3.417564e-09
3.5217095e-09
3.7005955e-09
3.9005145e-09
4.1777937e-09
4.5186721e-09
4.9573751e-09
5.4913106e-09
6.1152417e-09
6.783555e-09
7.4347584e-09
8.0048991e-09
8.4573915e-09
8.7682651e-09
8.9319377e-09
8.9818973e-09
8.9685186e-09
8.913459e-09
8.8373685e-09
8.7556523e-09
8.6820539e-09
8.6313424e-09
8.5942592e-09
8.5416298e-09
8.5093405e-09
8.4933725e-09
8.4900225e-09
8.4935831e-09
8.5037879e-09
8.5306891e-09
8.5875528e-09
8.6204356e-09
8.6363259e-09
8.6420032e-09
8.6425174e-09
8.6365442e-09
8.6090985e-09
8.5915241e-09
8.5812109e-09
0.0010282879
0.0017844512
0.0014283152
0.00033661283
4.0446392e-08
3.5838732e-09
3.2845573e-09
3.3265697e-09
3.2697169e-09
3.3535687e-09
3.3942917e-09
3.5228517e-09
3.639722e-09
3.8337419e-09
4.0539339e-09
4.3558277e-09
4.728515e-09
5.2038121e-09
5.7758391e-09
6.4296077e-09
7.1105479e-09
7.7527146e-09
8.2972142e-09
8.7129859e-09
8.9738826e-09
9.0879206e-09
9.1055916e-09
9.0651624e-09
8.9886283e-09
8.896452e-09
8.8027878e-09
8.7209816e-09
8.664289e-09
8.6213885e-09
8.5622749e-09
8.5259151e-09
8.5072257e-09
8.5026165e-09
8.5027689e-09
8.5128026e-09
8.544865e-09
8.5962893e-09
8.6238383e-09
8.6364217e-09
8.6407381e-09
8.640868e-09
8.6302197e-09
8.6050271e-09
8.5894958e-09
8.5803536e-09
0.001030978
0.0017260269
0.0013010935
0.00025463286
1.8301808e-08
3.6492181e-09
3.3617725e-09
3.4076224e-09
3.3567129e-09
3.4475603e-09
3.4972191e-09
3.636355e-09
3.7673785e-09
3.9781292e-09
4.2208773e-09
4.5500277e-09
4.9574689e-09
5.4715311e-09
6.0813446e-09
6.7610751e-09
7.4478989e-09
8.0743224e-09
8.5888852e-09
8.9599802e-09
9.1664648e-09
9.2343461e-09
9.2220374e-09
9.15489e-09
9.0581639e-09
8.9510419e-09
8.8464147e-09
8.7571946e-09
8.6951773e-09
8.6466882e-09
8.5815212e-09
8.5413998e-09
8.5201414e-09
8.5139392e-09
8.5118222e-09
8.5220448e-09
8.5590827e-09
8.6036933e-09
8.6265436e-09
8.6363703e-09
8.6393966e-09
8.639073e-09
8.6235508e-09
8.6015232e-09
8.5877558e-09
8.5796036e-09
0.0010349149
0.0016669186
0.0011702645
0.00017911224
1.0254281e-08
3.722174e-09
3.443468e-09
3.4939165e-09
3.449791e-09
3.5485818e-09
3.6082187e-09
3.759108e-09
3.905753e-09
4.1350861e-09
4.4029798e-09
4.7622797e-09
5.2074131e-09
5.76182e-09
6.4079044e-09
7.1083376e-09
7.7936402e-09
8.3979998e-09
8.877198e-09
9.1952686e-09
9.3448461e-09
9.373945e-09
9.3302681e-09
9.2378008e-09
9.1222774e-09
9.0013553e-09
8.8867268e-09
8.7908658e-09
8.7241247e-09
8.6702721e-09
8.5994694e-09
8.5558771e-09
8.5322018e-09
8.5241041e-09
8.5206484e-09
8.5313948e-09
8.5726938e-09
8.6101275e-09
8.628847e-09
8.6363105e-09
8.6380671e-09
8.6371427e-09
8.61756e-09
8.5984032e-09
8.5862372e-09
8.578948e-09
0.0010405519
0.001610219
0.0010390845
0.00011100883
6.9758941e-09
3.8013832e-09
3.5306536e-09
3.5865931e-09
3.5500014e-09
3.6576126e-09
3.7282361e-09
3.8920856e-09
4.0561095e-09
4.3061412e-09
4.602079e-09
4.9946874e-09
5.4803129e-09
6.0758784e-09
6.7553282e-09
7.4698958e-09
8.1459612e-09
8.7225261e-09
9.1581576e-09
9.4165514e-09
9.5116149e-09
9.5054084e-09
9.430429e-09
9.3141627e-09
9.1812279e-09
9.0476242e-09
8.9239232e-09
8.8221696e-09
8.7512481e-09
8.6922524e-09
8.6161873e-09
8.5692678e-09
8.5432181e-09
8.5335682e-09
8.5292515e-09
8.5411436e-09
8.5849742e-09
8.6156531e-09
8.6306267e-09
8.6359378e-09
8.6368407e-09
8.6344552e-09
8.6123934e-09
8.5957113e-09
8.5849343e-09
8.5784018e-09
0.0010474091
0.0015483705
0.00090945618
5.6096745e-05
5.5266629e-09
3.8867136e-09
3.6244721e-09
3.686564e-09
3.6581414e-09
3.7754064e-09
3.8581212e-09
4.0364375e-09
4.2200229e-09
4.4931553e-09
4.8202522e-09
5.2494672e-09
5.7779693e-09
6.4143483e-09
7.1226557e-09
7.8436692e-09
8.502844e-09
9.0459638e-09