/*--------------------------------*- C++ -*----------------------------------*\
  =========                 |
  \\      /  F ield         | OpenFOAM: The Open Source CFD Toolbox
   \\    /   O peration     | Website:  https://openfoam.org
    \\  /    A nd           | Version:  8
     \\/     M anipulation  |
\*---------------------------------------------------------------------------*/
FoamFile
{
    version     2.0;
    format      ascii;
    class       volVectorField;
    location    "0.280002";
    object      cellDisplacement;
}
// * * * * * * * * * * * * * * * * * * * * * * * * * * * * * * * * * * * * * //

dimensions      [0 1 0 0 0 0 0];

internalField   nonuniform List<vector> 
20000
(
(0.0016072708 0 0.0012607106)
(0.0016072567 0 0.0012605159)
(0.0016072238 0 0.0012600361)
(0.0016071603 0 0.0012594852)
(0.001607053 0 0.0012588535)
(0.0016068834 0 0.0012581375)
(0.0016066259 0 0.0012573364)
(0.0016062456 0 0.0012564579)
(0.0016056945 0 0.0012555192)
(0.0016049081 0 0.0012545555)
(0.0016037987 0 0.001253629)
(0.0016022496 0 0.0012528408)
(0.0016001054 0 0.0012523527)
(0.0015971614 0 0.0012524111)
(0.0015931508 0 0.0012533891)
(0.0015877294 0 0.0012558325)
(0.00158046 0 0.001260553)
(0.0015707982 0 0.0012686638)
(0.0015580769 0 0.0012818087)
(0.0015415022 0 0.0013022167)
(0.0015201634 0 0.001332913)
(0.0014930693 0 0.0013778438)
(0.0014592155 0 0.0014419266)
(0.0014176903 0 0.0015309674)
(0.0013678058 0 0.0016513258)
(0.0013092196 0 0.001809237)
(0.0012422434 0 0.0020092483)
(0.0011675548 0 0.0022537495)
(0.0010867871 0 0.0025401368)
(0.0010014148 0 0.002862533)
(0.00091410998 0 0.0032073791)
(0.00082638107 0 0.0035615845)
(0.00074104036 0 0.0039046865)
(0.0006590177 0 0.0042233345)
(0.00058290169 0 0.0044979453)
(0.00051195865 0 0.0047241427)
(0.00044826128 0 0.0048896482)
(0.00038976581 0 0.0049964763)
(0.00033818936 0 0.0050383466)
(0.00029083931 0 0.0050184283)
(0.00024929672 0 0.0049344441)
(0.00021138566 0 0.0047855418)
(0.00017957273 0 0.0045782762)
(0.0001491835 0 0.0042863432)
(0.00012287753 0 0.0039344076)
(9.6993773e-05 0 0.003457176)
(7.3158694e-05 0 0.0028893935)
(5.1762359e-05 0 0.0022016187)
(2.9614495e-05 0 0.0013653658)
(8.5837288e-06 0 0.00039381392)
(0.001609508 0 0.0010338765)
(0.0016094956 0 0.0010333351)
(0.0016094613 0 0.0010327092)
(0.001609396 0 0.0010319783)
(0.001609286 0 0.0010311309)
(0.0016091125 0 0.0010301562)
(0.0016088493 0 0.0010290453)
(0.001608461 0 0.0010277958)
(0.0016078985 0 0.001026415)
(0.0016070963 0 0.0010249266)
(0.0016059651 0 0.0010233795)
(0.0016043868 0 0.0010218618)
(0.0016022032 0 0.0010205192)
(0.0015992074 0 0.0010195842)
(0.001595129 0 0.0010194143)
(0.0015896198 0 0.0010205481)
(0.0015822386 0 0.0010237714)
(0.0015724356 0 0.0010302422)
(0.0015595405 0 0.0010415817)
(0.001542757 0 0.001060087)
(0.0015211762 0 0.0010888689)
(0.0014938134 0 0.001132006)
(0.0014596793 0 0.0011945803)
(0.0014178877 0 0.0012826154)
(0.0013677884 0 0.0014026968)
(0.001309101 0 0.0015612793)
(0.0012421477 0 0.001763242)
(0.0011676916 0 0.0020110341)
(0.0010872854 0 0.0023025018)
(0.0010024645 0 0.0026317121)
(0.00091570003 0 0.002985699)
(0.00082857798 0 0.0033508379)
(0.00074367114 0 0.0037072121)
(0.00066203091 0 0.004040443)
(0.00058600039 0 0.0043314236)
(0.00051514476 0 0.0045740927)
(0.00045125075 0 0.004756667)
(0.00039265827 0 0.0048796848)
(0.00034076583 0 0.0049374086)
(0.00029326967 0 0.004932155)
(0.00025143025 0 0.0048619167)
(0.00021336999 0 0.0047258158)
(0.00018113802 0 0.0045292145)
(0.00015065049 0 0.0042488222)
(0.00012404193 0 0.0039046638)
(9.80893e-05 0 0.0034384856)
(7.410822e-05 0 0.0028785124)
(5.242995e-05 0 0.0021971286)
(3.0146014e-05 0 0.0013673937)
(8.7958573e-06 0 0.00039921468)
(0.0016108166 0 0.0008119088)
(0.0016108023 0 0.0008112253)
(0.0016107655 0 0.00081042741)
(0.0016106966 0 0.00080949403)
(0.0016105818 0 0.00080840813)
(0.0016104018 0 0.0008071527)
(0.00161013 0 0.0008057121)
(0.00160973 0 0.00080407599)
(0.001609152 0 0.00080224044)
(0.001608329 0 0.00080021802)
(0.0016071705 0 0.00079804391)
(0.0016055559 0 0.00079579135)
(0.0016033248 0 0.00079359213)
(0.001600267 0 0.00079166215)
(0.0015961082 0 0.00079034568)
(0.0015904961 0 0.0007901645)
(0.0015829843 0 0.00079191173)
(0.0015730187 0 0.00079672291)
(0.0015599246 0 0.000806277)
(0.0015429045 0 0.00082290537)
(0.0015210515 0 0.00084982712)
(0.001493389 0 0.00089125908)
(0.0014589443 0 0.00095243317)
(0.0014168605 0 0.0010395888)
(0.0013665306 0 0.0011595143)
(0.0013077342 0 0.0013188809)
(0.0012408222 0 0.0015228317)
(0.0011666262 0 0.0017738809)
(0.0010866403 0 0.0020702365)
(0.0010024369 0 0.0024059467)
(0.0009163116 0 0.0027685368)
(0.00082988988 0 0.0031439957)
(0.00074553097 0 0.0035128644)
(0.00066437448 0 0.0038599256)
(0.00058854652 0 0.0041664544)
(0.00051786215 0 0.0044249461)
(0.00045386935 0 0.0046239662)
(0.00039523698 0 0.0047627428)
(0.00034310003 0 0.004835938)
(0.00029549139 0 0.0048451059)
(0.00025340245 0 0.0047884237)
(0.00021521302 0 0.0046649882)
(0.00018261212 0 0.0044790846)
(0.00015202719 0 0.0042100587)
(0.00012514871 0 0.0038739003)
(9.9129465e-05 0 0.0034185625)
(7.5015726e-05 0 0.0028665206)
(5.3077702e-05 0 0.0021917693)
(3.0658378e-05 0 0.0013686522)
(8.9988047e-06 0 0.00040411571)
(0.0016112216 0 0.00059471782)
(0.001611204 0 0.00059390393)
(0.001611163 0 0.00059295336)
(0.0016110887 0 0.0005918362)
(0.0016109669 0 0.00059052772)
(0.0016107779 0 0.00058900252)
(0.0016104944 0 0.00058723652)
(0.0016100792 0 0.00058521066)
(0.0016094814 0 0.00058291241)
(0.0016086327 0 0.00058034547)
(0.0016074406 0 0.00057753287)
(0.0016057825 0 0.00057453755)
(0.0016034949 0 0.0005714738)
(0.0016003642 0 0.00056854439)
(0.001596112 0 0.000566075)
(0.001590381 0 0.00056458058)
(0.00158272 0 0.00056483213)
(0.0015725697 0 0.00056800371)
(0.0015592518 0 0.00057576805)
(0.0015419677 0 0.00059053383)
(0.001519814 0 0.00061563953)
(0.0014918223 0 0.00065545178)
(0.001457038 0 0.00071532311)
(0.0014146392 0 0.00080172129)
(0.0013640645 0 0.00092161108)
(0.0013051562 0 0.0010818737)
(0.0012383048 0 0.0012878624)
(0.0011643994 0 0.0015421518)
(0.0010848928 0 0.0018432275)
(0.0010013716 0 0.0021851536)
(0.00091597708 0 0.0025558624)
(0.00083034361 0 0.0029410692)
(0.00074664146 0 0.0033216907)
(0.00066606315 0 0.0036818636)
(0.00059054879 0 0.0040031435)
(0.00052011578 0 0.0042768165)
(0.00045611834 0 0.0044916615)
(0.00039750209 0 0.0046457552)
(0.00034519089 0 0.0047340273)
(0.00029750361 0 0.0047573572)
(0.00025521274 0 0.0047140304)
(0.00021691474 0 0.0046031105)
(0.00018399239 0 0.0044279229)
(0.00015331382 0 0.0041700914)
(0.00012619659 0 0.0038421423)
(0.00010011378 0 0.0033974309)
(7.5880189e-05 0 0.0028534721)
(5.3703955e-05 0 0.0021855464)
(3.1151949e-05 0 0.0013691607)
(9.1955797e-06 0 0.00040849299)
(0.0016107515 0 0.00038219415)
(0.0016107297 0 0.00038123531)
(0.0016106833 0 0.00038010793)
(0.0016106021 0 0.00037878329)
(0.0016104713 0 0.00037723417)
(0.0016102708 0 0.00037543062)
(0.0016099723 0 0.00037334247)
(0.001609538 0 0.00037093998)
(0.0016089156 0 0.00036819991)
(0.0016080353 0 0.00036510991)
(0.0016068027 0 0.0003616803)
(0.0016050927 0 0.00035795546)
(0.0016027388 0 0.00035403763)
(0.0015995235 0 0.00035011154)
(0.0015951639 0 0.0003464915)
(0.0015892974 0 0.00034367473)
(0.0015814675 0 0.00034244108)
(0.0015711097 0 0.00034394255)
(0.0015575424 0 0.00034993212)
(0.0015399667 0 0.00036284342)
(0.0015174844 0 0.00038619874)
(0.0014891345 0 0.00042452161)
(0.0014539825 0 0.0004832102)
(0.0014112463 0 0.00056901116)
(0.0013604141 0 0.00068901399)
(0.0013013927 0 0.00085031568)
(0.0012346225 0 0.0010584206)
(0.0011610391 0 0.0013159625)
(0.0010820677 0 0.0016216286)
(0.00099929206 0 0.0019695173)
(0.00091471653 0 0.0023478904)
(0.00082995556 0 0.0027422995)
(0.00074701054 0 0.0031339702)
(0.00066710079 0 0.0035065467)
(0.00059200477 0 0.0038417942)
(0.00052190215 0 0.0041299909)
(0.00045799016 0 0.0043600293)
(0.0003994477 0 0.0045289666)
(0.00034702981 0 0.0046319008)
(0.00029930066 0 0.0046691016)
(0.00025685349 0 0.0046389006)
(0.00021847013 0 0.0045403237)
(0.00018527223 0 0.0043758302)
(0.0001545076 0 0.0041290218)
(0.00012718152 0 0.0038094318)
(0.00010104103 0 0.0033751608)
(7.6701282e-05 0 0.0028393701)
(5.4307765e-05 0 0.0021784771)
(3.1626256e-05 0 0.001368933)
(9.383648e-06 0 0.00041240391)
(0.0016094305 0 0.00017425304)
(0.0016094031 0 0.00017316708)
(0.0016093496 0 0.00017189182)
(0.0016092594 0 0.00017038834)
(0.0016091173 0 0.00016862027)
(0.0016089025 0 0.0001665496)
(0.001608586 0 0.00016413687)
(0.0016081287 0 0.00016134573)
(0.0016074773 0 0.00015814345)
(0.00160656 0 0.00015451041)
(0.0016052803 0 0.00015044411)
(0.0016035103 0 0.00014597802)
(0.0016010803 0 0.00014119619)
(0.0015977683 0 0.00013626894)
(0.0015932866 0 0.0001314905)
(0.0015872671 0 0.00012734793)
(0.0015792472 0 0.00012459712)
(0.0015686583 0 0.00012443057)
(0.0015548155 0 0.00012864909)
(0.0015369201 0 0.00013967945)
(0.0015140831 0 0.00016135876)
(0.0014853463 0 0.00019835812)
(0.0014497968 0 0.00025596415)
(0.0014067026 0 0.00034134093)
(0.0013556006 0 0.00046160827)
(0.0012964682 0 0.00062409582)
(0.0012298002 0 0.00083441669)
(0.0011565738 0 0.0010952323)
(0.001078194 0 0.0014053784)
(0.00099622766 0 0.0017589968)
(0.00091255333 0 0.0021446228)
(0.00082874614 0 0.0025477163)
(0.00074665386 0 0.0029497623)
(0.00066749913 0 0.0033340559)
(0.00059292013 0 0.0036825098)
(0.00052322489 0 0.0039845754)
(0.00045948445 0 0.0042291787)
(0.00040107326 0 0.0044124742)
(0.00034861457 0 0.004529644)
(0.00030088115 0 0.0045804084)
(0.00025832324 0 0.0045630917)
(0.0002198788 0 0.0044766728)
(0.00018644879 0 0.004322835)
(0.00015560826 0 0.0040868808)
(0.00012810188 0 0.0037757839)
(0.0001019105 0 0.0033517703)
(7.7477709e-05 0 0.0028242589)
(5.488757e-05 0 0.0021705718)
(3.2081469e-05 0 0.001367981)
(9.565619e-06 0 0.00041583175)
(0.0016072813 0 -2.9213376e-05)
(0.0016072472 0 -3.0442957e-05)
(0.0016071853 0 -3.1892995e-05)
(0.0016070845 0 -3.3601457e-05)
(0.0016069291 0 -3.5607638e-05)
(0.0016066975 0 -3.7954274e-05)
(0.0016063599 0 -4.0687435e-05)
(0.001605876 0 -4.3853687e-05)
(0.0016051908 0 -4.7496878e-05)
(0.0016042309 0 -5.1652285e-05)
(0.0016028971 0 -5.6335279e-05)
(0.0016010588 0 -6.1530412e-05)
(0.0015985421 0 -6.7166907e-05)
(0.0015951208 0 -7.3093848e-05)
(0.0015905017 0 -7.903192e-05)
(0.0015843103 0 -8.4517393e-05)
(0.0015760783 0 -8.8796345e-05)
(0.0015652335 0 -9.0720507e-05)
(0.0015510893 0 -8.8169763e-05)
(0.0015328544 0 -7.8583063e-05)
(0.001509642 0 -5.8452611e-05)
(0.00148048 0 -2.3060089e-05)
(0.0014445026 0 3.3542402e-05)
(0.0014010325 0 0.0001187242)
(0.0013496496 0 0.00023942411)
(0.0012904113 0 0.00040327173)
(0.0012238689 0 0.0006159309)
(0.0011510352 0 0.00088006778)
(0.0010733017 0 0.001194612)
(0.00099220713 0 0.0015537512)
(0.00090951326 0 0.0019462424)
(0.000826737 0 0.0023575272)
(0.00074558527 0 0.0027693082)
(0.00066726716 0 0.0031646469)
(0.00059329758 0 0.0035255611)
(0.00052408439 0 0.0038408327)
(0.00046059738 0 0.0040993667)
(0.00040237523 0 0.0042965108)
(0.000349939 0 0.0044274727)
(0.00030224062 0 0.0044914663)
(0.00025961582 0 0.0044867662)
(0.00022113639 0 0.0044122983)
(0.00018751654 0 0.0042690421)
(0.000156613 0 0.0040437685)
(0.00012895423 0 0.0037412499)
(0.0001027209 0 0.0033273285)
(7.8209168e-05 0 0.002808149)
(5.5442352e-05 0 0.0021618401)
(3.2517074e-05 0 0.0013663252)
(9.7391249e-06 0 0.00041882031)
(0.0016043287 0 -0.00022828578)
(0.0016042866 0 -0.00022964466)
(0.0016042147 0 -0.00023124621)
(0.0016041015 0 -0.00023313743)
(0.0016039306 0 -0.00023536577)
(0.0016036796 0 -0.00023798096)
(0.0016033176 0 -0.00024103825)
(0.0016028031 0 -0.00024459104)
(0.0016020794 0 -0.00024869276)
(0.001601071 0 -0.00025338656)
(0.0015996762 0 -0.00025870153)
(0.0015977606 0 -0.00026463409)
(0.0015951467 0 -0.00027113288)
(0.0015916028 0 -0.00027806344)
(0.0015868296 0 -0.00028517009)
(0.0015804459 0 -0.0002920082)
(0.0015719765 0 -0.00029784917)
(0.0015608624 0 -0.00030119182)
(0.0015464132 0 -0.00030013508)
(0.0015278131 0 -0.00029186639)
(0.0015041684 0 -0.0002731553)
(0.0014745481 0 -0.00023927906)
(0.001438132 0 -0.0001836624)
(0.0013942566 0 -9.8932172e-05)
(0.001342582 0 2.2352496e-05)
(0.0012832468 0 0.00018774348)
(0.0012168554 0 0.00040287964)
(0.0011444538 0 0.00067038596)
(0.0010674225 0 0.00098925732)
(0.00098726252 0 0.0013537238)
(0.00090562325 0 0.0017527269)
(0.00082395201 0 0.0021717351)
(0.00074382388 0 0.0025926376)
(0.00066642009 0 0.0029983718)
(0.00059314616 0 0.0033710241)
(0.00052448706 0 0.0036988468)
(0.00046133107 0 0.0039706848)
(0.00040335488 0 0.0041811612)
(0.00035100239 0 0.0043254636)
(0.00030337868 0 0.0044023397)
(0.00026073054 0 0.0044099782)
(0.00022224296 0 0.004347244)
(0.00018847331 0 0.0042144803)
(0.00015752157 0 0.003999715)
(0.0001297371 0 0.0037058451)
(0.00010347154 0 0.0033018534)
(7.8894352e-05 0 0.0027910832)
(5.5970723e-05 0 0.0021522996)
(3.2933132e-05 0 0.0013639735)
(9.9065345e-06 0 0.00042135802)
(0.0016005977 0 -0.00042306601)
(0.0016005462 0 -0.00042456587)
(0.0016004628 0 -0.0004263377)
(0.0016003352 0 -0.00042842917)
(0.0016001464 0 -0.00043089116)
(0.0015998731 0 -0.00043377984)
(0.0015994833 0 -0.00043715622)
(0.0015989341 0 -0.00044108458)
(0.0015981668 0 -0.00044562873)
(0.0015971038 0 -0.00045084695)
(0.0015956402 0 -0.00045678085)
(0.0015936382 0 -0.00046344462)
(0.0015909156 0 -0.00047080018)
(0.001587235 0 -0.00047873342)
(0.0015822905 0 -0.00048700794)
(0.0015756931 0 -0.00049522273)
(0.0015669837 0 -0.00050235717)
(0.0015555908 0 -0.00050695358)
(0.0015407979 0 -0.00050726422)
(0.0015217928 0 -0.00050054041)
(0.0014976886 0 -0.00048320122)
(0.0014675855 0 -0.0004503674)
(0.0014306929 0 -0.00039559001)
(0.001386382 0 -0.00031162761)
(0.0013344243 0 -0.00018957572)
(0.0012750061 0 -2.2427908e-05)
(0.0012087937 0 0.00019534135)
(0.0011368645 0 0.00046628553)
(0.0010605906 0 0.00078943304)
(0.0009814267 0 0.0011590511)
(0.00090091351 0 0.0015642303)
(0.000820417 0 0.0019905164)
(0.00074138822 0 0.0024199559)
(0.00066497108 0 0.0028354533)
(0.00059247279 0 0.0032191375)
(0.00052443662 0 0.0035588548)
(0.00046168498 0 0.0038433689)
(0.00040401084 0 0.0040666436)
(0.00035180073 0 0.0042238217)
(0.00030429208 0 0.004313211)
(0.00026166249 0 0.0043328867)
(0.0002231948 0 0.0042816487)
(0.00018931447 0 0.0041592564)
(0.00015833129 0 0.0039548191)
(0.00013044752 0 0.0036696264)
(0.00010416112 0 0.0032754129)
(7.9532944e-05 0 0.0027730752)
(5.6471635e-05 0 0.002141956)
(3.3329058e-05 0 0.0013609488)
(1.0065588e-05 0 0.00042348135)
(0.0015961108 0 -0.00061363297)
(0.0015960488 0 -0.0006152621)
(0.0015959523 0 -0.00061718504)
(0.0015958085 0 -0.0006194588)
(0.0015955994 0 -0.0006221422)
(0.001595301 0 -0.0006252982)
(0.0015948798 0 -0.00062899749)
(0.0015942914 0 -0.00063331115)
(0.0015934752 0 -0.00063831329)
(0.001592351 0 -0.00064406932)
(0.0015908108 0 -0.00065063503)
(0.0015887129 0 -0.00065803524)
(0.0015858698 0 -0.00066625019)
(0.0015820383 0 -0.00067517809)
(0.0015769045 0 -0.00068458972)
(0.0015700877 0 -0.00069405065)
(0.0015611276 0 -0.00070236425)
(0.0015494211 0 -0.0007083193)
(0.0015342534 0 -0.00071003902)
(0.001514811 0 -0.00070475673)
(0.0014902157 0 -0.00068872487)
(0.0014595951 0 -0.00065689977)
(0.0014221909 0 -0.0006027563)
(0.0013774455 0 -0.00051900724)
(0.001325199 0 -0.00039647293)
(0.0012657147 0 -0.00022733331)
(0.0011997126 0 -6.7635831e-06)
(0.0011282998 0 0.00026767943)
(0.0010528401 0 0.00059505581)
(0.00097473401 0 0.00096966095)
(0.00089541402 0 0.0013807069)
(0.00081615866 0 0.0018138485)
(0.00073830038 0 0.002251264)
(0.00066293814 0 0.002675916)
(0.00059128957 0 0.0030699495)
(0.00052394191 0 0.003420918)
(0.00046166365 0 0.0037174911)
(0.00040434607 0 0.0039530287)
(0.00035233486 0 0.0041226132)
(0.00030498138 0 0.0042241379)
(0.00026241178 0 0.0042555412)
(0.00022399239 0 0.0042155538)
(0.00019003852 0 0.0041033992)
(0.00015904195 0 0.0039091093)
(0.00013108421 0 0.0036326099)
(0.00010478895 0 0.0032480245)
(8.0123686e-05 0 0.0027541677)
(5.6943861e-05 0 0.002130832)
(3.3704858e-05 0 0.0013572572)
(1.0218454e-05 0 0.00042518165)
(0.0015908879 0 -0.0008000832)
(0.0015908139 0 -0.00080185269)
(0.0015907025 0 -0.0008039454)
(0.0015905404 0 -0.000806419)
(0.0015903087 0 -0.00080933584)
(0.0015899822 0 -0.00081276555)
(0.0015895263 0 -0.00081678476)
(0.0015888946 0 -0.00082147486)
(0.0015880245 0 -0.00082692067)
(0.0015868329 0 -0.00083320242)
(0.0015852085 0 -0.00084038832)
(0.001583005 0 -0.00084852087)
(0.0015800298 0 -0.00085759556)
(0.0015760334 0 -0.00086753279)
(0.0015706967 0 -0.00087812026)
(0.0015636504 0 -0.00088860029)
(0.0015544148 0 -0.00089813929)
(0.0015423691 0 -0.00090543448)
(0.0015267968 0 -0.00090852279)
(0.0015068846 0 -0.00090460885)
(0.0014817654 0 -0.0008898052)
(0.0014505962 0 -0.0008589031)
(0.0014126619 0 -0.00080518534)
(0.0013674758 0 -0.00072103007)
(0.001314944 0 -0.0005977988)
(0.0012554084 0 -0.0004269073)
(0.00118965 0 -0.00020335655)
(0.0011187983 0 7.4656406e-05)
(0.0010442094 0 0.00040622674)
(0.00096722149 0 0.00078566661)
(0.00088915909 0 0.0012022821)
(0.00081120667 0 0.0016418768)
(0.00073458306 0 0.0020867317)
(0.00066033827 0 0.0025199491)
(0.00058960736 0 0.0029236655)
(0.00052300989 0 0.0032852458)
(0.00046126966 0 0.003593264)
(0.00040436146 0 0.0038405171)
(0.00035260295 0 0.0040220299)
(0.00030544469 0 0.0041352942)
(0.00026297485 0 0.0041780954)
(0.00022463279 0 0.0041490947)
(0.00019064173 0 0.004047016)
(0.00015965115 0 0.0038626833)
(0.00013164467 0 0.0035948574)
(0.00010535378 0 0.003219755)
(8.0666228e-05 0 0.002734376)
(5.7386358e-05 0 0.0021189326)
(3.4059863e-05 0 0.0013529216)
(1.036298e-05 0 0.00042649205)
(0.0015849525 0 -0.00098249281)
(0.0015848652 0 -0.00098439335)
(0.0015847375 0 -0.00098664057)
(0.0015845552 0 -0.0009893002)
(0.0015842984 0 -0.00099244248)
(0.0015839409 0 -0.0009961426)
(0.0015834463 0 -0.0010004866)
(0.0015827667 0 -0.0010055625)
(0.0015818369 0 -0.0010114646)
(0.0015805709 0 -0.0010182819)
(0.0015788536 0 -0.0010260968)
(0.0015765339 0 -0.0010349656)
(0.0015734131 0 -0.0010449066)
(0.001569234 0 -0.0010558705)
(0.0015636916 0 -0.0010675022)
(0.0015564068 0 -0.001079041)
(0.0015468662 0 -0.0010897806)
(0.0015344531 0 -0.0010983587)
(0.0015184439 0 -0.0011027969)
(0.0014980275 0 -0.0011001995)
(0.0014723506 0 -0.0010865574)
(0.0014406025 0 -0.0010564923)
(0.0014021205 0 -0.0010030078)
(0.0013564844 0 -0.00091828668)
(0.0013036854 0 -0.00079366351)
(0.0012440997 0 -0.00062123454)
(0.0011786367 0 -0.00039451269)
(0.0011083939 0 -0.00011287247)
(0.0010347348 0 0.0002228553)
(0.00095892511 0 0.00060698556)
(0.00088218086 0 0.0010288922)
(0.00080558966 0 0.0014745595)
(0.00073026048 0 0.0019263356)
(0.00065719142 0 0.0023675519)
(0.00058744853 0 0.0027806696)
(0.00052165722 0 0.0031522161)
(0.00046050961 0 0.0034707448)
(0.00040406138 0 0.0037291661)
(0.00035260715 0 0.0039221279)
(0.00030568339 0 0.0040467311)
(0.00026335251 0 0.0041005942)
(0.00022511679 0 0.0040823106)
(0.00019112315 0 0.0039901353)
(0.00016015873 0 0.0038155679)
(0.00013212774 0 0.0035563851)
(0.00010585489 0 0.0031906211)
(8.115935e-05 0 0.0027137428)
(5.7798018e-05 0 0.0021062843)
(3.4394047e-05 0 0.0013479474)
(1.0501196e-05 0 0.00042740536)
(0.0015783245 0 -0.0011609535)
(0.0015782224 0 -0.0011629943)
(0.0015780764 0 -0.0011654113)
(0.0015778714 0 -0.0011682708)
(0.0015775869 0 -0.0011716469)
(0.0015771952 0 -0.0011756207)
(0.0015766584 0 -0.0011802843)
(0.0015759265 0 -0.0011857353)
(0.0015749317 0 -0.0011920786)
(0.0015735848 0 -0.0011994167)
(0.0015717664 0 -0.0012078446)
(0.0015693203 0 -0.0012174338)
(0.0015660411 0 -0.0012282128)
(0.0015616744 0 -0.0012401378)
(0.0015559185 0 -0.0012526971)
(0.0015483656 0 -0.0012653783)
(0.0015384969 0 -0.0012773237)
(0.0015256875 0 -0.0012871933)
(0.0015092094 0 -0.001292939)
(0.001488254 0 -0.0012916064)
(0.0014619858 0 -0.0012790459)
(0.0014296316 0 -0.0012497219)
(0.0013905884 0 -0.0011962448)
(0.0013444979 0 -0.0011107522)
(0.0012914353 0 -0.00098444113)
(0.0012318527 0 -0.00080984312)
(0.0011667147 0 -0.00058015441)
(0.0010971285 0 -0.00029483006)
(0.0010244578 0 4.502534e-05)
(0.00094988504 0 0.00043370902)
(0.00087451658 0 0.00086063569)
(0.00079934015 0 0.0013120109)
(0.00072537549 0 0.0017706823)
(0.00065353533 0 0.0022193551)
(0.00058483314 0 0.0026412284)
(0.00051989308 0 0.0030220965)
(0.00045939161 0 0.0033504681)
(0.00040345212 0 0.0036194348)
(0.00035234755 0 0.0038230864)
(0.00030569686 0 0.0039586121)
(0.00026354236 0 0.0040231842)
(0.00022544223 0 0.0040153322)
(0.00019147982 0 0.0039328636)
(0.00016056256 0 0.0037678592)
(0.00013253131 0 0.0035172581)
(0.00010629109 0 0.0031606889)
(8.160267e-05 0 0.0026922837)
(5.8177817e-05 0 0.0020928918)
(3.4706659e-05 0 0.0013423567)
(1.0631014e-05 0 0.00042795295)
(0.001571024 0 -0.0013355393)
(0.0015709058 0 -0.0013377129)
(0.00157074 0 -0.0013402862)
(0.0015705108 0 -0.0013433327)
(0.0015701963 0 -0.0013469327)
(0.0015697675 0 -0.0013511738)
(0.0015691848 0 -0.0013561565)
(0.0015683959 0 -0.0013619872)
(0.0015673304 0 -0.0013687797)
(0.0015658954 0 -0.001376647)
(0.0015639672 0 -0.0013856968)
(0.0015613841 0 -0.001396015)
(0.0015579347 0 -0.0014076498)
(0.0015533715 0 -0.0014204302)
(0.0015473834 0 -0.0014339738)
(0.0015395425 0 -0.0014477492)
(0.0015293215 0 -0.0014608887)
(0.0015160869 0 -0.0014720076)
(0.0014991056 0 -0.0014790429)
(0.0014775754 0 -0.0014789324)
(0.0014506822 0 -0.0014673659)
(0.0014177228 0 -0.0014382085)
(0.0013781111 0 -0.0013844884)
(0.001331564 0 -0.0012980456)
(0.0012782295 0 -0.0011702323)
(0.0012186985 0 -0.00099281928)
(0.0011539064 0 -0.00076034028)
(0.0010850374 0 -0.00047131282)
(0.0010134165 0 -0.00012736354)
(0.00094013874 0 0.00026574114)
(0.00086622319 0 0.00069786912)
(0.00079252029 0 0.0011547326)
(0.00071996683 0 0.001619872)
(0.00064939305 0 0.0020754667)
(0.00058176849 0 0.002505096)
(0.0005177269 0 0.0028946354)
(0.00045792654 0 0.003232503)
(0.00040253827 0 0.0035114072)
(0.00035182584 0 0.0037249531)
(0.0003054873 0 0.00387098)
(0.00026354592 0 0.0039459042)
(0.00022561027 0 0.0039481951)
(0.00019171135 0 0.0038752277)
(0.0001608626 0 0.003719582)
(0.00013285441 0 0.0034774927)
(0.00010666169 0 0.0031299743)
(8.1995044e-05 0 0.0026700424)
(5.8524766e-05 0 0.0020787846)
(3.4997671e-05 0 0.0013361553)
(1.075434e-05 0 0.00042812874)
(0.0015630738 0 -0.0015063343)
(0.0015629379 0 -0.0015086432)
(0.0015627504 0 -0.001511377)
(0.0015624945 0 -0.001514614)
(0.0015621471 0 -0.0015184402)
(0.0015616776 0 -0.00152295)
(0.0015610448 0 -0.0015282513)
(0.0015601938 0 -0.0015344576)
(0.0015590512 0 -0.0015416942)
(0.0015575205 0 -0.001550084)
(0.0015554731 0 -0.0015597473)
(0.001552741 0 -0.0015707825)
(0.001549113 0 -0.0015832615)
(0.0015443452 0 -0.0015968942)
(0.0015381046 0 -0.0016114022)
(0.0015299534 0 -0.0016262558)
(0.0015193538 0 -0.0016405532)
(0.0015056629 0 -0.0016529047)
(0.0014881431 0 -0.0016611985)
(0.001466004 0 -0.0016622455)
(0.001438497 0 -0.0016511401)
(0.0014049204 0 -0.0016219064)
(0.0013647142 0 -0.0015676906)
(0.001317702 0 -0.0014800514)
(0.0012641175 0 -0.0013505342)
(0.0012046543 0 -0.0011705147)
(0.0011402539 0 -0.00093503957)
(0.0010721655 0 -0.00064225867)
(0.0010016558 0 -0.00029424508)
(0.00092976553 0 0.00010361347)
(0.00085736537 0 0.00054091732)
(0.00078517298 0 0.0010030198)
(0.00071404731 0 0.0014737306)
(0.00064477515 0 0.0019356364)
(0.00057827022 0 0.0023723924)
(0.00051516998 0 0.0027699667)
(0.00045611701 0 0.003116712)
(0.00040132141 0 0.0034050033)
(0.00035104704 0 0.0036281396)
(0.0003050554 0 0.0037839881)
(0.000263362 0 0.0038688925)
(0.00022561954 0 0.0038810246)
(0.00019181557 0 0.0038173323)
(0.00016105713 0 0.0036708305)
(0.00013309531 0 0.0034371564)
(0.00010696558 0 0.0030985425)
(8.2336046e-05 0 0.0026470345)
(5.8837851e-05 0 0.0020639679)
(3.526626e-05 0 0.0013293648)
(1.0869145e-05 0 0.00042796254)
(0.0015544904 0 -0.0016734154)
(0.0015543354 0 -0.0016758589)
(0.0015541244 0 -0.0016787531)
(0.0015538395 0 -0.0016821804)
(0.0015534564 0 -0.0016862326)
(0.0015529431 0 -0.0016910101)
(0.001552256 0 -0.0016966284)
(0.0015513381 0 -0.0017032103)
(0.0015501124 0 -0.0017108896)
(0.0015484786 0 -0.0017197992)
(0.0015463031 0 -0.0017300696)
(0.0015434121 0 -0.0017418052)
(0.001539596 0 -0.0017550724)
(0.0015346084 0 -0.0017695817)
(0.0015280966 0 -0.0017850622)
(0.0015196127 0 -0.0018009675)
(0.0015086073 0 -0.0018164066)
(0.0014944274 0 -0.0018299497)
(0.0014763321 0 -0.0018394876)
(0.0014535924 0 -0.001841241)
(0.0014254526 0 -0.0018303911)
(0.0013912011 0 -0.0018012477)
(0.0013503876 0 -0.0017463772)
(0.0013029173 0 -0.001657294)
(0.0012491263 0 -0.0015254409)
(0.0011897395 0 -0.0013429657)
(0.0011257904 0 -0.0011043643)
(0.0010585513 0 -0.00080777015)
(0.00098926009 0 -0.00045524154)
(0.00091883299 0 -5.2459942e-05)
(0.00084796694 0 0.00038952971)
(0.00077730937 0 0.00085638854)
(0.00070764106 0 0.0013321511)
(0.00063970227 0 0.00179979)
(0.00057435463 0 0.0022430711)
(0.00051223503 0 0.0026480719)
(0.00045397209 0 0.0030030986)
(0.00039980933 0 0.0033002371)
(0.00035001602 0 0.0035326904)
(0.00030440259 0 0.0036976729)
(0.00026299267 0 0.0037921816)
(0.00022547155 0 0.0038138523)
(0.00019179249 0 0.0037592025)
(0.00016114618 0 0.0036216278)
(0.00013325317 0 0.0033962656)
(0.00010720211 0 0.0030664092)
(8.26246e-05 0 0.0026233044)
(5.9116167e-05 0 0.0020484732)
(3.5512385e-05 0 0.0013219911)
(1.0977255e-05 0 0.00042744887)
(0.0015452918 0 -0.001836859)
(0.0015451159 0 -0.0018394383)
(0.0015448794 0 -0.0018424939)
(0.0015445632 0 -0.001846113)
(0.0015441417 0 -0.0018503925)
(0.001543581 0 -0.0018554398)
(0.0015428354 0 -0.0018613775)
(0.0015418452 0 -0.0018683363)
(0.00154053 0 -0.0018764614)
(0.001538785 0 -0.0018858981)
(0.001536471 0 -0.0018967934)
(0.0015334078 0 -0.0019092787)
(0.0015293961 0 -0.0019232645)
(0.0015241757 0 -0.0019386123)
(0.0015173749 0 -0.0019550257)
(0.0015085344 0 -0.0019719701)
(0.0014970949 0 -0.0019885088)
(0.0014823928 0 -0.0020031788)
(0.0014637201 0 -0.0020136675)
(0.0014403642 0 -0.0020159079)
(0.0014115284 0 -0.0020054862)
(0.0013765808 0 -0.0019762791)
(0.0013351547 0 -0.0019205373)
(0.0012872403 0 -0.0018297445)
(0.0012332677 0 -0.0016952798)
(0.001174033 0 -0.0015097061)
(0.001110598 0 -0.0012678495)
(0.0010442926 0 -0.00096733824)
(0.00097631686 0 -0.00060992123)
(0.00090737349 0 -0.00020259606)
(0.00083806349 0 0.00024368789)
(0.00076896161 0 0.00071484712)
(0.00070077513 0 0.0011951688)
(0.00063419664 0 0.001667992)
(0.00057003892 0 0.0021172212)
(0.00050893496 0 0.00252906)
(0.00045150073 0 0.0028917882)
(0.00039800811 0 0.003197239)
(0.00034873284 0 0.0034385098)
(0.00030353053 0 0.003612169)
(0.00026243782 0 0.0037159004)
(0.00022516567 0 0.0037467978)
(0.00019164066 0 0.0037009402)
(0.00016112842 0 0.0035720656)
(0.00013332662 0 0.0033548892)
(0.00010737028 0 0.0030336388)
(8.2860247e-05 0 0.0025988675)
(5.9358719e-05 0 0.0020323067)
(3.5735162e-05 0 0.0013140557)
(1.1076684e-05 0 0.00042661665)
(0.0015354957 0 -0.0019967391)
(0.0015352975 0 -0.0019994535)
(0.0015350336 0 -0.0020026697)
(0.0015346837 0 -0.0020064795)
(0.0015342208 0 -0.0020109858)
(0.0015336091 0 -0.0020163013)
(0.0015328006 0 -0.0020225567)
(0.0015317326 0 -0.0020298915)
(0.0015303209 0 -0.0020384596)
(0.001528456 0 -0.0020484166)
(0.0015259924 0 -0.0020599209)
(0.0015227527 0 -0.0020731275)
(0.0015185401 0 -0.0020878437)
(0.001513067 0 -0.0021040187)
(0.0015059543 0 -0.0021213658)
(0.0014967327 0 -0.0021393165)
(0.0014848297 0 -0.0021569382)
(0.0014695789 0 -0.002172752)
(0.0014503226 0 -0.0021837825)
(0.0014262965 0 -0.0021866319)
(0.001396732 0 -0.002176527)
(0.0013610689 0 -0.0021471096)
(0.001319032 0 -0.0020902528)
(0.0012706917 0 -0.0019974826)
(0.00121658 0 -0.0018601435)
(0.0011575793 0 -0.0016708286)
(0.0010947138 0 -0.0014256196)
(0.0010294731 0 -0.0011205797)
(0.00096285585 0 -0.00075853813)
(0.00089541738 0 -0.0003469959)
(0.00082768363 0 0.00010321535)
(0.00076015615 0 0.00057824663)
(0.00069347321 0 0.0010626591)
(0.00062827878 0 0.0015401494)
(0.00056533968 0 0.0019947778)
(0.00050528299 0 0.0024128937)
(0.00044871277 0 0.0027827665)
(0.00039592495 0 0.0030960112)
(0.00034720245 0 0.0033456128)
(0.00030244609 0 0.0035277095)
(0.00026170006 0 0.0036400748)
(0.00022470376 0 0.0036798877)
(0.00019136046 0 0.0036425674)
(0.00016100404 0 0.0035221647)
(0.00013331498 0 0.0033130429)
(0.00010746946 0 0.0030002466)
(8.304203e-05 0 0.0025737695)
(5.9564718e-05 0 0.0020155018)
(3.5934575e-05 0 0.0013055655)
(1.1169156e-05 0 0.00042546065)
(0.001525119 0 -0.002153129)
(0.0015248967 0 -0.0021559793)
(0.0015246034 0 -0.002159357)
(0.0015242174 0 -0.0021633583)
(0.0015237102 0 -0.0021680914)
(0.001523044 0 -0.0021736754)
(0.0015221683 0 -0.0021802477)
(0.0015210173 0 -0.0021879546)
(0.0015195031 0 -0.0021969589)
(0.0015175112 0 -0.002207424)
(0.0015148907 0 -0.002219512)
(0.0015114663 0 -0.0022333691)
(0.0015070352 0 -0.0022488536)
(0.0015012923 0 -0.0022658722)
(0.0014938478 0 -0.0022841329)
(0.0014842183 0 -0.0023030797)
(0.0014718204 0 -0.0023217267)
(0.0014560139 0 -0.0023384686)
(0.0014361433 0 -0.002350125)
(0.0014114022 0 -0.0023534508)
(0.0013810773 0 -0.0023435316)
(0.0013447199 0 -0.0023133162)
(0.001302087 0 -0.0022550359)
(0.001253346 0 -0.0021600232)
(0.0011991432 0 -0.0020195789)
(0.0011403961 0 -0.0018266483)
(0.001078219 0 -0.0015774937)
(0.0010141503 0 -0.0012675914)
(0.00094891527 0 -0.00090117202)
(0.00088300203 0 -0.00048571922)
(0.00081686291 0 -3.1927476e-05)
(0.00075092514 0 0.00044657143)
(0.00068576283 0 0.00093463293)
(0.00062197164 0 0.0014163007)
(0.00056027525 0 0.0018758039)
(0.00050129338 0 0.0022996568)
(0.00044561862 0 0.0026761359)
(0.00039356732 0 0.0029966652)
(0.00034543059 0 0.0032541171)
(0.00030115262 0 0.0034444202)
(0.00026077915 0 0.003564824)
(0.00022408598 0 0.0036132347)
(0.00019095117 0 0.0035841824)
(0.00016077214 0 0.0034720143)
(0.00013321725 0 0.0032707966)
(0.00010749882 0 0.0029662964)
(8.3169443e-05 0 0.0025480256)
(5.973315e-05 0 0.0019980653)