/*--------------------------------*- C++ -*----------------------------------*\
  =========                 |
  \\      /  F ield         | OpenFOAM: The Open Source CFD Toolbox
   \\    /   O peration     | Website:  https://openfoam.org
    \\  /    A nd           | Version:  8
     \\/     M anipulation  |
\*---------------------------------------------------------------------------*/
FoamFile
{
    version     2.0;
    format      ascii;
    class       volScalarField;
    location    "0.280002";
    object      Ma;
}
// * * * * * * * * * * * * * * * * * * * * * * * * * * * * * * * * * * * * * //

dimensions      [0 0 0 0 0 0 0];

internalField   nonuniform List<scalar> 
20000
(
0.78204045
0.90672811
0.9868351
1.0559996
1.1219207
1.1868368
1.2434243
1.2597469
1.2548246
1.2562748
1.2518808
1.251519
1.2472993
1.2452321
1.2405155
1.236536
1.2305554
1.2242193
1.216058
1.2066293
1.1951546
1.1815542
1.165386
1.1463039
1.1240725
1.0984521
1.0695789
1.0377992
1.0038912
0.96877971
0.93380454
0.9007923
0.871561
0.84694188
0.82692241
0.81103548
0.79845317
0.78859799
0.78087843
0.77480431
0.7700119
0.76622502
0.76313541
0.76065462
0.75871502
0.75718793
0.755437
0.75379012
0.75303856
0.75101711
0.78046621
0.90612314
0.98664595
1.0562882
1.122773
1.1883169
1.2430704
1.2574911
1.2523097
1.2538066
1.2492772
1.2489018
1.2445511
1.2424012
1.2375425
1.2334104
1.2272518
1.2206898
1.2122818
1.2025372
1.190712
1.1766913
1.160062
1.1404781
1.1177396
1.0916669
1.0624995
1.0307432
0.99732421
0.9632502
0.92971013
0.8981401
0.87000728
0.84609993
0.82650165
0.81082201
0.79835593
0.78856819
0.78088342
0.77482848
0.77004368
0.7662542
0.76316012
0.76067716
0.75873795
0.75718659
0.75536693
0.75376357
0.75258806
0.75112112
0.77841178
0.90484756
0.98603515
1.0563379
1.1235245
1.1898979
1.2425509
1.2550488
1.2497071
1.2512389
1.2465819
1.2461792
1.2417075
1.2394675
1.2344778
1.2301927
1.223867
1.217081
1.2084344
1.1983756
1.1862079
1.1717702
1.1546878
1.1346015
1.1113541
1.084814
1.0553263
1.023534
0.99048908
0.95725774
0.92493366
0.89467779
0.86766237
0.84456909
0.82551266
0.81019404
0.79796097
0.7883209
0.78072476
0.77472757
0.76997706
0.76620025
0.76311372
0.76064234
0.75872036
0.75714967
0.75531044
0.75367232
0.75232031
0.7511268
0.77650798
0.90375786
0.98557284
1.0564796
1.1243074
1.1915437
1.2417385
1.2524923
1.2470049
1.2485634
1.2437765
1.2433424
1.2387489
1.236416
1.2312946
1.2268521
1.2203545
1.2133353
1.20444
1.1940544
1.1815316
1.1666621
1.1491104
1.1285023
1.1047262
1.0777006
1.0478819
1.0160444
0.98335371
0.95091978
0.91975258
0.89078337
0.86492143
0.84271838
0.82428996
0.80939636
0.79744589
0.78798987
0.78051012
0.77458989
0.76988637
0.76613213
0.76305966
0.76060399
0.75870244
0.75711645
0.75524653
0.75355768
0.75207146
0.75114098
0.77464994
0.90265705
0.98509982
1.0566232
1.1250788
1.1932261
1.2406217
1.2497619
1.2441742
1.2457548
1.2408441
1.240374
1.2356637
1.2332323
1.2279798
1.2233713
1.2166966
1.2094328
1.2002788
1.1895542
1.1766644
1.1613502
1.143314
1.1221684
1.0978485
1.0703289
1.0401802
1.0083018
0.97595475
0.94427396
0.91419435
0.88646124
0.86175877
0.84049719
0.82276576
0.80837023
0.79676213
0.78753508
0.78020544
0.77438665
0.76974712
0.76602758
0.76297782
0.76054526
0.7586718
0.75707651
0.75517422
0.75340138
0.75190259
0.75115324
0.77285426
0.9016079
0.98467064
1.0568069
1.1258595
1.1949278
1.239194
1.2469854
1.2412293
1.242827
1.2377971
1.237285
1.2324587
1.2299202
1.2245324
1.2197459
1.2128846
1.2053617
1.1959356
1.1848567
1.171583
1.1558046
1.137261
1.1155548
1.0906706
1.0626478
1.0321769
1.0002782
0.96829217
0.9373612
0.90834285
0.88182018
0.85828093
0.83799542
0.82101179
0.80716484
0.79594323
0.78698035
0.77982856
0.7741316
0.76957047
0.76589638
0.76287669
0.76047312
0.75863351
0.75703147
0.75508295
0.75321702
0.75177724
0.75116558
0.77106473
0.90056976
0.98427058
1.057033
1.1266596
1.1966186
1.2374568
1.2440661
1.2381806
1.2397879
1.2346411
1.2340779
1.2291342
1.2264776
1.2209491
1.215972
1.208915
1.2011196
1.1914089
1.1799611
1.166286
1.1500228
1.1309481
1.1086583
1.0831912
1.0546613
1.023884
0.99199525
0.96039746
0.93022288
0.90224784
0.87691169
0.85453104
0.83524227
0.81904352
0.80578835
0.79499271
0.78632648
0.77937851
0.77382294
0.76935432
0.76573609
0.76275383
0.76038571
0.75858534
0.75697499
0.75496369
0.75302731
0.75168725
0.75117476
0.76934642
0.89958683
0.98392394
1.0573258
1.1275107
1.1982683
1.2354255
1.2410542
1.2350362
1.236642
1.2313785
1.2307532
1.2256897
1.2229032
1.2172285
1.2120486
1.2047867
1.1967056
1.1866976
1.174865
1.1607683
1.1439968
1.1243643
1.1014659
1.0753975
1.0463605
1.0153002
0.98346163
0.95229185
0.92289572
0.89596187
0.87179758
0.85056877
0.83228721
0.81689811
0.80426603
0.79392725
0.78558455
0.77886265
0.7734656
0.76910215
0.76554931
0.76261148
0.76028526
0.75852727
0.75690031
0.75480668
0.75285245
0.75161347
0.7511792
0.76769557
0.89866571
0.98362987
1.0576835
1.1284279
1.1998148
1.2330946
1.2379302
1.2317896
1.233384
1.2280055
1.2273071
1.2221221
1.2191947
1.2133693
1.2079752
1.2004999
1.1921206
1.181802
1.1695676
1.1550271
1.1377223
1.1175044
1.0939729
1.0672878
1.03775
1.0064385
0.97469891
0.94400459
0.91541638
0.88952861
0.86652537
0.84643907
0.82916719
0.81460267
0.80261669
0.7927593
0.78476254
0.77828591
0.77306246
0.76881565
0.76533691
0.76245048
0.76017316
0.75845781
0.75679813
0.75460954
0.75269812
0.75155196
0.7511819
0.76611341
0.89779282
0.98338336
1.0581046
1.1294276
1.2012197
1.2304559
1.2346986
1.2284406
1.2300124
1.2245205
1.2237384
1.2184309
1.2153523
1.2093721
1.2037527
1.1960554
1.1873652
1.1767217
1.1640664
1.1490571
1.1311924
1.1103605
1.0861718
1.0588578
1.0288325
0.99731043
0.96572704
0.93556305
0.9078193
0.88298922
0.86114029
0.84218591
0.82591999
0.81218661
0.80086153
0.79150352
0.78387036
0.77765484
0.77261778
0.76849757
0.76510071
0.76227268
0.7600517
0.75837537
0.7566581
0.75438223
0.75255837
0.75149827
0.75118412
0.76456492
0.89696183
0.98316902
1.0585736
1.1305168
1.2024395
1.2274839
1.2313575
1.2249879
1.2265255
1.2209223
1.2200467
1.2146169
1.2113776
1.2052382
1.1993825
1.1914542
1.18244
1.1714549
1.158357
1.1428522
1.1243997
1.1029252
1.0780562
1.0501061
1.019615
0.9879323
0.95656992
0.92699657
0.90013796
0.87638073
0.85568151
0.83784718
0.82257858
0.80967609
0.79902002
0.79017373
0.78291752
0.7769758
0.77213565
0.7681505
0.76484234
0.76207978
0.75992287
0.7582775
0.75646929
0.75413751
0.75242473
0.75144941
0.75118682
0.76305414
0.8961864
0.98299719
1.0590946
1.1317188
1.2034251
1.2241659
1.2279061
1.2214307
1.2229234
1.2172126
1.216235
1.2106834
1.2072729
1.2009691
1.1948656
1.1866967
1.1773439
1.165998
1.1524336
1.1364045
1.1173361
1.0951898
1.0696196
1.0410316
1.0101054
0.97832155
0.94725212
0.91833428
0.89240443
0.8697376
0.85018479
0.83345749
0.81917355
0.80709601
0.79711114
0.78878381
0.78191377
0.77625545
0.77162054
0.7677773
0.76456373
0.76187367
0.759788
0.75816073
0.75622169
0.75388163
0.7522945
0.75140445
0.75119071
0.76157303
0.89545441
0.98287184
1.0596641
1.133054
1.2041214
1.2206777
1.2243405
1.2177711
1.2192113
1.2133975
1.2123077
1.2066326
1.2030392
1.1965654
1.1902029
1.1817828
1.1720746
1.1603452
1.1462884
1.1297054
1.1099921
1.0871451
1.0608554
1.0316353
1.0003148
0.96849848
0.93780024
0.90960594
0.88464976
0.86309158
0.84468209
0.8290475
0.81573219
0.80446895
0.7951526
0.78734696
0.78086861
0.7755004
0.77107693
0.76738089
0.76426693
0.7616562
0.75964708
0.75801998
0.75590868
0.75362009
0.75216703
0.75136345
0.75119685
0.76011859
0.89475539
0.98278207
1.0602752
1.1345177
1.2044823
1.2172286
1.2206782
1.2140207
1.2153976
1.2094809
1.2082657
1.202464
1.1986767
1.1920279
1.1853951
1.1767104
1.1666267
1.1544888
1.1399127
1.1227457
1.102358
1.0787815
1.0517574
1.0219192
0.99025601
0.95848512
0.92824188
0.90084122
0.8769038
0.85647214
0.83920236
0.82464469
0.8122791
0.80181561
0.7931609
0.78587581
0.77979127
0.77471714
0.77050934
0.76696426
0.76395421
0.76142941
0.75949865
0.75784753
0.75553263
0.75335736
0.75204252
0.75132692
0.75120602
0.75874176
0.89413396
0.98277844
1.0609667
1.1361267
1.2044906
1.2135832
1.2169246
1.210179
1.2114777
1.205459
1.2041064
1.1981775
1.1941868
1.1873581
1.1804412
1.1714747
1.1609928
1.1484199
1.1332972
1.1155153
1.094423
1.0700888
1.0423207
1.0118883
0.97994509
0.94830625
0.91860618
0.89207002
0.86919529
0.84990655
0.83377161
0.82027346
0.8088361
0.79915459
0.79115121
0.78438218
0.77869058
0.77391199
0.76992215
0.76653039
0.7636281
0.7611957
0.75934007
0.75763194
0.75511327
0.75309385
0.7519203
0.75129609
0.75121974
0.75739999
0.89354509
0.98283238
1.0617163
1.1378434
1.2041375
1.2097805
1.2130677
1.206238
1.2074468
1.2013305
1.199832
1.1937764
1.1895723
1.1825553
1.1753367
1.1660679
1.1551639
1.142129
1.1264325
1.1080037
1.0861754
1.0610567
1.032541
1.0015494
0.96940041
0.93798837
0.90892298
0.88332187
0.86155164
0.84342002
0.8284133
0.81595547
0.80542258
0.79650254
0.78913735
0.78287705
0.77757489
0.773091
0.76931958
0.76608221
0.76329133
0.760958
0.7591688
0.7573595
0.75468365
0.75282963
0.75179924
0.75127278
0.75124252
0.75606423
0.89297882
0.9829362
1.0625122
1.1396247
1.2032361
1.2058263
1.2091098
1.2022029
1.2033113
1.1971016
1.1954481
1.1892638
1.1848328
1.1776147
1.1700735
1.1604801
1.1491306
1.1356071
1.1193082
1.1001989
1.0776024
1.051675
1.0224166
0.99091286
0.95864387
0.92756039
0.8992232
0.87462602
0.85399898
0.83703575
0.82314842
0.81170975
0.80205544
0.79387417
0.78713173
0.78137047
0.77645196
0.77225989
0.7687056
0.76562256
0.76294675
0.76071956
0.75898364
0.75701937
0.75427475
0.75257442
0.7516794
0.75125202
0.75128155
0.75474977
0.89246189
0.98312491
1.0633994
1.1414594
1.2018897
1.2018542
1.2050568
1.198082
1.1990796
1.1927779
1.1909567
1.1846379
1.1799622
1.1725271
1.1646412
1.1547018
1.1428847
1.1288448
1.1119132
1.0920876
1.0686904
1.041934
1.0119476
0.9799921
0.94769988
0.9170527
0.88953794
0.86601091
0.84656198
0.830775
0.81799572
0.80755297
0.79874938
0.79128237
0.78514547
0.77987157
0.77532897
0.77142406
0.76808397
0.76515413
0.76259711
0.76048319
0.75878507
0.75661106
0.75390813
0.75234408
0.7515661
0.75123359
0.75135051
0.75344888
0.89199782
0.98340893
1.0644022
1.1433027
1.2000898
1.1977672
1.2009198
1.1938786
1.1947533
1.1883577
1.186353
1.1798905
1.1749501
1.167281
1.1590305
1.1487252
1.1364182
1.121832
1.1042346
1.0836553
1.0594253
1.0318254
1.0011373
0.96880444
0.9365963
0.90649773
0.87989875
0.85750437
0.83926396
0.82465716
0.81297167
0.80349946
0.79551693
0.78873827
0.78318838
0.77838854
0.77421241
0.77058844
0.76745817
0.76467958
0.76224495
0.76024998
0.75857317
0.75615562
0.75358426
0.75215332
0.75147703
0.75121422
0.75146188
0.75219984
0.89161433
0.9838241
1.0655693
1.1451068
1.1978526
1.1936059
1.1967002
1.1895883
1.1903248
1.1838326
1.1816266
1.1750099
1.169785
1.1618669
1.1532343
1.1425438
1.1297227
1.1145566
1.0962579
1.0748863
1.0497929
1.0213423
0.98999219
0.95737055
0.92536333
0.8959288
0.87033687
0.84913319
0.83212671
0.8186997
0.80809063
0.79956145
0.79236871
0.78625142
0.78126905
0.77692869
0.77310812
0.76975751
0.7668315
0.76420159
0.76189267
0.76001819
0.7583424
0.75568283
0.75329447
0.75200655
0.75142529
0.75120482
0.75161637
0.7509817
0.89127649
0.98434641
1.0669061
1.1467727
1.1951203
1.1893388
1.1923869
1.1852011
1.1857846
1.1791911
1.1767653
1.1699845
1.1644581
1.156279
1.1472484
1.1361509
1.1227876
1.1070043
1.0879669
1.0657639
1.0397794
1.0104807
0.97852324
0.94571556
0.91403445
0.88538064
0.86088359
0.84092323
0.82517048
0.81291821
0.80336479
0.79574907
0.78931349
0.78382982
0.77939486
0.77549845
0.77202125
0.76893524
0.76620701
0.76372299
0.76154276
0.75978307
0.75807578
0.75521624
0.75303847
0.75189779
0.75140413
0.75121029
0.75180216
0.74979145
0.89097312
0.98495307
1.0684315
1.1482188
1.1918774
1.1849652
1.1879696
1.1807074
1.1811224
1.1744217
1.1717585
1.164807
1.1589657
1.1505146
1.1410684
1.1295375
1.1155993
1.099159
1.0793443
1.0562708
1.0293717
0.99923934
0.96674518
0.933868
0.90264495
0.87488833
0.8515697
0.83289909
0.81841365
0.80732618
0.79880435
0.79207052
0.78635851
0.78148013
0.77757201
0.77410344
0.77095628
0.76812502
0.76558748
0.7632468
0.76119811
0.75953853
0.75774626
0.75478061
0.7528174
0.75181852
0.75140335
0.75122571
0.75200749
0.74862361
0.890701
0.98562751
1.070169
1.1493639
1.1880967
1.1804719
1.1834332
1.176091
1.176324
1.1695158
1.1666017
1.1594764
1.1533082
1.1445714
1.134687
1.1226908
1.1081415
1.0910027
1.0703715
1.0463892
1.0185584
0.98762115
0.95467809
0.9218609
0.89123283
0.86448813
0.84242595
0.82508417
0.81187252
0.80193485
0.7944176
0.7885322
0.78350953
0.77920771
0.77580553
0.77274842
0.76991707
0.76732973
0.76497535
0.76277611
0.76086182
0.75928011
0.75733136
0.75439207
0.75263255
0.75176299
0.75141667
0.75124745
0.7522052
0.74742798
0.89041313
0.98633908
1.0721357
1.1501065
1.183883
1.1758529
1.1787759
1.1713453
1.171384
1.1644734
1.1612985
1.1539958
1.1474852
1.1384431
1.128092
1.1155943
1.1003964
1.082517
1.0610294
1.0361013
1.0073302
0.97563293
0.94234638
0.90973034
0.87983756
0.85421682
0.83348244
0.81749993
0.8055607
0.79675298
0.79021129
0.785139
0.7807709
0.77701672
0.77409947
0.77143728
0.76890693
0.76655177
0.76437277
0.76231391
0.76053637
0.75900647
0.75683752
0.75404694
0.75248118
0.75173381
0.75144084
0.75128142
0.75239979
0.74625149
0.89014088
0.98709693
1.0743645
1.1504179
1.1797724
1.1711089
1.1740067
1.1664829
1.1663162
1.1593034
1.1558537
1.1483645
1.1414902
1.1321172
1.1212671
1.1082297
1.0923453
1.0736827
1.0512978
1.0253899
0.9956812
0.96328734
0.92978032
0.89751673
0.86850129
0.84411223
0.82476839
0.81016534
0.7994889
0.79178693
0.78619077
0.78189458
0.77814528
0.77491002
0.77245714
0.77017299
0.76792864
0.7657932
0.7637817
0.76186287
0.76022226
0.75871665
0.75630124
0.75372932
0.75235232
0.75172818
0.7514851
0.7513544
0.75258455
0.74506723
0.88986882
0.98787266
1.0768419
1.1501705
1.1754176
1.1662683
1.169134
1.1615133
1.161131
1.15401
1.1502654
1.142574
1.1353099
1.1255763
1.1141937
1.1005781
1.0839696
1.0644798
1.0411554
1.0142383
0.98360874
0.95060184
0.91701443
0.88526314
0.8572674
0.83421141
0.81630968
0.80309513
0.79366499
0.7870415
0.78235991
0.77880169
0.77563349
0.77288919
0.7708817
0.76895781
0.76698444
0.76505578
0.76320413
0.76142536
0.75991667
0.7584039
0.75576048
0.75343873
0.75223992
0.75173459
0.75154774
0.7514867
0.75275765
0.7439352
0.88965532
0.98869625
1.079592
1.1493774
1.1708393
1.161337
1.1641548
1.156424
1.1558116
1.1485854
1.1445236
1.1366101
1.1289262
1.1188017
1.1068535
1.0926215
1.07525
1.0548865
1.0305805
1.0026323
0.97111598
0.93760108
0.90408921
0.87301698
0.84618094
0.82454929
0.80812656
0.79629904
0.78809536
0.78252182
0.77872065
0.77586191
0.77323451
0.77095457
0.76937626
0.7677937
0.76607599
0.76434104
0.76264228
0.7610036
0.75961337
0.75805091
0.75524666
0.75319119
0.75215939
0.75174836
0.75160602
0.75168091
0.75291599
0.74282992
0.88948268
0.98954454
1.0825561
1.1479673
1.166035
1.1562943
1.159055
1.1512068
1.1503498
1.1430126
1.1386118
1.1304541
1.1223201
1.1117753
1.0992295
1.0843416
1.0661659
1.0448795
1.0195502
0.99055961
0.95821138
0.9243153
0.89104973
0.86082785
0.83528571
0.81515428
0.80023061
0.78978218
0.78278688
0.77823515
0.77527224
0.77307459
0.77094647
0.76910609
0.76794329
0.76668303
0.76520414
0.76365022
0.7620986
0.76059974
0.75930458
0.75763167
0.75478706
0.75299634
0.75212145
0.75177294
0.75166067
0.75195137
0.75305983
0.74170434
0.88932948
0.99041605
1.0856658
1.1459055
1.1611125
1.1511427
1.1538332
1.1458602
1.1447459
1.137274
1.1325066
1.1240863
1.1154751
1.1044816
1.0913053
1.075719
1.0566942
1.034433
1.0080423
0.978013
0.94491087
0.9107826
0.87794713
0.84874778
0.82462218
0.80604514
0.79262585
0.78354955
0.77774907
0.77419018
0.77201139
0.77043494
0.76876847
0.76734489
0.76658275
0.76562879
0.76436899
0.76298424
0.76157551
0.76021555
0.75898454
0.7571288
0.75439703
0.75284431
0.7521112
0.75181589
0.75172026
0.75221265
0.75318789
0.74059606
0.88923852
0.99136386
1.0888586
1.1431794
1.1560873
1.1458747
1.1484767
1.1403682
1.138985
1.1313588
1.1261893
1.1174906
1.1083779
1.0969064
1.0830635
1.0667316
1.0468089
1.0235197
0.99603587
0.96499015
0.93123714
0.89704728
0.86483617
0.8368277
0.81422241
0.79722945
0.78531641
0.77761384
0.77299383
0.77039101
0.76893424
0.76793299
0.76670251
0.76567499
0.76529036
0.76463325
0.76357009
0.76234367
0.76107498
0.75985124
0.75865146
0.75656806
0.75406102
0.75271789
0.75211565
0.75188078
0.75179211
0.75246549
0.75330085
0.73947352
0.88919357
0.99239997
1.0919979
1.1397323
1.1508831
1.1404717
1.1429631
1.1347118
1.1330438
1.1252499
1.1196546
1.1106572
1.1010161
1.0890333
1.0744836
1.0573536
1.036481
1.0121111
0.98351323
0.95149618
0.91722222
0.88316134
0.85177517
0.82511516
0.80410717
0.78871096
0.77832161
0.77199862
0.76853006
0.76682972
0.7660396
0.76555691
0.76475294
0.76410232
0.764059
0.76369457
0.76280729
0.76172887
0.76059817
0.75950406
0.75830285
0.75599767
0.75375825
0.75260842
0.75212752
0.75195844
0.75188964
0.75268961
0.75339904
0.73828638
0.88917156
0.99355213
1.0949117
1.1355506
1.145509
1.1349138
1.1372758
1.1288785
1.1269071
1.1189298
1.1128979
1.1035781
1.0933752
1.0808421
1.065541
1.0475558
1.0256787
1.0001791
0.97046074
0.93754375
0.90290591
0.86918213
0.83882205
0.81364901
0.79428546
0.78050595
0.771678
0.76672805
0.76435721
0.76348656
0.76332911
0.7633027
0.76292111
0.76262875
0.76288641
0.7628033
0.76208163
0.76114024
0.76014553
0.75916709
0.75792553
0.75544904
0.75349887
0.75253178
0.75215182
0.75204238
0.75203377
0.752885
0.75348318
0.73697977
0.88915384
0.99484139
1.0975071
1.130913
1.1399509
1.1291939
1.1314111
1.1228659
1.1205692
1.1123918
1.1059009
1.0962391
1.0854372
1.0723085
1.056207
1.0373057
1.0143685
0.98769685
0.95687154
0.92315547
0.888338
0.85517303
0.82603288
0.80245708
0.78476493
0.772657
0.7654238
0.76181505
0.76045885
0.76033947
0.76079925
0.76117978
0.76119339
0.7612511
0.76178457
0.76194438
0.76139546
0.76057853
0.75971728
0.7588303
0.75749356
0.75495686
0.75329326
0.75249804
0.75219091
0.75212006
0.75222914
0.75305526
0.75355466
0.73559858
0.8891677
0.9962981
1.0996944
1.1261849
1.1342339
1.1233194
1.1253696
1.116668
1.1140209
1.105623
1.0986467
1.088621
1.0771797
1.0634039
1.0464493
1.0265679
1.0025164
0.97464105
0.9427461
0.90836346
0.87357567
0.8411993
0.81345645
0.79155483
0.77557295
0.76521848
0.75958926
0.75724538
0.75679472
0.75738569
0.75842963
0.75919708
0.759562
0.75996443
0.76076412
0.76110971
0.76075051
0.76004506
0.75931376
0.75848501
0.75698584
0.75454542
0.75313563
0.75248873
0.75224764
0.75219403
0.75246208
0.75320325
0.75361522
0.73420528
0.88923944
0.99795769
1.1013879
1.1209432
1.1283656
1.117282
1.1191373
1.1102697
1.1072465
1.0986102
1.0911247
1.080695
1.0685754
1.0540956
1.0362323
1.0153053
0.99008863
0.96099339
0.92809521
0.8932117
0.85868492
0.82732646
0.80113232
0.78095461
0.76676875
0.75823709
0.75418174
0.75296466
0.75334928
0.75463154
0.75620292
0.75735098
0.75803362
0.75876441
0.75981677
0.76030524
0.76014398
0.75954178
0.75893465
0.7581282
0.75642461
0.75420271
0.75300924
0.75249018
0.75230452
0.75226013
0.75269419
0.75333181
0.75366664
0.73281786
0.88935541
0.99979265
1.102467
1.1153721
1.1223216
1.1110612
1.1126947
1.1036563
1.1002288
1.0913391
1.0833177
1.0724338
1.0595936
1.0443469
1.0255177
1.0034791
0.97705274
0.94674194
0.91293953
0.87775386
0.84373622
0.81361447
0.78908751
0.77068726
0.75842338
0.7517455
0.74915656
0.74893467
0.75014044
0.75206853
0.75412016
0.75563095
0.75660219
0.75764856
0.75893246
0.75954443
0.75956643
0.75907071
0.75857655
0.75775975
0.75585902
0.75390336
0.75290343
0.75249768
0.75236968
0.75233874
0.75291221
0.75344365
0.7537111
0.73145931
0.88955689
1.0017622
1.102715
1.1094404
1.1160893
1.1046459
1.1060269
1.0968146
1.0929539
1.0837922
1.0751986
1.0638129
1.0501984
1.0341174
1.0142648
0.9910507
0.96337973
0.93188413
0.89731274
0.86205466
0.8288032
0.8001155
0.77734174
0.76082191
0.75059692
0.74574519
0.74443737
0.74517101
0.74716196
0.74969015
0.75217938
0.75402623
0.75526429
0.75660809
0.75810552
0.75884192
0.75900682
0.75863235
0.75823015
0.75737219
0.75532153
0.75365141
0.75283053
0.75251629
0.75244128
0.75244232
0.7531056
0.75354038
0.75374956
0.73017514
0.88992251
1.003837
1.1019685
1.1032644
1.1096551
1.0980236
1.0991216
1.0897315
1.085408
1.0759488
1.0667388
1.0547942
1.0403483
1.0233643
1.002432
0.97798174
0.94904529
0.91642743
0.88126083
0.8461866
0.81395658
0.78687013
0.76592338
0.75144929
0.74332823
0.74017742
0.73999906
0.74168212
0.7444057
0.74748736
0.75037748
0.75252758
0.75401493
0.75563688
0.7573336
0.75819847
0.75846425
0.75822342
0.75788168
0.75694614
0.75484596
0.75345375
0.75279805
0.75255596
0.75251238
0.75258718
0.75327277
0.75362261
0.7537825
0.72898463
0.89048101
1.0059327
1.1003789
1.0967811
1.1030078
1.091184
1.0919685
1.0823941
1.077569
1.0677764
1.0578975
1.0453329
1.0300026
1.0120446
0.98997612
0.96423545
0.93403266
0.90039297
0.86484394
0.83022988
0.79926249
0.77391066
0.75490231
0.74264595
0.73662134
0.7349538
0.73587025
0.73845743
0.74186134
0.74545141
0.74870667
0.751129
0.75284949
0.75473144
0.75661663
0.75760403
0.75794913
0.75783545
0.75752261
0.7564635
0.75445771
0.75330463
0.75278649
0.75260211
0.75257994
0.7527824
0.75341352
0.75369228
0.75381109
0.72790476
0.89126737
1.0079459
1.0978739
1.090005
1.0961424
1.0841212
1.0845515
1.0747796
1.0693993
1.0592299
1.0486287
1.0353843
1.0191203
1.0001144
0.97685234
0.94977715
0.91833447
0.88381516
0.84813328
0.81426539
0.78477794
0.76126916
0.74438459
0.73445992
0.73041525
0.73004993
0.73205659
0.73548656
0.7395181
0.74357302
0.74715897
0.74982473
0.7517631
0.75388812
0.75595047
0.75705367
0.75747426
0.75745806
0.75716327
0.75594522
0.75414507
0.75319023
0.75278679
0.75265319
0.75263884
0.75298155
0.7535322
0.75375088
0.75383679
0.72700225
0.89232907
1.0097384
1.0944165
1.0829545
1.0890419
1.0768143
1.0768346
1.0668439
1.0608495
1.0502597
1.0388886
1.0249082
1.0076582
0.98752744
0.9630143
0.9345771
0.90195612
0.86674511
0.83121117
0.79837278
0.77055223
0.74900837
0.73446955
0.72691013
0.72460993
0.72549578
0.72854604
0.73275681
0.73736476
0.7418428
0.74572618
0.74860915
0.75075074
0.75310258
0.75533036
0.75654387
0.75704584
0.75708796
0.75679913
0.75543411
0.75387747
0.75309929
0.75279123
0.75270665
0.75270274
0.75317241
0.7536349
0.75380413
0.75385978
0.72626281
0.89374111
1.0112019
1.0899453
1.075619
1.0816677
1.0692171
1.0687634
1.0585309
1.0518721
1.0408234
1.0286388
1.0138622
0.9955688
0.974234
0.94841583
0.91861295
0.88491728
0.84924824
0.8141657
0.78262449
0.75662815
0.73723683
0.72522614
0.71994564
0.71916713
0.72130031
0.72532556
0.7302551
0.7353899
0.74025126
0.7444004
0.74747659
0.74980747
0.75237146
0.75475613
0.75607426
0.7566545
0.75672704
0.75644504
0.75495312
0.75365031
0.75303024
0.75280063
0.75276057
0.75278395
0.75334107
0.75372127
0.7538486
0.7538805
0.72558374
0.8955353
1.0121667
1.084343
1.0679596
1.0739508
1.0612686
1.0602847
1.0497979
1.0424337
1.0308876
1.0178419
1.0021948
0.98279781
0.96018164
0.93301388
0.90187417
0.86725585
0.83140514
0.7970881
0.7670866
0.74306038
0.72608095
0.71668975
0.71346184
0.71411379
0.71745169
0.72238
0.72796784
0.7335821
0.73878897
0.74317392
0.74642157
0.74892888
0.75169377
0.75422988
0.75564417
0.75628744
0.75637277
0.75605442
0.75452892
0.75346869
0.75299011
0.7528257
0.7528098
0.75290816
0.75348334
0.75379222
0.753885
0.75389791
0.72488776
0.89769927
1.0124241
1.0776073
1.0599186
1.0658315
1.0529288
1.0513718
1.0406265
1.0325087
1.0204161
1.0064541
0.9898437
0.96928396
0.94531703
0.91677141
0.8843645
0.84902748
0.81330706
0.78006558
0.75181758
0.72995111
0.71563874
0.7088333
0.70739727
0.70946443
0.71393482
0.71969359
0.72588135
0.73192999
0.73744666
0.74203937
0.74543886
0.74811156
0.75107087
0.75375172
0.75524746
0.75593475
0.75601775
0.75561832
0.75418406
0.75333404
0.75297239
0.75285494
0.75284952
0.75306109
0.75359875
0.75384864
0.75391366
0.75391172
0.72401003
0.90020435
1.0117466
1.0703593
1.0514859
1.0572922
1.044196
1.0420132
1.030995
1.0220643
1.0093573
0.99441459
0.97674739
0.95496439
0.92958763
0.89966106
0.86610621
0.83030746
0.79505451
0.76318204
0.73687736
0.71744482
0.70596741
0.70156018
0.70176081
0.70521237
0.71073202
0.71725006
0.72398193
0.73042239
0.73621527
0.74098965
0.74452347
0.7473529
0.75050495
0.75331924
0.75487722
0.75558834
0.75565907
0.75516974
0.75391291
0.75323439
0.75296631
0.75288852
0.75289512
0.75322395
0.75369203
0.75389551
0.75393615
0.75392098
0.72297735
0.90314188
1.010071
1.0631996
1.0427008
1.048351
1.0350642
1.032181
1.0208494
1.0110486
0.99764678
0.98165156
0.96284791
0.93977626
0.91294317
0.88166824
0.84714119
0.81118679
0.77674933
0.74651648
0.72235605
0.70567176
0.69707635
0.69477632
0.6965773
0.7013399
0.70782464
0.71503286
0.72225599
0.72904831
0.73508596
0.74001783
0.74367042
0.74665058
0.74999775
0.75292754
0.75452658
0.75524431
0.75530176
0.75474645
0.75368925
0.75315911
0.75296528
0.75292337
0.75294736
0.75337552
0.75377092
0.75393443
0.75395489
0.75392795
0.72167243
0.90649361
1.0073078
1.055117
1.0335871
1.0389656
1.0254861
1.0218077
1.0101199
0.99938935
0.98521636
0.9681021
0.94807877
0.92365427
0.89533856
0.86279605
0.82753418
0.79177052
0.7584917
0.73014551
0.70840044
0.69472289
0.68888936
0.68846263
0.69184796
0.69782682
0.70519321
0.7130255
0.72069019
0.72779705
0.73405018
0.73911715
0.7428746
0.74600199
0.74954973
0.75257023
0.75418999
0.75490228
0.75495163
0.75435607
0.75350374
0.75310337
0.75296653
0.75295342
0.75302735
0.75350702
0.75383601
0.7539661
0.75396997
0.75393346
0.72021806
0.91014834
1.0033707
1.0463326
1.0240578
1.0290474
1.0153768
1.0108262
0.99872926
0.98702007
0.9719977
0.95370626
0.93237031
0.9065303
0.87673954
0.84307022
0.80737199
0.77217158
0.74037778
0.71415406
0.6951821
0.68464282
0.68128156
0.68265471
0.68755265
0.69465127
0.70281803
0.71121171
0.71927158
0.72665832
0.73309969
0.73828109
0.7421313
0.74540512
0.74915922
0.75224047
0.75386317
0.75456277
0.75461304
0.75400953
0.75335012
0.75306213
0.75297126
0.75297319
0.75312891
0.75361475
0.75388755
0.7539915
0.75398343
0.75393845
0.71848362
0.91377203
0.99816835
1.0368638
1.0140229
1.0185161
1.0046705
0.99917815
0.98662019
0.97387546
0.95791866
0.93839172
0.91564052
0.88833737
0.85713002
0.82254442
0.78676275
0.75250797
0.722505
0.69868477
0.6828342
0.67538699
0.67420015
0.67736405
0.68366896
0.69179051
0.7006795
0.70957567
0.71798767
0.7256222
0.73222652
0.73750347
0.74143743
0.74486129
0.74882005
0.75193142
0.7535426
0.75422504
0.75428558
0.75371178
0.75322437
0.7530282
0.75297545
0.75299853
0.75324555
0.75369955
0.75392729
0.75401095
0.7539941
0.75394342
0.71647298
0.91712096
0.99184957
1.02683
1.0034587
1.007328
0.99331346
0.98681588
0.97373016
0.95988386
0.94289677
0.92205437
0.89779855
0.86901951
0.8365198
0.80129999
0.76582964
0.73289689
0.70497482
0.68392953
0.67142734
0.66682982
0.66767858
0.67257
0.6801714
0.68922115
0.69875815
0.70810192
0.71682638
0.72467911
0.73142295
0.73677882
0.74079252
0.74437736
0.74851899
0.75163592
0.75322538
0.75388828
0.75396622
0.7534676
0.7531239
0.75299542
0.7529779
0.75302923
0.75336496
0.75376867
0.7539594
0.75402565
0.75400181
0.75394802
0.71415953
0.92022265
0.98445837
1.0160436
0.99234214
0.99543988
0.98124592
0.97367623
0.95998168
0.94495479
0.92681897
0.90457104
0.87875668
0.84854389
0.81495117
0.77944609
0.74470694
0.71345929
0.6879228
0.67006245
0.66096015
0.65888571
0.66173608
0.66824812
0.6770334
0.68691977
0.69703498
0.70677559
0.71577613
0.72381982
0.73068162
0.73610258
0.74019788
0.74396003
0.74823897
0.75134692
0.75291017
0.75355645
0.75365876
0.75327299
0.7530457
0.75297141
0.75298307
0.75307534
0.75347404
0.75382776
0.75398644
0.75403768
0.75400748
0.75395148
0.71125176
0.92306562
0.97601716
1.0045217
0.98061909
0.98279537
0.96840124
0.95967389
0.9452678
0.92896659
0.90953824
0.88582924
0.85844793
0.82690883
0.79249935
0.75711308
0.72353091
0.69431803
0.67154573
0.65720325
0.65132928
0.65155697
0.65636315
0.66436874
0.67422738
0.68486312
0.69549153
0.70558239
0.71482585
0.72303549
0.72999569
0.73547126
0.73965416
0.74360358
0.74796948
0.75105965
0.75259889
0.75323907
0.75337469
0.75311405
0.75298083
0.75295385
0.75298691
0.753134
0.75356839
0.75387584
0.75400765
0.7540469
0.75401203
0.75395398
0.70747436
0.92549821
0.96654487
0.99218421
0.96821073
0.9693078
0.95466695
0.94468002
0.9294386
0.91176503
0.89092783
0.86573336
0.83683228
0.80414725
0.7692723
0.73444868
0.70244216
0.67561211
0.65606688
0.64539624
0.64241299
0.64487738
0.65153149
0.66090104
0.67172565
0.68302859
0.69411011
0.70450875
0.71396498
0.72231772
0.72935891
0.73488205
0.73915983
0.74329316
0.74770653
0.75077318
0.75229727
0.75294496
0.75311986
0.75297942
0.75292403
0.75293618
0.75299232
0.75320591
0.75364616
0.75391267
0.75402258
0.75405245
0.75401571
0.75395565
0.70263293
0.92737352
0.95605178
0.97895243
0.95499583
0.95482889
0.93987654
0.92852684
0.91232394
0.8931988
0.87089075
0.84421539
0.81389988
0.78032786
0.74540597
0.71161046
0.68159007
0.65754717
0.64165562
0.63457038
0.63417925
0.63884872
0.64720775
0.65781246
0.66950064
0.68139419
0.69287379
0.70354174
0.71318351
0.72165854
0.72876565
0.73433246
0.73871192
0.74301602
0.74744565
0.75048925
0.75201071
0.75267845
0.75289374
0.75286543
0.75287023
0.75291121
0.75300411
0.75329041
0.75370869
0.75394124
0.75403344
0.75405566
0.75401755
0.75395663
0.69651839
0.92820992
0.94437443
0.96465383
0.94080369
0.93917675
0.92383159
0.91103483
0.89376698
0.87316467
0.84933859
0.82122544
0.78967251
0.75555621
0.72106163
0.68876619
0.66114301
0.64038297
0.62839714
0.62457603
0.62667555
0.63343945
0.6433557
0.65507004
0.66752527
0.67993876
0.69176639
0.70266906
0.71247181
0.7210504
0.72821079
0.73381997
0.73830595
0.74276115
0.74718422
0.75020811
0.75173837
0.75243755
0.75269556
0.75276712
0.75282248
0.75288975
0.75303029
0.75337581
0.75376029
0.75396495
0.75404254
0.75405723
0.75401751
0.75395704
0.68910117
0.92832865
0.93120031
0.94908331
0.92542285
0.92216186
0.90634168
0.89204615
0.8736412
0.85156912
0.8261971
0.79673535
0.7642083
0.72997374
0.69641913
0.66609677
0.64131969
0.62433672
0.61625391
0.61535197
0.61991416
0.62861188
0.63993683