/*--------------------------------*- C++ -*----------------------------------*\
  =========                 |
  \\      /  F ield         | OpenFOAM: The Open Source CFD Toolbox
   \\    /   O peration     | Website:  https://openfoam.org
    \\  /    A nd           | Version:  8
     \\/     M anipulation  |
\*---------------------------------------------------------------------------*/
FoamFile
{
    version     2.0;
    format      ascii;
    class       surfaceScalarField;
    location    "0.280002";
    object      meshPhi;
}
// * * * * * * * * * * * * * * * * * * * * * * * * * * * * * * * * * * * * * //

dimensions      [0 3 -1 0 0 0 0];

internalField   nonuniform List<scalar> 
39600
(
5.7020215e-05
3.5702361e-06
-3.5807307e-06
5.7069717e-05
4.2933018e-06
-4.3559937e-06
5.7126585e-05
5.143924e-06
-5.2179463e-06
5.7194559e-05
6.1622994e-06
-6.2505396e-06
5.7276903e-05
7.3819117e-06
-7.4871888e-06
5.7377734e-05
8.8425125e-06
-8.9680658e-06
5.7501931e-05
1.0591332e-05
-1.0741141e-05
5.7655704e-05
1.2684626e-05
-1.2863646e-05
5.7847085e-05
1.5189587e-05
-1.5403792e-05
5.8085415e-05
1.8186102e-05
-1.8442663e-05
5.8371111e-05
2.1768922e-05
-2.2076561e-05
5.8705032e-05
2.60505e-05
-2.6419566e-05
5.9087329e-05
3.116309e-05
-3.1606069e-05
5.9523026e-05
3.7261821e-05
-3.7793503e-05
6.008236e-05
4.4525153e-05
-4.5164088e-05
6.0766441e-05
5.315448e-05
-5.3924038e-05
6.1868016e-05
6.3375119e-05
-6.4303106e-05
6.3657098e-05
7.5418826e-05
-7.6543255e-05
6.6119401e-05
8.9534107e-05
-9.0908242e-05
6.9601805e-05
0.00010599941
-0.00010769391
7.4636957e-05
0.00012506162
-0.00012717036
8.1874515e-05
0.00014696335
-0.00014961518
9.2340138e-05
0.00017165941
-0.00017500337
0.00010670177
0.00019903318
-0.00020324772
0.00012385439
0.00022933606
-0.00023468346
0.00014363414
0.00026261633
-0.00026935057
0.00016897753
0.00029796772
-0.00030664172
0.00020044514
0.00033360632
-0.00034472366
0.00023752502
0.00036927826
-0.00038301442
0.00026544337
0.00041571643
-0.00043295678
0.000298439
0.00047938609
-0.00050166354
0.00036133125
0.00053570898
-0.00056409009
0.00043684513
0.00057391917
-0.00060907131
0.00051549092
0.00061802755
-0.00066275995
0.00060329005
0.00067720378
-0.00073380346
0.00070807964
0.0007404806
-0.0008110131
0.00082438609
0.00080762336
-0.00089496723
0.0009615688
0.00087677474
-0.00098289599
0.001113728
0.00094379368
-0.0010709929
0.0012649407
0.0010053692
-0.0011535166
0.0014200064
0.0010524004
-0.001219652
0.0015743754
0.0011639695
-0.0013533246
0.001711644
0.001394611
-0.0016057606
0.0017758214
0.0016385884
-0.0018582223
0.0017584564
0.0018602535
-0.0020739841
0.0017427105
0.0021242778
-0.0023252169
0.0013373044
0.0024344996
-0.0025951571
0.00051069059
0.0027942617
-0.0028684944
-0.00067842178
0.0032188889
-0.0032190304
0.0018785767
-0.0018786757
4.5830443e-05
3.5324345e-06
4.5849072e-05
4.2479218e-06
4.5867055e-05
5.0889106e-06
4.5891034e-05
6.096243e-06
4.5929779e-05
7.302792e-06
4.5987959e-05
8.7475474e-06
4.6076205e-05
1.0477594e-05
4.6199425e-05
1.2548499e-05
4.6367236e-05
1.5027055e-05
4.6585463e-05
1.7992235e-05
4.6856256e-05
2.153803e-05
4.7177507e-05
2.5775311e-05
4.7555337e-05
3.0834557e-05
4.7998981e-05
3.6867866e-05
4.8588435e-05
4.4048469e-05
4.933548e-05
5.2575412e-05
5.0416775e-05
6.2671392e-05
5.2034544e-05
7.4566949e-05
5.42152e-05
8.8505706e-05
5.7291791e-05
0.00010473753
6.1776464e-05
0.00012349234
6.8314355e-05
0.00014496847
7.7806778e-05
0.00016913028
9.0857933e-05
0.00019586252
0.00010680848
0.00022528497
0.00012554806
0.00025738774
0.0001502402
0.00029099133
0.00018061639
0.00032455797
0.00021603504
0.00035827457
0.00024365954
0.00040184432
0.0002769245
0.00046064366
0.00033764651
0.00051133877
0.00041085638
0.00054384391
0.00048899833
0.00057952109
0.00057567684
0.00062752711
0.00068048606
0.00067729421
0.00079615433
0.00072815203
0.00093357661
0.0007786651
0.0010843738
0.00082511519
0.0012373044
0.0008654414
0.0013923406
0.00089364796
0.0015499782
0.000985061
0.0016894577
0.001193122
0.0017656744
0.0014244487
0.0017562741
0.0016479477
0.0017142949
0.001925023
0.0013414735
0.0022736862
0.00052864528
0.0027140595
-0.00065800529
0.0032098763
0.00187435
3.5545628e-05
3.5068359e-06
3.5714257e-05
4.2162857e-06
3.58848e-05
5.0498787e-06
3.603182e-05
6.0483352e-06
3.6153235e-05
7.2444517e-06
3.6258342e-05
8.6771491e-06
3.6355933e-05
1.0393142e-05
3.6451826e-05
1.2447869e-05
3.6550818e-05
1.4907755e-05
3.6662134e-05
1.7851518e-05
3.6795111e-05
2.137266e-05
3.6962696e-05
2.5580968e-05
3.7191467e-05
3.0605566e-05
3.7516968e-05
3.6595241e-05
3.800507e-05
4.3720395e-05
3.869004e-05
5.2179081e-05
3.9648587e-05
6.2192155e-05
4.0972231e-05
7.3992244e-05
4.2775318e-05
8.7812282e-05
4.5377239e-05
0.00010388028
4.924472e-05
0.0001224143
5.5020926e-05
0.00014357679
6.3506392e-05
0.00016733872
7.5315452e-05
0.00019356011
9.008613e-05
0.00022228669
0.00010784131
0.00025341694
0.00013173481
0.00028550013
0.00016088514
0.00031728766
0.00019437276
0.00034929749
0.00022142748
0.00039028419
0.00025470368
0.0004446983
0.00031296283
0.0004903764
0.00038381279
0.00051757239
0.00046089397
0.00054537652
0.00054644733
0.00058279319
0.00065072343
0.00061954271
0.00076572913
0.00065453465
0.0009027309
0.00068670759
0.0010521518
0.00071285154
0.0012060107
0.00073197527
0.0013615157
0.00074079877
0.0015215495
0.00081144965
0.0016639483
0.00099672808
0.0017503266
0.0012137199
0.0017500005
0.0014362308
0.0016858975
0.0017271937
0.0013414134
0.0021139798
0.00054452159
0.0026291306
-0.00063792553
0.0031988623
0.0018729141
2.5745135e-05
3.4947865e-06
2.5917318e-05
4.2028883e-06
2.6102605e-05
5.0348417e-06
2.6281644e-05
6.0311746e-06
2.6446968e-05
7.2242723e-06
2.6602791e-05
8.6528122e-06
2.6748691e-05
1.0363055e-05
2.6879792e-05
1.2410401e-05
2.6992962e-05
1.4860868e-05
2.7087301e-05
1.7792899e-05
2.717283e-05
2.1299834e-05
2.7263916e-05
2.549095e-05
2.7393708e-05
3.0494861e-05
2.761211e-05
3.6459044e-05
2.7968e-05
4.3552795e-05
2.8506664e-05
5.1973961e-05
2.9262465e-05
6.1944661e-05
3.0293489e-05
7.3695517e-05
3.1749115e-05
8.7447679e-05
3.3898689e-05
0.00010341916
3.7190906e-05
0.00012181452
4.2252523e-05
0.00014276882
4.9819734e-05
0.00016625282
6.0542782e-05
0.00019208952
7.4192619e-05
0.00022028413
9.1010773e-05
0.00025061918
0.00011399275
0.00028144465
0.00014183607
0.00031180967
0.00017350315
0.00034241124
0.00019990448
0.00038112739
0.00023287364
0.00043166566
0.00028878163
0.00047288689
0.00035743851
0.00049516077
0.00043324073
0.00051564514
0.00051770302
0.000543077
0.00062117418
0.00056734205
0.00073556933
0.0005869155
0.00087178351
0.00060113392
0.0010200311
0.00060730851
0.0011744016
0.00060538835
0.0013306254
0.00059440913
0.0014926533
0.00064375111
0.0016380303
0.00080597883
0.0017333844
0.0010070743
0.0017409701
0.0012260532
0.0016626751
0.0015306918
0.0013413077
0.0019545517
0.00055902442
0.0025402042
-0.00061883434
0.0031859052
0.0018735733
1.6404885e-05
3.4946395e-06
1.6435532e-05
4.2029686e-06
1.6494413e-05
5.0351897e-06
1.658962e-05
6.0319433e-06
1.6713527e-05
7.225526e-06
1.6860825e-05
8.6547414e-06
1.7020714e-05
1.0365865e-05
1.7181253e-05
1.2414202e-05
1.7335236e-05
1.4865619e-05
1.7470902e-05
1.7798406e-05
1.7596699e-05
2.1305427e-05
1.7712219e-05
2.5495587e-05
1.7844411e-05
3.0497234e-05
1.8023089e-05
3.6457523e-05
1.8294958e-05
4.3545684e-05
1.8692184e-05
5.1960902e-05
1.9247645e-05
6.1926417e-05
2.0033757e-05
7.3669574e-05
2.1173303e-05
8.7406175e-05
2.2910588e-05
0.00010334615
2.5680698e-05
0.00012168141
3.0086113e-05
0.00014252616
3.6819414e-05
0.00016584565
4.6570583e-05
0.00019142458
5.9163015e-05
0.00021924464
7.5096648e-05
0.00024896869
9.7069565e-05
0.00027879078
0.00012347183
0.00030807831
0.00015339377
0.00033761447
0.00017907667
0.00037441001
0.00021152107
0.00042152628
0.00026519321
0.00045878964
0.00033174459
0.00047660029
0.00040613429
0.00049034743
0.00048947993
0.00050839381
0.00059198016
0.0005207068
0.00070573666
0.00052534668
0.00084094938
0.00052204334
0.00098810054
0.00050865603
0.0011427292
0.00048591918
0.0012997725
0.00045487204
0.0014635553
0.00048249906
0.001611915
0.00062125665
0.0017153609
0.00080495768
0.0017300229
0.0010181708
0.001642949
0.0013355811
0.0013409226
0.0017948182
0.00057212598
0.0024473374
-0.00060059131
0.0031708428
0.0018760286
7.7875042e-06
3.5061254e-06
7.8130185e-06
4.2165653e-06
7.8614639e-06
5.0512673e-06
7.932331e-06
6.0510168e-06
8.0140442e-06
7.24839e-06
8.1040466e-06
8.6824201e-06
8.1945703e-06
1.0399663e-05
8.2821075e-06
1.245566e-05
8.3670916e-06
1.4916502e-05
8.4441267e-06
1.7860609e-05
8.5254134e-06
2.1380893e-05
8.6064382e-06
2.558623e-05
8.7068461e-06
3.0604823e-05
8.8351356e-06
3.6583961e-05
9.0127326e-06
4.3693701e-05
9.2692139e-06
5.2134891e-05
9.6416464e-06
6.2132153e-05
1.0202043e-05
7.3911014e-05
1.1058502e-05
8.7683464e-05
1.2428036e-05
0.00010365435
1.4725245e-05
0.00012200621
1.8529808e-05
0.00014283495
2.4507626e-05
0.00016609381
3.3377055e-05
0.00019153499
4.4993127e-05
0.0002191138
6.0084932e-05
0.00024837172
8.0960133e-05
0.00027745833
0.00010582043
0.00030605113
0.00013406417
0.00033485713
0.00015898453
0.00037005691
0.00019076297
0.00041420578
0.00024230132
0.00044798328
0.00030679719
0.00046175635
0.00037969054
0.0004693121
0.00046187283
0.00047856591
0.00056329977
0.00047946421
0.00067634817
0.00046966257
0.00081043943
0.00044930484
0.00095650016
0.00041678842
0.0011112314
0.00037350685
0.0012691007
0.00032218486
0.0014345014
0.00032770955
0.0015858046
0.00044258982
0.0016966542
0.00060751075
0.0017177786
0.00081288894
0.0016256223
0.0011419387
0.0013401685
0.0016347606
0.00058380214
0.0023512302
-0.0005830951
0.0031537441
0.00187975
-2.9557043e-07
3.529328e-06
-2.9233661e-07
4.2448557e-06
-2.7687332e-07
5.0857503e-06
-2.492512e-07
6.0930401e-06
-2.2223739e-07
7.299536e-06
-1.9421724e-07
8.7444939e-06
-1.6963414e-07
1.0474727e-05
-1.475333e-07
1.2546068e-05
-1.2311727e-07
1.502489e-05
-1.005995e-07
1.7990005e-05
-6.6957997e-08
2.1534722e-05
-3.1656579e-08
2.576854e-05
1.9278772e-08
3.0820424e-05
7.9787947e-08
3.6838847e-05
1.5340259e-07
4.3995327e-05
2.6232616e-07
5.2493176e-05
4.530061e-07
6.2558745e-05
8.0166438e-07
7.4416633e-05
1.4047535e-06
8.8275656e-05
2.450494e-06
0.00010433718
4.3187979e-06
0.00012277779
7.5706229e-06
0.00014367817
1.2860436e-05
0.00016697777
2.0923788e-05
0.00019239802
3.1652189e-05
0.00021986185
4.5937422e-05
0.00024880083
6.5628733e-05
0.00027740296
8.8869643e-05
0.00030566259
0.00011550108
0.00033408955
0.00013962476
0.00036803103
0.00017064134
0.00040961941
0.00022013906
0.00044035215
0.00028261332
0.00045055757
0.00035395998
0.00045248512
0.00043492303
0.00045353025
0.00053520857
0.0004435498
0.00064746026
0.00041982204
0.00078036006
0.000382899
0.00092529971
0.0003317299
0.0010800313
0.00026821736
0.0012386798
0.00019651309
0.0014056111
0.00017964681
0.0015597825
0.00027017834
0.0016774616
0.00041501352
0.0017045499
0.00061067954
0.0016098531
0.00094995286
0.0013389616
0.0014743204
0.00059415514
0.0022520475
-0.00056621898
0.003134474
0.0018844271
-7.8820456e-06
3.5634864e-06
-7.9334571e-06
4.2861189e-06
-7.9903282e-06
5.1356623e-06
-8.0382242e-06
6.1535329e-06
-8.0827963e-06
7.3728312e-06
-8.1154913e-06
8.8331044e-06
-8.1395073e-06
1.0581489e-05
-8.1550205e-06
1.2674299e-05
-8.1607802e-06
1.5178518e-05
-8.1669016e-06
1.8173725e-05
-8.1655092e-06
2.1754252e-05
-8.1744303e-06
2.6030806e-05
-8.1850134e-06
3.1133782e-05
-8.2129025e-06
3.7213488e-05
-8.2640916e-06
4.4443956e-05
-8.3138064e-06
5.3030526e-05
-8.3022545e-06
6.3200319e-05
-8.1548884e-06
7.5180573e-05
-7.7885923e-06
8.917769e-05
-7.038031e-06
0.00010538838
-5.555107e-06
0.0001239843
-2.8039429e-06
0.0001450364
1.8491411e-06
0.0001684734
9.1599523e-06
0.00019398841
1.9071438e-05
0.00022145519
3.2580578e-05
0.00025021531
5.1031759e-05
0.00027860246
7.2600871e-05
0.00030689627
9.7676716e-05
0.00033527696
0.00012097106
0.00036829432
0.00015116055
0.00040774844
0.00019869783
0.00043587736
0.00025917842
0.00044295332
0.00032894556
0.00043978454
0.00040863585
0.0004332012
0.00050773403
0.000412884
0.00061910321
0.00037574734
0.00075076972
0.0003227673
0.00089454793
0.00025342634
0.0010492081
0.00017000962
0.0012085691
7.7837841e-05
0.001376975
3.8286641e-05
0.0015339312
0.00010403427
0.0016579631
0.00022756738
0.0016906344
0.00041175194
0.0015952258
0.00075981849
0.0013373086
0.0013137674
0.00060330688
0.0021503711
-0.00054981155
0.0031130453
0.0018896286
-1.495052e-05
3.6083314e-06
-1.5019983e-05
4.3400548e-06
-1.5098598e-05
5.2001665e-06
-1.517033e-05
6.2306029e-06
-1.5239531e-05
7.4648835e-06
-1.5298718e-05
8.9431387e-06
-1.5354328e-05
1.0713296e-05
-1.5408619e-05
1.2832562e-05
-1.5464287e-05
1.5368911e-05
-1.5533929e-05
1.8403316e-05
-1.5611915e-05
2.2031497e-05
-1.5718611e-05
2.6365954e-05
-1.584534e-05
3.1538993e-05
-1.6010273e-05
3.7703199e-05
-1.622046e-05
4.5035023e-05
-1.6443202e-05
5.3741127e-05
-1.6612537e-05
6.4052387e-05
-1.6664075e-05
7.619754e-05
-1.6531996e-05
9.0382618e-05
-1.6062742e-05
0.00010680088
-1.4928107e-05
0.00012561829
-1.262653e-05
0.0001468986
-8.5607718e-06
0.00017056292
-1.9634608e-06
0.00019628474
7.1889933e-06
0.00022387537
1.9958721e-05
0.00025259873
3.714527e-05
0.00028101332
5.7012072e-05
0.0003096827
8.0576608e-05
0.00033836315
0.00010301777
0.00037079516
0.00013232915
0.00040850289
0.00017797492
0.00043444878
0.00023648548
0.00043886457
0.00030465251
0.00043114467
0.0003830201
0.0004175071
0.00048089533
0.00038739363
0.00059130003
0.00033738184
0.00072170715
0.00026886572
0.0008642834
0.00018186383
0.0010188149
7.8904935e-05
0.0011788144
-3.3746097e-05
0.0013486511
-9.619474e-05
0.0015083037
-5.5687009e-05
0.001638277
4.5410686e-05
0.0016762177
0.00021647375
0.001581355
0.00057178991
0.0013351658
0.0011532543
0.00061135772
0.0020463947
-0.00053378245
0.0030894109
0.0018951262
-2.1522025e-05
3.6634119e-06
-2.1568721e-05
4.4058248e-06
-2.1616304e-05
5.2784111e-06
-2.1663047e-05
6.323765e-06
-2.1721583e-05
7.5760531e-06
-2.1791005e-05
9.0761556e-06
-2.1880726e-05
1.0873002e-05
-2.1993458e-05
1.3024921e-05
-2.213237e-05
1.5601396e-05
-2.2307147e-05
1.8684833e-05
-2.2510325e-05
2.2373126e-05
-2.2758389e-05
2.6780643e-05
-2.3039003e-05
3.2042146e-05
-2.3365518e-05
3.83125e-05
-2.3740995e-05
4.5769569e-05
-2.412505e-05
5.4622916e-05
-2.4469487e-05
6.5108682e-05
-2.4729249e-05
7.7459915e-05
-2.4833516e-05
9.1881165e-05
-2.463622e-05
0.00010856301
-2.3825206e-05
0.00012766686
-2.1935544e-05
0.00014925187
-1.8401704e-05
0.00017322703
-1.2481939e-05
0.00019926218
-4.0572006e-06
0.00022710852
7.9885687e-06
0.00025594561
2.3916863e-05
0.00028463527
4.21117e-05
0.0003139893
6.4220604e-05
0.00034323594
8.5797811e-05
0.00037537285
0.00011419577
0.00041171428
0.00015801105
0.00043587662
0.00021457776
0.0004380438
0.00028112974
0.00042626495
0.0003581315
0.00040611697
0.00045475298
0.00036673149
0.00056411973
0.0003043578
0.00069324342
0.00022082626
0.00083457445
0.00011666983
0.00098892246
-5.4657321e-06
0.0011494783
-0.00013858715
0.0013206929
-0.00022413214
0.001482935
-0.00020923724
0.0016184688
-0.00013158138
0.0016614127
2.4882347e-05
0.0015680107
0.00038599375
0.0013325012
0.00099307642
0.0006183719
0.001940632
-0.00051805476
0.0030635798
0.0019005738
-2.7674173e-05
3.7289698e-06
-2.773913e-05
4.485215e-06
-2.7811639e-05
5.3745551e-06
-2.7890648e-05
6.4402428e-06
-2.798881e-05
7.7169429e-06
-2.8105098e-05
9.2465042e-06
-2.8249067e-05
1.1078442e-05
-2.8423706e-05
1.3272316e-05
-2.8632804e-05
1.5898792e-05
-2.8888217e-05
1.9042024e-05
-2.9181507e-05
2.2801548e-05
-2.9532708e-05
2.7294545e-05
-2.9924398e-05
3.2658223e-05
-3.0371012e-05
3.9050109e-05
-3.0859467e-05
4.6649394e-05
-3.1373708e-05
5.5672553e-05
-3.1893481e-05
6.6365782e-05
-3.2358332e-05
7.8962243e-05
-3.2699832e-05
9.3665515e-05
-3.2767224e-05
0.00011066581
-3.2263078e-05
0.00013011923
-3.0759344e-05
0.00015208347
-2.7709554e-05
0.00017645298
-2.2433209e-05
0.00020290501
-1.4729682e-05
0.0002311396
-3.4157606e-06
0.00026024286
1.1280253e-05
0.00028943368
2.7874191e-05
0.00031975915
4.8599844e-05
0.00034984233
6.9306984e-05
0.00038197205
9.6767135e-05
0.00041729349
0.00013881015
0.0004400559
0.0001934631
0.00044040831
0.00025840297
0.00042506259
0.00033401418
0.00039891521
0.00042934831
0.00035077261
0.0005375978
0.00027659292
0.0006654108
0.00017860202
0.00080545214
5.7835138e-05
0.00095956083
-8.3071884e-05
0.0011205873
-0.00023658577
0.0012931136
-0.00034534218
0.0014578199
-0.00035641864
0.001598548
-0.00030311458
0.0016462495
-0.0001626215
0.0015550002
0.00020276539
0.0013293051
0.00083349643
0.00062446411
0.001833287
-0.00050253288
0.0030354861
0.0019057402
-3.3429567e-05
3.8041693e-06
-3.3550896e-05
4.5759029e-06
-3.3700587e-05
5.4839269e-06
-3.3866487e-05
6.5725053e-06
-3.4054918e-05
7.8772019e-06
-3.4257212e-05
9.4406087e-06
-3.448173e-05
1.1313565e-05
-3.4728054e-05
1.3556766e-05
-3.5002271e-05
1.624236e-05
-3.5314401e-05
1.9456292e-05
-3.5661339e-05
2.3299813e-05
-3.6065085e-05
2.7892315e-05
-3.6514245e-05
3.337351e-05
-3.7022737e-05
3.9902561e-05
-3.7595004e-05
4.7665927e-05
-3.8249872e-05
5.6891072e-05
-3.8960965e-05
6.7828773e-05
-3.9629227e-05
8.0712637e-05
-4.0173621e-05
9.5740746e-05
-4.0476571e-05
0.00011310416
-4.0258599e-05
0.00013296413
-3.9117174e-05
0.00015537946
-3.6518173e-05
0.00018022616
-3.1860635e-05
0.00020719929
-2.4861015e-05
0.00023594785
-1.4293295e-05
0.00026548598
-8.0908606e-07
0.00029541803
1.4266767e-05
0.00032696504
3.367821e-05
0.00035811445
5.3506947e-05
0.00039051381
8.0010182e-05
0.00042517471
0.00012034456
0.00044690558
0.00017312904
0.00044580873
0.00023647354
0.00042732527
0.00031068893
0.00039565421
0.00040469622
0.0003392502
0.00051174394
0.00025381662
0.00063820816
0.00014194581
0.00077690854
5.1351287e-06
0.00093072077
-0.00015411813
0.0010921324
-0.00032793255
0.001265901
-0.00046000865
0.0014329425
-0.00049734725
0.0015785292
-0.00046921189
0.0016307855
-0.00034595063
0.0015422323
2.2238e-05
0.0013256002
0.00067478915
0.00062973969
0.0017247963
-0.00048712241
0.0030051205
0.0019103346
-3.8850663e-05
3.8898816e-06
-3.9084964e-05
4.6812163e-06
-3.9348524e-05
5.612834e-06
-3.9611447e-05
6.7295017e-06
-3.9875258e-05
8.0670869e-06
-4.0138614e-05
9.6692359e-06
-4.0409878e-05
1.1587816e-05
-4.0693677e-05
1.388476e-05
-4.1000851e-05
1.6634256e-05
-4.1342152e-05
1.9924029e-05
-4.1724488e-05
2.3858331e-05
-4.2168333e-05
2.8559695e-05
-4.2674747e-05
3.4171249e-05
-4.3265774e-05
4.0857986e-05
-4.398077e-05
4.8817147e-05
-4.4840532e-05
5.8283472e-05
-4.5761331e-05
6.9507678e-05
-4.6610174e-05
8.2715087e-05
-4.730606e-05
9.8104036e-05
-4.7788324e-05
0.00011587404
-4.7821549e-05
0.00013619239
-4.7012766e-05
0.00015912359
-4.483852e-05
0.00018452675
-4.0789577e-05
0.00021212557
-3.4464112e-05
0.00024151604
-2.465326e-05
0.00027164624
-1.2370153e-05
0.00030253723
1.2786054e-06
0.00033554869
1.9434425e-05
0.00036800655
3.838909e-05
0.00040094377
6.3930857e-05
0.00043525168
0.00010262575
0.00045628516
0.00015360111
0.00045410475
0.00021535374
0.000432929
0.00028815097
0.00039625432
0.00038080937
0.00033209731
0.0004865976
0.00023591834
0.00061165755
0.00011074399
0.00074894338
-4.1461903e-05
0.00090240137
-0.0002185651
0.0010641145
-0.00041252253
0.0012390516
-0.00056795348
0.0014082985
-0.00063182144
0.0015584348
-0.00062959
0.0016150679
-0.0005247468
0.0015295999
-0.00015522704
0.0013213736
0.00051725353
0.00063427686
0.0016153192
-0.00047176718
0.0029724801
0.0019142186
-4.3780853e-05
3.9825979e-06
-4.4011065e-05
4.7900849e-06
-4.4268808e-05
5.7405141e-06
-4.4534503e-05
6.8799527e-06
-4.4810822e-05
8.2460886e-06
-4.5105214e-05
9.883811e-06
-4.5421225e-05
1.18469e-05
-4.5768936e-05
1.4199772e-05
-4.6153052e-05
1.7018318e-05
-4.6586767e-05
2.0393701e-05
-4.707756e-05
2.443264e-05
-4.7645666e-05
2.9261776e-05
-4.8299047e-05
3.502803e-05
-4.9077778e-05
4.1904065e-05
-5.0025595e-05
5.0095496e-05
-5.1129247e-05
5.9838795e-05
-5.2266641e-05
7.1381021e-05
-5.3263538e-05
8.49441e-05
-5.4076757e-05
0.00010072954
-5.4706464e-05
0.00011895167
-5.4954584e-05
0.0001397856
-5.4446583e-05
0.00016329565
-5.2674659e-05
0.00018933011
-4.9217522e-05
0.00021764665
-4.3536259e-05
0.00024778555
-3.4494739e-05
0.00027867368
-2.3395636e-05
0.00031074083
-1.1086636e-05
0.00034541715
5.8818708e-06
0.00037936176
2.3997081e-05
0.00041303512
4.8594473e-05
0.00044725301
8.5701636e-05
0.00046789377
0.00013490465
0.00046497375
0.00019505467
0.00044152595
0.00026639343
0.00040033809
0.00035769657
0.00032891527
0.00046219575
0.00022246562
0.00058580073
8.4517803e-05
0.00072160197
-8.2501548e-05
0.00087462997
-0.00027695654
0.0010365577
-0.00049084871
0.0012125761
-0.00066963233
0.0013838824
-0.00076018511
0.0015382708
-0.00078444964
0.001599117
-0.00069905686
0.0015170142
-0.00032959468
0.0013166094
0.00036112281
0.00063811562
0.0015052764
-0.0004564277
0.0029375779
0.0019171553
-4.8261831e-05
4.0854319e-06
-4.8403172e-05
4.9135341e-06
-4.8577055e-05
5.8883142e-06
-4.8787987e-05
7.0569705e-06
-4.9042135e-05
8.4577115e-06
-4.934591e-05
1.0136934e-05
-4.9702756e-05
1.2149853e-05
-5.0120858e-05
1.456246e-05
-5.0604197e-05
1.7454011e-05
-5.1162706e-05
2.091796e-05
-5.1806216e-05
2.5066005e-05
-5.2551609e-05
3.0029622e-05
-5.3415667e-05
3.5962467e-05
-5.4429219e-05
4.3044571e-05
-5.5628568e-05
5.1486528e-05
-5.6971211e-05
6.1527352e-05
-5.8304121e-05
7.3409134e-05
-5.9457305e-05
8.7354414e-05
-6.0415317e-05
0.00010358331
-6.1203165e-05
0.00012231719
-6.1655446e-05
0.00014372932
-6.1431289e-05
0.00016788416
-6.004169e-05
0.00019462131
-5.7139752e-05
0.00022373538
-5.2079084e-05
0.0002547281
-4.3828753e-05
0.0002865335
-3.389283e-05
0.00031997856
-2.283645e-05
0.00035651751
-6.9593423e-06
0.0003921169
1.0351725e-05
0.00042671022
3.4008262e-05
0.0004610988
6.9558492e-05
0.00048166903
0.00011700283
0.00047839118
0.00017554892
0.00045311004
0.00024540559
0.00040787711
0.00033534041
0.00032967048
0.00043851485
0.0002134723
0.00056064684
6.3289977e-05
0.00069492031
-0.0001179817
0.00084741383
-0.00032924463
0.0010094649
-0.00056276426
0.0011864652
-0.00076482313
0.0013596685
-0.00088217299
0.0015180189
-0.00093344123
0.001582921
-0.0008684693
0.0015044009
-0.00050044052
0.0013113048
0.00020675384
0.00064131579
0.0013948512
-0.00044106432
0.0029004131
0.0019190046
-5.2493928e-05
4.1969193e-06
-5.2640101e-05
5.0475832e-06
-5.2816179e-05
6.0492461e-06
-5.3027346e-05
7.2499568e-06
-5.3281513e-05
8.6892947e-06
-5.358634e-05
1.0414956e-05
-5.3951188e-05
1.2483521e-05
-5.4386826e-05
1.496322e-05
-5.4905595e-05
1.7935532e-05
-5.5521717e-05
2.1497038e-05
-5.6253642e-05
2.5763876e-05
-5.7118152e-05
3.0871681e-05
-5.8133532e-05
3.6980547e-05
-5.9327002e-05
4.4278068e-05
-6.071773e-05
5.2981495e-05
-6.2250716e-05
6.332981e-05
-6.3764018e-05
7.5567089e-05
-6.5115261e-05
8.9930871e-05
-6.6278151e-05
0.00010665225
-6.7257337e-05
0.00012595412
-6.7928812e-05
0.00014800778
-6.7986646e-05
0.00017287341
-6.6960445e-05
0.00020038468
-6.4566699e-05
0.00023035928
-6.0093227e-05
0.0002622758
-5.2647818e-05
0.00029514438
-4.3856665e-05
0.00033017168
-3.3964363e-05
0.00036874398
-1.9094984e-05
0.00040613842
-2.5919902e-06
0.0004418545
2.0100438e-05
0.00047671667
5.4121266e-05
0.00049754408
9.9828313e-05
0.00049424142
0.00015677866
0.00046751686
0.00022514674
0.00041868067
0.00031369388
0.0003341555
0.00041550341
0.00020870925
0.00053615074
4.6831203e-05
0.00066886603
-0.00014813719
0.00082071758
-0.00037568259
0.00098280029
-0.00062852046
0.0011606774
-0.00085374861
0.0013356129
-0.00099792299
0.0014976529
-0.0010766007
0.0015664749
-0.001032927
0.0014917023
-0.00066768403
0.001305464
5.4380465e-05
0.00064393587
0.0012844373
-0.00042562738
0.0028610013
0.0019195548
-5.6403806e-05
4.3168604e-06
-5.6559782e-05
5.1918539e-06
-5.6747123e-05
6.2222831e-06
-5.6971762e-05
7.457659e-06
-5.7242183e-05
8.9386585e-06
-5.7566797e-05
1.0714449e-05
-5.7957304e-05
1.2843341e-05
-5.8425703e-05
1.5396224e-05
-5.8986183e-05
1.845644e-05
-5.9659405e-05
2.2124904e-05
-6.0465857e-05
2.6521288e-05
-6.1416521e-05
3.1785703e-05
-6.2523461e-05
3.808284e-05
-6.3825057e-05
4.5607114e-05
-6.5336768e-05
5.4580743e-05
-6.7002399e-05
6.5248817e-05
-6.86929e-05
7.7864181e-05
-7.0269578e-05
9.2676847e-05
-7.1668619e-05
0.00010993096
-7.2877364e-05
0.00012985439
-7.3790223e-05
0.0001526092
-7.4131338e-05
0.00017824907
-7.3450083e-05
0.00020659983
-7.1518202e-05
0.00023749619
-6.7581838e-05
0.00027040498
-6.0939351e-05
0.00030445907
-5.3265761e-05
0.00034124477
-4.4455241e-05
0.00038201887
-3.0557577e-05
0.00042138173
-1.4885792e-05
0.00045844742
6.8200202e-06
0.0004940632
3.9340451e-05
0.00051546436
8.3341573e-05
0.00051248817
0.00013870749
0.00048472095
0.00020558469
0.00043272172
0.00029273133
0.00034234019
0.00039314002
0.00020815726
0.00051227421
3.51588e-05
0.00064340468
-0.00017290226
0.00079453125
-0.00041619807
0.0009565451
-0.00068799679
0.0011351926
-0.00093619906
0.0013116938
-0.0011071908
0.0014771735
-0.0012136239
0.0015497918
-0.0011920773
0.0014788791
-0.00083092826
0.0012990952
-9.5694806e-05
0.00064601327
0.001174135
-0.00041010022
0.002819382
0.0019187509
-6.0003241e-05
4.4450949e-06
-6.0169555e-05
5.3461036e-06
-6.0369983e-05
6.4073687e-06
-6.0611021e-05
7.6797301e-06
-6.0902444e-05
9.2055955e-06
-6.1254921e-05
1.1035113e-05
-6.1682539e-05
1.322946e-05
-6.2193842e-05
1.586098e-05
-6.2803625e-05
1.9016302e-05
-6.3530438e-05
2.2798737e-05
-6.4393996e-05
2.7331706e-05
-6.5408388e-05
3.2761201e-05
-6.6584522e-05
3.9258179e-05
-6.7958017e-05
4.7022271e-05
-6.9549144e-05
5.6281711e-05
-7.1321887e-05
6.7287236e-05
-7.3173917e-05
8.0302945e-05
-7.4967225e-05
9.559259e-05
-7.6614507e-05
0.0001134167
-7.8077177e-05
0.00013400635
-7.9245279e-05
0.0001575141
-7.9864496e-05
0.00018398343
-7.9513296e-05
0.00021323321
-7.8006378e-05
0.00024510417
-7.4554002e-05
0.00027904651
-6.8695484e-05
0.00031439444
-6.2098655e-05
0.00035310222
-5.4308787e-05
0.00039621293
-4.136765e-05
0.00043768112
-2.6536856e-05
0.00047628216
-5.8289373e-06
0.00051291035
2.5220069e-05
0.00053516961
6.7546647e-05
0.00053281285
0.00012134163
0.00050434589
0.00018672927
0.00044957458
0.00027246314
0.00035375953
0.00037143831
0.00021131822
0.00048902606
2.7743892e-05
0.00061855706
-0.0001928659
0.0007688935
-0.00045143985
0.00093071278
-0.0007418023
0.0011100161
-0.0010126941
0.0012879086
-0.0012103779
0.0014565778
-0.0013447603
0.0015328756
-0.0013460337
0.0014658865
-0.00099022498
0.0012921827
-0.00024328328
0.0006475623
0.0010643606
-0.00039447126
0.0027756052
0.0019164086
-6.3310632e-05
4.5814144e-06
-6.348684e-05
5.5098395e-06
-6.3700153e-05
6.6038778e-06
-6.3957631e-05
7.9155435e-06
-6.4269804e-05
9.4886645e-06
-6.4649865e-05
1.1375103e-05
-6.5112618e-05
1.3638054e-05
-6.5665017e-05
1.635221e-05
-6.6321361e-05
1.9607741e-05
-6.7085024e-05
2.3510694e-05
-6.7972695e-05
2.8186674e-05
-6.9027521e-05
3.3787152e-05
-7.0270758e-05
4.0492936e-05
-7.1720944e-05
4.8510356e-05
-7.339103e-05
5.8072542e-05
-7.5263437e-05
6.9436811e-05
-7.7260422e-05
8.2876798e-05
-7.9256888e-05
9.8672811e-05
-8.115193e-05
0.0001171025
-8.2874978e-05
0.00013839843
-8.4300999e-05
0.00016270529
-8.518867e-05
0.00019005405
-8.5155953e-05
0.00022025664
-8.4043433e-05
0.00025315284
-8.1030709e-05
0.00028817617
-7.5921246e-05
0.0003249108
-7.0365452e-05
0.0003656877
-6.3565029e-05
0.00041129769
-5.1553027e-05
0.00045502828
-3.7564559e-05
0.00049534368
-1.7859419e-05
0.00053322517
1.1748811e-05
0.00055662189
5.2432362e-05
0.00055519655
0.00010467131
0.00052638761
0.00016857341
0.00046923873
0.00025288118
0.00036841986
0.00035039564
0.00021821167
0.00046640285
2.4630824e-05
0.0005943244
-0.00020792637
0.000743812
-0.0004812507
0.00090531232
-0.00078977145
0.0010851358
-0.0010830115
0.0012642365
-0.0013071791
0.0014358514
-0.0014696389
0.0015157128
-0.0014943853
0.0014526793
-0.0011451141
0.001284716
-0.0003880219
0.00064860003
0.0009552628
-0.00037873541
0.0027297267
0.00191247
-6.633961e-05
4.7254854e-06
-6.6524374e-05
5.6829219e-06
-6.6747999e-05
6.811501e-06
-6.7017152e-05
8.1647838e-06
-6.7343468e-05
9.7875033e-06
-6.7737111e-05
1.1733635e-05
-6.8213068e-05
1.4067749e-05
-6.8787385e-05
1.6867374e-05
-6.9474026e-05
2.0226439e-05
-7.0275247e-05
2.4255668e-05
-7.1200253e-05
2.9084695e-05
-7.2300764e-05
3.4868664e-05
-7.3608299e-05
4.1793347e-05
-7.5131366e-05
5.0073836e-05
-7.6874262e-05
5.9950362e-05
-7.8840483e-05
7.1689189e-05
-8.0978321e-05
8.5576021e-05
-8.3170702e-05
0.00010190901
-8.5308962e-05
0.0001209785
-8.7288535e-05
0.00014301678
-8.8969656e-05
0.00016816568
-9.0120606e-05
0.00019644021
-9.0401677e-05
0.00022764938
-8.9643427e-05
0.00026160811
-8.704064e-05
0.00029775078
-8.2654586e-05
0.00033598818
-7.809645e-05
0.00037897169
-7.2266551e-05
0.0004271948
-6.1158483e-05
0.00047332655
-4.801541e-05
0.00051553957
-2.9316097e-05
0.00055492265
-1.1200763e-06
0.00057972971
3.7950141e-05
0.00057951741
8.8649049e-05
0.00055069158
0.00015107092
0.00049153198
0.00023394034
0.00038611677
0.00032996695
0.00022861504
0.00044436305
2.557792e-05
0.00057064657
-0.00021833366
0.00071923541
-0.00050589215
0.00088032409
-0.00083221139
0.0010605032
-0.0011474215
0.0012406275
-0.0013977311
0.001414952
-0.0015882924
0.0014982712
-0.0016370721
0.0014392209
-0.0012955426
0.0012766951
-0.0005296882
0.00064915397
0.00084725847
-0.00036287653
0.0026818012
0.0019067561
-6.9103437e-05
4.8768834e-06
-6.9296195e-05
5.8652151e-06
-6.9528675e-05
7.0301811e-06
-6.980642e-05
8.4269091e-06
-7.0142258e-05
1.0102088e-05
-7.0542155e-05
1.2111163e-05
-7.1020162e-05
1.4520357e-05
-7.1599152e-05
1.7410381e-05
-7.2296997e-05
2.0877161e-05
-7.3138259e-05
2.5037071e-05
-7.4132895e-05
3.0026445e-05
-7.5294879e-05
3.6004372e-05
-7.665241e-05
4.3159566e-05
-7.821481e-05
5.1710715e-05
-8.0008681e-05
6.1909631e-05
-8.2061285e-05
7.4036558e-05
-8.4334946e-05
8.8391524e-05
-8.672781e-05
0.00010528995
-8.9106889e-05
0.00012503273
-9.1338384e-05
0.0001478511
-9.3273838e-05
0.00017388545
-9.4687063e-05
0.00020313203
-9.5274134e-05
0.00023539581
-9.482386e-05
0.00027045547
-9.2598481e-05
0.00030775051
-8.8928352e-05
0.00034758974
-8.5327473e-05
0.00039292568
-8.0438516e-05
0.00044389087
-7.0218379e-05
0.00049256984
-5.7922209e-05