/*--------------------------------*- C++ -*----------------------------------*\
  =========                 |
  \\      /  F ield         | OpenFOAM: The Open Source CFD Toolbox
   \\    /   O peration     | Website:  https://openfoam.org
    \\  /    A nd           | Version:  8
     \\/     M anipulation  |
\*---------------------------------------------------------------------------*/
FoamFile
{
    version     2.0;
    format      ascii;
    class       volScalarField;
    location    "0.280002";
    object      nut;
}
// * * * * * * * * * * * * * * * * * * * * * * * * * * * * * * * * * * * * * //

dimensions      [0 2 -1 0 0 0 0];

internalField   nonuniform List<scalar> 
20000
(
0.0013035722
0.0033839626
0.004695866
0.0053483994
0.0051780537
0.0039271276
0.0012740386
4.1817357e-06
2.3862229e-09
2.3050829e-09
2.2382636e-09
2.2595539e-09
2.2317832e-09
2.2594095e-09
2.2598481e-09
2.2912157e-09
2.3127642e-09
2.3547232e-09
2.398593e-09
2.4613504e-09
2.5340581e-09
2.6292703e-09
2.7439061e-09
2.8887518e-09
3.064596e-09
3.2801018e-09
3.5366775e-09
3.8369988e-09
4.1762703e-09
4.5481005e-09
4.9398422e-09
5.331308e-09
5.6966594e-09
6.0187175e-09
6.2901062e-09
6.5129956e-09
6.6905339e-09
6.8325593e-09
6.9444799e-09
7.0341848e-09
7.1049525e-09
7.1624983e-09
7.2105211e-09
7.2493268e-09
7.2798902e-09
7.3036023e-09
7.3361371e-09
7.3637286e-09
7.3819777e-09
7.4088891e-09
0.0013090642
0.0033706464
0.0046452188
0.005257431
0.0050410403
0.0037380439
0.0011027242
1.4866982e-06
2.3620377e-09
2.3221518e-09
2.2544592e-09
2.2768199e-09
2.249128e-09
2.277947e-09
2.2789225e-09
2.3116897e-09
2.3344736e-09
2.3782594e-09
2.4241364e-09
2.4895267e-09
2.5653848e-09
2.6644763e-09
2.783769e-09
2.9340725e-09
3.1162148e-09
3.338414e-09
3.6013018e-09
3.9058926e-09
4.2455241e-09
4.6120185e-09
4.9928271e-09
5.3706436e-09
5.7237283e-09
6.0366936e-09
6.3021391e-09
6.5208409e-09
6.6955966e-09
6.8359051e-09
6.9469109e-09
7.0360396e-09
7.1064299e-09
7.1639162e-09
7.21192e-09
7.2505695e-09
7.2806973e-09
7.3048251e-09
7.3371162e-09
7.3654888e-09
7.384812e-09
7.4098689e-09
0.0013052899
0.0033456644
0.0045897285
0.005161079
0.0049047874
0.0035420059
0.00094025791
5.1884602e-07
2.3536804e-09
2.3390279e-09
2.2712451e-09
2.2945937e-09
2.2671853e-09
2.2971172e-09
2.2987745e-09
2.3329326e-09
2.3570648e-09
2.4027626e-09
2.4508301e-09
2.5190571e-09
2.5983312e-09
2.7016369e-09
2.8260064e-09
2.9822995e-09
3.1713902e-09
3.4010634e-09
3.6710438e-09
3.9805964e-09
4.3210629e-09
4.6825347e-09
5.0524275e-09
5.4159902e-09
5.7554688e-09
6.0576797e-09
6.3155181e-09
6.5294888e-09
6.7011369e-09
6.8394775e-09
6.9493166e-09
7.0377102e-09
7.1076592e-09
7.1649859e-09
7.2128973e-09
7.2513984e-09
7.2811466e-09
7.3057171e-09
7.3387314e-09
7.3672369e-09
7.390995e-09
7.4094832e-09
0.0013023842
0.0033223673
0.0045363976
0.0050709677
0.0047674822
0.0033379822
0.00079656126
1.870572e-07
2.3556963e-09
2.3569623e-09
2.2890369e-09
2.3133665e-09
2.2862891e-09
2.3172993e-09
2.3196664e-09
2.3552315e-09
2.380768e-09
2.4284431e-09
2.4787905e-09
2.5499475e-09
2.6327484e-09
2.7403858e-09
2.8699804e-09
3.0324693e-09
3.2287144e-09
3.4660447e-09
3.7432197e-09
4.0578391e-09
4.3995067e-09
4.7569379e-09
5.1174687e-09
5.4681458e-09
5.7943809e-09
6.0853343e-09
6.3346376e-09
6.5425142e-09
6.7099254e-09
6.8454624e-09
6.9535293e-09
7.0407433e-09
7.109955e-09
7.1669192e-09
7.2145722e-09
7.2527722e-09
7.2819947e-09
7.3068348e-09
7.3401904e-09
7.3699155e-09
7.3941675e-09
7.4094326e-09
0.0012992581
0.0032988581
0.0044823968
0.0049794099
0.0046291071
0.0031257837
0.00066245952
7.1335056e-08
2.3642598e-09
2.3756381e-09
2.3076932e-09
2.3329795e-09
2.3063369e-09
2.3384127e-09
2.341586e-09
2.3786247e-09
2.4056931e-09
2.4554786e-09
2.5082864e-09
2.5825682e-09
2.6691417e-09
2.7814049e-09
2.9165974e-09
3.0857141e-09
3.2895985e-09
3.535038e-09
3.8197246e-09
4.1395081e-09
4.4823237e-09
4.8356956e-09
5.1870103e-09
5.52496e-09
5.8377449e-09
6.1168316e-09
6.356771e-09
6.5578866e-09
6.7204807e-09
6.8527426e-09
6.9586458e-09
7.0443943e-09
7.1126814e-09
7.1691317e-09
7.2164128e-09
7.2542307e-09
7.2828861e-09
7.3079257e-09
7.3419474e-09
7.373218e-09
7.3969559e-09
7.4093433e-09
0.0012959121
0.0032755392
0.0044280589
0.004887284
0.0044900983
0.0029056839
0.0005401894
3.0157435e-08
2.3772682e-09
2.394981e-09
2.3272216e-09
2.3534566e-09
2.3273697e-09
2.3605139e-09
2.364599e-09
2.4031822e-09
2.431905e-09
2.4839208e-09
2.5393451e-09
2.6169211e-09
2.7074869e-09
2.8246438e-09
2.9657738e-09
3.1419116e-09
3.3538548e-09
3.6077442e-09
3.9000867e-09
4.2249692e-09
4.5687943e-09
4.9181429e-09
5.2605744e-09
5.5861989e-09
5.8856296e-09
6.1525362e-09
6.3825143e-09
6.576122e-09
6.7332312e-09
6.8616781e-09
6.9649879e-09
7.0489473e-09
7.1160862e-09
7.1718622e-09
7.218647e-09
7.255959e-09
7.283969e-09
7.3091507e-09
7.3440321e-09
7.3769011e-09
7.3986719e-09
7.4093292e-09
0.0012928565
0.0032521968
0.0043728176
0.004794094
0.004350554
0.0026785113
0.00042913622
1.4623693e-08
2.3931915e-09
2.4147516e-09
2.3475603e-09
2.374767e-09
2.349361e-09
2.3836147e-09
2.388731e-09
2.4289403e-09
2.4594502e-09
2.5138285e-09
2.5720451e-09
2.6531135e-09
2.747937e-09
2.8703183e-09
3.0177983e-09
3.2014284e-09
3.4219152e-09
3.6846309e-09
3.9847548e-09
4.3145643e-09
4.6590449e-09
5.0040547e-09
5.3375046e-09
5.6508719e-09
5.9369371e-09
6.191423e-09
6.4110002e-09
6.596601e-09
6.7477445e-09
6.8719589e-09
6.9723228e-09
7.0542243e-09
7.1200237e-09
7.1749847e-09
7.2211692e-09
7.2578629e-09
7.2851872e-09
7.3105706e-09
7.3466757e-09
7.3803733e-09
7.4001773e-09
7.4094634e-09
0.0012898822
0.0032287524
0.0043163962
0.0046994765
0.0042103221
0.0024457997
0.00032841239
8.2917216e-09
2.4112263e-09
2.4353162e-09
2.3687835e-09
2.3969733e-09
2.3723501e-09
2.4077664e-09
2.41403e-09
2.4559387e-09
2.4883657e-09
2.5452328e-09
2.6064139e-09
2.6911782e-09
2.7905421e-09
2.9184964e-09
3.0727571e-09
3.264359e-09
3.4938658e-09
3.7657261e-09
4.073656e-09
4.4080974e-09
4.7527658e-09
5.0930322e-09
5.4173345e-09
5.7184772e-09
5.9912048e-09
6.2331417e-09
6.4420081e-09
6.6191821e-09
6.7639386e-09
6.8835455e-09
6.9806418e-09
7.0602346e-09
7.1245109e-09
7.1785244e-09
7.2240057e-09
7.2599602e-09
7.2865862e-09
7.3123471e-09
7.349998e-09
7.3834253e-09
7.4013899e-09
7.4096097e-09
0.0012869072
0.0032054331
0.0042597873
0.004602898
0.0040687795
0.0022102109
0.00023688387
5.4818607e-09
2.4308833e-09
2.4566701e-09
2.3909115e-09
2.4200997e-09
2.3963693e-09
2.4329977e-09
2.4405215e-09
2.4842037e-09
2.5186795e-09
2.578169e-09
2.6425016e-09
2.7311922e-09
2.8354151e-09
2.9693306e-09
3.1308398e-09
3.3309277e-09
3.569937e-09
3.8512227e-09
4.1668924e-09
4.505546e-09
4.8497882e-09
5.1847422e-09
5.4995612e-09
5.7883859e-09
6.0477746e-09
6.2770968e-09
6.475055e-09
6.6435149e-09
6.7815687e-09
6.896269e-09
6.9898292e-09
7.0668987e-09
7.1294905e-09
7.1824383e-09
7.2271161e-09
7.2622127e-09
7.2881888e-09
7.314657e-09
7.3540128e-09
7.3860403e-09
7.4024413e-09
7.4097516e-09
0.0012839213
0.0031820871
0.0042021898
0.0045035632
0.0039247939
0.0019771615
0.00015490855
4.1372845e-09
2.4518979e-09
2.4788553e-09
2.413989e-09
2.4441857e-09
2.4214515e-09
2.4593302e-09
2.4682274e-09
2.5137579e-09
2.5504207e-09
2.6126707e-09
2.6803557e-09
2.7732301e-09
2.8826605e-09
3.0229538e-09
3.1922049e-09
3.4013105e-09
3.6502875e-09
3.9412091e-09
4.2644365e-09
4.6067531e-09
4.9498391e-09
5.2788193e-09
5.5837447e-09
5.8601068e-09
6.1061548e-09
6.3228548e-09
6.5097976e-09
6.6693421e-09
6.8004527e-09
6.9100058e-09
6.9998062e-09
7.0741679e-09
7.1349329e-09
7.1867092e-09
7.2304794e-09
7.2645954e-09
7.2900431e-09
7.3177084e-09
7.3584019e-09
7.3885042e-09
7.4033453e-09
7.409868e-09
0.0012812481
0.0031591157
0.004144223
0.0044011473
0.0037770779
0.0017524338
8.6954235e-05
3.4580193e-09
2.4740769e-09
2.5018997e-09
2.438045e-09
2.469249e-09
2.4476022e-09
2.4867703e-09
2.4971615e-09
2.5446258e-09
2.5836169e-09
2.6487789e-09
2.720046e-09
2.817395e-09
2.9324153e-09
3.0795318e-09
3.2570484e-09
3.4757202e-09
3.7351078e-09
4.0357937e-09
4.3662728e-09
4.7115709e-09
5.0526536e-09
5.3749036e-09
5.6694475e-09
5.9331503e-09
6.1658497e-09
6.3699649e-09
6.545863e-09
6.6963781e-09
6.820382e-09
6.9246082e-09
7.0104727e-09
7.0819761e-09
7.1407938e-09
7.1913069e-09
7.2340621e-09
7.2670729e-09
7.2921967e-09
7.321708e-09
7.363045e-09
7.3908794e-09
7.4041605e-09
7.409942e-09
0.0012788816
0.003136659
0.0040865122
0.0042964847
0.0036252764
0.0015373458
4.0023683e-05
3.1056325e-09
2.4974187e-09
2.5258528e-09
2.4630856e-09
2.4952772e-09
2.4748159e-09
2.5153279e-09
2.5273475e-09
2.576833e-09
2.6183026e-09
2.6865466e-09
2.7616552e-09
2.8638032e-09
2.984824e-09
3.1392375e-09
3.325572e-09
3.5543703e-09
3.8245725e-09
4.1350486e-09
4.4723341e-09
4.8197967e-09
5.157927e-09
5.4726248e-09
5.7562562e-09
6.007081e-09
6.2264285e-09
6.4180363e-09
6.5829243e-09
6.724366e-09
6.8411646e-09
6.9399376e-09
7.0217348e-09
7.0902614e-09
7.1470324e-09
7.1962034e-09
7.237835e-09
7.2696232e-09
7.2947018e-09
7.3268451e-09
7.3678259e-09
7.3932061e-09
7.4049002e-09
7.4099648e-09
0.0012767977
0.0031147504
0.0040293268
0.004195424
0.0034667218
0.0013336684
1.5051592e-05
2.9232369e-09
2.5217555e-09
2.5506043e-09
2.4890431e-09
2.5222505e-09
2.5031102e-09
2.5450352e-09
2.5588133e-09
2.6104076e-09
2.6545199e-09
2.7260465e-09
2.8052939e-09
2.9125944e-09
3.0400523e-09
3.2022653e-09
3.3980003e-09
3.6374873e-09
3.9188519e-09
4.2390246e-09
4.5825221e-09
4.9312003e-09
5.2653365e-09
5.5716078e-09
5.843769e-09
6.0814853e-09
6.2874883e-09
6.4667026e-09
6.6206686e-09
6.7530567e-09
6.8626105e-09
6.955854e-09
7.0334939e-09
7.0989583e-09
7.1536045e-09
7.2013646e-09
7.2417653e-09
7.2722478e-09
7.2976303e-09
7.3332531e-09
7.3726501e-09
7.3954779e-09
7.4055655e-09
7.4098922e-09
0.0012748356
0.0030929489
0.0039719387
0.0040898795
0.0032990857
0.0011430604
4.8574647e-06
2.8334591e-09
2.546957e-09
2.5761665e-09
2.5159649e-09
2.5502313e-09
2.5325342e-09
2.5759238e-09
2.5915775e-09
2.6453803e-09
2.6923251e-09
2.7673744e-09
2.8510861e-09
2.9639163e-09
3.0982729e-09
3.2688238e-09
3.4745726e-09
3.7253068e-09
4.0181046e-09
4.347742e-09
4.6966985e-09
5.0455124e-09
5.3745336e-09
5.6714711e-09
5.9316e-09
6.155983e-09
6.3486665e-09
6.5156372e-09
6.6588157e-09
6.7822211e-09
6.8845418e-09
6.9722237e-09
7.0456536e-09
7.1080018e-09
7.1604657e-09
7.2067525e-09
7.2458165e-09
7.2749835e-09
7.3011248e-09
7.3408457e-09
7.3774489e-09
7.3976971e-09
7.4061527e-09
7.4097361e-09
0.0012729073
0.0030710555
0.003915504
0.0039818864
0.003122012
0.00096606689
1.4450738e-06
2.7958241e-09
2.5731749e-09
2.6026714e-09
2.5439319e-09
2.5792577e-09
2.5631037e-09
2.6079943e-09
2.6256586e-09
2.6817949e-09
2.73181e-09
2.8106535e-09
2.8991759e-09
3.0179323e-09
3.1596781e-09
3.3391429e-09
3.5555452e-09
3.8180632e-09
4.1224653e-09
4.4611794e-09
4.8146793e-09
5.1624256e-09
5.4851478e-09
5.7718304e-09
6.0193756e-09
6.2302176e-09
6.4096303e-09
6.5645394e-09
6.6971081e-09
6.811646e-09
6.9067899e-09
6.9889187e-09
7.0581189e-09
7.1173265e-09
7.1675718e-09
7.2123237e-09
7.2499413e-09
7.2778935e-09
7.3054322e-09
7.34906e-09
7.3823436e-09
7.3999091e-09
7.4066052e-09
7.4094219e-09
0.0012709437
0.0030482327
0.0038554101
0.0038705952
0.0029345781
0.00080463935
4.2583093e-07
2.7872109e-09
2.6004015e-09
2.6301162e-09
2.5729356e-09
2.609312e-09
2.5947985e-09
2.6412556e-09
2.6610939e-09
2.7197429e-09
2.7730919e-09
2.8560166e-09
2.9497086e-09
3.074811e-09
3.2244753e-09
3.4134741e-09
3.6411956e-09
3.9159942e-09
4.2320512e-09
4.5792784e-09
4.9362377e-09
5.2815976e-09
5.5967904e-09
5.8723021e-09
6.1067375e-09
6.3038588e-09
6.4700798e-09
6.6131439e-09
6.7353147e-09
6.8411372e-09
6.9291987e-09
7.0058193e-09
7.0707995e-09
7.1268692e-09
7.1748797e-09
7.2180315e-09
7.2540818e-09
7.2810404e-09
7.3108648e-09
7.3572337e-09
7.3873042e-09
7.4021546e-09
7.4068786e-09
7.4088343e-09
0.0012691929
0.0030251028
0.0037940935
0.0037581538
0.0027371561
0.0006635346
1.3535701e-07
2.7950184e-09
2.6285879e-09
2.6584614e-09
2.6029333e-09
2.6403736e-09
2.6276293e-09
2.6757522e-09
2.6979747e-09
2.7593388e-09
2.8163025e-09
2.9036021e-09
3.002838e-09
3.1347395e-09
3.2928974e-09
3.4920919e-09
3.7318085e-09
4.0193184e-09
4.3469352e-09
4.7019237e-09
5.061095e-09
5.4026522e-09
5.7090596e-09
5.9725053e-09
6.1933427e-09
6.3766003e-09
6.5297435e-09
6.6612123e-09
6.7732281e-09
6.8705183e-09
6.9516243e-09
7.0228135e-09
7.083611e-09
7.13657e-09
7.182349e-09
7.2238276e-09
7.2581743e-09
7.2844532e-09
7.3176524e-09
7.3647508e-09
7.3920731e-09
7.4044795e-09
7.4071403e-09
7.4078119e-09
0.0012676489
0.0030013157
0.0037313761
0.0036440338
0.002530146
0.00053401168
4.7827e-08
2.8120658e-09
2.6576788e-09
2.6876527e-09
2.633914e-09
2.6724696e-09
2.6616543e-09
2.7115856e-09
2.7364198e-09
2.8007208e-09
2.861571e-09
2.9535425e-09
3.0587223e-09
3.197925e-09
3.3652007e-09
3.5753012e-09
3.827683e-09
4.1282524e-09
4.4671553e-09
4.8289565e-09
5.1889285e-09
5.5251849e-09
5.8215421e-09
6.0720635e-09
6.2788645e-09
6.4481606e-09
6.588379e-09
6.7085355e-09
6.8106657e-09
6.8996314e-09
6.9739359e-09
7.0397986e-09
7.0964768e-09
7.1463741e-09
7.189942e-09
7.2296667e-09
7.2621679e-09
7.2881192e-09
7.3257778e-09
7.371213e-09
7.3962908e-09
7.4067322e-09
7.4074083e-09
7.4061058e-09
0.0012661535
0.002976231
0.0036661821
0.0035237802
0.0023152984
0.00041676999
1.9798217e-08
2.8344895e-09
2.6876672e-09
2.7177614e-09
2.6659429e-09
2.7056937e-09
2.6969878e-09
2.7488835e-09
2.7765675e-09
2.8439928e-09
2.9090142e-09
3.0059751e-09
3.1175461e-09
3.264602e-09
3.4416726e-09
3.6634189e-09
3.9291159e-09
4.2429693e-09
4.5926904e-09
4.9601484e-09
5.319364e-09
5.6487622e-09
5.9338177e-09
6.170608e-09
6.3629942e-09
6.5182828e-09
6.6457714e-09
6.7549314e-09
6.8474668e-09
6.928335e-09
6.996015e-09
7.0566801e-09
7.1093273e-09
7.156232e-09
7.1976221e-09
7.2355075e-09
7.2660506e-09
7.2920314e-09
7.3343718e-09
7.3769984e-09
7.3996496e-09
7.4083245e-09
7.4080429e-09
7.4034457e-09
0.0012645613
0.0029494219
0.0035982903
0.0033973945
0.0020954424
0.000310586
9.9609995e-09
2.8603631e-09
2.718665e-09
2.7488909e-09
2.6991281e-09
2.7401668e-09
2.7337599e-09
2.7877821e-09
2.8185292e-09
2.8892637e-09
2.958743e-09
3.0610512e-09
3.1795169e-09
3.3350326e-09
3.5226267e-09
3.7567894e-09
4.0364106e-09
4.363624e-09
4.7234746e-09
5.0952192e-09
5.451987e-09
5.7729298e-09
6.0454619e-09
6.2677789e-09
6.4454424e-09
6.5867367e-09
6.7017338e-09
6.8002439e-09
6.8834927e-09
6.9565051e-09
7.0177561e-09
7.0733726e-09
7.1220997e-09
7.1660986e-09
7.2053511e-09
7.2413123e-09
7.2698738e-09
7.2963141e-09
7.3430139e-09
7.382135e-09
7.4021982e-09
7.4092172e-09
7.4082912e-09
7.400084e-09
0.0012627894
0.0029205465
0.0035257935
0.0032695293
0.0018737961
0.00021402963
6.119084e-09
2.8884585e-09
2.7506841e-09
2.7811128e-09
2.7335867e-09
2.776024e-09
2.7721055e-09
2.8283834e-09
2.8623889e-09
2.9366273e-09
3.0108811e-09
3.1189595e-09
3.2448795e-09
3.4095129e-09
3.6084004e-09
3.855767e-09
4.1498413e-09
4.4903089e-09
4.8593599e-09
5.2338159e-09
5.5863342e-09
5.8972116e-09
6.1560493e-09
6.3632302e-09
6.5259412e-09
6.6533189e-09
6.7561056e-09
6.8443393e-09
6.9186239e-09
6.9840333e-09
7.0390653e-09
7.0897994e-09
7.1347364e-09
7.1759321e-09
7.2130856e-09
7.2470393e-09
7.2737524e-09
7.3013441e-09
7.3512702e-09
7.3866284e-09
7.4040722e-09
7.4095591e-09
7.4083489e-09
7.3961751e-09
0.0012609405
0.0028905413
0.0034456202
0.0031389921
0.0016533124
0.00012822663
4.4679175e-09
2.9182368e-09
2.7838588e-09
2.8145293e-09
2.7694582e-09
2.8133989e-09
2.8121025e-09
2.8707474e-09
2.908197e-09
2.9861857e-09
3.0655878e-09
3.1799185e-09
3.313906e-09
3.4883608e-09
3.6993643e-09
3.9607246e-09
4.2696807e-09
4.623077e-09
5.000144e-09
5.375536e-09
5.7219094e-09
6.0211165e-09
6.2651575e-09
6.4566338e-09
6.6042487e-09
6.7178532e-09
6.8087534e-09
6.8871055e-09
6.9527603e-09
7.0108294e-09
7.0598612e-09
7.105894e-09
7.1471855e-09
7.1856922e-09
7.2207764e-09
7.2526385e-09
7.2778256e-09
7.3076916e-09
7.3587745e-09
7.39043e-09
7.4054928e-09
7.4096182e-09
7.4082415e-09
7.3919015e-09
0.0012592405
0.0028612133
0.0033707539
0.0030031169
0.0014371547
6.0986384e-05
3.7103883e-09
2.9492386e-09
2.8184133e-09
2.8493109e-09
2.8068435e-09
2.8523269e-09
2.8537752e-09
2.9148983e-09
2.9560334e-09
3.0380766e-09
3.1230711e-09
3.244191e-09
3.3868991e-09
3.5719279e-09
3.7959076e-09
4.0720293e-09
4.3961431e-09
4.7618938e-09
5.1455277e-09
5.5198997e-09
5.858169e-09
6.1441318e-09
6.3723702e-09
6.5476887e-09
6.6801546e-09
6.7801881e-09
6.8595683e-09
6.9284487e-09
6.9858178e-09
7.0368189e-09
7.0800746e-09
7.1215992e-09
7.1594005e-09
7.1953396e-09
7.2283703e-09
7.2580547e-09
7.2821941e-09
7.3157455e-09
7.3652039e-09
7.3935558e-09
7.4066244e-09
7.4095442e-09
7.4080699e-09
7.3876004e-09
0.0012572904
0.0028297919
0.0032912615
0.0028593762
0.0012294605
2.1789452e-05
3.3585126e-09
2.9814167e-09
2.8542964e-09
2.885557e-09
2.8457198e-09
2.8927961e-09
2.8971211e-09
2.9609041e-09
3.0060217e-09
3.092498e-09
3.1835748e-09
3.3120543e-09
3.4641791e-09
3.660588e-09
3.8984555e-09
4.1900541e-09
4.5294247e-09
4.9066675e-09
5.2951521e-09
5.6663757e-09
5.9945338e-09
6.2657323e-09
6.4772877e-09
6.6361306e-09
6.753486e-09
6.8401936e-09
6.9084627e-09
6.9682962e-09
7.0177303e-09
7.0619427e-09
7.0996506e-09
7.1368686e-09
7.1713433e-09
7.2048367e-09
7.235815e-09
7.2632479e-09
7.2868902e-09
7.325028e-09
7.370957e-09
7.396069e-09
7.4070472e-09
7.4094687e-09
7.4074452e-09
7.3835317e-09
0.0012552432
0.002797278
0.0032086172
0.0027066536
0.0010337045
6.0610231e-06
3.2025501e-09
3.0157364e-09
2.8912882e-09
2.92302e-09
2.8860063e-09
2.9348039e-09
2.9422212e-09
3.0088957e-09
3.0583523e-09
3.1496933e-09
3.2473692e-09
3.3838151e-09
3.5460963e-09
3.7547559e-09
4.0074392e-09
4.3151443e-09
4.669626e-09
5.0571953e-09
5.4485465e-09
5.8143515e-09
6.1303754e-09
6.3853888e-09
6.5795438e-09
6.7217402e-09
6.8241079e-09
6.8977578e-09
6.9553637e-09
7.0066005e-09
7.0484495e-09
7.0861485e-09
7.118548e-09
7.1516639e-09
7.1829845e-09
7.2141467e-09
7.243061e-09
7.2682234e-09
7.2919409e-09
7.3346929e-09
7.3764122e-09
7.3983916e-09
7.4071662e-09
7.4085356e-09
7.4058832e-09
7.3795709e-09
0.0012531985
0.0027639497
0.0031228822
0.0025483089
0.00085499478
1.4804145e-06
3.1435838e-09
3.051055e-09
2.9293937e-09
2.9618446e-09
2.9277694e-09
2.9784579e-09
2.9892135e-09
3.0590697e-09
3.113258e-09
3.2099267e-09
3.3147313e-09
3.4597859e-09
3.6330262e-09
3.854881e-09
4.1233222e-09
4.4476369e-09
4.8168065e-09
5.2132056e-09
5.6051762e-09
5.9631666e-09
6.2650516e-09
6.5026115e-09
6.6788363e-09
6.8043416e-09
6.8919065e-09
6.9527914e-09
7.0002097e-09
7.0433459e-09
7.0779497e-09
7.1093842e-09
7.1367368e-09
7.1659562e-09
7.1943043e-09
7.2232345e-09
7.2500649e-09
7.2730586e-09
7.2974919e-09
7.3441337e-09
7.3813973e-09
7.4005012e-09
7.4071395e-09
7.407451e-09
7.4031026e-09
7.3759194e-09
0.0012512209
0.002730475
0.003035021
0.0023815072
0.00069320813
3.6043531e-07
3.1331296e-09
3.0877425e-09
2.9688511e-09
3.0022614e-09
2.9711263e-09
3.0238878e-09
3.0382822e-09
3.111665e-09
3.1709874e-09
3.273439e-09
3.3859553e-09
3.5403123e-09
3.7253929e-09
3.961446e-09
4.2465568e-09
4.5877884e-09
4.9708947e-09
5.374285e-09
5.7643869e-09
6.1120865e-09
6.3979289e-09
6.6169999e-09
6.774951e-09
6.8837797e-09
6.9567527e-09
7.0052384e-09
7.0429549e-09
7.0785457e-09
7.1062238e-09
7.1315923e-09
7.1541865e-09
7.1797249e-09
7.2052894e-09
7.2320663e-09
7.2567855e-09
7.2779006e-09
7.3039178e-09
7.3527938e-09
7.3854615e-09
7.4017224e-09
7.4070433e-09
7.4066683e-09
7.3990533e-09
7.3725895e-09
0.0012494421
0.0026971941
0.0029510528
0.0022045891
0.00055164596
1.0185759e-07
3.1469997e-09
3.1256937e-09
3.009641e-09
3.0442845e-09
3.0162768e-09
3.0713265e-09
3.0896729e-09
3.1669179e-09
3.2317849e-09
3.3404987e-09
3.4613464e-09
3.6257738e-09
3.8236665e-09
4.0749834e-09
4.3776144e-09
4.735826e-09
5.1317521e-09
5.5399395e-09
5.92546e-09
6.2603674e-09
6.5284707e-09
6.7283074e-09
6.8677558e-09
6.9598807e-09
7.0184642e-09
7.0550907e-09
7.0835958e-09
7.1122246e-09
7.1332695e-09
7.1527291e-09
7.1708538e-09
7.1929605e-09
7.2159299e-09
7.2406097e-09
7.2631803e-09
7.2829227e-09
7.3117812e-09
7.3602519e-09
7.3885657e-09
7.4022112e-09
7.4066552e-09
7.405934e-09
7.3939231e-09
7.3696137e-09
0.0012477228
0.0026626376
0.0028667989
0.0020175691
0.0004288139
3.6529299e-08
3.1731676e-09
3.1649509e-09
3.0518992e-09
3.0879619e-09
3.0633835e-09
3.121082e-09
3.143625e-09
3.2250534e-09
3.2958751e-09
3.4113756e-09
3.541252e-09
3.7166042e-09
3.9283684e-09
4.1960373e-09
4.5169077e-09
4.8918423e-09
5.2990677e-09
5.7095085e-09
6.0875716e-09
6.4072813e-09
6.6563008e-09
6.8364255e-09
6.9571102e-09
7.0324126e-09
7.0768263e-09
7.1023812e-09
7.1222129e-09
7.1443795e-09
7.1590514e-09
7.1728021e-09
7.1866783e-09
7.205663e-09
7.2262143e-09
7.2488307e-09
7.2692128e-09
7.2882445e-09
7.3213567e-09
7.3662651e-09
7.3909952e-09
7.4023325e-09
7.405956e-09
7.4049371e-09
7.3887128e-09
7.3670234e-09
0.0012460622
0.0026263635
0.002777965
0.0018219767
0.00031857306
1.6118211e-08
3.2061604e-09
3.2057186e-09
3.0959145e-09
3.1334996e-09
3.1125575e-09
3.1733366e-09
3.2003372e-09
3.2862718e-09
3.3634907e-09
3.4863793e-09
3.6260646e-09
3.8132975e-09
4.0400768e-09
4.3251955e-09
4.6648389e-09
5.055878e-09
5.4724404e-09
5.8822536e-09
6.2498861e-09
6.5522312e-09
6.7812484e-09
6.941221e-09
7.0426605e-09
7.1010831e-09
7.1317643e-09
7.1471393e-09
7.1589916e-09
7.1749442e-09
7.1834682e-09
7.191907e-09
7.2016189e-09
7.2178375e-09
7.2361271e-09
7.2566954e-09
7.2748813e-09
7.2938944e-09
7.3313218e-09
7.3718229e-09
7.3931796e-09
7.4022717e-09
7.4048991e-09
7.403554e-09
7.3838148e-09
7.3647496e-09
0.0012445684
0.0025886826
0.0026872744
0.0016212584
0.00021996437
8.9477525e-09
3.2437586e-09
3.2482836e-09
3.1418253e-09
3.181269e-09
3.1641215e-09
3.2280781e-09
3.25994e-09
3.3507203e-09
3.4349194e-09
3.5658692e-09
3.7162484e-09
3.9164077e-09
4.1594132e-09
4.4630082e-09
4.8216934e-09
5.2277763e-09
5.6512668e-09
6.0572891e-09
6.4115648e-09
6.6948004e-09
6.9031975e-09
7.0421163e-09
7.1238702e-09
7.1657201e-09
7.1834435e-09
7.1893247e-09
7.1941356e-09
7.2038025e-09
7.2063883e-09
7.2101818e-09
7.21573e-09
7.2294802e-09
7.2456481e-09
7.2641722e-09
7.280255e-09
7.2999335e-09
7.3412016e-09
7.3768518e-09
7.3951916e-09
7.4021635e-09
7.4035118e-09
7.4016707e-09
7.3796023e-09
7.3627787e-09
0.0012431962
0.002549117
0.0025932374
0.001420582
0.0001330193
6.098859e-09
3.2849315e-09
3.292813e-09
3.1898014e-09
3.2313369e-09
3.2181712e-09
3.2855421e-09
3.3226234e-09
3.4187304e-09
3.5104965e-09
3.6502684e-09
3.8123223e-09
4.0265592e-09
4.2870455e-09
4.6100525e-09
4.9877033e-09
5.4072993e-09
5.8348444e-09
6.2337142e-09
6.5719024e-09
6.8347984e-09
7.0216702e-09
7.1383606e-09
7.2002897e-09
7.2262466e-09
7.2322071e-09
7.2288436e-09
7.2275779e-09
7.2308839e-09
7.227879e-09
7.227615e-09
7.2292342e-09
7.2405672e-09
7.2547551e-09
7.2712349e-09
7.2855005e-09
7.3066533e-09
7.3504e-09
7.3810133e-09
7.396209e-09
7.4015411e-09
7.4021581e-09
7.39879e-09
7.3759642e-09
7.3611031e-09
0.0012415298
0.0025036619
0.0024948256
0.0012326486
6.4713426e-05
4.8588278e-09
3.3288763e-09
3.3392489e-09
3.2398886e-09
3.2837841e-09
3.2748988e-09
3.3460322e-09
3.3886202e-09
3.4905938e-09
3.5906229e-09
3.7400695e-09
3.914884e-09
4.144425e-09
4.4236539e-09
4.7667975e-09
5.1629189e-09
5.5939493e-09
6.0222694e-09
6.4105649e-09
6.7303517e-09
6.9720375e-09
7.1356094e-09
7.2292874e-09
7.2715722e-09
7.2829461e-09
7.2784502e-09
7.2657818e-09
7.2589686e-09
7.2568163e-09
7.2479647e-09
7.2437329e-09
7.2424346e-09
7.2510603e-09
7.2634255e-09
7.2778626e-09
7.2908483e-09
7.3146324e-09
7.3582437e-09
7.384186e-09
7.3966216e-09
7.4008872e-09
7.4009942e-09
7.3947217e-09
7.3728397e-09
7.359691e-09
0.0012394494
0.0024530483
0.0023901499
0.0010557702
2.3750588e-05
4.2939842e-09
3.3751356e-09
3.3876796e-09
3.2922591e-09
3.3388178e-09
3.3345207e-09
3.4097924e-09
3.458232e-09
3.5667001e-09
3.67576e-09
3.8358262e-09
4.0245914e-09
4.2707443e-09
4.5699468e-09
4.9336958e-09
5.3472965e-09
5.787127e-09
6.2125839e-09
6.5869941e-09
6.8866144e-09
7.105742e-09
7.2440961e-09
7.3141888e-09
7.3380493e-09
7.3370338e-09
7.3216763e-09
7.3008147e-09
7.2882728e-09
7.2811112e-09
7.2668319e-09
7.258623e-09
7.2552763e-09
7.2609508e-09
7.2716347e-09
7.2840461e-09
7.2964886e-09
7.3242013e-09
7.3643907e-09
7.386591e-09
7.3967095e-09
7.4001366e-09
7.3997955e-09
7.3899405e-09
7.3701048e-09
7.3585036e-09
0.0012366319
0.0023963063
0.002275917
0.00089073094
6.8257198e-06
4.0426507e-09
3.42384e-09
3.4383967e-09
3.3471453e-09
3.3967098e-09
3.3972387e-09
3.476932e-09
3.5319589e-09
3.6474793e-09
3.7664363e-09
3.9381706e-09
4.1421687e-09
4.4062909e-09
4.7265743e-09
5.111017e-09
5.5405158e-09
5.9859593e-09
6.4047031e-09
6.762237e-09
7.0404326e-09
7.2345721e-09
7.3462256e-09
7.3929057e-09
7.4012323e-09
7.3876357e-09
7.3621264e-09
7.3337591e-09
7.3156526e-09
7.3039703e-09
7.284346e-09
7.2725495e-09
7.2675956e-09
7.2703284e-09
7.2793525e-09
7.2898104e-09
7.3024776e-09
7.3341245e-09
7.3697551e-09
7.3886403e-09
7.3966675e-09
7.3991422e-09
7.3985081e-09
7.3851357e-09
7.3677277e-09
7.3574925e-09
0.0012330559
0.0023331061
0.0021425946
0.00073902399
1.7111415e-06
3.9439148e-09
3.4750539e-09
3.4915936e-09
3.4047495e-09
3.4576902e-09
3.4633222e-09
3.5478846e-09
3.6100517e-09
3.7334309e-09
3.8632647e-09
4.0477991e-09
4.2684077e-09
4.5518891e-09
4.8941935e-09
5.2989635e-09
5.7421395e-09
6.1894945e-09
6.597632e-09
6.9357878e-09
7.1909978e-09
7.3572355e-09
7.4413011e-09
7.4666908e-09
7.4608659e-09
7.4348972e-09
7.399802e-09
7.364679e-09
7.3412627e-09
7.3253593e-09
7.3006665e-09
7.2856131e-09
7.2790854e-09
7.2794107e-09
7.2865472e-09
7.2952625e-09
7.3088202e-09
7.3438113e-09
7.3744852e-09
7.3904555e-09
7.3965993e-09
7.3980133e-09
7.3970344e-09
7.3808122e-09
7.3656285e-09
7.356602e-09
0.0012291289
0.0022657683
0.0019950899
0.00060312016
4.2608311e-07
3.9216523e-09
3.5289096e-09
3.5474699e-09
3.4653264e-09
3.5219113e-09
3.533026e-09
3.6229334e-09
3.6930183e-09
3.8251444e-09
3.96694e-09
4.1654858e-09
4.4041513e-09
4.7083584e-09
5.0733084e-09
5.4974583e-09
5.9514006e-09
6.39657e-09
6.7903997e-09
7.1072663e-09
7.336667e-09
7.4726461e-09
7.5291883e-09
7.5370373e-09
7.5164071e-09
7.4788243e-09
7.4348539e-09
7.3934905e-09
7.3653e-09
7.3453649e-09
7.3159198e-09
7.2979332e-09
7.2894849e-09
7.2883587e-09
7.2932133e-09
7.3006266e-09
7.315675e-09
7.3526965e-09
7.3783661e-09
7.3913206e-09
7.3960757e-09
7.3967109e-09
7.3949384e-09
7.3770504e-09
7.3638038e-09
7.3558331e-09
0.0012250484
0.0021952408
0.0018344078
0.00048240464
1.2098422e-07
3.9384712e-09
3.5855326e-09
3.6062616e-09
3.5290052e-09
3.5896387e-09
3.606669e-09
3.7025971e-09
3.7814508e-09
3.9232736e-09
4.0782176e-09
4.2920513e-09
4.5503199e-09
4.8765312e-09
5.264392e-09
5.7062773e-09
6.1674376e-09
6.606062e-09
6.9822723e-09
7.2760865e-09
7.4756484e-09
7.579963e-09
7.6116596e-09
7.6031055e-09
7.568057e-09
7.5195576e-09
7.467379e-09
7.4203099e-09
7.3878439e-09
7.3640404e-09
7.3301681e-09
7.3094247e-09
7.2990965e-09
7.2969859e-09
7.2994165e-09
7.3061585e-09
7.3235095e-09
7.3601352e-09
7.381309e-09
7.3916115e-09
7.3953333e-09
7.3956647e-09
7.3917216e-09
7.3738709e-09
7.3622493e-09
7.3551795e-09
0.0012207911
0.0021212276
0.0016719162
0.00037838379
4.5165596e-08
3.9755479e-09
3.6450113e-09
3.6680336e-09
3.5960386e-09
3.6611977e-09
3.684782e-09
3.7874976e-09
3.8760602e-09
4.028517e-09
4.1978944e-09
4.4284225e-09
4.7078441e-09
5.0571739e-09
5.4676162e-09
5.9248422e-09
6.3890383e-09
6.8167911e-09
7.1726065e-09
7.440364e-09
7.6067238e-09
7.6790082e-09
7.6901232e-09
7.6644541e-09
7.6158604e-09
7.5572223e-09
7.497502e-09
7.4452414e-09
7.4089756e-09
7.3814599e-09
7.3434476e-09
7.3200951e-09
7.3080229e-09
7.3051e-09
7.3053238e-09
7.3119623e-09
7.3326309e-09
7.3657458e-09
7.3834829e-09
7.3916505e-09
7.3945e-09
7.394593e-09
7.3876426e-09
7.3712266e-09
7.3609216e-09
7.3546248e-09
0.0012162356
0.0020391646
0.0015103148
0.00028385234
2.031532e-08
4.0233885e-09
3.7074267e-09
3.7330728e-09
3.666833e-09
3.737173e-09
3.7680489e-09
3.8783393e-09
3.9775464e-09
4.1416284e-09
4.3268404e-09
4.5756019e-09
4.8777337e-09
5.2510097e-09
5.6830536e-09
6.1524194e-09
6.615001e-09
7.0277508e-09
7.3608554e-09
7.5979711e-09
7.7288099e-09
7.771596e-09
7.7637447e-09
7.7212653e-09
7.6599916e-09
7.5919665e-09
7.5253468e-09
7.4684092e-09
7.4287684e-09
7.3976913e-09
7.3558198e-09
7.330059e-09
7.3163419e-09
7.3123932e-09
7.3111429e-09
7.3179019e-09
7.3417727e-09
7.3704982e-09
7.3852121e-09
7.3916022e-09
7.3936184e-09
7.3934061e-09
7.3833308e-09
7.3689454e-09
7.3597783e-09
7.3541384e-09
0.0012128216
0.0019568476
0.0013465924
0.00019804494
1.1312949e-08
4.078123e-09
3.7730766e-09
3.8019371e-09
3.7420933e-09
3.8182902e-09
3.8571757e-09
3.9758205e-09
4.0865926e-09
4.2634397e-09
4.4660487e-09
4.7346823e-09
5.0609737e-09
5.4585258e-09
5.9103644e-09
6.3878652e-09
6.8439403e-09
7.2379548e-09
7.5453694e-09
7.7470993e-09
7.8413213e-09
7.8595236e-09
7.8319633e-09
7.773636e-09
7.7006061e-09
7.6239412e-09
7.5510456e-09
7.4899292e-09
7.447301e-09
7.4128101e-09
7.367351e-09
7.3393704e-09
7.3241073e-09
7.318939e-09
7.3168151e-09
7.3238949e-09
7.3505172e-09
7.3746247e-09
7.3866849e-09
7.3915583e-09
7.3927458e-09
7.3921356e-09
7.3794587e-09
7.3669131e-09
7.3587784e-09
7.3537122e-09
0.0012111061
0.0018779046
0.0011847782
0.0001217744
7.6479313e-09
4.1378953e-09
3.8427186e-09
3.875482e-09
3.822583e-09
3.9052311e-09
3.9527894e-09
4.0805451e-09
4.2039978e-09
4.3948946e-09
4.6166121e-09
4.9068538e-09
5.2585491e-09
5.6801101e-09
6.1490375e-09
6.6299637e-09
7.0746354e-09
7.4466832e-09
7.7237376e-09
7.8864815e-09
7.9460208e-09
7.9420269e-09
7.8949186e-09
7.8217655e-09
7.7378862e-09
7.6533055e-09
7.5747325e-09
7.5099176e-09
7.4646515e-09
7.4268907e-09
7.3780859e-09
7.3479788e-09
7.3311978e-09
7.325032e-09
7.3223465e-09
7.3301429e-09
7.3584016e-09
7.378165e-09
7.3878184e-09
7.3913168e-09
7.3919411e-09
7.3903998e-09
7.376115e-09
7.3651577e-09
7.3579192e-09
7.3533562e-09
0.0012104308
0.0017933963
0.0010271757
6.1060648e-05
6.0197221e-09
4.2021193e-09
3.917199e-09
3.9543525e-09
3.9088378e-09
3.9984731e-09
4.0554162e-09
4.193241e-09
4.3307614e-09
4.5371406e-09
4.779741e-09
5.0933174e-09
5.4712625e-09
5.9157337e-09
6.3980657e-09
6.8771768e-09
7.305784e-09
7.6527846e-09
7.8933252e-09
8.0151279e-09
8.0448202e-09
8.0185154e-09