/*--------------------------------*- C++ -*----------------------------------*\
  =========                 |
  \\      /  F ield         | OpenFOAM: The Open Source CFD Toolbox
   \\    /   O peration     | Website:  https://openfoam.org
    \\  /    A nd           | Version:  8
     \\/     M anipulation  |
\*---------------------------------------------------------------------------*/
FoamFile
{
    version     2.0;
    format      ascii;
    class       volScalarField;
    location    "0.280002";
    object      nuTilda;
}
// * * * * * * * * * * * * * * * * * * * * * * * * * * * * * * * * * * * * * //

dimensions      [0 2 -1 0 0 0 0];

internalField   nonuniform List<scalar> 
20000
(
0.0013070152
0.0033844737
0.0046961296
0.0053485998
0.0051782616
0.0039274703
0.001276976
6.7387072e-05
1.0249211e-05
1.0143792e-05
1.0068368e-05
1.0073232e-05
1.0032382e-05
1.0038679e-05
1.0019359e-05
1.0020435e-05
1.0011297e-05
1.0009602e-05
1.0005745e-05
1.0004441e-05
1.0002823e-05
1.000202e-05
1.0001371e-05
1.0001107e-05
1.0001027e-05
1.0000938e-05
1.0000844e-05
1.0000782e-05
1.000074e-05
1.0000753e-05
1.0000829e-05
1.0000915e-05
1.0000935e-05
1.0000899e-05
1.0000924e-05
1.0000878e-05
1.0000812e-05
1.0000961e-05
1.000111e-05
1.000124e-05
1.0001399e-05
1.0001666e-05
1.0001903e-05
1.0002049e-05
1.0002367e-05
1.0002664e-05
1.0002897e-05
1.0002941e-05
1.0002781e-05
1.0001351e-05
0.0013124465
0.0033711574
0.004645486
0.0052576366
0.0050412577
0.0037384179
0.0011065882
5.1490909e-05
1.0204939e-05
1.0143904e-05
1.0067874e-05
1.007304e-05
1.003209e-05
1.0038576e-05
1.0019113e-05
1.0020287e-05
1.0011167e-05
1.0009509e-05
1.0005665e-05
1.0004371e-05
1.0002764e-05
1.0001969e-05
1.0001318e-05
1.0001043e-05
1.0000963e-05
1.0000875e-05
1.0000787e-05
1.0000747e-05
1.0000734e-05
1.0000731e-05
1.0000783e-05
1.000087e-05
1.0000901e-05
1.0000875e-05
1.0000904e-05
1.0000876e-05
1.0000806e-05
1.0000957e-05
1.0001111e-05
1.000125e-05
1.0001402e-05
1.0001652e-05
1.0001894e-05
1.000205e-05
1.0002357e-05
1.0002658e-05
1.0002887e-05
1.0002906e-05
1.0002711e-05
1.0001327e-05
0.0013086621
0.003346179
0.00459
0.0051612906
0.0049050148
0.0035424174
0.00094548062
3.9346016e-05
1.0177395e-05
1.0143256e-05
1.0067381e-05
1.0072741e-05
1.0031829e-05
1.0038406e-05
1.0018883e-05
1.0020123e-05
1.0011036e-05
1.0009414e-05
1.00056e-05
1.0004331e-05
1.0002749e-05
1.0001977e-05
1.0001338e-05
1.0001049e-05
1.0000965e-05
1.0000876e-05
1.000079e-05
1.0000751e-05
1.000073e-05
1.0000723e-05
1.0000776e-05
1.0000869e-05
1.0000905e-05
1.0000872e-05
1.0000903e-05
1.0000879e-05
1.0000805e-05
1.0000957e-05
1.0001112e-05
1.0001256e-05
1.0001408e-05
1.0001642e-05
1.0001881e-05
1.0002044e-05
1.0002336e-05
1.0002634e-05
1.0002864e-05
1.0002864e-05
1.0002621e-05
1.0001283e-05
0.0013057402
0.0033228847
0.0045366733
0.005071185
0.0047677205
0.0033384395
0.00080368408
3.0375488e-05
1.0160075e-05
1.0142585e-05
1.0066851e-05
1.0072378e-05
1.0031595e-05
1.0038206e-05
1.0018663e-05
1.0019942e-05
1.0010905e-05
1.0009306e-05
1.0005525e-05
1.0004272e-05
1.0002712e-05
1.0001956e-05
1.0001326e-05
1.0001045e-05
1.0000965e-05
1.0000877e-05
1.0000787e-05
1.0000745e-05
1.0000726e-05
1.000072e-05
1.0000775e-05
1.0000866e-05
1.0000905e-05
1.0000874e-05
1.0000902e-05
1.0000883e-05
1.0000806e-05
1.0000956e-05
1.0001113e-05
1.0001262e-05
1.0001417e-05
1.0001636e-05
1.0001869e-05
1.0002043e-05
1.0002324e-05
1.0002614e-05
1.0002847e-05
1.0002843e-05
1.0002514e-05
1.000124e-05
0.001302599
0.0032993783
0.0044826767
0.0049796333
0.0046293573
0.0031262981
0.00067245926
2.3803873e-05
1.0148982e-05
1.0141742e-05
1.006629e-05
1.0071953e-05
1.0031388e-05
1.003798e-05
1.0018454e-05
1.0019753e-05
1.0010777e-05
1.0009197e-05
1.0005453e-05
1.0004217e-05
1.0002682e-05
1.0001943e-05
1.0001326e-05
1.0001047e-05
1.0000967e-05
1.0000878e-05
1.000079e-05
1.0000744e-05
1.0000723e-05
1.0000716e-05
1.0000769e-05
1.0000866e-05
1.0000907e-05
1.0000875e-05
1.00009e-05
1.0000886e-05
1.0000807e-05
1.0000956e-05
1.0001113e-05
1.0001265e-05
1.0001425e-05
1.0001631e-05
1.0001853e-05
1.0002035e-05
1.000231e-05
1.0002592e-05
1.0002827e-05
1.000281e-05
1.000239e-05
1.0001193e-05
0.0012992377
0.0032760622
0.0044283432
0.0048875137
0.0044903615
0.0029062705
0.00055456603
1.9145276e-05
1.014178e-05
1.0140642e-05
1.00657e-05
1.0071462e-05
1.0031214e-05
1.0037727e-05
1.0018257e-05
1.0019554e-05
1.0010651e-05
1.0009083e-05
1.000538e-05
1.0004158e-05
1.0002649e-05
1.0001927e-05
1.0001321e-05
1.0001047e-05
1.0000969e-05
1.000088e-05
1.0000791e-05
1.0000742e-05
1.000072e-05
1.0000713e-05
1.0000766e-05
1.0000865e-05
1.0000908e-05
1.0000878e-05
1.0000899e-05
1.000089e-05
1.0000807e-05
1.0000955e-05
1.0001113e-05
1.0001266e-05
1.0001433e-05
1.0001629e-05
1.0001839e-05
1.0002021e-05
1.0002297e-05
1.000257e-05
1.0002808e-05
1.0002772e-05
1.0002287e-05
1.000115e-05
0.0012961651
0.0032527224
0.0043731065
0.0047943304
0.0043508313
0.002679191
0.0004502437
1.5938004e-05
1.0136962e-05
1.0139158e-05
1.0065085e-05
1.007091e-05
1.0031048e-05
1.0037448e-05
1.001807e-05
1.0019346e-05
1.0010527e-05
1.0008965e-05
1.0005307e-05
1.0004098e-05
1.0002617e-05
1.0001912e-05
1.0001318e-05
1.0001048e-05
1.0000971e-05
1.0000882e-05
1.0000792e-05
1.0000741e-05
1.0000718e-05
1.0000711e-05
1.0000764e-05
1.0000863e-05
1.0000908e-05
1.0000879e-05
1.0000898e-05
1.0000893e-05
1.0000808e-05
1.0000955e-05
1.0001114e-05
1.0001265e-05
1.0001439e-05
1.0001629e-05
1.0001825e-05
1.0002003e-05
1.0002281e-05
1.0002548e-05
1.0002783e-05
1.0002727e-05
1.0002206e-05
1.0001107e-05
0.0012931733
0.0032292805
0.0043166898
0.0046997201
0.0042106148
0.002446602
0.00035973962
1.379713e-05
1.013352e-05
1.0137591e-05
1.0064447e-05
1.0070299e-05
1.0030872e-05
1.0037143e-05
1.0017895e-05
1.0019128e-05
1.0010406e-05
1.0008843e-05
1.0005235e-05
1.0004037e-05
1.0002584e-05
1.0001895e-05
1.0001315e-05
1.0001048e-05
1.0000973e-05
1.0000883e-05
1.0000794e-05
1.000074e-05
1.0000716e-05
1.000071e-05
1.0000762e-05
1.0000861e-05
1.0000908e-05
1.0000881e-05
1.0000896e-05
1.0000895e-05
1.000081e-05
1.0000955e-05
1.0001114e-05
1.0001263e-05
1.0001444e-05
1.000163e-05
1.0001814e-05
1.0001982e-05
1.0002265e-05
1.0002524e-05
1.0002744e-05
1.000268e-05
1.0002135e-05
1.0001065e-05
0.0012901795
0.0032059637
0.0042600859
0.0046031494
0.0040690891
0.0022111769
0.00028286685
1.2411171e-05
1.0130908e-05
1.0135923e-05
1.0063789e-05
1.006963e-05
1.0030689e-05
1.0036813e-05
1.0017731e-05
1.0018901e-05
1.0010288e-05
1.0008718e-05
1.0005162e-05
1.0003974e-05
1.0002551e-05
1.0001878e-05
1.0001312e-05
1.0001049e-05
1.0000974e-05
1.0000885e-05
1.0000796e-05
1.0000739e-05
1.0000715e-05
1.0000709e-05
1.000076e-05
1.0000858e-05
1.0000908e-05
1.0000883e-05
1.0000894e-05
1.0000898e-05
1.0000811e-05
1.0000954e-05
1.0001115e-05
1.0001259e-05
1.0001445e-05
1.0001632e-05
1.0001806e-05
1.0001963e-05
1.0002252e-05
1.0002501e-05
1.0002697e-05
1.0002635e-05
1.0002065e-05
1.0001024e-05
0.0012871746
0.00318262
0.0042024935
0.0045038229
0.0039251226
0.0019783477
0.00021900832
1.1539798e-05
1.012879e-05
1.0134161e-05
1.0063115e-05
1.0068904e-05
1.0030502e-05
1.0036457e-05
1.0017579e-05
1.0018664e-05
1.0010174e-05
1.0008589e-05
1.000509e-05
1.0003911e-05
1.0002519e-05
1.000186e-05
1.0001308e-05
1.000105e-05
1.0000975e-05
1.0000886e-05
1.0000798e-05
1.0000739e-05
1.0000714e-05
1.0000709e-05
1.000076e-05
1.0000856e-05
1.0000908e-05
1.0000885e-05
1.0000892e-05
1.0000901e-05
1.0000812e-05
1.0000954e-05
1.0001115e-05
1.0001256e-05
1.0001445e-05
1.0001633e-05
1.0001801e-05
1.0001949e-05
1.0002246e-05
1.0002477e-05
1.0002659e-05
1.0002592e-05
1.0001996e-05
1.0000984e-05
0.0012844797
0.0031596509
0.004144532
0.0044014163
0.0037774283
0.0017539166
0.00016710355
1.1006591e-05
1.0126966e-05
1.0132313e-05
1.0062426e-05
1.0068126e-05
1.0030311e-05
1.0036078e-05
1.0017437e-05
1.001842e-05
1.0010062e-05
1.0008458e-05
1.0005019e-05
1.0003847e-05
1.0002486e-05
1.0001843e-05
1.0001305e-05
1.000105e-05
1.0000976e-05
1.0000888e-05
1.0000801e-05
1.000074e-05
1.0000714e-05
1.0000709e-05
1.0000759e-05
1.0000853e-05
1.0000907e-05
1.0000886e-05
1.0000891e-05
1.0000903e-05
1.0000813e-05
1.0000955e-05
1.0001116e-05
1.0001252e-05
1.0001441e-05
1.0001635e-05
1.0001798e-05
1.000194e-05
1.0002248e-05
1.0002452e-05
1.0002625e-05
1.0002548e-05
1.0001931e-05
1.0000944e-05
0.0012820896
0.0031371961
0.0040868266
0.0042967637
0.0036256518
0.0015392371
0.00012572853
1.0687775e-05
1.0125315e-05
1.0130388e-05
1.0061726e-05
1.00673e-05
1.0030116e-05
1.0035675e-05
1.0017306e-05
1.0018168e-05
1.0009953e-05
1.0008323e-05
1.0004948e-05
1.0003782e-05
1.0002454e-05
1.0001825e-05
1.0001302e-05
1.0001051e-05
1.0000977e-05
1.0000889e-05
1.0000804e-05
1.0000741e-05
1.0000714e-05
1.0000709e-05
1.0000759e-05
1.000085e-05
1.0000906e-05
1.0000888e-05
1.0000889e-05
1.0000905e-05
1.0000814e-05
1.0000955e-05
1.0001118e-05
1.0001249e-05
1.0001436e-05
1.0001636e-05
1.0001798e-05
1.0001935e-05
1.000225e-05
1.0002424e-05
1.0002588e-05
1.0002502e-05
1.0001869e-05
1.0000906e-05
0.0012799794
0.0031152891
0.0040296466
0.0041957131
0.0034671265
0.0013361328
9.32416e-05
1.0500192e-05
1.0123764e-05
1.0128384e-05
1.0061018e-05
1.0066427e-05
1.002992e-05
1.0035251e-05
1.0017186e-05
1.0017908e-05
1.0009847e-05
1.0008187e-05
1.0004878e-05
1.0003716e-05
1.0002422e-05
1.0001806e-05
1.0001299e-05
1.0001051e-05
1.0000978e-05
1.0000891e-05
1.0000806e-05
1.0000742e-05
1.0000715e-05
1.000071e-05
1.0000758e-05
1.0000847e-05
1.0000905e-05
1.0000889e-05
1.0000887e-05
1.0000907e-05
1.0000814e-05
1.0000956e-05
1.0001121e-05
1.0001247e-05
1.0001428e-05
1.0001635e-05
1.0001799e-05
1.0001932e-05
1.0002242e-05
1.0002396e-05
1.0002547e-05
1.0002453e-05
1.0001812e-05
1.0000868e-05
0.0012779908
0.0030934892
0.0039722641
0.0040901801
0.0032995259
0.0011463476
6.8325975e-05
1.039148e-05
1.0122274e-05
1.012632e-05
1.0060303e-05
1.0065514e-05
1.0029723e-05
1.0034809e-05
1.0017075e-05
1.0017642e-05
1.0009743e-05
1.0008048e-05
1.0004809e-05
1.000365e-05
1.000239e-05
1.0001788e-05
1.0001296e-05
1.0001052e-05
1.0000979e-05
1.0000892e-05
1.0000808e-05
1.0000744e-05
1.0000716e-05
1.0000711e-05
1.0000757e-05
1.0000843e-05
1.0000904e-05
1.000089e-05
1.0000884e-05
1.0000908e-05
1.0000815e-05
1.0000957e-05
1.0001124e-05
1.0001246e-05
1.0001417e-05
1.0001631e-05
1.0001801e-05
1.0001929e-05
1.000222e-05
1.0002369e-05
1.0002502e-05
1.0002401e-05
1.0001759e-05
1.0000831e-05
0.001276036
0.0030715975
0.0039158351
0.0039821996
0.003122496
0.00097056625
4.9770439e-05
1.0329229e-05
1.0120823e-05
1.0124196e-05
1.0059583e-05
1.0064561e-05
1.0029526e-05
1.0034347e-05
1.0016973e-05
1.001737e-05
1.0009643e-05
1.0007909e-05
1.000474e-05
1.0003585e-05
1.0002358e-05
1.000177e-05
1.0001293e-05
1.0001052e-05
1.000098e-05
1.0000893e-05
1.000081e-05
1.0000745e-05
1.0000717e-05
1.0000712e-05
1.0000756e-05
1.000084e-05
1.0000903e-05
1.0000891e-05
1.0000882e-05
1.000091e-05
1.0000816e-05
1.0000957e-05
1.0001128e-05
1.0001246e-05
1.0001406e-05
1.0001625e-05
1.0001802e-05
1.0001926e-05
1.0002186e-05
1.0002343e-05
1.0002453e-05
1.0002343e-05
1.0001711e-05
1.0000793e-05
0.0012740446
0.0030487764
0.0038557476
0.0038709225
0.0029351168
0.00081095507
3.6409328e-05
1.0293171e-05
1.0119399e-05
1.0122018e-05
1.0058862e-05
1.0063573e-05
1.0029329e-05
1.0033869e-05
1.001688e-05
1.0017093e-05
1.0009545e-05
1.0007768e-05
1.0004672e-05
1.0003519e-05
1.0002327e-05
1.0001752e-05
1.000129e-05
1.0001052e-05
1.0000981e-05
1.0000894e-05
1.0000811e-05
1.0000746e-05
1.0000718e-05
1.0000712e-05
1.0000755e-05
1.0000837e-05
1.0000901e-05
1.0000892e-05
1.0000879e-05
1.0000911e-05
1.0000816e-05
1.0000957e-05
1.0001133e-05
1.0001246e-05
1.0001393e-05
1.0001616e-05
1.00018e-05
1.0001925e-05
1.0002156e-05
1.000232e-05
1.0002399e-05
1.0002281e-05
1.0001667e-05
1.0000757e-05
0.0012722649
0.0030256483
0.0037944378
0.0037584964
0.0027377646
0.00067251466
2.7216544e-05
1.0271714e-05
1.0117996e-05
1.0119799e-05
1.0058141e-05
1.0062556e-05
1.0029134e-05
1.0033377e-05
1.0016795e-05
1.0016812e-05
1.0009449e-05
1.0007626e-05
1.0004604e-05
1.0003453e-05
1.0002296e-05
1.0001734e-05
1.0001287e-05
1.0001053e-05
1.0000981e-05
1.0000894e-05
1.0000812e-05
1.0000747e-05
1.0000718e-05
1.0000712e-05
1.0000754e-05
1.0000833e-05
1.0000899e-05
1.0000893e-05
1.0000876e-05
1.0000912e-05
1.0000816e-05
1.0000956e-05
1.0001137e-05
1.0001248e-05
1.0001379e-05
1.0001604e-05
1.0001795e-05
1.0001926e-05
1.0002143e-05
1.0002302e-05
1.0002343e-05
1.0002212e-05
1.0001628e-05
1.0000723e-05
0.0012706903
0.0030018633
0.0037317278
0.0036443933
0.0025308452
0.00054720981
2.0908011e-05
1.0258149e-05
1.0116607e-05
1.0117543e-05
1.0057422e-05
1.0061513e-05
1.002894e-05
1.0032872e-05
1.0016716e-05
1.0016527e-05
1.0009355e-05
1.0007485e-05
1.0004537e-05
1.0003388e-05
1.0002266e-05
1.0001716e-05
1.0001284e-05
1.0001053e-05
1.0000982e-05
1.0000895e-05
1.0000813e-05
1.0000747e-05
1.0000717e-05
1.0000711e-05
1.0000753e-05
1.000083e-05
1.0000897e-05
1.0000894e-05
1.0000873e-05
1.0000912e-05
1.0000817e-05
1.0000955e-05
1.0001141e-05
1.0001251e-05
1.0001366e-05
1.000159e-05
1.0001786e-05
1.0001925e-05
1.0002145e-05
1.0002291e-05
1.0002289e-05
1.0002139e-05
1.0001586e-05
1.0000695e-05
0.0012691644
0.002976781
0.0036665419
0.0035241596
0.0023161175
0.0004367159
1.6716579e-05
1.0248953e-05
1.0115229e-05
1.0115265e-05
1.0056706e-05
1.0060452e-05
1.0028748e-05
1.0032356e-05
1.0016643e-05
1.0016228e-05
1.0009263e-05
1.0007343e-05
1.0004471e-05
1.0003324e-05
1.0002237e-05
1.0001699e-05
1.0001281e-05
1.0001053e-05
1.0000982e-05
1.0000895e-05
1.0000813e-05
1.0000747e-05
1.0000717e-05
1.000071e-05
1.0000751e-05
1.0000827e-05
1.0000896e-05
1.0000895e-05
1.000087e-05
1.0000913e-05
1.0000817e-05
1.0000954e-05
1.0001144e-05
1.0001256e-05
1.0001355e-05
1.0001575e-05
1.0001775e-05
1.0001919e-05
1.0002142e-05
1.000228e-05
1.0002247e-05
1.0002065e-05
1.000154e-05
1.0000678e-05
0.0012675421
0.0029499751
0.003598659
0.0033977969
0.0020964227
0.00034126097
1.4034577e-05
1.0242107e-05
1.0113857e-05
1.0112966e-05
1.0055995e-05
1.0059373e-05
1.002856e-05
1.0031828e-05
1.0016576e-05
1.0015918e-05
1.0009172e-05
1.0007203e-05
1.0004405e-05
1.000326e-05
1.0002208e-05
1.0001682e-05
1.0001278e-05
1.0001053e-05
1.0000983e-05
1.0000894e-05
1.0000813e-05
1.0000747e-05
1.0000715e-05
1.0000709e-05
1.0000749e-05
1.0000824e-05
1.0000894e-05
1.0000895e-05
1.0000867e-05
1.0000913e-05
1.0000817e-05
1.0000952e-05
1.0001147e-05
1.0001263e-05
1.0001346e-05
1.0001558e-05
1.0001763e-05
1.0001908e-05
1.0002116e-05
1.0002263e-05
1.0002219e-05
1.0002003e-05
1.0001493e-05
1.0000663e-05
0.0012657406
0.0029211035
0.0035261725
0.0032699576
0.0018749969
0.00026072845
1.2386302e-05
1.0236444e-05
1.0112477e-05
1.0110651e-05
1.0055291e-05
1.0058281e-05
1.0028375e-05
1.0031292e-05
1.0016514e-05
1.001561e-05
1.0009083e-05
1.0007063e-05
1.000434e-05
1.0003198e-05
1.000218e-05
1.0001665e-05
1.0001275e-05
1.0001054e-05
1.0000983e-05
1.0000894e-05
1.0000812e-05
1.0000746e-05
1.0000714e-05
1.0000707e-05
1.0000747e-05
1.000082e-05
1.0000892e-05
1.0000896e-05
1.0000864e-05
1.0000912e-05
1.0000817e-05
1.0000949e-05
1.0001149e-05
1.0001271e-05
1.0001341e-05
1.0001541e-05
1.000175e-05
1.0001896e-05
1.0002084e-05
1.0002235e-05
1.0002189e-05
1.000195e-05
1.0001439e-05
1.0000631e-05
0.0012638626
0.0028911027
0.0034460118
0.0031394499
0.001654822
0.0001945767
1.1414083e-05
1.0231251e-05
1.0111083e-05
1.0108282e-05
1.0054593e-05
1.0057179e-05
1.0028194e-05
1.0030749e-05
1.0016454e-05
1.0015305e-05
1.0008994e-05
1.0006924e-05
1.0004275e-05
1.0003136e-05
1.0002152e-05
1.0001649e-05
1.0001272e-05
1.0001054e-05
1.0000983e-05
1.0000893e-05
1.0000811e-05
1.0000745e-05
1.0000713e-05
1.0000705e-05
1.0000745e-05
1.0000817e-05
1.0000891e-05
1.0000896e-05
1.0000861e-05
1.0000912e-05
1.0000816e-05
1.0000946e-05
1.000115e-05
1.000128e-05
1.000134e-05
1.0001524e-05
1.0001739e-05
1.0001886e-05
1.0002071e-05
1.0002196e-05
1.0002161e-05
1.00019e-05
1.0001378e-05
1.0000583e-05
0.001262132
0.0028617787
0.0033711573
0.0030036093
0.0014391084
0.0001416459
1.0861802e-05
1.0226038e-05
1.0109675e-05
1.0105855e-05
1.0053905e-05
1.0056071e-05
1.0028017e-05
1.0030202e-05
1.0016398e-05
1.0015005e-05
1.0008906e-05
1.0006787e-05
1.0004211e-05
1.0003076e-05
1.0002125e-05
1.0001633e-05
1.0001269e-05
1.0001054e-05
1.0000982e-05
1.0000892e-05
1.000081e-05
1.0000744e-05
1.0000711e-05
1.0000703e-05
1.0000743e-05
1.0000814e-05
1.0000889e-05
1.0000896e-05
1.0000858e-05
1.0000911e-05
1.0000816e-05
1.0000943e-05
1.0001149e-05
1.0001287e-05
1.0001342e-05
1.0001509e-05
1.0001728e-05
1.0001881e-05
1.0002049e-05
1.0002159e-05
1.0002134e-05
1.0001852e-05
1.0001311e-05
1.000052e-05
0.0012601528
0.0028303622
0.0032916786
0.0028599104
0.0012320681
0.00010075256
1.0560726e-05
1.0220748e-05
1.0108247e-05
1.0103427e-05
1.0053226e-05
1.005496e-05
1.0027846e-05
1.0029654e-05
1.0016342e-05
1.0014711e-05
1.0008821e-05
1.0006653e-05
1.0004148e-05
1.0003018e-05
1.0002099e-05
1.0001617e-05
1.0001266e-05
1.0001055e-05
1.0000982e-05
1.0000891e-05
1.0000808e-05
1.0000743e-05
1.0000709e-05
1.0000701e-05
1.000074e-05
1.0000811e-05
1.0000887e-05
1.0000896e-05
1.0000855e-05
1.000091e-05
1.0000816e-05
1.0000939e-05
1.0001147e-05
1.0001291e-05
1.0001348e-05
1.0001495e-05
1.0001718e-05
1.000188e-05
1.0002027e-05
1.0002125e-05
1.0002104e-05
1.0001806e-05
1.000124e-05
1.000046e-05
0.0012580758
0.0027978536
0.0032090496
0.0027072395
0.0010373014
7.0170536e-05
1.0402117e-05
1.0216269e-05
1.0106791e-05
1.0100996e-05
1.0052557e-05
1.0053849e-05
1.0027679e-05
1.0029106e-05
1.0016288e-05
1.0014429e-05
1.0008735e-05
1.000652e-05
1.0004086e-05
1.0002961e-05
1.0002073e-05
1.0001601e-05
1.0001262e-05
1.0001055e-05
1.0000982e-05
1.0000889e-05
1.0000806e-05
1.0000741e-05
1.0000707e-05
1.0000698e-05
1.0000737e-05
1.0000808e-05
1.0000885e-05
1.0000895e-05
1.0000852e-05
1.0000909e-05
1.0000816e-05
1.0000936e-05
1.0001144e-05
1.0001293e-05
1.0001355e-05
1.0001485e-05
1.0001705e-05
1.0001876e-05
1.0002005e-05
1.0002097e-05
1.0002073e-05
1.0001761e-05
1.0001172e-05
1.0000404e-05
0.0012560018
0.0027645312
0.0031233319
0.0025489578
0.00086010628
4.8438917e-05
1.032009e-05
1.0211755e-05
1.0105212e-05
1.0098581e-05
1.0051897e-05
1.0052743e-05
1.0027519e-05
1.0028561e-05
1.0016234e-05
1.0014164e-05
1.0008649e-05
1.000639e-05
1.0004024e-05
1.0002905e-05
1.0002047e-05
1.0001586e-05
1.0001259e-05
1.0001056e-05
1.0000981e-05
1.0000888e-05
1.0000804e-05
1.0000739e-05
1.0000704e-05
1.0000696e-05
1.0000734e-05
1.0000805e-05
1.0000883e-05
1.0000895e-05
1.0000849e-05
1.0000908e-05
1.0000815e-05
1.0000932e-05
1.000114e-05
1.0001293e-05
1.000136e-05
1.0001478e-05
1.0001691e-05
1.0001862e-05
1.0001984e-05
1.0002073e-05
1.0002044e-05
1.0001716e-05
1.0001111e-05
1.0000352e-05
0.0012539942
0.0027310626
0.0030354898
0.0023822358
0.0007007179
3.3736416e-05
1.0277163e-05
1.0207241e-05
1.0103537e-05
1.0096178e-05
1.0051245e-05
1.0051647e-05
1.0027364e-05
1.0028022e-05
1.0016181e-05
1.0013901e-05
1.0008563e-05
1.0006263e-05
1.0003964e-05
1.0002852e-05
1.0002022e-05
1.0001572e-05
1.0001256e-05
1.0001057e-05
1.0000981e-05
1.0000886e-05
1.0000801e-05
1.0000736e-05
1.0000702e-05
1.0000693e-05
1.0000731e-05
1.0000802e-05
1.0000881e-05
1.0000894e-05
1.0000847e-05
1.0000907e-05
1.0000815e-05
1.0000929e-05
1.0001137e-05
1.0001292e-05
1.0001363e-05
1.0001474e-05
1.0001677e-05
1.0001833e-05
1.0001963e-05
1.0002049e-05
1.0002013e-05
1.0001674e-05
1.0001064e-05
1.0000306e-05
0.0012521843
0.0026977878
0.002951541
0.0022054216
0.0005629437
2.4471264e-05
1.0253604e-05
1.0202679e-05
1.0101784e-05
1.0093801e-05
1.0050592e-05
1.0050561e-05
1.0027216e-05
1.002749e-05
1.0016127e-05
1.0013643e-05
1.0008476e-05
1.000614e-05
1.0003904e-05
1.00028e-05
1.0001998e-05
1.0001557e-05
1.0001252e-05
1.0001058e-05
1.000098e-05
1.0000883e-05
1.0000798e-05
1.0000733e-05
1.0000699e-05
1.000069e-05
1.0000728e-05
1.0000798e-05
1.0000879e-05
1.0000892e-05
1.0000844e-05
1.0000905e-05
1.0000814e-05
1.0000926e-05
1.0001134e-05
1.000129e-05
1.0001363e-05
1.0001471e-05
1.0001664e-05
1.0001818e-05
1.0001941e-05
1.0002021e-05
1.0001979e-05
1.0001642e-05
1.0001029e-05
1.0000268e-05
0.0012504334
0.002663238
0.0028673081
0.0020185413
0.00044612388
1.8859559e-05
1.023933e-05
1.019807e-05
1.0099979e-05
1.0091455e-05
1.0049938e-05
1.0049489e-05
1.0027075e-05
1.0026966e-05
1.0016071e-05
1.0013391e-05
1.0008389e-05
1.000602e-05
1.0003845e-05
1.0002749e-05
1.0001974e-05
1.0001543e-05
1.0001249e-05
1.0001059e-05
1.0000979e-05
1.0000881e-05
1.0000794e-05
1.000073e-05
1.0000696e-05
1.0000688e-05
1.0000725e-05
1.0000795e-05
1.0000876e-05
1.0000891e-05
1.0000841e-05
1.0000903e-05
1.0000814e-05
1.0000923e-05
1.0001133e-05
1.0001289e-05
1.0001358e-05
1.0001469e-05
1.0001651e-05
1.0001806e-05
1.0001918e-05
1.0001987e-05
1.0001941e-05
1.0001608e-05
1.0001008e-05
1.0000253e-05
0.001248741
0.0026269718
0.0027784986
0.0018231412
0.00034570249
1.5311123e-05
1.022956e-05
1.019341e-05
1.0098125e-05
1.008914e-05
1.0049276e-05
1.0048431e-05
1.0026937e-05
1.0026449e-05
1.0016013e-05
1.0013147e-05
1.0008302e-05
1.0005904e-05
1.0003788e-05
1.00027e-05
1.0001949e-05
1.0001529e-05
1.0001246e-05
1.000106e-05
1.0000978e-05
1.0000878e-05
1.000079e-05
1.0000727e-05
1.0000694e-05
1.0000686e-05
1.0000722e-05
1.0000792e-05
1.0000873e-05
1.0000889e-05
1.0000838e-05
1.0000901e-05
1.0000813e-05
1.0000919e-05
1.0001131e-05
1.0001288e-05
1.0001351e-05
1.0001466e-05
1.0001637e-05
1.0001802e-05
1.0001897e-05
1.000195e-05
1.0001904e-05
1.0001574e-05
1.0000993e-05
1.0000245e-05
0.0012472144
0.0025892995
0.0026878355
0.001622693
0.00026214807
1.3165703e-05
1.0222219e-05
1.0188705e-05
1.009623e-05
1.0086855e-05
1.0048608e-05
1.0047365e-05
1.0026805e-05
1.0025901e-05
1.0015953e-05
1.0012909e-05
1.0008215e-05
1.0005792e-05
1.0003731e-05
1.0002653e-05
1.0001925e-05
1.0001515e-05
1.0001242e-05
1.0001062e-05
1.0000977e-05
1.0000874e-05
1.0000785e-05
1.0000724e-05
1.0000693e-05
1.0000684e-05
1.0000718e-05
1.0000788e-05
1.000087e-05
1.0000886e-05
1.0000834e-05
1.0000899e-05
1.0000813e-05
1.0000915e-05
1.0001128e-05
1.0001287e-05
1.0001343e-05
1.0001461e-05
1.0001623e-05
1.0001793e-05
1.0001878e-05
1.0001916e-05
1.0001863e-05
1.0001542e-05
1.0000976e-05
1.0000238e-05
0.0012458082
0.0025497436
0.0025938298
0.0014224018
0.00019444129
1.1916766e-05
1.0216185e-05
1.0183959e-05
1.0094301e-05
1.00846e-05
1.0047941e-05
1.0046296e-05
1.0026682e-05
1.0025369e-05
1.001589e-05
1.0012679e-05
1.0008127e-05
1.0005684e-05
1.0003675e-05
1.0002607e-05
1.0001901e-05
1.0001501e-05
1.0001238e-05
1.0001064e-05
1.0000976e-05
1.000087e-05
1.0000781e-05
1.0000722e-05
1.0000691e-05
1.0000682e-05
1.0000714e-05
1.0000785e-05
1.0000867e-05
1.0000884e-05
1.0000831e-05
1.0000896e-05
1.0000813e-05
1.000091e-05
1.0001125e-05
1.0001286e-05
1.0001338e-05
1.0001453e-05
1.0001608e-05
1.0001775e-05
1.0001859e-05
1.000189e-05
1.0001828e-05
1.000151e-05
1.0000959e-05
1.0000232e-05
0.0012441084
0.0025043014
0.0024954546
0.0012349991
0.00014127575
1.1214897e-05
1.0210855e-05
1.0179182e-05
1.0092349e-05
1.0082378e-05
1.0047281e-05
1.0045254e-05
1.0026565e-05
1.0024856e-05
1.0015825e-05
1.0012457e-05
1.000804e-05
1.000558e-05
1.0003621e-05
1.0002562e-05
1.0001877e-05
1.0001487e-05
1.0001235e-05
1.0001066e-05
1.0000974e-05
1.0000866e-05
1.0000778e-05
1.000072e-05
1.000069e-05
1.000068e-05
1.0000711e-05
1.0000781e-05
1.0000864e-05
1.000088e-05
1.0000827e-05
1.0000893e-05
1.0000814e-05
1.0000905e-05
1.0001119e-05
1.0001286e-05
1.0001335e-05
1.0001444e-05
1.0001592e-05
1.0001759e-05
1.0001839e-05
1.0001879e-05
1.000179e-05
1.0001475e-05
1.0000943e-05
1.0000228e-05
0.0012419962
0.002453704
0.002390823
0.001058881
0.00010048916
1.0831203e-05
1.0205903e-05
1.0174376e-05
1.0090378e-05
1.0080195e-05
1.0046629e-05
1.004424e-05
1.0026456e-05
1.0024366e-05
1.0015758e-05
1.0012244e-05
1.0007954e-05
1.0005481e-05
1.0003566e-05
1.0002517e-05
1.0001852e-05
1.0001473e-05
1.0001231e-05
1.000107e-05
1.0000971e-05
1.0000863e-05
1.0000776e-05
1.0000718e-05
1.0000688e-05
1.0000678e-05
1.0000707e-05
1.0000777e-05
1.000086e-05
1.0000877e-05
1.0000824e-05
1.000089e-05
1.0000816e-05
1.00009e-05
1.0001113e-05
1.0001289e-05
1.0001334e-05
1.0001434e-05
1.0001569e-05
1.000174e-05
1.0001814e-05
1.0001876e-05
1.0001747e-05
1.0001439e-05
1.0000916e-05
1.0000224e-05
0.0012391494
0.0023969824
0.0022766455
0.00089496327
7.0265287e-05
1.0626585e-05
1.0201162e-05
1.0169546e-05
1.0088389e-05
1.007807e-05
1.0045985e-05
1.004326e-05
1.0026351e-05
1.0023903e-05
1.0015686e-05
1.001204e-05
1.0007867e-05
1.0005385e-05
1.0003513e-05
1.0002474e-05
1.0001828e-05
1.0001459e-05
1.0001228e-05
1.0001072e-05
1.0000969e-05
1.0000862e-05
1.0000775e-05
1.0000716e-05
1.0000685e-05
1.0000676e-05
1.0000704e-05
1.0000773e-05
1.0000856e-05
1.0000872e-05
1.0000821e-05
1.0000886e-05
1.0000816e-05
1.0000895e-05
1.0001105e-05
1.0001292e-05
1.0001335e-05
1.0001425e-05
1.0001541e-05
1.0001721e-05
1.000179e-05
1.0001833e-05
1.0001704e-05
1.0001397e-05
1.0000891e-05
1.000022e-05
0.0012355463
0.0023338076
0.0021434003
0.00074495232
4.8695831e-05
1.0517992e-05
1.0196548e-05
1.0164699e-05
1.0086388e-05
1.0075998e-05
1.0045352e-05
1.0042313e-05
1.0026255e-05
1.0023481e-05
1.0015612e-05
1.0011846e-05
1.0007782e-05
1.0005294e-05
1.000346e-05
1.0002431e-05
1.0001802e-05
1.0001445e-05
1.0001225e-05
1.0001075e-05
1.0000967e-05
1.0000861e-05
1.0000773e-05
1.0000712e-05
1.0000682e-05
1.0000674e-05
1.0000701e-05
1.000077e-05
1.0000851e-05
1.0000867e-05
1.0000818e-05
1.0000883e-05
1.0000817e-05
1.0000891e-05
1.0001095e-05
1.0001296e-05
1.0001336e-05
1.0001417e-05
1.0001516e-05
1.0001695e-05
1.000177e-05
1.0001787e-05
1.0001661e-05
1.0001347e-05
1.0000866e-05
1.0000216e-05
0.0012315925
0.0022664995
0.0019959997
0.00061163614
3.4056849e-05
1.0459161e-05
1.0192015e-05
1.0159845e-05
1.0084385e-05
1.0073957e-05
1.0044732e-05
1.0041399e-05
1.0026167e-05
1.0023081e-05
1.0015533e-05
1.0011661e-05
1.0007697e-05
1.0005206e-05
1.0003407e-05
1.0002389e-05
1.0001777e-05
1.0001431e-05
1.0001223e-05
1.0001077e-05
1.0000968e-05
1.0000862e-05
1.0000771e-05
1.0000706e-05
1.0000678e-05
1.0000672e-05
1.0000699e-05
1.0000766e-05
1.0000846e-05
1.0000862e-05
1.0000816e-05
1.0000879e-05
1.0000818e-05
1.0000888e-05
1.0001085e-05
1.0001298e-05
1.0001337e-05
1.0001409e-05
1.0001492e-05
1.0001655e-05
1.000175e-05
1.0001743e-05
1.0001617e-05
1.0001301e-05
1.0000838e-05
1.0000212e-05
0.001227485
0.0021960061
0.0018354598
0.00049493084
2.4703253e-05
1.0425186e-05
1.0187516e-05
1.0154987e-05
1.0082384e-05
1.0071955e-05
1.0044128e-05
1.0040519e-05
1.0026089e-05
1.0022699e-05
1.0015452e-05
1.0011486e-05
1.0007613e-05
1.0005122e-05
1.0003354e-05
1.0002346e-05
1.000175e-05
1.0001417e-05
1.0001221e-05
1.0001079e-05
1.000097e-05
1.0000863e-05
1.0000767e-05
1.00007e-05
1.0000673e-05
1.000067e-05
1.0000697e-05
1.0000762e-05
1.0000841e-05
1.0000855e-05
1.0000813e-05
1.0000875e-05
1.0000819e-05
1.0000886e-05
1.0001072e-05
1.0001299e-05
1.0001336e-05
1.0001404e-05
1.0001472e-05
1.000161e-05
1.0001716e-05
1.0001719e-05
1.0001569e-05
1.0001258e-05
1.0000808e-05
1.0000208e-05
0.0012231998
0.0021220325
0.0016731523
0.00039695125
1.9211079e-05
1.0403256e-05
1.0183007e-05
1.0150134e-05
1.0080389e-05
1.0069995e-05
1.0043539e-05
1.0039677e-05
1.0026021e-05
1.0022337e-05
1.0015368e-05
1.0011321e-05
1.000753e-05
1.0005041e-05
1.0003301e-05
1.0002304e-05
1.0001724e-05
1.0001404e-05
1.000122e-05
1.0001084e-05
1.0000974e-05
1.0000863e-05
1.000076e-05
1.0000693e-05
1.0000667e-05
1.0000668e-05
1.0000695e-05
1.0000759e-05
1.0000835e-05
1.0000849e-05
1.0000811e-05
1.0000871e-05
1.0000821e-05
1.0000884e-05
1.0001056e-05
1.0001295e-05
1.0001333e-05
1.0001399e-05
1.0001458e-05
1.000158e-05
1.0001688e-05
1.00017e-05
1.0001543e-05
1.0001218e-05
1.0000775e-05
1.0000203e-05
0.0012186167
0.0020400195
0.0015117911
0.00031186759
1.5656801e-05
1.0386743e-05
1.0178455e-05
1.0145292e-05
1.0078405e-05
1.0068079e-05
1.004297e-05
1.0038879e-05
1.0025965e-05
1.0021995e-05
1.001528e-05
1.0011166e-05
1.0007448e-05
1.0004962e-05
1.0003247e-05
1.0002261e-05
1.0001697e-05
1.0001391e-05
1.0001219e-05
1.0001087e-05
1.0000978e-05
1.000086e-05
1.0000754e-05
1.0000686e-05
1.000066e-05
1.0000665e-05
1.0000694e-05
1.0000755e-05
1.0000829e-05
1.0000841e-05
1.0000808e-05
1.0000866e-05
1.0000822e-05
1.0000884e-05
1.0001038e-05
1.0001278e-05
1.0001325e-05
1.0001393e-05
1.0001448e-05
1.000156e-05
1.0001659e-05
1.0001652e-05
1.0001501e-05
1.0001177e-05
1.0000741e-05
1.0000197e-05
0.0012151691
0.0019577582
0.0013483995
0.00023993494
1.3460421e-05
1.0372913e-05
1.0173839e-05
1.0140468e-05
1.0076442e-05
1.0066211e-05
1.0042423e-05
1.0038142e-05
1.0025922e-05
1.0021673e-05
1.0015191e-05
1.0011021e-05
1.0007366e-05
1.0004886e-05
1.0003194e-05
1.0002219e-05
1.0001671e-05
1.0001379e-05
1.0001217e-05
1.0001089e-05
1.0000982e-05
1.0000855e-05
1.0000747e-05
1.0000679e-05
1.0000654e-05
1.0000662e-05
1.0000693e-05
1.0000752e-05
1.0000823e-05
1.0000833e-05
1.0000805e-05
1.0000862e-05
1.0000823e-05
1.0000884e-05
1.0001022e-05
1.0001242e-05
1.0001314e-05
1.0001385e-05
1.000144e-05
1.0001552e-05
1.0001633e-05
1.000161e-05
1.0001467e-05
1.0001139e-05
1.0000708e-05
1.000019e-05
0.0012134126
0.0018788739
0.0011870457
0.00018067919
1.2146526e-05
1.0360052e-05
1.0169142e-05
1.0135669e-05
1.0074502e-05
1.0064393e-05
1.00419e-05
1.0037434e-05
1.0025893e-05
1.0021373e-05
1.0015099e-05
1.0010885e-05
1.0007286e-05
1.0004811e-05
1.000314e-05
1.0002176e-05
1.0001645e-05
1.0001367e-05
1.0001212e-05
1.000109e-05
1.0000982e-05
1.0000849e-05
1.000074e-05
1.0000672e-05
1.0000648e-05
1.0000659e-05
1.0000692e-05
1.0000749e-05
1.0000816e-05
1.0000824e-05
1.0000802e-05
1.0000858e-05
1.0000824e-05
1.0000885e-05
1.0001012e-05
1.0001206e-05
1.00013e-05
1.0001373e-05
1.0001428e-05
1.0001549e-05
1.0001609e-05
1.0001596e-05
1.0001432e-05
1.0001104e-05
1.0000679e-05
1.0000184e-05
0.0012126912
0.0017944373
0.0010300996
0.00013315381
1.1384253e-05
1.0347155e-05
1.0164358e-05
1.0130904e-05
1.0072593e-05
1.0062631e-05
1.0041404e-05
1.0036763e-05
1.0025877e-05
1.0021095e-05
1.0015007e-05
1.0010757e-05
1.0007206e-05
1.0004738e-05
1.0003085e-05
1.0002134e-05
1.0001619e-05
1.0001353e-05
1.0001205e-05