/*--------------------------------*- C++ -*----------------------------------*\
  =========                 |
  \\      /  F ield         | OpenFOAM: The Open Source CFD Toolbox
   \\    /   O peration     | Website:  https://openfoam.org
    \\  /    A nd           | Version:  8
     \\/     M anipulation  |
\*---------------------------------------------------------------------------*/
FoamFile
{
    version     2.0;
    format      ascii;
    class       volScalarField;
    location    "0.280002";
    object      p;
}
// * * * * * * * * * * * * * * * * * * * * * * * * * * * * * * * * * * * * * //

dimensions      [1 -1 -2 0 0 0 0];

internalField   nonuniform List<scalar> 
20000
(
55588.77
55604.732
55623.547
55649.605
55685.207
55732.395
55797.39
55874.782
55971.603
56086.25
56222.49
56391.091
56584.389
56830.787
57108.983
57466.656
57871.781
58388.628
58982.612
59729.082
60602.126
61681.095
62956.702
64502.669
66322.698
68467.686
70926.777
73687.533
76681.134
79827.657
83005.014
86045.318
88768.028
91081.576
92972.096
94483.068
95673.385
96607.399
97336.727
97914.647
98370.491
98735.921
99040.64
99289.275
99483.085
99636.408
99841.332
100033.89
100146.63
100368.11
55760.884
55777.515
55797.115
55823.752
55860.097
55908.531
55975.732
56056.072
56155.978
56274.481
56415.076
56589.987
56789.757
57045.666
57333.35
57704.507
58123.521
58659.099
59273.767
60046.686
60950.311
62065.915
63383.587
64976.39
66846.644
69039.837
71536.789
74310.122
77276.9
80347.385
83408.334
86323.021
88944.313
91188.895
93037.054
94522.911
95697.971
96622.825
97347.383
97922.364
98376.561
98742.108
99046.959
99294.914
99486.84
99642.66
99851.151
100043.63
100185.12
100367.02
55936.231
55952.694
55973.157
56000.982
56038.844
56089.415
56159.435
56242.692
56346.278
56469.303
56614.83
56796.445
57003.055
57268.582
57565.899
57950.486
58383.578
58938.126
59574.003
60374.065
61309.003
62462.269
63823.025
65464.325
67386.597
69630.369
72167.451
74956.462
77901.332
80904.226
83858.589
86652.378
89167.939
91334.288
93129.842
94582.32
95736.029
96647.534
97364.306
97934.294
98385.547
98750.298
99054.636
99301.412
99491.057
99649.14
99860.991
100055.94
100219.6
100366.31
56122.027
56138.515
56159.429
56188.312
56227.659
56280.308
56353.013
56439.137
56546.434
56674.145
56824.707
57013.134
57226.529
57501.752
57808.728
58207.042
58654.619
59228.837
59886.774
60714.943
61682.214
62874.254
64279.393
65970.728
67946.655
70242.526
72820.726
75626.503
78552.157
81493.731
84350.208
87028.97
89437.486
91519.15
93253.975
94664.956
95790.914
96684.431
97389.982
97952.533
98399.201
98761.979
99064.956
99309.825
99496.51
99656.244
99871.13
100072.41
100245.78
100366
56313.016
56332.347
56354.149
56384.301
56425.372
56480.432
56556.206
56645.555
56756.582
56888.961
57044.521
57239.812
57460.052
57745.255
58062.31
58475.049
58938.014
59533.01
60214.3
61071.943
62073.132
63305.715
64757.378
66501.075
68532.991
70882.633
73502.358
76324.255
79230.349
82112.36
84874.945
87441.959
89742.629
91735.094
93403.006
94766.581
95859.859
96731.606
97422.998
97975.998
98416.639
98776.358
99077.225
99319.594
99502.774
99663.602
99882.519
100093.26
100265.71
100365.9
56515.687
56536.163
56558.496
56590.014
56632.841
56690.292
56769.119
56861.631
56976.281
57113.217
57273.752
57476.118
57703.486
57999.221
58326.996
58755.042
59234.381
59851.319
60557.268
61445.774
62482.547
63757.605
65258.127
67056.654
69146.885
71551.634
74212.561
77048.839
79933.681
82756.324
85427.55
87885.579
90078.504
91978.845
93575.181
94886.303
95942.49
96788.958
97463.417
98004.827
98438.02
98793.618
99091.644
99330.894
99510.016
99671.599
99895.973
100116.9
100279.88
100366.12
56725.695
56747.609
56770.335
56803.217
56847.894
56907.794
56989.713
57085.365
57203.961
57345.856
57511.758
57721.736
57956.763
58263.756
58603.021
59047.32
59544.08
60184.132
60916.068
61836.906
62911.148
64230.925
65782.975
67639.094
69790.095
72251.071
74952.236
77800.122
80660.615
83422.276
86002.807
88353.517
90439.078
92245.538
93766.978
95021.807
96037.334
96855.535
97510.622
98038.613
98463.058
98813.547
99108.046
99343.569
99518.234
99680.774
99912.694
100140.05
100291.06
100367.06
56942.794
56966.62
56989.766
57023.923
57070.525
57133.008
57218.264
57317.28
57440.065
57587.255
57758.875
57976.992
58220.216
58539.189
58890.677
59352.124
59867.289
60531.582
61290.834
62245.554
63359.326
64726.266
66332.667
68249.22
70463.306
72981.178
75720.851
78576.668
81408.765
84106.823
86596.328
88840.811
90819.637
92531.363
93975.671
95171.268
96143.219
96930.603
97564.172
98077.099
98491.601
98836.067
99126.365
99357.505
99527.545
99692.014
99933.762
100160.89
100300.29
100368.25
57166.009
57191.622
57215.82
57251.455
57300.307
57365.719
57454.729
57557.45
57684.776
57837.631
58015.326
58242.136
58494.099
58825.728
59190.12
59669.553
60204.111
60893.758
61681.7
62671.997
63827.602
65244.359
66908.123
68888.015
71167.356
73742.243
76517.889
79377.048
82175.811
84806.737
87204.013
89342.809
91215.643
92832.471
94198.329
95332.626
96258.761
97013.243
97623.473
98119.906
98523.403
98861.021
99146.44
99372.478
99538.07
99706.423
99959.373
100178.98
100308.23
100369.48
57399.066
57424.939
57450.62
57487.884
57539.093
57607.33
57699.963
57806.384
57938.427
58097.286
58281.403
58517.422
58778.59
59123.467
59501.389
59999.648
60554.582
61270.731
62088.872
63116.662
64316.634
65786.027
67510.253
69556.375
71902.815
74534.157
77342.335
80199.387
82959.167
85518.842
87822.15
89855.464
91623.148
93145.451
94432.295
95503.95
96382.617
97102.549
97687.935
98166.655
98558.225
98888.261
99168.104
99388.244
99549.999
99725.292
99987.693
100195.73
100315.22
100370.58
57640.182
57666.682
57693.593
57732.375
57785.939
57856.856
57953.181
58063.584
58200.861
58366.342
58557.29
58802.922
59073.629
59432.307
59824.451
60342.427
60918.767
61662.628
62512.653
63580.097
64827.181
66352.174
68140.052
70255.258
72670.254
75356.713
78193.03
81041.691
83756.213
86240.051
88447.279
90375.079
92038.542
93467.132
94675.02
95683.334
96513.424
97197.576
97756.923
98216.932
98595.803
98917.617
99191.166
99404.565
99563.603
99749.988
100017.73
100211.82
100321.54
100371.47
57887.585
57915.176
57943.652
57984.298
58040.651
58114.633
58215.635
58330.284
58472.849
58645.085
58842.904
59098.379
59378.988
59752.161
60159.33
60697.938
61296.733
62069.663
62953.545
64063.061
65360.173
66943.826
68798.603
70985.609
73470.089
76209.418
79068.489
81901.697
84564.197
86967.341
89076.184
90898.342
92458.613
93794.659
94924.168
95868.98
96649.864
97297.39
97829.799
98270.312
98635.862
98948.909
99215.436
99421.303
99579.279
99781.788
100048.83
100227.56
100327.31
100372.07
58145.661
58174.22
58204.082
58246.359
58305.382
58382.271
58487.693
58606.23
58753.631
58932.588
59137.531
59403.444
59694.632
60083.126
60506.107
61066.22
61688.631
62492.232
63412.217
64566.409
65916.583
67562.06
69487.06
71748.398
74302.654
77091.611
79967.049
82777.005
85380.333
87697.766
89705.857
91422.229
92880.465
94125.445
95177.582
96059.193
96790.664
97401.07
97905.921
98326.36
98678.117
98981.935
99240.72
99438.479
99597.617
99821.58
100080.43
100242.99
100332.54
100372.15
58408.444
58438.173
58469.529
58513.582
58575.552
58655.315
58765.972
58889.293
59042.136
59228.473
59441.218
59718.395
60020.827
60425.323
60864.777
61447.316
62094.759
62930.948
63889.537
65091.135
66497.494
68208.069
70206.643
72544.547
75168.055
78002.301
80886.723
83664.992
86201.748
88428.444
90333.487
91944.014
93301.519
94457.179
95433.308
96252.403
96934.62
97507.729
97984.658
98384.646
98722.279
99016.467
99266.806
99456.301
99619.541
99869.035
100112.08
100258.14
100337.17
100371.75
58676.606
58707.79
58740.932
58787.15
58852.908
58936.539
59051.673
59180.469
59339.442
59533.704
59754.621
60043.542
60357.61
60778.64
61235.29
61841.448
62515.69
63386.647
64386.453
65638.238
67104.011
68883.113
70958.629
73374.941
76066.247
78940.281
81825.321
84562.916
87025.553
89156.59
90956.451
92461.217
93719.465
94787.795
95689.579
96447.164
97080.6
97616.519
98065.4
98444.746
98768.06
99052.244
99293.431
99475.117
99646.417
99921.214
100144.23
100273.25
100340.94
100370.5
58954.767
58987.217
59021.971
59070.207
59139.557
59226.558
59346.09
59480.373
59645.849
59848.429
60077.658
60378.607
60704.669
61142.909
61617.809
62249.152
62952.281
63860.302
64903.979
66208.808
67737.379
69588.586
71744.334
74240.305
76996.859
79903.954
82780.323
85467.839
87848.818
89879.504
91572.307
92971.6
94132.258
95115.47
95944.821
96642.167
97227.557
97726.642
98147.564
98506.255
98815.174
99088.979
99320.261
99495.271
99679.896
99973.863
100176.9
100288.65
100343.63
100367.75
59239.661
59273.737
59310.375
59360.909
59434.377
59525.291
59649.894
59789.058
59960.834
60172.013
60409.757
60723.161
61061.81
61518.311
62012.908
62671.325
63405.522
64352.851
65443.069
66803.946
68398.933
70325.981
72565.096
75141.239
77959.283
80891.471
83749.039
86376.758
88668.663
90594.616
92178.796
93473.145
94538.088
95438.603
96197.64
96836.229
97374.533
97837.354
98230.599
98568.787
98863.348
99126.368
99346.91
99516.94
99721.382
100022.93
100208.7
100304.6
100345.81
100362.51
59533.186
59568.931
59607.257
59659.921
59737.556
59832.473
59961.798
60106.024
60283.734
60503.775
60750.533
61077.175
61429.384
61905.546
62421.568
63108.995
63876.368
64865.194
66004.755
67424.935
69090.192
71096.895
73422.193
76078.054
78952.472
81900.546
84728.464
87286.534
89482.209
91299.462
92773.834
93964.051
94935.377
95755.812
96446.819
97028.299
97520.661
97947.971
98313.994
98631.983
98912.322
99164.119
99373.039
99540.069
99771.036
100065.65
100237.35
100320.25
100348.03
100353.25
59830.969
59868.542
59908.656
59963.657
60045.554
60144.767
60278.918
60429.94
60614.325
60843.896
61100.361
61441.276
61808.24
62305.678
62844.871
63563.114
64365.613
65398.166
66590.127
68073.178
69812.774
71903.013
74316.824
77050.874
79975.076
82928.656
85715.462
88194.031
90286.674
91991.722
93355.517
94442.724
95322.76
96065.913
96691.303
97217.445
97665.159
98057.872
98397.282
98695.511
98961.842
99201.965
99398.515
99564.607
99824.708
100103.62
100260.63
100332.5
100352.86
100337.84
60134.111
60173.761
60215.948
60273.821
60360.395
60464.186
60603.524
60761.781
60953.413
61193.216
61460.106
61816.459
62199.517
62719.819
63283.745
64034.351
64873.938
65952.719
67200.522
68750.288
70568.464
72746.017
75250.003
78059.359
81025.244
83972.824
86706.64
89096.038
91079.318
92669.197
93922.118
94907.778
95699.08
96367.914
96930.195
97402.856
97807.337
98166.499
98480.037
98759.064
99011.644
99239.661
99423.567
99591.179
99879.65
100137.5
100278.46
100340.1
100355.68
100317.57
60444.814
60486.538
60530.772
60591.538
60683.002
60791.393
60936.1
61102.088
61301.384
61552.401
61830.764
62203.898
62604.314
63148.807
63738.739
64523.201
65402.078
66529.999
67837.462
69458.012
71359.142
73627.618
76222.575
79102.868
82100.789
85029.847
87698.547
89989.395
91857.525
93329.857
94472.095
95358.03
96063.373
96660.985
97162.734
97583.829
97946.584
98273.358
98561.885
98822.359
99061.443
99276.946
99448.815
99621.817
99933.031
100167.47
100291.78
100343.74
100357.04
100293.8
60761.642
60805.809
60852.489
60916.668
61013.417
61126.867
61277.753
61452.464
61659.297
61922.605
62213.497
62604.644
63023.303
63592.973
64210.117
65030.157
65951.02
67131.472
68502.699
70198.267
72186.779
74549.432
77235.009
80180.186
83198.955
86096.138
88687.545
90870.904
92618.761
93971.832
95004.104
95792.5
96414.87
96944.451
97388.294
97759.783
98082.368
98378.022
98642.5
98885.141
99110.927
99313.501
99475.072
99659.866
99982.042
100193.33
100302.05
100345.28
100357.54
100267.58
61089.734
61136.123
61184.851
61252.041
61353.653
61472.159
61629.84
61814.034
62029.11
62305.334
62609.184
63019.025
63456.495
64052.312
64698.191
65556.073
66522.14
67758.837
69198.105
70973.062
73053.432
75512.996
78287.497
81289.709
84316.658
87167.943
89669.958
91737.425
93360.64
94593.479
95517.03
96210.383
96752.969
97217.766
97606.364
97930.244
98214.241
98480.124
98721.603
98947.178
99159.767
99348.96
99502.964
99708.109
100024.87
100214.97
100310.24
100345.86
100357.65
100241.02
61424.04
61473.275
61524.829
61596.069
61703.658
61828.806
61993.306
62186.748
62410.746
62701.093
63017.616
63446.652
63903.626
64526.999
65203.713
66102.25
67117.128
68413.971
69925.657
71784.529
73961.153
76519.597
79379.657
82429.167
85450.252
88241.148
90641.923
92585.794
94080.926
95193.413
96010.014
96611.03
97077.218
97480.524
97816.552
98094.843
98341.842
98579.357
98798.965
99008.262
99207.646
99383.023
99532.697
99764.85
100062.99
100232.6
100314.33
100346
100355.71
100215.68
61770.209
61822.242
61876.584
61951.994
62065.645
62197.168
62367.705
62569.983
62802.357
63107.654
63437.812
63887.207
64364.993
65017.828
65728.026
66670.388
67737.858
69098.788
70687.414
72634.901
74912.049
77570.295
80510.723
83595.825
86595.79
89311.479
91599.541
93412.977
94777.668
95770.573
96482.45
96993.915
97387.272
97732.474
98018.582
98253.269
98464.902
98675.462
98874.397
99068.197
99254.287
99415.635
99564.35
99825.234
100098.85
100248.41
100316.14
100341.52
100348.13
100191.41
62123.372
62178.192
62235.174
62314.781
62434.446
62572.333
62749.938
62962.342
63204.108
63525.344
63869.806
64341.189
64841.525
65526.219
66272.84
67262.329
68386.224
69815.265
71485.561
73526.554
75908.098
78665.709
81679.174
84786.262
87748.789
90374.344
92538.856
94216.211
95449.33
96324.186
96933.897
97358.653
97682.863
97973.569
98212.322
98405.22
98583.227
98768.234
98947.743
99126.782
99299.449
99447.172
99598.663
99885.372
100131.86
100262.74
100316.79
100335.38
100333.22
100168.92
62482.485
62540.623
62600.844
62685.395
62811.713
62956.636
63142.063
63365.639
63617.695
63956.16
64314.398
64809.478
65334.605
66053.963
66840.021
67879.902
69064.07
70565.431
72322.442
74461.995
76951.196
79806.04
82882.951
85996.584
88904.46
91425.086
93456.202
94993.396
96094.967
96853.655
97363.855
97705.054
97963.814
98203.946
98397.76
98550.368
98696.642
98857.526
99018.875
99183.789
99342.902
99478.459
99637.754
99941.744
100159.51
100272.3
100316.91
100330.88
100309.75
100148.26
62852.972
62914.343
62977.651
63067.049
63199.892
63351.808
63544.898
63780.108
64043.031
64400.024
64773.494
65293.849
65846.11
66602.887
67431.311
68524.812
69773.309
71351.518
73200.654
75443.809
78042.914
80990.752
84119.125
87222.135
90057.532
92458.979
94348.506
95743.369
96714.162
97358.298
97771.528
98033.214
98230.179
98423.843
98574.938
98688.443
98804.907
98943.269
99087.689
99238.968
99384.393
99510.531
99685.027
99991.133
100180.98
100276.95
100315.62
100326.52
100278.61
100129.62
63230.343
63295.29
63362.136
63457.053
63597.242
63757.061
63958.2
64205.864
64480.737
64857.125
65248.307
65796.744
66377.949
67174.568
68048.211
69198.753
70515.988
72175.998
74123.024
76474.616
79184.52
82218.729
85384.144
88457.781
91202.617
93471.756
95213.874
96465.95
97306.569
97837.113
98155.881
98343.501
98482.484
98633.358
98743.735
98819.451
98907.683
99025.472
99154.106
99292.06
99423.683
99544.144
99742.667
100031.86
100197.92
100279.02
100312.22
100320.97
100245.02
100112.98
63616.046
63684.911
63755.765
63856.696
64004.763
64173.141
64383.155
64644.587
64932.566
65329.254
65739.668
66319.789
66931.608
67770.308
68692.187
69903.571
71294.472
73041.69
75092.582
77556.878
80376.618
83487.891
86673.478
89697.698
92334.196
94459.918
96051.661
97160.939
97870.718
98288.708
98516.522
98636.315
98721.883
98832.23
98903.657
98943.917
99004.69
99104.193
99218.065
99342.846
99460.695
99579.495
99804.733
100068.32
100212.79
100279.71
100306.53
100313.71
100213.42
100098.23
64011.414
64084.542
64159.872
64267.132
64423.594
64601.58
64821.627
65098.326
65400.38
65818.765
66249.984
66862.879
67507.822
68391.423
69364.952
70641.443
72111.47
73951.724
76112.509
78692.861
81619.221
84795.402
87981.966
90935.851
93447.235
95421.374
96861.847
97825.908
98403.946
98712.223
98854.448
98911.682
98949.762
99019.848
99053.959
99062.716
99096.139
99179.454
99279.513
99391.176
99495.745
99616.852
99867.135
100101.57
100226.34
100279.77
100298.7
100303.31
100185.85
100085.39
64420.472
64498.094
64578.228
64691.787
64856.992
65045.323
65275.759
65568.516
65885.064
66326.636
66780.132
67427.233
68107.679
69039.436
70068.63
71414.959
72970.093
74909.513
77186.003
79884.319
82911.369
86137.26
89303.548
92165.942
94537.467
96355.376
97642.559
98456.9
98903.787
99107.471
99171.863
99169.223
99166.214
99195.777
99194.798
99176.06
99183.198
99251.144
99338.387
99436.96
99529.702
99657.772
99926.364
100129.8
100234.69
100277.15
100290.48
100287.1
100161.93
100074.4
64843.148
64925.424
65010.685
65130.89
65305.691
65504.6
65745.329
66054.881
66386.754
66853.313
67331.134
68014.811
68732.508
69716.226
70805.724
72227.113
73873.767
75918.699
78316.158
81132.516
84251.229
87508.631
90631.666
93382.049
95602.029
97261.603
98388.666
99050.247
99368.502
99476.156
99471.441
99409.324
99369.574
99363.017
99326.408
99281.676
99267.693
99319.015
99394.583
99480.12
99563.867
99705.563
99978.327
100151.8
100238.64
100273.4
100283.46
100263.36
100141.22
100065.1
65275.574
65362.991
65454.253
65582.075
65767.134
65977.633
66229.624
66557.661
66906.456
67399.937
67904.423
68627.175
69384.375
70424.157
71579.158
73081.275
74826.242
76983.026
79505.752
82437.761
85635.707
88903.483
91959.232
94578.781
96639.447
98136.693
99094.9
99602.294
99799.812
99824.862
99751.619
99635.443
99559.271
99520.276
99449.698
99379.274
99349.898
99382.908
99447.935
99520.561
99599.392
99762.809
100020.44
100168.68
100240.34
100268.89
100276.49
100234.72
100123.23
100057.23
65719.143
65812.318
65910.65
66046.83
66242.605
66466.262
66730.533
67078.721
67445.759
67968.204
68501.206
69264.971
70066.554
71166.028
72392.264
73981.141
75831.504
78106.261
80757.163
83799.492
87060.624
90315.041
93279.292
95751.979
97649.011
98973.918
99756.495
100112.09
100205.97
100151.48
100012.94
99847.862
99736.057
99667.855
99564.384
99470.228
99429.026
99443.2
99498.209
99558.287
99636.675
99824.275
100056.42
100182.78
100240.89
100263.53
100269.36
100205.16
100107.54
100050.51
66178.228
66277.443
66383.333
66528.037
66734.705
66972.391
67249.619
67619.616
68006.04
68559.739
69123.17
69930.681
70780.972
71944.8
73248.806
74930.768
76893.704
79292.053
82072.019
85215.857
88520.391
91735.64
94585.218
96898.787
98627.186
99766.043
100369.79
100586.17
100588.33
100455.56
100255.93
100046.72
99900.983
99806.002
99671.073
99555.376
99503.412
99501.076
99545.164
99593.724
99675.705
99885.297
100088.29
100195.31
100240.93
100257.25
100261.35
100178.12
100093.71
100044.61
66652.614
66758.23
66872.079
67025.604
67243.717
67496.829
67788.015
68181.719
68588.806
69175.767
69771.865
70626.46
71530.446
72764.395
74152.985
75934.435
78017.081
80543.827
83451.146
86683.822
90008.415
93157.466
95871.46
98017.705
99565.951
100507.22
100934.26
101033.95
100944.24
100737.61
100481.44
100231.87
100055.26
99935.146
99770.656
99635.416
99571.361
99557.697
99588.729
99628.045
99717.327
99942.452
100114.93
100203.11
100238.68
100249.8
100250.12
100154.3
100081.68
100039.46
67142.18
67254.837
67377.512
67541.198
67771.724
68041.607
68347.325
68766.268
69195.245
69817.573
70449.367
71355.383
72318.917
73628.98
75109.221
76996.583
79205.865
81864.5
84894.104
88198.686
91516.826
94572.681
97133.575
99106.185
100455.49
101193.15
101458.92
101454.12
101274.1
100998.52
100690.27
100403.83
100199.62
100055.73
99863.643
99710.15
99633.877
99612.519
99629.276
99662.967
99764.126
99991.779
100135.5
100206.73
100235
100243.15
100232.39
100133.87
100071.42
100035.06
67648.548
67768.999
67901.344
68076.017
68319.017
68607.231
68928.042
69373.958
69826.395
70487.405
71159.041
72121.646
73151.014
74542.68
76121.999
78121.829
80464.251
83256.298
86399.227
89754.333
93037.122
95974.179
98368.556
100155.55
101288.96
101823.17
101953.59
101843.76
101578.73
101239.28
100883.3
100563.37
100334.63
100168.21
99950.317
99779.554
99691.846
99664.407
99667.786
99699.682
99818.404
100030.43
100150.91
100208.21
100230.59
100236.48
100208.53
100116.67
100062.7
100031.32
68172.792
68301.45
68444.543
68631.52
68886.612
69194.328
69530.884
70006.334
70484.721
71189.189
71905.577
72929.905
74031.128
75509.759
77195.936
79315.081
81796.189
84720.393
87963.056
91343.08
94560.255
97355.635
99573.686
101154.32
102061.1
102406.54
102416.97
102203.41
101859.26
101460.94
101061.39
100711.28
100460.82
100273.07
100031.06
99844.22
99745.747
99711.639
99705.483
99737.75
99874.831
100062.34
100163.04
100208.68
100225.72
100229.91
100182.44
100102.04
100055.23
100028.04
68714.246
68851.938
69006.401
69206.526
69474.098
69803.632
70157.984
70667.023
71175.157
71927.931
72693.864
73784.448
74963.2
76534.805
78335.985
80581.445
83205.234
86256.703
89580.5
92956.154
96077.613
98711.948
100741.74
102092.8
102769.33
102954.95
102845.8
102534.15
102116.9
101664.6
101225.46
100848.36
100578.71
100370.8
100106.31
99904.596
99795.951
99754.087
99742.279
99775.977
99929.712
100090.09
100173.25
100208.71
100220.61
100223.13
100158.26
100088.98
100048.68
100025.15
69274.388
69422.174
69588.797
69803.372
70084.606
70439.469
70814.732
71362.007
71903.349
72708.262
73527.9
74689.142
75951.621
77622.753
79547.559
81926.04
84694.108
87863.363
91244.471
94583.683
97581.083
100039.06
101860.35
102964.34
103422.25
103468.19
103240.31
102837.33
102352.92
101851.33
101376.41
100975.38
100688.84
100461.89
100176.4
99960.53
99842.013
99793.204
99777.984
99814.082
99980.474
100113.98
100181.38
100207.62
100215.49
100213.85
100137.03
100077.64
100043.02
100022.71
69854.774
70014.75
70195.166
70426.975
70724.632
71108.78
71507.581
72096.073
72673.206
73533.082
74410.774
75647.778
77001.816
78779.536
80836.335
83353.699
86264.362
89536.677
92946.358
96215.677
99063.599
101332.01
102916.03
103764.62
104032.11
103943.14
103601.73
103114.44
102568.65
102022.25
101515.15
101093.09
100791.73
100546.77
100241.36
100011.81
99884.22
99830.09
99812.981
99855.017
100024.2
100132.6
100185.55
100205.52
100211.01
100199.21
100119.32
100068.35
100038.48
100020.79
70469.98
70642.324
70836.073
71087.235
71402.319
71817.434
72239.49
72871.382
73485.146
74405.13
75346.253
76664.754
78120.788
80011.669
82208.103
84868.588
87915.818
91270.591
94675.873
97842.274
100519
102578.11
103900.19
104498.92
104602.62
104378.92
103931.64
103367.02
102765.4
102178.43
101642.57
101202.18
100887.87
100625.76
100301
100058.43
99923.164
99865.704
99848.137
99902.087
100058.11
100146.25
100187.38
100202.68
100206.57
100179.44
100105.08
100060.99
100035
100019.45
71114.244
71301.045
71510.417
71785.088
72117.245
72564.324
73009.887
73687.864
74342.923
75327.477
76339.918
77747.335
79314.142
81325.798
83668.643
86473.938
89646.378
93056.99
96421.88
99454.364
101942.03
103761.96
104806.37
105179.46
105131.2
104776.85
104231.78
103596.66
102944.48
102320.96
101759.55
101303.35
100977.75
100699.05
100355.06
100100.67
99959.572
99900.763
99884.008
99950.375
100085.05
100156.43
100188
100199.27
100201.92
100158.16
100093.14
100054.88
100032.3
100018.65
71790.293
71992.877
72218.349
72516.894
72864.998
73348.045
73819.368
74550.242
75251.331
76306.515
77398.636
78902.547
80588.549
82728.544
85223.489
88171.485
91451.414
94885.482
98172.669
101043.13
103322.52
104870.69
105634.62
105815.77
105615.21
105138.68
104504
103804.94
103107.19
102450.88
101866.92
101397.26
101061.85
100766.81
100403.38
100139.04
99994.133
99935.562
99920.398
99995.902
100107.33
100164.33
100188.11
100195.6
100196.25
100138.59
100082.64
100049.67
100030.13
100018.28
72491.746
72712.614
72954.89
73280.164
73648.045
74173.778
74675.147
75464.793
76218.863
77349.44
78529.139
80137.05
81950.637
84226.899
86877.649
89961.077
93323.814
96744.263
99917.152
102601.09
104643.85
105895.89
106396.23
106406.14
106055.98
105466.48
104750.19
103993.47
103254.8
102569.2
101965.51
101484.56
101140.7
100829.25
100445.96
100174.2
100027.4
99970.019
99956.639
100036.9
100125.92
100170.26
100187.88
100193.03
100187.51
100121.73
100073.74
100045.35
100028.43
100018.12
73229.173
73471.485
73732.56
74088.88
74477.883
75051.404
75585.427
76439.158
77252.068
78462.929
79738.407
81456.627
83407.905
85828.233
88634.911
91839.708
95253.522
98620.142
101644.51
104120.4
105887.17
106832.07
107106.79
106946.16
106455.46
105762.39
104972.26
104163.79
103388.56
102676.91
102056.11
101565.9
101214.81
100886.5
100483.01
100206.8
100059.8
100004.02
99992.225
100072.81
100141.4
100174.81
100187.57
100191.18
100174.34
100108.07
100066.63
100041.91
100027.1
100018.07
74012.119
74278.125
74559.185
74950.935
75361.344
75987.332
76555.644
77477.946
78356.742
79653.679
81034.098
82868.788
84968.999
87539.779
90496.939
93801.221
97228.081
100499.78
103344.39
105583.63
107041.46
107688.97
107766.01
107436.77
106816.02
106028.67
105172.11
104317.43
103509.63
102774.95
102139.49
101641.88
101284.47
100938.24
100515.29
100237.48
100091.7
100037.73
100027.23
100103
100154.26
100178.59
100187.31
100189.4
100157.97
100097.62
100061.27
100039.46
100026.24
100018.07
74841.941
75133.752
75435.972
75867.608
76300.517
76984.719
77592.216
78586.662
79539.102
80928.87
82423.636
84385.682
86643.866
89367.389
92462.237
95835.848
99232.832
102369.7
105006.89
106970.21
108098.52
108482.05
108370.09
107880.1
107140.15
106267.58
105351.6
104455.85
103619.18
102864.23
102216.4
101713.03
101349.61
100983.39
100544.48
100266.95
100123.43
100071.39
100062.09
100126.94
100164.64
100181.81
100187.21
100186.32
100142.01
100088.74
100056.74
100037.56
100025.85
100018.26
75720.027
76041.392
76366.84
76842.999
77299.146
78048.793
78700.016
79771.39
80806.796
82298.298
83919.876
86019.564
88441.535
91314.153
94525.55
97930.634
101252.14
104216.57
106617.45
108263.13
109062.28
109217.66
108917.83
108278.86
107430.52
106481.4
105512.55
104580.46
103718.29
102945.64
102287.57
101779.81
101409.87
101021.23
100572.41
100296
100155.19
100104.55
100095.67
100145.66
100172.58
100184.33
100187.91
100180.95
100127.78
100080.98
100052.81
100035.95
100025.7
100018.69
76653.779
77008.675
77358.822
77885.02
78362.784
79183.442
79885.699
81040.933
82170.759
83774.019
85538.694
87782.402
90368.65
93379.463
96677.401
100069.7
103270.03
106027.48
108153.49
109451.24
109947.35
109892.78
109411.48
108635.96
107689.79
106672.35
105656.73
104692.62
103808
103020.01
102353.67
101842.52
101464.94
101053.34
100599.47
100325.1
100186.72
100136.18
100126.32
100161.19
100179.05
100186.3
100188.3
100173.34
100115.84
100074.57
100049.67
100034.73
100025.68
100019.33
77644.943
78038.157
78413.225
78996.986
79500.245
80398.308
81161.138
82409.201
83647.202
85374.075
87291.343
89683.217
92428.695
95558.581
98904.451
102235.31
105270.77
107789.41
109591.36
110531.52
110767.54
110503.9
109854.03
108954.54
107920.67
106842.59
105785.8
104793.62
103889.32
103088.16
102415.33
101901.41
101514.76
101081.35
100626.11
100354.2
100217.3
100165.41
100153.5
100174.46
100185.1
100188.68
100188.44
100163.49
100106.14
100069.76
100047.62
100034.12
100025.7
100020.16
78699.747
79137.726
79536.925
80190.131
80723.717
81708.432
82543.527
83893.691
85253.302
87112.784
89188.215
91728.561
94621.626
97842.236
101189.55
104408.52
107237.8
109477.45
110916.91
111517.32
111520.62
111053.31
110248.91
109237.75
108125.79
106994.22
105901.37
104884.65
103963.2
103150.86
102473.1
101956.64
101559.54
101106.79
100652.68
100383.03
100246.25
100191.82
100177.38
100185.58
100190.87
100192.94
100187.28
100152.02
100098.71
100066.01
100046.09
100033.88
100026.17
100021.16
79829.635
80323.152
80748.713
81481.788
82051.099
83132.839
84053.551
85513.456
87005.04
88999.725
91237.266
93922.448
96943.282
100216.47
103512.62
106569.93
109154.61
111064.37
112121.17
112428.81
112201.01
111544.35
110599.8
109488.82
108307.74
107129.25
106004.97
104966.9
104030.54
103208.85
102527.45
102008.37
101599.67
101130.82
100679.38
100411.61
100273.86
100215.79
100197.94
100195.54
100195.64
100195.45
100184.2
100140.76
100092.25
100062.62
100044.71
100033.83
100026.89
100022.32
81043.991
81609.073
82065.181
82893.8
83504.599
84691.483
85710.366
87284.332
88914.043
91043.562
93445.175
96266.219
99384.732
102662.5
105851.29
108699.01
110996.62
112530.13
113216.38
113264.31
112811.05
111981.01
110910.48
109710.9
108469.02
107249.57
106098.03
105041.44
104092.22
103262.8
102578.82
102056.78
101635.68
101154.31
100706.39
100440.21
100301.12
100238.71
100214.27
100204.8
100200.11
100196.47
100179.62
100130.23
100086.62
100060.03
100043.92
100034.06
100027.82
100023.65
82358.372
83014.435
83503.267
84448.696
85106.548
86399.769
87525.858
89216.087
90988.931
93256.68
95818.167
98756.708
101931.07
105157.13
108181.95
110774.84
112733
113862.26
114223.53
114018.54
113354.52
112367.6
111184.77
109907.07
108612.01
107357.01
106181.91
105109.32
104149.06
103313.36
102627.56
102102.07
101668.14
101178.06
100734.1
100468.93
100327.42
100259.49
100228.37
100213.26
100204.7
100196.77
100173.65
100120.71
100081.79
100058.05
100043.61
100034.66
100028.97
100025.14
83841.506
84592.621
85078.553
86153.284
86867.646
88265.159
89505.691
91316.625
93245.886
95651.14
98358.991
101384.31
104560.88
107673.5
110479.44
112771.57
114337.64
115070.14
115144.3
114692.66
113836.06
112708.58
111426.45
110080.3
108738.99
107453.28
106257.9
105171.53
104201.84
103361.12
102674.01
102144.47
101697.71
101202.8
100762.75
100497.54
100352.3
100278.19
100240.81
100221.01
100209.47
100196.7
100166.13
100112.65
100077.78
100056.48
100043.55
100035.45
100030.29
100026.77
85462.459
86341.839
86813.1
88014.393
88794.344
90294.733
91661.627
93603.828
95698.435
98236.093
101064.43
104131.48
107246.78
110182.69
112717.72
114654.32
115795.12
116175.45
115973.48
115291.04
114260.76
113008.53
111639.21
110233.44
108852.11
107539.98
106327.21
105228.99
104251.31
103406.62
102718.44
102184.26
101725.17
101229.14
100792.31
100525.75
100375.8
100295.39
100252
100227.3
100212.08
100195.23
100156.99
100106.32
100074.81
100055.52
100043.78
100036.47
100031.77
100028.52
87229.373
88256.716
88708.765
90032.735
90896.153
92507.517
94018.581
96097.848
98359.484
101014.87
103922.34
106971.63
109955.96