/*--------------------------------*- C++ -*----------------------------------*\
  =========                 |
  \\      /  F ield         | OpenFOAM: The Open Source CFD Toolbox
   \\    /   O peration     | Website:  https://openfoam.org
    \\  /    A nd           | Version:  8
     \\/     M anipulation  |
\*---------------------------------------------------------------------------*/
FoamFile
{
    version     2.0;
    format      ascii;
    class       surfaceScalarField;
    location    "0.280002";
    object      phi;
}
// * * * * * * * * * * * * * * * * * * * * * * * * * * * * * * * * * * * * * //

dimensions      [1 0 -1 0 0 0 0];

internalField   nonuniform List<scalar> 
39600
(
-4.4280437e-06
-0.0077498407
0.0077130096
-6.6162702e-05
-0.010818392
0.010879727
-0.00013384484
-0.014129615
0.014196629
-0.00020699265
-0.018165168
0.018237639
-0.0002808101
-0.023242365
0.023315407
-0.00034482442
-0.029744256
0.029807501
-0.00048140477
-0.037937253
0.038072989
-0.00077524647
-0.046324002
0.046616667
-0.0011333892
-0.055296354
0.055653044
-0.0015592069
-0.066459762
0.066883871
-0.0020700184
-0.079439909
0.079948627
-0.0026794821
-0.09539287
0.095999874
-0.003407496
-0.11415909
0.1148841
-0.0042771211
-0.13703361
0.13789969
-0.0053131221
-0.16414528
0.16517694
-0.0065507129
-0.19702334
0.19825577
-0.0080233938
-0.23619177
0.23765797
-0.0097816434
-0.28355744
0.28530767
-0.011871006
-0.34019558
0.34227496
-0.014364739
-0.40859534
0.41107676
-0.017329731
-0.49063281
0.49358242
-0.020870877
-0.58964957
0.59317163
-0.025099087
-0.70867593
0.71288029
-0.03018166
-0.85223073
0.85728425
-0.036321361
-1.024875
1.0309819
-0.043821305
-1.2325807
1.2400455
-0.053084945
-1.4816052
1.4908313
-0.064646176
-1.7793402
1.7908651
-0.079083076
-2.1336989
2.1481065
-0.096880388
-2.5539321
2.5717293
-0.11835611
-3.0509031
3.0724009
-0.1437666
-3.6384715
3.663901
-0.17344623
-4.3346691
4.3643798
-0.20791295
-5.1626131
5.1971367
-0.24783281
-6.1502946
6.1902964
-0.29388819
-7.3316978
7.3778534
-0.3467477
-8.7452521
8.7982511
-0.40701749
-10.439563
10.500015
-0.47504484
-12.470705
12.539006
-0.55073184
-14.906966
14.983072
-0.63334098
-17.828586
17.911771
-0.7208852
-21.33424
21.422613
-0.80954629
-25.54046
25.630348
-0.89277337
-30.587716
30.672524
-0.95991674
-36.64529
36.714345
-0.99405403
-43.918134
43.954569
-0.96860475
-52.64955
52.628048
-0.83982385
-63.138629
63.015303
-0.56022545
-75.757958
75.485287
-90.888245
90.344408
-8.192765e-05
-0.0077011606
-0.00013644899
-0.010764122
-0.00020042688
-0.01406622
-0.00027097995
-0.018095218
-0.00034342985
-0.023170591
-0.0004060657
-0.029682313
-0.00054956282
-0.037794574
-0.00082551107
-0.046049242
-0.0011626043
-0.054960725
-0.001562057
-0.066062041
-0.002041751
-0.07896236
-0.0026127107
-0.094824443
-0.0032950506
-0.11347983
-0.0041094728
-0.13622285
-0.0050794425
-0.16317978
-0.0062384075
-0.19586975
-0.0076156104
-0.23482117
-0.0092608015
-0.28192042
-0.011213558
-0.33825283
-0.013543721
-0.40627742
-0.016311686
-0.48788008
-0.019620599
-0.58635951
-0.023572473
-0.70474757
-0.02833315
-0.84749864
-0.03409858
-1.0191424
-0.041174298
-1.2255405
-0.049964696
-1.4728534
-0.061012717
-1.76833
-0.074908772
-2.1198345
-0.092175399
-2.5366711
-0.11317838
-3.0298856
-0.13818627
-3.6134502
-0.16749244
-4.3053369
-0.20154911
-5.1285061
-0.24096986
-6.1107971
-0.28639742
-7.2861725
-0.33849501
-8.6930158
-0.3978641
-10.380011
-0.46486607
-12.403428
-0.53944182
-14.831974
-0.62090058
-17.746549
-0.70738035
-21.246932
-0.79521043
-25.45141
-0.87814773
-30.503219
-0.94590146
-36.575634
-0.98212242
-43.879567
-0.96022513
-52.667476
-0.84130247
-63.252124
-0.57531844
-76.017266
-91.40673
-7.3837947e-05
-0.0076533473
-0.00012803185
-0.010710263
-0.00018875412
-0.014006257
-0.00025406896
-0.018030689
-0.00031869291
-0.023106745
-0.00036622934
-0.0296355
-0.00050410981
-0.037657567
-0.00076930183
-0.045785244
-0.0010893524
-0.054642135
-0.0014691911
-0.065683893
-0.0019247595
-0.078508877
-0.002467913
-0.094283739
-0.0031163214
-0.11283446
-0.0038913696
-0.13545144
-0.0048134439
-0.16226221
-0.0059157727
-0.19477285
-0.0072242702
-0.23351934
-0.0087866914
-0.2803661
-0.010639075
-0.33641043
-0.012849482
-0.40407927
-0.015474411
-0.4852704
-0.018611949
-0.58324087
-0.022361597
-0.70102143
-0.026883269
-0.84300548
-0.032371198
-1.0136873
-0.039130984
-1.2188166
-0.047570041
-1.4644539
-0.058232743
-1.7577064
-0.071709868
-2.1063908
-0.088538309
-2.5198532
-0.10911062
-3.0093061
-0.13371266
-3.5888401
-0.16261731
-4.2764104
-0.19623506
-5.0948413
-0.23513812
-6.0718185
-0.27993303
-7.2412818
-0.33127387
-8.6415376
-0.38975975
-10.321342
-0.45576445
-12.337146
-0.52926643
-14.758059
-0.60963815
-17.665598
-0.6951171
-21.160623
-0.78223265
-25.363079
-0.86500915
-30.418894
-0.93353549
-36.505215
-0.97204145
-43.838642
-0.95501191
-52.680583
-0.84511806
-63.356467
-0.59295597
-76.263205
-91.899408
-6.3990379e-05
-0.0076087028
-0.00011355815
-0.010661018
-0.00016810183
-0.013952204
-0.00022623791
-0.017973345
-0.00028243073
-0.0230514
-0.00031638052
-0.029602394
-0.00045210101
-0.037522819
-0.00070648815
-0.04553214
-0.0010108266
-0.054339285
-0.0013723792
-0.06532407
-0.0018055013
-0.078077853
-0.0023224447
-0.093769265
-0.0029388359
-0.1122211
-0.0036761159
-0.1347178
-0.0045520502
-0.16139077
-0.0055994284
-0.19373092
-0.0068407716
-0.23228469
-0.0083222704
-0.27889269
-0.010077341
-0.33466524
-0.012170797
-0.40199788
-0.014657009
-0.48279914
-0.017630689
-0.58028574
-0.021184823
-0.69749033
-0.025478472
-0.83873986
-0.030704032
-1.0084943
-0.037169135
-1.2123875
-0.045287517
-1.4563756
-0.055604378
-1.7474293
-0.068712212
-2.0933173
-0.085150068
-2.5034291
-0.1053285
-2.9891259
-0.12954345
-3.5646215
-0.15805811
-4.2478782
-0.19124936
-5.0616074
-0.22965963
-6.0333363
-0.27386128
-7.1969867
-0.32449962
-8.5907636
-0.38216674
-10.263491
-0.44725874
-12.271775
-0.51979131
-14.685117
-0.59919504
-17.585616
-0.68383038
-21.075155
-0.77039279
-25.275305
-0.8532055
-30.334543
-0.92271892
-36.433826
-0.96374452
-43.79517
-0.95190112
-52.688469
-0.85117801
-63.451558
-0.61340908
-76.495202
-92.366427
-5.2620111e-05
-0.0075679783
-9.8777412e-05
-0.010615972
-0.00014811245
-0.013903483
-0.00019928347
-0.017922901
-0.00024700235
-0.023004491
-0.00026730728
-0.029582893
-0.00040090818
-0.037390235
-0.00064141861
-0.045292938
-0.00093072225
-0.054051544
-0.0012749292
-0.064981669
-0.0016867322
-0.077668225
-0.0021788524
-0.093279685
-0.0027644662
-0.11163859
-0.0034653871
-0.13402058
-0.0042963152
-0.16056438
-0.0052898625
-0.19274283
-0.0064651044
-0.2311161
-0.0078682606
-0.27749756
-0.0095273629
-0.333016
-0.011508099
-0.40002922
-0.013861148
-0.48046108
-0.016676267
-0.57748919
-0.020043322
-0.6941463
-0.024119204
-0.83469194
-0.029097642
-1.0035482
-0.035290762
-1.2062305
-0.043119665
-1.4485869
-0.05313224
-1.7374568
-0.065915711
-2.0805693
-0.082007476
-2.4873546
-0.10182287
-2.969314
-0.12566834
-3.5407771
-0.15380169
-4.2197323
-0.18658059
-5.0287907
-0.22451446
-5.9953344
-0.26816117
-7.15325
-0.3181461
-8.540646
-0.37506807
-10.206385
-0.43933372
-12.207232
-0.51100617
-14.61304
-0.58957072
-17.506476
-0.67350453
-20.99039
-0.75969845
-25.187908
-0.84273483
-30.249978
-0.91346479
-36.361241
-0.95726129
-43.74889
-0.95081714
-52.690868
-0.8605593
-63.536105
-0.63680441
-76.713658
-92.807697
-4.3955021e-05
-0.0075298529
-8.5488676e-05
-0.010574827
-0.00012947162
-0.013859905
-0.0001739342
-0.017879104
-0.00021357673
-0.022965591
-0.00022198171
-0.029575214
-0.00035489669
-0.037258291
-0.00058277254
-0.045066339
-0.00085807335
-0.05377776
-0.0011858971
-0.064655625
-0.0015772233
-0.077279078
-0.00204513
-0.092814343
-0.00260076
-0.1110861
-0.003266
-0.13335906
-0.0040528653
-0.15978207
-0.0049935707
-0.19180758
-0.0061037753
-0.23001255
-0.0074306605
-0.2761787
-0.0090014926
-0.33145496
-0.010876539
-0.39816609
-0.013097606
-0.47825476
-0.015756259
-0.5748488
-0.018943568
-0.69098163
-0.022813365
-0.83084973
-0.027559342
-0.99883436
-0.033503121
-1.2003228
-0.041073293
-1.4410571
-0.050820257
-1.7277502
-0.063325004
-2.0681007
-0.079114972
-2.4715845
-0.098605317
-2.9498313
-0.12210619
-3.5172811
-0.14987589
-4.1919544
-0.18225811
-4.9963755
-0.2197433
-5.9577859
-0.26287778
-7.1100295
-0.31226523
-8.4911294
-0.36850767
-10.149961
-0.4320347
-12.14343
-0.50294594
-14.54173
-0.58080565
-17.428045
-0.66419234
-20.906174
-0.75019244
-25.100712
-0.83366302
-30.164987
-0.90583049
-36.287239
-0.95265987
-43.699511
-0.95193636
-52.687347
-0.87293908
-63.609536
-0.66328656
-76.918312
-93.223432
-3.5351236e-05
-0.0074947604
-7.3360681e-05
-0.010537517
-0.00011224112
-0.013821485
-0.00014990787
-0.01784214
-0.00018122824
-0.022935055
-0.00017888698
-0.029578282
-0.00031130344
-0.037126864
-0.00052878986
-0.044850102
-0.00079005558
-0.053518012
-0.0011016278
-0.064345836
-0.0014726401
-0.076910252
-0.0019168737
-0.092372689
-0.0024430173
-0.11056312
-0.0030733124
-0.13273252
-0.0038170546
-0.15904289
-0.0047061318
-0.19092394
-0.0057556489
-0.22896964
-0.0070121728
-0.27493016
-0.0085003849
-0.32997656
-0.010274808
-0.39640364
-0.012369147
-0.47617523
-0.014875042
-0.57236123
-0.017886033
-0.68799323
-0.021555951
-0.82720731
-0.026086269
-0.99433587
-0.031803822
-1.1946412
-0.039146954
-1.4337538
-0.048667228
-1.7182698
-0.060935795
-2.0558686
-0.076467629
-2.4560748
-0.095669087
-2.9306414
-0.11885281
-3.4941062
-0.14628049
-4.1645232
-0.17828796
-4.9643404
-0.21535657
-5.920659
-0.25801
-7.0672946
-0.30684973
-8.4421647
-0.3624902
-10.094142
-0.42536854
-12.080279
-0.49563507
-14.471073
-0.57291405
-17.350202
-0.65590716
-20.822357
-0.74189959
-25.013536
-0.82601474
-30.079364
-0.89985891
-36.211574
-0.94999175
-43.646695
-0.95527917
-52.67753
-0.88695692
-63.672534
-0.6928624
-77.107686
-93.613426
-2.6666398e-05
-0.0074624099
-6.0925642e-05
-0.010503985
-9.5103959e-05
-0.013787896
-0.00012603498
-0.017811774
-0.00014881978
-0.022912977
-0.00013766431
-0.029590102
-0.00026961404
-0.036995882
-0.00047614085
-0.044644815
-0.00072358988
-0.053272071
-0.0010192276
-0.064051982
-0.0013703938
-0.076561285
-0.0017913899
-0.091954283
-0.0022887033
-0.11006898
-0.0028849454
-0.13214002
-0.0035866663
-0.1583457
-0.0044277545
-0.19008825
-0.0054233369
-0.22798066
-0.0066139851
-0.2737475
-0.0080169317
-0.32858337
-0.0096883903
-0.39474403
-0.011664575
-0.47421367
-0.014030651
-0.57001316
-0.016869288
-0.68517692
-0.020345862
-0.82375784
-0.024677024
-0.99003636
-0.030192528
-1.1891614
-0.037340872
-1.4266452
-0.046672793
-1.7089777
-0.058748228
-2.0438302
-0.074062672
-2.4407846
-0.093013667
-2.9117051
-0.11591162
-3.4712203
-0.14302136
-4.1374141
-0.17467609
-4.932663
-0.21135579
-5.8839263
-0.25357536
-7.0249986
-0.30193229
-8.3936875
-0.35703535
-10.038864
-0.41935409
-12.017693
-0.48908853
-14.400955
-0.56592251
-17.272813
-0.64868738
-20.738775
-0.73485748
-24.926196
-0.81984481
-29.992884
-0.89560964
-36.133984
-0.94932757
-43.590073
-0.96110949
-52.660899
-0.903384
-63.725265
-0.72560637
-77.280992
-93.977521
-1.8992094e-05
-0.0074332697
-4.8606089e-05
-0.01047456
-7.772297e-05
-0.013759498
-0.00010168441
-0.017788471
-0.00011492043
-0.022900472
-9.6074662e-05
-0.029609601
-0.00022751274
-0.036865453
-0.0004233939
-0.044450159
-0.00065745463
-0.053039523
-0.00093762195
-0.063773585
-0.0012694113
-0.076231665
-0.0016677868
-0.09155845
-0.002137133
-0.10960275
-0.002700721
-0.13158012
-0.0033630958
-0.1576878
-0.0041600995
-0.18929661
-0.0051004391
-0.22704687
-0.0062231916
-0.27263269
-0.0075418365
-0.32727451
-0.009113235
-0.39318455
-0.010974927
-0.47236669
-0.013206944
-0.56779921
-0.015888398
-0.68251772
-0.01918695
-0.82048619
-0.02333271
-0.9859219
-0.028672056
-1.1838574
-0.035659111
-1.4196971
-0.044840717
-1.6998349
-0.056763438
-2.0319446
-0.071901768
-2.4256722
-0.090638606
-2.892986
-0.11328276
-3.4485915
-0.14010314
-4.1105987
-0.17143835
-4.9013104
-0.20776226
-5.8475549
-0.24959307
-6.9830969
-0.29751692
-8.3456488
-0.35215942
-9.9840516
-0.41401945
-11.955572
-0.48332762
-14.331272
-0.55986096
-17.195734
-0.64256238
-20.655267
-0.72911007
-24.838499
-0.81518096
-29.905342
-0.89312556
-36.054182
-0.95072514
-43.529242
-0.97013251
-52.636495
-0.92249612
-63.768094
-0.76159418
-77.437661
-94.315403
-1.0898041e-05
-0.0074068879
-3.6749987e-05
-0.010448975
-6.0844517e-05
-0.01373596
-7.8048042e-05
-0.017771885
-8.1542494e-05
-0.022897646
-5.7072739e-05
-0.029634719
-0.00018897028
-0.036734544
-0.00037492055
-0.044265414
-0.00059605024
-0.05281984
-0.00086114649
-0.063510188
-0.0011739655
-0.075920943
-0.0015503013
-0.091184577
-0.0019924201
-0.10916366
-0.0025240205
-0.13105213
-0.0031501993
-0.15706604
-0.0039040702
-0.18854805
-0.0047882038
-0.22616927
-0.005842678
-0.27158615
-0.0070820068
-0.32604488
-0.0085586545
-0.3917197
-0.010307152
-0.47063273
-0.012408218
-0.565716
-0.014948953
-0.67999896
-0.018088848
-0.81737291
-0.022065326
-0.98197651
-0.027251668
-1.1787064
-0.034109975
-1.4128773
-0.043180121
-1.6908032
-0.05498967
-2.0201723
-0.069990993
-2.4106982
-0.088550776
-2.8744464
-0.11097402
-3.4261862
-0.13753536
-4.0840458
-0.16857819
-4.8702549
-0.20458776
-5.8115032
-0.24606978
-6.9415495
-0.29362626
-8.2979828
-0.34788815
-9.9296254
-0.4093808
-11.893826
-0.47838957
-14.261897
-0.55475392
-17.118834
-0.6375655
-20.571662
-0.72468692
-24.750252
-0.81208836
-29.816499
-0.8924793
-35.97187
-0.95424533
-43.463801
-0.98112619
-52.604511
-0.94442024
-63.800169
-0.80088578
-77.5772
-94.626618
-4.1092389e-06
-0.0073828568
-2.6624782e-05
-0.010426794
-4.6280316e-05
-0.013716907
-5.7208568e-05
-0.017761612
-5.0729409e-05
-0.022904806
-2.2705437e-05
-0.02966345
-0.00015500768
-0.036603217
-0.00033061955
-0.044090982
-0.00053868186
-0.0526132
-0.00078893718
-0.063261602
-0.0010834112
-0.07562853
-0.0014386336
-0.090831782
-0.0018545262
-0.10875078
-0.0023560225
-0.13055422
-0.002946763
-0.1564797
-0.0036571067
-0.187843
-0.0044872583
-0.2253456
-0.0054777516
-0.27060353
-0.0066402538
-0.32489208
-0.0080248984
-0.39034691
-0.0096643721
-0.46900785
-0.01164065
-0.5637576
-0.014046265
-0.67761524
-0.017046002
-0.81439948
-0.020876558
-0.97817651
-0.025934176
-1.1736834
-0.032698762
-1.4061503
-0.041694927
-1.6818445
-0.053430434
-2.0084738
-0.068332127
-2.395825
-0.086750714
-2.8560502
-0.10898666
-3.4039709
-0.13532156
-4.057723
-0.16611056
-4.8394581
-0.20184767
-5.7757295
-0.24303506
-6.9003025
-0.29028148
-8.2506327
-0.34424295
-9.8755057
-0.40546256
-11.832362
-0.47429233
-14.192711
-0.55064363
-17.041958
-0.63373256
-20.487796
-0.72164149
-24.66125
-0.81060698
-29.726131
-0.89372267
-35.886736
-0.95996722
-43.393314
-0.99442883
-52.56489
-0.96926022
-63.820838
-0.84369442
-77.699002
-94.910841
3.385552e-06
-0.0073619261
-1.4914275e-05
-0.010408828
-2.9229166e-05
-0.013703145
-3.3093601e-05
-0.017758309
-1.4957768e-05
-0.022923532
1.5739319e-05
-0.029694757
-0.00011385331
-0.036474543
-0.00027949898
-0.043926482
-0.00047546038
-0.052418625
-0.00071217627
-0.063026531
-0.00098975124
-0.075353016
-0.0013253475
-0.09049862
-0.0017167616
-0.10836238
-0.0021909242
-0.13008365
-0.0027462616
-0.15592877
-0.0034124434
-0.18718208
-0.0041908548
-0.22457363
-0.0051191705
-0.26968306
-0.0062071336
-0.32381376
-0.0075025379
-0.38906324
-0.0090378394
-0.467487
-0.010895519
-0.56191761
-0.013172106
-0.67536035
-0.016042419
-0.81155522
-0.019757142
-0.97449216
-0.024719002
-1.1687561
-0.031421814
-1.3994847
-0.040381284
-1.672922
-0.052080457
-1.9968118
-0.066919101
-2.3810161
-0.085230909
-2.8377628
-0.1073177
-3.3819069
-0.133464
-4.031592
-0.16403572
-4.8088828
-0.19953976
-5.7401939
-0.24048675
-6.8593016
-0.2874891
-8.2035327
-0.34122521
-9.8216175
-0.40228242
-11.771069
-0.47105347
-14.123593
-0.54754142
-16.964957
-0.63109627
-20.403481
-0.72000577
-24.571283
-0.81078524
-29.633995
-0.89692529
-35.798438
-0.96795995
-43.317401
-1.0103516
-52.517295
-0.99716275
-63.829613
-0.89002283
-77.802615
-95.167599
9.2763644e-06
-0.0073429132
-6.0168519e-06
-0.010393829
-1.6322107e-05
-0.013693427
-1.4824757e-05
-0.017760394
1.3576261e-05
-0.0229525
4.2486473e-05
-0.029724282
-8.1023055e-05
-0.036351943
-0.00023851708
-0.043770131
-0.00042359202
-0.052234962
-0.00064758708
-0.062804202
-0.00090871485
-0.075093947
-0.0012248814
-0.090184894
-0.0015933187
-0.10799695
-0.0020405136
-0.12964003
-0.0025609668
-0.15541267
-0.0031853195
-0.18656289
-0.0039135385
-0.2238518
-0.0047817539
-0.26882266
-0.0057967386
-0.32280849
-0.0070063763
-0.38786544
-0.0084455474
-0.46606235
-0.010196377
-0.56018446
-0.012353973
-0.67322431
-0.015104809
-0.80882997
-0.018725796
-0.97090088
-0.02362703
-1.1638886
-0.030300026
-1.3928476
-0.039259536
-1.6639983
-0.050957854
-1.9851503
-0.06577147
-2.3662329
-0.08401581
-2.8195446
-0.10598866
-3.3599591
-0.1319824
-4.0056165
-0.16237095
-4.7784952
-0.19768413
-5.7048544
-0.23844753
-6.8184901
-0.28528142
-8.1566075
-0.33888301
-9.7678706
-0.39987284
-11.709853
-0.4687208
-14.054411
-0.5454981
-16.887678
-0.62970736
-20.318531
-0.7198358
-24.480141
-0.81268555
-29.539835
-0.90215439
-35.706625
-0.97835203
-43.235711
-1.029017
-52.461371
-1.0282951
-63.82597
-0.94006289
-77.887562
-95.396031
1.5459647e-05
-0.0073261283
3.2987931e-06
-0.010381951
-2.7077913e-06
-0.013687789
4.5339903e-06
-0.017768085
4.3843168e-05
-0.022992301
7.0332506e-05
-0.029751351
-4.7350918e-05
-0.036235145
-0.00019583886
-0.043622692
-0.00036943319
-0.052062699
-0.00058009147
-0.062595111
-0.00082461679
-0.0748514
-0.0011215635
-0.089890288
-0.0014671975
-0.10765421
-0.0018873549
-0.12922334
-0.0023745401
-0.15492969
-0.0029596272
-0.18598289
-0.0036396857
-0.22317802
-0.004449292
-0.26802087
-0.0053944256
-0.32187304
-0.0065247963
-0.38674685
-0.007877771
-0.46472377
-0.0095297321
-0.55855006
-0.011580934
-0.67119446
-0.014227509
-0.80620882
-0.017772754
-0.96738508
-0.022641788
-1.1590531
-0.029324311
-1.3862007
-0.038320595
-1.6550374
-0.050056334
-1.9734514
-0.064883345
-2.3514372
-0.083095793
-2.8013597
-0.1049836
-3.3380979
-0.13085324
-3.9797676
-0.16109851
-4.7482544
-0.1962704
-5.6696609
-0.23691081
-6.777807
-0.2836523
-8.1097808
-0.337205
-9.7141793
-0.39824927
-11.648591
-0.46729868
-13.985039
-0.54453344
-16.809954
-0.62958858
-20.232757
-0.72116882
-24.38759
-0.81634924
-29.44338
-0.90946932
-35.610933
-0.99181861
-43.147368
-1.0507029
-52.397199
-1.0627106
-63.809634
-0.99398993
-77.953197
-95.595889
2.1890741e-05
-0.0073122962
1.3543543e-05
-0.010373911
1.2589178e-05
-0.013687365
2.6358437e-05
-0.017782428
7.7422996e-05
-0.02304388
0.00010103865
-0.029775582
-1.3001444e-05
-0.036121984
-0.00015285731
-0.043483846
-0.00031528544
-0.051901551
-0.00051349046
-0.062398401
-0.00074247516
-0.074624293
-0.0010219807
-0.089612994
-0.0013456769
-0.10733329
-0.0017395616
-0.12883276
-0.0021949798
-0.15447834
-0.0027417777
-0.18544098
-0.003374998
-0.222551
-0.0041272985
-0.26727635
-0.0050077488
-0.32100231
-0.0060676746
-0.38569878
-0.0073347242
-0.46347117
-0.0088886435
-0.55701365
-0.010844155
-0.66926004
-0.013413357
-0.80366443
-0.016909776
-0.96391724
-0.021775519
-1.1542198
-0.028506982
-1.3795034
-0.037578505
-1.6460002
-0.04939177
-1.9616744
-0.064261213
-2.3365995
-0.082466138
-2.7831835
-0.10429957
-3.3162927
-0.13008183
-3.9540086
-0.16022986
-4.7181147
-0.19531469
-5.6345593
-0.23589836
-6.7371864
-0.28261563
-8.0629849
-0.33622456
-9.6604394
-0.39743392
-11.587173
-0.46682786
-13.915334
-0.54468524
-16.731619
-0.63079267
-20.145952
-0.7240565
-24.293402
-0.82183924
-29.344339
-0.91892114
-35.510986
-1.0080319
-43.052195
-1.0755379
-52.324258
-1.1005466
-63.780168
-1.0518254
-77.998872
-95.766336
2.7051968e-05
-0.0073003263
2.1526235e-05
-0.010368707
2.4945134e-05
-0.013691294
4.4376792e-05
-0.017802442
0.0001060165
-0.023106032
0.00012400522
-0.029794204
1.442937e-05
-0.036013334
-0.00011707419
-0.043353373
-0.00026909278
-0.051750802
-0.00045542147
-0.062213531
-0.00066936393
-0.074412187
-0.00093265672
-0.089351855
-0.0012363282
-0.10703229
-0.001605429
-0.12846686
-0.0020302173
-0.15405747
-0.0025397503
-0.18493626
-0.0031277476
-0.2219691
-0.0038273667
-0.26658437
-0.0046496249
-0.32018964
-0.0056373826
-0.38472274
-0.0068174833
-0.4623054
-0.008281009
-0.55556749
-0.010153951
-0.66740809
-0.01266623
-0.80117678
-0.016150114
-0.96046177
-0.021054061
-1.149348
-0.027868923
-1.3727222
-0.037054625
-1.6368484
-0.04897342
-1.9497919
-0.063907336
-2.3216979
-0.082130776
-2.7649899
-0.10394561
-3.2945075
-0.12968329
-3.9282962
-0.15978103
-4.6880285
-0.19483804
-5.5994899
-0.23542197
-6.6965708
-0.28220168
-8.016133
-0.3359642
-9.6065539
-0.39745926
-11.525477
-0.46734236
-13.845152
-0.54599702
-16.652499
-0.63335634
-20.057919
-0.72855216
-24.197328
-0.82923052
-29.2424
-0.93059101
-35.406373
-1.0270257
-42.950089
-1.1038906
-52.241856
-1.142033
-63.737192
-1.1136601
-78.024283
-95.906722
3.254518e-05
-0.0072907038
3.0355838e-05
-0.010366909
3.8671714e-05
-0.013700087
6.4362178e-05
-0.017828725
0.00013630597
-0.02317847
0.00014728497
-0.029805821
4.5744158e-05
-0.035912685
-7.7959079e-05
-0.043230674
-0.00022029609
-0.051609718
-0.00039577548
-0.062039488
-0.00059575021
-0.074214013
-0.00084313919
-0.089106576
-0.0011274005
-0.10675068
-0.0014726249
-0.12812479
-0.0018675728
-0.15366642
-0.0023405689
-0.18446797
-0.0028843551
-0.22143131
-0.0035359507
-0.26594033
-0.004301716
-0.3194334
-0.0052159662
-0.38382017
-0.0063166646
-0.46121903
-0.0077016096
-0.55419974
-0.0095079715
-0.66562243
-0.011983601
-0.79872501
-0.015488356
-0.95698447
-0.020471029
-1.1443961
-0.027410123
-1.3658153
-0.036740471
-1.6275507
-0.048785668
-1.9377824
-0.063808723
-2.3067074
-0.082083742
-2.7467457
-0.10391545
-3.2727068
-0.12964929
-3.9025898
-0.15974492
-4.6579479
-0.19483009
-5.5643968
-0.23549099
-6.655884
-0.28241773
-7.9691407
-0.33642883
-9.5524287
-0.39833824
-11.463376
-0.46886234
-13.774337
-0.54849066
-16.572415
-0.63732503
-19.968434
-0.7346986
-24.099122
-0.83858056
-29.137247
-0.94477288
-35.296565
-1.0488849
-42.841028
-1.1359833
-52.149406
-1.1879502
-63.680012
-1.1791167
-78.029612
-96.016226
3.697848e-05
-0.0072825759
3.7541676e-05
-0.010367828
5.0106601e-05
-0.013713119
8.1549169e-05
-0.017860713
0.00016174761
-0.023259147
0.00016481643
-0.029809512
6.9769849e-05
-0.035818498
-4.7459652e-05
-0.043114431
-0.00018102765
-0.05147739
-0.00034647651
-0.061875448
-0.0005341563
-0.074028122
-0.0007661896
-0.088876637
-0.0010300898
-0.10648939
-0.0013513522
-0.12780666
-0.00171685
-0.15330476
-0.0021545993
-0.18403492
-0.0026573817
-0.22093444
-0.0032618684
-0.26534325
-0.0039696944
-0.31873488
-0.004817135
-0.38298425
-0.0058505325
-0.46019973
-0.0071712793
-0.55289614
-0.0089273235
-0.66388689
-0.011390893
-0.79628532
-0.01494256
-0.95346002
-0.020037267
-1.1393319
-0.02713955
-1.3587446
-0.03664285
-1.6180797
-0.048837326
-1.9256235
-0.06397869
-2.2915989
-0.082335866
-2.7284201
-0.10422032
-3.2508542
-0.12999244
-3.8768466
-0.16013743
-4.6278205
-0.19531108
-5.5292191
-0.2361267
-6.6150473
-0.28328286
-7.921925
-0.33765835
-9.4979475
-0.40010568
-11.400748
-0.47142742
-13.702732
-0.55221848
-16.491179
-0.64275031
-19.877273
-0.74255626
-23.998526
-0.84996822
-29.028552
-0.96247667
-35.180384
-1.0734627
-42.725711
-1.1714791
-52.046657
-1.2388257
-63.607307
-1.248769
-78.014234
-96.094549
4.1540306e-05
-0.0072763069
4.5077412e-05
-0.010371719
6.2449399e-05
-0.013730954
0.00010062062
-0.017899429
0.00018831537
-0.02334732
0.00018386736
-0.029805686
9.4058801e-05
-0.035729557
-1.6025235e-05
-0.043005294
-0.00014036274
-0.051354272
-0.00029509529
-0.061722113
-0.00047033868
-0.073854661
-0.00068801754
-0.088661032
-0.00093268338
-0.10624731
-0.0012306147
-0.12751181
-0.0015678389
-0.15297136
-0.0019714866
-0.18363588
-0.0024380424
-0.22047372
-0.0029969723
-0.26479164
-0.0036484673
-0.31809263
-0.0044367357
-0.38220742
-0.0054138919
-0.45923656
-0.0066828765
-0.55164405
-0.0084082437
-0.66218152
-0.010885918
-0.79383068
-0.014510773
-0.94986126
-0.01975399
-1.1341177
-0.027053943
-1.3514746
-0.03675213
-1.6084125
-0.049123015
-1.9132874
-0.064410002
-2.2763448
-0.082879848
-2.7099824
-0.10485348
-3.2289135
-0.13070782
-3.8510229
-0.16095508
-4.5975937
-0.19628557
-5.4938886
-0.23732845
-6.5739886
-0.28481583
-7.8743842
-0.3396538
-9.4430124
-0.40278198
-11.33745
-0.47506539
-13.630174
-0.55721587
-16.408593
-0.64966579
-19.784217
-0.75217504
-23.895261
-0.86344442
-28.915978
-0.98211219
-35.058184
-1.100752
-42.60323
-1.209865
-51.933461
-1.2919593
-63.520832
-1.3249043
-77.977087
-96.142292
4.6169925e-05
-0.0072721728
5.2879056e-05
-0.010378789
7.5391832e-05
-0.013753941
0.00012116304
-0.017945738
0.00021470669
-0.023441333
0.00020173773
-0.029793358
0.00011752076
-0.035646203
1.4236973e-05
-0.04290296
-0.00010157664
-0.051239666
-0.00024618984
-0.061578882
-0.00040868293
-0.073693927
-0.00061177785
-0.088460001
-0.00083810014
-0.10602353
-0.0011138653
-0.1272391
-0.0014244856
-0.15266451
-0.0017969584
-0.18326802
-0.0022280906
-0.22004835
-0.0027430512
-0.26428385
-0.0033427039
-0.31750202
-0.0040799252
-0.3814814
-0.0050062519
-0.45832405
-0.0062314672
-0.5504356
-0.0079444063
-0.66048852
-0.010465405
-0.79133266
-0.014203884
-0.9461488
-0.019634497
-1.1287158
-0.027159241
-1.3439792
-0.037076405
-1.5985259
-0.049649104
-1.9007494
-0.065108093
-2.2609188
-0.083721158
-2.691402
-0.105821
-3.2068473
-0.13180271
-3.8250731
-0.16220776
-4.5672115
-0.19776088
-5.458339
-0.23911377
-6.5326247
-0.28702261
-7.8264277
-0.34245271
-9.3874929
-0.40639304
-11.273351
-0.47980586
-13.556496
-0.56352224
-16.324452
-0.65812998
-19.689023
-0.76361469
-23.789039
-0.8790695
-28.799171
-1.0040737
-34.929882
-1.1308518
-42.473005
-1.251322
-51.809533
-1.3494447
-63.418952
-1.4062797
-77.915539
-96.158338
4.996907e-05
-0.0072695216
5.9192683e-05
-0.010388386
8.625677e-05
-0.013781493
0.00013981012
-0.017999832
0.00023651044
-0.023538513
0.000213824
-0.029771329
0.00013458157
-0.035567837
3.7941722e-05
-0.042807266
-7.0171979e-05
-0.051132768
-0.00020618747
-0.061444227
-0.00035627549
-0.073545556
-0.00054382386
-0.088274467
-0.00075172892
-0.10581816
-0.0010062071
-0.12698767
-0.0012915234
-0.15238297
-0.0016369595
-0.1829271
-0.0020337078
-0.2196573
-0.0025047721
-0.26381988
-0.0030587948
-0.31695693
-0.0037482562
-0.38080303
-0.0046288315
-0.45745708
-0.0058228895
-0.54925798
-0.007548874
-0.65878181
-0.010145043
-0.78875859
-0.014040781
-0.94227788
-0.01969227
-1.1230914
-0.027461542
-1.3362377
-0.037623608
-1.5883932
-0.050421513
-1.8879854
-0.066078088
-2.2452952
-0.084865422
-2.6726477
-0.10712892
-3.1846183
-0.13328529
-3.7989499
-0.16390602
-4.5366161
-0.19975669
-5.4224957
-0.24150004
-6.4908756
-0.28993363
-7.7779525
-0.34607387
-9.3312707
-0.41097521
-11.208303
-0.48569285
-13.481523
-0.57117918
-16.23855
-0.66820085
-19.591436
-0.77695342
-23.679547
-0.8968919
-28.677758
-1.0285695
-34.795183
-1.1639487
-42.334513
-1.2959975
-51.674389
-1.4117126
-63.29954
-1.4928582
-77.829973
-96.141442
5.4660311e-05
-0.0072693733
6.7221571e-05
-0.010401297
9.9421771e-05
-0.013814169
0.00016222591
-0.018063156
0.00026048069
-0.02363724
0.00022812333
-0.029739639
0.00015438864
-0.035494983
6.4653776e-05
-0.042718469
-3.4641085e-05
-0.051034694
-0.00016129523
-0.061318911
-0.00029989791
-0.073408653
-0.00047349595
-0.088102854
-0.00066479298
-0.10562937
-0.00089998735
-0.12675551
-0.0011625432
-0.15212413
-0.0014810819
-0.18261308
-0.0018449004
-0.21929908
-0.0022753194
-0.26339637
-0.0027901391
-0.31645086
-0.0034369581
-0.38016707
-0.0042784577
-0.45662907
-0.0054630041
-0.54808973
-0.0072304673
-0.65703366
-0.0099337691
-0.78607733
-0.014023178
-0.9382133
-0.019925361
-1.117216
-0.027958362
-1.328232
-0.038388806
-1.5779916
-0.051435299
-1.8749726
-0.067313882
-2.2294495
-0.086306033
-2.6536889
-0.1087725
-3.1621867
-0.13515219
-3.7726043
-0.16604975
-4.5057456
-0.20226478
-5.3862912
-0.24449833
-6.4486407
-0.29356064
-7.7288542
-0.35052967
-9.2742261
-0.41654475
-11.14215
-0.4927494
-13.405074
-0.58023053
-16.150665
-0.67991913
-19.491204
-0.79226369
-23.566441
-0.91702474
-28.551284
-1.0557418
-34.653769
-1.2002839
-42.187162
-1.3442341
-51.527633
-1.4787816
-63.16144
-1.5848872
-77.719526
-96.089662
5.7468935e-05
-0.0072700795
7.1833595e-05
-0.010416051
0.000107837
-0.013850669
0.00017990573
-0.018135749
0.00027675
-0.023734555
0.00023647215
-0.029700024
0.00016843688
-0.035427795
8.5040943e-05
-0.042635931
-5.9875587e-06
-0.050944838
-0.00012299868
-0.061203205
-0.00025100423
-0.073282338
-0.00041269009
-0.087943117
-0.00058947751
-0.10545507
-0.00080717343
-0.12654082
-0.0010497145
-0.1518853
-0.001341455
-0.18232582
-0.0016724132
-0.21897367
-0.0020673613
-0.26300827
-0.0025455589
-0.31598128
-0.003155844
-0.37956752
-0.0039744595
-0.45582364
-0.0051705995
-0.54690946
-0.0070016142
-0.65522112
-0.0098504451
-0.78324958
-0.01416705
-0.93392028
-0.02034045
-1.1110679
-0.028665907
-1.3199322
-0.03938619
-1.5672989
-0.052701294
-1.8616903
-0.068827451
-2.2133559
-0.088058625
-2.6344912
-0.11077072
-3.1395099
-0.13742148
-3.7459883
-0.16865603
-4.47454
-0.20532024
-5.3496408
-0.24812897
-6.4058356
-0.29792763
-7.6790257
-0.3558631
-9.2162218
-0.42314899
-11.074733
-0.50102489
-13.326965
-0.59072121
-16.060576
-0.69334131
-19.388066
-0.80963131
-23.449363
-0.94057806
-28.418313
-1.0857439
-34.506205
-1.2399201
-42.030536
-1.3965846
-51.368638
-1.5507469
-63.004302
-1.6825785
-77.583361
-96.001612
6.1577403e-05
-0.0072730155
7.8801964e-05
-0.010433699
0.00011965571
-0.013892032
0.0002030182
-0.018219648
0.00029727625
-0.02382935
0.00025876062
-0.029662184
0.0001955941
-0.035365474
0.00011726219
-0.042558517
3.1505304e-05
-0.050860291
-7.8486782e-05
-0.061094492
-0.00019654303
-0.073165986
-0.00034671188
-0.087794917
-0.00050917531
-0.1052951
-0.00070913149
-0.12634386
-0.00093177263
-0.15166638
-0.0011990662
-0.18206301
-0.0014997974
-0.21867844
-0.0018645946
-0.26265018
-0.0023108485
-0.3155435
-0.0028913556
-0.37899752
-0.00370445
-0.45502367
-0.0049286397
-0.54570102
-0.0068520437
-0.65331633
-0.0098873172
-0.78023536
-0.014459275
-0.92937195