/*--------------------------------*- C++ -*----------------------------------*\
  =========                 |
  \\      /  F ield         | OpenFOAM: The Open Source CFD Toolbox
   \\    /   O peration     | Website:  https://openfoam.org
    \\  /    A nd           | Version:  8
     \\/     M anipulation  |
\*---------------------------------------------------------------------------*/
FoamFile
{
    version     2.0;
    format      ascii;
    class       pointVectorField;
    location    "0.280002";
    object      pointDisplacement;
}
// * * * * * * * * * * * * * * * * * * * * * * * * * * * * * * * * * * * * * //

dimensions      [0 1 0 0 0 0 0];

internalField   nonuniform List<vector> 
40800
(
(0.0016059228 0 0.0013753628)
(0.0016086296 0 0.0011460616)
(0.0016083829 0 0.0011471005)
(0.0016055855 0 0.0013812069)
(0.0016083594 0 0.0011466397)
(0.0016055651 0 0.0013807664)
(0.0016083105 0 0.0011460428)
(0.0016055188 0 0.0013802818)
(0.0016082239 0 0.0011453526)
(0.0016054362 0 0.0013797251)
(0.0016080838 0 0.0011445601)
(0.0016053016 0 0.0013790907)
(0.0016078679 0 0.0011436595)
(0.0016050932 0 0.0013783767)
(0.0016075456 0 0.0011426495)
(0.001604781 0 0.0013775873)
(0.001607075 0 0.0011415376)
(0.0016043242 0 0.0013767346)
(0.0016063995 0 0.0011403447)
(0.001603667 0 0.0013758452)
(0.0016054422 0 0.0011391133)
(0.001602734 0 0.0013749668)
(0.0016041002 0 0.0011379183)
(0.0016014241 0 0.0013741804)
(0.0016022365 0 0.001136884)
(0.0015996027 0 0.0013736156)
(0.0015996697 0 0.0011362069)
(0.0015970914 0 0.0013734738)
(0.0015961627 0 0.0011361894)
(0.0015936566 0 0.0013740603)
(0.0015914082 0 0.0011372849)
(0.0015889954 0 0.0013758275)
(0.0015850138 0 0.0011401636)
(0.0015827205 0 0.0013794397)
(0.0015764865 0 0.0011457921)
(0.0015743441 0 0.001385843)
(0.001565219 0 0.0011555532)
(0.0015632639 0 0.0013963875)
(0.0015504806 0 0.0011713923)
(0.0015487524 0 0.0014129625)
(0.0015314206 0 0.0011959702)
(0.0015299599 0 0.0014381335)
(0.0015070933 0 0.0012328184)
(0.0015059363 0 0.0014753011)
(0.0014765112 0 0.0012864274)
(0.0014756817 0 0.0015287908)
(0.0014387341 0 0.0013622271)
(0.0014382331 0 0.0016038377)
(0.0013929887 0 0.0014663664)
(0.0013927816 0 0.0017063813)
(0.0013387992 0 0.0016051869)
(0.001338802 0 0.0018425722)
(0.0012761832 0 0.0017841325)
(0.0012762681 0 0.0020176677)
(0.0012056746 0 0.0020066738)
(0.0012056663 0 0.0022350386)
(0.0011284315 0 0.0022727796)
(0.0011281481 0 0.0024945395)
(0.0010460003 0 0.0025783161)
(0.001045274 0 0.0027919697)
(0.00096037464 0 0.002913913)
(0.00095910934 0 0.0031178254)
(0.00087359023 0 0.0032664887)
(0.00087175541 0 0.0034590698)
(0.00078767966 0 0.0036197868)
(0.00078533429 0 0.0037994669)
(0.00070448436 0 0.0039569279)
(0.00070174101 0 0.0041224026)
(0.00062563969 0 0.0042617764)
(0.00062267986 0 0.0044119572)
(0.00055219581 0 0.0045216008)
(0.00054915964 0 0.0046560136)
(0.00048471511 0 0.0047280839)
(0.00048175363 0 0.0048467068)
(0.00042343096 0 0.0048751472)
(0.00042061881 0 0.0049784681)
(0.00036804023 0 0.0049606993)
(0.00036544968 0 0.0050495035)
(0.0003183017 0 0.0049825598)
(0.00031593618 0 0.0050578079)
(0.00027347708 0 0.0049412172)
(0.00027134527 0 0.0050040225)
(0.000233463 0 0.0048350401)
(0.00023154656 0 0.0048863863)
(0.00019814088 0 0.0046661418)
(0.0001965103 0 0.0047075431)
(0.00016682994 0 0.0044268002)
(0.00016542825 0 0.004458749)
(0.00013815745 0 0.004113071)
(0.0001369577 0 0.0041371061)
(0.00011193372 0 0.0037099311)
(0.00011089984 0 0.0037260239)
(8.6895323e-05 0 0.0031968733)
(8.597381e-05 0 0.0032054507)
(6.402304e-05 0 0.0025786062)
(6.3298208e-05 0 0.0025815892)
(4.215332e-05 0 0.0018266413)
(4.1609611e-05 0 0.0018248047)
(2.0351729e-05 0 0.00093032006)
(2.000667e-05 0 0.00092516533)
(0 0 0)
(0 0 0)
(0.0016103974 0 0.00092168489)
(0.0016101557 0 0.00092257765)
(0.0016101312 0 0.00092191552)
(0.0016100799 0 0.00092114351)
(0.0016099901 0 0.00092024413)
(0.0016098456 0 0.0009192033)
(0.0016096235 0 0.00091800794)
(0.0016092926 0 0.0009166487)
(0.0016088104 0 0.00091512324)
(0.001608119 0 0.00091344147)
(0.0016071403 0 0.00091163349)
(0.0016057697 0 0.00090976061)
(0.0016038679 0 0.00090793254)
(0.0016012509 0 0.00090633074)
(0.0015976784 0 0.00090524261)
(0.0015928392 0 0.0009051086)
(0.0015863365 0 0.00090658822)
(0.0015776726 0 0.000910649)
(0.001566236 0 0.00091868819)
(0.001551293 0 0.00093268564)
(0.0015319931 0 0.00095537638)
(0.001507395 0 0.00099040815)
(0.0014765228 0 0.0010424176)
(0.0014384578 0 0.0011170214)
(0.0013924605 0 0.0012205836)
(0.0013381053 0 0.001359661)
(0.0012754501 0 0.0015399525)
(0.0012050761 0 0.0017651065)
(0.0011281467 0 0.0020353161)
(0.0010461964 0 0.0023466293)
(0.00096115458 0 0.0026899094)
(0.00087498805 0 0.0030521337)
(0.00078965423 0 0.0034170436)
(0.00070692387 0 0.0037676)
(0.00062838157 0 0.0040873785)
(0.00055507733 0 0.0043631769)
(0.00048760301 0 0.0045860272)
(0.00042620855 0 0.0047494564)
(0.00037065595 0 0.0048508182)
(0.00032070544 0 0.0048878293)
(0.00027568818 0 0.0048606303)
(0.00023546097 0 0.0047677031)
(0.00019988684 0 0.0046106417)
(0.00016831386 0 0.0043823507)
(0.00013946043 0 0.00407853)
(0.00011304864 0 0.0036847033)
(8.7911944e-05 0 0.0031813134)
(6.4842967e-05 0 0.0025704483)
(4.2766098e-05 0 0.0018252391)
(2.0752505e-05 0 0.00093444651)
(0 0 0)
(0.0016112471 0 0.00070213035)
(0.0016110111 0 0.00070293081)
(0.0016109837 0 0.00070211938)
(0.0016109285 0 0.00070116967)
(0.0016108335 0 0.00070005847)
(0.0016106821 0 0.00069876476)
(0.001610451 0 0.000697268)
(0.0016101084 0 0.00069555091)
(0.0016096107 0 0.00069360203)
(0.0016088988 0 0.0006914213)
(0.0016078933 0 0.00068902735)
(0.0016064874 0 0.00068646877)
(0.0016045397 0 0.0006838411)
(0.001601863 0 0.00068131051)
(0.0015982133 0 0.00067914907)
(0.0015932752 0 0.00067778336)
(0.0015866471 0 0.0006778633)
(0.0015778265 0 0.0006803568)
(0.0015661973 0 0.00068667805)
(0.0015510235 0 0.00069884774)
(0.0015314552 0 0.00071968578)
(0.0015065566 0 0.00075296885)
(0.0014753645 0 0.00080347326)
(0.0014369848 0 0.00087699406)
(0.0013907161 0 0.00098010073)
(0.0013361853 0 0.0011195503)
(0.001273498 0 0.0013012643)
(0.001203283 0 0.0015290388)
(0.0011267112 0 0.0018032496)
(0.0010453042 0 0.0021201014)
(0.0009609259 0 0.002470665)
(0.00087546989 0 0.0028419912)
(0.00079081246 0 0.0032178463)
(0.00070865122 0 0.0035810746)
(0.00063051556 0 0.0039150189)
(0.00055744953 0 0.0042060607)
(0.00049006912 0 0.0044446464)
(0.00042864206 0 0.0046239048)
(0.00037299017 0 0.0047406625)
(0.00032288169 0 0.0047924973)
(0.00027771146 0 0.0047792153)
(0.00023730635 0 0.0046993652)
(0.00020151314 0 0.0045540721)
(0.00016970618 0 0.0043367673)
(0.00014068729 0 0.0040428538)
(0.00011410622 0 0.0036583607)
(8.8878509e-05 0 0.0031645785)
(6.5629918e-05 0 0.0025612819)
(4.3358538e-05 0 0.0018229862)
(2.1139066e-05 0 0.00093787848)
(0 0 0)
(0.0016112077 0 0.00048729794)
(0.0016109767 0 0.00048800522)
(0.001610945 0 0.0004870426)
(0.0016108843 0 0.0004859127)
(0.0016107823 0 0.00048458789)
(0.0016106217 0 0.00048304136)
(0.0016103788 0 0.0004812457)
(0.001610021 0 0.00047917515)
(0.0016095035 0 0.00047680857)
(0.0016087663 0 0.00047413485)
(0.0016077279 0 0.00047116018)
(0.0016062797 0 0.0004679197)
(0.0016042773 0 0.00046449439)
(0.0016015306 0 0.00046103523)
(0.0015977913 0 0.00045779903)
(0.0015927395 0 0.00045519874)
(0.0015859682 0 0.00045387487)
(0.00157697 0 0.00045479616)
(0.0015651246 0 0.00045939947)
(0.0015496935 0 0.00046974962)
(0.001529829 0 0.0004887679)
(0.0015046012 0 0.00052038349)
(0.0014730603 0 0.00056949102)
(0.0014343404 0 0.00064205345)
(0.0013877824 0 0.00074484208)
(0.0013330684 0 0.00088479446)
(0.0012703577 0 0.0010680267)
(0.0012003272 0 0.0012984528)
(0.001124157 0 0.0015765915)
(0.0010433538 0 0.0018987759)
(0.00095971499 0 0.0022562605)
(0.00087505707 0 0.0026361796)
(0.0007911701 0 0.003022348)
(0.00070967625 0 0.0033975334)
(0.00063204608 0 0.0037448979)
(0.0005593128 0 0.0040504589)
(0.00049211118 0 0.0043041424)
(0.00043072757 0 0.00449868)
(0.00037503847 0 0.0046303998)
(0.00032482586 0 0.004696711)
(0.00027954293 0 0.0046970969)
(0.00023899553 0 0.0046301321)
(0.00020301619 0 0.004496516)
(0.00017100367 0 0.0042901186)
(0.00014183605 0 0.0040060955)
(0.00011510457 0 0.0036309428)
(8.979421e-05 0 0.0031467065)
(6.6382908e-05 0 0.0025511288)
(4.3929887e-05 0 0.001819897)
(2.1511437e-05 0 0.00094063321)
(0 0 0)
(0.001610307 0 0.00027708923)
(0.0016100786 0 0.00027770534)
(0.0016100414 0 0.00027659354)
(0.0016099735 0 0.00027528589)
(0.0016098625 0 0.00027374962)
(0.0016096904 0 0.00027195184)
(0.0016094328 0 0.00026985815)
(0.0016090562 0 0.00026743461)
(0.0016085149 0 0.00026465073)
(0.001607747 0 0.00026148451)
(0.0016066696 0 0.00025792993)
(0.0016051715 0 0.00025400839)
(0.0016031056 0 0.00024978594)
(0.0016002779 0 0.00024539789)
(0.001596436 0 0.00024108512)
(0.0015912546 0 0.00023724573)
(0.0015843216 0 0.00023450953)
(0.001575124 0 0.00023384611)
(0.0015630376 0 0.00023672901)
(0.0015473226 0 0.00024525969)
(0.0015271344 0 0.00026248851)
(0.0015015495 0 0.00029254546)
(0.001469631 0 0.0003403851)
(0.0014305457 0 0.00041212715)
(0.0013836814 0 0.00051475583)
(0.0013287781 0 0.00065535807)
(0.0012660548 0 0.00084022544)
(0.0011962357 0 0.0010733564)
(0.0011205114 0 0.001355373)
(0.0010403716 0 0.0016827112)
(0.00095754601 0 0.0020467844)
(0.00087376974 0 0.0024348196)
(0.0007907425 0 0.0028306996)
(0.00071000892 0 0.0032171531)
(0.00063297816 0 0.0035772091)
(0.00056066803 0 0.0038965721)
(0.0004937274 0 0.0041647103)
(0.00043246138 0 0.0043739655)
(0.0003767966 0 0.0045201943)
(0.00032653332 0 0.0046006152)
(0.0002811786 0 0.0046143977)
(0.00024052475 0 0.0045601071)
(0.00020439232 0 0.0044380545)
(0.00017220301 0 0.0042424706)
(0.00014290458 0 0.003968305)
(0.00011604166 0 0.0036024856)
(9.0658118e-05 0 0.0031277335)
(6.7100868e-05 0 0.0025400079)
(4.4479359e-05 0 0.0018159848)
(2.1869519e-05 0 0.00094272799)
(0 0 0)
(0.001608566 0 7.1408384e-05)
(0.0016083404 0 7.1934397e-05)
(0.0016082962 0 7.0674244e-05)
(0.0016082196 0 6.9189988e-05)
(0.0016080975 0 6.7443505e-05)
(0.0016079115 0 6.5395692e-05)
(0.0016076364 0 6.3004986e-05)
(0.0016072376 0 6.0229276e-05)
(0.0016066681 0 5.7028692e-05)
(0.0016058647 0 5.3370375e-05)
(0.0016047421 0 4.923613e-05)
(0.0016031866 0 4.4633724e-05)
(0.0016010479 0 3.9614103e-05)
(0.0015981281 0 3.4296277e-05)
(0.0015941698 0 2.8903916e-05)
(0.0015888423 0 2.3818041e-05)
(0.0015817275 0 1.9653618e-05)
(0.0015723077 0 1.7372876e-05)
(0.0015599554 0 1.8540152e-05)
(0.0015439314 0 2.5380636e-05)
(0.0015233959 0 4.0973122e-05)
(0.0014974255 0 6.9492611e-05)
(0.0014650976 0 0.0001160794)
(0.0014256222 0 0.00018714593)
(0.0013784362 0 0.00028979485)
(0.0013233397 0 0.00043120663)
(0.0012606165 0 0.00061784471)
(0.0011910376 0 0.00085375334)
(0.0011158045 0 0.0011396184)
(0.0010363871 0 0.0014719544)
(0.00095444594 0 0.0018423115)
(0.00087163085 0 0.0022380155)
(0.0007895478 0 0.0026430339)
(0.00070966199 0 0.0030400916)
(0.00063331935 0 0.0034121289)
(0.00056151843 0 0.003744586)
(0.00049491799 0 0.0040265339)
(0.00043384147 0 0.0042499361)
(0.00037826159 0 0.0044102047)
(0.00032800047 0 0.004504351)
(0.00028261512 0 0.0045312383)
(0.00024189083 0 0.0044893926)
(0.00020563836 0 0.0043787686)
(0.00017330116 0 0.0041938895)
(0.00014389087 0 0.0039295335)
(0.00011691564 0 0.0035730276)
(9.1469313e-05 0 0.0031076956)
(6.7782757e-05 0 0.0025279396)
(4.5006171e-05 0 0.001811264)
(2.2213234e-05 0 0.0009441789)
(0 0 0)
(0.0016060089 0 -0.00012983793)
(0.0016057859 0 -0.00012940278)
(0.0016057334 0 -0.00013081273)
(0.0016056464 0 -0.00013247548)
(0.0016055114 0 -0.00013443396)
(0.0016053091 0 -0.00013673296)
(0.0016050136 0 -0.00013942092)
(0.0016045891 0 -0.00014254817)
(0.0016039873 0 -0.00014616401)
(0.001603143 0 -0.00015031235)
(0.0016019688 0 -0.00015502392)
(0.0016003482 0 -0.00016030506)
(0.0015981271 0 -0.00016612048)
(0.0015951033 0 -0.00017236828)
(0.0015910141 0 -0.00017884339)
(0.0015855228 0 -0.00018518502)
(0.0015782045 0 -0.0001907956)
(0.0015685411 0 -0.0001946426)
(0.0015559059 0 -0.00019505931)
(0.0015395542 0 -0.00018969915)
(0.0015186406 0 -0.00017553812)
(0.0014922475 0 -0.00014853998)
(0.0014594821 0 -0.00010323028)
(0.0014195946 0 -3.2821891e-05)
(0.0013720696 0 6.9919607e-05)
(0.0013167779 0 0.00021230976)
(0.0012540707 0 0.00040087286)
(0.0011847628 0 0.00063964853)
(0.0011100671 0 0.00092934896)
(0.0010314309 0 0.0012665463)
(0.00095044325 0 0.0016429062)
(0.00086866507 0 0.0020458589)
(0.00078760583 0 0.0024594699)
(0.00070864994 0 0.0028664927)
(0.00063307891 0 0.0032498201)
(0.00056186881 0 0.0035946738)
(0.0004956844 0 0.0038897872)
(0.00043486679 0 0.0041267598)
(0.00037943122 0 0.0043005847)
(0.00032922427 0 0.0044080565)
(0.00028384959 0 0.0044477378)
(0.00024309088 0 0.0044180904)
(0.00020675136 0 0.0043187401)
(0.0001742953 0 0.0041444421)
(0.00014479295 0 0.0038898324)
(0.00011772469 0 0.0035426071)
(9.222686e-05 0 0.0030866298)
(6.8427564e-05 0 0.0025149451)
(4.5509532e-05 0 0.0018057486)
(2.2542421e-05 0 0.00094500171)
(0 0 0)
(0.001602661 0 -0.00032674224)
(0.0016024397 0 -0.00032639623)
(0.0016023775 0 -0.00032795419)
(0.0016022785 0 -0.00032979315)
(0.0016021283 0 -0.00033196132)
(0.0016019073 0 -0.00033450977)
(0.0016015883 0 -0.00033749404)
(0.0016011344 0 -0.00034097261)
(0.0016004958 0 -0.00034500419)
(0.0015996052 0 -0.00034964345)
(0.0015983727 0 -0.00035493342)
(0.0015966788 0 -0.0003608944)
(0.0015943653 0 -0.00036750668)
(0.0015912252 0 -0.00037468574)
(0.0015869899 0 -0.00038224642)
(0.0015813157 0 -0.00038985432)
(0.0015737766 0 -0.0003968609)
(0.0015638568 0 -0.00040208956)
(0.0015509225 0 -0.00040388921)
(0.0015342161 0 -0.00039995944)
(0.0015128871 0 -0.00038721117)
(0.0014860359 0 -0.00036154947)
(0.0014528064 0 -0.00031733452)
(0.0014124798 0 -0.00024768555)
(0.0013646004 0 -0.00014491257)
(0.0013091187 0 -1.3618357e-06)
(0.0012464464 0 0.00018929883)
(0.0011774429 0 0.00043104453)
(0.0011033321 0 0.00072458008)
(0.0010255357 0 0.0010665182)
(0.00094556852 0 0.0014486208)
(0.0008648992 0 0.0018584266)
(0.00078493865 0 0.0022801098)
(0.00070698943 0 0.0026964829)
(0.00063226817 0 0.0030904291)
(0.00056172576 0 0.0034469944)
(0.00049602976 0 0.0037546322)
(0.0004355378 0 0.0040045947)
(0.00038030441 0 0.0041914811)
(0.0003302026 0 0.0043118649)
(0.00028487976 0 0.0043640121)
(0.00024412251 0 0.0043463004)
(0.00020772877 0 0.0042580497)
(0.00017518286 0 0.0040941949)
(0.00014560902 0 0.0038492538)
(0.00011846713 0 0.0035112637)
(9.292984e-05 0 0.0030645725)
(6.9034247e-05 0 0.0025010454)
(4.598865e-05 0 0.001799453)
(2.2856929e-05 0 0.00094521157)
(0 0 0)
(0.0015985472 0 -0.00051939435)
(0.0015983257 0 -0.00051913698)
(0.0015982524 0 -0.00052084285)
(0.0015981396 0 -0.00052285778)
(0.0015979723 0 -0.00052523535)
(0.0015977299 0 -0.00052803276)
(0.0015973842 0 -0.00053131272)
(0.001596897 0 -0.00053514199)
(0.0015962168 0 -0.00053958888)
(0.0015952741 0 -0.00054471878)
(0.0015939764 0 -0.00055058696)
(0.0015922005 0 -0.0005572275)
(0.0015897842 0 -0.00056463568)
(0.0015865149 0 -0.00057274304)
(0.0015821175 0 -0.00058137919)
(0.0015762449 0 -0.00059021888)
(0.0015684749 0 -0.00059849915)
(0.0015582843 0 -0.00060499874)
(0.0015450224 0 -0.00060814518)
(0.0015279258 0 -0.00060565552)
(0.0015061488 0 -0.00059432294)
(0.0014788099 0 -0.00056984306)
(0.0014450834 0 -0.00052650819)
(0.0014042922 0 -0.00045747136)
(0.0013560517 0 -0.00035463228)
(0.0013003885 0 -0.0002098361)
(0.0012377737 0 -1.688522e-05)
(0.0011691104 0 0.00022794383)
(0.0010956333 0 0.0005253232)
(0.0010187354 0 0.00087189441)
(0.00093985365 0 0.0012594976)
(0.0008603615 0 0.0016757832)
(0.0007815697 0 0.0021050426)
(0.0007046986 0 0.0025301745)
(0.00063089998 0 0.0029340883)
(0.00056109735 0 0.0033016939)
(0.00049595843 0 0.0036212204)
(0.0004358559 0 0.0038835908)
(0.00038088087 0 0.004083035)
(0.00033093397 0 0.0042159053)
(0.00028570377 0 0.004280175)
(0.00024498367 0 0.0042741212)
(0.00020856832 0 0.0041967783)
(0.00017596148 0 0.0040432144)
(0.00014633729 0 0.0038078497)
(0.00011914131 0 0.0034790373)
(9.3577328e-05 0 0.0030415608)
(6.9601841e-05 0 0.0024862629)
(4.6442744e-05 0 0.001792392)
(2.3156551e-05 0 0.00094482372)
(0 0 0)
(0.0015936875 0 -0.00070788197)
(0.0015934652 0 -0.00070771261)
(0.0015933792 0 -0.0007095661)
(0.0015932508 0 -0.00071175678)
(0.0015930641 0 -0.00071434359)
(0.0015927977 0 -0.00071738996)
(0.0015924222 0 -0.00072096588)
(0.0015918979 0 -0.00072514628)
(0.0015911713 0 -0.000730009)
(0.0015901708 0 -0.00073563018)
(0.0015888007 0 -0.00074207722)
(0.0015869343 0 -0.00074939791)
(0.0015844044 0 -0.00075760301)
(0.001580993 0 -0.00076664108)
(0.0015764187 0 -0.00077635635)
(0.0015703358 0 -0.0007863405)
(0.001562322 0 -0.00079578799)
(0.0015518368 0 -0.00080356313)
(0.0015382168 0 -0.0008080783)
(0.0015206987 0 -0.00080698497)
(0.0014984413 0 -0.00079698807)
(0.0014705822 0 -0.0007736243)
(0.0014363289 0 -0.00073103665)
(0.0013950584 0 -0.00066221642)
(0.0013464551 0 -0.00055903385)
(0.0012906177 0 -0.00041301112)
(0.0012280845 0 -0.00021768599)
(0.0011597996 0 3.0346592e-05)
(0.0010870066 0 0.00033158299)
(0.0010110659 0 0.00068268944)
(0.00093333267 0 0.0010755661)
(0.00085508225 0 0.0014979785)
(0.0007775245 0 0.0019343406)
(0.00070179758 0 0.0023676626)
(0.00062898905 0 0.0027809137)
(0.00055999344 0 0.0031589029)
(0.00049547631 0 0.0034896905)
(0.00043582393 0 0.0037638878)
(0.00038116143 0 0.003975379)
(0.00033141778 0 0.0041203011)
(0.0002863205 0 0.0041963359)
(0.00024567283 0 0.0042016486)
(0.00020926814 0 0.0041350054)
(0.00017662912 0 0.0039915666)
(0.00014697619 0 0.0037656727)
(0.00011974574 0 0.0034459687)
(9.4168413e-05 0 0.003017631)
(7.0129375e-05 0 0.0024706207)
(4.6871026e-05 0 0.0017845806)
(2.3441064e-05 0 0.00094385212)
(0 0 0)
(0.0015881017 0 -0.00089229094)
(0.0015878797 0 -0.00089221003)
(0.0015877796 0 -0.00089421244)
(0.0015876337 0 -0.00089658065)
(0.0015874255 0 -0.00089937864)
(0.0015871324 0 -0.00090267576)
(0.0015867238 0 -0.00090654887)
(0.0015861584 0 -0.00091108099)
(0.0015853806 0 -0.00091635925)
(0.0015843162 0 -0.00092247073)
(0.0015828664 0 -0.00092949535)
(0.0015809002 0 -0.00093749545)
(0.0015782455 0 -0.00094649919)
(0.0015746778 0 -0.00095647768)
(0.0015699144 0 -0.00096725689)
(0.0015636124 0 -0.0009783154)
(0.0015553365 0 -0.00098888865)
(0.0015445295 0 -0.00099792578)
(0.0015305226 0 -0.001003776)
(0.0015125508 0 -0.001004033)
(0.0014897795 0 -0.00099530414)
(0.0014613684 0 -0.00097297721)
(0.0014265638 0 -0.00093099402)
(0.0013848012 0 -0.00086209607)
(0.0013358366 0 -0.00075814905)
(0.0012798345 0 -0.0006107832)
(0.0012174079 0 -0.00041310754)
(0.0011495459 0 -0.00016174649)
(0.0010774889 0 0.00014336174)
(0.0010025641 0 0.00049891305)
(0.00092604049 0 0.00089684878)
(0.00084909277 0 0.0013250527)
(0.00077282953 0 0.001768065)
(0.00069830754 0 0.0022090297)
(0.00062655306 0 0.0026310921)
(0.00055842849 0 0.0030189153)
(0.000494592 0 0.0033602632)
(0.0004354456 0 0.0036456179)
(0.00038114764 0 0.0038686403)
(0.00033165402 0 0.0040251715)
(0.00028672917 0 0.0041126021)
(0.00024618875 0 0.0041289772)
(0.00020982659 0 0.0040728103)
(0.00017718388 0 0.0039393177)
(0.00014752417 0 0.0037227753)
(0.00012027895 0 0.0034120987)
(9.4702185e-05 0 0.0029928201)
(7.0615906e-05 0 0.0024541419)
(4.7272729e-05 0 0.0017760341)
(2.3710242e-05 0 0.00094231195)
(0 0 0)
(0.0015818168 0 -0.0010727059)
(0.001581591 0 -0.0010727127)
(0.0015814752 0 -0.001074864)
(0.00158131 0 -0.0010774097)
(0.0015810778 0 -0.001080419)
(0.0015807552 0 -0.001083967)
(0.00158031 0 -0.0010881372)
(0.0015796993 0 -0.0010930206)
(0.0015788653 0 -0.0010987135)
(0.001577731 0 -0.0011053134)
(0.0015761939 0 -0.0011129126)
(0.0015741186 0 -0.0011215873)
(0.0015713272 0 -0.0011313812)
(0.0015675909 0 -0.0011422827)
(0.0015626302 0 -0.0011540517)
(0.0015560967 0 -0.0011661533)
(0.0015475359 0 -0.0011778783)
(0.0015363798 0 -0.0011881604)
(0.0015219556 0 -0.0011953182)
(0.0015034966 0 -0.0011968845)
(0.0014801775 0 -0.0011893612)
(0.001451183 0 -0.001167989)
(0.0014158051 0 -0.0011264606)
(0.0013735391 0 -0.0010572892)
(0.0013242152 0 -0.00095224006)
(0.0012680674 0 -0.00080317904)
(0.0012057814 0 -0.00060305082)
(0.0011383864 0 -0.00034833745)
(0.0010671184 0 -3.9344925e-05)
(0.00099326849 0 0.00032056589)
(0.00091801348 0 0.00072335641)
(0.00084242568 0 0.0011570325)
(0.00076751669 0 0.0016063726)
(0.00069425978 0 0.0020545787)
(0.00062361728 0 0.0024849415)
(0.00055641988 0 0.0028820556)
(0.00049331589 0 0.0032332514)
(0.00043472734 0 0.0035290602)
(0.00038084289 0 0.0037630136)
(0.00033164345 0 0.0039306297)
(0.00028692963 0 0.0040290758)
(0.00024653066 0 0.0040561981)
(0.0002102424 0 0.0040102703)
(0.00017762417 0 0.0038865325)
(0.00014797987 0 0.00367921)
(0.0001207396 0 0.0033774686)
(9.5177749e-05 0 0.0029671643)
(7.1060504e-05 0 0.0024368507)
(4.7647071e-05 0 0.0017667682)
(2.3963814e-05 0 0.0009402166)
(0 0 0)
(0.0015748463 0 -0.0012492087)
(0.001574619 0 -0.0012493039)
(0.001574486 0 -0.001251605)
(0.0015742995 0 -0.0012543289)
(0.0015740412 0 -0.0012575494)
(0.0015736863 0 -0.001261347)
(0.0015732013 0 -0.0012658121)
(0.0015725413 0 -0.0012710439)
(0.001571646 0 -0.0012771481)
(0.0015704355 0 -0.0012842331)
(0.0015688034 0 -0.0012924035)
(0.0015666095 0 -0.0013017492)
(0.0015636701 0 -0.0013123289)
(0.0015597557 0 -0.0013241079)
(0.0015545875 0 -0.001336809)
(0.0015478036 0 -0.0013499476)
(0.0015389338 0 -0.0013628315)
(0.0015274023 0 -0.0013743485)
(0.0015125297 0 -0.0013827905)
(0.0014935493 0 -0.0013856273)
(0.0014696479 0 -0.0013792442)
(0.0014400466 0 -0.001358618)
(0.0014040836 0 -0.0013172575)
(0.0013613074 0 -0.0012475977)
(0.0013116215 0 -0.0011413224)
(0.0012553521 0 -0.00099022292)
(0.0011932449 0 -0.00078741377)
(0.0011263563 0 -0.00052942647)
(0.0010559344 0 -0.00021654643)
(0.00098321844 0 0.00014764205)
(0.00090929448 0 0.0005551961)
(0.00083512829 0 0.00099418291)
(0.00076163033 0 0.0014495904)
(0.0006896904 0 0.0019046691)
(0.00062020453 0 0.0023426663)
(0.0005539794 0 0.002748333)
(0.00049165744 0 0.0031087956)
(0.00043367686 0 0.0034145032)
(0.00038025066 0 0.003658701)
(0.00033138693 0 0.003836785)
(0.00028692213 0 0.0039458561)
(0.00024669809 0 0.0039834002)
(0.00021051454 0 0.0039474619)
(0.00017794856 0 0.0038332755)
(0.00014834198 0 0.0036350289)
(0.0001211264 0 0.0033421198)
(9.5594228e-05 0 0.0029407001)
(7.1462266e-05 0 0.0024187711)
(4.7993317e-05 0 0.0017567994)
(2.4201502e-05 0 0.00093758033)
(0 0 0)
(0.001567216 0 -0.0014218804)
(0.0015669852 0 -0.001422061)
(0.0015668334 0 -0.0014245083)
(0.0015666238 0 -0.0014274059)
(0.001566337 0 -0.0014308332)
(0.001565947 0 -0.0014348773)
(0.0015654185 0 -0.0014396359)
(0.0015647047 0 -0.001445216)
(0.0015637427 0 -0.0014517322)
(0.0015624493 0 -0.0014593035)
(0.001560714 0 -0.0014680456)
(0.0015583914 0 -0.0014780617)
(0.0015552933 0 -0.0014894278)
(0.0015511914 0 -0.0015020587)
(0.0015458018 0 -0.0015156738)
(0.0015387472 0 -0.0015298426)
(0.0015295451 0 -0.0015438575)
(0.0015176105 0 -0.0015565827)
(0.0015022572 0 -0.0015662818)
(0.0014827207 0 -0.0015703502)
(0.0014582137 0 -0.0015649258)
(0.0014279974 0 -0.001544686)
(0.0013914383 0 -0.0015031635)
(0.0013481409 0 -0.0014327835)
(0.0012980936 0 -0.0013251717)
(0.0012417221 0 -0.001171921)
(0.0011798265 0 -0.00096631428)
(0.0011134919 0 -0.00070502896)
(0.0010439776 0 -0.00038825967)
(0.0009724635 0 -1.9761888e-05)
(0.00089994297 0 0.0003926444)
(0.00082725745 0 0.0008368715)
(0.00075521038 0 0.0012979135)
(0.00068462094 0 0.0017592484)
(0.00061632914 0 0.0022042007)
(0.00055111794 0 0.0026176864)
(0.0004896253 0 0.0029868468)
(0.00043229926 0 0.0033019294)
(0.00037937411 0 0.0035558077)
(0.00033088696 0 0.0037438079)
(0.00028670753 0 0.003863037)
(0.00024669109 0 0.0039106688)
(0.00021064237 0 0.0038844591)
(0.00017815593 0 0.0037796101)
(0.00014860939 0 0.0035902841)
(0.00012143821 0 0.0033060941)
(9.5950769e-05 0 0.0029134637)
(7.1820308e-05 0 0.0023999284)
(4.83107e-05 0 0.001746144)
(2.4423025e-05 0 0.00093441718)
(0 0 0)
(0.0015589462 0 -0.0015907996)
(0.0015587092 0 -0.0015910663)
(0.0015585368 0 -0.0015936613)
(0.001558302 0 -0.0015967343)
(0.0015579842 0 -0.0016003699)
(0.0015575559 0 -0.0016046611)
(0.0015569803 0 -0.0016097127)
(0.001556208 0 -0.0016156394)
(0.0015551738 0 -0.0016225652)
(0.0015537906 0 -0.0016306187)
(0.0015519438 0 -0.0016399265)
(0.0015494824 0 -0.0016506021)
(0.0015462157 0 -0.0016627307)
(0.001541916 0 -0.0016762018)
(0.0015362894 0 -0.0016907332)
(0.0015289431 0 -0.0017059186)
(0.0015193842 0 -0.0017210408)
(0.0015070173 0 -0.0017349467)
(0.0014911493 0 -0.0017458773)
(0.0014710319 0 -0.0017510372)
(0.0014459111 0 -0.0017462579)
(0.0014150604 0 -0.0017262005)
(0.001377878 0 -0.0016843945)
(0.0013340493 0 -0.0016130684)
(0.0012836566 0 -0.0015037894)
(0.0012272057 0 -0.0013482666)
(0.0011655541 0 -0.0011398705)
(0.0010998326 0 -0.00087517549)
(0.0010313007 0 -0.00055438712)
(0.00096107259 0 -0.00018135119)
(0.00089001841 0 0.00023591346)
(0.00081884918 0 0.00068507306)
(0.00074827984 0 0.0011512262)
(0.00067906849 0 0.0016181662)
(0.00061200686 0 0.002069473)
(0.00054784966 0 0.0024901623)
(0.00048722873 0 0.0028674071)
(0.00043059982 0 0.0031912871)
(0.00037821805 0 0.0034544163)
(0.00033014673 0 0.0036518686)
(0.00028628662 0 0.0037807096)
(0.00024650992 0 0.0038380866)
(0.00021062546 0 0.003821335)
(0.0001782453 0 0.0037255988)
(0.00014878107 0 0.0035450271)
(0.00012167389 0 0.0032694333)
(9.6246538e-05 0 0.0028854914)
(7.2133763e-05 0 0.0023803475)
(4.8598492e-05 0 0.0017348191)
(2.4628069e-05 0 0.00093074064)
(0 0 0)
(0.0015500497 0 -0.0017560436)
(0.0015498082 0 -0.001756396)
(0.0015496136 0 -0.001759139)
(0.0015493515 0 -0.001762388)
(0.0015490001 0 -0.0017662324)
(0.0015485304 0 -0.0017707714)
(0.0015479038 0 -0.0017761164)
(0.0015470686 0 -0.0017823904)
(0.0015459563 0 -0.0017897264)
(0.0015444764 0 -0.0017982637)
(0.0015425094 0 -0.0018081413)
(0.0015398985 0 -0.0018194874)
(0.0015364532 0 -0.0018323551)
(0.0015319444 0 -0.0018466317)
(0.0015260646 0 -0.0018620682)
(0.001518406 0 -0.0018782525)
(0.0015084648 0 -0.0018944575)
(0.0014956352 0 -0.0019095033)
(0.0014792263 0 -0.001921562)
(0.0014585166 0 -0.001927569)
(0.0014327597 0 -0.0019232586)
(0.0014012342 0 -0.0019033788)
(0.0013634043 0 -0.0018611989)
(0.0013190451 0 -0.0017887048)
(0.0012683294 0 -0.0016774045)
(0.0012118371 0 -0.0015192604)
(0.001150481 0 -0.0013078867)
(0.0010854413 0 -0.0010396767)
(0.0010179808 0 -0.00071462751)
(0.00094911431 0 -0.00033689337)
(0.00087956108 0 8.4963829e-05)
(0.00080992937 0 0.0005386041)
(0.00074086221 0 0.0010093848)
(0.00067305677 0 0.0014814004)
(0.00060725701 0 0.0019384899)
(0.0005441896 0 0.0023657924)
(0.00048447882 0 0.0027505305)
(0.00042858667 0 0.0030826441)
(0.00037678743 0 0.0033545547)
(0.00032916835 0 0.0035609914)
(0.00028566069 0 0.0036989574)
(0.00024615533 0 0.0037657322)
(0.00021046373 0 0.0037581598)
(0.00017821599 0 0.0036713026)
(0.00014885617 0 0.0034993093)
(0.00012183248 0 0.0032321792)
(9.6480728e-05 0 0.0028568193)
(7.2401768e-05 0 0.0023600541)
(4.8855941e-05 0 0.0017228418)
(2.4816333e-05 0 0.00092656493)
(0 0 0)
(0.0015405492 0 -0.0019176875)
(0.0015403 0 -0.0019181253)
(0.0015400814 0 -0.0019210166)
(0.0015397898 0 -0.0019244417)
(0.0015394022 0 -0.0019284953)
(0.001538888 0 -0.0019332823)
(0.0015382064 0 -0.0019389211)
(0.0015373033 0 -0.0019455425)
(0.0015361071 0 -0.0019532889)
(0.0015345229 0 -0.0019623103)
(0.0015324261 0 -0.0019727582)
(0.0015296561 0 -0.0019847805)
(0.0015260244 0 -0.0019983782)
(0.0015212952 0 -0.0020134334)
(0.0015151438 0 -0.0020297529)
(0.0015071505 0 -0.0020469152)
(0.0014968006 0 -0.002064177)
(0.0014834789 0 -0.0020803359)
(0.0014665121 0 -0.0020933355)
(0.0014451908 0 -0.0020999893)
(0.0014187562 0 -0.0020961391)
(0.001386522 0 -0.0020763773)
(0.0013480335 0 -0.0020336335)
(0.001303151 0 -0.0019597234)
(0.001252137 0 -0.0018461342)
(0.0011956594 0 -0.0016849154)
(0.0011346679 0 -0.0014701841)
(0.0010703927 0 -0.0011982273)
(0.0010040928 0 -0.0008687082)
(0.00093663399 0 -0.00048641932)
(0.00086860257 0 -6.0333711e-05)
(0.00080052872 0 0.00039738016)
(0.00073298487 0 0.00087233107)
(0.00066660922 0 0.0013489208)
(0.00060209885 0 0.0018112496)
(0.00054015285 0 0.0022445998)
(0.00048138697 0 0.0026362617)
(0.00042626795 0 0.0029760611)
(0.00037508703 0 0.0032562425)
(0.00032795507 0 0.0034712357)
(0.00028483266 0 0.003617917)
(0.00024562827 0 0.0036936815)
(0.00021015727 0 0.0036950023)
(0.00017806743 0 0.0036167815)
(0.00014883389 0 0.0034531812)
(0.00012191302 0 0.0031943736)
(9.6652568e-05 0 0.0028274837)
(7.2623535e-05 0 0.0023390747)
(4.9082341e-05 0 0.00171023)
(2.4987469e-05 0 0.00092190314)
(0 0 0)
(0.0015304579 0 -0.0020758048)
(0.001530202 0 -0.0020763279)
(0.0015299576 0 -0.0020793674)
(0.0015296344 0 -0.0020829686)
(0.0015292079 0 -0.0020872311)
(0.0015286459 0 -0.0020922657)
(0.0015279054 0 -0.0020981973)
(0.0015269296 0 -0.0021051644)
(0.0015256434 0 -0.0021133176)
(0.0015239478 0 -0.0021228159)
(0.0015217126 0 -0.002133819)
(0.0015187756 0 -0.0021464824)
(0.0015149488 0 -0.0021607978)
(0.0015099841 0 -0.0021766453)
(0.0015035412 0 -0.0021938443)
(0.0014951898 0 -0.0022119689)
(0.0014844031 0 -0.0022302583)
(0.0014705657 0 -0.0022474621)
(0.0014530235 0 -0.0022612715)
(0.0014310566 0 -0.0022684885)
(0.0014039037 0 -0.0022650351)
(0.0013709449 0 -0.0022451477)
(0.0013318025 0 -0.0022015184)
(0.0012864116 0 -0.0021259213)
(0.0012351327 0 -0.0020097869)
(0.001178718 0 -0.0018452408)
(0.0011181596 0 -0.0016268527)
(0.0010547518 0 -0.0013507425)
(0.00098968947 0 -0.0010166378)
(0.00092366554 0 -0.00063007852)
(0.0008571759 0 -0.00020009922)
(0.00079067799 0 0.00026130502)
(0.00072467542 0 0.00073999429)
(0.0006597497 0 0.0012206837)
(0.0005965522 0 0.0016877364)
(0.00053575519 0 0.0021265945)
(0.00047796533 0 0.0025246333)
(0.00042365253 0 0.0028715879)
(0.00037312332 0 0.0031595408)
(0.00032651215 0 0.0033827181)
(0.00028380591 0 0.0035377212)
(0.00024492986 0 0.003622006)
(0.00020970659 0 0.0036319281)