/*--------------------------------*- C++ -*----------------------------------*\
  =========                 |
  \\      /  F ield         | OpenFOAM: The Open Source CFD Toolbox
   \\    /   O peration     | Website:  https://openfoam.org
    \\  /    A nd           | Version:  8
     \\/     M anipulation  |
\*---------------------------------------------------------------------------*/
FoamFile
{
    version     2.0;
    format      ascii;
    class       volScalarField;
    location    "0.280002";
    object      rho;
}
// * * * * * * * * * * * * * * * * * * * * * * * * * * * * * * * * * * * * * //

dimensions      [1 -3 0 0 0 0 0];

internalField   nonuniform List<scalar> 
20000
(
0.71567204
0.71695582
0.71869173
0.72207694
0.7287789
0.74188644
0.76639762
0.77639074
0.77568817
0.77742202
0.77753418
0.77949086
0.78050157
0.78305415
0.78511906
0.7886228
0.7920509
0.79699338
0.80232556
0.80940518
0.81747617
0.82768015
0.83961427
0.85416972
0.8711756
0.89115239
0.91382685
0.93901072
0.96592538
0.99379161
1.0215453
1.0478486
1.0712682
1.0911042
1.1072696
1.1202119
1.1303161
1.138241
1.144404
1.1492941
1.1531136
1.1561792
1.1587226
1.1607766
1.1623575
1.163573
1.1652631
1.1667163
1.1677049
1.1693462
0.71775345
0.718869
0.72060556
0.72407815
0.73104963
0.74473339
0.76927234
0.77828817
0.7775269
0.77932526
0.77945638
0.78149152
0.78254907
0.785201
0.78734816
0.79098091
0.79453598
0.79965028
0.80517294
0.81249051
0.82083847
0.83136484
0.84366797
0.85862229
0.87604874
0.89641163
0.91936823
0.94460409
0.97123843
0.99843067
1.0251928
1.0504271
1.0729681
1.0921935
1.1079785
1.120662
1.1306022
1.1384275
1.1445372
1.1493936
1.1531931
1.1562577
1.158799
1.1608429
1.162402
1.1636389
1.1653167
1.1668148
1.1678654
1.1694015
0.71977838
0.72076916
0.7224768
0.7260432
0.73333467
0.74774442
0.77219381
0.78016063
0.77940848
0.78127568
0.78143753
0.7835514
0.78466542
0.78741593
0.78965239
0.79341444
0.79710512
0.80239805
0.8081252
0.8156954
0.82433984
0.83521186
0.84791214
0.8633017
0.88119022
0.90198608
0.92526688
0.95059005
0.97696782
1.0034969
1.0292589
1.053377
1.0749484
1.0934588
1.1087627
1.1211571
1.1309143
1.1386259
1.1446693
1.1494836
1.1532588
1.1563169
1.1588535
1.160888
1.1624292
1.16369
1.1654058
1.1669138
1.1682054
1.1693882
0.72194373
0.72280361
0.72449274
0.72815048
0.7357675
0.75099292
0.77513306
0.78212519
0.78140186
0.783337
0.78352835
0.78572058
0.78688829
0.7897368
0.79206111
0.79595412
0.79978268
0.80525878
0.81119576
0.81902361
0.82796886
0.83918971
0.85229032
0.86811786
0.88646967
0.90769622
0.93129405
0.95670263
0.98284742
1.008787
1.0336593
1.0567497
1.0773668
1.095121
1.1098813
1.121902
1.1314087
1.1389583
1.1449006
1.1496479
1.1533816
1.1564219
1.1589451
1.1609616
1.1624762
1.1637524
1.1654857
1.1670585
1.1683891
1.1693922
0.72413914
0.72489071
0.72656959
0.7303287
0.73829319
0.75445964
0.77808502
0.78413935
0.78348651
0.78548797
0.78571016
0.78797974
0.78920379
0.79215224
0.79457083
0.79860126
0.80257851
0.80824852
0.81440912
0.82250804
0.83177059
0.84335836
0.85688133
0.8731704
0.89200855
0.91368137
0.93759804
0.96308105
0.98897936
1.014327
1.0383235
1.060399
1.0800491
1.0970081
1.1111735
1.1227801
1.1320019
1.1393622
1.1451815
1.1498463
1.1535279
1.1565418
1.1590461
1.1610407
1.1625258
1.1638139
1.1655818
1.1672381
1.1685553
1.1693949
0.72645318
0.7271029
0.72875782
0.73261883
0.7409386
0.75815812
0.78104066
0.78634414
0.78566386
0.78772875
0.78798229
0.79033029
0.79161447
0.79466739
0.79718693
0.80136211
0.80549705
0.81137031
0.81776572
0.82614658
0.83573971
0.84770937
0.86167252
0.87844107
0.89778075
0.91990487
0.94413013
0.96966663
0.99530174
1.0200624
1.0432121
1.0643049
1.0829958
1.0991394
1.1126726
1.12382
1.1327177
1.1398576
1.1455295
1.1500939
1.1537108
1.1566891
1.159168
1.1611349
1.1625856
1.1638823
1.1656953
1.1674385
1.1686619
1.1694009
0.72880915
0.72936467
0.73100896
0.7349838
0.74366913
0.76204989
0.78396082
0.7885754
0.78791277
0.79004486
0.79033609
0.79276705
0.79411805
0.79728136
0.79991019
0.80423797
0.80854096
0.81462742
0.82126971
0.82994511
0.83988568
0.85225695
0.86668342
0.88395466
0.90381493
0.92639607
0.95091596
0.97647616
1.001816
1.0259709
1.0482759
1.0683989
1.0861354
1.1014514
1.1143268
1.1249857
1.1335314
1.1404271
1.1459317
1.1503811
1.1539227
1.1568571
1.1593052
1.1612394
1.1626528
1.1639612
1.165839
1.1676287
1.1687539
1.1694146
0.73124799
0.73170914
0.73334406
0.73744369
0.74650306
0.7661319
0.78685721
0.7908964
0.79024507
0.79244523
0.79277812
0.79529536
0.79671907
0.7999982
0.8027436
0.80723098
0.81171103
0.81801977
0.82492063
0.83390351
0.84420914
0.85700243
0.87191509
0.88971106
0.91010758
0.9331455
0.95793824
0.98348506
1.0084923
1.0320195
1.0534793
1.0726455
1.0894367
1.103921
1.1161218
1.1262684
1.1344379
1.1410681
1.1463875
1.1507083
1.1541645
1.1570473
1.1594588
1.1613546
1.1627298
1.1640591
1.1660208
1.1677971
1.168829
1.1694288
0.73372285
0.73411063
0.73574544
0.7399866
0.74944082
0.77037588
0.78972557
0.79328753
0.79265893
0.7949293
0.79530882
0.79791623
0.7994189
0.8028188
0.80568765
0.81034117
0.81500761
0.8215478
0.82871925
0.83802405
0.8487149
0.86195277
0.87737656
0.89572011
0.91666762
0.94015733
0.96519437
0.9906829
1.015312
1.0381805
1.0587857
1.0770017
1.0928569
1.1065112
1.1180286
1.1276473
1.1354232
1.1417713
1.1468905
1.151071
1.1544333
1.1572574
1.1596266
1.1614777
1.1628171
1.1641854
1.1662405
1.167942
1.1688953
1.1694427
0.73632881
0.73659048
0.73824481
0.74264868
0.75252535
0.77478402
0.79258257
0.79576253
0.79515915
0.7975008
0.79793146
0.80063221
0.80221901
0.80574361
0.80874215
0.81356843
0.81843028
0.82521132
0.83266685
0.84231022
0.85340821
0.86711425
0.8830741
0.9019871
0.92349621
0.94742599
0.97267061
0.99804914
1.0222499
1.0444254
1.0641638
1.0814346
1.0963643
1.1091949
1.1200262
1.1291073
1.1364767
1.1425294
1.1474362
1.1514664
1.1547272
1.1574866
1.1598074
1.1616071
1.1629168
1.1643511
1.1664786
1.1680787
1.1689536
1.1694551
0.7389972
0.7391413
0.7408193
0.74540974
0.75575351
0.77929861
0.79541847
0.79831069
0.79774165
0.80015972
0.80064703
0.80344302
0.80511771
0.8087707
0.81190611
0.81691236
0.82197915
0.82901113
0.83676564
0.84676638
0.8582951
0.87249407
0.88901561
0.90851944
0.93059711
0.95494822
0.98035555
1.0055656
1.0292829
1.0507276
1.0695838
1.0859123
1.0999278
1.1119443
1.1220924
1.1306316
1.1375864
1.1433341
1.148019
1.1518908
1.155044
1.1577333
1.1599995
1.1617406
1.1630312
1.1645673
1.1667295
1.1682108
1.1690067
1.1694651
0.74172879
0.74175463
0.7434626
0.74826892
0.75914746
0.78389641
0.79826333
0.80095138
0.80041734
0.80290938
0.80345381
0.80634504
0.8081121
0.81189904
0.81517949
0.82037301
0.82565415
0.83294864
0.84102006
0.85139931
0.86338358
0.87810064
0.89520939
0.91532345
0.93797106
0.96271627
0.988233
1.0132101
1.0363858
1.0570605
1.0750184
1.0904072
1.1035206
1.114736
1.1242077
1.1322053
1.1387413
1.1441777
1.1486336
1.1523406
1.1553814
1.1579961
1.1602013
1.1618773
1.1631641
1.164844
1.1669879
1.1683406
1.1690553
1.1694723
0.74457241
0.7444786
0.74622021
0.75125839
0.76275917
0.78855944
0.80114221
0.80367542
0.8031729
0.8057364
0.80634278
0.80933436
0.81120205
0.81512955
0.81856264
0.82395011
0.82945627
0.83702738
0.84543569
0.85621592
0.86868125
0.88394229
0.90166426
0.92240595
0.94561893
0.9707222
0.99628675
1.0209609
1.0435341
1.0633988
1.0804421
1.0948939
1.1071185
1.1175482
1.126354
1.1338141
1.1399307
1.1450523
1.1492745
1.1528122
1.1557369
1.1582732
1.1604113
1.1620177
1.1633209
1.1651881
1.167249
1.1684679
1.1690993
1.1694744
0.74744303
0.74723335
0.74900791
0.75430114
0.76654086
0.79317782
0.80396652
0.80645822
0.80599841
0.80863976
0.80931676
0.81241525
0.81439042
0.81846294
0.8220547
0.82764345
0.833388
0.84125276
0.85002036
0.86122492
0.87419727
0.89002874
0.90838955
0.92977266
0.9535385
0.97895399
1.0044967
1.0287933
1.0507023
1.0697179
1.0858315
1.0993498
1.1107002
1.1203616
1.1285149
1.1354448
1.1411444
1.1459503
1.1499364
1.1533021
1.1561081
1.1585627
1.1606275
1.162164
1.1635101
1.1655947
1.1675094
1.168593
1.1691384
1.1694721
0.75036629
0.75004892
0.75186128
0.75743126
0.77055348
0.79776174
0.80681072
0.80931921
0.80891003
0.8116313
0.81238275
0.81558979
0.81767622
0.82189699
0.82565448
0.83145516
0.83745455
0.84563242
0.85478189
0.86643423
0.87994014
0.89636984
0.91539481
0.93742936
0.96172688
0.98739891
1.0128422
1.036683
1.0578655
1.0759943
1.0911647
1.1037543
1.1142466
1.1231592
1.1306759
1.1370854
1.1423731
1.1468648
1.150614
1.1538066
1.1564925
1.1588623
1.1608477
1.1623195
1.1637443
1.1660337
1.1677753
1.1687185
1.1691698
1.1694613
0.75339155
0.75296603
0.75481803
0.76067608
0.77482712
0.80233644
0.80966188
0.81225972
0.81190626
0.81470896
0.8155372
0.81885335
0.82105532
0.82542954
0.82936361
0.83539018
0.84166402
0.85017495
0.85972902
0.8718531
0.88592032
0.90297676
0.92268978
0.94537941
0.97017731
0.99603963
1.021299
1.0446034
1.0649983
1.0822054
1.0964215
1.1080893
1.117741
1.125926
1.1328238
1.138725
1.143608
1.1477892
1.1513025
1.1543223
1.1568877
1.1591695
1.1610691
1.1624873
1.1640375
1.1664697
1.1680454
1.1688466
1.169191
1.1694361
0.75646791
0.75594312
0.75784304
0.76399972
0.7793467
0.80684694
0.81255633
0.81528033
0.81498064
0.817865
0.81877349
0.82220147
0.82452575
0.82906283
0.83318779
0.83945745
0.84602515
0.85488802
0.86486919
0.87749011
0.8921483
0.90986117
0.93028429
0.95362564
0.97888192
1.004858
1.0298428
1.0525283
1.0720764
1.0883299
1.1015837
1.1123384
1.1211687
1.1286491
1.1349473
1.1403539
1.1448412
1.1487173
1.1519972
1.1548459
1.1572913
1.1594817
1.1612883
1.1626689
1.1644001
1.1668699
1.1683056
1.1689797
1.1692109
1.1693875
0.75962842
0.75901637
0.76096731
0.76742515
0.78412559
0.81130963
0.81564306
0.81837413
0.81812633
0.82109264
0.8220881
0.82563441
0.82809181
0.83280409
0.83713673
0.843666
0.85054595
0.85977912
0.87021113
0.88335623
0.89863682
0.91703567
0.93818702
0.9621671
0.98782768
1.013831
1.0384455
1.0604301
1.0790756
1.0943475
1.1066344
1.1164871
1.1245171
1.1313172
1.1370364
1.1419633
1.1460656
1.1496434
1.1526941
1.1553744
1.1577013
1.1597964
1.1615027
1.1628642
1.164831
1.1672131
1.1685364
1.1691098
1.1692317
1.169302
0.76280357
0.76212234
0.76413979
0.77090708
0.78910532
0.81564548
0.81872436
0.82152588
0.82134187
0.82439566
0.8254862
0.82915934
0.83176201
0.83666369
0.84121999
0.84802406
0.85523254
0.8648547
0.87576349
0.88946285
0.90539865
0.92451341
0.94640601
0.97100224
0.99700018
1.0229351
1.0470796
1.0682824
1.0859728
1.1002397
1.1115584
1.1205228
1.1277754
1.1339209
1.1390825
1.1435458
1.1472746
1.1505625
1.1533894
1.155905
1.1581154
1.1601112
1.1617115
1.1630732
1.1652871
1.1675204
1.16872
1.1692051
1.1692722
1.1691644
0.76602549
0.76529605
0.76740442
0.77449698
0.79430832
0.81989543
0.82188858
0.8247524
0.82463738
0.82778282
0.82897642
0.83278581
0.83554731
0.84065158
0.8454454
0.85253628
0.86009014
0.8701229
0.88153797
0.89582371
0.91244849
0.93230693
0.95494685
0.98012371
1.0063793
1.0321416
1.0557146
1.0760576
1.0927455
1.1059887
1.1163421
1.1244347
1.1309345
1.1364524
1.1410785
1.1450946
1.1484626
1.15147
1.1540798
1.1564353
1.1585315
1.1604242
1.1619173
1.1633027
1.165749
1.167794
1.1688587
1.1692618
1.1692926
1.1689897
0.76930944
0.76854841
0.77077754
0.7782161
0.7997035
0.82402137
0.82511442
0.82805528
0.82801349
0.83125923
0.83256791
0.83652501
0.83945736
0.84477448
0.84981637
0.85720631
0.86512467
0.87559339
0.88754725
0.90245298
0.9198012
0.94042908
0.96381412
0.98952305
1.0159439
1.0414219
1.0643211
1.0837295
1.0993727
1.1115786
1.1209737
1.1282138
1.133987
1.1389051
1.1430183
1.1466042
1.1496247
1.1523617
1.1547621
1.1569631
1.158947
1.1607329
1.162126
1.1635721
1.166191
1.1680354
1.168962
1.1692882
1.1693041
1.1687888
0.7726339
0.77186062
0.77425147
0.7820853
0.80525512
0.82804012
0.82842066
0.83145455
0.83148254
0.83483743
0.83627187
0.84038614
0.843497
0.84903363
0.85433408
0.8620377
0.87034481
0.88127925
0.89380644
0.90936665
0.92747226
0.94889104
0.97300762
0.99918495
1.0256661
1.0507427
1.0728671
1.0912714
1.1058338
1.1169947
1.1254428
1.1318527
1.1369272
1.1412739
1.1448968
1.1480698
1.1507566
1.1532341
1.1554337
1.1574865
1.1593593
1.1610346
1.1623448
1.163911
1.1665898
1.168242
1.1690412
1.1692991
1.1693079
1.168571
0.77606373
0.77528969
0.77787549
0.7861707
0.81094626
0.83197329
0.83182032
0.83495783
0.83506475
0.83853188
0.84009551
0.84436985
0.84766403
0.85342765
0.85900065
0.8670385
0.87576294
0.88719502
0.90033098
0.91658073
0.93547784
0.95770354
0.98252597
1.0090925
1.0355177
1.0600715
1.0813221
1.098658
1.1121104
1.1222248
1.1297413
1.1353456
1.1397508
1.1435546
1.1467102
1.1494878
1.1518546
1.1540842
1.1560922
1.1580036
1.1597655
1.1613262
1.1625791
1.1643395
1.1669332
1.1684126
1.1691051
1.1693026
1.1693094
1.168354
0.77951433
0.77875651
0.78159678
0.79048146
0.8167129
0.83585554
0.83532282
0.83856191
0.8387524
0.84234424
0.84403355
0.84847036
0.85195489
0.85795792
0.86382333
0.87222061
0.88139408
0.89335691
0.90713724
0.92411256
0.94383328
0.96687393
0.99236057
1.0192213
1.0454636
1.0693715
1.089653
1.1058632
1.1181848
1.1272587
1.1338634
1.1386878
1.1424545
1.1457442
1.1484553
1.1508553
1.152916
1.1549095
1.1567354
1.1585125
1.160163
1.1616054
1.1628308
1.1648323
1.1672406
1.1685503
1.1691319
1.1693059
1.1692875
1.1681486
0.78307887
0.7823391
0.78547577
0.79510614
0.82254329
0.83984572
0.83891869
0.84226007
0.84252315
0.84624555
0.84807439
0.85268455
0.85637314
0.86263254
0.86881499
0.87759963
0.88725441
0.89978066
0.91424188
0.93197977
0.95255475
0.97640811
1.0025015
1.029545
1.055469
1.0786064
1.0978279
1.1128633
1.1240425
1.132089
1.1378051
1.1418758
1.1450361
1.1478413
1.1501302
1.1521698
1.1539388
1.1557082
1.1573619
1.1590113
1.1605494
1.1618724
1.1631015
1.1653454
1.1675322
1.1686771
1.169143
1.1692638
1.1692159
1.1679483
0.78667993
0.78595157
0.78942383
0.79999854
0.82828548
0.84366905
0.84257273
0.84603545
0.84638559
0.85024827
0.85222082
0.85701855
0.86092795
0.86746526
0.87399115
0.88319145
0.89335985
0.90648267
0.9216627
0.94020122
0.96165591
0.98630643
1.0129299
1.0400294
1.0654926
1.0877363
1.1058141
1.1196366
1.1296727
1.136711
1.1415638
1.1449071
1.1474938
1.1498459
1.1517341
1.1534289
1.1549215
1.1564786
1.1579706
1.1594981
1.1609227
1.1621313
1.163399
1.1658477
1.1677986
1.168792
1.1691462
1.1692136
1.1690788
1.1677635
0.79032275
0.78960905
0.79345414
0.80522362
0.83395988
0.84748116
0.84632074
0.84991499
0.85035786
0.8543719
0.85648109
0.86148014
0.86563234
0.87247259
0.87936831
0.88901167
0.89972543
0.91347932
0.92941855
0.94879663
0.97115018
0.99656686
1.0236245
1.050639
1.0754931
1.0967229
1.1135829
1.1261685
1.13507
1.1411209
1.1451359
1.1477812
1.1498267
1.1517597
1.1532672
1.1546297
1.1558628
1.1572199
1.1585606
1.1599711
1.161281
1.1623899
1.1637428
1.1663106
1.1680163
1.16886
1.1691459
1.1691789
1.1688729
1.1675948
0.79408406
0.79336998
0.79759996
0.81083192
0.83954509
0.85127968
0.85016201
0.8538921
0.85443302
0.85860886
0.86087496
0.86608782
0.87050418
0.87767052
0.88496098
0.89507405
0.906367
0.92078916
0.93753066
0.95778569
0.98104653
1.0071786
1.034554
1.0613297
1.085424
1.1055265
1.1211109
1.1324525
1.1402332
1.1453138
1.1485148
1.1504999
1.152036
1.153585
1.1547299
1.1557704
1.1567604
1.1579316
1.1591314
1.1604282
1.1616224
1.1626578
1.1641626
1.1667074
1.1681835
1.1688901
1.1691307
1.1691453
1.1686079
1.1674435
0.79788154
0.79716301
0.80179687
0.81678582
0.84498822
0.85520165
0.85409548
0.85796931
0.85862022
0.86296338
0.86541018
0.87086504
0.87556018
0.88307181
0.89078101
0.90139258
0.91330133
0.92843239
0.94602174
0.96718838
0.99135203
1.0181278
1.0456848
1.0720564
1.0952402
1.1141138
1.1283865
1.1384909
1.1451609
1.1492819
1.1516923
1.1530671
1.1541276
1.1553223
1.1561209
1.1568515
1.1576114
1.1586138
1.1596825
1.1608677
1.1619448
1.1629415
1.1646731
1.1670272
1.1683151
1.1689018
1.1690998
1.1690982
1.1683364
1.1673088
0.80176921
0.80103623
0.80608379
0.82310832
0.85029942
0.85927054
0.8581371
0.86216608
0.86293794
0.86745427
0.87009326
0.87582365
0.88081207
0.8886867
0.89684048
0.90798259
0.92054847
0.93643249
0.95491594
0.97702182
1.0020658
1.0293894
1.0569723
1.0827662
1.1048947
1.1224582
1.1354083
1.144283
1.1498393
1.1530136
1.1546674
1.1554864
1.1561127
1.156969
1.1574352
1.1578788
1.1584137
1.1592669
1.1602132
1.1612878
1.1622481
1.1632426
1.1652038
1.1673215
1.1684336
1.1689043
1.16905
1.1690306
1.1680803
1.1671898
0.80574508
0.80499571
0.81047394
0.82977682
0.85546765
0.86340557
0.8623055
0.86650046
0.8674027
0.87210393
0.87495094
0.88095693
0.88626338
0.89452637
0.90315376
0.91486272
0.92813098
0.94481518
0.96423821
0.98730196
1.0131831
1.0409352
1.0683701
1.0934083
1.114348
1.1305472
1.1421796
1.1498051
1.1542455
1.1565042
1.1574523
1.1577575
1.1580032
1.1585195
1.1586663
1.1588597
1.1591704
1.159891
1.1607226
1.161687
1.1625355
1.1635646
1.1657295
1.1675884
1.1685427
1.168904
1.1689833
1.1689363
1.1678606
1.1670867
0.80985662
0.80909106
0.81503401
0.83679955
0.8605347
0.86767911
0.86662096
0.87098353
0.87201885
0.87691726
0.87998406
0.88628063
0.89192462
0.90060333
0.90973952
0.92205514
0.93607517
0.95360815
0.97401286
0.99803788
1.0246882
1.0527234
1.0798219
1.1039276
1.1235664
1.138379
1.1486815
1.1550235
1.1583612
1.1597539
1.1600679
1.159877
1.1597966
1.159971
1.1598183
1.1597941
1.1598935
1.1604848
1.1612096
1.1620638
1.1628158
1.1639229
1.1662189
1.1678108
1.1685991
1.1688752
1.1689174
1.1687895
1.1676712
1.166999
0.81408239
0.8133067
0.81977615
0.84410873
0.86556514
0.87207569
0.87107359
0.87560742
0.87678615
0.88189686
0.88520366
0.8918123
0.89780634
0.90693415
0.91661924
0.92958528
0.94440927
0.9628407
0.98426278
1.0092356
1.03656
1.0647092
1.0912706
1.1142769
1.1325314
1.1459541
1.1548664
1.1599109
1.1621742
1.1627818
1.1625375
1.1618512
1.161475
1.1613575
1.160893
1.1606567
1.1605995
1.1610464
1.1616732
1.162417
1.1631009
1.1643482
1.1666363
1.1679809
1.1686241
1.1688426
1.168862
1.1685806
1.1675088
1.1669251
0.81838846
0.81760584
0.82469735
0.85160119
0.8705917
0.87658399
0.87565706
0.88037626
0.88171627
0.88705404
0.89062237
0.89756335
0.90392831
0.91353957
0.92381808
0.93748165
0.95316421
0.97254209
0.99500665
1.0208901
1.0487637
1.0768344
1.1026535
1.124412
1.1412351
1.1532384
1.1606941
1.1644374
1.1657079
1.1656557
1.1648366
1.1637176
1.1630375
1.1626536
1.1619006
1.1614525
1.1612853
1.1615752
1.162112
1.162746
1.1634011
1.1648576
1.1669649
1.1681107
1.1686325
1.1688035
1.1688056
1.1683341
1.1673684
1.1668629
0.82280907
0.82201403
0.82987106
0.85922845
0.87545564
0.88123365
0.88039504
0.88531001
0.8868235
0.89240428
0.89624962
0.90353568
0.91032135
0.92044413
0.93136451
0.94577497
0.96237219
0.98274129
1.0062598
1.0329904
1.0612584
1.089039
1.1139132
1.1343033
1.1496762
1.1601719
1.1661276
1.1686033
1.169047
1.1683316
1.1669799
1.1654672
1.1644938
1.1638706
1.1628345
1.1621959
1.1619426
1.1620761
1.1625245
1.1630523
1.1637194
1.1653852
1.1672527
1.1682218
1.1686341
1.1687578
1.1687444
1.1680872
1.1672467
1.16681
0.82740336
0.82656922
0.83537709
0.86692202
0.88033357
0.88603726
0.8852979
0.89041988
0.89211892
0.89796081
0.9021013
0.90975638
0.9169964
0.92767233
0.93929056
0.95449901
0.97206617
0.99346494
1.0180289
1.0455114
1.073988
1.101253
1.1249942
1.1439309
1.1578195
1.1666966
1.1711406
1.1724817
1.1721812
1.1708199
1.1689691
1.1671047
1.1658528
1.1650072
1.1637033
1.1628924
1.1625549
1.1625608
1.1629091
1.1633418
1.1640563
1.1658998
1.1675066
1.1683215
1.1686336
1.1687054
1.1686734
1.1678667
1.1671397
1.1667635
0.83216853
0.83127475
0.84124886
0.87451208
0.88519342
0.89100075
0.89037539
0.89571732
0.89761626
0.90373246
0.90818894
0.91624062
0.92398081
0.93525993
0.94763173
0.96368844
0.98227916
1.0047375
1.0303144
1.0584206
1.0868923
1.1134107
1.1358546
1.1532886
1.1655915
1.1727702
1.1757372
1.176156
1.1750856
1.1731233
1.1708137
1.1686263
1.1671256
1.1660685
1.1645142
1.1635486
1.1631085
1.1630378
1.1632656
1.1636267
1.1644203
1.1663713
1.1677151
1.1683732
1.168609
1.1686436
1.1685698
1.1676754
1.1670475
1.1667235
0.83711745
0.83616289
0.84754223
0.8820703
0.89026615
0.8961473
0.89564313
0.90121215
0.90332399
0.90972987
0.91453168
0.92301769
0.93130985
0.94324145
0.95642432
0.97337881
0.99304301
1.0165773
1.0431027
1.0716683
1.0998975
1.1254443
1.1464601
1.1623541
1.1729102
1.1783616
1.1800182
1.1795862
1.1777738
1.1752511
1.1725201
1.1700393
1.1683168
1.1670576
1.1652707
1.1641601
1.1636197
1.1634972
1.1635975
1.1639205
1.1648362
1.1667656
1.1678736
1.1683955
1.1685752
1.1685924
1.1684077
1.1675141
1.16697
1.1666895
0.84226572
0.84120468
0.85427816
0.88959955
0.89549452
0.90147814
0.90110038
0.90690806
0.90924954
0.9159744
0.9211612
0.93012559
0.93902426
0.95165057
0.96570439
0.98360623
1.0043892
1.028996
1.0563723
1.0851956
1.11293
1.1372976
1.1567926
1.1710434
1.1797306
1.183476
1.1840632
1.1827538
1.1802512
1.1772119
1.1740961
1.1713497
1.1694314
1.1679788
1.1659748
1.1647274
1.164094
1.1639288
1.163914
1.1642295
1.1653205
1.167063
1.1679906
1.1684023
1.1685358
1.1685387
1.1681967
1.1673806
1.1669049
1.1666609
0.8476478
0.84642395
0.8614538
0.89706213
0.90086992
0.90700047
0.90675483
0.91281967
0.91541836
0.92250372
0.92812088
0.93760505
0.94715932
0.96052214
0.97550855
0.99440933
1.016345
1.0419946
1.0700823
1.0989286
1.1259095
1.1489195
1.166832
1.1792594
1.1860124
1.1882175
1.1878336
1.1856722
1.1825292
1.1790149
1.1755491
1.1725649
1.1704736
1.168836
1.1666302
1.1652566
1.1645357
1.1643164
1.164226
1.1645476
1.165806
1.167315
1.1680834
1.168403
1.1684937
1.1684835
1.1679757
1.1672665
1.1668498
1.1666361
0.85326043
0.85182065
0.86902829
0.90439164
0.90639787
0.91271688
0.91262823
0.91898283
0.92188013
0.92936301
0.93545254
0.94549085
0.95574576
0.96989371
0.9858759
1.0058274
1.0289338
1.0555634
1.0841812
1.1127888
1.1387658
1.1602734
1.1765098
1.1869309
1.1917441
1.1926863
1.1913065
1.1883501
1.1846181
1.1806696
1.1768869
1.1736914
1.1714478
1.1696336
1.1672403
1.1657508
1.1649477
1.1646639
1.1645297
1.1648713
1.1662708
1.1675343
1.1681623
1.1684019
1.1684518
1.1684232
1.1677767
1.167165
1.166802
1.1666146
0.8591335
0.85744548
0.87700308
0.91158798
0.91210534
0.91867514
0.91877703
0.92545634
0.92868463
0.93659082
0.94318693
0.95381374
0.96482009
0.97980469
0.99684945
1.0178984
1.0421699
1.0696746
1.0985977
1.1266865
1.1514311
1.1713299
1.1857153
1.1940117
1.1970287
1.1968491
1.1944935
1.1908005
1.1865292
1.1821852
1.1781173
1.1747359
1.1723586
1.1703757
1.167808
1.1662075
1.1653236
1.1649872
1.1648249
1.1652083
1.1666901
1.167723
1.168224
1.1683896
1.1684131
1.168334
1.1676056
1.1670777
1.1667612
1.1665968
0.86526063
0.86335732
0.88535888
0.91869465
0.91806795
0.9249413
0.92525968
0.93227722
0.93586
0.94420629
0.95134658
0.96260372
0.97442785
0.99030463
1.0084729
1.0306563
1.0560568
1.0842866
1.1132521
1.1405376
1.1638517
1.1820496
1.1943395
1.2004741
1.2019742
1.2006833
1.197406
1.1930364
1.1882737
1.1835711
1.1792478
1.1757044
1.1732101
1.1710657
1.1683325
1.1666252
1.1656684
1.165294
1.1651154
1.1655805
1.1670395
1.1678655
1.1682493
1.1683699
1.1683787
1.1681994
1.1674658
1.1670073
1.1667293
1.1665833
0.87180625
0.86974664
0.89414299
0.92583826
0.92436972
0.9315632
0.9320915
0.93945666
0.94339834
0.95223181
0.95996313
0.971897
0.98462991
1.0014457
1.0207897
1.0441275
1.0705806
1.0993349
1.1280485
1.1542576
1.1759798
1.1923091
1.2023279
1.2063908
1.206589
1.2041877
1.2000591
1.1950711
1.1898628
1.1848365
1.1802861
1.1766031
1.1740065
1.1717062
1.1688119
1.1670044
1.1659869
1.1655927
1.1654086
1.1659944
1.1672987
1.1679687
1.1682595
1.1683434
1.168341
1.1680202
1.1673558
1.1669526
1.1667063
1.1665751
0.87862477
0.87657975
0.90321048
0.93316061
0.93098336
0.93850666
0.93925824
0.94698406
0.95134294
0.96069113
0.96908591
0.98176151
0.99546418
1.0132794
1.033842
1.0583295
1.0857115
1.1147411
1.1428901
1.1677745
1.1877787
1.2019833
1.2096331
1.2118804
1.2108427
1.2073796
1.2024679
1.1969183
1.1913077
1.1859905
1.1812395
1.1774374
1.1747518
1.1722983
1.1692442
1.1673479
1.1662855
1.165888
1.165709
1.1664075
1.1675088
1.1680455
1.1682612
1.1683137
1.1682987
1.1678398
1.1672621
1.1669072
1.1666891
1.1665717
0.88574839
0.8839644
0.91251096
0.94086729
0.93786495
0.94576181
0.94676662
0.95491487
0.95973141
0.9696464
0.97877453
0.99224984
1.0069872
1.0258556
1.0476685
1.0732642
1.1013957
1.1304055
1.1576746
1.181016
1.1991527
1.2109757
1.2162779
1.2170138
1.2147173
1.2102744
1.2046486
1.1985916
1.1926193
1.1870419
1.182115
1.1782132
1.1754501
1.1728435
1.1696284
1.1676607
1.1665699
1.1661813
1.1660173
1.1667961
1.1676816
1.1681052
1.1682599
1.1682837
1.1682458
1.1676781
1.1671801
1.166869
1.1666764
1.1665718
0.89302723
0.89188227
0.92190343
0.94840118
0.94506299
0.95338636
0.95469722
0.96330007
0.96864664
0.97915612
0.98908248
1.0034145
1.0192467
1.0392269
1.0623012
1.0889173
1.1175603
1.1462229
1.1723116
1.1939284
1.2099555
1.219232
1.2223877
1.2217502
1.2182363
1.212891
1.2066175
1.2001045
1.1938083
1.1879991
1.1829196
1.1789357
1.1761059
1.173343
1.1699652
1.1679485
1.1668447
1.1664714
1.1663262
1.1671351
1.1678265
1.1681491
1.1682559
1.1682669
1.1681637
1.1675428
1.1671116
1.1668382
1.1666676
1.1665737
0.90060038
0.90054389
0.9315082
0.95606374
0.95269637
0.96147375
0.96311807
0.97220945
0.97813268
0.98927339
1.0000641
1.015297
1.0323023
1.0534479
1.0777596
1.1052461
1.1341057
1.1620747
1.1867114
1.2064477
1.2200315
1.226717
1.228101
1.2260547
1.2214158
1.2152478
1.2083908
1.2014698
1.1948849
1.1888703
1.1836598
1.1796103
1.1767234
1.1737973
1.1702577
1.1682166
1.1671132
1.1667569
1.1666322
1.167427
1.1679474
1.1681831
1.168252
1.1682531
1.1680372
1.1674362
1.1670579
1.1668148
1.1666619
1.1665768
0.90849336
0.91000826
0.94133446
0.96414468
0.96080829
0.97006494
0.97206529
0.98167014
0.9882363
1.0000512
1.0117837
1.0279569
1.0462209
1.0685695
1.0940422
1.122183
1.1509172
1.1778498
1.2007937
1.2184103
1.2293176
1.2335591
1.2333718
1.2299528
1.2242782
1.2173644
1.2099845
1.2027004
1.1958588
1.1896633
1.184342
1.180242
1.1773044
1.1742022
1.1705143
1.1684702
1.1673785
1.1670396
1.1669365
1.1676653
1.1680477
1.1682119
1.1682496
1.168238
1.1678939
1.1673558
1.1670186
1.1668
1.1666605
1.1665806
0.91669645
0.92025611
0.95140745
0.9728584
0.96941243
0.97917642
0.98159776
0.99172968
0.99900555
1.011547
1.0242942
1.0415026
1.0610801
1.0846266
1.1111172
1.1396273
1.1678606
1.1934339
1.2144807
1.2296471
1.2377525
1.2398974
1.2381731
1.2334625
1.2268447
1.2192599
1.2114141
1.2038082
1.1967397
1.1903858
1.1849727
1.1808352
1.1778476
1.174547
1.1707512
1.1687154
1.1676432
1.1673209
1.1672419
1.1678479
1.1681278
1.1682362
1.1682489
1.1682055
1.1677587
1.1672862
1.1669848
1.1667891
1.1666631
1.1665869
0.92519294
0.93144872
0.96175715
0.98192052
0.97855123
0.98885529
0.99174587
1.0024347
1.0105023
1.0238471
1.0377101
1.0560263
1.0769418
1.1016264
1.1289214
1.1574563
1.1848023
1.2087209
1.2276457
1.240034
1.2454113
1.2457616
1.2425034
1.2366103
1.2291386
1.2209536
1.212695
1.2048051
1.1975364
1.1910449
1.1855577
1.1813932
1.178349
1.1748279
1.1709833
1.1689591
1.1679089
1.1675957
1.1675329
1.1679892
1.168188
1.1682557
1.1682576
1.1681509
1.167641
1.1672259
1.1669563
1.1667807
1.1666675
1.1665953
0.93399316
0.9437654
0.9723945
0.99153583
0.98827025
0.99912242
1.0025681
1.0138619
1.0228215
1.0370496
1.0521613
1.0716193
1.0938439
1.1195418
1.1473535
1.1755227
1.201606
1.223608
1.2400873
1.2494985
1.2524429
1.2511085
1.2463921
1.2394209
1.2311824
1.222464
1.2138414
1.205702
1.1982577
1.1916478
1.1861029
1.1819184
1.1788051
1.1750655
1.1712092
1.1692045
1.1681726
1.1678554
1.1677947
1.1681076
1.168238
1.1682713
1.168261
1.1680772
1.1675457
1.1671772
1.1669349
1.1667759
1.1666729
1.1666059
0.94301199
0.95709306
0.98331316
1.0016778
0.99865109
1.0100735
1.0141718
1.0261376
1.0361048
1.0513151
1.0677185
1.0883351
1.1117938
1.1383103
1.1662842
1.1936715
1.2181452
1.2379947
1.2516196
1.2580443
1.2589596
1.2559155
1.2498661
1.2419217
1.2329989
1.2238091
1.2148672
1.2065096
1.1989116
1.1922011
1.1866132
1.1824124
1.1792149
1.1752739
1.1714333
1.1694503
1.1684273
1.1680932
1.1680241
1.1682093
1.1682861
1.1682931
1.1682601
1.1679852
1.16747
1.1671415
1.1669226
1.1667763
1.1666787
1.1666183
0.95225779
0.97145026
0.99461886
1.0124855
1.0098037
1.0218397
1.026708
1.0394099
1.0504902
1.0667391
1.0844564
1.1062096
1.130768
1.1578299
1.1855522
1.2117389
1.2342838
1.251648
1.2621582
1.2658314
1.2649006
1.2602209
1.2529556
1.2441394
1.2346099
1.2250059
1.2157855
1.2072377
1.199506
1.1927113
1.1870932
1.182876
1.1795802
1.1754675
1.1716571
1.1696935
1.1686678
1.1683071
1.1682234
1.1682939
1.1683318
1.1683341
1.1682435
1.1678861
1.1674134
1.167114
1.1669143
1.1667795
1.1666889
1.1666324
0.96180383
0.98691092
1.0065051
1.0241139
1.0218896
1.0345865
1.0403523
1.0538342
1.066098
1.0833809
1.1024169
1.125252
1.1507059
1.177962
1.2049791
1.2295664
1.2498949
1.264354
1.2716463
1.2730439
1.2702253
1.2640536
1.2556929
1.2461013
1.236037
1.2260711
1.2166088
1.2078958
1.2000483
1.1931843
1.1875465
1.1833102
1.1799045
1.1756561
1.1718819
1.1699346
1.1688985
1.1685017
1.1683914
1.1683731
1.1683672
1.1683504
1.1682118
1.167789
1.1673635
1.1670893
1.166907
1.1667842
1.1667009
1.1666481
0.97181495
1.0037417
1.019052
1.0367684
1.035101
1.0484767
1.0552492
1.0695229
1.0830034
1.1012914
1.1216353
1.1454497
1.1715061
1.1985276
1.2243697
1.246984
1.2647595
1.2759734
1.2802539
1.279605
1.2749796
1.2674495
1.2581098
1.2478332
1.2373006
1.2270201
1.2173487
1.2084928
1.2005458
1.1936259
1.1879766
1.1837161
1.1801926
1.1758472
1.1721089
1.1701758
1.1691283
1.1686916
1.1685188
1.1684473
1.1684032
1.1683564
1.1681668
1.1677009
1.1673204
1.1670717
1.1669053
1.1667917
1.1667149
1.1666655
0.98242648
1.0218395
1.0324705
1.0506394
1.0496188
1.0636163
1.0714638
1.0865278
1.1012519
1.1205656
1.1421425
1.1667451
1.1930166
1.2193177
1.2435289
1.2638292
1.2786235
1.2864312
1.2881755
1.2854816
1.2791959
1.2704462
1.2602387
1.2493608
1.2384201
1.2278676
1.2180163
1.2090372
1.2010051
1.1940412
1.188386
1.1840953
1.1804499
1.1760476
1.1723418
1.170417
1.1693471
1.1688598
1.1686324
1.1685141
1.1684402
1.1683563
1.1681114
1.167624
1.1672839
1.167059
1.1669073
1.1668022
1.1667308
1.1666844
0.99452575
1.0417441
1.0470002