/*--------------------------------*- C++ -*----------------------------------*\
  =========                 |
  \\      /  F ield         | OpenFOAM: The Open Source CFD Toolbox
   \\    /   O peration     | Website:  https://openfoam.org
    \\  /    A nd           | Version:  8
     \\/     M anipulation  |
\*---------------------------------------------------------------------------*/
FoamFile
{
    version     2.0;
    format      ascii;
    class       surfaceVectorField;
    location    "0.280002";
    object      rhoUf;
}
// * * * * * * * * * * * * * * * * * * * * * * * * * * * * * * * * * * * * * //

dimensions      [1 -2 -1 0 0 0 0];

internalField   nonuniform List<vector> 
39600
(
(197.99512 -9.5052088e-20 5.0128238)
(184.68848 9.019166e-21 4.0817738)
(184.52845 1.6598986e-16 4.801578)
(222.98125 -2.4468906e-17 5.6233018)
(214.48185 2.6959415e-19 5.0205015)
(214.08581 -1.1727613e-16 5.8510595)
(241.21342 1.2320522e-17 6.0329885)
(233.80996 -2.6574592e-17 5.3991546)
(233.19803 1.9268485e-17 6.3004382)
(258.19957 3.1868602e-17 6.3730055)
(250.91121 2.1541753e-17 5.7176635)
(250.06817 7.3218336e-18 6.6854655)
(275.69105 -2.1626355e-17 6.669684)
(267.98515 9.3234818e-19 5.9964002)
(266.86038 -2.0829979e-17 7.0296821)
(294.08196 5.6094537e-21 6.9047202)
(286.27547 -1.7893445e-17 6.2681939)
(284.78667 3.104035e-17 7.3741211)
(307.10446 3.970541e-21 7.0230237)
(304.78466 3.0897346e-17 6.2639384)
(303.64496 -2.7648963e-21 7.4655347)
(309.99942 -9.6657759e-18 7.0286885)
(310.66787 -1.3088585e-17 6.6017475)
(310.3469 0 7.8160998)
(309.87304 -1.2112758e-17 6.9673237)
(309.55566 -1.05021e-17 6.1181967)
(309.28277 -1.1098729e-17 7.3769751)
(310.11857 6.5195335e-18 6.8972787)
(310.58458 3.7680642e-21 6.596232)
(310.28128 1.5650552e-17 7.8243966)
(310.09309 1.1379076e-17 6.8087841)
(309.89911 6.3316725e-18 5.8840851)
(309.61272 -5.4501368e-18 7.1594665)
(310.36816 1.6173237e-18 6.7041982)
(310.66638 3.0522043e-18 6.4525814)
(310.35686 3.2282605e-18 7.6993862)
(310.5024 -1.182582e-18 6.5738356)
(310.36005 -2.5688821e-18 5.6536528)
(310.05743 7.6511336e-18 6.9493828)
(310.8631 8.2736267e-20 6.4160904)
(311.02797 -1.5101532e-18 6.1499538)
(310.70598 -6.9481398e-18 7.429729)
(311.1644 -4.5501618e-19 6.219104)
(311.0304 -2.744528e-18 5.3657832)
(310.70728 -1.1543875e-18 6.6914353)
(311.64796 2.1564619e-19 5.9784855)
(311.69779 8.3963273e-19 5.6661665)
(311.35796 1.0491481e-18 6.9937611)
(312.13669 -1.9287871e-18 5.6779292)
(311.97258 -2.0929264e-18 4.9275469)
(311.62569 -6.4295449e-19 6.2984285)
(312.79139 -1.2932627e-18 5.3094911)
(312.72606 3.1943253e-18 4.9544223)
(312.36402 -5.1133798e-18 6.346947)
(313.50478 3.3663718e-19 4.8506269)
(313.27537 1.8244671e-18 4.2180483)
(312.90193 3.525457e-18 5.6568522)
(314.38677 4.0591502e-19 4.2888742)
(314.19332 3.6717033e-19 3.9199522)
(313.80581 -1.1885142e-20 5.4014347)
(315.36689 3.3768596e-18 3.5968806)
(315.04445 1.0395952e-17 3.0844845)
(314.64471 2.6269096e-18 4.6229971)
(316.50972 -1.2049422e-17 2.7638965)
(316.18249 -7.170449e-19 2.4156536)
(315.77435 -3.3037453e-19 4.0175801)
(317.75073 -1.4185764e-17 1.773018)
(317.33276 -6.6692255e-18 1.3645867)
(316.92204 -1.5045605e-17 3.037561)
(319.09157 6.4914383e-18 0.64030902)
(318.66785 5.8618266e-18 0.31088728)
(318.26766 6.4163718e-18 2.061622)
(320.43273 0 -0.59889862)
(319.98787 0 -0.98460241)
(319.61409 -2.2643076e-18 0.84308522)
(321.68417 6.6562089e-18 -1.8458818)
(321.29977 0 -2.2757598)
(320.97747 1.3160625e-18 -0.37643368)
(322.67534 -8.32531e-18 -2.9474547)
(322.39895 7.3218784e-18 -3.5400543)
(322.15539 6.3953023e-18 -1.5906965)
(323.2356 -2.0168265e-17 -3.6956506)
(323.1544 -5.5357053e-18 -4.498729)
(323.01505 -1.3174394e-17 -2.5322329)
(323.1953 -9.6438086e-19 -3.9181226)
(323.36946 1.0837562e-17 -4.9764846)
(323.34012 1.9465104e-18 -3.0371046)
(322.4693 -1.1862143e-18 -3.580562)
(322.93703 -9.758544e-18 -4.8254574)
(322.99387 1.4014441e-18 -2.9644982)
(321.09544 1.0631973e-17 -2.839071)
(321.8285 7.3750231e-17 -4.1325255)
(321.92396 -3.9416239e-19 -2.4161741)
(319.25218 3.9793421e-17 -1.9295999)
(320.16038 -1.2100393e-17 -3.1205906)
(320.25175 8.1871381e-18 -1.619189)
(317.19415 1.9412383e-17 -1.0299945)
(318.15806 7.7931592e-17 -2.0396955)
(318.22635 1.9236138e-17 -0.79569497)
(315.14776 -6.4206725e-18 -0.23535967)
(316.07819 -1.5146972e-17 -1.0519486)
(316.12155 -1.1502734e-17 -0.06301828)
(313.2767 2.8228926e-17 0.42131112)
(314.10423 1.0790361e-16 -0.20871409)
(314.12846 6.4980622e-18 0.55478588)
(311.63794 -1.8557448e-17 0.92385855)
(312.36225 -1.4248553e-18 0.45289094)
(312.37105 1.2394153e-17 1.0324912)
(310.23118 -9.4402615e-17 1.286631)
(310.83016 6.0242463e-19 0.94532822)
(310.82866 -1.9597159e-17 1.3817659)
(309.06578 4.7597041e-18 1.5203977)
(309.56155 -2.093705e-17 1.2884836)
(309.5534 -1.9563179e-17 1.6154164)
(308.11454 3.7388882e-17 1.6431849)
(308.51439 1.534638e-17 1.4955776)
(308.50282 2.7211017e-17 1.7403952)
(307.34578 -5.3747091e-17 1.6694009)
(307.67455 8.4435738e-17 1.5903797)
(307.6611 -1.4200894e-17 1.7737486)
(306.72836 0 1.6209398)
(306.98917 8.92378e-18 1.5933405)
(306.97532 2.8238385e-20 1.7306295)
(306.24115 -8.6504154e-18 1.5067457)
(306.45266 1.3241133e-17 1.5254286)
(306.43954 8.2403735e-23 1.6291749)
(305.85162 -4.5722809e-18 1.3323837)
(306.02324 -1.9481239e-17 1.3824527)
(306.01148 -1.0125688e-18 1.4608489)
(305.54028 7.8639707e-18 1.1251577)
(305.68012 7.0745623e-18 1.1963197)
(305.66952 2.605619e-18 1.2537894)
(305.28929 0 0.90370967)
(305.40245 -1.0613113e-17 0.98685525)
(305.39344 0 1.0279019)
(305.09492 4.2203155e-17 0.67954851)
(305.18154 7.8475671e-18 0.77262396)
(305.17563 0 0.80776651)
(304.94224 5.6502081e-17 0.4949963)
(304.99113 6.5295993e-18 0.51375162)
(304.99553 8.4402727e-18 0.54574851)
(304.81331 1.7975781e-18 0.09437215)
(304.83012 8.9375674e-18 0.22706467)
(304.82501 6.0407674e-19 0.24702729)
(304.79031 -3.7993109e-18 0.44233036)
(304.74536 -1.0225463e-17 -0.066050149)
(304.78837 -2.3587219e-18 -0.048201021)
(304.53749 -4.1954867e-17 -0.67362503)
(304.50834 1.6207916e-18 -0.68377352)
(198.3683 3.4440459e-19 4.2368464)
(184.81201 4.9974074e-17 3.361879)
(223.5462 2.9045026e-19 4.7379398)
(214.88608 -3.5544484e-17 4.1633673)
(241.94621 -2.129558e-17 5.0699282)
(234.3994 0 4.4697485)
(259.13638 -7.0671223e-18 5.3407276)
(251.70386 -2.3130283e-17 4.7189572)
(276.89976 6.035783e-18 5.5697715)
(269.03568 4.1091729e-17 4.9290244)
(295.2883 8.4834819e-18 5.7291726)
(287.68621 -4.5512647e-17 5.1264619)
(307.80716 2.1527142e-17 5.8003184)
(305.76571 3.8066214e-17 5.0259334)
(310.31857 -1.4106185e-17 5.7820201)
(310.9938 -1.9482248e-17 5.367826)
(310.16901 5.1288063e-19 5.7154903)
(309.82973 5.5998111e-18 4.8365377)
(310.42334 -6.728639e-19 5.6368459)
(310.89529 5.235834e-18 5.3538229)
(310.39826 -1.5453162e-18 5.5399104)
(310.18934 -4.3239622e-18 4.5822598)
(310.68319 -5.9742516e-19 5.422675)
(310.98492 0 5.1892064)
(310.82078 -2.9722879e-18 5.2785454)
(310.66858 -3.0845819e-19 4.3300582)
(311.19204 -4.1757908e-18 5.1031746)
(311.35783 1.0604873e-19 4.8516704)
(311.49983 -1.7634605e-18 4.8858168)
(311.35969 -3.9878555e-18 4.0132628)
(311.99433 -1.1840914e-18 4.621124)
(312.04357 0 4.3190337)
(312.49189 2.4918168e-18 4.2915017)
(312.32524 1.3814e-18 3.5319892)
(313.15777 6.3558129e-18 3.8894932)
(313.09294 2.0294052e-18 3.5418296)
(313.88111 1.9727053e-18 3.3891767)
(313.65441 -5.7467311e-18 2.7564123)
(314.7727 9.3235386e-18 2.7799759)
(314.58502 3.1781785e-18 2.4183884)
(315.75906 7.3067432e-18 2.0310571)
(315.44858 -1.3687856e-17 1.5255598)
(316.90198 5.0554178e-18 1.1353749)
(316.59262 -1.7749969e-17 0.79638823)
(318.13307 1.1904377e-17 0.074441375)
(317.74398 3.2106282e-18 -0.32316348)
(319.44849 0 -1.129749)
(319.06488 -3.3161115e-18 -1.4495095)
(320.7438 0 -2.438572)
(320.35477 -1.6350974e-17 -2.8155725)
(321.92395 0 -3.7424309)
(321.60948 2.7390039e-17 -4.1684935)
(322.82058 1.1272115e-17 -4.8776706)
(322.62345 7.5660795e-18 -5.4695691)
(323.27697 2.3461266e-17 -5.6244835)
(323.26729 1.2426772e-17 -6.4290271)
(323.15204 4.1605626e-18 -5.8028722)
(323.3647 1.0674413e-17 -6.863352)
(322.38767 5.6106492e-17 -5.3656803)
(322.837 -7.2223893e-17 -6.6225124)
(321.02499 5.9768371e-17 -4.4554786)
(321.68025 6.5804755e-17 -5.7853137)
(319.21956 1.6573761e-17 -3.3163491)
(320.01082 -2.3622271e-17 -4.5718587)
(317.20041 5.3182877e-17 -2.1643232)
(318.03418 -3.0525973e-17 -3.2521247)
(315.18383 8.5370307e-17 -1.1301841)
(315.98712 1.2440724e-16 -2.0246214)
(313.32498 8.9955571e-17 -0.267145)
(314.04219 9.5499002e-17 -0.96559769)
(311.6829 1.7377684e-17 0.40193802)
(312.32491 -1.8345675e-17 -0.12510443)
(310.27241 7.5948335e-17 0.89458033)
(310.8104 4.2468515e-17 0.50861849)
(309.10471 -1.4339808e-17 1.2276979)
(309.55399 -1.3051297e-16 0.96087135)
(308.15159 5.4596614e-17 1.4250027)
(308.51452 -8.0755247e-17 1.2504661)
(307.3806 1.552746e-16 1.507328)
(307.67972 4.7316563e-17 1.4074876)
(306.76128 2.1649617e-17 1.5009005)
(306.99698 -9.0769582e-18 1.4571814)
(306.2724 6.097063e-18 1.4177053)
(306.46139 2.6435518e-17 1.4236832)
(305.8802 -1.0829652e-17 1.2674755)
(306.0319 -9.7288143e-18 1.3069239)
(305.56432 -9.4303562e-18 1.0790601)
(305.68862 0 1.1422036)
(305.30901 -4.7728454e-18 0.87008502)
(305.41018 -1.7978716e-16 0.9488638)
(305.10211 -2.7871779e-17 0.65074687)
(305.18694 1.5701153e-17 0.74032313)
(304.92203 -4.1613196e-17 0.37830928)
(304.99294 -4.7091727e-17 0.4849077)
(304.77775 -1.2160556e-18 0.085053891)
(304.82911 1.4411933e-16 0.20844871)
(304.74441 -4.5553297e-17 0.34733997)
(304.70828 -6.8444885e-18 -0.079802552)
(304.56143 -8.5239235e-17 -0.65566598)
(198.56222 2.1703191e-17 3.4442835)
(184.93017 4.8705718e-17 2.6274071)
(223.97717 -3.8579541e-17 3.8485512)
(215.26636 -1.6633645e-17 3.2964207)
(242.5955 0 4.1086669)
(234.98824 6.3677e-21 3.5256469)
(260.03482 1.8918237e-17 4.3108418)
(252.51202 -2.4840594e-17 3.7074275)
(278.13082 -2.5293357e-18 4.4672177)
(270.11729 3.1320574e-17 3.8455854)
(296.52078 -2.3116642e-17 4.5379379)
(289.18121 -2.5622528e-17 3.9617267)
(308.47766 2.4887317e-18 4.5509913)
(306.71782 7.7131731e-18 3.7620019)
(310.61093 -2.1888134e-18 4.5155731)
(311.30838 -6.5440488e-18 4.1108794)
(310.45955 1.0241218e-17 4.4419699)
(310.11411 8.3363938e-18 3.5309466)
(310.72494 2.4154473e-18 4.3540191)
(311.21465 4.5775667e-18 4.0882205)
(310.70194 -3.1528376e-18 4.2463897)
(310.48899 -5.8539144e-18 3.2565995)
(310.99752 3.0655968e-19 4.1163814)
(311.31092 8.0506875e-19 3.9010999)
(311.14003 2.6671752e-18 3.9569397)
(310.98484 -3.4241862e-19 2.9825529)
(311.5223 6.1289803e-19 3.7638917)
(311.69371 3.0811036e-18 3.5276991)
(311.83805 -2.5806467e-18 3.5251688)
(311.695 1.5486953e-18 2.6367087)
(312.34451 2.3982828e-18 3.2355854)
(312.3944 0 2.9451717)
(312.85331 8.7205239e-19 2.8756678)
(312.68315 -2.8369979e-18 2.1108406)
(313.53279 -9.1802902e-18 2.4377723)
(313.46469 6.9941128e-18 2.1002534)
(314.26967 -5.2935386e-18 1.8941272)
(314.03843 4.1384665e-18 1.2658351)
(315.17441 -1.7968299e-17 1.2343298)
(314.98084 6.3183376e-18 0.88468028)
(316.17134 -3.7891703e-17 0.4267802)
(315.85577 -1.8018726e-17 -0.065882994)
(317.31878 -2.1321791e-17 -0.53409712)
(317.00359 3.2669689e-17 -0.85737592)
(318.5449 -1.1163176e-17 -1.6653105)
(318.15327 4.3099056e-18 -2.0451766)
(319.83943 -1.8243941e-17 -2.9401774)
(319.45591 -3.2534342e-18 -3.2434957)
(321.0923 6.7031059e-18 -4.3129414)
(320.71048 -3.8470709e-17 -4.6760889)
(322.20135 3.6566969e-17 -5.6620037)
(321.90122 -1.0389135e-17 -6.0821153)
(322.99771 8.2556588e-18 -6.8099268)
(322.82235 7.4407429e-18 -7.4039857)
(323.33389 0 -7.526745)
(323.34741 6.7872437e-18 -8.3410933)
(323.09107 -5.6702649e-17 -7.6300352)
(323.32159 -1.6833736e-17 -8.7050794)
(322.23773 -7.601721e-17 -7.0714795)
(322.69375 -6.3684869e-17 -8.3514371)
(320.83273 -7.6880077e-18 -5.9901271)
(321.48376 -6.0253909e-17 -7.3604684)
(319.02881 -6.9530724e-17 -4.6363458)
(319.80991 0 -5.9531296)
(317.03682 2.4144933e-17 -3.2520856)
(317.86076 -7.7448612e-17 -4.4123714)
(315.05433 1.3742511e-16 -1.9958383)
(315.85256 -1.2840686e-16 -2.9631803)
(313.22986 1.2520578e-19 -0.93834755)
(313.94449 -9.803606e-17 -1.7020359)
(311.61949 0 -0.11030388)
(312.25982 0 -0.69134626)
(310.23231 -1.4399343e-16 0.5074519)
(310.76976 -1.4502135e-17 0.078312035)
(309.08073 -2.0200376e-16 0.93680236)
(309.53093 2.3634999e-17 0.63628309)
(308.13833 -1.0214795e-16 1.2067654)
(308.50335 -2.4287169e-17 1.0063682)
(307.37452 -1.101677e-16 1.3440258)
(307.67669 -8.4513005e-17 1.2244908)
(306.75937 -8.2579052e-18 1.3787357)
(306.99882 -3.0584397e-16 1.3201523)
(306.27249 1.4707155e-17 1.3260349)
(306.46581 -1.3361594e-17 1.3205872)
(305.88162 0 1.19987)
(306.03742 9.7084205e-18 1.22998)
(305.56682 -1.5024156e-16 1.0302322)
(305.69489 -7.1862956e-18 1.0868819)
(305.31174 -1.8141645e-16 0.83344387)
(305.41655 1.9980512e-17 0.90942943)
(305.10496 3.6094228e-18 0.61866231)
(305.19137 9.6006293e-20 0.70618887)
(304.92172 1.1853092e-16 0.35111973)
(304.99439 -1.9026146e-16 0.45436222)
(304.77058 1.553976e-16 0.071039372)
(304.82669 1.1734499e-17 0.18620655)
(304.72732 -3.8571151e-17 0.2540361)
(304.67768 -3.2597574e-18 -0.09368195)
(304.57955 -4.5822909e-17 -0.63647656)
(198.83045 1.6449197e-17 2.641084)
(185.07353 -5.2690982e-17 1.8334584)
(224.48339 1.9757259e-17 2.9418149)
(215.68596 3.6372405e-17 2.4369796)
(243.31227 -2.2326018e-17 3.1238673)
(235.6192 6.2186729e-21 2.5635425)
(260.99345 -1.7084802e-17 3.2520913)
(253.36177 -2.5056378e-17 2.6730383)
(279.43143 1.3187415e-17 3.3314246)
(271.2383 1.051862e-17 2.735094)
(297.77843 1.8957383e-18 3.3130517)
(290.75158 5.20123e-19 2.7656723)
(309.12602 0 3.2752304)
(307.61617 -5.1760163e-18 2.4711676)
(310.91511 2.576879e-18 3.2246348)
(311.61741 5.2453801e-18 2.8317816)
(310.76473 3.0972121e-18 3.1440645)
(310.4061 2.8004435e-18 2.2006085)
(311.03974 -2.6858469e-18 3.0467832)
(311.54041 1.6948349e-19 2.7996565)
(311.01771 -2.5090271e-18 2.9288531)
(310.79464 -5.1062714e-18 1.9068075)
(311.32257 2.6107075e-19 2.786233)
(311.64195 2.4926228e-18 2.5905435)
(311.46846 -2.080494e-19 2.6119198)
(311.30574 7.5921619e-19 1.6118135)
(311.8604 4.1170234e-18 2.4012683)
(312.03354 5.3358139e-18 2.180947)
(312.18281 4.1946489e-18 2.1410922)
(312.03448 7.7925795e-18 1.2369444)
(312.70015 -4.8931011e-18 1.8260819)
(312.7491 -3.3207876e-18 1.5471407)
(313.21892 2.3591747e-18 1.4349259)
(313.04546 -5.3295612e-18 0.66494672)
(313.91041 2.0257781e-17 0.96004185)
(313.84043 -3.6193533e-19 0.63203571)
(314.65855 1.5321488e-17 0.37187928)
(314.42635 -1.2362004e-17 -0.25205577)
(315.57317 8.2756166e-18 -0.33940869)
(315.37934 3.1401404e-18 -0.6780809)
(316.57623 4.6884944e-17 -1.2059831)
(316.26423 5.2474339e-18 -1.6866927)
(317.72233 6.0185665e-17 -2.2318646)
(317.4134 2.6200549e-17 -2.5413418)
(318.93618 1.2707496e-17 -3.4319812)
(318.55831 -4.3206708e-18 -3.7967887)
(320.20084 -2.0057903e-17 -4.7743783)
(319.83835 0 -5.0655415)
(321.40093 -5.7748488e-17 -6.204459)
(321.05179 2.3212832e-17 -6.5600914)
(322.42814 -4.0655706e-17 -7.5872328)
(322.17118 -3.6667473e-17 -8.0100896)
(323.11579 6.0576065e-18 -8.7304284)
(322.99128 0 -9.3373066)
(323.32928 -7.5669025e-18 -9.3957072)
(323.39046 6.1690217e-17 -10.231122)
(322.97491 -1.9244374e-17 -9.4023111)
(323.23669 -1.659175e-17 -10.501731)
(322.04645 -4.8459271e-17 -8.7077913)
(322.50578 1.6055977e-16 -10.015842)
(320.61494 -5.8645773e-17 -7.4537949)
(321.24014 -6.0346438e-17 -8.8619116)
(318.82549 0 -5.8964303)
(319.56071 -1.0111915e-16 -7.2650158)
(316.87015 -2.233373e-16 -4.2959899)
(317.64126 0 -5.5171953)
(314.92952 -3.64954e-16 -2.8325182)
(315.67731 -1.3819e-16 -3.8624642)
(313.14243 -1.085555e-16 -1.5918327)
(313.81313 -8.5083044e-17 -2.4126635)
(311.56176 -1.2846675e-17 -0.6120181)
(312.16825 1.7213722e-16 -1.2414109)
(310.19687 1.480914e-16 0.12634147)
(310.70895 2.0401113e-16 -0.34217334)
(309.06136 2.0570087e-16 0.64914303)
(309.49273 3.6003057e-16 0.31742331)
(308.13005 0 0.99023765)
(308.48102 -2.4630778e-16 0.76551868)
(307.3736 -2.5489528e-16 1.1815895)
(307.66552 1.9530927e-16 1.043296)
(306.76293 -3.4385507e-16 1.2569351)
(306.99472 -2.9635281e-16 1.1839795)
(306.27839 -2.0963419e-17 1.2345983)
(306.46591 5.345788e-20 1.2178349)
(305.88863 4.4431048e-18 1.1326078)
(306.0398 -3.0220899e-16 1.1532677)
(305.57417 1.603742e-16 0.98170986)
(305.69894 -2.1478617e-17 1.031913)
(305.31862 2.0436056e-16 0.79673092)
(305.42169 5.2601139e-16 0.86998526)
(305.10829 -1.730435e-16 0.58608479)
(305.19519 -7.7996967e-18 0.6715292)
(304.9209 -3.211939e-16 0.32414821)
(304.99499 -2.9731804e-18 0.4229428)
(304.75318 -1.4700393e-16 0.054274562)
(304.82339 -1.2218885e-16 0.16244272)
(304.70148 -2.1998917e-18 0.18362596)
(304.65207 -6.5143231e-18 -0.10662931)
(304.59307 7.2692109e-17 -0.61443881)
(199.11178 -4.0301447e-17 1.8237492)
(185.26256 -5.104205e-17 1.008229)
(225.01984 1.9901682e-17 2.0191876)
(216.14056 1.8039149e-17 1.5682999)
(244.05767 -7.1609077e-19 2.1214284)
(236.28563 9.5664152e-19 1.5795445)
(261.98259 -8.5827932e-19 2.1727159)
(254.25219 4.1080601e-18 1.6161169)
(280.7828 -1.0769392e-18 2.1708568)
(272.40063 -4.240754e-18 1.5978958)
(299.05143 -5.9443056e-18 2.06191)
(292.39728 -1.1700872e-18 1.5381144)
(309.73839 -8.6327768e-19 1.9772356)
(308.46032 -4.5295871e-18 1.1538137)
(311.21286 5.6543332e-18 1.9101403)
(311.9416 1.9972734e-18 1.5309283)
(311.07329 1.4568518e-19 1.8228783)
(310.70299 2.9951936e-18 0.84745766)
(311.35733 -1.7825013e-18 1.7166043)
(311.86925 -2.3289746e-18 1.4894367)
(311.33603 -8.1527909e-19 1.5886767)
(311.1035 4.1144884e-18 0.53447367)
(311.64979 3.1166143e-18 1.4336998)
(311.97532 -7.0231252e-18 1.2581987)
(311.79927 5.8162792e-18 1.2444152)
(311.62964 1.3745726e-18 0.21880548)
(312.20103 8.7341733e-18 1.0157845)
(312.37607 2.2340484e-18 0.81108234)
(312.53083 1.3321951e-18 0.73331248)
(312.37749 3.9048901e-18 -0.18615397)
(313.05958 -3.5864923e-18 0.39176683)
(313.10707 -1.0081768e-17 0.12377769)
(313.58914 -8.3932735e-18 -0.031999025)
(313.41153 -1.7193954e-17 -0.80653491)
(314.29313 -3.1312475e-17 -0.5453395)
(314.21933 4.3839916e-19 -0.86418104)
(315.05293 -2.5558051e-17 -1.1793508)
(314.81718 5.0785447e-18 -1.7982212)
(315.97722 0 -1.9432612)
(315.77927 -6.8251041e-18 -2.2710336)
(316.98589 -1.6784007e-17 -2.8696044)
(316.6725 5.651823e-18 -3.3378725)
(318.12948 -3.4463875e-17 -3.9608195)
(317.82034 -1.8353701e-17 -4.256742)
(319.32912 -1.7157446e-17 -5.229073)
(318.95705 -4.8160402e-17 -5.5792698)
(320.56064 4.0475446e-17 -6.6362381)
(320.20955 5.529401e-17 -6.9168944)
(321.70299 4.9235991e-17 -8.1171178)
(321.37529 4.4434894e-17 -8.4684109)
(322.64166 0 -9.5216399)
(322.41514 1.0036578e-17 -9.9524211)
(323.21302 4.9090976e-17 -10.641947)
(323.12558 -8.1782399e-18 -11.268553)
(323.29608 6.0160633e-17 -11.233263)
(323.39217 -1.6950913e-18 -12.097612)
(322.82181 1.4379906e-16 -11.120806)
(323.10709 0 -12.252087)
(321.80854 1.7039497e-16 -10.274176)
(322.27246 2.3790583e-16 -11.615167)
(320.34127 -9.8286203e-17 -8.8431703)
(320.95135 1.1984208e-16 -10.288873)
(318.56121 -1.1135903e-16 -7.0901486)
(319.26703 2.3004511e-18 -8.5051034)
(316.6435 9.8655942e-17 -5.2880682)
(317.3798 0 -6.5622971)
(314.74991 1.3376762e-16 -3.6324636)
(315.46478 -1.4807767e-16 -4.7173821)
(313.00895 1.6614057e-16 -2.2208016)
(313.65044 2.4803421e-17 -3.0927046)
(311.46855 3.8409049e-16 -1.0980601)
(312.05167 7.3619368e-18 -1.7712888)
(310.13453 3.9776376e-16 -0.24512161)
(310.62884 -2.5172869e-16 -0.74981559)
(309.02151 -2.3030038e-17 0.36714976)
(309.43994 -3.5506299e-16 0.0064366199)
(308.10609 -1.0089772e-16 0.77693477)
(308.44786 1.8459875e-17 0.52934992)
(307.36062 2.0920545e-16 1.0208439)
(307.6464 -3.8056593e-16 0.86478504)
(306.75694 1.3466025e-17 1.135808)
(306.98478 -1.8118068e-17 1.0491604)
(306.27653 -2.4671559e-16 1.1433398)
(306.46173 -4.1189888e-16 1.1156336)
(305.88942 -3.6027468e-16 1.0654118)
(306.03904 9.3339371e-18 1.0767912)
(305.57696 2.8213174e-16 0.93312063)
(305.70074 -1.4308654e-17 0.97720807)
(305.32241 3.7450271e-16 0.75941169)
(305.42563 -3.3181759e-16 0.83041671)
(305.11056 1.6285004e-16 0.55249968)
(305.19826 -2.4551198e-16 0.63608607)
(304.91811 2.1154399e-16 0.29664653)
(304.99441 5.4663641e-16 0.39014344)
(304.75557 7.7554112e-18 0.10557194)
(304.81427 8.6204778e-18 0.13774897)
(304.68872 6.7514874e-17 0.13070217)
(304.63442 -3.2543445e-18 -0.1183736)
(304.60292 2.3093125e-16 -0.591036)
(199.43343 4.5049086e-19 0.99150968)
(185.46895 4.0763325e-19 0.18749013)
(225.58239 8.6017388e-19 1.0756105)
(216.62384 0 0.67777365)
(244.84481 5.4240914e-18 1.0943096)
(236.98532 -5.3172293e-19 0.57107073)
(263.01727 1.4526864e-18 1.065122)
(255.1812 2.69008e-18 0.53471915)
(282.19151 -4.570474e-18 0.97771139)
(273.6 -1.9747455e-18 0.43216468)
(300.33778 4.7347721e-19 0.77872536)
(294.10298 0 0.27752304)
(310.33872 -2.2435422e-18 0.65371559)
(309.23672 5.1450957e-19 -0.18962238)
(311.53657 -6.7854539e-19 0.57344036)
(312.27451 5.9127859e-19 0.20928554)
(311.38629 9.9338619e-19 0.48007369)
(310.99993 -1.1061121e-19 -0.52669162)
(311.67849 2.9286758e-18 0.36506948)
(312.19811 -2.4306629e-18 0.15908805)
(311.65777 -1.0771451e-18 0.22710984)
(311.41385 6.1006735e-18 -0.85966703)
(311.98024 -9.3848321e-18 0.059325724)
(312.31022 -8.4940068e-18 -0.09589431)
(312.13353 -2.1973008e-18 -0.14561019)
(311.95608 -2.9900788e-18 -1.1968877)
(312.54516 -2.6203359e-18 -0.39321607)
(312.721 1.2900453e-19 -0.58276864)
(312.88251 -6.1385821e-18 -0.69909386)
(312.72363 -4.1929599e-18 -1.6336487)
(313.42248 -2.2822681e-17 -1.0684876)
(313.4678 2.6739219e-19 -1.3261007)
(313.96251 -9.9794798e-18 -1.5261367)
(313.78065 -5.1704776e-18 -2.3047312)
(314.67802 3.5679208e-17 -2.0791955)
(314.60039 4.4515974e-18 -2.3894134)
(315.44805 2.4394497e-17 -2.7601299)
(315.20951 -1.2476473e-18 -3.3735014)
(316.3798 -2.3170309e-18 -3.5775595)
(316.17895 -6.6852661e-18 -3.8948797)
(317.39125 6.1246106e-18 -4.5642649)
(317.07866 5.5387552e-18 -5.0201477)
(318.52841 -2.9261493e-17 -5.720953)
(318.22234 3.9609289e-17 -6.0042983)
(319.70865 1.4047469e-17 -7.0562411)
(319.34705 9.6174208e-18 -7.393268)
(320.90015 6.0119879e-17 -8.5247383)
(320.56663 -6.5636002e-17 -8.7978223)
(321.97618 8.9732537e-18 -10.04891)
(321.67744 0 -10.400543)
(322.81695 3.672846e-18 -11.462035)
(322.62893 -4.3517929e-19 -11.907377)
(323.26407 -5.8811028e-17 -12.540586)
(323.22087 3.4416747e-19 -13.194838)
(323.21277 -6.115102e-17 -13.03588)
(323.34864 6.070958e-17 -13.937291)
(322.61958 6.9938103e-17 -12.783467)
(322.93015 -1.2194923e-17 -13.953592)
(321.52588 1.9956e-16 -11.770081)
(321.99301 -7.0707373e-17 -13.148082)
(320.02792 2.3107837e-16 -10.157789)
(320.61875 -3.0961786e-18 -11.640513)
(318.26179 1.1275305e-16 -8.2156187)
(318.93192 1.0126631e-16 -9.6716273)
(316.38622 -2.2917502e-16 -6.2249737)
(317.08004 0 -7.5443662)
(314.54475 -2.7425623e-16 -4.3917041)
(315.2183 -1.1884547e-17 -5.5236415)
(312.85468 -1.3108555e-16 -2.8215514)
(313.45902 2.5072053e-17 -3.7377746)
(311.35855 -5.9664708e-16 -1.5652966)
(311.91186 -1.6258991e-16 -2.2771914)
(310.05917 -9.8940019e-16 -0.60447251)
(310.53061 -2.1564396e-16 -1.1416029)
(308.97192 -3.5501788e-16 0.092703464)
(309.37331 -1.8357713e-16 -0.29437343)
(308.0751 -2.1583713e-16 0.56824511)
(308.40428 4.9483444e-16 0.29957656)
(307.34269 -6.4829972e-16 0.86280565)
(307.61959 -5.6192775e-16 0.69019963)
(306.74757 -3.9828777e-16 1.0161288)
(306.96918 2.8954297e-16 0.91660166)
(306.27247 -2.0393109e-16 1.0528576)
(306.45336 -2.6417453e-17 1.0146648)
(305.8888 3.5839956e-16 0.99873164)
(306.03518 3.4118821e-16 1.0010609)
(305.57904 -5.9340076e-16 0.88481575)
(305.70033 -7.1056644e-18 0.92312876)
(305.32596 -9.6453168e-16 0.72175232)
(305.42842 4.8483193e-18 0.79097423)
(305.11181 4.8574028e-17 0.518144)
(305.20038 -3.0132787e-18 0.59994151)
(304.91221 4.0467104e-16 0.26843405)
(304.99204 -3.6971229e-16 0.35595545)
(304.76181 0 0.18584536)
(304.79823 -1.6074749e-20 0.1128903)
(304.67927 1.3888722e-16 0.097161008)
(304.62462 6.2115824e-18 -0.12867843)
(304.6106 6.585089e-18 -0.56633964)
(199.78059 0 0.14380971)
(185.70094 -1.4014672e-17 -0.65695064)
(226.18029 -1.3184544e-18 0.11416754)
(217.13611 4.9491546e-18 -0.22780963)
(245.66656 -3.4528987e-18 0.046366348)
(237.7193 -4.3361216e-19 -0.45568588)
(264.0889 -2.9541076e-19 -0.066940386)
(256.15222 -2.0347027e-18 -0.57039415)
(283.64441 2.3365712e-18 -0.24499223)
(274.84137 2.1179642e-18 -0.7621333)
(301.62072 0 -0.5331057)
(295.85863 -2.5800061e-18 -1.0152982)
(310.89101 3.2783912e-18 -0.693177)
(309.94548 -6.6480948e-18 -1.5571086)
(311.84898 1.2011064e-18 -0.78227293)
(312.60236 1.6842606e-18 -1.1330846)
(311.69833 -3.2749041e-18 -0.88263872)
(311.29935 -2.9756162e-18 -1.9228033)
(311.99946 0 -1.0073272)
(312.52849 0 -1.1923987)
(311.98032 0 -1.1562553)
(311.72656 2.2981094e-21 -2.2767274)
(312.31199 -2.6756931e-18 -1.3378063)
(312.64694 1.4535207e-17 -1.473195)
(312.46973 -9.6213006e-19 -1.5594119)
(312.28507 6.2023601e-18 -2.6366023)
(312.89147 -1.0615429e-18 -1.8270737)
(313.06805 -7.6856857e-18 -2.002175)
(313.2367 1.7173045e-18 -2.1575186)
(313.07242 -4.143554e-18 -3.1068526)
(313.78779 1.7975358e-17 -2.5559259)
(313.83049 6.8014331e-18 -2.8038698)
(314.33814 8.1667325e-18 -3.0486311)
(314.15176 1.1403039e-17 -3.8307302)
(315.06452 -3.1237861e-17 -3.6425593)
(314.98233 -2.4953746e-17 -3.9446994)
(315.84386 -3.1236011e-17 -4.3713651)
(315.60193 -1.1458127e-17 -4.9787589)
(316.7815 0 -5.2431955)
(316.57687 0 -5.5505218)
(317.79369 3.5509027e-17 -6.2909531)
(317.48112 0 -6.7345069)
(318.92141 8.0304791e-17 -7.5133086)
(318.61759 -1.4305157e-18 -7.785027)
(320.07792 -6.2121172e-17 -8.9143426)
(319.72604 4.9551403e-17 -9.2396297)
(321.22328 -1.3043723e-16 -10.440202)
(320.90669 -1.6539939e-18 -10.70866)
(322.22508 -9.2133957e-18 -11.999175)
(321.95451 2.0478565e-19 -12.355794)
(322.95914 -3.7767942e-18 -13.406514)
(322.80822 -1.5242764e-17 -13.872745)
(323.27446 1.1248781e-16 -14.423492)
(323.27271 8.2655167e-18 -15.112536)
(323.08449 1.1584688e-16 -14.800611)
(323.25626 -3.4249571e-18 -15.745981)
(322.37152 -1.4542808e-16 -14.388136)
(322.70374 4.5180334e-19 -15.602706)
(321.19851 -2.7768656e-16 -13.19422)
(321.6672 -1.5642729e-16 -14.612413)
(319.67154 -1.4198858e-16 -11.396335)
(320.24405 -4.00927e-16 -12.915687)
(317.92151 0 -9.2704896)
(318.55855 6.5412856e-18 -10.76334)
(316.09142 2.1671966e-16 -7.1032712)
(316.74571 -1.0621032e-17 -8.4612738)
(314.30645 2.8125654e-16 -5.10631)
(314.94131 -3.0830512e-17 -6.2783464)
(312.67261 1.3896223e-17 -3.3902811)
(313.24154 2.5146574e-17 -4.3447487)
(311.22642 2.2208769e-16 -2.010519)
(311.75075 0 -2.7562233)
(309.96662 5.8282984e-16 -0.94919777)
(310.41557 2.4952665e-16 -1.5151391)
(308.90916 5.8747048e-16 -0.17230372)
(309.29369 6.7741808e-16 -0.58313959)
(308.03416 2.6865287e-16 0.36553611)
(308.35083 -5.5050057e-16 0.077585879)
(307.31731 2.7768599e-16 0.7084314)
(307.58541 4.0583648e-16 0.5205249)
(306.73257 6.9732457e-16 0.89856251)
(306.94813 8.9659434e-16 0.78699216)
(306.26412 4.7651315e-16 0.96361253)
(306.44092 3.9871553e-16 0.91540558)
(305.88493 1.5404281e-17 0.93285806)
(306.02828 1.9482394e-17 0.92641454)
(305.57895 5.9185604e-16 0.83695407)
(305.69775 4.6113536e-16 0.86986969)
(305.32803 9.7176226e-16 0.68383967)
(305.43005 6.6877715e-16 0.75170915)
(305.11135 -3.8141161e-16 0.48331295)
(305.20106 7.3744499e-16 0.56303462)
(304.90293 -8.216077e-16 0.23885801)
(304.98746 -7.4684909e-16 0.32071104)
(304.7568 2.4044374e-18 0.20453593)
(304.77985 -1.6257653e-20 0.088230356)
(304.67607 -1.2860564e-16 0.076377429)
(304.61821 3.2487657e-18 -0.13736029)
(304.61678 1.4326014e-16 -0.54077938)
(200.152 -1.0691749e-17 -0.7186738)
(185.95738 -2.8931449e-17 -1.505743)
(226.81235 6.231883e-18 -0.86626874)
(217.67726 1.4962689e-17 -1.1598382)
(246.52927 1.0764651e-18 -1.0235107)
(238.4859 9.7584755e-19 -1.498514)
(265.20429 0 -1.2245634)
(257.1646 0 -1.6988773)
(285.1417 -2.3198595e-18 -1.4986219)
(276.12865 1.5209662e-18 -1.9868979)
(302.89726 -8.7586723e-18 -1.8734092)
(297.6468 1.0916989e-19 -2.3411582)
(311.40954 -8.8559314e-18 -2.062621)
(310.58533 -1.9696221e-18 -2.9490296)
(312.16609 -2.0330826e-18 -2.1603107)
(312.93081 -1.8360971e-18 -2.497383)
(312.01309 -8.251596e-21 -2.2680763)
(311.60079 6.3604865e-18 -3.3426829)
(312.32273 2.0657801e-21 -2.402984)
(312.85991 0 -2.5668275)
(312.30524 1.3065375e-17 -2.5634513)
(312.04116 -4.4262844e-18 -3.7182657)
(312.64595 2.3870973e-17 -2.7594908)
(312.98498 6.8120644e-18 -2.8754315)
(312.80827 7.2976984e-19 -2.9986191)
(312.61618 2.7243061e-18 -4.1017261)
(313.23992 -1.0977465e-17 -3.2873245)
(313.4166 -9.9101242e-18 -3.4485946)
(313.59295 -4.5773844e-20 -3.6433097)
(313.42303 1.7335882e-17 -4.6068932)
(314.1546 0 -4.071771)
(314.19408 0 -4.3106982)
(314.71469 -1.807119e-17 -4.600531)
(314.52366 0 -5.3855019)
(315.45071 -6.678772e-18 -5.2363577)
(315.36377 7.5864994e-19 -5.530969)
(316.23787 1.8193692e-17 -6.0139447)
(315.99278 4.6743703e-17 -6.6148802)
(317.1793 0 -6.9411355)
(316.97124 -3.2901809e-17 -7.2390066)
(318.18954 -3.6112549e-17 -8.0507115)
(317.87796 6.1480675e-17 -8.4821667)
(319.30387 -3.5953225e-17 -9.3388531)
(319.00385 -4.4636026e-17 -9.6001247)
(320.43116 1.1342333e-16 -10.803944)
(320.09135 8.5029268e-18 -11.119315)
(321.52296 1.265465e-16 -12.382362)
(321.2264 5.4908822e-17 -12.649706)
(322.44137 -4.320656e-18 -13.966281)
(322.20258 2.0133973e-19 -14.333233)
(323.05924 -5.5700208e-18 -15.35184)
(322.94855 8.0935536e-17 -15.845844)
(323.23566 -1.0491921e-16 -16.286273)
(323.27692 -1.451932e-16 -17.017438)
(322.9046 -1.1761009e-16 -16.522992)
(323.11183 -1.1593347e-16 -17.518911)
(322.07431 4.8126626e-18 -15.931389)
(322.42623 -1.9019708e-16 -17.195323)
(320.82727 -2.5408633e-16 -14.544623)
(321.29513 -1.7626125e-16 -16.005473)
(319.27685 -2.9501336e-16 -12.557649)
(319.829 2.6795725e-16 -14.112936)
(317.54762 -2.2182251e-18 -10.253364)
(318.14993 -2.1001099e-16 -11.779092)
(315.76708 -2.5400391e-16 -7.9208528)
(316.38034 -1.052882e-17 -9.3113802)
(314.04262 -2.9078575e-16 -5.7736495)
(314.63716 -2.7197188e-16 -6.9792263)