/*--------------------------------*- C++ -*----------------------------------*\
  =========                 |
  \\      /  F ield         | OpenFOAM: The Open Source CFD Toolbox
   \\    /   O peration     | Website:  https://openfoam.org
    \\  /    A nd           | Version:  8
     \\/     M anipulation  |
\*---------------------------------------------------------------------------*/
FoamFile
{
    version     2.0;
    format      ascii;
    class       volScalarField;
    location    "0.280002";
    object      T;
}
// * * * * * * * * * * * * * * * * * * * * * * * * * * * * * * * * * * * * * //

dimensions      [0 0 0 1 0 0 0];

internalField   nonuniform List<scalar> 
20000
(
269.98291
269.57687
269.01674
267.88098
265.58731
261.11603
253.05971
250.149
250.80942
250.76264
251.33551
251.45643
251.99163
252.26392
252.83208
253.28523
253.96685
254.64598
255.52691
256.4975
257.67722
259.03163
260.63061
262.48034
264.61822
267.05268
269.77989
272.7638
275.93591
279.2038
282.42944
285.42497
288.01932
290.15335
291.8519
293.16836
294.20801
295.01184
295.63828
296.1282
296.52138
296.83375
297.09628
297.3151
297.4903
297.63753
297.8171
298.01984
298.10311
298.34304
270.03349
269.69486
269.13947
267.97658
265.5939
260.93992
252.91986
250.34879
251.04053
250.98976
251.57451
251.69732
252.2445
252.52541
253.10677
253.57533
254.2738
254.97556
255.88017
256.8822
258.09613
259.49248
261.13707
263.03691
265.22509
267.70442
270.46011
273.43961
276.55856
279.71587
282.79203
285.64326
288.13409
290.20551
291.86893
293.17417
294.20914
295.01061
295.63621
296.12589
296.51922
296.83221
297.09566
297.31499
297.49013
297.63934
297.83271
298.02369
298.17672
298.32568
270.12058
269.82866
269.28934
268.09977
265.61354
260.73
252.78988
250.57938
251.28316
251.22994
251.82521
251.95149
252.50902
252.79909
253.39183
253.87518
254.58826
255.31112
256.23674
257.26794
258.51231
259.94674
261.63136
263.5757
265.80744
268.32561
271.10506
274.0811
277.1583
280.23246
283.19538
285.93013
288.32639
290.33185
291.95341
293.22889
294.24492
295.03462
295.65349
296.13877
296.52943
296.84162
297.10471
297.3229
297.49578
297.64563
297.83929
298.03506
298.19253
298.32697
270.20493
269.96277
269.4337
268.21812
265.62728
260.4857
252.69936
250.823
251.53246
251.47777
252.08427
252.2145
252.78284
253.08241
253.68687
254.1855
254.91389
255.65895
256.60701
257.66916
258.94601
260.42098
262.14856
264.14102
266.4204
268.98178
271.78873
274.76431
277.80195
280.79412
283.64295
286.25624
288.54878
290.47794
292.0479
293.29022
294.28496
295.06113
295.67171
296.1516
296.53899
296.84978
297.11219
297.32924
297.50004
297.6509
297.84909
298.04718
298.22351
298.32503
270.30248
270.11492
269.59507
268.35093
265.6494
260.21077
252.64836
251.09372
251.79551
251.73971
252.3567
252.4913
253.06968
253.37918
253.99488
254.50942
255.25322
256.02136
256.9924
258.08624
259.39606
260.91198
262.68292
264.72377
267.05083
269.65491
272.4883
275.46283
278.46307
281.38039
284.12542
286.62484
288.81421
290.66245
292.17446
293.37545
294.34244
295.10044
295.69939
296.17144
296.55394
296.86223
297.12309
297.33824
297.50608
297.65715
297.85849
298.06339
298.24035
298.32407
270.41119
270.26744
269.76021
268.48807
265.67421
259.90353
252.63981
251.34481
252.06967
252.01315
252.64019
252.77963
253.3679
253.68807
254.31543
254.84705
255.60725
256.39992
257.39532
258.5224
259.86689
261.4257
263.24227
265.33376
267.71062
270.35842
273.2177
276.18934
279.15044
281.99262
284.63519
287.02176
289.10638
290.86968
292.31866
293.47426
294.41
295.14707
295.7322
296.1948
296.57134
296.8763
297.13506
297.34793
297.51245
297.66353
297.86962
298.08262
298.2553
298.32319
270.53863
270.437
269.93676
268.63243
265.70388
259.56828
252.67681
251.61981
252.3546
252.29786
252.93452
253.07955
253.67772
254.0096
254.64904
255.19895
255.97634
256.79481
257.81568
258.97727
260.35786
261.96115
263.82521
265.96902
268.39693
271.08835
273.97171
276.93759
279.85742
282.62478
285.16768
287.44428
289.42459
291.10074
292.483
293.58884
294.4895
295.20262
295.77159
296.22294
296.5923
296.89306
297.14908
297.35912
297.5198
297.67075
297.88276
298.10298
298.26507
298.32247
270.66828
270.61087
270.11728
268.77662
265.73181
259.20705
252.75631
251.90062
252.64831
252.59246
253.23885
253.3906
253.99892
254.34368
254.99576
255.5652
256.36068
257.20623
258.25375
259.45127
260.86978
262.51962
264.43354
266.63181
269.1123
271.84714
274.75224
277.70846
280.58333
283.27393
285.71744
287.88536
289.76174
291.34947
292.66253
293.71575
294.5786
295.26543
295.81635
296.25496
296.61611
296.91192
297.16464
297.37135
297.52794
297.67927
297.89911
298.12202
298.27335
298.32239
270.81274
270.79097
270.30359
268.92176
265.75587
258.82906
252.87905
252.19367
252.952
252.89792
253.55385
253.71332
254.33194
254.69068
255.35583
255.94589
256.76023
257.63402
258.70938
259.94431
261.40264
263.10116
265.06726
267.32195
269.85608
272.63341
275.55702
278.49894
281.32462
283.9362
286.28044
288.34106
290.11442
291.61332
292.85563
293.85396
294.67669
295.33518
295.86634
296.29087
296.64282
296.93296
297.18182
297.38462
297.53706
297.69
297.91931
298.13887
298.28007
298.32248
270.95446
270.98029
270.49397
269.06436
265.76951
258.44037
253.04298
252.49663
253.26543
253.21416
253.87953
254.04778
254.67686
255.05057
255.72918
256.34089
257.17491
258.0781
259.18255
260.45651
261.95685
263.70636
265.7271
268.04017
270.62882
273.4471
276.38518
279.30737
282.07887
284.60835
286.85263
288.80685
290.47823
291.88856
293.05938
294.0014
294.78234
295.4109
295.92091
296.33025
296.67212
296.95596
297.20041
297.39867
297.54722
297.70397
297.94289
298.15382
298.28599
298.3226
271.11018
271.18194
270.69396
269.2078
265.76958
258.05614
253.24733
252.81053
253.589
253.5415
254.21615
254.39414
255.03368
255.42326
256.11569
256.75007
257.60458
258.53833
259.67334
260.98819
262.53292
264.33577
266.41357
268.78676
271.43025
274.2871
277.23477
280.13112
282.84306
285.28711
287.43055
289.2792
290.84984
292.17237
293.27164
294.1565
294.89446
295.49187
295.97956
296.37279
296.70383
296.98081
297.2203
297.41333
297.5586
297.72241
297.96831
298.168
298.29121
298.32267
271.27112
271.39096
270.90062
269.34937
265.74763
257.68557
253.4876
253.13442
253.92241
253.87992
254.56369
254.75219
255.40209
255.80843
256.51515
257.17328
258.04915
259.01471
260.18192
261.53973
263.1314
264.99001
267.12729
269.5622
272.26035
275.15259
278.10408
280.96786
283.61444
285.96945
288.01093
289.75471
291.22603
292.46192
293.49013
294.31756
295.01184
295.57723
296.04172
296.41811
296.73771
297.00735
297.2413
297.42841
297.57144
297.74658
297.99498
298.18169
298.29598
298.32263
271.43987
271.60741
271.1126
269.49004
265.69567
257.34149
253.75707
253.46988
254.26638
254.22942
254.92167
255.12141
255.78172
256.20591
256.92748
257.6104
258.50855
259.50734
260.70876
262.11182
263.75306
265.66983
267.86893
270.36681
273.1187
276.04217
278.99086
281.81484
284.39009
286.65243
288.59085
290.23049
291.60403
292.75483
293.71291
294.48308
295.13336
295.66621
296.10685
296.46584
296.77352
297.03539
297.26326
297.44384
297.58614
297.77735
298.0224
298.19509
298.3003
298.32235
271.61942
271.83392
271.3354
269.63433
265.60995
257.03962
254.06873
253.81527
254.6192
254.58846
255.28919
255.50143
256.17255
256.61571
257.35261
258.06131
258.98283
260.01658
261.25444
262.70511
264.39857
266.37594
268.63917
271.20099
274.00491
276.95449
279.89298
282.66947
285.16725
287.33332
289.16759
290.70389
291.98136
293.04886
293.93813
294.6516
295.25793
295.75801
296.17442
296.51559
296.81101
297.06477
297.286
297.45971
297.60325
297.81499
298.05017
298.20821
298.30408
298.32176
271.80343
272.06295
271.56036
269.77546
265.47792
256.78798
254.40393
254.16855
254.98023
254.95726
255.66664
255.89264
256.57476
257.03772
257.79038
258.52592
259.47233
260.54301
261.81978
263.32045
265.0688
267.10917
269.43874
272.06488
274.9182
277.88768
280.80782
283.52883
285.94309
288.00945
289.73868
291.17257
292.35583
293.34209
294.16418
294.82183
295.38453
295.85189
296.24391
296.56699
296.84995
297.09528
297.30932
297.47619
297.62362
297.85842
298.07797
298.22115
298.30729
298.32079
271.99533
272.29884
271.79077
269.9181
265.29955
256.58026
254.772
254.53179
255.35103
255.33687
256.05455
256.29505
256.98806
257.47162
258.24061
259.00452
259.97763
261.08741
262.40554
263.95854
265.76452
267.87039
270.26833
272.95866
275.85773
278.8399
281.73283
284.39016
286.71491
288.67837
290.30189
291.63444
292.72551
293.6328
294.38958
294.99256
295.51222
295.94711
296.31481
296.61971
296.8901
297.12669
297.33296
297.49352
297.64861
297.90397
298.1063
298.23426
298.30987
298.31903
272.19825
272.54389
272.02866
270.06644
265.07592
256.43284
255.16404
254.9048
255.73116
255.72677
256.45229
256.70799
257.41196
257.91715
258.7036
259.49767
260.49961
261.65066
263.01257
264.6203
266.4867
268.66057
271.12862
273.88213
276.82212
279.80875
282.66509
285.25048
287.48002
289.33775
290.85517
292.08766
293.08873
293.91951
294.61307
295.16271
295.64013
296.04301
296.38665
296.67342
296.93123
297.15877
297.35659
297.51181
297.67978
297.94796
298.13452
298.24774
298.31127
298.31586
272.40884
272.79219
272.26788
270.21529
264.80434
256.33835
255.52757
255.2874
256.11974
256.12595
256.85913
257.13099
257.84632
258.37469
259.18004
260.00637
261.03918
262.23345
263.64155
265.30653
267.23631
269.48071
272.02023
274.83508
277.80996
280.79185
283.60175
286.10698
288.23593
289.98546
291.39669
292.5306
293.44403
294.20091
294.8335
295.33133
295.76749
296.13897
296.45893
296.72783
296.97312
297.19129
297.3799
297.53098
297.71781
297.98757
298.16086
298.26108
298.31257
298.31013
272.63185
273.0469
272.50849
270.3643
264.48994
256.30654
255.91221
255.67849
256.51607
256.5338
257.27479
257.5642
258.29177
258.84511
259.67105
260.53151
261.59712
262.83651
264.29338
266.01828
268.01452
270.3318
272.9436
275.81673
278.81921
281.78626
284.53961
286.9567
288.98012
290.61946
291.92479
292.96186
293.79018
294.47594
295.04992
295.49757
295.89359
296.23441
296.5312
296.78265
297.01555
297.22402
297.40268
297.55085
297.76139
298.02216
298.18323
298.27319
298.31659
298.29944
272.86067
273.30083
272.74105
270.50311
264.13517
256.33211
256.29976
256.07676
256.92022
256.9509
257.69999
258.00854
258.74933
259.32957
260.17758
261.07387
262.17396
263.46042
264.96889
266.75664
268.82247
271.21492
273.89909
276.8263
279.84781
282.78914
285.47566
287.79693
289.71035
291.23796
292.43802
293.38023
294.12612
294.74367
295.2615
295.66069
296.01781
296.32886
296.60307
296.83758
297.05831
297.25678
297.42495
297.57155
297.80723
298.05319
298.20087
298.28131
298.31977
298.28374
273.09972
273.55885
272.96718
270.62944
263.75538
256.42885
256.69875
256.48383
257.33339
257.37822
258.13578
258.46512
259.22023
259.82901
260.70037
261.63378
262.7702
264.10603
265.6693
267.52294
269.66148
272.13097
274.88662
277.86227
280.89297
283.79711
286.40658
288.62484
290.42438
291.83925
292.9351
293.78468
294.45099
295.00335
295.46757
295.82005
296.13959
296.42188
296.67417
296.89232
297.10116
297.28938
297.44705
297.59417
297.85346
298.08079
298.21412
298.28539
298.32085
298.26433
273.34995
273.82271
273.18672
270.73555
263.36322
256.59254
257.10775
256.89997
257.75595
257.81642
258.58325
258.93511
259.70534
260.34396
261.23959
262.21155
263.38646
264.77434
266.39586
268.31851
270.53285
273.08086
275.90605
278.92307
281.95196
284.80693
287.32933
289.43786
291.12021
292.42186
293.41494
294.1744
294.76412
295.25438
295.66756
295.97512
296.25846
296.51311
296.74424
296.94661
297.14386
297.32156
297.46957
297.62115
297.89765
298.10502
298.22444
298.2872
298.32137
298.24192
273.61135
274.0925
273.39911
270.81142
262.97328
256.82208
257.5282
257.32727
258.18955
258.267
259.04347
259.41927
260.20497
260.87434
261.79534
262.80753
264.0237
265.46674
267.15006
269.14486
271.43784
274.06519
276.95655
280.00633
283.0213
285.81491
288.2406
290.23333
291.7959
292.98446
293.87664
294.54872
295.06498
295.49627
295.86101
296.12545
296.37399
296.60221
296.81306
297.00023
297.18615
297.35304
297.49301
297.65563
297.93757
298.12584
298.23252
298.28802
298.32135
298.21832
273.89086
274.37714
273.60934
270.84734
262.60607
257.11233
257.9608
257.76621
258.63594
258.73118
259.51683
259.91737
260.71869
261.41996
262.36788
263.42268
264.68328
266.18469
267.93338
270.00341
272.37777
275.08448
278.03725
281.10961
284.09768
286.81761
289.13734
291.00885
292.44977
293.52601
294.31953
294.90716
295.35319
295.72867
296.04758
296.27071
296.48583
296.68889
296.88047
297.05304
297.22779
297.38349
297.51749
297.69902
297.97261
298.14317
298.23785
298.28761
298.32116
298.19535
274.18067
274.67111
273.81473
270.82793
262.27432
257.41531
258.40634
258.21597
259.09401
259.2083
260.0025
260.42866
261.24619
261.98106
262.9581
264.0583
265.36679
266.92979
268.74739
270.89571
273.35372
276.13874
279.14635
282.22958
285.17704
287.81111
290.01622
291.76195
293.08024
294.04566
294.74315
295.24931
295.62849
295.95134
296.22702
296.41064
296.59372
296.7729
296.9463
297.10494
297.26852
297.41271
297.54283
297.74806
298.00496
298.15785
298.2404
298.28502
298.31688
298.17427
274.48601
274.98283
274.02421
270.74793
262.00373
257.79441
258.86252
258.67567
259.56152
259.69557
260.4994
260.9529
261.78797
262.55862
263.56747
264.71608
266.07585
267.70356
269.5936
271.8233
274.36687
277.22785
280.282
283.363
286.25559
288.79177
290.87424
292.49055
293.68619
294.5429
295.14726
295.57491
295.89069
296.1642
296.39919
296.54499
296.69745
296.85402
297.01039
297.15581
297.30816
297.44078
297.56929
297.79906
298.03523
298.17112
298.24151
298.27959
298.30753
298.15448
274.80022
275.30453
274.23421
270.59086
261.79343
258.21099
259.32659
259.14426
260.03959
260.19485
261.00793
261.49087
262.34517
263.15423
264.1977
265.39761
266.81205
268.50758
270.47368
272.78771
275.41795
278.35087
281.44129
284.50569
287.32881
289.75554
291.70833
293.19281
294.26679
295.0174
295.53165
295.8838
296.13966
296.36733
296.56408
296.67353
296.7969
296.93207
297.07254
297.20548
297.34647
297.46815
297.59814
297.84887
298.06196
298.18223
298.24192
298.27505
298.2903
298.13608
275.12028
275.63678
274.45086
270.35533
261.65894
258.67235
259.80186
259.62441
260.52963
260.70774
261.5294
262.04363
262.91934
263.76964
264.85047
266.10446
267.57683
269.34337
271.38932
273.7906
276.50764
279.50669
282.62128
285.65358
288.39246
290.69879
292.51608
293.86778
294.82184
295.46887
295.89598
296.17604
296.3754
296.56097
296.72174
296.79598
296.89191
297.00696
297.13259
297.25367
297.38325
297.49549
297.63196
297.89471
298.0832
298.18836
298.24197
298.27067
298.2653
298.11921
275.45483
275.9863
274.68106
270.04428
261.60792
259.13318
260.28736
260.11549
261.03104
261.23333
262.0659
262.61336
263.51242
264.4065
265.52721
266.83792
268.37173
270.21272
272.34241
274.8334
277.63592
280.69311
283.81786
286.80168
289.44177
291.61785
293.29566
294.51523
295.35133
295.89684
296.23962
296.45198
296.59815
296.74535
296.87223
296.91222
296.98226
297.07869
297.19045
297.3001
297.41825
297.5234
297.67352
297.93437
298.10002
298.19155
298.23972
298.26619
298.23469
298.10407
275.7913
276.34248
274.9176
269.65763
261.63972
259.58921
260.78274
260.61806
261.54491
261.77271
262.61829
263.20234
264.12607
265.06601
266.22903
267.59938
269.19839
271.11754
273.33495
275.91755
278.80255
281.90777
285.02691
287.94522
290.47244
292.50997
294.04654
295.13554
295.855
296.30055
296.56195
296.7121
296.80864
296.92047
297.01538
297.02245
297.06765
297.14734
297.24613
297.34456
297.45134
297.55201
297.72309
297.96784
298.11399
298.19295
298.23553
298.26183
298.20604
298.09054
276.136
276.70881
275.16152
269.20981
261.76081
260.07078
261.28955
261.13452
262.0733
262.32807
263.18755
263.81147
264.76133
265.74907
266.95722
268.39035
270.05881
272.06001
274.36895
277.04391
280.00629
283.14695
286.24321
289.07868
291.48008
293.37306
294.76887
295.72832
296.33135
296.67911
296.86321
296.95679
297.00807
297.08598
297.15069
297.12735
297.14795
297.21299
297.2997
297.387
297.48258
297.58127
297.77488
297.9987
298.12648
298.19322
298.22928
298.25497
298.18008
298.07861
276.48975
277.08483
275.40617
268.71442
261.97008
260.56747
261.80986
261.66683
262.61793
262.90123
263.77628
264.44012
265.4185
266.45689
267.71323
269.21271
270.95517
273.04252
275.44642
278.21323
281.24552
284.40684
287.46162
290.19714
292.46135
294.20656
295.46279
296.2911
296.77833
297.03239
297.14493
297.18593
297.19751
297.24142
297.27761
297.22765
297.22357
297.27564
297.35124
297.42752
297.51239
297.61185
297.82647
298.02597
298.13693
298.19277
298.22164
298.2442
298.15725
298.06829
276.85923
277.47491
275.64666
268.19575
262.24942
261.08438
262.34532
262.21574
263.17887
263.49259
264.3845
265.08998
266.09872
267.19073
268.499
270.06872
271.89002
274.06753
276.56905
279.42524
282.51731
285.68217
288.67607
291.29534
293.41352
295.0105
296.12603
296.82072
297.1945
297.36102
297.4094
297.39925
297.37663
297.38708
297.39648
297.32306
297.29584
297.33505
297.40073
297.4662
297.54155
297.64582
297.87472
298.04806
298.14231
298.18994
298.21489
298.22692
298.13709
298.05946
277.23909
277.87611
275.87131
267.67768
262.57759
261.6173
262.8945
262.78042
263.75605
264.1026
265.01334
265.76285
266.80315
267.95234
269.31677
270.96089
272.86603
275.13753
277.73834
280.67934
283.81837
286.96776
289.88087
292.36912
294.33545
295.78462
296.75416
297.31476
297.57966
297.6677
297.65845
297.59768
297.54403
297.5257
297.50738
297.41142
297.3663
297.39087
297.448
297.50292
297.57092
297.68648
297.91628
298.06517
298.1452
298.18648
298.20856
298.20463
298.11935
298.0519
277.62342
278.28591
276.06303
267.18163
263.00653
262.16424
263.45733
263.36173
264.35086
264.7326
265.66387
266.45975
267.5342
268.74387
270.16914
271.89203
273.88602
276.25485
278.95502
281.97356
285.14379
288.25705
291.0698
293.41468
295.22666
296.52526
297.34345
297.7712
297.9373
297.95763
297.89011
297.78442
297.69962
297.65534
297.61127
297.49321
297.43481
297.44302
297.49276
297.53732
297.60088
297.73502
297.94998
298.07878
298.14645
298.18223
298.20296
298.17972
298.10372
298.04541
278.01045
278.70823
276.21023
266.73987
263.49219
262.72844
264.03632
263.96182
264.96469
265.38419
266.33706
267.18121
268.29474
269.56784
271.05902
272.86508
274.95285
277.42167
280.21944
283.30545
286.48847
289.54379
292.2377
294.42984
296.0868
297.22687
297.89093
298.19163
298.27448
298.22713
298.10572
297.95888
297.84431
297.77711
297.70774
297.56952
297.50056
297.49206
297.53472
297.56914
297.6313
297.78554
297.98006
298.09061
298.14668
298.17689
298.19727
298.15553
298.08987
298.03969
278.39996
279.14091
276.30173
266.40244
264.0443
263.31074
264.63242
264.58197
265.59861
266.05864
267.03451
267.92989
269.08609
270.42688
271.98961
273.8832
276.06925
278.63965
281.53073
284.67087
287.84577
290.82086
293.37958
295.41314
296.91199
297.88429
298.39505
298.58341
298.59003
298.47726
298.30553
298.12159
297.97897
297.89106
297.79768
297.6408
297.562
297.53927
297.57372
297.59882
297.66251
297.83549
298.00613
298.10061
298.14625
298.1705
298.1903
298.13347
298.07758
298.03461
278.78687
279.57344
276.32291
266.15145
264.60128
263.91157
265.24658
265.22331
266.2539
266.75684
267.75748
268.70762
269.91125
271.3246
272.96434
274.94943
277.23787
279.91005
282.88748
286.06518
289.20914
292.08211
294.49214
296.36408
297.69544
298.49414
298.85793
298.95326
298.882
298.70851
298.49047
298.27243
298.10463
297.99772
297.88173
297.70761
297.61803
297.58556
297.60995
297.62798
297.69587
297.88177
298.02695
298.10569
298.14395
298.16379
298.17894
298.11382
298.06681
298.03016
279.17249
280.02233
276.27547
265.9885
265.18072
264.53184
265.88022
265.88662
266.93149
267.48009
268.5083
269.51771
270.7739
272.26434
273.98655
276.06694
278.4609
281.23325
284.28643
287.482
290.57061
293.32126
295.57252
297.27975
298.43006
299.05457
299.2891
299.29767
299.15177
298.92185
298.66125
298.41214
298.22179
298.09744
297.96021
297.76973
297.66985
297.63016
297.64403
297.65859
297.73405
297.92101
298.04292
298.10837
298.14088
298.15766
298.1618
298.09672
298.05746
298.02632
279.54962
280.48216
276.16593
265.92818
265.78839
265.17114
266.53309
266.57267
267.63237
268.23114
269.29067
270.36407
271.67808
273.24925
275.05948
277.2387
279.74041
282.60886
285.72378
288.91456
291.92306
294.53355
296.61939
298.15244
299.11231
299.56771
299.69507
299.61532
299.40007
299.11821
298.81869
298.54135
298.33098
298.19062
298.0334
297.82738
297.71783
297.67209
297.67683
297.69093
297.77829
297.95167
298.05534
298.10957
298.13713
298.1522
298.14057
298.08228
298.0493
298.02288
279.91647
280.95145
276.00613
265.98294
266.4203
265.83074
267.20616
267.28382
268.35967
269.01435
270.10913
271.25064
272.62709
274.2825
276.18643
278.46771
281.07775
284.03496
287.19367
290.35457
293.2588
295.71452
297.63029
298.97368
299.73937
300.04355
300.07258
299.90754
299.62807
299.29857
298.96357
298.66077
298.43267
298.27771
298.10168
297.88114
297.76234
297.70995
297.70902
297.72227
297.82318
297.97834
298.0656
298.10998
298.13263
298.14742
298.11938
298.06932
298.04199
298.01977
280.26916
281.42
275.80459
266.15895
267.07972
266.51237
267.90249
268.02443
269.11885
269.83429
270.96778
272.1806
273.62387
275.36757
277.37068
279.7569
282.47365
285.50874
288.6896
291.79402
294.57165
296.86132
298.59877
299.73782
300.31199
300.49047
300.41995
300.17537
299.83691
299.4639
299.09671
298.77108
298.52736
298.35912
298.16542
297.93121
297.80367
297.74405
297.74011
297.74982
297.86739
298.0013
298.07403
298.10984
298.12727
298.14257
298.09987
298.05783
298.03557
298.01706
280.61599
281.87869
275.58218
266.45944
267.76829
267.22207
268.62827
268.80034
269.9148
270.69432
271.8694
273.15673
274.6721
276.50811
278.61574
281.1087
283.92745
287.02528
290.20315
293.224
295.85554
297.97117
299.51492
300.4414
300.83999
300.90585
300.73835
300.42017
300.02776
299.61518
299.21891
298.87293
298.61552
298.43525
298.22482
297.97732
297.84144
297.77568
297.77027
297.77681
297.90844
298.02035
298.08
298.10864
298.12273
298.13336
298.08287
298.04813
298.03016
298.01479
280.9619
282.31599
275.36629
266.8823
268.49109
267.9667
269.38871
269.61467
270.74953
271.59606
272.81634
274.18189
275.77625
277.70851
279.92496
282.52488
285.43744
288.57861
291.72578
294.63685
297.10608
299.03987
300.37007
301.08355
301.33286
301.28804
301.02906
300.6433
300.2018
299.75337
299.33094
298.96695
298.6976
298.50645
298.27984
298.01937
297.87619
297.80558
297.80021
297.81143
297.94324
298.03465
298.08284
298.10693
298.11915
298.12027
298.06856
298.04018
298.0257
298.01287
281.33024
282.72729
275.19695
267.38751
269.25295
268.75036
270.18419
270.46842
271.62254
272.54167
273.81213
275.25979
276.94164
278.97315
281.30135
284.00607
286.99978
290.16048
293.24754
296.02483
298.31909
300.05646
301.15998
301.6716
301.7916
301.63711
301.29362
300.84617
300.36018
299.87941
299.43355
299.05374
298.77403
298.57297
298.33027
298.05741
297.90843
297.83467
297.83044
297.84986
297.96984
298.04535
298.08425
298.10438
298.1161
298.10298
298.05691
298.0336
298.02203
298.01136
281.72061
283.08576
275.08869
267.90085
270.0486
269.56905
271.01333
271.36115
272.53843
273.53411
274.8615
276.39695
278.17152
280.30603
282.74745
285.55173
288.60931
291.76203
294.75921
297.38173
299.49099
301.01073
301.88164
302.21649
302.21396
301.9548
301.53366
301.03019
300.50407
299.99423
299.5275
299.13389
298.84522
298.63501
298.37588
298.09178
297.93876
297.86346
297.86017
297.88629
297.99208
298.05361
298.08491
298.10113
298.11274
298.08603
298.04657
298.02785
298.01883
298.01023
282.1546
283.37758
275.06304
268.57007
270.87176
270.42369
271.87777
272.29901
273.50191
274.57975
275.96982
277.59794
279.47071
281.71094
284.26516
287.1594
290.2584
293.37251
296.2513
298.70121
300.61287
301.89506
302.53841
302.72446
302.59858
302.2428
301.75082
301.19675
300.63458
300.09871
299.61348
299.20796
298.91161
298.69285
298.41647
298.12297
297.9677
297.89207
297.88929
297.92187
298.0104
298.06008
298.08524
298.09777
298.10766
298.07037
298.03758
298.02282
298.01598
298.00927
282.62806
283.58105
275.1287
269.35774
271.72905
271.32178
272.78583
273.28722
274.52103
275.68393
277.1424
278.86666
280.84298
283.19161
285.85526
288.825
291.9381
294.98155
297.71595
299.97883
301.67241
302.70566
303.14206
303.1926
302.9477
302.50302
301.94678
301.34722
300.75281
300.19371
299.69217
299.27652
298.97368
298.74677
298.45193
298.15155
297.99564
297.92046
297.91717
297.9543
298.02565
298.06493
298.08532
298.09576
298.10076
298.05692
298.03011
298.01857
298.01349
298.00832
283.16812
283.71276
275.30903
270.20794
272.63095
272.27243
273.74428
274.33157
275.59976
276.85148
278.38344
280.20724
282.29317
284.75144
287.51671
290.54143
293.63709
296.57769
299.14503
301.20786
302.65733
303.44119
303.70437
303.61817
303.26308
302.73735
302.12317
301.48291
300.85978
300.28005
299.76424
299.34009
299.03179
298.79691
298.48238
298.17811
298.0229
297.94871
297.94375
297.98334
298.03833
298.06884
298.08516
298.09433
298.08862
298.04631
298.0242
298.01503
298.01127
298.00736
283.78064
283.78513
275.59746
271.06287
273.57863
273.27937
274.75643
275.43479
276.74262
278.08699
279.69861
281.62529
283.82649
286.39278
289.24628
292.29972
295.34366
298.15103
300.53182
302.37483
303.56326
304.11329
304.22251
304.00354
303.54699
302.94779
302.28163
301.60513
300.9565
300.35851
299.83031
299.39917
299.08612
298.84281
298.50862
298.20321
298.0498
297.97712
297.96961
298.00798
298.04878
298.0722
298.08504
298.09347
298.07564
298.03766
298.01932
298.01215
298.00944
298.00633
284.47344
283.76209
275.99592
272.01399
274.57083
274.34479
275.82758
276.60138
277.95458
279.39524
281.0943
283.12992
285.44821
288.11578
291.03738
294.08794
297.04454
299.6912
301.86901
303.46614
304.38625
304.73421
304.69454
304.35052
303.80161
303.13623
302.4237
301.71509
301.04392
300.42985
299.89099
299.45421
299.13662
298.8833
298.53236
298.22743
298.07652
298.0057
297.99532
298.02766
298.05704
298.07472
298.08488
298.09143
298.06329
298.02997
298.01488
298.00952
298.00789
298.00543
285.26806
283.62132
276.5226
273.02901
275.61154
275.47293
276.96087
277.83623
279.24198
280.78448
282.58138
284.72801
287.16117
289.91743
292.88087
295.89309
298.72769
301.18919
303.14578
304.47261
305.13365
305.3075
305.12056
304.66186
304.02928
303.30463
302.55093
301.81399
301.12297
300.49479
299.94687
299.50558
299.18325
298.91786
298.55509
298.25131
298.10306
298.03358
298.01974
298.04367
298.06354
298.07662
298.08518
298.08757
298.05209
298.02329
298.01101
298.00712
298.00645
298.00465
286.19315
283.41061
277.17926
274.12317
276.7056
276.6669
278.16331
279.14726
280.61507
282.26459
284.16963
286.42558
288.96539
291.79128
294.76418
297.70037
300.38067
302.636
304.34574
305.38908
305.81866
305.83026
305.50321
304.93998
304.23222
303.4548
302.66475
301.90292
301.1945
300.55402
299.99849
299.55357
299.22613
298.9477
298.57705
298.27514
298.12903
298.05987
298.04209
298.05722
298.06926
298.07812
298.08582
298.08173
298.04254
298.01808
298.00805
298.00519
298.00501
298.00396
287.26457
283.15632
277.95557
275.29313
277.8609
277.93765
279.44692
280.54705
282.08662
283.84873
285.86346
288.2242
290.85743
293.72768
296.67316
299.4954
301.9925
304.02252
305.45501
306.21729
306.4517
306.30077
305.84536
305.18766
304.41272
303.58857
302.76656
301.98296
301.25933
300.60818
300.04634
299.59846
299.26541
298.97368
298.59883
298.2988
298.15378
298.08391
298.06227
298.06868
298.07477
298.08035
298.0866
298.07291
298.03487
298.01393
298.0056
298.00363
298.00381
298.00333
288.49674
282.89551
278.85787
276.55119
279.08963
279.2988
280.82702
282.04957
283.66812
285.5425
287.66675
290.12349
292.83074
295.71346
298.59124
301.26313
303.55115
305.32991
306.46759
306.9711
307.02892
306.7223
306.14992
305.4075
304.57292
303.70761
302.85765
302.05509
301.31823
300.65792
300.09089
299.64048
299.30137
298.99676
298.62074
298.32222
298.17705
298.10556
298.08058
298.07814
298.07991
298.08364
298.08556
298.06418
298.02835
298.01014
298.00336
298.00231
298.0029
298.00277
289.86816
282.60495
279.9148
277.90962
280.40836
280.76582
282.31997
283.66742
285.36703
287.34938
289.57995
292.11991
294.8753
297.73307
300.50165
302.98978
305.04581
306.54234
307.38058
307.66665
307.54715
307.09801
306.42013
305.60221
304.71496
303.81358
302.93928
302.12027
301.37195
300.70382
300.13255
299.67987
299.33434
299.01761
298.64301
298.34568
298.19949
298.12527
298.09669
298.08676
298.08404
298.08515
298.08339
298.0553
298.02261
298.00692
298.00144
298.00106
298.00209
298.0023
291.38753
282.38018
281.11827
279.38465
281.83481
282.352
283.93709
285.40765
287.18725
289.27169
291.60222
294.20761
296.97737
299.76791
302.38635
304.66041
306.45847
307.64971
308.20791
308.29954
308.01018
307.4313
306.65904
305.77432
304.84084
303.908
303.01262
302.1794
301.42119
300.74642
300.17172
299.71685
299.3647
299.03684
298.66583
298.3695
298.22186
298.14418
298.10964
298.09485
298.08826
298.08606
298.07976
298.04662
298.01756
298.00429
298.00002
298.00017
298.00147
298.00191
293.0261
282.25047
282.44675
280.99798
283.38499
284.06129
285.68281
287.26922
289.13419
291.31391
293.7312
296.37592
299.11945
301.79805
304.2283
306.26143
307.77036
308.64764
308.96667
308.8674
308.42139
307.72591
306.86984
305.92636
304.9525
303.99237
303.07877
302.23331
301.46661
300.78625
300.20874
299.75165
299.39281
299.05512
298.68948
298.3937
298.24317
298.16123
298.12131
298.10221
298.09256
298.08631
298.07515
298.03869
298.01327
298.00211
297.99887
297.99947
298.00099
298.0016
294.79525
282.22624
283.87614
282.74232
285.06217
285.89691
287.55721
289.25554
291.21502
293.47798
295.96073
298.60943
301.28027
303.80198
306.00945
307.77491
308.96765
309.54809
309.65571
309.37272
308.78485
307.98542
307.05549
306.06066
305.05173
304.06802
303.13877
302.28279
301.50882
300.8238
300.24396
299.7845
299.41909
299.07315
298.71396
298.41819
298.26348
298.1769
298.13163
298.10856
298.09634
298.08593
298.06956
298.03189
298.00971
298.0002
297.99783
297.9989
298.00061
298.00136
296.54597
282.43377
285.46432
284.61394
286.86863
287.86211
289.56632
291.37807
293.43167
295.76213
298.27805
300.8871
303.43577
305.75858
307.71259