/*--------------------------------*- C++ -*----------------------------------*\
  =========                 |
  \\      /  F ield         | OpenFOAM: The Open Source CFD Toolbox
   \\    /   O peration     | Website:  https://openfoam.org
    \\  /    A nd           | Version:  8
     \\/     M anipulation  |
\*---------------------------------------------------------------------------*/
FoamFile
{
    version     2.0;
    format      ascii;
    class       volVectorField;
    location    "0.280002";
    object      U;
}
// * * * * * * * * * * * * * * * * * * * * * * * * * * * * * * * * * * * * * //

dimensions      [0 1 -1 0 0 0 0];

internalField   nonuniform List<vector> 
20000
(
(257.91216 -2.4264085e-19 6.2108674)
(298.79839 0 7.6014711)
(324.86091 -7.4848589e-17 8.1651728)
(346.89739 1.2679621e-16 8.6195063)
(366.97502 -5.4436064e-17 8.9693908)
(384.9315 5.6801361e-21 9.2243082)
(397.02702 9.5019421e-21 8.9833349)
(399.91311 0 9.2998769)
(398.8886 -2.7402851e-17 8.7163792)
(399.29974 -1.4758098e-18 9.2858683)
(398.37637 2.0211112e-17 8.4073722)
(398.34203 7.9241334e-18 9.0891795)
(397.44227 -4.9363798e-18 8.0937777)
(396.98525 2.5839907e-18 8.6830967)
(395.94656 -2.8618732e-18 7.6976913)
(395.02278 2.1539155e-18 8.03906)
(393.65822 -1.9774585e-18 7.1035581)
(392.15411 -2.9702833e-18 7.1021103)
(390.22825 0 6.1681634)
(387.94285 9.1716417e-19 5.7690614)
(385.14988 0 4.7251873)
(381.77527 9.0083255e-18 3.8943198)
(377.72205 -4.2454231e-17 2.6278779)
(372.85972 1.3860458e-17 1.3919097)
(367.11702 0 -0.080856982)
(360.39292 0 -1.4910129)
(352.69895 1.6163835e-17 -2.8129698)
(344.09728 -3.9007503e-17 -3.7514489)
(334.77855 0 -4.1562329)
(324.9783 -2.1625976e-18 -3.9263916)
(315.05674 0 -3.2097723)
(305.53368 2.2678382e-17 -2.2625756)
(296.96458 5.5619783e-17 -1.3212986)
(289.6457 -2.7906209e-17 -0.50730743)
(283.62618 2.1150326e-17 0.16021368)
(278.80305 3.0551555e-17 0.66642734)
(274.96283 -7.4814958e-17 1.0319098)
(271.93866 -9.3746748e-17 1.2771523)
(269.56166 1.2607988e-16 1.4144896)
(267.68607 -8.4051297e-17 1.4634576)
(266.20698 0 1.4406059)
(265.03765 0 1.3629543)
(264.08632 -1.6830115e-17 1.2251718)
(263.32547 1.2185413e-17 1.0534273)
(262.73207 0 0.86476773)
(262.26868 0 0.6772099)
(261.74161 8.1350322e-17 0.45253351)
(261.2602 7.6969255e-18 0.20144544)
(261.03624 -5.9148789e-18 -0.051181695)
(260.43962 0 -0.58408844)
(257.43937 2.6155924e-19 5.1923208)
(298.69242 7.4117969e-19 6.4012368)
(324.90297 0 6.8571038)
(347.08625 -6.4658907e-17 7.2139777)
(367.29186 5.5506488e-17 7.4809067)
(385.316 -4.7492359e-17 7.6625512)
(396.83775 7.9374272e-17 7.3545623)
(399.39002 -3.3239382e-17 7.7062814)
(398.30503 0 7.0612145)
(398.72944 1.4474089e-18 7.6835539)
(397.76842 -3.6348193e-18 6.7307722)
(397.73283 0 7.4663424)
(396.79622 -1.679756e-18 6.396253)
(396.32052 -6.3203959e-18 7.0242449)
(395.24169 -4.1034328e-18 5.9736663)
(394.28067 0 6.3310214)
(392.86623 -3.282344e-18 5.3418164)
(391.30429 1.0796414e-17 5.3323662)
(389.30961 4.4826283e-18 4.3506421)
(386.93996 0 3.9216735)
(384.04846 2.5064715e-17 2.8293234)
(380.55687 -1.0492072e-17 1.9539585)
(376.37017 2.5753041e-17 0.63932197)
(371.3599 0 -0.64099146)
(365.4608 0 -2.1481928)
(358.58876 0 -3.5765214)
(350.78301 0 -4.8871859)
(342.15242 2.6522457e-17 -5.7791728)
(332.93343 2.2146852e-17 -6.0989442)
(323.39218 -1.7286527e-17 -5.7442838)
(313.8554 1.4292328e-16 -4.8518046)
(304.73677 -4.5245137e-17 -3.6748986)
(296.48684 8.9479868e-17 -2.4753417)
(289.38076 0 -1.414039)
(283.48967 1.7294716e-16 -0.53294689)
(278.73319 -3.2867219e-17 0.14471846)
(274.93106 7.5377524e-17 0.64232781)
(271.92902 5.6520365e-17 0.9877951)
(269.56349 -9.871408e-17 1.1998247)
(267.6942 2.303504e-16 1.3044775)
(266.21761 1.5453165e-17 1.3231469)
(265.0475 2.2881308e-17 1.275899)
(264.09487 -1.6794161e-17 1.1610481)
(263.3334 0 1.0078279)
(262.74004 -1.8281253e-17 0.83324598)
(262.26908 1.3516354e-17 0.65077647)
(261.72423 -7.0613587e-17 0.42910043)
(261.25269 7.622963e-18 0.18776155)
(260.91229 -1.1637832e-17 -0.062137166)
(260.46814 -7.249288e-17 -0.56796781)
(256.8214 1.3696547e-16 4.1753023)
(298.36942 -9.8191195e-17 5.1827847)
(324.81716 0 5.5490162)
(347.20856 0 5.820675)
(367.57853 5.6718084e-17 6.0021356)
(385.70145 -7.4113684e-17 6.0979438)
(396.59698 2.0215699e-17 5.7094254)
(398.82555 -1.697589e-17 6.0917114)
(397.69528 1.4201946e-17 5.3860093)
(398.131 1.1837366e-17 6.0597045)
(397.13291 -7.3970211e-18 5.0336208)
(397.09345 0 5.8175493)
(396.12096 8.5963849e-19 4.6773539)
(395.625 6.4254048e-18 5.3376852)
(394.50726 -5.9872261e-18 4.2280973)
(393.50842 0 4.595007)
(392.04498 6.6270278e-18 3.5571878)
(390.42436 -5.5211718e-18 3.533654)
(388.36054 -1.8439427e-17 2.5068498)
(385.90469 7.7101702e-18 2.0432816)
(382.91341 -5.7306801e-17 0.90401516)
(379.30187 -3.1841883e-17 -0.017809833)
(374.97896 -1.7621943e-17 -1.3782701)
(369.81525 -7.6093226e-18 -2.7005161)
(363.75329 -3.6771156e-17 -4.2350005)
(356.7236 6.0199818e-17 -5.6693132)
(348.79461 1.6217713e-17 -6.9484029)
(340.11751 0 -7.766727)
(330.96955 0 -7.9720417)
(321.64095 -1.2598544e-16 -7.4705752)
(312.43737 -1.351133e-17 -6.3983413)
(303.69521 0 -5.007417)
(295.7751 -1.4485415e-16 -3.573858)
(288.91446 2.2644306e-16 -2.2865068)
(283.18936 2.0342678e-19 -1.2063911)
(278.5431 0 -0.36601735)
(274.81238 0 0.25846637)
(271.8557 -2.8478517e-16 0.70083783)
(269.51746 -4.2527418e-17 0.98555764)
(267.66589 -1.4729059e-16 1.1447312)
(266.19972 -3.1131621e-17 1.2040774)
(265.03345 2.2843547e-17 1.1866159)
(264.08313 0 1.0945101)
(263.32503 0 0.95995351)
(262.73655 -2.9140669e-16 0.79925183)
(262.25913 1.3469245e-17 0.6215426)
(261.70759 -9.9964155e-18 0.40299503)
(261.22606 2.4056535e-16 0.16938845)
(260.82637 0 -0.074539984)
(260.4707 -7.3600139e-17 -0.55349383)
(256.24804 0 3.1281703)
(298.1027 5.0130247e-17 3.9682549)
(324.77191 1.7372466e-20 4.2150557)
(347.35275 -6.7429988e-17 4.3959447)
(367.86581 2.8933137e-17 4.4885741)
(386.076 4.6299221e-18 4.4974879)
(396.28718 0 4.0383415)
(398.22813 0 4.4547777)
(397.05149 7.2524099e-18 3.6850438)
(397.49712 1.8956587e-20 4.4133493)
(396.46095 -7.5629965e-18 3.3124295)
(396.41708 2.0257738e-18 4.147784)
(395.40802 -1.6980783e-18 2.9364792)
(394.89134 1.4530251e-18 3.6313237)
(393.73391 9.7018429e-18 2.4625636)
(392.6961 0 2.8396683)
(391.18189 -1.347622e-17 1.7532162)
(389.50003 2.2564924e-17 1.715117)
(387.36395 2.8072023e-17 0.64359932)
(384.81824 7.7493648e-18 0.14545636)
(381.72331 1.2806882e-17 -1.039011)
(377.98739 1.0813946e-16 -2.00539)
(373.52336 2.7206247e-17 -3.4079099)
(368.20048 0 -4.7669579)
(361.96997 -5.0115543e-17 -6.3205436)
(354.77773 -8.1490824e-17 -7.7486185)
(346.72314 0 -8.9791025)
(337.99815 1.4078813e-17 -9.7036457)
(328.9168 -3.4005988e-17 -9.7750521)
(319.78785 -1.7342999e-18 -9.1133781)
(310.8985 -1.0260673e-16 -7.8599246)
(302.52186 0 -6.2669922)
(294.9398 0 -4.6188134)
(288.34599 -4.5744631e-16 -3.1239733)
(282.81213 -1.7615734e-16 -1.8586952)
(278.29685 0 -0.8645654)
(274.65377 -2.5554844e-17 -0.11855345)
(271.75433 3.2460113e-16 0.41754115)
(269.45236 0 0.77317979)
(267.62475 0 0.9859526)
(266.17317 -4.9867805e-16 1.0854129)
(265.01391 -4.5908966e-17 1.0974978)
(264.06801 1.6754015e-17 1.0281871)
(263.31473 -1.2388457e-17 0.91247389)
(262.73233 3.2669588e-16 0.76538253)
(262.25002 -1.3369313e-17 0.59206734)
(261.68979 -3.1762045e-16 0.37658346)
(261.19165 -2.2282207e-16 0.14961994)
(260.75364 -5.6207816e-18 -0.085977861)
(260.47481 -4.3553385e-18 -0.53506366)
(255.69258 -1.4382855e-16 1.9582832)
(297.8369 5.0361161e-17 2.7801214)
(324.72791 0 2.8695437)
(347.50123 -2.1556576e-18 2.9539364)
(368.14908 0 2.9536586)
(386.43257 -3.1385299e-18 2.8731805)
(395.90441 -1.3150137e-17 2.3484752)
(397.5894 1.3223853e-17 2.7986769)
(396.36949 0 1.9623851)
(396.8244 4.0793393e-19 2.7466078)
(395.75058 -5.4796106e-18 1.5707163)
(395.70162 4.2805953e-18 2.4587683)
(394.65604 3.5569549e-18 1.1769863)
(394.11742 1.1904161e-17 1.9057942)
(392.91935 9.9403253e-18 0.67885064)
(391.84018 -8.2246733e-18 1.0642547)
(390.27279 0 -0.06989226)
(388.52607 -2.2884285e-17 -0.12464094)
(386.31394 -5.7406483e-17 -1.2396955)
(383.67399 0 -1.773188)
(380.47063 0 -3.0008472)
(376.60487 -4.3959749e-17 -4.0105982)
(371.99334 -3.6532396e-17 -5.4516336)
(366.50438 0 -6.8427988)
(360.09859 1.0051768e-16 -8.407198)
(352.73914 0 -9.8163694)
(344.55807 0 -10.980474)
(335.78696 1.1336391e-16 -11.590592)
(326.77187 0 -11.508449)
(317.83415 3.1624454e-16 -10.672797)
(309.24335 -1.4627191e-17 -9.2350002)
(301.22031 -1.8966177e-16 -7.4491818)
(293.97911 0 -5.603453)
(287.66749 2.0177732e-16 -3.9191652)
(282.34551 2.2022818e-17 -2.4833029)
(277.9825 3.0556593e-16 -1.3456591)
(274.44467 3.8476629e-16 -0.48493881)
(271.61586 3.0754201e-16 0.14048075)
(269.3603 -4.2931376e-16 0.56433801)
(267.56402 3.3921177e-16 0.82908948)
(266.13219 -1.5678905e-17 0.96760413)
(264.98365 4.5958859e-17 1.0086143)
(264.04478 -5.383377e-16 0.96188737)
(263.29854 -2.4621971e-17 0.86508502)
(262.72448 5.7868404e-16 0.73128523)
(262.23901 0 0.56186606)
(261.6689 3.1486423e-16 0.3490019)
(261.14459 1.469041e-17 0.12869096)
(260.70245 -5.5287082e-18 -0.096657142)
(260.47868 1.2991298e-16 -0.51572731)
(255.15727 1.1356256e-18 0.83892377)
(297.5836 0 1.5557801)
(324.69508 2.5949228e-18 1.4906616)
(347.65986 1.3183633e-17 1.4845283)
(368.431 -1.1314289e-17 1.3883529)
(386.76393 0 1.2174081)
(395.44855 1.3329933e-18 0.63508708)
(396.91264 -7.8618362e-18 1.1227487)
(395.65131 7.5370701e-18 0.22086663)
(396.11481 -6.2431958e-18 1.0624971)
(395.00353 1.5663798e-17 -0.18917267)
(394.9484 -2.1742642e-17 0.75223308)
(393.86556 -3.2526025e-20 -0.60021885)
(393.30302 -6.041751e-18 0.1614221)
(392.0624 0 -1.1233081)
(390.93878 -1.6869065e-17 -0.73154306)
(389.31502 -4.2229029e-17 -1.9125248)
(387.49935 2.3378429e-17 -1.9855843)
(385.20685 6.8262145e-17 -3.1426858)
(382.46776 -1.6352676e-17 -3.7117959)
(379.15033 1.3389302e-17 -4.9804523)
(375.14811 0 -6.0320581)
(370.38134 -7.5083264e-17 -7.5077647)
(364.71825 1.2474032e-16 -8.9257443)
(358.12981 0 -10.491859)
(350.59923 2.1638627e-17 -11.86849)
(342.29331 -1.7187376e-17 -12.94799)
(333.48251 -1.1442567e-16 -13.423694)
(324.5403 0 -13.170117)
(315.79487 1.5298161e-16 -12.148593)
(307.49656 2.4278921e-16 -10.523863)
(299.82038 1.9129001e-16 -8.5529723)
(292.92129 0 -6.5248895)
(286.90211 -4.6794051e-16 -4.668162)
(281.80724 2.2588099e-17 -3.0763426)
(277.61211 -2.9024759e-16 -1.8060485)
(274.19321 -8.25649e-16 -0.83815055)
(271.44599 -9.2759354e-16 -0.12842742)
(269.24547 4.5982879e-16 0.36044111)
(267.48688 -9.9921404e-16 0.67515633)
(266.07932 -1.5730697e-17 0.85140199)
(264.94487 -7.5797607e-16 0.92054351)
(264.01533 5.5479565e-16 0.89605164)
(263.27801 0 0.81812428)
(262.71412 -1.1526697e-15 0.69724219)
(262.22628 -4.2306741e-16 0.5310684)
(261.6422 6.2426673e-16 0.32019814)
(261.08911 0 0.10733961)
(260.66551 0 -0.10613187)
(260.48262 2.6643079e-16 -0.49496101)
(254.62762 0 -0.30764282)
(297.33807 0 0.3218342)
(324.67276 -3.9651906e-18 0.093323179)
(347.83086 -5.601913e-18 -0.0074282029)
(368.71597 5.7629271e-18 -0.20277944)
(387.06296 0 -0.46384925)
(394.92209 0 -1.096428)
(396.2012 9.1423522e-18 -0.56912492)
(394.89959 -7.6214909e-18 -1.5367341)
(395.37021 0 -0.63696522)
(394.22097 0 -1.966325)
(394.15782 0 -0.97202162)
(393.03638 -7.4145542e-18 -2.3955474)
(392.44737 6.2081524e-18 -1.602723)
(391.16197 -1.0368164e-17 -2.9445664)
(389.99057 1.7100944e-17 -2.548482)
(388.30727 2.8514103e-17 -3.7749858)
(386.41857 -1.1978195e-17 -3.8679126)
(384.04145 -6.9564392e-17 -5.0651922)
(381.1982 0 -5.6700585)
(377.76065 0 -6.977443)
(373.61474 9.2052395e-17 -8.0693244)
(368.68439 9.5246596e-17 -9.5756105)
(362.83868 -2.6891431e-16 -11.014558)
(356.0604 0 -12.57239)
(348.35596 -2.2066123e-17 -13.901727)
(339.92916 1.7518373e-17 -14.877717)
(331.08823 2.3541549e-16 -15.19933)
(322.22911 -2.4180931e-17 -14.757752)
(313.68105 -2.8727859e-16 -13.540011)
(305.67296 -2.4480348e-16 -11.726384)
(298.33855 0 -9.5774275)
(291.781 0 -7.3807447)
(286.06059 4.4169821e-16 -5.3676138)
(281.20393 2.2445287e-17 -3.6342618)
(277.18957 0 -2.2425664)
(273.9015 4.4131736e-16 -1.175663)
(271.24573 6.0200206e-16 -0.38727175)
(269.1082 4.0405835e-16 0.16288043)
(267.39326 2.0900619e-17 0.52512797)
(266.01432 5.1725473e-16 0.73747993)
(264.89718 7.1213311e-16 0.833749)
(263.97925 3.3585334e-17 0.8310003)
(263.25284 -1.2253238e-17 0.77178248)
(262.70077 1.1656197e-15 0.66333537)
(262.20996 4.2031969e-16 0.49964162)
(261.60668 -1.2661484e-15 0.29026613)
(261.03228 -2.7688917e-20 0.085995941)
(260.63858 1.0709967e-17 -0.11421186)
(260.48553 -2.6045239e-16 -0.47345765)
(254.11696 -3.78892e-17 -1.4753694)
(297.10772 1.3371335e-17 -0.92991158)
(324.66426 2.6925875e-18 -1.3190483)
(348.01725 0 -1.5219112)
(369.00946 0 -1.8214288)
(387.32097 -6.6579357e-18 -2.1699136)
(394.32708 -1.6704577e-17 -2.8451251)
(395.45632 -4.6969887e-18 -2.2779653)
(394.11492 -1.9146494e-20 -3.3134843)
(394.59067 0 -2.3544777)
(393.40261 5.7322792e-21 -3.7626734)
(393.32923 3.6143415e-17 -2.7157931)
(392.16767 2.2622575e-17 -4.2101987)
(391.54948 -2.5053273e-17 -3.3878483)
(390.21709 -1.0444553e-19 -4.7856418)
(388.99465 0 -4.3871967)
(387.24863 0 -5.657512)
(385.28288 -4.8691135e-17 -5.7716425)
(382.8168 4.0336161e-17 -7.0069986)
(379.86407 0 -7.6477329)
(376.29966 0 -8.9916023)
(372.00207 -9.3109382e-17 -10.122)
(366.89912 1.9684993e-17 -11.654397)
(360.86195 2.5876611e-16 -13.107712)
(353.88694 4.4620591e-19 -14.646124)
(346.00734 -1.0852899e-17 -15.912085)
(337.46613 0 -16.764895)
(328.60779 -2.3741764e-16 -16.91308)
(319.84555 2.4594361e-17 -16.268325)
(311.50401 -1.9177517e-17 -14.845763)
(303.78795 -5.1604132e-16 -12.842371)
(296.79258 1.2135815e-17 -10.522223)
(290.57532 -1.9411635e-17 -8.1697531)
(285.15703 -4.9290298e-16 -6.0153789)
(280.54607 2.2650619e-17 -4.1545608)
(276.72204 0 -2.6528294)
(273.57422 0 -1.4954584)
(271.01817 5.8570666e-16 -0.63445255)
(268.95048 -1.3618342e-15 -0.027136702)
(267.28447 6.8387527e-16 0.37987545)
(265.93809 1.0363171e-15 0.62646062)
(264.84123 -2.2932523e-17 0.74867611)
(263.93709 0 0.76706338)
(263.2236 8.0755044e-16 0.72625474)
(262.68434 -1.7775193e-17 0.6296048)
(262.1879 8.4807904e-16 0.46753444)
(261.55949 -9.7055808e-18 0.25973436)
(260.98001 0 0.064966265)
(260.61661 -5.2716966e-18 -0.12095424)
(260.48708 5.1329372e-16 -0.45124123)
(253.63007 -4.1061934e-17 -2.6215664)
(296.89541 2.7274925e-17 -2.2183622)
(324.67023 0 -2.7432999)
(348.21888 0 -3.057687)
(369.31458 4.0125191e-18 -3.46986)
(387.52442 6.7497884e-18 -3.9009717)
(393.66186 1.1333612e-17 -4.6134124)
(394.67646 0 -4.0051854)
(393.29578 1.5885728e-17 -5.1098814)
(393.77474 0 -4.090794)
(392.54722 -1.1011988e-17 -5.5788736)
(392.4614 -1.8338015e-17 -4.4801934)
(391.25832 -1.530733e-17 -6.0448329)
(390.60838 0 -5.1946677)
(389.22697 4.2668715e-17 -6.6467537)
(387.95033 0 -6.2479174)
(386.13854 0 -7.560045)
(384.09175 4.9301812e-17 -7.6966161)
(381.53222 7.2325856e-17 -8.9678794)
(378.46424 -7.7737375e-17 -9.6447218)
(374.7656 1.4346873e-16 -11.022863)
(370.30778 -1.1765182e-17 -12.189742)
(365.02284 0 -13.743264)
(358.78532 -1.3102848e-16 -15.20346)
(351.60749 0 -16.710036)
(343.55341 1.8141557e-16 -17.895159)
(334.90703 -2.9862237e-16 -18.604436)
(326.0469 0 -18.560342)
(317.398 -3.9637172e-16 -17.698724)
(309.27466 -3.1872364e-16 -16.064528)
(301.85475 1.0115926e-15 -13.871742)
(295.19703 -4.0009726e-16 -11.387435)
(289.31818 0 -8.8913343)
(284.20303 -1.5926241e-18 -6.6100849)
(279.84232 7.3808922e-16 -4.6353882)
(276.21553 -1.7545387e-17 -3.0349216)
(273.21542 1.3067061e-17 -1.7958339)
(270.7659 -1.2548955e-15 -0.8685707)
(268.77395 9.2988281e-16 -0.20852214)
(267.16152 -2.1461422e-17 0.24019933)
(265.85122 1.6018448e-17 0.51892558)
(264.77736 7.5817655e-16 0.6657461)
(263.88917 -1.6721459e-17 0.70456041)
(263.19078 2.4529788e-17 0.68172552)
(262.66439 -5.8605909e-16 0.59604827)
(262.15728 -8.2904117e-16 0.43471088)
(261.50007 6.069285e-16 0.22924484)
(260.93388 0 0.044715373)
(260.59821 6.6331742e-16 -0.12651742)
(260.48809 -4.9806042e-16 -0.42848081)
(253.15985 2.4569852e-18 -3.7142223)
(296.69766 0 -3.5571941)
(324.68769 0 -4.1910259)
(348.43265 3.8127152e-17 -4.6211153)
(369.6316 -8.1336664e-18 -5.1544622)
(387.66511 -2.7511883e-17 -5.6585456)
(392.92159 -2.8870827e-17 -6.4036476)
(393.86082 1.9306427e-17 -5.7526382)
(392.4414 2.4309506e-17 -6.9273686)
(392.92146 -4.032867e-17 -5.8470255)
(391.65388 0 -7.4156268)
(391.55344 1.8746981e-17 -6.2661855)
(390.30764 -4.6896496e-17 -7.8997779)
(389.62351 -1.3053677e-17 -7.0234771)
(388.19118 -1.0840673e-17 -8.5278473)
(386.8572 0 -8.1306851)
(384.97653 -6.0584661e-17 -9.4824189)
(382.84462 0 -9.6426677)
(380.18678 5.6188923e-19 -10.947707)
(376.99713 6.9726702e-17 -11.661088)
(373.15613 1.5628469e-17 -13.071257)
(368.52902 -1.1984896e-17 -14.272194)
(363.05236 0 -15.841219)
(356.60577 0 -17.299721)
(349.2201 0 -18.760576)
(340.99451 -1.8295142e-16 -19.845969)
(332.25519 3.2024886e-16 -20.390802)
(323.41175 -2.6384707e-16 -20.136239)
(314.89502 3.9933704e-16 -19.045693)
(307.00359 3.2104716e-16 -17.194938)
(299.88579 -1.0421719e-15 -14.814522)
(293.56544 4.4077293e-16 -12.173529)
(288.02272 -3.9300322e-17 -9.5455691)
(283.20992 5.0033752e-16 -7.151133)
(279.10152 1.8754773e-18 -5.0756097)
(275.67647 1.1089701e-15 -3.3874905)
(272.82952 -8.3278661e-16 -2.0754834)
(270.49195 -5.9801727e-19 -1.0884937)
(268.58059 9.3331863e-16 -0.38035799)
(267.02566 -2.1500115e-17 0.10679326)
(265.75454 -1.9970758e-15 0.41539198)
(264.70608 -7.575144e-16 0.58534693)
(263.83604 1.1033258e-15 0.64379157)
(263.15506 -7.898599e-16 0.63835874)
(262.6404 1.1308004e-15 0.56264568)
(262.11498 0 0.40128707)
(261.43167 -1.2023995e-15 0.19929102)
(260.89198 -1.3793079e-17 0.025823367)
(260.58218 -6.4197295e-16 -0.13106254)
(260.48895 4.9095026e-16 -0.40523253)
(252.70154 1.6062381e-16 -4.842952)
(296.51405 -3.5267866e-18 -4.904971)
(324.71456 -9.1661838e-17 -5.663775)
(348.65537 4.8391628e-18 -6.2097953)
(369.96029 3.3266478e-17 -6.8708934)
(387.74019 2.8025133e-17 -7.4369362)
(392.09686 -2.3497487e-17 -8.2114141)
(393.00911 0 -7.5187038)
(391.55117 0 -8.7662774)
(392.03004 -3.8836851e-20 -7.6239201)
(390.72183 2.2822401e-17 -9.2731586)
(390.60483 1.9088858e-17 -8.0739376)
(389.31541 3.1712121e-17 -9.7747399)
(388.59472 -1.328772e-17 -8.8741762)
(387.10947 -3.3324915e-17 -10.428751)
(385.7149 0 -10.035437)
(383.76214 6.1311412e-17 -11.42439)
(381.54078 0 -11.609686)
(378.77915 -1.0178272e-17 -12.94658)
(375.46064 8.0366155e-17 -13.697016)
(371.46853 -2.3753694e-16 -15.136778)
(366.66269 0 -16.368814)
(360.98446 -2.0860391e-17 -17.946988)
(354.32036 1.6812834e-17 -19.393967)
(346.72333 -2.1364985e-16 -20.793598)
(338.33191 -1.1485781e-17 -21.758974)
(329.51503 -1.958318e-17 -22.118117)
(320.70942 5.3508473e-16 -21.635823)
(312.34561 4.2325653e-16 -20.306073)
(304.70116 -4.0828115e-17 -18.235787)
(297.89248 5.5070788e-16 -15.67096)
(291.9098 -1.262864e-17 -12.881324)
(286.70053 6.3803133e-16 -10.133057)
(282.18782 -9.8281591e-16 -7.6385251)
(278.33172 -7.4787037e-16 -5.4746556)
(275.11088 -1.113894e-15 -3.709642)
(272.42083 8.0922583e-16 -2.3334407)
(270.19926 6.7171316e-16 -1.2933276)
(268.37238 1.540329e-17 -0.54188229)
(266.87821 -1.3974665e-15 -0.019746147)
(265.64885 2.0133831e-15 0.31631804)
(264.62793 -2.2963439e-17 0.5078421)
(263.77823 1.6905734e-17 0.58504784)
(263.11703 0 0.59628409)
(262.61159 -1.1419596e-15 0.52934747)
(262.05774 1.275029e-17 0.36769606)
(261.35803 1.2087166e-15 0.17025933)
(260.85185 -1.359234e-17 0.0087264009)
(260.56752 0 -0.13463703)
(260.48995 -4.8027103e-16 -0.38155508)
(252.25229 0 -5.9888549)
(296.34621 -1.1204768e-16 -6.2646493)
(324.75231 9.345473e-17 -7.1551261)
(348.88639 -8.4268866e-17 -7.8199746)
(370.30197 7.2076802e-17 -8.6169222)
(387.74062 -4.9853861e-17 -9.2363865)
(391.17943 8.3778659e-17 -10.039426)
(392.11988 1.011799e-17 -9.3057771)
(390.62406 -3.3433169e-17 -10.629232)
(391.09997 -4.1775099e-17 -9.4230168)
(389.75109 4.6541719e-17 -11.151128)
(389.61582 -3.8751937e-17 -9.9028424)
(388.28187 0 -11.669123)
(387.52194 2.7039433e-17 -10.746798)
(385.98153 4.4872665e-17 -12.349451)
(384.52297 0 -11.962149)
(382.49478 0 -13.385792)
(380.17916 0 -13.597729)
(377.30746 2.255845e-17 -14.964791)
(373.85218 -1.7413349e-17 -15.752769)
(369.69968 1.2047007e-16 -17.219325)
(364.70538 0 -18.478855)
(358.81558 1.6855069e-16 -20.058988)
(351.92612 -1.769782e-17 -21.483203)
(344.11606 1.161096e-17 -22.804338)
(335.56753 3.8425287e-16 -23.628082)
(326.69172 -1.9940902e-17 -23.780212)
(317.94762 -2.3922065e-16 -23.054123)
(309.75901 -2.2266186e-17 -21.476857)
(302.37746 -6.2595897e-16 -19.186081)
(295.88547 -1.6257429e-17 -16.441551)
(290.24104 -8.5610985e-16 -13.511977)
(285.36216 -6.2178331e-16 -10.654863)
(281.14605 9.8800131e-16 -8.0728031)
(277.54054 -7.3167038e-16 -5.8324796)
(274.52456 1.6189507e-19 -4.0009241)
(271.9936 -4.0034607e-17 -2.5690778)
(269.89084 3.9645563e-17 -1.4824233)
(268.15138 -9.2256789e-16 -0.69250125)
(266.72053 1.3338444e-15 -0.1389296)
(265.53504 -9.9074066e-16 0.22209289)
(264.54348 0 0.43356283)
(263.71633 2.6580004e-19 0.5286064)
(263.07709 0 0.55556645)
(262.57688 0 0.49598891)
(261.98264 0 0.33455281)
(261.28106 0 0.14268038)
(260.8127 1.3434519e-17 -0.0063150715)
(260.554 7.4101674e-21 -0.13724183)
(260.49132 -7.2837313e-18 -0.35748346)
(251.81027 0 -7.156029)
(296.18961 -1.178275e-16 -7.6503161)
(324.80086 1.9061026e-16 -8.6771107)
(349.12468 6.9239144e-20 -9.4601656)
(370.6571 -7.7746255e-17 -10.399323)
(387.65795 -5.7858104e-17 -11.064755)
(390.21934 6.0835574e-17 -11.894042)
(391.19262 -2.0358463e-17 -11.11116)
(389.66078 -3.4098386e-17 -12.512025)
(390.13237 2.8274945e-17 -11.241817)
(388.74277 -2.3604414e-17 -13.047652)
(388.58689 3.9412887e-17 -11.7525)
(387.20692 -1.6410307e-17 -13.582997)
(386.40471 1.5370521e-19 -12.641829)
(384.80687 2.2987717e-17 -14.289962)
(383.28093 1.8392531e-19 -13.910751)
(381.17362 -1.5837905e-17 -15.366614)
(378.75818 0 -15.607211)
(375.76925 2.2991387e-17 -17.002911)
(372.16865 -9.1907066e-17 -17.828628)
(367.84614 -1.0816385e-16 -19.318659)
(362.65339 -1.2659029e-17 -20.601327)
(356.54198 -1.7003504e-16 -22.175255)
(349.42014 0 -23.563853)
(341.39767 4.7122617e-16 -24.787376)
(332.70412 -3.8703185e-16 -25.446684)
(323.7913 0 -25.370725)
(315.13466 0 -24.38629)
(307.14467 -4.1941016e-16 -22.555321)
(300.04231 1.3488264e-15 -20.045144)
(293.8747 1.6832566e-17 -17.127092)
(288.56906 7.9553224e-16 -14.066972)
(284.01702 2.0121756e-17 -11.112442)
(280.09297 1.5672229e-17 -8.4549507)
(276.73492 7.7064511e-16 -6.1494683)
(273.92298 -1.7813959e-17 -4.2612617)
(271.55191 0 -2.7820668)
(269.56964 -1.9943543e-17 -1.6553565)
(267.91962 1.4637684e-17 -0.83178298)
(266.554 0 -0.25037272)
(265.41401 3.1487787e-17 0.13303657)
(264.45337 -1.486649e-15 0.36280191)
(263.6509 -2.1226546e-15 0.47471631)
(263.03521 1.5124286e-15 0.51619022)
(262.53468 1.1284961e-15 0.46222172)
(261.88778 0 0.30256201)
(261.20244 1.8231901e-17 0.11715631)
(260.77436 -8.6134544e-16 -0.019162175)
(260.54167 -1.239695e-15 -0.13885784)
(260.49336 -9.0546741e-16 -0.33306371)
(251.37578 0 -8.3362138)
(296.04231 -3.7580273e-18 -9.0474024)
(324.85989 1.0325772e-16 -10.21766)
(349.37086 -8.2357547e-17 -11.119774)
(371.02121 8.7719198e-18 -12.210539)
(387.48938 5.1456211e-17 -12.91308)
(389.29304 -4.9516223e-17 -13.76892)
(390.23135 -5.0475088e-20 -12.92931)
(388.66344 0 -14.410936)
(389.12837 -2.8850869e-17 -13.079724)
(387.6969 2.4018572e-17 -14.964042)
(387.51741 2.0093168e-17 -13.624432)
(386.08975 -5.0257579e-17 -15.517239)
(385.24241 -5.5820679e-17 -14.559464)
(383.58509 -4.6719189e-17 -16.250001)
(381.98817 0 -15.881134)
(379.79728 0 -17.367198)
(377.27554 -1.0854791e-16 -17.638773)
(374.16149 -1.1261154e-16 -19.061495)
(370.40667 -3.7388393e-19 -19.924655)
(365.90424 1.5626725e-16 -21.43427)
(360.50277 -1.2889166e-17 -22.734914)
(354.15973 -2.2088332e-17 -24.293322)
(346.79964 -2.7337891e-16 -25.63162)
(338.56818 -2.3868586e-16 -26.73655)
(329.74536 3.9894442e-16 -27.207687)
(320.82067 -3.2746132e-16 -26.883177)
(312.27945 1.6800482e-17 -25.627672)
(304.51223 -4.7038102e-16 -23.539096)
(297.70531 -6.6020234e-16 -20.812675)
(291.86948 0 -17.72872)
(286.90284 0 -14.548117)
(282.67357 -6.5724203e-16 -11.507604)
(279.03614 0 -8.7863333)
(275.9212 -7.6567367e-16 -6.4263854)
(273.3112 -1.1531505e-15 -4.4909166)
(271.09965 -2.6970707e-17 -2.972357)
(269.23849 -1.2778253e-15 -1.8119161)
(267.67912 1.4663463e-17 -0.95945354)
(266.38002 -1.3793456e-15 -0.35379747)
(265.2867 -1.0057164e-15 0.049398782)
(264.35832 1.4375559e-15 0.29580354)
(263.58256 1.0576337e-15 0.42356273)
(262.99089 -3.0699151e-15 0.47806186)
(262.48256 1.7502934e-17 0.42773761)
(261.77407 0 0.27226351)
(261.12355 -1.8038021e-17 0.094368883)
(260.73693 1.6995269e-15 -0.029752179)
(260.53066 2.4375511e-15 -0.13947851)
(260.49631 8.8623209e-16 -0.30835261)
(250.96233 5.412155e-18 -9.5357028)
(295.91443 -1.7850145e-20 -10.46669)
(324.94033 -1.0513585e-16 -11.787228)
(349.63276 5.1780899e-18 -12.80809)
(371.39023 7.1468123e-17 -14.056757)
(387.23514 0 -14.785936)
(388.3097 -5.045629e-17 -15.675618)
(389.23549 4.1996785e-17 -14.770868)
(387.63066 0 -16.331563)
(388.08593 -4.4021772e-17 -14.940353)
(386.61188 2.4421324e-17 -16.902126)
(386.40621 -4.0870139e-17 -15.519823)
(384.92984 6.7889373e-17 -17.471561)
(384.03483 2.8303742e-17 -16.49934)
(382.31585 1.1854882e-16 -18.229238)
(380.64356 -1.9655733e-17 -17.873774)
(378.36361 0 -19.388436)
(375.72827 2.2012805e-16 -19.693348)
(372.48079 0 -21.141089)
(368.56261 1.9341001e-17 -22.040759)
(363.87006 -1.5776099e-17 -23.565477)
(358.24928 0 -24.878053)
(351.66479 2.251027e-17 -26.410258)
(344.06214 5.7192085e-16 -27.681491)
(335.62837 2.4610721e-16 -28.644997)
(326.69588 -4.0153949e-16 -28.903613)
(317.78759 3.2950486e-16 -28.311117)
(309.39139 0 -26.773941)
(301.87141 8.6950381e-16 -24.426262)
(295.37574 6.9649225e-16 -21.488796)
(289.87848 0 -18.247912)
(285.25052 -8.5803544e-16 -14.957507)
(281.33935 -2.9326685e-18 -11.842443)
(277.98227 1.0314737e-15 -9.0686217)
(275.10511 1.5027422e-15 -6.6643018)
(272.69391 1.1925997e-15 -4.6904343)
(270.64045 -4.0513335e-17 -3.1401391)
(268.90012 1.2792606e-15 -1.9520814)
(267.43185 1.4683869e-17 -1.0753851)
(266.19994 1.4001738e-15 -0.44902839)
(265.15402 9.8847037e-16 -0.0286362)
(264.25911 0 0.23276002)
(263.51206 0 0.37522398)
(262.94333 1.5210288e-15 0.4410091)
(262.41692 -2.1930606e-15 0.39200412)
(261.64787 1.6064083e-15 0.24360377)
(261.0444 -1.1414258e-15 0.075062507)
(260.70021 -8.3821659e-16 -0.037998927)
(260.52137 -1.1982024e-15 -0.13916899)
(260.50067 0 -0.28342978)
(250.55695 -5.5268336e-18 -10.757662)
(295.79298 1.2426957e-16 -11.911669)
(325.03404 1.0078588e-16 -13.391984)
(349.90523 -5.243568e-18 -14.535201)
(371.75056 9.5099438e-20 -15.951922)
(386.88766 -6.8060896e-17 -16.678623)
(387.28847 5.1291502e-17 -17.604458)
(388.20211 -5.3511135e-17 -16.638192)
(386.56039 -3.5845037e-17 -18.27572)
(387.00373 1.4771375e-17 -16.823446)
(385.48716 4.9649547e-17 -18.860588)
(385.25341 -4.1556443e-17 -17.437558)
(383.72749 6.9230752e-17 -19.44496)
(382.78188 1.9020771e-19 -18.461109)
(380.99815 -2.404104e-17 -20.22809)
(379.24499 -2.0202173e-17 -19.889783)
(376.86958 1.6667862e-17 -21.431516)
(374.11294 -9.7456893e-17 -21.77171)
(370.72358 -1.0538566e-16 -23.241926)
(366.6327 0 -24.176553)
(361.73941 1.306951e-16 -25.71134)
(355.88835 0 -27.028827)
(349.05304 1.8171729e-16 -28.522548)
(341.20564 -2.9879383e-16 -29.707687)
(332.57994 -4.984843e-16 -30.505154)
(323.5614 4.139299e-16 -30.526672)
(314.7007 2.1385045e-17 -29.648225)
(306.48038 -5.6804753e-16 -27.821199)
(299.23196 -9.1053579e-16 -25.215422)
(293.06254 -6.7858041e-16 -22.074093)
(287.90975 0 -18.686503)
(283.61945 -4.7041088e-18 -15.297523)
(280.02108 6.870747e-16 -12.119322)
(276.93733 -1.0352741e-15 -9.3037561)
(274.29177 -7.7288262e-16 -6.8645534)
(272.07534 0 -4.8606071)
(270.17771 0 -3.2858189)
(268.55711 1.2633156e-15 -2.0760065)
(267.17968 1.4698793e-17 -1.1795844)
(266.01508 -1.3574671e-15 -0.53598772)
(265.01689 -1.5642836e-17 -0.10094215)
(264.15657 1.4536173e-15 0.17381832)
(263.44031 -1.6415143e-17 0.32964179)
(262.89174 1.5249158e-15 0.4046906)
(262.33362 1.0716579e-15 0.35581531)
(261.51903 -1.55483e-15 0.21598323)
(260.96522 1.1462279e-15 0.059559381)
(260.66396 -1.6411321e-15 -0.043689294)
(260.51442 -1.1780249e-15 -0.13792212)
(260.50783 0 -0.25846421)
(250.15111 -1.7897152e-16 -12.001624)
(295.67618 3.9446773e-18 -13.367665)
(325.1397 9.6188536e-17 -15.021897)
(350.18715 -8.6942277e-17 -16.290096)
(372.08866 -9.2547725e-18 -17.881187)
(386.39931 7.6607847e-18 -18.583398)
(386.22377 0 -19.552815)
(387.13136 2.1677478e-17 -18.52655)
(385.4534 0 -20.24285)
(385.88294 -3.0183793e-17 -18.72807)
(384.32377 0 -20.837831)
(384.0597 4.2247932e-17 -19.376647)
(382.48274 -3.5076317e-17 -21.4373)
(381.48255 -5.8516368e-17 -20.445519)
(379.62982 2.4536465e-17 -22.247952)
(377.78934 -6.172486e-17 -21.930702)
(375.31168 0 -23.49756)
(372.42612 2.8694736e-17 -23.874285)
(368.88628 -3.5927794e-19 -25.363972)
(364.61292 -3.9666526e-17 -26.33144)
(359.50766 -1.1543193e-16 -27.870667)
(353.41509 0 -29.184856)
(346.32038 -1.8301724e-16 -30.625901)
(338.22878 2.8865556e-16 -31.703546)
(329.4257 2.8400863e-16 -32.308815)
(320.34876 -4.2918e-16 -32.068885)
(311.56943 -3.6689151e-16 -30.888449)
(303.55665 5.7137912e-16 -28.766084)
(296.60356 1.3738669e-15 -25.905752)
(290.77424 -4.4434008e-17 -22.569631)
(285.97075 1.1420762e-15 -19.046683)
(282.01627 8.7073522e-16 -15.570816)
(278.72467 2.1124586e-17 -12.340832)
(275.90654 1.0300055e-15 -9.4938927)
(273.48571 -1.5703649e-15 -7.0286871)
(271.45934 1.1687638e-15 -5.0024276)
(269.71452 1.7124515e-15 -3.4099862)
(268.21185 -2.5495289e-15 -2.1839995)
(266.92436 -2.9527006e-17 -1.2721775)
(265.82667 2.0606377e-17 -0.61468581)
(264.87619 0 -0.16744087)
(264.05161 -1.4486631e-15 0.11909566)
(263.36828 -2.0907116e-15 0.28664074)
(262.83576 -1.5041229e-15 0.36855176)
(262.22959 0 0.32045816)