/*--------------------------------*- C++ -*----------------------------------*\
  =========                 |
  \\      /  F ield         | OpenFOAM: The Open Source CFD Toolbox
   \\    /   O peration     | Website:  https://openfoam.org
    \\  /    A nd           | Version:  8
     \\/     M anipulation  |
\*---------------------------------------------------------------------------*/
FoamFile
{
    version     2.0;
    format      ascii;
    class       volVectorField;
    location    "0.280002";
    object      wallShearStress;
}
// * * * * * * * * * * * * * * * * * * * * * * * * * * * * * * * * * * * * * //

dimensions      [1 -1 -2 0 0 0 0];

internalField   uniform (0 0 0);

boundaryField
{
    aerofoil
    {
        type            calculated;
        value           nonuniform List<vector> 
300
(
(-160.34658 1.509489e-19 -5.2422877)
(-161.1323 -1.638205e-19 -4.6382636)
(-161.07848 -8.591792e-17 -4.0119108)
(-161.07604 -3.6111186e-34 -3.3595008)
(-161.0832 9.0618641e-17 -2.6029021)
(-161.13106 -7.1831931e-19 -1.8889611)
(-161.18222 5.1279539e-20 -1.1511003)
(-161.25924 2.407244e-17 -0.39393064)
(-161.36258 2.6119566e-17 0.34660589)
(-161.50022 -1.5670199e-18 1.0421342)
(-161.65007 -1.0258912e-16 1.7686698)
(-161.81125 -9.7777472e-20 2.5126501)
(-161.99031 -2.4482555e-21 3.2740241)
(-162.17405 1.4962314e-19 4.0495268)
(-162.38223 -3.4979077e-18 4.8431758)
(-162.60904 3.3822654e-18 5.65584)
(-162.83672 1.1620429e-16 6.4903958)
(-163.07415 -2.750566e-22 7.3494978)
(-163.31074 -2.4233134e-16 8.2250593)
(-163.56222 -2.514141e-16 9.1218772)
(-163.8254 5.0897053e-16 10.041531)
(-164.0963 -2.57523e-16 10.983422)
(-164.38227 3.9368962e-20 11.950232)
(-164.65593 5.3598581e-16 12.936826)
(-164.94348 -4.3818862e-21 13.953836)
(-165.22593 -2.7878224e-16 14.996142)
(-165.52382 -2.9304137e-16 16.068214)
(-165.8363 -1.9235369e-19 17.174152)
(-166.1375 9.2245616e-18 18.309253)
(-166.44194 -1.1589644e-21 19.482614)
(-166.73984 -1.3596371e-20 20.695995)
(-167.01817 3.127714e-16 21.948749)
(-167.25479 9.9972939e-18 23.238299)
(-167.45769 -3.2495916e-16 24.572132)
(-167.65036 -1.0336849e-17 25.962858)
(-167.84592 -6.6488432e-16 27.415483)
(-168.05198 3.3376665e-16 28.932012)
(-168.28376 -3.5128446e-16 30.521562)
(-168.54882 -9.456746e-19 32.194422)
(-168.85182 3.6641438e-16 33.959666)
(-169.21615 -3.8551185e-16 35.827849)
(-169.63358 3.9184172e-16 37.81035)
(-170.05997 -1.4870616e-17 39.917195)
(-170.48242 4.0787644e-16 42.151618)
(-170.82315 -4.2856262e-19 44.497908)
(-171.08034 -4.091257e-16 46.984901)
(-171.18243 -4.6585097e-18 49.624246)
(-171.18154 -2.708523e-18 52.45019)
(-171.0268 -1.6828157e-17 55.459645)
(-170.71315 4.4576929e-16 58.639397)
(-170.20993 1.4099967e-17 62.000368)
(-169.37434 4.6316063e-16 65.537914)
(-168.05452 5.1471368e-18 69.248499)
(-166.1262 -4.6660582e-16 73.145687)
(-163.4522 4.8049211e-16 77.244047)
(-159.92756 2.1514505e-19 81.633695)
(-155.51773 5.0353165e-16 86.446935)
(-150.33654 5.1673219e-16 91.835768)
(-144.30825 -1.6393107e-17 97.662157)
(-137.9424 -1.8507539e-18 104.0283)
(-132.54333 5.7874378e-16 110.90421)
(-128.61178 5.3932047e-16 118.1531)
(-124.99957 1.7641984e-17 125.28178)
(-120.51932 -1.7294109e-17 131.79985)
(-114.36189 1.1962587e-15 137.11217)
(-106.22487 -6.1446133e-16 140.60621)
(-96.223976 0 141.90158)
(-84.049341 -3.0814879e-33 140.03836)
(-70.028628 3.1425349e-16 134.21322)
(-54.986514 8.9440904e-18 124.0497)
(-39.854764 3.3572091e-16 109.12202)
(-25.789208 -3.4123992e-16 89.801903)
(-14.50495 -1.6390929e-16 67.399412)
(-7.3096046 1.3594988e-18 43.37295)
(-3.2509739 3.5788942e-17 21.383106)
(-146.47182 9.4162495e-16 -24.339399)
(-140.04943 -1.0494538e-15 -25.223205)
(-141.88754 1.0489767e-15 -25.432508)
(-144.17987 2.0932418e-15 -25.586967)
(-145.26901 -1.0487434e-15 -25.531086)
(-145.77434 1.0433286e-15 -25.37269)
(-145.83129 2.0754847e-15 -25.138868)
(-145.65914 -2.0638167e-15 -24.873089)
(-145.2558 1.026113e-15 -24.57483)
(-144.69638 2.0400618e-15 -24.25816)
(-143.99753 1.0148139e-15 -23.923958)
(-143.18317 1.0080115e-15 -23.573952)
(-142.26626 9.536712e-22 -23.213377)
(-141.27262 -5.9832947e-19 -22.846404)
(-140.21176 -9.4686455e-22 -22.472514)
(-139.09244 -4.4449012e-21 -22.095915)
(-137.92223 -9.7858393e-16 -21.717627)
(-136.71096 9.2144416e-20 -21.335846)
(-135.45864 9.6684777e-16 -20.95146)
(-134.17189 -9.0648374e-20 -20.567289)
(-132.84603 -9.5485311e-16 -20.18336)
(-131.50047 -9.4883057e-16 -19.799052)
(-130.14579 -1.659677e-25 -19.418835)
(-128.75507 -3.6649031e-19 -19.037419)
(-127.31101 -9.2993664e-16 -18.655414)
(-125.88597 -1.4255122e-21 -18.277694)
(-124.49714 -2.7014876e-26 -17.908496)
(-123.11661 3.3147498e-26 -17.543102)
(-121.73209 -9.044061e-16 -17.181216)
(-120.3495 8.9802724e-16 -16.821795)
(-118.96119 -8.9165059e-16 -16.464875)
(-117.57451 -8.8506155e-16 -16.112208)
(-116.18785 -2.9901253e-24 -15.760626)
(-114.78915 4.0247391e-19 -15.409837)
(-113.3671 -8.6455783e-16 -15.058733)
(-111.91708 -8.5779874e-16 -14.706892)
(-110.43345 1.7018231e-15 -14.352855)
(-108.91317 -8.483445e-26 -13.996217)
(-107.34546 9.3894442e-26 -13.635147)
(-105.71976 3.3685583e-19 -13.269062)
(-104.01158 5.4686442e-20 -12.894433)
(-102.18435 8.1539511e-16 -12.5085)
(-100.18281 -1.5064349e-19 -12.107816)
(-97.987815 7.9993739e-16 -11.693344)
(-95.635417 2.0033714e-19 -11.268473)
(-93.241513 -1.5654034e-15 -10.844345)
(-90.947229 -1.3306834e-19 -10.430601)
(-88.816328 -6.1049747e-20 -10.02686)
(-86.625605 -6.7277626e-20 -9.6091956)
(-83.716368 -9.9539138e-20 -9.1329492)
(-79.586715 1.4648711e-15 -8.5418923)
(-74.151741 -2.8022232e-20 -7.8407128)
(-66.981691 -4.6385055e-20 -7.0265385)
(-58.485819 -6.6594235e-16 -6.1122021)
(-49.957365 2.416402e-21 -5.1826849)
(-42.325395 -2.9930647e-16 -4.3740568)
(-37.676802 -1.6450539e-20 -3.8231081)
(-41.992861 1.68313e-20 -4.0693182)
(-61.229809 5.9668191e-20 -5.3892569)
(-90.417569 -3.1419126e-16 -7.6138765)
(-120.11877 -2.3129548e-19 -9.78565)
(-141.76052 3.1479679e-16 -11.275688)
(-153.53441 -3.1316486e-16 -11.852286)
(-158.74205 -3.1053993e-16 -11.865972)
(-161.0163 3.0926329e-16 -11.588414)
(-161.94781 -1.11012e-19 -11.17698)
(-162.29955 -7.3190821e-20 -10.703316)
(-162.45678 -8.7643717e-20 -10.19272)
(-162.54931 3.7821639e-24 -9.6613565)
(-162.55796 -9.3225507e-21 -9.1037088)
(-162.46193 9.3086798e-21 -8.5180211)
(-162.31257 2.5818548e-20 -7.9089902)
(-162.15059 -1.524403e-16 -7.2780612)
(-161.98706 -1.0543939e-20 -6.6298957)
(-160.70213 -3.0497695e-16 -5.9140157)
(-131.12354 6.356285e-23 -5.2531597)
(-132.56147 -5.3841684e-23 -5.8322267)
(-134.94952 -2.24479e-16 -6.4872157)
(-137.19138 -8.9886796e-19 -7.1601329)
(-139.43286 9.8303852e-19 -7.8610925)
(-141.60003 -4.8641738e-16 -8.5863581)
(-143.70116 3.5295121e-20 -9.3369232)
(-145.73186 2.0261041e-18 -10.11077)
(-147.70882 -2.6057144e-16 -10.909934)
(-149.63487 5.4350937e-22 -11.736063)
(-151.5203 2.300987e-18 -12.591481)
(-153.3816 -4.4224853e-18 -13.472041)
(-155.20111 -2.7902783e-16 -14.382915)
(-156.94884 2.9189204e-16 -15.315657)
(-158.63552 -2.9832195e-16 -16.275548)
(-160.23833 2.9988133e-16 -17.261893)
(-161.74323 3.1607856e-16 -18.270374)
(-163.16375 3.129149e-16 -19.305986)
(-164.49643 5.0889464e-18 -20.365773)
(-165.76044 3.3133241e-16 -21.455244)
(-166.96326 3.3295293e-16 -22.576468)
(-168.11334 -3.4563748e-16 -23.730128)
(-169.22907 7.043712e-16 -24.922075)
(-170.31384 9.2280663e-20 -26.150257)
(-171.39394 -7.3395178e-16 -27.427164)
(-172.456 -3.7437677e-16 -28.745529)
(-173.49347 3.9377439e-16 -30.109292)
(-174.50716 1.7820371e-19 -31.523977)
(-175.48543 -4.0932922e-16 -32.987957)
(-176.42905 4.1712142e-16 -34.508092)
(-177.31283 3.9946093e-16 -36.08319)
(-178.10462 -4.0686978e-16 -37.707942)
(-178.81821 -4.5494304e-16 -39.38677)
(-179.46474 2.7261602e-17 -41.129591)
(-180.06846 -4.4433958e-16 -42.947756)
(-180.62741 4.3728389e-16 -44.848577)
(-181.15659 3.2693494e-20 -46.84341)
(-181.68846 4.7045275e-16 -48.941081)
(-182.14329 4.8041255e-16 -51.122647)
(-182.48539 -1.6865514e-17 -53.363065)
(-182.68575 4.975903e-16 -55.662699)
(-182.70809 -1.617551e-19 -58.028986)
(-182.50833 5.173746e-16 -60.458236)
(-182.04753 1.6275712e-17 -62.940662)
(-181.28355 -5.2994207e-16 -65.474204)
(-180.21962 -1.0765067e-15 -68.069133)
(-178.81931 -5.4259339e-16 -70.723044)
(-177.07197 -5.5626612e-16 -73.444455)
(-174.95819 -5.5972617e-16 -76.244522)
(-172.44717 5.7355529e-16 -79.104425)
(-169.53343 1.8306657e-17 -82.028981)
(-166.19877 5.9546342e-16 -85.008329)
(-162.42907 -6.2583897e-16 -88.018549)
(-158.24363 6.0118367e-16 -91.030571)
(-153.68451 5.2091947e-18 -93.9901)
(-148.83414 -6.35327e-16 -96.819277)
(-143.76549 -6.4631223e-16 -99.469888)
(-138.34955 6.6129701e-16 -101.86996)
(-132.36761 6.6571612e-16 -103.89583)
(-125.71375 -1.8335614e-17 -105.39411)
(-118.33235 2.1418721e-17 -106.25646)
(-110.16964 -7.0071184e-16 -106.316)
(-101.19873 -6.7930151e-16 -105.36358)
(-91.378081 -2.2006108e-17 -103.18096)
(-80.666608 7.1698697e-16 -99.584036)
(-69.217855 7.2614113e-16 -94.181778)
(-57.241041 1.540744e-33 -86.550241)
(-45.167976 1.087619e-15 -76.504161)
(-33.38595 3.3178494e-16 -63.828239)
(-21.618276 3.533932e-16 -48.575238)
(-11.80386 -1.2711138e-32 -31.536962)
(-5.5779238 2.73109e-16 -14.720693)
(-2.1437349 3.4227414e-18 -4.289011)
(-0.83245307 -3.1638213e-17 0.5849948)
(-1.5756425 5.932342e-22 8.107533)
(-0.33553441 3.0092655e-36 0.44389862)
(-3.2871816 -0 0.31011292)
(-3.4511014 -2.8230134e-16 0.3596004)
(-4.7663036 -0 0.48619568)
(-5.8683095 -3.9310031e-23 0.58850029)
(-7.2007362 -5.068952e-20 0.70684376)
(-8.5742112 -3.7107301e-16 0.82612935)
(-10.005698 3.2556397e-26 0.95078176)
(-11.451906 -9.6474585e-23 1.0724405)
(-12.919003 4.8188894e-20 1.1921361)
(-14.401016 8.6912337e-16 1.3088666)
(-15.890939 4.4766413e-16 1.4221529)
(-17.381631 -1.4015634e-25 1.5315641)
(-18.870846 -8.2667148e-20 1.6370894)
(-20.352483 8.2061434e-22 1.7378972)
(-21.818932 -5.3414269e-26 1.8338824)
(-23.273068 1.3348611e-19 1.9249814)
(-24.720368 5.0929978e-16 2.0113971)
(-26.165629 1.1645068e-25 2.0939808)
(-27.609218 -1.4313664e-19 2.1726735)
(-29.04903 -2.66579e-16 2.2475552)
(-30.487942 -2.7022974e-16 2.3183545)
(-31.924697 2.6127227e-22 2.3855789)
(-33.35865 1.6648374e-19 2.4486864)
(-34.785468 -5.6071277e-16 2.5079742)
(-36.20823 4.8148249e-35 2.5629194)
(-37.628411 -2.8649455e-16 2.6142368)
(-39.05647 5.7888073e-16 2.6614705)
(-40.495306 5.5847526e-22 2.7056561)
(-41.946354 7.5999923e-21 2.7462603)
(-43.402502 -1.7374273e-19 2.7831086)
(-44.868113 1.1467949e-21 2.8168967)
(-46.346868 -5.7946243e-22 2.8462088)
(-47.829401 3.0585484e-16 2.8712037)
(-49.317198 1.8166749e-19 2.8917111)
(-50.81502 3.1166797e-20 2.9080568)
(-52.328972 -1.9259299e-33 2.9198191)
(-53.861115 -6.3141613e-16 2.9271263)
(-55.410535 1.2116432e-21 2.9293565)
(-56.978081 4.6873814e-20 2.9268997)
(-58.568477 3.2289583e-16 2.9191416)
(-60.177067 -3.2521079e-16 2.9056564)
(-61.799127 3.2737714e-16 2.8859834)
(-63.433261 -1.259396e-21 2.8601172)
(-65.08429 1.352153e-19 2.8268826)
(-66.756072 -9.9993196e-20 2.786789)
(-68.460143 -4.1490201e-20 2.7391222)
(-70.19861 3.3856688e-16 2.6836039)
(-71.964649 3.4088473e-16 2.6199841)
(-73.750724 -3.4343993e-16 2.5478731)
(-75.550064 1.0688111e-19 2.4656861)
(-77.353493 -1.7431114e-16 2.3731269)
(-79.170643 -1.754465e-16 2.2717862)
(-81.021085 1.767278e-16 2.1594248)
(-82.908926 -3.5522647e-16 2.0341756)
(-84.836015 7.0716149e-21 1.8963481)
(-86.804514 -7.4786653e-20 1.7451085)
(-88.813071 2.0889347e-25 1.579443)
(-90.854396 7.9672368e-20 1.3986869)
(-92.919942 3.6474901e-16 1.2025694)
(-95.006271 -9.3357603e-20 0.98852619)
(-97.104928 9.2125325e-17 0.75762037)
(-99.222787 -5.0465289e-21 0.50887901)
(-101.3628 -9.2976573e-17 0.24625317)
(-103.5383 4.6777312e-17 -0.0352937)
(-105.75158 -3.8038861e-20 -0.3675633)
(-108.00422 1.1863706e-25 -0.72356653)
(-110.28633 -5.9449905e-18 -1.1048786)
(-112.6018 -1.1916024e-17 -1.5216962)
(-114.96687 5.8537871e-21 -1.9743266)
(-117.38878 -5.8618568e-21 -2.4204946)
(-119.85173 2.55622e-20 -2.9095202)
(-122.34713 2.1492139e-20 -3.4381175)
(-124.88005 -9.7619592e-17 -4.0086528)
(-128.33001 3.9152798e-16 -4.6452757)
)
;
    }
    inlet
    {
        type            calculated;
        value           uniform (0 0 0);
    }
    outlet
    {
        type            calculated;
        value           uniform (0 0 0);
    }
    back
    {
        type            empty;
    }
    front
    {
        type            empty;
    }
}


// ************************************************************************* //
