/*--------------------------------*- C++ -*----------------------------------*\
  =========                 |
  \\      /  F ield         | OpenFOAM: The Open Source CFD Toolbox
   \\    /   O peration     | Website:  https://openfoam.org
    \\  /    A nd           | Version:  8
     \\/     M anipulation  |
\*---------------------------------------------------------------------------*/
FoamFile
{
    version     2.0;
    format      ascii;
    class       volScalarField;
    location    "0.280002";
    object      yPlus;
}
// * * * * * * * * * * * * * * * * * * * * * * * * * * * * * * * * * * * * * //

dimensions      [0 0 0 0 0 0 0];

internalField   uniform 0;

boundaryField
{
    aerofoil
    {
        type            calculated;
        value           nonuniform List<scalar> 
300
(
124.67798
124.02958
123.33475
122.70567
122.11353
121.57264
121.06495
120.60085
120.17437
119.79561
119.45251
119.14249
118.87217
118.62797
118.41868
118.24611
118.09788
117.98021
117.8821
117.81138
117.76766
117.7464
117.75618
117.7764
117.8272
117.89322
117.9802
118.09539
118.22074
118.36642
118.5277
118.70366
118.88324
119.06553
119.26347
119.48692
119.73619
120.01717
120.33528
120.69659
121.10798
121.57185
122.0716
122.62462
123.18216
123.76256
124.3283
124.91785
125.52325
126.14309
126.77475
127.38631
127.93059
128.38198
128.72324
128.96523
129.14709
129.45318
129.82382
130.55198
132.13902
134.84287
138.24224
141.88533
145.39232
148.42031
150.92588
152.27963
151.87523
149.14372
142.99818
132.44304
116.71933
94.571123
66.519941
139.66524
149.60882
149.91727
150.72046
150.76183
150.64077
150.26889
149.83257
149.29054
148.69253
148.03846
147.34261
146.60528
145.83979
145.0498
144.23851
143.40636
142.56102
141.69822
140.8226
139.92787
139.02887
138.12676
137.21146
136.26526
135.32949
134.41004
133.4976
132.58016
131.66536
130.74627
129.82666
128.90554
127.97716
127.03353
126.07187
125.08642
124.07718
123.03572
121.95732
120.82776
119.63243
118.33545
116.9234
115.39802
113.80967
112.22398
110.69131
109.12304
107.18584
104.47207
100.89899
96.048975
89.868408
83.056755
76.372988
71.69316
74.416367
86.878398
100.90478
111.72002
118.40555
121.93791
123.36033
123.99299
124.27807
124.40312
124.49457
124.59894
124.70725
124.78865
124.85909
124.93416
125.01553
125.01351
131.17294
131.08909
131.25773
131.35948
131.50255
131.63235
131.76667
131.89337
132.02511
132.16379
132.31259
132.47602
132.65738
132.83484
133.01855
133.20238
133.37436
133.54513
133.70877
133.87623
134.05311
134.23911
134.44763
134.67029
134.93103
135.21634
135.52217
135.85322
136.19906
136.56295
136.93726
137.30892
137.67911
138.04874
138.4345
138.83936
139.2653
139.72933
140.20058
140.66813
141.11293
141.52789
141.89246
142.20816
142.44097
142.61794
142.71708
142.74571
142.71164
142.60238
142.42814
142.20295
141.92936
141.62253
141.30816
141.01764
140.77878
140.58948
140.32125
139.92931
139.34429
138.52282
137.38506
135.77413
133.51949
130.39129
125.93711
119.70694
110.88442
98.058892
80.139811
55.809054
30.909595
11.918192
40.908622
9.1058887
23.344008
23.841259
27.988053
30.995955
34.277605
37.338594
40.267184
43.0075
45.601238
48.065596
50.407106
52.632663
54.752121
56.771272
58.68972
60.521183
62.280103
63.978425
65.62204
67.212404
68.757219
70.257531
71.716831
73.131836
74.50959
75.852059
77.172175
78.472707
79.757479
81.019854
82.26372
83.494738
84.705077
85.896509
87.07331
88.240578
89.400898
90.553525
91.698409
92.840426
93.976346
95.102424
96.217623
97.326204
98.429751
99.536324
100.64781
101.75909
102.86397
103.9584
105.03822
106.10933
107.18531
108.26672
109.3539
110.4479
111.54879
112.65203
113.75195
114.84761
115.93259
117.01221
118.0872
119.16507
120.24855
121.33803
122.42957
123.52243
124.62678
125.74644
126.87492
128.00858
129.14636
130.40036
)
;
    }
    inlet
    {
        type            calculated;
        value           uniform 0;
    }
    outlet
    {
        type            calculated;
        value           uniform 0;
    }
    back
    {
        type            empty;
    }
    front
    {
        type            empty;
    }
}


// ************************************************************************* //
