/*--------------------------------*- C++ -*----------------------------------*\
  =========                 |
  \\      /  F ield         | OpenFOAM: The Open Source CFD Toolbox
   \\    /   O peration     | Website:  https://openfoam.org
    \\  /    A nd           | Version:  8
     \\/     M anipulation  |
\*---------------------------------------------------------------------------*/
FoamFile
{
    version     2.0;
    format      ascii;
    class       volScalarField;
    location    "0.170001";
    object      alphat;
}
// * * * * * * * * * * * * * * * * * * * * * * * * * * * * * * * * * * * * * //

dimensions      [1 -1 -1 0 0 0 0];

internalField   nonuniform List<scalar> 
20000
(
0.0010534617
0.0027746681
0.0038781337
0.004401508
0.0042023924
0.0029805105
0.00072885512
3.39711e-07
4.9408336e-09
4.8694379e-09
4.7347931e-09
4.7702677e-09
4.7110481e-09
4.7540427e-09
4.7565763e-09
4.7990178e-09
4.8295792e-09
4.885251e-09
4.9425733e-09
5.0208291e-09
5.1085198e-09
5.2168662e-09
5.3404726e-09
5.4866264e-09
5.6545446e-09
5.8492322e-09
6.0771102e-09
6.3308487e-09
6.6044289e-09
6.8863528e-09
7.1624732e-09
7.4223583e-09
7.6563814e-09
7.8595761e-09
8.0292631e-09
8.1676781e-09
8.2737837e-09
8.3492138e-09
8.4006504e-09
8.431503e-09
8.4456808e-09
8.4488329e-09
8.4477259e-09
8.4376119e-09
8.4276891e-09
8.423618e-09
8.427483e-09
8.441934e-09
8.4550457e-09
8.5597622e-09
0.0010367469
0.0027288631
0.0037969362
0.0042799676
0.0040376348
0.0027586384
0.00059954796
1.1895839e-07
4.8360856e-09
4.7904839e-09
4.658813e-09
4.696426e-09
4.6387344e-09
4.6823638e-09
4.6856671e-09
4.7292707e-09
4.7611798e-09
4.8189186e-09
4.8784029e-09
4.9593054e-09
5.0503206e-09
5.1626311e-09
5.2912869e-09
5.4434753e-09
5.6190429e-09
5.8245508e-09
6.065288e-09
6.3322117e-09
6.6134701e-09
6.8992183e-09
7.1769315e-09
7.4361179e-09
7.6680097e-09
7.8683157e-09
8.0350661e-09
8.1704501e-09
8.2741068e-09
8.3493337e-09
8.3991155e-09
8.4291806e-09
8.4429193e-09
8.4467158e-09
8.4443342e-09
8.4349189e-09
8.4262004e-09
8.4222594e-09
8.4269045e-09
8.4422459e-09
8.4535681e-09
8.5609718e-09
0.0010369117
0.0027008599
0.0037236114
0.0041587098
0.0038667419
0.0025099714
0.00046927852
4.5131431e-08
4.7319168e-09
4.699788e-09
4.5716182e-09
4.6096688e-09
4.553338e-09
4.5970113e-09
4.6015286e-09
4.64617e-09
4.6797807e-09
4.7394024e-09
4.8014195e-09
4.8852437e-09
4.9800543e-09
5.0971999e-09
5.2325458e-09
5.3932711e-09
5.5804129e-09
5.8022965e-09
6.0632746e-09
6.3371596e-09
6.6252979e-09
6.9154569e-09
7.1945645e-09
7.4525888e-09
7.6816653e-09
7.8783038e-09
8.0414394e-09
8.1738692e-09
8.2752384e-09
8.3491905e-09
8.3977154e-09
8.4259139e-09
8.437861e-09
8.4409957e-09
8.4388368e-09
8.4297985e-09
8.423332e-09
8.4200786e-09
8.4284776e-09
8.4417138e-09
8.4640494e-09
8.5600086e-09
0.0010353201
0.0026655844
0.0036434193
0.004033222
0.0036960783
0.0022610959
0.00035797591
2.0887629e-08
4.6225122e-09
4.6001804e-09
4.4758696e-09
4.515039e-09
4.4608492e-09
4.5048068e-09
4.5108471e-09
4.5565629e-09
4.5922149e-09
4.6537417e-09
4.7182944e-09
4.8052747e-09
4.9045465e-09
5.0276908e-09
5.1719487e-09
5.3446286e-09
5.5485629e-09
5.794167e-09
6.0626997e-09
6.347626e-09
6.643529e-09
6.9378719e-09
7.2179276e-09
7.4741783e-09
7.6997918e-09
7.8921891e-09
8.0510395e-09
8.1796055e-09
8.2780007e-09
8.3503598e-09
8.3968882e-09
8.4235554e-09
8.4347622e-09
8.4373178e-09
8.4343384e-09
8.4261317e-09
8.421247e-09
8.4191644e-09
8.4288343e-09
8.441693e-09
8.46923e-09
8.5599941e-09
0.0010365393
0.0026333335
0.0035651875
0.0039102917
0.0035285554
0.0020142686
0.00026129983
1.1854942e-08
4.5163068e-09
4.5003043e-09
4.3805594e-09
4.4206576e-09
4.3685749e-09
4.4130151e-09
4.4205008e-09
4.4674536e-09
4.5047466e-09
4.5682399e-09
4.6355524e-09
4.7261501e-09
4.8309798e-09
4.961657e-09
5.1174988e-09
5.3060855e-09
5.5334733e-09
5.7919272e-09
6.068303e-09
6.3640644e-09
6.6674696e-09
6.9656269e-09
7.2459712e-09
7.4997029e-09
7.7210951e-09
7.9085136e-09
8.0624689e-09
8.1867796e-09
8.2819123e-09
8.3521282e-09
8.3965584e-09
8.4211569e-09
8.4311379e-09
8.4333263e-09
8.4299257e-09
8.4223337e-09
8.4185746e-09
8.4186735e-09
8.4295085e-09
8.4416799e-09
8.4772745e-09
8.5596862e-09
0.0010334777
0.0025972045
0.003486512
0.0037895521
0.0033670015
0.001779398
0.00017769034
8.0714196e-09
4.4182382e-09
4.4072445e-09
4.2914136e-09
4.3325549e-09
4.2826938e-09
4.3276054e-09
4.3366513e-09
4.3845774e-09
4.4237039e-09
4.4893313e-09
4.5601188e-09
4.6553564e-09
4.7675106e-09
4.9083447e-09
5.0789604e-09
5.2887079e-09
5.5283806e-09
5.792572e-09
6.0818883e-09
6.3880576e-09
6.6984449e-09
6.9996033e-09
7.27935e-09
7.5296848e-09
7.7460388e-09
7.9277665e-09
8.0761988e-09
8.1957067e-09
8.2872737e-09
8.3546097e-09
8.396367e-09
8.41902e-09
8.4280353e-09
8.4298697e-09
8.4260821e-09
8.4192874e-09
8.4158313e-09
8.4185265e-09
8.429928e-09
8.4420214e-09
8.4844405e-09
8.560064e-09
0.0010320945
0.002563819
0.0034114108
0.0036715456
0.0032083051
0.0015581085
0.00010598866
6.2991243e-09
4.3315489e-09
4.3246143e-09
4.2129079e-09
4.2551496e-09
4.2073766e-09
4.2528187e-09
4.2634164e-09
4.3127203e-09
4.353964e-09
4.4222626e-09
4.4977848e-09
4.5995998e-09
4.7212775e-09
4.8774885e-09
5.0637527e-09
5.2825009e-09
5.5280973e-09
5.8037925e-09
6.1044618e-09
6.4203236e-09
6.7366987e-09
7.0397815e-09
7.3178436e-09
7.5637893e-09
7.7742418e-09
7.9495463e-09
8.0918716e-09
8.206163e-09
8.2939319e-09
8.3576785e-09
8.3962329e-09
8.4168282e-09
8.4249382e-09
8.4264042e-09
8.4223088e-09
8.4166526e-09
8.4135367e-09
8.418476e-09
8.4304088e-09
8.4428761e-09
8.4923282e-09
8.5609882e-09
0.0010292696
0.0025305519
0.0033394174
0.0035565017
0.0030539524
0.00135269
5.170196e-05
5.4074438e-09
4.2592281e-09
4.2557283e-09
4.1476408e-09
4.1910043e-09
4.1451387e-09
4.1911631e-09
4.2035325e-09
4.2548616e-09
4.2996239e-09
4.3717862e-09
4.4538206e-09
4.5658115e-09
4.6997129e-09
4.8655071e-09
5.0585347e-09
5.2820517e-09
5.5373324e-09
5.8252931e-09
6.1373553e-09
6.4616814e-09
6.7827418e-09
7.0864046e-09
7.3615228e-09
7.6019932e-09
7.8056452e-09
7.9738159e-09
8.1094611e-09
8.2181137e-09
8.3018286e-09
8.3614028e-09
8.3964129e-09
8.4146691e-09
8.4219656e-09
8.4230712e-09
8.4186242e-09
8.4145066e-09
8.412254e-09
8.4184692e-09
8.4309326e-09
8.4443148e-09
8.4996937e-09
8.5624241e-09
0.0010269322
0.002500462
0.0032717942
0.0034450872
0.0029026979
0.0011624593
2.0029488e-05
4.9320363e-09
4.2009798e-09
4.2008003e-09
4.0961082e-09
4.1408852e-09
4.0972011e-09
4.1446449e-09
4.1593112e-09
4.2136728e-09
4.2633941e-09
4.3432844e-09
4.4334948e-09
4.5520971e-09
4.6911841e-09
4.8623499e-09
5.0585953e-09
5.291432e-09
5.5589498e-09
5.8587146e-09
6.1809568e-09
6.5124288e-09
6.8366492e-09
7.1393804e-09
7.4101846e-09
7.6440412e-09
7.8399942e-09
8.0003426e-09
8.1287745e-09
8.2313953e-09
8.3107994e-09
8.3657568e-09
8.3971384e-09
8.4129588e-09
8.4190826e-09
8.419866e-09
8.4152319e-09
8.4124926e-09
8.4116357e-09
8.4186875e-09
8.4316305e-09
8.4464624e-09
8.5070078e-09
8.5642185e-09
0.0010249403
0.0024729404
0.0032093092
0.0033413822
0.0027516313
0.00098828373
6.5247454e-06
4.6702556e-09
4.1578644e-09
4.1604717e-09
4.0588646e-09
4.105287e-09
4.0646449e-09
4.1146667e-09
4.1340051e-09
4.1932926e-09
4.2480737e-09
4.3318699e-09
4.4254666e-09
4.547821e-09
4.6898568e-09
4.8634659e-09
5.0705506e-09
5.3144235e-09
5.593438e-09
5.9043794e-09
6.2356968e-09
6.5727507e-09
6.8984319e-09
7.1985863e-09
7.4636307e-09
7.6897077e-09
7.8770739e-09
8.0289504e-09
8.1496685e-09
8.2458935e-09
8.3206865e-09
8.3706792e-09
8.3985109e-09
8.4122866e-09
8.4166178e-09
8.4170257e-09
8.4125587e-09
8.4104229e-09
8.4114019e-09
8.4192869e-09
8.4325733e-09
8.4495945e-09
8.5140033e-09
8.5662247e-09
0.0010230783
0.0024473248
0.0031507378
0.0032412219
0.0025978787
0.00083015513
1.9597341e-06
4.5225619e-09
4.1273832e-09
4.1336866e-09
4.0369896e-09
4.0864906e-09
4.0494959e-09
4.1018269e-09
4.1236204e-09
4.1848534e-09
4.2420762e-09
4.3283993e-09
4.4239901e-09
4.5479536e-09
4.696019e-09
4.8794861e-09
5.0957995e-09
5.3506438e-09
5.6411278e-09
5.9623417e-09
6.3014325e-09
6.6424615e-09
6.9678267e-09
7.2637061e-09
7.5215282e-09
7.7386734e-09
7.9166049e-09
8.0594023e-09
8.1719576e-09
8.2615585e-09
8.3312928e-09
8.3760955e-09
8.400317e-09
8.4119771e-09
8.4150868e-09
8.414725e-09
8.4105563e-09
8.4087914e-09
8.411327e-09
8.4201929e-09
8.4339338e-09
8.4540204e-09
8.5206599e-09
8.5683362e-09
0.0010219998
0.002423064
0.0030933265
0.0031409575
0.0024398366
0.00068885206
5.9039447e-07
4.4421205e-09
4.111842e-09
4.1195707e-09
4.0282437e-09
4.0712547e-09
4.0429209e-09
4.0965987e-09
4.1205697e-09
4.1828499e-09
4.2412741e-09
4.3288399e-09
4.4292106e-09
4.5603151e-09
4.7160606e-09
4.9077625e-09
5.1346123e-09
5.4004615e-09
5.7018222e-09
6.0324635e-09
6.3779843e-09
6.7212637e-09
7.0444739e-09
7.3343531e-09
7.5835e-09
7.7905976e-09
7.9582977e-09
8.09145e-09
8.1954449e-09
8.2784306e-09
8.3423851e-09
8.3818922e-09
8.4024088e-09
8.4118943e-09
8.4143986e-09
8.4130104e-09
8.4091967e-09
8.407995e-09
8.4112978e-09
8.4213286e-09
8.4357389e-09
8.4600281e-09
8.5268837e-09
8.5704517e-09
0.001021277
0.0023996805
0.003036114
0.0030424351
0.0022766693
0.00056700536
1.9059277e-07
4.3983161e-09
4.1026343e-09
4.1082884e-09
4.0200019e-09
4.064285e-09
4.0412987e-09
4.095737e-09
4.1208767e-09
4.1855971e-09
4.2481989e-09
4.3410006e-09
4.4469127e-09
4.5841646e-09
4.7479714e-09
4.9492238e-09
5.1863498e-09
5.4631174e-09
5.7750539e-09
6.114228e-09
6.4648092e-09
6.8086152e-09
7.1278372e-09
7.4100213e-09
7.6490906e-09
7.8450893e-09
8.0018295e-09
8.124813e-09
8.2199102e-09
8.2963798e-09
8.3538789e-09
8.387994e-09
8.4047566e-09
8.4120438e-09
8.4140717e-09
8.4119412e-09
8.4086346e-09
8.4076123e-09
8.4115477e-09
8.4226394e-09
8.4380168e-09
8.4678411e-09
8.5327062e-09
8.5725078e-09
0.0010212587
0.0023770309
0.0029802872
0.0029448731
0.0021074635
0.0004570822
6.8616641e-08
4.3714742e-09
4.1009157e-09
4.1073305e-09
4.0199931e-09
4.0623422e-09
4.0457834e-09
4.1027622e-09
4.1313762e-09
4.1992117e-09
4.2658468e-09
4.3631484e-09
4.4752138e-09
4.6197529e-09
4.7920436e-09
5.0027474e-09
5.250597e-09
5.5383132e-09
5.8603941e-09
6.2071943e-09
6.5613876e-09
6.9039491e-09
7.2173387e-09
7.4901614e-09
7.7178089e-09
7.9017339e-09
8.0468569e-09
8.1591968e-09
8.2451516e-09
8.3152203e-09
8.3657502e-09
8.3943492e-09
8.4072376e-09
8.4125349e-09
8.4139493e-09
8.4113963e-09
8.4083785e-09
8.4074532e-09
8.4122274e-09
8.4240924e-09
8.4407651e-09
8.4772102e-09
8.5382184e-09
8.5745556e-09
0.001021046
0.0023543551
0.0029243761
0.0028478213
0.001932838
0.00035830227
2.9015561e-08
4.3612909e-09
4.1057558e-09
4.1151297e-09
4.0300775e-09
4.0748648e-09
4.0598859e-09
4.1186983e-09
4.1502423e-09
4.2216519e-09
4.2928883e-09
4.3955028e-09
4.5139846e-09
4.6658601e-09
4.847026e-09
5.0677679e-09
5.3265568e-09
5.6252867e-09
5.9571527e-09
6.310645e-09
6.6669855e-09
7.0065339e-09
7.3122866e-09
7.574149e-09
7.7891191e-09
7.9600919e-09
8.0930144e-09
8.1943156e-09
8.2710732e-09
8.3347735e-09
8.3779196e-09
8.4008751e-09
8.4099741e-09
8.4133567e-09
8.4139371e-09
8.41112e-09
8.4082872e-09
8.4074142e-09
8.4132738e-09
8.4256805e-09
8.4440014e-09
8.4875206e-09
8.5438284e-09
8.5766041e-09
0.00102088
0.0023317193
0.0028677951
0.0027441802
0.001754804
0.00026996404
1.4898924e-08
4.3603047e-09
4.1164397e-09
4.1268485e-09
4.0462702e-09
4.0931709e-09
4.0812795e-09
4.142518e-09
4.1777501e-09
4.2527423e-09
4.3288389e-09
4.4369003e-09
4.5622513e-09
4.7220529e-09
4.9125831e-09
5.143746e-09
5.4138715e-09
5.7236784e-09
6.0648829e-09
6.4240208e-09
6.7809505e-09
7.1156518e-09
7.411968e-09
7.6613255e-09
7.8624587e-09
8.0197057e-09
8.1399187e-09
8.2299093e-09
8.2977389e-09
8.3547121e-09
8.3902232e-09
8.407454e-09
8.413074e-09
8.4145394e-09
8.4140595e-09
8.4109712e-09
8.4082541e-09
8.407458e-09
8.4146437e-09
8.4274437e-09
8.4478744e-09
8.4983553e-09
8.5496247e-09
8.5787421e-09
0.0010208915
0.002309002
0.0028105458
0.0026417024
0.0015760663
0.00019000569
9.2823613e-09
4.3705563e-09
4.1340556e-09
4.1475855e-09
4.0700022e-09
4.1188848e-09
4.109967e-09
4.1737995e-09
4.2125866e-09
4.2916781e-09
4.3728734e-09
4.4867791e-09
4.6193804e-09
4.7875141e-09
4.9879412e-09
5.230072e-09
5.5119096e-09
5.8328335e-09
6.1828953e-09
6.5465423e-09
6.9024496e-09
7.2304665e-09
7.5155857e-09
7.7509827e-09
7.9372529e-09
8.0801234e-09
8.187204e-09
8.2657835e-09
8.3252742e-09
8.3745618e-09
8.4023864e-09
8.4140871e-09
8.4166689e-09
8.4159214e-09
8.4144505e-09
8.4108933e-09
8.4082866e-09
8.4079713e-09
8.4163104e-09
8.4294809e-09
8.4527256e-09
8.5092521e-09
8.5555541e-09
8.5809918e-09
0.0010210946
0.0022862452
0.0027496716
0.0025394222
0.0013982747
0.00011829311
6.8149004e-09
4.386921e-09
4.1574757e-09
4.1737202e-09
4.099636e-09
4.150804e-09
4.1451949e-09
4.2117389e-09
4.2545732e-09
4.3377248e-09
4.424418e-09
4.5445586e-09
4.6849179e-09
4.8619878e-09
5.0728993e-09
5.3265667e-09
5.6204845e-09
5.9525151e-09
6.3107673e-09
6.677645e-09
7.0307585e-09
7.3501837e-09
7.6223381e-09
7.842404e-09
8.0129337e-09
8.1409031e-09
8.2345387e-09
8.3018172e-09
8.3534065e-09
8.3939535e-09
8.4141748e-09
8.4212971e-09
8.4204776e-09
8.417543e-09
8.4150552e-09
8.4109121e-09
8.4085356e-09
8.4089003e-09
8.4182582e-09
8.4319091e-09
8.4589683e-09
8.519672e-09
8.5615108e-09
8.5833768e-09
0.0010215286
0.0022645359
0.0026920116
0.0024352484
0.0012238092
6.0204449e-05
5.656367e-09
4.409496e-09
4.1871106e-09
4.2060026e-09
4.1352784e-09
4.1888021e-09
4.1865038e-09
4.255969e-09
4.3028399e-09
4.3905536e-09
4.4830285e-09
4.6098091e-09
4.7584309e-09
4.9449968e-09
5.167026e-09
5.4328076e-09
5.7391618e-09
6.0821764e-09
6.447843e-09
6.8165276e-09
7.1649896e-09
7.4738781e-09
7.7313577e-09
7.9348845e-09
8.0889771e-09
8.2016454e-09
8.2816723e-09
8.3379672e-09
8.3814959e-09
8.4126871e-09
8.42577e-09
8.4291223e-09
8.424334e-09
8.419422e-09
8.4158515e-09
8.4113702e-09
8.4089954e-09
8.410276e-09
8.4204762e-09
8.4348541e-09
8.4668339e-09
8.5291344e-09
8.5674373e-09
8.5859699e-09
0.0010219778
0.0022427137
0.0026341009
0.0023266745
0.0010550776
2.3549701e-05
5.0983259e-09
4.437495e-09
4.2220714e-09
4.2435589e-09
4.1763031e-09
4.2322098e-09
4.2334219e-09
4.3058772e-09
4.3572522e-09
4.4496193e-09
4.5483879e-09
4.682311e-09
4.839804e-09
5.0365283e-09
5.2703664e-09
5.548846e-09
5.8679324e-09
6.2216566e-09
6.5937374e-09
6.9625626e-09
7.3043463e-09
7.6006561e-09
7.8418269e-09
8.0278097e-09
8.1649199e-09
8.2619728e-09
8.3284006e-09
8.3741597e-09
8.4087819e-09
8.4306184e-09
8.4377114e-09
8.43708e-09
8.4282875e-09
8.4215371e-09
8.4168598e-09
8.4121422e-09
8.4098034e-09
8.4120437e-09
8.4229338e-09
8.4383722e-09
8.4762227e-09
8.5373048e-09
8.5732602e-09
8.5889484e-09
0.0010225481
0.002220664
0.0025745905
0.0022122184
0.00089489494
7.26383e-06
4.8371737e-09
4.4722881e-09
4.2620403e-09
4.2860218e-09
4.2222188e-09
4.2806365e-09
4.2855081e-09
4.3612717e-09
4.417327e-09
4.5149022e-09
4.6203115e-09
4.7618718e-09
4.9288228e-09
5.1363852e-09
5.3827114e-09
5.6744636e-09
6.0064676e-09
6.3704755e-09
6.7477563e-09
7.1148707e-09
7.4478182e-09
7.729543e-09
7.9530079e-09
8.1207087e-09
8.2403717e-09
8.3215326e-09
8.3745317e-09
8.4100657e-09
8.43465e-09
8.4479666e-09
8.4501859e-09
8.4448708e-09
8.4322858e-09
8.4238368e-09
8.4180922e-09
8.4132445e-09
8.4109465e-09
8.4141694e-09
8.4255831e-09
8.442449e-09
8.4859526e-09
8.5448318e-09
8.5788511e-09
8.5925334e-09
0.0010232808
0.002198579
0.0025135903
0.0020929058
0.00074592307
1.9637414e-06
4.7273325e-09
4.5113014e-09
4.3060698e-09
4.3327445e-09
4.2726256e-09
4.3337983e-09
4.3426279e-09
4.4219375e-09
4.4831142e-09
4.5861167e-09
4.6987292e-09
4.8485108e-09
5.02562e-09
5.2447651e-09
5.5043192e-09
5.8098761e-09
6.1548747e-09
6.5284886e-09
6.9094657e-09
7.272738e-09
7.5945001e-09
7.8597243e-09
8.0644008e-09
8.2132531e-09
8.314932e-09
8.3799255e-09
8.4197564e-09
8.4447003e-09
8.4592015e-09
8.4653953e-09
8.4626141e-09
8.4523954e-09
8.436295e-09
8.426237e-09
8.4196101e-09
8.4146857e-09
8.4124695e-09
8.4166019e-09
8.4283689e-09
8.4470222e-09
8.4958976e-09
8.5519343e-09
8.5839851e-09
8.5966524e-09
0.0010241984
0.0021767856
0.0024509927
0.0019689692
0.00060985819
5.240969e-07
4.6940707e-09
4.5542496e-09
4.354349e-09
4.3837479e-09
4.3276097e-09
4.3916205e-09
4.4047717e-09
4.4877935e-09
4.5544447e-09
4.6633458e-09
4.7836265e-09
4.9422154e-09
5.1301805e-09
5.3616623e-09
5.6351565e-09
5.9549784e-09
6.312878e-09
6.6951714e-09
7.0780672e-09
7.4351399e-09
7.7433685e-09
7.9904957e-09
8.1756663e-09
8.3050346e-09
8.3880481e-09
8.4366989e-09
8.4635658e-09
8.4776151e-09
8.4829221e-09
8.4828426e-09
8.4747546e-09
8.4595515e-09
8.4402536e-09
8.4286854e-09
8.421455e-09
8.4164706e-09
8.4143356e-09
8.4192899e-09
8.4312477e-09
8.4520394e-09
8.5060139e-09
8.5589448e-09
8.5890055e-09
8.6007783e-09
0.0010253149
0.0021557623
0.002388318
0.0018366706
0.00048932795
1.559649e-07
4.701288e-09
4.6015019e-09
4.4067093e-09
4.4392176e-09
4.3870003e-09
4.454215e-09
4.4717723e-09
4.5588586e-09
4.6313208e-09
4.7465169e-09
4.8750946e-09
5.0432016e-09
5.2428113e-09
5.4874609e-09
5.7756217e-09
6.1100953e-09
6.4805855e-09
6.8703107e-09
7.2529718e-09
7.6012193e-09
7.8936735e-09
8.1214923e-09
8.2864729e-09
8.3951731e-09
8.458847e-09
8.4913967e-09
8.5054632e-09
8.5090862e-09
8.5063796e-09
8.4997493e-09
8.4864944e-09
8.4662935e-09
8.4441385e-09
8.4312153e-09
8.423569e-09
8.418595e-09
8.4165437e-09
8.4221887e-09
8.4342176e-09
8.4575228e-09
8.516239e-09
8.5659215e-09
8.5939379e-09
8.6048173e-09
0.0010265986
0.0021354092
0.0023340061
0.0016959411
0.00038572528
5.6891288e-08
4.7308756e-09
4.6527406e-09
4.4633235e-09
4.4988877e-09
4.4508867e-09
4.5213471e-09
4.5436949e-09
4.635041e-09
4.7138092e-09
4.8358259e-09
4.9732892e-09
5.1516117e-09
5.3636586e-09
5.6222973e-09
5.9257931e-09
6.2751586e-09
6.6576506e-09
7.0532239e-09
7.4331637e-09
7.7699213e-09
8.044765e-09
8.2524194e-09
8.395831e-09
8.4824925e-09
8.5267493e-09
8.5437493e-09
8.5456759e-09
8.5397285e-09
8.5288141e-09
8.5161757e-09
8.4977423e-09
8.4726301e-09
8.4479099e-09
8.4338199e-09
8.425934e-09
8.4210471e-09
8.4190828e-09
8.4252667e-09
8.4373527e-09
8.4636389e-09
8.5263859e-09
8.5727553e-09
8.5986546e-09
8.6087332e-09
0.0010283242
0.0021136879
0.0022718789
0.0015460753
0.0002917222
2.5238877e-08
4.773269e-09
4.7078873e-09
4.5240126e-09
4.5627559e-09
4.5191213e-09
4.5930798e-09
4.6204924e-09
4.7165038e-09
4.8020146e-09
4.9313703e-09
5.0784722e-09
5.2678105e-09
5.4931973e-09
5.7666777e-09
6.086186e-09
6.4504923e-09
6.8441156e-09
7.2434764e-09
7.6178992e-09
7.940546e-09
8.1964055e-09
8.3827519e-09
8.5021854e-09
8.5661068e-09
8.5914951e-09
8.5942583e-09
8.5844129e-09
8.5688674e-09
8.5503751e-09
8.5319695e-09
8.50844e-09
8.4785534e-09
8.4515604e-09
8.4365089e-09
8.4285222e-09
8.4238062e-09
8.421938e-09
8.4285065e-09
8.4408147e-09
8.4707522e-09
8.5361539e-09
8.5792672e-09
8.6031836e-09
8.6125619e-09
0.001029941
0.0020912982
0.0022104587
0.0013903396
0.00020739458
1.3962072e-08
4.8242819e-09
4.7669122e-09
4.5886602e-09
4.630741e-09
4.5917103e-09
4.6693849e-09
4.7023199e-09
4.8033118e-09
4.8961604e-09
5.0334984e-09
5.1909162e-09
5.3920888e-09
5.6316858e-09
5.9208676e-09
6.2569049e-09
6.6359904e-09
7.0394363e-09
7.440146e-09
7.8060786e-09
8.1124114e-09
8.3482033e-09
8.5106828e-09
8.6044475e-09
8.6454894e-09
8.6539748e-09
8.6427304e-09
8.6211825e-09
8.596632e-09
8.5709071e-09
8.547112e-09
8.5185377e-09
8.4840423e-09
8.4551076e-09
8.4392941e-09
8.431318e-09
8.4268439e-09
8.4250857e-09
8.4319002e-09
8.4448162e-09
8.4793703e-09
8.5451328e-09
8.5852931e-09
8.6073948e-09
8.6161977e-09
0.0010321385
0.0020680988
0.0021463338
0.0012319549
0.00013195838
9.4311584e-09
4.8813419e-09
4.8294928e-09
4.6571667e-09
4.7028424e-09
4.668743e-09
4.7504775e-09
4.7893243e-09
4.8957628e-09
4.9964914e-09
5.1424349e-09
5.3110105e-09
5.5249539e-09
5.7797321e-09
6.0855028e-09
6.4385029e-09
6.8319033e-09
7.2434141e-09
7.6425864e-09
7.9970198e-09
8.2853286e-09
8.4991512e-09
8.634622e-09
8.7016594e-09
8.721525e-09
8.7140985e-09
8.688664e-09
8.656018e-09
8.6228593e-09
8.5904317e-09
8.5615344e-09
8.5279941e-09
8.4890757e-09
8.4585654e-09
8.4421882e-09
8.434305e-09
8.4301192e-09
8.4284818e-09
8.4354335e-09
8.4495265e-09
8.489711e-09
8.553035e-09
8.5907844e-09
8.6112229e-09
8.6194849e-09
0.0010341585
0.0020425921
0.0020791736
0.0010820503
7.0092552e-05
7.4393099e-09
4.9431518e-09
4.89602e-09
4.7297863e-09
4.7793617e-09
4.7504758e-09
4.8365332e-09
4.8817783e-09
4.9940497e-09
5.1033279e-09
5.2586053e-09
5.4391596e-09
5.6667958e-09
5.9377417e-09
6.260885e-09
6.6310723e-09
7.0378908e-09
7.4552152e-09
7.8496793e-09
8.189935e-09
8.4588183e-09
8.6470855e-09
8.7531267e-09
8.7939441e-09
8.7951436e-09
8.7709701e-09
8.7320565e-09
8.688798e-09
8.6475745e-09
8.6089185e-09
8.5752043e-09
8.5367716e-09
8.4936552e-09
8.4619547e-09
8.4452103e-09
8.437471e-09
8.433585e-09
8.4320645e-09
8.4390906e-09
8.4549997e-09
8.5006984e-09
8.5605255e-09
8.5958178e-09
8.6147158e-09
8.6225152e-09
0.0010362989
0.0020125683
0.0020072442
0.00093908184
2.8998496e-05
6.5164435e-09
5.0096871e-09
4.9668084e-09
4.8068817e-09
4.8604755e-09
4.8371237e-09
4.9277752e-09
4.9799519e-09
5.0984223e-09
5.2170249e-09
5.3823624e-09
5.5758808e-09
5.8182999e-09
6.1064475e-09
6.4477499e-09
6.835087e-09
7.2539868e-09
7.6743254e-09
8.0607571e-09
8.3845865e-09
8.6316627e-09
8.7902271e-09
8.8653504e-09
8.8829538e-09
8.865076e-09
8.8246643e-09
8.7727756e-09
8.7195138e-09
8.6707533e-09
8.6263627e-09
8.5880718e-09
8.5448196e-09
8.4978048e-09
8.4652905e-09
8.4483713e-09
8.4408052e-09
8.4371952e-09
8.4357651e-09
8.4428594e-09
8.4611694e-09
8.5119405e-09
8.5677157e-09
8.6004854e-09
8.6178897e-09
8.6252615e-09
0.001037611
0.001977814
0.0019286588
0.00080443096
9.48079e-06
6.0927335e-09
5.0804971e-09
5.0418847e-09
4.8883397e-09
4.9463926e-09
4.9287809e-09
5.0245307e-09
5.0840865e-09
5.2093825e-09
5.3379376e-09
5.5142928e-09
5.7217309e-09
5.9799975e-09
6.2863559e-09
6.64638e-09
7.0504568e-09
7.4794887e-09
7.8996332e-09
8.2748475e-09
8.5804693e-09
8.8013837e-09
8.9269583e-09
8.9721937e-09
8.9683417e-09
8.9310814e-09
8.8749873e-09
8.810819e-09
8.7481508e-09
8.6924266e-09
8.6427608e-09
8.6000882e-09
8.5520604e-09
8.501599e-09
8.4685975e-09
8.4516747e-09
8.4442978e-09
8.440918e-09
8.4395353e-09
8.4467588e-09
8.4679175e-09
8.5231247e-09
8.5746889e-09
8.604895e-09
8.6208379e-09
8.6277812e-09
0.0010385967
0.0019378894
0.0018387842
0.00067867977
2.6732233e-06
5.9148342e-09
5.1554716e-09
5.1210307e-09
4.9745094e-09
5.0370798e-09
5.0259381e-09
5.1269567e-09
5.1946061e-09
5.3272266e-09
5.4666113e-09
5.6548604e-09
5.8774072e-09
6.1527457e-09
6.4783061e-09
6.8575163e-09
7.2774333e-09
7.7141277e-09
8.130485e-09
8.4916077e-09
8.7765409e-09
8.9658595e-09
9.0562852e-09
9.0753203e-09
9.0490859e-09
8.992987e-09
8.9219471e-09
8.8461635e-09
8.7747255e-09
8.7126169e-09
8.6581064e-09
8.6111873e-09
8.5583651e-09
8.5051639e-09
8.4718997e-09
8.4551092e-09
8.4479335e-09
8.4447376e-09
8.4433629e-09
8.4508683e-09
8.4751969e-09
8.5340858e-09
8.5813982e-09
8.6090957e-09
8.6236749e-09
8.6301982e-09
0.0010390703
0.001893094
0.0017325413
0.00056333207
7.3130726e-07
5.8637644e-09
5.2350244e-09
5.2048735e-09
5.0656235e-09
5.1331953e-09
5.1287537e-09
5.2354889e-09
5.3117079e-09
5.4525172e-09
5.6035309e-09
5.8048767e-09
6.0436454e-09
6.3371904e-09
6.6828416e-09
7.0812706e-09
7.5155827e-09
7.956821e-09
8.3658179e-09
8.7103943e-09
8.969995e-09
9.1232469e-09
9.1794179e-09
9.173845e-09
9.1249481e-09
9.0507313e-09
8.9655233e-09
8.8788398e-09
8.7992777e-09
8.7313726e-09
8.6724057e-09
8.6213118e-09
8.5636226e-09
8.5086465e-09
8.4752223e-09
8.4586613e-09
8.4516915e-09
8.4486438e-09
8.4472609e-09
8.4552239e-09
8.4831016e-09
8.5446181e-09
8.5877712e-09
8.6130557e-09
8.6263524e-09
8.6324686e-09
0.0010392092
0.0018449918
0.0016130624
0.0004575409
2.1686887e-07
5.878841e-09
5.3193569e-09
5.2937128e-09
5.1619746e-09
5.2348334e-09
5.237537e-09
5.3503624e-09
5.4359151e-09
5.5857117e-09
5.7495106e-09
5.9650032e-09
6.2213397e-09
6.5343101e-09
6.9008506e-09
7.3181868e-09
7.764824e-09
8.2070394e-09
8.6051734e-09
8.9306887e-09
9.1581688e-09
9.2722281e-09
9.2980746e-09
9.2667806e-09
9.1957935e-09
9.1043065e-09
9.0057534e-09
8.9088849e-09
8.8218582e-09
8.7487387e-09
8.6856647e-09
8.630433e-09
8.5679721e-09
8.5119959e-09
8.4785689e-09
8.4623136e-09
8.4555439e-09
8.452612e-09
8.4512154e-09
8.4599449e-09
8.4919283e-09
8.5544493e-09
8.5936973e-09
8.6167104e-09
8.6288053e-09
8.6346083e-09
0.0010391004
0.0017941361
0.0014831683
0.00036421977
7.8354581e-08
5.9296918e-09
5.4086378e-09
5.3876958e-09
5.2637172e-09
5.3421542e-09
5.3525561e-09
5.4720593e-09
5.5677984e-09
5.7276325e-09
5.9052473e-09
6.1362782e-09
6.4113282e-09
6.7448358e-09
7.1327265e-09
7.5680471e-09
8.024214e-09
8.4635642e-09
8.8476625e-09
9.149482e-09
9.338971e-09
9.4138041e-09
9.4113687e-09
9.3537824e-09
9.2615638e-09
9.1537395e-09
9.0426916e-09
8.9363685e-09
8.8425414e-09
8.7647771e-09
8.6979073e-09
8.63856e-09
8.5715596e-09
8.5151764e-09
8.4819387e-09
8.4660477e-09
8.4594613e-09
8.4566054e-09
8.4551921e-09
8.4652126e-09
8.5020601e-09
8.5632257e-09
8.5990596e-09
8.6200216e-09
8.6310161e-09
8.6365442e-09
0.0010389863
0.0017395024
0.0013563978
0.00028028573
3.4691155e-08
5.9996895e-09
5.5025045e-09
5.486744e-09
5.3709716e-09
5.4555154e-09
5.4743588e-09
5.6013148e-09
5.7081767e-09
5.8790884e-09
6.0717738e-09
6.3194859e-09
6.6146495e-09
6.9698213e-09
7.3792647e-09
7.8310573e-09
8.2933285e-09
8.7258415e-09
9.0929395e-09
9.3639495e-09
9.5106298e-09
9.5497895e-09
9.5182282e-09
9.4347542e-09
9.3222839e-09
9.1991039e-09
9.0764184e-09
8.9613681e-09
8.8614064e-09
8.7795492e-09
8.7091498e-09
8.6456891e-09
8.5744837e-09
8.5181843e-09
8.4853228e-09
8.4698336e-09
8.4634223e-09
8.4606065e-09
8.4591959e-09
8.4711161e-09
8.5135387e-09
8.5707524e-09
8.6038483e-09
8.6229861e-09
8.6329765e-09
8.6382696e-09
0.0010391264
0.0016780821
0.0012268711
0.00020311362
1.8810985e-08
6.0811736e-09
5.6012528e-09
5.591183e-09
5.4845193e-09
5.5755806e-09
5.6039382e-09
5.7388834e-09
5.8580146e-09
6.0410083e-09
6.2499089e-09
6.5157803e-09
6.8322389e-09
7.2099439e-09
7.6405462e-09
8.1064948e-09
8.5709053e-09
8.9926787e-09
9.3386305e-09
9.5711033e-09
9.6732997e-09
9.6798771e-09
9.6180015e-09
9.5096155e-09
9.378003e-09
9.2404947e-09
9.1070345e-09
8.9839841e-09
8.8785536e-09
8.7931353e-09
8.7194153e-09
8.6517784e-09
8.5768177e-09
8.5210416e-09
8.4887107e-09
8.4736344e-09
8.4674048e-09
8.464649e-09
8.4633275e-09
8.4776844e-09
8.5250588e-09
8.5778574e-09
8.6082013e-09
8.6256111e-09
8.634663e-09
8.6397657e-09
0.0010409395
0.0016246193
0.0010962436
0.00013278392
1.2375084e-08
6.170953e-09
5.705046e-09
5.7022971e-09
5.6049592e-09
5.7036496e-09
5.7419843e-09
5.8857972e-09
6.0180454e-09
6.2143033e-09
6.4407702e-09
6.7260744e-09
7.0652855e-09
7.4662182e-09
7.9170966e-09
8.3941326e-09
8.8564486e-09
9.2636855e-09
9.5817011e-09
9.7688499e-09
9.8288349e-09
9.8027745e-09
9.7106534e-09
9.5784308e-09
9.4288472e-09
9.2780446e-09
9.1346556e-09
9.0043209e-09
8.8940858e-09
8.8056161e-09
8.7287408e-09
8.6568665e-09
8.5786304e-09
8.5237655e-09
8.4920877e-09
8.4774188e-09
8.4714031e-09
8.4687762e-09
8.4676773e-09
8.4848909e-09
8.5364117e-09
8.5845249e-09
8.6121386e-09
8.6279169e-09
8.636121e-09
8.6410089e-09
0.0010432632
0.0015661007
0.0009652335
7.2925044e-05
9.5115222e-09
6.2672781e-09
5.8160259e-09
5.8209215e-09
5.7337002e-09
5.8402762e-09
5.8895323e-09
6.0426668e-09
6.1892499e-09
6.3999564e-09
6.6453223e-09
6.9517593e-09
7.3147479e-09
7.739093e-09
8.2084268e-09
8.6927647e-09
9.1485608e-09
9.5374263e-09
9.8180189e-09
9.9558625e-09
9.9780644e-09
9.9173211e-09
9.7960405e-09
9.6412613e-09
9.4749474e-09
9.3118961e-09
9.1594127e-09
9.0225023e-09
8.9081192e-09
8.8170833e-09
8.7372221e-09
8.6613129e-09
8.5800165e-09
8.5263799e-09
8.4954486e-09
8.4811832e-09
8.4754223e-09
8.4729624e-09
8.4720815e-09
8.4926699e-09
8.5473483e-09
8.5907888e-09
8.615668e-09
8.6298811e-09
8.6373208e-09
8.6420307e-09
0.0010469877
0.0015041888
0.0008373999
3.1493489e-05
8.1847923e-09
6.3703169e-09
5.9349023e-09
5.9480366e-09
5.8712831e-09
5.9861288e-09
6.0470948e-09
6.2104895e-09
6.3724415e-09
6.5990861e-09
6.8649748e-09
7.1938673e-09
7.5818861e-09
8.0293302e-09
8.5146368e-09
9.0018657e-09
9.4466894e-09
9.8107367e-09
1.0045378e-08
1.0133858e-08
1.0119406e-08
1.0023568e-08
9.8742653e-09
9.6982833e-09
9.5164916e-09
9.3422159e-09
9.1814459e-09
9.0386552e-09
8.9207644e-09
8.8276012e-09
8.7449157e-09
8.6654305e-09
8.5811417e-09
8.5289142e-09
8.4987929e-09
8.4849314e-09
8.4794433e-09
8.4771441e-09
8.4765018e-09
8.5011017e-09
8.5576387e-09
8.5965834e-09
8.6187774e-09
8.631436e-09
8.6381665e-09
8.6427332e-09
0.0010522511
0.001438048
0.00071496668
1.0697395e-05
7.5794044e-09
6.4812879e-09
6.0614259e-09
6.0836757e-09
6.0180937e-09
6.141613e-09
6.2154975e-09
6.3901005e-09
6.5689166e-09
6.8130082e-09
7.1009243e-09
7.4540097e-09
7.8674994e-09
8.3368842e-09
8.8345647e-09
9.3199606e-09
9.7492359e-09
1.0079167e-08
1.0260726e-08
1.0304741e-08
1.0251241e-08
1.0121255e-08
9.9453786e-09
9.7496585e-09
9.5536661e-09
9.3691767e-09
9.2009074e-09
9.0529186e-09
8.932139e-09
8.8372162e-09
8.7516986e-09
8.6679173e-09
8.5822895e-09
8.5314158e-09
8.5021258e-09
8.488661e-09
8.4834544e-09
8.4812503e-09
8.4812555e-09
8.5105297e-09
8.5669789e-09
8.6017544e-09
8.6214151e-09
8.6325903e-09
8.6387764e-09
8.643162e-09
0.0010595606
0.0013718442
0.00059972566
3.104189e-06
7.3325918e-09
6.60335e-09
6.1962038e-09
6.2277873e-09
6.1746855e-09
6.3077779e-09
6.3957422e-09
6.5829019e-09
6.7798777e-09
7.0432029e-09
7.3548277e-09
7.7332886e-09
8.1726588e-09
8.662093e-09
9.1678733e-09
9.6463151e-09
1.0054372e-08
1.0339236e-08
1.0465249e-08
1.0467126e-08
1.0373391e-08
1.0210518e-08
1.0009611e-08
9.7956441e-09
9.5867075e-09
9.3929782e-09
9.2179595e-09
9.0654305e-09
8.9423516e-09
8.8459534e-09
8.7573439e-09
8.6685351e-09
8.5836825e-09
8.5339198e-09
8.5054448e-09
8.4923656e-09
8.4874176e-09
8.485198e-09
8.4866035e-09
8.5213756e-09
8.5750144e-09
8.606196e-09
8.6236561e-09
8.6335514e-09
8.6392304e-09
8.64339e-09
0.0010676114
0.0012950527
0.00049237898
8.7096217e-07
7.2649735e-09
6.7325182e-09
6.3396829e-09
6.3820907e-09
6.3422117e-09
6.4857409e-09
6.5892292e-09
6.7901895e-09
7.0070085e-09
7.291161e-09
7.6281179e-09
8.0332965e-09
8.4977596e-09
9.00409e-09
9.513025e-09
9.9790739e-09
1.0357101e-08
1.0587328e-08