/*--------------------------------*- C++ -*----------------------------------*\
  =========                 |
  \\      /  F ield         | OpenFOAM: The Open Source CFD Toolbox
   \\    /   O peration     | Website:  https://openfoam.org
    \\  /    A nd           | Version:  8
     \\/     M anipulation  |
\*---------------------------------------------------------------------------*/
FoamFile
{
    version     2.0;
    format      ascii;
    class       volVectorField;
    location    "0.170001";
    object      cellDisplacement;
}
// * * * * * * * * * * * * * * * * * * * * * * * * * * * * * * * * * * * * * //

dimensions      [0 1 0 0 0 0 0];

internalField   nonuniform List<vector> 
20000
(
(-0.0021533948 0 -0.0015829788)
(-0.0021533758 0 -0.0015831397)
(-0.0021533372 0 -0.0015837823)
(-0.0021532605 0 -0.0015845904)
(-0.0021531292 0 -0.0015855978)
(-0.0021529197 0 -0.0015868576)
(-0.0021526003 0 -0.0015884374)
(-0.0021521268 0 -0.0015904297)
(-0.0021514395 0 -0.0015929547)
(-0.0021504574 0 -0.0015961797)
(-0.0021490722 0 -0.0016003301)
(-0.0021471388 0 -0.0016057184)
(-0.0021444659 0 -0.0016127705)
(-0.0021408025 0 -0.0016220721)
(-0.0021358229 0 -0.001634422)
(-0.0021291103 0 -0.0016509092)
(-0.0021201379 0 -0.0016729983)
(-0.0021082543 0 -0.0017026986)
(-0.0020926716 0 -0.0017426364)
(-0.0020724662 0 -0.0017963006)
(-0.002046601 0 -0.0018681647)
(-0.0020139678 0 -0.0019638334)
(-0.0019734702 0 -0.0020900416)
(-0.0019241589 0 -0.0022544026)
(-0.0018653536 0 -0.0024648794)
(-0.001796863 0 -0.0027285321)
(-0.0017190074 0 -0.0030503994)
(-0.0016328561 0 -0.0034308341)
(-0.0015399128 0 -0.0038652928)
(-0.0014423966 0 -0.0043413957)
(-0.0013425717 0 -0.0048413734)
(-0.001242987 0 -0.0053421864)
(-0.0011457291 0 -0.0058205595)
(-0.001052761 0 -0.0062544156)
(-0.00096521725 0 -0.0066272903)
(-0.00088411585 0 -0.0069275225)
(-0.00080953388 0 -0.0071499375)
(-0.00074147677 0 -0.007292473)
(-0.00067926129 0 -0.0073579723)
(-0.00062256682 0 -0.007347132)
(-0.00057036648 0 -0.0072601057)
(-0.00052138603 0 -0.0070903272)
(-0.00047485478 0 -0.0068332134)
(-0.00042983347 0 -0.006483771)
(-0.00038570909 0 -0.0060364212)
(-0.0003378113 0 -0.0054459807)
(-0.00028731919 0 -0.0047197031)
(-0.00022554349 0 -0.0037581671)
(-0.00015307974 0 -0.0025483924)
(-5.8675888e-05 0 -0.00094421294)
(-0.0021470489 0 -0.0012862325)
(-0.0021470344 0 -0.0012865521)
(-0.0021469923 0 -0.0012869471)
(-0.0021469107 0 -0.0012874448)
(-0.0021467728 0 -0.0012880809)
(-0.0021465546 0 -0.0012889013)
(-0.0021462235 0 -0.0012899659)
(-0.0021457345 0 -0.0012913579)
(-0.0021450269 0 -0.0012931904)
(-0.0021440182 0 -0.001295619)
(-0.0021425985 0 -0.0012988565)
(-0.0021406204 0 -0.0013031976)
(-0.0021378904 0 -0.0013090478)
(-0.0021341539 0 -0.0013169682)
(-0.0021290819 0 -0.0013277348)
(-0.0021222533 0 -0.0013424135)
(-0.0021131375 0 -0.0013624712)
(-0.0021010781 0 -0.0013898854)
(-0.0020852854 0 -0.0014273396)
(-0.0020648366 0 -0.001478353)
(-0.0020387 0 -0.0015474932)
(-0.0020057821 0 -0.0016405034)
(-0.0019650139 0 -0.0017643132)
(-0.0019154828 0 -0.0019267984)
(-0.0018565679 0 -0.0021362121)
(-0.0017881283 0 -0.0023999935)
(-0.0017105541 0 -0.0027234842)
(-0.0016249207 0 -0.0031075604)
(-0.0015327562 0 -0.0035478967)
(-0.0014361995 0 -0.0040325984)
(-0.0013374494 0 -0.0045440905)
(-0.0012389273 0 -0.0050595185)
(-0.0011426494 0 -0.0055553614)
(-0.0010504979 0 -0.0060090982)
(-0.00096360785 0 -0.0064034752)
(-0.00088297014 0 -0.0067259932)
(-0.0008087117 0 -0.0069706075)
(-0.00074085794 0 -0.0071346814)
(-0.00067877848 0 -0.0072203023)
(-0.00062214431 0 -0.0072280952)
(-0.00056996429 0 -0.0071580057)
(-0.00052103716 0 -0.0070041242)
(-0.00047453685 0 -0.0067616713)
(-0.00042953652 0 -0.006425468)
(-0.00038530313 0 -0.0059889561)
(-0.00033753436 0 -0.0054103207)
(-0.00028685445 0 -0.0046913095)
(-0.0002252824 0 -0.0037398075)
(-0.00015261406 0 -0.0025345967)
(-5.8016714e-05 0 -0.00093424621)
(-0.0021396879 0 -0.00099591304)
(-0.0021396692 0 -0.00099605065)
(-0.0021396215 0 -0.0009962248)
(-0.0021395329 0 -0.00099646223)
(-0.0021393858 0 -0.00099678666)
(-0.0021391559 0 -0.00099723332)
(-0.0021388096 0 -0.00099785117)
(-0.0021383012 0 -0.00099871112)
(-0.0021375685 0 -0.00099991175)
(-0.0021365278 0 -0.0010015944)
(-0.0021350668 0 -0.0010039551)
(-0.0021330361 0 -0.0010072716)
(-0.0021302388 0 -0.0010119303)
(-0.0021264172 0 -0.0010184759)
(-0.0021212379 0 -0.0010276641)
(-0.0021142755 0 -0.0010405493)
(-0.0021049943 0 -0.0010585787)
(-0.0020927349 0 -0.0010837568)
(-0.0020767036 0 -0.0011187593)
(-0.0020559798 0 -0.0011671736)
(-0.0020295383 0 -0.0012336545)
(-0.001996302 0 -0.0013240877)
(-0.0019552316 0 -0.0014455999)
(-0.0019054562 0 -0.0016063195)
(-0.0018464158 0 -0.001814782)
(-0.0017780287 0 -0.0020787629)
(-0.0017007518 0 -0.0024038876)
(-0.0016156758 0 -0.0027914791)
(-0.0015243466 0 -0.0032374089)
(-0.0014288267 0 -0.0037302101)
(-0.0013312435 0 -0.0042525076)
(-0.0012338889 0 -0.0047816558)
(-0.0011387025 0 -0.0052939509)
(-0.0010474804 0 -0.0057665189)
(-0.00096135095 0 -0.0061813982)
(-0.00088127613 0 -0.006525319)
(-0.00080742923 0 -0.0067914112)
(-0.0007398531 0 -0.0069764486)
(-0.00067797275 0 -0.0070818051)
(-0.00062145173 0 -0.0071079521)
(-0.00056933863 0 -0.0070546519)
(-0.00052049466 0 -0.0069165144)
(-0.00047405463 0 -0.0066886358)
(-0.00042909729 0 -0.0063656208)
(-0.00038478922 0 -0.0059400786)
(-0.0003371488 0 -0.0053731168)
(-0.00028632339 0 -0.0046617552)
(-0.00022494455 0 -0.0037201768)
(-0.00015211578 0 -0.0025200983)
(-5.7377157e-05 0 -0.00092435876)
(-0.0021313401 0 -0.00071186581)
(-0.0021313154 0 -0.00071181328)
(-0.0021312601 0 -0.00071175909)
(-0.0021311618 0 -0.00071172586)
(-0.0021310027 0 -0.00071173136)
(-0.0021307577 0 -0.00071180394)
(-0.0021303927 0 -0.00071198195)
(-0.0021298605 0 -0.00071232417)
(-0.0021290979 0 -0.00071291447)
(-0.002128019 0 -0.00071387622)
(-0.0021265096 0 -0.0007153876)
(-0.0021244172 0 -0.00071770611)
(-0.002121542 0 -0.00072120047)
(-0.002117622 0 -0.0007263934)
(-0.0021123196 0 -0.0007340273)
(-0.0021052043 0 -0.00074513901)
(-0.0020957359 0 -0.00076118185)
(-0.0020832493 0 -0.0007841397)
(-0.0020669501 0 -0.0008167454)
(-0.002045918 0 -0.00086262445)
(-0.0020191365 0 -0.00092653403)
(-0.0019855465 0 -0.0010145045)
(-0.001944141 0 -0.0011338581)
(-0.0018940958 0 -0.0012929669)
(-0.0018349143 0 -0.0015006356)
(-0.0017665807 0 -0.0017649374)
(-0.0016896177 0 -0.0020917655)
(-0.0016051398 0 -0.0024827977)
(-0.0015147022 0 -0.0029340907)
(-0.0014202969 0 -0.0034345348)
(-0.0013239691 0 -0.0039669769)
(-0.0012278854 0 -0.0045089775)
(-0.0011338966 0 -0.0050367356)
(-0.0010437144 0 -0.0055270861)
(-0.00095844859 0 -0.0059614625)
(-0.00087903532 0 -0.0063258784)
(-0.00080568533 0 -0.0066126921)
(-0.00073846222 0 -0.0068180827)
(-0.00067684155 0 -0.0069427406)
(-0.00062048805 0 -0.0069869299)
(-0.00056848668 0 -0.0069502229)
(-0.00051975817 0 -0.0068276596)
(-0.00047340671 0 -0.0066142275)
(-0.00042851631 0 -0.006304341)
(-0.00038416567 0 -0.0058898546)
(-0.00033665692 0 -0.0053344559)
(-0.00028572221 0 -0.004631032)
(-0.00022453146 0 -0.0036993236)
(-0.00015158343 0 -0.0025049131)
(-5.6754262e-05 0 -0.00091456261)
(-0.002122039 0 -0.00043397017)
(-0.0021220075 0 -0.00043374125)
(-0.0021219436 0 -0.00043348041)
(-0.0021218344 0 -0.00043319908)
(-0.0021216613 0 -0.0004329048)
(-0.0021213985 0 -0.00043261487)
(-0.0021210106 0 -0.00043235677)
(-0.0021204495 0 -0.0004321785)
(-0.0021196504 0 -0.00043215097)
(-0.0021185257 0 -0.00043238565)
(-0.0021169587 0 -0.00043304419)
(-0.0021147944 0 -0.00043436836)
(-0.002111829 0 -0.00043670561)
(-0.0021077965 0 -0.00044056272)
(-0.0021023543 0 -0.00044666054)
(-0.0020950664 0 -0.0004560268)
(-0.0020853869 0 -0.00047009781)
(-0.0020726472 0 -0.00049089151)
(-0.0020560487 0 -0.00052113937)
(-0.0020346745 0 -0.00056454713)
(-0.002007517 0 -0.00062597012)
(-0.0019735378 0 -0.00071159047)
(-0.0019317645 0 -0.0008289286)
(-0.0018814245 0 -0.00098659166)
(-0.0018220879 0 -0.0011936423)
(-0.0017538112 0 -0.001458412)
(-0.0016771816 0 -0.0017870333)
(-0.0015933433 0 -0.0021814613)
(-0.0015038551 0 -0.0026379158)
(-0.0014106389 0 -0.0031455949)
(-0.0013156532 0 -0.0036875607)
(-0.0012209371 0 -0.0042416019)
(-0.0011282481 0 -0.0047838688)
(-0.0010392094 0 -0.0052909898)
(-0.00095490673 0 -0.0057438682)
(-0.00087624834 0 -0.0061278745)
(-0.00080347928 0 -0.0064346396)
(-0.00073668167 0 -0.0066597529)
(-0.0006753827 0 -0.0068032521)
(-0.00061924933 0 -0.0068651424)
(-0.00056740578 0 -0.0068448124)
(-0.00051882464 0 -0.0067376296)
(-0.00047259133 0 -0.0065385116)
(-0.00042779123 0 -0.0062416701)
(-0.00038343017 0 -0.005838313)
(-0.00033605742 0 -0.0052943616)
(-0.00028505045 0 -0.0045991747)
(-0.00022404424 0 -0.0036772755)
(-0.0001510174 0 -0.0024890417)
(-5.6147455e-05 0 -0.00090481875)
(-0.0021118121 0 -0.00016208746)
(-0.0021117713 0 -0.0001616685)
(-0.0021116958 0 -0.00016117873)
(-0.0021115723 0 -0.00016062759)
(-0.0021113816 0 -0.00016001795)
(-0.0021110971 0 -0.00015935984)
(-0.0021106825 0 -0.00015867164)
(-0.0021100883 0 -0.00015798775)
(-0.0021092478 0 -0.00015736535)
(-0.0021080713 0 -0.00015689727)
(-0.0021064394 0 -0.0001567283)
(-0.0021041936 0 -0.00015707974)
(-0.0021011264 0 -0.00015828268)
(-0.0020969672 0 -0.00016082246)
(-0.002091368 0 -0.00016540689)
(-0.002083887 0 -0.0001730476)
(-0.0020739731 0 -0.00018518929)
(-0.0020609515 0 -0.0002038356)
(-0.0020440231 0 -0.00023178472)
(-0.0020222727 0 -0.00027279236)
(-0.001994704 0 -0.00033183043)
(-0.001960301 0 -0.00041523768)
(-0.0019181293 0 -0.0005307308)
(-0.0018674719 0 -0.00068714375)
(-0.0018079698 0 -0.00089377986)
(-0.0017397562 0 -0.0011591979)
(-0.0016634832 0 -0.0014897351)
(-0.0015803277 0 -0.0018875554)
(-0.0014918469 0 -0.0023490116)
(-0.0013998933 0 -0.0028635573)
(-0.0013063317 0 -0.0034144767)
(-0.0012130753 0 -0.0039797858)
(-0.0011217806 0 -0.0045356512)
(-0.0010339837 0 -0.0050585517)
(-0.00095073727 0 -0.0055289529)
(-0.00087292377 0 -0.0059316382)
(-0.00080081533 0 -0.0062575665)
(-0.0007345147 0 -0.0065017468)
(-0.00067359622 0 -0.00666359)
(-0.00061773583 0 -0.0067428091)
(-0.00056609417 0 -0.0067385972)
(-0.00051769389 0 -0.0066465814)
(-0.00047160721 0 -0.006461609)
(-0.00042692215 0 -0.0061777154)
(-0.00038258093 0 -0.0057855188)
(-0.00033535194 0 -0.0052529133)
(-0.00028430487 0 -0.0045661811)
(-0.0002234836 0 -0.003654072)
(-0.00015041637 0 -0.0024725002)
(-5.5553985e-05 0 -0.00089513694)
(-0.0021006856 0 0.00010389577)
(-0.0021006349 0 0.00010449026)
(-0.0021005472 0 0.00010518616)
(-0.0021004083 0 0.00010598431)
(-0.0021001983 0 0.00010689201)
(-0.0020998894 0 0.00010790965)
(-0.0020994441 0 0.00010902948)
(-0.0020988115 0 0.00011022712)
(-0.0020979231 0 0.00011145771)
(-0.0020966868 0 0.00011264019)
(-0.0020949807 0 0.00011364564)
(-0.0020926428 0 0.0001142683)
(-0.0020894611 0 0.0001141978)
(-0.0020851602 0 0.00011296432)
(-0.0020793862 0 0.00010987992)
(-0.0020716912 0 0.0001039409)
(-0.0020615173 0 9.3716246e-05)
(-0.0020481864 0 7.7162366e-05)
(-0.0020308955 0 5.1472543e-05)
(-0.0020087342 0 1.279496e-05)
(-0.0019807183 0 -4.3957666e-05)
(-0.0019458571 0 -0.00012528976)
(-0.0019032571 0 -0.00023911368)
(-0.001852261 0 -0.00039448231)
(-0.0017925855 0 -0.00060092333)
(-0.0017244441 0 -0.00086719071)
(-0.0016485544 0 -0.0011997848)
(-0.001566127 0 -0.0016010129)
(-0.0014787131 0 -0.0020673336)
(-0.0013880934 0 -0.0025884163)
(-0.0012960357 0 -0.0031477533)
(-0.0012043251 0 -0.0037236068)
(-0.001114515 0 -0.0042921952)
(-0.001028051 0 -0.0048299227)
(-0.00094594991 0 -0.0053168833)
(-0.00086906574 0 -0.0057373455)
(-0.00079769544 0 -0.0060816428)
(-0.00073196 0 -0.0063442207)
(-0.00067148137 0 -0.0065238904)
(-0.0006159449 0 -0.0066200413)
(-0.00056454997 0 -0.0066316704)
(-0.00051636337 0 -0.0065545855)
(-0.00047045288 0 -0.0063835845)
(-0.00042590691 0 -0.0061125194)
(-0.00038161588 0 -0.005731503)
(-0.00033453899 0 -0.0052101333)
(-0.00028348495 0 -0.0045320849)
(-0.00022285095 0 -0.0036297457)
(-0.00014978058 0 -0.0024552902)
(-5.4973885e-05 0 -0.00088548756)
(-0.0020886875 0 0.00036411234)
(-0.0020886245 0 0.00036489445)
(-0.0020885215 0 0.00036581506)
(-0.0020883638 0 0.00036687833)
(-0.0020881309 0 0.00036809635)
(-0.0020877939 0 0.00036947784)
(-0.0020873142 0 0.00037102398)
(-0.0020866389 0 0.00037272357)
(-0.0020856975 0 0.00037454486)
(-0.0020843953 0 0.00037642426)
(-0.002082607 0 0.00037824885)
(-0.0020801668 0 0.00037983194)
(-0.0020768584 0 0.0003808788)
(-0.0020724004 0 0.00038094006)
(-0.0020664332 0 0.00037933997)
(-0.0020585021 0 0.00037508885)
(-0.0020480433 0 0.0003667453)
(-0.0020343722 0 0.00035227278)
(-0.0020166868 0 0.00032878366)
(-0.0019940801 0 0.0002923578)
(-0.0019655824 0 0.00023777216)
(-0.0019302304 0 0.00015835049)
(-0.0018871747 0 4.599091e-05)
(-0.0018358222 0 -0.00010856728)
(-0.0017759696 0 -0.00031505996)
(-0.0017079138 0 -0.0005824031)
(-0.0016324378 0 -0.00091722062)
(-0.0015507865 0 -0.0013219048)
(-0.0014644993 0 -0.0017929847)
(-0.001375284 0 -0.0023203048)
(-0.0012848057 0 -0.0028875655)
(-0.0011947225 0 -0.0034732747)
(-0.0011064798 0 -0.0040537518)
(-0.0010214344 0 -0.0046053769)
(-0.00094056086 0 -0.0051079545)
(-0.00086468643 0 -0.0055452922)
(-0.00079412708 0 -0.0059071553)
(-0.00072902321 0 -0.0061874426)
(-0.00066904034 0 -0.0063843927)
(-0.00061387833 0 -0.0064970507)
(-0.00056277287 0 -0.0065242067)
(-0.0005148337 0 -0.0064617966)
(-0.00046912781 0 -0.0063045607)
(-0.00042474593 0 -0.0060461897)
(-0.00038053375 0 -0.0056763352)
(-0.00033362004 0 -0.0051660997)
(-0.00028258811 0 -0.0044968923)
(-0.00022214648 0 -0.0036043306)
(-0.00014910896 0 -0.00243743)
(-5.4404342e-05 0 -0.00087587709)
(-0.0020758473 0 0.00061867352)
(-0.0020757711 0 0.00061963293)
(-0.0020756517 0 0.00062076209)
(-0.0020754739 0 0.00062207513)
(-0.0020752157 0 0.00062359327)
(-0.0020748473 0 0.00062533403)
(-0.0020743284 0 0.00062730948)
(-0.0020736045 0 0.00062951798)
(-0.002072603 0 0.00063194061)
(-0.0020712265 0 0.00063452508)
(-0.0020693462 0 0.00063717463)
(-0.0020667924 0 0.00063971816)
(-0.0020633434 0 0.00064188104)
(-0.0020587124 0 0.00064322881)
(-0.0020525326 0 0.00064310496)
(-0.0020443425 0 0.0006405264)
(-0.002033571 0 0.00063406086)
(-0.0020195306 0 0.00062162459)
(-0.0020014164 0 0.00060030063)
(-0.0019783293 0 0.00056604849)
(-0.0019493151 0 0.00051351072)
(-0.0019134406 0 0.00043582803)
(-0.001869903 0 0.00032472014)
(-0.0018181782 0 0.00017072865)
(-0.001758148 0 -3.6074859e-05)
(-0.0016901949 0 -0.00030473753)
(-0.0016151676 0 -0.00064195863)
(-0.0015343429 0 -0.0010501584)
(-0.001449244 0 -0.001525908)
(-0.0013615019 0 -0.0020591954)
(-0.0012726762 0 -0.0026339131)
(-0.0011842964 0 -0.0032288315)
(-0.0010976993 0 -0.0038203953)
(-0.0010141511 0 -0.0043850276)
(-0.00093458302 0 -0.0049022994)
(-0.00085979305 0 -0.0053556258)
(-0.00079011468 0 -0.0057342516)
(-0.00072570519 0 -0.0060315531)
(-0.00066627385 0 -0.0062452225)
(-0.00061153475 0 -0.006373943)
(-0.0005607618 0 -0.0064162965)
(-0.0005131029 0 -0.0063682845)
(-0.00046763083 0 -0.0062246007)
(-0.00042343731 0 -0.0059787693)
(-0.00037933274 0 -0.0056200475)
(-0.00033259354 0 -0.0051208339)
(-0.00028161389 0 -0.0044606377)
(-0.00022137162 0 -0.0035778607)
(-0.00014840168 0 -0.0024189223)
(-5.3845703e-05 0 -0.00086628148)
(-0.0020621904 0 0.0008677046)
(-0.0020620985 0 0.00086885015)
(-0.0020619597 0 0.00087020301)
(-0.002061758 0 0.00087177988)
(-0.0020614708 0 0.00087360735)
(-0.002061067 0 0.00087571082)
(-0.0020605049 0 0.00087811049)
(-0.0020597277 0 0.00088081827)
(-0.0020586605 0 0.00088382739)
(-0.0020572026 0 0.00088710335)
(-0.0020552216 0 0.00089056473)
(-0.002052543 0 0.00089405962)
(-0.00204894 0 0.00089732875)
(-0.0020441191 0 0.00089995817)
(-0.0020377065 0 0.00090130334)
(-0.002029233 0 0.00090039416)
(-0.0020181213 0 0.00089578654)
(-0.0020036779 0 0.00088539183)
(-0.0019851024 0 0.00086617755)
(-0.0019615011 0 0.00083400757)
(-0.0019319377 0 0.00078337538)
(-0.0018955121 0 0.00070722522)
(-0.0018514696 0 0.00059712714)
(-0.0017993609 0 0.00044343378)
(-0.0017391575 0 0.00023603497)
(-0.0016713296 0 -3.4211447e-05)
(-0.0015967899 0 -0.0003740353)
(-0.0015168452 0 -0.00078583413)
(-0.0014329969 0 -0.0012661863)
(-0.0013467958 0 -0.0018051924)
(-0.0012596918 0 -0.002386934)
(-0.0011730866 0 -0.0029904452)
(-0.0010882059 0 -0.0035923317)
(-0.0010062281 0 -0.0041691046)
(-0.00092803637 0 -0.0047001723)
(-0.00085440102 0 -0.0051686076)
(-0.00078566866 0 -0.0055631915)
(-0.00072201387 0 -0.0058767996)
(-0.00066318619 0 -0.006106606)
(-0.00060891747 0 -0.0062509209)
(-0.00055851783 0 -0.0063081109)
(-0.00051117243 0 -0.006274201)
(-0.00046596213 0 -0.0061438277)
(-0.00042198184 0 -0.0059103657)
(-0.0003780121 0 -0.0055627132)
(-0.00033146089 0 -0.0050744135)
(-0.00028056014 0 -0.004423333)
(-0.0002205262 0 -0.0035503666)
(-0.00014765782 0 -0.0023997865)
(-5.3295143e-05 0 -0.00085670459)
(-0.0020477398 0 0.0011113117)
(-0.0020476313 0 0.0011126336)
(-0.0020474722 0 0.0011141942)
(-0.0020472455 0 0.0011160197)
(-0.0020469272 0 0.0011181454)
(-0.0020464848 0 0.0011206059)
(-0.0020458749 0 0.001123432)
(-0.0020450387 0 0.0011266449)
(-0.0020438985 0 0.0011302509)
(-0.0020423506 0 0.0011342271)
(-0.0020402587 0 0.001138508)
(-0.0020374432 0 0.0011429576)
(-0.0020336713 0 0.0011473365)
(-0.0020286427 0 0.0011512464)
(-0.0020219759 0 0.0011540615)
(-0.0020131935 0 0.0011548203)
(-0.0020017104 0 0.001152087)
(-0.0019868317 0 0.001143722)
(-0.0019677609 0 0.0011265796)
(-0.0019436125 0 0.0010963891)
(-0.0019134678 0 0.0010475157)
(-0.0018764644 0 0.00097267077)
(-0.0018318953 0 0.00086333386)
(-0.0017793932 0 0.00070966214)
(-0.0017190259 0 0.00050137468)
(-0.0016513495 0 0.00022926805)
(-0.0015773412 0 -0.00011336569)
(-0.0014983331 0 -0.00052885138)
(-0.0014157991 0 -0.0010137491)
(-0.0013312055 0 -0.0015582467)
(-0.0012458897 0 -0.0021466004)
(-0.0011611252 0 -0.0027581242)
(-0.001078027 0 -0.0033695995)
(-0.00099768575 0 -0.0039576845)
(-0.00092093647 0 -0.0045016722)
(-0.00084852022 0 -0.0049843555)
(-0.00078079558 0 -0.0053940989)
(-0.00071795209 0 -0.0057233045)
(-0.00065977934 0 -0.005968656)
(-0.0006060263 0 -0.0061280824)
(-0.00055604064 0 -0.0061997353)
(-0.00050904088 0 -0.0061796139)
(-0.00046412082 0 -0.0060623023)
(-0.00042037788 0 -0.005841022)
(-0.0003765702 0 -0.0055043654)
(-0.00033022051 0 -0.00502686)
(-0.00027942665 0 -0.0043850157)
(-0.00021961163 0 -0.0035218831)
(-0.00014687764 0 -0.0023800273)
(-5.2753195e-05 0 -0.0008471269)
(-0.0020325219 0 0.0013496147)
(-0.0020323944 0 0.0013511215)
(-0.0020322118 0 0.0013529027)
(-0.0020319564 0 0.0013549883)
(-0.0020316033 0 0.0013574192)
(-0.0020311184 0 0.0013602384)
(-0.0020304563 0 0.0013634854)
(-0.0020295561 0 0.001367195)
(-0.002028337 0 0.0013713856)
(-0.0020266915 0 0.0013760519)
(-0.0020244789 0 0.0013811437)
(-0.0020215143 0 0.0013865431)
(-0.0020175586 0 0.0013920274)
(-0.0020123039 0 0.0013972181)
(-0.00200536 0 0.001401505)
(-0.0019962407 0 0.0014039426)
(-0.0019843539 0 0.0014030938)
(-0.0019690004 0 0.0013968384)
(-0.0019494063 0 0.0013816771)
(-0.001924681 0 0.0013533258)
(-0.0018939254 0 0.0013060437)
(-0.0018563231 0 0.0012322207)
(-0.0018112083 0 0.0011233745)
(-0.0017583087 0 0.00096942991)
(-0.0016977922 0 0.0007599356)
(-0.0016303003 0 0.00048567661)
(-0.0015568714 0 0.00014001382)
(-0.001478859 0 -0.00027926042)
(-0.0013977038 0 -0.00076865917)
(-0.0013147827 0 -0.001318435)
(-0.0012313174 0 -0.0019130151)
(-0.0011484548 0 -0.0025319973)
(-0.001067198 0 -0.0031523611)
(-0.00098855376 0 -0.0037509544)
(-0.00091330629 0 -0.0043070134)
(-0.00084216875 0 -0.0048030951)
(-0.00077550846 0 -0.0052272042)
(-0.00071352984 0 -0.005571292)
(-0.00065605954 0 -0.0058315828)
(-0.000602866 0 -0.0060056189)
(-0.00055333267 0 -0.0060913351)
(-0.00050671056 0 -0.0060846705)
(-0.00046210786 0 -0.0059801466)
(-0.00041862664 0 -0.0057708449)
(-0.00037500684 0 -0.0054450803)
(-0.00032887385 0 -0.0049782502)
(-0.00027821155 0 -0.0043457016)
(-0.00021862748 0 -0.0034924384)
(-0.00014606032 0 -0.0023596659)
(-5.2217e-05 0 -0.00083755013)
(-0.0020165605 0 0.0015827165)
(-0.0020164129 0 0.001584399)
(-0.0020162057 0 0.0015863872)
(-0.0020159201 0 0.0015887202)
(-0.0020155296 0 0.0015914478)
(-0.0020149985 0 0.001594622)
(-0.0020142793 0 0.0015982934)
(-0.0020133086 0 0.0016025062)
(-0.0020120026 0 0.0016072919)
(-0.0020102501 0 0.0016126569)
(-0.0020079057 0 0.0016185666)
(-0.0020047787 0 0.0016249196)
(-0.002000623 0 0.0016315129)
(-0.0019951223 0 0.0016379867)
(-0.001987877 0 0.0016437519)
(-0.0019783908 0 0.0016478782)
(-0.001966063 0 0.0016489301)
(-0.0019502355 0 0.0016443416)
(-0.0019301056 0 0.0016309171)
(-0.0019047768 0 0.0016042231)
(-0.0018733785 0 0.0015584318)
(-0.0018351085 0 0.0014859693)
(-0.0017894292 0 0.0013773502)
(-0.0017361312 0 0.0012228363)
(-0.001675486 0 0.0010118095)
(-0.0016082161 0 0.00073509587)
(-0.0015354193 0 0.00038618666)
(-0.0014584652 0 -3.6975077e-05)
(-0.0013787543 0 -0.00053083428)
(-0.0012975694 0 -0.0010856895)
(-0.0012160142 0 -0.0016861255)
(-0.0011351094 0 -0.0023120426)
(-0.0010557481 0 -0.0029406215)
(-0.0009788549 0 -0.0035489559)
(-0.00090516348 0 -0.0041162612)
(-0.00083535862 0 -0.0046249141)
(-0.00076981568 0 -0.0050626059)
(-0.00070875169 0 -0.0054208643)
(-0.00065203003 0 -0.0056954842)
(-0.00059943749 0 -0.0058836181)
(-0.00055039434 0 -0.0059829888)
(-0.00050418065 0 -0.0059894348)
(-0.00045992268 0 -0.0058974181)
(-0.00041672679 0 -0.0056998768)
(-0.0003733206 0 -0.0053848908)
(-0.00032741933 0 -0.004928606)
(-0.00027691489 0 -0.0043054308)
(-0.00021757513 0 -0.0034620679)
(-0.00014520623 0 -0.0023387086)
(-5.1687228e-05 0 -0.00082795814)
(-0.0019998774 0 0.0018107305)
(-0.0019997072 0 0.0018125961)
(-0.0019994724 0 0.0018148025)
(-0.001999153 0 0.0018173939)
(-0.0019987212 0 0.0018204262)
(-0.0019981396 0 0.0018239599)
(-0.0019973587 0 0.0018280541)
(-0.0019963121 0 0.0018327655)
(-0.0019949127 0 0.0018381374)
(-0.0019930451 0 0.001844192)
(-0.0019905586 0 0.0018509112)
(-0.0019872563 0 0.0018582111)
(-0.0019828841 0 0.0018659086)
(-0.0019771168 0 0.0018736659)
(-0.0019695438 0 0.0018809194)
(-0.0019596594 0 0.0018867514)
(-0.001946906 0 0.0018893231)
(-0.0019306003 0 0.0018861621)
(-0.0019098971 0 0.0018742483)
(-0.0018839269 0 0.0018490401)
(-0.0018518375 0 0.0018045517)
(-0.0018128735 0 0.0017333173)
(-0.0017665865 0 0.0016252841)
(-0.0017128957 0 0.0014698877)
(-0.0016521499 0 0.0012569768)
(-0.0015851462 0 0.00097749802)
(-0.0015130385 0 0.0006251185)
(-0.0014372076 0 0.00019796533)
(-0.001359007 0 -0.00030031855)
(-0.00127962 0 -0.00086006132)
(-0.00120003 0 -0.0014660024)
(-0.0011211341 0 -0.0020983527)
(-0.0010437151 0 -0.0027345035)
(-0.000968621 0 -0.0033518361)
(-0.00089653338 0 -0.0039295917)
(-0.00082811011 0 -0.0044500037)
(-0.00076373241 0 -0.0049005054)
(-0.00070362941 0 -0.005272222)
(-0.00064769875 0 -0.0055605529)
(-0.00059574686 0 -0.0057622586)
(-0.00054722933 0 -0.0058748546)
(-0.00050145429 0 -0.0058940492)
(-0.00045756698 0 -0.0058142369)
(-0.00041467995 0 -0.0056282231)
(-0.0003715118 0 -0.0053238759)
(-0.0003258585 0 -0.0048780037)
(-0.00027553502 0 -0.0042642223)
(-0.00021645393 0 -0.003430798)
(-0.00014431454 0 -0.0023171769)
(-5.1161127e-05 0 -0.00081835215)
(-0.0019824998 0 0.0020337586)
(-0.0019823053 0 0.0020358048)
(-0.0019820406 0 0.0020382259)
(-0.0019816847 0 0.0020410723)
(-0.0019812082 0 0.0020444073)
(-0.0019805718 0 0.0020482992)
(-0.0019797237 0 0.0020528167)
(-0.0019785945 0 0.0020580275)
(-0.0019770937 0 0.0020639874)
(-0.0019751011 0 0.0020707328)
(-0.0019724608 0 0.0020782607)
(-0.0019689686 0 0.0020865062)
(-0.0019643624 0 0.0020953053)
(-0.0019583063 0 0.0021043446)
(-0.0019503773 0 0.0021131043)
(-0.0019401065 0 0.0021203522)
(-0.0019269207 0 0.0021242648)
(-0.0019100773 0 0.0021226599)
(-0.0018887589 0 0.0021122501)
(-0.0018621068 0 0.0020884294)
(-0.0018292965 0 0.002045051)
(-0.0017896385 0 0.0019743336)
(-0.0017427355 0 0.0018666314)
(-0.0016886263 0 0.0017106753)
(-0.0016278159 0 0.0014955114)
(-0.0015611274 0 0.0012129546)
(-0.0014897702 0 0.0008568904)
(-0.0014151304 0 0.00042565172)
(-0.0013385067 0 -7.7019377e-05)
(-0.0012609777 0 -0.00064146629)
(-0.0011834048 0 -0.0012525713)
(-0.0011065639 0 -0.0018908799)
(-0.0010311292 0 -0.0025339828)
(-0.00095787625 0 -0.003159606)
(-0.00088743495 0 -0.00374704)
(-0.00082043677 0 -0.0042784231)
(-0.00075726839 0 -0.0047409764)
(-0.00069816893 0 -0.005125447)
(-0.00064306989 0 -0.0054268712)
(-0.00059179595 0 -0.0056416171)
(-0.00054383865 0 -0.0057670031)
(-0.00049853119 0 -0.0057985731)
(-0.00045504041 0 -0.0057306566)
(-0.00041248504 0 -0.005555925)
(-0.00036957913 0 -0.0052620679)
(-0.00032418981 0 -0.0048264657)
(-0.00027407223 0 -0.0042221192)
(-0.00021526528 0 -0.0033986653)
(-0.00014338578 0 -0.0022950798)
(-5.0639389e-05 0 -0.00080871804)
(-0.001964446 0 0.002251904)
(-0.0019642253 0 0.0022541303)
(-0.0019639285 0 0.0022567656)
(-0.0019635332 0 0.0022598663)
(-0.0019630086 0 0.0022635028)
(-0.0019623132 0 0.0022677519)
(-0.0019613927 0 0.0022726918)
(-0.0019601748 0 0.0022784004)
(-0.0019585647 0 0.0022849464)
(-0.0019564378 0 0.0022923798)
(-0.0019536319 0 0.0023007131)
(-0.0019499358 0 0.0023098971)
(-0.0019450783 0 0.0023197818)
(-0.0019387133 0 0.0023300604)
(-0.0019304284 0 0.0023401806)
(-0.0019197656 0 0.0023486979)
(-0.001906093 0 0.0023540819)
(-0.0018886776 0 0.0023539813)
(-0.0018667057 0 0.002345015)
(-0.0018393336 0 0.0023224729)
(-0.001805773 0 0.0022800192)
(-0.001765399 0 0.002209634)
(-0.0017179114 0 0.0021013964)
(-0.0016634004 0 0.001944593)
(-0.0016025305 0 0.001727386)
(-0.0015362129 0 0.0014414339)
(-0.0014656716 0 0.0010814735)
(-0.0013922925 0 0.00064605878)
(-0.0013173121 0 0.0001390404)
(-0.0012416987 0 -0.00042992961)
(-0.00116619 0 -0.0010458713)
(-0.0010914449 0 -0.0016896825)
(-0.0010180295 0 -0.0023391438)
(-0.00094665379 0 -0.0029723738)
(-0.00087789518 0 -0.0035687442)
(-0.0008123605 0 -0.0041103287)
(-0.00075044049 0 -0.0045841906)
(-0.00069238349 0 -0.0049807148)
(-0.00063815292 0 -0.0052946127)
(-0.00058759203 0 -0.0055218576)
(-0.00054022717 0 -0.0056595834)
(-0.00049541526 0 -0.005703142)
(-0.0004523454 0 -0.0056467941)
(-0.00041014415 0 -0.0054830859)
(-0.00036752349 0 -0.0051995474)
(-0.00032241496 0 -0.0047740681)
(-0.00027252507 0 -0.0041791428)
(-0.00021400837 0 -0.0033656951)
(-0.00014241908 0 -0.0022724389)
(-5.0119369e-05 0 -0.00079905727)
(-0.0019457363 0 0.0024652671)
(-0.0019454873 0 0.0024676733)
(-0.001945156 0 0.0024705221)
(-0.0019447185 0 0.0024738764)
(-0.0019441422 0 0.0024778135)
(-0.0019433836 0 0.0024824185)
(-0.0019423856 0 0.0024877792)
(-0.0019410724 0 0.002493985)
(-0.0019393452 0 0.0025011165)
(-0.0019370741 0 0.0025092377)
(-0.0019340905 0 0.0025183769)
(-0.0019301754 0 0.0025285033)
(-0.0019250481 0 0.0025394893)
(-0.0019183541 0 0.0025510471)
(-0.0019097134 0 0.0025622785)
(-0.0018986241 0 0.0025721131)
(-0.001884436 0 0.002578908)
(-0.0018664142 0 0.0025802401)
(-0.0018437495 0 0.0025726461)
(-0.0018156184 0 0.0025512813)
(-0.0017812783 0 0.0025095757)
(-0.0017401684 0 0.0024393304)
(-0.0016921002 0 0.0023302491)
(-0.001637247 0 0.002171742)
(-0.0015763101 0 0.0019526623)
(-0.0015104431 0 0.0016629982)
(-0.0014407865 0 0.0012989524)
(-0.0013687402 0 0.00085928785)
(-0.0012954696 0 0.0003479677)
(-0.001221827 0 -0.00022534795)
(-0.0011484261 0 -0.0008458047)
(-0.0010758126 0 -0.0014946868)
(-0.0010044465 0 -0.0021499335)
(-0.0009349786 0 -0.0027901208)
(-0.00086793384 0 -0.0033947101)
(-0.00080389589 0 -0.0039457516)
(-0.0007432595 0 -0.0044301966)
(-0.00068628016 0 -0.0048380854)
(-0.00063295287 0 -0.0051638424)
(-0.00058313778 0 -0.0054030439)
(-0.00053639651 0 -0.0055526569)
(-0.00049210672 0 -0.0056078097)
(-0.0004494819 0 -0.0055626988)
(-0.00040765643 0 -0.0054097454)
(-0.00036534372 0 -0.0051363465)
(-0.0003205325 0 -0.004720834)
(-0.00027089409 0 -0.0041353388)
(-0.00021268463 0 -0.0033319252)
(-0.0001414151 0 -0.0022492655)
(-4.9601821e-05 0 -0.00078935786)
(-0.0019263909 0 0.002673946)
(-0.0019261117 0 0.0026765322)
(-0.0019257433 0 0.0026795946)
(-0.0019252605 0 0.0026832022)
(-0.0019246289 0 0.0026874396)
(-0.0019238025 0 0.0026924001)
(-0.0019227214 0 0.0026981809)
(-0.0019213062 0 0.0027048818)
(-0.0019194536 0 0.0027125962)
(-0.001917028 0 0.0027214023)
(-0.0019138538 0 0.0027313446)
(-0.0019097029 0 0.0027424122)
(-0.001904283 0 0.0027545071)
(-0.0018972618 0 0.0027672152)
(-0.0018882525 0 0.0027795878)
(-0.0018767017 0 0.0027906954)
(-0.0018619644 0 0.0027988388)
(-0.001843299 0 0.0028015386)
(-0.0018199011 0 0.002795241)
(-0.0017909734 0 0.0027749506)
(-0.0017558297 0 0.0027337833)
(-0.001713968 0 0.0026634862)
(-0.0016653359 0 0.0025531773)
(-0.0016101574 0 0.0023926054)
(-0.0015492624 0 0.0021708216)
(-0.0014838762 0 0.0018776184)
(-0.0014151747 0 0.0015093046)
(-0.0013445346 0 0.0010653268)
(-0.0012730393 0 0.00054975825)
(-0.0012014195 0 -2.7724353e-05)
(-0.0011301646 0 -0.00065238348)
(-0.0010597133 0 -0.0013059233)
(-0.00099045812 0 -0.0019669062)
(-0.00092291984 0 -0.0026134342)
(-0.00085760869 0 -0.003225519)
(-0.00079508974 0 -0.0037852362)
(-0.00073574358 0 -0.0042791392)
(-0.00067987325 0 -0.0046977104)
(-0.00062748044 0 -0.0050347149)
(-0.00057844145 0 -0.005285325)
(-0.00053235251 0 -0.0054463629)
(-0.00048861017 0 -0.0055127044)
(-0.00044645301 0 -0.0054784837)
(-0.00040502443 0 -0.0053360043)
(-0.0003630412 0 -0.0050725464)
(-0.00031854426 0 -0.0046668388)
(-0.00026917797 0 -0.0040907308)
(-0.00021129319 0 -0.003297381)
(-0.00014037291 0 -0.0022255808)
(-4.9084222e-05 0 -0.00077962147)
(-0.0019064289 0 0.0028780368)
(-0.0019061173 0 0.0028808025)
(-0.0019057094 0 0.0028840781)
(-0.0019051784 0 0.0028879382)
(-0.0019044878 0 0.0028924748)
(-0.0019035892 0 0.0028977891)
(-0.0019024196 0 0.0029039874)
(-0.0019008957 0 0.0029111806)
(-0.0018989096 0 0.0029194729)
(-0.0018963195 0 0.0029289554)
(-0.0018929426 0 0.0029396846)
(-0.0018885419 0 0.0029516611)
(-0.0018828242 0 0.0029648075)
(-0.0018754729 0 0.002978523)
(-0.0018660535 0 0.0029921212)