/*--------------------------------*- C++ -*----------------------------------*\
  =========                 |
  \\      /  F ield         | OpenFOAM: The Open Source CFD Toolbox
   \\    /   O peration     | Website:  https://openfoam.org
    \\  /    A nd           | Version:  8
     \\/     M anipulation  |
\*---------------------------------------------------------------------------*/
FoamFile
{
    version     2.0;
    format      ascii;
    class       volScalarField;
    location    "0.170001";
    object      Ma;
}
// * * * * * * * * * * * * * * * * * * * * * * * * * * * * * * * * * * * * * //

dimensions      [0 0 0 0 0 0 0];

internalField   nonuniform List<scalar> 
20000
(
0.58968
0.68629032
0.75205307
0.81189679
0.87074617
0.92907907
0.96917856
0.97931349
0.97479059
0.97620916
0.97306908
0.97281475
0.97001767
0.96849673
0.96548347
0.96281469
0.95912591
0.95520741
0.95044937
0.94508841
0.93888885
0.93182784
0.92382305
0.91474881
0.90455847
0.89318564
0.88063604
0.86671545
0.85227514
0.8379345
0.8242478
0.81166353
0.80054479
0.79106154
0.78327475
0.77706123
0.77221329
0.76863191
0.76599436
0.76412426
0.7628564
0.76206642
0.76156495
0.76125032
0.76104898
0.76064165
0.76019789
0.75921314
0.75951222
0.75508702
0.59196344
0.69031143
0.75771041
0.81870712
0.87838068
0.93761607
0.97474926
0.98392691
0.97930144
0.98074444
0.9775195
0.97725071
0.97438451
0.97281253
0.96973227
0.96697208
0.96318432
0.95912016
0.95420446
0.94863724
0.94220232
0.93485966
0.92652573
0.91707064
0.90643138
0.89447351
0.88101658
0.86664155
0.85192987
0.83739501
0.82364054
0.81109449
0.80007619
0.79072507
0.78305652
0.77692643
0.77214342
0.76857921
0.76597005
0.76420127
0.76303791
0.76228487
0.76174196
0.76145961
0.76117535
0.76074486
0.76013822
0.75930139
0.75901867
0.75522494
0.59658702
0.69709137
0.76582474
0.82774663
0.88799647
0.94791024
0.98134859
0.98942341
0.98465809
0.98611683
0.98282462
0.98254502
0.97963245
0.97800967
0.97486282
0.97199974
0.96809564
0.9638688
0.95876541
0.95295177
0.94622944
0.93852524
0.92974309
0.91974029
0.90842221
0.89559852
0.881251
0.8663417
0.85125486
0.83652491
0.82271664
0.81023417
0.79934788
0.79015758
0.78264816
0.77666188
0.77199262
0.76846964
0.76593134
0.76423204
0.76312952
0.76240826
0.76187382
0.76159153
0.76125693
0.76080732
0.76014303
0.75931533
0.75883662
0.75525874
0.60191389
0.70452837
0.77451614
0.83729328
0.89797617
0.95840593
0.98814327
0.99537214
0.99054604
0.9920537
0.98872122
0.98843922
0.98547729
0.98379427
0.98057144
0.97758908
0.97355763
0.96914252
0.96383556
0.95774693
0.95068474
0.94253742
0.93317156
0.92243203
0.91018228
0.89625705
0.88115616
0.86578005
0.85032909
0.8354124
0.82157945
0.80919524
0.7984766
0.78948009
0.78215842
0.77633488
0.77179346
0.76833668
0.76587785
0.76426012
0.76322768
0.76253842
0.76201501
0.76172954
0.76134349
0.76086069
0.76014146
0.75934281
0.75853311
0.7553066
0.60808456
0.71282157
0.78398741
0.84750682
0.90852444
0.96906475
0.99519771
1.0016536
0.99673328
0.99825943
0.99485556
0.99454237
0.99151561
0.98975166
0.98644209
0.98332954
0.9791633
0.97455132
0.96901414
0.96260843
0.95513417
0.94644212
0.93633871
0.9246602
0.91126856
0.89636782
0.88080269
0.86488376
0.84907822
0.83400559
0.82018619
0.80794042
0.7974279
0.78865958
0.78155702
0.77592471
0.77153327
0.76815904
0.76579901
0.76427069
0.76329992
0.7626409
0.76213903
0.76184472
0.76142557
0.76088926
0.76014887
0.75936301
0.75828505
0.75534558
0.61487674
0.72142939
0.79356378
0.85770182
0.91896972
0.9791952
1.0019073
1.0077335
1.0027195
1.0042468
1.0007713
1.0004173
0.99732072
0.9954683
0.99206856
0.98882049
0.98451393
0.9796859
0.97388282
0.96710091
0.95911894
0.9497492
0.93876382
0.92600028
0.91161908
0.89615964
0.88005255
0.86361103
0.84748955
0.83230671
0.81854943
0.80648772
0.79622217
0.78771695
0.78086195
0.77544257
0.77121523
0.76794829
0.76570182
0.76427446
0.76336637
0.76273613
0.76225208
0.7619461
0.76151047
0.76090668
0.76015448
0.75937786
0.75801878
0.75537323
0.62135161
0.72964521
0.80267131
0.86740441
0.92893806
0.98862978
1.0079763
1.0132423
1.0081402
1.0096717
1.0061235
1.0057229
1.0025571
1.0006091
0.99711514
0.99371641
0.98924907
0.9841748
0.97803714
0.97078312
0.96217915
0.95197324
0.94007079
0.92643057
0.91149643
0.89554146
0.87881426
0.86190882
0.84553145
0.83030068
0.81666357
0.80483638
0.79486033
0.78665286
0.7800734
0.7748886
0.77083593
0.76770743
0.76559614
0.76427238
0.76342361
0.76282091
0.76235541
0.76202739
0.76158172
0.76091723
0.76016037
0.75937931
0.7577704
0.75537574
0.62747155
0.73730547
0.81109073
0.87638682
0.9381954
0.99709717
1.012974
1.0179852
1.0127883
1.0143098
1.0106854
1.0102287
1.0069912
1.0049384
1.0013387
0.99775613
0.99307304
0.98768521
0.98112479
0.97327981
0.96397974
0.95298623
0.94041424
0.92632272
0.91091611
0.89433084
0.8770462
0.85974927
0.84319357
0.82798839
0.81453635
0.8029972
0.79335369
0.78547753
0.77919966
0.77426892
0.77039898
0.76743906
0.76547961
0.76426598
0.76347672
0.76289952
0.76245364
0.76209197
0.76162708
0.76092343
0.7601623
0.75936367
0.75752717
0.75535503
0.63286637
0.74410455
0.8186095
0.88444436
0.9466033
1.0044344
1.0169891
1.0218047
1.0165187
1.0180262
1.014327
1.0138016
1.0104817
1.0082976
1.0045584
1.000733
0.9957574
0.98994433
0.98290502
0.97448792
0.96463717
0.95316972
0.94023958
0.92570415
0.90969358
0.89248879
0.87471228
0.85711467
0.84047063
0.82537316
0.81217583
0.80097999
0.79171162
0.78419873
0.77824691
0.77358917
0.76990987
0.76714293
0.76534258
0.76424507
0.76352354
0.76296828
0.76254119
0.76214352
0.76164499
0.76092292
0.76015764
0.7593254
0.75729568
0.75531705
0.63755119
0.75005101
0.82522699
0.89157657
0.95414751
1.0105946
1.0200127
1.0246893
1.0193049
1.0207824
1.0169964
1.0163632
1.0129382
1.0105678
1.0066199
1.0024897
0.99718779
0.9909625
0.98354889
0.97477985
0.96463954
0.952866
0.93950543
0.92438156
0.90774017
0.88998449
0.87180598
0.85400598
0.83737083
0.82246758
0.80959634
0.79879887
0.78994663
0.78282676
0.77722325
0.7728556
0.76937588
0.76682103
0.7651795
0.76419437
0.76355665
0.76302195
0.76260807
0.76218743
0.76164792
0.76091081
0.76014242
0.75925552
0.75707373
0.75526835
0.64144007
0.75508237
0.83090623
0.89776482
0.96081284
1.0155831
1.0220523
1.0266253
1.0211525
1.0225481
1.0186475
1.0177848
1.0143082
1.0117198
1.0075608
1.0031649
0.9976365
0.9911694
0.98356342
0.97456186
0.96411972
0.9519513
0.93799704
0.9222675
0.9050544
0.88682223
0.86833555
0.85043671
0.83391072
0.81928947
0.80681519
0.79646946
0.78807188
0.78137229
0.77613695
0.77207178
0.76880532
0.76647688
0.76499525
0.76411606
0.76356107
0.76305445
0.76264921
0.76221812
0.76164246
0.76088712
0.76011353
0.75914226
0.75686448
0.75521502
0.64450047
0.75924446
0.83572234
0.90308018
0.96665996
1.0194981
1.0231665
1.0276429
1.0220966
1.0234711
1.0194807
1.0186157
1.0147897
1.01204
1.00776
1.0032161
0.99756429
0.99091461
0.98308593
0.97378037
0.96290168
0.95018467
0.9356781
0.91937995
0.90164851
0.88302207
0.86432503
0.84643169
0.83011514
0.81586228
0.80385333
0.79400965
0.78610198
0.77984732
0.77499731
0.77123836
0.76820781
0.76611481
0.76479924
0.76402568
0.76353041
0.76306366
0.76266686
0.76222559
0.76163161
0.76085375
0.76006888
0.75897532
0.75666871
0.75516073
0.64689573
0.76273438
0.83987394
0.907713
0.97181916
1.0224356
1.0235482
1.0280417
1.0223383
1.0235825
1.0195682
1.0186761
1.0147744
1.0119049
1.0075371
1.0028338
0.99701741
0.99012632
0.98195953
0.97221883
0.96086856
0.94763905
0.93258222
0.91575207
0.89756273
0.8786215
0.85981055
0.84202556
0.82601569
0.81221376
0.80073434
0.79143881
0.7840524
0.77826469
0.77381439
0.77035725
0.76759106
0.76573901
0.76459482
0.76392596
0.76347689
0.76305001
0.76266065
0.76221441
0.7616128
0.76081252
0.76000794
0.7587507
0.75648558
0.75510687
0.64889643
0.76583571
0.84363749
0.91194303
0.97653708
1.0245921
1.0233892
1.0279199
1.0220996
1.0233928
1.0192456
1.0181277
1.014338
1.0113253
1.0068347
1.0018988
0.99582767
0.98859611
0.98006907
0.96990843
0.95808346
0.94433554
0.92875461
0.91142988
0.89283901
0.87366269
0.85483333
0.83725719
0.82164731
0.80837413
0.79748345
0.78877733
0.78193946
0.77663777
0.77259776
0.7694348
0.76695863
0.76535243
0.76437877
0.76381445
0.76341182
0.76301642
0.7626349
0.76219316
0.76158025
0.76076488
0.75993112
0.75847231
0.7563112
0.75505287
0.65071581
0.76869676
0.84714435
0.91590248
0.98086445
1.0261294
1.0228765
1.0274313
1.02155
1.0227727
1.0185249
1.0172946
1.0133528
1.010144
1.0054766
1.0002856
0.99395737
0.98639466
0.97749428
0.96689862
0.95459853
0.94034573
0.92425444
0.90646827
0.88753117
0.86819711
0.84944221
0.8321711
0.81704894
0.80437629
0.79412755
0.78604655
0.77978023
0.77497981
0.77135383
0.76847984
0.7663137
0.76495818
0.76415338
0.76369161
0.76333885
0.76297055
0.76259904
0.7621654
0.76153389
0.76071141
0.75983806
0.75815386
0.75613802
0.75499729
0.65218653
0.77113941
0.85024779
0.91947163
0.98462193
1.0269056
1.021831
1.0263356
1.0204011
1.0215024
1.017201
1.0158283
1.0117841
1.008379
1.0035349
0.99807897
0.99147482
0.98356495
0.9742836
0.9632522
0.95047386
0.93571739
0.91913124
0.90091554
0.88168728
0.86227315
0.84368461
0.82681119
0.81225961
0.8002535
0.79069362
0.78326773
0.77759186
0.77330279
0.7700835
0.76750455
0.76566296
0.76456063
0.76391946
0.76355665
0.7632574
0.7629182
0.76255732
0.76213213
0.76147492
0.76065125
0.7597248
0.75781231
0.75595989
0.75493908
0.65327333
0.77316853
0.85296025
0.92268189
0.9877621
1.026817
1.0203016
1.0248027
1.0187654
1.0197946
1.0154029
1.0138732
1.0097065
1.0060859
1.0010533
0.99532174
0.98843617
0.98017575
0.97050369
0.95902769
0.94576574
0.93050783
0.9134385
0.89482476
0.87536096
0.85594464
0.8376122
0.8212251
0.80732123
0.79604092
0.78720938
0.78046224
0.77539119
0.77161678
0.76878493
0.76652689
0.76501679
0.76416112
0.76367105
0.7634096
0.76316602
0.76286221
0.76251145
0.76208874
0.76140428
0.76058172
0.75958156
0.75746292
0.75577769
0.75487807
0.6540298
0.77485019
0.85536003
0.92564359
0.99032209
1.0259434
1.018348
1.0228119
1.0166883
1.0176178
1.0131439
1.0114487
1.0071594
1.0033175
0.99808968
0.99207791
0.98489869
0.97627646
0.96620139
0.9542713
0.94051709
0.92475647
0.90721614
0.88823807
0.86859737
0.84925927
0.83127247
0.815458
0.80227437
0.79177235
0.78370086
0.77764996
0.77319306
0.76992901
0.76746357
0.76556553
0.76438475
0.76375032
0.7634089
0.76325318
0.76306592
0.76280214
0.76245895
0.76202997
0.76132285
0.76049894
0.75939503
0.75712269
0.75559435
0.75481459
0.65453234
0.77623971
0.85747937
0.92841962
0.99228894
1.0243029
1.0160189
1.0204388
1.0142335
1.0150458
1.0104826
1.0086087
1.0041931
1.0001212
0.99469243
0.98839024
0.98090708
0.97191324
0.96142146
0.94902522
0.93476917
0.9185047
0.90050668
0.88120095
0.86144592
0.84226843
0.82471653
0.80955786
0.79716111
0.78748115
0.78019287
0.77484969
0.77101011
0.76824445
0.76613963
0.76463327
0.76376636
0.76331857
0.76314095
0.76308834
0.76295881
0.76273278
0.76239654
0.76195598
0.76123161
0.76039932
0.7591557
0.75680692
0.75541269
0.75474775
0.65479569
0.7773558
0.85935168
0.93108268
0.99365174
1.021903
1.0133353
1.0176946
1.0114102
1.0120944
1.0074477
1.0053896
1.0008476
0.99654024
0.99090101
0.98430099
0.97649883
0.96711931
0.95619452
0.94331802
0.92854936
0.91177972
0.89334071
0.87374889
0.85394821
0.83501748
0.81799143
0.80356944
0.7920194
0.78319543
0.77670635
0.77207796
0.7688523
0.76656803
0.764842
0.76373567
0.76314772
0.76287344
0.76287184
0.76291555
0.76284584
0.7626512
0.76232258
0.76186771
0.76113177
0.7602811
0.75886512
0.75652417
0.75523528
0.75467378
0.6548248
0.77820349
0.86097597
0.93365846
0.99437198
1.0189987
1.010315
1.0146112
1.0082588
1.008809
1.0040839
1.0018337
0.99716192
0.9926089
0.9867487
0.97983743
0.97170144
0.96192236
0.95054764
0.93717626
0.92188451
0.90461056
0.88575152
0.86592164
0.84615008
0.82755658
0.81114784
0.79753875
0.78688412
0.77893879
0.77326022
0.76935093
0.76672951
0.76491163
0.76359649
0.76286883
0.76251644
0.76243096
0.76260208
0.76273693
0.76272701
0.76255772
0.76223547
0.76176667
0.76102493
0.76014503
0.75854232
0.75626815
0.75506501
0.75458806
0.65465502
0.77883218
0.86238052
0.93618042
0.99444753
1.0161584
1.0070042
1.0112345
1.004822
1.0052285
1.0004254
0.99797127
0.99316191
0.98835209
0.98225684
0.97502386
0.96653631
0.95634123
0.94449751
0.93061548
0.91479022
0.89701551
0.87776309
0.85775135
0.83809149
0.81993154
0.80423204
0.79150455
0.78178024
0.77472825
0.76987186
0.76668464
0.76465383
0.7633003
0.76241121
0.76201698
0.76187959
0.76199955
0.76233407
0.76255526
0.762601
0.76245222
0.76213548
0.76165447
0.76091296
0.75999344
0.75820557
0.75602594
0.75490519
0.75448991
0.65436736
0.77931674
0.86362341
0.93871012
0.99391911
1.0128077
1.0034548
1.0076054
1.0011322
1.001378
0.99649284
0.99382047
0.98886477
0.98378682
0.97744357
0.96987492
0.96101862
0.95039062
0.93805875
0.92365035
0.90728316
0.88901539
0.86940367
0.8492752
0.82981804
0.81219245
0.79729092
0.78549994
0.77672662
0.77058262
0.76656326
0.76409723
0.76264244
0.76175856
0.76127374
0.7611703
0.76125356
0.76158288
0.76207047
0.76237312
0.76246596
0.76233494
0.76202317
0.76153284
0.76079738
0.7598282
0.75785844
0.75578961
0.75475241
0.75438825
0.65396346
0.77967244
0.86470318
0.94122185
0.99274587
1.0091885
0.99967235
1.0037267
0.99719483
0.99726409
0.99229578
0.98939234
0.98428335
0.97892672
0.97232116
0.9644043
0.95515904
0.94407872
0.93123799
0.91628729
0.89937139
0.88062367
0.86069529
0.84052606
0.82137168
0.80438464
0.79036155
0.7795453
0.7717398
0.7665302
0.7633622
0.76160568
0.7607117
0.76028744
0.76016721
0.76033942
0.76064575
0.76118388
0.76181332
0.76219115
0.76232173
0.76220644
0.7618993
0.76140338
0.76067837
0.75964871
0.75750333
0.75555613
0.75460366
0.75428997
0.65345892
0.77991487
0.86565112
0.94369921
0.99091476
1.0052919
0.99565382
0.99960205
0.9930157
0.99289625
0.98784438
0.98469998
0.97942924
0.97378384
0.96690001
0.95861871
0.94896348
0.93741094
0.92404091
0.90853303
0.89106538
0.8718577
0.85166612
0.83154346
0.81280052
0.79655462
0.78347381
0.77365724
0.7668516
0.76261256
0.76029522
0.75922063
0.75886543
0.75887285
0.75909357
0.75953538
0.76005972
0.76080405
0.76156392
0.76200881
0.7621696
0.76206754
0.76176489
0.76126743
0.76055379
0.75944981
0.75714548
0.75532782
0.75446153
0.75419663
0.65278338
0.78000586
0.86645955
0.94607397
0.98842307
1.0011899
0.99141243
0.99524384
0.98860706
0.98828716
0.98315126
0.97975486
0.97431253
0.9683659
0.96118529
0.95252256
0.94243388
0.93038742
0.91646711
0.90038784
0.88236955
0.86273004
0.84234093
0.82236473
0.80414876
0.78873866
0.77664458
0.76785776
0.76211161
0.75886662
0.75737206
0.75693734
0.75709665
0.75751448
0.75806511
0.75875973
0.75949832
0.76044441
0.76132293
0.76182594
0.76201025
0.76191915
0.76162118
0.76112593
0.76041885
0.75922023
0.75679469
0.75510987
0.75432612
0.75410019
0.6519973
0.78001712
0.8672082
0.94829224
0.98540536
0.99683862
0.98696468
0.99066558
0.98398372
0.98344892
0.97822697
0.97456565
0.96893837
0.96267652
0.95517825
0.94611457
0.93556899
0.92300693
0.90851602
0.89185364
0.87329171
0.85325907
0.83275197
0.81303444
0.79546256
0.78096623
0.76989215
0.76219648
0.75757074
0.75531151
0.75458064
0.75475083
0.75540982
0.75622325
0.75708187
0.7580157
0.75896357
0.76010629
0.7610903
0.76164226
0.76184435
0.76176226
0.7614695
0.76097938
0.76026719
0.75894426
0.75646425
0.75490741
0.75420098
0.75401526
0.65106555
0.77993577
0.86793111
0.95027011
0.98190919
0.99228008
0.98231917
0.98587869
0.9791558
0.97838948
0.97307583
0.96913471
0.96330699
0.95671453
0.94887658
0.9393925
0.92836477
0.91526412
0.90018213
0.88292756
0.86383572
0.84346144
0.82293078
0.80359493
0.78677865
0.77325421
0.76324953
0.75673745
0.75325931
0.75193456
0.75190728
0.75267234
0.75381351
0.75499936
0.75614603
0.75730486
0.75845713
0.75979083
0.76086556
0.76145741
0.76167245
0.76159783
0.7613111
0.76082837
0.76009352
0.7586121
0.75616522
0.75472304
0.7540878
0.75393911
0.64998963
0.7797861
0.86868058
0.95196053
0.97795315
0.98753239
0.97749126
0.98089079
0.97412591
0.97310858
0.96769562
0.9634602
0.95741533
0.95047684
0.94227617
0.9323503
0.92081518
0.90715259
0.8914605
0.87360899
0.85401091
0.83336161
0.81291775
0.7940922
0.77812888
0.7656225
0.75678074
0.751535
0.74918222
0.74870608
0.74936734
0.75071166
0.75230891
0.75384487
0.75525789
0.75662894
0.75798048
0.75949866
0.76064818
0.76127095
0.76149517
0.76142691
0.76114719
0.76067297
0.75989654
0.75823817
0.75589285
0.75455577
0.75398635
0.7538723
0.64878415
0.77958474
0.86947677
0.95330651
0.97360758
0.98259312
0.9724721
0.97569136
0.96888677
0.96760122
0.96208229
0.95753873
0.95125895
0.94395829
0.93537089
0.92498123
0.91291134
0.89866197
0.88234222
0.86389424
0.84382576
0.82298502
0.80275301
0.78456522
0.76953281
0.75810926
0.75055751
0.74661811
0.74530597
0.7456284
0.74697592
0.74886981
0.75089746
0.75275932
0.7544178
0.75598933
0.75753525
0.75922937
0.7604374
0.76108249
0.76131308
0.76125064
0.76097895
0.76051311
0.75967879
0.75784779
0.75563396
0.75440282
0.75389584
0.75381578
0.64746363
0.77931083
0.870315
0.95421657
0.96888823
0.97745069
0.96725517
0.9702747
0.96343582
0.96186628
0.95623304
0.95136636
0.94483202
0.9371522
0.92815297
0.91727453
0.90464174
0.88978123
0.87281931
0.85378406
0.83329617
0.8123667
0.79248236
0.77505052
0.76101145
0.75078772
0.74463828
0.7419756
0.74160711
0.74272798
0.74473393
0.74714836
0.74957904
0.75174221
0.75362573
0.75538766
0.75712386
0.75898122
0.76023236
0.76089189
0.76112686
0.76107028
0.76080768
0.76034976
0.75944389
0.75745226
0.75538612
0.75426117
0.75380809
0.75376595
0.64602137
0.77895706
0.87118256
0.95461106
0.96382304
0.97211092
0.96184526
0.96464771
0.95777321
0.95590233
0.95014185
0.9449374
0.93812692
0.93005091
0.92061166
0.90921789
0.89599168
0.88049575
0.86288142
0.84327853
0.82244003
0.80154259
0.78214655
0.76557358
0.75260132
0.74373967
0.73905385
0.73756101
0.73810504
0.74001089
0.74264257
0.74554639
0.74835261
0.75079204
0.75288138
0.75482568
0.75674993
0.75875054
0.76003197
0.76069932
0.76093728
0.76088705
0.76063489
0.76018366
0.75919383
0.75705953
0.7551489
0.75412804
0.75372535
0.75371953
0.64452193
0.77857173
0.8720895
0.95427501
0.95848929
0.96658322
0.95624672
0.95880819
0.95189416
0.9497008
0.94380159
0.9382451
0.93113672
0.92264369
0.91273364
0.90079354
0.88694425
0.87079122
0.85252133
0.83238485
0.81128486
0.79055636
0.77178573
0.7561584
0.74437886
0.73703244
0.73378932
0.73335802
0.73482157
0.73747899
0.74070074
0.74406266
0.74721646
0.74990716
0.75218436
0.754305
0.75641712
0.7585328
0.75983528
0.76050522
0.7607453
0.76070215
0.76046183
0.76001256
0.75892563
0.75667644
0.75492403
0.75400331
0.75364702
0.75367598
0.64303998
0.77822073
0.87301467
0.95316323
0.9529119
0.96085266
0.9504445
0.95273925
0.94578824
0.94325526
0.93720621
0.9312838
0.92385103
0.91491593
0.90449986
0.8919823
0.87748025
0.86065149
0.84173201
0.8211128
0.79986176
0.7794494
0.76143129
0.74683537
0.73643935
0.73070389
0.72879128
0.72939372
0.73176055
0.73513086
0.73890603
0.74269452
0.74616798
0.74908529
0.75153379
0.75382621
0.75612508
0.75832585
0.7596417
0.76031014
0.76055194
0.76051669
0.76028903
0.75983152
0.75863014
0.75631184
0.7547144
0.7538885
0.75357512
0.75363533
0.64161947
0.77794877
0.87389716
0.95131707
0.94703996
0.95490567
0.94443252
0.94643822
0.93945423
0.93656555
0.93035015
0.92404315
0.91625323
0.90684644
0.89588827
0.88276091
0.86758
0.85006275
0.8305122
0.80948226
0.78821125
0.76826605
0.75111359
0.73767616
0.72886397
0.72474633
0.72404149
0.72568998
0.72892249
0.73296405
0.73725531
0.74143893
0.74520422
0.74832405
0.75092859
0.75338877
0.75586952
0.75813043
0.75945097
0.76011478
0.76035834
0.76033173
0.76011608
0.75963449
0.75829525
0.75597653
0.75452337
0.75378513
0.75351203
0.75360098
0.64022838
0.77774499
0.87456873
0.9486917
0.94092265
0.94874213
0.93821527
0.9399096
0.93289007
0.92962593
0.92321898
0.91650245
0.90831863
0.8984096
0.88687358
0.87310723
0.85722331
0.83901129
0.81886348
0.79751743
0.77637477
0.7570445
0.74086305
0.72878274
0.72170254
0.71910609
0.71956699
0.72225062
0.72630427
0.73097398
0.73574411
0.74029183
0.74432147
0.74762054
0.75036737
0.75299214
0.75564702
0.75794614
0.759263
0.75992004
0.76016572
0.7601478
0.75994157
0.75941655
0.75791631
0.75567834
0.75435265
0.75369423
0.75345934
0.7535732
0.63884274
0.7776151
0.8750725
0.94527188
0.93459003
0.94237112
0.9317988
0.93314994
0.92608095
0.92241471
0.9157851
0.90863286
0.9000185
0.88957843
0.87743155
0.86299704
0.84639077
0.82748777
0.80679642
0.78525302
0.76439853
0.74582352
0.73073895
0.72025364
0.71496655
0.71375378
0.71539414
0.7190751
0.72390177
0.72915559
0.73436765
0.73924891
0.74351582
0.74697174
0.74984891
0.75263685
0.75545484
0.75777202
0.759078
0.75972711
0.75997519
0.75996445
0.75976367
0.75917786
0.75751184
0.75540994
0.75420054
0.75361589
0.75341633
0.75355203
0.63759556
0.77767037
0.87535942
0.94101231
0.92804398
0.93577348
0.92516181
0.92612839
0.91899531
0.91489582
0.90801518
0.90040417
0.89132644
0.88032743
0.8675371
0.85240759
0.83506302
0.81548559
0.7943269
0.77272729
0.75232417
0.73463692
0.72083872
0.71216178
0.70861112
0.70870845
0.71153021
0.71615901
0.72170846
0.72750229
0.73312016
0.73830512
0.74278277
0.74637415
0.74937134
0.75232165
0.75529018
0.75760689
0.75889639
0.7595371
0.75978736
0.75978047
0.75958326
0.75892241
0.75710555
0.75515981
0.75406504
0.75354943
0.75338111
0.75353658
0.63642326
0.77796955
0.87530189
0.93585841
0.92126643
0.92890834
0.91825956
0.91880234
0.91159294
0.90703775
0.89988017
0.89179304
0.8822187
0.87063181
0.8571653
0.84131336
0.82322319
0.80300571
0.78148247
0.75998619
0.74019596
0.72353114
0.71128224
0.70454604
0.70258904
0.70400543
0.70797402
0.71349671
0.71971728
0.7260073
0.73199577
0.73745531
0.74211782
0.74582434
0.74893151
0.75203749
0.75514972
0.75744967
0.75871862
0.75935045
0.75960206
0.75959553
0.75941108
0.75865274
0.75670629
0.75492812
0.75394527
0.75349411
0.75335296
0.75352538
0.63524455
0.77847597
0.87473203
0.92978895
0.91421027
0.92172445
0.91104943
0.91113609
0.90384687
0.89882189
0.89136173
0.88277893
0.87267203
0.86046438
0.84628765
0.8296901
0.81085647
0.79005515
0.76829627
0.74707484
0.72805551
0.7125922
0.70216695
0.69738272
0.69690347
0.6996588
0.70472038
0.71107969
0.71791941
0.72466277
0.73098788
0.73669378
0.74151617
0.74531902
0.74852632
0.75177308
0.75502893
0.7572992
0.75854498
0.75916699
0.75941905
0.75941135
0.75923487
0.75836583
0.7563233
0.75471567
0.7538401
0.75345016
0.75333606
0.75352135
0.6339628
0.77918082
0.87349417
0.92318986
0.90684327
0.91419358
0.90351835
0.90312257
0.89574758
0.89023854
0.88244251
0.87333833
0.86265744
0.84979377
0.83487416
0.8175117
0.7979538
0.77665196
0.75481175
0.73404272
0.71595259
0.70194929
0.69356021
0.69061041
0.69159843
0.69566722
0.70176236
0.70889888
0.71630595
0.7234609
0.73008988
0.73601481
0.7409732
0.74485581
0.74815753
0.75154363
0.75492098
0.75715426
0.75837554
0.75898655
0.75923809
0.75922851
0.75904787
0.75805148
0.75596727
0.75452477
0.75374964
0.75341627
0.75332641
0.75352629
0.63252597
0.78010862
0.87148201
0.91671624
0.89918503
0.90633076
0.89567544
0.89476675
0.88728496
0.88126927
0.87309641
0.86343897
0.85214093
0.83858492
0.82289236
0.80475641
0.78451234
0.76282192
0.74107428
0.72093842
0.70395682
0.69172563
0.68547139
0.68421053
0.68669731
0.69202543
0.69908972
0.70694319
0.71486662
0.72239292
0.72929457
0.73541241
0.74048423
0.74443292
0.74783118
0.75137792
0.75481685
0.75701385
0.75821033
0.7588092
0.75905941
0.75904726
0.75884244
0.75770045
0.75564934
0.75435781
0.75367395
0.75339086
0.7533228
0.75353538
0.63091117
0.78130989
0.86865735
0.90949854
0.8912807
0.89813764
0.88751018
0.88604777
0.87843103
0.87188165
0.8632869
0.85304269
0.84108388
0.82680126
0.81031113
0.79140445
0.7705399
0.74860277
0.72713558
0.70781658
0.69218769
0.68202236
0.67785017
0.67822386
0.68220321
0.68872553
0.6966914
0.70520116
0.71359096
0.72144999
0.72859483
0.73488084
0.74004495
0.74404835
0.74754735
0.75126852
0.7547142
0.75687786
0.75804952
0.75863527
0.75888324
0.75886699
0.75861576
0.75731471
0.75537235
0.75421369
0.75361102
0.75337143
0.75332405
0.75354704
0.62915195
0.78273686
0.86494073
0.90174789
0.88308634
0.88957577
0.87897873
0.87692834
0.86914617
0.86203536
0.85297189
0.84210725
0.82944674
0.81440453
0.79709941
0.77744443
0.75605354
0.73403823
0.71304822
0.69473873
0.68078954
0.67288996
0.6706535
0.67268596
0.67811135
0.68575592
0.69455376
0.70365957
0.71246742
0.72062281
0.72798347
0.7344143
0.73965097
0.74369801
0.74729398
0.75118398
0.75461697
0.75674655
0.75789341
0.75846497
0.75870928
0.75868687
0.75836857
0.75691757
0.755125
0.75408742
0.75355802
0.75335639
0.75332883
0.75355957
0.62717676
0.78424396
0.86022747
0.8935492
0.87456052
0.88060135
0.87004425
0.8673659
0.85938644
0.85168675
0.84210749
0.83058937
0.81718788
0.8013561
0.78322933
0.76287105
0.74108273
0.71918173
0.69887479
0.68181055
0.66989545
0.66431201
0.66389824
0.66761278
0.67441353
0.68310345
0.69266255
0.70230518
0.71148523
0.71990356
0.72745424
0.73400712
0.739298
0.74337708
0.74705787
0.75111284
0.75452632
0.75662063
0.75774232
0.75829781
0.75853611
0.75850596
0.75810221
0.75652935
0.75489758
0.75397449
0.75351249
0.75334438
0.7533363
0.75357156
0.62509027
0.78574003
0.85451539
0.88489377
0.86566113
0.87117525
0.86066353
0.857317
0.84910438
0.84079312
0.83064934
0.81844551
0.8042639
0.78761656
0.76867685
0.74769227
0.72566678
0.70408916
0.68468397
0.66918391
0.6596011
0.65622267
0.65763684
0.66299971
0.6710967
0.68075164
0.69100148
0.70112429
0.71063462
0.71928578
0.72700129
0.73365317
0.73898155
0.7430837
0.74684718
0.75105662
0.75444339
0.75650088
0.75759617
0.75813236
0.7583609
0.75832186
0.75782295
0.75615872
0.75468952
0.75387311
0.75347326
0.75333352
0.75334569
0.75358258
0.62286413
0.7869879
0.84787652
0.87569988
0.85636441
0.86124946
0.85079061
0.84674185
0.83825681
0.82931142
0.81855419
0.80562738
0.79062815
0.77314656
0.75342583
0.7319259
0.70985672
0.688827
0.67056829
0.65702552
0.64993131
0.64861256
0.65190002
0.65883928
0.66814554
0.67868326
0.68955494
0.70010523
0.70990788
0.7187632
0.72661804
0.73334655
0.73869766
0.74281974
0.74668546
0.75101724
0.75436896
0.75638775
0.75745412
0.75796674
0.75818064
0.75813118
0.75753816
0.75581426
0.7545028
0.75378399
0.75344103
0.75332547
0.75335855
0.75359329
0.62057246
0.7879177
0.84035372
0.86596059
0.84662341
0.85078579
0.84038562
0.83560234
0.82680145
0.81719703
0.80577215
0.79208151
0.77622991
0.75790971
0.73747044
0.71560622
0.69371086
0.67347088
0.65667163
0.64546945
0.64083519
0.64153822
0.64668714
0.6551172
0.66554078
0.67687933
0.68830774
0.69923725
0.7092955
0.71832377
0.72629359
0.73308234
0.73844335
0.74258574
0.74656928
0.75099343
0.75430352
0.75628083
0.75731453
0.75779905
0.75799279
0.75793472
0.75723153
0.75550589
0.75434092
0.75370918
0.7534175
0.75332164
0.7533734
0.75360363
0.61787671
0.78849835
0.83200019
0.85563886
0.83640084
0.83975119
0.82941216
0.82386537
0.81468991
0.80439473
0.79224287
0.77774578
0.76101644
0.74187632
0.72081964
0.69877928
0.67729998
0.65811689
0.64318245
0.63458909
0.63228114
0.63504455
0.64199287
0.65181641
0.66326232
0.67532228
0.68724694
0.69850883
0.70878197
0.71794782
0.72601401
0.73285767
0.7382166
0.74237948
0.74647304
0.75098691
0.7542471
0.75617851
0.75717514
0.7576276
0.75779575
0.75773212
0.75689444
0.75524173
0.75420511
0.75364947
0.75340289
0.75332707
0.75338832
0.75361376
0.61464962
0.7886338
0.82285577
0.84472515
0.82567197
0.82811836
0.81782594
0.81147945
0.80185673
0.7908316
0.77789442
0.76255276
0.74493703
0.72502812
0.70349776
0.68150719
0.66070825
0.64289995
0.63027288
0.62437477
0.62430096
0.62914774
0.63780223
0.64891481
0.66128834
0.67399469
0.68635775
0.69790146
0.70834462
0.71761908
0.7257742
0.73266959
0.73801486
0.74219744
0.74638767
0.75099876
0.75419752
0.75607763
0.75703304
0.75745165
0.75759207
0.75752894
0.75654441
0.75501418
0.75409043
0.75360291
0.75339478
0.75333576
0.75340381
0.75362377
0.61077552
0.78830209
0.81296232
0.83318547
0.81439021
0.8158322
0.805544
0.79836521
0.78821671
0.77642306
0.76264781
0.74643492
0.72794942
0.70736296
0.68554776
0.6638625
0.64404155
0.62801609
0.61807377
0.61477443
0.61696274
0.62384379
0.63409696
0.64638962
0.65959875
0.67287956
0.68561979
0.6973899
0.70796726
0.71734858
0.72558852
0.73251113
0.73783406
0.74203215
0.74631834
0.75102459
0.75415059
0.75597424
0.75688607
0.75727324
0.75738851
0.75731028
0.7562055
0.75480888
0.75399129
0.75356509
0.75339047
0.75334779
0.75342057
0.75363515
0.60616521
0.7869113
0.80227182
0.820921
0.80246481
0.80279713
0.79246769
0.78442653
0.77367728
0.76107726
0.74642446
0.7293298
0.71002428
0.68889803
0.66703
0.64593819
0.62743367
0.6136784
0.60661864
0.60579861
0.61030066
0.61911864
0.63085247
0.64421596
0.65817237
0.67195456
0.6850043
0.69695434
0.70766096
0.71715844
0.72545995
0.7323708
0.73766944
0.74187581
0.74627914
0.75105312
0.75410128
0.75586557
0.75673481
0.75709603
0.75718925
0.75708825
0.75588174
0.75462368
0.75390504
0.75353513
0.75338913
0.75336244
0.75343952
0.75364931
0.6006945
0.78483737
0.79062964
0.8078249
0.78978203
0.78891789
0.77849067
0.76956743
0.75814069
0.74470359
0.7291466
0.71118456
0.69114958
0.66967094
0.64802334
0.62785
0.6110872
0.60006721
0.59586339
0.59753127
0.60431434
0.61495282
0.62804279
0.64236945
0.65698542
0.67119031
0.68448673
0.69660332
0.70744752
0.71703739
0.72536584
0.73224627
0.73751949
0.74173496
0.74627481
0.75107576
0.75404641
0.75575152
0.75658169
0.75692236
0.75699475
0.75685624
0.7555756
0.75445742
0.75383098
0.75351454
0.75339257
0.75338034
0.75346052
0.75366441
0.59440995
0.78178106
0.77802755
0.79380435
0.77622572
0.77409677
0.76350113
0.75368388
0.74151104
0.72721048
0.71074337
0.69195882
0.67133343
0.64974149
0.62862803
0.6097501
0.59524769
0.58726076
0.58580763
0.59002285
0.5989926
0.61131935
0.62563873
0.64082238
0.65600593
0.670555
0.68406872
0.69635814
0.70731453
0.71695472
0.72529384
0.73214219
0.73738649
0.74162816
0.74629395
0.75109262
0.75398558
0.75563384
0.75642816
0.75675089
0.75680223
0.75660708
0.75529504
0.75431234
0.7537688
0.75350159
0.75339989
0.75340051
0.75348252
0.75367981
0.58744671
0.77745784
0.76446104
0.7787282
0.76167371