/*--------------------------------*- C++ -*----------------------------------*\
  =========                 |
  \\      /  F ield         | OpenFOAM: The Open Source CFD Toolbox
   \\    /   O peration     | Website:  https://openfoam.org
    \\  /    A nd           | Version:  8
     \\/     M anipulation  |
\*---------------------------------------------------------------------------*/
FoamFile
{
    version     2.0;
    format      ascii;
    class       surfaceScalarField;
    location    "0.170001";
    object      meshPhi;
}
// * * * * * * * * * * * * * * * * * * * * * * * * * * * * * * * * * * * * * //

dimensions      [0 3 -1 0 0 0 0];

internalField   nonuniform List<scalar> 
39600
(
4.2804198e-05
2.8169424e-06
-2.9234481e-06
4.2880099e-05
3.3618532e-06
-3.4386501e-06
4.2970658e-05
4.0286029e-06
-4.1194235e-06
4.3082434e-05
4.826724e-06
-4.9352892e-06
4.3231967e-05
5.7828107e-06
-5.912641e-06
4.3426729e-05
6.9282159e-06
-7.0834807e-06
4.3685343e-05
8.3002934e-06
-8.4860975e-06
4.4016968e-05
9.9436549e-06
-1.0166297e-05
4.4432171e-05
1.1911686e-05
-1.2178779e-05
4.4944516e-05
1.4268066e-05
-1.4588803e-05
4.5566247e-05
1.7088402e-05
-1.7473934e-05
4.6319681e-05
2.0462549e-05
-2.0926242e-05
4.7218213e-05
2.4496175e-05
-2.5054251e-05
4.829551e-05
2.9313141e-05
-2.9985064e-05
4.9592979e-05
3.505663e-05
-3.5866184e-05
5.1159721e-05
4.1890176e-05
-4.2866007e-05
5.2938517e-05
4.9997848e-05
-5.1173911e-05
5.4873696e-05
5.9584853e-05
-6.1004709e-05
5.7100511e-05
7.0878239e-05
-7.2596514e-05
5.9843729e-05
8.4126262e-05
-8.6212414e-05
6.3383279e-05
9.9611566e-05
-0.00010215148
6.8105373e-05
0.00011758917
-0.00012068613
7.4106693e-05
0.00013838332
-0.00014217978
8.2043311e-05
0.00016231838
-0.00016701194
9.2372037e-05
0.00018970734
-0.00019558441
0.00011113233
0.00021997776
-0.00022741368
0.00013465085
0.00025279238
-0.00026232528
0.00015680327
0.00028979536
-0.00030191164
0.00017955276
0.00033307653
-0.00034812941
0.00020836874
0.00038204711
-0.00040053417
0.00024313693
0.00043510698
-0.00045784011
0.00028303296
0.00049370663
-0.00052158406
0.00032999203
0.00055797389
-0.00059199636
0.00037347553
0.00063409969
-0.00067518367
0.00042265464
0.00072502759
-0.00077380625
0.00047761458
0.00082907544
-0.00088653463
0.00054075423
0.00094775325
-0.0010153062
0.00060301179
0.001074737
-0.0011521857
0.00066709494
0.0012058238
-0.0012923128
0.0007281266
0.0013578919
-0.0014534635
0.00078613324
0.0015389653
-0.0016429139
0.000832184
0.001754423
-0.0018654234
0.00084900522
0.0020109673
-0.0021253254
0.00086190703
0.0023013132
-0.0024144854
0.00084925718
0.0026404412
-0.0027488202
0.00081064623
0.0030177718
-0.0031251482
0.00041254482
0.0032769645
-0.0033560702
-7.9905337e-05
0.0033105778
-0.003322804
-0.00054881273
0.0031668379
-0.0031389507
0.0016372471
-0.0016280225
3.4384361e-05
2.7649093e-06
3.4500013e-05
3.299419e-06
3.4656945e-05
3.9530275e-06
3.4847868e-05
4.7361062e-06
3.5071207e-05
5.6743138e-06
3.5328814e-05
6.7981361e-06
3.5620163e-05
8.1444263e-06
3.5954019e-05
9.7568256e-06
3.6333082e-05
1.1687829e-05
3.6773547e-05
1.3999706e-05
3.7288535e-05
1.676664e-05
3.7902226e-05
2.0076292e-05
3.8642564e-05
2.4031996e-05
3.9548187e-05
2.8754407e-05
4.0691267e-05
3.4382362e-05
4.2098036e-05
4.1075955e-05
4.3705672e-05
4.9016506e-05
4.5473497e-05
5.840273e-05
4.7517979e-05
6.9448785e-05
5.0076978e-05
8.238835e-05
5.3418946e-05
9.7483741e-05
5.7887411e-05
0.00011498027
6.361888e-05
0.00013516719
7.1217168e-05
0.00015830132
8.1143968e-05
0.00018461664
9.8419498e-05
0.00021352943
0.00012016861
0.00024458593
0.00014050497
0.00027938291
0.00016148682
0.00032014735
0.00018884456
0.00036604962
0.00022235045
0.00041528662
0.00026123765
0.00046907907
0.00030694852
0.00052764615
0.00034976332
0.00059719213
0.00039801515
0.00068075348
0.00045272456
0.00077627625
0.00051516527
0.00088493059
0.00057753467
0.0010017959
0.0006412243
0.0011241212
0.00070310851
0.0012675144
0.00076163894
0.0014400574
0.00081111201
0.0016482862
0.00083169305
0.0018999608
0.00084803719
0.0021895152
0.00083754851
0.0025316003
0.00078702837
0.0029098461
0.00040351176
0.0031933606
-6.4621726e-05
0.0032909537
-0.00052915755
0.0031862137
0.001642275
2.6673026e-05
2.7230154e-06
2.6885529e-05
3.2492481e-06
2.7127251e-05
3.8929281e-06
2.7374723e-05
4.6640928e-06
2.7623333e-05
5.5879652e-06
2.7879235e-05
6.6946412e-06
2.8147207e-05
8.0203161e-06
2.8436385e-05
9.6080294e-06
2.8751395e-05
1.150935e-05
2.9109159e-05
1.3785545e-05
2.9518197e-05
1.650951e-05
3.0006629e-05
1.9767128e-05
3.0600722e-05
2.365982e-05
3.1356055e-05
2.8305188e-05
3.234022e-05
3.3838614e-05
3.3558145e-05
4.0418224e-05
3.4974598e-05
4.8222378e-05
3.6562727e-05
5.7444182e-05
3.8437115e-05
6.8286205e-05
4.0825541e-05
8.0967297e-05
4.3969003e-05
9.5732822e-05
4.8168307e-05
0.00011281647
5.3613421e-05
0.00013247591
6.0869083e-05
0.00015490646
7.0382351e-05
0.00018028642
8.6130609e-05
0.00020804174
0.0001059886
0.0002376064
0.00012448337
0.00027057297
0.00014367804
0.00030923185
0.00016948302
0.00035246483
0.00020151149
0.00039830516
0.00023927043
0.00044774271
0.00028345477
0.00050107547
0.00032540656
0.00056451524
0.00037242155
0.00064118524
0.00042659538
0.00072861105
0.00048816079
0.00082767653
0.00055021298
0.00093478812
0.00061352394
0.0010484819
0.00067562172
0.001183242
0.00073522306
0.0013470864
0.00078721939
0.0015475258
0.00081258346
0.0017933914
0.00083082597
0.0020811756
0.00082407006
0.0024251913
0.0007609764
0.0028063055
0.00039339969
0.0031154515
-4.8625415e-05
0.0032705036
-0.0005077311
0.0032030194
0.0016490752
1.9312747e-05
2.6914221e-06
1.9496815e-05
3.2113378e-06
1.9705168e-05
3.8473875e-06
1.9922431e-05
4.6094084e-06
2.0149731e-05
5.5223207e-06
2.0389369e-05
6.6159138e-06
2.0649046e-05
7.925827e-06
2.0926858e-05
9.4947109e-06
2.1226821e-05
1.137342e-05
2.1554438e-05
1.3622383e-05
2.1917623e-05
1.6313591e-05
2.234239e-05
1.95315e-05
2.284876e-05
2.33759e-05
2.3502313e-05
2.7961914e-05
2.4347788e-05
3.3422519e-05
2.5398774e-05
3.9913691e-05
2.6627955e-05
4.7611885e-05
2.8038007e-05
5.6705555e-05
2.9765421e-05
6.7385096e-05
3.1993444e-05
7.9857819e-05
3.4946141e-05
9.435396e-05
3.8898841e-05
0.00011109384
4.4074481e-05
0.00013030635
5.1026955e-05
0.00015213015
6.0104662e-05
0.00017670786
7.4531149e-05
0.00020347694
9.2668267e-05
0.00023178956
0.00010943262
0.00026327138
0.00012707941
0.00030018073
0.00015141631
0.00034109978
0.00018204052
0.00038392939
0.00021865099
0.00042943423
0.00026140096
0.00047796
0.00030246626
0.00053572547
0.00034823565
0.00060595002
0.00040179774
0.00068569599
0.00046244367
0.0007756004
0.00052409166
0.00087332605
0.00058696045
0.00097851668
0.00064925018
0.0011046578
0.00070973392
0.0012596691
0.00076392763
0.0014518668
0.00079349995
0.0016912682
0.00081367995
0.0019765285
0.00081017587
0.0023215889
0.00073704509
0.0027067318
0.00038593484
0.0030416199
-3.3458343e-05
0.0032486773
-0.00048695442
0.0032172473
0.0016568356
1.2311624e-05
2.6698934e-06
1.2383805e-05
3.1855856e-06
1.248986e-05
3.816609e-06
1.2633345e-05
4.5726141e-06
1.2816221e-05
5.4782194e-06
1.3031746e-05
6.5630097e-06
1.3280624e-05
7.8623045e-06
1.3552905e-05
9.4183401e-06
1.3850733e-05
1.1281475e-05
1.4170018e-05
1.3511589e-05
1.4519539e-05
1.6179857e-05
1.4915489e-05
1.9369809e-05
1.5374593e-05
2.3180126e-05
1.5950236e-05
2.772427e-05
1.6682806e-05
3.3133041e-05
1.7580747e-05
3.9561211e-05
1.8635977e-05
4.7183701e-05
1.9895307e-05
5.618347e-05
2.148058e-05
6.6742933e-05
2.3551154e-05
7.9058421e-05
2.6315631e-05
9.334576e-05
3.0032141e-05
0.00010981097
3.4948839e-05
0.00012865591
4.1617644e-05
0.0001499666
5.0267861e-05
0.00017385971
6.3586172e-05
0.00019979285
8.0153363e-05
0.0002270693
9.5263909e-05
0.0002573813
0.00011155357
0.00029287333
0.00013450545
0.00033180676
0.00016379175
0.00037199713
0.00019924736
0.00041396944
0.00024063791
0.00045810614
0.00028079969
0.00051061884
0.00032531505
0.00057483815
0.0003782001
0.00064732886
0.00043787719
0.00072848923
0.00049904248
0.00081719337
0.00056140218
0.00091407922
0.00062386434
0.0010316954
0.0006850488
0.001177788
0.00074110292
0.0013614295
0.00077433837
0.001593782
0.00079652485
0.0018757839
0.00079586177
0.0022210234
0.00071492861
0.002611019
0.00038031047
0.0029711564
-1.9250407e-05
0.0032253152
-0.00046701675
0.0032286261
0.0016648699
5.8549651e-06
2.657889e-06
5.9212332e-06
3.1710005e-06
6.0168479e-06
3.7989733e-06
6.1381437e-06
4.5513139e-06
6.2836587e-06
5.4525798e-06
6.4476808e-06
6.5322306e-06
6.6318718e-06
7.825457e-06
6.8318111e-06
9.3742718e-06
7.053867e-06
1.1228778e-05
7.2984404e-06
1.3448482e-05
7.5759611e-06
1.6104068e-05
7.9009051e-06
1.9278415e-05
8.2853262e-06
2.3069305e-05
8.770291e-06
2.7589153e-05
9.3818044e-06
3.2967427e-05
1.0130238e-05
3.9357797e-05
1.1028911e-05
4.6933985e-05
1.2141905e-05
5.5875294e-05
1.358452e-05
6.6357371e-05
1.5497405e-05
7.8566267e-05
1.8073439e-05
9.2705217e-05
2.1558935e-05
0.00010896612
2.6221244e-05
0.00012752347
3.2611361e-05
0.00014841613
4.0865592e-05
0.00017173586
5.324935e-05
0.00019695123
6.8361328e-05
0.00022338
8.189486e-05
0.00025281696
9.6965726e-05
0.00028719498
0.00011860863
0.00032444744
0.00014661106
0.00036233862
0.00018091419
0.00040115203
0.00022100081
0.00044127946
0.0002602402
0.00048893026
0.00030348984
0.0005475676
0.00035563907
0.00061321856
0.00041430137
0.00068605247
0.00047490817
0.00076609639
0.00053669534
0.00085485462
0.00059928992
0.00096400439
0.00066102402
0.001101114
0.00071863069
0.001275965
0.00075507139
0.0015008724
0.00077928201
0.0017789777
0.0007811589
0.0021236156
0.00069442609
0.002518851
0.00037595296
0.0029032262
-6.1581753e-06
0.0032002489
-0.00044814551
0.0032372599
0.0016727635
-2.0190748e-07
2.6553379e-06
-1.5514039e-07
3.1680059e-06
-8.8056361e-08
3.795571e-06
-4.6002076e-09
4.5474198e-06
9.2283755e-08
5.4480848e-06
1.9943356e-07
6.5269644e-06
3.2056702e-07
7.8191791e-06
4.5444816e-07
9.3666484e-06
6.1001929e-07
1.1219346e-05
7.8868196e-07
1.3436619e-05
1.0007699e-06
1.6088913e-05
1.25764e-06
1.9258866e-05
1.5674538e-06
2.3043894e-05
1.9617256e-06
2.7555984e-05
2.4570995e-06
3.2923852e-05
3.064163e-06
3.9300868e-05
3.8136679e-06
4.6860161e-05
4.7828363e-06
5.5777958e-05
6.0813283e-06
6.6224449e-05
7.8353654e-06
7.8376737e-05
1.0221868e-05
9.242627e-05
1.347655e-05
0.00010855129
1.7883453e-05
0.00012689924
2.3992857e-05
0.00014746415
3.1886005e-05
0.00017030842
4.3471516e-05
0.00019491184
5.7219056e-05
0.00022066834
6.9252531e-05
0.00024950812
8.3214063e-05
0.00028306696
0.00010361803
0.00031893126
0.00013038539
0.00035485497
0.00016354224
0.00039087048
0.00020237182
0.00042736681
0.00024066934
0.0004705461
0.00028263977
0.00052402767
0.00033399539
0.0005832701
0.0003915993
0.00064819994
0.00045157784
0.00071996039
0.00051272737
0.00080083709
0.00057540786
0.00090165965
0.00063755079
0.0010297721
0.00069644554
0.0011956867
0.0007356719
0.0014127778
0.00076189428
0.0016863584
0.00076606166
0.0020296197
0.00067520638
0.0024302011
0.00037229383
0.0028374631
5.8155167e-06
0.0031735023
-0.00043041194
0.0032431269
0.0016802108
-5.8874136e-06
2.6617148e-06
-5.8851722e-06
3.1755667e-06
-5.8775199e-06
3.8047265e-06
-5.8579095e-06
4.5585596e-06
-5.8239196e-06
5.4616633e-06
-5.7736619e-06
6.5434737e-06
-5.7026521e-06
7.8391193e-06
-5.6129323e-06
9.3905992e-06
-5.4985474e-06
1.1247945e-05
-5.3620838e-06
1.3470578e-05
-5.1971583e-06
1.6129084e-05
-4.9979847e-06
1.9306172e-05
-4.7598704e-06
2.3099314e-05
-4.4580205e-06
2.7620574e-05
-4.0793567e-06
3.2998619e-05
-3.6089433e-06
3.9386799e-05
-3.0033024e-06
4.6957809e-05
-2.1766108e-06
5.588668e-05
-1.0221072e-06
6.6337941e-05
5.7164151e-07
7.8481141e-05
2.7665386e-06
9.249849e-05
5.7885072e-06
0.0001085548
9.9353389e-06
0.00012677079
1.5755661e-05
0.00014709962
2.3307141e-05
0.00016956522
3.4194051e-05
0.0001936583
4.6658498e-05
0.00021891869
5.7268006e-05
0.00024741632
7.0210148e-05
0.00028041182
8.9437423e-05
0.00031515993
0.00011501001
0.00034942407
0.00014702957
0.000382984
0.00018463684
0.00041620076
0.00022197176
0.0004552802
0.00026264396
0.00050402357
0.00031314979
0.00055728409
0.00036965256
0.00061473692
0.00042893095
0.00067859743
0.000489378
0.00075183351
0.00055208281
0.00084445474
0.00061451505
0.00096358615
0.00067447132
0.0011204684
0.00071613792
0.0013294943
0.00074431735
0.0015979989
0.00075059109
0.001939186
0.0006570155
0.0023449658
0.00036899724
0.0027735906
1.6660817e-05
0.0031451757
-0.00041384214
0.0032464508
0.0016871176
-1.1184178e-05
2.6768304e-06
-1.1198069e-05
3.1936384e-06
-1.1211177e-05
3.8263467e-06
-1.1215957e-05
4.5844083e-06
-1.1208803e-05
5.4925241e-06
-1.1188549e-05
6.5803083e-06
-1.1153285e-05
7.8831599e-06
-1.1106441e-05
9.4433552e-06
-1.1045149e-05
1.1311203e-05
-1.0973229e-05
1.3546607e-05
-1.088567e-05
1.6220526e-05
-1.0777664e-05
1.9416188e-05
-1.0643596e-05
2.3231506e-05
-1.0460149e-05
2.7778991e-05
-1.0212195e-05
3.3187551e-05
-9.8804255e-06
3.9610564e-05
-9.4153926e-06
4.7221379e-05
-8.7280806e-06
5.6193539e-05
-7.718728e-06
6.6688415e-05
-6.2881412e-06
7.8869114e-05
-4.2891109e-06
9.2909674e-05
-1.504521e-06
0.00010896245
2.3741768e-06
0.00012712193
7.8881151e-06
0.00014730284
1.510785e-05
0.00016948164
2.5376312e-05
0.00019316372
3.6635867e-05
0.00021809339
4.5895733e-05
0.00024649114
5.7891654e-05
0.00027917446
7.5998756e-05
0.00031306576
0.00010041315
0.00034597279
0.00013130577
0.00037741079
0.00016772045
0.00040770213
0.00020407493
0.00044305358
0.00024342931
0.00048748137
0.00029302821
0.00053520436
0.00034838394
0.0005856247
0.00040689346
0.00064199882
0.00046657147
0.00070790567
0.0005292343
0.00079253544
0.00059184273
0.00090274965
0.00065266918
0.0010505699
0.00069646765
0.001251294
0.00072653367
0.0015141987
0.00073475019
0.0018526228
0.00063958033
0.0022632747
0.00036581655
0.0027115395
2.6474202e-05
0.0031154105
-0.00039838226
0.0032472894
0.0016933274
-1.6107995e-05
2.7002876e-06
-1.6106718e-05
3.221384e-06
-1.6099697e-05
3.8592694e-06
-1.6090247e-05
4.6235343e-06
-1.6081322e-05
5.5391486e-06
-1.6076689e-05
6.6360233e-06
-1.6076888e-05
7.9500086e-06
-1.6085272e-05
9.5238256e-06
-1.6099043e-05
1.1408449e-05
-1.6118975e-05
1.3664251e-05
-1.6137879e-05
1.6363136e-05
-1.6146963e-05
1.9588843e-05
-1.613628e-05
2.3440133e-05
-1.6078973e-05
2.8030095e-05
-1.5957213e-05
3.3487791e-05
-1.5747885e-05
3.9967058e-05
-1.541074e-05
4.7642894e-05
-1.4864253e-05
5.6689866e-05
-1.4004656e-05
6.726533e-05
-1.2742924e-05
7.9527363e-05
-1.0944778e-05
9.3643392e-05
-8.4044598e-06
0.00010975587
-4.8021945e-06
0.00012793198
3.8288069e-07
0.00014805424
7.2672653e-06
0.00017004821
1.6960221e-05
0.00019342335
2.708605e-05
0.00021818783
3.5091762e-05
0.00024670609
4.6203806e-05
0.00027929076
6.3242173e-05
0.0003125661
8.6530488e-05
0.00034439803
0.00011630787
0.00037403144
0.0001515551
0.00040172481
0.00018691157
0.00043370437
0.00022492743
0.00047423274
0.00027356529
0.00051685912
0.00032773222
0.00056068871
0.00038540337
0.00060998498
0.00044424764
0.0006688542
0.00050679389
0.00074567944
0.00056947664
0.00084706558
0.00063100953
0.00098581155
0.00067668498
0.0011780648
0.00070854641
0.0014349006
0.0007185796
0.0017699557
0.00062275833
0.0021850272
0.00036263288
0.0026512413
3.5316623e-05
0.0030844118
-0.00038398784
0.0032458802
0.0016988555
-2.0717851e-05
2.7321409e-06
-2.0732203e-05
3.2596773e-06
-2.0746269e-05
3.9056101e-06
-2.0763951e-05
4.6795965e-06
-2.0788879e-05
5.606811e-06
-2.0824708e-05
6.7177089e-06
-2.0872283e-05
8.0483128e-06
-2.0934552e-05
9.6419855e-06
-2.1008859e-05
1.1550213e-05
-2.1096405e-05
1.3834195e-05
-2.1188898e-05
1.6566442e-05
-2.1277884e-05
1.9831959e-05
-2.1348666e-05
2.3730249e-05
-2.1374805e-05
2.8375224e-05
-2.1331516e-05
3.3896252e-05
-2.1215996e-05
4.0450014e-05
-2.1001167e-05
4.8215529e-05
-2.0593484e-05
5.7367113e-05
-1.9889447e-05
6.8059072e-05
-1.8801412e-05
8.0444902e-05
-1.720737e-05
9.4686429e-05
-1.4918937e-05
0.00011091936
-1.160046e-05
0.00012918312
-6.7707619e-06
0.00014933469
-2.4739746e-07
0.00017124506
8.8825164e-06
0.00019441631
1.794335e-05
0.00021917351
2.4808701e-05
0.00024802322
3.5101324e-05
0.00028071716
5.1119711e-05
0.0003136072
7.3312517e-05
0.00034463936
0.00010198645
0.00037277839
0.00013609021
0.00039820313
0.00017043333
0.00042716539
0.00020709075
0.00046421335
0.00025471753
0.00050220044
0.00030765646
0.00053990325
0.00036442019
0.00058256622
0.00042236684
0.00063475875
0.00048471829
0.00070404484
0.00054737657
0.00079674231
0.00060947844
0.0009264604
0.00065680042
0.0011100885
0.00069036226
0.001360425
0.00070209264
0.0016915189
0.0006064061
0.0021104584
0.00035931296
0.0025927754
4.3288212e-05
0.0030523212
-0.00037057576
0.0032423021
0.001703622
-2.5030281e-05
2.7718149e-06
-2.5088035e-05
3.3071796e-06
-2.5161244e-05
3.9627735e-06
-2.5245482e-05
4.7485723e-06
-2.5339777e-05
5.6902224e-06
-2.5442097e-05
6.8184921e-06
-2.5551669e-05
8.1701358e-06
-2.5669554e-05
9.7890343e-06
-2.5793384e-05
1.1727382e-05
-2.5923755e-05
1.4047295e-05
-2.6054302e-05
1.6821996e-05
-2.6177366e-05
2.0137401e-05
-2.6281366e-05
2.4093918e-05
-2.6339702e-05
2.8805806e-05
-2.6349603e-05
3.4405704e-05
-2.6331215e-05
4.1055464e-05
-2.6249834e-05
4.8937092e-05
-2.5982511e-05
5.8224052e-05
-2.5414378e-05
6.90645e-05
-2.4487519e-05
8.1610214e-05
-2.3094745e-05
9.6022348e-05
-2.1061168e-05
0.00011243334
-1.8032398e-05
0.00013085247
-1.3581799e-05
0.00015112026
-7.4433791e-06
0.00017305255
1.117842e-06
0.0001961462
9.170279e-06
0.00022106546
1.5006319e-05
0.00025042619
2.4543854e-05
0.00028340334
3.9587864e-05
0.00031612028
6.0712385e-05
0.00034661099
8.8295698e-05
0.00037355136
0.00012127733
0.00039701616
0.00015459484
0.00042330152
0.00018987176
0.00045728275
0.00023643667
0.00049108383
0.00028810723
0.00052312402
0.00034389266
0.00055960084
0.00040087982
0.00060547164
0.00046295177
0.00066748281
0.00052549213
0.00075166253
0.00058804097
0.00087241697
0.00063681271
0.0010473166
0.00067196801
0.0012907748
0.00068529492
0.0016173868
0.00059037945
0.0020395508
0.00035578615
0.0025361932
5.0448993e-05
0.0030194052
-0.00035809371
0.0032368175
0.0017077039
-2.9092091e-05
2.8197453e-06
-2.9233892e-05
3.3655241e-06
-2.9391834e-05
4.0339715e-06
-2.9546651e-05
4.8350294e-06
-2.9695361e-05
5.794495e-06
-2.983979e-05
6.9437474e-06
-2.9980321e-05
8.3200352e-06
-3.0121819e-05
9.9678755e-06
-3.0264329e-05
1.1940559e-05
-3.0411459e-05
1.4301043e-05
-3.0558907e-05
1.7123995e-05
-3.0703102e-05
2.049679e-05
-3.0835894e-05
2.4521332e-05
-3.0942532e-05
2.9314201e-05
-3.1048595e-05
3.5013352e-05
-3.1170305e-05
4.1784775e-05
-3.1234419e-05
4.9811165e-05
-3.1087212e-05
5.9258737e-05
-3.0620167e-05
7.0273918e-05
-2.9823231e-05
8.3013395e-05
-2.8622325e-05
9.7638911e-05
-2.6842326e-05
0.00011428192
-2.4107018e-05
0.00013292334
-2.0053767e-05
0.00015339246
-1.4315833e-05
0.00017545124
-6.3394793e-06
0.00019859047
7.4856047e-07
0.00022383286
5.6632139e-06
0.00025387945
1.4503412e-05
0.00028730804
2.8615588e-05
0.00032005296
4.8698294e-05
0.00035025325
7.5203973e-05
0.00037628294
0.00010708542
0.00039809592
0.00013936916
0.00042203837
0.00017324416
0.00045336387
0.0002186947
0.00048345123
0.00026905484
0.00051032059
0.00032379294
0.00054110019
0.0003797558
0.00058107546
0.00044146371
0.00063615101
0.00050379224
0.00071203607
0.00056667928
0.00082394916
0.0006167194
0.00099004585
0.00065336122
0.001226294
0.00066818029
0.0015479268
0.00057455291
0.0019726436
0.0003519828
0.0024816875
5.6862394e-05
0.002985806
-0.0003464648
0.00322949
0.0017110345
-3.2784652e-05
2.8740047e-06
-3.2921101e-05
3.429001e-06
-3.3072872e-05
4.1085668e-06
-3.3224837e-05
4.9230103e-06
-3.3378366e-05
5.8991551e-06
-3.3538216e-05
7.0689218e-06
-3.3705311e-05
8.4706144e-06
-3.3885768e-05
1.0150146e-05
-3.4076807e-05
1.2161495e-05
-3.4283785e-05
1.4569622e-05
-3.4499854e-05
1.7450186e-05
-3.4725685e-05
2.0892684e-05
-3.4952702e-05
2.5000797e-05
-3.5187953e-05
2.9894722e-05
-3.5453803e-05
3.5716824e-05
-3.5741558e-05
4.263477e-05
-3.5945057e-05
5.0827008e-05
-3.5885017e-05
6.0455665e-05
-3.5497427e-05
7.1671033e-05
-3.4821068e-05
8.4639206e-05
-3.3808079e-05
9.9524157e-05
-3.2279895e-05
0.00011644955
-2.9841345e-05
0.00013537344
-2.6188445e-05
0.00015612353
-2.0849173e-05
0.00017840228
-1.3474722e-05
0.000201719
-7.3174687e-06
0.00022745229
-3.2351292e-06
0.00025834009
4.9538124e-06
0.00029237263
1.81731e-05
0.0003253335
3.7239488e-05
0.00035547707
6.2682778e-05
0.00038086763
9.3487823e-05
0.00040130951
0.00012473356
0.0004232241
0.00015718489
0.00045229749
0.00020147269
0.00047913203
0.00025048046
0.00050130871
0.00030410156
0.00052686939
0.00035898052
0.00056134929
0.00042023718
0.00060981105
0.00048226493
0.00067764461
0.00054538771
0.00078084471
0.00059653594
0.00093809254
0.00063455049
0.0011668391
0.00065076774
0.0014830615
0.00055885787
0.0019095981
0.00034787357
0.0024292948
6.2551758e-05
0.0029518267
-0.00033563699
0.0032205885
0.0017137103
-3.6140442e-05
2.9360852e-06
-3.6209078e-05
3.5030819e-06
-3.6297193e-05
4.1971971e-06
-3.6405773e-05
5.0291213e-06
-3.65401e-05
6.0258928e-06
-3.6702314e-05
7.2203814e-06
-3.6894485e-05
8.6516543e-06
-3.7119288e-05
1.0366369e-05
-3.7374405e-05
1.242048e-05
-3.7661637e-05
1.4879852e-05
-3.7976072e-05
1.7822893e-05
-3.8317313e-05
2.1341428e-05
-3.8682919e-05
2.5542713e-05
-3.9078044e-05
3.0550575e-05
-3.9515019e-05
3.6510799e-05
-3.9958786e-05
4.3591029e-05
-4.0274221e-05
5.1963811e-05
-4.0301383e-05
6.1792033e-05
-4.0019113e-05
7.3239399e-05
-3.9486445e-05
8.6478351e-05
-3.8666287e-05
0.00010166928
-3.7385424e-05
0.00011892728
-3.5245144e-05
0.0001381898
-3.1983174e-05
0.0001592912
-2.7034875e-05
0.00018188086
-2.0282135e-05
0.00020550055
-1.5030561e-05
0.00023188488
-1.1708411e-05
0.00026377249
-4.1275779e-06
0.00029855949
8.2353706e-06
0.00033191446
2.6310728e-05
0.00036222733
5.0707173e-05
0.00038724269
8.0463205e-05
0.00040659185
0.00011067025
0.00042678269
0.00014167692
0.00045400215
0.00018475595
0.00047806353
0.0002323699
0.00049605928
0.00028480823
0.00051692033
0.00033854499
0.00054637107
0.00039926445
0.00058861053
0.00046090084
0.0006486889
0.0005241661
0.00074336392
0.00057626828
0.00089175821
0.00061554397
0.0011127657
0.00063306171
0.0014231785
0.00054324073
0.0018508221
0.00034340971
0.002379283
6.7566429e-05
0.0029176107
-0.00032556034
0.0032101862
0.0017156859
-3.9311184e-05
3.0051946e-06
-3.9383991e-05
3.5856447e-06
-3.9473872e-05
4.2962556e-06
-3.9582462e-05
5.1477753e-06
-3.9715614e-05
6.168101e-06
-3.9876438e-05
7.3908514e-06
-4.0069896e-05
8.8558133e-06
-4.0300364e-05
1.0610951e-05
-4.0570672e-05
1.271335e-05
-4.0885348e-05
1.5230495e-05
-4.1246042e-05
1.8243143e-05
-4.1655563e-05
2.1845423e-05
-4.2116086e-05
2.6148154e-05
-4.2631414e-05
3.1279783e-05
-4.3197609e-05
3.7389351e-05
-4.3757308e-05
4.4641846e-05
-4.4170395e-05
5.320906e-05
-4.431699e-05
6.3262694e-05
-4.4190509e-05
7.4976241e-05
-4.3832647e-05
8.8524811e-05
-4.3214761e-05
0.00010406494
-4.2175838e-05
0.00012170308
-4.0328424e-05
0.00014135997
-3.7440884e-05
0.00016287206
-3.2873513e-05
0.00018584629
-2.6754802e-05
0.00020989329
-2.2391077e-05
0.00023709572
-1.9773533e-05
0.00027013658
-1.2760904e-05
0.00030581551
-1.219856e-06
0.0003397298
1.5888625e-05
0.00037042229
3.9254292e-05
0.00039531099
6.7991141e-05
0.00041382074
9.7164946e-05
0.00043256943
0.00012670349
0.00045832345
0.00016852379
0.00048008728
0.00021470184
0.00049440498
0.00026589134
0.00051108334
0.00031842825
0.00053596274
0.00037852217
0.00057237085
0.00043967791
0.00062501938
0.00050299208
0.00071137432
0.00055590597
0.00085094495
0.00059632488
0.0010640244
0.00061504814
0.0013682918
0.00052761122
0.0017962712
0.00033856474
0.0023317556
7.1937747e-05
0.0028834962
-0.00031620146
0.0031985928
0.0017170923
-4.2240545e-05
3.0810993e-06
-4.232128e-05
3.6764178e-06
-4.241955e-05
4.4050324e-06
-4.2537629e-05
5.2782162e-06
-4.2680946e-05
6.3244988e-06
-4.285303e-05
7.578355e-06
-4.3059277e-05
9.0805294e-06
-4.3304816e-05
1.0880553e-05
-4.3594079e-05
1.3036396e-05
-4.3933908e-05
1.5618028e-05
-4.4328571e-05
1.8707695e-05
-4.4784398e-05
2.2402605e-05
-4.5304709e-05
2.681666e-05
-4.5897584e-05
3.2083011e-05
-4.6546546e-05
3.8351768e-05
-4.7183103e-05
4.5788705e-05
-4.7694343e-05
5.4568939e-05
-4.7985873e-05
6.4872036e-05
-4.8040436e-05
7.6880984e-05
-4.7879865e-05
9.0774944e-05
-4.7474363e-05
0.00010670493
-4.6675383e-05
0.00012476924
-4.5109488e-05
0.00014487276
-4.2571719e-05
0.0001668504
-3.8367887e-05
0.00019027708
-3.2889459e-05
0.0002148642
-2.9401439e-05
0.00024304595
-2.7443502e-05
0.00027739702
-2.0966294e-05
0.00031410258
-1.0214074e-05
0.00034873247
5.952112e-06
0.00038000563
2.8303199e-05
0.00040500762
5.605993e-05
0.00042291966
8.4216506e-05
0.00044047688
0.00011225657
0.00046514143
0.00015276512
0.00048511362
0.0001974603
0.00049630555
0.00024733562
0.00050937004
0.0002986168
0.00053019692
0.00035799622
0.0005612315
0.0004185808
0.00060683005
0.00048185456
0.00068513222
0.00053544081
0.0008159603
0.00057688651
0.0010209816
0.00059671158
0.0013188149
0.00051190651
0.0017464194
0.00033331023
0.0022870349
7.5679033e-05
0.002849642
-0.00030751231
0.0031858659
0.0017178796
-4.4937334e-05
3.1637339e-06
-4.5026156e-05
3.7751885e-06
-4.5133782e-05
4.5234426e-06
-4.5262693e-05
5.4200995e-06
-4.5418566e-05
6.4948006e-06
-4.5605119e-05
7.7824332e-06
-4.582865e-05
9.3255085e-06
-4.6094485e-05
1.117431e-05
-4.6408731e-05
1.3388973e-05
-4.6778771e-05
1.6041019e-05
-4.7209643e-05
1.9215157e-05
-4.7708587e-05
2.3011472e-05
-4.828078e-05
2.7547568e-05
-4.892738e-05
3.29596e-05
-4.9627303e-05
3.9400014e-05
-5.0322672e-05
4.7035985e-05
-5.092387e-05
5.6047136e-05
-5.1357375e-05
6.6621563e-05
-5.1599339e-05
7.8952958e-05
-5.1645815e-05
9.3224349e-05
-5.1460409e-05
0.00010958317
-5.0900351e-05
0.00012811606
-4.9609572e-05
0.00014871837
-4.7398995e-05
0.00017122144
-4.3523401e-05
0.000195148
-3.8678338e-05
0.00022036805
-3.6056249e-05
0.00024968725
-3.4722388e-05
0.00028549366
-2.8756675e-05
0.00032335446
-1.876376e-05
0.0003588477
-3.5146318e-06
0.00039088582
1.7846687e-05
0.00041621287
4.4672279e-05
0.00043372471
7.1833485e-05
0.00045030942
9.8343894e-05
0.00047424544
0.00013748713
0.00049291101
0.00018064456
0.00050151485
0.00022914148
0.00051152905
0.00027911365
0.0005288011
0.0003376911
0.00055489709
0.00039761564
0.00059383816
0.00046075873
0.00066436214
0.00051488559
0.00078655208
0.00055723763
0.00098342162
0.00057806641
0.0012745763
0.00049609075
0.0017010465
0.00032762148
0.0022451612
7.8783437e-05
0.0028164176
-0.00029945205
0.0031723372
0.0017181852
-4.7415359e-05
3.2528839e-06
-4.7512084e-05
3.8815902e-06
-4.7629125e-05
4.6510627e-06
-4.7769337e-05
5.573115e-06
-4.793835e-05
6.6782783e-06
-4.8140672e-05
8.0025203e-06
-4.8382855e-05
9.5896256e-06
-4.8671146e-05
1.1491175e-05
-4.9012365e-05
1.3769358e-05
-4.9414761e-05
1.6497742e-05
-4.9883614e-05
1.9763597e-05
-5.0425839e-05
2.3669733e-05
-5.1045342e-05
2.83379e-05
-5.1736292e-05
3.3906517e-05
-5.2476787e-05
4.0530628e-05
-5.3221169e-05
4.838091e-05
-5.3903791e-05
5.7641693e-05
-5.4471565e-05
6.8509513e-05
-5.4896244e-05
8.1189516e-05
-5.5151288e-05
9.5868924e-05
-5.5188997e-05
0.0001126929
-5.4865947e-05
0.00013173495
-5.3851334e-05
0.00015288559
-5.1948368e-05
0.00017596927
-4.8354886e-05
0.00020044035
-4.4126372e-05
0.0002263787
-4.2363344e-05
0.00025698712
-4.1626561e-05
0.00029440048
-3.6150303e-05
0.00033354218
-2.6887905e-05
0.00037003404
-1.2525817e-05
0.00040300586
7.8787785e-06
0.00042885423
3.3837763e-05
0.00044613803
6.0029262e-05
0.00046192452
8.4967417e-05
0.0004854958
0.00012269295
0.00050339201
0.00016426031
0.00050998082
0.00021130884
0.00051755407
0.00025992189
0.00053183623
0.00031761127
0.00055349714
0.00037678464
0.00058623115
0.00043970735
0.00064931887
0.00049424584
0.00076303046
0.00053738634
0.00095171994
0.00055911969
0.0012360055
0.00048013944
0.0016606729
0.00032147506
0.0022064979
8.1267346e-05
0.0027839627
-0.000291993
0.003158053
0.0017179695
-4.9685127e-05
3.348274e-06
-4.9789619e-05
3.9955071e-06
-4.9915879e-05
4.7876603e-06
-5.0067268e-05
5.7370716e-06
-5.0249488e-05
6.874812e-06
-5.0467667e-05
8.2383911e-06
-5.0728799e-05
9.8726221e-06
-5.1039938e-05
1.1830786e-05
-5.1407964e-05
1.4177071e-05
-5.1841418e-05
1.6987186e-05
-5.2345157e-05
2.0350895e-05
-5.2926473e-05
2.4374855e-05
-5.3584772e-05
2.9183291e-05
-5.431321e-05
3.4917942e-05
-5.5089313e-05
4.173727e-05
-5.5881394e-05
4.9816331e-05
-5.6648735e-05
5.9345714e-05
-5.7348356e-05
7.0530739e-05
-5.7949205e-05
8.3586113e-05
-5.8409094e-05
9.8702196e-05
-5.8668586e-05
0.00011602498
-5.8579925e-05
0.00013561647
-5.7850159e-05
0.00015737166
-5.6236103e-05
0.00018109499
-5.2893615e-05
0.00020615472
-4.926856e-05
0.00023289854
-4.8340144e-05
0.00026493409
-4.8171399e-05
0.00030407585
-4.3158904e-05
0.00034460315
-3.4592595e-05
0.00038220755
-2.1082533e-05
0.00041625712
-1.6040887e-06
0.00044280349
2.3531441e-05
0.0004600445
4.8785129e-05
0.00047522266
7.2133707e-05
0.00049871473
0.00010837429
0.00051632261
0.00014830325
0.00052148678
0.00019383671
0.00052721275
0.00024102608
0.00053907486
0.00029774167
0.00055682312
0.00035607329
0.00058381747
0.00041868397
0.00063982789
0.00047350675
0.00074525574
0.00051731365
0.00092578346
0.00053985142
0.0012030613
0.00046399161
0.0016252083
0.00031485776
0.0021711561
8.3150785e-05
0.0027526705
-0.00028511896
0.0031433916
0.0017174036
-5.1756469e-05
3.4496235e-06
-5.1868616e-05
4.1167998e-06
-5.2004068e-05
4.9331039e-06
-5.2166184e-05
5.9113275e-06
-5.2361463e-05
7.0839081e-06
-5.2595243e-05
8.4893323e-06
-5.2874486e-05
1.0173511e-05
-5.3206967e-05
1.2192091e-05
-5.3598785e-05
1.4610479e-05
-5.405802e-05
1.7507157e-05
-5.4590384e-05
2.0974567e-05
-5.5199704e-05
2.5122548e-05
-5.5888099e-05
3.0078728e-05
-5.6642698e-05
3.5986976e-05
-5.7452019e-05
4.3011899e-05
-5.8299778e-05
5.1335069e-05
-5.9156322e-05
6.1152428e-05
-5.9992936e-05
7.2678527e-05
-6.0767352e-05
8.6135382e-05
-6.1426582e-05
0.00010171596
-6.1907669e-05
0.00011957158
-6.2052993e-05
0.00013975345
-6.1617909e-05
0.00016216795
-6.0278611e-05
0.00018658829
-5.7166994e-05
0.00021227747
-5.4137428e-05
0.00023990828
-5.4004353e-05
0.00027350923
-5.436439e-05
0.00031449641
-4.9783781e-05