/*--------------------------------*- C++ -*----------------------------------*\
  =========                 |
  \\      /  F ield         | OpenFOAM: The Open Source CFD Toolbox
   \\    /   O peration     | Website:  https://openfoam.org
    \\  /    A nd           | Version:  8
     \\/     M anipulation  |
\*---------------------------------------------------------------------------*/
FoamFile
{
    version     2.0;
    format      ascii;
    class       volScalarField;
    location    "0.170001";
    object      nut;
}
// * * * * * * * * * * * * * * * * * * * * * * * * * * * * * * * * * * * * * //

dimensions      [0 2 -1 0 0 0 0];

internalField   nonuniform List<scalar> 
20000
(
0.0011122365
0.0029297495
0.0040912358
0.0046297463
0.0043893849
0.0030683811
0.00073336812
3.3961963e-07
4.945385e-09
4.8668722e-09
4.7332785e-09
4.7617926e-09
4.7000783e-09
4.7346557e-09
4.7310914e-09
4.7624657e-09
4.7827135e-09
4.8233402e-09
4.8647143e-09
4.9219928e-09
4.9861081e-09
5.0651911e-09
5.1549374e-09
5.2602479e-09
5.3803321e-09
5.5184462e-09
5.6787047e-09
5.8554634e-09
6.0441421e-09
6.2365919e-09
6.4232304e-09
6.5973017e-09
6.7526983e-09
6.8866078e-09
6.9977847e-09
7.088089e-09
7.1570324e-09
7.2059816e-09
7.2393186e-09
7.259254e-09
7.2683717e-09
7.2703449e-09
7.2696201e-09
7.263117e-09
7.2566206e-09
7.2538314e-09
7.2563899e-09
7.2657172e-09
7.2743519e-09
7.3419364e-09
0.0010994675
0.0028944841
0.0040238759
0.0045220812
0.0042341721
0.0028482865
0.00060545203
1.1943298e-07
4.8606353e-09
4.8072912e-09
4.6758436e-09
4.7063594e-09
4.6457873e-09
4.6809494e-09
4.6780389e-09
4.7104e-09
4.7318037e-09
4.7741206e-09
4.8172658e-09
4.8766853e-09
4.9434424e-09
5.0256491e-09
5.1192996e-09
5.2292041e-09
5.3549896e-09
5.5009846e-09
5.6704245e-09
5.8564058e-09
6.0503321e-09
6.2453082e-09
6.4329193e-09
6.606432e-09
6.760353e-09
6.8923153e-09
7.0015465e-09
7.0898582e-09
7.1572146e-09
7.2060303e-09
7.2383003e-09
7.2577394e-09
7.2665798e-09
7.2689641e-09
7.2674139e-09
7.2613564e-09
7.2556575e-09
7.2529274e-09
7.256039e-09
7.2658783e-09
7.2732933e-09
7.3427188e-09
0.0011045659
0.0028780366
0.0039642166
0.0044127694
0.0040703906
0.0025981154
0.00047566885
4.5517777e-08
4.7779743e-09
4.7381477e-09
4.6097228e-09
4.6408758e-09
4.581422e-09
4.6166917e-09
4.6148332e-09
4.6481219e-09
4.6709734e-09
4.714891e-09
4.7601314e-09
4.8219576e-09
4.8917662e-09
4.9778064e-09
5.0766283e-09
5.1930019e-09
5.3273642e-09
5.4852199e-09
5.6690183e-09
5.8598399e-09
6.0584438e-09
6.2563247e-09
6.4447652e-09
6.6174025e-09
6.7693821e-09
6.8988762e-09
7.0057052e-09
7.0920806e-09
7.1579409e-09
7.2059338e-09
7.2373958e-09
7.2556312e-09
7.2633208e-09
7.2652718e-09
7.2638609e-09
7.2580492e-09
7.2538074e-09
7.2515131e-09
7.257076e-09
7.2655305e-09
7.280012e-09
7.3421034e-09
0.0011103334
0.0028579728
0.0039011633
0.0043025808
0.0039089363
0.0023480359
0.00036455305
2.1176805e-08
4.6921657e-09
4.6619619e-09
4.5367844e-09
4.5691024e-09
4.5113822e-09
4.5469586e-09
4.5463997e-09
4.5806611e-09
4.6052457e-09
4.6508104e-09
4.6981848e-09
4.7626331e-09
4.8360332e-09
4.9268141e-09
5.0324808e-09
5.1578444e-09
5.3045513e-09
5.4794605e-09
5.6686197e-09
5.867099e-09
6.0709422e-09
6.2715242e-09
6.460447e-09
6.6317649e-09
6.7813509e-09
6.9079892e-09
7.0119738e-09
7.0958101e-09
7.1597277e-09
7.20668e-09
7.2368561e-09
7.254109e-09
7.2613268e-09
7.2628974e-09
7.2609491e-09
7.2556701e-09
7.2524614e-09
7.250917e-09
7.2573252e-09
7.2655117e-09
7.2833111e-09
7.3420899e-09
0.0011159271
0.0028371544
0.0038368518
0.0041921859
0.0037488441
0.0020985235
0.00026739487
1.2084001e-08
4.6090276e-09
4.5851452e-09
4.4637971e-09
4.4971356e-09
4.4411418e-09
4.4771818e-09
4.4778793e-09
4.5132467e-09
4.539278e-09
4.5865545e-09
4.6362519e-09
4.7036926e-09
4.7815271e-09
4.8782098e-09
4.9926999e-09
5.1299288e-09
5.2937337e-09
5.4778773e-09
5.6725521e-09
5.8784919e-09
6.0873415e-09
6.2903287e-09
6.4792573e-09
6.6487367e-09
6.7954141e-09
6.9187011e-09
7.0194347e-09
7.1004731e-09
7.1622591e-09
7.2078178e-09
7.2366395e-09
7.2525611e-09
7.2589926e-09
7.2603233e-09
7.2580938e-09
7.2532129e-09
7.2507351e-09
7.2505954e-09
7.2577736e-09
7.2654989e-09
7.2884874e-09
7.3418799e-09
0.0011197263
0.0028132687
0.0037715266
0.0040821148
0.0035924146
0.0018590546
0.00018268179
8.2692479e-09
4.5320796e-09
4.5131461e-09
4.3951548e-09
4.4295923e-09
4.3754298e-09
4.4119225e-09
4.4139717e-09
4.4502421e-09
4.4778694e-09
4.526985e-09
4.579548e-09
4.6507486e-09
4.7343361e-09
4.838852e-09
4.9644791e-09
5.117328e-09
5.2900849e-09
5.4783395e-09
5.6820753e-09
5.8951055e-09
6.1085368e-09
6.3133225e-09
6.5016221e-09
6.6686529e-09
6.8118656e-09
6.9313263e-09
7.0283948e-09
7.1062758e-09
7.1657314e-09
7.2094175e-09
7.2365113e-09
7.2511826e-09
7.2569955e-09
7.2580954e-09
7.2556065e-09
7.2512368e-09
7.2489614e-09
7.2504959e-09
7.2580548e-09
7.265714e-09
7.2930993e-09
7.342104e-09
0.0011227039
0.0027895332
0.0037067963
0.003971772
0.0034359393
0.0016318518
0.00010943019
6.4835749e-09
4.4637402e-09
4.4488177e-09
4.3343748e-09
4.3699403e-09
4.3175219e-09
4.3545007e-09
4.357897e-09
4.3953651e-09
4.4247972e-09
4.4761443e-09
4.5325126e-09
4.6089076e-09
4.6998616e-09
4.8160239e-09
4.9533289e-09
5.1128278e-09
5.2898866e-09
5.4862987e-09
5.6978851e-09
5.9174217e-09
6.1346782e-09
6.3404772e-09
6.5273829e-09
6.6912846e-09
6.8304526e-09
6.9455996e-09
7.0386183e-09
7.1130708e-09
7.1700444e-09
7.2113992e-09
7.2364202e-09
7.2497688e-09
7.2550016e-09
7.2558628e-09
7.2531652e-09
7.2495269e-09
7.2474759e-09
7.2504586e-09
7.2583719e-09
7.26626e-09
7.2981755e-09
7.342674e-09
0.0011244104
0.0027647707
0.0036423026
0.0038611282
0.0032801704
0.0014192215
5.3576522e-05
5.5875674e-09
4.406355e-09
4.3948352e-09
4.283575e-09
4.3202649e-09
4.2694636e-09
4.3069494e-09
4.3118587e-09
4.3509999e-09
4.3832917e-09
4.4377477e-09
4.4992375e-09
4.5834876e-09
4.683751e-09
4.8071512e-09
4.9495035e-09
5.1125059e-09
5.2965157e-09
5.5015354e-09
5.7208951e-09
5.9459843e-09
6.1660931e-09
6.3719391e-09
6.5565734e-09
6.7166066e-09
6.8511281e-09
6.961493e-09
7.0500864e-09
7.1208348e-09
7.17516e-09
7.2138065e-09
7.2365318e-09
7.2483762e-09
7.2530882e-09
7.2537163e-09
7.2507804e-09
7.2481313e-09
7.2466427e-09
7.250449e-09
7.258712e-09
7.2671822e-09
7.3029138e-09
7.34357e-09
0.0011254585
0.0027407005
0.0035796416
0.0037505044
0.0031243482
0.0012210048
2.0817147e-05
5.112428e-09
4.35977e-09
4.3514889e-09
4.2432539e-09
4.2812723e-09
4.2323106e-09
4.2709256e-09
4.2777452e-09
4.3193052e-09
4.3555376e-09
4.4160054e-09
4.4838195e-09
4.5731508e-09
4.6773707e-09
4.8048121e-09
4.9495507e-09
5.1193153e-09
5.3120164e-09
5.5251905e-09
5.7513473e-09
5.9809686e-09
6.2028056e-09
6.4076248e-09
6.5890431e-09
6.7444401e-09
6.8737199e-09
6.9788507e-09
7.0626715e-09
7.1294605e-09
7.1809706e-09
7.2166215e-09
7.236996e-09
7.2472734e-09
7.2512319e-09
7.2516522e-09
7.248584e-09
7.2468196e-09
7.2462374e-09
7.2505857e-09
7.2591554e-09
7.2685611e-09
7.307618e-09
7.344696e-09
0.0011257473
0.0027167995
0.0035189703
0.0036444423
0.0029652404
0.0010386135
6.7963342e-06
4.8523832e-09
4.3248958e-09
4.3193498e-09
4.2139365e-09
4.2534403e-09
4.207e-09
4.2476098e-09
4.2581625e-09
4.3035576e-09
4.3437678e-09
4.4072694e-09
4.4777162e-09
4.5699189e-09
4.6763726e-09
4.8056402e-09
4.9583215e-09
5.1359883e-09
5.3367132e-09
5.5574554e-09
5.7895023e-09
6.0224643e-09
6.2447923e-09
6.4474291e-09
6.6246442e-09
6.7746258e-09
6.8980796e-09
6.9975542e-09
7.0762784e-09
7.1388728e-09
7.1873733e-09
7.219803e-09
7.2378789e-09
7.2468412e-09
7.2496447e-09
7.2498229e-09
7.2468518e-09
7.2454709e-09
7.2460789e-09
7.2509706e-09
7.2597421e-09
7.270574e-09
7.3121157e-09
7.3459609e-09
0.0011256013
0.0026928526
0.0034598411
0.003539151
0.002800321
0.00087233936
2.0443574e-06
4.7063689e-09
4.2998479e-09
4.2976252e-09
4.196535e-09
4.2385442e-09
4.1951884e-09
4.2375327e-09
4.2500893e-09
4.2969866e-09
4.3391394e-09
4.4045896e-09
4.4765821e-09
4.5700092e-09
4.680975e-09
4.8175079e-09
4.9768252e-09
5.162217e-09
5.3707999e-09
5.5983188e-09
5.8352104e-09
6.0702998e-09
6.29184e-09
6.4911146e-09
6.6631387e-09
6.8069428e-09
6.9240183e-09
7.0174449e-09
7.0907841e-09
7.1490383e-09
7.1942397e-09
7.2233027e-09
7.2390423e-09
7.2466426e-09
7.2486592e-09
7.2483409e-09
7.2455525e-09
7.2444048e-09
7.2460215e-09
7.2515545e-09
7.2605983e-09
7.2734199e-09
7.3163938e-09
7.3473006e-09
0.0011252937
0.0026684481
0.0033992607
0.0034306943
0.0026282653
0.00072328473
6.1632033e-07
4.6259794e-09
4.2864639e-09
4.285432e-09
4.1895262e-09
4.2243535e-09
4.1899849e-09
4.2333408e-09
4.2476824e-09
4.2953675e-09
4.3384957e-09
4.4048944e-09
4.48053e-09
4.5793126e-09
4.6959448e-09
4.838429e-09
5.0052244e-09
5.1982188e-09
5.4140771e-09
5.6476216e-09
5.8882891e-09
6.1242226e-09
6.3436683e-09
6.5383974e-09
6.7042605e-09
6.8411567e-09
6.9513403e-09
7.0383579e-09
7.1060591e-09
7.1599821e-09
7.2014185e-09
7.2270474e-09
7.2403906e-09
7.2465895e-09
7.2482166e-09
7.2472359e-09
7.2446675e-09
7.2438783e-09
7.2459919e-09
7.2522844e-09
7.2617346e-09
7.2772843e-09
7.3203919e-09
7.3486506e-09
0.0011250385
0.0026435085
0.0033370791
0.0033224748
0.0024493542
0.00059466476
1.990174e-07
4.5815322e-09
4.2780194e-09
4.2745792e-09
4.1817005e-09
4.2176847e-09
4.1885999e-09
4.2325266e-09
4.247873e-09
4.2974066e-09
4.3437794e-09
4.4141403e-09
4.4939398e-09
4.5972523e-09
4.7197497e-09
4.8690505e-09
5.0429969e-09
5.2433804e-09
5.4661402e-09
5.7049295e-09
5.948298e-09
6.1838109e-09
6.3998781e-09
6.5889146e-09
6.7476921e-09
6.8770013e-09
6.9798294e-09
7.060107e-09
7.1219584e-09
7.1716186e-09
7.2088547e-09
7.2309885e-09
7.2419046e-09
7.2466857e-09
7.2480059e-09
7.2465457e-09
7.2442976e-09
7.2436199e-09
7.246141e-09
7.2531241e-09
7.2631713e-09
7.2823111e-09
7.3241299e-09
7.3499572e-09
0.0011246509
0.0026181255
0.0032747333
0.0032139991
0.0022631457
0.00047876826
7.1653675e-08
4.5535709e-09
4.2761642e-09
4.2732284e-09
4.1813352e-09
4.215105e-09
4.1919568e-09
4.2378204e-09
4.2559427e-09
4.307809e-09
4.3572782e-09
4.4309876e-09
4.5153579e-09
4.6239823e-09
4.7525624e-09
4.9084853e-09
5.0897715e-09
5.2974096e-09
5.5266034e-09
5.7698558e-09
6.0148116e-09
6.2486266e-09
6.4600439e-09
6.6422767e-09
6.7930953e-09
6.9141963e-09
7.0092564e-09
7.0824983e-09
7.1383497e-09
7.1838263e-09
7.2165324e-09
7.2350928e-09
7.2435051e-09
7.2470018e-09
7.2479258e-09
7.2461923e-09
7.2441263e-09
7.2435076e-09
7.2465668e-09
7.2540546e-09
7.264908e-09
7.2883397e-09
7.3276663e-09
7.3512546e-09
0.001123842
0.0025918249
0.0032113067
0.0031050707
0.0020708334
0.00037470593
3.0287829e-08
4.5405573e-09
4.2786733e-09
4.2783339e-09
4.1888454e-09
4.2246534e-09
4.2028854e-09
4.2500079e-09
4.2704663e-09
4.3249849e-09
4.3779489e-09
4.4555741e-09
4.5446491e-09
4.658539e-09
4.7933934e-09
4.9562489e-09
5.1448888e-09
5.3596725e-09
5.5948905e-09
5.8418189e-09
6.0872571e-09
6.3181223e-09
6.5236672e-09
6.6980476e-09
6.8401043e-09
6.9524467e-09
7.0393791e-09
7.1053439e-09
7.1551697e-09
7.1964884e-09
7.2244e-09
7.2393066e-09
7.2452713e-09
7.2475305e-09
7.2479156e-09
7.2460108e-09
7.2440624e-09
7.2434743e-09
7.2472288e-09
7.2550724e-09
7.2669577e-09
7.2949751e-09
7.3312642e-09
7.3525359e-09
0.0011225531
0.0025643176
0.003145523
0.0029876407
0.0018746013
0.00028178602
1.5539084e-08
4.5357813e-09
4.2858102e-09
4.2865516e-09
4.201141e-09
4.2385228e-09
4.2194265e-09
4.2682712e-09
4.2916335e-09
4.3487734e-09
4.4053875e-09
4.4869748e-09
4.5810294e-09
4.700541e-09
4.8419269e-09
5.0118677e-09
5.208003e-09
5.4298199e-09
5.6705949e-09
5.9203479e-09
6.1651214e-09
6.3917649e-09
6.5902403e-09
6.7557728e-09
6.888339e-09
6.9914479e-09
7.0699452e-09
7.1284733e-09
7.1724587e-09
7.2093921e-09
7.2323512e-09
7.2435539e-09
7.2472725e-09
7.2482918e-09
7.2479913e-09
7.2459109e-09
7.2440371e-09
7.2434957e-09
7.2480994e-09
7.256205e-09
7.2694201e-09
7.3019476e-09
7.334981e-09
7.3538706e-09
0.0011209791
0.0025356836
0.0030778745
0.0028705654
0.001677996
0.00019790716
9.6691373e-09
4.5403041e-09
4.2983373e-09
4.3017386e-09
4.2192765e-09
4.2581276e-09
4.241598e-09
4.2922608e-09
4.3184018e-09
4.3785241e-09
4.4389241e-09
4.5247174e-09
4.6239675e-09
4.749315e-09
4.8975173e-09
5.0748125e-09
5.2785657e-09
5.5072886e-09
5.7531396e-09
6.0048226e-09
6.2477735e-09
6.4689478e-09
6.6592054e-09
6.8149694e-09
6.9374148e-09
7.0309012e-09
7.100715e-09
7.1517591e-09
7.1902969e-09
7.2222303e-09
7.2402085e-09
7.2478353e-09
7.2495928e-09
7.2491813e-09
7.2482401e-09
7.2458567e-09
7.2440551e-09
7.2438209e-09
7.2491603e-09
7.2575174e-09
7.2725199e-09
7.3089592e-09
7.3387831e-09
7.3552755e-09
0.0011191769
0.0025060106
0.0030050938
0.0027529122
0.001483063
0.00012293006
7.0875752e-09
4.5497843e-09
4.3153611e-09
4.3210779e-09
4.2419639e-09
4.2824915e-09
4.2687833e-09
4.3213251e-09
4.3505999e-09
4.4136328e-09
4.4780772e-09
4.5683121e-09
4.6730639e-09
4.8046027e-09
4.9599387e-09
5.1448649e-09
5.3563467e-09
5.5918122e-09
5.8421368e-09
6.0947769e-09
6.3346639e-09
6.5491006e-09
6.7300084e-09
6.8751547e-09
6.9869548e-09
7.0705166e-09
7.1314723e-09
7.1751224e-09
7.2085067e-09
7.2347646e-09
7.2478209e-09
7.2524884e-09
7.2520505e-09
7.2502255e-09
7.2486272e-09
7.2458656e-09
7.2442133e-09
7.2444148e-09
7.250403e-09
7.2590826e-09
7.2765263e-09
7.3156628e-09
7.3426028e-09
7.3567675e-09
0.0011173221
0.002476901
0.0029351609
0.0026327393
0.0012927238
6.2412538e-05
5.8714493e-09
4.5640842e-09
4.3371784e-09
4.3451265e-09
4.2692591e-09
4.3114915e-09
4.3005981e-09
4.3551484e-09
4.3875226e-09
4.453808e-09
4.5224623e-09
4.6173809e-09
4.7279324e-09
4.8659788e-09
5.0287924e-09
5.2216263e-09
5.440936e-09
5.6829054e-09
5.93704e-09
6.1895886e-09
6.4251412e-09
6.6315737e-09
6.8020596e-09
6.935859e-09
7.0366145e-09
7.1100338e-09
7.1620547e-09
7.1985351e-09
7.226673e-09
7.2468662e-09
7.2553058e-09
7.2575376e-09
7.2545384e-09
7.2514362e-09
7.249139e-09
7.246159e-09
7.2445085e-09
7.2452972e-09
7.2518231e-09
7.2609832e-09
7.2815879e-09
7.3217496e-09
7.3464034e-09
7.3583959e-09
0.0011151923
0.0024470679
0.0028642552
0.0025073862
0.0011096452
2.4351125e-05
5.2804661e-09
4.5825359e-09
4.3630709e-09
4.3731788e-09
4.300649e-09
4.34458e-09
4.3366457e-09
4.3932253e-09
4.4290278e-09
4.4985911e-09
4.57179e-09
4.6717026e-09
4.7884219e-09
4.9333593e-09
5.1040262e-09
5.3050385e-09
5.5322259e-09
5.7803559e-09
6.0374958e-09
6.2887631e-09
6.5186258e-09
6.7157492e-09
6.8748099e-09
6.996677e-09
7.0860922e-09
7.1492088e-09
7.1923308e-09
7.2219496e-09
7.2443048e-09
7.2584431e-09
7.2630118e-09
7.2626709e-09
7.2570884e-09
7.2527998e-09
7.2497884e-09
7.2466563e-09
7.2450294e-09
7.2464337e-09
7.2534014e-09
7.2632538e-09
7.2876375e-09
7.3270051e-09
7.3501369e-09
7.3602766e-09
0.0011128489
0.0024163909
0.0027910327
0.002375402
0.00093689733
7.4904058e-06
4.9973893e-09
4.6065615e-09
4.3927668e-09
4.4049252e-09
4.3357249e-09
4.3814268e-09
4.3765541e-09
4.4353734e-09
4.4747061e-09
4.5479222e-09
4.6258695e-09
4.7310745e-09
4.8543055e-09
5.006521e-09
5.1853985e-09
5.3948459e-09
5.6298801e-09
5.8837301e-09
6.142944e-09
6.3916451e-09
6.6144061e-09
6.8009656e-09
6.9477703e-09
7.0573021e-09
7.1351362e-09
7.1878154e-09
7.2221781e-09
7.2451541e-09
7.2610068e-09
7.2696376e-09
7.271059e-09
7.267695e-09
7.2596669e-09
7.2542833e-09
7.2505833e-09
7.2473676e-09
7.2457674e-09
7.2478022e-09
7.2551057e-09
7.2658852e-09
7.2939082e-09
7.3318464e-09
7.3537216e-09
7.3625521e-09
0.0011103743
0.0023851986
0.0027158639
0.0022382128
0.00077731257
2.0188994e-06
4.8706426e-09
4.6338133e-09
4.4255066e-09
4.4398433e-09
4.3741502e-09
4.421784e-09
4.420186e-09
4.4813916e-09
4.5245533e-09
4.6015385e-09
4.6845942e-09
4.7954493e-09
4.92561e-09
5.0855265e-09
5.273003e-09
5.4911005e-09
5.7338699e-09
5.9928316e-09
6.2530115e-09
6.4977022e-09
6.7118533e-09
6.8866776e-09
7.0206143e-09
7.1175235e-09
7.1834906e-09
7.2255987e-09
7.251399e-09
7.2675136e-09
7.2768468e-09
7.2808785e-09
7.2790732e-09
7.272546e-09
7.2622518e-09
7.2558322e-09
7.2515629e-09
7.2482982e-09
7.2467509e-09
7.2493696e-09
7.2568997e-09
7.2688373e-09
7.3003182e-09
7.3364135e-09
7.3570142e-09
7.3651757e-09
0.0011079059
0.0023540658
0.0026388795
0.0020962511
0.00063256915
5.3724003e-07
4.8222679e-09
4.6639572e-09
4.4614111e-09
4.4779231e-09
4.415962e-09
4.4655627e-09
4.4674988e-09
4.5311797e-09
4.5783971e-09
4.6594538e-09
4.7478972e-09
4.8647534e-09
5.0022494e-09
5.1702852e-09
5.3667179e-09
5.5936216e-09
5.8438964e-09
6.1072053e-09
6.3670859e-09
6.6062065e-09
6.8102728e-09
6.9724212e-09
7.093124e-09
7.1770811e-09
7.2308033e-09
7.2622712e-09
7.2796679e-09
7.2887413e-09
7.2921396e-09
7.2921254e-09
7.2868988e-09
7.277158e-09
7.2648033e-09
7.2574124e-09
7.2527538e-09
7.2494509e-09
7.2479557e-09
7.2511023e-09
7.2587546e-09
7.272076e-09
7.3068386e-09
7.3409208e-09
7.3602351e-09
7.3678081e-09
0.0011055019
0.0023235768
0.0025619033
0.0019459186
0.00050519992
1.5938365e-07
4.8147085e-09
4.6972849e-09
4.5003257e-09
4.5192818e-09
4.4609987e-09
4.5128165e-09
4.5183281e-09
4.5847121e-09
4.6361936e-09
4.7215625e-09
4.8157875e-09
4.9390782e-09
5.084369e-09
5.2609842e-09
5.4667255e-09
5.7025295e-09
5.9599293e-09
6.2266166e-09
6.4847086e-09
6.7165563e-09
6.9091629e-09
7.057961e-09
7.1650898e-09
7.2354128e-09
7.2765187e-09
7.2975448e-09
7.3066688e-09
7.3090183e-09
7.3072523e-09
7.3030181e-09
7.2944634e-09
7.2815017e-09
7.2673066e-09
7.2590454e-09
7.2541185e-09
7.2508227e-09
7.2493809e-09
7.2529714e-09
7.2606687e-09
7.2756156e-09
7.3134238e-09
7.345406e-09
7.3634001e-09
7.3703885e-09
0.0011032054
0.0022936036
0.0024939579
0.001787334
0.00039639351
5.794956e-08
4.8289916e-09
4.7335026e-09
4.542353e-09
4.563683e-09
4.5092966e-09
4.5633312e-09
4.5726852e-09
4.6418778e-09
4.6979451e-09
4.7879572e-09
4.8883181e-09
5.0184559e-09
5.171991e-09
5.3576244e-09
5.5729745e-09
5.8176636e-09
6.0816239e-09
6.3505178e-09
6.6051472e-09
6.8280329e-09
7.0080968e-09
7.1431115e-09
7.2358794e-09
7.2917713e-09
7.3202739e-09
7.3312529e-09
7.3325528e-09
7.3287432e-09
7.3216959e-09
7.3135959e-09
7.3017084e-09
7.2855828e-09
7.2697358e-09
7.2607265e-09
7.2556453e-09
7.2524062e-09
7.2510194e-09
7.2549563e-09
7.2626896e-09
7.2795633e-09
7.3199512e-09
7.3497983e-09
7.3664267e-09
7.3728939e-09
0.0011007984
0.002261741
0.0024175495
0.0016201051
0.00029841325
2.5618267e-08
4.8553132e-09
4.7725415e-09
4.587329e-09
4.6111011e-09
4.5607105e-09
4.6171216e-09
4.6304951e-09
4.7027561e-09
4.7636797e-09
4.8586535e-09
4.9656157e-09
5.103076e-09
5.2653692e-09
5.460465e-09
5.6857131e-09
5.9391343e-09
6.2089065e-09
6.4785404e-09
6.7278667e-09
6.9401655e-09
7.106924e-09
7.2275405e-09
7.3045042e-09
7.3456027e-09
7.3619141e-09
7.363725e-09
7.3574578e-09
7.3474838e-09
7.3355678e-09
7.3237613e-09
7.3085967e-09
7.2893965e-09
7.2720862e-09
7.2624618e-09
7.2573163e-09
7.2541882e-09
7.2528618e-09
7.2570459e-09
7.2649215e-09
7.2841542e-09
7.3262308e-09
7.3539827e-09
7.3693338e-09
7.3753463e-09
0.0010986057
0.0022294511
0.002342406
0.0014481618
0.000211181
1.4120742e-08
4.8893126e-09
4.8143472e-09
4.6351361e-09
4.6614437e-09
4.6152118e-09
4.6741301e-09
4.6918332e-09
4.7673496e-09
4.8335106e-09
4.933848e-09
5.0478089e-09
5.1930669e-09
5.3645927e-09
5.5695848e-09
5.8048956e-09
6.0667507e-09
6.3413069e-09
6.6099995e-09
6.8521106e-09
7.0525058e-09
7.2053968e-09
7.3100957e-09
7.3702866e-09
7.3965881e-09
7.4020223e-09
7.3948426e-09
7.3810719e-09
7.3653258e-09
7.3487694e-09
7.3335026e-09
7.3150965e-09
7.2929293e-09
7.2743692e-09
7.264259e-09
7.2591215e-09
7.2561508e-09
7.2548926e-09
7.2592345e-09
7.2675012e-09
7.2897135e-09
7.3320002e-09
7.3578533e-09
7.372038e-09
7.3776774e-09
0.001096517
0.002195855
0.0022643817
0.0012750072
0.00013375984
9.5024825e-09
4.9283814e-09
4.858646e-09
4.6856687e-09
4.7146792e-09
4.6728328e-09
4.7344802e-09
4.7567653e-09
4.8358312e-09
4.9075626e-09
5.0136406e-09
5.1351053e-09
5.2887056e-09
5.4699923e-09
5.6853155e-09
5.9307832e-09
6.2005666e-09
6.4785979e-09
6.7444108e-09
6.9774142e-09
7.1649342e-09
7.302876e-09
7.3897803e-09
7.4326393e-09
7.4453138e-09
7.4405495e-09
7.4242902e-09
7.4034205e-09
7.3821666e-09
7.3613158e-09
7.3427762e-09
7.3211817e-09
7.2961677e-09
7.2765939e-09
7.2661261e-09
7.2610506e-09
7.2582675e-09
7.2570835e-09
7.2615128e-09
7.2705374e-09
7.2963806e-09
7.3370775e-09
7.3613794e-09
7.3744966e-09
7.3797877e-09
0.001094398
0.0021599805
0.0021835914
0.0011125021
7.073535e-05
7.4665254e-09
4.9711665e-09
4.905719e-09
4.7390906e-09
4.7710053e-09
4.7337293e-09
4.7982632e-09
4.8254478e-09
4.9082904e-09
4.9860087e-09
5.0982717e-09
5.2277151e-09
5.3901752e-09
5.5817436e-09
5.8077431e-09
6.0633094e-09
6.3402322e-09
6.6201345e-09
6.8809923e-09
7.103255e-09
7.2771469e-09
7.3979909e-09
7.4657044e-09
7.4916703e-09
7.4923891e-09
7.4769317e-09
7.4520728e-09
7.4244297e-09
7.3980246e-09
7.3731887e-09
7.3515618e-09
7.3268285e-09
7.2991127e-09
7.2787736e-09
7.2680752e-09
7.2630961e-09
7.2605079e-09
7.2593946e-09
7.2638706e-09
7.2740659e-09
7.3034612e-09
7.3418925e-09
7.3646109e-09
7.3767398e-09
7.3817318e-09
0.0010917705
0.0021188714
0.0020977832
0.00095891642
2.9135046e-05
6.5138998e-09
5.017432e-09
4.9557678e-09
4.7956403e-09
4.8305182e-09
4.7980218e-09
4.8655998e-09
4.8980323e-09
4.9848354e-09
5.0690429e-09
5.1879214e-09
5.3259213e-09
5.4978596e-09
5.7002426e-09
5.9372466e-09
6.2026659e-09
6.4856565e-09
6.7655003e-09
7.0192767e-09
7.2294789e-09
7.3883721e-09
7.4896388e-09
7.5373679e-09
7.5484591e-09
7.5370159e-09
7.511227e-09
7.4781123e-09
7.4440974e-09
7.4128864e-09
7.3843864e-09
7.3598279e-09
7.3320047e-09
7.30178e-09
7.2809181e-09
7.2701131e-09
7.2652504e-09
7.2628422e-09
7.2617818e-09
7.2663007e-09
7.2780424e-09
7.3107022e-09
7.3465132e-09
7.3676071e-09
7.3787781e-09
7.3834923e-09
0.0010886166
0.0020732469
0.0020056229
0.00081574152
9.4836445e-06
6.0648087e-09
5.0667301e-09
5.0087792e-09
4.8551969e-09
4.8933363e-09
4.8657379e-09
4.9366853e-09
4.9746442e-09
5.0657989e-09
5.1568521e-09
5.2829304e-09
5.4300245e-09
5.6120203e-09
5.8257122e-09
6.0738791e-09
6.3486539e-09
6.6362594e-09
6.9138984e-09
7.1586119e-09
7.3557634e-09
7.4970477e-09
7.5768354e-09
7.6053848e-09
7.6028035e-09
7.5790561e-09
7.5433218e-09
7.5024132e-09
7.4624182e-09
7.4267737e-09
7.3949075e-09
7.3675441e-09
7.3366606e-09
7.3042175e-09
7.2830434e-09
7.2722418e-09
7.2675064e-09
7.2652497e-09
7.2642145e-09
7.2688156e-09
7.2823899e-09
7.3179019e-09
7.3509939e-09
7.3704375e-09
7.380671e-09
7.3851094e-09
0.0010847339
0.0020221732
0.0019019881
0.00068343688
2.6623118e-06
5.8624036e-09
5.1189349e-09
5.064557e-09
4.9179832e-09
4.9593955e-09
4.937195e-09
5.0115848e-09
5.0555227e-09
5.1513354e-09
5.2497533e-09
5.3835404e-09
5.540413e-09
5.7331348e-09
5.9585942e-09
6.2179994e-09
6.501307e-09
6.7917632e-09
7.0648531e-09
7.2987682e-09
7.4814501e-09
7.6018672e-09
7.6590039e-09
7.6708436e-09
7.6540737e-09
7.6184144e-09
7.5732306e-09
7.5249664e-09
7.4794056e-09
7.4397026e-09
7.4047487e-09
7.3746691e-09
7.3407136e-09
7.3065065e-09
7.285165e-09
7.2744537e-09
7.2698539e-09
7.2677201e-09
7.2666861e-09
7.2714667e-09
7.2870797e-09
7.3249543e-09
7.3553044e-09
7.373134e-09
7.3824928e-09
7.3866628e-09
0.0010802034
0.0019661287
0.0017821026
0.000563405
7.2509203e-07
5.7859145e-09
5.1743235e-09
5.1235364e-09
4.9841325e-09
5.0291408e-09
5.0124594e-09
5.0905633e-09
5.140743e-09
5.2417841e-09
5.3480101e-09
5.49023e-09
5.6574879e-09
5.8615166e-09
6.0991099e-09
6.3695265e-09
6.6601991e-09
6.9513644e-09
7.2176374e-09
7.4393296e-09
7.6047736e-09
7.7017212e-09
7.7369646e-09
7.7332081e-09
7.7021399e-09
7.655066e-09
7.6009491e-09
7.5457969e-09
7.4950881e-09
7.4517059e-09
7.4139149e-09
7.3811666e-09
7.3440922e-09
7.3087419e-09
7.2872991e-09
7.2767404e-09
7.2722795e-09
7.2702469e-09
7.2692057e-09
7.2742771e-09
7.2921719e-09
7.3317281e-09
7.3593986e-09
7.3756759e-09
7.3842124e-09
7.3881201e-09
0.0010752377
0.0019069697
0.001649387
0.00045446082
2.1403509e-07
5.7740966e-09
5.2329855e-09
5.1859011e-09
5.0538182e-09
5.1025932e-09
5.0917041e-09
5.1737333e-09
5.2306185e-09
5.3373818e-09
5.4521103e-09
5.6033562e-09
5.7817452e-09
5.9976934e-09
6.247703e-09
6.5286673e-09
6.8251482e-09
7.1146436e-09
7.3719333e-09
7.5799702e-09
7.7240955e-09
7.7958463e-09
7.8118441e-09
7.7918822e-09
7.7469375e-09
7.689019e-09
7.6265094e-09
7.5649329e-09
7.5095009e-09
7.4628138e-09
7.4224106e-09
7.3870187e-09
7.3468858e-09
7.3108914e-09
7.2894482e-09
7.2790905e-09
7.2747651e-09
7.2728139e-09
7.2717623e-09
7.2773236e-09
7.2978581e-09
7.3380499e-09
7.3632051e-09
7.3780217e-09
7.3857878e-09
7.3894915e-09
0.0010698805
0.0018453032
0.0015071226
0.00035930695
7.6964736e-08
5.7962549e-09
5.2949715e-09
5.2517159e-09
5.1271069e-09
5.1798193e-09
5.1750668e-09
5.2613802e-09
5.3254848e-09
5.4386277e-09
5.5624432e-09
5.7235257e-09
5.9136231e-09
6.1420032e-09
6.4044649e-09
6.6951126e-09
6.9954129e-09
7.2807493e-09
7.5271573e-09
7.7187968e-09
7.8381678e-09
7.8849429e-09
7.8831175e-09
7.8466777e-09
7.7884491e-09
7.7203026e-09
7.649953e-09
7.5824232e-09
7.5226938e-09
7.4730669e-09
7.4302517e-09
7.3922317e-09
7.3491882e-09
7.3129319e-09
7.2916116e-09
7.2814926e-09
7.2772911e-09
7.2753971e-09
7.2743322e-09
7.2807225e-09
7.3043845e-09
7.3436926e-09
7.3666488e-09
7.3801467e-09
7.3872071e-09
7.3907359e-09
0.0010641852
0.0017797263
0.0013691904
0.00027467096
3.3911424e-08
5.8358752e-09
5.3599486e-09
5.3208836e-09
5.204038e-09
5.2610276e-09
5.2628818e-09
5.3539622e-09
5.425843e-09
5.5459971e-09
5.6796193e-09
5.8511466e-09
6.0536791e-09
6.2949863e-09
6.5697476e-09
6.8688391e-09
7.1706114e-09
7.4492821e-09
7.6830866e-09
7.8540758e-09
7.9459616e-09
7.9702058e-09
7.9501477e-09
7.897562e-09
7.8267083e-09
7.7489743e-09
7.6713376e-09
7.5983211e-09
7.5347195e-09
7.4825055e-09
7.4374492e-09
7.3968035e-09
7.3510629e-09
7.3148612e-09
7.2937834e-09
7.2839273e-09
7.279845e-09
7.2779847e-09
7.2769197e-09
7.2845304e-09
7.3117767e-09
7.3485306e-09
7.3697233e-09
7.3820487e-09
7.388465e-09
7.3918487e-09
0.0010586042
0.0017078016
0.0012298439
0.00019773217
1.8297335e-08
5.8853266e-09
5.4280807e-09
5.3936063e-09
5.2851281e-09
5.3466403e-09
5.3557916e-09
5.4519369e-09
5.5322821e-09
5.6600328e-09
5.8040788e-09
5.9868654e-09
6.2023774e-09
6.4569068e-09
6.7434135e-09
7.0492161e-09
7.3498348e-09
7.6194484e-09
7.8382278e-09
7.9840082e-09
8.0476618e-09
8.0514874e-09
8.0125646e-09
7.9445104e-09
7.861762e-09
7.7751036e-09
7.6907326e-09
7.6126937e-09
7.5456438e-09
7.491182e-09
7.4440184e-09
7.4007067e-09
7.3525567e-09
7.3166933e-09
7.2959571e-09
7.2863708e-09
7.282412e-09
7.2805985e-09
7.279593e-09
7.2887652e-09
7.319193e-09
7.353095e-09
7.3725174e-09
7.3837325e-09
7.3895464e-09
7.3928113e-09
0.0010545555
0.0016442933
0.0010909605
0.00012843475
1.1976401e-08
5.9411523e-09
5.4994366e-09
5.4707642e-09
5.3707489e-09
5.4375211e-09
5.4542072e-09
5.5559338e-09
5.6452099e-09
5.7812467e-09
5.936451e-09
6.1311381e-09
6.3603327e-09
6.6282386e-09
6.925617e-09
7.2359534e-09
7.5326926e-09
7.7909852e-09
7.9907135e-09
8.1073854e-09
8.1445007e-09
8.1280268e-09
8.0703832e-09
7.9875872e-09
7.8937043e-09
7.7987829e-09
7.7082162e-09
7.6256097e-09
7.5555339e-09
7.4991488e-09
7.4499836e-09
7.4039665e-09
7.3537145e-09
7.3184395e-09
7.2981231e-09
7.2888025e-09
7.2849886e-09
7.2832659e-09
7.2824121e-09
7.2934092e-09
7.3264999e-09
7.3573762e-09
7.3750434e-09
7.3852108e-09
7.3904818e-09
7.3936096e-09
0.0010509093
0.0015761684
0.00095341263
7.0096862e-05
9.1571993e-09
6.0013795e-09
5.5755086e-09
5.5528913e-09
5.4618396e-09
5.5339802e-09
5.5587725e-09
5.6662814e-09
5.7651927e-09
5.9101808e-09
6.0772357e-09
6.2847243e-09
6.5279783e-09
6.80906e-09
7.1158438e-09
7.4281417e-09
7.7182366e-09
7.9629829e-09
8.1380386e-09
8.2234906e-09
8.237053e-09
8.1991509e-09
8.1235481e-09
8.0268517e-09
7.9226298e-09
7.8201094e-09
7.7238756e-09
7.6371502e-09
7.5644654e-09
7.5064652e-09
7.4554064e-09
7.4068148e-09
7.3545974e-09
7.3201149e-09
7.3002782e-09
7.2912198e-09
7.2875782e-09
7.2859698e-09
7.2852632e-09
7.2984208e-09
7.3335373e-09
7.3613976e-09
7.3773069e-09
7.3864692e-09
7.3912505e-09
7.3942647e-09
0.0010482292
0.0015048259
0.00082070318
3.0083887e-05
7.8367843e-09
6.0658007e-09
5.6567353e-09
5.6406113e-09
5.5586991e-09
5.6363993e-09
5.669742e-09
5.7835762e-09
5.8926567e-09
6.0474491e-09
6.227214e-09
6.4481108e-09
6.7059257e-09
6.9996454e-09
7.3139739e-09
7.625335e-09
7.90608e-09
8.1334832e-09
8.2789437e-09
8.3334892e-09
8.3243944e-09
8.2649393e-09
8.1721541e-09
8.0624331e-09
7.9486677e-09
7.8391944e-09
7.737803e-09
7.6473979e-09
7.5725098e-09
7.5131728e-09
7.4603235e-09
7.4094519e-09
7.3553124e-09
7.3217384e-09
7.3024224e-09
7.2936251e-09
7.2901687e-09
7.2886693e-09
7.2881104e-09
7.303853e-09
7.3401516e-09
7.3651176e-09
7.3793002e-09
7.387464e-09
7.3917911e-09
7.3947141e-09
0.0010469344
0.0014296703
0.00069511277
1.0154617e-05
7.2159399e-09
6.1354547e-09
5.7428698e-09
5.7338655e-09
5.6615072e-09
5.7449644e-09
5.7875786e-09
5.9082672e-09
6.0283461e-09
6.1937753e-09
6.3869911e-09
6.6221459e-09
6.8944545e-09
7.1997308e-09
7.5190843e-09
7.8265044e-09
8.095197e-09
8.2997874e-09
8.4116707e-09
8.4386362e-09
8.4055867e-09
8.3252755e-09
8.2162602e-09
8.0944484e-09
7.9719441e-09
7.8561523e-09
7.7500975e-09
7.6564427e-09
7.5797428e-09
7.5193017e-09
7.4646561e-09
7.411042e-09
7.3560423e-09
7.3233407e-09
7.3045592e-09
7.2960168e-09
7.2927524e-09
7.291319e-09
7.2911692e-09
7.3099273e-09
7.3461525e-09
7.3684344e-09
7.3809905e-09
7.3882e-09
7.3921813e-09
7.3949865e-09
0.0010473281
0.0013548346
0.00057834679
2.9275554e-06
6.9400748e-09
6.2133499e-09
5.8342787e-09
5.8325361e-09
5.7705536e-09
5.8603005e-09
5.9128498e-09
6.0411794e-09
6.1729124e-09
6.3499644e-09
6.5574521e-09
6.8073042e-09
7.0940039e-09
7.4093035e-09
7.7308055e-09
8.0311185e-09
8.2844521e-09
8.4598589e-09
8.5370785e-09
8.5381481e-09
8.4805815e-09
8.3802831e-09
8.2560335e-09
8.1230721e-09
7.9926153e-09
7.8711132e-09
7.7608643e-09
7.6643734e-09
7.5862345e-09
7.5248688e-09
7.4682592e-09
7.4114327e-09
7.3569302e-09
7.3249443e-09
7.3066867e-09
7.2983908e-09
7.2953043e-09
7.2938659e-09
7.2946098e-09
7.3169142e-09
7.3513166e-09
7.3712772e-09
7.3824261e-09
7.3888105e-09
7.3924699e-09
7.3951278e-09
0.0010483312
0.0012700914
0.0004709802
8.1623781e-07
6.8345239e-09
6.2953523e-09
5.9311888e-09
5.9377439e-09
5.8865353e-09
5.9830589e-09
6.0463768e-09
6.1830393e-09
6.3273056e-09
6.516794e-09
6.7392946e-09
7.0043546e-09
7.304554e-09
7.627582e-09
7.9480286e-09
8.23797e-09
8.4707947e-09