/*--------------------------------*- C++ -*----------------------------------*\
  =========                 |
  \\      /  F ield         | OpenFOAM: The Open Source CFD Toolbox
   \\    /   O peration     | Website:  https://openfoam.org
    \\  /    A nd           | Version:  8
     \\/     M anipulation  |
\*---------------------------------------------------------------------------*/
FoamFile
{
    version     2.0;
    format      ascii;
    class       volScalarField;
    location    "0.170001";
    object      nuTilda;
}
// * * * * * * * * * * * * * * * * * * * * * * * * * * * * * * * * * * * * * //

dimensions      [0 2 -1 0 0 0 0];

internalField   nonuniform List<scalar> 
20000
(
0.0011144292
0.0029300469
0.004091387
0.0046298633
0.0043895124
0.0030686306
0.00073737065
2.9295171e-05
1.0171785e-05
1.0120136e-05
1.0051561e-05
1.0055691e-05
1.0018788e-05
1.0023965e-05
1.0012419e-05
1.0011899e-05
1.0006715e-05
1.0005352e-05
1.0003285e-05
1.0002539e-05
1.0002118e-05
1.0002098e-05
1.0002122e-05
1.0001883e-05
1.0001536e-05
1.0001151e-05
1.0000816e-05
1.0000593e-05
1.0000487e-05
1.000047e-05
1.0000537e-05
1.0000665e-05
1.0000698e-05
1.0000647e-05
1.0000624e-05
1.0000678e-05
1.0000688e-05
1.0000795e-05
1.0000897e-05
1.0000907e-05
1.0000861e-05
1.0000777e-05
1.0000762e-05
1.0000795e-05
1.0000671e-05
1.000045e-05
1.0000539e-05
1.0000535e-05
1.0000775e-05
1.0000954e-05
0.0011016364
0.0028947917
0.0040240343
0.0045222055
0.0042343107
0.0028485785
0.00061131535
2.260122e-05
1.0159449e-05
1.0119547e-05
1.005079e-05
1.0055585e-05
1.0018607e-05
1.0023813e-05
1.0012285e-05
1.001176e-05
1.0006665e-05
1.0005304e-05
1.000327e-05
1.0002521e-05
1.0002105e-05
1.0002094e-05
1.0002135e-05
1.0001904e-05
1.0001553e-05
1.0001168e-05
1.0000827e-05
1.0000587e-05
1.0000465e-05
1.000044e-05
1.0000487e-05
1.0000606e-05
1.0000647e-05
1.0000598e-05
1.0000581e-05
1.000063e-05
1.000065e-05
1.0000754e-05
1.000086e-05
1.0000886e-05
1.0000848e-05
1.0000757e-05
1.0000738e-05
1.0000765e-05
1.0000668e-05
1.0000414e-05
1.000057e-05
1.000048e-05
1.000063e-05
1.000096e-05
0.0011067061
0.0028783516
0.0039643821
0.0044129017
0.0040705424
0.0025984691
0.00048499642
1.7811356e-05
1.0151106e-05
1.0118e-05
1.0050054e-05
1.0055294e-05
1.0018433e-05
1.0023546e-05
1.0012135e-05
1.0011607e-05
1.0006592e-05
1.0005238e-05
1.0003241e-05
1.0002498e-05
1.0002089e-05
1.0002092e-05
1.0002147e-05
1.0001916e-05
1.0001564e-05
1.0001176e-05
1.0000836e-05
1.0000592e-05
1.0000464e-05
1.0000435e-05
1.0000484e-05
1.0000607e-05
1.0000652e-05
1.0000599e-05
1.0000573e-05
1.0000626e-05
1.0000639e-05
1.0000749e-05
1.000086e-05
1.0000888e-05
1.0000856e-05
1.0000756e-05
1.0000731e-05
1.0000763e-05
1.0000671e-05
1.0000406e-05
1.0000599e-05
1.0000474e-05
1.0000572e-05
1.0000965e-05
0.0011124832
0.0028582981
0.0039013372
0.0043027221
0.0039091032
0.002348473
0.00037966265
1.4767499e-05
1.0145223e-05
1.0116535e-05
1.0049291e-05
1.0054976e-05
1.0018267e-05
1.002329e-05
1.0011994e-05
1.0011451e-05
1.0006527e-05
1.0005174e-05
1.0003216e-05
1.0002478e-05
1.0002075e-05
1.0002091e-05
1.0002157e-05
1.0001925e-05
1.0001573e-05
1.0001184e-05
1.0000844e-05
1.0000597e-05
1.0000465e-05
1.0000433e-05
1.0000475e-05
1.0000595e-05
1.0000643e-05
1.0000595e-05
1.000057e-05
1.0000623e-05
1.0000632e-05
1.0000734e-05
1.0000853e-05
1.0000889e-05
1.0000864e-05
1.0000755e-05
1.000072e-05
1.0000747e-05
1.0000672e-05
1.0000397e-05
1.0000625e-05
1.0000466e-05
1.0000514e-05
1.000096e-05
0.0011180762
0.0028374893
0.0038370343
0.004192337
0.003749028
0.0020990759
0.00029208916
1.2888187e-05
1.0140698e-05
1.0114985e-05
1.0048514e-05
1.0054634e-05
1.0018095e-05
1.0023025e-05
1.0011856e-05
1.0011293e-05
1.0006461e-05
1.0005111e-05
1.0003191e-05
1.0002459e-05
1.0002063e-05
1.0002094e-05
1.0002163e-05
1.0001932e-05
1.0001581e-05
1.0001194e-05
1.0000852e-05
1.0000602e-05
1.0000467e-05
1.0000433e-05
1.0000471e-05
1.000059e-05
1.0000641e-05
1.0000595e-05
1.0000567e-05
1.0000619e-05
1.0000624e-05
1.0000725e-05
1.0000848e-05
1.000089e-05
1.0000872e-05
1.0000759e-05
1.0000711e-05
1.000074e-05
1.0000671e-05
1.0000391e-05
1.0000643e-05
1.000046e-05
1.0000499e-05
1.0000943e-05
0.0011218999
0.0028136148
0.0037717185
0.0040822765
0.0035926174
0.0018597641
0.00022176694
1.176798e-05
1.0136923e-05
1.0113394e-05
1.0047726e-05
1.0054266e-05
1.001792e-05
1.0022754e-05
1.0011722e-05
1.0011135e-05
1.0006397e-05
1.0005049e-05
1.0003167e-05
1.0002442e-05
1.0002054e-05
1.0002098e-05
1.0002165e-05
1.0001938e-05
1.0001591e-05
1.0001203e-05
1.0000857e-05
1.0000606e-05
1.0000469e-05
1.0000432e-05
1.0000465e-05
1.0000581e-05
1.0000636e-05
1.0000594e-05
1.0000565e-05
1.0000615e-05
1.0000619e-05
1.0000717e-05
1.0000842e-05
1.0000892e-05
1.000088e-05
1.0000764e-05
1.0000703e-05
1.0000728e-05
1.0000668e-05
1.0000385e-05
1.0000657e-05
1.0000453e-05
1.0000489e-05
1.0000918e-05
0.0011248922
0.0027898899
0.0037069975
0.003971945
0.0034361635
0.0016327787
0.00016597265
1.1113113e-05
1.0133543e-05
1.011175e-05
1.0046927e-05
1.0053874e-05
1.0017746e-05
1.0022475e-05
1.0011592e-05
1.0010975e-05
1.0006334e-05
1.0004987e-05
1.0003144e-05
1.0002427e-05
1.0002047e-05
1.0002102e-05
1.0002168e-05
1.0001946e-05
1.0001601e-05
1.0001209e-05
1.000086e-05
1.0000608e-05
1.0000469e-05
1.0000431e-05
1.0000459e-05
1.0000574e-05
1.0000632e-05
1.0000592e-05
1.0000562e-05
1.0000612e-05
1.0000614e-05
1.0000712e-05
1.0000836e-05
1.0000895e-05
1.0000889e-05
1.0000771e-05
1.0000697e-05
1.0000717e-05
1.0000664e-05
1.0000378e-05
1.0000666e-05
1.0000445e-05
1.0000479e-05
1.0000884e-05
0.0011266203
0.0027651384
0.0036425135
0.0038613132
0.0032804185
0.001420452
0.00012274586
1.0739514e-05
1.0130377e-05
1.0110067e-05
1.0046119e-05
1.0053457e-05
1.0017574e-05
1.002219e-05
1.0011467e-05
1.0010814e-05
1.0006272e-05
1.0004925e-05
1.0003122e-05
1.0002412e-05
1.0002041e-05
1.0002106e-05
1.0002174e-05
1.0001955e-05
1.0001607e-05
1.0001214e-05
1.0000864e-05
1.000061e-05
1.0000469e-05
1.000043e-05
1.0000453e-05
1.0000565e-05
1.0000626e-05
1.000059e-05
1.000056e-05
1.0000608e-05
1.000061e-05
1.0000709e-05
1.000083e-05
1.0000898e-05
1.0000897e-05
1.0000779e-05
1.0000689e-05
1.0000703e-05
1.0000657e-05
1.0000371e-05
1.0000669e-05
1.0000437e-05
1.0000468e-05
1.0000847e-05
0.0011276858
0.0027410783
0.0035798619
0.0037507021
0.0031246234
0.0012226698
8.9872688e-05
1.05288e-05
1.012732e-05
1.0108354e-05
1.0045301e-05
1.0053015e-05
1.0017408e-05
1.0021895e-05
1.0011346e-05
1.0010651e-05
1.0006211e-05
1.0004861e-05
1.0003097e-05
1.0002393e-05
1.000203e-05
1.0002106e-05
1.0002179e-05
1.0001959e-05
1.0001612e-05
1.0001218e-05
1.0000866e-05
1.0000611e-05
1.0000469e-05
1.0000428e-05
1.0000448e-05
1.0000557e-05
1.0000621e-05
1.0000589e-05
1.0000557e-05
1.0000605e-05
1.0000606e-05
1.0000707e-05
1.0000823e-05
1.00009e-05
1.0000905e-05
1.0000787e-05
1.0000682e-05
1.0000689e-05
1.0000649e-05
1.0000365e-05
1.0000659e-05
1.0000427e-05
1.0000458e-05
1.0000809e-05
0.0011279881
0.0027171867
0.0035191997
0.0036446528
0.002965547
0.0010409117
6.5474073e-05
1.0410706e-05
1.0124335e-05
1.0106554e-05
1.0044469e-05
1.0052547e-05
1.0017253e-05
1.0021592e-05
1.0011229e-05
1.0010485e-05
1.0006149e-05
1.0004793e-05
1.0003067e-05
1.0002372e-05
1.0002018e-05
1.0002109e-05
1.0002182e-05
1.0001962e-05
1.0001616e-05
1.0001222e-05
1.0000868e-05
1.0000612e-05
1.0000468e-05
1.0000426e-05
1.0000442e-05
1.0000548e-05
1.0000615e-05
1.0000587e-05
1.0000555e-05
1.0000603e-05
1.0000603e-05
1.0000703e-05
1.0000818e-05
1.0000903e-05
1.0000911e-05
1.0000794e-05
1.0000674e-05
1.0000672e-05
1.0000639e-05
1.0000362e-05
1.0000628e-05
1.0000416e-05
1.0000447e-05
1.0000774e-05
0.0011278539
0.0026932485
0.0034600795
0.003539375
0.0028006649
0.00087558013
4.7748071e-05
1.0343875e-05
1.01214e-05
1.0104553e-05
1.0043623e-05
1.0051895e-05
1.0017133e-05
1.0021277e-05
1.0011114e-05
1.0010312e-05
1.0006083e-05
1.0004722e-05
1.0003037e-05
1.0002351e-05
1.0002008e-05
1.0002112e-05
1.0002182e-05
1.0001965e-05
1.000162e-05
1.0001225e-05
1.000087e-05
1.0000612e-05
1.0000467e-05
1.0000423e-05
1.0000437e-05
1.000054e-05
1.000061e-05
1.0000585e-05
1.0000553e-05
1.00006e-05
1.0000599e-05
1.0000699e-05
1.0000812e-05
1.0000905e-05
1.0000916e-05
1.0000799e-05
1.0000666e-05
1.0000655e-05
1.0000626e-05
1.0000361e-05
1.0000598e-05
1.0000403e-05
1.0000436e-05
1.000075e-05
0.0011275527
0.0026688523
0.0033995082
0.0034309329
0.0026286549
0.0007279481
3.5170297e-05
1.030503e-05
1.0118483e-05
1.0101771e-05
1.0043229e-05
1.0046359e-05
1.0016906e-05
1.0020943e-05
1.0010999e-05
1.0010135e-05
1.0006017e-05
1.0004651e-05
1.0003007e-05
1.0002332e-05
1.0002001e-05
1.0002114e-05
1.0002181e-05
1.0001967e-05
1.0001623e-05
1.0001228e-05
1.0000871e-05
1.0000613e-05
1.0000466e-05
1.0000421e-05
1.0000431e-05
1.0000531e-05
1.0000604e-05
1.0000583e-05
1.000055e-05
1.0000598e-05
1.0000596e-05
1.0000694e-05
1.0000808e-05
1.0000905e-05
1.0000918e-05
1.0000802e-05
1.0000657e-05
1.0000639e-05
1.0000611e-05
1.0000356e-05
1.0000558e-05
1.0000387e-05
1.0000423e-05
1.0000736e-05
0.0011273015
0.0026439208
0.0033373361
0.003322729
0.002449801
0.00060143904
2.645432e-05
1.0282192e-05
1.0115465e-05
1.0096933e-05
1.0039832e-05
1.0043376e-05
1.0016614e-05
1.0020596e-05
1.0010889e-05
1.0009957e-05
1.0005954e-05
1.0004581e-05
1.000298e-05
1.0002314e-05
1.0001994e-05
1.0002115e-05
1.000218e-05
1.0001968e-05
1.0001626e-05
1.0001231e-05
1.0000873e-05
1.0000612e-05
1.0000465e-05
1.0000418e-05
1.0000426e-05
1.0000522e-05
1.0000597e-05
1.0000581e-05
1.0000548e-05
1.0000596e-05
1.0000592e-05
1.0000689e-05
1.0000804e-05
1.0000905e-05
1.0000919e-05
1.0000803e-05
1.0000648e-05
1.0000624e-05
1.0000594e-05
1.0000347e-05
1.0000512e-05
1.000037e-05
1.000041e-05
1.0000715e-05
0.0011269135
0.0026185455
0.0032749999
0.0032142703
0.0022636659
0.00048887969
2.0475505e-05
1.0266553e-05
1.0114297e-05
1.0095508e-05
1.0038943e-05
1.0040787e-05
1.0016309e-05
1.0020243e-05
1.0010785e-05
1.0009781e-05
1.0005894e-05
1.0004512e-05
1.0002952e-05
1.0002296e-05
1.0001988e-05
1.0002116e-05
1.0002178e-05
1.0001969e-05
1.0001628e-05
1.0001233e-05
1.0000874e-05
1.0000612e-05
1.0000463e-05
1.0000415e-05
1.0000421e-05
1.0000513e-05
1.0000591e-05
1.0000579e-05
1.0000545e-05
1.0000594e-05
1.0000589e-05
1.0000684e-05
1.00008e-05
1.0000903e-05
1.0000917e-05
1.00008e-05
1.000064e-05
1.0000611e-05
1.0000576e-05
1.0000336e-05
1.000046e-05
1.0000353e-05
1.0000394e-05
1.0000689e-05
0.0011261048
0.0025922529
0.0032115834
0.0031053603
0.0020714501
0.00039018674
1.650165e-05
1.0255142e-05
1.011128e-05
1.00932e-05
1.0038095e-05
1.0040344e-05
1.0016244e-05
1.0019888e-05
1.0010685e-05
1.0009605e-05
1.0005833e-05
1.0004442e-05
1.0002924e-05
1.0002278e-05
1.0001982e-05
1.0002117e-05
1.0002176e-05
1.0001969e-05
1.0001631e-05
1.0001236e-05
1.0000875e-05
1.0000611e-05
1.0000462e-05
1.0000412e-05
1.0000416e-05
1.0000505e-05
1.0000584e-05
1.0000577e-05
1.0000542e-05
1.0000592e-05
1.0000585e-05
1.0000679e-05
1.0000798e-05
1.00009e-05
1.0000914e-05
1.0000796e-05
1.0000633e-05
1.00006e-05
1.0000557e-05
1.0000325e-05
1.0000407e-05
1.0000339e-05
1.0000378e-05
1.0000641e-05
0.0011248144
0.0025647535
0.0031458104
0.0029879522
0.0018753469
0.00030581382
1.3958164e-05
1.0246097e-05
1.0108426e-05
1.0091044e-05
1.0037331e-05
1.0039501e-05
1.0016109e-05
1.0019522e-05
1.0010588e-05
1.0009431e-05
1.0005772e-05
1.0004372e-05
1.0002895e-05
1.000226e-05
1.0001976e-05
1.0002116e-05
1.0002173e-05
1.0001969e-05
1.0001633e-05
1.0001238e-05
1.0000876e-05
1.0000611e-05
1.000046e-05
1.0000409e-05
1.0000411e-05
1.0000496e-05
1.0000578e-05
1.0000575e-05
1.0000539e-05
1.000059e-05
1.000058e-05
1.0000674e-05
1.0000796e-05
1.0000896e-05
1.0000909e-05
1.0000791e-05
1.0000628e-05
1.000059e-05
1.0000537e-05
1.0000317e-05
1.0000356e-05
1.0000326e-05
1.0000361e-05
1.0000587e-05
0.0011232372
0.0025361275
0.0030781732
0.0028709008
0.0016789165
0.00023489477
1.2387598e-05
1.0238269e-05
1.0105559e-05
1.0088803e-05
1.0036548e-05
1.0038681e-05
1.001599e-05
1.0019152e-05
1.0010494e-05
1.0009264e-05
1.0005711e-05
1.0004302e-05
1.0002867e-05
1.0002242e-05
1.0001971e-05
1.0002116e-05
1.000217e-05
1.0001969e-05
1.0001635e-05
1.000124e-05
1.0000877e-05
1.000061e-05
1.0000459e-05
1.0000407e-05
1.0000406e-05
1.0000487e-05
1.0000571e-05
1.0000572e-05
1.0000537e-05
1.0000587e-05
1.0000576e-05
1.000067e-05
1.0000794e-05
1.0000892e-05
1.0000904e-05
1.0000786e-05
1.0000623e-05
1.0000581e-05
1.0000515e-05
1.0000313e-05
1.0000314e-05
1.0000315e-05
1.0000344e-05
1.000053e-05
0.0011214301
0.0025064624
0.0030054052
0.0027532743
0.0014842268
0.00017659576
1.1450288e-05
1.0230931e-05
1.0102692e-05
1.0086534e-05
1.0035768e-05
1.0037842e-05
1.0015873e-05
1.0018777e-05
1.0010404e-05
1.0009096e-05
1.000565e-05
1.0004233e-05
1.0002839e-05
1.0002225e-05
1.0001967e-05
1.0002115e-05
1.0002166e-05
1.0001969e-05
1.0001636e-05
1.0001243e-05
1.0000878e-05
1.000061e-05
1.0000457e-05
1.0000404e-05
1.0000402e-05
1.0000479e-05
1.0000564e-05
1.0000568e-05
1.0000534e-05
1.0000584e-05
1.0000571e-05
1.0000665e-05
1.0000791e-05
1.0000887e-05
1.0000899e-05
1.0000781e-05
1.000062e-05
1.0000573e-05
1.0000494e-05
1.000031e-05
1.0000285e-05
1.0000306e-05
1.0000329e-05
1.0000475e-05
0.0011195687
0.0024773605
0.0029354851
0.0026331318
0.0012942346
0.0001300717
1.0909603e-05
1.0223654e-05
1.0099828e-05
1.0084235e-05
1.0034988e-05
1.003699e-05
1.0015762e-05
1.00184e-05
1.0010317e-05
1.0008929e-05
1.0005589e-05
1.0004165e-05
1.0002811e-05
1.0002209e-05
1.0001963e-05
1.0002113e-05
1.0002162e-05
1.0001968e-05
1.0001638e-05
1.0001245e-05
1.0000879e-05
1.0000609e-05
1.0000456e-05
1.0000401e-05
1.0000398e-05
1.0000471e-05
1.0000557e-05
1.0000563e-05
1.000053e-05
1.000058e-05
1.0000567e-05
1.000066e-05
1.0000788e-05
1.0000884e-05
1.0000896e-05
1.0000778e-05
1.0000617e-05
1.0000564e-05
1.0000477e-05
1.0000309e-05
1.000027e-05
1.0000299e-05
1.0000314e-05
1.0000423e-05
0.0011174316
0.0024475353
0.0028645929
0.0025078148
0.0011116643
9.3915804e-05
1.0607265e-05
1.0216376e-05
1.0096966e-05
1.0081904e-05
1.0034211e-05
1.0036126e-05
1.0015657e-05
1.001802e-05
1.0010233e-05
1.0008764e-05
1.0005528e-05
1.0004099e-05
1.0002784e-05
1.0002193e-05
1.0001961e-05
1.000211e-05
1.0002157e-05
1.0001966e-05
1.000164e-05
1.0001247e-05
1.000088e-05
1.0000609e-05
1.0000454e-05
1.0000399e-05
1.0000394e-05
1.0000463e-05
1.0000549e-05
1.0000558e-05
1.0000527e-05
1.0000576e-05
1.0000562e-05
1.0000654e-05
1.0000784e-05
1.000088e-05
1.0000893e-05
1.0000776e-05
1.0000616e-05
1.0000557e-05
1.0000466e-05
1.0000309e-05
1.0000264e-05
1.0000294e-05
1.0000301e-05
1.0000378e-05
0.0011150798
0.0024168663
0.002791385
0.0023758743
0.0009396805
6.6706982e-05
1.044293e-05
1.020997e-05
1.0094112e-05
1.007955e-05
1.0033439e-05
1.0035255e-05
1.0015558e-05
1.0017641e-05
1.0010151e-05
1.0008601e-05
1.0005468e-05
1.0004033e-05
1.0002757e-05
1.0002179e-05
1.0001959e-05
1.0002107e-05
1.0002152e-05
1.0001965e-05
1.0001641e-05
1.000125e-05
1.0000881e-05
1.0000608e-05
1.0000453e-05
1.0000396e-05
1.0000391e-05
1.0000456e-05
1.0000542e-05
1.0000554e-05
1.0000523e-05
1.0000573e-05
1.0000558e-05
1.0000649e-05
1.000078e-05
1.0000878e-05
1.0000892e-05
1.0000775e-05
1.0000615e-05
1.000055e-05
1.0000457e-05
1.0000309e-05
1.0000262e-05
1.0000291e-05
1.0000288e-05
1.0000339e-05
0.0011125956
0.0023856821
0.0027162323
0.0022387382
0.00078127296
4.7062417e-05
1.0355207e-05
1.0203689e-05
1.0091267e-05
1.0077183e-05
1.0032673e-05
1.0034381e-05
1.0015465e-05
1.0017263e-05
1.0010071e-05
1.000844e-05
1.0005407e-05
1.0003969e-05
1.0002731e-05
1.0002165e-05
1.0001957e-05
1.0002104e-05
1.0002147e-05
1.0001963e-05
1.0001642e-05
1.0001252e-05
1.0000883e-05
1.0000608e-05
1.0000451e-05
1.0000394e-05
1.0000387e-05
1.0000449e-05
1.0000534e-05
1.000055e-05
1.0000519e-05
1.0000569e-05
1.0000553e-05
1.0000643e-05
1.0000775e-05
1.0000877e-05
1.0000891e-05
1.0000774e-05
1.0000615e-05
1.0000545e-05
1.0000451e-05
1.000031e-05
1.0000263e-05
1.0000288e-05
1.0000278e-05
1.0000308e-05
0.0011101163
0.0023545574
0.0026392655
0.0020968419
0.00063839196
3.3498926e-05
1.0306944e-05
1.0197349e-05
1.0088433e-05
1.0074806e-05
1.0031914e-05
1.0033505e-05
1.001538e-05
1.0016888e-05
1.0009993e-05
1.0008283e-05
1.0005347e-05
1.0003907e-05
1.0002705e-05
1.0002152e-05
1.0001957e-05
1.00021e-05
1.0002141e-05
1.000196e-05
1.0001644e-05
1.0001255e-05
1.0000885e-05
1.0000608e-05
1.000045e-05
1.0000392e-05
1.0000385e-05
1.0000443e-05
1.0000527e-05
1.0000546e-05
1.0000515e-05
1.0000566e-05
1.0000548e-05
1.0000636e-05
1.000077e-05
1.0000876e-05
1.000089e-05
1.0000774e-05
1.0000614e-05
1.0000541e-05
1.0000446e-05
1.0000312e-05
1.0000268e-05
1.0000286e-05
1.0000271e-05
1.0000284e-05
0.0011077003
0.0023240765
0.0025623083
0.001946594
0.00051398505
2.4612787e-05
1.0279012e-05
1.0191025e-05
1.0085618e-05
1.0072432e-05
1.0031166e-05
1.0032632e-05
1.0015303e-05
1.0016517e-05
1.0009916e-05
1.000813e-05
1.0005287e-05
1.0003847e-05
1.0002681e-05
1.000214e-05
1.0001957e-05
1.0002095e-05
1.0002134e-05
1.0001958e-05
1.0001645e-05
1.0001258e-05
1.0000887e-05
1.0000607e-05
1.0000449e-05
1.0000391e-05
1.0000382e-05
1.0000437e-05
1.0000521e-05
1.0000542e-05
1.0000511e-05
1.0000562e-05
1.0000544e-05
1.000063e-05
1.0000765e-05
1.0000876e-05
1.0000889e-05
1.0000774e-05
1.0000613e-05
1.0000536e-05
1.0000441e-05
1.0000315e-05
1.0000267e-05
1.0000284e-05
1.0000265e-05
1.0000265e-05
0.001105391
0.002294111
0.0024943804
0.0017881215
0.00040979909
1.9054227e-05
1.0261151e-05
1.0184672e-05
1.0082818e-05
1.0070056e-05
1.0030428e-05
1.0031763e-05
1.0015235e-05
1.0016152e-05
1.000984e-05
1.0007981e-05
1.0005228e-05
1.0003789e-05
1.0002657e-05
1.000213e-05
1.0001961e-05
1.000209e-05
1.0002127e-05
1.0001956e-05
1.0001647e-05
1.0001261e-05
1.0000889e-05
1.0000608e-05
1.0000448e-05
1.000039e-05
1.0000381e-05
1.0000432e-05
1.0000514e-05
1.0000538e-05
1.0000507e-05
1.0000558e-05
1.0000539e-05
1.0000623e-05
1.0000759e-05
1.0000875e-05
1.0000889e-05
1.0000774e-05
1.0000611e-05
1.0000533e-05
1.0000437e-05
1.0000319e-05
1.0000259e-05
1.0000282e-05
1.000026e-05
1.0000252e-05
0.0011029683
0.0022622569
0.0024179935
0.0016210465
0.00031942166
1.5495802e-05
1.0248309e-05
1.0178332e-05
1.0080043e-05
1.0067695e-05
1.0029705e-05
1.0030904e-05
1.0015176e-05
1.0015794e-05
1.0009764e-05
1.0007836e-05
1.0005169e-05
1.0003733e-05
1.0002635e-05
1.000212e-05
1.0001962e-05
1.0002084e-05
1.000212e-05
1.0001953e-05
1.0001648e-05
1.0001265e-05
1.0000891e-05
1.0000608e-05
1.0000448e-05
1.0000389e-05
1.0000379e-05
1.0000427e-05
1.0000508e-05
1.0000533e-05
1.0000502e-05
1.0000554e-05
1.0000534e-05
1.0000615e-05
1.0000752e-05
1.0000874e-05
1.0000889e-05
1.0000774e-05
1.0000609e-05
1.000053e-05
1.0000434e-05
1.0000324e-05
1.0000249e-05
1.0000279e-05
1.0000257e-05
1.0000243e-05
0.0011007612
0.0022299761
0.002342873
0.0014493177
0.0002440451
1.331796e-05
1.0238137e-05
1.0172002e-05
1.0077295e-05
1.0065353e-05
1.0028998e-05
1.0030058e-05
1.0015126e-05
1.0015444e-05
1.000969e-05
1.0007696e-05
1.0005112e-05
1.000368e-05
1.0002614e-05
1.0002111e-05
1.0001962e-05
1.0002077e-05
1.0002113e-05
1.000195e-05
1.000165e-05
1.0001268e-05
1.0000894e-05
1.000061e-05
1.0000449e-05
1.0000389e-05
1.0000377e-05
1.0000422e-05
1.0000502e-05
1.000053e-05
1.0000498e-05
1.0000549e-05
1.000053e-05
1.0000608e-05
1.0000744e-05
1.0000874e-05
1.0000889e-05
1.0000776e-05
1.0000606e-05
1.0000527e-05
1.000043e-05
1.0000328e-05
1.0000237e-05
1.0000276e-05
1.0000257e-05
1.0000238e-05
0.0010986547
0.0021963897
0.0022648748
0.0012764683
0.000182693
1.2030822e-05
1.0229352e-05
1.0165682e-05
1.0074574e-05
1.0063032e-05
1.0028308e-05
1.0029226e-05
1.0015087e-05
1.0015102e-05
1.0009617e-05
1.0007561e-05
1.0005055e-05
1.0003629e-05
1.0002594e-05
1.0002103e-05
1.0001962e-05
1.000207e-05
1.0002105e-05
1.0001947e-05
1.0001651e-05
1.0001272e-05
1.0000898e-05
1.0000613e-05
1.000045e-05
1.0000388e-05
1.0000375e-05
1.0000418e-05
1.0000496e-05
1.0000526e-05
1.0000494e-05
1.0000544e-05
1.0000526e-05
1.00006e-05
1.0000736e-05
1.0000872e-05
1.000089e-05
1.0000778e-05
1.0000604e-05
1.0000523e-05
1.0000426e-05
1.000033e-05
1.0000228e-05
1.0000273e-05
1.0000257e-05
1.0000238e-05
0.0010965192
0.0021605264
0.0021841145
0.0011143801
0.00013458453
1.1295873e-05
1.0221252e-05
1.0159403e-05
1.007189e-05
1.0060746e-05
1.0027638e-05
1.0028413e-05
1.0015059e-05
1.0014769e-05
1.0009543e-05
1.0007431e-05
1.0004999e-05
1.0003581e-05
1.0002575e-05
1.0002097e-05
1.0001962e-05
1.0002063e-05
1.0002098e-05
1.0001944e-05
1.0001653e-05
1.0001276e-05
1.0000904e-05
1.0000618e-05
1.000045e-05
1.0000387e-05
1.0000373e-05
1.0000413e-05
1.000049e-05
1.0000522e-05
1.000049e-05
1.0000538e-05
1.0000522e-05
1.0000591e-05
1.0000727e-05
1.0000871e-05
1.0000892e-05
1.0000783e-05
1.0000601e-05
1.0000519e-05
1.0000422e-05
1.0000331e-05
1.0000224e-05
1.0000269e-05
1.0000257e-05
1.0000236e-05
0.0010938736
0.0021194312
0.0020983416
0.00096138549
9.7457678e-05
1.0885035e-05
1.0213458e-05
1.0153163e-05
1.0069241e-05
1.0058496e-05
1.0026991e-05
1.0027618e-05
1.0015048e-05
1.0014405e-05
1.0009468e-05
1.0007307e-05
1.0004945e-05
1.0003536e-05
1.0002558e-05
1.0002091e-05
1.0001961e-05
1.0002056e-05
1.000209e-05
1.0001941e-05
1.0001654e-05
1.0001282e-05
1.0000911e-05
1.0000622e-05
1.000045e-05
1.0000386e-05
1.0000371e-05
1.0000409e-05
1.0000484e-05
1.0000519e-05
1.0000486e-05
1.0000532e-05
1.0000518e-05
1.0000582e-05
1.0000717e-05
1.0000868e-05
1.0000895e-05
1.0000788e-05
1.0000599e-05
1.0000516e-05
1.0000417e-05
1.000033e-05
1.000022e-05
1.0000266e-05
1.0000258e-05
1.0000233e-05
0.0010907056
0.0020738239
0.0020062246
0.00081906727
6.963755e-05
1.0659398e-05
1.0205819e-05
1.0146967e-05
1.0066633e-05
1.0056289e-05
1.0026368e-05
1.0026841e-05
1.0015057e-05
1.0014063e-05
1.0009393e-05
1.0007189e-05
1.0004892e-05
1.0003493e-05
1.0002542e-05
1.0002087e-05
1.0001959e-05
1.0002049e-05
1.0002082e-05
1.0001937e-05
1.0001656e-05
1.0001289e-05
1.000092e-05
1.0000626e-05
1.000045e-05
1.0000385e-05
1.000037e-05
1.0000404e-05
1.0000478e-05
1.0000515e-05
1.0000483e-05
1.0000527e-05
1.0000514e-05
1.0000572e-05
1.0000707e-05
1.0000864e-05
1.0000898e-05
1.0000794e-05
1.0000598e-05
1.0000514e-05
1.0000411e-05
1.0000327e-05
1.0000217e-05
1.0000263e-05
1.0000258e-05
1.0000233e-05
0.0010868095
0.0020227715
0.0019026463
0.00068803899
4.9388281e-05
1.0535606e-05
1.019832e-05
1.014082e-05
1.0064066e-05
1.005413e-05
1.0025771e-05
1.0026088e-05
1.001506e-05
1.0013755e-05
1.0009317e-05
1.0007076e-05
1.0004841e-05
1.0003453e-05
1.0002527e-05
1.0002083e-05
1.0001958e-05
1.0002042e-05
1.0002073e-05
1.0001933e-05
1.0001659e-05
1.0001299e-05
1.0000929e-05
1.0000629e-05
1.000045e-05
1.0000384e-05
1.0000368e-05
1.00004e-05
1.0000472e-05
1.0000512e-05
1.000048e-05
1.0000522e-05
1.0000511e-05
1.0000562e-05
1.0000696e-05
1.0000858e-05
1.00009e-05
1.0000802e-05
1.0000599e-05
1.0000513e-05
1.0000405e-05
1.0000323e-05
1.0000214e-05
1.0000262e-05
1.0000259e-05
1.0000235e-05
0.0010822677
0.0019667526
0.0017828394
0.00056994179
3.5256585e-05
1.0466185e-05
1.0190968e-05
1.0134738e-05
1.0061548e-05
1.0052027e-05
1.0025202e-05
1.0025359e-05
1.001505e-05
1.0013487e-05
1.0009241e-05
1.000697e-05
1.0004792e-05
1.0003416e-05
1.0002513e-05
1.000208e-05
1.0001957e-05
1.0002034e-05
1.0002065e-05
1.000193e-05
1.0001665e-05
1.000131e-05
1.0000938e-05
1.0000633e-05
1.0000451e-05
1.0000383e-05
1.0000367e-05
1.0000396e-05
1.0000465e-05
1.0000508e-05
1.0000477e-05
1.0000517e-05
1.0000508e-05
1.0000551e-05
1.0000684e-05
1.0000852e-05
1.0000901e-05
1.000081e-05
1.0000605e-05
1.0000514e-05
1.00004e-05
1.0000317e-05
1.0000212e-05
1.000026e-05
1.000026e-05
1.0000236e-05
0.0010772916
0.0019076233
0.0016502316
0.00046402678
2.582279e-05
1.0424815e-05
1.0183725e-05
1.0128729e-05
1.0059083e-05
1.0049983e-05
1.0024665e-05
1.0024659e-05
1.0015034e-05
1.0013235e-05
1.0009165e-05
1.000687e-05
1.0004745e-05
1.0003382e-05
1.00025e-05
1.0002078e-05
1.0001956e-05
1.0002027e-05
1.0002055e-05
1.0001927e-05
1.0001672e-05
1.0001321e-05
1.0000946e-05
1.0000638e-05
1.0000451e-05
1.0000382e-05
1.0000366e-05
1.0000392e-05
1.0000458e-05
1.0000504e-05
1.0000474e-05
1.0000513e-05
1.0000503e-05
1.000054e-05
1.0000673e-05
1.0000844e-05
1.0000901e-05
1.0000819e-05
1.0000612e-05
1.0000515e-05
1.0000397e-05
1.0000313e-05
1.000021e-05
1.0000259e-05
1.0000261e-05
1.0000233e-05
0.0010719248
0.0018459909
0.0015081147
0.00037351335
1.9911105e-05
1.0397498e-05
1.0176532e-05
1.0122801e-05
1.0056677e-05
1.0048002e-05
1.002416e-05
1.0023988e-05
1.0015011e-05
1.0012998e-05
1.000909e-05
1.0006777e-05
1.00047e-05
1.000335e-05
1.0002488e-05
1.0002075e-05
1.0001955e-05
1.0002019e-05
1.0002046e-05
1.0001926e-05
1.0001681e-05
1.0001332e-05
1.0000955e-05
1.0000644e-05
1.0000453e-05
1.0000381e-05
1.0000365e-05
1.0000389e-05
1.0000451e-05
1.0000499e-05
1.0000471e-05
1.000051e-05
1.0000497e-05
1.000053e-05
1.000066e-05
1.0000835e-05
1.0000899e-05
1.0000828e-05
1.0000618e-05
1.0000517e-05
1.0000394e-05
1.0000311e-05
1.0000209e-05
1.0000258e-05
1.0000262e-05
1.0000236e-05
0.0010662192
0.0017804539
0.001370368
0.00029604272
1.6160888e-05
1.0376864e-05
1.0169347e-05
1.0116967e-05
1.0054332e-05
1.004609e-05
1.002369e-05
1.0023347e-05
1.0014982e-05
1.0012775e-05
1.0009016e-05
1.0006689e-05
1.0004657e-05
1.000332e-05
1.0002476e-05
1.0002073e-05
1.0001954e-05
1.0002011e-05
1.0002037e-05
1.0001926e-05
1.000169e-05
1.0001342e-05
1.0000965e-05
1.0000651e-05
1.0000454e-05
1.0000381e-05
1.0000365e-05
1.0000385e-05
1.0000443e-05
1.0000494e-05
1.0000467e-05
1.0000507e-05
1.000049e-05
1.0000519e-05
1.0000647e-05
1.0000826e-05
1.0000898e-05
1.0000837e-05
1.0000624e-05
1.0000518e-05
1.0000392e-05
1.0000309e-05
1.0000207e-05
1.0000256e-05
1.0000261e-05
1.0000244e-05
0.0010606269
0.0017085793
0.0012312716
0.00022991752
1.3800907e-05
1.035947e-05
1.0162156e-05
1.0111251e-05
1.0052057e-05
1.0044254e-05
1.0023251e-05
1.0022736e-05
1.0014946e-05
1.0012567e-05
1.0008944e-05
1.0006608e-05
1.0004617e-05
1.0003293e-05
1.0002465e-05
1.0002071e-05
1.0001953e-05
1.0002003e-05
1.000203e-05
1.0001929e-05
1.0001697e-05
1.0001352e-05
1.0000976e-05
1.0000658e-05
1.0000457e-05
1.000038e-05
1.0000364e-05
1.0000382e-05
1.0000435e-05
1.0000488e-05
1.0000462e-05
1.0000503e-05
1.0000481e-05
1.0000509e-05
1.0000633e-05
1.0000816e-05
1.0000895e-05
1.0000846e-05
1.0000636e-05
1.0000518e-05
1.000039e-05
1.0000304e-05
1.0000204e-05
1.0000254e-05
1.000026e-05
1.0000247e-05
0.0010565599
0.0016451182
0.0010927329
0.00017495243
1.2368329e-05
1.0343429e-05
1.0154956e-05
1.0105666e-05
1.0049855e-05
1.0042496e-05
1.0022849e-05
1.0022136e-05
1.0014906e-05
1.0012374e-05
1.0008873e-05
1.0006533e-05
1.0004579e-05
1.0003267e-05
1.0002453e-05
1.000207e-05
1.0001952e-05
1.0001995e-05
1.0002024e-05
1.0001931e-05
1.0001703e-05
1.0001363e-05
1.0000989e-05
1.0000667e-05
1.000046e-05
1.000038e-05
1.0000363e-05
1.0000379e-05
1.0000427e-05
1.0000482e-05
1.0000457e-05
1.0000498e-05
1.0000471e-05
1.0000498e-05
1.0000619e-05
1.0000804e-05
1.0000893e-05
1.0000854e-05
1.0000655e-05
1.0000516e-05
1.0000389e-05
1.0000299e-05
1.0000201e-05
1.0000252e-05
1.000026e-05
1.0000248e-05
0.0010528936
0.0015770509
0.00095567602
0.00013033839
1.1522154e-05
1.0327622e-05
1.014775e-05
1.0100216e-05
1.0047732e-05
1.0040815e-05
1.0022486e-05
1.0021554e-05
1.0014863e-05
1.0012195e-05
1.0008805e-05
1.0006464e-05
1.0004544e-05
1.0003243e-05
1.0002442e-05
1.0002068e-05
1.0001952e-05
1.0001989e-05
1.0002021e-05
1.0001932e-05
1.0001708e-05
1.0001375e-05
1.0001002e-05
1.0000678e-05
1.0000464e-05
1.0000379e-05
1.0000362e-05
1.0000376e-05
1.0000419e-05
1.0000474e-05
1.0000451e-05
1.0000494e-05
1.000046e-05
1.0000488e-05
1.0000605e-05
1.0000791e-05
1.000089e-05
1.000086e-05
1.000067e-05
1.0000513e-05
1.0000389e-05
1.0000293e-05
1.0000197e-05
1.0000249e-05
1.0000258e-05
1.0000248e-05
0.0010501875
0.0015057766
0.00082367502
9.5195062e-05
1.1037875e-05
1.0311605e-05
1.0140551e-05
1.0094905e-05
1.0045691e-05
1.0039215e-05
1.0022167e-05
1.0021017e-05
1.0014812e-05
1.0012031e-05
1.000874e-05
1.0006401e-05
1.000451e-05
1.000322e-05
1.0002431e-05
1.0002067e-05
1.0001952e-05
1.0001985e-05
1.0002019e-05
1.0001931e-05
1.0001713e-05
1.0001387e-05
1.0001018e-05
1.0000689e-05
1.0000469e-05
1.0000379e-05
1.0000361e-05
1.0000373e-05
1.0000411e-05
1.0000466e-05
1.0000444e-05
1.0000489e-05
1.0000449e-05
1.0000477e-05
1.000059e-05
1.0000776e-05
1.0000888e-05
1.0000864e-05
1.0000666e-05
1.0000512e-05
1.0000382e-05
1.0000289e-05
1.0000193e-05
1.0000245e-05
1.0000255e-05
1.0000246e-05
0.0010488613
0.0014307036
0.00069912984
6.8366782e-05
1.0767075e-05
1.0295808e-05
1.0133389e-05
1.0089749e-05
1.0043739e-05
1.0037702e-05
1.0021891e-05
1.0020524e-05
1.0014757e-05
1.001188e-05
1.0008677e-05
1.0006343e-05
1.0004479e-05
1.0003198e-05
1.0002419e-05
1.0002065e-05
1.0001954e-05
1.0001984e-05
1.0002017e-05
1.0001927e-05
1.0001717e-05
1.0001401e-05
1.0001034e-05
1.0000703e-05
1.0000475e-05
1.0000379e-05
1.000036e-05
1.0000369e-05
1.0000403e-05
1.0000458e-05
1.0000436e-05
1.0000483e-05
1.0000438e-05
1.0000466e-05
1.0000576e-05
1.0000759e-05
1.0000885e-05
1.0000867e-05
1.0000658e-05
1.0000513e-05
1.0000374e-05
1.0000283e-05
1.0000189e-05
1.0000238e-05
1.0000254e-05
1.0000242e-05
0.0010492163
0.0013559621
0.00058394279
4.8639043e-05
1.0616185e-05
1.0281662e-05
1.01263e-05
1.0084762e-05
1.0041883e-05
1.0036277e-05
1.0021661e-05
1.0020081e-05
1.0014698e-05
1.0011744e-05
1.0008619e-05
1.0006291e-05
1.0004449e-05
1.0003177e-05
1.0002408e-05
1.0002063e-05
1.0001957e-05
1.0001985e-05
1.0002012e-05
1.0001921e-05
1.0001722e-05
1.0001415e-05
1.0001053e-05
1.0000718e-05
1.0000483e-05
1.0000379e-05
1.0000359e-05
1.0000366e-05
1.0000395e-05
1.0000449e-05
1.0000426e-05
1.0000476e-05
1.0000429e-05
1.0000455e-05
1.0000561e-05
1.0000741e-05
1.0000881e-05
1.000087e-05
1.0000649e-05
1.0000517e-05
1.0000371e-05
1.0000269e-05
1.0000185e-05
1.000023e-05
1.000025e-05
1.0000235e-05
0.001050179
0.0012713468
0.00047903295
3.4844125e-05
1.0527822e-05
1.0267112e-05
1.0119292e-05
1.0079964e-05
1.0040129e-05
1.0034945e-05
1.0021478e-05
1.0019699e-05
1.0014635e-05
1.0011621e-05
1.0008564e-05
1.0006243e-05
1.000442e-05
1.0003157e-05
1.0002396e-05
1.0002058e-05
1.0001956e-05
1.0001986e-05
1.0002001e-05