/*--------------------------------*- C++ -*----------------------------------*\
  =========                 |
  \\      /  F ield         | OpenFOAM: The Open Source CFD Toolbox
   \\    /   O peration     | Website:  https://openfoam.org
    \\  /    A nd           | Version:  8
     \\/     M anipulation  |
\*---------------------------------------------------------------------------*/
FoamFile
{
    version     2.0;
    format      ascii;
    class       volScalarField;
    location    "0.170001";
    object      p;
}
// * * * * * * * * * * * * * * * * * * * * * * * * * * * * * * * * * * * * * //

dimensions      [1 -1 -2 0 0 0 0];

internalField   nonuniform List<scalar> 
20000
(
79631.463
79644.668
79660.859
79682.903
79713.03
79753.424
79808.217
79872.981
79954.462
80052.405
80166.975
80310.885
80469.62
80672.619
80891.201
81168.709
81469.029
81841.65
82250.804
82742.808
83291.258
83932.785
84652.294
85478.228
86405.791
87448.811
88620.504
89906.725
91253.772
92599.633
93884.717
95065.419
96106.589
96992.82
97717.794
98296.591
98738.46
99046.079
99253.269
99380.142
99442.252
99459.28
99448.231
99407.044
99364.015
99346.773
99348.569
99411.334
99420.203
99867.364
79160.845
79175.357
79192.356
79216.119
79249.116
79293.976
79355.411
79427.854
79516.734
79621.453
79741.279
79890.768
80053.236
80261.878
80485.334
80770.979
81080.25
81465.106
81889.332
82400.215
82970.434
83637.467
84387.216
85248.012
86217.271
87315.908
88564.131
89907.197
91286.196
92650.302
93942.215
95119.333
96150.652
97023.933
97736.743
98305.084
98738.679
99045.304
99247.692
99367.606
99423.495
99439.116
99429.032
99388.266
99353.125
99337.85
99352.958
99409.652
99442.634
99866.157
78648.952
78664.143
78682.093
78707.103
78741.603
78787.839
78850.11
78922.425
79011.02
79115.637
79235.052
79385.953
79549.746
79762.986
79991.396
80286.169
80605.791
81005.332
81446.245
81978.357
82574.333
83273.631
84064.61
84975.956
86009.275
87193.417
88539.07
89925.961
91339.133
92722.419
94019.553
95190.571
96209.097
97066.716
97764.389
98319.785
98743.615
99045.795
99242.424
99355.578
99405.843
99419.099
99408.882
99369.891
99342.646
99329.865
99356.202
99408.857
99471.385
99865.358
78093.873
78108.685
78125.454
78148.789
78181.216
78224.969
78285.259
78355.375
78442.824
78547.609
78667.77
78821.797
78988.575
79208.192
79442.953
79748.211
80079.041
80494.401
80953.877
81510.131
82136.821
82875.914
83721.322
84702.038
85826.601
87130.789
88533.117
89969.796
91418.772
92820.25
94120.09
95281.869
96284.33
97123.23
97802.729
98342.331
98754.254
99050.066
99239.081
99345.216
99390.665
99401.918
99389.689
99353.391
99333.105
99325.007
99358.247
99408.556
99498.914
99864.998
77480.059
77495.76
77514.184
77539.679
77574.884
77621.662
77685.759
77759.184
77850.054
77958.774
78082.224
78241.368
78412.458
78639.417
78881.259
79197.162
79539.984
79971.792
80451.051
81034.323
81698.208
82486.312
83401.588
84473.284
85721.625
87108.821
88552.982
90043.133
91526.816
92943.998
94243.079
95391.933
96374.781
97191.729
97850.25
98371.82
98770.134
99057.492
99237.662
99335.736
99376.374
99385.922
99371.894
99337.974
99322.434
99322.698
99360.144
99408.482
99530.255
99864.909
76914.438
76929.935
76947.849
76972.809
77007.738
77054.363
77119.387
77193.224
77285.238
77396.262
77522.112
77686.151
77861.634
78096.464
78345.577
78672.294
79026.585
79475.853
79978.769
80594.851
81306.04
82157.037
83159.405
84347.833
85679.296
87107.488
88611.404
90152.281
91667.182
93095.666
94389.429
95521.074
96480.482
97272.181
97906.965
98408.299
98791.636
99067.771
99237.26
99326.947
99363.19
99371.129
99355.908
99324.891
99310.839
99321.713
99361.736
99409.413
99561.965
99866.678
76386.008
76402.141
76421.01
76447.348
76484.329
76533.198
76600.996
76677.375
76772.36
76887.35
77016.669
77186.458
77366.677
77609.553
77866.214
78204.559
78572.544
79042.394
79576.199
80234.739
81005.61
81945.528
83040.593
84297.13
85670.314
87152.463
88714.996
90301.472
91841.907
93275.891
94558.891
95668.598
96600.582
97363.771
97972.209
98451.376
98818.576
99080.642
99237.256
99318.208
99350.481
99356.825
99340.598
99313.831
99300.962
99321.334
99363.375
99412.278
99593.564
99870.854
75941.064
75957.704
75976.875
76003.831
76041.891
76091.747
76161.18
76239.179
76336.477
76455.062
76587.528
76762.966
76947.801
77198.915
77464.237
77818.138
78206.158
78702.954
79277.634
79998.222
80841.791
81849.064
82995.886
84285.793
85707.123
87251.898
88869.308
90494.181
92052.738
93485.174
94751.21
95833.884
96734.376
97465.882
98045.487
98500.68
98850.702
99096.118
99238.322
99309.509
99338.116
99342.879
99325.54
99304.725
99294.791
99321.238
99365.327
99417.303
99624.378
99877.137
75572.965
75590.351
75610.284
75638.311
75678.307
75730.162
75802.736
75883.572
75984.203
76107.185
76243.259
76425.388
76616.855
76878.867
77156.477
77532.235
77950.676
78493.817
79118.22
79886.803
80772.437
81817.74
82988.094
84324.607
85807.808
87412.068
89077.215
90731.96
92300.041
93723.083
94965.498
96015.879
96880.852
97577.665
98126.126
98555.623
98887.437
99114.189
99241.382
99302.268
99326.201
99329.497
99311.542
99296.444
99291.853
99321.869
99368.038
99425.058
99654.569
99884.955
75287.486
75305.968
75327.216
75357.053
75399.999
75454.906
75531.674
75616.177
75720.462
75848.084
75988.676
76179.98
76383.058
76664.833
76966.726
77373.699
77823.826
78398.089
79050.62
79846.874
80752.925
81817.26
83039.59
84434.286
85977.243
87634.988
89339.748
91014.956
92583.265
93988.607
95200.543
96213.36
97038.923
97698.239
98213.434
98615.65
98928.12
99134.666
99247.084
99298.745
99315.696
99317.451
99300.152
99288.027
99290.569
99324.009
99371.963
99436.615
99683.764
99893.651
75090.413
75109.821
75131.94
75162.865
75207.917
75264.686
75344.545
75432.694
75543.025
75681.266
75834.303
76042.925
76260.073
76560.348
76879.022
77304.726
77772.319
78366.012
79031.274
79841.191
80779.155
81890.886
83166.523
84618.517
86216.941
87920.903
89656.262
91342.077
92900.952
94280.115
95454.732
96424.857
97207.348
97826.598
98306.642
98680.463
98971.988
99157.221
99254.709
99297.374
99308.447
99307.532
99291.56
99280.998
99290.088
99327.439
99377.524
99453.371
99711.601
99902.622
74972.424
74993.216
75016.95
75049.948
75098.716
75159.287
75244.434
75338.145
75454.581
75601.258
75762.004
75981.405
76206.986
76519.793
76849.159
77283.757
77759.047
78363.194
79053.663
79899.249
80879.856
82039.948
83369.555
84876.038
86524.613
88267.474
90024.34
91710.863
93250.707
94595.386
95726.1
96648.705
97384.776
97961.634
98404.894
98750.109
99018.115
99181.408
99263.399
99297.057
99304.919
99300.077
99285.624
99277.331
99289.969
99331.93
99384.996
99476.655
99737.75
99911.489
74915.342
74937.28
74962.366
74997.17
75049.544
75112.989
75202.893
75301.321
75421.974
75573.891
75736.981
75960.673
76191.158
76510.847
76846.54
77296.442
77792.301
78423.832
79146.597
80030.046
81055.2
82264.753
83646.394
85204.02
86897.56
88671.84
90441.03
92118.337
93629.723
94931.902
96012.486
96883.12
97569.78
98102.145
98507.253
98824.215
99065.986
99206.866
99272.985
99297.757
99303.353
99295.222
99282.729
99275.618
99290.772
99337.264
99394.461
99507.181
99762.202
99920.185
74893.288
74916.575
74942.871
74979.098
75034.621
75099.601
75192.635
75294.113
75417.775
75575.087
75742.094
75974.831
76214.604
76549.326
76900.548
77371.154
77890.389
78550.736
79307.805
80230.929
81301.137
82559.19
83991.691
85597.514
87331
89129.461
90902.029
92560.536
94034.515
95286.704
96311.452
97126.153
97760.812
98246.85
98612.817
98902.12
99115.378
99233.363
99283.709
99299.923
99302.748
99292.731
99281.427
99274.911
99293.349
99343.255
99405.856
99544.186
99785.333
99928.854
74907.786
74932.767
74960.792
74999.173
75058.794
75127.089
75224.865
75331.53
75460.636
75626.008
75800.696
76045.469
76294.752
76644.879
77012.693
77505.298
78050.054
78741.043
79533.635
80496.864
81612.535
82919.082
84401.198
86052.462
87820.914
89636.274
91403.254
93033.637
94461.644
95656.829
96620.548
97375.85
97956.295
98394.513
98721.046
98983.066
99166.027
99260.628
99295.441
99303.337
99302.592
99291.547
99280.924
99274.7
99297.47
99349.821
99419.157
99585.542
99808.577
99937.751
74973.047
74999.68
75029.304
75069.573
75133.039
75204.15
75306.024
75417.619
75551.479
75725.143
75907.536
76164.842
76425.942
76793.313
77179.188
77695.22
78266.4
78988.52
79817.549
80821.758
81983.478
83338.504
84869.384
86563.52
88362.018
90187.056
91939.712
93533.087
94907.142
96038.951
96937.11
97630.136
98154.553
98543.989
98832.028
99065.845
99217.324
99288.216
99308.305
99308.115
99302.99
99291.028
99280.795
99274.763
99302.983
99357.056
99434.781
99629.396
99832.531
99947.016
75079.067
75107.596
75139.084
75181.699
75249.447
75324.157
75430.71
75548.236
75687.589
75870.449
76060.733
76331.072
76604.531
76989.907
77394.801
77934.789
78533.609
79288.04
80154.776
81201.033
82409.772
83813.672
85392.548
87126.864
88950.258
90777.478
92507.077
94054.739
95367.267
96429.875
97258.607
97887.056
98354.022
98694.398
98946.202
99148.639
99268.255
99316.034
99323.078
99313.803
99304.52
99290.853
99280.965
99276.409
99309.79
99365.284
99453.87
99673.93
99857.038
99956.702
75223.21
75253.622
75287.006
75332.12
75404.264
75482.511
75593.602
75717.347
75862.731
76055.352
76254.419
76538.942
76825.635
77229.918
77654.592
78219.565
78847.005
79634.686
80540.425
81629.974
82886.837
84340.042
85966.175
87737.748
89580.636
91402.361
93100.289
94593.877
95837.837
96826.158
97582.431
98144.648
98553.244
98845.126
99062.813
99229.806
99317.84
99345.693
99338.882
99320.502
99306.941
99291.021
99281.854
99279.856
99317.797
99374.992
99478.028
99716.978
99881.692
99966.877
75400.096
75432.565
75467.951
75515.767
75592.419
75674.435
75790.774
75921.786
76074.09
76277.517
76485.924
76785.221
77085.56
77509.142
77954.451
78544.999
79202.452
80024.841
80971.232
82105.642
83411.915
84915.016
86587.405
88392.979
90249.327
92057.559
93714.984
95146.283
96315.054
97224.76
97906.344
98401.223
98751.119
98995.889
99179.616
99308.329
99366.402
99377.735
99355.131
99328.201
99310.193
99292.804
99283.552
99285.171
99326.904
99386.647
99508.462
99756.398
99906.209
99977.774
75608.821
75643.562
75681.157
75731.879
75812.978
75899.208
76021.363
76160.172
76319.56
76534.034
76751.693
77065.957
77380.225
77823.738
78290.606
78908.029
79596.915
80455.396
81444.103
82624.964
83981.936
85535.356
87252.693
89088.446
90951.7
92738.08
94346.11
95707.2
96794.932
97622.799
98228.259
98655.153
98946.739
99146.368
99293.613
99383.57
99415.746
99410.848
99371.657
99336.889
99314.316
99295.894
99286.605
99292.142
99336.98
99400.514
99545.049
99790.708
99930.336
99989.999
75849.019
75885.986
75925.691
75979.368
76065.021
76156.556
76283.917
76429.846
76595.611
76820.956
77047.781
77377.468
77706.407
78170.744
78660.57
79305.918
80027.978
80924.269
81957.24
83186.333
84595.372
86199.381
87959.888
89821.282
91684.134
93439.688
94989.236
96272.472
97274.342
98018.269
98546.572
98905.012
99139.316
99295.447
99402.173
99456.094
99466.991
99443.547
99388.394
99346.366
99319.336
99300.326
99291.124
99300.611
99347.849
99416.543
99583.816
99821.967
99953.598
100004.34
76112.131
76151.676
76193.96
76251.377
76342.249
76439.253
76571.594
76724.89
76897.308
77134.341
77371.037
77717.219
78061.905
78548.209
79062.348
79737.071
80493.946
81429.727
82508.883
83787.969
85250.286
86904.811
88706.074
90587.741
92442.112
94157.348
95639.317
96837.933
97750.73
98409.566
98859.594
99149.184
99327.649
99439.758
99505.055
99528.141
99518.579
99475.206
99405.186
99356.323
99325.45
99306.135
99297.166
99310.385
99359.295
99434.483
99623.632
99851.271
99974.894
100020.95
76399.419
76441.294
76485.679
76546.411
76641.859
76743.545
76881.621
77043.238
77223.024
77472.836
77720.245
78084.009
78445.49
78954.816
79494.66
80199.993
80993.581
81970.822
83098.309
84429.242
85945.986
87650.545
89489.431
91384.998
93221.874
94886.707
96292.134
97400.745
98222.773
98795.25
99165.319
99385.946
99509.895
99577.075
99603.887
99600.163
99569.173
99505.426
99421.799
99366.53
99332.83
99313.339
99304.661
99321.269
99371.124
99454.097
99664.271
99880.015
99995.552
100037.75
76704.039
76748.869
76796.156
76861.137
76961.932
77069.529
77214
77384.888
77572.517
77835.998
78094.706
78476.862
78856.122
79389.35
79956.381
80693.832
81526.088
82546.799
83724.726
85109.268
86681.277
88434.79
90307.216
92209.238
94018.675
95622.711
96943.615
97958.83
98688.944
99172.103
99460.503
99613.487
99684.129
99707.865
99700.851
99670.419
99618.185
99533.962
99438.109
99377.021
99341.359
99321.907
99313.572
99333.085
99383.292
99475.414
99705.606
99908.573
100015.82
100054.2
77033.128
77080.743
77130.739
77199.536
77305.447
77418.828
77569.263
77749.731
77945.309
78223.033
78493.457
78894.751
79292.714
79850.891
80446.712
81217.936
82091.113
83157.556
84388.155
85828.078
87455.9
89256.631
91157.415
93057.229
94828.307
96361.168
97591.342
98511.257
99146.094
99535.845
99742.719
99830.727
99850.677
99834.321
99794.211
99738.504
99665.255
99560.826
99453.952
99387.808
99350.923
99331.771
99323.822
99345.688
99396.038
99499.009
99747.004
99936.591
100035.41
100070.03
77379.4
77430.072
77483.189
77556.408
77668.574
77788.651
77945.326
78136.174
78340.041
78632.742
78915.342
79336.586
79754.46
80338.799
80965.377
81772.278
82688.655
83803.074
85088.481
86585.37
88269.027
90114.357
92036.995
93924.663
95645.743
97098.024
98233.639
99055.854
99588.377
99882.722
100010.82
100039.05
100010.44
99955.009
99883.626
99804.064
99710.12
99585.988
99469.282
99398.914
99361.418
99342.837
99335.311
99358.985
99409.949
99526.236
99787.261
99963.405
100054.26
100085.49
77745.994
77799.969
77856.504
77934.341
78052.863
78179.511
78342.149
78543.618
78755.645
79064.059
79359.457
79801.766
80241.05
80853.041
81512.416
82356.983
83319.042
84483.823
85826.273
87381.519
89120.583
91006.776
92943.43
94807.595
96466.869
97830.925
98869.493
99586.951
100011.41
100210.76
100267.57
100238.47
100162.2
100069.64
99968.838
99866.897
99752.581
99609.351
99484.159
99410.387
99372.769
99354.995
99347.922
99372.948
99425.839
99559.081
99824.774
99988.337
100071.81
100100.26
78130.395
78187.668
78247.826
78330.254
78455.132
78588.423
78757.322
78970.005
79190.854
79516.235
79825.611
80290.248
80752.663
81393.814
82088.22
82972.589
83982.768
85200.29
86601.877
88216.543
90009.737
91931.749
93872.931
95701.184
97287.476
98558.16
99495.075
100097.96
100411.59
100522.43
100513.62
100427.34
100305.58
100177.91
100049.77
99926.792
99792.471
99630.82
99498.651
99422.285
99384.909
99368.112
99361.518
99387.491
99444.409
99598.718
99858.223
100011.12
100087.79
100113.58
78530.767
78591.505
78655.439
78742.361
78873.597
79014.344
79190.44
79415.704
79646.091
79989.852
80314.286
80802.455
81289.699
81961.623
82693.29
83619.668
84680.589
85953.424
87416.21
89091.01
90936.132
92887.376
94821.953
96601.245
98104.919
99278.671
100103.46
100583.73
100789.08
100821.73
100746.37
100605.27
100440.37
100279.76
100126.37
99983.6
99829.642
99650.369
99512.836
99434.687
99397.773
99382.038
99375.939
99402.593
99465.901
99642.08
99889.302
100031.98
100102.37
100125.82
78944.059
79008.864
79077.63
79170.22
79309.114
79458.792
79642.843
79882.065
80122.285
80485.389
80825.858
81338.711
81852.667
82557.026
83328.343
84299.093
85413.445
86744.145
88269.967
90004.938
91898.471
93870.509
95785.804
97503.287
98917.145
99987.886
100687.31
101040.86
101149.24
101105.85
100965.24
100771.97
100566.46
100375.19
100198.61
100037.15
99863.906
99668.071
99526.782
99447.661
99411.323
99396.61
99391.013
99418.229
99490.083
99686.906
99919.108
100051.29
100115.57
100136.93
79378.334
79447.342
79521.216
79619.338
79765.324
79923.997
80115.512
80369.494
80619.485
81002.81
81360.629
81899.535
82442.3
83180.785
83994.243
85011.904
86182.617
87573.85
89164.293
90958.712
92895.595
94878.073
96760.239
98404.114
99723.015
100677.97
101241.14
101472.21
101493.06
101373.1
101169.97
100927.41
100683.86
100464.31
100266.5
100087.25
99894.97
99684.183
99540.576
99461.236
99425.531
99411.682
99406.565
99434.269
99516.509
99731.975
99947.913
100069.46
100127.79
100147.07
79829.935
79903.253
79982.506
80086.102
80239.189
80407.662
80606.565
80876.347
81137.374
81542.509
81919.313
82485.733
83059.314
83833.793
84692.06
85759.548
86989.606
88443.852
90099.992
91951.901
93925.202
95905.746
97740.545
99300.87
100518.4
101340.35
101761.15
101883.87
101817.34
101622.94
101360.51
101071.61
100792.68
100547.23
100330.05
100133.66
99922.355
99699.176
99554.314
99475.379
99440.351
99427.145
99422.429
99450.765
99544.89
99776.5
99975.619
100086.7
100139.47
100156.7
80298.269
80375.905
80460.963
80570.293
80730.666
80909.719
81117.272
81404.098
81677.355
82105.635
82502.857
83097.898
83704.477
84517.032
85423.245
86543.703
87836.197
89355.827
91078.055
92984.174
94984.81
96949.491
98723.049
100192.09
101294.88
101968.99
102251.23
102275.39
102120.85
101855.32
101536.99
101204.75
100893.09
100624.17
100389.28
100176.17
99945.602
99713.617
99568.089
99490.029
99455.71
99442.924
99438.477
99467.94
99575.512
99819.653
100001.95
100102.94
100150.54
100165.85
80781.056
80863.503
80955.726
81072.846
81241.328
81431.972
81648.973
81954.276
82240.174
82692.682
83111.604
83736.534
84378.725
85232.094
86189.704
87366.503
88724.287
90311.174
92098.873
94054.008
96070.649
98004.402
99704.207
101074.88
102042.07
102559.19
102717.89
102643.32
102403.16
102070.3
101699.62
101327.02
100985.34
100695.33
100444.26
100214.66
99965.022
99727.496
99581.925
99505.105
99471.505
99458.954
99454.612
99486.361
99609.473
99860.323
100026.48
100117.93
100160.75
100174.45
81279.279
81367.564
81468.85
81596.279
81773.883
81976.456
82202.515
82527.075
82825.758
83303.441
83746.016
84402.75
85083.87
85981.161
86993.797
88230.122
89655.908
91311.44
93162.798
95159.628
97178.821
99066.323
100681.65
101940.93
102753.1
103114.14
103160.97
102986.34
102664.42
102268.24
101848.74
101438.77
101069.74
100760.96
100495.1
100249.18
99981.208
99740.628
99595.82
99520.513
99487.624
99475.163
99470.791
99506.784
99648.34
99897.084
100048.77
100131.57
100169.99
100182.11
81803.321
81897.856
82005.129
82138.587
82325.834
82541.446
82776.402
83121.358
83434.124
83938.487
84407.645
85098.802
85822.508
86766.913
87837.942
89136.909
90632.953
92357.717
94269.208
96297.929
98304.368
100130.81
101652.54
102779.2
103421.9
103640.45
103576.92
103304.13
102904.84
102449.5
101984.72
101540.34
101146.63
100821.34
100541.9
100279.77
99994.542
99753.007
99609.756
99536.132
99503.94
99491.52
99487.096
99529.801
99692.639
99929.028
100068.73
100143.8
100178.21
100188.89
82347.129
82447.81
82561.313
82700.519
82896.164
83126.14
83370.531
83737.879
84066.912
84600.439
85099.493
85827.81
86597.52
87591.995
88724.617
90089.071
91657.362
93451.045
95417.155
97465.51
99442.803
101194.4
102610.8
103580.47
104049.2
104140.04
103963.71
103596.94
103124.94
102614.64
102108.09
101632.18
101216.42
100876.79
100584.78
100306.32
100005.31
99764.714
99623.703
99551.826
99520.338
99508.097
99503.804
99555.506
99738.323
99958.617
100086.82
100154.66
100185.36
100194.85
82905.116
83012.626
83134.537
83282.237
83485.975
83732.101
83987.308
84379.889
84727.816
85293.088
85825.104
86592.645
87411.49
88458.863
89656.154
91088.945
92730.869
94591.678
96604.368
98657.69
100589.25
102253.67
103545.14
104337.09
104641.1
104609.43
104321
103865.11
103325.28
102764.24
102219.32
101714.74
101279.53
100927.66
100623.9
100328.96
100013.77
99775.839
99637.616
99567.485
99536.755
99524.979
99521.104
99583.569
99783.758
99986.429
100103.21
100164.23
100191.49
100199.81
83482.168
83597.547
83728.293
83885.572
84098.64
84364.09
84631.866
85052.396
85420.967
86019.677
86587.024
87395.537
88266.539
89369.881
90635.049
92138.809
93855.132
95779.476
97828.052
99869.804
101739.55
103305.12
104443.31
105045.74
105203
105045.25
104649.08
104109.35
103506.65
102899.01
102319.04
101788.53
101336.44
100974.31
100659.63
100348.77
100020.25
99786.485
99651.471
99583.095
99553.196
99542.079
99538.57
99613.668
99828.053
100012.52
100117.9
100172.4
100196.54
100203.94
84084.005
84207.888
84347.839
84516.821
84741.073
85028.077
85309
85758.671
86148.654
86781.516
87386.763
88238.301
89164.984
90327.711
91663.951
93241.123
95031.265
97013.108
99083.934
101096.49
102889.04
104337.82
105296.28
105711.13
105731.76
105447.01
104948.39
104330.4
103669.81
103019.65
102407.8
101854.09
101387.59
101017.04
100692.23
100366.87
100025.33
99796.777
99665.262
99598.685
99569.635
99559.218
99556.207
99646.144
99870.374
100036.63
100130.81
100178.95
100200.22
100207.08
84715.985
84849.044
84999.135
85182.511
85417.899
85725.742
86018.604
86498.257
86911.064
87579.357
88225.922
89123.381
90109.631
91335.413
92745.845
94398.092
96259.995
98290.512
100367.47
102332.82
104033.74
105338.71
106096.65
106341.66
106222.95
105815
105219.81
104529.26
103815.71
103126.94
102486.29
101911.97
101433.46
101056.06
100721.37
100379.75
100030.01
99806.897
99678.989
99614.25
99586.074
99576.201
99575.015
99682.258
99909.396
100058.29
100141.82
100184.1
100202.88
100208.98
85374.532
85517.555
85678.445
85876.401
86121.645
86452.698
86758.54
87270.484
87709.415
88415.244
89107.227
90053.98
91103.907
92396.358
93883.648
95611.765
97540.976
99608.174
101673.03
103573.21
105165.95
106294.99
106846.24
106935.85
106675.21
106149.74
105464.25
104706.92
103945.25
103221.66
102555.13
101962.74
101474.49
101091.51
100746.28
100386.04
100035.31
99816.98
99692.642
99629.75
99602.377
99592.775
99596.142
99723.332
99943.511
100077.12
100151.19
100188.41
100204.85
100210.11
86054.696
86209.26
86381.782
86596.215
86853.172
87211.216
87531.89
88078.395
88546.772
89292.66
90034.311
91033.926
92151.42
93513.991
95080.243
96883.504
98872.956
100961.85
102995.31
104812.65
106272.5
107197.25
107552.24
107489.54
107088.72
106452.19
105682.92
104864.58
104059.52
103304.73
102615.05
102006.97
101511.13
101123.6
100766.82
100388.49
100040.74
99827.025
99706.172
99645.116
99618.58
99609.268
99619.838
99768.247
99972.744
100093.43
100159.33
100192.11
100206.34
100210.75
86767.264
86934.093
87118.349
87350.772
87617.593
88005.393
88342.606
88925.148
89426.991
90215.561
91011.283
92067.221
93255.958
94691.722
96338.216
98214.031
100253.24
102345.88
104328.11
106045.22
107337.9
108040.94
108218.7
107999.07
107463.96
106723.45
105877.05
105003.43
104159.56
103376.98
102666.71
102045.19
101543.78
101152.78
100784.32
100389.41
100046.03
99836.961
99719.522
99660.319
99634.721
99625.829
99646.28
99813.088
99999.461
100108.04
100166.58
100195.28
100207.48
100211.16
87507.164
87689.063
87887.044
88140.773
88418.63
88838.365
89193.865
89815.753
90354.4
91188.289
92042.366
93157.92
94421.264
95933.015
97659.898
99602.939
101678.12
103754.41
105665.08
107259.29
108349.98
108831.08
108841.78
108464.39
107802.02
106964.94
106048.15
105124.86
104246.48
103439.19
102710.69
102077.96
101572.88
101179.56
100800.35
100389.43
100050.98
99846.682
99732.642
99675.395
99650.926
99642.608
99675.181
99856.356
100024.32
100121.4
100173.11
100198.04
100208.39
100211.45
88285.181
88483.54
88694.344
88970.099
89259.82
89714.531
90090.366
90753.721
91333.423
92214.956
93131.461
94310.057
95651.194
97241.239
99046.876
101048.59
103142.26
105180.66
106999.08
108437.94
109298.14
109577
109415.58
108885.87
108104.13
107178.21
106197.71
105230.1
104321.13
103491.84
102747.49
102105.87
101598.8
101204.09
100812.89
100388.1
100055.46
99856.067
99745.52
99690.466
99667.4
99659.824
99706.314
99897.209
100047.36
100133.6
100179.02
100200.47
100209.18
100211.67
89100.545
89316.801
89541.009
89841.81
90144.397
90637.666
91036.39
91743.405
92368.083
93299.408
94282.54
95527.822
96949.868
98619.631
100499.89
102547.83
104639.51
106617.66
108321.59
109564.48
110184.51
110275.64
109939.23
109264.69
108372.02
107365.06
106327.34
105320.32
104384.16
103535.46
102777.69
102129.49
101621.98
101226.12
100819.7
100385.72
100059.35
99865.037
99758.229
99705.722
99684.393
99677.783
99739.412
99934.684
100068.2
100144.44
100184.15
100202.66
100210.04
100211.86
89957.655
90193.988
90432.899
90762.137
91077.573
91612.12
92035.853
92787.916
93461.872
94445.594
95499.936
96816.042
98321.636
100070.85
102018.19
104095.88
106162.57
108056.89
109615.21
110625.99
111016.49
110921.23
110412.91
109602.2
108607.48
107527.25
106438.4
105396.37
104436.37
103571.22
102802.44
102149.28
101642.7
101245.46
100822.81
100382.22
100062.53
99873.59
99770.924
99721.41
99702.214
99696.899
99775.333
99967.509
100086.32
100153.71
100188.5
100204.49
100210.49
100212.02
90860.712
91119.167
91373.088
91734.221
92061.933
92639.938
93091.132
93889.997
94618.955
95658.699
96789.192
98180.171
99770.837
101596.6
103599.35
105686.2
107703.55
109489.5
110860.99
111617.29
111797.14
111510.16
110837.78
109900.42
108812.67
107666.56
106532.08
105459.29
104479.39
103601.45
102823.38
102165.5
101661.11
101262.21
100824.32
100377.38
100064.88
99881.879
99783.862
99737.797
99721.083
99717.29
99815.648
99994.587
100101.5
100161.16
100191.63
100205.52
100210.71
100212.12
91811.205
92093.956
92361.738
92757.297
93098.446
93723.632
94206.113
95054.795
95845.565
96945.58
98156.8
99626.018
101301.25
103197.05
105238.89
107310.99
109252.6
110900.18
112041.68
112543.11
112520.74
112042.28
111215.33
110161.43
108989.58
107784.48
106609.61
105510.92
104515.77
103627.98
102840.81
102178.47
101677.39
101276.83
100824.77
100371.13
100066.78
99890.254
99797.39
99754.995
99740.664
99738.828
99856.145
100018.67
100114.46
100167.18
100193.83
100205.99
100210.77
100212.15
92807.881
93117.428
93400.057
93835.545
94192.451
94869.191
95389.253
96290.411
97149.605
98314.04
99609.501
101158.93
102915.4
104870.32
106930.34
108961.15
110799.07
112267.98
113145.33
113412.31
113180.74
112518.58
111547.77
110387.67
109140.19
107882.59
106673.07
105554.14
104547.36
103648.26
102851.95
102189.03
101691.92
101290.25
100823.1
100364.21
100068.59
99899.157
99811.712
99772.737
99759.906
99762.142
99894.619
100040.43
100125.88
100172.53
100195.81
100206.13
100210.46
100211.71
93857.814
94199.527
94498.69
94980.016
95353.917
96085.469
96649.968
97605.484
98539.345
99771.777
101153.76
102783.26
104613.95
106612.02
108665.05
110626.01
112329.31
113570.64
114173.76
114218.88
113776.37
112940.71
111837.49
110581.38
109266.3
107962.94
106725.59
105591.15
104571.55
103660.25
102858.27
102198.23
101705.25
101303.32
100817.51
100358.12
100070.97
99908.845
99826.581
99790.343
99778.34
99787.281
99930.751
100060.38
100135.91
100176.8
100197.09
100206.12
100209.54
100210.57
94971.866
95351.694
95665.832
96199.609
96591.576
97381.032
97996.911
99008.924
100022.85
101326.4
102795.18
104501.87
106395.27
108415.38
110432.79
112292.48
113820.28
114791.87
115136.4
114955.22
114308.45
113311.08
112087.26
110744.97
109370.21
108028.72
106770
105619.75
104586.09
103666.38
102861.85
102205.58
101717.63
101314.14
100808.55
100353.32
100074.28
99919.245
99841.661
99807.659
99796.242
99813.418
99964.361
100078.59
100144.74
100180.2
100197.61
100205.39
100208.26
100209.14
96155.239
96581.162
96909.339
97503.025
97914.882
98765.122
99440.029
100509.84
101607.91
102984.62
104538.39
106315.62
108255.04
110270.97
112221.13
113945.5
115246.63
115928.78
116029.56
115618.66
114778.63
113632.42
112299.77
110880.91
109455.11
108083.46
106804.89
105637.31
104593.67
103669.34
102863.66
102210.89
101728.72
101320.7
100797.78
100349.5
100078.48
99930.103
99856.767
99824.831
99814.023
99841.459
99994.34
100094.65
100152.38
100182.97
100197.78
100204.38
100206.79
100207.55
97413.503
97896.646
98239.356
98902.197
99335.846
100247.14
100989.05
102117.03
103301.36
104752.25
106386.4
108223.02
110186.02
112166.89
114014.85
115561.33
116587.57
116988.52
116845.11
116209.77
115189.54
113907.89
112477.9
110992.31
109525
108128.3
106826.88
105646.65
104597.45
103670.13
102864.14
102214.54
101738.11
101324.21
100786.38
100346.48
100083.31
99941.172
99871.915
99842.227
99832.268
99873.753
100019.28
100108.09
100158.63
100185.2
100197.8
100203.19
100205.14
100205.79
98760.299
99309.11
99660.663
100402.9
100863.75
101834.9
102651.87
103838.53
105109.57
106634.12
108340.81
110219.71
112177.72
114088.54
115795.66
117111.66
117834.7
117970.49
117578.21
116730.17
115544.29
114140.71
112624.83
111082.98
109582.33
108158.07
106838.77
105651.34
104598.54
103668.91
102863.28
102217.25
101745.97
101326.23
100775.07
100344.09
100088.52
99952.359
99887.316
99860.312
99851.581
99908.494
100040.3
100119.07
100163.25
100186.22
100197.12
100201.68
100203.3
100203.86
100232.1
100846.76
101178.49
102003.13
102504.85
103534.03
104434.26
105682.26
107039.46
108634.7
110400.55
112297.6
114216
116017.54
117538.41
118570.42
118993.12
118865.44
118229.09
117182.81
115846.57
114334.54
112744.65
111156.97
109624.37
108174.98
106844.87
105652.74
104597.23
103665.78
102861.21
102219.46
101753
101327.09
100764.21
100342.19
100093.99
99963.788
99903.271
99879.388
99872.189
99941.979
100058.87
100128.19
100166.71
100186.6
100196.06
100199.96
100201.33
100201.82
101807.01
102500.52
102819.24
103718.26
104273.31
105352.45
106342.68
107656.96
109098.92
110756.83
112560.9
114443.81
116282.75
117931.32
119210.4
119925.21
120063.07
119666.96
118799.35
117571.26
116100.28
114493.46
112841.99
111215.97
109650.7
108184.09
106846.81
105651.23
104593.56
103661.13
102858.27
102221.38
101758.78
101327.1
100753.86
100340.73
100099.83
99975.735
99919.999
99899.41
99893.804
99972.669
100075.35
100135.97
100169.49
100186.66
100194.73
100198.04
100199.22
100199.62
103500.03
104267.45
104583.31
105557.18
106183.3
107313.99
108396.24
109775.14
111295.03
112999.4
114811.13
116640.29
118355.17
119800.79
120780.89
121179.58
121033.76
120374.97
119292.36
117899.92
116309.94
114622.33
112920.6
111256.4
109665.53
108187.73
106845.28
105646.98
104588.05
103655.41
102854.82
102223.06
101763.31
101325.98
100743.91
100339.78
100106.31
99988.46
99937.514
99920.064
99915.909
100000.34
100089.9
100142.63
100171.68
100186.31
100193.11
100195.88
100196.89
100197.22
105328.41
106174.85
106508.62
107548.27
108259
109441.39
110609.39
112051.73
113630.3
115353.39
117133.29
118863.1
120404.73