/*--------------------------------*- C++ -*----------------------------------*\
  =========                 |
  \\      /  F ield         | OpenFOAM: The Open Source CFD Toolbox
   \\    /   O peration     | Website:  https://openfoam.org
    \\  /    A nd           | Version:  8
     \\/     M anipulation  |
\*---------------------------------------------------------------------------*/
FoamFile
{
    version     2.0;
    format      ascii;
    class       surfaceScalarField;
    location    "0.170001";
    object      phi;
}
// * * * * * * * * * * * * * * * * * * * * * * * * * * * * * * * * * * * * * //

dimensions      [1 0 -1 0 0 0 0];

internalField   nonuniform List<scalar> 
39600
(
-0.00023509281
-0.0080879501
0.0082861701
-0.00030446281
-0.01125405
0.011328751
-0.00036776923
-0.014798186
0.014864473
-0.0004277029
-0.019180184
0.019242413
-0.00048499341
-0.024743884
0.024801695
-0.00052472228
-0.031885661
0.031925947
-0.00073524317
-0.040247675
0.040457193
-0.0010876622
-0.048875639
0.049227065
-0.0015105112
-0.058285864
0.058707805
-0.0020077874
-0.070043202
0.070539581
-0.0025979785
-0.083704251
0.084294237
-0.0033007514
-0.10044656
0.10114906
-0.0041370087
-0.12016146
0.12099805
-0.0051375272
-0.14408534
0.14508621
-0.0063290926
-0.17246646
0.17365666
-0.0077515354
-0.20671735
0.2081398
-0.0094425148
-0.24751052
0.24919869
-0.011453251
-0.29657439
0.29858836
-0.013838991
-0.35514585
0.35752923
-0.016675604
-0.42543111
0.42826055
-0.020039362
-0.50942037
0.5127707
-0.024035611
-0.61001176
0.61398585
-0.028781582
-0.7301957
0.73490838
-0.034430216
-0.87384069
0.87944025
-0.041167368
-1.0452118
1.0518807
-0.049235146
-1.2495099
1.2574786
-0.058864426
-1.4925821
1.5020265
-0.070408273
-1.7818776
1.7932563
-0.084303342
-2.1253679
2.1390596
-0.10096728
-2.5334481
2.5498718
-0.12085873
-3.0187557
3.0383615
-0.14447349
-3.5967457
3.6200246
-0.17237526
-4.2864219
4.3139251
-0.20518537
-5.110939
5.1432785
-0.24361201
-6.0981581
6.1360265
-0.28837571
-7.2815259
7.3256303
-0.34020509
-8.7000926
8.7511152
-0.39978586
-10.401277
10.45994
-0.46780651
-12.441204
12.508217
-0.54388991
-14.888223
14.963091
-0.62689883
-17.822619
17.904084
-0.71551452
-21.342203
21.428776
-0.80652442
-25.562538
25.651405
-0.89189253
-30.623314
30.706527
-0.96210831
-36.694271
36.762714
-1.0001302
-43.975846
44.011772
-0.98064514
-52.716262
52.697786
-0.84894862
-63.207567
63.078072
-0.57061808
-75.872016
75.596965
-90.933125
90.386081
-8.6918479e-05
-0.0080410063
-0.00013916313
-0.011206926
-0.00018954473
-0.014752882
-0.000238518
-0.019135186
-0.00029013322
-0.02469689
-0.00032890699
-0.031851746
-0.00054621074
-0.040034325
-0.00088083783
-0.048544024
-0.001285813
-0.057884564
-0.0017714979
-0.069561509
-0.0023553473
-0.083125409
-0.0030554611
-0.099752351
-0.0038920034
-0.11933279
-0.0048931819
-0.14309372
-0.0060822289
-0.17128811
-0.007501783
-0.20531134
-0.0091821907
-0.24584457
-0.011184877
-0.29459284
-0.013555342
-0.35279927
-0.016371271
-0.42264289
-0.019705715
-0.50612032
-0.023662377
-0.60609852
-0.028349878
-0.72556394
-0.033917325
-0.86834434
-0.040540648
-1.0386797
-0.048456615
-1.2417171
-0.057888788
-1.4833321
-0.0692365
-1.7707005
-0.08291657
-2.1118985
-0.099320037
-2.5172977
-0.11889971
-2.9994754
-0.1421354
-3.5738603
-0.16957266
-4.2593981
-0.20181228
-5.0791808
-0.23954196
-6.0610039
-0.2834706
-7.2382744
-0.33433274
-8.6500508
-0.39289153
-10.343636
-0.45962665
-12.375477
-0.53425477
-14.814816
-0.61602156
-17.742392
-0.70343258
-21.256807
-0.79341553
-25.474742
-0.87863932
-30.540282
-0.94906881
-36.625534
-0.98887313
-43.937746
-0.96948851
-52.734745
-0.8507067
-63.324026
-0.58614045
-76.133402
-91.455276
-6.8770405e-05
-0.0080087585
-0.00010441204
-0.011180174
-0.00013668152
-0.014729378
-0.00016849634
-0.019111827
-0.00020432779
-0.024668012
-0.0002290723
-0.031832897
-0.0004510873
-0.039818532
-0.00078707213
-0.048214116
-0.0011921994
-0.057487078
-0.0016764982
-0.069085754
-0.0022544746
-0.082558363
-0.0029447835
-0.099074891
-0.003764111
-0.11852848
-0.0047425984
-0.14213339
-0.0059022278
-0.17015006
-0.0072846867
-0.20395473
-0.0089212579
-0.24423825
-0.010868704
-0.29268156
-0.013174006
-0.35054049
-0.015911135
-0.41996376
-0.019149439
-0.5029538
-0.022987487
-0.60234784
-0.027528381
-0.72112803
-0.03291446
-0.8630823
-0.03931878
-1.0324215
-0.046987674
-1.2342175
-0.05612642
-1.474416
-0.067224202
-1.7598171
-0.080622851
-2.098741
-0.096728477
-2.5014709
-0.11598029
-2.9805459
-0.13884555
-3.5513673
-0.16584878
-4.2328286
-0.19757524
-5.0479526
-0.23469428
-6.0244749
-0.27789508
-7.1957653
-0.32791395
-8.6008691
-0.38558519
-10.28692
-0.45122222
-12.310853
-0.52462299
-14.74263
-0.60519747
-17.663344
-0.69162577
-21.172428
-0.78080214
-25.387753
-0.86600131
-30.457318
-0.93722708
-36.555943
-0.97907896
-43.897181
-0.96400303
-52.748777
-0.85467937
-63.430926
-0.6038623
-76.379875
-91.952236
-4.1821549e-05
-0.00797648
-6.2957576e-05
-0.011154603
-8.4788501e-05
-0.014706601
-0.00010884353
-0.019087795
-0.00014389012
-0.024635809
-0.00017942536
-0.031802641
-0.00041095092
-0.039593296
-0.00074525502
-0.047888868
-0.001141968
-0.057100497
-0.0016151097
-0.068625825
-0.0021759522
-0.08201249
-0.0028459403
-0.098422983
-0.0036408024
-0.11775554
-0.0045903422
-0.14120933
-0.005715764
-0.16905552
-0.0070580393
-0.20264829
-0.008647732
-0.24269347
-0.010540084
-0.2908446
-0.01277951
-0.34836676
-0.015435552
-0.41738522
-0.018573254
-0.49990811
-0.022291314
-0.59873902
-0.026679314
-0.71686705
-0.031880681
-0.85802794
-0.038083495
-1.0263875
-0.045471926
-1.2270353
-0.054401253
-1.46569
-0.065270664
-1.7491749
-0.078413491
-2.0858531
-0.094247318
-2.4859285
-0.11320037
-2.9619273
-0.13572427
-3.529228
-0.16232647
-4.2066718
-0.19357465
-5.0172145
-0.23012666
-5.9885258
-0.27265335
-7.1539433
-0.32189453
-8.5524783
-0.37871682
-10.231098
-0.44336119
-12.247317
-0.5156786
-14.671541
-0.59521602
-17.585337
-0.68079427
-21.088864
-0.7691091
-25.301592
-0.85430469
-30.374323
-0.92708223
-36.484978
-0.97103443
-43.854139
-0.96112193
-52.75765
-0.86086964
-63.528756
-0.6240306
-76.611812
-92.423597
-5.0660382e-05
-0.0079633382
-7.5763835e-05
-0.011146167
-9.5841957e-05
-0.014700632
-0.00011548988
-0.019080463
-0.00014214107
-0.024620884
-0.00017709746
-0.031779403
-0.00040231825
-0.039381081
-0.00071945236
-0.047584754
-0.0010992891
-0.056736063
-0.0015535341
-0.068188232
-0.0020945861
-0.081491181
-0.0027425581
-0.097797742
-0.0035107437
-0.11701388
-0.0044303491
-0.14032149
-0.0055193356
-0.16800437
-0.0068208755
-0.20139258
-0.0083620169
-0.24120657
-0.010197221
-0.28907438
-0.012366776
-0.34627598
-0.014939432
-0.41490658
-0.017969022
-0.49699021
-0.02155927
-0.59527988
-0.025785639
-0.71279186
-0.030816717
-0.85317058
-0.036785757
-1.0206213
-0.043964817
-1.2200898
-0.052726463
-1.4571677
-0.06337567
-1.7387791
-0.076290413
-2.0732157
-0.091881704
-2.4706481
-0.11056397
-2.9435958
-0.13277701
-3.5074145
-0.15901013
-4.1808979
-0.18981985
-4.9869284
-0.22584296
-5.9531178
-0.26774905
-7.1127533
-0.31627087
-8.5048305
-0.37233731
-10.176072
-0.43605341
-12.184744
-0.50741471
-14.601429
-0.58605172
-17.508218
-0.67091692
-21.006015
-0.75867937
-25.215864
-0.84387923
-30.291146
-0.91840178
-36.412827
-0.96481278
-43.808353
-0.96027725
-52.761111
-0.86941428
-63.617205
-0.64656414
-76.829023
-92.868718
-2.2001775e-05
-0.0079524932
-3.8703036e-05
-0.011139838
-5.3730389e-05
-0.014695415
-7.1995821e-05
-0.01907347
-9.7823511e-05
-0.024606945
-0.00014185616
-0.031748761
-0.00036877992
-0.039168094
-0.00068023049
-0.047288352
-0.0010494054
-0.056383287
-0.0014906941
-0.067765706
-0.002013567
-0.080989635
-0.0026398202
-0.097196404
-0.0033817982
-0.11630154
-0.0042705045
-0.13946799
-0.0053231314
-0.16699401
-0.0065815438
-0.2001839
-0.0080724051
-0.23977601
-0.009848394
-0.28737172
-0.011941972
-0.34427097
-0.014424907
-0.41252848
-0.017337297
-0.49419988
-0.020788391
-0.59197161
-0.024865524
-0.70887801
-0.029694307
-0.84852735
-0.035474775
-1.0150514
-0.042517672
-1.2132646
-0.051100307
-1.4488307
-0.06155524
-1.7285877
-0.074271531
-2.0607872
-0.089649036
-2.4555909
-0.10809084
-2.9255131
-0.13002264
-3.4858905
-0.15591969
-4.1554684
-0.18632629
-4.9570548
-0.22186679
-5.9182013
-0.2632103
-7.0721352
-0.31112018
-8.4578269
-0.36645284
-10.121801
-0.42932858
-12.123025
-0.49986962
-14.532173
-0.57774813
-17.43189
-0.66204848
-20.923725
-0.74963415
-25.130288
-0.83516985
-30.207537
-0.91100758
-36.339319
-0.96047476
-43.759364
-0.96164932
-52.758835
-0.88048138
-63.695707
-0.67190123
-77.031309
-93.287473
-2.3076171e-05
-0.0079465588
-4.1037777e-05
-0.011137623
-5.5888317e-05
-0.014693784
-7.1569376e-05
-0.019071488
-9.1040884e-05
-0.024600868
-0.00013354879
-0.031720029
-0.00035809123
-0.038957977
-0.00065500413
-0.047006392
-0.0010084457
-0.056046992
-0.0014316057
-0.067361558
-0.0019337801
-0.080509653
-0.0025368471
-0.09661923
-0.0032514423
-0.11561763
-0.0041094799
-0.13864641
-0.0051258132
-0.16602148
-0.0063406906
-0.19902209
-0.007775455
-0.23840504
-0.0094872017
-0.28573574
-0.011495728
-0.34235221
-0.013876027
-0.41025767
-0.016678976
-0.49152249
-0.019978417
-0.58881493
-0.023885998
-0.70513572
-0.028557138
-0.84404807
-0.034214334
-1.0095985
-0.041109315
-1.2066042
-0.049524742
-1.4406728
-0.059813763
-1.718574
-0.072359956
-2.0485401
-0.087554117
-2.4407274
-0.10578465
-2.9076508
-0.12746557
-3.4646259
-0.15306048
-4.1303497
-0.18310299
-4.9275545
-0.21820985
-5.883726
-0.25903645
-7.032042
-0.30641533
-8.4113759
-0.36106648
-10.068233
-0.42319902
-12.062055
-0.49307012
-14.463625
-0.57030898
-17.356241
-0.65419453
-20.841849
-0.74181306
-25.04473
-0.82791796
-30.123263
-0.90527067
-36.264017
-0.95807934
-43.707009
-0.96527153
-52.750493
-0.89406189
-63.764017
-0.70034032
-77.218303
-93.679587
-1.1412967e-05
-0.007940209
-2.4146508e-05
-0.011134298
-3.8423203e-05
-0.014690538
-5.0916915e-05
-0.019068507
-6.6739443e-05
-0.024597233
-0.0001122988
-0.031685871
-0.00033746858
-0.038746479
-0.0006233764
-0.046734368
-0.00096315573
-0.055723772
-0.0013704676
-0.066972834
-0.0018533696
-0.080048794
-0.0024343687
-0.096064261
-0.0031214759
-0.11496127
-0.0039477563
-0.13785654
-0.0049270797
-0.16508597
-0.0060954023
-0.1979064
-0.0074661273
-0.23709981
-0.0091042242
-0.28417414
-0.011028155
-0.34051804
-0.013296642
-0.4080919
-0.015966944
-0.48897433
-0.019131381
-0.58579399
-0.022905445
-0.70152942
-0.027463147
-0.83967707
-0.032992026
-1.0042836
-0.039738141
-1.2000956
-0.048009963
-1.4326624
-0.058160011
-1.7087035
-0.070565829
-2.036438
-0.085604733
-2.4260235
-0.10365442
-2.8899734
-0.1251158
-3.4435852
-0.15044108
-4.1055057
-0.180155
-4.8983887
-0.21487027
-5.8496467
-0.25524058
-6.9924101
-0.30216903
-8.3653916
-0.35620728
-10.015295
-0.41768124
-12.001781
-0.48702353
-14.395651
-0.56375868
-17.281123
-0.64739241
-20.760214
-0.73507573
-24.959125
-0.82228168
-30.037875
-0.90124974
-36.186598
-0.95769697
-43.651023
-0.97117064
-52.735794
-0.91031855
-63.821673
-0.73212221
-77.389418
-94.045057
-7.2963046e-06
-0.0079329031
-2.0973657e-05
-0.011129266
-3.5446158e-05
-0.014686069
-4.7524433e-05
-0.019065291
-5.7637879e-05
-0.024598543
-0.00010735877
-0.031647199
-0.00032502133
-0.038541991
-0.00059787587
-0.046475005
-0.00092194583
-0.055415398
-0.00131242
-0.066600155
-0.0017760405
-0.079606429
-0.0023358624
-0.09552988
-0.0029928464
-0.11433427
-0.0037834919
-0.13710338
-0.0047197503
-0.16419373
-0.0058342349
-0.19684285
-0.0071459884
-0.23584625
-0.0086957691
-0.28269307
-0.010518882
-0.33877727
-0.012680882
-0.40602841
-0.015249652
-0.48652219
-0.018294658
-0.58288599
-0.021972328
-0.69801178
-0.026407388
-0.83542698
-0.03180002
-0.99910057
-0.038415566
-1.1937158
-0.046567972
-1.4247694
-0.056605601
-1.6989445
-0.068898807
-2.0244493
-0.083811995
-2.4114467
-0.10170928
-2.8724506
-0.1229816
-3.4227363
-0.14807163
-4.0809007
-0.17750088
-4.8695121
-0.21186973
-5.815916
-0.2518409
-6.9531799
-0.29836668
-8.3198241
-0.35189752
-9.9628777
-0.41284806
-11.942046
-0.48171034
-14.328158
-0.55812505
-17.206351
-0.64167092
-20.678653
-0.72946972
-24.873306
-0.81818623
-29.951135
-0.89899025
-36.107147
-0.95938762
-43.590876
-0.97946943
-52.714373
-0.9292871
-63.868254
-0.76735008
-77.544086
-94.383752
-3.8334496e-06
-0.0079260537
-1.7862984e-05
-0.011124039
-3.2200255e-05
-0.014681976
-4.2746269e-05
-0.019063619
-4.6083543e-05
-0.024606065
-9.9345834e-05
-0.031603735
-0.00031018089
-0.038343127
-0.00057213852
-0.046225485
-0.00088345755
-0.055120041
-0.0012606163
-0.06624087
-0.0017030243
-0.079184675
-0.0022383106
-0.095018131
-0.0028644904
-0.11373636
-0.0036170586
-0.13638299
-0.0045005864
-0.16334863
-0.0055514675
-0.19583779
-0.0067919827
-0.23466054
-0.008265995
-0.28128671
-0.010014671
-0.33710925
-0.012085886
-0.40405339
-0.014556122
-0.48416972
-0.017519948
-0.58006085
-0.021074346
-0.6946185
-0.025383017
-0.83130327
-0.030654759
-0.99403946
-0.037160119
-1.1874461
-0.045215536
-1.4169727
-0.055167804
-1.6892706
-0.067375662
-2.012546
-0.082191075
-2.3969678
-0.099965057
-2.8550514
-0.12107844
-3.4020469
-0.14596708
-4.0564984
-0.17514705
-4.8408871
-0.20922069
-5.7824806
-0.2488432
-6.9142999
-0.29502142
-8.2746132
-0.34813742
-9.9108875
-0.40876545
-11.882649
-0.47714777
-14.261143
-0.55342686
-17.131751
-0.63706406
-20.596984
-0.72531976
-24.786803
-0.81544595
-29.863213
-0.8985693
-36.025248
-0.96322158
-43.526328
-0.99029243
-52.685808
-0.9511136
-63.90324
-0.80607981
-77.681836
-94.695455
2.6723833e-06
-0.0079177085
-1.1099196e-05
-0.011117251
-2.3886774e-05
-0.014677262
-3.2266898e-05
-0.019062257
-2.9555406e-05
-0.02461806
-8.7314934e-05
-0.031554999
-0.00029364192
-0.038147294
-0.00054981528
-0.045980285
-0.00085101053
-0.054831486
-0.0012098613
-0.065896697
-0.0016261264
-0.078786041
-0.0021205807
-0.094544371
-0.0027136486
-0.11316867
-0.0034227271
-0.13570457
-0.0042585369
-0.16254928
-0.0052604459
-0.19487942
-0.0064521554
-0.23352133
-0.0078592825
-0.27994208
-0.0095367675
-0.33551025
-0.011538927
-0.40214475
-0.01391767
-0.48190042
-0.016767488
-0.57733954
-0.020206687
-0.69132943
-0.024401677
-0.82728193
-0.029567224
-0.98907262
-0.035982517
-1.1812552
-0.043965355
-1.4092377
-0.053857844
-1.6796476
-0.066007633
-2.0006939
-0.080752176
-2.3825543
-0.098430938
-2.8377435
-0.11941547
-3.3814839
-0.14413716
-4.0322617
-0.17310982
-4.8124689
-0.20693543
-5.7492908
-0.24627434
-6.8757089
-0.29216659
-8.2296894
-0.34496058
-9.8592295
-0.40533482
-11.823531
-0.47344882
-14.194388
-0.5496713
-17.057113
-0.63360337
-20.514959
-0.72267379
-24.699319
-0.81419819
-29.773604
-0.9000387
-35.940605
-0.96927822
-43.457067
-1.0036732
-52.649731
-0.97588943
-63.926034
-0.84850299
-77.802087
-94.980068
5.2525201e-06
-0.0079067702
-8.3638963e-06
-0.011108643
-1.9846744e-05
-0.014671835
-2.6793681e-05
-0.019061455
-1.6302763e-05
-0.02463602
-7.4852903e-05
-0.031504266
-0.00026850609
-0.037962792
-0.00050353629
-0.045755857
-0.00078206264
-0.054565509
-0.0011175327
-0.065574604
-0.0015124429
-0.078407432
-0.0019851935
-0.094091514
-0.0025512385
-0.11262641
-0.0032291632
-0.13505471
-0.0040225844
-0.16179118
-0.0049843182
-0.19396124
-0.0061215011
-0.23243699
-0.0074798257
-0.2786469
-0.0090854038
-0.33397987
-0.010999212
-0.40032088
-0.013285332
-0.47972146
-0.016036059
-0.5747152
-0.019369655
-0.68814382
-0.023462281
-0.82336052
-0.028539603
-0.98419159
-0.034885519
-1.1751306
-0.042820093
-1.4015474
-0.052678362
-1.6700546
-0.064796555
-1.9888697
-0.079497065
-2.3681811
-0.097107591
-2.8205006
-0.11799391
-3.3610162
-0.14258302
-4.0081554
-0.17138916
-4.7842155
-0.20501366
-5.7162987
-0.2441703
-6.8373103
-0.28981677
-8.1850035
-0.34236741
-9.807822
-0.40253923
-11.764642
-0.4706015
-14.127688
-0.54695282
-16.982311
-0.63130799
-20.432416
-0.72145032
-24.61079
-0.81459988
-29.682218
-0.90346423
-35.85295
-0.97762015
-43.382788
-1.0197676
-52.605697
-1.003749
-63.936136
-0.89464245
-77.904358
-95.237159
1.0544184e-05
-0.0078938505
-1.829827e-06
-0.011099726
-1.0074369e-05
-0.01466767
-1.2753713e-05
-0.019063351
6.6792578e-06
-0.024661057
-5.5078616e-05
-0.031449491
-0.00023984761
-0.037785787
-0.00046035309
-0.045544823
-0.00072023422
-0.054316303
-0.0010365041
-0.065272703
-0.0014116883
-0.078049298
-0.0018747258
-0.093648911
-0.0024090317
-0.11211613
-0.0030588994
-0.13443395
-0.0038281093
-0.16105666
-0.0047482721
-0.193082
-0.0058267398
-0.23140727
-0.0071127531
-0.27741939
-0.0086412045
-0.33252098
-0.010473792
-0.39857076
-0.012676167
-0.47761662
-0.015341394
-0.5721648
-0.018584604
-0.68503566
-0.022590468
-0.81951157
-0.027596595
-0.97936681
-0.033895214
-1.1690381
-0.041805551
-1.3938665
-0.051655058
-1.6604566
-0.063766589
-1.9770402
-0.0784488
-2.3538162
-0.096018879
-2.8032898
-0.11683672
-3.3406098
-0.14132841
-3.9841405
-0.17000993
-4.7560815
-0.20348811
-5.6834469
-0.24255165
-6.799008
-0.28800576
-8.1405072
-0.34040365
-9.7565715
-0.40046065
-11.70587
-0.46864441
-14.060845
-0.54528899
-16.907182
-0.63021336
-20.349111
-0.72162311
-24.521
-0.81672017
-29.588817
-0.90890946
-35.761778
-0.98833354
-43.303153
-1.038608
-52.55334
-1.0349793
-63.932815
-0.94469324
-77.988112
-95.466296
1.5871712e-05
-0.0078853718
7.7996888e-06
-0.011096101
4.911269e-06
-0.014670143
9.5576682e-06
-0.019073369
3.6332367e-05
-0.02469463
-2.7192389e-05
-0.031392827
-0.00020459947
-0.037616547
-0.00041692992
-0.045341383
-0.00066824247
-0.054076009
-0.00097168855
-0.064981708
-0.0013315874
-0.077704748
-0.001774164
-0.09322435
-0.0022861354
-0.11162629
-0.0029063953
-0.1338399
-0.0036358688
-0.16035916
-0.0045051202
-0.19225025
-0.0055291291
-0.23042908
-0.0067559503
-0.2762476
-0.0082168271
-0.33112631
-0.0099716567
-0.39689521
-0.012087117
-0.47559567
-0.014668066
-0.56969591
-0.017839141
-0.68199645
-0.021777194
-0.81572739
-0.026731742
-0.97458977
-0.033005809
-1.1629662
-0.040916737
-1.3861799
-0.050783251
-1.6508366
-0.062913169
-1.9651873
-0.077601989
-2.3394392
-0.095158413
-2.7860872
-0.11593861
-3.3202357
-0.14036851
-3.9601821
-0.16896722
-4.7280248
-0.20235329
-5.650681
-0.24137655
-6.7607489
-0.28673057
-8.0961076
-0.33906138
-9.7053867
-0.39915319
-11.647029
-0.46755389
-13.993778
-0.54468336
-16.831578
-0.63038602
-20.264971
-0.72324955
-24.429747
-0.82060556
-29.493143
-0.9164374
-35.666833
-1.0014882
-43.217808
-1.0603705
-52.492182
-1.0702344
-63.915296
-0.99883424
-78.053124
-95.667
2.1170876e-05
-0.0078784855
1.5452193e-05
-0.011094147
1.6115539e-05
-0.014675382
2.5379776e-05
-0.019087364
5.6855328e-05
-0.024731968
-1.0948623e-05
-0.031331257
-0.00017979473
-0.037454977
-0.00038515999
-0.045144292
-0.00062318241
-0.053848046
-0.00091680041
-0.06469994
-0.0012586808
-0.077377122
-0.0016743511
-0.092825697
-0.0021627843
-0.11115831
-0.0027539627
-0.13327339
-0.0034450137
-0.15969725
-0.0042707475
-0.19146018
-0.0052484485
-0.22949393
-0.0064210154
-0.27512582
-0.0078193709
-0.32978866
-0.009504452
-0.39528231
-0.011540717
-0.47364501
-0.014036803
-0.56730116
-0.017138195
-0.6790145
-0.021031181
-0.81197424
-0.025959272
-0.969824
-0.032232036
-1.1568797
-0.040169168
-1.3784508
-0.050076737
-1.6411604
-0.062250208
-1.953277
-0.076970535
-2.3250182
-0.094539951
-2.7688604
-0.11531253
-3.299859
-0.13971731
-3.9362391
-0.16827745
-4.6999976
-0.20162496
-5.6179471
-0.24067215
-6.7224655
-0.28600549
-8.0517197
-0.33838336
-9.6541392
-0.39863445
-11.588032
-0.46736896
-13.926394
-0.54516996
-16.755303
-0.63187717
-20.179795
-0.72639882
-24.336833
-0.82631957
-29.394917
-0.92611739
-35.567802
-1.0171788
-43.126364
-1.0850712
-52.421825
-1.1087878
-63.883593
-1.0570482
-78.098344
-95.83856
2.5323332e-05
-0.0078717705
2.1347656e-05
-0.011093043
2.5311561e-05
-0.014683149
3.9845119e-05
-0.019105772
7.3944067e-05
-0.024771297
1.1297432e-07
-0.031262691
-0.00016098274
-0.037300453
-0.00035752271
-0.044955287
-0.00058626699
-0.053628577
-0.00086791352
-0.064429289
-0.0011933894
-0.07706488
-0.00159099
-0.092443623
-0.0020557622
-0.1107126
-0.0026156832
-0.13273598
-0.0032702093
-0.15907046
-0.0040571904
-0.19070533
-0.004991057
-0.2285995
-0.0061121613
-0.27405246
-0.0074530615
-0.32850557
-0.0090734059
-0.39373131
-0.011042897
-0.47175852
-0.013469308
-0.56497338
-0.016505388
-0.67609515
-0.02036533
-0.80825097
-0.025293445
-0.96505471
-0.031590133
-1.1507646
-0.039577721
-1.370666
-0.04955234
-1.6314111
-0.061792226
-1.9412941
-0.076569081
-2.3105339
-0.094177533
-2.7515875
-0.11497373
-3.2794512
-0.13939084
-3.912276
-0.16795935
-4.6719538
-0.20132703
-5.5851894
-0.24045558
-6.6840968
-0.28585351
-8.0072495
-0.33839475
-9.6026969
-0.3988766
-11.528798
-0.46818404
-13.858457
-0.5467899
-16.678137
-0.63469548
-20.09341
-0.73114954
-24.241988
-0.83393059
-29.293677
-0.93803871
-35.464346
-1.0354903
-43.028426
-1.1128439
-52.341809
-1.1508958
-63.837471
-1.1196222
-78.122935
-95.980308
2.9375854e-05
-0.0078656823
2.759104e-05
-0.01109345
3.5410606e-05
-0.014694115
5.6337978e-05
-0.0191301
9.2203723e-05
-0.024811733
1.0046978e-05
-0.031185474
-0.00014342274
-0.037152976
-0.0003302698
-0.044775432
-0.00054875208
-0.053418722
-0.00081587459
-0.064172158
-0.0011256166
-0.076767422
-0.0015052557
-0.092078595
-0.001947228
-0.11028825
-0.0024789296
-0.13222559
-0.0031011423
-0.15847334
-0.0038523889
-0.18998493
-0.0047441538
-0.22774474
-0.0058173017
-0.27302356
-0.0071058665
-0.32727013
-0.0086683316
-0.3922321
-0.010579687
-0.46992263
-0.012951544
-0.56269084
-0.01594155
-0.67321107
-0.0197796
-0.8045368
-0.024725729
-0.96025356
-0.031074782
-1.1445817
-0.039139715
-1.3627881
-0.049204722
-1.6215559
-0.061535416
-1.9292057
-0.076391884
-2.2959561
-0.094067106
-2.734235
-0.11491484
-3.2589795
-0.13937811
-3.8882544
-0.16800413
-4.6438419
-0.20149434
-5.5523064
-0.24073371
-6.6456016
-0.2862819
-7.9625962
-0.33900097
-9.5510479
-0.40001023
-11.469072
-0.46999698
-13.789807
-0.54956722
-16.599953
-0.63882701
-20.005684
-0.73759624
-24.144887
-0.84349181
-29.189196
-0.9522686
-35.356112
-1.0565319
-42.92355
-1.1438391
-52.251575
-1.1969406
-63.776495
-1.1866583
-78.126354
-96.09151
3.2330027e-05
-0.0078603479
3.1830049e-05
-0.011095337
4.2752757e-05
-0.014708325
7.0371956e-05
-0.019161097
0.0001056641
-0.024851518
1.4849634e-05
-0.031099235
-0.00013107825
-0.037012558
-0.0003100589
-0.044602884
-0.00051679289
-0.053219928
-0.00077164595
-0.063926628
-0.0010656767
-0.076484896
-0.0014270526
-0.091730788
-0.0018456331
-0.10988632
-0.0023517982
-0.13173913
-0.0029471449
-0.15790224
-0.003664658
-0.18929552
-0.0045181888
-0.22692571
-0.0055482158
-0.27203545
-0.0067895011
-0.32607957
-0.0083014436
-0.39078131
-0.010159053
-0.46813818
-0.012488374
-0.56044892
-0.015455628
-0.67034718
-0.019288889
-0.8008252
-0.024272798
-0.95541114
-0.030704181
-1.1383129
-0.03887089
-1.3548034
-0.049050576
-1.6115809
-0.061494404
-1.9169983
-0.076450969
-2.2812714
-0.09421478
-2.7167864
-0.11514568
-3.2384161
-0.1396944
-3.8641381
-0.1684301
-4.6156119
-0.20213564
-5.5192031
-0.24150456
-6.6069575
-0.2872618
-7.917699
-0.34035915
-9.4990243
-0.40203798
-11.408662
-0.47283294
-13.720333
-0.55353486
-16.520572
-0.64438839
-19.916248
-0.74575965
-24.045292
-0.85507761
-29.081122
-0.96889387
-35.242739
-1.0804096
-42.81128
-1.1781301
-52.150497
-1.2473121
-63.70008
-1.258645
-78.107989
-96.17157
3.6507505e-05
-0.0078563343
3.8159641e-05
-0.011098953
5.3123151e-05
-0.014726106
8.9178932e-05
-0.019200142
0.00012282901
-0.024889156
2.3144773e-05
-0.031003749
-0.00011507154
-0.036879443
-0.00028539791
-0.044438557
-0.00048073004
-0.053031987
-0.00072332786
-0.063692765
-0.0010023999
-0.076216556
-0.0013465284
-0.091399427
-0.0017446176
-0.10950372
-0.0022286076
-0.13127386
-0.0027983116
-0.1573547
-0.0034856136
-0.18863533
-0.0043042611
-0.22613967
-0.0052952579
-0.27108353
-0.0064917191
-0.32493
-0.007954951
-0.3893742
-0.0097672669
-0.4663927
-0.01206597
-0.5582298
-0.015030419
-0.66747666
-0.018889004
-0.79707724
-0.023939496
-0.95048964
-0.030475429
-1.1319259
-0.038769149
-1.3466768
-0.049086397
-1.6014538
-0.061661456
-1.9046456
-0.076735927
-2.2664553
-0.094614021
-2.6992103
-0.11566829
-3.2177162
-0.14035325
-3.8398725
-0.16925032
-4.5872104
-0.20321003
-5.4858326
-0.24277645
-6.5680914
-0.28879657
-7.8725193
-0.34255592
-9.4463208
-0.40494602
-11.347536
-0.47671845
-13.649848
-0.55873221
-16.439822
-0.65149466
-19.824844
-0.75562911
-23.942909
-0.86875286
-28.969119
-0.98799596
-35.123847
-1.1072327
-42.691142
-1.2163196
-52.037602
-1.3022371
-63.607962
-1.3358304
-78.067246
-96.219856
4.064972e-05
-0.0078537426
4.4586066e-05
-0.011104448
6.3554138e-05
-0.01474754
0.00010917915
-0.01924842
0.0001396875
-0.024923365
3.5523966e-05
-0.030903364
-9.4944096e-05
-0.036753654
-0.00025749858
-0.044281561
-0.00044344493
-0.052852974
-0.00067626198
-0.063468135
-0.00094363446
-0.075959324
-0.0012725538
-0.091082495
-0.0016525033
-0.10913849
-0.0021154671
-0.13082834
-0.002660733
-0.15683086
-0.0033190969
-0.18800188
-0.0041058576
-0.22538363
-0.0050594222
-0.27016716
-0.006212594
-0.323822
-0.0076333287
-0.38800782
-0.0094167312
-0.46467452
-0.011700305
-0.55602413
-0.014672672
-0.6645965
-0.018586874
-0.79327164
-0.023731541
-0.94547164
-0.030394342
-1.1254082
-0.038842987
-1.3383909
-0.049315508
-1.5911661
-0.062036889
-1.8921402
-0.077258434
-2.251485
-0.095288094
-2.6814748
-0.11650314
-3.1968466
-0.14136969
-3.8154162
-0.17047927
-4.5585891
-0.20472158
-5.4521627
-0.24457811
-6.5289114
-0.29101057
-7.8269198
-0.34552443
-9.3928458
-0.40876214
-11.285548
-0.48168324
-13.578178
-0.56521831
-16.357496
-0.66015432
-19.731212
-0.76729647
-23.837461
-0.88459673
-28.852837
-1.0096622
-34.999053
-1.1371092
-42.562659
-1.2595728
-51.911389
-1.3616871
-63.500363
-1.4186876
-78.003162
-96.235787
4.3070783e-05
-0.0078512666
4.8023932e-05
-0.011110706
6.9428876e-05
-0.014771138
0.00012339088
-0.019304787
0.00014734972
-0.024950758
4.9429877e-05
-0.030809016
-7.6332143e-05
-0.036632406
-0.00023364978
-0.044129596
-0.00041218335
-0.052681062
-0.00063667587
-0.063251436
-0.00089310375
-0.075712481
-0.0012086438
-0.090778317
-0.0015715796
-0.10878937
-0.0020149316
-0.13040161
-0.0025373946
-0.15632826
-0.0031702745
-0.18739319
-0.0039291393
-0.22465388
-0.0048467038
-0.26928448
-0.0059637654
-0.32274688
-0.0073563164
-0.38666548
-0.0091242826
-0.46296639
-0.011408315
-0.55381138
-0.014408396
-0.66168038
-0.01839435
-0.78938475
-0.023652661
-0.94032894
-0.03047105
-1.1187222
-0.03909655
-1.3299149
-0.04973787
-1.5806962
-0.062632838
-1.8794483
-0.078036187
-2.2363201
-0.096250546
-2.6635418
-0.11766063
-3.1757691
-0.14275137
-3.7907236
-0.17219646
-4.529619
-0.20669779
-5.4182117
-0.2468625
-6.489408
-0.29402233
-7.7805753
-0.3492925
-9.3386042
-0.41352484
-11.222537
-0.48777297
-13.505144
-0.57303518
-16.273392
-0.67041147
-19.635087
-0.78085396
-23.728613
-0.90267658
-28.731933
-1.0339899
-34.86794
-1.1701326
-42.425373
-1.3055342
-51.772354
-1.4249923
-63.376164
-1.5067093
-77.915086
-96.217661
4.6308902e-05
-0.0078507751
5.3046939e-05
-0.011119225
7.7247778e-05
-0.014797902
0.0001404978
-0.019370621
0.00015684676
-0.024970671
6.1886071e-05
-0.030717569
-5.879536e-05
-0.036516037
-0.00021051468
-0.043982957
-0.00038126195
-0.052516533
-0.00059702594
-0.063043046
-0.00084098185
-0.075477562
-0.0011428718
-0.090487209
-0.0014916338
-0.10845371
-0.0019174963
-0.12999156
-0.0024205491
-0.15584434
-0.0030302569
-0.1868061
-0.0037634156
-0.2239484
-0.0046519879
-0.26842936
-0.0057440682
-0.32169541
-0.0071195638
-0.3853388
-0.0088815942
-0.46126307
-0.011183043
-0.55157985
-0.014234818
-0.65871147
-0.018310094
-0.78540685
-0.023707119
-0.93504584
-0.030704752
-1.1118546
-0.039516288
-1.3212488
-0.050354087
-1.5700254
-0.063457569
-1.8665429
-0.079067463
-2.2209432
-0.097493429
-2.6453902
-0.11913613
-3.154451
-0.14450572
-3.7657442
-0.17429923
-4.5002845
-0.20910847
-5.3839348
-0.24979587
-6.4493757
-0.2977249
-7.7334415
-0.35387187
-9.2834804
-0.4192377
-11.158357
-0.49499671
-13.430558
-0.58223158
-16.187272
-0.68230612
-19.536209
-0.79636092
-23.616075
-0.92307797
-28.606039
-1.0610664
-34.730087
-1.2064128
-42.278803
-1.354961
-51.620262
-1.4921324
-63.23447
-1.5985064
-77.802522
-96.164294
4.869207e-05
-0.0078508924
5.6730972e-05
-0.011128986
8.3091633e-05
-0.014826692
0.00015473415
-0.019445032
0.00016229129
-0.024981375
6.4220052e-05
-0.03062281
-5.0980782e-05
-0.036404924
-0.00019691499
-0.043841734
-0.00035992907
-0.052359467
-0.00056746671
-0.062842348
-0.0008004964
-0.075253235
-0.0010897373
-0.090208009
-0.0014255425
-0.10813058
-0.0018357402
-0.12959625
-0.0023214372
-0.15537681
-0.0029119678
-0.18623742
-0.0036200026
-0.22326672
-0.004485336
-0.26759554
-0.0055621749
-0.3206565
-0.0069287864
-0.38401747
-0.0086942636
-0.4595517
-0.011026577
-0.54931164
-0.01415594
-0.65565777
-0.018354074
-0.78129759
-0.023920512
-0.92958366
-0.031107717
-1.1047865
-0.040123661
-1.3123665
-0.051191998
-1.5591126
-0.064525611
-1.8533963
-0.080381133
-2.2053092
-0.09906686
-2.6269664
-0.1209772
-3.1328528
-0.1466871
-3.7404091
-0.17681372
-4.4705999
-0.21197799
-5.3492931
-0.25342507
-6.4085658
-0.30214425
-7.6854988
-0.35930033
-9.227341
-0.42593422
-11.092865
-0.50335945
-13.354274
-0.59285255
-16.098845
-0.69589851
-19.434304
-0.813891
-23.499517
-0.9458804
-28.474778
-1.090991
-34.58505
-1.2460744
-42.122423
-1.4082341
-51.454548
-1.5638969
-63.074319
-1.6959916
-77.66436
-96.075076
5.2858209e-05
-0.0078535501
6.3697337e-05
-0.011141657
9.3870005e-05
-0.014859218
0.0001749371
-0.019528942
0.00017352611
-0.024982927
7.7721158e-05
-0.030530428
-3.1899883e-05
-0.036298988
-0.00017279223
-0.043705583
-0.00032857617
-0.052209195
-0.00052843279
-0.062649242
-0.00075251475
-0.075037317
-0.0010321132
-0.089938202
-0.0013558097
-0.10781885
-0.0017522208
-0.12921413
-0.0022228306
-0.1549235
-0.0027955072
-0.18568534
-0.0034841933
-0.22260322
-0.0043325376
-0.26677765
-0.0054006269
-0.31962523
-0.0067647121
-0.38269772
-0.0085433939
-0.45782616
-0.0109243
-0.54699402
-0.014155992
-0.65250077
-0.018511078
-0.77703034
-0.024270489
-0.92392707
-0.031667681
-1.0975056
-0.040919374
-1.303245