/*--------------------------------*- C++ -*----------------------------------*\
  =========                 |
  \\      /  F ield         | OpenFOAM: The Open Source CFD Toolbox
   \\    /   O peration     | Website:  https://openfoam.org
    \\  /    A nd           | Version:  8
     \\/     M anipulation  |
\*---------------------------------------------------------------------------*/
FoamFile
{
    version     2.0;
    format      ascii;
    class       pointVectorField;
    location    "0.170001";
    object      pointDisplacement;
}
// * * * * * * * * * * * * * * * * * * * * * * * * * * * * * * * * * * * * * //

dimensions      [0 1 0 0 0 0 0];

internalField   nonuniform List<vector> 
40800
(
(-0.0021563171 0 -0.0017329541)
(-0.0021504845 0 -0.001432981)
(-0.0021502132 0 -0.0014347126)
(-0.0021561242 0 -0.0017411971)
(-0.0021501846 0 -0.0014350927)
(-0.002156099 0 -0.0017418225)
(-0.0021501249 0 -0.0014356785)
(-0.0021560418 0 -0.0017425466)
(-0.002150018 0 -0.0014364157)
(-0.0021559386 0 -0.0017434482)
(-0.0021498438 0 -0.0014373465)
(-0.0021557699 0 -0.001744573)
(-0.0021495743 0 -0.0014385275)
(-0.0021555083 0 -0.0017459842)
(-0.002149171 0 -0.0014400345)
(-0.0021551159 0 -0.0017477659)
(-0.0021485816 0 -0.0014419697)
(-0.0021545416 0 -0.0017500289)
(-0.0021477352 0 -0.0014444722)
(-0.0021537155 0 -0.0017529223)
(-0.0021465363 0 -0.0014477321)
(-0.0021525437 0 -0.0017566466)
(-0.0021448572 0 -0.0014520108)
(-0.0021509006 0 -0.0017614734)
(-0.0021425287 0 -0.0014576679)
(-0.0021486192 0 -0.0017677718)
(-0.0021393281 0 -0.0014651977)
(-0.0021454801 0 -0.0017760434)
(-0.0021349655 0 -0.0014752805)
(-0.0021411969 0 -0.001786972)
(-0.0021290678 0 -0.0014888482)
(-0.0021354007 0 -0.0018014868)
(-0.0021211615 0 -0.0015071717)
(-0.0021276225 0 -0.0018208466)
(-0.0021106555 0 -0.0015319792)
(-0.002117276 0 -0.0018467576)
(-0.0020968293 0 -0.0015655925)
(-0.002103644 0 -0.0018814971)
(-0.0020788282 0 -0.0016110866)
(-0.0020858727 0 -0.001928069)
(-0.0020556756 0 -0.0016724657)
(-0.0020629816 0 -0.0019903773)
(-0.0020263076 0 -0.0017548126)
(-0.0020338954 0 -0.0020733609)
(-0.0019896383 0 -0.0018643552)
(-0.0019975059 0 -0.0021830591)
(-0.0019446697 0 -0.0020083399)
(-0.00195278 0 -0.0023264868)
(-0.0018906235 0 -0.0021946274)
(-0.0018988896 0 -0.0025112459)
(-0.0018271069 0 -0.0024308034)
(-0.0018353839 0 -0.0027446494)
(-0.0017542318 0 -0.0027229703)
(-0.0017623145 0 -0.0030325528)
(-0.0016727251 0 -0.0030739224)
(-0.0016803696 0 -0.0033774891)
(-0.0015838866 0 -0.0034816882)
(-0.0015908376 0 -0.0037772828)
(-0.0014895479 0 -0.0039380732)
(-0.0014955835 0 -0.0042235597)
(-0.0013918836 0 -0.0044284268)
(-0.0013968586 0 -0.0047014986)
(-0.0012931957 0 -0.0049328978)
(-0.0012970694 0 -0.0051911614)
(-0.0011957026 0 -0.0054287888)
(-0.0011985371 0 -0.0056699384)
(-0.0011013389 0 -0.005893668)
(-0.0011032762 0 -0.0061157351)
(-0.0010116225 0 -0.0063080807)
(-0.001012842 0 -0.0065096888)
(-0.0009276111 0 -0.0066575008)
(-0.00092830402 0 -0.0068380122)
(-0.00084989936 0 -0.0069327797)
(-0.00085023701 0 -0.0070923402)
(-0.00077856366 0 -0.0071296742)
(-0.00077868172 0 -0.0072690419)
(-0.00071333454 0 -0.00724786)
(-0.00071332477 0 -0.0073683552)
(-0.00065372071 0 -0.0072888675)
(-0.00065365545 0 -0.0073920907)
(-0.00059910589 0 -0.0072529859)
(-0.00059903498 0 -0.0073405949)
(-0.00054839095 0 -0.007137399)
(-0.00054831653 0 -0.0072107705)
(-0.00050054035 0 -0.0069365017)
(-0.00050045649 0 -0.0069967797)
(-0.00045470075 0 -0.0066453803)
(-0.00045461848 0 -0.0066938314)
(-0.00041005586 0 -0.0062584494)
(-0.00041003321 0 -0.0062968148)
(-0.00036424019 0 -0.0057529511)
(-0.00036421135 0 -0.005781766)
(-0.0003151523 0 -0.0051065392)
(-0.00031516622 0 -0.0051275715)
(-0.00025957516 0 -0.0042788823)
(-0.00025957711 0 -0.0042927568)
(-0.00019293995 0 -0.0032086813)
(-0.00019296111 0 -0.0032169333)
(-0.00011035941 0 -0.0018211308)
(-0.00011056854 0 -0.0018266288)
(0 0 0)
(0 0 0)
(-0.0021436254 0 -0.0011394863)
(-0.0021433598 0 -0.0011411754)
(-0.002143329 0 -0.0011414319)
(-0.0021432641 0 -0.0011417579)
(-0.0021431503 0 -0.0011421818)
(-0.002142967 0 -0.0011427386)
(-0.0021426856 0 -0.0011434758)
(-0.0021422669 0 -0.0011444593)
(-0.0021416575 0 -0.0011457804)
(-0.0021407851 0 -0.0011475662)
(-0.0021395525 0 -0.0011499933)
(-0.0021378302 0 -0.0011533067)
(-0.0021354462 0 -0.0011578477)
(-0.002132175 0 -0.0011640903)
(-0.0021277229 0 -0.0011726939)
(-0.0021217128 0 -0.001184571)
(-0.0021136668 0 -0.0012009796)
(-0.0021029897 0 -0.0012236424)
(-0.0020889574 0 -0.0012548924)
(-0.0020707146 0 -0.0012978416)
(-0.0020472883 0 -0.0013565645)
(-0.0020176254 0 -0.0014362593)
(-0.0019806619 0 -0.0015433223)
(-0.0019354336 0 -0.0016852264)
(-0.0018812117 0 -0.0018701031)
(-0.0018176605 0 -0.0021058582)
(-0.0017449528 0 -0.0023989165)
(-0.0016638551 0 -0.0027524541)
(-0.0015756823 0 -0.0031648398)
(-0.0014822389 0 -0.0036281973)
(-0.0013856271 0 -0.0041281973)
(-0.0012880532 0 -0.0046451807)
(-0.0011916347 0 -0.0051564564)
(-0.001098229 0 -0.0056393055)
(-0.0010093084 0 -0.0060737312)
(-0.0009259155 0 -0.0064444506)
(-0.00084865126 0 -0.0067415032)
(-0.00077762618 0 -0.0069599234)
(-0.0007126052 0 -0.0070987373)
(-0.00065312314 0 -0.007159017)
(-0.0005985763 0 -0.0071408997)
(-0.00054791649 0 -0.0070417199)
(-0.00050012503 0 -0.0068561285)
(-0.0004543263 0 -0.0065790338)
(-0.00040966041 0 -0.0062043408)
(-0.00036385463 0 -0.0057101989)
(-0.00031476953 0 -0.0050737417)
(-0.00025919967 0 -0.0042548798)
(-0.00019261032 0 -0.0031927055)
(-0.00010989085 0 -0.001810378)
(0 0 0)
(-0.0021357626 0 -0.00085233508)
(-0.0021355028 0 -0.00085389981)
(-0.0021354662 0 -0.00085395102)
(-0.0021353938 0 -0.00085403202)
(-0.0021352705 0 -0.00085416551)
(-0.0021350752 0 -0.00085437775)
(-0.0021347787 0 -0.00085470645)
(-0.0021343407 0 -0.00085520585)
(-0.0021337067 0 -0.00085595399)
(-0.002132803 0 -0.00085706262)
(-0.0021315305 0 -0.00085869148)
(-0.0021297572 0 -0.00086106788)
(-0.0021273083 0 -0.00086451433)
(-0.0021239549 0 -0.00086948636)
(-0.0021193994 0 -0.00087662516)
(-0.00211326 0 -0.00088682773)
(-0.0021050542 0 -0.00090134136)
(-0.0020941821 0 -0.00092188707)
(-0.0020799164 0 -0.00095081184)
(-0.0020614011 0 -0.00099126679)
(-0.0020376678 0 -0.0010474004)
(-0.0020076755 0 -0.0011245304)
(-0.0019703845 0 -0.0012292228)
(-0.0019248678 0 -0.0013691728)
(-0.0018704497 0 -0.0015527731)
(-0.0018068562 0 -0.0017882241)
(-0.0017343243 0 -0.0020822445)
(-0.0016536628 0 -0.0024383418)
(-0.0015662031 0 -0.0028551747)
(-0.001473721 0 -0.003325146)
(-0.0013782444 0 -0.0038342208)
(-0.0012818805 0 -0.0043629437)
(-0.0011866423 0 -0.0048886692)
(-0.0010943045 0 -0.0053884656)
(-0.001006288 0 -0.0058418765)
(-0.00092361589 0 -0.0062329403)
(-0.00084689264 0 -0.0065509402)
(-0.00077625977 0 -0.006790211)
(-0.00071151613 0 -0.0069491404)
(-0.00065222424 0 -0.0070283319)
(-0.00059779557 0 -0.0070277372)
(-0.00054723022 0 -0.0069447964)
(-0.00049952799 0 -0.0067743719)
(-0.00045379641 0 -0.0065112184)
(-0.00040913708 0 -0.0061487791)
(-0.00036336004 0 -0.0056659962)
(-0.0003142959 0 -0.0050395728)
(-0.00025875092 0 -0.0042296439)
(-0.00019222188 0 -0.003175688)
(-0.00010940842 0 -0.0017992063)
(0 0 0)
(-0.0021269302 0 -0.00057139548)
(-0.0021266752 0 -0.00057283751)
(-0.0021266313 0 -0.00057268835)
(-0.0021265496 0 -0.00057253093)
(-0.0021264147 0 -0.00057238007)
(-0.0021262047 0 -0.0005722535)
(-0.0021258895 0 -0.00057217909)
(-0.002125428 0 -0.00057219999)
(-0.0021247642 0 -0.00057238158)
(-0.0021238229 0 -0.00057282124)
(-0.0021225029 0 -0.00057366264)
(-0.0021206697 0 -0.0005751155)
(-0.0021181454 0 -0.00057748363)
(-0.0021146973 0 -0.00058120336)
(-0.0021100233 0 -0.0005868977)
(-0.0021037368 0 -0.00059544827)
(-0.0020953501 0 -0.00060809303)
(-0.0020842584 0 -0.00062655369)
(-0.0020697308 0 -0.00065319464)
(-0.0020509111 0 -0.00069121066)
(-0.0020268362 0 -0.00074483)
(-0.0019964791 0 -0.0008194948)
(-0.0019588265 0 -0.00092194372)
(-0.0019129925 0 -0.0010600896)
(-0.0018583581 0 -0.0012425763)
(-0.0017947162 0 -0.0014778733)
(-0.0017223701 0 -0.0017729624)
(-0.0016421744 0 -0.0021316302)
(-0.0015554766 0 -0.002552775)
(-0.0014640218 0 -0.003029041)
(-0.0013697617 0 -0.0035466615)
(-0.0012747008 0 -0.004086393)
(-0.0011807442 0 -0.0046256718)
(-0.001089579 0 -0.0051414215)
(-0.0010025704 0 -0.0056128054)
(-0.00092071744 0 -0.0060232591)
(-0.00084462565 0 -0.0063613664)
(-0.00077446456 0 -0.0066207896)
(-0.00071006636 0 -0.0067992917)
(-0.00065102231 0 -0.0068970014)
(-0.00059676168 0 -0.0069136558)
(-0.00054633022 0 -0.0068467576)
(-0.00049874788 0 -0.00669134)
(-0.00045310998 0 -0.0064420217)
(-0.0004084846 0 -0.00609183)
(-0.00036275565 0 -0.0056203961)
(-0.00031373083 0 -0.0050040711)
(-0.00025822847 0 -0.0042032019)
(-0.00019177514 0 -0.0031576545)
(-0.000108911 0 -0.0017876148)
(0 0 0)
(-0.0021171605 0 -0.00029653759)
(-0.0021169071 0 -0.00029785744)
(-0.0021168542 0 -0.00029750779)
(-0.0021167612 0 -0.00029711201)
(-0.002116612 0 -0.0002966779)
(-0.0021163843 0 -0.00029621489)
(-0.0021160468 0 -0.00029574129)
(-0.0021155574 0 -0.00029528914)
(-0.0021148587 0 -0.00029491106)
(-0.0021138735 0 -0.00029469015)
(-0.0021124984 0 -0.00029475406)
(-0.0021105962 0 -0.00029529516)
(-0.0021079856 0 -0.00029659879)
(-0.0021044297 0 -0.00029908254)
(-0.0020996217 0 -0.00030335145)
(-0.0020931696 0 -0.00031027221)
(-0.0020845801 0 -0.00032107438)
(-0.0020732433 0 -0.0003374825)
(-0.0020584247 0 -0.00036188232)
(-0.0020392682 0 -0.0003975176)
(-0.0020148169 0 -0.00044870295)
(-0.0019840597 0 -0.00052101136)
(-0.0019460121 0 -0.00062135722)
(-0.0018998331 0 -0.00075786724)
(-0.0018449646 0 -0.00093942472)
(-0.0017812706 0 -0.001174744)
(-0.0017091234 0 -0.0014710365)
(-0.0016294252 0 -0.0018323169)
(-0.0015435392 0 -0.002257673)
(-0.0014531773 0 -0.002739954)
(-0.0013602124 0 -0.0032656353)
(-0.001266543 0 -0.0038156906)
(-0.0011739636 0 -0.0043676697)
(-0.0010840699 0 -0.0048984131)
(-0.00099816728 0 -0.0053867793)
(-0.00091722708 0 -0.0058156749)
(-0.00084185358 0 -0.0061730417)
(-0.0007722414 0 -0.0064519002)
(-0.00070825525 0 -0.0066494057)
(-0.00064951592 0 -0.006765209)
(-0.00059547256 0 -0.0067988083)
(-0.00054521453 0 -0.0067477293)
(-0.00049778309 0 -0.0066071373)
(-0.00045226564 0 -0.0063715291)
(-0.00040770139 0 -0.0060335559)
(-0.00036204038 0 -0.005573448)
(-0.00031307352 0 -0.004967272)
(-0.00025763166 0 -0.004175578)
(-0.00019127026 0 -0.0031386265)
(-0.00010839758 0 -0.0017756024)
(0 0 0)
(-0.0021064769 0 -2.7635239e-05)
(-0.0021062256 0 -2.8833737e-05)
(-0.002106162 0 -2.8283938e-05)
(-0.0021060555 0 -2.7650204e-05)
(-0.0021058897 0 -2.6933553e-05)
(-0.0021056412 0 -2.6135285e-05)
(-0.0021052779 0 -2.5264343e-05)
(-0.0021047562 0 -2.4341947e-05)
(-0.0021040173 0 -2.34083e-05)
(-0.0021029819 0 -2.253238e-05)
(-0.0021015442 0 -2.1826071e-05)
(-0.0020995638 0 -2.1464546e-05)
(-0.0020968558 0 -2.1714894e-05)
(-0.0020931787 0 -2.2976198e-05)
(-0.0020882206 0 -2.5836046e-05)
(-0.0020815839 0 -3.1146944e-05)
(-0.0020727689 0 -4.0131125e-05)
(-0.0020611607 0 -5.4518301e-05)
(-0.0020460213 0 -7.6719494e-05)
(-0.002026495 0 -0.0001100339)
(-0.0020016323 0 -0.00015887072)
(-0.0019704401 0 -0.00022894157)
(-0.0019319652 0 -0.00032733936)
(-0.0018854152 0 -0.00046240001)
(-0.001830297 0 -0.00064323384)
(-0.0017665501 0 -0.00087877582)
(-0.0016946182 0 -0.0011764327)
(-0.0016154519 0 -0.0015403951)
(-0.0015304292 0 -0.0019698932)
(-0.0014412253 0 -0.0024579447)
(-0.0013496317 0 -0.0029912423)
(-0.0012574382 0 -0.0035509797)
(-0.0011663259 0 -0.0041148477)
(-0.0010777965 0 -0.0046596604)
(-0.00099309231 0 -0.0051640415)
(-0.00091315361 0 -0.0056104405)
(-0.00083858137 0 -0.0059862143)
(-0.00076959248 0 -0.0062837758)
(-0.0007060832 0 -0.006499692)
(-0.00064770432 0 -0.0066331363)
(-0.00059392675 0 -0.0066833471)
(-0.00054388151 0 -0.0066478378)
(-0.00049663225 0 -0.0065218691)
(-0.00045126217 0 -0.0062998258)
(-0.00040678602 0 -0.0059740203)
(-0.0003612132 0 -0.0055252018)
(-0.00031232317 0 -0.0049292115)
(-0.00025696001 0 -0.0041467982)
(-0.00019070764 0 -0.0031186291)
(-0.00010786726 0 -0.0017631705)
(0 0 0)
(-0.0020949074 0 0.00023543462)
(-0.0020946578 0 0.00023435634)
(-0.0020945816 0 0.00023510462)
(-0.0020944598 0 0.00023597409)
(-0.002094275 0 0.00023697085)
(-0.0020940027 0 0.00023810204)
(-0.00209361 0 0.00023936829)
(-0.0020930518 0 0.00024075907)
(-0.0020922674 0 0.00024224633)
(-0.0020911753 0 0.00024377476)
(-0.0020896671 0 0.00024524774)
(-0.0020875991 0 0.00024650672)
(-0.0020847821 0 0.00024730236)
(-0.00208097 0 0.00024725362)
(-0.0020758453 0 0.00024578993)
(-0.002069004 0 0.00024207223)
(-0.0020599403 0 0.00023488459)
(-0.0020480336 0 0.00022248984)
(-0.0020325425 0 0.00020244631)
(-0.0020126129 0 0.00017139125)
(-0.001987304 0 0.00012481151)
(-0.0019556423 0 5.6848279e-05)
(-0.0019167091 0 -3.9771977e-05)
(-0.001869764 0 -0.00017358788)
(-0.0018143836 0 -0.00035392396)
(-0.0017505866 0 -0.00058991146)
(-0.0016788898 0 -0.00088911604)
(-0.001600293 0 -0.0012558537)
(-0.0015161865 0 -0.0016894508)
(-0.0014282056 0 -0.0021830585)
(-0.0013380572 0 -0.002723564)
(-0.0012474196 0 -0.0032923814)
(-0.001157859 0 -0.0038673668)
(-0.0010707805 0 -0.0044253587)
(-0.00098736134 0 -0.0049448127)
(-0.00090850787 0 -0.0054077886)
(-0.00083481557 0 -0.0058011166)
(-0.00076652131 0 -0.0061166378)
(-0.0007035517 0 -0.0063503521)
(-0.00064558773 0 -0.0065009594)
(-0.00059212349 0 -0.0065674218)
(-0.00054233012 0 -0.0065472077)
(-0.00049529434 0 -0.0064356398)
(-0.0004500986 0 -0.0062269977)
(-0.00040573723 0 -0.0059132873)
(-0.00036027316 0 -0.0054757082)
(-0.00031147902 0 -0.0048899262)
(-0.00025621301 0 -0.0041168894)
(-0.00019008744 0 -0.0030976849)
(-0.00010731914 0 -0.0017503199)
(0 0 0)
(-0.0020824812 0 0.00049279401)
(-0.0020822322 0 0.00049183587)
(-0.0020821418 0 0.00049278369)
(-0.0020820023 0 0.00049389018)
(-0.0020817957 0 0.00049516826)
(-0.0020814966 0 0.00049663282)
(-0.0020810706 0 0.00049829374)
(-0.0020804711 0 0.00050015111)
(-0.0020796356 0 0.00050218907)
(-0.0020784802 0 0.00050436596)
(-0.0020768934 0 0.00050660041)
(-0.0020747279 0 0.00050875057)
(-0.0020717901 0 0.00051058467)
(-0.0020678286 0 0.00051173946)
(-0.0020625199 0 0.00051166103)
(-0.0020554534 0 0.00050952333)
(-0.0020461166 0 0.00050411521)
(-0.0020338831 0 0.00049368912)
(-0.002018009 0 0.00047576571)
(-0.0019976421 0 0.00044690746)
(-0.0019718523 0 0.00040248645)
(-0.0019396878 0 0.00033648762)
(-0.0019002669 0 0.00024145681)
(-0.001852905 0 0.00010866232)
(-0.0017972528 0 -7.1421292e-05)
(-0.0017334123 0 -0.00030809767)
(-0.0016619746 0 -0.00060905369)
(-0.0015839882 0 -0.00097868041)
(-0.0015008526 0 -0.0014163563)
(-0.0014141596 0 -0.0019153328)
(-0.001325528 0 -0.0024626692)
(-0.0012365223 0 -0.0030400006)
(-0.0011485924 0 -0.0036253696)
(-0.0010630456 0 -0.0041956848)
(-0.00098099198 0 -0.0047292958)
(-0.00090330213 0 -0.0052079372)
(-0.00083056421 0 -0.0056179689)
(-0.00076303266 0 -0.0059506979)
(-0.00070066321 0 -0.0062015811)
(-0.00064316701 0 -0.0063688509)
(-0.0005900626 0 -0.00645118)
(-0.00054055966 0 -0.0064459632)
(-0.00049376862 0 -0.0063485537)
(-0.00044877411 0 -0.0061531305)
(-0.00040455393 0 -0.0058514223)
(-0.0003592194 0 -0.0054250182)
(-0.00031054037 0 -0.0048494536)
(-0.00025539015 0 -0.004085878)
(-0.00018940993 0 -0.0030758184)
(-0.00010675247 0 -0.0017370539)
(0 0 0)
(-0.0020692271 0 0.0007445614)
(-0.0020689764 0 0.00074372232)
(-0.0020688699 0 0.00074486905)
(-0.0020687104 0 0.000746212)
(-0.0020684792 0 0.00074777083)
(-0.0020681498 0 0.00074956824)
(-0.0020676865 0 0.00075162301)
(-0.002067041 0 0.00075394579)
(-0.0020661486 0 0.00075653272)
(-0.0020649228 0 0.00075935568)
(-0.0020632489 0 0.00076234842)
(-0.0020609756 0 0.00076538565)
(-0.0020579045 0 0.00076825318)
(-0.0020537787 0 0.00077060545)
(-0.002048268 0 0.0007719052)
(-0.0020409545 0 0.00077133906)
(-0.0020313189 0 0.00076770006)
(-0.0020187292 0 0.0007592269)
(-0.0020024395 0 0.00074339096)
(-0.0019816016 0 0.00071666446)
(-0.0019552967 0 0.00067429458)
(-0.0019225975 0 0.00061010055)
(-0.0018826615 0 0.00051645138)
(-0.0018348636 0 0.00038443705)
(-0.0017789339 0 0.00020434253)
(-0.0017150608 0 -3.3284964e-05)
(-0.0016439105 0 -0.00033621377)
(-0.0015665787 0 -0.00070886034)
(-0.0014844709 0 -0.0011506128)
(-0.0013991308 0 -0.0016547925)
(-0.0013120853 0 -0.0022086108)
(-0.0012247834 0 -0.0027939232)
(-0.0011385577 0 -0.0033889774)
(-0.0010546171 0 -0.0039707931)
(-0.00097400375 0 -0.0045176721)
(-0.00089755054 0 -0.0050110845)
(-0.00082583684 0 -0.0054369749)
(-0.00075913257 0 -0.0057861556)
(-0.00069742123 0 -0.006053565)
(-0.00064044399 0 -0.0062369772)
(-0.00058774458 0 -0.0063347657)
(-0.00053857 0 -0.0063442264)
(-0.00049205471 0 -0.006260714)
(-0.00044728819 0 -0.0060783096)
(-0.00040323519 0 -0.0057884906)
(-0.00035805115 0 -0.0053731836)
(-0.00030950658 0 -0.0048078315)
(-0.00025449102 0 -0.0040537922)
(-0.00018867525 0 -0.0030530524)
(-0.00010616648 0 -0.001723375)
(0 0 0)
(-0.002055168 0 0.00099085231)
(-0.0020549146 0 0.00099013152)
(-0.00205479 0 0.00099147673)
(-0.0020546085 0 0.00099305564)
(-0.00205435 0 0.00099489447)
(-0.0020539871 0 0.0009970237)
(-0.0020534825 0 0.00099947105)
(-0.0020527862 0 0.0010022576)
(-0.002051831 0 0.0010053914)
(-0.0020505277 0 0.0010088581)
(-0.0020487581 0 0.0010126066)
(-0.0020463664 0 0.0010165281)
(-0.0020431492 0 0.0010204261)
(-0.0020388433 0 0.0010239728)
(-0.0020331114 0 0.0010266476)
(-0.0020255282 0 0.0010276503)
(-0.0020155666 0 0.0010257784)
(-0.0020025895 0 0.0010192557)
(-0.0019858511 0 0.0010054823)
(-0.0019645088 0 0.00098081571)
(-0.0019376561 0 0.00094037626)
(-0.0019043922 0 0.00087780657)
(-0.0018639162 0 0.0007853083)
(-0.0018156658 0 0.00065381569)
(-0.0017594567 0 0.00047343019)
(-0.0016955667 0 0.00023457268)
(-0.0016247365 0 -7.0565111e-05)
(-0.0015481076 0 -0.00044637603)
(-0.0014670864 0 -0.00089221803)
(-0.0013831639 0 -0.0014014538)
(-0.0012977717 0 -0.0019614291)
(-0.0012122414 0 -0.0025542193)
(-0.001127788 0 -0.0031582936)
(-0.0010455221 0 -0.0037508196)
(-0.00096641757 0 -0.0043101055)
(-0.00089126853 0 -0.004817413)
(-0.00082064421 0 -0.0052583257)
(-0.00075482814 0 -0.0056232)
(-0.00069383018 0 -0.0059064824)
(-0.0006374211 0 -0.0061054998)
(-0.00058517048 0 -0.0062183202)
(-0.00053636134 0 -0.0062421181)
(-0.00049015246 0 -0.0061722233)
(-0.00044564043 0 -0.0060026203)
(-0.00040178027 0 -0.0057245584)
(-0.00035676772 0 -0.0053202566)
(-0.00030837706 0 -0.0047650992)
(-0.00025351526 0 -0.0040206612)
(-0.00018788359 0 -0.0030294112)
(-0.00010556045 0 -0.0017092869)
(0 0 0)
(-0.0020403259 0 0.0012317798)
(-0.0020400715 0 0.0012311764)
(-0.0020399271 0 0.001232719)
(-0.0020397211 0 0.0012345322)
(-0.0020394327 0 0.0012366491)
(-0.0020390331 0 0.0012391081)
(-0.0020384832 0 0.0012419462)
(-0.0020377311 0 0.0012451949)
(-0.0020367072 0 0.0012488746)
(-0.0020353191 0 0.0012529842)
(-0.0020334446 0 0.0012574878)
(-0.0020309235 0 0.001262293)
(-0.0020275467 0 0.0012672208)
(-0.0020230442 0 0.0012719615)
(-0.0020170711 0 0.001276012)
(-0.0020091936 0 0.0012785866)
(-0.0019988768 0 0.0012784907)
(-0.0019854784 0 0.0012739421)
(-0.001968258 0 0.0012622162)
(-0.0019463801 0 0.0012395168)
(-0.0019189486 0 0.0012008686)
(-0.0018850925 0 0.0011397173)
(-0.0018440543 0 0.0010481128)
(-0.001795338 0 0.00091686984)
(-0.0017388521 0 0.00073589841)
(-0.0016749658 0 0.00049551657)
(-0.0016044936 0 0.00018792166)
(-0.0015286193 0 -0.00019120754)
(-0.0014487456 0 -0.00064116203)
(-0.0013663055 0 -0.0011553211)
(-0.0012826314 0 -0.0017211486)
(-0.0011989364 0 -0.0023209406)
(-0.0011163178 0 -0.0029334012)
(-0.001035789 0 -0.0035358789)
(-0.00095825588 0 -0.0041067387)
(-0.00088447302 0 -0.0046270858)
(-0.00081499847 0 -0.0050821952)
(-0.00075012767 0 -0.0054620065)
(-0.00068989546 0 -0.0057605013)
(-0.00063410163 0 -0.005974573)
(-0.00058234204 0 -0.0061019796)
(-0.0005339345 0 -0.006139756)
(-0.00048806213 0 -0.0060831822)
(-0.00044383077 0 -0.005926147)
(-0.00040018863 0 -0.005659692)
(-0.00035536856 0 -0.0052662898)
(-0.00030715129 0 -0.0047212959)
(-0.0002524625 0 -0.0039865141)
(-0.00018703508 0 -0.0030049185)
(-0.00010493381 0 -0.0016947953)
(0 0 0)
(-0.0020247329 0 0.0014674556)
(-0.0020244721 0 0.0014669686)
(-0.0020243058 0 0.0014687082)
(-0.0020240731 0 0.0014707551)
(-0.002023752 0 0.0014731493)
(-0.0020233121 0 0.0014759372)
(-0.0020227128 0 0.001479165)
(-0.0020218997 0 0.0014828751)
(-0.0020208007 0 0.0014870997)
(-0.00201932 0 0.0014918514)
(-0.0020173313 0 0.0014971093)
(-0.0020146692 0 0.0015027975)
(-0.0020111185 0 0.0015087547)
(-0.002006402 0 0.0015146899)
(-0.0020001663 0 0.0015201187)
(-0.0019919683 0 0.0015242725)
(-0.0019812644 0 0.0015259645)
(-0.0019674177 0 0.0015233059)
(-0.0019496954 0 0.0015134531)
(-0.0019272578 0 0.0014925566)
(-0.0018992179 0 0.0014555522)
(-0.001864732 0 0.001395766)
(-0.0018230997 0 0.0013049362)
(-0.0017739067 0 0.0011736622)
(-0.0017171515 0 0.00099179673)
(-0.0016532953 0 0.00074958172)
(-0.0015832238 0 0.00043927245)
(-0.0015081596 0 5.6665668e-05)
(-0.0014294962 0 -0.00039743117)
(-0.0013486029 0 -0.00091639177)
(-0.0012667095 0 -0.001487784)
(-0.0011849092 0 -0.0020941259)
(-0.0011041827 0 -0.002714368)
(-0.0010254473 0 -0.0033260692)
(-0.00094954214 0 -0.003907698)
(-0.00087718183 0 -0.0044402511)
(-0.00080891265 0 -0.004908744)
(-0.00074504027 0 -0.0053027396)
(-0.00068562314 0 -0.0056157816)
(-0.00063048946 0 -0.0058443449)
(-0.00057926145 0 -0.0059858764)
(-0.00053129057 0 -0.0060372553)
(-0.00048578423 0 -0.0059936901)
(-0.00044185927 0 -0.0058489733)
(-0.00039845985 0 -0.0055939576)
(-0.00035385319 0 -0.0052113362)
(-0.00030582883 0 -0.0046764623)
(-0.00025133246 0 -0.0039513818)
(-0.00018612987 0 -0.0029795984)
(-0.00010428592 0 -0.0016799048)
(0 0 0)
(-0.0020084032 0 0.0016979874)
(-0.0020081392 0 0.0016976158)
(-0.0020079492 0 0.0016995514)
(-0.0020076874 0 0.001701831)
(-0.0020073306 0 0.001704502)
(-0.0020068469 0 0.0017076189)
(-0.0020061937 0 0.0017112372)
(-0.0020053143 0 0.0017154094)
(-0.0020041337 0 0.0017201797)
(-0.0020025524 0 0.0017255738)
(-0.0020004396 0 0.0017315857)
(-0.0019976247 0 0.0017381558)
(-0.0019938855 0 0.0017451414)
(-0.0019889367 0 0.0017522714)
(-0.0019824155 0 0.0017590833)
(-0.001973869 0 0.0017648272)
(-0.0019627573 0 0.0017682227)
(-0.0019484559 0 0.0017671925)
(-0.0019302183 0 0.0017589247)
(-0.0019071924 0 0.0017396252)
(-0.001878508 0 0.0017041042)
(-0.0018433485 0 0.0016456623)
(-0.0018010828 0 0.0015556828)
(-0.0017513988 0 0.0014242501)
(-0.0016943876 0 0.0012411698)
(-0.0016305942 0 0.00099679984)
(-0.0015609712 0 0.00068351327)
(-0.0014867762 0 0.00029726797)
(-0.0014093877 0 -0.00016100364)
(-0.0013301054 0 -0.00068465126)
(-0.0012500524 0 -0.0012613345)
(-0.0011702021 0 -0.0018737956)
(-0.0010914193 0 -0.0025012419)
(-0.0010145276 0 -0.0031214675)
(-0.00094030105 0 -0.0037130891)
(-0.00086941411 0 -0.0042570374)
(-0.00080240098 0 -0.004738116)
(-0.00073957616 0 -0.0051455496)
(-0.00068102032 0 -0.0054724717)
(-0.00062658927 0 -0.0057149555)
(-0.00057593159 0 -0.0058701373)
(-0.00052843123 0 -0.0059347282)
(-0.00048331964 0 -0.0059038439)
(-0.00043972632 0 -0.0057711818)
(-0.00039659379 0 -0.0055274217)
(-0.0003522213 0 -0.0051554491)
(-0.0003044093 0 -0.0046306391)
(-0.00025012485 0 -0.0039152946)
(-0.00018516808 0 -0.0029534756)
(-0.00010361621 0 -0.0016646211)
(0 0 0)
(-0.0019913672 0 0.0019234823)
(-0.0019910971 0 0.0019232273)
(-0.001990881 0 0.0019253621)
(-0.0019905873 0 0.0019278783)
(-0.0019901914 0 0.0019308295)
(-0.0019896599 0 0.0019342777)
(-0.0019889481 0 0.0019382869)
(-0.0019879969 0 0.0019429202)
(-0.001986728 0 0.0019482335)
(-0.0019850379 0 0.0019542662)
(-0.0019827912 0 0.0019610277)
(-0.0019798109 0 0.0019684754)
(-0.0019758678 0 0.0019764855)
(-0.0019706676 0 0.0019848082)
(-0.0019638367 0 0.00199301)
(-0.0019549231 0 0.0020002828)
(-0.0019434008 0 0.0020051737)
(-0.001928631 0 0.0020056042)
(-0.0019098424 0 0.0019988355)
(-0.0018861887 0 0.0019810075)
(-0.0018568207 0 0.0019468073)
(-0.0018209614 0 0.0018894044)
(-0.0017780429 0 0.0018000895)
(-0.0017278501 0 0.0016685268)
(-0.0016705939 0 0.0014840555)
(-0.0016069025 0 0.0012371953)
(-0.0015377807 0 0.00092066652)
(-0.0014645177 0 0.0005306237)
(-0.0013884703 0 6.8145412e-05)
(-0.0013108626 0 -0.0004600793)
(-0.0012327072 0 -0.0010417907)
(-0.0011548576 0 -0.0016599597)
(-0.0010780648 0 -0.0022940579)
(-0.0010030612 0 -0.002922137)
(-0.00093055787 0 -0.0035230035)
(-0.00086118959 0 -0.0040775595)
(-0.00079547833 0 -0.0045704424)
(-0.00073374616 0 -0.0049905762)
(-0.00067609456 0 -0.0053307119)
(-0.0006224062 0 -0.0055865384)
(-0.0005723557 0 -0.0057548847)
(-0.0005253584 0 -0.0058322833)
(-0.00048066945 0 -0.0058137389)
(-0.0004374324 0 -0.0056928539)
(-0.00039459037 0 -0.0054601501)
(-0.00035047261 0 -0.005098682)
(-0.00030289239 0 -0.0045838683)
(-0.0002488395 0 -0.0038782848)
(-0.00018414984 0 -0.0029265746)
(-0.00010292421 0 -0.0016489517)
(0 0 0)
(-0.0019736483 0 0.0021440438)
(-0.0019733687 0 0.0021439039)
(-0.0019731246 0 0.0021462361)
(-0.0019727964 0 0.0021489869)
(-0.0019723583 0 0.0021522164)
(-0.0019717751 0 0.0021559944)
(-0.001971 0 0.0021603939)
(-0.0019699711 0 0.0021654879)
(-0.0019686066 0 0.002171344)
(-0.0019667991 0 0.0021780149)
(-0.0019644077 0 0.0021855246)
(-0.0019612491 0 0.0021938469)
(-0.0019570863 0 0.0022028747)
(-0.0019516153 0 0.0022123745)
(-0.001944457 0 0.0022219232)
(-0.0019351709 0 0.0022305838)
(-0.0019232242 0 0.0022368488)
(-0.0019079473 0 0.0022387472)
(-0.0018885643 0 0.0022334801)
(-0.001864243 0 0.002217055)
(-0.0018341569 0 0.0021840296)
(-0.0017975776 0 0.0021273473)
(-0.0017540066 0 0.0020381936)
(-0.0017033085 0 0.0019062283)
(-0.0016458153 0 0.0017203357)
(-0.0015822622 0 0.0014707898)
(-0.0015136995 0 0.0011507551)
(-0.0014414344 0 0.00075676223)
(-0.0013667957 0 0.00029004974)
(-0.0012909251 0 -0.00024264356)
(-0.0012147214 0 -0.00082912884)
(-0.001138919 0 -0.0014526112)
(-0.0010641569 0 -0.0020928328)
(-0.00099107977 0 -0.0027281215)
(-0.00092033865 0 -0.0033375131)
(-0.00085252883 0 -0.0039019137)
(-0.00078816043 0 -0.0044058377)
(-0.00072756189 0 -0.0048379449)
(-0.00067085422 0 -0.0051906305)
(-0.00061794605 0 -0.0054592184)
(-0.00056853762 0 -0.0056402344)
(-0.00052207453 0 -0.0057300255)
(-0.00047783515 0 -0.0057234676)
(-0.00043497833 0 -0.0056140696)
(-0.00039244976 0 -0.0053922087)
(-0.00034860705 0 -0.0050410886)
(-0.0003012779 0 -0.0045361919)
(-0.00024747619 0 -0.0038403845)
(-0.00018307527 0 -0.0028989204)
(-0.00010220939 0 -0.0016329031)
(0 0 0)
(-0.0019552601 0 0.0023597734)
(-0.0019549734 0 0.0023597478)
(-0.0019546989 0 0.0023622769)
(-0.0019543337 0 0.0023652616)
(-0.0019538503 0 0.0023687686)
(-0.0019532116 0 0.0023728755)
(-0.0019523685 0 0.002377664)
(-0.0019512561 0 0.0023832176)
(-0.001949789 0 0.0023896153)
(-0.0019478552 0 0.002396923)
(-0.0019453084 0 0.0024051795)
(-0.0019419583 0 0.0024143747)
(-0.0019375595 0 0.0024244194)
(-0.0019317988 0 0.0024350955)
(-0.0019243031 0 0.0024458917)
(-0.0019146344 0 0.0024558167)
(-0.0019022326 0 0.0024634488)
(-0.0018864106 0 0.0024668017)
(-0.0018663965 0 0.0024629725)
(-0.0018413691 0 0.0024478649)
(-0.0018105311 0 0.0024158712)
(-0.0017732065 0 0.0023597251)
(-0.0017289814 0 0.0022703454)
(-0.0016778058 0 0.0021373988)
(-0.0016200942 0 0.0019498917)
(-0.0015567124 0 0.0016975997)
(-0.0014887762 0 0.0013738008)
(-0.0014175778 0 0.00097571663)
(-0.0013444165 0 0.00050474972)
(-0.0012703444 0 -3.2302974e-05)
(-0.0011961433 0 -0.00062331379)
(-0.0011224297 0 -0.0012517304)
(-0.0010497337 0 -0.0018975692)
(-0.00097861559 0 -0.0025394492)
(-0.00090966989 0 -0.0031566745)
(-0.00084345296 0 -0.0037301812)
(-0.00078046356 0 -0.0042444029)
(-0.00072103556 0 -0.0046877694)
(-0.00066530821 0 -0.0050523463)
(-0.00061321509 0 -0.0053331127)
(-0.00056448157 0 -0.0055262969)
(-0.00051858236 0 -0.0056280556)
(-0.00047481842 0 -0.0056331201)
(-0.00043236505 0 -0.0055349072)
(-0.00039017228 0 -0.0053236627)
(-0.0003466246 0 -0.0049827229)
(-0.0002995657 0 -0.0044876531)
(-0.00024603481 0 -0.0038016268)
(-0.00018194448 0 -0.0028705386)
(-0.00010147137 0 -0.0016164843)
(0 0 0)
(-0.0019362293 0 0.0025707705)
(-0.0019359312 0 0.0025708585)
(-0.0019356242 0 0.0025735843)
(-0.0019352192 0 0.0025768025)
(-0.0019346872 0 0.0025805865)
(-0.001933989 0 0.0025850214)
(-0.001933073 0 0.002590198)
(-0.0019318711 0 0.0025962098)
(-0.0019302941 0 0.0026031477)
(-0.001928225 0 0.0026110907)
(-0.0019255115 0 0.0026200925)
(-0.0019219556 0 0.0026301609)
(-0.0019173025 0 0.002641229)
(-0.0019112372 0 0.002653065)
(-0.0019033963 0 0.0026650315)
(-0.0018933246 0 0.0026761671)
(-0.0018804347 0 0.0026851364)
(-0.0018640341 0 0.0026898791)
(-0.0018433511 0 0.0026874167)
(-0.0018175785 0 0.0026735388)
(-0.001785956 0 0.0026424295)
(-0.001747864 0 0.0025866271)
(-0.001702981 0 0.002496753)
(-0.0016513522 0 0.0023623485)
(-0.0015934666 0 0.0021727576)
(-0.001530309 0 0.0019175172)
(-0.0014630612 0 0.001589827)
(-0.0013930008 0 0.0011875243)
(-0.0013213859 0 0.0007122929)
(-0.0012491722 0 0.00017099285)
(-0.001177021 0 -0.00042429934)
(-0.0011054334 0 -0.0010572848)
(-0.0010348422 0 -0.0017083734)
(-0.00096571947 0 -0.0023563871)
(-0.00089859476 0 -0.0029807767)
(-0.00083399699 0 -0.0035626535)
(-0.00077241104 0 -0.0040863394)
(-0.00071417995 0 -0.0045401505)
(-0.00065946591 0 -0.0049159671)
(-0.0006082201 0 -0.00520833)
(-0.00056019224 0 -0.0054131762)
(-0.00051488502 0 -0.0055264703)
(-0.00047162127 0 -0.0055427831)
(-0.00042959379 0 -0.0054554436)
(-0.00038775845 0 -0.0052545767)
(-0.00034452541 0 -0.0049236387)
(-0.00029775571 0 -0.0044382952)
(-0.00024451531 0 -0.0037620461)
(-0.00018075757 0 -0.0028414546)
(-0.00010070965 0 -0.0015997022)
(0 0 0)
(-0.0019165699 0 0.0027771317)
(-0.0019162619 0 0.0027773329)
(-0.0019159201 0 0.0027802553)
(-0.0019154726 0 0.0027837067)
(-0.0019148886 0 0.002787767)
(-0.0019141268 0 0.0027925291)
(-0.0019131329 0 0.0027980924)
(-0.0019118355 0 0.0028045605)
(-0.0019101411 0 0.0028120354)
(-0.0019079275 0 0.0028206089)