/*--------------------------------*- C++ -*----------------------------------*\
  =========                 |
  \\      /  F ield         | OpenFOAM: The Open Source CFD Toolbox
   \\    /   O peration     | Website:  https://openfoam.org
    \\  /    A nd           | Version:  8
     \\/     M anipulation  |
\*---------------------------------------------------------------------------*/
FoamFile
{
    version     2.0;
    format      ascii;
    class       volScalarField;
    location    "0.170001";
    object      rho;
}
// * * * * * * * * * * * * * * * * * * * * * * * * * * * * * * * * * * * * * //

dimensions      [1 -3 0 0 0 0 0];

internalField   nonuniform List<scalar> 
20000
(
0.94746436
0.9474131
0.94809118
0.95083272
0.95744598
0.97140954
0.99383681
1.0002572
0.99907238
1.000522
1.000324
1.0017828
1.002341
1.0041006
1.0053833
1.0076794
1.0097938
1.0128514
1.0160066
1.0200765
1.0245436
1.029936
1.0359832
1.0430274
1.0509589
1.0599366
1.0701424
1.0811858
1.0926977
1.1041845
1.1150885
1.1250594
1.1338254
1.1412841
1.1474007
1.1523103
1.1560355
1.1586504
1.16042
1.1614834
1.161977
1.1620952
1.1620588
1.1617067
1.1613793
1.1612647
1.1613879
1.1618859
1.1623092
1.1658726
0.94252563
0.94257153
0.94345785
0.9464029
0.95353141
0.96849321
0.9902474
0.99604592
0.99496497
0.99651895
0.99636698
0.99789623
0.99848137
1.0003001
1.0016334
1.0040065
1.0062164
1.0093813
1.0126932
1.0169475
1.0216276
1.0272647
1.0336039
1.040983
1.0493161
1.0588243
1.0696371
1.0812468
1.0930767
1.1047049
1.1156574
1.1255878
1.1342619
1.1416071
1.1476131
1.1524138
1.1560512
1.1586593
1.1603712
1.1614058
1.1618835
1.1620247
1.1619449
1.1616175
1.1613283
1.1612221
1.1613643
1.161903
1.1622752
1.1659131
0.93804073
0.93803439
0.93902681
0.94222688
0.94989236
0.96606225
0.98656255
0.99152294
0.99036323
0.99191046
0.99172999
0.99327208
0.99386839
0.99573414
0.99711628
0.99958031
1.0018909
1.0052027
1.0086709
1.0131186
1.0180407
1.0239775
1.0307055
1.0385588
1.0474954
1.0578072
1.0695385
1.0814542
1.0935633
1.1053539
1.1163421
1.1262104
1.134766
1.1419691
1.1478415
1.1525347
1.156092
1.1586549
1.1603228
1.161293
1.1617084
1.1618279
1.1617564
1.1614414
1.1612291
1.1611478
1.1614151
1.1618854
1.1626422
1.1658796
0.93328322
0.93317055
0.93418548
0.93759429
0.94563946
0.9630079
0.98198908
0.98633113
0.9851559
0.9867304
0.98656625
0.98815855
0.98878847
0.99072601
0.99217579
0.99474223
0.99716505
1.0006219
1.0042751
1.0089513
1.0141667
1.020475
1.0277149
1.0362152
1.0460042
1.0574341
1.0695227
1.0819031
1.0943167
1.1062502
1.1172492
1.1270272
1.1354364
1.1424728
1.1481845
1.1527374
1.1561893
1.1586972
1.160295
1.1612116
1.1616007
1.1617014
1.1616027
1.1613168
1.1611571
1.1611172
1.1614244
1.1618855
1.1628269
1.1658798
0.92703584
0.92727236
0.92863409
0.93240694
0.94100893
0.95970175
0.97707981
0.98097066
0.97981545
0.98145826
0.98131982
0.98297308
0.98364795
0.98565785
0.9871799
0.98984578
0.99238981
0.99600384
0.99984512
1.0047708
1.0103382
1.0171024
1.0249936
1.0343368
1.0452834
1.057321
1.0697642
1.0826004
1.0953
1.1073546
1.1183334
1.127989
1.1362214
1.1430633
1.1485923
1.1529907
1.1563268
1.1587596
1.1602842
1.1611287
1.1614749
1.1615635
1.1614517
1.1611866
1.161065
1.161101
1.1614455
1.1618858
1.1631048
1.1658712
0.92276248
0.9227529
0.92413575
0.92805965
0.93704891
0.95698275
0.97255801
0.97598785
0.97482401
0.9764914
0.97636928
0.97807432
0.9787906
0.98087898
0.98247519
0.98524365
0.9878999
0.99167513
0.99574894
1.0009846
1.0070028
1.0143564
1.023057
1.0334885
1.0450414
1.0573606
1.0703644
1.0836209
1.0965713
1.1087038
1.1196207
1.1291164
1.1371392
1.143759
1.1490816
1.1533055
1.1565147
1.1588467
1.1602783
1.1610547
1.161367
1.1614438
1.1613202
1.1610829
1.1609706
1.1610966
1.1614583
1.1618984
1.1633518
1.1658871
0.91808959
0.91823648
0.91980222
0.92400933
0.93347733
0.95462177
0.96840984
0.97146356
0.97031578
0.97203905
0.97194484
0.97371196
0.9744757
0.97664123
0.97831412
0.9811905
0.98398567
0.98795717
0.992334
0.99797074
1.0045516
1.0127605
1.0222915
1.0331806
1.0450322
1.0578691
1.0713553
1.0849861
1.0981336
1.1102918
1.121099
1.1303941
1.1381737
1.1445443
1.1496392
1.1536737
1.1567476
1.1589538
1.1602744
1.1609788
1.1612593
1.1613235
1.1611908
1.1609934
1.160892
1.1610957
1.1614738
1.1619287
1.1636235
1.1659224
0.91473968
0.91486126
0.91643857
0.92089185
0.93079354
0.95299843
0.96487998
0.96769301
0.96654666
0.96830932
0.96823623
0.97005939
0.97086749
0.97310993
0.97487133
0.97789889
0.98089731
0.98512534
0.98989694
0.99614121
1.0034041
1.0121354
1.0220235
1.033162
1.0454649
1.0588477
1.0727956
1.08673
1.1000062
1.1121268
1.1227698
1.1318205
1.1393226
1.1454175
1.1502641
1.1540941
1.1570235
1.1590833
1.1602814
1.160904
1.1611558
1.1612077
1.1610646
1.1609208
1.1608485
1.1610963
1.1614915
1.1619792
1.163877
1.1659757
0.91181002
0.91196073
0.91364001
0.91837195
0.92883262
0.9519276
0.96203381
0.96464448
0.9635233
0.96533755
0.9652952
0.96718672
0.96806229
0.97040907
0.97229682
0.97553501
0.97884424
0.98353495
0.98877855
0.99539772
1.0029557
1.0119775
1.0220327
1.0336222
1.0464863
1.0603649
1.0746974
1.0888588
1.1021867
1.1142008
1.1246223
1.1333841
1.1405752
1.1463696
1.150949
1.1545607
1.1573365
1.1592345
1.1603072
1.1608447
1.1610555
1.1610962
1.1609484
1.160853
1.1608281
1.1611045
1.1615167
1.1620543
1.1641287
1.1660413
0.90965801
0.90982967
0.91161103
0.91663521
0.92774997
0.95144789
0.95993337
0.96240999
0.96130594
0.96317032
0.96316709
0.96515266
0.96614702
0.96870003
0.97084257
0.97438011
0.97797397
0.98288807
0.98833042
0.99516399
1.0028782
1.0120279
1.0226301
1.0347388
1.0481024
1.0624231
1.0770683
1.0913714
1.1046691
1.1165047
1.1266461
1.1350748
1.1419227
1.1473938
1.1516885
1.1550694
1.1576811
1.1594055
1.1603553
1.1608212
1.1609697
1.1609974
1.160857
1.1607835
1.1608212
1.1611255
1.1615527
1.1621633
1.1643693
1.1661136
0.90844242
0.90853289
0.91038946
0.91569729
0.92755041
0.9515654
0.95852987
0.96090906
0.95986956
0.96184309
0.96197414
0.96412387
0.96526863
0.96797304
0.97024503
0.97390879
0.97763476
0.98270998
0.98825074
0.99517388
1.0032161
1.0128678
1.0239081
1.0365035
1.0503345
1.0650251
1.0798992
1.0942564
1.1074389
1.1190231
1.1288267
1.1368795
1.1433541
1.148481
1.1524759
1.1556182
1.1580505
1.1595936
1.1604183
1.1608103
1.1609163
1.1609174
1.1607888
1.1607291
1.16082
1.1611569
1.1616031
1.1623171
1.1645983
1.1661883
0.90782936
0.90788763
0.90984084
0.91545378
0.92821705
0.95234744
0.95788527
0.96021653
0.9592295
0.96129778
0.96150524
0.9637583
0.96490397
0.96770744
0.97007537
0.97380128
0.97758593
0.98273016
0.98854249
0.99584719
1.004279
1.0143253
1.0258463
1.0389027
1.0531445
1.0681403
1.0831626
1.0974875
1.1104726
1.1217352
1.1311462
1.1387836
1.144858
1.1496218
1.1533038
1.1562083
1.1584363
1.1597948
1.1604911
1.1608073
1.1608923
1.1608578
1.160743
1.1607035
1.1608208
1.1611967
1.16167
1.1625254
1.1648125
1.166262
0.90772352
0.90771782
0.90977334
0.91569992
0.92948335
0.95346729
0.95765937
0.96000265
0.95901033
0.96107606
0.9613157
0.9636162
0.96482539
0.96767276
0.9700976
0.97397899
0.97799479
0.98342982
0.98953669
0.99715565
1.0059825
1.0164694
1.0284291
1.0419106
1.0565162
1.0717468
1.0868346
1.1010397
1.1137464
1.1246198
1.1335864
1.1407719
1.146422
1.150806
1.1541643
1.156835
1.1588358
1.1600066
1.1605727
1.1608126
1.1608809
1.1608208
1.1607246
1.1606921
1.1608314
1.161243
1.1617538
1.1627959
1.165013
1.1663344
0.90776654
0.90777683
0.90995002
0.91619544
0.93113192
0.95467532
0.95758108
0.96000301
0.95900121
0.96117386
0.96140689
0.96375683
0.96512498
0.96812936
0.97072752
0.97479318
0.97901558
0.98468864
0.99110714
0.99908223
1.0083037
1.0192001
1.0315941
1.0454725
1.0603942
1.0757951
1.0908702
1.1048735
1.1172268
1.1276493
1.1361253
1.1428274
1.1480328
1.1520224
1.1550501
1.1574918
1.1592479
1.1602269
1.1606588
1.1608297
1.1608769
1.1608023
1.1607167
1.1606881
1.160857
1.1612943
1.1618544
1.1631195
1.1652029
1.1664071
0.90827366
0.90828078
0.91055183
0.91710385
0.9333133
0.95619933
0.95797241
0.96050913
0.95957581
0.96184671
0.96209287
0.96454167
0.96597401
0.96910127
0.97184972
0.97610562
0.98057037
0.98651905
0.99325479
1.0015745
1.0111923
1.0225042
1.0353137
1.0495611
1.0647512
1.0802556
1.0952381
1.1089592
1.1208865
1.1307999
1.138743
1.144934
1.1496774
1.153261
1.1559577
1.1581723
1.15967
1.160453
1.1607535
1.1608584
1.1608768
1.1607932
1.1607144
1.1606881
1.1608953
1.1613503
1.161972
1.1634749
1.1653963
1.1664824
0.90926394
0.90926628
0.91165361
0.91850209
0.93606612
0.95804857
0.95879224
0.96131209
0.96047521
0.96274291
0.96313266
0.96570858
0.96725692
0.97053934
0.97346083
0.97792255
0.98262503
0.98883994
0.99589923
1.0045742
1.0145895
1.0263101
1.0395259
1.0541166
1.0695293
1.0850731
1.0998876
1.113252
1.1246879
1.1340409
1.1414155
1.1470735
1.151341
1.1545121
1.156889
1.1588649
1.1600962
1.1606808
1.1608607
1.1608997
1.1608816
1.1607887
1.1607138
1.1606907
1.1609449
1.161412
1.1621112
1.1638478
1.165596
1.1665615
0.91060525
0.91061921
0.91312335
0.92027812
0.93924408
0.96007526
0.9599934
0.96261362
0.96177634
0.96416779
0.96461941
0.96730013
0.96896698
0.97240017
0.97550037
0.98016462
0.98512042
0.99161703
0.99901011
1.0080461
1.0184662
1.0305977
1.0442087
1.059115
1.0747015
1.0902166
1.1047869
1.1177203
1.1286018
1.1373471
1.1441229
1.1492303
1.1530113
1.1557693
1.1578485
1.1595534
1.1605172
1.1609104
1.160985
1.1609478
1.1608957
1.1607866
1.1607155
1.1607094
1.1610049
1.1614827
1.1622829
1.1642221
1.1658001
1.1666445
0.91220553
0.91229167
0.91496173
0.92244798
0.94281319
0.96228511
0.96152862
0.96421033
0.96341431
0.96590253
0.96644696
0.96925233
0.97104704
0.97464239
0.97792563
0.98280624
0.98801878
0.99480021
1.0025355
1.0119415
1.0227723
1.035314
1.0493104
1.0645027
1.0802134
1.0956321
1.1098852
1.1223185
1.132589
1.1406872
1.1468418
1.1513871
1.1546757
1.1570279
1.1588261
1.1602248
1.1609248
1.1611597
1.1611168
1.1610043
1.1609171
1.1607877
1.1607245
1.1607425
1.1610745
1.1615668
1.1625009
1.1645796
1.1660049
1.1667321
0.9141485
0.91427437
0.91713938
0.92499648
0.94668623
0.96462872
0.96337078
0.96613594
0.9654015
0.96798622
0.96861783
0.97154567
0.9734708
0.97722669
0.98070232
0.98579767
0.991281
0.99836173
1.0064529
1.0162413
1.0274915
1.0404463
1.0548147
1.0702608
1.0860393
1.101291
1.1151507
1.1270152
1.1366207
1.1440381
1.1495555
1.1535313
1.1563264
1.1582867
1.1598001
1.1608724
1.1613253
1.16143
1.1612502
1.1610696
1.160945
1.160804
1.1607406
1.160791
1.161153
1.1616683
1.162773
1.1649039
1.1662084
1.1668263
0.91634821
0.91653435
0.91964494
0.92795277
0.95082478
0.96710459
0.96551451
0.96835855
0.96768623
0.97036573
0.97108674
0.97413819
0.9761963
0.9801194
0.98379281
0.98911875
0.99488203
1.0022708
1.0107291
1.0209107
1.0325877
1.045955
1.0606796
1.0763422
1.0921292
1.1071418
1.1205333
1.131765
1.1406603
1.1473742
1.1522455
1.1556484
1.1579556
1.1595427
1.1607438
1.1614913
1.1617373
1.1617048
1.1613869
1.1611429
1.1609801
1.1608309
1.1607687
1.1608529
1.1612392
1.1617895
1.1630961
1.1651834
1.1664082
1.1669328
0.91881067
0.91906096
0.92246093
0.93133475
0.95517239
0.96976536
0.96794447
0.97085803
0.97024184
0.97301112
0.97382102
0.97699831
0.97919752
0.98329358
0.9871795
0.99273976
0.99879914
1.0065111
1.0153526
1.0259412
1.0380544
1.051833
1.0668939
1.0827297
1.098459
1.1131539
1.1260009
1.1365372
1.1446856
1.1506822
1.1549007
1.1577278
1.1595577
1.160785
1.1616364
1.1620891
1.1621672
1.1619737
1.1615252
1.1612225
1.1610228
1.160869
1.1608082
1.160927
1.1613315
1.1619299
1.1634301
1.1654406
1.1665999
1.1670591
0.92143301
0.92176119
0.92549339
0.93508902
0.95960867
0.97268803
0.97058166
0.97356857
0.97301577
0.97588313
0.97679156
0.98010417
0.98245441
0.98673342
0.99084121
0.99665128
1.0030175
1.0110647
1.0203026
1.0313104
1.0438658
1.0580506
1.0734219
1.0893805
1.1049803
1.1192768
1.1315045
1.1412932
1.1486739
1.1539477
1.1575055
1.159755
1.1611215
1.1619792
1.1624818
1.1626887
1.162595
1.1622333
1.1616638
1.1613054
1.1610752
1.1609188
1.1608609
1.1610116
1.1614283
1.1620871
1.1637709
1.1656833
1.1667757
1.1672026
0.92431463
0.92469298
0.92877427
0.9392717
0.96409612
0.97554306
0.97341854
0.97648625
0.9760039
0.97897686
0.97999126
0.98344714
0.98595698
0.99042711
0.99476881
1.0008356
1.0075254
1.0159245
1.0255762
1.0370169
1.0500215
1.064604
1.0802543
1.0962764
1.1116676
1.1254796
1.1370144
1.1460153
1.1526192
1.1571608
1.160044
1.1617164
1.1626308
1.1631111
1.1632967
1.1632881
1.1630125
1.1624801
1.1618007
1.1613899
1.1611389
1.1609804
1.1609254
1.1611048
1.1615281
1.1622595
1.1641168
1.1659225
1.1669472
1.1673456
0.92732504
0.92775877
0.93221565
0.94383804
0.96858432
0.97854432
0.97645523
0.97960877
0.97920396
0.98228598
0.98341376
0.9870161
0.98969587
0.99436205
0.99894992
1.0052875
1.0123151
1.0210808
1.0311612
1.0430464
1.0565026
1.0714684
1.0873573
1.1033753
1.1184714
1.1317125
1.1424924
1.1506846
1.1565058
1.160289
1.1624852
1.1635962
1.1640685
1.16419
1.164101
1.163868
1.1634159
1.1627125
1.1619351
1.1614771
1.1612119
1.1610538
1.1610017
1.1612053
1.161631
1.1624477
1.1644668
1.1661604
1.1671154
1.1674849
0.93059541
0.93105126
0.93589413
0.94886797
0.9730954
0.98173633
0.97969372
0.98293598
0.98260859
0.98580344
0.98704765
0.99080255
0.99365906
0.99853022
1.0033773
1.0099981
1.0173826
1.0265341
1.0370602
1.0494027
1.0633113
1.0786408
1.0947189
1.1106552
1.1253618
1.1379462
1.1479254
1.1552985
1.1603062
1.163297
1.1648131
1.1653876
1.1654436
1.1652378
1.1648687
1.1644307
1.1638019
1.162931
1.1620656
1.161567
1.1612935
1.1611384
1.1610895
1.1613118
1.1617394
1.1626575
1.1648146
1.1663933
1.1672762
1.1676193
0.933921
0.93445611
0.93968404
0.95426555
0.97757107
0.98517914
0.98310967
0.98644912
0.98620325
0.98951665
0.99088187
0.99479475
0.99783923
1.0029246
1.008048
1.0149688
1.0227268
1.0322807
1.043267
1.0560764
1.0704322
1.0860975
1.1023035
1.1180703
1.1322887
1.1441425
1.1532976
1.1598337
1.1639642
1.166154
1.1670191
1.1671073
1.1667634
1.1662315
1.165605
1.164971
1.1641688
1.1631351
1.162192
1.1616597
1.1613828
1.1612335
1.1611883
1.1614239
1.161859
1.1629013
1.1651495
1.1666151
1.1674303
1.1677502
0.93753725
0.93808172
0.94370528
0.96008333
0.98207786
0.98876221
0.98671328
0.99014518
0.98997986
0.99341504
0.99490804
0.99898778
1.0022334
1.0075459
1.0129618
1.0201975
1.0283501
1.0383254
1.0497889
1.0630735
1.0778685
1.093832
1.1100945
1.125592
1.1392243
1.1502896
1.1586055
1.1642376
1.1674513
1.1688488
1.1691367
1.1687512
1.1680123
1.1671761
1.1663051
1.1654884
1.1645147
1.1633244
1.1623149
1.1617557
1.1614791
1.161338
1.1612971
1.1615412
1.1619972
1.1631966
1.1654573
1.1668204
1.1675733
1.167874
0.94122094
0.94183211
0.94787547
0.96622567
0.98654804
0.99249225
0.9904686
0.99399839
0.99392419
0.99749143
0.99912508
1.003381
1.0068433
1.0123944
1.0181213
1.0256902
1.0342548
1.0446689
1.0566233
1.0703875
1.0856047
1.1018169
1.11805
1.1331715
1.1461278
1.1563707
1.1638075
1.1684538
1.1707359
1.171411
1.1711631
1.1703022
1.1691916
1.1680662
1.1669696
1.1659806
1.1648385
1.1634979
1.1624347
1.1618555
1.1615819
1.1614506
1.1614145
1.1616634
1.1621598
1.163551
1.1657278
1.1670074
1.1677032
1.1679855
0.94506268
0.94573024
0.95223621
0.9726437
0.99093482
0.99635579
0.99438106
0.99801976
0.99804421
1.0017535
1.0035376
1.0079784
1.0116713
1.0174743
1.0235298
1.0314488
1.0404465
1.05132
1.0637797
1.0780256
1.0936406
1.1100396
1.1261445
1.1407797
1.152985
1.1623825
1.1688434
1.1724455
1.1738303
1.1738774
1.173071
1.1717622
1.1702985
1.1689032
1.1675978
1.1664466
1.1651387
1.1636558
1.1625523
1.1619597
1.1616907
1.1615696
1.1615382
1.1617898
1.1623485
1.1639274
1.1659835
1.1671788
1.1678216
1.1680884
0.94892663
0.94972936
0.95676191
0.97926508
0.9953043
1.0003768
0.99846354
1.0022213
1.0023474
1.0062034
1.0081471
1.0127811
1.016721
1.0227891
1.0291921
1.037481
1.0469316
1.0582827
1.0712588
1.0859806
1.1019566
1.1184637
1.1343297
1.1483728
1.159776
1.1682752
1.1736508
1.1761861
1.1767899
1.1762047
1.174863
1.1731269
1.1713325
1.1696865
1.1681895
1.1668849
1.1654138
1.1637991
1.162668
1.1620688
1.1618051
1.1616933
1.161666
1.1619199
1.1625612
1.1643123
1.1662289
1.1673377
1.1679291
1.1681818
0.95310098
0.95397213
0.96161666
0.98611423
0.99970738
1.0045813
1.0027263
1.0066033
1.0068322
1.0108386
1.012956
1.0177931
1.0219987
1.0283442
1.0351154
1.0437931
1.0537202
1.0655697
1.0790713
1.0942581
1.110545
1.1270669
1.1425747
1.1559316
1.1664978
1.1739814
1.1781918
1.1797168
1.1796102
1.1783899
1.1765359
1.1743981
1.1722944
1.1704176
1.168745
1.1672938
1.1656612
1.1639302
1.1627828
1.1621829
1.1619251
1.1618208
1.161796
1.1620544
1.1627938
1.1646951
1.1664666
1.1674877
1.168029
1.1682672
0.95737237
0.9583503
0.96672673
0.99303611
1.004094
1.0089356
1.0071406
1.0111454
1.0114918
1.0156645
1.017969
1.023022
1.0275077
1.0341473
1.0413066
1.0503987
1.0608235
1.0731879
1.0872184
1.1028459
1.1193775
1.1358034
1.1508337
1.1634286
1.1731053
1.1794275
1.182436
1.1830924
1.1822571
1.1804274
1.1780898
1.1755751
1.1731848
1.1710974
1.169264
1.167671
1.1658765
1.1640534
1.1628974
1.1623016
1.16205
1.1619514
1.1619276
1.1621958
1.1630443
1.1650702
1.1666952
1.1676304
1.1681251
1.1683487
0.9617934
0.96286433
0.97215228
0.99987688
1.008569
1.0134456
1.0117298
1.0158685
1.0163456
1.0206902
1.0231955
1.0284702
1.0332549
1.0402045
1.0477785
1.0573086
1.0682553
1.0811517
1.0957089
1.1117431
1.1284347
1.1446438
1.1590823
1.1708596
1.1795237
1.1845735
1.1864377
1.1862929
1.1847294
1.1823195
1.179527
1.1766604
1.174006
1.1717281
1.1697472
1.1680148
1.166056
1.1641739
1.1630128
1.1624245
1.1621791
1.1620848
1.1620611
1.1623456
1.1633162
1.1654303
1.1669121
1.1677649
1.1682156
1.1684256
0.96637335
0.96750886
0.97791811
1.0067526
1.0132375
1.0181283
1.0165028
1.0207818
1.0213955
1.0259169
1.0286348
1.0341405
1.0392464
1.0465297
1.0545454
1.064542
1.0760293
1.089468
1.1045392
1.1209276
1.1376758
1.153539
1.1672869
1.1781934
1.1856611
1.18938
1.1902529
1.189286
1.1870227
1.1840659
1.1808485
1.1776554
1.1747595
1.172311
1.1701946
1.1683242
1.1662046
1.1642897
1.163129
1.1625509
1.1623116
1.1622203
1.1621963
1.1625077
1.1636193
1.165766
1.1671137
1.167889
1.1682986
1.1684983
0.97112841
0.97230677
0.98406377
1.0136296
1.0180368
1.0230061
1.0214661
1.0258852
1.0266378
1.0313409
1.0342899
1.0400431
1.0454984
1.053141
1.061628
1.0721131
1.0841612
1.0981493
1.1137126
1.1303854
1.1470708
1.16246
1.1754351
1.1853524
1.1914753
1.1938979
1.1938646
1.1920696
1.1891413
1.1856713
1.1820586
1.1785637
1.1754488
1.1728488
1.1706074
1.1685997
1.1663274
1.1643998
1.1632461
1.1626803
1.1624465
1.1623566
1.1623324
1.1626885
1.1639667
1.1660654
1.167296
1.1680014
1.1683734
1.1685635
0.97617172
0.97735457
0.99060554
1.0204624
1.0229848
1.0280493
1.0265971
1.031163
1.0320716
1.0369676
1.0401757
1.0461985
1.0520336
1.0600611
1.0690433
1.0800422
1.0926636
1.107199
1.1232157
1.1400808
1.1565695
1.171364
1.1834986
1.1922388
1.196913
1.1981853
1.1972385
1.194641
1.1910859
1.1871381
1.1831597
1.1793878
1.1760764
1.1733435
1.1709861
1.1688413
1.1664277
1.1645039
1.1633637
1.1628114
1.1625828
1.162493
1.1624693
1.1628912
1.1643598
1.1663219
1.1674588
1.168102
1.1684398
1.168621
0.98143495
0.9825797
0.99752149
1.0271884
1.0280692
1.0332565
1.0319005
1.0366274
1.0377135
1.042824
1.0463192
1.0526347
1.0588748
1.0673105
1.0768118
1.0883431
1.1015506
1.1166249
1.1330402
1.1499869
1.1661391
1.180229
1.1914239
1.1987858
1.2020032
1.202248
1.2003656
1.1970051
1.1928631
1.1884725
1.1841571
1.1801322
1.1766463
1.1737981
1.1713318
1.1690476
1.1665082
1.1646028
1.1634815
1.1629431
1.1627198
1.1626309
1.16261
1.1631167
1.1647539
1.1665642
1.1676068
1.1681912
1.168497
1.1686712
0.98689083
0.98793907
1.0047727
1.0337865
1.0333008
1.0386412
1.0374025
1.0423077
1.043601
1.0489418
1.0527522
1.0593723
1.0660425
1.0749074
1.0849495
1.0970352
1.1108325
1.1264221
1.1431574
1.1600552
1.1757324
1.1890232
1.1991023
1.2049314
1.2068054
1.2060453
1.2032451
1.1991641
1.1944766
1.1896784
1.1850543
1.1808001
1.1771617
1.1742154
1.1716456
1.1692201
1.166571
1.1646971
1.1635989
1.1630743
1.1628574
1.1627718
1.1627572
1.1633642
1.1651419
1.1667916
1.1677407
1.1682696
1.1685464
1.1687132
0.99260995
0.99354535
1.0123697
1.040296
1.0387229
1.0442527
1.0431478
1.0482532
1.0497665
1.0553485
1.0594906
1.0664286
1.0735507
1.0828697
1.0934762
1.1061319
1.1205212
1.1365875
1.1535444
1.1702494
1.1853212
1.1977221
1.2064384
1.2106635
1.2113648
1.2095557
1.2058827
1.2011265
1.1959349
1.1907631
1.1858572
1.1813965
1.1776271
1.1745986
1.171931
1.1693708
1.1666195
1.1647877
1.1637157
1.163205
1.1629957
1.1629148
1.1629067
1.1636312
1.1655151
1.1670051
1.1678609
1.1683364
1.1685872
1.1687478
0.998591
0.99945485
1.0202835
1.0467611
1.0444025
1.050148
1.0491792
1.0544854
1.0562241
1.0620486
1.0665436
1.0738156
1.0814184
1.0912179
1.1024104
1.1156543
1.13062
1.1471015
1.1641552
1.1805177
1.1948608
1.2062127
1.2133632
1.21604
1.2156317
1.2127811
1.2082814
1.2028975
1.1972434
1.1917315
1.1865701
1.1819255
1.1780459
1.1749498
1.1721899
1.1695101
1.166659
1.1648756
1.163832
1.1633353
1.163134
1.1630579
1.1630589
1.1639202
1.1658668
1.1672025
1.1679668
1.1683896
1.1686162
1.1687718
1.0049236
1.0057687
1.0285156
1.0533608
1.0503886
1.0563245
1.0554839
1.0609888
1.0629692
1.0690459
1.0739235
1.0815544
1.0896669
1.0999759
1.1117763
1.1256135
1.141132
1.1579448
1.1749535
1.1908236
1.204326
1.2143915
1.2198232
1.2211404
1.2195759
1.2157269
1.2104513
1.2044875
1.1984113
1.1925912
1.187199
1.1823923
1.1784225
1.1752709
1.1724182
1.169595
1.1666993
1.1649623
1.1639478
1.1634651
1.163272
1.1631984
1.163223
1.1642427
1.1661858
1.1673788
1.1680567
1.1684294
1.168637
1.1687867
1.0114981
1.01246
1.0369289
1.0602454
1.0565735
1.0627231
1.0620336
1.0677593
1.0700147
1.0763588
1.0816539
1.0896704
1.0983246
1.1091693
1.1215933
1.1360258
1.1520465
1.1690785
1.1858836
1.2011143
1.2136392
1.2221504
1.225858
1.2259236
1.2231926
1.2183972
1.2123991
1.2059036
1.1994454
1.193348
1.187749
1.1828012
1.1787602
1.1755625
1.1726085
1.1696167
1.1667479
1.1650491
1.1640632
1.1635943
1.1634083
1.1633334
1.1634075
1.1646133
1.1664597
1.1675312
1.1681331
1.168463
1.1686528
1.1687952
1.0182557
1.0195476
1.0454306
1.0669579
1.0630014
1.0693841
1.0688722
1.0748264
1.077388
1.084018
1.0897643
1.0981956
1.1074178
1.1188243
1.1318828
1.1468938
1.163349
1.1804662
1.1969051
1.2113556
1.2226855
1.2294271
1.2315412
1.2303596
1.226489
1.2208033
1.2141373
1.2071576
1.2003559
1.1940104
1.1882266
1.1831574
1.1790632
1.1758268
1.1727608
1.1696178
1.1667957
1.165136
1.1641776
1.1637223
1.1635438
1.163467
1.1636198
1.1650104
1.1666933
1.167663
1.1681998
1.1684916
1.1686646
1.1687996
1.0252819
1.0272017
1.0540769
1.0737013
1.069719
1.0763464
1.076029
1.0822135
1.0851209
1.0920558
1.0982879
1.1071603
1.1169766
1.1289648
1.1426605
1.1582213
1.175008
1.1920508
1.2079596
1.2214914
1.2313303
1.2361943
1.2368955
1.2344179
1.2294686
1.2229532
1.2156751
1.2082586
1.2011508
1.1945845
1.1886366
1.183465
1.1793345
1.1760677
1.1728881
1.169612
1.1668421
1.1652221
1.1642908
1.163849
1.1636795
1.1636021
1.1638619
1.1653963
1.1669101
1.1677818
1.1682595
1.168516
1.1686737
1.1688021
1.032504
1.0353751
1.0627774
1.0808137
1.0767497
1.083628
1.0835296
1.0899676
1.0932498
1.100507
1.1072584
1.1165951
1.1270279
1.1396158
1.1539418
1.169994
1.1869889
1.2037862
1.2189982
1.2314185
1.2394889
1.2425247
1.2418747
1.2381124
1.2321446
1.2248619
1.217027
1.2092193
1.2018399
1.1950774
1.1889844
1.1837292
1.1795778
1.1762897
1.1730037
1.1696018
1.1668856
1.1653066
1.1644021
1.163975
1.1638172
1.1637413
1.1641228
1.165763
1.1671121
1.1678907
1.1683137
1.1685379
1.1686809
1.1688033
1.0400384
1.044215
1.0715885
1.0882809
1.0841248
1.0912671
1.0914121
1.0981133
1.1018062
1.1094053
1.1167019
1.1265319
1.1375996
1.150801
1.1657327
1.1821952
1.1992383
1.2156076
1.2299569
1.2409826
1.2470757
1.2485006
1.2464281
1.2414436
1.2345262
1.226541
1.2182043
1.2100488
1.202429
1.1954917
1.1892732
1.1839544
1.1797963
1.1764931
1.17308
1.1695814
1.1669249
1.1653884
1.1645117
1.164101
1.1639579
1.1638865
1.1644079
1.1661036
1.1672995
1.1679903
1.1683631
1.1685577
1.1686869
1.1688039
1.0478173
1.0537082
1.0804885
1.0959979
1.0918821
1.0992868
1.0997119
1.1066855
1.1108227
1.1187766
1.1266501
1.1369996
1.1487223
1.1625421
1.1780331
1.1947868
1.2117029
1.2274614
1.2407681
1.2500559
1.2541503
1.2540674
1.250568
1.2444274
1.2366314
1.2280078
1.2192219
1.2107576
1.2029241
1.1958325
1.1895087
1.1841458
1.1799937
1.1766757
1.1730989
1.1695545
1.1669591
1.1654669
1.1646205
1.1642285
1.1641023
1.1640391
1.1647074
1.1664108
1.1674685
1.1680782
1.1684054
1.1685754
1.1686929
1.1688041
1.0559265
1.0639422
1.0895552
1.1040912
1.1000633
1.1077262
1.1084593
1.1157031
1.1203226
1.1286505
1.1371339
1.1480354
1.1604273
1.1748541
1.1908272
1.2077256
1.2243142
1.239269
1.2512619
1.2585403
1.2607802
1.259178
1.2542939
1.2470737
1.2384738
1.2292754
1.2200893
1.2113512
1.2033312
1.1961107
1.1897013
1.1843064
1.1801719
1.1768351
1.1730937
1.1695195
1.1669872
1.1655422
1.1647298
1.1643596
1.1642526
1.1642027
1.1650312
1.1666742
1.167614
1.1681528
1.1684416
1.1685908
1.1686953
1.1688037
1.0642881
1.0749243
1.0988057
1.1125744
1.1086788
1.1165927
1.1176654
1.125187
1.130337
1.1390698
1.1481974
1.1596803
1.172745
1.1877425
1.2040875
1.2209448
1.2370082
1.2509641
1.2612915
1.2664211
1.2669856
1.2638131
1.2576231
1.2494035
1.240074
1.2303603
1.2208173
1.2118395
1.2036661
1.1963481
1.1898662
1.1844387
1.180332
1.1769719
1.1730765
1.1694742
1.1670081
1.1656159
1.164842
1.1644969
1.164411
1.1643805
1.1653873
1.1668856
1.1677353
1.1682123
1.1684675
1.1685995
1.1686958
1.1688025
1.0729022
1.086614
1.1082535
1.1214353
1.1177297
1.1259042
1.127364
1.1351829
1.1409182
1.1500896
1.1598913
1.1719776
1.1856983
1.2011997
1.2177652
1.2343793
1.2496959
1.2623998
1.2707162
1.2737616
1.272696
1.2679796
1.2605663
1.2514329
1.2414466
1.2312728
1.2214153
1.2122387
1.2039514
1.1965576
1.190002
1.1845459
1.1804751
1.177091
1.1730492
1.1694194
1.1670255
1.1656911
1.1649603
1.1646414
1.1645734
1.1645712
1.1657383
1.1670787
1.1678393
1.1682606
1.1684858
1.1686036
1.1686953
1.1688003
1.0817226
1.0989677
1.1179438
1.1307229
1.1272697
1.1357231
1.1376222
1.1457605
1.1521283
1.1617736
1.1722638
1.1849639
1.1992991
1.2151987
1.2317994
1.2479445
1.262293
1.2734011
1.2794615
1.2806501
1.2778668
1.2716922
1.2631474
1.253185
1.2426099
1.2320274
1.2219029
1.2125755
1.2042011
1.1967084
1.1900776
1.1846367
1.1806049
1.177202
1.1729982
1.1693636
1.1670426
1.1657717
1.1650861
1.1647904
1.1647296
1.1647845
1.1660686
1.1672528
1.1679315
1.1683049
1.1685038
1.1686053
1.1686911
1.168793
1.0908897
1.1118988
1.1279981
1.1405394
1.1373954
1.1461096
1.1485286
1.156982
1.1640348
1.1741742
1.1853635
1.198665
1.2135412
1.2296921
1.2461091
1.2615532
1.2746781
1.2837804
1.2875796
1.286992
1.2825078
1.274964
1.2653845
1.2546762
1.2435767
1.2326411
1.2223075
1.212865
1.2043823
1.1967867
1.1901196
1.1847185
1.1807264
1.1773122
1.1729082
1.1693204
1.1670655
1.1658592
1.1652164
1.1649379
1.164877
1.1650228
1.1663735
1.1674136
1.1680122
1.1683392
1.1685141
1.1686058
1.168682
1.1687797
1.100379
1.1256817
1.1384513
1.1509596
1.1481551
1.157135
1.1601401
1.1689239
1.1766913
1.1873501
1.199224
1.2130936
1.2283993
1.2446128
1.2606049
1.2750878
1.286646
1.2934325
1.295171
1.2927394
1.286632
1.2778216
1.2673044
1.2559288
1.2443685
1.2331434
1.2226521
1.2130802
1.2044797
1.1968248
1.1901426
1.1847833
1.1808416
1.1773969
1.1727926
1.1692886
1.1670967
1.1659525
1.1653485
1.1650836
1.1650187
1.165262
1.1666516
1.1675604
1.1680836
1.1683672
1.1685186
1.1686005
1.16867
1.1687639
1.1102725
1.1403355
1.1493867
1.16205
1.1596255
1.1688764
1.1725317
1.1816538
1.1901544
1.2013433
1.2138753
1.2282429
1.2438238
1.2598729
1.2751773
1.2884299
1.2979874
1.302368
1.3021664
1.2978819
1.290254
1.2802855
1.2689268
1.2569615
1.245012
1.2335631
1.2229142
1.2131991
1.2045278
1.1968409
1.1901539
1.1848289
1.1809468
1.1774376
1.1726653
1.1692652
1.1671355
1.1660491
1.1654809
1.1652293
1.1651586
1.1655253
1.1668915
1.1676894
1.1681452
1.1683906
1.1685205
1.1685931
1.1686565
1.1687464
1.1207073
1.1558351
1.1609855
1.1738944
1.1719047
1.1814027
1.1857738
1.1952358
1.2044682
1.2161932
1.2293257
1.2440876
1.2597431
1.2753653
1.2896977
1.3013608
1.3085535
1.3106792
1.3085046
1.3024383
1.293403
1.2823867
1.2702785
1.2578028
1.2455432
1.2339053
1.2230633
1.2132601
1.2045503
1.1968399
1.1901556
1.1848623
1.1810375
1.1774569
1.1725356
1.1692481
1.1671795
1.166147
1.1656139
1.1653791
1.1653043
1.1658376
1.1670827
1.1677957
1.1681948
1.1684092
1.168521
1.1685839
1.1686416
1.1687272
1.1318189
1.1720717
1.1733401
1.1865349
1.185045
1.1947716
1.1999158
1.2097235
1.2196756
1.2319232
1.2455794
1.2605753
1.2760574
1.2909631
1.3040127
1.3136515
1.3183104
1.3183363
1.314155
1.3064222
1.2961028
1.284149
1.2713839
1.2584839
1.2459767
1.2341092
1.22314
1.213289
1.2045514
1.1968223
1.1901465
1.1848898
1.1811147
1.1774656
1.1724095
1.1692354
1.1672264
1.1662457
1.1657494
1.165537
1.1654616
1.1661558
1.1672454
1.1678823
1.1682311
1.1684179
1.1685153
1.1685719
1.1686252
1.1687064
1.1441713
1.1890307
1.1864804
1.199954
1.1990771
1.2090236
1.2149918
1.2251708
1.2358202
1.2485615
1.2626062
1.277626
1.2926393
1.3065089
1.3179051
1.3250966
1.3273449
1.3252552
1.3191421
1.3098672
1.29839
1.2856065
1.2722807
1.2590405
1.2462795
1.2342189
1.2231784
1.2132926
1.2045334
1.1967888
1.1901275
1.1849154
1.1811856
1.1774648
1.1722903
1.1692258
1.1672757
1.1663465
1.1658898
1.1657041
1.1656306
1.1664513
1.1673903
1.1679542
1.1682586
1.1684216
1.1685075
1.1685589
1.1686078
1.1686844
1.1577886
1.2066712
1.2005857
1.2142655
1.2141575
1.2242008
1.231037
1.2416394
1.2529569
1.2661117
1.2803542
1.2951131
1.3093307
1.3218142
1.331098
1.3356455
1.3356429
1.3313954
1.323478
1.3128011
1.3002937
1.2867909
1.2730056
1.2594791
1.2464531
1.2342752
1.2231841
1.2132731
1.2044956
1.1967441
1.1901022
1.184939
1.1812429
1.1774577
1.1721787
1.1692186
1.1673285
1.1664521
1.1660367
1.1658792
1.1658098
1.1667126
1.1675201
1.1680157
1.1682812
1.1684231
1.1684976
1.1685442
1.1685892
1.1686609
1.1733914
1.2237108
1.2156896
1.2294954
1.2303732
1.2405152
1.2481934
1.2592227
1.271131
1.2845412
1.2987103