/*--------------------------------*- C++ -*----------------------------------*\
  =========                 |
  \\      /  F ield         | OpenFOAM: The Open Source CFD Toolbox
   \\    /   O peration     | Website:  https://openfoam.org
    \\  /    A nd           | Version:  8
     \\/     M anipulation  |
\*---------------------------------------------------------------------------*/
FoamFile
{
    version     2.0;
    format      ascii;
    class       surfaceVectorField;
    location    "0.170001";
    object      rhoUf;
}
// * * * * * * * * * * * * * * * * * * * * * * * * * * * * * * * * * * * * * //

dimensions      [1 -2 -1 0 0 0 0];

internalField   nonuniform List<vector> 
39600
(
(205.88677 0 -7.6490527)
(191.30415 3.1357386e-19 -7.7407679)
(191.77417 -1.3880623e-16 -6.9989274)
(232.69456 0 -8.6919786)
(222.94504 0 -8.7145848)
(222.84024 -1.7472117e-20 -7.8302182)
(253.46351 6.8999443e-17 -9.5452434)
(244.64822 -3.5829598e-19 -9.6557062)
(244.0727 -1.8609869e-20 -8.6542975)
(273.49387 2.2580491e-17 -10.419878)
(264.66659 7.4634825e-17 -10.551384)
(263.72185 1.4771479e-16 -9.4491152)
(294.21792 -7.2077861e-17 -11.382905)
(284.98594 -6.5301862e-17 -11.509109)
(283.71497 -6.9325557e-17 -10.304389)
(313.57217 -7.6801911e-21 -12.382118)
(306.51686 -5.9173869e-17 -12.565353)
(304.82701 -5.1848826e-17 -11.257224)
(324.90695 0 -12.928256)
(322.91708 5.1755511e-17 -13.654168)
(322.40881 4.4937509e-17 -12.320078)
(326.69451 -3.1940034e-17 -12.981362)
(327.29841 0 -13.409228)
(327.4224 0 -12.134364)
(326.26932 -1.2572316e-17 -12.934424)
(325.75264 2.4009114e-18 -13.903702)
(325.90129 -6.8942746e-17 -12.582563)
(326.37844 3.1525559e-17 -12.916275)
(326.72449 -1.0032003e-18 -13.21173)
(326.8141 2.9478162e-17 -11.943698)
(326.11675 7.771416e-19 -12.882095)
(325.84765 -7.8349409e-20 -13.943314)
(325.93805 2.3441016e-17 -12.629774)
(326.11991 -3.0841038e-17 -12.860324)
(326.34177 0 -13.135238)
(326.40461 -3.7200122e-20 -11.873627)
(325.91853 -3.7113928e-17 -12.828658)
(325.78376 -3.3537377e-17 -13.853855)
(325.85095 -1.9132271e-17 -12.563393)
(325.85405 -1.3257431e-19 -12.799169)
(326.00392 -7.2717892e-20 -13.134782)
(326.05956 -1.3488897e-17 -11.884926)
(325.67014 1.7575002e-17 -12.762142)
(325.61489 -7.0624519e-20 -13.683607)
(325.66998 -7.3421499e-20 -12.42666)
(325.54504 3.7988974e-17 -12.723891)
(325.66717 1.4222489e-17 -13.150404)
(325.71479 2.0189871e-17 -11.920802)
(325.33503 5.1126794e-18 -12.681413)
(325.34954 1.6139577e-17 -13.490105)
(325.39075 1.8756903e-17 -12.268004)
(325.13984 -1.8125462e-17 -12.639851)
(325.26634 -1.2903131e-17 -13.145346)
(325.30285 -1.7172984e-17 -11.941258)
(324.87894 0 -12.597319)
(324.95918 0 -13.312055)
(324.98458 -3.5999563e-19 -12.123756)
(324.5992 -1.741715e-17 -12.552958)
(324.75392 0 -13.107748)
(324.76905 6.1126093e-19 -11.933177)
(324.2488 -9.2578427e-18 -12.507112)
(324.40134 -6.9697915e-18 -13.160667)
(324.4083 -1.938201e-17 -12.002957)
(323.84644 4.4027603e-18 -12.453141)
(324.05616 1.2890696e-17 -13.035259)
(324.05725 1.2609032e-17 -11.889497)
(323.35732 1.2485542e-17 -12.383958)
(323.59311 -1.0795719e-17 -13.013503)
(323.5915 -1.0390942e-17 -11.88117)
(322.77691 2.3008339e-17 -12.282423)
(323.06796 4.5270232e-17 -12.902902)
(323.06777 2.5290473e-17 -11.778078)
(322.07564 -9.475569e-18 -12.123885)
(322.4132 -1.4844286e-17 -12.790566)
(322.42025 -6.7414189e-18 -11.675388)
(321.2698 -1.0873288e-17 -11.876187)
(321.63647 -1.5241414e-18 -12.5767)
(321.65699 2.535607e-18 -11.468476)
(320.28617 1.1260164e-17 -11.529334)
(320.6818 -1.0103825e-17 -12.296557)
(320.69941 -1.2224797e-17 -11.191367)
(319.08305 3.8345698e-17 -11.013802)
(319.61796 7.6606029e-18 -11.854889)
(319.66467 2.089046e-17 -10.779019)
(317.75958 3.3209661e-17 -10.287134)
(318.35766 2.582468e-17 -11.178108)
(318.42944 1.2312611e-17 -10.17754)
(316.34994 5.9530353e-19 -9.3698887)
(316.97024 -1.1596233e-17 -10.280974)
(317.06007 1.6467034e-17 -9.3810302)
(314.9034 -1.521332e-17 -8.305933)
(315.52179 -2.6428206e-17 -9.2052855)
(315.61954 -1.541041e-17 -8.4218681)
(313.48906 1.7470086e-17 -7.1660117)
(314.07824 1.5704235e-17 -8.0143088)
(314.17398 1.1324638e-17 -7.3536941)
(312.17406 1.5649581e-17 -6.0215459)
(312.71028 0 -6.7926498)
(312.79682 0 -6.2525177)
(311.00819 -4.7309037e-18 -4.9326656)
(311.47696 1.7435819e-17 -5.6104663)
(311.54965 1.0527082e-17 -5.1811365)
(310.02327 -5.7714421e-17 -3.9399677)
(310.41169 -1.3157217e-17 -4.5155601)
(310.47002 -1.4999923e-17 -4.1832403)
(309.2086 -2.0540101e-17 -3.0667728)
(309.52849 5.0773236e-19 -3.5520737)
(309.57236 -1.5858339e-17 -3.3002895)
(308.53322 7.615487e-18 -2.3071985)
(308.7908 1.5743444e-17 -2.7091633)
(308.82126 3.644664e-18 -2.5236501)
(307.98589 -1.1881977e-17 -1.6424765)
(308.18843 -2.3119427e-17 -1.9799085)
(308.21074 -1.0727434e-17 -1.8475967)
(307.56225 -4.6454874e-17 -1.0088699)
(307.69041 1.7113148e-16 -1.3913846)
(307.71421 -5.0844495e-18 -1.297701)
(307.19762 -1.2899659e-16 -0.48287312)
(307.2958 4.5388889e-19 -0.89226433)
(307.30971 -1.7897082e-17 -0.82718928)
(306.85232 -8.7779529e-17 -0.11331381)
(306.96848 -9.7098311e-18 -0.4208539)
(306.96506 -2.1780074e-17 -0.3762843)
(306.56838 -7.5899202e-17 0.21255137)
(306.70193 -1.1636514e-16 0.025516437)
(306.69134 0 0.055994292)
(306.33797 -1.6513273e-16 0.55825391)
(306.46278 1.7132421e-16 0.40948031)
(306.45744 -2.0261826e-17 0.4301014)
(306.08804 -3.4649618e-17 0.73585651)
(306.23749 -1.5906987e-17 0.7224796)
(306.2212 -1.655174e-17 0.73668987)
(305.88804 6.470251e-17 0.90525536)
(306.03454 3.1501224e-19 0.95712714)
(306.025 1.0859767e-17 0.97079747)
(305.73895 -4.6059627e-17 1.0619622)
(305.82439 8.5840385e-18 1.0721028)
(305.81579 0 1.0854976)
(305.64889 -2.2346238e-17 1.3440928)
(305.6318 -1.0940931e-16 1.0284044)
(305.653 -7.7223834e-18 1.0440407)
(305.49812 4.3248215e-17 0.66893183)
(305.43244 8.1625023e-19 0.83316502)
(305.39689 5.3059175e-18 0.84599357)
(305.42068 0 1.0683066)
(305.48752 -6.2574658e-17 0.49365715)
(305.52225 4.9389371e-22 0.53017927)
(304.97143 6.1242208e-18 0.013352056)
(304.93265 0 0.039843195)
(205.7931 3.3686788e-19 -8.4604577)
(191.42075 6.1956181e-19 -8.5000341)
(233.04051 -3.2205404e-19 -9.62116)
(223.48489 -4.4994068e-19 -9.6284876)
(254.14373 -6.5849925e-19 -10.570477)
(245.56047 -9.2468196e-17 -10.692316)
(274.42502 -3.266136e-19 -11.534476)
(265.8433 8.0334747e-17 -11.688773)
(295.44615 -5.3179364e-17 -12.586384)
(286.3777 0 -12.746735)
(314.48704 -1.7245672e-17 -13.639664)
(308.26732 -1.1864194e-16 -13.902173)
(325.00826 5.5774516e-17 -14.178753)
(323.37481 1.0129522e-16 -15.006871)
(326.56834 3.33452e-17 -14.246368)
(327.2777 0 -14.705135)
(326.16513 1.3961908e-17 -14.217191)
(325.68528 3.5095692e-17 -15.251639)
(326.29602 -3.1938583e-17 -14.209637)
(326.66784 -2.8295074e-17 -14.497192)
(326.04466 -8.4336816e-19 -14.1764)
(325.76045 -7.6390135e-19 -15.282261)
(326.05929 0 -14.150098)
(326.26512 0 -14.409604)
(325.86234 0 -14.107175)
(325.69419 0 -15.164579)
(325.80315 0 -14.063871)
(325.92547 -3.2834824e-17 -14.396302)
(325.62357 -4.4943826e-18 -14.013527)
(325.53714 1.8217433e-17 -14.961329)
(325.50624 -7.2883517e-18 -13.959696)
(325.60091 5.2399502e-18 -14.397663)
(325.30503 8.7004865e-19 -13.906172)
(325.29222 -1.0467819e-17 -14.73772)
(325.12147 3.7777345e-18 -13.847488)
(325.22101 1.0433543e-17 -14.374497)
(324.86846 0 -13.791357)
(324.9239 0 -14.53087)
(324.59695 1.0802985e-17 -13.731993)
(324.72571 0 -14.312754)
(324.25436 1.3056829e-17 -13.672339)
(324.38153 1.9964299e-17 -14.35133)
(323.85812 0 -13.604776)
(324.04176 -1.3445874e-17 -14.214736)
(323.37281 1.655038e-17 -13.526266)
(323.58333 1.1272545e-17 -14.18189)
(322.79203 1.3342719e-17 -13.418413)
(323.05707 2.7599176e-17 -14.0658)
(322.08453 -8.2072216e-18 -13.257168)
(322.39601 -6.8928895e-17 -13.950387)
(321.2334 0 -13.000428)
(321.60528 0 -13.743739)
(320.21183 -1.5270537e-17 -12.641205)
(320.64629 1.0574178e-17 -13.453099)
(319.02579 -6.3337709e-18 -12.076133)
(319.54514 4.3569078e-17 -12.958124)
(317.69695 -1.4822382e-17 -11.261205)
(318.25531 1.363665e-17 -12.198188)
(316.27394 -3.6829234e-17 -10.23742)
(316.85053 5.8046422e-17 -11.196341)
(314.82576 0 -9.0549469)
(315.39493 0 -10.000641)
(313.41895 0 -7.793119)
(313.95564 0 -8.6848862)
(312.11791 0 -6.5321605)
(312.60026 -9.1925254e-17 -7.3420493)
(310.96768 1.2208043e-17 -5.3375814)
(311.38429 0 -6.0492224)
(309.99194 4.3146424e-17 -4.2538818)
(310.33786 2.7511625e-17 -4.8576136)
(309.18003 3.4897276e-17 -3.3053061)
(309.47281 2.0747703e-17 -3.8136225)
(308.50868 -1.0650703e-17 -2.4821621)
(308.75092 0 -2.9049369)
(307.97033 1.3762978e-16 -1.7464791)
(308.15617 -2.0527072e-16 -2.1215849)
(307.55138 2.373731e-16 -1.0907987)
(307.66258 7.3343559e-18 -1.4919847)
(307.20339 1.2128356e-16 -0.57101008)
(307.281 -1.4770922e-16 -0.96321079)
(306.8875 -2.6312833e-17 -0.16946975)
(306.96731 6.8888689e-17 -0.47180207)
(306.60677 9.8315043e-17 0.17848265)
(306.70944 -1.4175886e-17 -0.0117216)
(306.37197 3.4166735e-16 0.53322974)
(306.46747 9.6165026e-17 0.38295676)
(306.13681 1.8542989e-17 0.75226277)
(306.24987 7.8754919e-17 0.70329188)
(305.91853 -5.5814366e-17 0.89998669)
(306.04498 3.2337715e-16 0.94007552)
(305.74286 -4.1824464e-17 1.0433546)
(305.8316 2.6468208e-16 1.0528502)
(305.56209 -9.8898436e-17 0.97738729)
(305.63737 4.3524828e-17 1.0111798)
(305.44297 -9.901522e-17 0.65360576)
(305.446 -3.89059e-17 0.82185945)
(305.34976 -7.4511257e-17 0.98114756)
(305.45702 -1.992129e-18 0.46003907)
(305.00592 -8.8268436e-17 -0.024047506)
(206.45505 -6.7163597e-20 -9.330232)
(191.87464 -3.3600937e-19 -9.3058853)
(234.10876 -8.3292232e-17 -10.639987)
(224.41419 1.8278989e-20 -10.603164)
(255.48332 -2.6770291e-17 -11.706815)
(246.7748 3.5997604e-18 -11.787584)
(275.95292 8.6875448e-17 -12.77948)
(267.25415 -3.49171e-18 -12.888929)
(297.19559 -5.4716229e-17 -13.942243)
(287.90806 -6.9786936e-17 -14.050523)
(315.75592 -1.9981274e-17 -15.061868)
(310.0895 -5.8529961e-17 -15.302687)
(325.2598 5.4706691e-17 -15.577263)
(323.71637 1.0163802e-16 -16.400319)
(326.51962 -1.022789e-18 -15.620005)
(327.16812 -2.727403e-18 -16.033731)
(326.09131 -1.2268511e-18 -15.570625)
(325.53917 -1.1114727e-18 -16.619256)
(326.21578 0 -15.545098)
(326.54365 0 -15.794379)
(325.9568 0 -15.49435)
(325.6241 0 -16.6278)
(325.97168 0 -15.452771)
(326.15123 0 -15.693498)
(325.7753 -2.9490895e-17 -15.397847)
(325.57885 -3.5298718e-17 -16.485801)
(325.72321 -1.9061074e-17 -15.344192)
(325.82785 9.4359059e-19 -15.676618)
(325.55124 2.8763249e-17 -15.284139)
(325.44522 -5.8832234e-19 -16.260469)
(325.44377 3.3869893e-18 -15.221529)
(325.52291 3.5337917e-17 -15.674561)
(325.25348 -2.8000698e-18 -15.157423)
(325.22402 3.1226293e-19 -16.016649)
(325.0817 7.5853673e-18 -15.089462)
(325.1636 -1.4402098e-17 -15.640411)
(324.84075 0 -15.021712)
(324.88022 1.1859049e-17 -15.788063)
(324.5793 7.3194861e-18 -14.95022)
(324.69271 -9.8106558e-18 -15.560732)
(324.2456 -3.1937706e-18 -14.879115)
(324.35946 -2.4809689e-17 -15.587895)
(323.85559 -4.4892095e-18 -14.80091)
(324.02613 2.7601567e-17 -15.445625)
(323.37245 2.0706323e-17 -14.716742)
(323.57397 1.1051894e-17 -15.406702)
(322.7868 -4.473953e-17 -14.607311)
(323.04651 9.2819192e-18 -15.290813)
(322.06783 -6.6939968e-17 -14.446915)
(322.37748 -7.6024189e-17 -15.180504)
(321.21132 9.4455569e-18 -14.180585)
(321.56419 -5.1830535e-17 -14.982892)
(320.15652 6.545272e-17 -13.80824)
(320.59965 -3.2369319e-17 -14.659837)
(318.91821 6.6000789e-17 -13.151925)
(319.44553 1.5821854e-17 -14.08491)
(317.56096 8.128048e-17 -12.238187)
(318.12409 -1.2830542e-16 -13.228768)
(316.12518 9.9953141e-17 -11.097773)
(316.7005 -1.4037246e-17 -12.111137)
(314.67533 0 -9.7898465)
(315.23885 1.5770094e-16 -10.787936)
(313.2779 -8.1728416e-17 -8.4027249)
(313.80649 0 -9.3432642)
(311.99331 -1.0125559e-16 -7.0246774)
(312.46731 1.9219066e-18 -7.8781429)
(310.86335 1.2318992e-17 -5.7259638)
(311.27236 0 -6.4755876)
(309.90995 5.9390823e-18 -4.5536689)
(310.24849 2.7765531e-17 -5.1892823)
(309.11989 -1.1683076e-17 -3.5325541)
(309.40499 -2.1123694e-17 -4.0669582)
(308.46193 -1.7127115e-16 -2.6494277)
(308.70188 0 -3.0953661)
(307.93809 -3.5826192e-16 -1.8481791)
(308.11557 1.4305838e-17 -2.2596191)
(307.52725 -3.5905792e-16 -1.1665765)
(307.63036 1.1929323e-16 -1.5886034)
(307.18207 -2.2323094e-16 -0.63792815)
(307.26416 -2.1361778e-16 -1.0305822)
(306.872 9.0332344e-17 -0.22467031)
(306.96409 9.9124845e-18 -0.5201762)
(306.60159 -2.884179e-17 0.14750638)
(306.71453 -1.3142909e-16 -0.047817078)
(306.36984 -1.6477689e-16 0.50693793)
(306.47123 -1.8192149e-16 0.35694673)
(306.1462 3.5582052e-16 0.75414725)
(306.25971 -2.0388278e-16 0.68365643)
(305.93044 6.5112134e-16 0.90956036)
(306.05375 -9.0393995e-18 0.92241483)
(305.75109 3.7566938e-16 1.028359)
(305.83748 -2.8590048e-16 1.035736)
(305.56025 1.1297393e-16 0.92050107)
(305.64499 -9.2747648e-17 0.99334159)
(305.45384 5.5344647e-17 0.63657183)
(305.4564 -9.4063252e-18 0.80715772)
(305.35677 -1.2458991e-17 0.87600759)
(305.42682 6.9554086e-17 0.42607187)
(305.03646 -8.0471699e-18 -0.058629381)
(206.89471 -2.7950587e-19 -10.213858)
(192.28119 3.3063634e-16 -10.112719)
(235.00609 8.4580158e-17 -11.675078)
(225.31632 4.7272364e-19 -11.569819)
(256.65765 2.6876441e-17 -12.853771)
(247.94815 -3.7945877e-18 -12.865947)
(277.3057 -1.5132072e-16 -14.026114)
(268.59949 -7.774318e-17 -14.064706)
(298.76423 -7.438326e-17 -15.284478)
(289.33939 -6.9243365e-17 -15.325327)
(316.80949 4.7776891e-17 -16.436188)
(311.73962 -1.0148431e-18 -16.666407)
(325.32901 5.3669204e-17 -16.916737)
(323.89628 4.9215757e-17 -17.748203)
(326.37423 -2.9398847e-18 -16.941963)
(327.00146 4.1488473e-17 -17.327737)
(325.94696 0 -16.885563)
(325.36369 2.3397631e-18 -17.968616)
(326.08355 0 -16.856094)
(326.40464 -2.6801959e-17 -17.082999)
(325.82932 0 -16.803182)
(325.4794 5.1149239e-17 -17.977867)
(325.85701 -3.1709616e-17 -16.760608)
(326.03143 -4.252483e-17 -16.989328)
(325.66847 -8.4381741e-18 -16.703629)
(325.45826 -4.3334273e-17 -17.827052)
(325.62694 1.9127096e-17 -16.648001)
(325.72308 3.2277511e-17 -16.983048)
(325.4648 2.9604651e-18 -16.584956)
(325.34582 -5.6884526e-18 -17.59032)
(325.36965 3.5139983e-17 -16.518641)
(325.43504 3.5155407e-17 -16.98721)
(325.19298 -9.849385e-18 -16.449034)
(325.14796 -2.5947532e-17 -17.334414)
(325.03243 -1.2353329e-17 -16.373029)
(325.09873 7.8047979e-18 -16.949537)
(324.80352 4.0400518e-18 -16.297085)
(324.82641 3.5362915e-17 -17.091105)
(324.55348 -4.0028123e-17 -16.217584)
(324.64779 -9.6050378e-18 -16.8604)
(324.23025 9.7000976e-19 -16.141672)
(324.32608 -1.5548465e-17 -16.882376)
(323.84829 4.4235032e-17 -16.058525)
(323.99793 1.2356255e-17 -16.743399)
(323.36855 0 -15.976906)
(323.55363 1.1513769e-17 -16.707969)
(322.77981 -1.3997206e-17 -15.873136)
(323.02457 -9.448436e-18 -16.601198)
(322.06741 -6.3379065e-17 -15.704173)
(322.34 1.629294e-17 -16.502338)
(321.16321 -9.4699521e-17 -15.455065)
(321.51841 1.4911626e-18 -16.294775)
(320.04611 -8.5622396e-17 -14.997607)
(320.51101 1.1281603e-18 -15.905004)
(318.79156 -1.6213769e-16 -14.245119)
(319.31037 -4.2966146e-17 -15.232911)
(317.40988 -2.3313851e-16 -13.223363)
(317.95925 -1.0788481e-17 -14.26913)
(315.96085 2.6432151e-17 -11.957547)
(316.51703 -1.0260491e-16 -13.024932)
(314.51205 1.7320154e-16 -10.518629)
(315.05171 5.5116922e-18 -11.567009)
(313.12765 8.2577411e-17 -9.0038507)
(313.62982 -1.500161e-17 -9.9898701)
(311.86366 1.0235455e-16 -7.5086667)
(312.31097 9.1837066e-17 -8.4018948)
(310.75742 1.2428124e-17 -6.107196)
(311.14121 9.0997456e-18 -6.8908739)
(309.82704 6.0070875e-18 -4.8482088)
(310.14392 1.3890509e-17 -5.5120604)
(309.05747 -1.1780756e-17 -3.7565492)
(309.32538 -1.0568142e-17 -4.3138072)
(308.41467 1.830013e-16 -2.8153926)
(308.64373 0 -3.2820802)
(307.90402 4.7827782e-16 -1.9581227)
(308.06789 2.0552954e-16 -2.3955078)
(307.50352 3.00209e-16 -1.2470874)
(307.59576 -1.1484884e-17 -1.6831161)
(307.17042 -6.8542011e-18 -0.70545975)
(307.24497 2.0231662e-16 -1.0963425)
(306.87334 -1.9557238e-16 -0.27751169)
(306.95852 -3.0796952e-16 -0.5676729)
(306.60972 -2.7862983e-16 0.11509388)
(306.71657 -2.3299849e-16 -0.083802846)
(306.36994 -2.1807021e-16 0.45342083)
(306.47627 -3.4207895e-16 0.33023611)
(306.15183 -5.9332717e-16 0.71294953)
(306.26799 -7.9465523e-19 0.66284919)
(305.95372 -9.1919313e-16 0.93138776)
(306.05829 -7.6004435e-16 0.90337891)
(305.75848 -7.7912071e-16 1.0100145)
(305.84358 -5.3731595e-16 1.0165079)
(305.56666 -2.2567188e-16 0.90155606)
(305.65245 2.0255104e-16 0.97527228)
(305.43597 -3.9740498e-18 0.61804256)
(305.46701 -3.0674071e-16 0.78994754)
(305.32727 8.7669354e-17 0.7726735)
(305.39925 7.2239513e-18 0.39207817)
(305.06239 8.8691093e-17 -0.091130202)
(208.08066 3.5633268e-16 -11.107074)
(193.10525 3.23489e-16 -10.95947)
(236.39449 -8.5495155e-17 -12.688578)
(226.51784 2.511757e-20 -12.57521)
(258.16829 -1.0022257e-16 -13.963871)
(249.35399 -9.2895107e-17 -13.981291)
(278.87618 1.7460731e-18 -15.228453)
(270.12552 1.1882039e-18 -15.272885)
(300.39745 -2.8934016e-18 -16.586998)
(290.91414 4.6857982e-20 -16.632926)
(317.83875 -3.521545e-18 -17.776576)
(313.39404 7.9340541e-20 -18.057104)
(325.39293 3.7919643e-17 -18.235813)
(324.09781 -3.2337101e-18 -19.118061)
(326.23692 4.9697176e-17 -18.262325)
(326.88957 4.5911172e-17 -18.643143)
(325.8101 -2.1561507e-17 -18.209993)
(325.22312 7.414898e-17 -19.343486)
(325.95101 1.7060541e-17 -18.186574)
(326.28276 -9.1703876e-17 -18.395171)
(325.70046 1.6973304e-17 -18.135679)
(325.34103 1.0147043e-16 -19.354448)
(325.73421 -5.3818545e-17 -18.094852)
(325.91063 -1.272741e-16 -18.312352)
(325.55113 -9.5417901e-18 -18.039529)
(325.33338 2.711892e-17 -19.197501)
(325.51885 1.1039505e-17 -17.984496)
(325.6124 7.4261059e-18 -18.321937)
(325.36589 2.2513849e-17 -17.922502)
(325.23973 -2.5343815e-17 -18.953731)
(325.28123 -1.9681655e-17 -17.854464)
(325.33893 3.0736326e-17 -18.337394)
(325.11457 -1.1420863e-17 -17.782493)
(325.05954 -5.0773838e-17 -18.691979)
(324.96563 5.2240289e-17 -17.703623)
(325.01915 2.798211e-17 -18.304164)
(324.74886 2.5711327e-17 -17.624918)
(324.75956 2.3111121e-17 -18.444692)
(324.51101 1.4857378e-17 -17.543333)
(324.59057 1.9975419e-17 -18.21982)
(324.19841 -6.7444262e-18 -17.47358)
(324.28491 6.630448e-17 -18.246308)
(323.82451 -1.9627206e-17 -17.395336)
(323.95905 -6.862548e-17 -18.122612)
(323.34918 4.0531187e-18 -17.328788)
(323.525 5.7560236e-17 -18.1036)
(322.77592 1.8003336e-17 -17.221434)
(322.98409 -8.6342328e-17 -18.013654)
(322.03369 8.1231516e-17 -17.071652)
(322.29533 4.7200319e-17 -17.914854)
(321.06207 9.5672227e-17 -16.775821)
(321.44736 -6.7878102e-17 -17.658257)
(319.91379 4.7159578e-17 -16.207003)
(320.38406 4.2505022e-17 -17.177163)
(318.62438 1.0316547e-16 -15.355346)
(319.14178 1.6219746e-16 -16.401482)
(317.21711 1.2667793e-16 -14.211269)
(317.7594 8.4731421e-17 -15.315143)
(315.75705 -1.337982e-16 -12.810286)
(316.29964 1.1775666e-17 -13.932897)
(314.31247 -1.7843634e-16 -11.234493)
(314.83354 -3.0094258e-16 -12.332961)
(312.9451 -1.6572804e-17 -9.5898435)
(313.42612 -1.4839324e-17 -10.620097)
(311.70587 7.9894433e-18 -7.9779671)
(312.13202 -1.0959992e-19 -8.9091988)
(310.62767 1.0047086e-17 -6.4756998)
(310.99163 9.0205938e-18 -7.2915567)
(309.72542 0 -5.132623)
(310.02469 1.424344e-17 -5.822982)
(308.98157 0 -3.9733037)
(309.23442 3.1429513e-16 -4.5516974)
(308.35677 0 -2.9767038)
(308.57726 1.6342641e-17 -3.4630181)
(307.86271 -2.5792153e-16 -2.0623593)
(308.01291 -3.9293534e-16 -2.5277669)
(307.4728 -1.3269522e-16 -1.3295967)
(307.55814 -2.901897e-16 -1.7743879)
(307.15032 -4.1522944e-17 -0.77172286)
(307.22349 6.6116492e-16 -1.1597997)
(306.86416 -3.537605e-16 -0.32774831)
(306.95034 -3.2723373e-16 -0.61404861)
(306.60988 -2.8407156e-16 0.083037951)
(306.71622 2.3355094e-16 -0.11939286)
(306.36919 -1.637817e-16 0.41457509)
(306.48003 2.0862096e-17 0.3032862)
(306.14873 -8.035101e-17 0.66581738)
(306.27506 2.3519948e-16 0.64120175)
(305.96863 -4.0191485e-16 0.94359149)
(306.0621 -1.4212074e-17 0.88290224)
(305.76562 3.6484277e-16 0.99097801)
(305.84976 1.69663e-17 0.99671135)
(305.57468 1.7948097e-16 0.88118309)
(305.65955 2.1056222e-16 0.95705162)
(305.4349 -3.3155321e-16 0.59884779)
(305.47758 2.7753902e-16 0.76982064)
(305.31506 -1.2163092e-18 0.64929599)
(305.37494 0 0.35831645)
(305.08278 -1.6994137e-16 -0.12140312)
(208.94932 0 -12.057637)
(193.94306 1.6833684e-16 -11.834242)
(237.66047 0 -13.790651)
(227.71555 9.3448028e-19 -13.610968)
(259.60945 -1.1559895e-18 -15.172879)
(250.72288 0 -15.129993)
(280.41663 -3.8165024e-19 -16.530424)
(271.60225 -1.2558396e-18 -16.51306)
(301.97621 2.9447974e-18 -17.980377)
(292.44074 3.3329996e-18 -17.976693)
(318.78017 6.1524551e-19 -19.18972)
(314.91148 3.8348565e-18 -19.476833)
(325.42344 7.3871038e-19 -19.613146)
(324.20728 1.7534588e-18 -20.511383)
(326.10189 6.7593891e-17 -19.627515)
(326.74354 5.0276767e-17 -19.978564)
(325.66686 1.8608861e-17 -19.571402)
(325.05981 3.2895395e-17 -20.742673)
(325.81095 -2.437998e-17 -19.547195)
(326.14552 -1.3007938e-16 -19.729468)
(325.55982 -2.1458155e-17 -19.49696)
(325.19205 1.0209688e-16 -20.756847)
(325.60132 -6.0341737e-17 -19.458674)
(325.78143 -8.9154428e-17 -19.662078)
(325.42401 4.5258804e-17 -19.405831)
(325.20071 4.3981797e-17 -20.596688)
(325.4003 -2.5531859e-17 -19.353855)
(325.49274 2.9798238e-17 -19.691988)
(325.25461 -2.1799776e-17 -19.294411)
(325.12352 -6.1518656e-17 -20.34862)
(325.17814 6.8758807e-18 -19.229195)
(325.22989 4.114638e-17 -19.722281)
(325.02236 -1.8620613e-17 -19.159022)
(324.95767 -3.4122888e-17 -20.08778)
(324.88542 -1.1771714e-19 -19.081675)
(324.9258 -1.4570264e-17 -19.706227)
(324.68186 1.7768625e-17 -19.010781)
(324.68275 -3.6537964e-17 -19.854663)
(324.45748 6.6508253e-17 -18.936578)
(324.52018 -4.1057798e-17 -19.647536)
(324.15804 1.703774e-17 -18.885702)
(324.23367 1.5269129e-17 -19.691574)
(323.79658 -3.7074622e-18 -18.828181)
(323.90786 -1.2579093e-17 -19.594544)
(323.34667 -1.8689759e-17 -18.769433)
(323.4741 4.5274708e-17 -19.601461)
(322.74951 -6.9402862e-17 -18.688785)
(322.93018 8.0765258e-17 -19.520252)
(321.92286 -8.9094013e-17 -18.507863)
(322.2216 3.2224623e-17 -19.385877)
(320.91415 -1.3018093e-16 -18.106677)
(321.32167 -1.3079858e-16 -19.052723)
(319.74854 1.4475346e-16 -17.443785)
(320.21539 8.9021246e-17 -18.475517)
(318.42252 1.5125246e-16 -16.477476)
(318.93337 1.3830766e-17 -17.585024)
(316.99078 -2.1614845e-17 -15.197635)
(317.52039 -2.892384e-17 -16.361174)
(315.52225 -1.2283721e-16 -13.651896)
(316.04593 1.1627212e-17 -14.829773)
(314.08596 -1.6758481e-16 -11.933917)
(314.58333 3.4816704e-18 -13.081168)
(312.74021 0 -10.157848)
(313.19524 0 -11.230063)
(311.53027 0 -8.4303567)
(311.93077 0 -9.396889)
(310.48405 1.2639777e-17 -6.8298293)
(310.82419 -1.8690024e-17 -7.6751157)
(309.6129 2.9442654e-16 -5.4057543)
(309.89141 2.8418712e-17 -6.1201053)
(308.89695 3.6269873e-16 -4.1817997)
(309.13261 -3.6772688e-17 -4.7792576)
(308.29583 -3.2991347e-16 -3.1212393)
(308.50181 3.2749921e-17 -3.6368473)
(307.8149 -4.3635604e-16 -2.1660203)
(307.95195 -8.8179375e-18 -2.6554483)
(307.4373 3.948725e-16 -1.4143314)
(307.51738 2.7510341e-16 -1.8620441)
(307.13099 4.8815779e-16 -0.83571621)
(307.19949 2.4940961e-17 -1.2207588)
(306.85694 1.957336e-16 -0.37624986)
(306.94036 3.2881219e-16 -0.65923656)
(306.61118 5.6293795e-16 0.051023782)
(306.71352 2.3346687e-16 -0.154513)
(306.37771 3.9488235e-16 0.39966215)
(306.48125 3.3141278e-16 0.27611429)
(306.15729 3.3057746e-16 0.65213516)
(306.28053 5.1380875e-16 0.61910246)
(305.97342 4.0267121e-16 0.9239224)
(306.06561 3.0475091e-18 0.86115443)
(305.77117 -1.611297e-16 0.97108285)
(305.85466 2.74918e-16 0.97598627)
(305.58198 3.0207528e-16 0.85982348)
(305.66636 -1.8694121e-16 0.93874899)
(305.42954 6.4546924e-16 0.57782436)
(305.48694 2.8543674e-16 0.74684757)
(305.29744 -1.51827e-16 0.530047)
(305.35399 2.1698589e-16 0.32445896)
(305.098 -1.7201263e-16 -0.14923757)
(210.09621 1.8189548e-16 -13.007996)
(194.85867 3.3432168e-16 -12.728386)
(238.99853 1.0069842e-18 -14.872509)
(228.95327 -3.9577912e-20 -14.663365)
(261.05921 0 -16.354278)
(252.10346 0 -16.294286)
(281.93793 2.0157407e-18 -17.806944)
(273.09757 -8.3825824e-17 -17.770787)
(303.49489 4.1633354e-18 -19.354917)
(294.00229 7.0414495e-17 -19.345557)
(319.63331 5.1058166e-18 -20.591538)
(316.38361 -7.9055563e-20 -20.914709)
(325.40272 4.6357451e-17 -20.979953)
(324.25754 -5.068496e-17 -21.917902)
(325.94056 1.7736432e-17 -20.994655)
(326.61269 1.846259e-16 -21.328563)
(325.50913 -9.9608429e-17 -20.942886)
(324.90416 -1.1638287e-16 -22.162542)
(325.65986 -2.4708858e-17 -20.925896)
(326.01172 -1.2333565e-16 -21.083346)
(325.41223 5.1016632e-17 -20.880904)
(325.04178 5.0495528e-17 -22.182663)
(325.46053 2.305039e-18 -20.848425)
(325.64729 4.3689811e-17 -21.035419)
(325.28763 2.9993529e-17 -20.800806)
(325.05965 8.8275896e-18 -22.020721)
(325.27086 1.8730823e-18 -20.753166)
(325.36049 2.203792e-17 -21.089312)
(325.13264 -8.2036492e-18 -20.698034)
(324.99308 -2.4439458e-17 -21.772384)
(325.06457 7.0918198e-18 -20.638343)
(325.10892 -5.5988461e-19 -21.141916)
(324.91745 -3.1755229e-17 -20.579295)
(324.84754 1.8339722e-17 -21.523508)
(324.79243 -4.8405225e-17 -20.511619)
(324.81723 -2.8876071e-17 -21.160285)
(324.60403 -9.3750766e-17 -20.462657)
(324.59563 1.179055e-18 -21.330396)
(324.39526 -9.5935824e-17 -20.413661)
(324.44008 -4.8880827e-17 -21.153303)
(324.12735 -1.1402172e-17 -20.379282)
(324.16096 1.2017055e-18 -21.227929)
(323.79466 3.0524364e-17 -20.361414)
(323.84211 1.3463283e-17 -21.16317)
(323.30834 1.3979849e-16 -20.3265)
(323.40516 -3.5709658e-17 -21.182439)
(322.63077 1.8470796e-16 -20.219889)
(322.84528 6.436952e-17 -21.082226)
(321.77419 5.8341568e-18 -19.95638)
(322.09606 1.608685e-17 -20.886957)
(320.74916 6.4848045e-17 -19.468654)
(321.15372 -1.3359874e-17 -20.474528)
(319.53937 -3.3009033e-17 -18.701977)
(320.0047 8.8095957e-18 -19.79655)
(318.17814 -1.5973035e-16 -17.604692)
(318.68225 -1.5306167e-16 -18.775807)
(316.72424 0 -16.176092)
(317.24055 0 -17.40028)
(315.25149 1.3728449e-16 -14.476725)
(315.75536 -1.9565811e-16 -15.709475)
(313.82852 1.695456e-16 -12.612072)
(314.30136 4.8518007e-16 -13.806568)
(312.50953 0 -10.703869)
(312.93799 -1.5380383e-17 -11.81569)
(311.33366 -1.6598026e-17 -8.8625919)
(311.70825 0 -9.8617423)
(310.32361 -7.9299418e-18 -7.1670016)
(310.63988 -1.8541561e-17 -8.0390378)
(309.48723 -2.9374466e-16 -5.6656299)
(309.74488 1.4180484e-17 -6.4014922)
(308.80168 -3.7225838e-16 -4.3803495)
(309.02061 -3.5804359e-16 -4.9951325)
(308.22868 3.5710634e-16 -3.2532246)
(308.41679 2.4679616e-17 -3.8021064)
(307.7615 6.6841863e-16 -2.2693603)
(307.88645 7.6505995e-16 -2.7772676)
(307.39794 -6.6620429e-17 -1.5000839)
(307.47357 -1.1884943e-15 -1.9453629)
(307.10967 -1.6779554e-16 -0.89593436)
(307.17263 -4.1923591e-16 -1.2790907)
(306.84678 3.7765612e-16 -0.42333385)
(306.9289 3.3838343e-16 -0.70334005)
(306.60934 -9.4560487e-18 0.019021298)
(306.70868 -1.4587708e-17 -0.18917439)
(306.38421 4.2955587e-16 0.38717809)
(306.48058 -3.2476791e-20 0.24851349)
(306.16509 2.4339037e-16 0.64238464)
(306.28422 1.842314e-17 0.59653309)
(305.97706 -1.5698754e-16 0.90297197)
(306.06725 8.215535e-18 0.8387743)
(305.7762 3.0308861e-16 0.9507236)
(305.85904 -2.6934714e-16 0.95440446)
(305.58963 -2.59933e-16 0.83753451)
(305.67279 6.1768603e-18 0.92032426)
(305.42864 -1.400556e-16 0.55482968)
(305.49517 -7.1400932e-18 0.72118114)
(305.28526 2.4264937e-16 0.42646064)
(305.33632 3.6024662e-18 0.2904705)
(305.10853 1.5863591e-16 -0.17467953)
(211.05657 1.8187947e-16 -13.985589)
(195.72417 3.376714e-16 -13.647513)
(240.22321 -1.023449e-18 -15.998569)
(230.12327 -8.9764264e-19 -15.7395)
(262.4353 -7.5367004e-17 -17.585425)
(253.40746 -9.9375879e-17 -17.483688)
(283.41815 -2.9008004e-17 -19.13827)
(274.52566 -1.6675667e-16 -19.053968)
(304.975 7.1763729e-17 -20.782452)
(295.53494 1.4263449e-16 -20.746891)
(320.38908 -5.0635619e-17 -22.031581)
(317.73793 -1.9299673e-18 -22.370957)
(325.32737 6.6034337e-17 -22.376756)
(324.2129 -1.6174491e-16 -23.340344)
(325.78986 7.7134747e-17 -22.391215)
(326.46758 2.2030547e-16 -22.694682)
(325.35645 -1.3902316e-16 -22.341376)
(324.73773 7.4406641e-18 -23.604006)
(325.51046 -6.3478379e-17 -22.329303)
(325.86897 -1.9182868e-16 -22.455402)
(325.26276 4.3851072e-17 -22.288535)
(324.88245 5.2597247e-17 -23.629009)
(325.31539 5.2820914e-17 -22.261408)
(325.50349 -7.1386696e-18 -22.429031)
(325.14398 0 -22.220526)
(324.90999 3.6614004e-17 -23.466323)
(325.13196 0 -22.180244)
(325.21707 -3.0632474e-17 -22.511767)
(325.0012 -1.8882191e-17 -22.132381)
(324.84812 -1.2844684e-17 -23.226741)
(324.9453 8.9018229e-18 -22.084757)
(324.97515 7.2732963e-19 -22.603576)
(324.81027 2.5002083e-17 -22.050965)
(324.73848 1.6664502e-17 -23.009703)
(324.69788 1.7200415e-17 -22.007587)
(324.7015 4.7236878e-19 -22.675211)
(324.53814 4.9236443e-17 -21.984095)
(324.49446 3.604662e-17 -22.88161)
(324.36524 4.2063455e-17 -21.977416)
(324.34662 1.0348137e-17 -22.744251)
(324.09789 2.4542145e-17 -21.984623)
(324.07587 -1.0284652e-18 -22.848019)
(323.71385 -4.7217722e-17 -21.981387)
(323.75476 -1.3878448e-17 -22.800824)
(323.16825 -1.1835483e-16 -21.930888)
(323.30515 -2.2789894e-17 -22.806175)
(322.46449 -9.6927549e-17 -21.763362)
(322.71109 -8.731241e-17 -22.668513)
(321.59574 -1.455771e-19 -21.42904)
(321.92601 -1.4218252e-16 -22.414699)
(320.53664 -7.0579566e-17 -20.857366)
(320.94076 -3.9879961e-19 -21.922314)
(319.2866 -9.4362058e-17 -19.97232)
(319.74698 -7.76565e-17 -21.130518)
(317.89065 -1.0046961e-17 -18.72889)
(318.38468 1.4182261e-16 -19.964618)
(316.41817 -1.7432879e-16 -17.139505)
(316.91762 -2.3040049e-16 -18.424362)
(314.94629 8.1338473e-17 -15.278841)
(315.42698 -7.6903129e-18 -16.565284)
(313.54233 3.5223634e-16 -13.264224)
(313.9877 3.2987168e-16 -14.503826)
(312.25562 -1.694641e-17 -11.224227)
(312.65504 -1.5231007e-17 -12.372864)
(311.1187 0 -9.2718524)
(311.46543 1.2293615e-17 -10.300624)
(310.14882 0 -7.4850881)
(310.4397 -9.4531968e-18 -8.380938)