/*--------------------------------*- C++ -*----------------------------------*\
  =========                 |
  \\      /  F ield         | OpenFOAM: The Open Source CFD Toolbox
   \\    /   O peration     | Website:  https://openfoam.org
    \\  /    A nd           | Version:  8
     \\/     M anipulation  |
\*---------------------------------------------------------------------------*/
FoamFile
{
    version     2.0;
    format      ascii;
    class       volScalarField;
    location    "0.170001";
    object      T;
}
// * * * * * * * * * * * * * * * * * * * * * * * * * * * * * * * * * * * * * //

dimensions      [0 0 0 1 0 0 0];

internalField   nonuniform List<scalar> 
20000
(
292.136
292.20026
292.05063
291.28914
289.38653
285.37127
279.12311
277.55655
278.16919
278.10642
278.55956
278.65324
279.04851
279.26224
279.66162
279.98161
280.42912
280.86131
281.38884
281.94264
282.57403
283.25963
284.02024
284.85449
285.77247
286.77237
287.84315
289.03811
290.27797
291.49485
292.6502
293.70434
294.62546
295.39906
296.02051
296.50517
296.87829
297.13111
297.2986
297.4061
297.46555
297.48623
297.46251
297.42942
297.38449
297.36224
297.33608
297.39639
297.31461
297.73903
291.93121
291.97051
291.75884
290.93821
288.88347
284.58164
278.54547
277.17671
277.78834
277.72041
278.18079
278.27519
278.67769
278.896
279.30019
279.62893
280.08313
280.53022
281.06885
281.63918
282.28905
282.99695
283.78263
284.64522
285.5954
286.63733
287.79596
289.02333
290.28041
291.51696
292.68012
293.73296
294.6471
295.4102
296.02313
296.50417
296.87491
297.12652
297.2944
297.38846
297.43338
297.44397
297.43424
297.39606
297.36496
297.34644
297.35525
297.38697
297.39039
297.72509
291.43017
291.48843
291.24681
290.34992
288.13308
283.47669
277.80557
276.66927
277.30419
277.23823
277.70722
277.80413
278.21029
278.43336
278.84364
279.18129
279.64629
280.10654
280.66279
281.25626
281.93124
282.67042
283.49269
284.39911
285.40162
286.51043
287.74104
289.0282
290.31952
291.57257
292.74141
293.79044
294.69522
295.44678
296.04793
296.51739
296.87928
297.12911
297.29102
297.38133
297.42539
297.43446
297.42221
297.38619
297.35901
297.34156
297.35195
297.38911
297.38245
297.73125
290.84846
290.93875
290.68506
289.71472
287.36912
282.34417
277.10005
276.12729
276.76523
276.69272
277.16211
277.25729
277.66693
277.8944
278.31078
278.65938
279.13551
279.61403
280.18716
280.80489
281.50869
282.28594
283.15661
284.12351
285.20146
286.40567
287.72594
289.04911
290.37258
291.64373
292.81651
293.8591
294.75154
295.48847
296.07556
296.53324
296.88627
297.13108
297.28813
297.37117
297.40756
297.41546
297.40411
297.3687
297.34888
297.33485
297.35569
297.38817
297.41751
297.73014
290.50706
290.49181
290.1348
289.05586
286.54356
281.13177
276.35965
275.52369
276.17089
276.09366
276.56988
276.66746
277.08221
277.31756
277.74151
278.10279
278.59061
279.08666
279.68055
280.32721
281.06646
281.89053
282.82412
283.87077
285.04905
286.36409
287.72552
289.09841
290.45479
291.7413
292.91489
293.94769
294.82461
295.5441
296.11425
296.55699
296.89872
297.13735
297.28666
297.36402
297.397
297.4029
297.38953
297.35589
297.34052
297.33209
297.35596
297.38788
297.44012
297.73207
289.72182
289.78321
289.41696
288.28677
285.65075
279.87003
275.62038
274.91475
275.57106
275.49571
275.97819
276.08004
276.50118
276.74464
277.17634
277.55013
278.05041
278.5666
279.18246
279.86151
280.64378
281.52532
282.53667
283.68185
284.97426
286.34898
287.75391
289.17625
290.56296
291.86177
293.03244
294.05174
294.90974
295.60883
296.15973
296.586
296.91511
297.14585
297.28697
297.35665
297.38516
297.38928
297.37537
297.34327
297.32997
297.33025
297.35745
297.38744
297.47169
297.73329
289.19583
289.21063
288.78963
287.57381
284.79473
278.66459
274.94036
274.34938
275.01417
274.9378
275.42692
275.53316
275.96004
276.21254
276.65212
277.0397
277.55261
278.08991
278.73313
279.45244
280.28905
281.24304
282.34425
283.59582
284.94691
286.35911
287.82386
289.29034
290.70264
292.00853
293.17144
294.17298
295.00846
295.68416
296.21333
296.62111
296.93628
297.15699
297.28796
297.34993
297.37471
297.37725
297.36267
297.33311
297.32054
297.32937
297.35838
297.38826
297.49664
297.73671
288.56419
288.58906
288.16507
286.8733
283.96369
277.52917
274.36179
273.84441
274.51909
274.44505
274.94131
275.05319
275.48599
275.74812
276.19589
276.59871
277.12817
277.69164
278.37099
279.1404
280.0421
281.08546
282.26625
283.56278
284.95135
286.42088
287.93741
289.44249
290.87395
292.18082
293.33055
294.30984
295.11915
295.7686
296.27385
296.66155
296.96199
297.17019
297.28936
297.34305
297.3642
297.36517
297.34993
297.32442
297.31321
297.32893
297.35968
297.39036
297.52386
297.74183
288.08814
288.10679
287.65308
286.27702
283.20259
276.52108
273.87842
273.42848
274.10967
274.03733
274.53933
274.65695
275.09601
275.36922
275.82701
276.25027
276.80222
277.40157
278.12546
278.95983
279.92695
281.02172
282.2372
283.56706
285.00765
286.53608
288.1003
289.63565
291.07842
292.37914
293.50969
294.46197
295.24144
295.86188
296.34108
296.70706
296.992
297.18562
297.29191
297.33657
297.35423
297.35366
297.33777
297.31699
297.30963
297.32871
297.36134
297.39435
297.54968
297.7484
287.67884
287.69517
287.214
285.7529
282.49038
275.65492
273.49619
273.09759
273.78831
273.71891
274.22719
274.35199
274.80023
275.08705
275.56082
276.01216
276.59769
277.24561
278.01382
278.88589
279.88095
281.00609
282.24735
283.62949
285.13009
286.71029
288.31333
289.87012
291.31549
292.60244
293.70758
294.62809
295.37418
295.96306
296.41429
296.75704
297.02573
297.20319
297.29667
297.33204
297.34475
297.34291
297.32707
297.3096
297.30755
297.32974
297.36388
297.40101
297.57534
297.75585
287.30975
287.35539
286.85383
285.30847
281.83135
274.92604
273.21808
272.86045
273.55548
273.49376
274.00947
274.15063
274.60744
274.91846
275.41633
275.89957
276.51054
277.1824
277.96819
278.86327
279.87757
281.02572
282.32598
283.76441
285.31739
286.94295
288.57632
290.14497
291.58397
292.8494
293.92293
294.80703
295.5164
296.07136
296.49289
296.81107
297.06267
297.22259
297.30336
297.33072
297.33672
297.33371
297.31882
297.30248
297.30641
297.33195
297.36761
297.41177
297.59991
297.7635
287.05201
287.11319
286.5875
284.95563
281.22002
274.3156
273.03867
272.71499
273.41753
273.35961
273.88173
274.03274
274.51998
274.84825
275.3575
275.85519
276.47716
277.16674
277.96488
278.87736
279.92987
281.13273
282.48049
283.97069
285.57157
287.23389
288.88803
290.45876
291.88215
293.11825
294.15409
294.99735
295.66692
296.18584
296.57617
296.86896
297.10212
297.2435
297.31074
297.33052
297.33231
297.32664
297.31278
297.29805
297.30587
297.33522
297.37286
297.42809
297.62323
297.77113
286.8669
286.95271
286.40022
284.6787
280.65302
273.82463
272.9523
272.64242
273.36183
273.3237
273.84526
273.99837
274.48532
274.82596
275.3418
275.85012
276.47976
277.18387
278.01205
278.96735
280.06169
281.30844
282.70671
284.24505
285.88718
287.57874
289.24463
290.80802
292.20706
293.40651
294.39903
295.19742
295.82446
296.30547
296.66331
296.93078
297.14329
297.26553
297.31855
297.33128
297.33053
297.32158
297.30881
297.29585
297.30556
297.33934
297.37972
297.45017
297.64496
297.77856
286.76886
286.85478
286.27015
284.45617
280.10041
273.42939
272.93738
272.61622
273.34921
273.30021
273.83777
274.00945
274.48455
274.8345
275.35652
275.88612
276.53973
277.27748
278.13689
279.12829
280.26478
281.55887
283.00281
284.58486
286.26244
287.97514
289.6435
291.19008
292.55615
293.71189
294.65579
295.40566
295.98777
296.42921
296.75347
296.99624
297.18576
297.28846
297.32862
297.33338
297.32976
297.31887
297.30693
297.29475
297.30672
297.34412
297.38807
297.47798
297.66543
297.78582
286.66423
286.75759
286.14935
284.2505
279.53577
273.09352
272.94283
272.60798
273.34079
273.29305
273.85424
274.04105
274.5317
274.90159
275.43966
275.99286
276.66723
277.43354
278.32578
279.35662
280.53458
281.87245
283.36091
284.98294
286.69036
288.41679
290.07907
291.60013
292.92547
294.03126
294.92193
295.62017
296.15538
296.55589
296.84592
297.06467
297.22941
297.3122
297.33947
297.33625
297.32931
297.31765
297.30604
297.29413
297.30924
297.34944
297.39775
297.51066
297.68537
297.7931
286.6015
286.70257
286.06474
284.08419
278.9894
272.84597
273.00366
272.69155
273.41358
273.39656
273.94416
274.13957
274.63901
275.02586
275.57828
276.15513
276.854
277.65228
278.57764
279.64661
280.86604
282.24766
283.77818
285.43651
287.16811
288.90063
290.54814
292.03511
293.31222
294.36215
295.19539
295.83934
296.32599
296.68453
296.94039
297.1354
297.2739
297.33646
297.35054
297.33999
297.32928
297.31726
297.30578
297.29365
297.31305
297.35529
297.40886
297.54633
297.7058
297.80054
286.58403
286.68853
286.02218
283.95944
278.47622
272.70448
273.11353
272.79449
273.5356
273.51636
274.07396
274.28584
274.79495
275.20229
275.77038
276.373
277.09552
277.92459
278.88348
279.99122
281.25184
282.67602
284.24702
285.93825
287.68858
289.42005
291.04471
292.48986
293.71213
294.70116
295.47358
296.06119
296.49804
296.81415
297.03708
297.20716
297.3186
297.36095
297.36292
297.34468
297.33025
297.31727
297.30587
297.29377
297.31806
297.36182
297.42201
297.5836
297.72675
297.80819
286.63052
286.71932
286.00944
283.85829
277.99279
272.65021
273.26631
272.95237
273.70242
273.69052
274.25229
274.47884
274.99776
275.42512
276.00985
276.63731
277.38519
278.24648
279.23986
280.38677
281.689
283.15548
284.76518
286.48573
288.24902
289.97192
291.56557
292.96125
294.1223
295.04578
295.75452
296.28422
296.67036
296.94409
297.13625
297.27834
297.36267
297.3859
297.37649
297.35028
297.33201
297.31747
297.30623
297.29562
297.32419
297.36935
297.43847
297.62073
297.74795
297.81615
286.69388
286.77785
286.0161
283.76631
277.54631
272.67936
273.45517
273.14386
273.90002
273.89912
274.46839
274.71204
275.24116
275.68991
276.29115
276.94532
277.71869
278.61222
279.64082
280.82738
282.17148
283.67958
285.32631
287.07239
288.84291
290.54983
292.10485
293.44405
294.53836
295.39262
296.03575
296.50661
296.84166
297.0738
297.23678
297.34761
297.40547
297.41256
297.39097
297.3566
297.3346
297.31866
297.30717
297.29912
297.33136
297.37823
297.45984
297.65552
297.76907
297.82457
286.79739
286.8709
286.04269
283.67177
277.14454
272.78913
273.67814
273.37261
274.13505
274.14632
274.72185
274.98264
275.52188
275.99192
276.61089
277.29116
278.09163
279.01874
280.08391
281.31106
282.69765
284.24702
285.9288
287.69629
289.46768
291.1509
292.65942
293.93522
294.95757
295.73956
296.31571
296.72718
297.01121
297.20309
297.3365
297.41434
297.44764
297.44129
297.40542
297.36383
297.33797
297.32102
297.30912
297.30414
297.33946
297.38869
297.48655
297.68646
297.78995
297.83379
286.93743
286.9991
286.0909
283.56533
276.80026
272.96307
273.93392
273.6343
274.40193
274.42595
275.00732
275.2859
275.83526
276.32763
276.96458
277.67287
278.50112
279.46245
280.56513
281.8336
283.26293
284.85288
286.56734
288.35168
290.11729
291.76919
293.22361
294.42978
295.3761
296.08397
296.59249
296.94437
297.1781
297.33144
297.43284
297.47826
297.49087
297.47027
297.4201
297.37183
297.34206
297.32451
297.31253
297.31052
297.34834
297.40072
297.51696
297.71398
297.81032
297.84428
287.11335
287.16025
286.16103
283.43795
276.52478
273.1531
274.21984
273.92584
274.69739
274.73452
275.32128
275.61845
276.17859
276.69399
277.35048
278.08676
278.9446
279.94152
281.08326
282.39405
283.86671
285.4964
287.24085
289.03679
290.7894
292.40176
293.79435
294.92497
295.79206
296.42474
296.86501
297.15713
297.34165
297.45753
297.52418
297.54024
297.53564
297.49851
297.43485
297.3804
297.34692
297.32916
297.31714
297.31813
297.35781
297.41413
297.54877
297.7394
297.82892
297.85711
287.29859
287.33844
286.24191
283.26757
276.31786
273.43788
274.52771
274.24055
275.01635
275.06814
275.66094
275.97793
276.54976
277.08906
277.76599
278.53184
279.42023
280.45368
281.63558
282.9895
284.5055
286.17374
287.94466
289.74644
291.47826
293.04278
294.36632
295.41676
296.20311
296.76017
297.13145
297.36381
297.50051
297.57842
297.61104
297.60213
297.58002
297.52571
297.44951
297.38931
297.3527
297.33494
297.32306
297.32683
297.36766
297.42868
297.58168
297.76399
297.84667
297.87068
287.50772
287.54127
286.34286
283.05615
276.18609
273.75715
274.85711
274.57865
275.35818
275.42656
276.02511
276.36349
276.94717
277.51149
278.20996
279.00585
279.9266
280.99811
282.22173
283.61978
285.17929
286.88448
288.67785
290.47879
292.18136
293.68936
294.93694
295.90382
296.60875
297.08902
297.39008
297.56312
297.65334
297.69315
297.69496
297.66367
297.62329
297.55154
297.4639
297.39836
297.35954
297.34181
297.33019
297.33647
297.37775
297.44426
297.61564
297.78837
297.8641
297.88411
287.72652
287.76341
286.46003
282.79529
276.13277
274.10376
275.20899
274.93937
275.72281
275.80846
276.41309
276.77335
277.36979
277.95969
278.68096
279.50828
280.46271
281.5734
282.83998
284.28274
285.88538
287.62518
289.43607
291.22867
292.89306
294.33614
295.50231
296.3841
297.0067
297.40768
297.63791
297.75366
297.79886
297.80265
297.77734
297.72305
297.66514
297.57594
297.47787
297.40765
297.36727
297.34968
297.33839
297.34691
297.38813
297.46113
297.6503
297.81241
297.8814
297.89692
287.99072
288.01428
286.6084
282.49562
276.15967
274.45067
275.58234
275.32188
276.10905
276.21266
276.82342
277.20643
277.81627
278.43274
279.17815
280.03782
281.02797
282.17947
283.49053
284.97872
286.62394
288.39547
290.21812
291.99392
293.6106
294.98066
296.06161
296.85728
297.39408
297.71295
297.8738
297.93535
297.93795
297.90862
297.85586
297.78059
297.7053
297.59891
297.49137
297.41715
297.37583
297.35845
297.3475
297.35802
297.39912
297.48016
297.68485
297.83568
297.8982
297.90958
288.23901
288.27171
286.76212
282.15205
276.25248
274.83014
275.97375
275.72446
276.51494
276.63788
277.25476
277.66145
278.28577
278.92971
279.70095
280.59468
281.62199
282.8156
284.17218
285.70613
287.39255
289.19208
291.01945
292.76922
294.32844
295.61893
296.61287
297.31996
297.76528
298.0021
298.09757
298.10936
298.07097
298.00889
297.93103
297.83578
297.74359
297.62031
297.50441
297.42689
297.38513
297.36806
297.35738
297.36977
297.41128
297.50276
297.71811
297.85755
297.91396
297.92193
288.53049
288.55462
286.93549
281.78264
276.41804
275.22933
276.38438
276.14663
276.93958
277.08301
277.70625
278.13791
278.77783
279.45053
280.24932
281.17822
282.24478
283.48213
284.88553
286.46546
288.19143
290.01426
291.83838
293.55192
295.04425
296.25029
297.15544
297.76726
298.11801
298.27506
298.31204
298.27526
298.19659
298.10399
298.00244
297.88862
297.77987
297.64006
297.51707
297.43694
297.39514
297.3785
297.36802
297.38201
297.42521
297.53057
297.74876
297.87767
297.92841
297.93315
288.83013
288.84949
287.10935
281.396
276.6622
275.64794
276.81089
276.58621
277.3818
277.54749
278.17777
278.63559
279.29254
279.99505
280.82325
281.789
282.89637
284.1787
285.62982
287.25531
289.01816
290.85833
292.66989
294.33656
295.75385
296.87264
297.68435
298.1936
298.4499
298.53461
298.51651
298.43141
298.3149
298.19339
298.07015
297.93887
297.81403
297.65804
297.5294
297.44736
297.40579
297.38972
297.37948
297.39484
297.4412
297.56385
297.7761
297.89605
297.94159
297.94332
289.1679
289.16067
287.28506
281.01199
276.96857
276.08425
277.25399
277.0441
277.84228
278.03184
278.66965
279.1547
279.83001
280.56353
281.42298
282.42687
283.57712
284.90609
286.40582
288.07629
289.87252
291.72292
293.5115
295.12067
296.45634
297.4853
298.19413
298.59619
298.76311
298.7835
298.70872
298.57814
298.4257
298.2773
298.13412
297.98649
297.84592
297.67429
297.54148
297.45825
297.41703
297.40164
297.39188
297.40831
297.4591
297.59929
297.80229
297.91301
297.95344
297.95256
289.48518
289.47226
287.43808
280.64325
277.33489
276.53835
277.7138
277.52119
278.32114
278.53613
279.18173
279.69533
280.39034
281.15629
282.04866
283.09265
284.28741
285.66421
287.213
288.9268
290.75168
292.60343
294.35784
295.89961
297.14932
298.0825
298.67872
298.97345
299.06191
299.01776
298.88886
298.71502
298.52894
298.35561
298.19433
298.0313
297.87534
297.68887
297.55334
297.46964
297.42883
297.4141
297.40513
297.42188
297.47859
297.63598
297.82743
297.92882
297.96432
297.96093
289.83321
289.80338
287.57726
280.32084
277.76365
277.01114
278.19133
278.01689
278.81868
279.05966
279.71452
280.25742
280.97424
281.7734
282.70101
283.78639
285.028
286.45416
288.05221
289.80718
291.65461
293.49771
295.20619
296.67202
297.83231
298.6582
299.1353
299.32986
299.34575
299.2373
299.05677
298.84231
298.62476
298.42855
298.25086
298.07317
297.90199
297.70212
297.56507
297.48155
297.44119
297.42692
297.41891
297.43501
297.49931
297.673
297.85162
297.94372
297.97458
297.9688
290.19349
290.15098
287.683
280.08618
278.22503
277.50034
278.68401
278.53003
279.33381
279.6033
280.26808
280.84171
281.58173
282.41566
283.38042
284.50963
285.79969
287.2761
288.92282
290.71528
292.57755
294.40044
296.05169
297.43487
298.49983
299.20538
299.56209
299.66948
299.61153
299.4416
299.21247
298.95994
298.71319
298.49616
298.30369
298.11192
297.92542
297.71443
297.57671
297.4939
297.45407
297.43996
297.43275
297.44804
297.52129
297.70973
297.87467
297.95774
297.98442
297.97641
290.55466
290.50985
287.74537
279.9084
278.69491
278.00699
279.19358
279.06281
279.86807
280.16775
280.84309
281.44835
282.21346
283.08371
284.08831
285.26297
286.60364
288.13119
289.82539
291.65068
293.51849
295.30893
296.89244
298.18784
299.14514
299.72103
299.96468
299.99061
299.85935
299.63105
299.35629
299.06824
298.79451
298.55871
298.35295
298.14749
297.94533
297.72624
297.58832
297.50662
297.4674
297.45324
297.44639
297.46164
297.54524
297.74525
297.89629
297.97071
297.99364
297.98346
290.91522
290.87826
287.76079
279.80428
279.19935
278.53141
279.72056
279.61532
280.4216
280.75272
281.43955
282.07755
282.87016
283.77887
284.82571
286.04842
287.44074
289.01946
290.75865
292.61021
294.47246
296.2179
297.72474
298.92647
299.75964
300.20248
300.34722
300.29028
300.08879
299.8056
299.48833
299.16733
298.86887
298.61632
298.39868
298.17987
297.96219
297.7373
297.5999
297.5196
297.48109
297.46684
297.45994
297.47643
297.5725
297.7784
297.91613
297.98261
298.00204
297.98961
291.2782
291.26188
287.74218
279.77796
279.72432
279.07531
280.26559
280.18738
280.99406
281.35798
282.05794
282.73048
283.55341
284.50278
285.59468
286.86668
288.31215
289.94177
291.72252
293.59224
295.43664
297.12496
298.54772
299.64378
300.34001
300.65512
300.70841
300.56857
300.30046
299.96588
299.60911
299.25763
298.93662
298.6693
298.44108
298.2092
297.9763
297.74764
297.61146
297.53274
297.495
297.48082
297.47366
297.4934
297.60427
297.80809
297.93402
297.99334
298.00957
297.99512
291.6421
291.65848
287.68525
279.84749
280.2692
279.63577
280.82645
280.77766
281.5859
281.98427
282.70014
283.40899
284.26548
285.2574
286.39642
287.71968
289.21857
290.89759
292.71463
294.59227
296.4055
298.02552
299.35743
300.33057
300.88214
301.0835
301.04506
300.82518
300.49441
300.11208
299.71887
299.33939
298.99801
298.71781
298.48024
298.23552
297.98784
297.75729
297.62299
297.54595
297.50895
297.4951
297.48762
297.51253
297.6399
297.83441
297.9501
298.00291
298.01622
298.00005
291.99505
292.06348
287.59209
280.01725
280.83423
280.21392
281.40359
281.38846
282.19855
282.63485
283.36841
284.11597
285.00815
286.04448
287.23269
288.60802
290.16099
291.88718
293.73385
295.60757
297.3763
298.91784
300.14888
300.98142
301.38964
301.4883
301.35673
301.06088
300.67147
300.24495
299.81822
299.41308
299.05345
298.76224
298.51637
298.25883
297.99698
297.76637
297.63453
297.55918
297.52282
297.50952
297.50167
297.53309
297.67634
297.8592
297.96473
298.0114
298.02186
298.00409
292.33335
292.46177
287.47253
280.28096
281.41842
280.81175
282.00144
282.02241
282.83623
283.31214
284.06583
284.85295
285.78327
286.86545
288.10453
289.53358
291.13956
292.90909
294.77615
296.63271
298.34382
299.79823
300.91147
301.59094
301.86757
301.86574
301.64325
301.27579
300.83197
300.36486
299.90749
299.47904
299.10324
298.80282
298.54963
298.27925
298.00392
297.77498
297.64602
297.57239
297.53657
297.52404
297.51563
297.55473
297.71312
297.8824
297.9778
298.01863
298.02649
298.00755
292.67728
292.85515
287.35342
280.64599
282.02612
281.43306
282.6236
282.68367
283.50172
284.01817
284.79365
285.62137
286.59185
287.72181
289.01376
290.49665
292.15486
293.96243
295.83914
297.66436
299.30576
300.66381
301.63761
302.1594
302.31989
302.21436
301.90548
301.47097
300.97688
300.47263
299.98735
299.53778
299.14783
298.83991
298.58036
298.29753
298.00896
297.78324
297.65747
297.58565
297.55032
297.53867
297.52941
297.57783
297.74949
297.90387
297.98918
298.02458
298.03005
298.01077
293.01887
293.23251
287.25454
281.08428
282.65858
282.08316
283.27227
283.37388
284.19581
284.75323
285.55261
286.42212
287.43571
288.61527
289.96149
291.49908
293.20625
295.04414
296.91734
298.69696
300.25719
301.50361
302.3208
302.69211
302.74209
302.53419
302.14365
301.64689
301.10671
300.56873
300.0582
299.58969
299.18753
298.87368
298.60861
298.31418
298.01261
297.79126
297.66884
297.59893
297.56415
297.55348
297.54364
297.6032
297.78434
297.92334
297.99901
298.02971
298.03264
298.0126
293.37732
293.58959
287.20096
281.53389
283.31911
282.76243
283.94697
284.09088
284.91791
285.51791
286.34386
287.25727
288.31654
289.54782
290.94963
292.54077
294.29328
296.15194
298.00736
299.72733
301.19572
302.30922
302.95795
303.19581
303.1321
302.8261
302.35902
301.80474
301.22251
300.65402
300.12073
299.63531
299.22279
298.90436
298.63401
298.32733
298.01599
297.79916
297.68012
297.6122
297.578
297.56846
297.55958
297.6311
297.81608
297.94053
298.0074
298.034
298.03448
298.0138
293.75212
293.90684
287.20384
282.10768
283.99788
283.46658
284.64516
284.83564
285.66949
286.31397
287.16979
288.12892
289.23697
290.52129
291.97932
293.62289
295.4138
297.28091
299.10314
300.74978
302.113
303.07082
303.5525
303.66687
303.48926
303.09041
302.55216
301.94517
301.3249
300.72904
300.17539
299.67504
299.25392
298.93204
298.65611
298.33431
298.01996
297.80692
297.69124
297.62536
297.59176
297.58356
297.57606
297.66367
297.84352
297.95545
298.01462
298.03772
298.03589
298.01458
294.15475
294.16953
287.27683
282.77859
284.69832
284.19765
285.37078
285.611
286.45324
287.14409
288.03305
289.03991
290.19892
291.53781
293.05198
294.7442
296.56566
298.42751
300.20105
301.76157
302.99944
303.78399
304.11131
304.10326
303.81462
303.32854
302.72451
302.0695
301.41502
300.79472
300.2229
299.7094
299.28133
298.95703
298.67553
298.33855
298.02386
297.81454
297.70217
297.63835
297.60526
297.5985
297.59314
297.69882
297.86779
297.96863
298.02094
298.04091
298.03696
298.01519
294.58804
294.38182
287.43908
283.45837
285.42518
284.95981
286.1261
286.41925
287.27192
288.01129
288.93627
289.99289
291.20472
292.59906
294.16815
295.90464
297.74475
299.5853
301.29482
302.75584
303.84316
304.44664
304.63595
304.50217
304.10845
303.54117
302.87689
302.17855
301.49358
300.85161
300.26367
299.73876
299.30532
298.97973
298.69361
298.3412
298.02752
297.82194
297.71287
297.65117
297.61843
297.613
297.61274
297.73418
297.89025
297.9806
298.02656
298.04353
298.03783
298.01572
295.05413
294.53427
287.69422
284.16222
286.18046
285.75577
286.91473
287.26357
288.12955
288.91787
289.88278
290.9898
292.25655
293.70647
295.32831
297.10116
298.94715
300.75008
302.38025
303.72382
304.6374
305.06607
305.12318
304.86517
304.37238
303.73002
303.01092
302.27371
301.56163
300.90043
300.29829
299.76367
299.32626
299.00051
298.71135
298.34246
298.03082
297.82904
297.72328
297.66395
297.63166
297.6273
297.63279
297.769
297.91105
297.9915
298.03151
298.04572
298.03866
298.01623
295.56843
294.62941
288.04815
284.92596
286.96323
286.58995
287.73942
288.14685
289.02834
289.86701
290.8744
292.03361
293.35632
294.86142
296.53186
298.33165
300.16692
301.91493
303.45036
304.65171
305.37553
305.64829
305.56855
305.19227
304.60719
303.89611
303.12759
302.35576
301.61967
300.94147
300.32709
299.78457
299.34446
299.01922
298.72669
298.34223
298.03365
297.83573
297.73341
297.6769
297.64548
297.64191
297.65503
297.80225
297.92998
298.00132
298.03601
298.04772
298.0397
298.01675
296.11999
294.66111
288.49645
285.73472
287.77763
287.4642
288.6028
289.07201
289.97105
290.86101
291.91387
293.12666
294.5062
296.06491
297.77765
299.59085
301.39901
303.07501
304.49897
305.52959
306.06337
306.18987
305.9735
305.48539
304.8149
304.04133
303.22847
302.4258
301.66844
300.97541
300.35078
299.80198
299.36029
299.03581
298.73722
298.34079
298.03596
297.84199
297.74336
297.69021
297.66027
297.65714
297.67947
297.83282
297.94677
298.00988
298.0397
298.0492
298.04041
298.01732
296.7428
294.64233
289.04181
286.59301
288.62744
288.38107
289.50747
290.03999
290.96011
291.90223
293.00402
294.27187
295.70816
297.31727
299.06271
300.8746
302.63607
304.2222
305.51079
306.34909
306.70599
306.68665
306.3378
305.74536
304.9967
304.1668
303.31437
302.48441
301.70872
301.0035
300.37034
299.8161
299.37391
299.05054
298.74608
298.33793
298.03762
297.84788
297.75329
297.70403
297.67609
297.67257
297.70876
297.85951
297.96102
298.01685
298.04242
298.05007
298.04094
298.01794
297.43963
294.59075
289.6785
287.49952
289.51357
289.34164
290.45455
291.05257
291.99862
292.9946
294.14832
295.47228
296.96404
298.61758
300.38342
302.1752
303.87202
305.35047
306.47447
307.11005
307.30609
307.13756
306.66361
305.97453
305.15479
304.27427
303.38652
302.53284
301.74224
301.02785
300.38695
299.82702
299.38554
299.06346
298.75438
298.33334
298.03884
297.85363
297.76342
297.71841
297.69302
297.68809
297.73988
297.88197
297.97305
298.02245
298.04429
298.05041
298.04124
298.01856
298.21687
294.51628
290.39588
288.4526
290.43673
290.34611
291.45039
292.11406
293.09167
294.14219
295.35116
296.73061
298.2745
299.9636
301.73399
303.48672
305.0979
306.44601
307.37793
307.81726
307.85782
307.54277
306.95176
306.17424
305.29042
304.36468
303.44597
302.57272
301.77088
301.04884
300.40042
299.83502
299.3954
299.07486
298.76242
298.32699
298.03985
297.85959
297.77399
297.73328
297.71053
297.70317
297.77023
297.90232
297.98352
298.02707
298.04558
298.05039
298.04142
298.01914
299.05625
294.47384
291.19283
289.45777
291.40054
291.40354
292.49819
293.23167
294.24355
295.351
296.61542
298.04912
299.63899
301.35129
303.10779
304.8
306.30625
307.49537
308.21623
308.4788
308.35807
307.90437
307.20493
306.34698
305.40557
304.43974
303.49489
302.60654
301.79529
301.06397
300.40828
299.84131
299.40384
299.08547
298.76879
298.31995
298.04112
297.86611
297.78503
297.74812
297.72786
297.71727
297.80005
297.92071
297.99276
298.03102
298.04675
298.05024
298.04098
298.01913
299.99634
294.42593
292.08258
290.52031
292.41657
292.51869
293.60619
294.4092
295.46086
296.62454
297.94475
299.42842
301.05514
302.77493
304.49652
306.10743
307.48492
308.48257
308.9931
309.08717
308.80708
308.22329
307.42458
306.49419
305.50149
304.50113
303.53559
302.63479
301.81284
301.07218
300.4129
299.8465
299.41106
299.09588
298.77166
298.31379
298.04299
297.87329
297.79626
297.76253
297.74505
297.73412
297.8292
297.93743
298.00083
298.03398
298.04717
298.04942
298.04023
298.01892
301.02782
294.38999
293.06416
291.64634
293.49061
293.69618
294.7813
295.65254
296.74779
297.96723
299.34017
300.86808
302.51891
304.22697
305.89145
307.39702
308.61784
309.40036
309.7173
309.63926
309.20683
308.5025
307.61362
306.6183
305.5806
304.55179
303.56968
302.65547
301.82265
301.07673
300.41537
299.85051
299.41704
299.10491
298.77218
298.30838
298.04558
297.88097
297.80749
297.77652
297.76236
297.75048
297.85728
297.95234
298.00784
298.03627
298.0472
298.04832
298.03929
298.01865
302.12748
294.39823
294.11826
292.8466
294.63
294.94246
296.03
296.96678
298.10825
299.38087
300.80318
302.36532
304.02394
305.69853
307.28175
308.65839
309.68774
310.24881
310.38345
310.13354
309.5583
308.74366
307.77371
306.72107
305.64531
304.59363
303.59519
302.66702
301.82793
301.07927
300.41632
299.85277
299.42168
299.11039
298.77144
298.30376
298.04874
297.88895
297.81868
297.79014
297.77953
297.76702
297.88276
297.96522
298.01381
298.03814
298.04711
298.04712
298.03818
298.0183
303.29743
294.50873
295.23179
294.12303
295.84453
296.26137
297.35782
298.35664
299.5444
300.86788
302.33187
303.91613
305.56221
307.17894
308.65531
309.87266
310.68392
311.03584
310.98792
310.57237
309.86484
308.95015
307.90779
306.80549
305.69891
304.62715
303.60992
302.67325
301.83083
301.08016
300.41611
299.85377
299.42525
299.11413
298.77005
298.29989
298.05226
297.8971
297.82998
297.80372
297.79695
297.78932
297.90381
297.9758
298.01827
298.03897
298.04657
298.04567
298.0369
298.01788
304.49423
294.80315
296.40867
295.46918
297.13964
297.65393
298.76719
299.82561
301.0592
302.42791
303.92512
305.51322
307.12337
308.65586
309.99802
311.02271
311.60279
311.75925
311.52725
310.9567
310.12822
309.12394
308.01812
306.87413
305.7419
304.6477
303.61774
302.67634
301.83153
301.07947
300.41484
299.85376
299.42796
299.11689
298.76822
298.29671
298.05598
297.9054
297.84167
297.81791
297.81523
297.81366
297.92215
297.9846
298.02156
298.03916
298.04539
298.04387
298.03549
298.01742
305.64107
295.25715
297.67648
296.89633
298.51174
299.12675
300.26156
301.37687
302.65483
304.06175
305.57702
307.14813
308.69472
310.11445
311.2916
312.09194
312.45131
312.41398
312.00433
311.29024
310.35239
309.2687
308.10851
306.93009
305.77272
304.65946
303.62184
302.67686
301.83041
301.07723
300.41266
299.85343
299.43045
299.11869
298.76598
298.29418
298.05988
297.91404
297.85403
297.83287
297.83389
297.8384
297.93809
297.99206
298.02407
298.03894
298.04398
298.0419
298.03395
298.01688
306.59199
296.16468
299.02187
298.41738
299.97332
300.68897
301.85306
303.01542
304.33279
305.76753
307.28049
308.8077
310.2613
311.5378
312.51456
313.07712
313.2287
312.99559
312.41992
311.57511
310.53978
309.38711
308.1818
306.97427
305.79124
304.66573
303.62257
302.67502
301.82734
301.0739
300.40987
299.85276
299.43278
299.11978
298.76304
298.29242
298.06415
297.92323
297.86713
297.84839
297.85194
297.85854
297.95231
297.99854
298.02619
298.0385
298.04235
298.03981
298.03223
298.01622
307.37933
297.38924
300.46708
300.0314
301.53819
302.35929
303.52615
304.74617
306.09564
307.53722
309.02278