/*--------------------------------*- C++ -*----------------------------------*\
  =========                 |
  \\      /  F ield         | OpenFOAM: The Open Source CFD Toolbox
   \\    /   O peration     | Website:  https://openfoam.org
    \\  /    A nd           | Version:  8
     \\/     M anipulation  |
\*---------------------------------------------------------------------------*/
FoamFile
{
    version     2.0;
    format      ascii;
    class       volVectorField;
    location    "0.170001";
    object      U;
}
// * * * * * * * * * * * * * * * * * * * * * * * * * * * * * * * * * * * * * //

dimensions      [0 1 -1 0 0 0 0];

internalField   nonuniform List<vector> 
20000
(
(202.20296 0 -7.7867649)
(235.369 0 -8.7408123)
(257.85368 0 -9.6605975)
(278.00475 1.5956645e-16 -10.52653)
(297.1744 -1.3807377e-16 -11.406582)
(314.86755 -1.4501317e-20 -12.28394)
(324.82521 0 -13.089452)
(327.31571 0 -12.78362)
(326.14276 -7.0310919e-17 -13.256327)
(326.6084 5.6582867e-17 -12.569741)
(325.79405 1.4241949e-18 -13.269017)
(325.79503 0 -12.473842)
(325.06043 -6.771117e-17 -13.162425)
(324.70248 -1.4654691e-19 -12.450152)
(323.90202 -1.4213229e-19 -12.971302)
(323.21154 3.8605307e-17 -12.430743)
(322.21689 3.6532981e-17 -12.740695)
(321.16035 -3.2745969e-17 -12.373243)
(319.85354 0 -12.504373)
(318.36938 0 -12.262172)
(316.6321 -3.7529689e-17 -12.267709)
(314.63576 2.52927e-17 -12.088289)
(312.35134 -2.1052356e-17 -12.002934)
(309.74034 5.1849803e-17 -11.819607)
(306.78599 -1.4019579e-17 -11.626878)
(303.46494 -2.901859e-18 -11.325046)
(299.76764 -1.9045159e-17 -10.958797)
(295.65348 4.6184862e-17 -10.456592)
(291.3692 2.2094997e-17 -9.7611179)
(287.08972 4.0157328e-17 -8.8923366)
(282.98518 -4.771473e-17 -7.8932573)
(279.19141 2.8087149e-17 -6.8196149)
(275.82079 0 -5.7429886)
(272.92937 3.0708538e-17 -4.7186457)
(270.54091 -4.7118392e-17 -3.7821918)
(268.62428 -5.4087463e-17 -2.9657502)
(267.12304 2.7332491e-17 -2.2565355)
(266.00176 -1.921556e-17 -1.6460207)
(265.16625 9.5945312e-19 -1.1540798)
(264.56817 -9.1315243e-17 -0.73609546)
(264.1564 -1.3576614e-16 -0.3388822)
(263.89223 0 0.038974349)
(263.70782 -1.4723661e-16 0.36445795)
(263.58371 -1.3571031e-16 0.63054576)
(263.49353 1.0029321e-16 0.83169261)
(263.34231 0 0.93340147)
(263.17723 -8.9078788e-17 0.89250359)
(262.8635 6.7397115e-17 0.72102417)
(262.93152 0 0.43846714)
(261.58645 0 0.02808569)
(202.88344 6.5637483e-19 -8.5897643)
(236.61949 0 -9.6970182)
(259.62328 -7.5038597e-19 -10.75013)
(280.12387 -6.3297995e-19 -11.710758)
(299.47178 0 -12.673735)
(317.27029 -1.2073134e-16 -13.613758)
(326.30015 1.0329387e-16 -14.426508)
(328.58184 0 -14.073821)
(327.37157 7.37102e-17 -14.622383)
(327.84697 -5.7468553e-17 -13.881166)
(327.00461 -1.55167e-18 -14.651288)
(327.00759 0 -13.788777)
(326.25115 0 -14.521415)
(325.88504 0 -13.749809)
(325.06385 0 -14.288226)
(324.35303 -9.8592344e-18 -13.705773)
(323.32977 -4.1217639e-18 -14.013861)
(322.23726 6.847783e-18 -13.617453)
(320.88605 0 -13.732284)
(319.34585 0 -13.466286)
(317.54285 2.3347353e-17 -13.44943)
(315.46783 0 -13.247376)
(313.0896 0 -13.139351)
(310.36887 3.5186746e-17 -12.936669)
(307.28324 -1.4246006e-17 -12.72408)
(303.78907 0 -12.409918)
(299.83204 0 -12.020669)
(295.58331 -3.1386681e-17 -11.464277)
(291.21973 2.5138162e-17 -10.687627)
(286.88879 -6.0425217e-17 -9.7188684)
(282.77014 0 -8.6078427)
(278.99384 0 -7.4199353)
(275.65875 0 -6.2334823)
(272.81135 0 -5.1095404)
(270.46229 2.3860927e-17 -4.0863957)
(268.57456 5.4539795e-17 -3.1980546)
(267.09583 0 -2.4297978)
(265.98066 -2.0687369e-17 -1.7712828)
(265.15555 2.9326484e-16 -1.2438426)
(264.5868 9.1747484e-17 -0.80016877)
(264.20489 1.1873777e-16 -0.3852628)
(263.94913 -2.0008867e-16 0.0051835778)
(263.75661 4.4198364e-16 0.34044039)
(263.64143 1.0847884e-16 0.6134802)
(263.52868 -1.0001225e-16 0.81666844)
(263.37111 1.4815632e-17 0.91307704)
(263.16511 -9.9446331e-17 0.87834463)
(262.88991 -6.6632117e-17 0.71306088)
(262.79418 -1.0844401e-16 0.41052689)
(261.6281 1.0613574e-17 -0.0056441632)
(204.25579 6.6177632e-19 -9.4777431)
(238.70368 -9.4754154e-19 -10.770216)
(262.12535 -1.9381529e-16 -11.956161)
(282.87743 1.6908464e-16 -13.03113)
(302.29878 0 -14.097982)
(320.06822 -1.2453713e-16 -15.114378)
(328.00687 1.0169307e-16 -15.924087)
(330.05338 0 -15.50701)
(328.80959 -2.2714136e-18 -16.092986)
(329.29783 0 -15.269719)
(328.4353 0 -16.083963)
(328.44361 0 -15.146942)
(327.67144 0 -15.91285)
(327.29781 -6.5195784e-17 -15.089248)
(326.4572 3.6125218e-17 -15.642472)
(325.72263 2.0043435e-17 -15.027647)
(324.66794 -1.6616317e-17 -15.332411)
(323.53331 1.3805943e-17 -14.913369)
(322.13211 0 -15.012492)
(320.52693 0 -14.725753)
(318.6454 1.5876285e-17 -14.685854)
(316.47065 -2.5995757e-17 -14.463057)
(313.9657 2.1658015e-17 -14.332365)
(311.08807 1.8045733e-17 -14.110843)
(307.80464 -1.1637512e-16 -13.880862)
(304.05543 0 -13.555617)
(299.83683 1.9608451e-17 -13.128491)
(295.44161 1.1082669e-16 -12.494349)
(290.97259 0 -11.619501)
(286.5887 1.638619e-16 -10.539675)
(282.45999 0 -9.3098506)
(278.70883 0 -8.0040279)
(275.41906 -1.6115343e-16 -6.7070407)
(272.62509 0 -5.4847222)
(270.32799 2.4079139e-17 -4.3771588)
(268.48635 -1.8253364e-17 -3.4193102)
(267.04407 0 -2.5952294)
(265.94308 -3.3275836e-16 -1.8906366)
(265.14024 -2.792915e-16 -1.3276261)
(264.5941 -3.4534195e-16 -0.85854775)
(264.233 0 -0.4269314)
(263.98764 1.7540479e-16 -0.025436628)
(263.79696 -2.7635133e-16 0.31871116)
(263.68277 2.7078752e-17 0.59743334)
(263.55433 6.579723e-16 0.80234242)
(263.39062 4.4205466e-16 0.90022987)
(263.16537 1.7535241e-16 0.86292942)
(262.89571 0 0.70140881)
(262.72769 1.0662667e-16 0.3808836)
(261.64252 -1.6380969e-16 -0.036177041)
(205.83251 -1.3635049e-18 -10.404447)
(240.97504 9.7008434e-19 -11.884872)
(264.79087 1.9794358e-16 -13.202704)
(285.76823 -1.733437e-16 -14.381925)
(305.22718 -1.4587319e-16 -15.538197)
(322.89847 1.8682881e-18 -16.601703)
(329.78867 1.0480932e-16 -17.388408)
(331.64753 -5.4655731e-18 -16.90903)
(330.38409 0 -17.546989)
(330.89123 0 -16.650434)
(330.01184 0 -17.526522)
(330.02594 0 -16.524802)
(329.23631 -7.0578749e-17 -17.337443)
(328.85213 6.5913637e-17 -16.468319)
(327.9888 -3.6662632e-17 -17.044009)
(327.22666 5.0568378e-17 -16.401408)
(326.13731 1.6938825e-17 -16.706768)
(324.95556 -4.2033282e-17 -16.267591)
(323.49928 2.3363683e-17 -16.351721)
(321.82087 -1.9242511e-17 -16.047424)
(319.84599 -6.4031478e-17 -15.987616)
(317.54855 7.9114755e-17 -15.74863)
(314.87844 0 -15.599)
(311.78976 0 -15.361468)
(308.23567 -2.9654615e-17 -15.117459)
(304.16702 -9.7184986e-17 -14.77297)
(299.74405 -7.9322431e-17 -14.278434)
(295.21432 -8.0037825e-17 -13.540254)
(290.64317 -2.3279768e-16 -12.55895)
(286.21067 -1.8673355e-16 -11.359115)
(282.08156 2.8055091e-16 -10.004871)
(278.36659 0 -8.5787383)
(275.13327 1.6277288e-16 -7.1712441)
(272.40283 0 -5.8519552)
(270.16663 2.4291379e-17 -4.6619816)
(268.37761 -1.8398928e-17 -3.6366217)
(266.97667 0 -2.7588753)
(265.89708 3.5563002e-16 -2.0093668)
(265.12001 4.8328763e-16 -1.4106092)
(264.59911 -2.3075933e-17 -0.91625781)
(264.259 1.7047589e-17 -0.46850231)
(264.02427 -4.0135538e-16 -0.056754945)
(263.83785 -3.6833589e-17 0.2958197)
(263.72283 -3.7848729e-16 0.57991695)
(263.57985 -6.7564701e-16 0.7864455)
(263.40618 -9.3778734e-16 0.88360304)
(263.16653 -3.3693615e-16 0.84753425)
(262.90485 -1.6276116e-17 0.68779823)
(262.63813 1.2334037e-17 0.35169643)
(261.6586 1.5290237e-16 -0.064896154)
(207.77649 7.048825e-16 -11.343546)
(243.5743 5.4772962e-20 -12.989461)
(267.71962 -2.0234445e-16 -14.420963)
(288.86444 5.3725936e-18 -15.698102)
(308.30255 -2.3034944e-18 -16.947611)
(325.7177 -3.9203092e-18 -18.062599)
(331.62491 -3.3075284e-18 -18.842401)
(333.30565 8.8956935e-17 -18.315534)
(332.01416 4.7201134e-18 -19.022707)
(332.53124 -5.3982184e-17 -18.059691)
(331.62761 1.0304053e-16 -19.006978)
(331.64082 -8.5528655e-17 -17.942828)
(330.8291 -1.7773925e-17 -18.805776)
(330.4299 0 -17.894803)
(329.54101 2.4625824e-17 -18.494587)
(328.749 2.0561619e-17 -17.828068)
(327.62299 -6.8365646e-17 -18.135332)
(326.39115 5.6805258e-17 -17.680234)
(324.87342 4.7015971e-17 -17.752154)
(323.11062 0 -17.435962)
(321.0222 3.2480275e-17 -17.361369)
(318.57294 -5.371103e-17 -17.114079)
(315.69396 2.2249839e-17 -16.952655)
(312.33646 -1.8099977e-17 -16.70377)
(308.45391 5.9963193e-17 -16.443967)
(304.11809 9.8213304e-17 -16.045602)
(299.56508 8.0103754e-17 -15.452084)
(294.88259 0 -14.602246)
(290.21368 2.0972364e-16 -13.501098)
(285.74237 0 -12.171362)
(281.62491 -2.6709651e-16 -10.686852)
(277.95862 -2.6452576e-17 -9.1381653)
(274.79366 -1.9385187e-19 -7.6206258)
(272.13736 1.5850948e-17 -6.2063273)
(269.9716 0 -4.9365332)
(268.2436 0 -3.8462789)
(266.89057 0 -2.9177518)
(265.8375 0 -2.1250671)
(265.09162 -5.010907e-16 -1.4907816)
(264.59939 3.7098736e-16 -0.97198229)
(264.27924 -5.4682192e-16 -0.50891665)
(264.05416 6.2224631e-20 -0.087514249)
(263.87434 -5.5231824e-16 0.27281664)
(263.75707 3.7781098e-16 0.5616417)
(263.60462 -6.3344808e-16 0.76947721)
(263.4149 1.4574077e-17 0.86698114)
(263.16926 6.8963888e-16 0.83183703)
(262.91176 -5.143865e-16 0.67178154)
(262.56225 0 0.32249768)
(261.67295 -2.3363632e-18 -0.091836265)
(209.76214 0 -12.354069)
(246.15566 0 -14.195469)
(270.5884 0 -15.755961)
(291.87876 -2.7378342e-18 -17.128893)
(311.28369 2.3554442e-18 -18.466689)
(328.3028 3.9999641e-18 -19.608342)
(333.32974 -3.3287446e-18 -20.370567)
(334.8796 5.6426487e-18 -19.781234)
(333.55987 1.4572816e-16 -20.552097)
(334.08642 -1.3264114e-16 -19.511647)
(333.15754 1.0427495e-16 -20.528864)
(333.16855 -1.7328448e-16 -19.400247)
(332.33327 7.2234461e-17 -20.314591)
(331.9171 1.4971202e-17 -19.363354)
(331.00135 -7.5199302e-17 -19.987513)
(330.17777 4.1502867e-17 -19.300167)
(329.01356 -3.4491432e-17 -19.611981)
(327.7267 0 -19.146709)
(326.13618 -2.6080596e-19 -19.210974)
(324.27087 3.9498606e-17 -18.891941)
(322.04081 9.842688e-17 -18.810768)
(319.40056 -8.118046e-17 -18.564478)
(316.27174 8.9587895e-17 -18.400016)
(312.6059 -1.4777588e-16 -18.141315)
(308.45483 3.0614329e-17 -17.838061)
(303.96764 -2.2389005e-16 -17.348754)
(299.26018 0 -16.643788)
(294.43214 2.9714163e-16 -15.675549)
(289.67823 -5.3114022e-17 -14.440928)
(285.18294 2.110649e-17 -12.971927)
(281.09249 -2.7076665e-16 -11.35199)
(277.48911 0 -9.6792528)
(274.40514 0 -8.0528056)
(271.83374 0 -6.5460515)
(269.7472 2.4698302e-17 -5.1995293)
(268.08704 5.4327124e-16 -4.047391)
(266.78618 2.8184482e-17 -3.0710229)
(265.76744 -6.7662225e-16 -2.2373669)
(265.05766 0 -1.5679764)
(264.59721 7.6738805e-16 -1.0256563)
(264.29691 -1.7045875e-17 -0.54839489)
(264.08108 4.020408e-16 -0.11798747)
(263.90722 5.8878373e-16 0.24955554)
(263.78661 2.6920784e-17 0.54281566)
(263.62938 6.1122362e-16 0.7512304)
(263.42018 1.4481991e-17 0.84949483)
(263.17191 -3.3108905e-16 0.81609883)
(262.91675 1.0003768e-15 0.65321104)
(262.48402 0 0.29338219)
(261.68305 -2.9213024e-16 -0.11672555)
(211.72386 3.6196037e-16 -13.368443)
(248.65068 2.0097689e-18 -15.383398)
(273.32796 0 -17.065221)
(294.74048 0 -18.533107)
(314.10666 4.7466634e-18 -19.969957)
(330.66585 4.0227824e-18 -21.13841)
(334.84488 6.8375189e-18 -21.892441)
(336.27962 9.676518e-17 -21.246548)
(334.93147 -7.6015724e-17 -22.094167)
(335.4672 -1.3436879e-16 -20.980501)
(334.51158 1.0532524e-16 -22.075911)
(334.51903 -1.0930627e-17 -20.885348)
(333.65912 1.8325091e-17 -21.853864)
(333.22441 4.5642834e-17 -20.865008)
(332.28009 -5.0524689e-17 -21.513304)
(331.42063 4.2189957e-17 -20.807993)
(330.21101 -3.4738641e-17 -21.127403)
(328.85893 -2.918128e-17 -20.662779)
(327.17501 -7.2591509e-17 -20.728389)
(325.17875 -1.2022048e-16 -20.417113)
(322.77419 -6.6557956e-17 -20.339595)
(319.89715 5.5060792e-17 -20.100205)
(316.5123 -8.9095463e-20 -19.936098)
(312.61328 2.9982935e-16 -19.643772)
(308.31286 3.1053497e-17 -19.259079)
(303.68427 -2.5177413e-17 -18.670963)
(298.80444 1.6489677e-16 -17.852945)
(293.8489 -2.6713459e-16 -16.751895)
(289.02891 0 -15.371521)
(284.52906 0 -13.754909)
(280.48366 2.7351728e-16 -11.995448)
(276.95877 0 -10.198109)
(273.96887 0 -8.4646821)
(271.49296 -3.2526465e-17 -6.8686713)
(269.49417 2.47528e-17 -5.4490418)
(267.90839 -6.0335119e-16 -4.2385657)
(266.66273 2.8444657e-17 -3.2172625)
(265.68813 6.5858562e-16 -2.345107)
(265.02108 4.7345693e-16 -1.6417759)
(264.5933 -7.2285594e-16 -1.0772069)
(264.312 5.8300959e-16 -0.58689958)
(264.10507 -9.2213265e-22 -0.14807937)
(263.93738 -1.8379602e-17 0.22597826)
(263.81028 8.5923125e-16 0.52367828)
(263.64992 -6.084883e-16 0.7320858)
(263.4235 4.6024724e-16 0.83127156)
(263.17441 1.0590931e-17 0.80029959)
(262.91766 -5.175244e-16 0.63221272)
(262.40905 3.7577564e-16 0.26416897)
(261.68541 -1.4922994e-20 -0.13953361)
(213.51469 3.6690422e-16 -14.417503)
(250.92133 -2.0510971e-18 -16.616323)
(275.81846 0 -18.427755)
(297.34596 -1.7990195e-16 -19.990036)
(316.68228 1.4486657e-16 -21.529293)
(332.72343 -4.0974309e-18 -22.704301)
(336.05165 -1.1053955e-16 -23.44575)
(337.45045 2.8225917e-16 -22.738524)
(336.07119 -1.6348398e-16 -23.664468)
(336.61472 -1.2002121e-16 -22.471434)
(335.63037 -2.1176008e-19 -23.645336)
(335.63256 9.977999e-17 -22.391088)
(334.74653 0 -23.413322)
(334.29062 0 -22.389539)
(333.31335 0 -23.06434)
(332.40726 -4.2542901e-17 -22.348548)
(331.13543 7.1077957e-17 -22.679576)
(329.69743 -2.9357521e-17 -22.227676)
(327.89432 7.3592928e-17 -22.307027)
(325.73169 2.0775027e-17 -22.012201)
(323.13223 6.7687775e-17 -21.949545)
(320.0434 -2.7689034e-17 -21.714088)
(316.48093 -6.898605e-17 -21.517506)
(312.45913 -1.7085454e-16 -21.16514)
(308.02496 0 -20.697069)
(303.21963 -3.0524722e-19 -20.009778)
(298.18491 -1.4586673e-16 -19.068614)
(293.12446 -1.6772414e-17 -17.822101)
(288.26248 0 -16.285104)
(283.7809 -3.4973694e-16 -14.514082)
(279.80064 5.8939685e-16 -12.612408)
(276.37075 -2.7043564e-17 -10.691071)
(273.48811 0 -8.8534836)
(271.11793 0 -7.1720906)
(269.21485 0 -5.6834994)
(267.70942 -1.9012933e-17 -4.4187577)
(266.52139 1.4256108e-17 -3.3553271)
(265.60023 6.6159429e-16 -2.4471455)
(264.98092 -2.5179212e-15 -1.7115965)
(264.58782 0 -1.1265343)
(264.32563 0 -0.6244983)
(264.12691 -2.5128191e-17 -0.17775431)
(263.96575 1.8353422e-17 0.20192892)
(263.82882 -8.3001913e-16 0.50409128)
(263.66243 6.2521727e-16 0.71253148)
(263.42551 -9.2855531e-16 0.81240634)
(263.1757 0 0.78432682)
(262.91323 5.1109798e-16 0.60894256)
(262.33685 -3.7519451e-16 0.23478883)
(261.68048 2.7489163e-16 -0.16032708)
(215.10662 3.7200877e-16 -15.477268)
(252.94878 6.5089369e-20 -17.84842)
(278.04476 -2.1493987e-16 -19.786874)
(299.67829 -1.8265495e-16 -21.442023)
(318.99376 1.6167828e-16 -23.090282)
(334.46188 0 -24.259556)
(336.9799 -2.2403158e-16 -24.996705)
(338.36031 1.7483356e-16 -24.230084)
(336.94781 1.7552557e-16 -25.242395)
(337.49838 -2.7525128e-16 -23.968794)
(336.48344 1.0795087e-16 -25.224634)
(336.47677 -1.1242583e-16 -23.908118)
(335.56014 7.4799929e-17 -24.985457)
(335.07489 -6.2434032e-17 -23.931898)
(334.05325 -2.6131819e-17 -24.640264)
(333.08282 4.3181733e-17 -23.927257)
(331.72554 -3.6023097e-17 -24.275467)
(330.16874 2.9739253e-17 -23.84477)
(328.23063 0 -23.951065)
(325.91515 7.7628861e-20 -23.67772)
(323.16975 -6.8309863e-17 -23.610762)
(319.95342 0 -23.353289)
(316.29326 2.3534792e-17 -23.109198)
(312.14426 3.2035833e-19 -22.697216)
(307.53902 -2.69462e-16 -22.150038)
(302.56139 -4.5573932e-19 -21.357132)
(297.3925 0 -20.279736)
(292.2546 2.7519983e-16 -18.875812)
(287.37821 -4.1540145e-16 -17.173284)
(282.94014 3.3128096e-16 -15.242921)
(279.0464 1.3259137e-18 -13.197977)
(275.72842 0 -11.154539)
(272.96604 2.1465972e-17 -9.2165594)
(270.71132 -1.643169e-17 -7.4543272)
(268.91135 -2.5260604e-17 -5.9014037)
(267.49202 1.9055341e-17 -4.5869862)
(266.36396 -9.1912842e-16 -3.4842656)
(265.50373 6.8590535e-16 -2.542505)
(264.93419 2.0648722e-15 -1.7766499)
(264.57749 -2.3406967e-17 -1.1730146)
(264.33732 -1.0994192e-15 -0.66109684)
(264.14558 -2.5117316e-17 -0.20686796)
(263.99069 1.190683e-15 0.17750852)
(263.84341 -8.8061606e-16 0.48371189)
(263.6671 1.9440646e-17 0.69282533)
(263.4253 9.0783873e-16 0.79319284)
(263.17487 0 0.76801755)
(262.90181 -5.0459104e-16 0.58369279)
(262.26808 1.1340577e-17 0.20523623)
(261.67019 0 -0.17939091)
(216.47274 0 -16.553978)
(254.70649 2.6536256e-16 -19.098307)
(279.98767 -2.1827175e-16 -21.168197)
(301.72078 1.854994e-16 -22.916595)
(321.02411 -3.182313e-16 -24.683932)
(335.87632 -1.3431249e-16 -25.83354)
(337.62985 2.339316e-16 -26.57096)
(339.00303 -1.8916044e-16 -25.736032)
(337.55447 1.4792443e-16 -26.835233)
(338.10905 1.6431313e-17 -25.47356)
(337.0584 0 -26.813418)
(337.03077 2.2803019e-17 -25.440554)
(336.07642 0 -26.577626)
(335.54467 0 -25.500673)
(334.45766 -2.6234344e-17 -26.249467)
(333.4053 4.3807935e-17 -25.553706)
(331.95597 0 -25.931714)
(330.29128 6.0530201e-17 -25.523089)
(328.25341 -2.5265256e-17 -25.634193)
(325.84318 1.0430153e-16 -25.361622)
(323.01755 1.3851605e-16 -25.280113)
(319.71781 -1.1472495e-16 -24.995759)
(315.92985 -1.897104e-16 -24.70634)
(311.61402 0 -24.24292)
(306.83259 -6.1267438e-19 -23.610275)
(301.70232 2.3700737e-16 -22.699714)
(296.42575 -3.6549796e-16 -21.474167)
(291.24017 -2.781145e-16 -19.902598)
(286.379 4.1948169e-16 -18.027649)
(282.01091 4.0325067e-16 -15.935029)
(278.22552 -1.6129575e-17 -13.747488)
(275.03625 0 -11.585184)
(272.40656 2.1659835e-17 -9.5515331)
(270.2763 -4.9907771e-17 -7.7136494)
(268.58619 8.381165e-16 -6.1014452)
(267.25809 0 -4.7423595)
(266.19272 9.2320759e-16 -3.6033574)
(265.3993 -6.6654645e-16 -2.6305364)
(264.87945 -1.0033893e-15 -1.8364952)
(264.55773 -2.3445227e-17 -1.2156739)
(264.34448 1.1000172e-15 -0.69610867)
(264.15936 -2.5097999e-17 -0.23526329)
(264.0091 -1.1517552e-15 0.15317674)
(263.85537 8.5095046e-16 0.46243587)
(263.66724 0 0.67280353)
(263.42161 0 0.77410347)
(263.17077 -1.3163952e-15 0.75131417)
(262.88061 -9.6615912e-16 0.55687427)
(262.20254 1.1176654e-17 0.17561912)
(261.65658 -5.3848342e-16 -0.19701988)
(217.57459 3.8272973e-16 -17.644717)
(256.17467 -2.7362258e-16 -20.366342)
(281.63851 3.4631795e-18 -22.57467)
(303.47235 1.8849971e-16 -24.416574)
(322.77179 -1.6146151e-16 -26.311984)
(336.96932 -2.720674e-16 -27.422918)
(338.00708 2.3000989e-16 -28.163991)
(339.38067 0 -27.250528)
(337.8942 0 -28.440092)
(338.43955 1.661576e-17 -26.990779)
(337.34239 1.3880773e-16 -28.423471)
(337.25872 -9.2183667e-17 -27.004396)
(336.28189 7.7079053e-17 -28.21201)
(335.69858 -6.3912272e-17 -27.124372)
(334.54937 5.3222062e-17 -27.911666)
(333.43056 4.4380924e-17 -27.224104)
(331.91815 3.7041825e-17 -27.611424)
(330.1881 -1.3552112e-20 -27.209864)
(328.09528 1.0204766e-16 -27.318774)
(325.6212 4.257373e-17 -27.044263)
(322.7061 -1.7532136e-16 -26.940965)
(319.28706 1.162556e-16 -26.643132)
(315.33335 2.1637566e-16 -26.31798)
(310.84677 3.555144e-19 -25.792161)
(305.90477 2.4440384e-16 -25.064258)
(300.64393 0 -24.024936)
(295.28781 2.0635001e-17 -22.640061)
(290.08578 -1.7468479e-17 -20.892242)
(285.27037 0 -18.840081)
(280.99903 -3.6178861e-16 -16.584342)
(277.34359 -5.7228796e-16 -14.256614)
(274.29923 -2.8165016e-17 -11.980004)
(271.81389 2.1689901e-17 -9.8563205)
(269.8163 0 -7.9485712)
(268.242 -8.1744685e-16 -6.2825211)
(267.00871 -1.9346832e-17 -4.883937)
(266.01032 9.1323011e-16 -3.7120534)
(265.28802 -6.4740668e-16 -2.7107926)
(264.81826 1.0056773e-15 -1.8912852)
(264.52985 2.3482152e-17 -1.2543836)
(264.34235 -5.1564097e-17 -0.72849027)
(264.1665 2.5072165e-17 -0.26269221)
(264.01969 0 0.12940689)
(263.86287 8.2109674e-16 0.44071332)
(263.66489 -1.211482e-15 0.65225462)
(263.41445 0 0.75550697)
(263.16247 1.3235605e-15 0.73405986)
(262.84621 9.3860754e-16 0.52908152)
(262.14091 7.0281775e-16 0.14619152)
(261.64146 5.1861363e-16 -0.21294182)
(218.43019 -3.0332967e-18 -18.732603)
(257.38331 4.3467679e-18 -21.629945)
(283.03346 -1.0569204e-17 -23.980145)
(304.96719 -3.8327161e-16 -25.913181)
(324.25758 3.1761817e-16 -27.946941)
(337.76659 2.8453113e-16 -29.004466)
(338.12905 -2.406508e-16 -29.765518)
(339.50154 0 -28.784294)
(337.98 -1.624494e-16 -30.091118)
(338.53397 2.6976152e-16 -28.56777)
(337.39591 -1.4054212e-16 -30.097172)
(337.32988 1.1717302e-16 -28.616956)
(336.24517 -1.9512605e-16 -29.873916)
(335.62552 9.7308667e-17 -28.767887)
(334.43671 -1.1329657e-20 -29.578912)
(333.28001 -4.5147137e-17 -28.895281)
(331.72989 3.7339291e-17 -29.289702)
(329.95023 2.3234964e-20 -28.892581)
(327.78938 -1.0347063e-16 -28.99037)
(325.22255 4.3193192e-17 -28.724367)
(322.18162 -3.5383485e-17 -28.614552)
(318.60883 0 -28.298088)
(314.49614 0 -27.928388)
(309.8481 0 -27.333459)
(304.76105 3.3394533e-17 -26.499907)
(299.39333 5.3693957e-19 -25.320465)
(293.98672 3.3091306e-16 -23.766238)
(288.7997 0 -21.835245)
(284.06045 -2.8940753e-17 -19.603094)
(279.91209 2.2737676e-17 -17.185368)
(276.40731 -5.8016526e-16 -14.721536)
(273.52305 9.0791055e-16 -12.336424)
(271.19263 0 -10.129185)
(269.3351 0 -8.1579062)
(267.88171 0 -6.4438646)
(266.74406 1.9445879e-17 -5.0106841)
(265.81981 -9.7484383e-16 -3.8099078)
(265.17128 4.3284795e-17 -2.7829026)
(264.75333 -1.598773e-17 -1.9411055)
(264.49831 2.3502448e-17 -1.2898507)
(264.3297 -1.7183408e-17 -0.75793284)
(264.16652 -1.57721e-15 -0.28870061)
(264.02313 -1.8187842e-17 0.10635884)
(263.86353 -8.4405308e-16 0.41915337)
(263.66095 1.2234901e-15 0.63119727)
(263.40439 0 0.73708973)
(263.14939 1.2698468e-15 0.71594302)
(262.79567 1.4697573e-17 0.50099838)
(262.08339 -1.0629728e-17 0.1174128)
(261.62599 7.9842341e-18 -0.22550219)
(219.07966 3.9746574e-16 -19.835482)
(258.39066 2.7810166e-16 -22.921042)
(284.23056 -2.1492976e-16 -25.423103)
(306.25902 0 -27.45008)
(325.52058 2.0818021e-17 -29.634176)
(338.29926 -3.4514222e-21 -30.618603)
(338.05381 0 -31.406508)
(339.45297 0 -30.34308)
(337.87303 -1.8535083e-16 -31.760947)
(338.41095 1.3667781e-16 -30.155456)
(337.24871 2.8536189e-17 -31.773383)
(337.18766 9.5112013e-17 -30.23348)
(336.06667 -1.1875185e-16 -31.537749)
(335.42134 9.882802e-17 -30.415581)
(334.20148 -1.0961135e-16 -31.239492)
(333.00097 4.5772482e-17 -30.553716)
(331.39718 -1.1381855e-16 -30.951524)
(329.54435 -1.263787e-16 -30.573703)
(327.28527 -1.0509124e-16 -30.675756)
(324.59577 0 -30.415024)
(321.41882 0 -30.289557)
(317.69716 0 -29.950297)
(313.42708 1.7348664e-16 -29.529828)
(308.62756 -3.2789349e-16 -28.855982)
(303.41242 2.8600053e-16 -27.905876)
(297.96141 0 -26.575248)
(292.53335 2.2595044e-17 -24.84253)
(287.39258 -3.6218279e-17 -22.72304)
(282.75908 4.8140599e-16 -20.310042)
(278.75879 0 -17.733327)
(275.42409 5.8459803e-16 -15.139021)
(272.71378 -8.8561036e-16 -12.652347)
(270.54765 -4.4282134e-17 -10.368758)
(268.83673 -1.0381486e-15 -8.3407686)
(267.50846 -8.542012e-16 -6.5851046)
(266.46485 1.9538458e-17 -5.1216866)
(265.62351 -4.3823311e-17 -3.89635)
(265.05034 1.4110982e-15 -2.8465959)
(264.6857 1.0253852e-15 -1.9858267)
(264.46396 0 -1.3223818)
(264.3103 0 -0.78494473)
(264.15952 1.6244437e-15 -0.31299854)
(264.01923 -1.8131679e-17 0.084231974)
(263.85871 2.625883e-17 0.39794195)
(263.65435 -1.8997568e-17 0.60993276)
(263.392 -1.7742635e-15 0.71832833)
(263.13138 -1.2864669e-15 0.69653621)
(262.7277 -8.998725e-16 0.47327448)
(262.02954 -6.8995131e-16 0.089886596)
(261.61058 7.8242967e-18 -0.23666729)
(219.6215 0 -20.94941)
(259.28635 4.4845395e-18 -24.225493)
(285.3146 -7.2865455e-18 -26.88981)
(307.43285 -6.1937413e-18 -29.013819)
(326.62903 3.3811741e-16 -31.349433)
(338.62151 -2.9246088e-16 -32.238786)
(337.833 2.4059261e-16 -33.068124)
(339.25224 -1.9965047e-16 -31.91031)
(337.62424 2.087016e-17 -33.432462)
(338.18884 6.0443956e-21 -31.732443)
(336.97626 8.6982796e-17 -33.429191)
(336.86378 -9.616773e-17 -31.837659)
(335.76117 0 -33.190018)
(335.08048 -6.6983577e-17 -32.051226)
(333.81629 -5.5993358e-17 -32.89685)
(332.55199 2.3167828e-16 -32.225728)
(330.87337 -3.8400299e-17 -32.628746)
(328.92515 1.9240804e-16 -32.265387)
(326.56077 1.0642483e-16 -32.363434)
(323.74859 -1.7722123e-16 -32.106083)
(320.43369 0 -31.961995)
(316.56229 0 -31.593063)
(312.14035 -4.0218212e-16 -31.113054)
(307.19932 6.8447698e-16 -30.350316)
(301.8724 -1.5419255e-17 -29.272171)
(296.36171 0 -27.779289)
(290.94099 3.6467042e-16 -25.859855)
(285.87695 0 -23.548097)
(281.3775 -4.7083845e-16 -20.955223)
(277.54878 0 -18.224252)
(274.40195 0 -15.50651)
(271.87789 0 -12.926208)
(269.88409 2.2383833e-17 -10.574079)
(268.32537 -1.8704793e-17 -8.4965865)
(267.12522 8.5822326e-16 -6.7061192)
(266.17316 -3.9198392e-17 -5.2164307)
(265.42248 -1.4691273e-17 -3.9706945)
(264.92613 2.2119869e-17 -2.9016829)
(264.61509 -1.0586377e-15 -2.0251968)
(264.42613 1.5286736e-15 -1.3518104)
(264.28736 3.4313802e-17 -0.81003332)
(264.14666 -2.4939111e-17 -0.33578255)
(264.00949 1.1383258e-15 0.063093587)
(263.8509 1.3065621e-17 0.3770345)
(263.64364 0 0.58877288)
(263.37767 -1.1030636e-19 0.69914991)
(263.10853 0 0.67524009)
(262.64363 9.3055731e-16 0.44631628)
(261.97815 -1.0424291e-17 0.064270815)
(261.59506 -9.8001866e-16 -0.24507542)
(220.0915 -4.0656201e-16 -22.083302)
(260.09251 5.8318662e-16 -25.547529)
(286.30679 -9.4791204e-16 -28.375341)
(308.51387 8.0583462e-16 -30.597974)
(327.58579 -7.0728131e-16 -33.079375)
(338.76722 2.8766811e-16 -33.84593)
(337.49867 0 -34.730049)
(338.93378 2.027877e-16 -33.472162)
(337.26582 -1.4798853e-16 -35.104316)
(337.82564 -1.7588008e-17 -33.311582)
(336.57682 -1.1758711e-16 -35.090454)
(336.4484 7.3140898e-17 -33.45442)
(335.29201 0 -34.855473)
(334.56426 6.7885115e-17 -33.704913)
(333.24379 1.1306639e-16 -34.563644)
(331.90915 -4.664687e-17 -33.904394)
(330.15254 0 -34.308334)
(328.10782 -2.2759248e-16 -33.960665)
(325.63385 -2.6884693e-17 -34.052675)
(322.69495 1.7930575e-16 -33.794616)
(319.24086 -1.8684864e-16 -33.625569)
(315.22151 3.0592615e-17 -33.219903)
(310.65135 2.0365911e-16 -32.671248)
(305.5781 -3.1468641e-16 -31.808244)
(300.15582 -2.9326219e-16 -30.589931)
(294.60897 0 -28.923788)
(289.22409 -3.9108517e-16 -26.8103)
(284.26626 1.8446853e-17 -24.303992)
(279.92763 4.7886191e-16 -21.533937)
(276.29223 7.606002e-16 -18.655026)
(273.34922 0 -15.822128)
(271.02198 -9.0405969e-16 -13.156972)
(269.20725 -2.2431623e-17 -10.744599)
(267.80513 1.1020274e-15 -8.625106)
(266.73387 -8.1130394e-16 -6.8067847)
(265.87177 -1.9658753e-17 -5.2947527)
(265.21778 -2.9418601e-17 -4.0324036)
(264.7997 -1.3950071e-15 -2.9480868)
(264.54163 1.6051794e-17 -2.0591145)
(264.38475 -1.5048106e-15 -1.3779321)
(264.26182 0 -0.83326836)
(264.13021 0 -0.3573881)
(263.99668 -1.1520823e-15 0.042726326)
(263.84104 0 0.35633358)
(263.62876 1.8753894e-17 0.56785792)
(263.36157 1.7172005e-15 0.67952886)
(263.08065 1.2494868e-15 0.65147605)
(262.54782 1.8086467e-15 0.42014514)
(261.92694 1.0269357e-17 0.04116894)
(261.57899 9.5187501e-16 -0.25333392)
(220.45119 -6.4559836e-18 -23.235233)
(260.76665 5.9730318e-16 -26.890829)
(287.16952 -4.8181064e-16 -29.889032)
(309.47245 6.3988296e-18 -32.21403)
(328.34678 1.0870014e-17 -34.838537)
(338.70567 0 -35.460646)
(337.01066 -2.4773674e-16 -36.410825)
(338.46188 2.310931e-16 -35.046484)
(336.74791 1.5047542e-16 -36.789585)
(337.30543 -1.4261214e-16 -34.904881)
(336.01136 1.4910176e-16 -36.764707)
(335.85392 -1.982888e-16 -35.079227)
(334.65592 1.2392544e-16 -36.520968)
(333.87832 -1.3745454e-16 -35.364869)
(332.49997 1.1462441e-16 -36.235347)
(331.09067 -1.4282689e-16 -35.591221)
(329.25158 -7.9523721e-17 -35.992853)
(327.10615 1.318627e-16 -35.658714)
(324.51963 0 -35.739727)
(321.45208 -1.3689544e-16 -35.476587)
(317.85706 1.1341893e-16 -35.276528)
(313.68963 0 -34.825772)
(308.97502 0 -34.198081)
(303.77876 3.4316465e-16 -33.222471)
(298.27782 3.5470028e-17 -31.851182)
(292.71864 -2.843174e-17 -30.000894)
(287.39786 0 -27.687)
(282.57461 5.866996e-16 -24.98538)
(278.42197 -4.6746896e-16 -22.042482)
(274.99974 -7.6596831e-16 -19.023407)
(272.27444 0 -16.084712)
(270.15275 9.3881108e-16 -13.344144)
(268.52252 2.2710399e-17 -10.880209)
(267.27974 -1.1277344e-15 -8.7264418)
(266.33465 2.5239528e-15 -6.8867544)
(265.56459 1.9776349e-17 -5.3568541)
(265.0116 -1.4730083e-17 -4.0813272)
(264.67245 -1.3975948e-15 -2.9858733)
(264.46534 0 -2.0874607)
(264.33957 1.5275388e-15 -1.4005131)
(264.23354 -1.7107371e-17 -0.8544908)
(264.11189 1.587592e-15 -0.37806051)
(263.98213 2.2947946e-15 0.022998318)
(263.82934 -1.6546767e-15 0.33577793)
(263.61008 0 0.5472457)
(263.34338 -1.7155518e-15 0.65950498)
(263.04641 -1.2548985e-15 0.62504393)
(262.44531 1.4712278e-17 0.39449551)
(261.87422 -1.2817738e-15 0.021067108)
(261.56208 -9.4681339e-16 -0.26055946)
(220.69077 -8.322098e-16 -24.394445)
(261.31117 -4.7021004e-18 -28.241677)
(287.91156 0 -31.414186)
(310.32185 1.3033282e-17 -33.84783)
(328.90707 0 -36.608283)
(338.41539 -2.7801963e-16 -37.065689)
(336.38226 2.667199e-16 -38.096079)
(337.84851 1.826498e-16 -36.620405)
(336.08844 -1.7406879e-16 -38.478829)
(336.64019 1.4504373e-16 -36.506524)
(335.30203 -1.2061683e-16 -38.447491)
(335.11541 0 -36.717614)
(333.86905 -8.4152103e-17 -38.196587)
(333.0369 -1.026649e-19 -37.036675)
(331.59735 5.8255371e-17 -37.913532)
(330.11027 -4.8590081e-17 -37.284803)
(328.18604 1.2057475e-16 -37.679341)
(325.93712 0 -37.357045)
(323.23442 -2.8027557e-17 -37.422837)
(320.03488 2.0771956e-16 -37.149406)
(316.29648 3.8705963e-17 -36.911184)
(311.98078 -3.153608e-17 -36.406156)
(307.12503 0 -35.688003)
(301.81546 -3.4627414e-16 -34.586342)
(296.2533 0 -33.048695)
(290.70628 0 -31.003693)
(285.47763 -7.6121737e-16 -28.484141)
(280.81641 -6.102796e-16 -25.588022)
(276.87332 -9.8126127e-16 -22.478205)
(273.68206 7.7738882e-16 -19.32807)
(271.18611 0 -16.293818)
(269.27676 0 -13.487744)
(267.83505 -2.2863738e-17 -10.981208)
(266.75224 1.1325235e-15 -8.8011057)
(265.92703 -1.6626053e-15 -6.9454636)
(265.25727 -3.9650431e-17 -5.4032906)
(264.80724 1.4766814e-17 -4.1178694)
(264.54469 1.3989021e-15 -3.015094)
(264.38466 3.2129852e-17 -2.1099067)
(264.29065 -3.0287092e-15 -1.4194006)
(264.20227 0 -0.87339056)
(264.09248 -1.6073043e-15 -0.39781101)
(263.96629 -2.2847016e-15 0.0038485619)
(263.8144 1.2810718e-17 0.31556799)