/*--------------------------------*- C++ -*----------------------------------*\
  =========                 |
  \\      /  F ield         | OpenFOAM: The Open Source CFD Toolbox
   \\    /   O peration     | Website:  https://openfoam.org
    \\  /    A nd           | Version:  8
     \\/     M anipulation  |
\*---------------------------------------------------------------------------*/
FoamFile
{
    version     2.0;
    format      ascii;
    class       volVectorField;
    location    "0.170001";
    object      wallShearStress;
}
// * * * * * * * * * * * * * * * * * * * * * * * * * * * * * * * * * * * * * //

dimensions      [1 -1 -2 0 0 0 0];

internalField   uniform (0 0 0);

boundaryField
{
    aerofoil
    {
        type            calculated;
        value           nonuniform List<vector> 
300
(
(-131.16523 -7.1055272e-23 6.6617637)
(-130.96991 -4.2369207e-19 7.1509046)
(-132.3177 -3.9598771e-19 7.7664437)
(-133.85391 8.8687119e-19 8.4173207)
(-135.64163 -4.6035002e-16 9.0773421)
(-137.68725 1.0780704e-21 9.8123962)
(-139.6619 -2.3890065e-16 10.546195)
(-141.59045 -2.4343527e-16 11.316271)
(-143.3402 -2.4801137e-16 12.093797)
(-144.9207 7.0416814e-33 12.885889)
(-146.30606 -2.5768928e-16 13.690866)
(-147.47707 2.1568968e-18 14.493178)
(-148.46786 -2.6954566e-16 15.30589)
(-149.35016 -1.1251885e-19 16.128395)
(-150.20398 2.7769219e-16 16.972708)
(-150.98622 4.5364097e-18 17.83407)
(-151.66881 5.728271e-16 18.703933)
(-152.2687 5.9284221e-16 19.587357)
(-152.80546 -1.2038406e-15 20.484752)
(-153.2841 0 21.397416)
(-153.70459 5.5370486e-33 22.324546)
(-154.06828 2.9977893e-19 23.265919)
(-154.4057 3.2897939e-16 24.230237)
(-154.71037 2.1287084e-20 25.212224)
(-154.99419 -3.3594417e-16 26.221165)
(-155.22108 3.4236165e-16 27.244202)
(-155.41475 3.4350438e-16 28.293067)
(-155.55923 2.4773264e-21 29.362306)
(-155.64959 3.622702e-16 30.453664)
(-155.68711 1.3712856e-19 31.570699)
(-155.68302 3.7613356e-16 32.723738)
(-155.63208 -3.8315871e-16 33.906693)
(-155.55754 -7.7037198e-34 35.127776)
(-155.48573 4.1049386e-16 36.394453)
(-155.43276 -4.1848707e-16 37.719401)
(-155.39729 8.4722129e-19 39.107583)
(-155.36015 -1.3219428e-17 40.553908)
(-155.36632 -9.192087e-20 42.076369)
(-155.39022 4.3739426e-16 43.682834)
(-155.40268 7.0570748e-19 45.371023)
(-155.36694 1.3532183e-17 47.132563)
(-155.25036 1.9883454e-20 48.966461)
(-155.02672 -2.6991592e-18 50.889288)
(-154.71431 -4.6688254e-16 52.912426)
(-154.27217 4.7661378e-16 55.035681)
(-153.74162 2.6135279e-18 57.29128)
(-153.11024 4.9085917e-16 59.661161)
(-152.40394 -5.0742644e-16 62.156142)
(-151.46321 1.2854273e-17 64.746045)
(-150.21553 5.2367128e-16 67.425848)
(-148.58171 7.7037198e-34 70.195606)
(-146.49853 -1.8342872e-17 73.053119)
(-143.8797 5.9181443e-16 76.027242)
(-140.70409 1.3153683e-17 79.150887)
(-136.971 1.1869953e-17 82.48348)
(-132.70879 -1.837664e-17 86.084762)
(-128.01072 -5.9025996e-16 90.007411)
(-123.08336 -8.9943303e-18 93.92902)
(-118.7402 -1.9960574e-17 97.91372)
(-114.72667 -6.5481177e-16 101.75168)
(-110.58246 1.3930612e-17 105.25549)
(-105.74543 6.7461658e-16 108.2092)
(-99.816965 -6.9028957e-16 110.27006)
(-92.70326 -1.0631216e-17 111.08674)
(-84.25994 1.4228232e-17 110.31772)
(-74.480462 -1.0231503e-34 107.56542)
(-63.567602 1.1465646e-17 102.42393)
(-51.877121 3.6692183e-16 94.479139)
(-39.97768 -3.6417795e-16 83.407711)
(-28.436988 -3.717965e-16 69.053044)
(-17.642641 6.1629758e-33 51.764201)
(-9.0310768 5.8954673e-19 32.296666)
(-4.2642422 -1.4440038e-16 14.654852)
(-1.728404 -5.5719102e-17 3.9646696)
(-0.96572509 3.0092655e-36 -0.75524038)
(-103.21867 2.3793435e-15 -12.5355)
(-135.16814 1.1118122e-15 -12.788062)
(-138.23167 0 -12.946427)
(-140.04806 0 -12.863643)
(-140.98558 2.2019178e-15 -12.710605)
(-141.67981 -7.5634503e-19 -12.536888)
(-141.98758 -1.0891238e-15 -12.335454)
(-142.12873 3.4283413e-26 -12.12444)
(-142.08896 4.3624838e-21 -11.90116)
(-141.9379 7.6497285e-19 -11.673596)
(-141.70065 -7.1614195e-19 -11.442557)
(-141.4034 7.2847456e-19 -11.209995)
(-141.06122 5.1480144e-26 -10.979046)
(-140.69698 7.5564481e-19 -10.751631)
(-140.31934 -4.1484478e-24 -10.525485)
(-139.92146 5.1713772e-16 -10.302157)
(-139.50598 5.1381803e-16 -10.080724)
(-139.07035 5.1066189e-16 -9.859674)
(-138.61569 -7.3598978e-20 -9.640983)
(-138.14723 -5.0466948e-16 -9.4231369)
(-137.6651 9.555838e-22 -9.207665)
(-137.17267 -1.9039633e-21 -8.9925465)
(-136.67111 -3.5850645e-21 -8.7801045)
(-136.16686 5.2859316e-19 -8.5676816)
(-135.65789 4.9096021e-16 -8.3577164)
(-135.1484 9.0518707e-33 -8.1477297)
(-134.63686 1.0872173e-25 -7.9403381)
(-134.13027 1.8413423e-21 -7.7324404)
(-133.6283 4.811058e-16 -7.5265005)
(-133.13873 -1.2116332e-25 -7.3205355)
(-132.65635 1.2662093e-19 -7.114965)
(-132.18269 4.7408376e-16 -6.9123212)
(-131.72464 -9.4365363e-16 -6.7079134)
(-131.27174 9.3862769e-16 -6.5033679)
(-130.83189 4.6724885e-16 -6.2987014)
(-130.40419 -7.4998724e-21 -6.0943863)
(-129.99403 5.8748113e-21 -5.8891426)
(-129.59578 1.7615693e-21 -5.6831793)
(-129.21287 -4.5888385e-16 -5.4753042)
(-128.84096 -4.5735307e-16 -5.2669605)
(-128.48915 -8.4243806e-20 -5.0565593)
(-128.1499 9.2871021e-20 -4.8439159)
(-127.82726 4.5104158e-16 -4.6287679)
(-127.51549 -3.4183259e-21 -4.4120252)
(-127.22309 -3.4299943e-19 -4.1912866)
(-126.94891 8.9487532e-20 -3.9680848)
(-126.70744 2.2177746e-16 -3.7412558)
(-126.5011 4.4126683e-16 -3.5105053)
(-126.33118 -2.1956681e-16 -3.2758289)
(-126.19359 2.5160506e-19 -3.037998)
(-126.08834 -1.0664018e-19 -2.7944501)
(-126.00051 -2.1709944e-16 -2.5445453)
(-125.92048 -2.1585633e-16 -2.2899994)
(-125.8444 -9.8210699e-20 -2.0287608)
(-125.7628 -4.2874424e-16 -1.7600416)
(-125.68148 2.1327552e-16 -1.4848185)
(-125.6286 3.7314893e-33 -1.2017373)
(-125.65121 -2.1253928e-25 -0.91117497)
(-125.81969 -1.0567981e-16 -0.61077772)
(-126.16533 0 -0.304874)
(-126.70867 2.318285e-19 0.010179594)
(-127.41159 5.208765e-17 0.33579153)
(-128.24614 5.1806253e-17 0.69699385)
(-129.11369 -2.598273e-17 1.0958089)
(-129.91597 -1.0948873e-19 1.4903939)
(-130.57848 8.7056717e-20 1.9116491)
(-130.99282 -2.5546586e-17 2.345137)
(-131.19323 1.0191563e-19 2.7541508)
(-131.14861 -5.0999483e-17 3.1671856)
(-130.95021 1.241698e-20 3.5999177)
(-130.57258 -1.0149257e-16 4.0428544)
(-130.1329 -1.0117982e-16 4.5011822)
(-129.7126 2.0146684e-16 4.9819736)
(-129.45268 -2.0052862e-16 5.4903261)
(-130.6216 1.9936299e-16 6.0847459)
(-129.37069 -1.9818768e-16 5.635276)
(-135.4306 -3.9301676e-19 5.3518935)
(-140.19837 4.264755e-19 4.9860827)
(-144.60699 1.0480532e-16 4.5679164)
(-148.557 8.0079289e-19 4.1116613)
(-152.09744 -5.3342204e-17 3.5646344)
(-155.22179 -1.8634365e-18 2.8847744)
(-158.05241 4.3114879e-20 2.2059247)
(-160.5506 1.8315525e-18 1.4760587)
(-162.81603 -1.8768412e-18 0.69539606)
(-164.85506 3.2305526e-17 -0.069015369)
(-166.79281 6.0606035e-17 -0.82143654)
(-168.66721 4.1672141e-18 -1.6266513)
(-170.50327 -6.9315828e-17 -2.4670934)
(-172.21959 2.7010251e-16 -3.3380233)
(-173.83514 -4.0403515e-18 -4.2420262)
(-175.34493 -2.9143394e-21 -5.175191)
(-176.76673 2.8895634e-22 -6.1393356)
(-178.10034 -1.4432704e-16 -7.1319707)
(-179.35646 -4.1498169e-20 -8.1566458)
(-180.53209 4.8803732e-21 -9.2146136)
(-181.62323 -4.8100975e-18 -10.305808)
(-182.64565 -6.0586565e-20 -11.438325)
(-183.60522 9.9328569e-18 -12.606584)
(-184.53331 2.8375024e-20 -13.819493)
(-185.42653 3.2544561e-16 -15.072944)
(-186.31147 3.2654796e-16 -16.37269)
(-187.20843 3.5431398e-16 -17.726243)
(-188.10856 -3.5047841e-16 -19.130902)
(-189.04639 3.5716573e-16 -20.598444)
(-190.02929 -1.1406805e-17 -22.132095)
(-191.03123 -3.5960912e-16 -23.744594)
(-192.05408 3.7801e-16 -25.447586)
(-193.0788 7.7042778e-16 -27.236878)
(-194.10671 1.2330918e-17 -29.114143)
(-195.12964 -4.1322932e-16 -31.095138)
(-196.10705 4.0718367e-16 -33.175084)
(-197.04493 -3.8518599e-34 -35.360637)
(-197.94319 1.6953891e-18 -37.658219)
(-198.81364 -1.5703728e-17 -40.080688)
(-199.67325 -4.3599961e-16 -42.627293)
(-200.52594 1.3804424e-17 -45.292108)
(-201.34043 9.1112001e-16 -48.079874)
(-202.05196 7.0063514e-20 -50.987833)
(-202.58614 4.6909181e-16 -54.010774)
(-202.9262 4.6198704e-16 -57.17422)
(-203.00451 1.8320787e-17 -60.474136)
(-202.73755 4.9230091e-16 -63.886115)
(-201.98222 -5.1186223e-16 -67.435501)
(-200.74644 -4.7639082e-16 -71.125209)
(-198.99791 -3.2197404e-17 -74.975525)
(-196.69794 5.4102844e-16 -78.994062)
(-193.79074 5.4371707e-16 -83.181192)
(-190.23613 -1.32662e-17 -87.555423)
(-186.00638 5.3759395e-16 -92.127424)
(-181.08183 5.7309753e-16 -96.906274)
(-175.47546 -3.52848e-17 -101.91122)
(-169.33712 2.9623902e-17 -107.10345)
(-162.91488 2.6306945e-19 -112.30571)
(-156.77576 -1.6647909e-17 -117.40271)
(-150.594 1.9136053e-17 -122.32508)
(-144.03765 -6.3578653e-16 -126.86758)
(-136.56633 3.6977855e-32 -130.67885)
(-127.84585 1.3137341e-15 -133.30985)
(-117.79211 -6.9153519e-16 -134.65123)
(-106.47656 -6.4771613e-16 -134.33239)
(-93.692338 0 -131.71969)
(-79.626133 0 -126.41295)
(-64.686638 -3.4915394e-16 -117.69721)
(-49.480753 -3.5291027e-16 -105.0306)
(-34.938168 -3.5320842e-16 -88.375179)
(-21.867942 -1.8280206e-18 -68.32865)
(-11.514395 -3.4089912e-16 -45.81441)
(-5.5617129 -3.9908317e-19 -22.975775)
(-2.436797 -6.7559924e-17 -8.9320368)
(-0.5049331 4.5159639e-16 0.38363761)
(-1.9655375 1.0895808e-20 0.38602533)
(-2.5369652 -1.3109349e-20 0.49246552)
(-3.5613619 -3.1532977e-16 0.68106027)
(-4.6111278 6.7888375e-16 0.86928493)
(-5.84586 -3.6422881e-16 1.0872811)
(-7.1618429 3.8715567e-16 1.3180642)
(-8.5637981 7.4191255e-21 1.561795)
(-10.024353 1.6298714e-21 1.8115977)
(-11.535419 4.4649273e-16 2.0663274)
(-13.079807 3.293572e-20 2.3223428)
(-14.639946 2.5353789e-20 2.5767705)
(-16.204977 -4.9281216e-16 2.8278127)
(-17.776578 9.9362457e-20 3.0757774)
(-19.355017 -5.1808742e-16 3.3200907)
(-20.935057 -1.0589144e-15 3.560661)
(-22.514627 -8.6812795e-20 3.7968857)
(-24.089527 1.0468418e-21 4.0279908)
(-25.652546 -1.6016932e-21 4.2531702)
(-27.197366 -5.6797077e-16 4.4713803)
(-28.722244 -5.7620054e-16 4.6826402)
(-30.236082 5.8221035e-21 4.8877732)
(-31.746208 -5.9111578e-16 5.0884153)
(-33.256537 -6.5615923e-20 5.2846908)
(-34.762137 -6.0468101e-16 5.4766251)
(-36.264547 -1.2220231e-15 5.6636146)
(-37.760649 6.1711026e-16 5.8459591)
(-39.250652 -1.2464256e-25 6.0226872)
(-40.730034 7.4752123e-23 6.1940246)
(-42.199863 1.2671193e-15 6.3594359)
(-43.658595 1.5833942e-19 6.5190053)
(-45.119525 -1.3962602e-25 6.675098)
(-46.594514 6.4807858e-16 6.8274859)
(-48.075563 -8.9557204e-20 6.9762116)
(-49.56042 -1.7007756e-19 7.1205923)
(-51.051616 -6.6135117e-16 7.2609553)
(-52.549432 1.7467257e-21 7.3967729)
(-54.046697 1.3824852e-21 7.527308)
(-55.540689 -1.6485146e-25 7.6515405)
(-57.035992 -1.1456133e-19 7.7705987)
(-58.545729 -9.6947731e-20 7.8850403)
(-60.075332 1.0012744e-19 7.9954263)
(-61.622822 6.2952006e-20 8.1014073)
(-63.182907 6.90512e-16 8.2024259)
(-64.756576 -1.7311835e-19 8.2971538)
(-66.337856 1.0947788e-19 8.3854721)
(-67.924641 6.8316269e-20 8.4662279)
(-69.511834 1.1101843e-19 8.5386085)
(-71.102346 7.0546151e-16 8.6030098)
(-72.707505 7.7133316e-20 8.6605762)
(-74.343502 -7.1067211e-16 8.7110241)
(-76.011739 3.7905189e-20 8.7544403)
(-77.705808 -4.0880988e-20 8.7911646)
(-79.423486 -1.1839762e-19 8.8191025)
(-81.157258 -9.0110441e-20 8.8362868)
(-82.893206 -5.4949143e-21 8.8424227)
(-84.629157 -1.4482122e-15 8.8361022)
(-86.386707 -2.2733599e-25 8.8174994)
(-88.194907 -1.4557155e-15 8.7881362)
(-90.053017 7.2964787e-16 8.7486744)
(-91.944308 9.8910864e-20 8.6953199)
(-93.837902 -7.7262123e-21 8.6265135)
(-95.710343 7.3434881e-16 8.538013)
(-97.519488 -3.67873e-16 8.4266927)
(-99.23578 3.6831888e-16 8.290017)
(-100.84139 7.3550869e-20 8.1256665)
(-102.35361 -1.3550713e-25 7.9343259)
(-103.83837 3.6940821e-16 7.7181468)
(-105.40865 -3.6971702e-16 7.4843803)
(-107.24097 -1.1348454e-20 7.241857)
(-109.53615 3.7059228e-16 6.9924752)
(-112.47844 3.7043749e-16 6.7484873)
(-116.19711 3.7012535e-16 6.5006043)
(-120.64611 -1.4964694e-21 6.2520688)
(-124.52301 1.1199179e-20 5.8929261)
)
;
    }
    inlet
    {
        type            calculated;
        value           uniform (0 0 0);
    }
    outlet
    {
        type            calculated;
        value           uniform (0 0 0);
    }
    back
    {
        type            empty;
    }
    front
    {
        type            empty;
    }
}


// ************************************************************************* //
