/*--------------------------------*- C++ -*----------------------------------*\
  =========                 |
  \\      /  F ield         | OpenFOAM: The Open Source CFD Toolbox
   \\    /   O peration     | Website:  https://openfoam.org
    \\  /    A nd           | Version:  8
     \\/     M anipulation  |
\*---------------------------------------------------------------------------*/
FoamFile
{
    version     2.0;
    format      ascii;
    class       volScalarField;
    location    "0.170001";
    object      yPlus;
}
// * * * * * * * * * * * * * * * * * * * * * * * * * * * * * * * * * * * * * //

dimensions      [0 0 0 0 0 0 0];

internalField   uniform 0;

boundaryField
{
    aerofoil
    {
        type            calculated;
        value           nonuniform List<scalar> 
300
(
128.81797
127.8512
127.33398
126.91432
126.52882
126.41269
126.24893
126.16907
126.05324
125.93448
125.81541
125.66566
125.49712
125.31464
125.17421
125.05992
124.94897
124.84351
124.7558
124.68195
124.62226
124.56869
124.54192
124.5254
124.53734
124.54616
124.57535
124.60557
124.63807
124.66551
124.71064
124.75728
124.81664
124.89823
125.01204
125.16607
125.34562
125.56681
125.82643
126.11479
126.42111
126.72884
127.02425
127.33213
127.62066
127.93205
128.25064
128.60102
128.92378
129.19346
129.38582
129.50152
129.5208
129.45868
129.35488
129.26086
129.27664
129.45796
130.13956
131.2412
132.55891
133.87576
134.9548
135.63031
135.7157
134.96063
133.04478
129.51161
123.72385
114.68855
101.12969
81.21128
55.588634
29.419688
13.700831
144.04753
145.29382
146.24538
146.85996
146.87092
146.91355
146.73558
146.52619
146.23744
145.91478
145.56226
145.19626
144.82018
144.44494
144.07486
143.70064
143.32222
142.93808
142.54715
142.15271
141.75361
141.35268
140.9477
140.54449
140.13877
139.73501
139.32985
138.92913
138.52897
138.13551
137.74654
137.35925
136.98217
136.60547
136.23648
135.87111
135.51495
135.1625
134.81946
134.47836
134.14849
133.82176
133.50486
133.18969
132.88512
132.58481
132.29878
132.027
131.77251
131.53028
131.30443
131.08831
130.87611
130.66834
130.45894
130.24768
130.04489
129.85844
129.73031
129.66544
129.69107
129.77676
129.93405
130.12261
130.2959
130.4677
130.53203
130.54534
130.44232
130.32319
130.10733
129.86101
129.59962
129.33782
129.30855
122.85932
123.71352
124.33061
124.87043
125.2831
125.63958
125.87353
126.10216
126.25516
126.40991
126.49973
126.59962
126.70675
126.86009
127.00477
127.15662
127.30698
127.4621
127.61602
127.77397
127.93474
128.09159
128.25312
128.41599
128.60088
128.80177
129.025
129.28775
129.57534
129.90782
130.28569
130.70232
131.15919
131.64213
132.1566
132.70591
133.27136
133.85595
134.45844
135.08814
135.75296
136.45564
137.18261
137.92837
138.64641
139.35185
140.01713
140.6293
141.14682
141.5759
141.9197
142.19225
142.38622
142.50998
142.58765
142.64365
142.70716
142.89684
143.26713
144.07571
145.22371
146.64341
148.11397
149.36279
150.32388
150.94253
150.77555
149.49544
146.49979
140.8794
131.6629
117.74154
97.650467
69.694547
43.454856
9.3931409
18.10459
20.531583
24.296363
27.600236
31.023601
34.279944
37.418605
40.411291
43.269271
45.99092
48.566114
51.002046
53.318134
55.532739
57.647993
59.673179
61.611297
63.463627
65.229007
66.913011
68.53132
70.096805
71.617147
73.089875
74.51982
75.906602
77.253129
78.556791
79.82144
81.047314
82.245842
83.43022
84.593624
85.735644
86.857863
87.962038
89.043084
90.100273
91.135781
92.160785
93.178676
94.18934
95.187329
96.174678
97.146125
98.102393
99.039177
99.958989
100.86727
101.77547
102.68463
103.59009
104.4896
105.38034
106.2526
107.10408
107.94288
108.78845
109.63877
110.48771
111.31524
112.11449
112.86214
113.54457
114.15156
114.68189
115.16327
115.63367
116.15946
116.84627
117.73477
118.89773
120.25971
121.71855
)
;
    }
    inlet
    {
        type            calculated;
        value           uniform 0;
    }
    outlet
    {
        type            calculated;
        value           uniform 0;
    }
    back
    {
        type            empty;
    }
    front
    {
        type            empty;
    }
}


// ************************************************************************* //
