/*--------------------------------*- C++ -*----------------------------------*\
  =========                 |
  \\      /  F ield         | OpenFOAM: The Open Source CFD Toolbox
   \\    /   O peration     | Website:  https://openfoam.org
    \\  /    A nd           | Version:  8
     \\/     M anipulation  |
\*---------------------------------------------------------------------------*/
FoamFile
{
    version     2.0;
    format      ascii;
    class       volScalarField;
    location    "0.0499991";
    object      alphat;
}
// * * * * * * * * * * * * * * * * * * * * * * * * * * * * * * * * * * * * * //

dimensions      [1 -1 -1 0 0 0 0];

internalField   nonuniform List<scalar> 
20000
(
0.001078978
0.0025117175
0.0031934435
0.0032482229
0.0025767173
0.00080533798
1.9120139e-06
6.2339786e-09
5.7189463e-09
5.7162547e-09
5.5988703e-09
5.6374304e-09
5.5743503e-09
5.618043e-09
5.6252321e-09
5.6691079e-09
5.7043896e-09
5.7635837e-09
5.8277839e-09
5.9143276e-09
6.0169743e-09
6.1412928e-09
6.2836064e-09
6.4484995e-09
6.6343294e-09
6.8421001e-09
7.0664225e-09
7.301425e-09
7.5383051e-09
7.7682075e-09
7.9817192e-09
8.1712904e-09
8.3314752e-09
8.460806e-09
8.5573134e-09
8.6306756e-09
8.6865139e-09
8.7166129e-09
8.7263572e-09
8.7233925e-09
8.7123952e-09
8.7044722e-09
8.6838478e-09
8.6171057e-09
8.5829842e-09
8.5750395e-09
8.5848185e-09
8.5892473e-09
8.5874305e-09
8.5829768e-09
0.001058789
0.0024508617
0.0031023423
0.0031251978
0.0024023568
0.00066607394
5.8196515e-07
6.1123764e-09
5.6836637e-09
5.6850834e-09
5.570612e-09
5.6110409e-09
5.5489935e-09
5.5938291e-09
5.6020236e-09
5.6468718e-09
5.6834175e-09
5.7441984e-09
5.8115639e-09
5.9035673e-09
6.0102712e-09
6.1390047e-09
6.2840805e-09
6.4529694e-09
6.6439599e-09
6.8564425e-09
7.0851005e-09
7.3233204e-09
7.5618663e-09
7.7916211e-09
8.0034225e-09
8.190054e-09
8.3469324e-09
8.4722997e-09
8.5652741e-09
8.6390015e-09
8.6914546e-09
8.7183522e-09
8.7262665e-09
8.7232989e-09
8.7130045e-09
8.7048328e-09
8.6714708e-09
8.6157272e-09
8.5837005e-09
8.5752956e-09
8.5852338e-09
8.5894343e-09
8.5875329e-09
8.5829111e-09
0.001050785
0.0024071012
0.0030187735
0.0029948027
0.0022092158
0.00053137887
1.7680099e-07
6.0342275e-09
5.655546e-09
5.6589309e-09
5.5473161e-09
5.5886062e-09
5.5276325e-09
5.5730144e-09
5.5824033e-09
5.6283034e-09
5.6670298e-09
5.7321403e-09
5.8048053e-09
5.9001883e-09
6.0097886e-09
6.139509e-09
6.2887407e-09
6.4624367e-09
6.6584983e-09
6.8760756e-09
7.1091853e-09
7.350581e-09
7.5905623e-09
7.8197378e-09
8.0292524e-09
8.2124162e-09
8.3652509e-09
8.4859383e-09
8.5751762e-09
8.6487074e-09
8.6973592e-09
8.720375e-09
8.7266466e-09
8.7230093e-09
8.7143522e-09
8.7049705e-09
8.6588302e-09
8.6077289e-09
8.5853616e-09
8.5802686e-09
8.5867526e-09
8.5896941e-09
8.5876391e-09
8.5828282e-09
0.0010414142
0.0023614823
0.0029359775
0.0028721676
0.0020159701
0.00041515613
6.343487e-08
5.9791027e-09
5.6297044e-09
5.6360822e-09
5.5274281e-09
5.5698911e-09
5.5103978e-09
5.5565915e-09
5.5676173e-09
5.6164355e-09
5.659322e-09
5.7276238e-09
5.8025963e-09
5.8995425e-09
6.0102749e-09
6.1446277e-09
6.2988917e-09
6.4778823e-09
6.6795469e-09
6.9023635e-09
7.1399081e-09
7.3842238e-09
7.6251515e-09
7.8531317e-09
8.0596267e-09
8.2385825e-09
8.3866192e-09
8.5019684e-09
8.5877522e-09
8.6594139e-09
8.7032801e-09
8.7227542e-09
8.7276248e-09
8.7231395e-09
8.7162983e-09
8.7046214e-09
8.6475715e-09
8.6053937e-09
8.5862877e-09
8.5815255e-09
8.5877916e-09
8.590128e-09
8.5877264e-09
8.5827558e-09
0.0010326695
0.0023164105
0.0028518374
0.0027485454
0.0018208488
0.00031297416
2.8043655e-08
5.9411894e-09
5.6102639e-09
5.6180321e-09
5.5123086e-09
5.5548747e-09
5.4981552e-09
5.5463606e-09
5.56042e-09
5.6116741e-09
5.6565625e-09
5.7265393e-09
5.8027031e-09
5.9018138e-09
6.0168337e-09
6.1552581e-09
6.3147222e-09
6.4993184e-09
6.7067539e-09
6.9349806e-09
7.1769135e-09
7.423869e-09
7.6652328e-09
7.8913374e-09
8.0940676e-09
8.2681021e-09
8.4105667e-09
8.5200252e-09
8.60283e-09
8.6706196e-09
8.7096288e-09
8.7253772e-09
8.7290477e-09
8.7235811e-09
8.718473e-09
8.7017343e-09
8.6390726e-09
8.6021652e-09
8.5874069e-09
8.584209e-09
8.5889367e-09
8.5907269e-09
8.587821e-09
8.5826839e-09
0.0010241911
0.0022722645
0.0027661097
0.0026212911
0.0016264571
0.00022299159
1.5500379e-08
5.9125435e-09
5.5981073e-09
5.6036807e-09
5.499685e-09
5.5412061e-09
5.4922464e-09
5.5420337e-09
5.5577146e-09
5.6102576e-09
5.6562386e-09
5.7273098e-09
5.8065795e-09
5.9092851e-09
6.0282169e-09
6.171558e-09
6.3365765e-09
6.527106e-09
6.7406029e-09
6.9743365e-09
7.2205379e-09
7.4697525e-09
7.7109359e-09
7.9344104e-09
8.1325984e-09
8.3009659e-09
8.4370457e-09
8.540117e-09
8.6200071e-09
8.6824924e-09
8.716327e-09
8.7284936e-09
8.7309513e-09
8.7244006e-09
8.7200776e-09
8.6958713e-09
8.6334844e-09
8.6002184e-09
8.5879185e-09
8.5858471e-09
8.5900328e-09
8.5914555e-09
8.5879174e-09
8.5826154e-09
0.0010162888
0.0022302213
0.0026852639
0.0024983178
0.0014361593
0.00014359197
1.0459463e-08
5.891813e-09
5.5877699e-09
5.5919738e-09
5.4878228e-09
5.5319619e-09
5.4901239e-09
5.5404889e-09
5.5571746e-09
5.6105254e-09
5.6588823e-09
5.7329435e-09
5.8153313e-09
5.9217173e-09
6.0453206e-09
6.1937426e-09
6.3646351e-09
6.5614088e-09
6.7811767e-09
7.020476e-09
7.2707521e-09
7.5217602e-09
7.7620737e-09
7.9821151e-09
8.1749636e-09
8.3368828e-09
8.4657602e-09
8.5621098e-09
8.6388686e-09
8.6948632e-09
8.7234039e-09
8.7324897e-09
8.733231e-09
8.7256195e-09
8.7206279e-09
8.6887736e-09
8.6290326e-09
8.5985493e-09
8.5881866e-09
8.5875707e-09
8.5910846e-09
8.5922398e-09
8.5879752e-09
8.5825467e-09
0.0010088172
0.0021893772
0.0026073884
0.0023765513
0.0012516587
7.7493795e-05
8.2092517e-09
5.8794444e-09
5.5760184e-09
5.5811671e-09
5.4786175e-09
5.5248116e-09
5.4896805e-09
5.5408564e-09
5.559586e-09
5.6152207e-09
5.6661612e-09
5.7429777e-09
5.829018e-09
5.939526e-09
6.0680168e-09
6.2219858e-09
6.3991229e-09
6.6024605e-09
6.8287071e-09
7.0735659e-09
7.3276353e-09
7.5798722e-09
7.8185419e-09
8.0342975e-09
8.2209746e-09
8.3756062e-09
8.4965102e-09
8.5861027e-09
8.6589535e-09
8.7076145e-09
8.7306785e-09
8.7372859e-09
8.7358171e-09
8.7273549e-09
8.7206666e-09
8.6809509e-09
8.6253204e-09
8.5973931e-09
8.5883124e-09
8.5890002e-09
8.5920915e-09
8.5930534e-09
8.5880057e-09
8.582476e-09
0.0010015485
0.002149153
0.002529771
0.0022541783
0.0010750454
3.2634226e-05
7.1400447e-09
5.8675168e-09
5.5719985e-09
5.5736252e-09
5.4731947e-09
5.5203151e-09
5.4925517e-09
5.5454738e-09
5.5664196e-09
5.6241059e-09
5.6779426e-09
5.7579529e-09
5.8478661e-09
5.9627845e-09
6.0966041e-09
6.256473e-09
6.440227e-09
6.6504387e-09
6.8833267e-09
7.1336722e-09
7.3911579e-09
7.6439618e-09
7.8801412e-09
8.090713e-09
8.2703376e-09
8.4167883e-09
8.529081e-09
8.6122886e-09
8.6796869e-09
8.7206176e-09
8.73826e-09
8.7428199e-09
8.7387733e-09
8.7296991e-09
8.7204151e-09
8.6730239e-09
8.6220456e-09
8.5967676e-09
8.5885432e-09
8.5902895e-09
8.5930895e-09
8.5939189e-09
8.5880236e-09
8.5824007e-09
0.00099441421
0.0021093504
0.002452508
0.0021294464
0.00090881283
1.082409e-05
6.6070414e-09
5.8587567e-09
5.5748773e-09
5.5762491e-09
5.4760402e-09
5.5232823e-09
5.5000494e-09
5.5543359e-09
5.577576e-09
5.6375782e-09
5.6944943e-09
5.777865e-09
5.872003e-09
5.9916992e-09
6.1312125e-09
6.2973966e-09
6.4881477e-09
6.7055303e-09
6.9451795e-09
7.2008549e-09
7.4612755e-09
7.7138857e-09
7.9466543e-09
8.151085e-09
8.3227097e-09
8.4600733e-09
8.563355e-09
8.6407099e-09
8.7005462e-09
8.7337619e-09
8.7463696e-09
8.748901e-09
8.7421782e-09
8.7326644e-09
8.7198783e-09
8.6653271e-09
8.6191077e-09
8.5964185e-09
8.5889998e-09
8.5914687e-09
8.5940844e-09
8.5948268e-09
8.5880376e-09
8.5823194e-09
0.00098733757
0.0020701399
0.0023757853
0.0020028203
0.00075587589
3.1438074e-06
6.3336824e-09
5.8558801e-09
5.5779915e-09
5.5820832e-09
5.4842972e-09
5.5333515e-09
5.5116165e-09
5.5674199e-09
5.5931539e-09
5.6556206e-09
5.7158808e-09
5.8029197e-09
5.9015919e-09
6.0264197e-09
6.1720407e-09
6.3449409e-09
6.5430665e-09
6.7678928e-09
7.014364e-09
7.2751205e-09
7.5378863e-09
7.7894462e-09
8.0178041e-09
8.215059e-09
8.3776777e-09
8.5051379e-09
8.5993375e-09
8.6705961e-09
8.7214673e-09
8.7469377e-09
8.7550624e-09
8.7553084e-09
8.7460328e-09
8.736106e-09
8.7177863e-09
8.6582274e-09
8.6164583e-09
8.5962659e-09
8.5897335e-09
8.5926231e-09
8.595083e-09
8.5957764e-09
8.5880515e-09
8.5822314e-09
0.00098034141
0.0020317407
0.0022994586
0.0018765028
0.00061737648
8.939398e-07
6.1905457e-09
5.8549947e-09
5.5849919e-09
5.5904289e-09
5.4963157e-09
5.5463457e-09
5.5273884e-09
5.5848234e-09
5.6132534e-09
5.6784049e-09
5.7422605e-09
5.8332287e-09
5.9367847e-09
6.0671241e-09
6.2192671e-09
6.3993011e-09
6.6051716e-09
6.8376799e-09
7.090961e-09
7.3564442e-09
7.6208517e-09
7.8704016e-09
8.0932492e-09
8.2822026e-09
8.4348081e-09
8.5517756e-09
8.6371451e-09
8.7012128e-09
8.7421655e-09
8.7600688e-09
8.7646744e-09
8.7617735e-09
8.7502572e-09
8.7396686e-09
8.7138559e-09
8.6520276e-09
8.6141605e-09
8.5961974e-09
8.5907601e-09
8.5938219e-09
8.5960767e-09
8.5967285e-09
8.5880673e-09
8.5821368e-09
0.00097367836
0.0019949679
0.0022238813
0.0017454117
0.00049422141
2.7334694e-07
6.1158906e-09
5.8584777e-09
5.5953897e-09
5.60314e-09
5.5121848e-09
5.5637997e-09
5.5474919e-09
5.6066811e-09
5.6380078e-09
5.7060371e-09
5.7737452e-09
5.8689408e-09
5.9777233e-09
6.1139648e-09
6.2730547e-09
6.4606572e-09
6.6746332e-09
6.9150174e-09
7.1750114e-09
7.4447546e-09
7.7099831e-09
7.956446e-09
8.1725628e-09
8.3520254e-09
8.4937291e-09
8.599938e-09
8.676748e-09
8.7316518e-09
8.7624968e-09
8.7735498e-09
8.7747749e-09
8.7682949e-09
8.7547064e-09
8.7427512e-09
8.7077783e-09
8.6468711e-09
8.6123003e-09
8.5965559e-09
8.5921741e-09
8.5951634e-09
8.5970492e-09
8.5975757e-09
8.5880838e-09
8.5820364e-09
0.00096742203
0.0019601897
0.0021524501
0.0016100897
0.00039019377
9.7186717e-08
6.0785515e-09
5.8660881e-09
5.6098091e-09
5.6193769e-09
5.5322954e-09
5.5854742e-09
5.5720409e-09
5.6331105e-09
5.6675158e-09
5.7386215e-09
5.8104534e-09
5.9101705e-09
6.0245528e-09
6.1671109e-09
6.3335943e-09
6.5292018e-09
6.7516272e-09
7.0000228e-09
7.266533e-09
7.5399445e-09
7.8050404e-09
8.0471946e-09
8.2552377e-09
8.4240501e-09
8.554222e-09
8.6496879e-09
8.7173852e-09
8.7613951e-09
8.7823865e-09
8.7877411e-09
8.7850369e-09
8.7748376e-09
8.7592422e-09
8.7444824e-09
8.7009205e-09
8.6421152e-09
8.610667e-09
8.5973375e-09
8.5938671e-09
8.5967127e-09
8.598112e-09
8.5982027e-09
8.5881006e-09
8.5819314e-09
0.00096150891
0.0019267059
0.0020884052
0.0014697316
0.00029783997
4.1441193e-08
6.06427e-09
5.8782678e-09
5.6283276e-09
5.6405257e-09
5.5566852e-09
5.6115315e-09
5.6010911e-09
5.6641515e-09
5.7018383e-09
5.7762418e-09
5.8524734e-09
5.9570364e-09
6.0774101e-09
6.22672e-09
6.401059e-09
6.6051107e-09
6.8363039e-09
7.0927807e-09
7.3655014e-09
7.6418548e-09
7.9057092e-09
8.142166e-09
8.3407307e-09
8.4979266e-09
8.6162426e-09
8.7009045e-09
8.7578365e-09
8.7902138e-09
8.8022957e-09
8.8024584e-09
8.7952164e-09
8.7814031e-09
8.763846e-09
8.7451355e-09
8.6938767e-09
8.6377548e-09
8.6091263e-09
8.5982636e-09
8.5956931e-09
8.5985058e-09
8.5995354e-09
8.5985035e-09
8.5881171e-09
8.5818228e-09
0.00095585074
0.0018932076
0.002020201
0.001324647
0.00021506546
2.1756421e-08
6.0633875e-09
5.8943993e-09
5.6508669e-09
5.6657653e-09
5.5853153e-09
5.6419289e-09
5.6346617e-09
5.6998521e-09
5.7410363e-09
5.8189609e-09
5.8999035e-09
6.0096672e-09
6.136455e-09
6.2929797e-09
6.4756511e-09
6.6885796e-09
6.9288174e-09
7.1933616e-09
7.4718631e-09
7.7502738e-09
8.0115871e-09
8.2407993e-09
8.4285622e-09
8.5735149e-09
8.6797592e-09
8.7527768e-09
8.7972227e-09
8.8180622e-09
8.8228198e-09
8.8171425e-09
8.805244e-09
8.787992e-09
8.7686528e-09
8.7452132e-09
8.6870529e-09
8.6340181e-09
8.6077061e-09
8.5989324e-09
8.5976218e-09
8.6004962e-09
8.6013624e-09
8.5986257e-09
8.5880969e-09
8.5817112e-09
0.00095062631
0.0018606629
0.0019545635
0.0011784313
0.00014168802
1.393247e-08
6.0712813e-09
5.9148215e-09
5.6776799e-09
5.6952366e-09
5.6182287e-09
5.6767053e-09
5.6727668e-09
5.7402378e-09
5.7851523e-09
5.8668819e-09
5.9528559e-09
6.0682021e-09
6.2018521e-09
6.3660758e-09
6.5575671e-09
6.779794e-09
7.0293015e-09
7.3018018e-09
7.5855138e-09
7.8649102e-09
8.1221701e-09
8.3425163e-09
8.5184369e-09
8.6508161e-09
8.7443567e-09
8.8038778e-09
8.8352857e-09
8.8457088e-09
8.8435014e-09
8.8316016e-09
8.8150118e-09
8.7945872e-09
8.7738548e-09
8.7450203e-09
8.6805713e-09
8.6310399e-09
8.6070315e-09
8.5993042e-09
8.5997383e-09
8.6026535e-09
8.6034348e-09
8.5986595e-09
8.5880121e-09
8.581597e-09
0.00094580999
0.0018285419
0.0018882029
0.001036932
8.0295425e-05
1.0463084e-08
6.0860948e-09
5.9393832e-09
5.708866e-09
5.7288139e-09
5.6553711e-09
5.7158279e-09
5.7154271e-09
5.7853587e-09
5.8342775e-09
5.9200864e-09
6.0114616e-09
6.1328068e-09
6.2737959e-09
6.4462265e-09
6.6470315e-09
6.8789568e-09
7.1378952e-09
7.4181209e-09
7.7062995e-09
7.9853811e-09
8.2368747e-09
8.4468415e-09
8.6102844e-09
8.7296084e-09
8.8086299e-09
8.8535043e-09
8.8721572e-09
8.8737743e-09
8.863718e-09
8.8457042e-09
8.8244517e-09
8.8011063e-09
8.7793643e-09
8.744066e-09
8.6746266e-09
8.628593e-09
8.6067367e-09
8.5995909e-09
8.601873e-09
8.6048599e-09
8.6056227e-09
8.5986664e-09
8.5878993e-09
8.5814808e-09
0.0009409896
0.0017942379
0.0018206728
0.00090464376
3.7237278e-05
8.7944664e-09
6.1061855e-09
5.9679028e-09
5.7439132e-09
5.7664993e-09
5.6967698e-09
5.7593603e-09
5.7627042e-09
5.8352961e-09
5.8884996e-09
5.9787156e-09
6.0758783e-09
6.2036598e-09
6.3524833e-09
6.5336465e-09
6.7442609e-09
6.9862567e-09
7.2547109e-09
7.5422948e-09
7.8339848e-09
8.1111949e-09
8.3551032e-09
8.5535216e-09
8.7040675e-09
8.8087632e-09
8.8715446e-09
8.9013051e-09
8.9089406e-09
8.9013016e-09
8.8834218e-09
8.8593527e-09
8.8335251e-09
8.8074234e-09
8.7843429e-09
8.741087e-09
8.6694243e-09
8.6265017e-09
8.6066576e-09
8.6002258e-09
8.6038705e-09
8.6069803e-09
8.6077824e-09
8.5986621e-09
8.5877705e-09
8.5813626e-09
0.00093609558
0.001757876
0.0017506102
0.0007808623
1.4175461e-05
7.9508386e-09
6.1313939e-09
6.0005749e-09
5.7831357e-09
5.8083987e-09
5.7425204e-09
5.8073726e-09
5.8146852e-09
5.8901496e-09
5.9479624e-09
6.0429087e-09
6.1462804e-09
6.2809631e-09
6.4381404e-09
6.6285809e-09
6.8494968e-09
7.1018936e-09
7.3798532e-09
7.6742569e-09
7.9682448e-09
8.2417778e-09
8.4763647e-09
8.6625313e-09
8.7992174e-09
8.8867969e-09
8.932394e-09
8.9480562e-09
8.945303e-09
8.928042e-09
8.9024201e-09
8.8724628e-09
8.8422486e-09
8.8134868e-09
8.7868249e-09
8.7358325e-09
8.6650118e-09
8.6247932e-09
8.6067955e-09
8.6014048e-09
8.6057865e-09
8.6088474e-09
8.6097415e-09
8.5986632e-09
8.5876275e-09
8.5812427e-09
0.00093096746
0.0017189355
0.0016767081
0.00066608749
4.7455441e-06
7.5149186e-09
6.1611839e-09
6.0373861e-09
5.8264938e-09
5.8545478e-09
5.7926759e-09
5.8599445e-09
5.8714727e-09
5.9500555e-09
6.0128042e-09
6.1128521e-09
6.2228557e-09
6.3649229e-09
6.5309959e-09
6.7312729e-09
6.9629727e-09
7.2260492e-09
7.5133852e-09
7.8138579e-09
8.1086388e-09
8.376525e-09
8.600389e-09
8.7737794e-09
8.8941036e-09
8.9626976e-09
8.9911372e-09
8.9946173e-09
8.9804476e-09
8.9537908e-09
8.9206188e-09
8.8849521e-09
8.8506703e-09
8.8194713e-09
8.7878364e-09
8.7289915e-09
8.6607807e-09
8.6236329e-09
8.6077258e-09
8.603372e-09
8.6077817e-09
8.6103713e-09
8.6111962e-09
8.5985551e-09
8.5874709e-09
8.581121e-09
0.0009253928
0.0016767063
0.0015946671
0.0005608444
1.5278511e-06
7.2910351e-09
6.195656e-09
6.0784325e-09
5.8740725e-09
5.9050321e-09
5.8473348e-09
5.9171988e-09
5.9332083e-09
6.0151659e-09
6.0832019e-09
6.1887056e-09
6.3057999e-09
6.4557735e-09
6.6313187e-09
6.8420103e-09
7.0849571e-09
7.3589227e-09
7.6553455e-09
7.9608634e-09
8.2546326e-09
8.5149103e-09
8.7271433e-09
8.8863273e-09
8.9872965e-09
9.0357819e-09
9.0490313e-09
9.0398359e-09
9.014323e-09
8.9784076e-09
8.937899e-09
8.8967367e-09
8.8588226e-09
8.8257027e-09
8.7880208e-09
8.721007e-09
8.6566727e-09
8.622996e-09
8.6093246e-09
8.6059829e-09
8.6100301e-09
8.6118059e-09
8.611808e-09
8.5982944e-09
8.5872871e-09
8.580998e-09
0.00091951806
0.0016316826
0.0015021261
0.0004661288
5.0985541e-07
7.1803732e-09
6.2346305e-09
6.1236579e-09
5.9259236e-09
5.9599357e-09
5.9066347e-09
5.9792754e-09
6.0000417e-09
6.0856297e-09
6.1592957e-09
6.2706552e-09
6.3953179e-09
6.5537596e-09
6.7393873e-09
6.9610828e-09
7.2157148e-09
7.5006853e-09
7.8057025e-09
8.1149196e-09
8.4056356e-09
8.6565841e-09
8.8565463e-09
8.9983557e-09
9.077659e-09
9.1066707e-09
9.1058622e-09
9.0833803e-09
9.046677e-09
9.0017692e-09
8.9541727e-09
8.9077459e-09
8.8666748e-09
8.8323545e-09
8.7878735e-09
8.7125561e-09
8.652701e-09
8.6227445e-09
8.6114591e-09
8.6088952e-09
8.6126225e-09
8.6138355e-09
8.6120309e-09
8.5979528e-09
8.5870804e-09
8.580874e-09
0.0009133222
0.0015848466
0.0014011388
0.00038340596
1.8786248e-07
7.1324908e-09
6.2781089e-09
6.1732613e-09
5.9822157e-09
6.0194534e-09
5.970724e-09
6.0463159e-09
6.0720861e-09
6.1615681e-09
6.2412354e-09
6.3588741e-09
6.4916518e-09
6.6591799e-09
6.8555345e-09
7.0888276e-09
7.3555372e-09
7.651494e-09
7.9643453e-09
8.2755693e-09
8.5610917e-09
8.8014329e-09
8.9875869e-09
9.1082753e-09
9.1644587e-09
9.1765388e-09
9.1606722e-09
9.1250061e-09
9.0773977e-09
9.0237728e-09
8.9693669e-09
8.9179498e-09
8.8741339e-09
8.8388776e-09
8.7867192e-09
8.7044643e-09
8.6490693e-09
8.6226719e-09
8.6135886e-09
8.6118837e-09
8.6155416e-09
8.6165296e-09
8.6120701e-09
8.5975596e-09
8.5868579e-09
8.5807499e-09
0.00090695588
0.0015366667
0.0012934139
0.00030693168
7.89283e-08
7.1209385e-09
6.3263741e-09
6.2274259e-09
6.0430942e-09
6.0836332e-09
6.0396774e-09
6.1183659e-09
6.1494183e-09
6.2430853e-09
6.3291772e-09
6.4536043e-09
6.5950884e-09
6.7723635e-09
6.9801081e-09
7.2255835e-09
7.5046956e-09
7.8114389e-09
8.1310374e-09
8.4422624e-09
8.7205498e-09
8.9494101e-09
9.1182818e-09
9.2148307e-09
9.248707e-09
9.2446003e-09
9.2131783e-09
9.164543e-09
9.1063549e-09
9.0443395e-09
8.9834347e-09
8.9273835e-09
8.8811376e-09
8.8434907e-09
8.7835587e-09
8.6976177e-09
8.6460357e-09
8.6226949e-09
8.6152544e-09
8.6149074e-09
8.6186729e-09
8.6195626e-09
8.6120783e-09
8.5971286e-09
8.5866217e-09
8.5806266e-09
0.00090034262
0.0014860809
0.001186541
0.0002367647
3.8872135e-08
7.1309143e-09
6.3789601e-09
6.2859836e-09
6.1084672e-09
6.1524832e-09
6.1135018e-09
6.1954826e-09
6.2321234e-09
6.3303451e-09
6.423357e-09
6.555132e-09
6.7059818e-09
6.8937045e-09
7.1135134e-09
7.3717341e-09
7.66347e-09
7.9805557e-09
8.305437e-09
8.6144453e-09
8.8837487e-09
9.0998073e-09
9.2466909e-09
9.3170996e-09
9.3315585e-09
9.3099338e-09
9.2631221e-09
9.2018518e-09
9.1334647e-09
9.0634102e-09
8.9963377e-09
8.9361271e-09
8.8878026e-09
8.8452769e-09
8.7781674e-09
8.6925178e-09
8.6437361e-09
8.6228043e-09
8.6164833e-09
8.6179198e-09
8.6216958e-09
8.62264e-09
8.6120503e-09
8.5966701e-09
8.5863759e-09
8.5805054e-09
0.00089367323
0.0014313122
0.0010814702
0.00017199359
2.2665611e-08
7.1550495e-09
6.4360697e-09
6.349041e-09
6.1784004e-09
6.2260217e-09
6.192241e-09
6.277747e-09
6.3203747e-09
6.4235943e-09
6.5240865e-09
6.6638371e-09
6.8247285e-09
7.0236169e-09
7.2561659e-09
7.5276539e-09
7.8320921e-09
8.1587654e-09
8.4870854e-09
8.7916148e-09
9.0506021e-09
9.2505284e-09
9.3714559e-09
9.4161686e-09
9.4119885e-09
9.3722474e-09
9.3103329e-09
9.2368277e-09
9.1586642e-09
9.0809368e-09
9.0080302e-09
8.9442438e-09
8.8944348e-09
8.8458632e-09
8.7714883e-09
8.688368e-09
8.6427732e-09
8.6235563e-09
8.6179823e-09
8.6206558e-09
8.6241957e-09
8.6252255e-09
8.6119784e-09
8.5961941e-09
8.5861251e-09
8.5803874e-09
0.00088823479
0.001384381
0.00097551022
0.00011318795
1.5447262e-08
7.1883295e-09
6.4975113e-09
6.416413e-09
6.2528144e-09
6.304248e-09
6.2760258e-09
6.3653963e-09
6.4144791e-09
6.5231956e-09
6.6317549e-09
6.7801193e-09
6.9517704e-09
7.1625657e-09
7.4085284e-09
7.6937436e-09
8.0107537e-09
8.3458776e-09
8.6754639e-09
8.9733738e-09
9.2208348e-09
9.3992811e-09
9.491327e-09
9.5132044e-09
9.4890349e-09
9.4312703e-09
9.3546689e-09
9.2693981e-09
9.1819115e-09
9.0968588e-09
9.0184537e-09
8.9517119e-09
8.9011772e-09
8.8458273e-09
8.7637639e-09
8.6846909e-09
8.6424099e-09
8.6249294e-09
8.6201189e-09
8.623246e-09
8.6259588e-09
8.6265482e-09
8.6114789e-09
8.595708e-09
8.5858723e-09
8.5802739e-09
0.00088302845
0.0013354142
0.00087009529
6.4515886e-05
1.1948218e-08
7.2281404e-09
6.5631121e-09
6.4882132e-09
6.3318877e-09
6.387489e-09
6.3652357e-09
6.458839e-09
6.5148483e-09
6.6295563e-09
6.74678e-09
6.9044354e-09
7.0875737e-09
7.3110334e-09
7.5710693e-09
7.870377e-09
8.1995513e-09
8.5415659e-09
8.8700476e-09
9.159451e-09
9.3925947e-09
9.5444455e-09
9.6070303e-09
9.6074073e-09
9.562255e-09
9.4868224e-09
9.3960355e-09
9.2995208e-09
9.203162e-09
9.1110871e-09
9.0275717e-09
8.9584374e-09
8.9072065e-09
8.8453808e-09
8.7552464e-09
8.6811392e-09
8.6423627e-09
8.6268449e-09
8.6228172e-09
8.6258444e-09
8.6274821e-09
8.6270298e-09
8.6107132e-09
8.5952168e-09
8.5856161e-09
8.5801661e-09
0.00087841795
0.001285651
0.00076720644
3.0891897e-05
1.0156068e-08
7.2738445e-09
6.6334088e-09
6.5649349e-09
6.4161679e-09
6.4762491e-09
6.4603554e-09
6.5585041e-09
6.6218748e-09
6.7430757e-09
6.8695891e-09
7.0372425e-09
7.2326483e-09
7.4695527e-09
7.7442948e-09
8.0578791e-09
8.3984762e-09
8.7453956e-09
9.0703584e-09
9.3496585e-09
9.5635144e-09
9.6843974e-09
9.7197655e-09
9.6976768e-09
9.6313839e-09
9.538759e-09
9.4343739e-09
9.3271695e-09
9.2223489e-09
9.1235249e-09
9.0354417e-09
8.9644089e-09
8.9096764e-09
8.843068e-09
8.7463655e-09
8.6777324e-09
8.6424312e-09
8.6291369e-09
8.6259184e-09
8.6285169e-09
8.6296434e-09
8.6271677e-09
8.6098212e-09
8.5946983e-09
8.5853566e-09
8.5800651e-09
0.00087444175
0.0012343573
0.0006683405
1.2635744e-05
9.2109754e-09
7.3266341e-09
6.709042e-09
6.647223e-09
6.5061868e-09
6.5709728e-09
6.5617641e-09
6.6647289e-09
6.7359083e-09
6.8641118e-09
7.0006311e-09
7.1790666e-09
7.3875396e-09
7.6386818e-09
7.9287008e-09
8.2565359e-09
8.607369e-09
8.9568748e-09
9.2759743e-09
9.5431114e-09
9.731212e-09
9.8189105e-09
9.8295159e-09
9.7832512e-09
9.6962017e-09
9.5869902e-09
9.4696613e-09
9.3523162e-09
9.2393892e-09
9.1341718e-09
9.0422843e-09
8.9698691e-09
8.9107434e-09
8.8384425e-09
8.7378727e-09
8.6747834e-09
8.6430974e-09
8.6316407e-09
8.6291073e-09
8.6315583e-09
8.6324653e-09
8.6271634e-09
8.6088731e-09
8.5941642e-09
8.5850996e-09
8.5799719e-09
0.00087147513
0.0011826045
0.00057477088
4.6721568e-06
8.7131083e-09
7.3901246e-09
6.7902982e-09
6.7354145e-09
6.6022249e-09
6.6718613e-09
6.669692e-09
6.7777996e-09
6.8573192e-09
6.9931097e-09
7.1404176e-09
7.3304594e-09
7.5528577e-09
7.8190329e-09
8.124796e-09
8.4665302e-09
8.8259395e-09
9.1755079e-09
9.4865861e-09
9.737348e-09
9.8939682e-09
9.9491238e-09
9.9349207e-09
9.8638882e-09
9.7565549e-09
9.631469e-09
9.5018948e-09
9.374923e-09
9.2542426e-09
9.1432833e-09
9.0484719e-09
8.9749571e-09
8.9109377e-09
8.8309617e-09
8.7305788e-09
8.672399e-09
8.6441313e-09
8.6342054e-09
8.6322184e-09
8.6348524e-09
8.6358415e-09
8.6271311e-09
8.6078999e-09
8.5936261e-09
8.584849e-09
8.5798874e-09
0.00086948952
0.0011335388
0.00048721644
1.6724849e-06
8.4620812e-09
7.4600821e-09
6.8774152e-09
6.829306e-09
6.7042918e-09
6.7790469e-09
6.7844029e-09
6.8980823e-09
6.9865448e-09
7.1306861e-09
7.2895219e-09
7.4920695e-09
7.7292563e-09
8.0112322e-09
8.3330364e-09
8.6879168e-09
9.053775e-09
9.4007875e-09
9.7018249e-09
9.9296104e-09
1.0050245e-08
1.0076257e-08
1.0034702e-08
9.9392954e-09
9.8123487e-09
9.6721907e-09
9.5310794e-09
9.3949575e-09
9.2670213e-09
9.1514192e-09
9.0543035e-09
8.9789949e-09
8.9106781e-09
8.821554e-09
8.7243736e-09
8.6705644e-09
8.6454241e-09
8.636754e-09
8.6351631e-09
8.6378652e-09
8.6390817e-09
8.6270831e-09
8.6069203e-09
8.5930929e-09
8.5846064e-09
8.5798122e-09
0.00086727896
0.0010737694
0.00040589734
6.2000026e-07
8.3493176e-09
7.5351234e-09
6.9699282e-09
6.9290423e-09
6.812633e-09
6.8929149e-09
6.9063352e-09
7.0260597e-09
7.1241092e-09
7.2774373e-09
7.4485956e-09
7.6645666e-09
7.9174435e-09
8.2159312e-09
8.5538129e-09
8.9206076e-09
9.2904133e-09
9.6321982e-09
9.9200032e-09
1.0117531e-08
1.020092e-08
1.0198649e-08
1.0128645e-08
1.0009301e-08
9.8635466e-09
9.7091819e-09
9.5572174e-09
9.4124389e-09
9.2780852e-09
9.1590937e-09
9.0595002e-09
8.9806606e-09
8.9086859e-09
8.8112703e-09
8.719007e-09
8.6692126e-09
8.6468666e-09
8.6392839e-09
8.6379813e-09
8.6400359e-09
8.6408652e-09
8.6265334e-09
8.6059525e-09
8.592572e-09
8.5843745e-09
8.5797472e-09
0.00086528538
0.0010125206
0.00033185845
2.5339427e-07
8.3118701e-09
7.6163401e-09
7.0685401e-09
7.0352591e-09
6.927823e-09
7.0139618e-09
7.036e-09
7.1622683e-09
7.2706081e-09
7.4339494e-09
7.6183357e-09
7.8487146e-09
8.1181644e-09
8.4337567e-09
8.7873928e-09
9.1643489e-09
9.5353846e-09
9.8693534e-09
1.0138279e-08
1.0298944e-08
1.0347207e-08
1.0315052e-08
1.0216353e-08
1.0073784e-08
9.9101625e-09
9.7424873e-09
9.5803233e-09
9.4275213e-09
9.2879721e-09
9.1659048e-09
9.0625506e-09
8.9814369e-09
8.9053509e-09
8.8007265e-09
8.714389e-09
8.6685346e-09
8.648408e-09
8.6417492e-09
8.6406718e-09
8.6416786e-09
8.6416247e-09
8.6255127e-09
8.605007e-09
8.5920681e-09
8.584155e-09
8.5796929e-09
0.00086297332
0.00094439324
0.0002645828
1.1814665e-07
8.3202723e-09
7.7042207e-09
7.1738153e-09
7.1483179e-09
7.0502945e-09
7.1426575e-09
7.1739258e-09
7.3073096e-09
7.4267008e-09
7.6009601e-09
7.7995231e-09
8.0453033e-09
8.3322103e-09
8.6653078e-09
9.0339097e-09
9.4187482e-09
9.7881481e-09
1.0111701e-08
1.0353476e-08
1.0473151e-08
1.0488899e-08
1.0424496e-08
1.0297628e-08
1.0132708e-08
9.952255e-09
9.7721589e-09
9.6004658e-09
9.440553e-09
9.2969988e-09
9.1695812e-09
9.0639e-09
8.981683e-09
8.9005769e-09
8.790331e-09
8.7103712e-09
8.6683228e-09
8.6500309e-09
8.6441911e-09
8.6432832e-09
8.6435403e-09
8.6418784e-09
8.6241675e-09
8.6040897e-09
8.5915827e-09
8.583948e-09
8.5796502e-09
0.0008603286
0.00087265494
0.00020533749
6.4113184e-08
8.3569433e-09
7.7988715e-09
7.2859254e-09
7.2686348e-09
7.180527e-09
7.279568e-09
7.3207419e-09
7.4618626e-09
7.5931322e-09
7.7792631e-09
7.9929967e-09
8.2552241e-09
8.5603854e-09
8.9110928e-09
9.2933376e-09
9.6833561e-09
1.0048049e-08
1.0356728e-08
1.056313e-08
1.0641109e-08
1.062433e-08
1.0526688e-08
1.0372303e-08
1.0186101e-08
9.9899087e-09
9.798257e-09
9.6178288e-09
9.4520186e-09
9.3044633e-09
9.1711038e-09
9.0644485e-09
8.981644e-09
8.894234e-09
8.7805473e-09
8.7068425e-09
8.6683411e-09
8.6517877e-09
8.6467044e-09
8.64594e-09
8.6459564e-09
8.641922e-09
8.6226496e-09
8.6032005e-09
8.5911132e-09
8.5837542e-09
8.5796198e-09
0.00085659792
0.0007953941
0.00015324888
3.9938823e-08
8.412919e-09
7.900503e-09
7.4056466e-09
7.3968329e-09
7.3191653e-09
7.4253393e-09
7.4771384e-09
7.6266784e-09
7.7706954e-09
7.9697374e-09
8.1996836e-09
8.4793982e-09
8.8034952e-09
9.1715025e-09
9.5654721e-09
9.9576958e-09
1.0314491e-08
1.0601071e-08
1.0764661e-08
1.0804496e-08
1.0751799e-08
1.0621279e-08
1.0440339e-08
1.0234051e-08
1.0023217e-08
9.820882e-09
9.6327486e-09
9.4622532e-09
9.3076387e-09
9.1715888e-09
9.0647024e-09
8.980235e-09
8.8859109e-09
8.7719854e-09
8.703925e-09
8.6686157e-09
8.6537223e-09
8.6493143e-09
8.6487631e-09
8.648833e-09
8.6418931e-09
8.6210812e-09
8.6023223e-09
8.5906595e-09
8.5835756e-09
8.5796026e-09
0.0008522683
0.00070668422
0.00010786533
2.793915e-08
8.4838291e-09
8.010286e-09
7.5332368e-09
7.5335329e-09
7.4668577e-09
7.5806447e-09
7.6438666e-09
7.8025599e-09
7.9602844e-09
8.1733191e-09
8.4205732e-09
8.7188131e-09
9.0622922e-09
9.446756e-09
9.8499641e-09
1.0241174e-08
1.0586547e-08
1.0840967e-08
1.0958502e-08
1.0961326e-08
1.0870887e-08
1.0708086e-08
1.0501763e-08
1.0276667e-08
1.0052272e-08
9.840241e-09
9.6456772e-09
9.4707334e-09
9.3089277e-09
9.1717321e-09
9.0645465e-09
8.9773838e-09
8.8753603e-09
8.7651973e-09
8.7017643e-09
8.6694011e-09
8.6558359e-09
8.651858e-09
8.6514869e-09
8.6518352e-09
8.6418356e-09
8.6195235e-09
8.6014599e-09
8.5902303e-09
8.5834144e-09
8.5795991e-09
0.00084967116
0.00064500939
7.258055e-05
2.1506956e-08
8.566917e-09
8.1282902e-09
7.6694693e-09
7.6792551e-09
7.6242989e-09
7.7462444e-09
7.8217408e-09
7.9904134e-09
8.1628493e-09
8.3910576e-09
8.6567509e-09
8.9744732e-09
9.3374339e-09
9.7368948e-09
1.014636e-08
1.0532984e-08
1.0860753e-08
1.1073729e-08
1.1145654e-08
1.111e-08
1.0981126e-08
1.0787022e-08
1.0556665e-08
1.0314043e-08
1.0077195e-08
9.8567215e-09
9.6570179e-09
9.4748744e-09
9.3092136e-09
9.1712058e-09
9.0635194e-09
8.9728802e-09
8.8639793e-09
8.7593689e-09
8.7002949e-09
8.6706114e-09
8.6581393e-09
8.654208e-09
8.65364e-09
8.6531295e-09
8.6412912e-09
8.6180066e-09
8.6006263e-09
8.5898307e-09
8.5832723e-09
8.5796097e-09
0.00084760776
0.00058930209
4.5492948e-05
1.7761408e-08
8.6607032e-09
8.2551232e-09
7.8151066e-09
7.8347902e-09
7.7922951e-09
7.922974e-09
8.0116741e-09
8.1912121e-09
8.3794924e-09
8.624104e-09
8.9093945e-09
9.2473945e-09
9.6294348e-09
1.0041759e-08
1.0454121e-08
1.0832237e-08
1.1133322e-08
1.129727e-08
1.1326664e-08
1.1248856e-08
1.1082269e-08
1.0858098e-08
1.0605143e-08
1.0346259e-08
1.0098241e-08
9.8708738e-09
9.6665765e-09
9.4764836e-09
9.3090254e-09
9.1698442e-09
9.0616859e-09
8.9668406e-09
8.8523285e-09
8.754284e-09
8.6993986e-09
8.672147e-09
8.660599e-09
8.6565898e-09
8.6554182e-09
8.6536774e-09
8.6402371e-09
8.6165411e-09
8.5998294e-09
8.5894573e-09
8.583152e-09
8.5796369e-09
0.00084614681
0.00054096199
2.6903318e-05
1.5491184e-08
8.7653769e-09
8.3914579e-09
7.9708816e-09
8.0009594e-09
7.9716823e-09
8.1117363e-09
8.2146569e-09
8.4060866e-09
8.6113894e-09
8.8737503e-09
9.1797551e-09
9.538529e-09
9.9386202e-09
1.0360994e-08
1.0772447e-08
1.1137075e-08
1.140005e-08
1.1512188e-08
1.1499158e-08
1.1377582e-08
1.1174154e-08
1.0921396e-08
1.0647294e-08
1.0373489e-08
1.0115921e-08
9.8832059e-09
9.6723239e-09
9.4768165e-09
9.3075503e-09
9.1677464e-09
9.0589847e-09
8.9594475e-09
8.840829e-09
8.7497491e-09
8.6989264e-09
8.6738655e-09
8.663022e-09
8.6588649e-09
8.6573325e-09
8.6538241e-09
8.6387308e-09
8.6151354e-09
8.599072e-09
8.5891112e-09
8.5830541e-09
8.57968e-09
0.00084586733
0.00049919993
1.514036e-05
1.4067096e-08
8.8815798e-09
8.5379528e-09
8.1374662e-09
8.1785515e-09
8.1633551e-09
8.313539e-09
8.4318686e-09
8.636278e-09
8.8599214e-09
9.1413921e-09
9.4691024e-09
9.8486959e-09