/*--------------------------------*- C++ -*----------------------------------*\
  =========                 |
  \\      /  F ield         | OpenFOAM: The Open Source CFD Toolbox
   \\    /   O peration     | Website:  https://openfoam.org
    \\  /    A nd           | Version:  8
     \\/     M anipulation  |
\*---------------------------------------------------------------------------*/
FoamFile
{
    version     2.0;
    format      ascii;
    class       volVectorField;
    location    "0.0499991";
    object      cellDisplacement;
}
// * * * * * * * * * * * * * * * * * * * * * * * * * * * * * * * * * * * * * //

dimensions      [0 1 0 0 0 0 0];

internalField   nonuniform List<vector> 
20000
(
(-0.0022658989 0 -0.001662498)
(-0.0022658794 0 -0.0016626829)
(-0.0022658403 0 -0.0016634026)
(-0.0022657617 0 -0.0016643062)
(-0.0022656259 0 -0.0016654301)
(-0.0022654086 0 -0.0016668303)
(-0.0022650761 0 -0.0016685811)
(-0.0022645824 0 -0.0016707799)
(-0.0022638649 0 -0.0016735575)
(-0.0022628388 0 -0.0016770909)
(-0.0022613901 0 -0.0016816213)
(-0.0022593674 0 -0.0016874786)
(-0.0022565697 0 -0.0016951151)
(-0.0022527337 0 -0.0017051484)
(-0.0022475183 0 -0.0017184218)
(-0.0022404859 0 -0.0017360802)
(-0.0022310857 0 -0.0017596799)
(-0.0022186348 0 -0.0017912795)
(-0.0022023092 0 -0.0018336634)
(-0.0021811408 0 -0.0018904686)
(-0.0021540384 0 -0.0019663847)
(-0.002119838 0 -0.0020672751)
(-0.0020773894 0 -0.0022001922)
(-0.0020256847 0 -0.0023731473)
(-0.0019640195 0 -0.0025944642)
(-0.001892162 0 -0.0028715745)
(-0.0018104856 0 -0.0032095206)
(-0.0017200311 0 -0.0036087287)
(-0.0016224806 0 -0.0040633313)
(-0.0015199148 0 -0.004560932)
(-0.0014147285 0 -0.0050820543)
(-0.0013093807 0 -0.00560255)
(-0.0012061421 0 -0.0060966464)
(-0.0011069346 0 -0.0065408486)
(-0.0010131444 0 -0.0069161843)
(-0.00092543389 0 -0.0072113398)
(-0.00084403686 0 -0.0074194672)
(-0.00076871908 0 -0.0075400509)
(-0.00069902032 0 -0.0075717437)
(-0.00063414511 0 -0.0075177509)
(-0.00057331459 0 -0.0073772034)
(-0.00051600025 0 -0.0071522007)
(-0.00046099666 0 -0.0068371397)
(-0.00040723144 0 -0.0064236029)
(-0.00035291366 0 -0.0058925973)
(-0.00029871275 0 -0.0052451795)
(-0.00024065977 0 -0.0044318198)
(-0.00018038909 0 -0.0034549309)
(-0.00011217602 0 -0.0022422446)
(-3.4953765e-05 0 -0.00074154309)
(-0.002258941 0 -0.0013504622)
(-0.0022589267 0 -0.0013508294)
(-0.0022588837 0 -0.0013512812)
(-0.0022587995 0 -0.0013518468)
(-0.0022586562 0 -0.001352568)
(-0.0022584292 0 -0.0013534948)
(-0.0022580841 0 -0.0013546941)
(-0.002257574 0 -0.0013562555)
(-0.002256835 0 -0.0013583016)
(-0.002255781 0 -0.0013609973)
(-0.0022542962 0 -0.0013645701)
(-0.0022522269 0 -0.0013693294)
(-0.0022493692 0 -0.0013757043)
(-0.0022454568 0 -0.0013842859)
(-0.0022401444 0 -0.0013958908)
(-0.0022329901 0 -0.0014116444)
(-0.0022234388 0 -0.0014330796)
(-0.0022108036 0 -0.0014622766)
(-0.0021942574 0 -0.0015020248)
(-0.0021728329 0 -0.0015560218)
(-0.0021454453 0 -0.0016290541)
(-0.0021109462 0 -0.0017271346)
(-0.002068213 0 -0.0018575245)
(-0.0020162805 0 -0.0020285014)
(-0.0019545 0 -0.0022487111)
(-0.0018827042 0 -0.0025259479)
(-0.0018013211 0 -0.0028656339)
(-0.0017114301 0 -0.0032685669)
(-0.0016146991 0 -0.0037293374)
(-0.0015131628 0 -0.0042359306)
(-0.0014091244 0 -0.0047691919)
(-0.0013049362 0 -0.005305104)
(-0.0012027717 0 -0.0058177351)
(-0.0011044808 0 -0.0062830856)
(-0.0010114194 0 -0.0066814335)
(-0.00092426586 0 -0.0070004563)
(-0.00084328498 0 -0.0072324951)
(-0.00076827134 0 -0.0073761538)
(-0.00069880243 0 -0.0074299014)
(-0.00063411251 0 -0.0073963606)
(-0.00057345002 0 -0.0072748476)
(-0.00051624307 0 -0.0070669831)
(-0.00046134934 0 -0.0067675418)
(-0.00040768086 0 -0.0063682131)
(-0.00035354119 0 -0.0058509911)
(-0.0002993385 0 -0.0052145282)
(-0.00024145132 0 -0.0044128633)
(-0.00018102791 0 -0.003443466)
(-0.00011277564 0 -0.0022378887)
(-3.5300649e-05 0 -0.00074130467)
(-0.0022509219 0 -0.0010451875)
(-0.0022509032 0 -0.0010453639)
(-0.0022508544 0 -0.0010455847)
(-0.0022507628 0 -0.00104588)
(-0.0022506101 0 -0.0010462775)
(-0.0022503709 0 -0.001046816)
(-0.00225001 0 -0.0010475496)
(-0.0022494796 0 -0.0010485543)
(-0.0022487144 0 -0.0010499364)
(-0.0022476267 0 -0.0010518445)
(-0.0022460984 0 -0.0010544888)
(-0.0022439736 0 -0.0010581603)
(-0.0022410447 0 -0.0010632716)
(-0.0022370425 0 -0.0010703935)
(-0.0022316165 0 -0.0010803265)
(-0.0022243215 0 -0.0010941784)
(-0.002214596 0 -0.0011134695)
(-0.0022017502 0 -0.001140285)
(-0.0021849537 0 -0.0011774393)
(-0.0021632402 0 -0.0012286887)
(-0.0021355329 0 -0.0012989164)
(-0.0021007004 0 -0.0013942871)
(-0.0020576507 0 -0.0015222691)
(-0.002005465 0 -0.0016913979)
(-0.0019435545 0 -0.0019106226)
(-0.0018718213 0 -0.0021880707)
(-0.001790751 0 -0.0025294999)
(-0.0017014632 0 -0.0029360274)
(-0.0016056123 0 -0.0034026563)
(-0.0015051836 0 -0.00391772)
(-0.0014023885 0 -0.0044623629)
(-0.0012994664 0 -0.0050127439)
(-0.0011984907 0 -0.0055428227)
(-0.0011012313 0 -0.0060282032)
(-0.0010090109 0 -0.0064484825)
(-0.00092251543 0 -0.006790429)
(-0.00084203963 0 -0.0070455881)
(-0.00076740631 0 -0.0072117289)
(-0.00069823161 0 -0.0072870647)
(-0.00063377906 0 -0.0072736743)
(-0.00057332667 0 -0.0071709709)
(-0.00051626687 0 -0.0069801434)
(-0.00046151461 0 -0.0066962735)
(-0.00040797087 0 -0.0063111497)
(-0.00035402452 0 -0.0058076547)
(-0.00029985288 0 -0.0051823222)
(-0.0002421394 0 -0.0043923321)
(-0.00018160182 0 -0.003430805)
(-0.00011332454 0 -0.0022326013)
(-3.5623269e-05 0 -0.00074070545)
(-0.0022418716 0 -0.0007465174)
(-0.0022418476 0 -0.00074651208)
(-0.0022417918 0 -0.00074651663)
(-0.0022416911 0 -0.00074654974)
(-0.0022415266 0 -0.00074662846)
(-0.002241272 0 -0.00074678227)
(-0.0022408914 0 -0.0007470529)
(-0.0022403356 0 -0.00074750507)
(-0.0022395382 0 -0.00074822893)
(-0.0022384093 0 -0.00074936018)
(-0.0022368293 0 -0.00075108861)
(-0.0022346384 0 -0.00075369102)
(-0.002231627 0 -0.00075755665)
(-0.0022275203 0 -0.00076323961)
(-0.0022219646 0 -0.00077152179)
(-0.002214508 0 -0.00078349026)
(-0.0022045853 0 -0.00080067064)
(-0.0021915011 0 -0.00082514232)
(-0.0021744227 0 -0.0008597569)
(-0.0021523853 0 -0.00090832509)
(-0.0021243208 0 -0.00097583385)
(-0.0020891171 0 -0.0010686034)
(-0.002045716 0 -0.0011943099)
(-0.001993249 0 -0.0013617413)
(-0.0019311926 0 -0.0015801337)
(-0.0018595217 0 -0.0018579158)
(-0.0017787841 0 -0.002201137)
(-0.0016901397 0 -0.0026111842)
(-0.0015952295 0 -0.0030834154)
(-0.0014959875 0 -0.0036064709)
(-0.0013945287 0 -0.004161791)
(-0.0012929779 0 -0.0047257252)
(-0.0011933014 0 -0.0052722014)
(-0.0010971871 0 -0.0057765017)
(-0.0010059166 0 -0.0062176383)
(-0.00092018013 0 -0.0065815463)
(-0.00084029713 0 -0.0068590146)
(-0.00076612126 0 -0.0070470094)
(-0.00069730399 0 -0.0071434421)
(-0.00063314243 0 -0.0071498651)
(-0.00057294194 0 -0.0070657204)
(-0.00051607 0 -0.0068918017)
(-0.00046149045 0 -0.0066234279)
(-0.00040810065 0 -0.0062524918)
(-0.00035436321 0 -0.0057626541)
(-0.00030025585 0 -0.0051486137)
(-0.00024272311 0 -0.0043702578)
(-0.00018211013 0 -0.0034169779)
(-0.00011382133 0 -0.0022263939)
(-3.5921314e-05 0 -0.00073977952)
(-0.0022318236 0 -0.00045429241)
(-0.0022317905 0 -0.00045406845)
(-0.0022317236 0 -0.00045381507)
(-0.0022316096 0 -0.00045355065)
(-0.0022314292 0 -0.00045329071)
(-0.0022311552 0 -0.00045305238)
(-0.0022307509 0 -0.00045286891)
(-0.0022301654 0 -0.0004527869)
(-0.0022293308 0 -0.00045288387)
(-0.0022281549 0 -0.00045327293)
(-0.0022265155 0 -0.00045412609)
(-0.0022242497 0 -0.00045569645)
(-0.0022211439 0 -0.00045835284)
(-0.0022169191 0 -0.00046262973)
(-0.0022112159 0 -0.00046928822)
(-0.0022035779 0 -0.00047941392)
(-0.0021934331 0 -0.00049450911)
(-0.0021800823 0 -0.00051668316)
(-0.0021626898 0 -0.00054881058)
(-0.0021402931 0 -0.00059477147)
(-0.0021118343 0 -0.00065966116)
(-0.0020762225 0 -0.00074996033)
(-0.0020324369 0 -0.00087355157)
(-0.0019796627 0 -0.00103947)
(-0.0019174471 0 -0.0012572169)
(-0.0018458412 0 -0.0015354954)
(-0.0017654594 0 -0.0018805934)
(-0.0016775005 0 -0.0022941164)
(-0.0015835919 0 -0.0027717329)
(-0.0014856125 0 -0.0033023532)
(-0.00138558 0 -0.0038676886)
(-0.0012854988 0 -0.0044443152)
(-0.0011872269 0 -0.0050061705)
(-0.0010923634 0 -0.0055283119)
(-0.001002147 0 -0.0059892333)
(-0.00091726474 0 -0.0063741337)
(-0.00083806005 0 -0.0066730727)
(-0.00076441548 0 -0.0068822609)
(-0.00069601939 0 -0.0069992602)
(-0.00063220085 0 -0.007025123)
(-0.0005722953 0 -0.0069592544)
(-0.00051565044 0 -0.0068020807)
(-0.00046127611 0 -0.0065491058)
(-0.00040806832 0 -0.0061923109)
(-0.00035455747 0 -0.0057160577)
(-0.00030054478 0 -0.005113429)
(-0.00024320427 0 -0.0043466979)
(-0.00018255115 0 -0.003401983)
(-0.00011426785 0 -0.0022192955)
(-3.6195659e-05 0 -0.00073849813)
(-0.0022208094 0 -0.00016842235)
(-0.0022207684 0 -0.00016802947)
(-0.0022206914 0 -0.00016757221)
(-0.002220564 0 -0.00016705581)
(-0.002220366 0 -0.00016648071)
(-0.0022200695 0 -0.00016585825)
(-0.0022196364 0 -0.00016520889)
(-0.0022190148 0 -0.00016457285)
(-0.0022181349 0 -0.00016401244)
(-0.0022169028 0 -0.00016363113)
(-0.0022151934 0 -0.00016358364)
(-0.0022128406 0 -0.00016410713)
(-0.0022096267 0 -0.00016555085)
(-0.0022052679 0 -0.00016842815)
(-0.0021993993 0 -0.00017348453)
(-0.0021915576 0 -0.00018178009)
(-0.0021811661 0 -0.00019483382)
(-0.0021675193 0 -0.00021474788)
(-0.0021497797 0 -0.00024444362)
(-0.0021269878 0 -0.00028786868)
(-0.0020980967 0 -0.00035023661)
(-0.00206204 0 -0.00043819551)
(-0.0020178367 0 -0.0005598368)
(-0.0019647309 0 -0.00072443354)
(-0.0019023446 0 -0.00094173789)
(-0.0018308096 0 -0.0012206925)
(-0.0017508089 0 -0.001567779)
(-0.0016635795 0 -0.0019847755)
(-0.001570734 0 -0.002467601)
(-0.0014740931 0 -0.0030053993)
(-0.0013755726 0 -0.0035801443)
(-0.0012770553 0 -0.0041686468)
(-0.0011802862 0 -0.0047449163)
(-0.0010867745 0 -0.0052838495)
(-0.00099771015 0 -0.0057635111)
(-0.00091377448 0 -0.0061684356)
(-0.00083533019 0 -0.0064880021)
(-0.00076228987 0 -0.0067177003)
(-0.00069437632 0 -0.0068547181)
(-0.00063095325 0 -0.0068996163)
(-0.00057138476 0 -0.0068517169)
(-0.00051500679 0 -0.0067110981)
(-0.00046086944 0 -0.006473398)
(-0.00040787276 0 -0.0061306823)
(-0.00035460633 0 -0.0056679255)
(-0.00030071935 0 -0.0050768163)
(-0.00024358185 0 -0.0043216832)
(-0.00018292373 0 -0.0033858447)
(-0.00011466287 0 -0.0022113213)
(-3.6445462e-05 0 -0.00073688428)
(-0.0022088532 0 0.00011127344)
(-0.0022087999 0 0.00011188168)
(-0.0022087077 0 0.00011259279)
(-0.0022085622 0 0.00011340207)
(-0.0022083426 0 0.00011431099)
(-0.0022080199 0 0.00011532047)
(-0.0022075547 0 0.00011641913)
(-0.0022068935 0 0.00011758378)
(-0.0022059644 0 0.00011876476)
(-0.0022046706 0 0.00011987983)
(-0.0022028842 0 0.00012079119)
(-0.0022004351 0 0.00012128308)
(-0.0021971012 0 0.00012102576)
(-0.0021925934 0 0.00011952389)
(-0.0021865407 0 0.0001160516)
(-0.002178474 0 0.00010954888)
(-0.0021678091 0 9.8518173e-05)
(-0.0021538364 0 8.0821066e-05)
(-0.0021357161 0 5.3504938e-05)
(-0.0021124925 0 1.2537801e-05)
(-0.0020831322 0 -4.7421519e-05)
(-0.0020465952 0 -0.00013319459)
(-0.0020019436 0 -0.00025307919)
(-0.0019484845 0 -0.00041657771)
(-0.0018859202 0 -0.00063367246)
(-0.0018144653 0 -0.00091351848)
(-0.0017348752 0 -0.0012627337)
(-0.0016484221 0 -0.0016832247)
(-0.0015567019 0 -0.0021711139)
(-0.0014614726 0 -0.0027157447)
(-0.0013645467 0 -0.0032993294)
(-0.0012676812 0 -0.0038989396)
(-0.0011725077 0 -0.0044886908)
(-0.0010804411 0 -0.0050434002)
(-0.00099262129 0 -0.005540766)
(-0.00090971847 0 -0.0059647476)
(-0.00083211347 0 -0.00630408)
(-0.0007597467 0 -0.0065535807)
(-0.00069237663 0 -0.0067100358)
(-0.00062939962 0 -0.006773534)
(-0.00057021083 0 -0.0067432666)
(-0.00051413805 0 -0.0066189805)
(-0.00046027023 0 -0.0063964075)
(-0.00040751272 0 -0.0060676812)
(-0.00035451004 0 -0.0056183261)
(-0.00030077742 0 -0.0050388066)
(-0.00024385711 0 -0.0042952637)
(-0.00018322677 0 -0.0033685692)
(-0.00011500774 0 -0.0022024909)
(-3.6672161e-05 0 -0.00073492444)
(-0.0021959878 0 0.00038487667)
(-0.0021959231 0 0.00038565684)
(-0.0021958166 0 0.00038657637)
(-0.0021956528 0 0.00038764198)
(-0.0021954097 0 0.00038886837)
(-0.0021950573 0 0.00039026196)
(-0.0021945549 0 0.00039182291)
(-0.0021938475 0 0.00039353512)
(-0.002192861 0 0.00039536333)
(-0.0021914963 0 0.00039723567)
(-0.002189622 0 0.00039903136)
(-0.0021870643 0 0.00040055075)
(-0.0021835962 0 0.0004014831)
(-0.0021789227 0 0.00040135317)
(-0.0021726666 0 0.00039944912)
(-0.0021643511 0 0.00039473304)
(-0.0021533865 0 0.00038568794)
(-0.0021390567 0 0.00037017734)
(-0.0021205211 0 0.00034518948)
(-0.0020968289 0 0.00030660445)
(-0.0020669621 0 0.00024894185)
(-0.0020299096 0 0.00016519555)
(-0.0019847802 0 4.6866689e-05)
(-0.0019309482 0 -0.00011576615)
(-0.001868201 0 -0.00033290019)
(-0.0017968401 0 -0.00061386477)
(-0.001717693 0 -0.00096537196)
(-0.0016320655 0 -0.0013894097)
(-0.0015415338 0 -0.001882248)
(-0.0014477894 0 -0.0024333961)
(-0.0013525369 0 -0.0030252971)
(-0.001257407 0 -0.0036352857)
(-0.001163915 0 -0.0042376354)
(-0.0010733815 0 -0.0048071366)
(-0.0009868927 0 -0.0053212019)
(-0.0009051053 0 -0.005763282)
(-0.00082841459 0 -0.0061215214)
(-0.00075678913 0 -0.006390102)
(-0.00069002073 0 -0.0065654005)
(-0.00062754025 0 -0.0066470378)
(-0.00056877259 0 -0.0066340441)
(-0.0005130436 0 -0.0065258444)
(-0.00045947695 0 -0.0063182264)
(-0.00040698742 0 -0.006003384)
(-0.00035426784 0 -0.0055673204)
(-0.00030071886 0 -0.0049994498)
(-0.00024402926 0 -0.0042674741)
(-0.00018345905 0 -0.0033501814)
(-0.00011530133 0 -0.0021928221)
(-3.6874725e-05 0 -0.00073263706)
(-0.0021822405 0 0.00065255856)
(-0.00218216 0 0.00065355178)
(-0.0021820342 0 0.00065472133)
(-0.0021818472 0 0.00065607563)
(-0.0021815766 0 0.00065763129)
(-0.0021811908 0 0.00065940724)
(-0.0021806477 0 0.00066141264)
(-0.00217989 0 0.00066364859)
(-0.0021788414 0 0.00066609227)
(-0.0021773995 0 0.00066869225)
(-0.0021754293 0 0.00067134413)
(-0.0021727524 0 0.00067386901)
(-0.0021691366 0 0.00067597409)
(-0.002164281 0 0.00067720125)
(-0.002157801 0 0.00067685643)
(-0.0021492134 0 0.00067390055)
(-0.00213792 0 0.00066683341)
(-0.0021232013 0 0.00065347477)
(-0.002104215 0 0.00063076841)
(-0.0020800179 0 0.00059448198)
(-0.0020496087 0 0.00053898412)
(-0.0020120084 0 0.00045707623)
(-0.0019663743 0 0.00034007236)
(-0.0019121535 0 0.00017804293)
(-0.0018492237 0 -3.9405243e-05)
(-0.0017779746 0 -0.00032174693)
(-0.0016993084 0 -0.00067573063)
(-0.0016145588 0 -0.0011033824)
(-0.0015252798 0 -0.0016010775)
(-0.0014330912 0 -0.0021584599)
(-0.0013395878 0 -0.0027581819)
(-0.0012462711 0 -0.0033778609)
(-0.0011545408 0 -0.0039919566)
(-0.0010656208 0 -0.0045753001)
(-0.00098054339 0 -0.0051050741)
(-0.00089994776 0 -0.0055643021)
(-0.00082424248 0 -0.0059405788)
(-0.00075342207 0 -0.0062275003)
(-0.00068731237 0 -0.0064210214)
(-0.00062537669 0 -0.006520311)
(-0.00056707159 0 -0.0065242056)
(-0.00051172338 0 -0.0064318172)
(-0.00045848996 0 -0.0062389585)
(-0.00040629616 0 -0.0059378682)
(-0.00035388011 0 -0.0055149771)
(-0.00030054193 0 -0.0049587807)
(-0.00024409916 0 -0.004238359)
(-0.00018361986 0 -0.0033306921)
(-0.00011554467 0 -0.002182329)
(-3.7054887e-05 0 -0.00073001722)
(-0.0021676417 0 0.00091439752)
(-0.0021675467 0 0.00091555959)
(-0.0021674027 0 0.00091693231)
(-0.0021671927 0 0.00091853684)
(-0.0021668925 0 0.00092040398)
(-0.0021664696 0 0.00092255837)
(-0.0021658801 0 0.00092502143)
(-0.0021650649 0 0.00092780089)
(-0.0021639451 0 0.00093088876)
(-0.0021624156 0 0.00093424249)
(-0.0021603375 0 0.00093777472)
(-0.0021575279 0 0.00094132097)
(-0.0021537489 0 0.00094460709)
(-0.0021486928 0 0.00094719378)
(-0.0021419679 0 0.00094840031)
(-0.002133082 0 0.00094720763)
(-0.0021214313 0 0.00094209264)
(-0.00210629 0 0.00093086688)
(-0.0020868169 0 0.0009104011)
(-0.0020620782 0 0.00087632961)
(-0.0020310915 0 0.00082286013)
(-0.0019929123 0 0.00074258741)
(-0.0019467483 0 0.000626667)
(-0.0018921255 0 0.00046497078)
(-0.0018290169 0 0.00024691841)
(-0.0017579033 0 -3.7067001e-05)
(-0.0016797587 0 -0.00039372846)
(-0.0015959424 0 -0.00082508344)
(-0.0015079816 0 -0.0013275628)
(-0.0014174196 0 -0.0018909182)
(-0.0013257373 0 -0.0024980034)
(-0.0012343073 0 -0.0031267185)
(-0.0011444123 0 -0.0037517531)
(-0.0010571811 0 -0.0043480208)
(-0.0009735892 0 -0.0048925466)
(-0.00089425747 0 -0.005367986)
(-0.00081960453 0 -0.0057614397)
(-0.00074965076 0 -0.0060659554)
(-0.00068425383 0 -0.0062770709)
(-0.00062291057 0 -0.0063935063)
(-0.00056510799 0 -0.0064138859)
(-0.00051017755 0 -0.0063370125)
(-0.00045730837 0 -0.0061586958)
(-0.00040543852 0 -0.0058712106)
(-0.00035334633 0 -0.0054613579)
(-0.00030024664 0 -0.0049168504)
(-0.00024406627 0 -0.0042079567)
(-0.00018370801 0 -0.0033101278)
(-0.00011573669 0 -0.0021710317)
(-3.7211489e-05 0 -0.00072707977)
(-0.0021522115 0 0.0011705587)
(-0.002152097 0 0.0011719318)
(-0.0021519292 0 0.0011735528)
(-0.0021516908 0 0.0011754443)
(-0.0021513567 0 0.0011776391)
(-0.0021508928 0 0.0011801744)
(-0.0021502534 0 0.0011830804)
(-0.0021493768 0 0.0011863813)
(-0.0021481814 0 0.0011900819)
(-0.0021465581 0 0.0011941597)
(-0.002144364 0 0.0011985433)
(-0.0021414109 0 0.0012030884)
(-0.0021374545 0 0.0012075391)
(-0.0021321803 0 0.001211473)
(-0.0021251882 0 0.0012142274)
(-0.0021159784 0 0.0012147829)
(-0.0021039386 0 0.0012116277)
(-0.0020883408 0 0.0012025111)
(-0.0020683433 0 0.0011842602)
(-0.0020430288 0 0.0011523003)
(-0.0020114321 0 0.0011006971)
(-0.001972647 0 0.0010218118)
(-0.0019259311 0 0.00090670638)
(-0.0018708973 0 0.00074504668)
(-0.00180762 0 0.0005260792)
(-0.00173667 0 0.00024015677)
(-0.0016590937 0 -0.00011939433)
(-0.0015762695 0 -0.00055455101)
(-0.0014896932 0 -0.0010617573)
(-0.0014008265 0 -0.0016308476)
(-0.0013110339 0 -0.0022448602)
(-0.0012215579 0 -0.0028819917)
(-0.0011335661 0 -0.0035171871)
(-0.0010480911 0 -0.0041254956)
(-0.00096605259 0 -0.0046838342)
(-0.00088805049 0 -0.0051745625)
(-0.0008145124 0 -0.0055843291)
(-0.00074548264 0 -0.0059056829)
(-0.0006808507 0 -0.0061337446)
(-0.00062014504 0 -0.0062667985)
(-0.00056288441 0 -0.0063032367)
(-0.00050840703 0 -0.0062415567)
(-0.00045593312 0 -0.006077542)
(-0.00040441435 0 -0.0058034908)
(-0.00035266698 0 -0.0054065318)
(-0.00029983168 0 -0.0048736979)
(-0.00024393121 0 -0.0041763087)
(-0.00018372308 0 -0.0032885031)
(-0.00011587821 0 -0.0021589409)
(-3.7346391e-05 0 -0.00072382487)
(-0.0021359815 0 0.0014211175)
(-0.0021358487 0 0.0014226636)
(-0.0021356581 0 0.0014244942)
(-0.0021353907 0 0.0014266427)
(-0.0021350202 0 0.0014291548)
(-0.002134511 0 0.0014320723)
(-0.0021338154 0 0.0014354369)
(-0.0021328697 0 0.0014392797)
(-0.0021315892 0 0.0014436189)
(-0.0021298615 0 0.0014484428)
(-0.0021275391 0 0.0014536965)
(-0.0021244283 0 0.0014592519)
(-0.002120278 0 0.0014648729)
(-0.0021147661 0 0.0014701574)
(-0.0021074829 0 0.0014744603)
(-0.0020979201 0 0.0014767818)
(-0.0020854584 0 0.001475594)
(-0.002069369 0 0.0014685627)
(-0.002048807 0 0.0014525411)
(-0.0020228861 0 0.0014225549)
(-0.001990648 0 0.0013726481)
(-0.0019512337 0 0.0012948629)
(-0.0019039448 0 0.0011802997)
(-0.0018484946 0 0.0010183764)
(-0.0017850632 0 0.0007981676)
(-0.0017143115 0 0.00051001172)
(-0.0016373538 0 0.0001473446)
(-0.0015555834 0 -0.0002917222)
(-0.0014704593 0 -0.00080360875)
(-0.0013833561 0 -0.0013782096)
(-0.0012955183 0 -0.0019987427)
(-0.0012080592 0 -0.0026436997)
(-0.0011220321 0 -0.003288318)
(-0.0010383753 0 -0.0039078159)
(-0.00095795212 0 -0.004479063)
(-0.00088134088 0 -0.0049841764)
(-0.00080897577 0 -0.005409406)
(-0.00074092477 0 -0.005746841)
(-0.00067710692 0 -0.0059911984)
(-0.00061708291 0 -0.0061403291)
(-0.00056040205 0 -0.0061923853)
(-0.00050641266 0 -0.0061455591)
(-0.00045436394 0 -0.0059955877)
(-0.00040322361 0 -0.0057347847)
(-0.00035184183 0 -0.0053505607)
(-0.00029929716 0 -0.0048293745)
(-0.00024369355 0 -0.0041434554)
(-0.00018366393 0 -0.0032658458)
(-0.00011596821 0 -0.0021460792)
(-3.7458309e-05 0 -0.00072026442)
(-0.0021189726 0 0.00166623)
(-0.0021188164 0 0.0016679858)
(-0.0021185973 0 0.0016700635)
(-0.0021182958 0 0.0016724979)
(-0.0021178845 0 0.0016753373)
(-0.002117326 0 0.0016786351)
(-0.0021165705 0 0.0016824421)
(-0.0021155514 0 0.0016868052)
(-0.0021141807 0 0.0016917554)
(-0.0021123416 0 0.0016973002)
(-0.0021098818 0 0.0017034012)
(-0.0021066008 0 0.0017099512)
(-0.0021022411 0 0.001716733)
(-0.0020964704 0 0.0017233668)
(-0.002088871 0 0.0017292277)
(-0.0020789229 0 0.0017333418)
(-0.0020660009 0 0.0017342025)
(-0.0020493908 0 0.0017291272)
(-0.0020282692 0 0.001714755)
(-0.0020017246 0 0.0016864868)
(-0.0019688138 0 0.0016381442)
(-0.0019287 0 0.0015617852)
(-0.0018808189 0 0.0014474808)
(-0.0018249523 0 0.0012849761)
(-0.0017613885 0 0.0010631801)
(-0.0016908755 0 0.00077247463)
(-0.0016145924 0 0.0004064638)
(-0.0015339407 0 -3.6624091e-05)
(-0.001450337 0 -0.00055315121)
(-0.001365063 0 -0.001133054)
(-0.0012792415 0 -0.0017597167)
(-0.0011938562 0 -0.0024119367)
(-0.0011098492 0 -0.0030652672)
(-0.0010280654 0 -0.003695136)
(-0.00094931282 0 -0.0042784085)
(-0.00087414726 0 -0.0047970209)
(-0.00080300854 0 -0.0052368662)
(-0.00073598662 0 -0.0055896225)
(-0.00067302972 0 -0.005849611)
(-0.00061372874 0 -0.0060142615)
(-0.00055766448 0 -0.006081476)
(-0.00050419625 0 -0.0060491426)
(-0.00045260232 0 -0.0059129352)
(-0.00040186662 0 -0.0056651726)
(-0.00035087151 0 -0.0052935134)
(-0.00029864212 0 -0.0047839224)
(-0.00024335377 0 -0.0041094365)
(-0.00018353033 0 -0.0032421732)
(-0.00011600739 0 -0.0021324551)
(-3.7549147e-05 0 -0.00071640121)
(-0.0021012114 0 0.0019059732)
(-0.0021010324 0 0.0019079095)
(-0.0021007853 0 0.0019102022)
(-0.0021004493 0 0.0019128964)
(-0.002099995 0 0.00191605)
(-0.0020993835 0 0.0019197249)
(-0.0020985624 0 0.0019239819)
(-0.0020974627 0 0.0019288779)
(-0.0020959925 0 0.0019344568)
(-0.0020940313 0 0.0019407393)
(-0.0020914206 0 0.0019477037)
(-0.0020879545 0 0.0019552596)
(-0.002083366 0 0.001963212)
(-0.0020773146 0 0.0019712019)
(-0.0020693696 0 0.0019786392)
(-0.0020590016 0 0.0019845563)
(-0.0020456211 0 0.0019870836)
(-0.0020285009 0 0.0019837141)
(-0.0020067978 0 0.0019707993)
(-0.0019795752 0 0.0019440547)
(-0.0019459376 0 0.0018970856)
(-0.0019050951 0 0.0018220172)
(-0.0018565745 0 0.0017083468)
(-0.001800297 0 0.0015449379)
(-0.0017366291 0 0.0013211948)
(-0.0016664018 0 0.0010276226)
(-0.001590853 0 0.00065803265)
(-0.0015113878 0 0.00021081242)
(-0.0014293735 0 -0.0003103175)
(-0.0013459935 0 -0.00089532062)
(-0.0012622459 0 -0.0015277441)
(-0.001178987 0 -0.0021866884)
(-0.0010970495 0 -0.0028480568)
(-0.0010171878 0 -0.0034875094)
(-0.00094015534 0 -0.0040819593)
(-0.00086648562 0 -0.0046132072)
(-0.00079662228 0 -0.0050668393)
(-0.00073067685 0 -0.005434162)
(-0.0006686245 0 -0.0057091202)
(-0.00061008646 0 -0.005888724)
(-0.0005546739 0 -0.0059706273)
(-0.00050175934 0 -0.0059524108)
(-0.00045064862 0 -0.0058296725)
(-0.0004003437 0 -0.0055947292)
(-0.00034975605 0 -0.0052354517)
(-0.0002978668 0 -0.0047373931)
(-0.00024291156 0 -0.0040742945)
(-0.00018332124 0 -0.0032175148)
(-0.00011599475 0 -0.002118093)
(-3.7617593e-05 0 -0.00071224608)
(-0.002082724 0 0.0021404789)
(-0.0020825195 0 0.0021426045)
(-0.0020822411 0 0.0021451217)
(-0.0020818667 0 0.002148082)
(-0.0020813655 0 0.0021515515)
(-0.0020806964 0 0.0021556006)
(-0.0020798047 0 0.002160301)
(-0.0020786181 0 0.0021657216)
(-0.0020770409 0 0.0021719198)
(-0.002074948 0 0.0021789311)
(-0.002072175 0 0.0021867501)
(-0.0020685087 0 0.0021953056)
(-0.0020636736 0 0.0022044215)
(-0.0020573178 0 0.0022137667)
(-0.0020489987 0 0.0022227845)
(-0.0020382209 0 0.002230222)
(-0.002024384 0 0.0022341675)
(-0.0020067106 0 0.0022323351)
(-0.0019843556 0 0.0022211427)
(-0.0019564133 0 0.0021958843)
(-0.0019220179 0 0.0021500932)
(-0.0018804478 0 0.0020755698)
(-0.0018312783 0 0.0019622663)
(-0.0017745648 0 0.0017982716)
(-0.00171083 0 0.0015721928)
(-0.0016409419 0 0.0012754257)
(-0.0015661924 0 0.00090202877)
(-0.001487984 0 0.00045057115)
(-0.0014076284 0 -7.5123956e-05)
(-0.0013262045 0 -0.00066503429)
(-0.0012445842 0 -0.0013028607)
(-0.0011634979 0 -0.0019680139)
(-0.0010836733 0 -0.0026367703)
(-0.0010057758 0 -0.0032850514)
(-0.00093050658 0 -0.0038898531)
(-0.00085837658 0 -0.004432894)
(-0.00078983271 0 -0.0048994913)
(-0.00072500671 0 -0.0052806283)
(-0.0006638999 0 -0.0055698866)
(-0.00060616187 0 -0.0057638673)
(-0.00055143477 0 -0.0058599748)
(-0.00049910456 0 -0.0058554818)
(-0.00044850486 0 -0.0057458993)
(-0.00039865568 0 -0.0055235351)
(-0.00034849626 0 -0.0051764444)
(-0.00029697057 0 -0.0046898318)
(-0.00024236732 0 -0.0040380678)
(-0.00018303658 0 -0.0031918903)
(-0.00011593092 0 -0.0021030014)
(-3.7665483e-05 0 -0.00070780239)
(-0.0020635304 0 0.0023698498)
(-0.0020632982 0 0.002372165)
(-0.0020629859 0 0.0023749076)
(-0.0020625701 0 0.0023781352)
(-0.0020620182 0 0.0023819216)
(-0.002061287 0 0.0023863459)
(-0.002060319 0 0.00239149)
(-0.0020590389 0 0.0023974336)
(-0.0020573468 0 0.0024042479)
(-0.0020551124 0 0.0024119829)
(-0.0020521652 0 0.0024206495)
(-0.0020482841 0 0.0024301929)
(-0.0020431845 0 0.0024404532)
(-0.0020365036 0 0.0024511057)
(-0.0020278072 0 0.0024615781)
(-0.0020166153 0 0.0024703631)
(-0.0020022676 0 0.0024758606)
(-0.0019839973 0 0.0024755893)
(-0.0019609544 0 0.0024659684)
(-0.0019322526 0 0.0024420925)
(-0.0018970675 0 0.0023973028)
(-0.0018547464 0 0.0023231242)
(-0.0018049575 0 0.0022093178)
(-0.0017478258 0 0.0020444312)
(-0.001684028 0 0.001816242)
(-0.0016145385 0 0.0015159538)
(-0.0015406575 0 0.0011385212)
(-0.0014637784 0 0.00068272903)
(-0.001385151 0 0.00015251113)
(-0.0013057436 0 -0.00044211545)
(-0.0012263001 0 -0.001085003)
(-0.0011474279 0 -0.001755869)
(-0.0010697537 0 -0.0024313968)
(-0.00099385697 0 -0.0030877813)
(-0.00092038854 0 -0.0037021443)
(-0.0008498375 0 -0.0042561603)
(-0.0007826528 0 -0.0047349237)
(-0.00071898607 0 -0.0051291325)
(-0.00065886259 0 -0.0054320289)
(-0.00060195987 0 -0.0056398052)
(-0.00054795018 0 -0.0057496269)
(-0.00049623406 0 -0.0057584527)
(-0.00044617194 0 -0.0056617002)
(-0.00039680321 0 -0.0054516628)
(-0.00034709243 0 -0.0051165528)
(-0.00029595379 0 -0.0046412902)
(-0.00024172086 0 -0.0040008006)
(-0.00018267536 0 -0.0031653306)
(-0.0001158149 0 -0.0020872049)
(-3.7691487e-05 0 -0.00070308056)
(-0.0020436515 0 0.0025941913)
(-0.0020433896 0 0.0025966961)
(-0.0020430409 0 0.0025996638)
(-0.0020425806 0 0.0026031585)
(-0.0020419742 0 0.0026072616)
(-0.0020411763 0 0.0026120605)
(-0.0020401266 0 0.0026176474)
(-0.0020387462 0 0.0026241137)
(-0.0020369308 0 0.0026315434)
(-0.0020345447 0 0.0026400008)
(-0.0020314106 0 0.0026495133)
(-0.0020272994 0 0.0026600448)
(-0.0020219163 0 0.0026714574)
(-0.0020148877 0 0.002683465)
(-0.0020058146 0 0.0026951314)
(-0.0019941719 0 0.0027053275)
(-0.0019792833 0 0.0027123126)
(-0.0019603778 0 0.0027135506)
(-0.0019366076 0 0.0027053915)
(-0.001907107 0 0.0026827833)
(-0.0018711029 0 0.0026388083)
(-0.0018280142 0 0.0025647318)
(-0.0017776058 0 0.0024501283)
(-0.0017201231 0 0.0022834353)
(-0.0016562526 0 0.0020533151)
(-0.0015872475 0 0.0017491767)
(-0.0015143084 0 0.0013674969)
(-0.0014388331 0 0.00090728655)
(-0.0013620027 0 0.00037259333)
(-0.0012846688 0 -0.00022656175)
(-0.0012074469 0 -0.00087417623)
(-0.0011308243 0 -0.0015502779)
(-0.0010553318 0 -0.0022319833)
(-0.00098146573 0 -0.0028957763)
(-0.00090982929 0 -0.0035189336)
(-0.00084089036 0 -0.0040831309)
(-0.00077509962 0 -0.0045732724)
(-0.00071262762 0 -0.0049798184)
(-0.00065352234 0 -0.0052956887)
(-0.00059748735 0 -0.0055166738)
(-0.00054422541 0 -0.0056397091)
(-0.00049315122 0 -0.0056614352)
(-0.0004436524 0 -0.0055771714)
(-0.00039478758 0 -0.005379192)
(-0.00034554559 0 -0.0050558451)
(-0.00029481615 0 -0.004591816)
(-0.00024097252 0 -0.0039625309)
(-0.00018223767 0 -0.0031378574)
(-0.00011564731 0 -0.0020707129)
(-3.7697397e-05 0 -0.0006980844)
(-0.0020231088 0 0.0028136067)
(-0.0020228149 0 0.002816301)
(-0.0020224271 0 0.0028194938)
(-0.0020219191 0 0.0028232554)
(-0.0020212543 0 0.0028276749)
(-0.002020385 0 0.0028328482)
(-0.0020192478 0 0.0028388773)
(-0.00201776 0 0.0028458648)
(-0.0020158126 0 0.0028539074)
(-0.0020132642 0 0.0028630837)
(-0.0020099301 0 0.0028734361)
(-0.0020055724 0 0.0028849433)
(-0.0019998851 0 0.0028974793)
(-0.0019925047 0 0.0029107547)
(-0.0019830386 0 0.0029236654)
(-0.0019709118 0 0.0029352085)
(-0.0019554463 0 0.0029436255)
(-0.0019358662 0 0.002946306)
(-0.0019113267 0 0.002939515)
(-0.001880985 0 0.0029180839)
(-0.0018441356 0 0.0028747303)
(-0.0018002675 0 0.0028004918)
(-0.0017492466 0 0.0026847746)
(-0.0016914369 0 0.0025158545)
(-0.0016276033 0 0.0022829713)
(-0.0015591164 0 0.0019751589)
(-0.0014871944 0 0.0015890265)
(-0.0014131987 0 0.0011243294)
(-0.0013382337 0 0.00058521893)
(-0.0012630281 0 -1.8274961e-05)
(-0.0011880681 0 -0.00067029403)
(-0.0011137254 0 -0.0013511702)
(-0.0010404408 0 -0.0020384898)
(-0.00096862979 0 -0.0027090254)
(-0.00089885135 0 -0.0033402443)
(-0.0008315532 0 -0.0039138553)
(-0.00076718707 0 -0.0044146107)
(-0.00070594206 0 -0.0048327732)
(-0.0006478868 0 -0.0051609647)
(-0.00059274995 0 -0.0053945717)
(-0.00054026425 0 -0.0055303185)
(-0.00048985873 0 -0.0055645185)
(-0.00044094767 0 -0.005492393)
(-0.00039260975 0 -0.0053061929)
(-0.00034385626 0 -0.0049943818)
(-0.00029355811 0 -0.0045414603)
(-0.00024012227 0 -0.0039233046)
(-0.00018172263 0 -0.0031095039)
(-0.00011542715 0 -0.0020535509)
(-3.7681885e-05 0 -0.00069282433)
(-0.0020019221 0 0.0030281968)
(-0.002001594 0 0.0030310805)
(-0.0020011645 0 0.0030344982)
(-0.0020006056 0 0.0030385264)
(-0.0019998786 0 0.0030432618)
(-0.0019989331 0 0.003048809)
(-0.0019977025 0 0.0030552796)
(-0.0019961 0 0.0030627879)
(-0.0019940117 0 0.0030714435)
(-0.0019912898 0 0.0030813393)
(-0.001987742 0 0.0030925347)
(-0.0019831207 0 0.0031050298)
(-0.0019771094 0 0.0031187321)
(-0.0019693784 0 0.0031330333)
(-0.0019594882 0 0.0031472048)
(-0.0019468469 0 0.0031600903)