/*--------------------------------*- C++ -*----------------------------------*\
  =========                 |
  \\      /  F ield         | OpenFOAM: The Open Source CFD Toolbox
   \\    /   O peration     | Website:  https://openfoam.org
    \\  /    A nd           | Version:  8
     \\/     M anipulation  |
\*---------------------------------------------------------------------------*/
FoamFile
{
    version     2.0;
    format      ascii;
    class       volScalarField;
    location    "0.0499991";
    object      Ma;
}
// * * * * * * * * * * * * * * * * * * * * * * * * * * * * * * * * * * * * * //

dimensions      [0 0 0 0 0 0 0];

internalField   nonuniform List<scalar> 
20000
(
0.57506304
0.67823465
0.74663453
0.80651598
0.86225716
0.908917
0.91534716
0.91835245
0.91492394
0.91575463
0.91328174
0.91283814
0.91050274
0.90896482
0.90632436
0.90372977
0.90034929
0.89658286
0.89209349
0.88691523
0.8808413
0.87373754
0.86567613
0.85667061
0.84681666
0.83618238
0.82499836
0.81359021
0.8023859
0.79180281
0.7822148
0.77387277
0.76691533
0.76134573
0.75719204
0.75415413
0.7518807
0.75053897
0.75009772
0.7501403
0.75045027
0.75064708
0.75122008
0.75298858
0.75455867
0.75467215
0.75397383
0.75365815
0.75369109
0.75378694
0.57897288
0.68256552
0.75152573
0.81178592
0.86782833
0.9126739
0.91693449
0.9199967
0.91651154
0.91735086
0.91482943
0.91435932
0.91197836
0.91038543
0.90769276
0.90502855
0.90158294
0.89771323
0.89306645
0.88759914
0.88119342
0.87388291
0.86569049
0.85652922
0.84646562
0.83560304
0.82421921
0.81266666
0.80138907
0.79081254
0.78130001
0.77308311
0.76626832
0.7608561
0.75684979
0.753807
0.75159828
0.75042966
0.75004151
0.75009998
0.75039255
0.75057765
0.75146927
0.75350065
0.7544252
0.75439168
0.75390071
0.75367156
0.75368514
0.75378687
0.58386196
0.68807194
0.75741779
0.81790476
0.87414676
0.91640553
0.91846871
0.92149756
0.91792675
0.91876019
0.91617624
0.91566348
0.91324254
0.91159126
0.90884761
0.90610461
0.90256305
0.8985203
0.89365961
0.88795624
0.88137122
0.87389439
0.86551154
0.85611505
0.84579469
0.83469522
0.82311185
0.8114247
0.80009419
0.78955196
0.78014778
0.77208915
0.76545109
0.76023123
0.75638744
0.75336081
0.75130733
0.75029348
0.74997074
0.75004027
0.75030586
0.75053476
0.7518824
0.75364048
0.7543604
0.75430079
0.75386128
0.75367155
0.75367937
0.7537865
0.58822239
0.69295504
0.76272076
0.82343904
0.87984104
0.91942839
0.91963203
0.92268488
0.91903788
0.91989894
0.91726024
0.91668351
0.91426639
0.91255374
0.90974413
0.90687921
0.90318602
0.89893769
0.89388771
0.88804096
0.88133492
0.8736946
0.86506961
0.85541234
0.84483159
0.83349208
0.82171711
0.80991284
0.7985559
0.78808001
0.77881859
0.77095068
0.76452159
0.75952137
0.75584014
0.752875
0.75100505
0.75014597
0.74988027
0.74997635
0.75019777
0.75050286
0.75225906
0.75376254
0.75426077
0.75416715
0.7538199
0.75366291
0.75367335
0.7537861
0.59248366
0.69774423
0.76793003
0.82885856
0.88528551
0.92197088
0.92055634
0.9236508
0.91990018
0.92077898
0.91805374
0.91746746
0.91501809
0.91321713
0.91030605
0.90728878
0.90345188
0.89906558
0.89391717
0.88795148
0.88109635
0.87321867
0.86433039
0.8543993
0.84354869
0.83196944
0.82001249
0.80811123
0.79675731
0.7863827
0.77730022
0.76965693
0.76347101
0.75871732
0.75518934
0.75235517
0.75069007
0.74998072
0.74976717
0.74990097
0.75007974
0.75052633
0.75255976
0.75382042
0.75419653
0.75408029
0.75378111
0.75364619
0.75366678
0.75378555
0.59651976
0.7023016
0.77291449
0.8340519
0.89031266
0.92399564
0.92122528
0.92435155
0.92054567
0.92137776
0.91868097
0.91804916
0.9154595
0.91355498
0.9105469
0.90741817
0.9035075
0.89902593
0.89376462
0.88763195
0.88056073
0.87244152
0.86328166
0.85306775
0.84194382
0.83012768
0.81800212
0.80602792
0.79470977
0.78447349
0.77560661
0.7682219
0.76231352
0.75783027
0.75444776
0.75181118
0.75035947
0.74979015
0.74963416
0.7498143
0.74997904
0.75066037
0.75276768
0.75386441
0.75413958
0.75399723
0.75374244
0.75362345
0.75365979
0.75378493
0.6004059
0.70671051
0.77775229
0.83910176
0.89492994
0.9255613
0.92167616
0.92482797
0.92102566
0.92183194
0.91905393
0.91834127
0.91563462
0.91365412
0.91059504
0.9073867
0.90339634
0.8987903
0.89336587
0.8870299
0.87973508
0.87135492
0.86191254
0.85140772
0.84000732
0.8279603
0.8156831
0.80366394
0.79241761
0.78235871
0.77374475
0.76665339
0.76105681
0.7568633
0.7536309
0.75124404
0.75001405
0.74958072
0.74948299
0.74971304
0.74989647
0.75085109
0.75290974
0.75388703
0.75409449
0.75392931
0.75370483
0.75359862
0.7536537
0.75378428
0.60409923
0.71093499
0.78241758
0.84402227
0.89908057
0.92669742
0.92193837
0.92518851
0.92123853
0.92204913
0.91917666
0.91843551
0.91564924
0.91360054
0.91048404
0.90717301
0.9030641
0.89829108
0.89269162
0.88614135
0.87860313
0.86995079
0.86021515
0.84941235
0.83773496
0.82546625
0.81305843
0.80102628
0.78989076
0.78004971
0.77172656
0.76496432
0.75971184
0.75581735
0.75275697
0.7506602
0.74965563
0.74933908
0.74931747
0.74959486
0.74983226
0.75107646
0.75302045
0.75389752
0.75405478
0.75386777
0.75366821
0.75357107
0.75364861
0.75378372
0.60761759
0.71498261
0.78692296
0.84885998
0.90274953
0.92744911
0.9219619
0.92513782
0.92121295
0.9219413
0.91909426
0.91831076
0.91550371
0.91336113
0.91015774
0.90671055
0.9024712
0.89752651
0.89173533
0.88495583
0.87716134
0.86822258
0.85818269
0.8470758
0.83512301
0.82264539
0.81013226
0.798123
0.78713991
0.77755847
0.76956502
0.76316869
0.75828797
0.75468807
0.751847
0.75006492
0.74928325
0.74906708
0.74913814
0.74945652
0.74977798
0.75131139
0.75311045
0.75389475
0.75401582
0.75381293
0.75363195
0.75354147
0.75364407
0.75378332
0.61103151
0.7189144
0.79131325
0.85367745
0.90593314
0.92789505
0.92180785
0.92506188
0.92100272
0.92177882
0.91881449
0.9178999
0.91512861
0.91287614
0.90958072
0.90599546
0.90161445
0.89648467
0.89048939
0.88346759
0.87540175
0.86616391
0.85580941
0.84439385
0.83217012
0.81950034
0.80691163
0.79496488
0.78417818
0.77489954
0.76727604
0.76128202
0.75679275
0.75347443
0.75092222
0.74946286
0.74889556
0.74876996
0.74894369
0.74929739
0.74973598
0.75154285
0.75318521
0.75387994
0.75397274
0.75376138
0.75359522
0.75350982
0.75363985
0.75378316
0.6143224
0.72268202
0.79552549
0.85842948
0.90855592
0.92801299
0.92146941
0.92473609
0.92062857
0.92136068
0.91833067
0.91736223
0.91450706
0.91214587
0.90875297
0.90501938
0.90048668
0.89516134
0.8889482
0.88167039
0.87331918
0.86376949
0.85309091
0.84136394
0.82887688
0.81603599
0.80340585
0.79156471
0.78102074
0.77208998
0.76487765
0.75931877
0.75522978
0.75219222
0.74999587
0.74885803
0.74848635
0.74845586
0.74873428
0.74912165
0.74973106
0.75175831
0.75324699
0.75385816
0.7539237
0.75371109
0.75355797
0.75347647
0.75363581
0.75378326
0.61746828
0.72626446
0.79952619
0.86309656
0.91059254
0.92778074
0.92093574
0.9241881
0.92003204
0.92070448
0.91763004
0.91656552
0.91365039
0.91116934
0.90767049
0.90377921
0.89908356
0.89355076
0.88710632
0.87955897
0.87090818
0.86103457
0.85002367
0.83798487
0.82524581
0.81225945
0.79962647
0.78793749
0.77768536
0.76914962
0.76238879
0.75728996
0.75359925
0.7508721
0.74907561
0.74825236
0.74804916
0.74813391
0.74851273
0.74894021
0.74978693
0.75194743
0.75329582
0.7538303
0.75386535
0.75365986
0.75352058
0.75344246
0.75363193
0.75378366
0.6204783
0.72967245
0.80330756
0.86767096
0.91204705
0.92716517
0.92019008
0.92342372
0.91920946
0.91982942
0.91669988
0.91554243
0.9125521
0.90994162
0.90632856
0.90226998
0.89740043
0.89164887
0.88495954
0.87712907
0.86816477
0.85795562
0.84660557
0.83425729
0.82128167
0.80818023
0.79558734
0.7841008
0.77419289
0.76610036
0.75982669
0.75520173
0.7519044
0.74954652
0.74816921
0.74763954
0.74758684
0.74780995
0.74828397
0.74876874
0.74990786
0.75210469
0.75333119
0.75379205
0.75379772
0.75360519
0.75348313
0.75341089
0.7536282
0.75378434
0.62331437
0.73288263
0.80684152
0.87209848
0.91291752
0.92616191
0.91921075
0.92243047
0.91815501
0.91870496
0.91553267
0.91427202
0.9112057
0.90845815
0.9047234
0.90048874
0.89543427
0.88945245
0.88250442
0.87437708
0.86508536
0.85452975
0.84283544
0.83018318
0.81699101
0.80380984
0.79130459
0.78007512
0.77056684
0.76296368
0.7572038
0.75305717
0.75016502
0.74824291
0.74727847
0.7470077
0.74711351
0.7474854
0.74805275
0.74862817
0.75007681
0.75223712
0.75335583
0.75373786
0.75372224
0.75354474
0.75344318
0.7533844
0.75362464
0.75378529
0.62598
0.7359116
0.81015573
0.87635167
0.91323604
0.92504898
0.91800076
0.92120759
0.91686546
0.91735388
0.91412565
0.91275584
0.90960948
0.90671753
0.90285353
0.89843385
0.89318311
0.88695926
0.87973838
0.87130021
0.86166735
0.85075521
0.83871366
0.82576652
0.81238257
0.79916219
0.7867973
0.77588431
0.76683198
0.7597572
0.75452722
0.75086387
0.74842031
0.746975
0.74639495
0.74635557
0.74664024
0.74716131
0.7478202
0.7485248
0.75026429
0.75235433
0.75337423
0.75368006
0.75364214
0.75347739
0.75339464
0.7533637
0.75362133
0.75378648
0.62844318
0.73872767
0.81325423
0.88036253
0.91302428
0.92373998
0.91656261
0.91975049
0.91534512
0.91576474
0.9124807
0.91099396
0.90776406
0.90472032
0.90071885
0.89610498
0.89064585
0.88416754
0.876659
0.86789565
0.85790823
0.8466307
0.83424151
0.82101266
0.80746687
0.79425348
0.78208765
0.77155474
0.76301094
0.75649181
0.75180311
0.74864573
0.74670915
0.74574453
0.74550239
0.74569709
0.7461735
0.74683808
0.74758223
0.74844476
0.75045572
0.75245243
0.75338602
0.75362608
0.75355969
0.75340376
0.75333334
0.75334923
0.75361886
0.75378792
0.63070117
0.74135284
0.81616775
0.88400593
0.91231486
0.92215536
0.91490299
0.91806722
0.9136007
0.91394161
0.91060105
0.90898951
0.90567147
0.90246803
0.89832008
0.893502
0.88782153
0.88107551
0.87326394
0.8641609
0.85380603
0.84215583
0.82942167
0.81592882
0.80225674
0.78910298
0.77720132
0.76711331
0.75912054
0.75317389
0.74904784
0.74644595
0.74505093
0.74453757
0.74460021
0.74504686
0.74571695
0.74651681
0.74733311
0.74837997
0.75064254
0.75252754
0.7533824
0.75357848
0.75347448
0.75332551
0.75326238
0.75333884
0.75361801
0.75378959
0.63273784
0.74378638
0.81894216
0.88728707
0.9111579
0.92037805
0.91302611
0.91615711
0.91163874
0.91188668
0.90848972
0.90674532
0.90333378
0.89996214
0.89565747
0.89062454
0.88470872
0.87768096
0.86955054
0.86009321
0.84935876
0.83733052
0.82425761
0.81052358
0.79676722
0.78373323
0.77216644
0.76258342
0.75517038
0.74981523
0.74629961
0.74430352
0.74344376
0.74333382
0.74370791
0.74441148
0.745274
0.74620032
0.7470745
0.74833964
0.75081796
0.75258236
0.75336202
0.75353293
0.75338833
0.75324562
0.75318729
0.75333193
0.75361839
0.75379148
0.63452978
0.74602228
0.82159085
0.89019781
0.9095996
0.91836665
0.91093969
0.91402824
0.90945812
0.90960539
0.90615021
0.90426384
0.90075221
0.89720314
0.89273064
0.88747126
0.88130543
0.87398145
0.86551621
0.85569019
0.84456502
0.83215566
0.81875419
0.80480752
0.79101645
0.77817038
0.76701137
0.7579814
0.75116848
0.74644846
0.74360506
0.74223345
0.74186812
0.74213955
0.74283928
0.7437954
0.74484668
0.74589302
0.74682807
0.74835396
0.7509743
0.75262229
0.75333195
0.75348088
0.75330506
0.75316818
0.75311276
0.75332634
0.75361957
0.75379361
0.63611104
0.74807941
0.82414042
0.89270899
0.90769291
0.91615021
0.90865227
0.9116832
0.9070635
0.90709844
0.90358293
0.90154535
0.8979265
0.89419052
0.88953805
0.88404029
0.8776092
0.8699742
0.86115808
0.85094923
0.83942349
0.82663265
0.81291736
0.79879328
0.78502581
0.77244313
0.76176076
0.75331621
0.74713549
0.7431255
0.74099413
0.74022568
0.74031324
0.74097743
0.74199931
0.74320239
0.74443551
0.74559745
0.74663676
0.74844525
0.75110748
0.75264833
0.75329276
0.75341186
0.7532243
0.7530976
0.75304494
0.75332187
0.75362145
0.75379598
0.6374807
0.74994313
0.8265862
0.89476943
0.9054622
0.91371807
0.90615468
0.90911932
0.90445237
0.90436538
0.90078761
0.8985897
0.89485569
0.89092288
0.88607773
0.88032913
0.87361744
0.86565645
0.85647336
0.84586799
0.83393345
0.82076391
0.80675487
0.79249659
0.77882052
0.76658084
0.75643211
0.74859802
0.74311844
0.73989308
0.73847458
0.73825628
0.73879882
0.73985692
0.74119363
0.7426359
0.74403994
0.74530957
0.74651385
0.74860561
0.75122471
0.75265767
0.75323669
0.7533222
0.75314224
0.75303627
0.75299268
0.75332007
0.75362406
0.7537986
0.63865705
0.75161089
0.8289211
0.8963314
0.90293484
0.91107586
0.90345092
0.90633833
0.90162648
0.90140704
0.89776407
0.89539607
0.89153793
0.88739821
0.88234728
0.87633562
0.86932772
0.86102521
0.8514588
0.84044372
0.82809402
0.81455231
0.80027607
0.78593639
0.77242875
0.76061001
0.75103543
0.74385567
0.73917699
0.7367769
0.7360266
0.73633033
0.7373419
0.73878433
0.74042655
0.74209928
0.74365952
0.74501931
0.74642821
0.74881536
0.75133504
0.75264921
0.75314948
0.75321345
0.75305418
0.7529786
0.75295384
0.75332288
0.75362756
0.75380147
0.63967264
0.75310484
0.83113836
0.89737646
0.90014797
0.90822339
0.90054208
0.90334085
0.89858583
0.89822266
0.89451067
0.89196267
0.88797105
0.88361474
0.87834506
0.87205783
0.86473756
0.85607717
0.84611083
0.83467358
0.82190463
0.80800185
0.79349297
0.77913555
0.76588016
0.75455109
0.74558162
0.7391462
0.73535793
0.73377331
0.73363491
0.73447476
0.73594833
0.73776476
0.73970196
0.74159535
0.74329531
0.74472134
0.74636396
0.74905444
0.75143819
0.75262744
0.75304776
0.75309342
0.75295712
0.75291016
0.75292985
0.75332903
0.75363205
0.75380458
0.6405631
0.75444963
0.83320671
0.89781997
0.89714056
0.90516338
0.89742885
0.90012623
0.89532889
0.8948103
0.89102538
0.88828824
0.88415409
0.87957197
0.87407017
0.867494
0.85984384
0.85080803
0.84042497
0.82855412
0.81536477
0.80111788
0.78642081
0.77212045
0.7592029
0.74841717
0.74010137
0.73453508
0.7316876
0.73085416
0.73131967
0.73270104
0.73462465
0.73680232
0.73902278
0.74112566
0.74295018
0.74442892
0.74632837
0.74929697
0.75152985
0.75259693
0.75294775
0.75297097
0.75285126
0.75282198
0.75291568
0.75333741
0.75363737
0.75380791
0.64137128
0.75569245
0.83511415
0.89766432
0.893899
0.90189072
0.89410756
0.8966907
0.89185379
0.89116945
0.88730837
0.88437405
0.880088
0.87527044
0.86952159
0.86264115
0.85464196
0.8452123
0.83439605
0.8220818
0.80847474
0.79390823
0.7790789
0.76491999
0.75242113
0.74221945
0.73465659
0.73007344
0.72815681
0.72801413
0.72910409
0.73101635
0.73337532
0.73590025
0.73839112
0.74068986
0.7426264
0.74418242
0.7463505
0.74951466
0.75160246
0.75256052
0.75285541
0.75284977
0.75274061
0.7527222
0.75290765
0.75334756
0.75364338
0.75381145
0.64207163
0.75682151
0.83679318
0.89686807
0.89043611
0.89840646
0.89057922
0.89303824
0.8881636
0.88730436
0.88336304
0.88022323
0.87577422
0.87070957
0.86469632
0.85749414
0.84912539
0.83928298
0.82801794
0.81525275
0.8012357
0.78638347
0.77149034
0.75756302
0.74555281
0.73598358
0.72932121
0.72579172
0.72473168
0.7252824
0.7269981
0.72942612
0.73220392
0.73506089
0.73780852
0.74028619
0.74232153
0.74401984
0.74644831
0.74968723
0.7516497
0.75251748
0.75277238
0.75273204
0.75263356
0.75262173
0.75290266
0.75335919
0.75364995
0.75381516
0.64272738
0.75787876
0.83822936
0.89546516
0.88677907
0.89472088
0.88685469
0.88917574
0.88426487
0.88321995
0.87919305
0.87583759
0.87121156
0.86588554
0.85958819
0.85204519
0.84328593
0.83301219
0.82128412
0.8080635
0.79365068
0.77855801
0.76368169
0.75007605
0.73861123
0.72976915
0.72415472
0.72168226
0.72141039
0.72268148
0.7250088
0.72793436
0.73111285
0.73428606
0.73727652
0.73991308
0.74202732
0.74392624
0.74661165
0.74981953
0.75166462
0.75246026
0.75268532
0.75262182
0.75254079
0.75253927
0.75290164
0.75337203
0.75365699
0.753819
0.64337564
0.75888129
0.83937709
0.89345314
0.88293651
0.89083501
0.88293565
0.88510769
0.88016149
0.87891918
0.87479809
0.8712141
0.86639382
0.86079031
0.85418817
0.84628489
0.83711424
0.82639122
0.81418765
0.80051096
0.78572499
0.77045034
0.75568121
0.74248164
0.73161509
0.72365807
0.71919519
0.71770893
0.71822646
0.72022103
0.72314112
0.72654373
0.73010373
0.73357771
0.73679679
0.73957086
0.74173891
0.74386497
0.74682283
0.74993121
0.75165061
0.75238287
0.75258363
0.75251852
0.75246795
0.75247633
0.75290947
0.75338585
0.75366444
0.75382296
0.64395393
0.75986894
0.84020478
0.89084089
0.87892263
0.88676084
0.87882901
0.88083825
0.87585329
0.87439809
0.87017032
0.86634315
0.86131026
0.8554132
0.84848581
0.84020282
0.83060042
0.819411
0.80672163
0.79259336
0.77746741
0.76208323
0.74751689
0.73479839
0.72461306
0.71772144
0.71444531
0.71386576
0.71520479
0.71790808
0.72139847
0.72525574
0.72917798
0.73293844
0.73637036
0.73926167
0.74147482
0.74382606
0.74707288
0.75003363
0.75162131
0.7522876
0.75246633
0.75241626
0.75240748
0.75243793
0.75292745
0.75340043
0.75367229
0.753827
0.6444921
0.76088223
0.84066107
0.88765691
0.87474092
0.88249424
0.87452927
0.8763559
0.87132756
0.86964244
0.86529543
0.86121189
0.8559492
0.84974343
0.84247068
0.83378841
0.82373402
0.81206194
0.7988792
0.78431071
0.76889089
0.75348278
0.73921462
0.7270441
0.71768621
0.71201047
0.70987192
0.71018428
0.71235714
0.71574724
0.71978265
0.72407112
0.72833742
0.73237098
0.73599572
0.73898594
0.74128836
0.74383018
0.74734806
0.75012935
0.75158309
0.75217894
0.75233851
0.75231103
0.75233751
0.75241889
0.75295123
0.75341591
0.75368054
0.75383108
0.64496461
0.7619211
0.84066725
0.88389973
0.87036707
0.87801173
0.8700156
0.87163966
0.8665656
0.86463711
0.86016044
0.85580997
0.85030102
0.84377125
0.83613225
0.82703032
0.81650386
0.80433404
0.79065421
0.77566609
0.7600132
0.74467671
0.7307977
0.71925096
0.71091945
0.70654843
0.70545639
0.70669556
0.70969069
0.71374139
0.71829423
0.72299031
0.72758416
0.73187545
0.73566693
0.738738
0.74119214
0.7439084
0.74762484
0.75021213
0.7515332
0.75206271
0.75220816
0.75219922
0.75224563
0.75241103
0.75297816
0.75343228
0.75368911
0.7538352
0.6453277
0.76297423
0.84014863
0.87960372
0.86577271
0.87329061
0.86526977
0.86667538
0.86155618
0.85937472
0.8547584
0.85013052
0.84435736
0.83748656
0.82945893
0.81991606
0.80889768
0.79621674
0.78204147
0.76666629
0.7508565
0.73569239
0.7222871
0.71148705
0.70438212
0.70131474
0.70122108
0.70341631
0.70721019
0.71189155
0.71693277
0.72201385
0.726919
0.73144486
0.73537354
0.73851171
0.74114008
0.7440755
0.74787612
0.75027528
0.75146838
0.75194457
0.75208159
0.75208179
0.75214019
0.75240762
0.75300711
0.75344923
0.75369788
0.75383932
0.64552046
0.76403296
0.83905373
0.87494288
0.86094883
0.86832392
0.86028909
0.86146411
0.85629867
0.85385391
0.8490848
0.84416637
0.83810843
0.83087734
0.82243746
0.8124317
0.80090231
0.78769949
0.77303805
0.75732273
0.74144647
0.72655658
0.71370714
0.70384648
0.69811985
0.69627343
0.69720733
0.70035416
0.70491826
0.71019729
0.71569738
0.72114197
0.72633841
0.73106353
0.73510637
0.73832038
0.7411166
0.74432505
0.74808967
0.7503173
0.75139419
0.75182697
0.75196226
0.75197122
0.75204164
0.75240861
0.75303752
0.75346649
0.75370676
0.75384343
0.64549777
0.76509955
0.83736567
0.87040738
0.85591163
0.86312653
0.85508318
0.85601065
0.85079278
0.84806993
0.8431312
0.83790687
0.83154159
0.82392941
0.81505283
0.80456215
0.79250381
0.77877233
0.76364424
0.74765176
0.73181025
0.71729551
0.70510618
0.69641752
0.69213637
0.69142962
0.69343998
0.69751456
0.70281529
0.70865684
0.71458686
0.72037321
0.72583189
0.73071586
0.73487046
0.73819478
0.74113064
0.74462708
0.74827135
0.75033887
0.75131453
0.75171273
0.75185032
0.75188185
0.75196187
0.75241987
0.75306892
0.75348386
0.75371568
0.75384751
0.6453409
0.76616551
0.83507113
0.86543962
0.85066967
0.8577005
0.8496485
0.85030591
0.84502743
0.84201097
0.83688445
0.83133826
0.82464195
0.8166267
0.80728862
0.79629115
0.78368785
0.76942678
0.75386481
0.7376747
0.72197499
0.70793432
0.69656978
0.6892703
0.68639668
0.68682827
0.68992751
0.69490023
0.7008999
0.70726769
0.71359941
0.71970221
0.72538377
0.73040775
0.73469428
0.73813372
0.74119431
0.74495697
0.74842605
0.75034017
0.75123162
0.75160306
0.75174401
0.7518152
0.75192125
0.75244692
0.75310066
0.75350123
0.75372461
0.75385156
0.6450259
0.76718583
0.83216722
0.86013687
0.84519707
0.85202169
0.84396491
0.8443342
0.83898735
0.83566346
0.83032992
0.824445
0.81739272
0.80895141
0.79912693
0.78760148
0.77443995
0.75965666
0.7437095
0.72741685
0.71196861
0.69850385
0.688201
0.68244243
0.68088393
0.68250376
0.686677
0.69251132
0.69916901
0.70602672
0.71273153
0.71911839
0.72498358
0.73018105
0.73459325
0.73810347
0.74130423
0.74529743
0.74855832
0.75032515
0.75114612
0.75149554
0.75164177
0.75175128
0.75190427
0.75248536
0.75313235
0.75351853
0.75373356
0.75385556
0.64456057
0.76807148
0.82862842
0.85458624
0.83948178
0.84608059
0.83802105
0.83808505
0.83265993
0.82901339
0.82345157
0.81720966
0.80977527
0.80088409
0.79054848
0.77847476
0.76474613
0.74945941
0.73319341
0.71690549
0.70182155
0.68906857
0.68009288
0.67592209
0.67562585
0.67847511
0.68369143
0.69034555
0.69761849
0.70493033
0.71197657
0.71860757
0.72464455
0.73005575
0.73454251
0.73809425
0.74146599
0.74563205
0.74867152
0.75030021
0.75105786
0.75138808
0.7515411
0.75167394
0.7518989
0.75253101
0.75316382
0.7535358
0.75374251
0.75385951
0.64399181
0.76878615
0.82449065
0.8487476
0.83352021
0.83986855
0.8318079
0.831544
0.82602959
0.82204406
0.81623114
0.80961289
0.80176941
0.79240379
0.7815326
0.76889197
0.75459377
0.73883713
0.72233676
0.70616848
0.69156624
0.67973313
0.67231702
0.66967009
0.67067141
0.67475007
0.68097102
0.68839859
0.69624356
0.7039736
0.71132388
0.718159
0.72441315
0.72999457
0.73451721
0.73811821
0.74169009
0.74594128
0.74876442
0.75026713
0.75096641
0.75127889
0.75144038
0.75158313
0.75189934
0.75258048
0.75319518
0.75355303
0.75375146
0.75386341
0.64337732
0.76926865
0.81977493
0.84260813
0.82729478
0.83336566
0.82530831
0.82469362
0.81907798
0.81473753
0.80864898
0.801634
0.7933535
0.78348822
0.7720574
0.75883387
0.74397311
0.72779769
0.71116423
0.6952359
0.68124504
0.67061342
0.66489928
0.66368749
0.66605321
0.67133323
0.67851296
0.68666509
0.69503919
0.70314878
0.7107599
0.71778065
0.7242958
0.72996367
0.7345119
0.73819331
0.74198477
0.74620672
0.74883367
0.75022226
0.75087207
0.75117066
0.75134401
0.7514914
0.75190365
0.75263171
0.75322642
0.75357013
0.75376034
0.75386724
0.64276765
0.76941501
0.81449566
0.83615639
0.82079036
0.82655496
0.8185056
0.81751841
0.81178653
0.8070747
0.80068413
0.79325052
0.78450422
0.77411319
0.76209942
0.74828166
0.73287833
0.71635481
0.69970326
0.68414303
0.67094129
0.66180908
0.65781354
0.65802588
0.66178272
0.66822526
0.67631244
0.68513951
0.69399917
0.70244351
0.71027211
0.71751298
0.72423783
0.72995666
0.73453549
0.73832107
0.74233457
0.74642937
0.74888002
0.75016502
0.75077459
0.75106832
0.75126173
0.75142882
0.75191741
0.75268374
0.75325728
0.753587
0.75376913
0.75387101
0.64198539
0.76923881
0.80871179
0.82938922
0.81399971
0.81942327
0.81138356
0.81000099
0.80413505
0.79903461
0.79231377
0.78443796
0.77519572
0.76425208
0.75163372
0.73721791
0.72130886
0.7045281
0.68798384
0.67293168
0.66077652
0.65338477
0.65103631
0.65273167
0.6578673
0.66542368
0.67436371
0.68381627
0.69311396
0.70184142
0.70986039
0.71736901
0.7242137
0.72998245
0.73459452
0.73849926
0.74271053
0.74662431
0.74890666
0.75009702
0.75067343
0.75097191
0.75119534
0.75140419
0.75194708
0.7527356
0.75328755
0.75360356
0.75377778
0.75387468
0.64101535
0.76869705
0.80244565
0.82228696
0.80690481
0.81195186
0.8039217
0.80212089
0.79610149
0.79059445
0.78351278
0.77516877
0.76539914
0.75387561
0.74063458
0.7256282
0.70927038
0.69234233
0.67604139
0.66166293
0.65087577
0.6453549
0.64459074
0.64783343
0.65430885
0.66292351
0.67266045
0.68268719
0.69236748
0.70132682
0.7095537
0.71730004
0.72422531
0.73004333
0.73468798
0.73872235
0.74309764
0.74679687
0.7489175
0.75002173
0.75057131
0.75087918
0.75113238
0.75139673
0.75199036
0.75278663
0.75331717
0.75361979
0.75378628
0.75387824
0.63977759
0.76768976
0.79574102
0.81483566
0.79948085
0.80411918
0.79609929
0.79385757
0.78766241
0.78172862
0.77425218
0.76541137
0.75508195
0.74295225
0.72907693
0.71350313
0.69677563
0.67982632
0.66391933
0.65044327
0.64134798
0.63768792
0.6385376
0.64334047
0.65110607
0.66071844
0.67119462
0.68173673
0.69173771
0.70089768
0.70937512
0.71727383
0.72428189
0.73013684
0.73481665
0.73898617
0.74348377
0.74694972
0.74891566
0.74994373
0.75047216
0.75078831
0.75106204
0.75139872
0.75204459
0.75283627
0.75334617
0.75363574
0.75379467
0.75388174
0.63814941
0.76624117
0.78860321
0.80702574
0.79171293
0.79590646
0.78789557
0.78518812
0.77878945
0.77240557
0.76449728
0.75512923
0.74420806
0.73144875
0.71693773
0.70083967
0.68384453
0.66701431
0.651672
0.63941218
0.63225264
0.63037806
0.63292246
0.63925854
0.64825441
0.65880061
0.66995264
0.68093921
0.69120551
0.70058177
0.70929225
0.71728838
0.72437958
0.73026184
0.73498266
0.73929137
0.74385599
0.74708286
0.74890337
0.74986488
0.75037663
0.75069957
0.7509873
0.75140576
0.75210626
0.75288425
0.75337458
0.75365147
0.75380296
0.75388519
0.63604318
0.76435555
0.78100666
0.79884407
0.78358914
0.78729148
0.77928362
0.77608077
0.7694458
0.76258674
0.75420792
0.7442816
0.73273833
0.71933152
0.70419806
0.68764242
0.67050371
0.65395052
0.63938454
0.62870644
0.62358995
0.62347607
0.62776746
0.63558785
0.64574685
0.65715849
0.6689119
0.68026759
0.69077534
0.70040044
0.70926219
0.71735306
0.72451549
0.73041778
0.73519037
0.73964358
0.74419864
0.74719376
0.74888042
0.74978328
0.75028549
0.75062265
0.75092777
0.75141811
0.75217183
0.7529307
0.75340217
0.75366705
0.75381112
0.75388857
0.63344025
0.76186236
0.7729758
0.79024908
0.77507601
0.77823214
0.7702227
0.76649485
0.7595878
0.75222836
0.74334006
0.73282434
0.72063182
0.70656865
0.6908455
0.67392448
0.65678607
0.64069165
0.62719173
0.61843786
0.61533085
0.6170489
0.62308243
0.63232485
0.64357307
0.65577294
0.66804297
0.67971693
0.69048981
0.70032056
0.70927404
0.71746439
0.72468623
0.73060511
0.73544391
0.740047
0.74449655
0.74727855
0.74884358
0.74969809
0.75020087
0.75056522
0.75089891
0.75144035
0.75223881
0.75297585
0.75342864
0.75368244
0.75381914
0.75389186
0.63029741
0.75883373
0.76446959
0.78119018
0.76612571
0.76868493
0.76066415
0.75638737
0.74916858
0.74128281
0.73184594
0.72071025
0.70784679
0.69313201
0.67687587
0.65970778
0.6427333
0.6273111
0.61525531
0.60865182
0.60749745
0.61114047
0.61887075
0.62946181
0.6417175
0.65461556
0.66732471
0.67932362
0.69035322
0.70029712
0.70933587
0.71761896
0.72488897
0.73082452
0.73574372
0.74048533
0.74474979
0.74733741
0.74879471
0.7496135
0.75012598
0.75052321
0.75089108
0.75147492
0.75230705
0.75301976
0.75345402
0.75369734
0.75382701
0.75389509
0.62659171
0.75526069
0.75548137
0.77163158
0.75670193
0.75860657
0.75056101
0.74571156
0.73813789
0.72969789
0.71967391
0.70789011
0.69434297
0.67899992
0.66229454
0.64502316
0.62840307
0.61392894
0.60372605
0.59933325
0.60016986
0.60576554
0.61513059
0.62698628
0.64015684
0.65365578
0.66676769
0.67910455
0.6903008
0.70031922
0.70944722
0.71781221
0.72512116
0.73107633
0.7360854
0.74093175
0.74496907
0.74737478
0.74873998
0.74953453
0.75005993
0.75048566
0.75089408
0.75152061
0.75237642
0.75306245
0.75347856
0.75371145
0.75383469
0.75389825
0.62229054
0.75099821
0.74597436
0.76151569
0.74675134
0.74795123
0.73985911
0.73441498
0.72643936
0.717416
0.70676877
0.69431375
0.68008322
0.66415878
0.64711701
0.6299115
0.61387216
0.60071403
0.59270404
0.59048269
0.59341128
0.60093386
0.61185442
0.62487921
0.6388605
0.65288012
0.66640899
0.67901114
0.69030244
0.7003935
0.70960358
0.71803995
0.72538069
0.73136034
0.73646256
0.74137037
0.7451586
0.74739694
0.74868515
0.74946228
0.74999733
0.75044252
0.75090264
0.75157623
0.75244456
0.75310398
0.75350229
0.75372477
0.7538421
0.75390134
0.61736603
0.74599176
0.73592595
0.75079763
0.73622496
0.73667062
0.72849983
0.7224366
0.71401011
0.70437509
0.69307323
0.6799317
0.66503543
0.64860441
0.63136961
0.61442915
0.59924794
0.58784887
0.58221768
0.58216298
0.58725801
0.59664612
0.60902819
0.62311367
0.63779736
0.65231322
0.6662358
0.67899341
0.69036044
0.70051884
0.70980006
0.7182981
0.72566594
0.73167679
0.73687003
0.74178857
0.74532066
0.74740751
0.74863158
0.74939474
0.749936
0.75039374
0.75091543
0.75164058
0.75251024
0.75314435
0.75352519
0.75373749
0.75384916
0.75390432
0.61183338
0.74014619
0.72530325
0.73941314
0.72505862
0.7246962
0.71641052
0.70970815
0.70078452
0.69051192
0.67852974
0.66469678
0.6491746
0.63234366
0.61509111
0.59865648
0.5846978
0.57549179
0.57225262
0.57446495
0.58172597
0.59289646
0.60662994
0.62165656
0.63695371
0.65197438
0.66617657
0.67904393
0.69047902
0.7006891
0.71003173
0.71858305
0.72597601
0.73202718
0.73730742
0.7421733
0.74545536
0.74740666
0.7485776
0.7493302
0.74988139
0.75035602
0.75093669
0.75171233
0.75257409
0.75318347
0.75354724
0.75374967
0.7538558
0.75390719
0.60570073
0.73330052
0.71404797
0.72727763
0.71317231
0.71195921
0.70351844
0.6961636
0.68669865
0.67576236
0.66307914
0.64856438
0.63248473
0.61539656
0.59833816
0.5827043
0.57043144
0.56371689
0.56285386
0.56745024
0.5768213
0.58967007
0.60462879
0.62047472
0.63635579
0.6518188
0.6662014
0.67916692
0.69064955
0.70089879
0.71029375
0.71889173
0.72631081
0.73241329
0.73777576
0.7425107
0.745564
0.74739699
0.74852472
0.74927024
0.74983607
0.75034184
0.7509691
0.75178904
0.75263636
0.75322134
0.75356844
0.75376132
0.753862
0.7539099
0.59895326
0.72518877
0.70211597
0.71432548
0.70049327
0.69840168
0.6897587
0.68173674
0.67168477
0.66005532
0.64665785
0.63149346
0.61496131
0.59779955
0.58119603
0.56673987
0.55664791
0.55252868
0.55413419
0.56114379
0.57254016
0.58694197
0.60298823
0.61955148
0.63601462
0.65178249
0.66631312
0.67935468
0.69086573
0.701142
0.7105815
0.71922168
0.7266708
0.73283342
0.7382626
0.74279853
0.74565222
0.74738494
0.74847677
0.74921611
0.7497957
0.7503414
0.75101127
0.75186823
0.75269709
0.75325783
0.75358872
0.75377235
0.75386771
0.7539125
0.5916315
0.7156414
0.68946352
0.70051385
0.68696439
0.68396841
0.67506094
0.66634704
0.65565884
0.64330763
0.62919883
0.61345108
0.59661628
0.5796117
0.56378697
0.55098824
0.54347591
0.54196832
0.54617846
0.55556031
0.56886703
0.58467589
0.60167309
0.61891053
0.63586721
0.65184804
0.66650796
0.67959853
0.69112034
0.70141324
0.71089059
0.71957094
0.72705647
0.73328173
0.73874289
0.74304968
0.7457276
0.74737457
0.74843257
0.74916397
0.74975954