/*--------------------------------*- C++ -*----------------------------------*\
  =========                 |
  \\      /  F ield         | OpenFOAM: The Open Source CFD Toolbox
   \\    /   O peration     | Website:  https://openfoam.org
    \\  /    A nd           | Version:  8
     \\/     M anipulation  |
\*---------------------------------------------------------------------------*/
FoamFile
{
    version     2.0;
    format      ascii;
    class       surfaceScalarField;
    location    "0.0499991";
    object      meshPhi;
}
// * * * * * * * * * * * * * * * * * * * * * * * * * * * * * * * * * * * * * //

dimensions      [0 3 -1 0 0 0 0];

internalField   nonuniform List<scalar> 
39600
(
-3.8252515e-05
-2.5197518e-06
2.6176806e-06
-3.8351047e-05
-3.006695e-06
3.0764028e-06
-3.8471572e-05
-3.6030567e-06
3.6857466e-06
-3.8615004e-05
-4.3168269e-06
4.4162051e-06
-3.877566e-05
-5.1718092e-06
5.291336e-06
-3.8957645e-05
-6.1959859e-06
6.3397099e-06
-3.9158512e-05
-7.422645e-06
7.5954011e-06
-3.9386964e-05
-8.8914779e-06
9.099087e-06
-3.9655853e-05
-1.0649911e-05
1.0899293e-05
-3.9980058e-05
-1.2754312e-05
1.3053752e-05
-4.0383556e-05
-1.5271533e-05
1.5631134e-05
-4.0891232e-05
-1.8280644e-05
1.871279e-05
-4.1546549e-05
-2.1875057e-05
2.2394942e-05
-4.2393941e-05
-2.6164544e-05
2.6791054e-05
-4.348697e-05
-3.1277784e-05
3.2034186e-05
-4.4906251e-05
-3.736424e-05
3.8280213e-05
-4.6878005e-05
-4.4596263e-05
4.5710638e-05
-4.9695284e-05
-5.3168267e-05
5.4529067e-05
-5.3585548e-05
-6.3289962e-05
6.4959981e-05
-5.8833371e-05
-7.5172402e-05
7.7235254e-05
-6.5887353e-05
-8.898489e-05
9.155254e-05
-7.5229395e-05
-0.00010486657
0.0001080947
-8.7056041e-05
-0.00012286222
0.00012694125
-0.00010067314
-0.00014304376
0.00014819592
-0.00011746978
-0.00016534885
0.00017184653
-0.00013431727
-0.00019018672
0.00019841353
-0.00015593745
-0.00021763846
0.00022804794
-0.00018864323
-0.00024614
0.00025948021
-0.00023293704
-0.00027365441
0.00029108883
-0.00028361179
-0.00030062863
0.00032347457
-0.00034287787
-0.00032844838
0.00035804344
-0.00041066819
-0.0003553729
0.00039325069
-0.00048472433
-0.00038145036
0.00042921526
-0.00057317366
-0.00040044545
0.00045975482
-0.00066658475
-0.00040890753
0.00048150975
-0.00076788209
-0.00040948392
0.00049684385
-0.00087539545
-0.00040068857
0.0005038734
-0.00099480482
-0.00038864452
0.00050979063
-0.0011257908
-0.0003798269
0.00052143757
-0.0012780143
-0.00036163215
0.00052546035
-0.0014319579
-0.00032933377
0.00051625907
-0.0015995831
-0.00027820304
0.00048757748
-0.0017480052
-0.00019260805
0.00042118749
-0.0018622196
-6.1028111e-05
0.00030161439
-0.0019030153
0.00015184291
8.8549006e-05
-0.0018318869
0.00047709703
-0.00026311969
-0.0018572174
0.00080883853
-0.0006246346
-0.0016957618
0.0011204344
-0.00096104229
-0.001292994
0.0016371777
-0.0015406987
0.0010791302
-0.0010651947
-3.0671586e-05
-2.4726742e-06
-3.0708333e-05
-2.9501446e-06
-3.0743368e-05
-3.5344556e-06
-3.0784564e-05
-4.2344536e-06
-3.0841398e-05
-5.0730327e-06
-3.0922066e-05
-6.0773837e-06
-3.1039806e-05
-7.2802864e-06
-3.1201826e-05
-8.7205184e-06
-3.1426036e-05
-1.0444542e-05
-3.1722448e-05
-1.2507364e-05
-3.2111503e-05
-1.4974356e-05
-3.2612666e-05
-1.7922747e-05
-3.3252248e-05
-2.1443789e-05
-3.4065048e-05
-2.5644317e-05
-3.5070541e-05
-3.0649699e-05
-3.6364873e-05
-3.6603408e-05
-3.8173892e-05
-4.3668386e-05
-4.0771681e-05
-5.2027889e-05
-4.4388024e-05
-6.1881095e-05
-4.9271266e-05
-7.3421282e-05
-5.5835736e-05
-8.6795288e-05
-6.4533394e-05
-0.00010210392
-7.5562468e-05
-0.00011936241
-8.8400746e-05
-0.0001386079
-0.0001043472
-0.00015971865
-0.0001211043
-0.00018295113
-0.00014272823
-0.00020828358
-0.00017555752
-0.00023391352
-0.00021979635
-0.00025737761
-0.00027020996
-0.00027906553
-0.00032900523
-0.00030020812
-0.00039636544
-0.00031899143
-0.00047052913
-0.00033516191
-0.00055907212
-0.00034243987
-0.0006532791
-0.00033747093
-0.00075527879
-0.00032313653
-0.00086389684
-0.00029837106
-0.00098474559
-0.00026840066
-0.0011175211
-0.00023846132
-0.0012709753
-0.00019712808
-0.0014271049
-0.00014103511
-0.0015947942
-6.6430729e-05
-0.0017445492
3.8729437e-05
-0.0018619107
0.00018266531
-0.0019088159
0.00039618336
-0.0018567644
0.00069710869
-0.0018803963
0.0009972223
-0.0017084947
0.0012840035
-0.0013010179
0.0017354792
0.0010923126
-2.3588727e-05
-2.4346503e-06
-2.3520161e-05
-2.9045118e-06
-2.3450184e-05
-3.4796987e-06
-2.3405585e-05
-4.1687479e-06
-2.3397683e-05
-4.994174e-06
-2.3429392e-05
-5.9827768e-06
-2.3507751e-05
-7.1667086e-06
-2.3637858e-05
-8.5841437e-06
-2.3833866e-05
-1.0280655e-05
-2.4102262e-05
-1.2310356e-05
-2.4464783e-05
-1.4737337e-05
-2.4932474e-05
-1.7637605e-05
-2.5529946e-05
-2.1100365e-05
-2.626948e-05
-2.5230535e-05
-2.7169447e-05
-3.0150777e-05
-2.8339701e-05
-3.5998509e-05
-2.9973606e-05
-4.2928825e-05
-3.2323608e-05
-5.1115957e-05
-3.5600179e-05
-6.0749324e-05
-4.0035394e-05
-7.2008408e-05
-4.6018603e-05
-8.5019976e-05
-5.3964325e-05
-9.985324e-05
-6.4093224e-05
-0.00011649184
-7.6099048e-05
-0.00013493478
-9.1166977e-05
-0.00015498402
-0.00010777767
-0.00017674105
-0.00012939076
-0.00020008412
-0.00016220986
-0.00022292467
-0.0002062323
-0.00024243953
-0.00025626054
-0.00025899974
-0.00031459874
-0.00027363722
-0.000381366
-0.00028444529
-0.00045569385
-0.00029084268
-0.00054417967
-0.0002864734
-0.00063928488
-0.00026802479
-0.00074186462
-0.00023865294
-0.0008517872
-0.00019764385
-0.00097399663
-0.00014934133
-0.0011089401
-9.7870875e-05
-0.0012636128
-3.2960164e-05
-0.0014220048
4.741533e-05
-0.0015898632
0.00014588278
-0.0017406198
0.00027107382
-0.0018619096
0.00042840763
-0.0019141926
0.00064403357
-0.0018818888
0.00092515671
-0.0019032596
0.0011978682
-0.0017206545
0.0014571475
-0.0013076937
0.0018418524
0.0011117062
-1.7037574e-05
-2.4058637e-06
-1.6971548e-05
-2.8701003e-06
-1.6904028e-05
-3.438531e-06
-1.6853926e-05
-4.1194831e-06
-1.6825948e-05
-4.9351719e-06
-1.6825539e-05
-5.9120625e-06
-1.6855115e-05
-7.0818216e-06
-1.692835e-05
-8.4821851e-06
-1.7056827e-05
-1.0158088e-05
-1.7255257e-05
-1.2162884e-05
-1.7542004e-05
-1.4559795e-05
-1.7926258e-05
-1.7423794e-05
-1.8434231e-05
-2.0842578e-05
-1.9062566e-05
-2.4919807e-05
-1.9846425e-05
-2.977543e-05
-2.0880967e-05
-3.554259e-05
-2.2345236e-05
-4.2369163e-05
-2.445203e-05
-5.0421629e-05
-2.737205e-05
-5.9882663e-05
-3.1350337e-05
-7.0919484e-05
-3.674516e-05
-8.3641214e-05
-4.3947453e-05
-9.8090654e-05
-5.3215901e-05
-0.00011421924
-6.4403853e-05
-0.00013198424
-7.8676057e-05
-0.00015110156
-9.5029547e-05
-0.00017152467
-0.00011655827
-0.00019301106
-0.00014929504
-0.00021315073
-0.00019290551
-0.00022885145
-0.00024247023
-0.00024046964
-0.00030026823
-0.00024880256
-0.0003664243
-0.00025182259
-0.00044075165
-0.00024861916
-0.00052910889
-0.00023272527
-0.00062496081
-0.0002008043
-0.0007280703
-0.00015631973
-0.00083921991
-9.8844872e-05
-0.00096276018
-3.1845889e-05
-0.0010997612
4.1495497e-05
-0.0012556526
0.00013034059
-0.0014162609
0.0002354579
-0.001584686
0.00035823653
-0.0017369783
0.00050420485
-0.0018622132
0.00067618475
-0.0019201343
0.00089548337
-0.0019058923
0.0011607505
-0.0019242622
0.0014093169
-0.0017336031
0.0016390925
-0.0013138747
0.0019559358
0.0011365214
-1.0974302e-05
-2.3859846e-06
-1.0986011e-05
-2.8461388e-06
-1.0983316e-05
-3.4097091e-06
-1.0967434e-05
-4.0848741e-06
-1.0941223e-05
-4.8936152e-06
-1.0917154e-05
-5.8622315e-06
-1.0901993e-05
-7.0221139e-06
-1.0915181e-05
-8.4106597e-06
-1.0967386e-05
-1.0072384e-05
-1.1079508e-05
-1.2060208e-05
-1.1265798e-05
-1.4436653e-05
-1.1540709e-05
-1.727595e-05
-1.1928741e-05
-2.0664813e-05
-1.2431926e-05
-2.4705561e-05
-1.3084486e-05
-2.9516514e-05
-1.3979708e-05
-3.5226956e-05
-1.5271009e-05
-4.1979086e-05
-1.7117682e-05
-4.9934099e-05
-1.9684512e-05
-5.9267718e-05
-2.3212055e-05
-7.0136484e-05
-2.8030829e-05
-8.2636571e-05
-3.4519007e-05
-9.6788024e-05
-4.2972102e-05
-0.00011251095
-5.3364157e-05
-0.00012972045
-6.6878277e-05
-0.00014803998
-8.2845599e-05
-0.00016727779
-0.00010422815
-0.00018704547
-0.00013684567
-0.00020458443
-0.0001798968
-0.00021661018
-0.00022892875
-0.00022348012
-0.00028611831
-0.00022570606
-0.00035163914
-0.00022113684
-0.00042582658
-0.00020851263
-0.00051398424
-0.00018123241
-0.00061044448
-0.0001358791
-0.00071402785
-7.6231359e-05
-0.0008263303
-2.113552e-06
-0.0009511631
8.3889613e-05
-0.0010901278
0.00017946403
-0.001247225
0.00029264142
-0.0014100235
0.00042296133
-0.0015794178
0.00057059043
-0.0017337823
0.0007381335
-0.0018629448
0.00092601357
-0.0019267095
0.0011505522
-0.001928786
0.001403644
-0.0019438134
0.0016307342
-0.0017467635
0.0018289815
-0.001319935
0.0020767237
0.0011660066
-5.1966052e-06
-2.3748194e-06
-5.1922238e-06
-2.8328207e-06
-5.1732414e-06
-3.3938904e-06
-5.1465422e-06
-4.0660402e-06
-5.1169624e-06
-4.8711236e-06
-5.0948733e-06
-5.8352698e-06
-5.0847539e-06
-6.9897093e-06
-5.0993461e-06
-8.3716102e-06
-5.1434632e-06
-1.0025259e-05
-5.2314711e-06
-1.2003307e-05
-5.3731922e-06
-1.4367915e-05
-5.5808334e-06
-1.719295e-05
-5.8790281e-06
-2.0564494e-05
-6.2755458e-06
-2.4584073e-05
-6.8117217e-06
-2.936871e-05
-7.5730473e-06
-3.5044984e-05
-8.6841112e-06
-4.1750883e-05
-1.0275782e-05
-4.9642596e-05
-1.250153e-05
-5.8890359e-05
-1.5592782e-05
-6.964298e-05
-1.9860964e-05
-8.198527e-05
-2.5675405e-05
-9.5916837e-05
-3.3360167e-05
-0.00011132965
-4.2985777e-05
-0.00012809562
-5.5745421e-05
-0.00014575143
-7.1225717e-05
-0.00016397128
-9.2424437e-05
-0.00018216648
-0.00012488878
-0.00019720344
-0.00016728647
-0.00020570328
-0.0002157295
-0.00020802486
-0.00027226099
-0.00020435793
-0.00033712076
-0.00019241194
-0.00041105932
-0.00017057881
-0.00049895144
-0.00013208765
-0.00059590311
-7.3380906e-05
-0.00069990516
1.4407161e-06
-0.00081329069
9.2341053e-05
-0.00093937189
0.00019761233
-0.0010802223
0.000315696
-0.0012385135
0.00045351281
-0.0014034836
0.0006094568
-0.0015741924
0.00078251024
-0.0017310651
0.00097260231
-0.0018641538
0.0011777096
-0.0019338889
0.00140911
-0.0019505126
0.001653299
-0.0019621475
0.0018610937
-0.0017598392
0.0020262873
-0.0013262304
0.0022040456
0.0011997547
2.0602917e-07
-2.3718932e-06
2.1367905e-07
-2.8290998e-06
2.319531e-07
-3.389279e-06
2.5452116e-07
-4.0603424e-06
2.7620861e-07
-4.8641554e-06
2.9010943e-07
-5.8268118e-06
2.9492853e-07
-6.9795179e-06
2.8252321e-07
-8.3594211e-06
2.5235542e-07
-1.0010785e-05
1.9341448e-07
-1.1986224e-05
9.8642782e-08
-1.4347776e-05
-4.348483e-08
-1.7169171e-05
-2.5689604e-07
-2.0536182e-05
-5.5304228e-07
-2.4549817e-05
-9.7586664e-07
-2.9326294e-05
-1.6038758e-06
-3.4990178e-05
-2.5368288e-06
-4.167625e-05
-3.8816823e-06
-4.9537133e-05
-5.7809188e-06
-5.8738742e-05
-8.4556117e-06
-6.9424173e-05
-1.2204768e-05
-8.1668489e-05
-1.7391137e-05
-9.545415e-05
-2.4357437e-05
-0.00011064756
-3.3248314e-05
-0.00012708011
-4.5247407e-05
-0.00014420912
-6.0166828e-05
-0.00016157848
-8.116158e-05
-0.00017834652
-0.00011344045
-0.00019098033
-0.00015512026
-0.00019609298
-0.00020292904
-0.00019405853
-0.00025876447
-0.00018470194
-0.00032294105
-0.00016559106
-0.00039653963
-0.00013475517
-0.00048411116
-8.5229465e-05
-0.00058144878
-1.3260622e-05
-0.00068581613
7.6731253e-05
-0.00080021669
0.00018452734
-0.00092749932
0.00030929937
-0.0010701645
0.00045019491
-0.0012296397
0.00061300285
-0.0013967645
0.0007949999
-0.0015690758
0.00099409677
-0.0017288293
0.001207692
-0.0018658508
0.0014313244
-0.0019416443
0.0016711751
-0.0019712026
0.0019094137
-0.0019796023
0.0020996538
-0.0017727377
0.0022303463
-0.0013329541
0.0023373204
0.0012374084
5.2451265e-06
-2.3770945e-06
5.2330478e-06
-2.8352381e-06
5.2222255e-06
-3.3965723e-06
5.2165023e-06
-4.0689402e-06
5.2164184e-06
-4.8742769e-06
5.2207356e-06
-5.8387744e-06
5.2301828e-06
-6.9937255e-06
5.2375732e-06
-8.3764183e-06
5.241621e-06
-1.0031221e-05
5.2300771e-06
-1.2010855e-05
5.1951779e-06
-1.4377496e-05
5.1237717e-06
-1.720495e-05
4.9928267e-06
-2.0579e-05
4.7896171e-06
-2.4600605e-05
4.4726685e-06
-2.9385501e-05
3.974252e-06
-3.505728e-05
3.2148331e-06
-4.1748692e-05
2.1068713e-06
-4.9609702e-05
5.2019173e-07
-5.8803596e-05
-1.7599005e-06
-6.9469429e-05
-5.0232664e-06
-8.1673082e-05
-9.6279186e-06
-9.5381468e-05
-1.5925682e-05
-0.00011043914
-2.4118777e-05
-0.00012663834
-3.5364015e-05
-0.00014337055
-4.9678385e-05
-0.00016005085
-7.0452655e-05
-0.00017552032
-0.00010251453
-0.00018585452
-0.00014343307
-0.00018773768
-0.00019057419
-0.00018154182
-0.00024568958
-0.00016670442
-0.00030916605
-0.00014064318
-0.00038235597
-0.00010102709
-0.00046955996
-4.0663838e-05
-0.00056719529
4.4450944e-05
-0.00067188106
0.0001495825
-0.00078723703
0.00027436125
-0.00091567548
0.00041883314
-0.0010600984
0.00058277991
-0.0012207535
0.00077086335
-0.0013900197
0.00097931445
-0.0015641577
0.0012050771
-0.001727068
0.0014432153
-0.0018680403
0.0016866943
-0.0019499317
0.0019366206
-0.0019909829
0.002171578
-0.0019963819
0.0023458247
-0.0017854514
0.0024409621
-0.0013401952
0.0024766071
0.001278871
9.9709319e-06
-2.3900654e-06
9.9638603e-06
-2.8506826e-06
9.9576722e-06
-3.4150775e-06
9.9579442e-06
-4.0912012e-06
9.9671817e-06
-4.9010942e-06
9.984571e-06
-5.8710759e-06
1.0009914e-05
-7.0326085e-06
1.003636e-05
-8.423148e-06
1.0061666e-05
-1.0087208e-05
1.0074881e-05
-1.2077838e-05
1.0069598e-05
-1.445741e-05
1.0035108e-05
-1.7300079e-05
9.9531107e-06
-2.0691956e-05
9.8139875e-06
-2.4734295e-05
9.5838185e-06
-2.9543384e-05
9.2055629e-06
-3.5242654e-05
8.6137727e-06
-4.1963782e-05
7.7339135e-06
-4.9855282e-05
6.4440759e-06
-5.9079074e-05
4.5349782e-06
-6.9770295e-05
1.7225554e-06
-8.1987821e-05
-2.3460272e-06
-9.5684353e-05
-8.0256262e-06
-0.00011068572
-1.5566624e-05
-0.00012674759
-2.607313e-05
-0.00014320866
-3.975457e-05
-0.00015935202
-6.0290818e-05
-0.00017364955
-9.2106451e-05
-0.00018178432
-0.00013223716
-0.00018058221
-0.00017868711
-0.00017041156
-0.00023306645
-0.00015028786
-0.00029583086
-0.00011748284
-0.00036855563
-6.9296385e-05
-0.00045535533
1.7157853e-06
-0.00055321187
9.9859021e-05
-0.00065817337
0.00022009501
-0.0007744283
0.00036192819
-0.00090398055
0.00052628566
-0.0010501107
0.00071355801
-0.0012119438
0.0009272483
-0.0013833389
0.0011625661
-0.0015594786
0.0014156364
-0.0017257649
0.0016793097
-0.0018707037
0.0019439252
-0.0019587149
0.0022055039
-0.0020100294
0.0024395878
-0.0020126541
0.0025990589
-0.0017979883
0.0026576484
-0.0013479301
0.0026214903
0.001323908
1.4400543e-05
-2.4107132e-06
1.4425723e-05
-2.8755233e-06
1.4459927e-05
-3.4451312e-06
1.449978e-05
-4.1275764e-06
1.4542832e-05
-4.9450133e-06
1.4584898e-05
-5.9238943e-06
1.4624835e-05
-7.0959387e-06
1.4657355e-05
-8.498824e-06
1.4682177e-05
-1.0177449e-05
1.4693025e-05
-1.2185076e-05
1.468828e-05
-1.4584738e-05
1.4663763e-05
-1.7451014e-05
1.4608975e-05
-2.0870989e-05
1.4521914e-05
-2.494684e-05
1.4376371e-05
-2.9796063e-05
1.4125464e-05
-3.554326e-05
1.3703233e-05
-4.2319026e-05
1.3039553e-05
-5.0270675e-05
1.2027854e-05
-5.9560809e-05
1.0464492e-05
-7.0322282e-05
8.069298e-06
-8.2606949e-05
4.4919033e-06
-9.6353586e-05
-6.1706121e-07
-0.00011137308
-7.5568107e-06
-0.00012738432
-1.7355203e-05
-0.00014368123
-3.040771e-05
-0.00015942508
-5.0691522e-05
-0.00017266225
-8.2212794e-05
-0.00017870187
-0.00012154011
-0.00017457773
-0.00016728217
-0.00016061795
-0.0002209176
-0.00013540407
-0.00028296148
-9.6060017e-05
-0.00035517977
-3.9523168e-05
-0.00044154316
4.1935866e-05
-0.00053955439
0.00015297156
-0.00064475157
0.00028825283
-0.00076185246
0.0004471897
-0.00089247628
0.00063157965
-0.0010402661
0.00084236965
-0.0012032781
0.0010819187
-0.0013767875
0.0013444777
-0.001555054
0.0016254608
-0.001724857
0.0019156615
-0.0018737822
0.0022026777
-0.0019679026
0.0024775179
-0.0020284069
0.0027129875
-0.0020284756
0.0028589549
-0.0018103485
0.0028803339
-0.0013561043
0.0027720459
0.0013724995
1.8512723e-05
-2.43851e-06
1.854208e-05
-2.9084332e-06
1.8579249e-05
-3.4842671e-06
1.8620968e-05
-4.1740852e-06
1.8664883e-05
-5.0002837e-06
1.8708228e-05
-5.9898472e-06
1.8750607e-05
-7.17469e-06
1.8788728e-05
-8.5931197e-06
1.8823741e-05
-1.0290544e-05
1.8851542e-05
-1.2321007e-05
1.8873487e-05
-1.4748068e-05
1.8888798e-05
-1.7647591e-05
1.8894465e-05
-2.1107558e-05
1.8892644e-05
-2.5231884e-05
1.8868783e-05
-3.0140433e-05
1.8763322e-05
-3.5957305e-05
1.8507081e-05
-4.2811873e-05
1.8050457e-05
-5.0852659e-05
1.7298098e-05
-6.0244653e-05
1.6056647e-05
-7.1119387e-05
1.4048785e-05
-8.3523083e-05
1.0919695e-05
-9.7379046e-05
6.3371037e-06
-0.00011248746
-5.7554274e-08
-0.00012852895
-9.1993428e-06
-0.00014476067
-2.1652554e-05
-0.0001602324
-4.1670509e-05
-0.00017251634
-7.2832922e-05
-0.00017655942
-0.00011134103
-0.0001696636
-0.00015636318
-0.00015209057
-0.00020925193
-0.00012196737
-0.00027057104
-7.6278428e-05
-0.0003422483
-1.1594354e-05
-0.00042815194
8.0121237e-05
-0.00052625686
0.00020391796
-0.00063165532
0.00035418652
-0.00074954932
0.00053026775
-0.00088120455
0.00073483298
-0.0010306047
0.00096936758
-0.0011948003
0.0012350726
-0.0013704061
0.0015252599
-0.0015508882
0.0018347673
-0.0017243018
0.0021524371
-0.0018772291
0.0024630859
-0.0019774356
0.0027527416
-0.0020462167
0.0029916693
-0.0020439655
0.0031251255
-0.0018225641
0.0031086326
-0.0013646484
0.0029279421
0.0014244621
2.23262e-05
-2.4734764e-06
2.2334476e-05
-2.9501414e-06
2.233989e-05
-3.5340398e-06
2.2347359e-05
-4.2333735e-06
2.2359714e-05
-5.0708633e-06
2.2379818e-05
-6.0737271e-06
2.2410315e-05
-7.2745657e-06
2.245083e-05
-8.712159e-06
2.2504057e-05
-1.043266e-05
2.2568326e-05
-1.2491128e-05
2.2646229e-05
-1.495228e-05
2.2738818e-05
-1.7893526e-05
2.2844226e-05
-2.1404702e-05
2.2969355e-05
-2.559254e-05
2.308375e-05
-3.0577157e-05
2.3113583e-05
-3.6481425e-05
2.3005401e-05
-4.3436463e-05
2.2745717e-05
-5.1594355e-05
2.2257026e-05
-6.1124337e-05
2.132962e-05
-7.2157031e-05
1.9684693e-05
-8.4730047e-05
1.6967877e-05
-9.8753564e-05
1.2870621e-05
-0.00011401974
6.9672752e-06
-0.0001301657
-1.5713794e-06
-0.00014641739
-1.3471613e-05
-0.00016171147
-3.3217178e-05
-0.000173125
-6.3958586e-05
-0.00017528556
-0.00010163288
-0.00016578358
-0.00014592886
-0.00014477169
-0.00019807329
-0.00010991823
-0.00025866816
-5.8071903e-05
-0.00032978053
1.4552409e-05
-0.00041520601
0.00011633077
-0.00051335411
0.00025274584
-0.00061892325
0.00041792812
-0.00073756379
0.00061117626
-0.00087021334
0.00083602923
-0.0010211822
0.0010944769
-0.0011865675
0.0013865767
-0.0013642527
0.001704752
-0.0015470115
0.0020433575
-0.0017240836
0.0023894101
-0.0018810278
0.0027248841
-0.0019872777
0.0030309201
-0.0020635612
0.0032752556
-0.0020591902
0.0033972882
-0.0018346533
0.0033425331
-0.0013734982
0.0030892458
0.0014798058
2.5822324e-05
-2.5149379e-06
2.5772674e-05
-2.9985882e-06
2.5722962e-05
-3.5910684e-06
2.5692064e-05
-4.3008144e-06
2.5685093e-05
-5.1511111e-06
2.5702937e-05
-6.1698989e-06
2.5748054e-05
-7.3903132e-06
2.5818051e-05
-8.851808e-06
2.5915428e-05
-1.0601632e-05
2.6037349e-05
-1.2695551e-05
2.6187602e-05
-1.5199874e-05
2.636587e-05
-1.8193172e-05
2.6571798e-05
-2.1767557e-05
2.680466e-05
-2.6030924e-05
2.7013049e-05
-3.110322e-05
2.7134586e-05
-3.7109052e-05
2.7157527e-05
-4.418417e-05
2.7101923e-05
-5.2489104e-05
2.6892226e-05
-6.2195614e-05
2.6286292e-05
-7.342856e-05
2.4989904e-05
-8.6218871e-05
2.2658189e-05
-0.00010046505
1.900982e-05
-0.00011595577
1.3548125e-05
-0.00013227709
5.5657003e-06
-0.00014862646
-5.8369742e-06
-0.00016382946
-2.5311614e-05
-0.00017445222
-5.5572261e-05
-0.00017483459
-9.2403891e-05
-0.00016287985
-0.00013597171
-0.00013859362
-0.00018737806
-9.9173906e-05
-0.00024725148
-4.1346293e-05
-0.00031778154
3.9029277e-05
-0.00040271567
0.00015068879
-0.0005008632
0.00029958874
-0.0006065762
0.000479616
-0.00072591989
0.00069005181
-0.00085953104
0.00093531025
-0.0010120278
0.0012178787
-0.0011786087
0.0015366558
-0.0013583562
0.0018831928
-0.0015434299
0.0022514771
-0.0017241842
0.0026267897
-0.001885151
0.0029882578
-0.0019973997
0.003312182
-0.0020805204
0.003563735
-0.0020741866
0.0036751315
-0.0018466245
0.0035816424
-0.0013825652
0.0032555997
0.0015383216
2.9139686e-05
-2.5640196e-06
2.9111492e-05
-3.0583798e-06
2.9087121e-05
-3.6640546e-06
2.9082573e-05
-4.3895442e-06
2.9100037e-05
-5.258488e-06
2.9138568e-05
-6.2989399e-06
2.9200851e-05
-7.5446047e-06
2.9285636e-05
-9.0358128e-06
2.9398438e-05
-1.0820176e-05
2.9537903e-05
-1.2955103e-05
2.9711829e-05
-1.5507892e-05
2.9919033e-05
-1.8558994e-05
3.0163278e-05
-2.2202548e-05
3.0427452e-05
-2.6547731e-05
3.0669161e-05
-3.1716283e-05
3.0854873e-05
-3.7838382e-05
3.1004864e-05
-4.5056581e-05
3.1167378e-05
-5.3539209e-05
3.1237026e-05
-6.3458715e-05
3.0941037e-05
-7.4932565e-05
2.9975893e-05
-8.7984107e-05
2.8009876e-05
-0.00010250576
2.477897e-05
-0.00011828306
1.9725783e-05
-0.00013485092
1.2264371e-05
-0.00015137861
1.3027318e-06
-0.00016655802
-1.7907027e-05
-0.0001764512
-4.7645467e-05
-0.00017516393
-8.3636715e-05
-0.00016090749
-0.00012647799
-0.00013350572
-0.00017715506
-8.9681969e-05
-0.00023631162
-2.6045669e-05
-0.00030624762
6.1887464e-05
-0.0003906799
0.00018324245
-0.00048878844
0.00034448066
-0.00059461983
0.00053926507
-0.00071462492
0.00076688565
-0.00084916256
0.0010326222
-0.0010031465
0.0013394364
-0.0011709282
0.0016850978
-0.0013527172
0.0020603256
-0.0015401251
0.0024588076
-0.0017245534
0.0028641896
-0.0018895449
0.0032527532
-0.0020077301
0.003596069
-0.0020971159
0.0038565726
-0.0020889516
0.0039583421
-0.0018584817
0.0038259489
-0.0013917691
0.0034270227
0.0016000055
3.227314e-05
-2.6191062e-06
3.2321575e-05
-3.1242244e-06
3.2373244e-05
-3.7430981e-06
3.2430787e-05
-4.4846597e-06
3.2492953e-05
-5.3728333e-06
3.256262e-05
-6.4366338e-06
3.2642572e-05
-7.7104914e-06
3.2735284e-05
-9.2353868e-06
3.2848537e-05
-1.1060536e-05
3.2985032e-05
-1.3243818e-05
3.3153791e-05
-1.5854356e-05
3.3357014e-05
-1.8973584e-05
3.3596682e-05
-2.2697212e-05
3.3861027e-05
-2.7136406e-05
3.4122735e-05
-3.2417131e-05
3.4373675e-05
-3.8675227e-05
3.466279e-05
-4.6062473e-05
3.5029782e-05
-5.4754004e-05
3.5341454e-05
-6.4916316e-05
3.5316937e-05
-7.6662553e-05
3.4654992e-05
-9.001682e-05
3.3034068e-05
-0.00010486507
3.0196136e-05
-0.00012098762
2.5534057e-05
-0.00013787001
1.8563585e-05
-0.00015465374
7.98493e-06
-0.00016987614
-1.0970218e-05
-0.00017909779
-4.0160352e-05
-0.00017623333
-7.5315994e-05
-0.00015981025
-0.00011743456
-0.00012944144
-0.00016739244
-8.1361952e-05
-0.00022583884
-1.2076309e-05
-0.00029517248
8.3238929e-05
-0.00037909627
0.00021411778
-0.0004771302
0.00038755988
-0.00058305777
0.00059702262
-0.00070368128
0.00084182686
-0.00083911216
0.0011281246
-0.00099453828
0.0014593469
-0.0011635244
0.0018321378
-0.0013473305
0.0022364015
-0.0015370774
0.0026656064
-0.0017251528
0.0031018437
-0.0018941644
0.0035185854
-0.0020182188
0.0038827396
-0.0021133714
0.0041538389
-0.0021035213
0.0042467215
-0.0018702181
0.0040751163
-0.0014010493
0.003603187
0.001664652
3.5109272e-05
-2.6804496e-06
3.5169546e-05
-3.197498e-06
3.523849e-05
-3.8310356e-06
3.5318255e-05
-4.5900636e-06
3.5408318e-05
-5.4993181e-06
3.5511449e-05
-6.5885505e-06
3.5628699e-05
-7.8929315e-06
3.5762962e-05
-9.4547611e-06
3.591818e-05
-1.1324374e-05
3.6096998e-05
-1.3561125e-05
3.6304693e-05
-1.6236052e-05
3.6543183e-05
-1.9432053e-05
3.6813797e-05
-2.3247148e-05
3.7111455e-05
-2.7795233e-05
3.7425086e-05
-3.3205918e-05
3.7766501e-05
-3.9622221e-05
3.819734e-05
-4.7205061e-05
3.8730805e-05
-5.6129923e-05
3.922799e-05
-6.656027e-05
3.9432672e-05
-7.8611143e-05
3.9043791e-05
-9.2307429e-05
3.7742987e-05
-0.00010753248
3.5273676e-05
-0.00012405696
3.0996486e-05
-0.00014132104
2.4493216e-05
-0.00015844191
1.4247098e-05
-0.00017376576
-4.4686634e-06
-0.0001823563
-3.3098504e-05
-0.00017800035
-6.742532e-05
-0.00015954385
-0.00010882743
-0.00012635045
-0.00015807812
-7.4160388e-05
-0.0002158226
6.1983655e-07
-0.0002845503
0.00010314133
-0.00036796165
0.00024337257
-0.00046589185
0.00042887663
-0.00057189441
0.00065292519
-0.00069309853
0.00091489543
-0.00082938996
0.0012218037
-0.00098621724
0.001577538
-0.0011564116
0.0019776519
-0.0013422087
0.0024112616
-0.0015342912
0.0028716671
-0.0017259732
0.0033394874
-0.0018989939
0.0037854288
-0.0020288395
0.0041718527
-0.0021293257
0.0044550953
-0.0021178953
0.0045400075
-0.0018818203
0.0043291365
-0.0014103521
0.003784099
0.0017322615
3.7726259e-05
-2.7478778e-06
3.7794684e-05
-3.278133e-06
3.7874154e-05
-3.9276905e-06
3.7967248e-05
-4.7060199e-06
3.8074407e-05
-5.6384394e-06
3.8198729e-05
-6.7554962e-06
3.834202e-05
-8.0932524e-06
3.8507917e-05
-9.6954594e-06
3.8699967e-05
-1.1613309e-05
3.8921309e-05
-1.3908468e-05
3.9176198e-05
-1.6653378e-05
3.946672e-05
-1.9933693e-05
3.9796508e-05
-2.3849747e-05
4.0161545e-05
-2.8519797e-05
4.0560951e-05
-3.4077479e-05
4.1019956e-05
-4.0672471e-05
4.1584744e-05
-4.8472327e-05
4.2252777e-05
-5.7654408e-05
4.2902091e-05
-6.8380794e-05
4.3301286e-05
-8.0768213e-05
4.3159227e-05
-9.4845674e-05
4.2155304e-05
-0.00011049451
4.0030421e-05
-0.00012747678
3.6134155e-05
-0.00014519068
3.0084466e-05
-0.00016272369
2.0127911e-05
-0.00017820754
1.6310604e-06
-0.00018620516
-2.6434291e-05
-0.00018042758
-5.9945571e-05
-0.00016005682
-0.00010063965
-0.00012417088
-0.00014919641
-6.8001208e-05
-0.00020624854
1.2131388e-05
-0.00027436937
0.00012169991
-0.000357267
0.00027112583
-0.00045506809
0.00046856406
-0.00056112909
0.00070711875
-0.00068287753
0.00098624389
-0.00081999937
0.0013138292
-0.00097818874
0.0016942236
-0.0011495922
0.0021218899
-0.001337354
0.002585172
-0.0015317594
0.0030772653
-0.0017269994
0.0035773873
-0.0019040157
0.0040535433
-0.0020395735
0.0044636135
-0.0021450028
0.0047604757
-0.0021320654
0.0048380071
-0.0018932699
0.0045876313
-0.0014196072
0.003969398
0.0018026092
4.0135148e-05
-2.8213233e-06
4.0211131e-05
-3.3658936e-06
4.0299991e-05
-4.0328869e-06
4.0404413e-05
-4.8320564e-06
4.0525764e-05
-5.7897197e-06
4.0667309e-05
-6.9368016e-06
4.0831824e-05
-8.3109631e-06
4.1023055e-05
-9.9566629e-06
4.1245613e-05
-1.1927045e-05
4.1502937e-05
-1.4285175e-05
4.1801168e-05
-1.7105792e-05
4.2143918e-05
-2.0477317e-05
4.2537922e-05
-2.4503591e-05
4.2985292e-05
-2.9306597e-05
4.3491022e-05
-3.5025298e-05
4.4077341e-05
-4.1816522e-05
4.477652e-05
-4.9854496e-05
4.5573045e-05
-5.931778e-05
4.6357906e-05
-7.0367969e-05
4.6929781e-05
-8.3125263e-05
4.7011163e-05
-9.762227e-05
4.628445e-05
-0.00011374004
4.4481255e-05
-0.00013122995
4.0953102e-05
-0.00014945224
3.5353447e-05
-0.00016747946
2.5660387e-05
-0.00018318529
7.3633956e-06
-0.00019062363
-2.0142489e-05
-0.00018349417
-5.2857526e-05
-0.00016131859
-9.2853732e-05
-0.00012286507
-0.00014072891
-6.2847917e-05
-0.00019709765
2.249249e-05
-0.00026461453
0.00013894531
-0.00034699865
0.00029740766
-0.00044464846
0.00050664021
-0.00055075032
0.00075960188
-0.00067300735
0.001055843
-0.0008109281
0.0014041207
-0.00097043613
0.0018092354
-0.001143046
0.0022646091
-0.0013327421
0.0027578364
-0.0015294507
0.003282037
-0.0017281887
0.0038150936
-0.0019091721
0.0043223922
-0.002050354
0.0047574452
-0.0021603881
0.0050693311
-0.0021460031
0.005140367
-0.0019045542
0.0048505666
-0.0014287573
0.0041590623
0.0018756803
4.2348485e-05
-2.9006053e-06
4.2431577e-05
-3.4605062e-06
4.2529123e-05
-4.1463759e-06
4.2644119e-05
-4.9681398e-06
4.2778205e-05
-5.9529054e-06
4.2935362e-05
-7.1325578e-06
4.3118633e-05
-8.5458805e-06
4.333237e-05
-1.0238455e-05
4.358172e-05
-1.2265231e-05
4.3871451e-05
-1.4691118e-05
4.4209775e-05
-1.7593206e-05
4.4602784e-05
-2.1062595e-05
4.50613e-05
-2.5208065e-05
4.5593499e-05
-3.0154998e-05
4.6208326e-05
-3.6047937e-05
4.6925026e-05
-4.3051891e-05
4.7759108e-05
-5.134678e-05
4.8682651e-05
-6.1113798e-05
4.9597714e-05
-7.2515328e-05
5.0328764e-05
-8.5674843e-05
5.0612352e-05
-0.00010062673
5.0144795e-05
-0.00011725552
4.8637825e-05
-0.00013529847
4.5461447e-05
-0.00015408814
4.0314089e-05
-0.00017269086
3.0870943e-05
-0.00018868126
1.2754444e-05
-0.00019558996
-1.4204671e-05
-0.00018716022
-4.6142986e-05
-0.00016327642
-8.5451065e-05
-0.00012237288
-0.00013265667
-5.8629167e-05
-0.00018835356
3.1790073e-05
-0.00025527371
0.00015498693
-0.00033714775
0.00032234796
-0.0004346256
0.00054325558
-0.00054075254
0.00081054209
-0.00066348073
0.001123873
-0.00080216447
0.0014928739
-0.00096294424
0.0019228072
-0.001136754
0.0024060716
-0.0013283489
0.0029295317
-0.0015273346
0.0034862709
-0.0017295044
0.0040528968
-0.0019144241
0.0045922579
-0.0020611312
0.0050535818
-0.0021754535
0.0053818421
-0.002159698
0.0054469858
-0.001915654
0.0051176372
-0.0014377566
0.0043527531
0.0019512492
4.4375799e-05
-2.9854659e-06
4.4465852e-05
-3.5618178e-06
4.4571709e-05
-4.2678349e-06
4.4696797e-05
-5.113891e-06
4.484298e-05
-6.1275682e-06
4.5014743e-05
-7.3421155e-06
4.5215401e-05
-8.7972139e-06
4.5449964e-05
-1.0539941e-05
4.5724894e-05
-1.2627054e-05
4.6046324e-05
-1.5125462e-05
4.6424614e-05
-1.8114753e-05
4.6870334e-05
-2.1690131e-05
4.7396705e-05
-2.5963758e-05
4.8014035e-05
-3.1065769e-05
4.8738337e-05
-3.7147162e-05
4.9581039e-05
-4.4379827e-05
5.0540274e-05
-5.2948892e-05
5.1585118e-05
-6.3039818e-05
5.262585e-05
-7.4819002e-05
5.3503943e-05
-8.8411196e-05
5.3970691e-05
-0.00010384933
5.3743559e-05
-0.00012102625
5.250508e-05
-0.0001396569
4.9671185e-05
-0.00015905842
4.4970357e-05
-0.00017831492
3.5758917e-05
-0.00019464258
1.7817867e-05
-0.0002010512
-8.6061329e-06
-0.00019139151
-3.9784759e-05
-0.00016589866
-7.8414826e-05
-0.00012265958
-0.00012496781
-5.5304417e-05
-0.0001800093
4.0076207e-05
-0.00024634093
0.00016987989
-0.00032770896
0.00034599819
-0.00042499697
0.00057845041
-0.00053113376
0.00085996473
-0.00065429843
0.0011903408
-0.00079371081
0.0015800643
-0.00095571251
0.0020348497
-0.0011307133
0.0025461329
-0.0013241721
0.0031000766
-0.0015254042
0.0036897349
-0.0017309331
0.0042905008
-0.0019197503
0.0048627802
-0.0020718748
0.0053516149
-0.0021902164
0.0056975103
-0.0021731364
0.0057575695
-0.0019265324
0.0053887978
-0.0014465633
0.0045504359
0.0020293036
4.6225849e-05
-3.0756671e-06
4.6322737e-05
-3.6697531e-06
4.6436785e-05
-4.3972637e-06
4.6571409e-05
-5.2689539e-06
4.6729239e-05
-6.3136127e-06