/*--------------------------------*- C++ -*----------------------------------*\
  =========                 |
  \\      /  F ield         | OpenFOAM: The Open Source CFD Toolbox
   \\    /   O peration     | Website:  https://openfoam.org
    \\  /    A nd           | Version:  8
     \\/     M anipulation  |
\*---------------------------------------------------------------------------*/
FoamFile
{
    version     2.0;
    format      ascii;
    class       volScalarField;
    location    "0.0499991";
    object      nut;
}
// * * * * * * * * * * * * * * * * * * * * * * * * * * * * * * * * * * * * * //

dimensions      [0 2 -1 0 0 0 0];

internalField   nonuniform List<scalar> 
20000
(
0.0010910022
0.0025364967
0.0032138782
0.0032463674
0.0025421392
0.00077710571
1.8338322e-06
5.9704997e-09
5.4817337e-09
5.4732444e-09
5.3614604e-09
5.392107e-09
5.3290961e-09
5.3630244e-09
5.3637003e-09
5.3948942e-09
5.4180249e-09
5.4595945e-09
5.504391e-09
5.5653652e-09
5.63749e-09
5.7245434e-09
5.8236298e-09
5.9377446e-09
6.0655214e-09
6.2073314e-09
6.3591964e-09
6.5169407e-09
6.6746407e-09
6.8265966e-09
6.966797e-09
7.0905192e-09
7.1943803e-09
7.2778704e-09
7.339956e-09
7.3870536e-09
7.4228398e-09
7.442117e-09
7.4483944e-09
7.4466043e-09
7.4396568e-09
7.4345189e-09
7.4212001e-09
7.3783625e-09
7.3563131e-09
7.3511315e-09
7.3573889e-09
7.3602295e-09
7.3590389e-09
7.3562192e-09
0.0010728058
0.0024795151
0.0031270754
0.0031269917
0.0023708125
0.00064291924
5.5898547e-07
5.862243e-09
5.455245e-09
5.4502906e-09
5.3409191e-09
5.3730927e-09
5.3107949e-09
5.3455857e-09
5.3470221e-09
5.3789436e-09
5.4030592e-09
5.4458042e-09
5.4928955e-09
5.5577675e-09
5.6327805e-09
5.7229449e-09
5.8239526e-09
5.9408197e-09
6.0721083e-09
6.2170715e-09
6.371782e-09
6.5315754e-09
6.6902595e-09
6.8419927e-09
6.9809694e-09
7.1026887e-09
7.2043601e-09
7.2852545e-09
7.3450508e-09
7.3923772e-09
7.4259881e-09
7.4432122e-09
7.448317e-09
7.4465032e-09
7.4400223e-09
7.4347229e-09
7.4132449e-09
7.3774661e-09
7.3567382e-09
7.3512894e-09
7.3576504e-09
7.3603445e-09
7.3591046e-09
7.3561748e-09
0.0010659384
0.0024376093
0.0030449418
0.0029971787
0.0021783358
0.00051271287
1.6997847e-07
5.793072e-09
5.4338403e-09
5.4306575e-09
5.3239338e-09
5.3568219e-09
5.2953484e-09
5.3304828e-09
5.3328938e-09
5.3655978e-09
5.3913422e-09
5.4372081e-09
5.4880971e-09
5.5553769e-09
5.632441e-09
5.7232943e-09
5.8271854e-09
5.9473464e-09
6.082062e-09
6.2304127e-09
6.3880193e-09
6.5498074e-09
6.7092988e-09
6.860498e-09
6.9978527e-09
7.1172304e-09
7.2162159e-09
7.2940477e-09
7.3514181e-09
7.3986059e-09
7.4297677e-09
7.444502e-09
7.4485456e-09
7.446301e-09
7.4408703e-09
7.4347849e-09
7.405133e-09
7.3723287e-09
7.3578117e-09
7.3544858e-09
7.3586265e-09
7.3605068e-09
7.3591734e-09
7.3561208e-09
0.0010578006
0.0023937953
0.0029635884
0.0028752148
0.0019860833
0.00040049842
6.1042305e-08
5.7453842e-09
5.4140634e-09
5.4133948e-09
5.3093595e-09
5.343195e-09
5.2828509e-09
5.3185557e-09
5.3222222e-09
5.3570317e-09
5.3858137e-09
5.4339728e-09
5.486523e-09
5.5549148e-09
5.6327829e-09
5.7268697e-09
5.834231e-09
5.9579933e-09
6.0964635e-09
6.248257e-09
6.4087033e-09
6.5722712e-09
6.7322113e-09
6.8824552e-09
7.0176946e-09
7.1342336e-09
7.2300401e-09
7.3043782e-09
7.359499e-09
7.4054718e-09
7.4335596e-09
7.4460215e-09
7.449163e-09
7.4463609e-09
7.4420959e-09
7.4345188e-09
7.3979057e-09
7.3708266e-09
7.3583986e-09
7.3552942e-09
7.3592945e-09
7.3607818e-09
7.3592287e-09
7.3560731e-09
0.0010498462
0.0023496212
0.00287971
0.002751256
0.0017915225
0.00030182473
2.7004803e-08
5.7126653e-09
5.3989278e-09
5.3995137e-09
5.2980937e-09
5.3317664e-09
5.2739009e-09
5.3110395e-09
5.3169875e-09
5.3535444e-09
5.3838135e-09
5.4331768e-09
5.4865899e-09
5.5565123e-09
5.6373922e-09
5.7342948e-09
5.8452168e-09
5.9727632e-09
6.1150658e-09
6.2703776e-09
6.433591e-09
6.5987136e-09
6.7587329e-09
6.9075489e-09
7.0401687e-09
7.1533966e-09
7.2455207e-09
7.3160101e-09
7.3691863e-09
7.4126571e-09
7.4376261e-09
7.4476946e-09
7.4500654e-09
7.4466244e-09
7.4434699e-09
7.4326334e-09
7.392446e-09
7.3687458e-09
7.3591172e-09
7.3570191e-09
7.360031e-09
7.3611652e-09
7.3592884e-09
7.3560259e-09
0.0010419876
0.0023059002
0.0027936255
0.0026232059
0.0015978441
0.00021497546
1.4934146e-08
5.6879938e-09
5.3897823e-09
5.3880666e-09
5.2877958e-09
5.3201347e-09
5.2694917e-09
5.3077713e-09
5.3149736e-09
5.3524469e-09
5.3835508e-09
5.4336998e-09
5.4893295e-09
5.5617805e-09
5.6453889e-09
5.7456755e-09
5.8603739e-09
5.9918938e-09
6.1381852e-09
6.2970346e-09
6.4628885e-09
6.629271e-09
6.7889298e-09
6.9358017e-09
7.065283e-09
7.1747103e-09
7.2626261e-09
7.3289467e-09
7.3802163e-09
7.4202666e-09
7.4419157e-09
7.4496845e-09
7.4512767e-09
7.4471308e-09
7.444478e-09
7.4288525e-09
7.3888547e-09
7.3674851e-09
7.3594447e-09
7.3580726e-09
7.3607358e-09
7.3616331e-09
7.3593493e-09
7.3559808e-09
0.0010344884
0.002263787
0.0027118061
0.0024989443
0.0014084708
0.0001383836
1.0080933e-08
5.6696748e-09
5.3810323e-09
5.3777226e-09
5.2772537e-09
5.3118412e-09
5.2678709e-09
5.3064919e-09
5.3145136e-09
5.352553e-09
5.3854061e-09
5.4376817e-09
5.4955239e-09
5.5705466e-09
5.6573968e-09
5.7611538e-09
5.8798165e-09
6.0154839e-09
6.1658615e-09
6.3282399e-09
6.4965577e-09
6.6638503e-09
6.8226643e-09
6.9670475e-09
7.0928616e-09
7.197979e-09
7.28116e-09
7.3430993e-09
7.3923225e-09
7.4281925e-09
7.4464465e-09
7.4522393e-09
7.4527289e-09
7.4478954e-09
7.4448009e-09
7.4242995e-09
7.3859921e-09
7.366399e-09
7.3596156e-09
7.359181e-09
7.3614121e-09
7.3621377e-09
7.3593862e-09
7.3559356e-09
0.0010271839
0.0022223397
0.0026323003
0.0023753511
0.0012251758
7.4653329e-05
7.9133046e-09
5.658125e-09
5.3702389e-09
5.3675748e-09
5.2686852e-09
5.3050397e-09
5.2674501e-09
5.3065856e-09
5.3161721e-09
5.3558257e-09
5.3905683e-09
5.4447908e-09
5.5052111e-09
5.5830982e-09
5.6733179e-09
5.7808398e-09
5.903686e-09
6.0436763e-09
6.198232e-09
6.3640835e-09
6.5346286e-09
6.7024173e-09
6.8598499e-09
7.0011723e-09
7.122773e-09
7.2230367e-09
7.3009898e-09
7.3585293e-09
7.4052072e-09
7.4363591e-09
7.451103e-09
7.4553059e-09
7.4543774e-09
7.4489931e-09
7.4447899e-09
7.4192804e-09
7.3836039e-09
7.3656407e-09
7.3596953e-09
7.3601004e-09
7.3620596e-09
7.362661e-09
7.3594057e-09
7.3558892e-09
0.0010199251
0.0021811323
0.0025525613
0.002250792
0.0010501881
3.1425855e-05
6.8830488e-09
5.6469864e-09
5.3665563e-09
5.3604958e-09
5.2634025e-09
5.3003278e-09
5.2693864e-09
5.3097257e-09
5.3210025e-09
5.3620929e-09
5.3989393e-09
5.4554069e-09
5.5185453e-09
5.5994786e-09
5.6933505e-09
5.8048482e-09
5.9320937e-09
6.0765713e-09
6.2353624e-09
6.404584e-09
6.5770562e-09
6.7448657e-09
6.9003375e-09
7.0380029e-09
7.1548169e-09
7.2496526e-09
7.3219732e-09
7.375358e-09
7.4185011e-09
7.4446838e-09
7.4559547e-09
7.4588445e-09
7.4562622e-09
7.4504832e-09
7.4445921e-09
7.4141932e-09
7.3814961e-09
7.365224e-09
7.3598426e-09
7.3609297e-09
7.3627014e-09
7.3632175e-09
7.3594172e-09
7.3558399e-09
0.0010126587
0.0021400656
0.0024728128
0.0021236123
0.00088598723
1.0418933e-05
6.368577e-09
5.6374793e-09
5.3684039e-09
5.3616521e-09
5.2648368e-09
5.3016557e-09
5.2746742e-09
5.315915e-09
5.3289302e-09
5.3716349e-09
5.4107051e-09
5.4695205e-09
5.5356078e-09
5.6198216e-09
5.7175711e-09
5.8332951e-09
5.9651561e-09
6.1142712e-09
6.2773222e-09
6.4497526e-09
6.6237834e-09
6.7910768e-09
6.9439658e-09
7.0773453e-09
7.1887617e-09
7.2775915e-09
7.3440308e-09
7.3936087e-09
7.4318688e-09
7.4530956e-09
7.4611432e-09
7.4627324e-09
7.4584326e-09
7.4523729e-09
7.4442165e-09
7.4092532e-09
7.3796047e-09
7.364984e-09
7.3601355e-09
7.3616884e-09
7.3633411e-09
7.3638013e-09
7.3594263e-09
7.3557867e-09
0.0010052538
0.0020991665
0.0023931341
0.0019942013
0.00073535646
3.0245849e-06
6.1033097e-09
5.6327676e-09
5.3694173e-09
5.3649383e-09
5.2705126e-09
5.3086585e-09
5.2828952e-09
5.3251254e-09
5.3400212e-09
5.3844338e-09
5.4259043e-09
5.4872684e-09
5.5565025e-09
5.6442183e-09
5.7461012e-09
5.8662865e-09
6.0029723e-09
6.1568541e-09
6.3241459e-09
6.4995614e-09
6.6747127e-09
6.8408954e-09
6.9905341e-09
7.1189555e-09
7.2243314e-09
7.30664e-09
7.3671625e-09
7.4127831e-09
7.445269e-09
7.4615244e-09
7.4667034e-09
7.466828e-09
7.4608903e-09
7.4545678e-09
7.4428571e-09
7.404696e-09
7.3778984e-09
7.3648687e-09
7.3606069e-09
7.3624311e-09
7.3639832e-09
7.364412e-09
7.3594354e-09
7.3557293e-09
0.00099777912
0.0020588306
0.0023135815
0.0018649099
0.00059938357
8.5953081e-07
5.9626455e-09
5.6292623e-09
5.3733179e-09
5.3700612e-09
5.2788551e-09
5.3176159e-09
5.2941555e-09
5.3374293e-09
5.3543401e-09
5.4006045e-09
5.4446397e-09
5.5087183e-09
5.581322e-09
5.6727758e-09
5.7790441e-09
5.9039322e-09
6.0456421e-09
6.2043912e-09
6.3758526e-09
6.5539589e-09
6.7297207e-09
6.894137e-09
7.0398007e-09
7.1625402e-09
7.2612386e-09
7.3366602e-09
7.3914396e-09
7.432408e-09
7.4585194e-09
7.4699214e-09
7.4728497e-09
7.4709593e-09
7.4635847e-09
7.4568396e-09
7.4403374e-09
7.4007145e-09
7.3764178e-09
7.3648062e-09
7.3612672e-09
7.3632024e-09
7.3646222e-09
7.3650243e-09
7.3594458e-09
7.3556676e-09
0.00099042784
0.002019738
0.0022344365
0.0017307311
0.00047883633
2.6263927e-07
5.8869793e-09
5.6289162e-09
5.3796484e-09
5.3782944e-09
5.2899549e-09
5.3297918e-09
5.3085175e-09
5.3529072e-09
5.3719736e-09
5.4202127e-09
5.4669788e-09
5.5339608e-09
5.610149e-09
5.7055803e-09
5.8164857e-09
5.9463272e-09
6.093248e-09
6.2569304e-09
6.4324308e-09
6.6128601e-09
6.7886506e-09
6.9505756e-09
7.0914697e-09
7.2077704e-09
7.2992371e-09
7.3676157e-09
7.4168393e-09
7.4519004e-09
7.4715278e-09
7.4785391e-09
7.4793063e-09
7.4751271e-09
7.466424e-09
7.4588037e-09
7.4364428e-09
7.3974009e-09
7.3752179e-09
7.3650221e-09
7.3621765e-09
7.3640652e-09
7.3652477e-09
7.3655688e-09
7.3594567e-09
7.3556023e-09
0.00098331095
0.0019823829
0.0021592784
0.0015924024
0.00037729248
9.3303082e-08
5.8463957e-09
5.6315167e-09
5.3888668e-09
5.3890469e-09
5.3040961e-09
5.3449749e-09
5.326059e-09
5.3716414e-09
5.3929808e-09
5.4433199e-09
5.4929909e-09
5.5630597e-09
5.6430648e-09
5.7427257e-09
5.8585312e-09
5.9935705e-09
6.1458723e-09
6.31451e-09
6.4938503e-09
6.6761547e-09
6.851311e-09
7.0099347e-09
7.145195e-09
7.254328e-09
7.3381811e-09
7.3995466e-09
7.4428705e-09
7.4709291e-09
7.4842466e-09
7.4876073e-09
7.4858639e-09
7.4793092e-09
7.4693203e-09
7.4599034e-09
7.4320484e-09
7.3943432e-09
7.3741626e-09
7.3655155e-09
7.3632648e-09
7.3650613e-09
7.3659313e-09
7.3659705e-09
7.3594678e-09
7.355534e-09
0.00097636853
0.0019460391
0.0020913294
0.0014493133
0.00028741083
3.9744321e-08
5.826977e-09
5.6373797e-09
5.4010191e-09
5.4033001e-09
5.3212956e-09
5.3632785e-09
5.3468082e-09
5.3936425e-09
5.4173919e-09
5.4699711e-09
5.5227214e-09
5.5960786e-09
5.6801421e-09
5.7842939e-09
5.9052675e-09
6.0457453e-09
6.203575e-09
6.3771419e-09
6.5600503e-09
6.7436969e-09
6.9174627e-09
7.071877e-09
7.2006102e-09
7.3019793e-09
7.3780379e-09
7.4323717e-09
7.468751e-09
7.4893492e-09
7.4969704e-09
7.4970079e-09
7.4923667e-09
7.4835056e-09
7.472262e-09
7.4603141e-09
7.4275328e-09
7.3915386e-09
7.3731667e-09
7.3661073e-09
7.3644385e-09
7.3662138e-09
7.3668464e-09
7.3661605e-09
7.3594787e-09
7.3554634e-09
0.00096949624
0.0019093895
0.0020190694
0.0013019697
0.000207118
2.0841253e-08
5.819484e-09
5.6460573e-09
5.4160412e-09
5.4204569e-09
5.341516e-09
5.3846602e-09
5.370766e-09
5.4189366e-09
5.445235e-09
5.5001944e-09
5.5562194e-09
5.6330851e-09
5.7214656e-09
5.8303841e-09
5.9567977e-09
6.1029438e-09
6.2664145e-09
6.4448253e-09
6.6309481e-09
6.815306e-09
6.9868105e-09
7.1360166e-09
7.2573934e-09
7.3506277e-09
7.4187825e-09
7.4655675e-09
7.4939203e-09
7.5071333e-09
7.5100784e-09
7.5063838e-09
7.4987704e-09
7.487716e-09
7.4753343e-09
7.4603578e-09
7.4231568e-09
7.3891338e-09
7.3722434e-09
7.3665344e-09
7.3656782e-09
7.3674928e-09
7.3680207e-09
7.366235e-09
7.3594661e-09
7.3553908e-09
0.0009629155
0.0018734706
0.0019492924
0.001154156
0.00013618031
1.3329494e-08
5.8194241e-09
5.6577968e-09
5.4341063e-09
5.4406112e-09
5.3647765e-09
5.4091367e-09
5.3979277e-09
5.4475228e-09
5.4765226e-09
5.5340446e-09
5.5935414e-09
5.674151e-09
5.7671201e-09
5.8810898e-09
6.0132162e-09
6.1652463e-09
6.3344313e-09
6.5175331e-09
6.7064264e-09
6.8907496e-09
7.0589955e-09
7.2019606e-09
7.3153445e-09
7.4002676e-09
7.4601442e-09
7.4982209e-09
7.5182166e-09
7.5247736e-09
7.523278e-09
7.5156125e-09
7.5050066e-09
7.4919297e-09
7.4786586e-09
7.4602299e-09
7.4189981e-09
7.3872156e-09
7.3717948e-09
7.3667708e-09
7.3670387e-09
7.3688792e-09
7.3693529e-09
7.3662515e-09
7.3594122e-09
7.3553167e-09
0.00095656003
0.001837686
0.0018786455
0.0010116649
7.7018865e-05
9.9950733e-09
5.8249263e-09
5.672469e-09
5.4552728e-09
5.4636591e-09
5.3910255e-09
5.4366697e-09
5.4282916e-09
5.479422e-09
5.5112997e-09
5.571556e-09
5.6347544e-09
5.7193634e-09
5.8172072e-09
5.9365227e-09
6.074632e-09
6.2327406e-09
6.4076649e-09
6.5952241e-09
6.7863336e-09
6.9697369e-09
7.1336113e-09
7.2693867e-09
7.3744099e-09
7.4507513e-09
7.501222e-09
7.5298863e-09
7.5417272e-09
7.5426666e-09
7.5361721e-09
7.5246104e-09
7.5110318e-09
7.4960941e-09
7.4821791e-09
7.459616e-09
7.4151826e-09
7.3856382e-09
7.3715899e-09
7.3669526e-09
7.3684108e-09
7.3702972e-09
7.3707596e-09
7.3662558e-09
7.3593403e-09
7.3552412e-09
0.00095008434
0.0017995472
0.0018068162
0.00087906398
3.5646001e-05
8.3873719e-09
5.8345105e-09
5.6899419e-09
5.479162e-09
5.4895924e-09
5.4202679e-09
5.4672904e-09
5.461883e-09
5.5146711e-09
5.5496066e-09
5.6128025e-09
5.6799409e-09
5.7688146e-09
5.871826e-09
5.9967878e-09
6.1411438e-09
6.3054998e-09
6.4861334e-09
6.6778262e-09
6.8704654e-09
7.0519096e-09
7.2102476e-09
7.3381194e-09
7.4345578e-09
7.5013531e-09
7.5413589e-09
7.560345e-09
7.5651572e-09
7.5602025e-09
7.548731e-09
7.5333153e-09
7.5168217e-09
7.5001288e-09
7.48536e-09
7.4577074e-09
7.4118418e-09
7.3842893e-09
7.3715239e-09
7.3673584e-09
7.3696946e-09
7.3716596e-09
7.3721478e-09
7.3662532e-09
7.3592581e-09
7.3551646e-09
0.00094340446
0.0017591814
0.0017324441
0.00075563051
1.3541943e-05
7.5691175e-09
5.8479109e-09
5.7103354e-09
5.5059843e-09
5.5184707e-09
5.452556e-09
5.5010306e-09
5.4987438e-09
5.5533203e-09
5.5915206e-09
5.6578552e-09
5.7291919e-09
5.8226096e-09
5.9310914e-09
6.0620058e-09
6.2128622e-09
6.3836e-09
6.5698456e-09
6.7652375e-09
6.95856e-09
7.1368601e-09
7.2885679e-09
7.4081314e-09
7.4954173e-09
7.5511277e-09
7.5801104e-09
7.5900962e-09
7.5882949e-09
7.5772241e-09
7.560833e-09
7.5416737e-09
7.522387e-09
7.5040006e-09
7.4869456e-09
7.4543433e-09
7.4090059e-09
7.3831863e-09
7.3715953e-09
7.3681134e-09
7.3709259e-09
7.372859e-09
7.3734057e-09
7.3662541e-09
7.3591668e-09
7.3550868e-09
0.00093634865
0.0017160916
0.0016542706
0.00064183215
4.5239586e-06
7.14011e-09
5.864678e-09
5.733627e-09
5.5356961e-09
5.5503047e-09
5.4879098e-09
5.5379282e-09
5.5389245e-09
5.5954419e-09
5.6371119e-09
5.7068148e-09
5.782604e-09
5.8808521e-09
5.9951159e-09
6.1322915e-09
6.2898875e-09
6.4671004e-09
6.6587798e-09
6.8573008e-09
7.050283e-09
7.224167e-09
7.3683825e-09
7.4793541e-09
7.5559448e-09
7.5994375e-09
7.6174582e-09
7.6196895e-09
7.6106349e-09
7.5936027e-09
7.5724194e-09
7.5496334e-09
7.5277585e-09
7.5078211e-09
7.4875914e-09
7.4499628e-09
7.4062846e-09
7.3824356e-09
7.3721736e-09
7.3693739e-09
7.3722077e-09
7.3738382e-09
7.3743373e-09
7.3661849e-09
7.3590669e-09
7.3550081e-09
0.00092872524
0.0016696528
0.0015681512
0.00053813137
1.4533734e-06
6.9127127e-09
5.884854e-09
5.7598748e-09
5.5683421e-09
5.5851395e-09
5.5263798e-09
5.57805e-09
5.5825006e-09
5.6411177e-09
5.6864753e-09
5.7597601e-09
5.8402756e-09
5.943661e-09
6.0640347e-09
6.2077844e-09
6.3723383e-09
6.5560674e-09
6.7528952e-09
6.9538038e-09
7.1452439e-09
7.3134655e-09
7.4496564e-09
7.5511793e-09
7.6152356e-09
7.6458583e-09
7.6542069e-09
7.648393e-09
7.6321469e-09
7.6092505e-09
7.5834157e-09
7.5571413e-09
7.5329567e-09
7.5117981e-09
7.4877089e-09
7.4448486e-09
7.4036401e-09
7.3820224e-09
7.3731829e-09
7.3710473e-09
7.3736516e-09
7.3747608e-09
7.3747214e-09
7.3660176e-09
7.3589497e-09
7.3549285e-09
0.00092064251
0.0016203524
0.0014718479
0.00044535835
4.8390164e-07
6.7923129e-09
5.9082643e-09
5.7890167e-09
5.6039404e-09
5.6230149e-09
5.5680425e-09
5.6214714e-09
5.6295511e-09
5.6904236e-09
5.7396767e-09
5.8167848e-09
5.9023077e-09
6.0111581e-09
6.1379843e-09
6.2886202e-09
6.460325e-09
6.6505441e-09
6.852103e-09
7.0544585e-09
7.2430218e-09
7.4045101e-09
7.532324e-09
7.6224475e-09
7.6725791e-09
7.6907948e-09
7.6902238e-09
7.6759992e-09
7.6526737e-09
7.6240906e-09
7.5937671e-09
7.5641529e-09
7.5379622e-09
7.5160423e-09
7.4876147e-09
7.4394346e-09
7.401081e-09
7.3818583e-09
7.3745456e-09
7.3729134e-09
7.3753159e-09
7.3760659e-09
7.3748544e-09
7.3657983e-09
7.3588182e-09
7.3548484e-09
0.00091215089
0.0015693225
0.0013676315
0.00036478735
1.7787028e-07
6.7306907e-09
5.9348787e-09
5.8211856e-09
5.6425923e-09
5.6640508e-09
5.6129792e-09
5.6682684e-09
5.6801264e-09
5.7434141e-09
5.7967855e-09
5.8779702e-09
5.9688229e-09
6.0834971e-09
6.2171328e-09
6.3749604e-09
6.5539705e-09
6.7505603e-09
6.9562613e-09
7.1589136e-09
7.3432248e-09
7.4972097e-09
7.6157303e-09
7.6921585e-09
7.7275271e-09
7.7349985e-09
7.7249067e-09
7.7023576e-09
7.6721471e-09
7.6380591e-09
7.603428e-09
7.5706498e-09
7.5427158e-09
7.5202031e-09
7.4868768e-09
7.4342483e-09
7.3987387e-09
7.381809e-09
7.3759102e-09
7.3748287e-09
7.3771888e-09
7.377797e-09
7.3748705e-09
7.3655458e-09
7.3586769e-09
7.3547683e-09
0.00090332415
0.0015169283
0.001257239
0.00029079739
7.4540317e-08
6.7023596e-09
5.9648391e-09
5.8564768e-09
5.6843771e-09
5.7082547e-09
5.6612174e-09
5.7184449e-09
5.7342491e-09
5.8001284e-09
5.8578727e-09
5.9434416e-09
6.03997e-09
6.1608474e-09
6.3016524e-09
6.4669616e-09
6.6533785e-09
6.8560981e-09
7.0651472e-09
7.2667636e-09
7.4455353e-09
7.5915178e-09
7.6986142e-09
7.7595349e-09
7.7807348e-09
7.7779785e-09
7.7580831e-09
7.727365e-09
7.6904874e-09
7.6511071e-09
7.6123691e-09
7.5766549e-09
7.547178e-09
7.5231445e-09
7.4848558e-09
7.4298567e-09
7.3967797e-09
7.3818199e-09
7.3769776e-09
7.3767661e-09
7.3791966e-09
7.3797447e-09
7.374874e-09
7.3652691e-09
7.3585268e-09
7.3546888e-09
0.00089409283
0.0014622238
0.0011482464
0.0002233838
3.6612903e-08
6.6934192e-09
5.9977945e-09
5.8947658e-09
5.7292089e-09
5.7556133e-09
5.7127348e-09
5.7720138e-09
5.7919456e-09
5.8606452e-09
5.9230613e-09
6.0133502e-09
6.1159387e-09
6.2434163e-09
6.3917474e-09
6.5648035e-09
6.7586529e-09
6.9671013e-09
7.1784718e-09
7.3776078e-09
7.5497623e-09
7.6869693e-09
7.7797592e-09
7.8240167e-09
7.8329415e-09
7.8191616e-09
7.7895966e-09
7.7509382e-09
7.7076442e-09
7.6631987e-09
7.6205664e-09
7.5822192e-09
7.5514235e-09
7.5242822e-09
7.4814078e-09
7.4265817e-09
7.3952919e-09
7.38188e-09
7.3777646e-09
7.3786953e-09
7.3811349e-09
7.3817211e-09
7.3748563e-09
7.3649746e-09
7.3583701e-09
7.3546108e-09
0.00088471642
0.0014035666
0.0010416855
0.0001616043
2.1288434e-08
6.6967168e-09
6.033853e-09
5.9361018e-09
5.7771097e-09
5.8061135e-09
5.7675343e-09
5.8290011e-09
5.8533014e-09
5.9250974e-09
5.9925224e-09
6.0879068e-09
6.1969419e-09
6.3314179e-09
6.4876218e-09
6.6686529e-09
6.8698604e-09
7.0834377e-09
7.2958757e-09
7.4910854e-09
7.655829e-09
7.7822317e-09
7.8583313e-09
7.8863109e-09
7.8835112e-09
7.858374e-09
7.8193468e-09
7.7730154e-09
7.7235803e-09
7.6743043e-09
7.6279915e-09
7.5873834e-09
7.5556471e-09
7.5246541e-09
7.4771359e-09
7.4239142e-09
7.3946632e-09
7.3823539e-09
7.3787251e-09
7.3804469e-09
7.3827377e-09
7.383379e-09
7.3748104e-09
7.3646689e-09
7.3582102e-09
7.3545349e-09
0.00087636332
0.0013526813
0.00093500675
0.00010591821
1.4465973e-08
6.7075473e-09
6.0728437e-09
5.980329e-09
5.8279983e-09
5.8597277e-09
5.825677e-09
5.8895394e-09
5.9184914e-09
5.9936937e-09
6.0664757e-09
6.1673297e-09
6.2832161e-09
6.4250932e-09
6.5895034e-09
6.7786868e-09
6.9870369e-09
7.2049033e-09
7.4169675e-09
7.6069097e-09
7.7635416e-09
7.8758701e-09
7.9335742e-09
7.9471664e-09
7.9318517e-09
7.8954557e-09
7.847251e-09
7.7935551e-09
7.7382715e-09
7.6843869e-09
7.6346073e-09
7.5921335e-09
7.5599403e-09
7.5246287e-09
7.4721952e-09
7.4215503e-09
7.3944214e-09
7.3832257e-09
7.380095e-09
7.3821059e-09
7.383868e-09
7.3842123e-09
7.3744899e-09
7.3643568e-09
7.358049e-09
7.354462e-09
0.00086816272
0.0012999874
0.00082972937
6.0133293e-05
1.1154954e-08
6.7235019e-09
6.11463e-09
6.0275133e-09
5.8819751e-09
5.9166589e-09
5.8873947e-09
5.9538771e-09
5.9877586e-09
6.0666681e-09
6.1451545e-09
6.2518692e-09
6.3750071e-09
6.5246868e-09
6.6976153e-09
6.8950573e-09
7.1101524e-09
7.3312092e-09
7.5413591e-09
7.7248796e-09
7.8717183e-09
7.966893e-09
8.0059743e-09
8.006096e-09
7.9777002e-09
7.930304e-09
7.8732564e-09
7.8125349e-09
7.7516923e-09
7.6933912e-09
7.6403907e-09
7.5964101e-09
7.5637788e-09
7.5243415e-09
7.4667467e-09
7.4192686e-09
7.394385e-09
7.3844449e-09
7.3818251e-09
7.3837699e-09
7.384844e-09
7.3845018e-09
7.3739987e-09
7.3640413e-09
7.3578857e-09
7.3543929e-09
0.00086037334
0.0012466307
0.0007277724
2.8681364e-05
9.4514552e-09
6.7438477e-09
6.1595554e-09
6.0779687e-09
5.9393925e-09
5.9772247e-09
5.9529872e-09
6.0222699e-09
6.0613259e-09
6.1442422e-09
6.2287912e-09
6.3417682e-09
6.4725817e-09
6.6304683e-09
6.8121971e-09
7.0178722e-09
7.239107e-09
7.4620021e-09
7.6687006e-09
7.8448506e-09
7.9788767e-09
8.0543194e-09
8.0763061e-09
8.0624289e-09
8.0209057e-09
7.9628384e-09
7.8973325e-09
7.8299419e-09
7.7638027e-09
7.7012575e-09
7.6453787e-09
7.6002063e-09
7.5653505e-09
7.522864e-09
7.4610646e-09
7.4170818e-09
7.3944252e-09
7.3859061e-09
7.3838135e-09
7.3854812e-09
7.3862281e-09
7.3845771e-09
7.373426e-09
7.3637084e-09
7.3577205e-09
7.3543282e-09
0.0008531108
0.0011919657
0.0006305975
1.1686493e-05
8.5432314e-09
6.7695024e-09
6.2080389e-09
6.1321125e-09
6.0005859e-09
6.0416965e-09
6.0226754e-09
6.0949046e-09
6.1393817e-09
6.226595e-09
6.3176252e-09
6.4373086e-09
6.5762219e-09
6.742714e-09
6.9334725e-09
7.1472159e-09
7.373703e-09
7.5968994e-09
7.7986849e-09
7.9662448e-09
8.0835512e-09
8.1380497e-09
8.1445792e-09
8.1157101e-09
8.0613458e-09
7.9930118e-09
7.9194709e-09
7.8457618e-09
7.7745528e-09
7.7079874e-09
7.6497118e-09
7.6036767e-09
7.566028e-09
7.5199114e-09
7.4556296e-09
7.4151901e-09
7.3948506e-09
7.3875043e-09
7.385858e-09
7.3874292e-09
7.3880326e-09
7.3845661e-09
7.3728174e-09
7.3633656e-09
7.3575572e-09
7.3542687e-09
0.00084665983
0.0011369833
0.00053936096
4.3044887e-06
8.0530025e-09
6.8034996e-09
6.260246e-09
6.190139e-09
6.0657111e-09
6.1101726e-09
6.0965723e-09
6.1719277e-09
6.2221248e-09
6.313968e-09
6.411932e-09
6.5387801e-09
6.6862425e-09
6.8617262e-09
7.0616641e-09
7.2830968e-09
7.5136624e-09
7.7355243e-09
7.9310822e-09
8.0875144e-09
8.1847109e-09
8.2188289e-09
8.209969e-09
8.16581e-09
8.0989391e-09
8.0208039e-09
7.9396755e-09
7.8599741e-09
7.7839194e-09
7.7137444e-09
7.6536273e-09
7.60691e-09
7.5661494e-09
7.515137e-09
7.4509605e-09
7.4136612e-09
7.3955124e-09
7.3891424e-09
7.3878522e-09
7.3895391e-09
7.3901927e-09
7.3845452e-09
7.3721925e-09
7.3630203e-09
7.3573982e-09
7.3542148e-09
0.00084100036
0.0010847174
0.00045467871
1.5348154e-06
7.7921041e-09
6.842007e-09
6.3162948e-09
6.2518737e-09
6.1347349e-09
6.1827022e-09
6.1748104e-09
6.2535371e-09
6.3097914e-09
6.4067343e-09
6.5120196e-09
6.6465277e-09
6.8029769e-09
6.987805e-09
7.1969508e-09
7.425439e-09
7.6586342e-09
7.8775012e-09
8.0656307e-09
8.2069582e-09
8.2814521e-09
8.2974415e-09
8.2717096e-09
8.2125674e-09
8.1336401e-09
8.0462199e-09
7.9579544e-09
7.8725625e-09
7.7919753e-09
7.7188844e-09
7.6573162e-09
7.6094757e-09
7.5659816e-09
7.5091323e-09
7.4469872e-09
7.4124848e-09
7.3963401e-09
7.390771e-09
7.3897401e-09
7.3914686e-09
7.392268e-09
7.3845143e-09
7.3715635e-09
7.3626783e-09
7.3572442e-09
7.3541671e-09
0.00083502151
0.0010224412
0.00037669674
5.6663046e-07
7.6589212e-09
6.8838574e-09
6.3758293e-09
6.3173822e-09
6.2077842e-09
6.2595035e-09
6.2576363e-09
6.3400029e-09
6.4026697e-09
6.5052202e-09
6.6182383e-09
6.7608986e-09
6.9267817e-09
7.1212552e-09
7.3394613e-09
7.5740741e-09
7.808244e-09
8.0224583e-09
8.2012577e-09
8.3231474e-09
8.3743684e-09
8.372887e-09
8.3296974e-09
8.2558955e-09
8.1654388e-09
8.069284e-09
7.9743135e-09
7.883542e-09
7.7989487e-09
7.7237336e-09
7.6606032e-09
7.6105331e-09
7.5647111e-09
7.5025674e-09
7.4435501e-09
7.4116176e-09
7.3972644e-09
7.3923916e-09
7.3915474e-09
7.3928573e-09
7.3933906e-09
7.3841613e-09
7.3709421e-09
7.3623444e-09
7.3570969e-09
7.3541261e-09
0.00082915273
0.0009590787
0.00030629793
2.3064296e-07
7.594318e-09
6.9298038e-09
6.4392929e-09
6.3870556e-09
6.2852052e-09
6.3408632e-09
6.3453389e-09
6.4316241e-09
6.5010882e-09
6.6097204e-09
6.7309578e-09
6.8822904e-09
7.0580252e-09
7.2623537e-09
7.4892381e-09
7.7287311e-09
7.9621208e-09
8.1701125e-09
8.3362015e-09
8.4348025e-09
8.464249e-09
8.4444308e-09
8.3837143e-09
8.2957385e-09
8.1943555e-09
8.0900308e-09
7.9887657e-09
7.8930115e-09
7.8051794e-09
7.7280379e-09
7.6625315e-09
7.611024e-09
7.5625858e-09
7.4958352e-09
7.4405919e-09
7.411182e-09
7.3982526e-09
7.3939707e-09
7.3932728e-09
7.3939087e-09
7.3938639e-09
7.3835065e-09
7.370335e-09
7.3620216e-09
7.3569576e-09
7.3540921e-09
0.00082284843
0.00088956702
0.00024286533
1.0710045e-07
7.5705338e-09
6.9801208e-09
6.5070275e-09
6.4610935e-09
6.3672401e-09
6.4270439e-09
6.4382112e-09
6.5287342e-09
6.6054078e-09
6.7206361e-09
6.8505905e-09
7.0111035e-09
7.1970915e-09
7.4113478e-09
7.6462337e-09
7.8890567e-09
8.1198587e-09
8.3200855e-09
8.468534e-09
8.5415592e-09
8.551003e-09
8.5115125e-09
8.4336648e-09
8.3320906e-09
8.220437e-09
8.1084987e-09
8.0013572e-09
7.9011908e-09
7.8108668e-09
7.7303615e-09
7.6633843e-09
7.6111773e-09
7.5595442e-09
7.4891952e-09
7.4380179e-09
7.411045e-09
7.399293e-09
7.3955366e-09
7.3949476e-09
7.395102e-09
7.3940187e-09
7.3826437e-09
7.369746e-09
7.361711e-09
7.3568263e-09
7.3540656e-09
0.00081612326
0.0008171641
0.00018745764
5.7866694e-08
7.5712158e-09
7.0348453e-09
6.579107e-09
6.5397333e-09
6.454158e-09
6.5183664e-09
6.5366056e-09
6.6317091e-09
6.716035e-09
6.8383907e-09
6.9775726e-09
7.1477898e-09
7.344358e-09
7.5684155e-09
7.8102982e-09
8.0546704e-09
8.2809919e-09
8.4708071e-09
8.596798e-09
8.6440641e-09
8.6336485e-09
8.5739888e-09
8.4794718e-09
8.3649847e-09
8.2437447e-09
8.1247304e-09
8.0122055e-09
7.9083851e-09
7.8155688e-09
7.7313248e-09
7.6637317e-09
7.6111497e-09
7.5555032e-09
7.4829436e-09
7.435757e-09
7.4110553e-09
7.4004189e-09
7.3971492e-09
7.3966516e-09
7.3966514e-09
7.3940453e-09
7.3816698e-09
7.3691749e-09
7.3614108e-09
7.3567037e-09
7.3540472e-09
0.00080826836
0.00074021887
0.00013914954
3.5885899e-08
7.5878851e-09
7.0940661e-09
6.656005e-09
6.6233408e-09
6.5463305e-09
6.6151948e-09
6.6409045e-09
6.7409605e-09
6.8333952e-09
6.9634499e-09
7.1123829e-09
7.2928038e-09
7.5001878e-09
7.7336513e-09
7.9811712e-09
8.2251842e-09
8.4451025e-09
8.6202238e-09
8.7194935e-09
8.7433898e-09
8.7111948e-09
8.6316824e-09
8.5211329e-09
8.3944889e-09
8.2643446e-09
8.138793e-09
8.0215229e-09
7.9148048e-09
7.8175684e-09
7.7316323e-09
7.6638937e-09
7.6102524e-09
7.5502001e-09
7.4774704e-09
7.4338876e-09
7.4112299e-09
7.4016584e-09
7.3988231e-09
7.3984619e-09
7.3984963e-09
7.3940266e-09
7.3806632e-09
7.3686108e-09
7.361121e-09
7.3565911e-09
7.3540375e-09
0.00079975099
0.00065342115
9.7413598e-05
2.4987915e-08
7.6162399e-09
7.1585053e-09
6.7378342e-09
6.7122688e-09
6.6441215e-09
6.7179006e-09
6.7515199e-09
6.8569217e-09
6.9579668e-09
7.0963007e-09
7.2555228e-09
7.4466247e-09
7.664895e-09
7.9070344e-09
8.1585074e-09
8.4001483e-09
8.611581e-09
8.766087e-09
8.8369642e-09
8.8383746e-09
8.7834332e-09
8.6845137e-09
8.5586856e-09
8.4206809e-09
8.2822997e-09
8.1508189e-09
8.0295931e-09
7.9201219e-09
7.8183803e-09
7.7317232e-09
7.6637959e-09
7.6084392e-09
7.5434763e-09
7.4731294e-09
7.4325028e-09
7.4117321e-09
7.4030125e-09
7.4004531e-09
7.4002081e-09
7.4004215e-09
7.3939895e-09
7.3796634e-09
7.3680567e-09
7.3608479e-09
7.3564897e-09
7.3540366e-09
0.00079268945
0.00059237493
6.5193297e-05
1.9143045e-08
7.6536393e-09
7.2281386e-09
6.825048e-09
6.806796e-09
6.7479157e-09
6.8269022e-09
6.8688923e-09
6.9800796e-09
7.0902488e-09
7.2374861e-09
7.4075367e-09
7.6097233e-09
7.8387192e-09
8.0884305e-09
8.3419046e-09
8.5789958e-09
8.7782984e-09
8.9068437e-09
8.9498866e-09
8.9281061e-09
8.8501258e-09
8.7324592e-09
8.5922032e-09
8.44363e-09
8.2976922e-09
8.1610518e-09
8.0366691e-09
7.9227163e-09
7.8185609e-09
7.7313904e-09
7.6631451e-09
7.6055759e-09
7.5362216e-09
7.469401e-09
7.4315608e-09
7.412507e-09
7.4044886e-09
7.4019584e-09
7.4015879e-09
7.4012505e-09
7.3936403e-09
7.3786895e-09
7.3675216e-09
7.3605949e-09
7.3564008e-09
7.354045e-09
0.00078605563
0.00053743354
4.0640387e-05
1.5730986e-08
7.6986312e-09
7.3033142e-09
6.918087e-09
6.9073745e-09
6.8581607e-09
6.9426554e-09
6.9935133e-09
7.1109487e-09
7.2308226e-09
7.3875944e-09
7.5690067e-09
7.7825581e-09
8.0217981e-09
8.2775813e-09
8.5309199e-09
8.7611174e-09
8.942982e-09
9.041329e-09
9.0586504e-09
9.0116391e-09
8.9111667e-09
8.7755543e-09
8.6217604e-09
8.463393e-09
8.3106825e-09
8.1698356e-09
8.0426309e-09
7.9237228e-09
7.8184428e-09
7.7305297e-09
7.6619831e-09
7.6017359e-09
7.5287933e-09
7.4661474e-09
7.430986e-09
7.4134906e-09
7.4060653e-09
7.4034844e-09
7.4027271e-09
7.4016001e-09
7.392964e-09
7.3777486e-09
7.3670105e-09
7.3603586e-09
7.3563262e-09
7.3540641e-09
0.00077998556
0.00048981151
2.3899559e-05
1.3649108e-08
7.7510384e-09
7.3844026e-09
7.0173583e-09
7.0144626e-09
6.9753099e-09
7.0656446e-09
7.1259087e-09
7.2501289e-09
7.38029e-09
7.5472818e-09
7.740538e-09
7.9655275e-09
8.214143e-09
8.4741133e-09
8.7249622e-09
8.9453441e-09
9.1031627e-09
9.1699986e-09
9.1618932e-09
9.0888472e-09
8.966498e-09
8.8138707e-09
8.6474306e-09
8.4800841e-09
8.3215906e-09
8.1774875e-09
8.0462139e-09
7.9239286e-09
7.817514e-09
7.7292041e-09
7.6602718e-09
7.5970348e-09
7.5214586e-09
7.4632454e-09
7.430683e-09
7.4145916e-09
7.4076187e-09
7.4049426e-09
7.4039535e-09
7.4016924e-09
7.3919977e-09
7.3768461e-09
7.3665249e-09
7.3601396e-09
7.3562664e-09
7.3540937e-09
0.00077478194
0.0004486766
1.3375496e-05
1.2327571e-08
7.8110715e-09
7.4717659e-09
7.1232213e-09
7.1284867e-09
7.0998411e-09
7.1964059e-09
7.2667103e-09
7.3982621e-09
7.5393665e-09
7.7172442e-09
7.9227225e-09
8.1589281e-09
8.4156207e-09