/*--------------------------------*- C++ -*----------------------------------*\
  =========                 |
  \\      /  F ield         | OpenFOAM: The Open Source CFD Toolbox
   \\    /   O peration     | Website:  https://openfoam.org
    \\  /    A nd           | Version:  8
     \\/     M anipulation  |
\*---------------------------------------------------------------------------*/
FoamFile
{
    version     2.0;
    format      ascii;
    class       volScalarField;
    location    "0.0499991";
    object      nuTilda;
}
// * * * * * * * * * * * * * * * * * * * * * * * * * * * * * * * * * * * * * //

dimensions      [0 2 -1 0 0 0 0];

internalField   nonuniform List<scalar> 
20000
(
0.0010928667
0.0025368419
0.003214091
0.0032465716
0.0025424593
0.000780266
4.3626293e-05
1.0315459e-05
1.010387e-05
1.0091775e-05
1.0040676e-05
1.0046228e-05
1.0012967e-05
1.0017889e-05
1.000955e-05
1.0009277e-05
1.0005534e-05
1.0004552e-05
1.0003198e-05
1.0002819e-05
1.0002548e-05
1.0002426e-05
1.0002243e-05
1.0002052e-05
1.0001921e-05
1.0001785e-05
1.0001586e-05
1.0001292e-05
1.0000977e-05
1.0000808e-05
1.0000779e-05
1.0000792e-05
1.0000631e-05
1.0000503e-05
1.00004e-05
1.000035e-05
1.0000319e-05
1.0000318e-05
1.000037e-05
1.0000514e-05
1.0000639e-05
1.0000553e-05
1.0000412e-05
1.0000377e-05
1.00002e-05
1.0000097e-05
1.000006e-05
1.0000052e-05
1.0000021e-05
1.0000079e-05
0.0010747456
0.0024798783
0.0031273013
0.0031272126
0.0023711808
0.0006474972
3.2247428e-05
1.0279242e-05
1.0101817e-05
1.0090744e-05
1.0040232e-05
1.0046088e-05
1.0012755e-05
1.0017711e-05
1.000941e-05
1.0009138e-05
1.0005494e-05
1.0004525e-05
1.0003192e-05
1.0002814e-05
1.0002549e-05
1.0002427e-05
1.0002232e-05
1.0002034e-05
1.0001897e-05
1.0001762e-05
1.0001563e-05
1.000127e-05
1.0000948e-05
1.0000768e-05
1.0000739e-05
1.0000741e-05
1.0000594e-05
1.0000464e-05
1.0000367e-05
1.0000324e-05
1.0000296e-05
1.0000293e-05
1.0000344e-05
1.0000458e-05
1.0000606e-05
1.0000517e-05
1.0000382e-05
1.0000361e-05
1.0000152e-05
1.0000088e-05
1.0000052e-05
1.0000045e-05
1.0000021e-05
1.0000076e-05
0.00106791
0.0024379862
0.0030451805
0.0029974193
0.0021787708
0.00051976126
2.3905047e-05
1.0256498e-05
1.0099672e-05
1.0089219e-05
1.0039803e-05
1.0045802e-05
1.001255e-05
1.0017373e-05
1.0009263e-05
1.0008995e-05
1.0005439e-05
1.0004486e-05
1.0003179e-05
1.0002805e-05
1.0002549e-05
1.0002422e-05
1.0002222e-05
1.0002021e-05
1.0001885e-05
1.0001756e-05
1.0001566e-05
1.0001283e-05
1.0000964e-05
1.0000767e-05
1.0000732e-05
1.0000748e-05
1.0000599e-05
1.0000465e-05
1.0000368e-05
1.0000326e-05
1.0000292e-05
1.0000286e-05
1.0000325e-05
1.0000436e-05
1.0000586e-05
1.0000482e-05
1.0000372e-05
1.0000359e-05
1.000016e-05
1.0000088e-05
1.0000052e-05
1.0000039e-05
1.0000021e-05
1.0000075e-05
0.0010598101
0.0023941872
0.0029638409
0.0028754763
0.001986605
0.00041157523
1.8503943e-05
1.024234e-05
1.0097531e-05
1.0087707e-05
1.0039322e-05
1.0045484e-05
1.0012339e-05
1.0017104e-05
1.000912e-05
1.0008846e-05
1.0005385e-05
1.0004444e-05
1.0003164e-05
1.0002794e-05
1.0002549e-05
1.0002418e-05
1.0002211e-05
1.0002005e-05
1.0001868e-05
1.0001741e-05
1.0001556e-05
1.0001278e-05
1.0000963e-05
1.0000766e-05
1.0000732e-05
1.0000755e-05
1.0000608e-05
1.0000467e-05
1.0000365e-05
1.0000324e-05
1.0000291e-05
1.0000281e-05
1.0000313e-05
1.0000404e-05
1.0000558e-05
1.0000425e-05
1.0000364e-05
1.0000356e-05
1.0000148e-05
1.0000089e-05
1.0000053e-05
1.0000034e-05
1.000002e-05
1.0000073e-05
0.0010518912
0.0023500288
0.0028799776
0.0027515416
0.0017921608
0.00031962387
1.5097055e-05
1.0232722e-05
1.0095455e-05
1.0086073e-05
1.0038619e-05
1.0044315e-05
1.0012063e-05
1.0016781e-05
1.000898e-05
1.0008694e-05
1.0005328e-05
1.0004399e-05
1.0003148e-05
1.0002783e-05
1.000255e-05
1.0002412e-05
1.0002201e-05
1.0001991e-05
1.0001853e-05
1.0001729e-05
1.000155e-05
1.0001278e-05
1.0000966e-05
1.0000767e-05
1.000073e-05
1.0000759e-05
1.0000615e-05
1.000047e-05
1.0000365e-05
1.0000325e-05
1.0000292e-05
1.0000273e-05
1.0000302e-05
1.0000379e-05
1.0000534e-05
1.0000376e-05
1.0000354e-05
1.0000347e-05
1.0000148e-05
1.0000089e-05
1.0000054e-05
1.0000032e-05
1.0000019e-05
1.0000072e-05
0.0010440678
0.002306324
0.0027939101
0.0026235198
0.0015986423
0.00024357773
1.3025363e-05
1.0225531e-05
1.0094754e-05
1.0084015e-05
1.0036353e-05
1.004094e-05
1.0011762e-05
1.0016478e-05
1.0008841e-05
1.0008537e-05
1.0005269e-05
1.0004352e-05
1.0003132e-05
1.0002772e-05
1.0002551e-05
1.0002408e-05
1.000219e-05
1.0001977e-05
1.0001838e-05
1.0001717e-05
1.0001542e-05
1.0001276e-05
1.0000968e-05
1.0000767e-05
1.0000727e-05
1.0000764e-05
1.0000625e-05
1.0000475e-05
1.0000364e-05
1.0000324e-05
1.0000293e-05
1.0000267e-05
1.0000293e-05
1.0000355e-05
1.0000508e-05
1.0000342e-05
1.0000347e-05
1.0000333e-05
1.0000146e-05
1.000009e-05
1.0000054e-05
1.0000032e-05
1.0000018e-05
1.000007e-05
0.0010366019
0.002264227
0.0027121081
0.0024992896
0.0014094918
0.00018226374
1.1811194e-05
1.0219484e-05
1.0092347e-05
1.0080455e-05
1.0032578e-05
1.0037845e-05
1.0011584e-05
1.0016157e-05
1.0008704e-05
1.0008377e-05
1.000521e-05
1.0004305e-05
1.0003116e-05
1.0002761e-05
1.0002552e-05
1.0002403e-05
1.0002179e-05
1.0001963e-05
1.0001822e-05
1.0001704e-05
1.0001534e-05
1.0001273e-05
1.0000969e-05
1.0000765e-05
1.0000724e-05
1.0000767e-05
1.0000634e-05
1.0000481e-05
1.0000365e-05
1.0000324e-05
1.0000294e-05
1.0000264e-05
1.0000284e-05
1.0000334e-05
1.0000469e-05
1.0000335e-05
1.000034e-05
1.0000315e-05
1.0000144e-05
1.0000091e-05
1.0000055e-05
1.0000032e-05
1.0000017e-05
1.0000069e-05
0.0010293291
0.0022227962
0.0026326204
0.0023757324
0.0012265155
0.00013405449
1.1120026e-05
1.0214747e-05
1.0088008e-05
1.0076037e-05
1.0028905e-05
1.0034721e-05
1.001139e-05
1.0015836e-05
1.0008571e-05
1.0008216e-05
1.0005151e-05
1.0004256e-05
1.0003099e-05
1.000275e-05
1.0002554e-05
1.0002398e-05
1.0002168e-05
1.0001949e-05
1.0001808e-05
1.0001691e-05
1.0001526e-05
1.0001269e-05
1.0000969e-05
1.0000763e-05
1.000072e-05
1.0000769e-05
1.0000644e-05
1.0000489e-05
1.0000366e-05
1.0000323e-05
1.0000295e-05
1.0000261e-05
1.0000275e-05
1.0000317e-05
1.0000421e-05
1.0000326e-05
1.0000333e-05
1.0000294e-05
1.0000143e-05
1.0000093e-05
1.0000056e-05
1.0000033e-05
1.0000017e-05
1.0000067e-05
0.0010221015
0.0021816059
0.0025529012
0.0022512153
0.0010519966
9.7109019e-05
1.0740271e-05
1.0210178e-05
1.0086537e-05
1.0072947e-05
1.0026288e-05
1.003193e-05
1.0011144e-05
1.0015504e-05
1.0008441e-05
1.0008054e-05
1.0005092e-05
1.0004206e-05
1.0003082e-05
1.0002738e-05
1.0002557e-05
1.0002393e-05
1.0002157e-05
1.0001935e-05
1.0001793e-05
1.0001678e-05
1.0001518e-05
1.0001266e-05
1.0000969e-05
1.0000761e-05
1.0000716e-05
1.000077e-05
1.0000652e-05
1.0000498e-05
1.0000369e-05
1.0000322e-05
1.0000295e-05
1.0000258e-05
1.0000266e-05
1.0000303e-05
1.0000372e-05
1.0000318e-05
1.0000325e-05
1.0000274e-05
1.0000141e-05
1.0000094e-05
1.0000057e-05
1.0000034e-05
1.0000017e-05
1.0000066e-05
0.001014866
0.0021405571
0.0024731741
0.0021240859
0.00088850324
6.9565174e-05
1.0533409e-05
1.0204419e-05
1.0086109e-05
1.0071566e-05
1.0025108e-05
1.0030396e-05
1.0010944e-05
1.0015179e-05
1.0008314e-05
1.0007891e-05
1.0005032e-05
1.0004155e-05
1.0003065e-05
1.0002727e-05
1.000256e-05
1.0002388e-05
1.0002146e-05
1.0001921e-05
1.0001778e-05
1.0001666e-05
1.0001509e-05
1.0001262e-05
1.0000968e-05
1.0000759e-05
1.0000711e-05
1.0000769e-05
1.0000659e-05
1.0000508e-05
1.0000373e-05
1.0000321e-05
1.0000296e-05
1.0000255e-05
1.0000255e-05
1.0000293e-05
1.000033e-05
1.000031e-05
1.0000318e-05
1.0000252e-05
1.0000141e-05
1.0000095e-05
1.0000057e-05
1.0000035e-05
1.0000017e-05
1.0000065e-05
0.0010074922
0.0020996764
0.0023935187
0.0019947357
0.00073896231
4.9787362e-05
1.0419995e-05
1.0199644e-05
1.0083793e-05
1.0069839e-05
1.0024585e-05
1.0029937e-05
1.0010763e-05
1.0014846e-05
1.000819e-05
1.0007728e-05
1.0004973e-05
1.0004103e-05
1.0003047e-05
1.0002715e-05
1.0002565e-05
1.0002383e-05
1.0002134e-05
1.0001906e-05
1.0001763e-05
1.0001653e-05
1.0001501e-05
1.0001257e-05
1.0000967e-05
1.0000757e-05
1.0000706e-05
1.0000767e-05
1.0000664e-05
1.0000517e-05
1.0000378e-05
1.000032e-05
1.0000296e-05
1.0000252e-05
1.0000245e-05
1.0000283e-05
1.0000303e-05
1.0000304e-05
1.0000311e-05
1.0000229e-05
1.0000141e-05
1.0000097e-05
1.0000058e-05
1.0000035e-05
1.0000017e-05
1.0000064e-05
0.0010000483
0.0020593597
0.0023139915
0.0018655174
0.00060471191
3.5989773e-05
1.0356028e-05
1.0194452e-05
1.0081631e-05
1.0068169e-05
1.0023985e-05
1.0029204e-05
1.0010626e-05
1.0014519e-05
1.0008069e-05
1.0007566e-05
1.0004914e-05
1.0004051e-05
1.000303e-05
1.0002704e-05
1.0002572e-05
1.0002378e-05
1.0002122e-05
1.0001891e-05
1.0001748e-05
1.000164e-05
1.0001492e-05
1.0001253e-05
1.0000965e-05
1.0000754e-05
1.0000701e-05
1.0000762e-05
1.0000667e-05
1.0000524e-05
1.0000385e-05
1.0000318e-05
1.0000296e-05
1.0000248e-05
1.0000234e-05
1.0000272e-05
1.0000298e-05
1.0000297e-05
1.0000304e-05
1.0000204e-05
1.0000141e-05
1.0000098e-05
1.0000059e-05
1.0000036e-05
1.0000018e-05
1.0000063e-05
0.00099272651
0.0020202862
0.0022348743
0.0017314314
0.00048693643
2.6652881e-05
1.0318158e-05
1.0189281e-05
1.007944e-05
1.0066446e-05
1.0023368e-05
1.0028511e-05
1.0010493e-05
1.0014183e-05
1.000795e-05
1.0007404e-05
1.0004855e-05
1.0003999e-05
1.0003012e-05
1.0002693e-05
1.0002575e-05
1.0002373e-05
1.000211e-05
1.0001876e-05
1.0001733e-05
1.0001627e-05
1.0001484e-05
1.0001249e-05
1.0000964e-05
1.0000752e-05
1.0000696e-05
1.0000753e-05
1.0000667e-05
1.0000529e-05
1.0000391e-05
1.0000317e-05
1.0000296e-05
1.0000247e-05
1.0000226e-05
1.0000262e-05
1.0000294e-05
1.0000289e-05
1.0000296e-05
1.0000184e-05
1.0000142e-05
1.0000099e-05
1.000006e-05
1.0000037e-05
1.0000018e-05
1.0000061e-05
0.00098563729
0.00198295
0.0021597449
0.0015932227
0.00038967109
2.0541657e-05
1.0294245e-05
1.0184069e-05
1.0077243e-05
1.0064707e-05
1.0022753e-05
1.00278e-05
1.001037e-05
1.0013853e-05
1.0007833e-05
1.0007244e-05
1.0004796e-05
1.0003948e-05
1.0002995e-05
1.0002682e-05
1.0002579e-05
1.0002369e-05
1.0002097e-05
1.000186e-05
1.0001717e-05
1.0001613e-05
1.0001475e-05
1.0001244e-05
1.0000962e-05
1.000075e-05
1.0000691e-05
1.0000746e-05
1.0000665e-05
1.0000532e-05
1.0000398e-05
1.0000316e-05
1.0000296e-05
1.0000247e-05
1.0000221e-05
1.0000252e-05
1.0000291e-05
1.000028e-05
1.0000287e-05
1.0000172e-05
1.0000143e-05
1.00001e-05
1.0000061e-05
1.0000035e-05
1.0000019e-05
1.000006e-05
0.00097872111
0.0019466254
0.002091824
0.0014502941
0.00030663464
1.6577594e-05
1.0278193e-05
1.0178826e-05
1.0075038e-05
1.006294e-05
1.0022138e-05
1.0027081e-05
1.0010258e-05
1.0013518e-05
1.0007719e-05
1.0007086e-05
1.0004739e-05
1.0003896e-05
1.0002978e-05
1.0002672e-05
1.0002583e-05
1.0002364e-05
1.0002085e-05
1.0001844e-05
1.0001702e-05
1.00016e-05
1.0001466e-05
1.000124e-05
1.0000961e-05
1.0000748e-05
1.0000688e-05
1.0000739e-05
1.0000662e-05
1.0000533e-05
1.0000405e-05
1.0000316e-05
1.0000295e-05
1.0000247e-05
1.0000219e-05
1.0000242e-05
1.0000286e-05
1.0000271e-05
1.0000279e-05
1.0000167e-05
1.0000144e-05
1.0000101e-05
1.0000062e-05
1.0000031e-05
1.0000019e-05
1.0000059e-05
0.00097187369
0.0019099958
0.0020195969
0.0013031719
0.00023694889
1.4095338e-05
1.026611e-05
1.0173564e-05
1.0072825e-05
1.006115e-05
1.0021525e-05
1.0026354e-05
1.0010154e-05
1.0013187e-05
1.0007607e-05
1.0006931e-05
1.0004682e-05
1.0003845e-05
1.0002961e-05
1.0002662e-05
1.0002586e-05
1.000236e-05
1.0002072e-05
1.0001827e-05
1.0001685e-05
1.0001586e-05
1.0001456e-05
1.0001236e-05
1.000096e-05
1.0000745e-05
1.0000685e-05
1.0000731e-05
1.0000657e-05
1.0000531e-05
1.000041e-05
1.0000315e-05
1.0000294e-05
1.0000248e-05
1.0000218e-05
1.0000234e-05
1.0000281e-05
1.0000261e-05
1.0000264e-05
1.0000164e-05
1.0000145e-05
1.0000102e-05
1.0000063e-05
1.0000025e-05
1.000002e-05
1.0000058e-05
0.00096531564
0.0018740972
0.0019498547
0.0011556675
0.00018036808
1.2594888e-05
1.0256001e-05
1.016831e-05
1.0070611e-05
1.0059346e-05
1.0020915e-05
1.0025624e-05
1.0010057e-05
1.0012855e-05
1.0007496e-05
1.0006783e-05
1.0004625e-05
1.0003794e-05
1.0002945e-05
1.0002652e-05
1.0002589e-05
1.0002355e-05
1.000206e-05
1.0001811e-05
1.0001668e-05
1.0001572e-05
1.0001447e-05
1.0001232e-05
1.0000958e-05
1.0000743e-05
1.0000682e-05
1.0000723e-05
1.0000652e-05
1.0000529e-05
1.0000413e-05
1.0000316e-05
1.0000293e-05
1.0000248e-05
1.0000217e-05
1.0000228e-05
1.0000274e-05
1.0000252e-05
1.0000243e-05
1.0000161e-05
1.0000146e-05
1.0000103e-05
1.0000064e-05
1.0000018e-05
1.000002e-05
1.0000057e-05
0.00095898064
0.0018383335
0.0018792465
0.0010136056
0.00013554119
1.1708457e-05
1.0246958e-05
1.0163048e-05
1.0068393e-05
1.0057526e-05
1.002031e-05
1.002489e-05
1.0009968e-05
1.0012526e-05
1.0007388e-05
1.0006638e-05
1.0004569e-05
1.0003745e-05
1.000293e-05
1.0002643e-05
1.000259e-05
1.000235e-05
1.0002048e-05
1.0001794e-05
1.0001651e-05
1.0001557e-05
1.0001437e-05
1.0001227e-05
1.0000957e-05
1.0000742e-05
1.0000679e-05
1.0000715e-05
1.0000646e-05
1.0000525e-05
1.0000414e-05
1.0000316e-05
1.0000292e-05
1.0000249e-05
1.0000216e-05
1.0000224e-05
1.0000267e-05
1.0000243e-05
1.0000222e-05
1.0000158e-05
1.0000147e-05
1.0000104e-05
1.0000066e-05
1.0000018e-05
1.0000021e-05
1.0000056e-05
0.00095252537
0.0018002183
0.0018074608
0.00088159571
0.00010089774
1.1193572e-05
1.0238486e-05
1.0157798e-05
1.0066178e-05
1.00557e-05
1.001971e-05
1.0024156e-05
1.0009884e-05
1.0012198e-05
1.0007283e-05
1.0006496e-05
1.0004513e-05
1.0003697e-05
1.0002915e-05
1.0002635e-05
1.0002592e-05
1.0002346e-05
1.0002036e-05
1.0001777e-05
1.0001633e-05
1.0001542e-05
1.0001426e-05
1.0001222e-05
1.0000956e-05
1.0000741e-05
1.0000676e-05
1.0000707e-05
1.0000641e-05
1.0000522e-05
1.0000415e-05
1.0000317e-05
1.0000291e-05
1.0000249e-05
1.0000215e-05
1.000022e-05
1.0000259e-05
1.0000234e-05
1.0000202e-05
1.0000155e-05
1.0000148e-05
1.0000104e-05
1.0000068e-05
1.0000018e-05
1.0000022e-05
1.0000055e-05
0.0009458662
0.0017598788
0.0017331392
0.00075899775
7.4568686e-05
1.0895886e-05
1.0230347e-05
1.0152553e-05
1.0063964e-05
1.0053867e-05
1.0019118e-05
1.0023422e-05
1.0009805e-05
1.0011875e-05
1.0007179e-05
1.0006357e-05
1.0004458e-05
1.000365e-05
1.0002902e-05
1.0002628e-05
1.0002592e-05
1.0002341e-05
1.0002025e-05
1.000176e-05
1.0001615e-05
1.0001526e-05
1.0001415e-05
1.0001217e-05
1.0000956e-05
1.0000741e-05
1.0000674e-05
1.0000702e-05
1.0000635e-05
1.0000519e-05
1.0000414e-05
1.0000318e-05
1.0000291e-05
1.000025e-05
1.0000215e-05
1.0000217e-05
1.0000249e-05
1.0000225e-05
1.0000179e-05
1.0000152e-05
1.0000149e-05
1.0000105e-05
1.0000068e-05
1.0000018e-05
1.0000023e-05
1.0000054e-05
0.0009388322
0.0017168192
0.0016550259
0.00064640264
5.5003902e-05
1.0722723e-05
1.0222458e-05
1.0147319e-05
1.0061755e-05
1.0052032e-05
1.0018534e-05
1.0022691e-05
1.0009731e-05
1.0011555e-05
1.0007078e-05
1.0006221e-05
1.0004404e-05
1.0003605e-05
1.0002889e-05
1.0002621e-05
1.0002591e-05
1.0002336e-05
1.0002013e-05
1.0001743e-05
1.0001597e-05
1.000151e-05
1.0001403e-05
1.0001212e-05
1.0000956e-05
1.0000742e-05
1.0000671e-05
1.0000698e-05
1.0000629e-05
1.0000516e-05
1.0000413e-05
1.0000319e-05
1.0000291e-05
1.000025e-05
1.0000214e-05
1.0000213e-05
1.0000238e-05
1.0000217e-05
1.0000153e-05
1.0000147e-05
1.000015e-05
1.0000106e-05
1.0000064e-05
1.0000019e-05
1.0000024e-05
1.0000054e-05
0.00093123293
0.0016704154
0.001568983
0.00054446136
4.0836081e-05
1.0619634e-05
1.0214799e-05
1.0142108e-05
1.0059555e-05
1.0050202e-05
1.0017961e-05
1.0021964e-05
1.0009659e-05
1.0011239e-05
1.0006978e-05
1.0006088e-05
1.0004351e-05
1.0003562e-05
1.0002877e-05
1.0002616e-05
1.000259e-05
1.0002331e-05
1.0002003e-05
1.0001727e-05
1.0001578e-05
1.0001493e-05
1.000139e-05
1.0001206e-05
1.0000957e-05
1.0000744e-05
1.0000669e-05
1.0000694e-05
1.0000622e-05
1.0000514e-05
1.0000413e-05
1.0000319e-05
1.000029e-05
1.0000249e-05
1.0000214e-05
1.0000208e-05
1.0000224e-05
1.0000212e-05
1.0000129e-05
1.0000143e-05
1.000015e-05
1.0000107e-05
1.0000052e-05
1.0000019e-05
1.0000025e-05
1.0000053e-05
0.00092317592
0.0016211553
0.0014727815
0.00045426226
3.0812702e-05
1.0555183e-05
1.0207322e-05
1.0136916e-05
1.0057365e-05
1.0048377e-05
1.0017399e-05
1.0021244e-05
1.000959e-05
1.0010929e-05
1.000688e-05
1.0005959e-05
1.0004298e-05
1.000352e-05
1.0002865e-05
1.0002611e-05
1.0002587e-05
1.0002326e-05
1.0001993e-05
1.0001711e-05
1.0001559e-05
1.0001475e-05
1.0001377e-05
1.0001201e-05
1.0000959e-05
1.0000745e-05
1.0000668e-05
1.000069e-05
1.0000616e-05
1.0000512e-05
1.0000413e-05
1.000032e-05
1.0000289e-05
1.0000248e-05
1.0000213e-05
1.0000203e-05
1.0000208e-05
1.0000208e-05
1.0000117e-05
1.0000137e-05
1.0000149e-05
1.000011e-05
1.0000039e-05
1.0000019e-05
1.0000027e-05
1.0000052e-05
0.00091471191
0.001570171
0.0013686997
0.00037734384
2.3902352e-05
1.0512114e-05
1.0200007e-05
1.0131763e-05
1.005519e-05
1.0046567e-05
1.0016851e-05
1.0020533e-05
1.0009522e-05
1.0010625e-05
1.0006783e-05
1.0005834e-05
1.0004247e-05
1.000348e-05
1.0002855e-05
1.0002608e-05
1.0002584e-05
1.000232e-05
1.0001983e-05
1.0001696e-05
1.000154e-05
1.0001457e-05
1.0001364e-05
1.0001197e-05
1.000096e-05
1.0000746e-05
1.0000666e-05
1.0000685e-05
1.000061e-05
1.000051e-05
1.0000414e-05
1.000032e-05
1.0000287e-05
1.0000246e-05
1.0000213e-05
1.0000197e-05
1.0000191e-05
1.0000204e-05
1.0000114e-05
1.0000132e-05
1.0000147e-05
1.0000112e-05
1.0000026e-05
1.0000019e-05
1.0000029e-05
1.0000052e-05
0.00090591358
0.0015178279
0.0012584863
0.00030882775
1.9182657e-05
1.0480649e-05
1.0192794e-05
1.0126631e-05
1.005303e-05
1.0044767e-05
1.0016317e-05
1.0019832e-05
1.0009454e-05
1.0010327e-05
1.0006687e-05
1.0005713e-05
1.0004196e-05
1.0003442e-05
1.0002846e-05
1.0002606e-05
1.0002579e-05
1.0002314e-05
1.0001974e-05
1.0001682e-05
1.0001522e-05
1.0001439e-05
1.0001351e-05
1.0001192e-05
1.000096e-05
1.0000747e-05
1.0000665e-05
1.000068e-05
1.0000604e-05
1.0000507e-05
1.0000414e-05
1.0000321e-05
1.0000286e-05
1.0000245e-05
1.000021e-05
1.0000188e-05
1.0000173e-05
1.0000199e-05
1.0000111e-05
1.0000126e-05
1.0000143e-05
1.0000112e-05
1.0000024e-05
1.000002e-05
1.0000031e-05
1.0000051e-05
0.00089671212
0.0014631822
0.0011497205
0.00024935937
1.6024192e-05
1.0455712e-05
1.0185685e-05
1.0121551e-05
1.0050891e-05
1.0042992e-05
1.00158e-05
1.0019146e-05
1.0009386e-05
1.0010037e-05
1.0006593e-05
1.0005597e-05
1.0004147e-05
1.0003406e-05
1.0002837e-05
1.0002605e-05
1.0002574e-05
1.0002308e-05
1.0001966e-05
1.0001668e-05
1.0001503e-05
1.0001421e-05
1.0001339e-05
1.0001186e-05
1.0000959e-05
1.0000748e-05
1.0000664e-05
1.0000675e-05
1.0000598e-05
1.0000504e-05
1.0000415e-05
1.0000322e-05
1.0000284e-05
1.0000242e-05
1.0000207e-05
1.0000177e-05
1.0000156e-05
1.0000185e-05
1.0000108e-05
1.0000119e-05
1.000014e-05
1.0000113e-05
1.0000024e-05
1.000002e-05
1.0000033e-05
1.0000051e-05
0.00088736617
0.0014045961
0.0010434491
0.00019842761
1.3963976e-05
1.0434405e-05
1.0178661e-05
1.011652e-05
1.0048777e-05
1.0041242e-05
1.00153e-05
1.0018474e-05
1.0009317e-05
1.0009754e-05
1.00065e-05
1.0005484e-05
1.0004099e-05
1.0003372e-05
1.000283e-05
1.0002605e-05
1.0002567e-05
1.0002302e-05
1.0001958e-05
1.0001654e-05
1.0001485e-05
1.0001405e-05
1.0001328e-05
1.0001178e-05
1.0000958e-05
1.000075e-05
1.0000663e-05
1.000067e-05
1.0000592e-05
1.0000498e-05
1.0000414e-05
1.0000323e-05
1.0000282e-05
1.000024e-05
1.0000203e-05
1.0000166e-05
1.0000142e-05
1.0000174e-05
1.0000105e-05
1.0000113e-05
1.0000138e-05
1.0000111e-05
1.0000025e-05
1.000002e-05
1.0000035e-05
1.0000051e-05
0.00087903612
0.0013537775
0.00093715932
0.00015547244
1.2651576e-05
1.0414983e-05
1.0171706e-05
1.0111539e-05
1.0046689e-05
1.003952e-05
1.0014821e-05
1.001782e-05
1.0009246e-05
1.0009479e-05
1.0006408e-05
1.0005376e-05
1.0004053e-05
1.0003341e-05
1.0002823e-05
1.0002607e-05
1.000256e-05
1.0002295e-05
1.000195e-05
1.0001642e-05
1.0001468e-05
1.000139e-05
1.0001315e-05
1.0001169e-05
1.0000956e-05
1.0000751e-05
1.0000662e-05
1.0000665e-05
1.0000586e-05
1.0000492e-05
1.0000411e-05
1.0000323e-05
1.0000281e-05
1.0000236e-05
1.0000199e-05
1.0000156e-05
1.000013e-05
1.0000161e-05
1.0000103e-05
1.0000107e-05
1.0000136e-05
1.000009e-05
1.0000025e-05
1.000002e-05
1.0000036e-05
1.0000051e-05
0.00087085715
0.0013011607
0.00083241326
0.0001202328
1.1829606e-05
1.0396612e-05
1.0164834e-05
1.0106628e-05
1.0044632e-05
1.0037834e-05
1.0014362e-05
1.0017185e-05
1.0009173e-05
1.0009213e-05
1.0006319e-05
1.0005273e-05
1.0004008e-05
1.0003311e-05
1.0002817e-05
1.0002612e-05
1.0002552e-05
1.0002289e-05
1.0001942e-05
1.000163e-05
1.0001453e-05
1.0001375e-05
1.0001302e-05
1.000116e-05
1.0000954e-05
1.0000753e-05
1.0000661e-05
1.000066e-05
1.000058e-05
1.0000483e-05
1.0000405e-05
1.0000322e-05
1.0000279e-05
1.0000233e-05
1.0000196e-05
1.0000148e-05
1.0000122e-05
1.0000147e-05
1.00001e-05
1.0000102e-05
1.0000133e-05
1.0000063e-05
1.0000025e-05
1.000002e-05
1.0000038e-05
1.0000051e-05
0.00086308546
0.0012478912
0.0007311906
9.1971318e-05
1.1323187e-05
1.0378903e-05
1.0158037e-05
1.0101786e-05
1.0042611e-05
1.0036186e-05
1.0013925e-05
1.001657e-05
1.0009096e-05
1.0008954e-05
1.0006232e-05
1.0005174e-05
1.0003965e-05
1.0003283e-05
1.0002812e-05
1.0002612e-05
1.0002544e-05
1.0002281e-05
1.0001935e-05
1.000162e-05
1.000144e-05
1.0001362e-05
1.0001288e-05
1.0001151e-05
1.0000951e-05
1.0000755e-05
1.000066e-05
1.0000655e-05
1.0000574e-05
1.0000473e-05
1.0000397e-05
1.0000322e-05
1.0000278e-05
1.000023e-05
1.0000194e-05
1.0000144e-05
1.0000117e-05
1.0000134e-05
1.0000097e-05
1.0000097e-05
1.0000129e-05
1.0000045e-05
1.0000026e-05
1.000002e-05
1.000004e-05
1.0000052e-05
0.00085583652
0.0011933269
0.00063504529
6.9857514e-05
1.1013634e-05
1.036205e-05
1.0151322e-05
1.0097016e-05
1.0040627e-05
1.0034578e-05
1.0013513e-05
1.0015975e-05
1.0009014e-05
1.0008688e-05
1.0006145e-05
1.000508e-05
1.0003923e-05
1.0003258e-05
1.0002807e-05
1.0002611e-05
1.0002536e-05
1.0002274e-05
1.0001927e-05
1.0001611e-05
1.0001429e-05
1.0001347e-05
1.0001273e-05
1.0001141e-05
1.0000948e-05
1.0000757e-05
1.000066e-05
1.000065e-05
1.0000568e-05
1.0000462e-05
1.0000386e-05
1.0000321e-05
1.0000276e-05
1.0000228e-05
1.0000191e-05
1.0000142e-05
1.0000114e-05
1.0000122e-05
1.0000094e-05
1.0000091e-05
1.000012e-05
1.0000034e-05
1.0000026e-05
1.0000021e-05
1.0000043e-05
1.0000052e-05
0.00084939239
0.0011384591
0.00054527185
5.295046e-05
1.082383e-05
1.0346936e-05
1.0144694e-05
1.0092318e-05
1.0038684e-05
1.0033015e-05
1.0013125e-05
1.0015401e-05
1.0008929e-05
1.0008416e-05
1.0006059e-05
1.000499e-05
1.0003883e-05
1.0003234e-05
1.0002803e-05
1.000261e-05
1.0002528e-05
1.0002266e-05
1.000192e-05
1.0001604e-05
1.0001419e-05
1.0001332e-05
1.0001259e-05
1.0001131e-05
1.0000944e-05
1.0000758e-05
1.0000659e-05
1.0000644e-05
1.0000564e-05
1.0000452e-05
1.0000374e-05
1.000032e-05
1.0000273e-05
1.0000226e-05
1.0000189e-05
1.0000141e-05
1.0000112e-05
1.0000111e-05
1.000009e-05
1.0000086e-05
1.0000111e-05
1.0000034e-05
1.0000026e-05
1.0000021e-05
1.0000046e-05
1.0000053e-05
0.00084373306
0.0010863149
0.00046269756
4.0332166e-05
1.0705548e-05
1.0332239e-05
1.0138139e-05
1.0087702e-05
1.0036786e-05
1.00315e-05
1.0012765e-05
1.0014849e-05
1.0008841e-05
1.0008177e-05
1.0005974e-05
1.0004905e-05
1.0003844e-05
1.0003213e-05
1.0002799e-05
1.0002609e-05
1.000252e-05
1.0002258e-05
1.0001914e-05
1.00016e-05
1.000141e-05
1.0001316e-05
1.0001245e-05
1.0001122e-05
1.0000941e-05
1.0000759e-05
1.0000659e-05
1.000064e-05
1.0000561e-05
1.0000444e-05
1.0000361e-05
1.0000319e-05
1.0000269e-05
1.0000226e-05
1.0000187e-05
1.0000141e-05
1.000011e-05
1.0000101e-05
1.0000088e-05
1.0000081e-05
1.0000106e-05
1.0000034e-05
1.0000026e-05
1.0000022e-05
1.0000048e-05
1.0000054e-05
0.00083775537
0.0010242113
0.00038779392
3.1186263e-05
1.062911e-05
1.0317709e-05
1.0131667e-05
1.0083178e-05
1.0034938e-05
1.0030038e-05
1.0012432e-05
1.001432e-05
1.0008749e-05
1.0007969e-05
1.000589e-05
1.0004824e-05
1.0003808e-05
1.0003192e-05
1.0002795e-05
1.0002608e-05
1.0002513e-05
1.0002251e-05
1.0001909e-05
1.0001597e-05
1.00014e-05
1.0001301e-05
1.0001232e-05
1.0001113e-05
1.0000937e-05
1.0000759e-05
1.0000659e-05
1.0000637e-05
1.000056e-05
1.0000439e-05
1.0000351e-05
1.0000318e-05
1.0000267e-05
1.0000226e-05
1.0000184e-05
1.000014e-05
1.0000109e-05
1.0000098e-05
1.0000086e-05
1.0000075e-05
1.0000077e-05
1.0000033e-05
1.0000027e-05
1.0000023e-05
1.0000051e-05
1.0000055e-05
0.00083188589
0.00096105649
0.00032182496
2.4783154e-05
1.0575119e-05
1.030341e-05
1.0125281e-05
1.0078748e-05
1.0033144e-05
1.0028629e-05
1.0012128e-05
1.0013816e-05
1.0008655e-05
1.0007771e-05
1.0005807e-05
1.0004748e-05
1.0003773e-05
1.0003173e-05
1.0002792e-05
1.0002606e-05
1.0002505e-05
1.0002243e-05
1.0001906e-05
1.0001595e-05
1.0001389e-05
1.0001286e-05
1.0001219e-05
1.0001105e-05
1.0000933e-05
1.0000759e-05
1.0000659e-05
1.0000636e-05
1.0000559e-05
1.0000437e-05
1.0000344e-05
1.0000315e-05
1.0000264e-05
1.0000227e-05
1.0000182e-05
1.0000138e-05
1.0000108e-05
1.0000094e-05
1.0000085e-05
1.0000071e-05
1.0000058e-05
1.0000034e-05
1.0000027e-05
1.0000025e-05
1.0000053e-05
1.0000056e-05
0.00082558238
0.00089182424
0.00026464335
2.0379299e-05
1.053406e-05
1.0289324e-05
1.0118985e-05
1.0074417e-05
1.0031407e-05
1.0027279e-05
1.0011854e-05
1.0013336e-05
1.0008559e-05
1.0007583e-05
1.0005726e-05
1.0004676e-05
1.0003739e-05
1.0003156e-05
1.0002789e-05
1.0002605e-05
1.0002497e-05
1.0002238e-05
1.0001906e-05
1.0001592e-05
1.0001377e-05
1.0001271e-05
1.0001206e-05
1.0001098e-05
1.0000929e-05
1.0000758e-05
1.0000659e-05
1.0000636e-05
1.0000559e-05
1.0000436e-05
1.0000341e-05
1.0000311e-05
1.0000263e-05
1.0000227e-05
1.000018e-05
1.0000137e-05
1.0000107e-05
1.0000093e-05
1.0000084e-05
1.000007e-05
1.0000047e-05
1.0000035e-05
1.0000027e-05
1.0000026e-05
1.0000055e-05
1.0000057e-05
0.00081885956
0.00081978637
0.00021732446
1.7410423e-05
1.050035e-05
1.0275474e-05
1.0112795e-05
1.0070199e-05
1.0029733e-05
1.002599e-05
1.0011611e-05
1.0012882e-05
1.000846e-05
1.0007406e-05
1.0005647e-05
1.0004608e-05
1.0003707e-05
1.0003138e-05
1.0002785e-05
1.0002603e-05
1.0002491e-05
1.0002234e-05
1.0001907e-05
1.0001587e-05
1.0001365e-05
1.0001256e-05
1.0001193e-05
1.0001091e-05
1.0000926e-05
1.0000757e-05
1.0000659e-05
1.0000635e-05
1.0000559e-05
1.0000437e-05
1.0000341e-05
1.0000307e-05
1.0000261e-05
1.0000227e-05
1.0000178e-05
1.0000135e-05
1.0000106e-05
1.0000094e-05
1.0000084e-05
1.0000069e-05
1.0000045e-05
1.0000035e-05
1.0000027e-05
1.0000028e-05
1.0000058e-05
1.0000059e-05
0.00081101342
0.00074334568
0.00017850936
1.539672e-05
1.0470933e-05
1.0261859e-05
1.0106716e-05
1.0066102e-05
1.0028126e-05
1.0024764e-05
1.00114e-05
1.0012452e-05
1.0008361e-05
1.0007239e-05
1.0005569e-05
1.0004543e-05
1.0003675e-05
1.0003122e-05
1.0002782e-05
1.0002603e-05
1.0002486e-05
1.0002234e-05
1.0001908e-05
1.000158e-05
1.0001353e-05
1.0001241e-05
1.0001181e-05
1.0001084e-05
1.0000924e-05
1.0000756e-05
1.0000658e-05
1.0000634e-05
1.0000559e-05
1.0000439e-05
1.0000342e-05
1.0000305e-05
1.000026e-05
1.0000226e-05
1.0000177e-05
1.0000133e-05
1.0000104e-05
1.0000093e-05
1.0000083e-05
1.0000069e-05
1.0000045e-05
1.0000036e-05
1.0000027e-05
1.0000031e-05
1.0000061e-05
1.0000061e-05
0.0008025082
0.00065733508
0.00014648728
1.4015846e-05
1.0444129e-05
1.0248469e-05
1.0100751e-05
1.006213e-05
1.002659e-05
1.0023603e-05
1.0011222e-05
1.0012047e-05
1.000826e-05
1.0007081e-05
1.0005494e-05
1.0004482e-05
1.0003645e-05
1.0003105e-05
1.0002778e-05
1.0002605e-05
1.0002483e-05
1.0002236e-05
1.0001907e-05
1.0001572e-05
1.0001341e-05
1.0001226e-05
1.0001168e-05
1.0001078e-05
1.0000922e-05
1.0000754e-05
1.0000656e-05
1.0000633e-05
1.0000559e-05
1.0000439e-05
1.0000343e-05
1.0000303e-05
1.0000259e-05
1.0000223e-05
1.0000175e-05
1.0000131e-05
1.0000102e-05
1.0000091e-05
1.0000082e-05
1.0000068e-05
1.0000045e-05
1.0000036e-05
1.0000027e-05
1.0000034e-05
1.0000064e-05
1.0000063e-05
0.00079544718
0.00059701843
0.00012164254
1.3065748e-05
1.0418997e-05
1.02353e-05
1.0094906e-05
1.0058287e-05
1.0025128e-05
1.0022506e-05
1.0011076e-05
1.0011664e-05
1.000816e-05
1.0006933e-05
1.000542e-05
1.0004424e-05
1.0003614e-05
1.0003088e-05
1.0002774e-05
1.0002609e-05
1.0002484e-05
1.000224e-05
1.0001904e-05
1.0001564e-05
1.0001328e-05
1.000121e-05
1.0001155e-05
1.0001072e-05
1.0000922e-05
1.0000753e-05
1.0000654e-05
1.000063e-05
1.000056e-05
1.0000439e-05
1.0000344e-05
1.0000302e-05
1.0000259e-05
1.0000221e-05
1.0000174e-05
1.000013e-05
1.00001e-05
1.0000088e-05
1.000008e-05
1.0000067e-05
1.0000045e-05
1.0000036e-05
1.0000027e-05
1.000004e-05
1.0000067e-05
1.0000065e-05
0.00078881002
0.00054291894
0.00010104563
1.2394069e-05
1.0395031e-05
1.0222373e-05
1.0089193e-05
1.0054586e-05
1.0023745e-05
1.0021478e-05
1.0010965e-05
1.0011305e-05
1.0008064e-05
1.0006794e-05
1.0005348e-05
1.0004368e-05
1.0003584e-05
1.0003071e-05
1.0002768e-05
1.0002608e-05
1.0002488e-05
1.0002244e-05
1.00019e-05
1.0001556e-05
1.0001314e-05
1.0001194e-05
1.0001141e-05
1.0001066e-05
1.0000921e-05
1.0000752e-05
1.0000651e-05
1.0000626e-05
1.000056e-05
1.0000439e-05
1.0000344e-05
1.0000301e-05
1.000026e-05
1.0000218e-05
1.0000173e-05
1.0000129e-05
1.00001e-05
1.0000086e-05
1.0000078e-05
1.0000064e-05
1.0000045e-05
1.0000036e-05
1.0000028e-05
1.0000044e-05
1.0000071e-05
1.0000067e-05
0.00078273268
0.00049622071
8.4228544e-05
1.191559e-05
1.0371939e-05
1.0209694e-05
1.0083622e-05
1.0051035e-05
1.0022446e-05
1.0020516e-05
1.0010888e-05
1.0010969e-05
1.0007965e-05
1.0006664e-05
1.0005278e-05
1.0004314e-05
1.0003552e-05
1.0003053e-05
1.000276e-05
1.0002604e-05
1.0002493e-05
1.0002247e-05
1.0001895e-05
1.0001547e-05
1.00013e-05
1.0001176e-05
1.0001126e-05
1.0001059e-05
1.0000921e-05
1.0000751e-05
1.0000648e-05
1.0000623e-05
1.000056e-05
1.000044e-05
1.0000346e-05
1.00003e-05
1.0000261e-05
1.0000216e-05
1.0000173e-05
1.0000128e-05
1.0000099e-05
1.0000085e-05
1.0000077e-05
1.0000062e-05
1.0000045e-05
1.0000036e-05
1.000003e-05
1.0000049e-05
1.0000075e-05
1.000007e-05
0.00077751345
0.00045607436
7.0358488e-05
1.1569251e-05
1.0349559e-05
1.0197281e-05
1.007821e-05
1.0047644e-05
1.0021233e-05
1.0019621e-05
1.0010849e-05
1.0010647e-05
1.0007865e-05
1.0006541e-05
1.0005208e-05
1.0004261e-05