/*--------------------------------*- C++ -*----------------------------------*\
  =========                 |
  \\      /  F ield         | OpenFOAM: The Open Source CFD Toolbox
   \\    /   O peration     | Website:  https://openfoam.org
    \\  /    A nd           | Version:  8
     \\/     M anipulation  |
\*---------------------------------------------------------------------------*/
FoamFile
{
    version     2.0;
    format      ascii;
    class       volScalarField;
    location    "0.0499991";
    object      p;
}
// * * * * * * * * * * * * * * * * * * * * * * * * * * * * * * * * * * * * * //

dimensions      [1 -1 -2 0 0 0 0];

internalField   nonuniform List<scalar> 
20000
(
84605.149
84619.855
84636.211
84658.184
84688.734
84727.158
84778.951
84837.882
84911.173
85001.958
85103.781
85237.799
85381.581
85572.307
85777.578
86042.663
86332.515
86691.824
87093.827
87580.514
88145.926
88811.79
89562.877
90408.468
91336.598
92345.405
93409.067
94497.608
95569.834
96586.101
97510.06
98316.836
98992.242
99533.612
99936.037
100234.8
100461.26
100587.28
100625.79
100610.8
100564.18
100531.33
100457.32
100214.2
100043.61
100001.59
100048.49
100071.26
100064.74
100044.07
84421.667
84437.296
84454.145
84477.694
84511.436
84553.58
84611.039
84675.032
84753.126
84849.222
84955.198
85094.603
85242.522
85439.191
85649.038
85920.009
86215.311
86583.055
87000.518
87516.204
88108.537
88795.939
89559.749
90422.337
91372.919
92403.51
93486.424
94588.733
95667.73
96682.931
97599.141
98393.354
99054.635
99579.899
99967.394
100267.56
100484.16
100594.49
100625.53
100610.17
100566.31
100535.02
100415.04
100177.14
100048.31
100014.88
100054.47
100071.65
100065.22
100043.71
84285.476
84301.588
84318.883
84342.823
84378.108
84420.484
84479.144
84544.115
84623.265
84721.726
84829.45
84972.65
85124.051
85326.003
85539.871
85816.948
86121.759
86509.625
86952.054
87488.096
88096.312
88793.168
89576.166
90461.482
91435.981
92489.074
93590.795
94705.576
95789.164
96800.551
97705.902
98484.577
99128.727
99634.947
100006.8
100306.33
100507.76
100602.92
100627.3
100610.02
100571.36
100536.33
100364.94
100152.28
100053.7
100028.84
100059.78
100072.81
100065.65
100043.34
84165.849
84182.452
84200.334
84224.995
84262.021
84305.585
84366.089
84432.943
84513.781
84615.136
84724.965
84872.612
85027.588
85234.907
85455.081
85746.104
86069.3
86475.8
86933.365
87479.762
88095.68
88811.818
89618.668
90528.828
91528.444
92604.329
93724.239
94849.915
95935.59
96940.072
97831.215
98591.199
99214.995
99699.389
100056.16
100349.51
100532.29
100612.63
100631.19
100610.88
100579.09
100536.5
100318.45
100137.13
100058.38
100038.75
100064.43
100074.65
100066.04
100042.99
84071.698
84088.944
84107.566
84133.046
84171.988
84216.645
84279
84347.784
84430.256
84534.492
84646.673
84798.675
84957.597
85175.223
85407.576
85712.747
86047.757
86464.899
86929.34
87486.366
88120.139
88857.563
89689.372
90625.507
91650.807
92749.514
93886.684
95021.324
96106.27
97100.516
97974.022
98712.134
99312.28
99772.396
100115.72
100395.17
100558.09
100623.63
100636.99
100613
100588.07
100528.77
100282.03
100124.95
100062.64
100048.03
100069.09
100077.06
100066.46
100042.66
83998.43
84016.366
84035.79
84062.227
84103.115
84149.021
84213.074
84284.122
84369.078
84477.865
84594.781
84754.689
84920.483
85147.555
85387.953
85701.758
86042.034
86465.798
86943.445
87517.448
88171.111
88931.794
89789.585
90752.615
91804.113
92925.388
94078.566
95219.874
96300.941
97281.391
98133.758
98846.767
99419.871
99853.531
100184.06
100443.37
100585.36
100636.73
100644.68
100616.41
100595.33
100508.84
100256.88
100115.8
100064.97
100055.64
100073.63
100079.97
100066.87
100042.33
83944.58
83963.201
83983.353
84010.692
84053.642
84101.397
84168.366
84243.468
84332.27
84446.854
84568.332
84735.08
84905.842
85138.654
85382.621
85701.898
86051.568
86488.861
86982.02
87574.709
88250.287
89035.432
89920.238
90910.981
91988.966
93132.276
94299.847
95445.139
96518.867
97481.787
98309.479
98994.076
99536.753
99942.322
100259.57
100493.71
100614.02
100652.44
100654
100621.28
100598.88
100481.82
100237.73
100108.87
100066.07
100062.53
100077.97
100083.16
100067.15
100042.01
83912.499
83931.958
83953.053
83981.638
84027.03
84076.819
84146.291
84224.404
84315.601
84434.218
84558.256
84729.057
84902.589
85141.257
85392.241
85722.477
86083.936
86535.994
87046.442
87659.292
88358.132
89169.15
90082.093
91101.299
92205.893
93370.393
94550.348
95696.552
96759.194
97700.718
98500.146
99152.885
99661.95
100038.9
100340.4
100545.6
100643.68
100671.37
100664.59
100628.06
100600.39
100451.66
100221.75
100103.94
100066.59
100068.6
100082.11
100086.48
100067.3
100041.68
83898.709
83919.073
83941.016
83970.647
84017.806
84068.662
84139.222
84219.042
84311.273
84432.876
84559.237
84735.882
84915.87
85164.1
85423.965
85765.994
86140.527
86608.542
87137.57
87771.875
88495.453
89333.65
90275.833
91324.151
92455.237
93639.726
94829.636
95973.292
97020.853
97937.006
98704.469
99321.757
99794.542
100143.92
100424.32
100598.53
100674.71
100693.3
100676.64
100637.17
100600.85
100420.24
100207.81
100101.18
100067.32
100073.94
100086.17
100090
100067.38
100041.33
83898.249
83919.626
83942.605
83973.634
84023.206
84076.081
84148.866
84232.164
84327.181
84453.739
84583.398
84766.684
84952.455
85209.947
85479.075
85833.552
86222.115
86707.09
87256.002
87913.107
88662.816
89529.516
90501.994
91579.933
92737.134
93940.026
95137.029
96274.32
97302.59
98189.263
98920.9
99499.14
99933.887
100257.7
100509.13
100652.04
100707.32
100717.61
100690.4
100648.73
100600.27
100389.18
100195.33
100099.7
100068.88
100078.83
100090.24
100093.7
100067.44
100040.96
83918.204
83940.557
83964.451
83996.849
84048.713
84103.658
84178.606
84265.326
84363.418
84495.138
84629.146
84819.875
85011.452
85278.593
85557.729
85925.484
86329.164
86832.232
87402.346
88083.596
88860.852
89757.326
90761.062
91868.947
93051.563
94270.844
95471.638
96598.415
97602.958
98455.841
99147.645
99683.6
100079.81
100377.87
100594.11
100705.69
100742.15
100743.44
100705.92
100662.33
100594.36
100360
100184.08
100099.1
100071.45
100083.56
100094.32
100097.57
100067.48
100040.56
83954.739
83978.383
84003.573
84037.902
84092.317
84149.72
84227.255
84317.767
84419.013
84556.481
84695.095
84893.803
85092.454
85370.237
85660.335
86042.302
86462.201
86984.48
87577.111
88283.852
89090.044
90017.523
91053.365
92191.298
93398.269
94631.474
95832.337
96944.123
97920.232
98734.777
99382.8
99874.122
100232.6
100501.45
100678.29
100759.14
100780.29
100769.77
100722.91
100676.73
100580.8
100334.07
100174.23
100098.98
100075.43
100088.44
100098.39
100101.46
100067.52
100040.13
84013.349
84038.138
84064.398
84100.311
84156.922
84216.298
84296.328
84390.872
84495.431
84639.089
84782.661
84990.072
85196.37
85485.52
85787.423
86184.448
86621.651
87164.254
87780.742
88514.335
89350.853
90310.522
91379.182
92546.985
93776.837
95021.028
96217.809
97309.766
98252.385
99023.894
99624.678
100070.31
100392.2
100624.94
100760.94
100813.52
100820.74
100796.28
100740.81
100689.78
100558.98
100312.09
100166.12
100100.23
100080.9
100093.83
100102.38
100105.04
100067.55
100039.67
84090.972
84117.082
84144.561
84182.241
84241.298
84303.271
84386.239
84485.327
84593.514
84743.854
84892.666
85109.232
85323.7
85624.828
85939.33
86352.241
86807.829
87371.89
88013.569
88775.389
89643.611
90636.599
91738.621
92935.809
94186.618
95438.377
96626.486
97693.343
98597.075
99321.04
99872.144
100272.17
100556.18
100745.88
100841.76
100870.31
100862.1
100822.84
100759.05
100698.34
100532.75
100292.26
100159.13
100103.17
100087.56
100100.04
100106.65
100107.89
100067.58
100039.19
84188.497
84216.205
84245.335
84285.198
84347.254
84412.341
84498.231
84601.973
84713.812
84871.191
85025.384
85251.504
85474.608
85788.297
86116.206
86545.832
87020.935
87607.621
88275.891
89067.353
89968.651
90995.999
92131.722
93357.445
94626.81
95882.208
97056.544
98092.519
98951.837
99624.537
100124.77
100479.26
100720.04
100863.09
100922.08
100929.25
100903.31
100849.45
100777.48
100702.44
100505.24
100274.01
100152.57
100106.74
100094.88
100107.23
100112.17
100109.55
100067.59
100038.7
84307.56
84336.747
84367.376
84409.183
84474.244
84542.149
84631.019
84739.781
84855.556
85020.444
85180.456
85416.691
85649.004
85975.877
86318.051
86765.29
87261.092
87871.647
88567.961
89390.51
90326.223
91388.849
92558.349
93811.358
95096.377
96350.934
97505.795
98504.649
99314.425
99933.506
100382.3
100688.87
100879.95
100976.27
101004.17
100988.47
100943.92
100876.1
100796.59
100704.12
100478.1
100258.14
100146.48
100109.53
100102.64
100115.26
100119.39
100110.43
100067.49
100038.19
84445.249
84476.188
84508.727
84552.828
84621.27
84692.454
84784.647
84898.945
85018.902
85191.72
85357.791
85604.627
85846.723
86187.445
86544.836
87010.643
87528.433
88164.199
88890.078
89745.191
90716.608
91815.275
93018.315
94296.902
95594.115
96842.708
97971.717
98927.054
99683.307
100247.71
100643.3
100895.86
101034.37
101087.73
101087.19
101046.85
100983.54
100902.73
100817.15
100704.6
100452.01
100245.31
100143.25
100111.06
100111.13
100123.99
100127.72
100110.83
100067.13
100037.67
84604.637
84637.283
84671.696
84717.94
84789.639
84864.035
84959.35
85079.235
85203.353
85384.485
85556.944
85814.96
86067.564
86422.9
86796.556
87282
87823.148
88485.531
89242.528
90131.675
91140.008
92275.285
93511.279
94813.228
96118.541
97355.293
98451.475
99357.422
100057.84
100566.32
100902.99
101096.78
101183.54
101200.03
101168.79
101103.82
101021.86
100929.05
100839.07
100702.55
100427.67
100234.8
100141.87
100112.02
100119.84
100132.95
100136.58
100110.99
100066.63
100037.14
84782.067
84816.591
84853.089
84901.6
84976.717
85054.646
85153.471
85279.541
85408.13
85598.306
85777.693
86047.587
86311.496
86682.263
87073.325
87579.529
88145.487
88835.955
89625.645
90550.287
91596.65
92768.873
94036.83
95359.352
96667.911
97886.107
98942.238
99794.33
100437.69
100885.52
101156.92
101290.04
101330.94
101310.83
101248.23
101158.97
101058.69
100954.59
100859.64
100693.32
100405.95
100225.84
100141.46
100114.09
100128.06
100141.62
100145.43
100111.05
100066.05
100036.6
84977.414
85014.061
85053.045
85104.153
85182.986
85264.867
85367.433
85500.249
85633.535
85833.344
86020.127
86302.538
86578.582
86965.638
87375.32
87903.502
88495.75
89215.78
90039.727
91001.287
92086.659
93295.892
94594.373
95934.02
97240.089
98432.247
99441.568
100237.27
100820.88
101199.69
101402.1
101477.75
101476.58
101418.46
101324.92
101211.97
101094.05
100979.06
100872.14
100675.07
100387.25
100218.39
100141.95
100118.51
100135.91
100149.39
100153.6
100111.08
100065.42
100036.05
85192.305
85231.059
85272.55
85326.206
85408.814
85494.949
85601.286
85741.352
85879.543
86089.55
86284.242
86579.849
86868.96
87273.229
87702.822
88254.2
88874.237
89625.338
90485.121
91484.978
92610.177
93856.159
95183.19
96535.713
97832.571
98990.772
99947.921
100685.74
101201.82
101504.48
101637.94
101663.23
101617.74
101522.09
101398.38
101262.5
101128.12
101003.01
100877.87
100649.73
100369.72
100213.06
100145.38
100125.91
100143.97
100155.83
100159.94
100110.76
100064.72
100035.49
85424.627
85465.85
85510.431
85567.09
85653.686
85744.701
85854.913
86002.823
86146.09
86366.916
86570.107
86879.684
87182.879
87605.316
88056.105
88631.912
89281.23
90064.948
90962.162
92001.64
93167.287
94449.383
95802.342
97162.516
98442.491
99559.036
100460.7
101136.57
101574.68
101797.11
101868.26
101843.85
101753.53
101621.14
101468.17
101310.22
101161.03
101027.73
100880.03
100619.22
100352.73
100209.85
100151.52
100136.06
100152.98
100161.69
100163.38
100109.78
100063.91
100034.92
85678.249
85721.699
85769.036
85828.244
85918.445
86014.293
86128.195
86284.448
86433.187
86665.548
86877.986
87202.313
87520.629
87962.133
88435.377
89036.832
89716.999
90534.987
91471.265
92551.614
93758.097
95075.211
96450.663
97812.143
99066.859
100135.14
100979.38
101583.33
101934.91
102079.04
102093.63
102017.57
101883.2
101715.14
101533.93
101354.85
101192.67
101054.09
100880.59
100586.01
100336.35
100208.31
100159.8
100147.73
100163.36
100169.41
100165.06
100108.44
100063
100034.34
85946.165
85992.48
86043.418
86106.135
86200.62
86302.886
86420.907
86586.55
86741.158
86985.857
87208.176
87547.94
87882.33
88343.745
88840.726
89469.179
90181.889
91035.905
92012.882
93135.234
94382.641
95733.085
97126.598
98481.891
99702.832
100718.11
101500.58
102019.64
102279.6
102354.46
102311.05
102183.44
102006.23
101803.7
101595.37
101396.23
101222.72
101080.51
100877.93
100553.3
100321.25
100207.64
100168.28
100159.83
100175.08
100179.98
100165.82
100106.86
100062
100033.75
86235.426
86284.564
86339.093
86405.236
86503.664
86612.503
86734.491
86909.727
87070.376
87327.824
87560.643
87916.414
88267.857
88750.101
89272.269
89929.264
90676.395
91568.294
92587.571
93752.882
95040.909
96422.225
97828.183
99168.804
100348.07
101307.41
102017.34
102440.59
102611.36
102622.19
102518.87
102340.79
102122.17
101886.51
101652.3
101434.45
101250.86
101100.93
100868.17
100524.65
100308.35
100207.42
100175.15
100172.13
100187.78
100192.21
100166.13
100105.11
100060.95
100033.17
86543.466
86595.496
86653.677
86723.434
86825.723
86941.313
87067.469
87253.074
87420.183
87691.001
87934.99
88307.42
88677.061
89181.285
89730.35
90417.673
91201.211
92132.862
93195.928
94404.911
95732.743
97141.518
98553.016
99869.935
101000.96
101900.57
102522.21
102842.71
102934.66
102878.91
102716.17
102489.13
102230.68
101963.36
101704.59
101469.78
101277.45
101110.89
100849.76
100502.48
100298.36
100207.7
100180.13
100184.52
100200.21
100204.75
100166.23
100103.23
100059.86
100032.58
86868.18
86923.521
86985.916
87060
87166.16
87289.631
87419.831
87616.458
87790.24
88074.974
88330.856
88720.79
89110.094
89637.753
90215.65
90935.211
91757.182
92730.417
93838.61
95091.666
96457.822
97889.473
99298.353
100582.64
101660.65
102490.59
103009.77
103228.73
103247.72
103123.04
102902.33
102628.08
102331.56
102034.07
101752.07
101502.5
101303.66
101114.89
100825.37
100484.69
100293.4
100210.24
100185.93
100195.93
100210.74
100215.67
100166.13
100101.26
100058.74
100032.01
87212.241
87270.83
87337.306
87415.607
87525.202
87656.728
87791.065
87998.926
88179.891
88479.274
88748.259
89156.91
89567.681
90120.399
90729.118
91482.854
92345.231
93361.787
94516.257
95813.385
97215.53
98664.119
100061.24
101304.74
102325.89
103068.93
103475.64
103603.27
103546.96
103353.7
103076.9
102757.42
102424.67
102098.47
101794.54
101532.54
101330.26
101116.07
100796.36
100469.08
100291.27
100215.34
100194.03
100206.57
100218.39
100222.27
100164.47
100099.24
100057.61
100031.45
87571.75
87633.967
87704.77
87787.72
87900.782
88041.056
88180.02
88400.15
88589.234
88904.561
89188.195
89616.943
90050.999
90630.346
91271.803
92061.613
92966.331
94027.857
95229.529
96570.203
98004.909
99463.047
100838.82
102034.61
102990.77
103629.22
103921.31
103965.29
103830.46
103570.29
103239.57
102877.01
102509.88
102156.24
101831.86
101559.58
101354.75
101115.57
100763.58
100454.16
100290.52
100222.74
100204.48
100217.14
100224.64
100225.5
100161.6
100097.18
100056.47
100030.9
87947.008
88013.293
88088.734
88176.888
88293.794
88443.618
88588.032
88821.702
89019.987
89352.522
89652.263
90102.23
90561.197
91168.628
91844.706
92672.52
93621.471
94729.51
95979.013
97362.001
98824.51
100283.46
101628.47
102771.02
103646.74
104165.9
104351.23
104311.16
104097.27
103772.37
103390.2
102986.82
102586.97
102207.04
101864.18
101583.49
101367.75
101109.07
100728.55
100439.81
100290.43
100231.81
100216.74
100228.03
100232.84
100227.01
100158.11
100095.02
100055.3
100030.37
88340.22
88410.939
88491.091
88585.049
88706.678
88866.982
89017.429
89265.922
89474.124
89824.693
90141.673
90613.718
91099.141
91736.163
92448.832
93316.65
94311.713
95467.674
96765.244
98188.348
99672.384
101122.44
102427.92
103510.89
104285.26
104677.52
104766.75
104638.04
104346.76
103959.72
103528.76
103086.78
102655.69
102250.79
101892.24
101605.09
101373.24
101094
100693.99
100427.09
100292.37
100241.85
100229.54
100240.23
100244.1
100227.69
100154.33
100092.79
100054.12
100029.88
88754.004
88829.361
88914.198
89014.918
89141.878
89313.669
89470.117
89734.064
89952.584
90321.568
90656.899
91151.977
91665.593
92333.929
93085.302
93995.213
95038.203
96243.294
97588.594
99048.374
100546.07
101977.13
103235.34
104246.23
104899.92
105167.69
105164.33
104944.85
104578.52
104132.27
103655.31
103176.84
102715.86
102288.27
101917.33
101625.15
101374.9
101068.17
100663.23
100416.62
100296.01
100252.25
100242.17
100253.56
100257.62
100227.95
100150.41
100090.53
100052.96
100029.4
89190.063
89270.364
89360.201
89468.96
89600.631
89784.043
89945.937
90225.449
90454.979
90843.086
91198.303
91717.722
92261.528
92963.107
93755.397
94709.504
95802.155
97057.299
98449.203
99940.722
101442.74
102844.78
104048.94
104967.3
105485.74
105641.23
105539.63
105230.87
104792.35
104290.1
103769.95
103256.88
102767.83
102321.39
101940.65
101641.75
101374.48
101033.71
100636.9
100408.36
100300.82
100262.64
100254.17
100266.08
100270.93
100228.03
100146.42
100088.28
100051.83
100028.96
89645.196
89731.168
89826.574
89943.494
90078.76
90274.92
90443.083
90739.48
90981.4
91389.902
91766.837
92312.073
92888.188
93625.065
94460.533
95460.939
96604.813
97910.495
99346.804
100863.47
102359.46
103722.75
104863.28
105665.67
106044.55
106095.02
105891.32
105495.65
104988.25
104433.41
103872.76
103327.01
102812.79
102352.15
101961.56
101650.25
101368.55
100994.72
100613.97
100402.03
100306.32
100272.9
100265.59
100275.56
100279.63
100226.47
100142.42
100086.06
100050.74
100028.55
90118.223
90210.557
90311.639
90437.277
90577.547
90787.904
90963.207
91277.805
91533.382
91963.33
92363.808
92936.369
93546.992
94321.329
95202.245
96250.977
97447.433
98803.52
100280.64
101814.14
103293.35
104608.84
105668.95
106334.2
106581.07
106524.75
106218.52
105739
105166.42
104562.46
103963.87
103387.72
102852.64
102379.76
101975.31
101653.83
101357.39
100953.73
100594.17
100398.44
100312.24
100282.88
100276.52
100282.48
100283.94
100222.86
100138.49
100083.91
100049.7
100028.18
90614.249
90713.43
90820.043
90955.076
91100.015
91325.307
91508.239
91841.608
92112.172
92564.568
92990.552
93592.092
94239.532
95053.567
95982.166
97081.164
98331.23
99736.703
101249.37
102789.81
104241.49
105500.67
106455.24
106970.07
107096.35
106927.24
106520.74
105960.97
105327.18
104677.52
104043.56
103440.23
102888.8
102397.15
101981.89
101655.03
101341.02
100912.47
100576.93
100396.93
100318.5
100292.7
100287.15
100289.7
100285.92
100217.81
100134.66
100081.82
100048.7
100027.84
91132.444
91239.181
91351.297
91496.639
91646.089
91887.192
92078.662
92431.782
92718.9
93195.015
93648.615
94280.921
94967.559
95823.589
96802.043
97953.089
99257.327
100709.96
102251.08
103787.42
105200.7
106390.54
107213.6
107576.2
107586.36
107301.36
106797.74
106161.84
105470.96
104778.93
104112.5
103486.25
102919.47
102405.15
101984.43
101654.94
101318.85
100872.73
100561.77
100396.58
100325.31
100302.68
100297.89
100299.18
100286.72
100211.94
100130.94
100079.79
100047.74
100027.55
91671.609
91786.966
91904.841
92061.894
92216.458
92474.687
92675.754
93049.962
93355.193
93856.313
94339.729
95004.676
95732.94
96633.288
97663.699
98868.38
100226.64
101722.63
103283.24
104803.95
106168.06
107267.38
107936.16
108158.57
108045.88
107646.45
107049.6
106342.1
105598.24
104867.09
104171.85
103527.17
102936.2
102407.96
101985.3
101650.54
101289.3
100836.94
100548.99
100397.19
100332.87
100313.04
100309.21
100310.72
100286.98
100205.74
100127.28
100077.81
100046.83
100027.29
92234.375
92359.138
92482.922
92653.326
92813.67
93090.01
93301.227
93697.728
94022.729
94550.136
95065.694
95765.28
96537.625
97484.645
98569.022
99828.592
101239.71
102773.41
104342.87
105836.16
107139.98
108119.05
108623.08
108714.1
108473
107962.23
107276.71
106502.31
105709.44
104942.75
104223.21
103561.84
102943.45
102408.8
101984.6
101640.67
101251.14
100807.41
100539.22
100399.87
100341.23
100323.33
100320.21
100322.86
100287.07
100199.48
100123.67
100075.91
100045.98
100027.09
92823.726
92958.617
93088.373
93272.01
93438.58
93734.233
93956.463
94376.397
94723.194
95278.285
95828.437
96564.773
97383.695
98379.757
99519.98
100835.17
102296.59
103860.31
105426.75
106880.35
108106.25
108936.55
109278.33
109237.83
108866.8
108248.74
107479.59
106642.98
105805.1
105007.23
104268.11
103582.55
102945.93
102407.29
101980.89
101624.76
101208.23
100782.25
100532.27
100404.28
100350.34
100333.04
100329.21
100329.42
100285.69
100193.29
100120.16
100074.09
100045.19
100026.92
93438.485
93584.954
93721.129
93918.759
94091.797
94408.572
94643.054
95087.745
95458.5
96042.738
96629.999
97405.349
98273.407
99320.917
100518.63
101889.32
103396.69
104980.67
106531.47
107932.68
109054.5
109713.61
109905.01
109725.05
109226.87
108506.39
107658.83
106764.57
105886.12
105062.45
104306.42
103592.05
102946.05
102402.62
101973.96
101603.09
101163.32
100760.15
100527.67
100410.05
100360.08
100342.72
100336.6
100332.47
100282.18
100187.24
100116.79
100072.38
100044.48
100026.81
94077.687
94237.629
94382.731
94596.224
94775.573
95115.008
95363.201
95833.697
96230.613
96845.515
97472.574
98289.429
99209.272
100310.59
101567.01
102991.84
104538.67
106131.28
107653.11
108987.06
109971.89
110451.41
110498.54
110174.38
109553.16
108735.74
107815
106867.74
105954.2
105110.29
104332.43
103595.51
102941.96
102394.9
101963.77
101576.32
101118.06
100740.39
100524.85
100416.68
100369.9
100352.07
100344.22
100333.73
100276.84
100181.38
100113.56
100070.78
100043.84
100026.75
94746.428
94919.986
95073.267
95306.118
95492.204
95855.417
96118.441
96615.973
97041.465
97688.89
98358.719
99219.8
100194.06
101351.36
102666.94
104142.85
105720.36
107308.58
108787.09
110031.07
110847.99
111155.43
111052.85
110585.08
109846.01
108937.44
107948.78
106954.07
106011.93
105150.8
104345.44
103595.89
102933.75
102384.28
101950.2
101544.95
101073.61
100722.72
100523.61
100423.58
100379.59
100361.8
100353.17
100334.18
100270.08
100175.72
100110.5
100069.28
100043.27
100026.75
95453.769
95639.345
95796.936
96050.021
96242.853
96630.725
96910.684
97436.499
97893.59
98575.739
99291.523
100199.63
101230.8
102445.85
103819.89
105341.67
106938.77
108508.56
109928.37
111050.47
111678.81
111824.65
111564.53
110956.96
110105.97
109112.19
108061.46
107026.5
106061.66
105178.45
104350.6
103591.53
102921.67
102370.88
101932.85
101508.83
101031.43
100707.04
100523.42
100430.6
100389.05
100371.68
100363.09
100334.33
100262.38
100170.25
100107.6
100067.89
100042.78
100026.8
96191.037
96389.835
96550.563
96825.776
97027.654
97443.181
97741.997
98298.487
98790.398
99509.608
100274.5
101232.41
102322.68
103596.58
105026.79
106586.72
108190.19
109726.15
111067.61
112031.7
112466.79
112453.25
112032.37
111290.23
110333.8
109261.05
108155.45
107088.31
106102.51
105192.59
104351.93
103582.37
102906.09
102354.67
101910.94
101466.93
100993.5
100693.72
100524.31
100438.12
100398.24
100380.32
100370.76
100333.95
100254.22
100164.97
100104.86
100066.61
100042.37
100026.91
96958.5
97174.917
97343.14
97641.512
97852.285
98297.201
98617.051
99205.616
99735.768
100494.31
101311.36
102321.75
103472.88
104805.65
106287.6
107875.37
109470.39
110955.4
112189.9
112964.08
113217.51
113034.31
112455.81
111585.43
110530.46
109385.91
108234.15
107139.75
106125.99
105198.44
104348.85
103568.67
102887.33
102335.54
101883.72
101418.47
100961.84
100683.37
100526.96
100446.22
100406.79
100386.77
100374.56
100332.02
100245.92
100159.88
100102.27
100065.44
100042.05
100027.09
97762.965
97998.587
98173.531
98498.372
98719.01
99195.877
99539.389
100161.68
100733.63
101533.91
102406.05
103471.42
104684.48
106074.58
107601.28
109203.99
110774.34
112189.38
113278.57
113846.81
113925.18
113565.9
112834.92
111843.44
110697.48
109489.94
108300.01
107173.83
106136.72
105200.03
104340.76
103550.85
102865.7
102313.33
101850.9
101367.4
100934.65
100675.94
100531.02
100454.31
100414.25
100391.66
100376.26
100328.53
100237.52
100154.98
100099.8
100064.42
100041.81
100027.34
98607.232
98864.916
99047.053
99401.169
99632.653
100143.72
100513.66
101170.81
101788.19
102632.8
103562.72
104685.15
105960.11
107403.96
108965.59
110568.01
112095.33
113414.03
114319.21
114684.38
114582.39
114047.01
113170.16
112065.5
110837.23
109576.69
108350.58
107191.12
106140.9
105197.08
104327.92
103529.33
102841.42
102287.94
101812.93
101316.32
100910.95
100670.85
100535.72
100461.82
100420.84
100396.52
100376.91
100323.61
100229.34
100150.24
100097.49
100063.54
100041.69
100027.66
99497.836
99779.549
99967.783
100353.97
100597.35
101143.6
101543.79
102237.39
102904.08
103795.7
104785.65
105966.47
107301.78
108793.2
110377.06
111962.05
113425.46
114611.85
115304.25
115476.26
115184.11
114477.39
113462.48
112253.53
110953.1
109647.42
108379.34
107198.25
106140.61
105189.01
104310.75
103504.54
102814.68
102259.3
101770.61
101266.92
100890.17
100667.35
100540.45
100468.82
100427.55
100402.47
100377.14
100317.41
100221.53
100145.69
100095.32
100062.78
100041.69
100028.06
100436.31
100744.93
100938.24
101359.77
101617
102200.12
102634.98
103366.93
104086.58
105027.52
106078.96
107318.47
108710.63
110240.49
111830.99
113379.12
114753.67
115764.22
116234.68
116214.85
115728.66
114857.37
113713.37
112410.34
111048.63
109696.51
108392.16
107199.3
106134.4
105176.21
104289.76
103476.88
102785.56
102227.26
101724.61
101220.47
100872.08
100665.1
100545.24
100475.56
100434.49
100409.48
100377.17
100310.1
100213.98
100141.34
100093.31
100062.15
100041.78
100028.55
101425.14
101765.2
101963.68
102424.3
102697.86
103319.75
103793.62
104565.18
105340.65
106332.75
107446.33
108743.56
110186.64
111742.59
113321.49
114810.09
116060.84
116856.82
117115.71
116891.57
116215.27
115187.89
113925.1
112539.54
111125
109722.89
108396.22
107193.41
106122.78
105159.2
104265.42
103446.71
102754.06
102191.38
101674.84
101178.53
100856.75
100664.23
100550.45
100482.37
100440.75
100414.41
100375.77
100301.91
100206.74
100137.19
100091.46
100061.63
100041.98
100029.13
102471.56
102848.25
103052.22
103555.32
103847.23
104508.08
105025.1
105836.93
106670.46
107715.45
108891.13
110243.41
111728.43
113294.65
114840.97
116243.74
117325.78
117887.55
117938.95
117503.75
116644.04
115470.63
114100.92
112644.81
111175.34
109734.24
108392.28
107180.82
106106.32
105138.54
104238.21
103414.33
102720.07
102151.12
101621.06
101142.76
100844.14
100664.29
100555.7
100488.72
100446.39
100416.81
100372.91
100293.09
100199.77
100133.23
100089.76
100061.25
100042.31
100029.82
103584.41
104001.4
104208.15
104757.03
105070.03
105769.19
106333.38
107186.42
108080.15
109179.93
110416.73
111818.79
113333
114890.04
116378.96
117661.06
118529.32
118860.83
118694.45
118049.99
117015.92
115708.23
114244.78
112727.56
111201.44
109735.95
108379.87
107162.26
106085.71
105114.78
104208.61
103379.99
102683.44
102106.33
101565.7
101112.6
100833.74
100664.57
100560.59
100494.7
100451.58
100417.84
100368.65
100283.91
100193.03
100129.48
100088.21
100061.02
100042.76
100030.62
104767.46
105228.55
105435.13
106031.65
106369.6
107106.48
107722.65
108619.01
109575.13
110731.18
112026.12
113468.93
114995.22
116519.98
117922.25
119038.83
119664.19
119770.57
119377.03
118530.04
117332.85
115904.58
114360.45
112780.5
111212.29
109727.46
108359.86
107138.55
106061.58
105088.44
104177.04
103343.88
102644.06
102057.53
101511.93
101086.18
100824.82
100664.86
100565.39
100500.76
100456.39
100418.23
100363.12
100274.55
100186.52
100125.99
100086.83
100060.92
100043.34
100031.51
106022.76
106530.7
106735.38
107379.79
107748.06
108523.99
109199.15
110142.75
111162.7
112374.4
113720.95
115190.72
116707.33
118172.35
119452.12
120353.44
120731.74
120605.71
119984.53
118944.81
117597.98
116064.33
114449.42
112807.32
111212.25
109709.38
108333.21
107110.5
106034.58
105060.06
104143.94
103306.1
102601.86
102005.56
101461.2
101062.29
100816.78
100665.33
100570.39
100507.04
100461.06
100418.4
100356.53
100265.22
100180.28
100122.72
100085.61
100060.96
100044.04
100032.48
107351.27
107907.6
108113.27
108806.74
109212.95
110030.81
110772.08
111767.14
112850.54
114113.62
115500.38
116978.01
118458.59
119831.16
120942.37
121592.04
121728.16
121358.37
120516.29
119296.54
117815.77
116191.16
114505
112818.11
111200.27
109682.83
108300.93
107078.86
106005.27
105030.14
104109.68
103266.75
102556.91
101951.33
101413.88
101040.2
100809.3
100666.02
100575.71
100513.74
100465.93
100418.2
100349.06
100256.05
100174.34
100119.49
100084.55
100061.11
100044.85
100033.56
108759.31
109369.66
109587.34
110331.68
110787.28
111645.67
112453.07
113499.54
114643.92
115950.2
117360.01
118820.78
120234.27
121475.85
122364.87
122753.25
122640.63
122025.43
120973.15
119589.01
117991.39
116284.93
114533.1
112816.01
111177.71
109649.02
108263.95
107044.34
105974.23
104999.16
104074.59
103225.85
102509.3
101895.51
101369.65
101019.51
100802.3
100666.95
100581.46
100521.09
100471.42
100416.91
100340.85
100247.02
100168.61
100116.51
100083.64
100061.4
100045.78
100034.77
110283.99
110954.31
111191
111979.49
112493.63
113388.68
114254.86
115347.34
116545.65
117881.53
119291
120704.8
122014.2
123076.04
123702.6
123832.84
123459.21
122605.73
121357.79
119827.33
118128.77
116342.44
114543.4
112800.77
111145.97
109609.14
108223.15
107007.6
105941.99
104967.6
104039.01
103183.42
102459.12
101838.49
101328.32
101000.09
100795.87
100668.36
100587.75
100529.13
100477.36
100414.48
100332.06
100238.12
100163.04
100113.88
100082.86
100061.81
100046.82
100036.14
111941.79
112673.63
112932.59
113757.4
114324.86
115257.44
116184.03
117320.37
118555.92
119899.52
121279.37
122611.12
123773.43
124599.14
124952.11
124815.67
124179.82
123100.36
121674.93
120017.19
118226.21
116371.32
114538.65
112774.06
111106.54
109564.29
108179.37
106969.27
105909.06
104935.92
104003.23
103139.5
102406.29
101780.29
101290.42
100982
100790.16
100670.35
100594.62
100537.55
100480.86
100410.94
100322.8
100229.39
100157.78
100111.42
100082.17
100062.36
100047.99
100037.68
113736.6
114524.97
114806.98
115665.5
116288.92
117260.13
118244.19
119409.71
120664.7
121989.96
123305.68
124514
125476.5
126025.63
126105.39
125690.52
124800.9