/*--------------------------------*- C++ -*----------------------------------*\
  =========                 |
  \\      /  F ield         | OpenFOAM: The Open Source CFD Toolbox
   \\    /   O peration     | Website:  https://openfoam.org
    \\  /    A nd           | Version:  8
     \\/     M anipulation  |
\*---------------------------------------------------------------------------*/
FoamFile
{
    version     2.0;
    format      ascii;
    class       surfaceScalarField;
    location    "0.0499991";
    object      phi;
}
// * * * * * * * * * * * * * * * * * * * * * * * * * * * * * * * * * * * * * //

dimensions      [1 0 -1 0 0 0 0];

internalField   nonuniform List<scalar> 
39600
(
-0.00010577644
-0.0083303301
0.0084736935
-0.00012552612
-0.01173929
0.011758885
-0.00014289126
-0.015517107
0.015534315
-0.00016132884
-0.020157145
0.020175352
-0.00017651246
-0.025996654
0.026011307
-0.00028160937
-0.03316849
0.03327289
-0.0005560146
-0.04009511
0.040369036
-0.00088779765
-0.048256263
0.048587481
-0.0012820512
-0.057601585
0.057995168
-0.0017486927
-0.069164871
0.069630665
-0.0023033211
-0.082689439
0.083243119
-0.002965736
-0.099181524
0.099842779
-0.0037533243
-0.11866538
0.11945167
-0.004696992
-0.14223339
0.14317553
-0.0058207438
-0.17024767
0.17136972
-0.0071682179
-0.20397015
0.20531564
-0.0087763438
-0.24417778
0.24578378
-0.010706278
-0.29243397
0.2943617
-0.013005875
-0.35007185
0.35236932
-0.015748675
-0.41909757
0.42183855
-0.018972265
-0.50156695
0.50478923
-0.022818312
-0.60023163
0.60407634
-0.027433485
-0.71804305
0.72265718
-0.032973522
-0.85861174
0.8641491
-0.039621949
-1.0261501
1.0327951
-0.0476056
-1.2256775
1.2336523
-0.057195683
-1.4630864
1.4726659
-0.06870358
-1.7454817
1.7569825
-0.082486419
-2.0814866
2.0952635
-0.098937741
-2.4816475
2.4980849
-0.11848024
-2.9588654
2.9783859
-0.14158358
-3.5288866
3.5519572
-0.16879212
-4.21086
4.2380186
-0.20070243
-5.0277916
5.0596354
-0.2379988
-6.0076724
6.0448565
-0.28162565
-7.1837388
7.2272314
-0.33249261
-8.5944534
8.6451157
-0.39032773
-10.288459
10.345966
-0.45595847
-12.323068
12.388197
-0.53011272
-14.765336
14.838773
-0.61161808
-17.695254
17.775966
-0.69879462
-21.209448
21.29599
-0.7883109
-25.423585
25.510882
-0.86692313
-30.499212
30.574505
-0.94120944
-36.581641
36.653528
-0.98206536
-43.858977
43.898719
-0.9593621
-52.589454
52.566465
-0.83434906
-63.087206
62.962322
-0.5519161
-75.713918
75.430446
-90.900121
90.365288
2.8463071e-05
-0.0083287045
1.8423514e-05
-0.011729384
2.9142436e-06
-0.01550186
-1.6153574e-05
-0.020138373
-3.2628806e-05
-0.025980851
-0.00014899174
-0.033052817
-0.00040981203
-0.03983484
-0.00072505368
-0.047941591
-0.0011040753
-0.0572232
-0.0015589239
-0.068710802
-0.0021030863
-0.082146122
-0.0027572182
-0.098528416
-0.0035356061
-0.11788812
-0.0044697419
-0.1413006
-0.0055832168
-0.16913574
-0.0069217502
-0.20263344
-0.0085148943
-0.24258657
-0.010424227
-0.29052667
-0.012697234
-0.34780079
-0.015384437
-0.41641194
-0.018569659
-0.49838294
-0.022378624
-0.59642347
-0.026961605
-0.71346117
-0.032453785
-0.85312176
-0.039035818
-1.019571
-0.046939597
-1.217781
-0.056431074
-1.4536035
-0.067815849
-1.7341016
-0.081439482
-2.0678663
-0.09768516
-2.4654131
-0.11695961
-2.9396102
-0.13971623
-3.5061597
-0.16648117
-4.1841413
-0.19783315
-4.9965038
-0.2344419
-5.9711709
-0.27734007
-7.1409665
-0.32701947
-8.5449807
-0.38370732
-10.232107
-0.44820393
-12.259071
-0.52099866
-14.693241
-0.60109176
-17.615879
-0.6869335
-21.124352
-0.77361054
-25.339553
-0.85574674
-30.419921
-0.92853941
-36.511126
-0.97069182
-43.818507
-0.95214038
-52.608036
-0.83625395
-63.203043
-0.5684919
-75.982744
-91.411125
2.1775872e-05
-0.008327349
1.5667275e-05
-0.011723467
7.5624029e-06
-0.015494129
-3.0245489e-06
-0.020127918
-9.0555402e-06
-0.025975756
-0.00013019021
-0.032932226
-0.00038615377
-0.039579389
-0.00069525697
-0.047633036
-0.0010662413
-0.056852784
-0.001509408
-0.068268344
-0.0020384709
-0.081617799
-0.0026756199
-0.09789218
-0.0034293804
-0.11713536
-0.0043361958
-0.14039498
-0.0054155671
-0.16805778
-0.0067136601
-0.2013371
-0.0082593898
-0.24104262
-0.010093882
-0.28869375
-0.01226776
-0.34562839
-0.014863678
-0.41381731
-0.017951687
-0.49529601
-0.021667206
-0.59270881
-0.026121917
-0.70900708
-0.031463843
-0.8477813
-0.037880047
-1.0131566
-0.04560369
-1.2100625
-0.054902121
-1.4443111
-0.066080203
-1.7229255
-0.079478402
-2.0544686
-0.095473036
-2.4494265
-0.11445749
-2.9206416
-0.13687212
-3.4837714
-0.16322346
-4.1578317
-0.19407458
-4.9657136
-0.23007325
-5.9352693
-0.27229103
-7.0988677
-0.32099294
-8.4964868
-0.37669203
-10.176754
-0.44020353
-12.196074
-0.5118208
-14.622319
-0.59074203
-17.537595
-0.67554085
-21.040363
-0.76037112
-25.257679
-0.84446524
-30.338491
-0.91720863
-36.440008
-0.96059096
-43.776381
-0.94676344
-52.622105
-0.84026456
-63.309527
-0.587499
-76.236616
-91.897978
1.5204335e-05
-0.0083260897
8.600653e-06
-0.011717211
9.3350388e-07
-0.015486818
-9.0456304e-06
-0.020118372
-1.4283379e-05
-0.025971294
-0.0001427567
-0.032804504
-0.00039046896
-0.039332182
-0.00068729942
-0.047336758
-0.0010442957
-0.056496363
-0.0014712339
-0.067842079
-0.0019820149
-0.081107699
-0.0025970113
-0.097278028
-0.0033245036
-0.11640877
-0.0042045853
-0.13951609
-0.0052526945
-0.167011
-0.0065015529
-0.20008956
-0.0079767018
-0.23956888
-0.0097381635
-0.28693363
-0.011837491
-0.34353037
-0.014353499
-0.41130273
-0.017367283
-0.49228343
-0.020975467
-0.58910137
-0.025300916
-0.70468219
-0.030499892
-0.84258345
-0.036759274
-1.0068985
-0.044313633
-1.2025118
-0.053432799
-1.435196
-0.064419207
-1.7119387
-0.077611248
-2.0412748
-0.093374046
-2.4336691
-0.11209131
-2.9019372
-0.13418828
-3.4616976
-0.16015555
-4.1319021
-0.19053951
-4.9353868
-0.22597756
-5.8999148
-0.26753034
-7.0574327
-0.31535663
-8.4488693
-0.37015918
-10.122303
-0.43275336
-12.134003
-0.50330746
-14.552435
-0.58118542
-17.460309
-0.66512256
-20.957252
-0.74942735
-25.176086
-0.83400736
-30.256511
-0.90713091
-36.368399
-0.95238293
-43.732209
-0.94360439
-52.631015
-0.8465866
-63.406562
-0.60903667
-76.475311
-92.360497
1.0388211e-05
-0.0083256711
5.9408532e-06
-0.011712825
1.5152425e-06
-0.015482587
-4.3710262e-06
-0.020112731
-8.1324038e-06
-0.025968251
-0.00014257783
-0.032670617
-0.00038371291
-0.039091466
-0.00067214386
-0.047048852
-0.0010169285
-0.056152118
-0.001431776
-0.067427909
-0.0019218165
-0.080618378
-0.0025135168
-0.096687159
-0.0032234018
-0.11569978
-0.0040693615
-0.13867108
-0.0050685016
-0.16601293
-0.0062632665
-0.19889597
-0.0076859817
-0.23814735
-0.0093890578
-0.28523195
-0.011430704
-0.34149009
-0.013876891
-0.40885772
-0.016797652
-0.48936355
-0.020299013
-0.58560047
-0.024502215
-0.70047908
-0.029564941
-0.83752112
-0.035676982
-1.0007867
-0.04307449
-1.1951163
-0.052028806
-1.4262435
-0.062841829
-1.7011227
-0.075845914
-2.0282664
-0.091398509
-2.4181188
-0.10987052
-2.8834748
-0.13167607
-3.4399116
-0.15728842
-4.1063235
-0.18724505
-4.9054831
-0.22226184
-5.8649712
-0.26309684
-7.0167122
-0.31011385
-8.4020608
-0.36411347
-10.06866
-0.42586622
-12.072782
-0.49547811
-14.48349
-0.57244359
-17.383976
-0.6555944
-20.875234
-0.73957698
-25.094398
-0.82448517
-30.174093
-0.8987076
-36.296163
-0.94601991
-43.685863
-0.9425613
-52.634597
-0.85522306
-63.493983
-0.63325846
-76.698458
-92.798343
4.8832894e-06
-0.0083257311
1.6212909e-06
-0.011709785
-6.1368084e-07
-0.015480661
-3.284133e-06
-0.020110352
-8.8192157e-06
-0.025963474
-0.00014994836
-0.032529999
-0.00038439794
-0.038857455
-0.00066555815
-0.046768181
-0.00099705454
-0.055821098
-0.0013983448
-0.067027198
-0.0018706633
-0.080146615
-0.0024347541
-0.09612376
-0.0031108172
-0.11502447
-0.0039201439
-0.13786261
-0.0048826439
-0.16505135
-0.0060353812
-0.1977444
-0.0074154289
-0.23676852
-0.0090750725
-0.2835735
-0.01105139
-0.33951498
-0.01341858
-0.40649165
-0.016249399
-0.48653358
-0.019647761
-0.58220252
-0.023734547
-0.69639232
-0.02866989
-0.83258591
-0.034644447
-0.99481191
-0.041898499
-1.187863
-0.050703594
-1.4174384
-0.061360828
-1.6904604
-0.074197686
-2.0154233
-0.089560939
-2.4027554
-0.10781157
-2.8652309
-0.12935062
-3.4183888
-0.15463739
-4.0810667
-0.18420008
-4.8759688
-0.21880361
-5.8304321
-0.25900861
-6.9766196
-0.30531535
-8.355962
-0.3585656
-10.015765
-0.41957241
-12.01231
-0.48835379
-14.415362
-0.56455296
-17.308516
-0.64604713
-20.795054
-0.73087989
-25.011502
-0.81608308
-30.091208
-0.89182201
-36.222388
-0.94159509
-43.6368
-0.94382569
-52.632491
-0.86641917
-63.571526
-0.66028631
-76.905844
-93.211303
6.6176508e-07
-0.0083265289
-1.1929607e-06
-0.011707929
-1.0929375e-06
-0.015480919
-2.8975426e-07
-0.020111337
-1.0472423e-05
-0.025953954
-0.00015791766
-0.032382923
-0.00038373198
-0.038631944
-0.00065113542
-0.046501179
-0.00096884384
-0.055503793
-0.0013501421
-0.066646373
-0.0018038278
-0.079693412
-0.0023472456
-0.095580959
-0.0029957077
-0.11437665
-0.0037773494
-0.13708184
-0.0047091416
-0.16412051
-0.0058335698
-0.19662098
-0.0071695007
-0.23543363
-0.0087716803
-0.28197241
-0.010683753
-0.33760395
-0.012975552
-0.40420074
-0.015719914
-0.48378977
-0.019019061
-0.57890342
-0.022995953
-0.69241497
-0.027811591
-0.8277697
-0.03366075
-0.98896153
-0.040785153
-1.180738
-0.049457982
-1.4087634
-0.059978676
-1.6799322
-0.072668468
-2.0027251
-0.0878653
-2.3875556
-0.10591775
-2.847182
-0.1272164
-3.3971031
-0.15220823
-4.0561011
-0.18141335
-4.8468069
-0.21562493
-5.7962786
-0.25525989
-6.9370959
-0.30096196
-8.3104677
-0.35351173
-9.963562
-0.4138818
-11.952475
-0.48195625
-14.347923
-0.5575287
-17.233708
-0.63826789
-20.715797
-0.72344386
-24.928075
-0.80905653
-30.007582
-0.88648888
-36.147042
-0.93913112
-43.584699
-0.94740825
-52.624397
-0.88014691
-63.63898
-0.69021236
-77.097131
-93.598982
-4.2864954e-06
-0.0083274579
-4.5083935e-06
-0.011707781
-8.0664659e-07
-0.015484756
7.5108785e-06
-0.020119861
-3.1575937e-06
-0.025943854
-0.00014925303
-0.032237139
-0.00036345643
-0.038417978
-0.0006209194
-0.046244057
-0.00092687953
-0.055198168
-0.0012960217
-0.066277755
-0.0017335991
-0.079256372
-0.0022640404
-0.095051193
-0.0028931354
-0.11374824
-0.0036532628
-0.1363225
-0.0045545046
-0.1632201
-0.0056380502
-0.19553833
-0.0069289265
-0.23414365
-0.0084776388
-0.28042462
-0.010327292
-0.33575522
-0.012546216
-0.40198263
-0.015206942
-0.48112954
-0.018412705
-0.57569766
-0.022286798
-0.68854033
-0.026991969
-0.82306373
-0.032727522
-0.98322436
-0.039737254
-1.1737268
-0.048295757
-1.4002012
-0.058699723
-1.6695188
-0.071264717
-1.9901501
-0.086316517
-2.3724987
-0.10419576
-2.8293037
-0.12528141
-3.3760273
-0.15000833
-4.0313969
-0.17888697
-4.817966
-0.21273343
-5.7624862
-0.2518519
-6.8980877
-0.29699273
-8.265535
-0.34904801
-9.9118448
-0.40881013
-11.893244
-0.47630212
-14.281039
-0.55140273
-17.159385
-0.63187952
-20.636945
-0.71733764
-24.844284
-0.80364595
-29.923152
-0.88264146
-36.070239
-0.93872537
-43.529153
-0.95331532
-52.610059
-0.89658923
-63.695964
-0.72318914
-77.271951
-93.961076
-6.1478399e-06
-0.0083309996
-2.7912233e-06
-0.011711175
6.0197776e-06
-0.015493646
2.3023638e-05
-0.020137084
8.3330098e-06
-0.02592969
-0.00013789737
-0.032091195
-0.00034404693
-0.038212075
-0.00059356133
-0.045994909
-0.00088945459
-0.054902617
-0.0012486391
-0.065919027
-0.0016747915
-0.078830673
-0.0021933669
-0.09453319
-0.0027986221
-0.11314354
-0.0035302875
-0.13559149
-0.0043998151
-0.16235125
-0.0054467731
-0.19449212
-0.006694043
-0.23289714
-0.0081920609
-0.27892741
-0.00998176
-0.33396627
-0.012131511
-0.39983344
-0.014713021
-0.47854821
-0.017830019
-0.57258026
-0.021608197
-0.68476108
-0.026213608
-0.81845682
-0.031848029
-0.97758747
-0.038759364
-1.1668127
-0.047222905
-1.3917319
-0.057530599
-1.6591995
-0.069992228
-1.9776764
-0.084922788
-2.3575604
-0.10265264
-2.8115718
-0.12355229
-3.3551343
-0.14804765
-4.0069204
-0.17664292
-4.7894021
-0.21015603
-5.7290258
-0.24881773
-6.8595357
-0.29349028
-8.2210663
-0.34513059
-9.8605347
-0.40438445
-11.834506
-0.47141192
-14.214582
-0.54620163
-17.08538
-0.62667548
-20.558223
-0.71261704
-24.759965
-0.79964508
-29.837725
-0.88048801
-35.991403
-0.94042278
-43.469806
-0.96165869
-52.589117
-0.91577782
-63.742124
-0.75933894
-77.429858
-94.297192
-9.8285606e-06
-0.0083354514
-5.6154021e-06
-0.011715512
4.752674e-06
-0.015504203
2.7378423e-05
-0.020159999
3.8926522e-06
-0.025906755
-0.00014428355
-0.031943263
-0.00034432824
-0.038012223
-0.0005838639
-0.045755651
-0.00086916294
-0.054617557
-0.001212259
-0.065576267
-0.0016218235
-0.078421426
-0.0021202671
-0.094035159
-0.0027054668
-0.11255876
-0.0034130504
-0.13488444
-0.0042534512
-0.16151142
-0.0052651892
-0.19348102
-0.0064712612
-0.2316917
-0.0079203776
-0.27747892
-0.0096535729
-0.3322337
-0.011736934
-0.39775055
-0.01424355
-0.47604169
-0.017277642
-0.56954567
-0.020968295
-0.68106923
-0.025484077
-0.81393929
-0.031032149
-0.97203659
-0.03786243
-1.159979
-0.046249522
-1.3833377
-0.056482986
-1.6489528
-0.068863281
-1.9652828
-0.083695895
-2.3427182
-0.10130171
-2.7939616
-0.12204237
-3.3343975
-0.14633993
-3.9826384
-0.17477642
-4.7609927
-0.20791172
-5.6959412
-0.24617839
-6.8213781
-0.29046333
-8.176981
-0.34176668
-9.8095551
-0.40061881
-11.776151
-0.46732046
-14.14841
-0.54195116
-17.011643
-0.62261103
-20.479378
-0.70919736
-24.67497
-0.79717962
-29.751122
-0.88017105
-35.910255
-0.94428051
-43.406285
-0.97254843
-52.561157
-0.93786563
-63.777134
-0.79875369
-77.570477
-94.606844
-1.3219704e-05
-0.0083403407
-8.2195166e-06
-0.011720561
3.671168e-06
-0.015516176
3.2663996e-05
-0.020189137
-1.5304414e-07
-0.025874431
-0.00014918108
-0.031794426
-0.0003414501
-0.037820063
-0.00057482041
-0.045522511
-0.00084861242
-0.054343923
-0.0011826831
-0.065242485
-0.0015766607
-0.078027682
-0.0020545677
-0.093557613
-0.0026200181
-0.11199368
-0.0033036582
-0.13420127
-0.0041154437
-0.16070013
-0.0050938172
-0.19250318
-0.0062604201
-0.23052561
-0.0076636588
-0.27607621
-0.0093432843
-0.33055449
-0.011363829
-0.3957302
-0.013799534
-0.47360572
-0.016756846
-0.5665874
-0.020368944
-0.67745538
-0.024807439
-0.80949832
-0.03028311
-0.96655729
-0.037050277
-1.1532073
-0.045381867
-1.3749973
-0.05556263
-1.6387569
-0.067884705
-1.9529456
-0.082642721
-2.3279483
-0.1001497
-2.7764476
-0.12075919
-3.3137888
-0.1448911
-3.9585184
-0.17317746
-4.7327296
-0.20600298
-5.6631654
-0.24397967
-6.7835102
-0.28791256
-8.1332407
-0.3389771
-9.758811
-0.39753677
-11.718068
-0.46403655
-14.082411
-0.53869261
-16.938059
-0.61966779
-20.400196
-0.70703714
-24.589152
-0.79634851
-29.663175
-0.88174029
-35.826473
-0.95034713
-43.338243
-0.98601425
-52.525834
-0.96294478
-63.800578
-0.84167765
-77.693275
-94.889667
-1.5115026e-05
-0.00834709
-8.0273464e-06
-0.011727623
6.2387248e-06
-0.015530459
4.2587689e-05
-0.020225696
1.5659215e-06
-0.025833733
-0.00014779613
-0.03164518
-0.00033219978
-0.037635721
-0.00055763493
-0.04529725
-0.00082186602
-0.054079816
-0.0011451583
-0.064919438
-0.0015242153
-0.077648838
-0.0019860453
-0.093096115
-0.0025311475
-0.1114489
-0.0031915222
-0.13354132
-0.0039763769
-0.15991572
-0.0049237082
-0.19155629
-0.0060528464
-0.22939686
-0.0074074311
-0.27472197
-0.0090313199
-0.32893092
-0.010992413
-0.39376921
-0.013368372
-0.4712294
-0.016260812
-0.56369387
-0.019804195
-0.67391009
-0.024177241
-0.8051225
-0.029597379
-0.96113318
-0.036320035
-1.1464795
-0.044617438
-1.36669
-0.054767695
-1.6285903
-0.067054743
-1.9406422
-0.081762311
-2.3132271
-0.099195221
-2.7590054
-0.11970314
-3.2932792
-0.14369973
-3.9345305
-0.17185554
-4.704594
-0.20441839
-5.6306507
-0.2421245
-6.7459109
-0.28592668
-8.0896243
-0.33676144
-9.7082958
-0.39515507
-11.660134
-0.46157716
-14.01648
-0.53638504
-16.864521
-0.6178428
-20.320463
-0.70612594
-24.50235
-0.79722
-29.573439
-0.88526994
-35.739678
-0.95866758
-43.26536
-1.0021949
-52.482684
-0.99113805
-63.812037
-0.88814173
-77.797818
-95.145084
-1.7795757e-05
-0.0083544785
-9.6767541e-06
-0.011735623
5.7329083e-06
-0.01554578
4.8187943e-05
-0.020268214
-2.1776737e-06
-0.025783619
-0.00015293189
-0.031494494
-0.00033072125
-0.037457939
-0.00054824901
-0.045079892
-0.00080316002
-0.05382501
-0.0011156444
-0.064607203
-0.0014811406
-0.077283541
-0.0019268269
-0.092650743
-0.0024530597
-0.11092297
-0.0030916265
-0.13290315
-0.0038510537
-0.15915664
-0.0047659863
-0.19064168
-0.0058547411
-0.22830834
-0.0071603793
-0.2734166
-0.00872941
-0.32736205
-0.010635493
-0.39186299
-0.012958357
-0.46890581
-0.015801189
-0.56084949
-0.019291019
-0.67041778
-0.02361339
-0.80079662
-0.028993961
-0.95574782
-0.035692122
-1.1397751
-0.043976714
-1.3583939
-0.05411912
-1.6184299
-0.066393621
-1.92835
-0.081074573
-2.2985306
-0.098459605
-2.7416087
-0.11889563
-3.2728386
-0.14283473
-3.9105967
-0.17083791
-4.6766085
-0.20322178
-5.5983133
-0.24071926
-6.7085176
-0.28446429
-8.0460605
-0.33516728
-9.6579099
-0.3935036
-11.602245
-0.45998995
-13.950511
-0.53460247
-16.791347
-0.61710676
-20.239594
-0.70666121
-24.41421
-0.79979389
-29.481409
-0.89085877
-35.64961
-0.96937197
-43.187266
-1.0210579
-52.431385
-1.0225994
-63.811025
-0.93835925
-77.883623
-95.372545
-2.0138837e-05
-0.0083629469
-1.048576e-05
-0.011745254
6.5302964e-06
-0.01556276
5.452638e-05
-0.020316519
-3.5648528e-06
-0.025725627
-0.00014974422
-0.031348367
-0.00032129063
-0.037286404
-0.00053097834
-0.044870333
-0.00077693023
-0.053579108
-0.0010787658
-0.064305542
-0.0014313574
-0.07693107
-0.00186231
-0.092220015
-0.0023707808
-0.1104147
-0.0029886286
-0.13228555
-0.0037216959
-0.15842378
-0.0046008172
-0.18976271
-0.0056486909
-0.22726061
-0.0069145597
-0.2721509
-0.0084420007
-0.32583472
-0.010298817
-0.39000597
-0.012566428
-0.4666374
-0.015359619
-0.55805461
-0.018813965
-0.66696078
-0.023104014
-0.79650273
-0.028463257
-0.95038344
-0.03515747
-1.133074
-0.043451522
-1.3500873
-0.053609381
-1.608253
-0.065894466
-1.9160463
-0.080572268
-2.2838358
-0.097935302
-2.7242321
-0.11832912
-3.2524379
-0.14227271
-3.8866555
-0.1701184
-4.6487781
-0.2023546
-5.5661215
-0.23980265
-6.6711701
-0.28352245
-8.0025188
-0.33418686
-9.6075591
-0.39259105
-11.544282
-0.45929098
-13.884429
-0.53400462
-16.718066
-0.61750746
-20.157701
-0.70869382
-24.324477
-0.80412628
-29.386937
-0.89866746
-35.555852
-0.98270526
-43.103508
-1.0426866
-52.371733
-1.0574214
-63.797067
-0.99251252
-77.950126
-95.571533
-2.2390455e-05
-0.0083722561
-1.146345e-05
-0.011756184
7.20658e-06
-0.015581506
5.9474011e-05
-0.020369086
-5.9845825e-06
-0.02566032
-0.00014521887
-0.031209209
-0.00031081166
-0.037120792
-0.00051387471
-0.044667361
-0.0007511423
-0.053341832
-0.0010423935
-0.064014394
-0.0013826436
-0.076590848
-0.0017992186
-0.091803557
-0.0022903052
-0.10992368
-0.0028871522
-0.13168882
-0.0035926595
-0.1577183
-0.0044405827
-0.18891484
-0.005456411
-0.22624479
-0.0066880201
-0.27091933
-0.0081783464
-0.32434431
-0.0099930293
-0.38819081
-0.012212136
-0.46441712
-0.014954855
-0.55530976
-0.018375507
-0.66353694
-0.02265495
-0.79221874
-0.028016298
-0.94501619
-0.03472744
-1.126355
-0.043053945
-1.3417468
-0.053249166
-1.5980375
-0.065568515
-1.903707
-0.080267002
-2.2691186
-0.097634561
-2.7068487
-0.11803851
-3.2320245
-0.14197066
-3.8627231
-0.16973674
-4.6210247
-0.20184386
-5.534056
-0.23939769
-6.6337138
-0.28311878
-7.9589727
-0.33385485
-9.5571329
-0.39244296
-11.486128
-0.45952337
-13.817997
-0.5346608
-16.644287
-0.6191441
-20.074746
-0.71219118
-24.232984
-0.81031828
-29.289805
-0.90863877
-35.458188
-0.99857958
-43.013691
-1.0674243
-52.302923
-1.0957562
-63.769842
-1.0506925
-77.996809
-95.741376
-2.5143411e-05
-0.0083816083
-1.347517e-05
-0.01176782
6.9206721e-06
-0.015601962
6.0375767e-05
-0.020422811
-1.2137703e-05
-0.025587934
-0.00014810332
-0.031073276
-0.00030794329
-0.036960924
-0.00050442064
-0.044470977
-0.00073307457
-0.053113161
-0.0010147418
-0.063732814
-0.00134324
-0.076262345
-0.0017464365
-0.091400421
-0.0022217078
-0.1094484
-0.0027970572
-0.13111347
-0.0034774271
-0.15703787
-0.0043005452
-0.18809159
-0.0052892816
-0.22525594
-0.0064880288
-0.2697205
-0.0079422122
-0.32288993
-0.0097187171
-0.38641373
-0.011901025
-0.46223354
-0.01460774
-0.55260079
-0.017998288
-0.66014302
-0.022277771
-0.78793442
-0.027665716
-0.93962199
-0.03441634
-1.1195958
-0.042796832
-1.3333514
-0.053053388
-1.5877598
-0.065428708
-1.891311
-0.080172079
-2.2543552
-0.097569658
-2.6894335
-0.11805695
-3.2115256
-0.14194533
-3.8388322
-0.16962991
-4.5933507
-0.20182622
-5.5018979
-0.23946466
-6.5961697
-0.28328115
-7.9153282
-0.33419678
-9.5065229
-0.39310042
-11.427651
-0.46072095
-13.751042
-0.536577
-16.569712
-0.62220849
-19.990463
-0.71707102
-24.139478
-0.81844899
-29.189746
-0.92075986
-35.356343
-1.0169642
-42.917454
-1.0953621
-52.224358
-1.1377277
-63.728751
-1.1131734
-78.023119
-95.881433
-2.7068445e-05
-0.0083916372
-1.3707444e-05
-0.011781124
9.8739776e-06
-0.01562559
6.3728266e-05
-0.020476923
-1.3889837e-05
-0.025510416
-0.00014558559
-0.030941633
-0.00029950805
-0.036806958
-0.00048973196
-0.044280835
-0.00071003259
-0.052892818
-0.00098301445
-0.063459902
-0.0013007567
-0.075944566
-0.0016914032
-0.0910098
-0.0021517149
-0.10898803
-0.0027079281
-0.1305572
-0.0033671343
-0.1563785
-0.004166782
-0.18729178
-0.005128857
-0.22429364
-0.0062977468
-0.26855134
-0.0077210159
-0.32146621
-0.0094656254
-0.38466824
-0.01161882
-0.46007871
-0.014304076
-0.54991284
-0.017682935
-0.65676028
-0.021971614
-0.7836403
-0.027401783
-0.93418487
-0.03421733
-1.1127706
-0.042675887
-1.3248767
-0.053015302
-1.5773982
-0.065470049
-1.8788344
-0.080280689
-2.2395229
-0.097791252
-2.6719034
-0.11831632
-3.1909868
-0.14221463
-3.814929
-0.16985126
-4.565722
-0.20225372
-5.4695308
-0.24001708
-6.558497
-0.28401784
-7.8714959
-0.33521978
-9.4556225
-0.3945785
-11.368715
-0.46290214
-13.683389
-0.53970232
-16.494123
-0.62686003
-19.904505
-0.72363801
-24.043921
-0.82837643
-29.086595
-0.93514601
-35.249804
-1.0381452
-42.814354
-1.1265669
-52.135657
-1.1834887
-63.67311
-1.1799855
-78.028444
-95.990942
-2.9955842e-05
-0.0084012519
-1.5843095e-05
-0.011795202
1.0703586e-05
-0.015652222
6.3321928e-05
-0.020529823
-1.905867e-05
-0.025428084
-0.00014701424
-0.03081372
-0.00029584222
-0.036658074
-0.00048089177
-0.044095861
-0.00069384585
-0.052679805
-0.00095887425
-0.063194924
-0.0012666454
-0.075636734
-0.0016459384
-0.090630499
-0.0020902015
-0.10854368
-0.0026285921
-0.1300187
-0.0032699874
-0.15573693
-0.0040479477
-0.18651355
-0.0049861497
-0.22335513
-0.0061290766
-0.26740804
-0.0075261962
-0.32006851
-0.0092464272
-0.382947
-0.011378451
-0.45794494
-0.014053347
-0.54723513
-0.017438453
-0.65337114
-0.021751041
-0.77932203
-0.027240584
-0.92868809
-0.034147636
-1.1058533
-0.04270586
-1.3163014
-0.053150823
-1.5669304
-0.065706398
-1.8662564
-0.080641873
-2.2245645
-0.098248297
-2.6542759
-0.11882592
-3.1703937
-0.14268074
-3.7910672
-0.17055375
-4.5378545
-0.20310398
-5.4370132
-0.24107218
-6.5206155
-0.2853456
-7.8273868
-0.33696323
-9.4043028
-0.39690673
-11.309199
-0.46610854
-13.614966
-0.54405268
-16.41732
-0.63301076
-19.816666
-0.73199758
-23.946107
-0.8400876
-28.980008
-0.95192507
-35.138218
-1.0622079
-42.703984
-1.1611105
-52.03647
-1.2332237
-63.602291
-1.2514948
-78.012033
-96.069201
-3.2313626e-05
-0.0084107349
-1.7296176e-05
-0.011810157
1.2915181e-05
-0.01568251
6.3474382e-05
-0.020580631
-2.1956873e-05
-0.025342666
-0.00014656949
-0.030689132
-0.0002899475
-0.036514612
-0.00046960935
-0.043916258
-0.0006754526
-0.05247387
-0.00093272198
-0.062937682
-0.0012309341
-0.075338427
-0.001599297
-0.090262098
-0.0020295391
-0.1081133
-0.0025516511
-0.12949646
-0.0031763408
-0.15511199
-0.0039349837
-0.18575465
-0.0048522716
-0.22243747
-0.0059726306
-0.26628715
-0.0073457702
-0.31869456
-0.0090431967
-0.38124827
-0.011162147
-0.45582389
-0.013838646
-0.54455541
-0.017252127
-0.64995316
-0.021616177
-0.77495178
-0.027186541
-0.92310993
-0.034203593
-1.098825
-0.042883922
-1.3076029
-0.053455986
-1.5563344
-0.066141982
-1.8535469
-0.08122834
-2.2094539
-0.098917006
-2.6365645
-0.11953014
-3.1497631
-0.1435219
-3.7670661
-0.17161658
-4.5097631
-0.20438489
-5.4042747
-0.24263131
-6.4824512
-0.28728187
-7.7828949
-0.33942325
-9.3524569
-0.40009918
-11.248977
-0.47026199
-13.54572
-0.54961232
-16.339035
-0.64054681
-19.72681
-0.74215064
-23.845679
-0.85387705
-28.869647
-0.97115364
-35.021226
-1.08925
-42.585868
-1.1991429
-51.926327
-1.2870225
-63.515731
-1.3277622
-77.973181
-96.115417
-3.4084762e-05
-0.0084205103
-1.7931958e-05
-0.01182622
1.6385274e-05
-0.015716896
6.3485029e-05
-0.02062796
-2.3678594e-05
-0.025255469
-0.00014492163
-0.030567909
-0.00028335898
-0.036376064
-0.00045820321
-0.043741465
-0.00065757547
-0.052274383
-0.00090789977
-0.062687365
-0.0011977103
-0.075048499
-0.0015540604
-0.089905684
-0.0019717584
-0.10769545
-0.0024811412
-0.1289869
-0.0030906233
-0.15450227
-0.0038321074
-0.18501282
-0.0047318899
-0.22153723
-0.0058342095
-0.26518422
-0.0071843046
-0.31734354
-0.0088608494
-0.3795703
-0.010974891
-0.45370762
-0.013667158
-0.54185981
-0.017125776
-0.64648989
-0.021570346
-0.77050083
-0.02724543
-0.91742685
-0.034390688
-1.091668
-0.043218752
-1.2987558
-0.05393876
-1.54559
-0.066810049
-1.8406514
-0.082014207
-2.1942246
-0.099818174
-2.6187367
-0.12047774
-3.1290843
-0.14475216
-3.7427804
-0.17307122
-4.4814452
-0.20612159
-5.3712517
-0.24472803
-6.4439221
-0.28984378
-7.7379303
-0.34262799
-9.2999646
-0.40417987
-11.187948
-0.47509807
-13.475829
-0.55639715
-16.258798
-0.64949994
-19.634725
-0.75418253
-23.741964
-0.86983137
-28.755013
-0.99286534
-34.898466
-1.1193413
-42.459477
-1.2407929
-51.804792
-1.345092
-63.412775
-1.4090317
-77.911157
-96.128708
-3.6244823e-05
-0.0084300336
-1.9655348e-05
-0.011842708
1.8419367e-05
-0.015755043
5.9643756e-05
-0.020669386
-2.8844292e-05
-0.025166911
-0.00014719354
-0.030449586
-0.00028133833
-0.03624178
-0.00045176667
-0.043571085
-0.00064523199
-0.052080782
-0.0008891882
-0.062443403
-0.0011711559
-0.074766393
-0.0015174837
-0.089559274
-0.0019238657
-0.10728889
-0.0024212548
-0.12848932
-0.0030175277
-0.1539057
-0.0037446093
-0.18428538
-0.0046304971
-0.2206508
-0.0057165358
-0.2640974
-0.0070508525
-0.31600807
-0.0087202282
-0.3778992
-0.010842855
-0.45158244
-0.0135646
-0.53913438
-0.017078031
-0.64297139
-0.021616545
-0.76595554
-0.027419515
-0.91161546
-0.0347184
-1.0843564
-0.043720201
-1.2897339
-0.054621698
-1.5346632
-0.067663113
-1.827585
-0.083008771
-2.1788525
-0.10087939
-2.6008407
-0.12183011
-3.1081126
-0.14633391
-3.7182632
-0.1749343
-4.452844
-0.20833862
-5.3378721
-0.24738429
-6.4049489
-0.29307255
-7.6923836
-0.34661495
-9.2467022
-0.40919344
-11.125922
-0.48120694
-13.40494
-0.56446317
-16.176611
-0.66005369
-19.540075
-0.76811345
-23.634702
-0.8880609
-28.63577
-1.0172219
-34.769488
-1.1524412
-42.324442
-1.2861955
-51.671371
-1.4075576
-63.292984
-1.4954855
-77.825179
-96.108189
-3.6787414e-05
-0.0084408364
-1.8843543e-05
-0.011860603
2.3712282e-05
-0.015797712
5.8285479e-05
-0.020704172
-2.9885519e-05
-0.025078628
-0.00014551898
-0.030334036
-0.00027557794
-0.036111576
-0.00044218311
-0.043404542
-0.00063036829
-0.051892449
-0.00086852462
-0.062205233
-0.001142233
-0.074492531
-0.0014799357
-0.089221472
-0.0018779277
-0.1068907
-0.0023644341
-0.1280026
-0.00294966
-0.15332017
-0.00366442
-0.18357018
-0.0045373915
-0.21977721
-0.0056081347
-0.26302579
-0.006937732
-0.31467721
-0.0086171022
-0.37621801
-0.010762204
-0.44943465
-0.013529887
-0.53636289
-0.017116504
-0.63937953
-0.021762094
-0.76130306
-0.027713398
-0.90565563
-0.0351932
-1.0768635
-0.044377037
-1.2805293
-0.055494076
-1.5235203
-0.068696238
-1.8143574
-0.084181496
-2.1633402
-0.10224957
-2.582746
-0.12348018
-3.0868595
-0.14826258
-3.6934656
-0.177203
-4.4239011
-0.2110248
-5.3040725
-0.25060808
-6.3654337
-0.29698249
-7.6461404
-0.35140547
-9.1925355
-0.41515911
-11.062737
-0.48851754
-13.332759
-0.57387504
-16.092329
-0.67226706
-19.442541
-0.78398906
-23.523521
-0.90880262
-28.511368
-1.0446182
-34.633738
-1.1884579
-42.180721
-1.3354792
-51.52501
-1.4746034
-63.155532
-1.5873671
-77.714416
-96.052885
-3.8459654e-05
-0.0084516192
-2.0338331e-05
-0.011878676
2.4984971e-05
-0.015843169
5.0099241e-05
-0.020729532
-3.7530175e-05
-0.024990856
-0.00015132692
-0.030220307
-0.00027797596
-0.035984726
-0.0004412223
-0.043241335
-0.00062456597
-0.051708917
-0.00085767801
-0.06197207
-0.0011244186
-0.074225603
-0.0014540649
-0.08889169
-0.0018446409
-0.10649991
-0.0023222934
-0.12752471
-0.0028985818
-0.15274353
-0.0036046131
-0.18286369
-0.004465219
-0.21891591
-0.0055270003
-0.26196299
-0.0068613792
-0.31334136
-0.0085583083
-0.37451898
-0.010734807
-0.44725516
-0.013560657
-0.53353292
-0.017248132
-0.63568644
-0.022030498
-0.75651348
-0.028151514
-0.89952576
-0.035823377
-1.0691778
-0.045215217
-1.2711159
-0.056543784
-1.5121652
-0.069945351
-1.8009296
-0.085556773
-2.1477007
-0.10394337
-2.5643315
-0.12544708
-3.0653316
-0.15055697
-3.6683388
-0.17989766
-4.3945561
-0.21421763
-5.2697723
-0.25442125
-6.3252943
-0.30159873
-7.5990862
-0.35704787
-9.1373187
-0.42213352
-10.998227
-0.49704518
-13.259013
-0.58469014
-16.005737
-0.68618267
-19.341896
-0.80188853
-23.408275
-0.9319225
-28.381611
-1.0747675
-34.490792
-1.2281815
-42.027032
-1.3888016
-51.36522
-1.5464821
-62.99959
-1.6848895
-77.578044
-95.96185
-3.7853492e-05
-0.0084645468
-1.7746977e-05
-0.011898779
3.1391176e-05
-0.015892509
4.7515256e-05
-0.020745863
-3.7840198e-05
-0.024905424
-0.00014888061
-0.030109337
-0.00027152698
-0.035861907
-0.00043122806
-0.043081673
-0.00060992105
-0.051530047
-0.00083784193
-0.061744096
-0.0010994468
-0.073963803
-0.0014233531
-0.088567641
-0.0018073745
-0.10611565
-0.0022778517
-0.12705397
-0.0028473389
-0.15217367
-0.0035461741
-0.18216433
-0.0044005583
-0.21806078
-0.0054627974
-0.26089967
-0.0068087718
-0.31199383
-0.0085265711
-0.37279898
-0.010743094
-0.44503553
-0.013643429
-0.53062835
-0.017453572
-0.63187053
-0.022402576
-0.75155715
-0.028716858
-0.89320255
-0.036587166
-1.0612933
-0.04622755
-1.2614533
-0.057764826
-1.500601