/*--------------------------------*- C++ -*----------------------------------*\
  =========                 |
  \\      /  F ield         | OpenFOAM: The Open Source CFD Toolbox
   \\    /   O peration     | Website:  https://openfoam.org
    \\  /    A nd           | Version:  8
     \\/     M anipulation  |
\*---------------------------------------------------------------------------*/
FoamFile
{
    version     2.0;
    format      ascii;
    class       pointVectorField;
    location    "0.0499991";
    object      pointDisplacement;
}
// * * * * * * * * * * * * * * * * * * * * * * * * * * * * * * * * * * * * * //

dimensions      [0 1 0 0 0 0 0];

internalField   nonuniform List<vector> 
40800
(
(-0.0022691165 0 -0.0018202002)
(-0.0022626955 0 -0.0015047722)
(-0.0022624112 0 -0.0015066042)
(-0.0022689217 0 -0.0018288888)
(-0.0022623822 0 -0.0015070357)
(-0.0022688966 0 -0.001829589)
(-0.002262321 0 -0.0015076958)
(-0.0022688381 0 -0.0018304)
(-0.0022622105 0 -0.0015085243)
(-0.0022687317 0 -0.0018314082)
(-0.0022620297 0 -0.0015095672)
(-0.0022685568 0 -0.0018326619)
(-0.0022617492 0 -0.0015108863)
(-0.0022682846 0 -0.0018342288)
(-0.0022613289 0 -0.0015125637)
(-0.0022678757 0 -0.0018361986)
(-0.0022607138 0 -0.0015147094)
(-0.0022672761 0 -0.00183869)
(-0.0022598296 0 -0.0015174723)
(-0.0022664129 0 -0.0018418624)
(-0.0022585762 0 -0.0015210549)
(-0.0022651875 0 -0.0018459297)
(-0.0022568199 0 -0.0015257342)
(-0.0022634683 0 -0.001851181)
(-0.0022543831 0 -0.0015318903)
(-0.0022610803 0 -0.0018580077)
(-0.0022510323 0 -0.0015400455)
(-0.0022577932 0 -0.0018669412)
(-0.0022464635 0 -0.0015509168)
(-0.002253307 0 -0.0018787032)
(-0.0022402854 0 -0.0015654863)
(-0.0022472348 0 -0.0018942737)
(-0.0022320019 0 -0.001585093)
(-0.0022390852 0 -0.00191498)
(-0.0022209944 0 -0.0016115426)
(-0.0022282442 0 -0.0019426015)
(-0.0022065086 0 -0.0016472606)
(-0.0022139609 0 -0.001979519)
(-0.002187649 0 -0.0016954695)
(-0.0021953411 0 -0.0020288829)
(-0.0021633902 0 -0.0017603635)
(-0.0021713551 0 -0.0020947761)
(-0.002132614 0 -0.0018472654)
(-0.0021408728 0 -0.0021823674)
(-0.0020941803 0 -0.0019626963)
(-0.0021027308 0 -0.0022979769)
(-0.0020470369 0 -0.0021142627)
(-0.0020558393 0 -0.0024489672)
(-0.0019903652 0 -0.0023102103)
(-0.0019993279 0 -0.0026433094)
(-0.0019237438 0 -0.0025584901)
(-0.0019327126 0 -0.0028886728)
(-0.0018472911 0 -0.0028654035)
(-0.0018560507 0 -0.0031910918)
(-0.0017617521 0 -0.0032337588)
(-0.0017700419 0 -0.0035531444)
(-0.0016684987 0 -0.003660993)
(-0.0016760478 0 -0.0039720431)
(-0.0015693855 0 -0.0041382647)
(-0.0015759586 0 -0.0044387165)
(-0.0014665813 0 -0.004650105)
(-0.0014720196 0 -0.0049375034)
(-0.0013624105 0 -0.0051752853)
(-0.0013666613 0 -0.0054470679)
(-0.0012591285 0 -0.0056893783)
(-0.0012622461 0 -0.0059430545)
(-0.0011587406 0 -0.0061680012)
(-0.0011608666 0 -0.0064014196)
(-0.0010628519 0 -0.0065897908)
(-0.0010641778 0 -0.0068013911)
(-0.00097249366 0 -0.0069390031)
(-0.0009732137 0 -0.0071280478)
(-0.000888146 0 -0.0072058748)
(-0.00088842805 0 -0.0073724356)
(-0.00080985923 0 -0.007385881)
(-0.00080983565 0 -0.0075307837)
(-0.00073733177 0 -0.0074777023)
(-0.00073709949 0 -0.0076021764)
(-0.00066998757 0 -0.0074817124)
(-0.00066960606 0 -0.007587292)
(-0.00060706745 0 -0.0073990708)
(-0.00060656903 0 -0.0074873631)
(-0.00054791209 0 -0.0072300891)
(-0.00054733344 0 -0.0073027866)
(-0.00049170197 0 -0.0069733326)
(-0.00049106658 0 -0.0070320692)
(-0.00043730923 0 -0.0066220213)
(-0.0004366208 0 -0.0066681914)
(-0.00038336173 0 -0.0061632333)
(-0.00038258648 0 -0.0061976883)
(-0.00032912728 0 -0.0055865199)
(-0.00032831626 0 -0.005610842)
(-0.0002732175 0 -0.0048704699)
(-0.00027236027 0 -0.0048855017)
(-0.00021413262 0 -0.0039882815)
(-0.00021330752 0 -0.0039957808)
(-0.00015017367 0 -0.0029081577)
(-0.00014945613 0 -0.0029101637)
(-7.7699302e-05 0 -0.0015662998)
(-7.7141527e-05 0 -0.0015645793)
(0 0 0)
(0 0 0)
(-0.0022552011 0 -0.0011961574)
(-0.0022549229 0 -0.0011979485)
(-0.0022548917 0 -0.0011982524)
(-0.0022548247 0 -0.0011986358)
(-0.0022547068 0 -0.0011991306)
(-0.0022545163 0 -0.0011997765)
(-0.0022542232 0 -0.0012006259)
(-0.0022537866 0 -0.0012017505)
(-0.0022531504 0 -0.0012032489)
(-0.0022522389 0 -0.0012052566)
(-0.0022509503 0 -0.0012079615)
(-0.0022491485 0 -0.0012116229)
(-0.0022466534 0 -0.0012166014)
(-0.0022432282 0 -0.0012233977)
(-0.0022385652 0 -0.0012327063)
(-0.0022322689 0 -0.0012454895)
(-0.0022238383 0 -0.001263068)
(-0.0022126508 0 -0.0012872451)
(-0.0021979485 0 -0.0013204609)
(-0.0021788349 0 -0.0013659749)
(-0.0021542886 0 -0.0014280599)
(-0.0021232031 0 -0.0015121626)
(-0.0020844609 0 -0.0016249832)
(-0.0020370465 0 -0.0017743631)
(-0.0019801924 0 -0.0019688343)
(-0.0019135389 0 -0.0022166761)
(-0.0018372656 0 -0.0025245391)
(-0.0017521648 0 -0.0028955771)
(-0.0016596212 0 -0.0033276074)
(-0.0015614593 0 -0.0038121785)
(-0.0014597797 0 -0.0043341491)
(-0.0013568081 0 -0.0048725211)
(-0.0012546972 0 -0.0054028884)
(-0.0011553652 0 -0.0059006)
(-0.0010603624 0 -0.0063437386)
(-0.00097070772 0 -0.006715752)
(-0.00088690114 0 -0.0070060017)
(-0.00080902191 0 -0.0072091411)
(-0.00073680105 0 -0.0073232801)
(-0.00066969662 0 -0.0073484172)
(-0.00060697845 0 -0.00728546)
(-0.00054798546 0 -0.007134594)
(-0.00049190304 0 -0.0068942839)
(-0.00043763106 0 -0.0065579875)
(-0.00038383022 0 -0.0061132622)
(-0.00032970903 0 -0.0055491812)
(-0.00027388878 0 -0.0048445909)
(-0.00021484657 0 -0.0039724971)
(-0.00015081401 0 -0.0029001842)
(-7.8238571e-05 0 -0.0015648567)
(0 0 0)
(-0.0022466574 0 -0.00089421406)
(-0.0022463857 0 -0.00089588377)
(-0.0022463489 0 -0.00089598283)
(-0.0022462747 0 -0.00089612123)
(-0.0022461473 0 -0.00089632235)
(-0.0022459446 0 -0.00089661442)
(-0.0022456357 0 -0.00089703846)
(-0.0022451788 0 -0.00089765362)
(-0.0022445166 0 -0.00089854417)
(-0.0022435718 0 -0.00089983029)
(-0.0022422406 0 -0.00090168302)
(-0.0022403846 0 -0.00090434426)
(-0.0022378207 0 -0.00090815636)
(-0.0022343085 0 -0.00091360087)
(-0.0022295362 0 -0.00092135442)
(-0.0022231034 0 -0.00093236097)
(-0.0022145044 0 -0.00094793001)
(-0.0022031118 0 -0.00096986291)
(-0.0021881642 0 -0.001000615)
(-0.0021687643 0 -0.00104349)
(-0.0021438956 0 -0.001102839)
(-0.0021124646 0 -0.0011842359)
(-0.002073379 0 -0.0012945615)
(-0.0020256635 0 -0.0014418884)
(-0.0019686056 0 -0.001635023)
(-0.0019019122 0 -0.0018825491)
(-0.0018258278 0 -0.0021914294)
(-0.0017411942 0 -0.0025651165)
(-0.0016494097 0 -0.0030017572)
(-0.0015522675 0 -0.0034932451)
(-0.0014517977 0 -0.0040247414)
(-0.0013501243 0 -0.0045754842)
(-0.0012492927 0 -0.0051211339)
(-0.0011511296 0 -0.005636846)
(-0.0010571251 0 -0.0061002363)
(-0.00096828022 0 -0.0064940285)
(-0.00088511011 0 -0.0068067699)
(-0.00080772177 0 -0.0070323249)
(-0.00073587864 0 -0.0071682282)
(-0.00066907312 0 -0.0072140829)
(-0.00060660504 0 -0.0071705255)
(-0.00054781573 0 -0.007037591)
(-0.00049189738 0 -0.0068136346)
(-0.00043777637 0 -0.0064923127)
(-0.00038414484 0 -0.0060616136)
(-0.00033016015 0 -0.0055102023)
(-0.00027445081 0 -0.0048171454)
(-0.00021547259 0 -0.0039552918)
(-0.00015139336 0 -0.0028910992)
(-7.8735779e-05 0 -0.0015626792)
(0 0 0)
(-0.0022371001 0 -0.00059880338)
(-0.002236833 0 -0.00060033693)
(-0.002236788 0 -0.00060021736)
(-0.0022367037 0 -0.0006000973)
(-0.0022365638 0 -0.00059999414)
(-0.0022363454 0 -0.00059992766)
(-0.002236017 0 -0.00059992827)
(-0.0022355355 0 -0.00060004252)
(-0.0022348421 0 -0.00060034017)
(-0.0022338579 0 -0.0006009253)
(-0.0022324769 0 -0.00060195056)
(-0.0022305579 0 -0.00060363883)
(-0.0022279145 0 -0.00060631206)
(-0.0022243025 0 -0.00061043179)
(-0.0022194052 0 -0.00061665572)
(-0.0022128173 0 -0.00062591244)
(-0.0022040278 0 -0.00063950145)
(-0.0021924041 0 -0.00065922573)
(-0.0021771812 0 -0.0006875617)
(-0.0021574616 0 -0.00072785928)
(-0.0021322342 0 -0.00078455365)
(-0.0021004205 0 -0.00086335079)
(-0.0020609559 0 -0.00097131419)
(-0.0020129088 0 -0.0011167445)
(-0.0019556265 0 -0.0013087107)
(-0.0018888865 0 -0.0015560768)
(-0.0018130022 0 -0.0018660791)
(-0.0017288671 0 -0.0022424199)
(-0.0016378924 0 -0.0026835257)
(-0.0015418386 0 -0.003181591)
(-0.0014426625 0 -0.0037220528)
(-0.001342383 0 -0.0042843908)
(-0.0012429346 0 -0.0048443713)
(-0.0011460484 0 -0.0053770273)
(-0.0010531496 0 -0.0058595888)
(-0.00096521674 0 -0.0062741387)
(-0.00088277558 0 -0.0066084715)
(-0.00080595943 0 -0.0068556992)
(-0.00073456394 0 -0.0070127822)
(-0.00066811591 0 -0.0070789126)
(-0.00060594603 0 -0.0070544385)
(-0.00054740165 0 -0.0069392214)
(-0.00049168369 0 -0.006731498)
(-0.00043774399 0 -0.0064250864)
(-0.00038430497 0 -0.0060083616)
(-0.00033048007 0 -0.0054696396)
(-0.00027490316 0 -0.0047881771)
(-0.00021601046 0 -0.0039366986)
(-0.00015191123 0 -0.0028809213)
(-7.9191155e-05 0 -0.0015597804)
(0 0 0)
(-0.002226563 0 -0.00030978877)
(-0.0022262976 0 -0.00031119327)
(-0.0022262431 0 -0.00031086137)
(-0.0022261468 0 -0.00031048849)
(-0.0022259918 0 -0.00031008451)
(-0.0022257546 0 -0.00030966054)
(-0.0022254026 0 -0.00030923711)
(-0.0022248915 0 -0.00030884934)
(-0.0022241611 0 -0.00030855391)
(-0.0022231305 0 -0.0003084399)
(-0.0022216913 0 -0.00030864311)
(-0.0022196995 0 -0.00030936777)
(-0.002216965 0 -0.0003109159)
(-0.0022132393 0 -0.00031372891)
(-0.0022082007 0 -0.00031844521)
(-0.0022014384 0 -0.00032597759)
(-0.0021924355 0 -0.00033761718)
(-0.0021805539 0 -0.00035517105)
(-0.0021650251 0 -0.00038113886)
(-0.0021449516 0 -0.00041892228)
(-0.0021193289 0 -0.0004730475)
(-0.0020870953 0 -0.00054935919)
(-0.0020472168 0 -0.00065510664)
(-0.001998809 0 -0.00079881539)
(-0.0019412835 0 -0.00098980392)
(-0.0018744929 0 -0.0012371925)
(-0.0017988231 0 -0.0015484513)
(-0.0017152199 0 -0.0019274841)
(-0.0016251069 0 -0.0023729475)
(-0.0015302096 0 -0.0028772931)
(-0.0014324085 0 -0.0034262078)
(-0.0013336142 0 -0.0039994143)
(-0.0012356473 0 -0.0045728205)
(-0.0011401398 0 -0.0051214002)
(-0.0010484483 0 -0.0056220759)
(-0.00096152462 0 -0.0060563691)
(-0.00087990123 0 -0.0064113845)
(-0.00080373609 0 -0.0066795209)
(-0.00073285659 0 -0.0068571712)
(-0.00066682388 0 -0.0069431048)
(-0.00060500004 0 -0.0069373662)
(-0.00054674174 0 -0.0068396231)
(-0.00049126034 0 -0.0066479838)
(-0.00043753244 0 -0.0063563952)
(-0.00038430959 0 -0.0059535758)
(-0.0003306679 0 -0.005427546)
(-0.00027524516 0 -0.0047577267)
(-0.00021645967 0 -0.0039167465)
(-0.00015236692 0 -0.0028696663)
(-7.9604893e-05 0 -0.0015561724)
(0 0 0)
(-0.0022150707 0 -2.7037529e-05)
(-0.0022148074 0 -2.8314972e-05)
(-0.0022147415 0 -2.7772576e-05)
(-0.0022146309 0 -2.7149067e-05)
(-0.0022144583 0 -2.6446645e-05)
(-0.0022141991 0 -2.5667657e-05)
(-0.0022138197 0 -2.4822664e-05)
(-0.0022132744 0 -2.3935473e-05)
(-0.0022125015 0 -2.3049932e-05)
(-0.0022114178 0 -2.2240449e-05)
(-0.0022099124 0 -2.1626566e-05)
(-0.002207838 0 -2.1394622e-05)
(-0.0022050007 0 -2.1827549e-05)
(-0.0022011472 0 -2.334719e-05)
(-0.0021959505 0 -2.657341e-05)
(-0.0021889937 0 -3.2403801e-05)
(-0.0021797535 0 -4.212197e-05)
(-0.0021675865 0 -5.7541112e-05)
(-0.0021517204 0 -8.1187747e-05)
(-0.0021312582 0 -0.00011652116)
(-0.0021052035 0 -0.00016816705)
(-0.0020725132 0 -0.00024211682)
(-0.0020321868 0 -0.00034580879)
(-0.0019833909 0 -0.00048798882)
(-0.001925606 0 -0.00067821184)
(-0.001858764 0 -0.00092583001)
(-0.0017833261 0 -0.0012385067)
(-0.0017002912 0 -0.0016202996)
(-0.0016110932 0 -0.002070047)
(-0.0015174203 0 -0.0025804139)
(-0.0014210729 0 -0.0031373115)
(-0.0013238508 0 -0.0037207056)
(-0.0012274579 0 -0.0043066768)
(-0.0011334245 0 -0.004870198)
(-0.0010430361 0 -0.0053879563)
(-0.00095721348 0 -0.0058409892)
(-0.00087649281 0 -0.0062157736)
(-0.00080105464 0 -0.0065040379)
(-0.00073075757 0 -0.0067016191)
(-0.00066519688 0 -0.0068068556)
(-0.00060376643 0 -0.0068194755)
(-0.00054583504 0 -0.0067389349)
(-0.00049062613 0 -0.0065632034)
(-0.00043714052 0 -0.0062863267)
(-0.00038415786 0 -0.0058973272)
(-0.00033072288 0 -0.005383975)
(-0.0002754762 0 -0.0047258351)
(-0.00021681978 0 -0.0038954658)
(-0.00015275988 0 -0.0028573522)
(-7.9977168e-05 0 -0.0015518682)
(0 0 0)
(-0.0022026524 0 0.00024957977)
(-0.0022023906 0 0.00024843071)
(-0.0022023114 0 0.00024918549)
(-0.0022021844 0 0.00025006185)
(-0.0022019914 0 0.00025106438)
(-0.002201707 0 0.00025219896)
(-0.0022012963 0 0.0002534646)
(-0.0022007123 0 0.0002548487)
(-0.0021998912 0 0.0002563202)
(-0.0021987477 0 0.00025781935)
(-0.0021971679 0 0.00025924298)
(-0.0021950011 0 0.00026042261)
(-0.002192049 0 0.00026109431)
(-0.0021880533 0 0.00026085539)
(-0.0021826811 0 0.00025910388)
(-0.0021755089 0 0.00025495615)
(-0.0021660071 0 0.0002471346)
(-0.0021535261 0 0.00023381788)
(-0.0021372902 0 0.00021244825)
(-0.0021164041 0 0.00017950066)
(-0.0020898804 0 0.00013023955)
(-0.0020566972 0 5.8517271e-05)
(-0.0020158903 0 -4.3295797e-05)
(-0.001966681 0 -0.00018415921)
(-0.0019086234 0 -0.00037385057)
(-0.0018417327 0 -0.00062192876)
(-0.0017665479 0 -0.00093620953)
(-0.0016841208 0 -0.001320857)
(-0.0015958931 0 -0.0017748434)
(-0.0015035122 0 -0.0022910055)
(-0.0014086949 0 -0.0028554541)
(-0.0013131277 0 -0.0034483971)
(-0.0012183957 0 -0.0040461147)
(-0.0011259257 0 -0.0046236318)
(-0.0010369297 0 -0.005157468)
(-0.00095229489 0 -0.0056282499)
(-0.00087255752 0 -0.0060218896)
(-0.00079791917 0 -0.0063294883)
(-0.00072826886 0 -0.0065463426)
(-0.00066323559 0 -0.0066703564)
(-0.00060224519 0 -0.0067009308)
(-0.00054468108 0 -0.0066372944)
(-0.00048978021 0 -0.0064772683)
(-0.0004365673 0 -0.0062149693)
(-0.0003838491 0 -0.0058396873)
(-0.00033064434 0 -0.0053389811)
(-0.00027559572 0 -0.004692544)
(-0.00021709039 0 -0.0038728872)
(-0.00015308947 0 -0.0028439958)
(-8.0308125e-05 0 -0.00154688)
(0 0 0)
(-0.0021893386 0 0.00052019146)
(-0.0021890775 0 0.00051916891)
(-0.0021889831 0 0.00052013453)
(-0.0021888373 0 0.00052126175)
(-0.0021886212 0 0.00052256221)
(-0.0021883082 0 0.00052405007)
(-0.0021878623 0 0.000525734)
(-0.0021872346 0 0.00052761258)
(-0.0021863596 0 0.00052966754)
(-0.0021851492 0 0.00053185355)
(-0.0021834864 0 0.00053408348)
(-0.0021812167 0 0.00053620641)
(-0.0021781372 0 0.00053797686)
(-0.0021739841 0 0.00053901065)
(-0.0021684181 0 0.00053872307)
(-0.0021610089 0 0.00053624365)
(-0.0021512197 0 0.0005302993)
(-0.0021383951 0 0.00051905755)
(-0.0021217563 0 0.00049992418)
(-0.0021004104 0 0.00046929814)
(-0.0020733812 0 0.00042232116)
(-0.0020396701 0 0.00035267877)
(-0.0019983517 0 0.00025255015)
(-0.001948706 0 0.00011277221)
(-0.0018903658 0 -7.6641515e-05)
(-0.0018234331 0 -0.00032543138)
(-0.0017485269 0 -0.00064152412)
(-0.0016667504 0 -0.0010291432)
(-0.0015795501 0 -0.0014873485)
(-0.0014885288 0 -0.0020091081)
(-0.001395316 0 -0.0025807099)
(-0.0013014819 0 -0.0031826012)
(-0.001208492 0 -0.0037912865)
(-0.0011176685 0 -0.0043818906)
(-0.0010301481 0 -0.0049308284)
(-0.00094678219 0 -0.0054183848)
(-0.0008681043 0 -0.0058299685)
(-0.00079433528 0 -0.0061560985)
(-0.00072539362 0 -0.0063915512)
(-0.00066094155 0 -0.0065337944)
(-0.00060043695 0 -0.0065818944)
(-0.00054327986 0 -0.0065348388)
(-0.00048872213 0 -0.0063902901)
(-0.00043581208 0 -0.0061424121)
(-0.00038338282 0 -0.0057807281)
(-0.00033043174 0 -0.0052926196)
(-0.00027560325 0 -0.0046578953)
(-0.00021727103 0 -0.0038490406)
(-0.00015335519 0 -0.0028296156)
(-8.0597909e-05 0 -0.0015412212)
(0 0 0)
(-0.0021751598 0 0.00078492215)
(-0.0021748968 0 0.00078402424)
(-0.0021747855 0 0.00078519862)
(-0.0021746188 0 0.00078657386)
(-0.0021743768 0 0.00078816923)
(-0.002174032 0 0.00079000746)
(-0.0021735467 0 0.00079210709)
(-0.0021728703 0 0.00079447799)
(-0.002171935 0 0.00079711465)
(-0.0021706501 0 0.00079998588)
(-0.0021688951 0 0.00080302024)
(-0.0021665115 0 0.00080608396)
(-0.0021632913 0 0.00080894946)
(-0.0021589648 0 0.00081125072)
(-0.002153186 0 0.00081241976)
(-0.002145517 0 0.00081159857)
(-0.0021354137 0 0.00080751724)
(-0.0021222148 0 0.00079832869)
(-0.0021051388 0 0.00078139633)
(-0.0020832969 0 0.00075302819)
(-0.0020557263 0 0.0007082266)
(-0.0020214536 0 0.00064049936)
(-0.0019795949 0 0.00054183955)
(-0.0019294927 0 0.00040289637)
(-0.0018708635 0 0.00021348659)
(-0.0018039003 0 -3.6286777e-05)
(-0.0017293027 0 -0.00035441873)
(-0.0016482232 0 -0.0007451451)
(-0.0015621094 0 -0.0012075686)
(-0.0014725153 0 -0.0017347519)
(-0.001380979 0 -0.0023131383)
(-0.0012889524 0 -0.0029234123)
(-0.0011977802 0 -0.003542324)
(-0.0011086798 0 -0.004145142)
(-0.0010227122 0 -0.0047082337)
(-0.00094069045 0 -0.0052116086)
(-0.00086314355 0 -0.0056402308)
(-0.00079030972 0 -0.0059840838)
(-0.00072213598 0 -0.0062374455)
(-0.00065831716 0 -0.0063973509)
(-0.00059834295 0 -0.0064625248)
(-0.00054163187 0 -0.0064317031)
(-0.00048745178 0 -0.0063023798)
(-0.00043487449 0 -0.0060687443)
(-0.00038275865 0 -0.0057205221)
(-0.00033008465 0 -0.0052449464)
(-0.00027549835 0 -0.0046219319)
(-0.00021736134 0 -0.0038239579)
(-0.00015355645 0 -0.0028142298)
(-8.0846656e-05 0 -0.0015349045)
(0 0 0)
(-0.0021601396 0 0.0010438933)
(-0.0021598738 0 0.0010431188)
(-0.0021597435 0 0.001044501)
(-0.0021595534 0 0.0010461234)
(-0.0021592828 0 0.0010480128)
(-0.0021589025 0 0.0010502006)
(-0.0021583736 0 0.0010527152)
(-0.0021576434 0 0.0010555775)
(-0.0021566417 0 0.0010587946)
(-0.0021552747 0 0.0010623495)
(-0.0021534185 0 0.0010661862)
(-0.0021509098 0 0.0010701878)
(-0.0021475354 0 0.0010741447)
(-0.0021430192 0 0.0010777089)
(-0.0021370077 0 0.0010803293)
(-0.0021290551 0 0.0010811605)
(-0.0021186097 0 0.0010789346)
(-0.0021050045 0 0.0010717841)
(-0.002087456 0 0.0010570254)
(-0.0020650821 0 0.0010308519)
(-0.0020369353 0 0.00098810444)
(-0.0020020697 0 0.00092210525)
(-0.0019596444 0 0.00082467431)
(-0.0019090683 0 0.00068629715)
(-0.0018501481 0 0.00049660001)
(-0.0017831708 0 0.00024555367)
(-0.0017089165 0 -7.4860197e-05)
(-0.0016285844 0 -0.00046884407)
(-0.0015436185 0 -0.00093550153)
(-0.0014555192 0 -0.0014679543)
(-0.0013657291 0 -0.0020527826)
(-0.0012755799 0 -0.0026709052)
(-0.0011862954 0 -0.0032993374)
(-0.0010989886 0 -0.0039135313)
(-0.0010146443 0 -0.0044898592)
(-0.00093403642 0 -0.0050081168)
(-0.00085768711 0 -0.0054528814)
(-0.00078585057 0 -0.0058136467)
(-0.00071850122 0 -0.0060842176)
(-0.00065536564 0 -0.006261201)
(-0.00059596516 0 -0.0063429769)
(-0.00053973811 0 -0.0063280205)
(-0.00048596946 0 -0.0062136482)
(-0.00043375439 0 -0.0059940556)
(-0.00038197644 0 -0.0056591423)
(-0.00032960276 0 -0.0051960183)
(-0.00027528069 0 -0.0045846972)
(-0.000217361 0 -0.0037976714)
(-0.00015369278 0 -0.0027978575)
(-8.1054427e-05 0 -0.0015279426)
(0 0 0)
(-0.0021443014 0 0.0012972239)
(-0.0021440342 0 0.0012965743)
(-0.0021438828 0 0.0012981669)
(-0.0021436668 0 0.0013000398)
(-0.0021433642 0 0.0013022265)
(-0.0021429448 0 0.0013047663)
(-0.0021423678 0 0.001307697)
(-0.0021415784 0 0.0013110505)
(-0.0021405039 0 0.0013148462)
(-0.0021390472 0 0.0013190814)
(-0.0021370804 0 0.001323716)
(-0.0021344353 0 0.0013286503)
(-0.0021308928 0 0.0013336931)
(-0.0021261698 0 0.0013385153)
(-0.0021199048 0 0.0013425841)
(-0.0021116435 0 0.0013450677)
(-0.0021008262 0 0.0013447018)
(-0.0020867812 0 0.0013395813)
(-0.0020687235 0 0.0013269816)
(-0.002045782 0 0.0013029396)
(-0.0020170269 0 0.0012621032)
(-0.0019815398 0 0.0011976156)
(-0.0019385247 0 0.0011011447)
(-0.0018874603 0 0.00096304959)
(-0.0018282517 0 0.00077275733)
(-0.0017612821 0 0.00052013207)
(-0.001687411 0 0.00019717989)
(-0.0016078807 0 -0.00020022271)
(-0.0015241261 0 -0.00067114087)
(-0.0014375892 0 -0.0012087243)
(-0.0013496126 0 -0.0017996734)
(-0.0012614064 0 -0.0024251386)
(-0.0011740741 0 -0.0030624185)
(-0.0010886251 0 -0.0036871842)
(-0.0010059684 0 -0.0042758606)
(-0.00092683816 0 -0.0048080871)
(-0.00085174815 0 -0.0052681094)
(-0.00078096701 0 -0.0056449771)
(-0.00071449551 0 -0.0059320496)
(-0.00065209097 0 -0.0061255132)
(-0.00059330607 0 -0.0062234013)
(-0.00053760004 0 -0.0062239215)
(-0.00048427582 0 -0.0061242044)
(-0.00043245193 0 -0.005918435)
(-0.00038103618 0 -0.0055966615)
(-0.00032898587 0 -0.0051458923)
(-0.00027494996 0 -0.0045462352)
(-0.00021726967 0 -0.0037702134)
(-0.00015376368 0 -0.0027805186)
(-8.1221365e-05 0 -0.0015203496)
(0 0 0)
(-0.0021276785 0 0.0015450315)
(-0.0021274044 0 0.0015445051)
(-0.0021272297 0 0.0015463076)
(-0.0021269851 0 0.0015484304)
(-0.0021266474 0 0.0015509139)
(-0.0021261851 0 0.0015538055)
(-0.0021255554 0 0.0015571521)
(-0.0021247014 0 0.0015609964)
(-0.0021235474 0 0.00156537)
(-0.0021219929 0 0.0015702844)
(-0.0021199057 0 0.001575715)
(-0.0021171123 0 0.0015815797)
(-0.0021133869 0 0.0015877065)
(-0.002108439 0 0.0015937864)
(-0.0021018981 0 0.0015993066)
(-0.0020933004 0 0.0016034562)
(-0.002082078 0 0.0016049837)
(-0.0020675595 0 0.001601877)
(-0.0020489678 0 0.0015912568)
(-0.0020254378 0 0.0015691067)
(-0.0019960469 0 0.0015300074)
(-0.0019598993 0 0.0014669654)
(-0.0019162607 0 0.0013713261)
(-0.0018646967 0 0.0012332199)
(-0.0018052075 0 0.0010420106)
(-0.0017382734 0 0.00078748604)
(-0.0016648308 0 0.00046172942)
(-0.0015861602 0 6.0739791e-05)
(-0.0015036825 0 -0.00041447339)
(-0.0014187752 0 -0.00095706042)
(-0.0013326772 0 -0.0015538274)
(-0.0012464753 0 -0.0021861546)
(-0.0011611539 0 -0.0028316401)
(-0.0010776207 0 -0.0034662064)
(-0.0009967096 0 -0.004066374)
(-0.0009191149 0 -0.0046116791)
(-0.00084534087 0 -0.0050860878)
(-0.0007756692 0 -0.0054782519)
(-0.00071012583 0 -0.0057811138)
(-0.00064849787 0 -0.0059904485)
(-0.00059036878 0 -0.0061039432)
(-0.00053521957 0 -0.0061195336)
(-0.00048237185 0 -0.0060341563)
(-0.0004309675 0 -0.0058419715)
(-0.00037993803 0 -0.0055331528)
(-0.0003282339 0 -0.005094626)
(-0.00027450596 0 -0.0045065902)
(-0.0002170871 0 -0.0037416174)
(-0.0001537687 0 -0.0027622332)
(-8.1347483e-05 0 -0.0015121378)
(0 0 0)
(-0.0021102858 0 0.0017874291)
(-0.0021100078 0 0.0017870301)
(-0.0021098075 0 0.0017890457)
(-0.0021095315 0 0.0017914204)
(-0.0021091558 0 0.0017942007)
(-0.0021086469 0 0.001797442)
(-0.0021079602 0 0.001801201)
(-0.0021070364 0 0.0018055317)
(-0.0021057965 0 0.0018104785)
(-0.0021041362 0 0.0018160675)
(-0.0021019186 0 0.0018222903)
(-0.0020989643 0 0.0018290828)
(-0.0020950405 0 0.0018362925)
(-0.0020898482 0 0.0018436315)
(-0.002083007 0 0.0018506115)
(-0.0020740426 0 0.0018564434)
(-0.0020623892 0 0.0018597983)
(-0.0020473833 0 0.0018585355)
(-0.0020282488 0 0.001849607)
(-0.0020041082 0 0.0018290432)
(-0.0019740422 0 0.0017914879)
(-0.0019371879 0 0.0017298583)
(-0.0018928845 0 0.0016351211)
(-0.0018408055 0 0.0014968679)
(-0.0017810495 0 0.0013044059)
(-0.0017141853 0 0.001047648)
(-0.0016412218 0 0.00071881344)
(-0.0015634731 0 0.00031406559)
(-0.0014823396 0 -0.00016547965)
(-0.0013991288 0 -0.00071295072)
(-0.0013149715 0 -0.0013152476)
(-0.0012308308 0 -0.0019539783)
(-0.0011475736 0 -0.0026070558)
(-0.0010660079 0 -0.0032506837)
(-0.00098689414 0 -0.0038615153)
(-0.00091088706 0 -0.0044190333)
(-0.00083848058 0 -0.0049069736)
(-0.00076996828 0 -0.0053136342)
(-0.00070540012 0 -0.0056315715)
(-0.00064459177 0 -0.00585616)
(-0.00058715695 0 -0.0059847427)
(-0.00053259906 0 -0.0060149806)
(-0.00048025892 0 -0.0059436096)
(-0.00042930178 0 -0.0057647527)
(-0.00037868234 0 -0.0054686889)
(-0.00032734686 0 -0.0050422772)
(-0.00027394852 0 -0.0044658071)
(-0.00021681299 0 -0.0037119165)
(-0.00015370744 0 -0.0027430227)
(-8.1432842e-05 0 -0.0015033207)
(0 0 0)
(-0.0020921554 0 0.0020245296)
(-0.0020918714 0 0.0020242466)
(-0.0020916442 0 0.0020264645)
(-0.0020913352 0 0.0020290805)
(-0.0020909188 0 0.0020321498)
(-0.0020903597 0 0.0020357365)
(-0.0020896114 0 0.0020399067)
(-0.0020886116 0 0.002044725)
(-0.0020872782 0 0.0020502483)
(-0.0020855029 0 0.0020565158)
(-0.0020831435 0 0.0020635348)
(-0.0020800146 0 0.0020712581)
(-0.0020758757 0 0.0020795525)
(-0.0020704183 0 0.0020881528)
(-0.0020632508 0 0.0020965997)
(-0.0020538991 0 0.0021040516)
(-0.0020418096 0 0.0021090083)
(-0.0020263093 0 0.0021093271)
(-0.0020066007 0 0.0021020038)
(-0.0019818025 0 0.0020829869)
(-0.0019510161 0 0.0020468212)
(-0.0019134268 0 0.0019862877)
(-0.0018684375 0 0.0018922587)
(-0.0018158245 0 0.0017538845)
(-0.001755813 0 0.0015599834)
(-0.00168906 0 0.0013006443)
(-0.001616632 0 0.00096845524)
(-0.0015398707 0 0.00055977936)
(-0.0014601503 0 7.5866033e-05)
(-0.0013787022 0 -0.00047637385)
(-0.0012965451 0 -0.0010839246)
(-0.001214518 0 -0.0017286199)
(-0.0011333725 0 -0.0023887025)
(-0.0010538199 0 -0.0030406835)
(-0.00097654903 0 -0.0036613823)
(-0.00090217586 0 -0.004230273)
(-0.00083118344 0 -0.0047309076)
(-0.00076387622 0 -0.005151274)
(-0.00070032696 0 -0.0054835738)
(-0.00064037871 0 -0.005722793)
(-0.00058367475 0 -0.005865934)
(-0.00052974128 0 -0.0059103829)
(-0.00047793869 0 -0.0058526681)
(-0.00042745566 0 -0.005686866)
(-0.00037726959 0 -0.0054033424)
(-0.00032632492 0 -0.0049889042)
(-0.00027327755 0 -0.0044239316)
(-0.00021644717 0 -0.0036811454)
(-0.00015357949 0 -0.0027229086)
(-8.1477501e-05 0 -0.0014939122)
(0 0 0)
(-0.0020733115 0 0.0022564417)
(-0.0020730176 0 0.0022562792)
(-0.0020727608 0 0.0022587044)
(-0.0020724156 0 0.0022615662)
(-0.0020719548 0 0.0022649271)
(-0.0020713414 0 0.0022688593)
(-0.0020705264 0 0.0022734386)
(-0.0020694448 0 0.0022787406)
(-0.0020680109 0 0.0022848345)
(-0.0020661118 0 0.002291774)
(-0.0020636 0 0.0022995816)
(-0.0020602832 0 0.0023082273)
(-0.0020559128 0 0.0023175956)
(-0.0020501702 0 0.0023274384)
(-0.0020426575 0 0.0023373096)
(-0.002032912 0 0.0023462371)
(-0.0020203749 0 0.0023526531)
(-0.0020043453 0 0.0023544885)
(-0.0019840143 0 0.0023487629)
(-0.0019585116 0 0.0023312861)
(-0.0019269687 0 0.0022963819)
(-0.0018886232 0 0.0022366154)
(-0.0018429472 0 0.0021427748)
(-0.0017898035 0 0.0020039976)
(-0.001729545 0 0.0018086199)
(-0.0016629417 0 0.0015464973)
(-0.0015911108 0 0.0012106764)
(-0.001515406 0 0.00079790789)
(-0.0014371691 0 0.00030959514)
(-0.0013575489 0 -0.00024729964)
(-0.0012774483 0 -0.00085983732)
(-0.0011975822 0 -0.0015100756)
(-0.0011185905 0 -0.0021766011)
(-0.0010410905 0 -0.0028362565)
(-0.00096570199 0 -0.0034660556)
(-0.00089300325 0 -0.0040455049)
(-0.00082346637 0 -0.0045580155)
(-0.00075740566 0 -0.0049913079)
(-0.00069491564 0 -0.0053372608)
(-0.00063586533 0 -0.0055904841)
(-0.00057992685 0 -0.0057476453)
(-0.0005266494 0 -0.0058058564)
(-0.00047541316 0 -0.005761433)
(-0.00042543031 0 -0.005608397)
(-0.00037570046 0 -0.0053371854)
(-0.00032516832 0 -0.0049345653)
(-0.00027249304 0 -0.0043810096)
(-0.00021598943 0 -0.0036493387)
(-0.00015338451 0 -0.0027019135)
(-8.1481447e-05 0 -0.0014839252)
(0 0 0)
(-0.0020537685 0 0.0024832724)
(-0.002053467 0 0.0024832299)
(-0.0020531782 0 0.0024858625)
(-0.002052794 0 0.0024889705)
(-0.0020522854 0 0.0024926234)
(-0.0020516135 0 0.0024969014)
(-0.0020507269 0 0.0025018898)
(-0.0020495573 0 0.0025076748)
(-0.0020480154 0 0.0025143381)
(-0.0020459834 0 0.0025219469)
(-0.002043308 0 0.0025305394)
(-0.0020397897 0 0.0025401024)
(-0.0020351712 0 0.0025505388)
(-0.0020291234 0 0.0025616213)
(-0.0020212541 0 0.0025728202)
(-0.0020111039 0 0.0025830993)
(-0.0019980876 0 0.0025909646)
(-0.0019814872 0 0.0025943273)
(-0.0019604945 0 0.0025901271)
(-0.0019342485 0 0.0025740708)
(-0.0019019142 0 0.0025402828)
(-0.0018627871 0 0.002481082)
(-0.0018164219 0 0.0023870288)
(-0.001762776 0 0.0022472534)
(-0.0017022905 0 0.0020501929)
(-0.0016358714 0 0.0017852272)
(-0.0015647095 0 0.0014455011)
(-0.0014901335 0 0.0010284847)
(-0.0014134514 0 0.00053574919)
(-0.001335723 0 -2.5685267e-05)
(-0.0012577317 0 -0.00064294987)
(-0.0011800695 0 -0.0012983246)
(-0.0011032678 0 -0.0019707541)
(-0.0010278541 0 -0.0026374341)
(-0.00095438128 0 -0.0032755962)
(-0.00088339191 0 -0.0038648171)
(-0.00081534693 0 -0.0043884068)
(-0.00075056997 0 -0.0048338587)
(-0.00068917611 0 -0.0051927612)
(-0.00063105883 0 -0.0054593615)
(-0.00057591839 0 -0.0056299984)
(-0.00052332699 0 -0.005701513)
(-0.00047268465 0 -0.0056700031)
(-0.00042322712 0 -0.0055294305)
(-0.00037397579 0 -0.0052702896)
(-0.00032387744 0 -0.0048793192)
(-0.00027159504 0 -0.0043370876)
(-0.00021543961 0 -0.0036165314)
(-0.00015312214 0 -0.0026800601)
(-8.1444742e-05 0 -0.0014733747)
(0 0 0)
(-0.0020335543 0 0.0027051259)
(-0.0020332408 0 0.0027052029)
(-0.0020329177 0 0.0027080427)
(-0.0020324915 0 0.0027113968)
(-0.0020319317 0 0.0027153414)
(-0.0020311971 0 0.0027199649)
(-0.0020302336 0 0.0027253618)
(-0.0020289698 0 0.0027316291)
(-0.0020273121 0 0.0027388603)
(-0.0020251378 0 0.0027471365)
(-0.0020222873 0 0.0027565108)
(-0.0020185531 0 0.0027669862)
(-0.0020136684 0 0.0027784824)
(-0.0020072989 0 0.0027907894)
(-0.0019990623 0 0.0028032535)
(-0.001988486 0 0.0028148316)
(-0.0019749566 0 0.0028241161)
(-0.0019577493 0 0.0028289464)
(-0.0019360552 0 0.0028261913)
(-0.0019090253 0 0.0028114532)
(-0.0018758652 0 0.0027786352)
(-0.0018359355 0 0.0027197787)
(-0.0017888757 0 0.0026252338)
(-0.001734752 0 0.0024839749)
(-0.0016740873 0 0.002284735)
(-0.0016079072 0 0.0020167237)
(-0.0015374812 0 0.0016729519)
(-0.0014641087 0 0.0012515453)
(-0.0013890531 0 0.00075437474)
(-0.0013132788 0 0.00018851953)
(-0.0012374462 0 -0.00043321703)
(-0.0011620256 0 -0.0010933349)
(-0.0010874446 0 -0.0017711509)
(-0.0010141448 0 -0.0024442336)
(-0.00094261527 0 -0.0030900507)
(-0.00087336467 0 -0.0036882831)
(-0.00080684309 0 -0.0042221767)
(-0.00074338293 0 -0.0046790359)
(-0.00068311868 0 -0.0050501929)
(-0.00062596684 0 -0.0053295444)
(-0.00057165487 0 -0.0055131081)
(-0.00051977792 0 -0.0055974595)
(-0.00046975572 0 -0.0055784736)
(-0.0004208477 0 -0.005450049)
(-0.00037209656 0 -0.0052027256)
(-0.00032245277 0 -0.0048232242)
(-0.00027058367 0 -0.0042922123)
(-0.00021479765 0 -0.0035827603)
(-0.0001527921 0 -0.0026573724)
(-8.1367324e-05 0 -0.0014622732)
(0 0 0)
(-0.0020126836 0 0.002922104)
(-0.0020123596 0 0.0029223)
(-0.0020119998 0 0.002925347)
(-0.0020115287 0 0.002928947)
(-0.002010914 0 0.0029331831)
(-0.0020101124 0 0.0029381518)
(-0.0020090668 0 0.0029439567)
(-0.0020077023 0 0.0029507054)
(-0.0020059208 0 0.0029585036)
(-0.0020035944 0 0.0029674458)