/*--------------------------------*- C++ -*----------------------------------*\
  =========                 |
  \\      /  F ield         | OpenFOAM: The Open Source CFD Toolbox
   \\    /   O peration     | Website:  https://openfoam.org
    \\  /    A nd           | Version:  8
     \\/     M anipulation  |
\*---------------------------------------------------------------------------*/
FoamFile
{
    version     2.0;
    format      ascii;
    class       volScalarField;
    location    "0.0499991";
    object      rho;
}
// * * * * * * * * * * * * * * * * * * * * * * * * * * * * * * * * * * * * * //

dimensions      [1 -3 0 0 0 0 0];

internalField   nonuniform List<scalar> 
20000
(
0.98897349
0.99022561
0.99363928
1.0005713
1.0136013
1.0363307
1.0426329
1.0441303
1.0432734
1.0443994
1.044281
1.0454966
1.0460217
1.0475511
1.0487597
1.0508284
1.0528541
1.0556798
1.0587518
1.0627026
1.0673147
1.0728003
1.0789846
1.0860183
1.0937773
1.1022612
1.1112132
1.1203762
1.1293949
1.1379327
1.1456799
1.1524248
1.1580532
1.1625387
1.1658535
1.1683516
1.1702413
1.1712545
1.1715756
1.1714591
1.1710749
1.1708184
1.1701406
1.1678886
1.1667508
1.1664925
1.1668295
1.1669809
1.1669228
1.1667647
0.98692889
0.98844162
0.99208635
0.99942703
1.0133035
1.0360167
1.0411088
1.0426687
1.0418715
1.0430786
1.0430064
1.0442849
1.0448519
1.0464389
1.0476905
1.0498105
1.0518888
1.0547932
1.0580144
1.0622192
1.0670168
1.0727004
1.079006
1.0862085
1.0941767
1.1028411
1.1119496
1.121218
1.1302799
1.1387941
1.1464629
1.1530921
1.1585946
1.162938
1.1661286
1.1686365
1.1704105
1.1713158
1.1715756
1.1714625
1.1710992
1.1708349
1.1697267
1.1678437
1.1667807
1.1665023
1.1668445
1.1669881
1.1669263
1.1667628
0.98578029
0.98748317
0.99140046
0.99921532
1.0141693
1.03641
1.0401371
1.0416281
1.0408013
1.0420339
1.0419584
1.0432688
1.0438658
1.045499
1.0467869
1.0489606
1.051135
1.0542434
1.0577083
1.0620683
1.0669955
1.072723
1.0792073
1.0866085
1.0947765
1.1036309
1.1128936
1.1222591
1.1313496
1.1398207
1.147388
1.1538781
1.1592296
1.1634059
1.1664656
1.1689645
1.1706098
1.1713846
1.1715907
1.1714554
1.1711469
1.1708436
1.1693011
1.1675726
1.1668363
1.1666714
1.1668961
1.1669976
1.1669299
1.1667601
0.98449076
0.98649006
0.99067656
0.99893736
1.0150455
1.036597
1.0391943
1.0406789
1.0398299
1.0411361
1.0410728
1.0424269
1.0430728
1.0447551
1.0461073
1.0484233
1.0507831
1.0540401
1.0576093
1.06204
1.0670168
1.0729469
1.0796438
1.087259
1.0956428
1.1046862
1.1140955
1.1235421
1.132637
1.1410364
1.1484721
1.1547957
1.1599685
1.1639551
1.1668936
1.1693264
1.1708092
1.1714651
1.1716249
1.1714634
1.1712155
1.1708386
1.1689216
1.1674937
1.1668691
1.1667141
1.1669314
1.167013
1.1669329
1.1667578
0.98364307
0.98586594
0.9903186
0.99901724
1.0163675
1.036942
1.0384697
1.0400029
1.0391446
1.0404695
1.0404321
1.0418446
1.0425212
1.0443081
1.0457841
1.0482168
1.0506613
1.0539945
1.0576156
1.0621436
1.0673081
1.0734116
1.0803231
1.0881595
1.0967591
1.105991
1.1155378
1.125048
1.1341228
1.1424223
1.149698
1.1558288
1.1607954
1.1645726
1.1674057
1.1697047
1.1710227
1.1715541
1.171674
1.1714813
1.1712915
1.1707471
1.1686352
1.1673853
1.1669072
1.1668053
1.1669702
1.1670336
1.1669363
1.1667555
0.98290066
0.98540327
0.9901424
0.99927018
1.0179039
1.037289
1.0379144
1.0394773
1.0386522
1.0400167
1.040072
1.0415538
1.0422727
1.044136
1.0456716
1.0481668
1.050652
1.0540351
1.0577939
1.0624807
1.0678124
1.0741222
1.0812579
1.0893226
1.0981426
1.1075588
1.1172307
1.1267834
1.1358102
1.1439788
1.1510648
1.1569757
1.1617073
1.1652584
1.1679884
1.1701052
1.1712477
1.1716595
1.171739
1.1715117
1.1713484
1.1705538
1.1684469
1.1673208
1.1669248
1.1668609
1.1670074
1.1670584
1.1669398
1.1667534
0.98241209
0.9851759
0.99021109
0.99975317
1.0196571
1.0376388
1.0375497
1.0391797
1.0384202
1.0398407
1.0399022
1.0414399
1.0421909
1.0440962
1.04566
1.0481961
1.050781
1.0542991
1.0581942
1.0630407
1.0685694
1.0750873
1.0824548
1.0907534
1.099794
1.1093885
1.11917
1.1287409
1.1376896
1.1456955
1.1525621
1.1582255
1.1626939
1.1660076
1.1686271
1.1705221
1.1714855
1.1717941
1.1718165
1.1715551
1.1713715
1.1703156
1.168297
1.1672663
1.1669341
1.1669194
1.167043
1.1670849
1.1669418
1.1667512
0.98211274
0.98516332
0.99053347
1.0005061
1.0216149
1.0380495
1.0373997
1.0391152
1.0383196
1.0397925
1.0398453
1.0414265
1.0421894
1.044147
1.0457875
1.0484323
1.051125
1.0547656
1.0588182
1.0638404
1.069571
1.0763116
1.0839198
1.0924576
1.1017185
1.1114822
1.1213545
1.1309161
1.139754
1.1475646
1.1541817
1.1595685
1.1637477
1.1668232
1.1693061
1.1709513
1.1717297
1.1719554
1.1719043
1.1716154
1.1713785
1.1700529
1.1681721
1.1672295
1.1669386
1.1669678
1.1670771
1.1671125
1.1669428
1.1667489
0.98198919
0.98533658
0.99107206
1.0015051
1.0236691
1.0384515
1.0373378
1.0390513
1.0382822
1.0397585
1.0398588
1.0415041
1.0423514
1.0443992
1.0461224
1.0488639
1.0516774
1.0554579
1.0596753
1.0648822
1.070829
1.0778014
1.0856585
1.0944395
1.1039178
1.1138386
1.1237791
1.1333009
1.1419936
1.1495751
1.1559119
1.160992
1.164861
1.1677113
1.1700055
1.1713886
1.1719841
1.1721413
1.1720046
1.1716957
1.1713758
1.1697866
1.1680621
1.1672106
1.1669466
1.1670115
1.167111
1.1671418
1.1669434
1.1667465
0.98196738
0.98564009
0.99178428
1.0027468
1.0257608
1.0388868
1.0374448
1.0392504
1.0384617
1.040024
1.0401164
1.0418032
1.042728
1.0448503
1.0466596
1.0495088
1.0524496
1.0563751
1.0607693
1.0661724
1.0723455
1.0795607
1.0876743
1.0967014
1.106392
1.1164544
1.1264371
1.1358855
1.1443971
1.151715
1.157739
1.1624826
1.1660293
1.1686729
1.1707077
1.1718301
1.172256
1.1723455
1.17212
1.1717965
1.1713628
1.1695277
1.1679633
1.1672012
1.1669622
1.1670514
1.1671447
1.1671726
1.1669439
1.1667439
0.98217825
0.98616927
0.99275168
1.0043271
1.0279031
1.039418
1.0377474
1.0396092
1.0388461
1.0404744
1.0405631
1.0423255
1.0432948
1.0455001
1.047403
1.0503649
1.053443
1.0575242
1.0621056
1.0677157
1.0741268
1.0815942
1.0899712
1.0992454
1.1091402
1.1193249
1.12932
1.1386589
1.1469516
1.1539697
1.1596475
1.1640286
1.1672523
1.1696816
1.1714106
1.1722722
1.1725472
1.1725606
1.1722506
1.1719131
1.1712957
1.1692887
1.1678744
1.1671988
1.1669871
1.1670905
1.1671785
1.1672047
1.1669443
1.1667411
0.98252212
0.98684107
0.99389764
1.0062166
1.0300203
1.0400324
1.0382228
1.0400993
1.0393945
1.0410359
1.0411951
1.0430133
1.044055
1.0463507
1.0483558
1.0514387
1.0546631
1.0589086
1.0636879
1.0695158
1.0761756
1.0839048
1.0925508
1.1020709
1.1121588
1.1224428
1.1324172
1.1416079
1.1496418
1.156322
1.1616211
1.1656224
1.1685335
1.1707125
1.1721047
1.1727123
1.1728691
1.1727776
1.1723934
1.1720339
1.1711641
1.16908
1.1677973
1.1671994
1.1670219
1.167131
1.1672122
1.1672369
1.1669448
1.166738
0.98309927
0.98773745
0.99528107
1.0084876
1.0321315
1.0407697
1.0388866
1.0407814
1.0401043
1.0418053
1.0420103
1.0439053
1.0450173
1.0474085
1.0495228
1.052733
1.0561127
1.0605316
1.0655196
1.0715765
1.0784958
1.0864955
1.0954148
1.1051774
1.1154433
1.1257996
1.1357167
1.1447176
1.1524498
1.158753
1.1636462
1.167262
1.1698714
1.1717349
1.1727851
1.1731636
1.1732071
1.1729961
1.1725434
1.1721385
1.1709602
1.1689066
1.167735
1.1672139
1.1670698
1.1671764
1.1672451
1.1672657
1.1669454
1.1667347
0.98383751
0.988799
0.99683867
1.0111026
1.0341982
1.041623
1.0397101
1.0416518
1.0410006
1.0427395
1.0430236
1.044995
1.0461848
1.0486758
1.050906
1.0542503
1.057794
1.0623956
1.0676029
1.0738995
1.081089
1.0893675
1.0985628
1.1085614
1.1189868
1.1293843
1.1392039
1.1479699
1.1553551
1.1612447
1.1657142
1.1689484
1.1712397
1.1727317
1.1734496
1.1736381
1.1735502
1.173215
1.172696
1.1721978
1.1707298
1.1687468
1.1676807
1.1672418
1.1671273
1.1672289
1.1672811
1.1672872
1.1669459
1.1667313
0.98477696
0.99006231
0.99859998
1.0140884
1.0362876
1.0426935
1.0407247
1.0427292
1.0420873
1.043903
1.0442359
1.0462872
1.0475581
1.0501531
1.0525063
1.055991
1.0597082
1.0645019
1.0699399
1.0764876
1.0839576
1.0925223
1.1019944
1.1122195
1.1227813
1.1331849
1.1428626
1.1513444
1.1583367
1.163784
1.1678231
1.1706767
1.1725972
1.1736953
1.1741137
1.1741295
1.1738903
1.1734344
1.1728505
1.1722208
1.1704932
1.1686004
1.1676294
1.1672737
1.1671892
1.1672897
1.1673293
1.1672979
1.1669464
1.1667277
0.98592369
0.99152467
1.00056
1.0174201
1.038373
1.0439113
1.0419135
1.0439836
1.0433586
1.0452551
1.0456429
1.0477777
1.0491357
1.0518395
1.0543229
1.0579556
1.0618558
1.0668518
1.0725319
1.0793421
1.0871026
1.0959595
1.1057067
1.1161452
1.1268166
1.1371864
1.146673
1.1548178
1.1613759
1.166365
1.1699708
1.1724195
1.1739146
1.1746244
1.1747973
1.1746192
1.174225
1.1736546
1.1730115
1.1722244
1.170264
1.168475
1.167583
1.1672969
1.1672546
1.1673572
1.1673912
1.1673027
1.1669456
1.166724
0.98723768
0.99316512
1.0027047
1.0210365
1.0404456
1.0452356
1.0432809
1.045427
1.0448245
1.0468
1.0472444
1.0494656
1.0509159
1.0537334
1.0563552
1.0601434
1.0642374
1.0694468
1.0753812
1.0824655
1.0905259
1.0996795
1.1096975
1.1203323
1.1310814
1.1413723
1.1506128
1.1583674
1.1644615
1.168987
1.1721431
1.1741289
1.1751837
1.1755448
1.1754851
1.1751007
1.1745508
1.1738748
1.1731856
1.1722186
1.1700463
1.1683753
1.1675625
1.1673099
1.1673263
1.1674304
1.1674614
1.1673046
1.1669427
1.1667203
0.98875738
0.99502342
1.0050852
1.0249777
1.0425441
1.0468231
1.0448385
1.0470526
1.0464872
1.0485296
1.049035
1.0513468
1.0528963
1.0558336
1.0586027
1.0625554
1.0668543
1.0722883
1.0784892
1.0858589
1.0942277
1.1036808
1.1139619
1.1247715
1.1355615
1.145722
1.154657
1.1619744
1.1675896
1.1716413
1.1742926
1.1757819
1.1764092
1.1764771
1.1761565
1.1755697
1.1748654
1.1740923
1.17337
1.1721871
1.1698467
1.1682935
1.167555
1.16732
1.1673987
1.1675051
1.1675354
1.1673049
1.1669387
1.1667164
0.9904252
0.99705127
1.0076677
1.0291024
1.0446433
1.048536
1.0465661
1.0488495
1.0483213
1.0504411
1.0510133
1.0534209
1.0550767
1.0581402
1.0610663
1.0651924
1.069708
1.0753787
1.0818584
1.0895245
1.0982094
1.1079625
1.1184956
1.1294537
1.1402408
1.1502126
1.1587818
1.1656286
1.170758
1.1742899
1.1763854
1.1773676
1.177628
1.1773893
1.17681
1.1760231
1.1751676
1.174303
1.1735365
1.1720877
1.1696721
1.1682237
1.1675547
1.1673419
1.1674663
1.167577
1.1676085
1.1673047
1.1669343
1.1667125
0.99225186
0.99926162
1.0104851
1.0333954
1.046785
1.0504303
1.0484791
1.0508249
1.0503382
1.0525366
1.0531802
1.0556876
1.0574572
1.0606536
1.0637468
1.0680566
1.0728006
1.0787196
1.0854899
1.0934632
1.1024703
1.1125216
1.1232916
1.1343662
1.1450996
1.1548184
1.1629671
1.1693274
1.1739463
1.1768834
1.1783989
1.1789121
1.1788291
1.1782735
1.1774391
1.1764581
1.1754578
1.1745051
1.1736194
1.1719118
1.1695242
1.1681668
1.1675621
1.1673822
1.1675313
1.1676403
1.167675
1.1673047
1.1669293
1.1667085
0.99425345
1.0016618
1.0135629
1.0377949
1.0489843
1.0524915
1.0505617
1.052976
1.0525332
1.0548143
1.0555348
1.0581469
1.0600386
1.0633753
1.0666464
1.0711494
1.0761339
1.0823132
1.0893862
1.0976768
1.1070108
1.1173555
1.1283427
1.1394948
1.1501154
1.1595144
1.1672018
1.1730665
1.1771002
1.1793896
1.180333
1.1804441
1.1799867
1.1791229
1.1780408
1.176872
1.1757378
1.1747045
1.1736533
1.1716826
1.1693827
1.1681284
1.1675967
1.1674495
1.1675989
1.1676919
1.1677248
1.167301
1.1669239
1.1667045
0.99640649
1.0042247
1.0169062
1.0422083
1.0512496
1.0547238
1.0528175
1.0553029
1.0549069
1.0572741
1.0580775
1.0608001
1.0628229
1.0663073
1.0697667
1.0744729
1.0797094
1.0861611
1.0935489
1.1021661
1.11183
1.1224598
1.133639
1.1448213
1.1552625
1.1642784
1.1714826
1.1768131
1.1801731
1.1817878
1.1822298
1.1819262
1.1810992
1.1799332
1.1786112
1.1772622
1.1760087
1.1749121
1.1736595
1.1714149
1.1692455
1.1681075
1.1676537
1.1675387
1.1676752
1.1677404
1.1677469
1.1672921
1.1669175
1.1667004
0.99877488
1.0069955
1.02057
1.0466372
1.0536402
1.0571276
1.0552436
1.0578024
1.0574585
1.0599166
1.0608106
1.0636491
1.0658119
1.069451
1.0731086
1.0780276
1.0835285
1.0902658
1.0979807
1.1069334
1.1169277
1.1278304
1.139169
1.150325
1.1605151
1.1690962
1.1758053
1.1805074
1.1831301
1.1841001
1.1840829
1.1833483
1.182159
1.1807007
1.1791477
1.1776264
1.1762695
1.1751337
1.1736546
1.1711315
1.1691131
1.1680994
1.1677274
1.1676382
1.1677632
1.1678089
1.1677561
1.1672805
1.1669103
1.1666962
1.0012761
1.0098922
1.0244955
1.0510405
1.0561813
1.0596922
1.0578377
1.0604785
1.0601914
1.0627456
1.0637361
1.0666949
1.0690057
1.0728057
1.0766719
1.0818148
1.0875934
1.0946302
1.1026842
1.1119798
1.1223024
1.1334605
1.1449175
1.1559811
1.165849
1.1739611
1.1801346
1.1840987
1.1859497
1.1863659
1.1858618
1.184703
1.1831626
1.1814222
1.1796478
1.1779636
1.1765171
1.175351
1.1736161
1.17086
1.1689924
1.1680974
1.1678001
1.1677402
1.1678624
1.1679001
1.1677588
1.1672671
1.1669024
1.1666921
1.0040271
1.013016
1.0287748
1.0554828
1.0588757
1.0624439
1.0606165
1.063336
1.0631082
1.0657591
1.0668521
1.0699349
1.0724019
1.0763702
1.0804567
1.0858362
1.0919076
1.0992586
1.1076633
1.1173075
1.1279527
1.1393419
1.150866
1.1617638
1.1712456
1.1788697
1.1844056
1.1875494
1.1886676
1.1885608
1.1875586
1.1859855
1.1841063
1.1820955
1.1801102
1.1782751
1.1767495
1.1755045
1.1735107
1.1706306
1.1688919
1.1680988
1.1678569
1.1678434
1.167969
1.1680028
1.1677594
1.1672525
1.1668941
1.1666879
1.0069727
1.0163091
1.0333446
1.0598946
1.0617143
1.0653538
1.0635571
1.0663626
1.0661999
1.068952
1.0701541
1.0733654
1.0759986
1.0801447
1.0844658
1.0900966
1.0964763
1.1041558
1.1129215
1.1229176
1.1338753
1.1454628
1.1569923
1.1676474
1.1766925
1.1837965
1.1885574
1.1908332
1.1913224
1.1906563
1.1891658
1.187192
1.1849878
1.1827189
1.180534
1.1785635
1.1769705
1.1755642
1.173331
1.1704601
1.168816
1.1681041
1.1678989
1.1679463
1.1680718
1.168107
1.1677584
1.1672369
1.1668856
1.1666838
1.010133
1.0197752
1.0381982
1.0642854
1.0647036
1.0684328
1.0666669
1.0695601
1.0694649
1.0723203
1.0736384
1.0769848
1.0797969
1.0841332
1.0887047
1.0946023
1.101306
1.1093278
1.1184633
1.1288119
1.1400658
1.1518088
1.1632717
1.1736103
1.1821845
1.188673
1.1925504
1.193989
1.1938828
1.1926446
1.1906791
1.1883198
1.1858055
1.1832912
1.1809177
1.1788311
1.1771903
1.175584
1.173108
1.1703217
1.1687853
1.168131
1.16795
1.1680398
1.1681569
1.1681949
1.1677559
1.1672207
1.1668768
1.1666798
1.0135427
1.0234347
1.0433235
1.0686284
1.0678494
1.0716682
1.0699362
1.0729157
1.0728952
1.0758589
1.0773051
1.0807967
1.0838034
1.0883432
1.0931809
1.0993607
1.1064032
1.11478
1.1242924
1.1349902
1.1465166
1.1583608
1.169678
1.1796346
1.1877098
1.1934276
1.1963494
1.1970561
1.1963202
1.1945188
1.192095
1.1893671
1.1865584
1.1838106
1.1812597
1.1790772
1.1774137
1.1755832
1.17285
1.170199
1.1687744
1.168179
1.1680228
1.1681282
1.1682168
1.1682422
1.1677389
1.1672042
1.1668681
1.1666759
1.0171476
1.0272621
1.0486629
1.0728765
1.0711306
1.075046
1.0733541
1.0764287
1.0764933
1.0795756
1.0811644
1.084812
1.0880281
1.0927838
1.0979025
1.1043793
1.1117752
1.1205188
1.1304129
1.1414521
1.1532175
1.1650965
1.1761869
1.1857079
1.1932077
1.1980136
1.1999827
1.2000115
1.198623
1.1962748
1.1934116
1.1903334
1.1872455
1.1842745
1.1815589
1.1792988
1.1776133
1.1755688
1.1725651
1.1700802
1.1687737
1.1682455
1.1681145
1.1682169
1.1682687
1.1682616
1.1677129
1.1671875
1.1668591
1.1666723
1.0209582
1.0312877
1.0541854
1.077059
1.0745663
1.07858
1.0769379
1.0801157
1.0802767
1.0834861
1.08523
1.0890415
1.0924798
1.0974626
1.1028768
1.1096658
1.1174287
1.1265499
1.1368277
1.1481941
1.1601536
1.1719905
1.1827764
1.1918211
1.1986041
1.2023855
1.2034914
1.2028232
1.200785
1.1979094
1.1946279
1.1912182
1.1878649
1.1846799
1.1818174
1.1794955
1.1776951
1.1754922
1.1722677
1.1699659
1.1687766
1.1683247
1.16822
1.168308
1.1683424
1.1682683
1.1676826
1.1671698
1.1668501
1.1666688
1.0250193
1.0355619
1.0598667
1.0812184
1.0781794
1.0822926
1.0807091
1.083997
1.0842616
1.0876021
1.0895106
1.0934916
1.0971642
1.1023861
1.1081112
1.1152278
1.1233715
1.1328796
1.1435398
1.1552102
1.1673062
1.1790172
1.189428
1.1979435
1.2038289
1.2065435
1.2068783
1.2054708
1.2028019
1.1994215
1.1957442
1.1920214
1.1884142
1.1850268
1.1820425
1.1796752
1.1777306
1.1753386
1.1719832
1.1698666
1.1687995
1.1684109
1.1683284
1.1684117
1.168439
1.1682695
1.1676504
1.1671516
1.166841
1.1666656
1.029333
1.0401192
1.0656743
1.0854024
1.0819882
1.0862063
1.0846806
1.0880804
1.088453
1.0919249
1.0940075
1.0981655
1.1020866
1.1075617
1.113614
1.1210746
1.1296117
1.139514
1.1505498
1.1624905
1.1746521
1.1861521
1.1961276
1.2039976
1.2088353
1.2105281
1.2101045
1.2079497
1.2046707
1.2008109
1.1967611
1.1927422
1.1888924
1.1853236
1.1822462
1.1798427
1.1777375
1.1750899
1.1717387
1.1697863
1.1688347
1.168499
1.1684341
1.1685238
1.1685543
1.1682684
1.1676174
1.1671333
1.1668322
1.1666626
1.0338976
1.0450005
1.0715875
1.0896756
1.0860008
1.0903188
1.088847
1.0923553
1.0928442
1.0964522
1.0987232
1.1030687
1.1072546
1.1129985
1.1193951
1.1272155
1.1361581
1.1464592
1.1578567
1.1700207
1.1821658
1.1933718
1.20286
1.2099014
1.2135849
1.2143813
1.2131352
1.2102544
1.2063908
1.2020789
1.1976796
1.1933799
1.1893032
1.1855883
1.1824382
1.1799755
1.1777293
1.1747767
1.1715306
1.1697244
1.1688787
1.1685863
1.1685341
1.1686264
1.1686646
1.1682668
1.1675841
1.1671151
1.1668236
1.1666599
1.0386524
1.050192
1.0775394
1.0941632
1.0901655
1.0945921
1.093189
1.0968161
1.0974367
1.1011905
1.1036659
1.1082107
1.1126781
1.1187072
1.125465
1.1336611
1.1430192
1.1537196
1.1654552
1.177782
1.1898211
1.2006542
1.209571
1.2155895
1.2181122
1.2180564
1.2159679
1.2123822
1.2079628
1.2032272
1.1985003
1.1939353
1.1896584
1.1858376
1.1826092
1.1800304
1.1776637
1.174434
1.1713506
1.1696789
1.1689276
1.1686724
1.1686296
1.1687005
1.1687283
1.1682482
1.1675512
1.1670973
1.1668155
1.1666576
1.0436041
1.0557082
1.0834813
1.0986231
1.0945105
1.0990539
1.0977292
1.1014814
1.1022457
1.1061512
1.1088461
1.1136018
1.118368
1.1246995
1.1318355
1.1404219
1.1502036
1.1612982
1.1733361
1.1857509
1.1975936
1.2079826
1.2161748
1.2210059
1.2224602
1.2215213
1.2185951
1.2143324
1.2093889
1.2042584
1.1992245
1.1944137
1.1899755
1.1860584
1.1827097
1.1800563
1.1775537
1.1740822
1.1711957
1.1696562
1.1689798
1.1687562
1.1687208
1.1687565
1.1687562
1.1682136
1.1675191
1.16708
1.1668077
1.1666556
1.0487983
1.061615
1.0894571
1.1031117
1.0990605
1.1037204
1.1024813
1.1063577
1.1072791
1.1113428
1.1142739
1.1192536
1.1243366
1.1309881
1.1385184
1.1475091
1.1577193
1.1691947
1.181485
1.1939005
1.205458
1.2153362
1.2225819
1.2261404
1.2266279
1.2247525
1.2210146
1.2161063
1.2106722
1.2051749
1.1998547
1.1948266
1.1902647
1.1861775
1.1827542
1.1800649
1.177396
1.173735
1.1710608
1.1696492
1.1690348
1.1688389
1.1688093
1.1688196
1.1687661
1.1681679
1.167488
1.1670633
1.1668004
1.166654
1.0542081
1.0678827
1.0954198
1.1079179
1.1038066
1.108587
1.1074446
1.1114516
1.1125456
1.1167769
1.1199615
1.1251795
1.1305975
1.1375869
1.145527
1.1549339
1.1655733
1.1774056
1.1898826
1.202204
1.2133871
1.2226377
1.2287284
1.2310308
1.2305724
1.2277469
1.2232252
1.2177071
1.2118169
1.2059794
1.2003972
1.1951895
1.1905037
1.1862267
1.1827722
1.180064
1.1771862
1.1734082
1.1709423
1.16965
1.1690943
1.1689239
1.1688992
1.1689014
1.1687678
1.1681164
1.1674578
1.1670471
1.1667935
1.1666528
1.0598256
1.0745019
1.1013689
1.1128988
1.1087575
1.1136647
1.1126339
1.1167778
1.1180591
1.1224664
1.1259224
1.1313934
1.1371649
1.1445099
1.1528744
1.1627078
1.1737702
1.1859216
1.198505
1.2106351
1.2213578
1.2297907
1.2345511
1.2357331
1.2342508
1.2304993
1.225229
1.2191393
1.2128266
1.2066755
1.2008628
1.1955132
1.1906053
1.1862422
1.1827803
1.180018
1.1769107
1.173122
1.1708443
1.1696595
1.1691599
1.1690122
1.1689947
1.1689987
1.1687669
1.1680632
1.167428
1.1670314
1.1667871
1.166652
1.0657025
1.0814841
1.1073403
1.118077
1.1139387
1.1189727
1.1180616
1.1223475
1.123832
1.1284241
1.1321704
1.1379102
1.1440534
1.1517719
1.1605745
1.1708412
1.1823116
1.1947283
1.2073244
1.2191658
1.2293383
1.2366939
1.2400754
1.240197
1.2376581
1.2330094
1.2270299
1.2204081
1.2137054
1.2072702
1.201266
1.1957813
1.1906466
1.1862468
1.1827751
1.1799245
1.176561
1.1728952
1.1707718
1.1696862
1.1692316
1.1690984
1.169087
1.1691003
1.1687649
1.1680104
1.1673987
1.1670164
1.1667813
1.1666517
1.0718904
1.0888129
1.1133654
1.1234619
1.1193518
1.1245161
1.1237365
1.1281704
1.1298773
1.1346642
1.1387202
1.1447455
1.1512786
1.1593884
1.1686412
1.1793432
1.1911941
1.2038054
1.2163123
1.2277643
1.2372277
1.2432831
1.2453402
1.2443849
1.2407875
1.2352788
1.2286331
1.2215176
1.2144576
1.2077759
1.2016195
1.1959124
1.1906556
1.1862298
1.1827415
1.1797766
1.1761834
1.1727003
1.1707224
1.1697272
1.1693096
1.1691782
1.1691599
1.1691443
1.1687465
1.167959
1.1673704
1.1670022
1.1667761
1.1666518
1.0783175
1.0964545
1.1194641
1.1290635
1.1250029
1.1303045
1.1296726
1.1342611
1.1362101
1.1412022
1.1455872
1.1519159
1.1588576
1.1673766
1.1770893
1.1882207
1.2004088
1.2131273
1.225439
1.236399
1.2449228
1.2495142
1.2503699
1.2482586
1.2436384
1.237312
1.2300438
1.2224718
1.2150916
1.2082096
1.2019172
1.1959635
1.1906496
1.1861858
1.1826815
1.179578
1.1757964
1.1725303
1.1706924
1.1697792
1.1693927
1.1692589
1.1692202
1.169163
1.1687108
1.1679093
1.1673432
1.166989
1.1667715
1.1666524
1.0849825
1.1043808
1.1256585
1.1349022
1.1309109
1.1363564
1.1358889
1.1406345
1.1428451
1.1480531
1.1527881
1.1594399
1.1668094
1.1757546
1.1859327
1.1974764
1.2099403
1.2226643
1.23467
1.2450137
1.2523175
1.2554186
1.2551072
1.2518179
1.2462116
1.2391146
1.2312668
1.2232766
1.2156234
1.2085871
1.2020963
1.1959745
1.1906023
1.1861178
1.1825931
1.1793348
1.1754141
1.1723786
1.1706766
1.1698373
1.1694746
1.1693359
1.1692851
1.1691683
1.1686598
1.1678616
1.1673173
1.1669767
1.1667677
1.1666536
1.0918707
1.1125789
1.13201
1.1410053
1.1370904
1.1426839
1.1423946
1.1473026
1.1497964
1.1552349
1.1603427
1.1673392
1.1751549
1.1845411
1.1951831
1.207107
1.2197664
1.2323847
1.243966
1.2534909
1.2593349
1.2610507
1.2595052
1.2550572
1.2485117
1.2406924
1.2323083
1.2239473
1.2160764
1.2089039
1.2021697
1.1959653
1.1905232
1.1860264
1.1824755
1.179051
1.1750461
1.1722435
1.1706735
1.1698966
1.1695552
1.1694175
1.1693621
1.1691687
1.1685978
1.1678159
1.1672928
1.1669654
1.1667646
1.1666554
1.0990745
1.1211258
1.1385686
1.147401
1.1435506
1.1492874
1.1492049
1.1542805
1.1570843
1.1627706
1.1682753
1.1756382
1.1839167
1.1937549
1.2048488
1.2171018
1.2298579
1.242253
1.2532851
1.2617134
1.2659614
1.2663839
1.2635442
1.2579779
1.2505442
1.2420516
1.2331801
1.2245108
1.2164692
1.2090991
1.2021913
1.1959099
1.1904123
1.1859126
1.1823241
1.1787248
1.1747046
1.1721245
1.1706781
1.1699569
1.1696334
1.1694991
1.169445
1.1691673
1.1685291
1.1677719
1.1672697
1.166955
1.1667623
1.1666577
1.1065368
1.1299374
1.1452326
1.1540294
1.1502943
1.1561898
1.1563357
1.1615963
1.1647367
1.1706889
1.1766132
1.1843635
1.1931183
1.203413
1.2149325
1.2274429
1.2401808
1.2522243
1.262539
1.2695724
1.2722341
1.2713638
1.2672206
1.2605833
1.2523162
1.2432019
1.2339048
1.2249945
1.216787
1.2091849
1.2021884
1.1958157
1.1902736
1.1857755
1.1821317
1.178348
1.1744061
1.1720259
1.1706927
1.1700222
1.1697096
1.169568
1.1695005
1.1691602
1.1684583
1.1677293
1.1672481
1.1669456
1.1667607
1.1666607
1.1141635
1.1389969
1.1522158
1.1609884
1.1573793
1.163431
1.1638299
1.1692785
1.172784
1.1790189
1.1853842
1.1935418
1.2027825
1.2135284
1.2254286
1.2381032
1.2506972
1.2622482
1.271594
1.2769912
1.2782065
1.2759342
1.2705323
1.2628795
1.2538365
1.2441609
1.2345122
1.2253938
1.2169401
1.2092159
1.2021444
1.1956836
1.1901096
1.1856139
1.1818915
1.1779169
1.1741657
1.1719526
1.1707221
1.1700919
1.1697794
1.1696189
1.169525
1.1691377
1.1683875
1.1676883
1.167228
1.1669372
1.1667599
1.1666643
1.1220366
1.1483947
1.1594483
1.1682685
1.1648075
1.1710292
1.1717095
1.1773571
1.1812554
1.1877923
1.1946182
1.2032011
1.2129305
1.2241082
1.2363226
1.249048
1.2613627
1.2722657
1.2803118
1.2839926
1.2837996
1.2800964
1.2734823
1.2648752
1.2551192
1.2449573
1.2350203
1.2256341
1.2170076
1.2092184
1.2020576
1.1955179
1.1899225
1.1854259
1.1816013
1.1774761
1.1739594
1.1719036
1.1707623
1.17016
1.1698391
1.169658
1.1695337
1.1691017
1.168316
1.1676488
1.1672089
1.1669304
1.1667601
1.1666688
1.1301914
1.1582723
1.1670007
1.175922
1.1726301
1.1790245
1.1800154
1.1858644
1.1901832
1.1970423
1.204346
1.2133679
1.223579
1.235151
1.2475899
1.2602353
1.2721179
1.2821438
1.2885838
1.2906256
1.2889592
1.2838425
1.2760765
1.2665818
1.2561857
1.2456212
1.2353972
1.2257434
1.2170317
1.2091804
1.2019318
1.195322
1.1897141
1.1852104
1.1812654
1.1770447
1.1737812
1.171873
1.1708062
1.1702222
1.1698917
1.1696993
1.169535
1.1690533
1.1682471
1.1676107
1.1671911
1.166925
1.1667614
1.166674
1.1386774
1.1685543
1.1749073
1.1839706
1.1808728
1.1874304
1.1887727
1.194834
1.1996026
1.206805
1.2145988
1.2240662
1.2347384
1.2466456
1.2591959
1.2716174
1.2828965
1.2917346
1.2963694
1.2968724
1.2936514
1.2871754
1.2783247
1.2680169
1.2570662
1.2461574
1.2355801
1.225786
1.2170221
1.2090996
1.2017704
1.1950994
1.1894856
1.1849664
1.1808915
1.1766366
1.1736258
1.1718542
1.1708492
1.1702801
1.1699468
1.1697509
1.1695332
1.1689942
1.168183
1.1675741
1.1671746
1.1669207
1.1667638
1.16668
1.1474995
1.1792731
1.1831934
1.1924361
1.1895666
1.1962894
1.1980245
1.2043111
1.2095541
1.2171168
1.2254053
1.2353157
1.2464116
1.2585698
1.2710964
1.2831323
1.2936004
1.3008854
1.3037023
1.3026569
1.2978742
1.2900996
1.2802409
1.2692056
1.2577906
1.2465022
1.2356539
1.2257848
1.2169597
1.208981
1.2015776
1.1948533
1.1892374
1.1846921
1.1804858
1.1762614
1.1734916
1.1718454
1.1708928
1.1703361
1.1700032
1.1698098
1.1695301
1.1689263
1.1681211
1.1675392
1.1671595
1.1669176
1.1667673
1.1666871
1.1566993
1.1903732
1.1919165
1.2013661
1.1987663
1.2056541
1.207821
1.2143388
1.2200727
1.228008
1.2367897
1.2471293
1.2585909
1.2708901
1.2832382
1.294701
1.3040544
1.3094965
1.3106351
1.3079126
1.3016241
1.292626
1.2818458
1.2701799
1.2583621
1.2466626
1.2356702
1.2257235
1.2168561
1.2088282
1.2013573
1.1945865
1.1889687
1.1843831
1.1800469
1.1759322
1.1733797
1.171848
1.1709406
1.1703932
1.1700522
1.1698416
1.1695126
1.168852
1.1680618
1.167506
1.1671458
1.1669156
1.166772
1.1666951
1.1663885
1.2018783
1.2011535
1.2108178
1.208529
1.2155646
1.218198
1.2249503
1.231185
1.2395062
1.2487735
1.2595135
1.2712571
1.2835593
1.295554
1.3062284
1.3140863
1.317587
1.3170619
1.3126391
1.3049058
1.2947706
1.2831687
1.2709705
1.2587019
1.2467227
1.2356197
1.2256098
1.2167137
1.2086463
1.2011135
1.1943013
1.1886783
1.1840347
1.1795752
1.1756615
1.1732896
1.1718568
1.1709874
1.1704449
1.1700982
1.1698551
1.1694823
1.1687741
1.1680048
1.1674746
1.1671334
1.1669148
1.1667779
1.1667042
1.1766577
1.2137989
1.2109609
1.2208166
1.2188809
1.2260464
1.2291791
1.2361735
1.2429194
1.2516408
1.2613777
1.2724666
1.2843771
1.2965167
1.3079516
1.3175406
1.3235485
1.3252106
1.3229104
1.3168267
1.3077308
1.2965581
1.2842437
1.2715821
1.2588547
1.2467141
1.2354997
1.2254493
1.2165391
1.2084395
1.2008501
1.1939996
1.1883642
1.1836456
1.1791023
1.175435
1.1732165
1.1718657
1.1710313
1.1704945
1.1701394
1.1698577
1.1694392
1.1686946
1.1679496
1.1674449
1.1671225
1.1669155
1.1667852
1.1667146
1.1876039
1.2260776
1.2213513
1.2313752
1.2298435
1.2371227
1.2407932
1.2480493
1.2553162
1.2644471
1.274619
1.2859728
1.2979
1.3096838
1.3203194
1.3284437
1.3324208
1.3322882
1.3281548
1.3204798
1.3101181
1.2980232
1.2851019
1.2719296
1.2589086
1.2466179
1.2353211
1.2252488
1.216337
1.2082123
1.2005707
1.1936823
1.188025
1.1832202
1.1786541
1.1752369
1.1731541
1.171874
1.1710753
1.1705455
1.1701768
1.169856
1.1693844
1.1686143
1.1678966
1.1674177
1.1671129
1.1669175
1.1667939
1.166726
1.1993119
1.2386142
1.2323375
1.2424844
1.2414238
1.2488219
1.2530869
1.2606419
1.2684312
1.2779598
1.2885011
1.2999959
1.3117533
1.3229541
1.3324931
1.3387487
1.3407389
1.3387274
1.3327876
1.32361
1.3120974
1.2992057
1.2857491
1.2720816
1.258881
1.2464471
1.2350906
1.225015
1.2161127
1.207969
1.2002785
1.1933501
1.1876599
1.1827663
1.1782407
1.1750573
1.1730981
1.1718844
1.1711218
1.1705982
1.1702128
1.1698525
1.1693205
1.1685345
1.1678461
1.1673922
1.167105
1.1669208
1.1668039
1.1667384
1.211885
1.2512367
1.2439571
1.2541916
1.2536876
1.2612221
1.2661294
1.2740225
1.2823187
1.292201
1.3030041
1.3144739
1.3258411
1.3361911
1.3442453
1.3483893
1.3484578
1.3444796
1.3368096
1.3262405
1.3137084
1.3001339
1.2861049
1.2721316
1.2587509
1.2462103
1.2348167
1.2247538
1.2158708
1.2077137
1.1999768
1.1930032
1.1872697
1.1822925
1.1778612
1.174891
1.1730463
1.1718968
1.1711713
1.170655
1.1702501
1.1698448
1.1692498
1.1684571
1.1677983
1.1673661
1.1670986
1.1669253
1.1668151
1.1667521
1.2254855
1.2639487
1.2563711
1.2666719
1.2668495
1.2744852
1.2799979
1.2882347
1.297006
1.3071671
1.3180785
1.3293132
1.3400349
1.3492208
1.3553501
1.3573888
1.3554567
1.3495366
1.3402337
1.3284066
1.3149952
1.3007966
1.2862612
1.2720806
1.2585408
1.2459175
1.2345071
1.2244709
1.2156159
1.2074505
1.199668
1.1926411
1.1868555
1.1818067
1.1775111
1.1747353
1.1729984
1.1719117
1.1712249
1.1707173
1.1702908
1.1698262
1.1691735
1.1683814
1.1677521
1.1673424
1.1670935
1.1669311
1.1668276
1.1667674
1.240395
1.2772567
1.2698424
1.2801121
1.2810721
1.2887322
1.2947911
1.3033317
1.3125017
1.3228203
1.3336375
1.3443879
1.3541619
1.3617769
1.3657096
1.3657058
1.3616745
1.3538955
1.3430881
1.3301536
1.3159867
1.301157
1.2862994
1.271921
1.2582592
1.2455782
1.2341688
1.2241716
1.2153522
1.2071833
1.1993549
1.1922633
1.1864178
1.1813138
1.1771886
1.1745894
1.1729558
1.171931
1.1712832
1.1707854
1.1703333
1.1697975
1.1690924
1.1683067
1.1677072
1.1673227
1.1670892
1.1669384
1.1668414
1.1667845
1.2565389
1.2912466
1.2844356
1.2945062
1.2962189
1.3039787
1.3106354
1.3193882
1.3287924
1.339076
1.3495533
1.3595348
1.3680152
1.3736
1.3753375
1.3731948
1.3670993
1.3575742
1.3454174
1.3315299
1.3166534
1.301313
1.2862189
1.2716745
1.2579186
1.2452013
1.2338085
1.2238612
1.215084
1.206916
1.1990399
1.1918697
1.1859548
1.180814
1.1768988
1.1744545
1.1729196
1.1719556
1.1713469
1.1708568
1.1703495
1.1697593
1.1690082
1.168234
1.1676655
1.167304
1.1670855
1.1669471
1.1668567
1.1668036
1.2738182
1.306456
1.3000784
1.3099165
1.3123964