/*--------------------------------*- C++ -*----------------------------------*\
  =========                 |
  \\      /  F ield         | OpenFOAM: The Open Source CFD Toolbox
   \\    /   O peration     | Website:  https://openfoam.org
    \\  /    A nd           | Version:  8
     \\/     M anipulation  |
\*---------------------------------------------------------------------------*/
FoamFile
{
    version     2.0;
    format      ascii;
    class       surfaceVectorField;
    location    "0.0499991";
    object      rhoUf;
}
// * * * * * * * * * * * * * * * * * * * * * * * * * * * * * * * * * * * * * //

dimensions      [1 -2 -1 0 0 0 0];

internalField   nonuniform List<vector> 
39600
(
(212.9771 2.3607992e-16 -8.3782953)
(197.10834 3.1134374e-16 -8.3936314)
(196.03779 4.7088492e-16 -7.5848121)
(243.06921 -1.2649483e-16 -9.6659213)
(232.65097 -2.3506824e-16 -9.6046263)
(231.3937 -1.2189927e-16 -8.6541535)
(265.87976 7.4165161e-17 -10.700181)
(256.61769 9.8367781e-17 -10.77349)
(255.16236 0 -9.6993858)
(287.24184 2.4799132e-17 -11.7224)
(278.22834 -3.7729116e-18 -11.782443)
(276.59585 8.5570446e-17 -10.635219)
(307.75602 -2.0899944e-17 -12.772036)
(299.49031 7.6313755e-17 -12.96799)
(297.63785 -7.3910027e-17 -11.700703)
(320.03057 1.9942334e-17 -13.433487)
(318.92415 -2.6489638e-18 -13.835998)
(317.77185 6.443739e-17 -12.566194)
(322.48059 -9.5223491e-17 -13.537624)
(321.76562 -5.1191263e-17 -14.383962)
(321.78873 -1.0068621e-16 -13.117408)
(322.69892 -1.3662685e-17 -13.542118)
(323.22511 -4.2763906e-17 -13.790491)
(323.24977 -5.5068597e-18 -12.574565)
(322.33524 3.9307596e-17 -13.52249)
(321.99693 3.5608627e-17 -14.59734)
(322.02608 3.7636791e-17 -13.315935)
(322.36617 0 -13.526534)
(322.69792 0 -13.66984)
(322.6825 0 -12.452459)
(322.11585 3.7877073e-17 -13.521581)
(321.96277 1.6080651e-18 -14.628766)
(321.95186 0 -13.35537)
(322.05463 -1.7747469e-17 -13.528402)
(322.29697 4.1178221e-17 -13.723802)
(322.26542 4.3295734e-17 -12.494973)
(321.8205 -4.8004279e-17 -13.53263)
(321.78899 -1.0449742e-16 -14.5463)
(321.76043 -5.5685457e-17 -13.283006)
(321.67969 3.2154903e-17 -13.541747)
(321.87205 2.8419793e-17 -13.85914)
(321.83675 4.3129079e-18 -12.617957)
(321.43222 -1.9907295e-17 -13.550643)
(321.48038 2.482329e-17 -14.435958)
(321.44904 1.0087256e-17 -13.180759)
(321.20931 -6.8064594e-18 -13.557224)
(321.38829 -1.9881281e-17 -13.998128)
(321.35931 -2.0567797e-17 -12.753748)
(320.90421 1.823369e-17 -13.559382)
(321.01348 2.0794665e-17 -14.331478)
(320.99176 9.0605273e-18 -13.090931)
(320.58421 0 -13.54715)
(320.76391 7.1866975e-18 -14.083719)
(320.75363 6.8721706e-18 -12.849815)
(320.19595 0 -13.526183)
(320.34933 -2.3795343e-17 -14.233988)
(320.34448 3.6471697e-19 -13.006178)
(319.77476 0 -13.493962)
(319.94428 9.8602007e-18 -14.101023)
(319.94302 -6.1898877e-19 -12.865491)
(319.25874 0 -13.485184)
(319.41746 0 -14.164305)
(319.39592 0 -12.918904)
(318.63417 -4.9753235e-18 -13.446028)
(318.86875 -1.363838e-17 -14.096059)
(318.85683 3.6074063e-18 -12.850237)
(317.89605 1.1524633e-17 -13.339308)
(318.20712 -1.1093138e-17 -14.038083)
(318.21874 -1.1395723e-17 -12.815247)
(317.0494 1.4599933e-17 -13.145255)
(317.42939 1.923304e-17 -13.852934)
(317.46415 1.9474324e-17 -12.664157)
(316.08792 1.6598114e-18 -12.843296)
(316.51916 4.3172642e-19 -13.595163)
(316.57674 -1.1367251e-17 -12.452253)
(315.00937 -4.0078041e-18 -12.41066)
(315.48497 -1.4557683e-17 -13.194492)
(315.56433 1.5622077e-17 -12.108542)
(313.82216 -1.2090104e-17 -11.821423)
(314.32944 -2.8011493e-17 -12.643837)
(314.43072 -2.0465086e-17 -11.63314)
(312.56036 7.526695e-18 -11.064067)
(313.08181 8.1357173e-18 -11.910337)
(313.20224 3.8786076e-18 -10.993221)
(311.2737 -1.1473973e-17 -10.150297)
(311.78693 -5.644602e-17 -11.002051)
(311.92051 3.8627292e-18 -10.194293)
(310.0193 1.1308826e-17 -9.1204514)
(310.50262 5.5356421e-17 -9.9470882)
(310.6405 -8.2453147e-18 -9.2581154)
(308.85179 5.2852393e-17 -8.0362133)
(309.28759 -2.6978372e-17 -8.8064857)
(309.42046 1.8354877e-17 -8.2385712)
(307.81503 1.2155998e-17 -6.9680972)
(308.19023 -2.8389158e-17 -7.6542134)
(308.31016 1.871856e-17 -7.2022779)
(306.93593 2.2106395e-17 -5.9728561)
(307.24636 -4.1531864e-17 -6.5627527)
(307.34911 -1.5563094e-17 -6.215765)
(306.22707 5.3438075e-17 -5.0946878)
(306.46713 -4.3060403e-17 -5.5764627)
(306.55049 3.0067217e-17 -5.3222427)
(305.69665 3.3799013e-17 -4.357182)
(305.86837 -1.5797325e-18 -4.7286677)
(305.93259 8.1159891e-18 -4.5500055)
(305.33795 4.4318088e-17 -3.685798)
(305.43551 5.6909083e-19 -4.0607216)
(305.49444 1.6111655e-17 -3.9347389)
(305.11152 5.856589e-17 -3.02896)
(305.10339 1.4804882e-17 -3.5171004)
(305.16243 1.065812e-19 -3.4333449)
(304.92982 5.9657696e-17 -2.6257115)
(304.90565 2.1355382e-17 -2.9929827)
(304.93427 3.0566572e-17 -2.9482633)
(304.83309 -2.8301545e-17 -2.3231297)
(304.82709 1.074309e-16 -2.5080687)
(304.84236 -6.1725149e-18 -2.4910535)
(304.82641 1.1222993e-17 -1.9550561)
(304.81423 8.6365555e-17 -2.1039868)
(304.83402 -6.0288058e-18 -2.1026148)
(304.83309 1.8250546e-17 -1.6264545)
(304.82332 2.6846455e-17 -1.7669202)
(304.84011 8.1138376e-18 -1.7692173)
(304.84747 -1.4697828e-17 -1.3035902)
(304.83465 9.2767445e-17 -1.4646206)
(304.85478 -3.5279684e-18 -1.4703305)
(304.88123 6.3306614e-17 -0.96215241)
(304.83234 9.7084973e-18 -1.1035674)
(304.83615 2.6557109e-18 -1.1344239)
(304.75804 6.013962e-17 -1.3618073)
(305.03055 -1.0656649e-16 -0.7078137)
(304.95841 1.497798e-17 -0.74802553)
(305.0324 -6.7138469e-17 -0.63405131)
(305.12392 -1.0481142e-16 -0.42141447)
(305.16176 -1.9627163e-18 -0.43548874)
(305.05999 -1.0536465e-16 -0.091656926)
(305.03524 -4.9352009e-19 -0.26396926)
(305.06839 -7.1759329e-18 -0.25505275)
(304.94342 -4.7257521e-17 0.017215798)
(304.91372 1.0912641e-16 -0.19066165)
(304.9194 -8.7568819e-18 -0.17952408)
(304.8525 -4.8668218e-18 -0.12941356)
(304.85866 -9.2792602e-20 -0.15268364)
(304.85119 -5.1309418e-18 -0.14936492)
(304.84454 1.5036434e-19 -0.073440771)
(304.84998 4.6335303e-17 -0.099284805)
(304.85122 0 -0.10030852)
(304.83676 4.9183985e-19 -0.041169795)
(304.83776 1.9791263e-20 -0.043717903)
(213.83881 -1.0848437e-16 -9.2481105)
(198.33141 -6.5084856e-19 -9.2302625)
(244.13127 -4.1345509e-17 -10.645083)
(233.98925 -1.1710858e-16 -10.580146)
(267.10776 3.0183666e-17 -11.762592)
(258.10726 9.6813227e-17 -11.859382)
(288.64972 4.0319454e-17 -12.862716)
(279.85807 -8.1647488e-17 -12.937507)
(308.9906 1.0024658e-16 -13.972656)
(301.33552 2.170719e-16 -14.247263)
(320.49325 -6.8325904e-17 -14.627845)
(319.96374 -6.1869534e-17 -15.102794)
(322.44885 -6.2584982e-19 -14.733049)
(321.83118 -5.2608774e-17 -15.661134)
(322.68715 -7.5054612e-19 -14.758148)
(323.28909 -4.59623e-17 -15.012477)
(322.33481 0 -14.754597)
(322.02569 3.7713949e-17 -15.896474)
(322.3791 1.4448456e-18 -14.770828)
(322.73968 3.1422675e-17 -14.903354)
(322.13347 1.7339286e-18 -14.773761)
(321.98074 -2.6221422e-17 -15.92571)
(322.07832 -3.213383e-17 -14.784725)
(322.32042 -4.635376e-17 -14.971055)
(321.84509 -4.0342503e-17 -14.791318)
(321.80401 5.8815038e-18 -15.833539)
(321.70496 2.1556578e-17 -14.800993)
(321.88966 1.8922613e-18 -15.11685)
(321.45536 2.8402613e-17 -14.8082)
(321.49033 1.9414662e-17 -15.709668)
(321.22971 3.8548877e-18 -14.808648)
(321.39048 0 -15.255745)
(320.92061 1.108903e-17 -14.807319)
(321.01298 -1.7290076e-19 -15.590678)
(320.59636 -1.3582413e-17 -14.793809)
(320.75485 2.8886882e-17 -15.343653)
(320.20306 -1.6903214e-17 -14.773365)
(320.33633 -3.5346025e-17 -15.507194)
(319.75661 1.0673609e-17 -14.762663)
(319.94378 -1.0537349e-17 -15.390282)
(319.21571 -1.2219077e-17 -14.748281)
(319.41871 -1.2299311e-19 -15.448208)
(318.58537 -1.98485e-17 -14.693008)
(318.85461 1.4326598e-17 -15.358067)
(317.84447 -6.1329308e-18 -14.551052)
(318.16276 -5.492562e-18 -15.271231)
(316.99391 6.9645606e-18 -14.31937)
(317.36354 -6.6569076e-17 -15.055933)
(316.01786 -1.4176204e-17 -13.971998)
(316.43114 -8.1391675e-18 -14.755516)
(314.91728 -3.6936746e-17 -13.475663)
(315.37303 -3.7844398e-17 -14.297009)
(313.70971 -1.1404319e-17 -12.804298)
(314.19421 2.1290096e-17 -13.668508)
(312.43206 -4.887623e-17 -11.947363)
(312.92707 0 -12.838495)
(311.13707 -1.0931517e-18 -10.9212)
(311.62008 1.5994108e-18 -11.818274)
(309.88379 2.5443825e-17 -9.7721623)
(310.33373 2.047165e-17 -10.642642)
(308.72634 -1.0703543e-16 -8.5693394)
(309.12703 -6.9787257e-17 -9.3799718)
(307.70615 -8.0166195e-17 -7.3891652)
(308.04651 2.9319376e-17 -8.1114515)
(306.84638 -1.0582276e-16 -6.2938224)
(307.12404 -3.2320279e-17 -6.9148852)
(306.15789 -1.0180892e-16 -5.3300902)
(306.36837 -2.3611035e-17 -5.8356855)
(305.64133 -3.4768422e-17 -4.5211753)
(305.79231 -1.0402273e-16 -4.9141738)
(305.29515 -3.0228788e-17 -3.759675)
(305.3633 -3.8892489e-17 -4.1928561)
(305.06061 -2.2059158e-17 -3.1222077)
(305.04562 1.4704508e-17 -3.604231)
(304.89516 6.0842547e-17 -2.6940413)
(304.87399 -2.1138017e-16 -3.041966)
(304.81272 2.2388459e-16 -2.3412454)
(304.80636 -1.2118042e-18 -2.5312326)
(304.80974 1.0853824e-16 -1.9613757)
(304.79284 -1.3026706e-17 -2.1115107)
(304.81551 9.3881513e-17 -1.6264169)
(304.80467 0 -1.7696405)
(304.82593 1.2644787e-16 -1.300678)
(304.81603 -1.3511268e-17 -1.4596746)
(304.84783 -1.4924367e-16 -1.1899796)
(304.85533 2.9132351e-17 -1.0761656)
(304.8923 -2.8194789e-16 -1.1358686)
(305.05806 -7.1589973e-17 -0.67712348)
(304.9881 -4.7287458e-17 -0.5751911)
(305.10079 -3.4511143e-16 -0.41487574)
(305.00195 2.0127856e-16 -0.097216951)
(305.01053 6.2194131e-17 -0.27417629)
(304.92491 1.7182438e-16 -0.033243984)
(304.90877 5.9418772e-17 -0.20131039)
(304.85589 4.6523174e-17 -0.13100531)
(304.8632 -4.1886424e-18 -0.15618548)
(304.8435 5.1718559e-17 -0.072453082)
(304.84868 1.430747e-18 -0.098790569)
(304.83578 -9.3256117e-19 -0.038964363)
(215.27769 -2.6957713e-19 -10.176831)
(199.55949 6.7519658e-19 -10.101377)
(245.72907 1.2187771e-18 -11.709861)
(235.39685 1.2499696e-16 -11.593516)
(268.83471 1.4474203e-18 -12.933529)
(259.65778 -3.5152128e-20 -12.988344)
(290.54606 6.7776489e-17 -14.136575)
(281.53309 -3.0310119e-20 -14.148831)
(310.56977 8.041194e-17 -15.322598)
(303.23095 1.4887917e-16 -15.596494)
(321.10037 -4.7235954e-17 -15.963079)
(320.86751 -1.3253889e-16 -16.420646)
(322.51361 -9.7393426e-17 -16.043125)
(321.83539 -5.313963e-17 -16.991716)
(322.72647 -1.4913526e-17 -16.061831)
(323.29904 4.6319992e-18 -16.273644)
(322.3605 6.8890865e-17 -16.050191)
(322.00384 3.9226657e-17 -17.229161)
(322.40047 8.8990925e-18 -16.062371)
(322.74568 9.4565631e-17 -16.164732)
(322.14446 -7.1614038e-17 -16.060758)
(321.96679 -8.0314755e-17 -17.245463)
(322.08782 -1.3303021e-17 -16.066844)
(322.31099 -4.2510403e-17 -16.241563)
(321.85302 4.7442739e-17 -16.072432)
(321.79746 3.9884052e-17 -17.140305)
(321.71045 -1.5755558e-18 -16.078857)
(321.88186 -1.5354627e-19 -16.393343)
(321.45652 -6.7989621e-18 -16.083468)
(321.47715 -6.1490038e-18 -16.99926)
(321.22791 -3.9230713e-18 -16.080253)
(321.36868 -1.0668616e-17 -16.536515)
(320.92361 1.4887353e-17 -16.074123)
(320.98666 -1.3157485e-17 -16.883194)
(320.60744 1.2799881e-17 -16.075161)
(320.73873 3.6169092e-17 -16.649207)
(320.20695 -3.1156369e-17 -16.080411)
(320.32462 -2.4114442e-17 -16.823632)
(319.74123 -2.1964234e-17 -16.069199)
(319.924 -4.0230318e-17 -16.710493)
(319.17553 2.466612e-17 -16.041361)
(319.39404 -1.2044901e-19 -16.750003)
(318.52365 3.0064767e-17 -15.94611)
(318.80239 1.2959447e-17 -16.634782)
(317.77025 -5.9523685e-17 -15.777397)
(318.08881 3.504444e-17 -16.521208)
(316.89849 -8.6468857e-17 -15.510737)
(317.26758 -2.6665296e-17 -16.27635)
(315.89714 -2.8754301e-17 -15.112576)
(316.31051 -1.5531874e-17 -15.93039)
(314.772 1.4085042e-17 -14.546719)
(315.22622 -1.2730374e-17 -15.408857)
(313.54207 3.4444829e-17 -13.786251)
(314.0228 3.1047776e-17 -14.696373)
(312.24835 4.9567991e-17 -12.822666)
(312.73609 0 -13.763229)
(310.9468 2.1040636e-17 -11.677849)
(311.4185 5.4755493e-17 -12.625012)
(309.69797 -6.4786267e-17 -10.405342)
(310.13294 -5.5381349e-17 -11.324198)
(308.55502 5.5257085e-17 -9.0819616)
(308.93845 9.428528e-18 -9.9371358)
(307.55638 8.2709586e-17 -7.7899722)
(307.87909 6.8958853e-17 -8.5522403)
(306.72145 4.8209922e-17 -6.5962295)
(306.98248 -2.1903423e-17 -7.2515895)
(306.05856 -1.7530307e-17 -5.5502415)
(306.25474 2.1279235e-16 -6.0816243)
(305.55912 -1.1493513e-16 -4.6747689)
(305.70482 -1.1359844e-17 -5.0917116)
(305.23206 0 -3.8435806)
(305.2803 -9.9961122e-18 -4.3182968)
(305.0068 -1.4822507e-16 -3.2054226)
(304.98666 -2.2517428e-16 -3.6827911)
(304.8568 -2.9542056e-16 -2.7516527)
(304.8394 1.8541698e-18 -3.0846802)
(304.78796 -2.3582673e-16 -2.3550643)
(304.7813 1.5107544e-16 -2.5511197)
(304.7866 -1.2263351e-16 -1.9636304)
(304.77023 -1.2227968e-16 -2.1178129)
(304.79799 -1.0574576e-16 -1.6200897)
(304.78368 2.7155586e-17 -1.7704968)
(304.83111 -1.155212e-16 -1.2894267)
(304.79748 -3.5823316e-16 -1.4457221)
(304.81373 1.1321055e-16 -1.3021375)
(304.89517 9.746112e-18 -1.0449757)
(304.92386 -1.038103e-16 -0.98864509)
(305.0617 1.2100776e-16 -0.65259498)
(305.0051 -2.7906644e-16 -0.51558367)
(305.07813 8.1616562e-17 -0.41131686)
(304.99682 -8.1582189e-17 -0.13333828)
(304.98995 2.4497791e-16 -0.28234585)
(304.91699 -1.0949102e-16 -0.072525682)
(304.90532 -9.2111866e-17 -0.20994447)
(304.85707 -5.0499813e-17 -0.13227866)
(304.86537 -1.4409186e-16 -0.15916869)
(304.84236 -5.1803259e-17 -0.071173354)
(304.84734 -4.6233176e-17 -0.098221472)
(304.83478 -1.2882032e-18 -0.036613398)
(216.52721 1.135792e-16 -11.115173)
(200.75881 1.7401534e-16 -10.992052)
(247.13089 1.334504e-16 -12.77896)
(236.75851 -1.3126583e-16 -12.624655)
(270.37407 -1.4781952e-18 -14.103895)
(261.17122 1.0351917e-16 -14.137154)
(292.25388 6.7616101e-17 -15.404127)
(283.17073 7.2832903e-19 -15.380087)
(311.93059 -3.7227516e-17 -16.652999)
(305.07681 7.4255174e-17 -16.968448)
(321.52864 -1.4447126e-16 -17.271727)
(321.62825 -1.2531004e-16 -17.735228)
(322.49768 4.2003558e-17 -17.333372)
(321.81682 -1.7272603e-18 -18.330418)
(322.70428 5.4809959e-17 -17.355449)
(323.30476 4.7707339e-17 -17.538602)
(322.33649 5.9983525e-17 -17.344584)
(321.97016 -2.5330344e-18 -18.572646)
(322.38529 2.1081581e-17 -17.359542)
(322.73939 6.2393126e-17 -17.436455)
(322.11976 -5.4849022e-17 -17.357523)
(321.934 -5.1939329e-17 -18.580316)
(322.0671 2.9852698e-18 -17.365471)
(322.28561 -4.8011826e-17 -17.529505)
(321.84032 -3.4602091e-18 -17.372952)
(321.7737 3.2800909e-17 -18.465738)
(321.69642 -4.1477663e-18 -17.375788)
(321.84726 4.0578791e-18 -17.690909)
(321.44557 -9.572994e-18 -17.375586)
(321.43511 6.5240083e-18 -18.317634)
(321.22459 -1.949775e-17 -17.381227)
(321.33619 -1.0420245e-17 -17.858417)
(320.918 3.6730438e-18 -17.39818)
(320.96495 -3.5830033e-17 -18.221265)
(320.58262 4.9562465e-18 -17.411112)
(320.71398 1.4422398e-17 -17.995109)
(320.15971 -3.1671937e-17 -17.416364)
(320.29374 4.7737729e-19 -18.164665)
(319.67274 -2.2166207e-17 -17.39358)
(319.87776 7.7854861e-19 -18.042335)
(319.09957 -1.2690095e-17 -17.33126)
(319.32978 0 -18.062246)
(318.44403 1.5971853e-17 -17.216836)
(318.72106 2.9237358e-17 -17.928965)
(317.672 7.2589137e-17 -17.023694)
(317.98615 2.2494252e-17 -17.791245)
(316.77689 4.1979437e-17 -16.718733)
(317.14002 1.8159923e-17 -17.514054)
(315.74968 -4.0777681e-20 -16.265683)
(316.15582 9.7101804e-17 -17.11838)
(314.59805 0 -15.625034)
(315.04317 8.0001574e-17 -16.528377)
(313.34537 0 -14.769594)
(313.81401 8.7456385e-17 -15.725582)
(312.03638 0 -13.693728)
(312.50802 -8.8130542e-18 -14.682861)
(310.73036 -1.0135142e-17 -12.425631)
(311.18173 0 -13.421082)
(309.48912 1.1628477e-17 -11.026811)
(309.90023 3.162654e-19 -11.991275)
(308.36448 1.7084049e-17 -9.5818915)
(308.72216 1.7623032e-17 -10.478241)
(307.39134 -2.5420273e-17 -8.1787512)
(307.68845 4.3396117e-19 -8.9773735)
(306.58504 1.1714781e-16 -6.8883288)
(306.82224 -3.3384576e-17 -7.5740238)
(305.95105 2.4219115e-16 -5.7619436)
(306.12664 -1.2388838e-16 -6.3161661)
(305.47162 9.2582678e-17 -4.8201943)
(305.60582 9.1050306e-17 -5.2621578)
(305.16081 -2.1136745e-16 -3.9343456)
(305.18886 1.708727e-16 -4.4372896)
(304.9501 -1.0051505e-16 -3.2864972)
(304.92562 1.7889625e-17 -3.7544623)
(304.8182 4.299047e-16 -2.8036996)
(304.8014 -1.3054623e-17 -3.1235051)
(304.76257 2.9443051e-16 -2.3692543)
(304.75234 -1.9022201e-17 -2.5694221)
(304.76381 1.0366646e-17 -1.9657614)
(304.74585 8.0708449e-20 -2.1242862)
(304.77939 -1.81383e-16 -1.6121356)
(304.76086 2.7099072e-17 -1.770667)
(304.83573 -2.7451735e-16 -1.2732696)
(304.77817 -2.5206502e-16 -1.4253095)
(304.84118 7.9078844e-18 -1.2751635)
(304.93123 9.7197618e-18 -1.0127478)
(304.94813 3.1142258e-16 -0.89597822)
(305.05917 -7.0142097e-18 -0.63370896)
(304.98839 5.8888167e-16 -0.47454624)
(305.05868 3.4432155e-16 -0.41043279)
(304.97218 2.73038e-16 -0.15349735)
(304.97247 2.7664714e-18 -0.29003558)
(304.90855 -1.2111518e-16 -0.10205194)
(304.90152 0 -0.21729771)
(304.85718 -1.5089506e-16 -0.13354841)
(304.86577 2.6449774e-16 -0.16179141)
(304.84114 0 -0.069870525)
(304.84592 2.0145771e-16 -0.097623875)
(304.83378 -1.2051817e-18 -0.03423263)
(217.80653 -4.203094e-17 -12.077298)
(201.93615 -7.8307802e-18 -11.905545)
(248.57196 -1.7867522e-16 -13.877833)
(238.10957 -1.1756284e-16 -13.681885)
(271.9567 1.1364199e-16 -15.309336)
(262.68273 1.0018961e-16 -15.316882)
(293.99321 1.5065705e-18 -16.712421)
(284.80715 -6.2496424e-20 -16.64498)
(313.25487 3.7341318e-18 -18.018988)
(306.87937 -2.4699392e-18 -18.37819)
(321.89591 4.4770863e-18 -18.608506)
(322.25274 -6.5752214e-17 -19.064575)
(322.48037 -2.3129414e-21 -18.65049)
(321.76566 -3.613853e-18 -19.693237)
(322.68564 -4.3822467e-18 -18.672334)
(323.28358 -4.7588754e-17 -18.82004)
(322.30636 -5.2536556e-18 -18.660752)
(321.91891 1.5620789e-16 -19.935464)
(322.35388 0 -18.674238)
(322.70567 -1.3192583e-16 -18.72575)
(322.08332 -4.5569539e-17 -18.676681)
(321.89626 5.4942566e-17 -19.935572)
(322.03899 -2.5221962e-17 -18.689744)
(322.25111 -4.9554413e-17 -18.837563)
(321.81607 4.2421737e-17 -18.689593)
(321.71051 7.0277044e-17 -19.816312)
(321.67773 1.4289453e-17 -18.699891)
(321.80308 -2.412556e-17 -19.02593)
(321.42596 7.038039e-18 -18.717472)
(321.3982 3.291093e-17 -19.677529)
(321.1924 -2.4364505e-17 -18.737891)
(321.30186 -1.0983841e-17 -19.220709)
(320.8694 -2.938924e-17 -18.7572)
(320.92512 -8.1663996e-18 -19.587486)
(320.51796 1.1184737e-17 -18.768469)
(320.66777 -1.534393e-17 -19.357065)
(320.08414 3.2212531e-17 -18.756795)
(320.22945 -1.3213898e-17 -19.514011)
(319.59626 2.2546118e-17 -18.717182)
(319.79916 2.0383772e-17 -19.384973)
(319.01607 3.8627333e-17 -18.644105)
(319.23883 0 -19.391744)
(318.33806 3.6198497e-17 -18.509994)
(318.61055 1.3087807e-17 -19.244611)
(317.54203 -3.053123e-17 -18.288606)
(317.85269 -1.160172e-17 -19.080844)
(316.61957 6.5377939e-17 -17.941388)
(316.97909 5.0627073e-17 -18.767541)
(315.5632 1.7726678e-16 -17.427968)
(315.96521 1.2032371e-16 -18.317136)
(314.38353 1.6533206e-16 -16.706213)
(314.82221 -9.7545326e-17 -17.65227)
(313.10771 8.7614522e-17 -15.748931)
(313.56646 -2.5458663e-18 -16.752003)
(311.78478 -9.6363747e-18 -14.55434)
(312.24195 -2.6803716e-17 -15.592627)
(310.47722 1.0281588e-17 -13.157915)
(310.90942 1.4467471e-17 -14.201422)
(309.24767 4.545e-18 -11.629895)
(309.63579 -1.7532696e-16 -12.638883)
(308.14599 2.8406535e-18 -10.062777)
(308.4787 -8.9762965e-18 -10.998667)
(307.20309 -4.0769088e-18 -8.549753)
(307.47538 2.8839625e-17 -9.3826826)
(306.43 -2.6287651e-16 -7.1653402)
(306.64422 -2.2116982e-17 -7.8786302)
(305.82813 -2.9611424e-16 -5.9607282)
(305.98468 -1.348773e-16 -6.5370894)
(305.38377 1.6033829e-16 -4.9184919)
(305.49073 0 -5.422424)
(305.08345 4.1518335e-16 -4.0201844)
(305.09402 -2.4681247e-18 -4.5473319)
(304.89025 1.087212e-16 -3.3632745)
(304.86275 4.9877417e-16 -3.8180655)
(304.77646 -4.5941587e-16 -2.84944)
(304.75988 1.742338e-18 -3.1577706)
(304.73405 -3.1438317e-16 -2.3820849)
(304.72004 -2.9169556e-16 -2.5853656)
(304.73988 1.3731102e-17 -1.9663611)
(304.72008 -3.7145833e-16 -2.13018)
(304.75891 -1.1729398e-17 -1.6033123)
(304.73786 -2.8171781e-16 -1.7688782)
(304.83415 2.7478521e-18 -1.2657261)
(304.76357 -2.6562537e-16 -1.399893)
(304.85503 -2.6329541e-19 -1.2504299)
(304.96126 -2.7110503e-16 -0.97946332)
(304.95197 -1.05101e-17 -0.84375364)
(305.05333 -2.1286142e-17 -0.61945852)
(304.99085 -2.0489161e-16 -0.43135339)
(305.04326 2.072135e-17 -0.41107813)
(304.96112 -2.7159137e-16 -0.17536295)
(304.95898 -2.5236772e-16 -0.29691494)
(304.90162 3.5861218e-16 -0.12571571)
(304.89769 0 -0.2236077)
(304.85626 6.284393e-16 -0.13465787)
(304.86495 1.497174e-16 -0.16401851)
(304.83982 2.23572e-16 -0.06844161)
(304.8444 1.8459296e-19 -0.09689921)
(304.83276 1.4957622e-16 -0.031793103)
(219.04997 -7.329135e-17 -13.064247)
(203.08474 -3.5132344e-16 -12.842676)
(249.98348 1.3788635e-16 -15.004767)
(239.44029 1.2529594e-16 -14.765786)
(273.51466 -3.0746019e-18 -16.545311)
(264.18176 1.0860261e-16 -16.527132)
(295.68352 -3.759121e-18 -18.052064)
(286.43391 -9.3118754e-17 -17.94202)
(314.46955 -6.5416055e-17 -19.406485)
(308.5998 1.0800604e-19 -19.819571)
(322.17089 -7.8498207e-17 -19.959329)
(322.73509 -6.8185436e-17 -20.402799)
(322.43163 -4.6663889e-17 -19.982308)
(321.68238 -5.7986927e-17 -21.077275)
(322.64354 9.3378093e-17 -20.003236)
(323.22874 -1.2266461e-18 -20.11938)
(322.25871 5.5012016e-17 -19.993042)
(321.85691 1.6228808e-16 -21.323058)
(322.32061 -9.2876943e-17 -20.008487)
(322.65176 -1.2889345e-16 -20.041059)
(322.07306 5.9264204e-17 -20.014535)
(321.84196 4.6697536e-17 -21.320886)
(322.0203 3.4335257e-17 -20.038399)
(322.2226 5.2447225e-17 -20.177426)
(321.77792 1.2737766e-17 -20.050537)
(321.6539 3.7444018e-17 -21.200079)
(321.63105 -1.0453249e-17 -20.071811)
(321.75672 -8.7607674e-17 -20.396351)
(321.36781 1.8810604e-17 -20.093096)
(321.34519 2.5951161e-17 -21.063942)
(321.1222 4.6213883e-18 -20.115687)
(321.24941 -3.3200807e-17 -20.59998)
(320.7876 6.1382652e-18 -20.128067)
(320.85736 1.7981848e-17 -20.961177)
(320.43167 -3.9397742e-17 -20.123052)
(320.58482 4.73186e-17 -20.728105)
(319.9978 -2.7566658e-17 -20.107993)
(320.14066 -1.194843e-17 -20.877837)
(319.49851 0 -20.063359)
(319.69605 0 -20.747145)
(318.9004 -2.6138817e-17 -19.977362)
(319.11996 0 -20.742241)
(318.20206 -3.1671075e-17 -19.823117)
(318.47013 -2.8610473e-17 -20.580286)
(317.38 6.2655868e-17 -19.570492)
(317.68702 0 -20.388355)
(316.42788 9.844266e-17 -19.176545)
(316.78321 -2.3534182e-18 -20.034775)
(315.34037 -1.3033865e-16 -18.596895)
(315.73709 -1.181393e-16 -19.523932)
(314.13121 -2.7130226e-16 -17.78704)
(314.5619 -6.3094374e-17 -18.777105)
(312.83232 -1.1294955e-16 -16.720566)
(313.27907 -7.5886421e-17 -17.771557)
(311.49718 -6.9021243e-18 -15.400611)
(311.9373 -4.5375082e-17 -16.488094)
(310.19135 -1.5053804e-16 -13.87096)
(310.60156 2.896184e-17 -14.961621)
(308.97779 -2.0487887e-16 -12.211258)
(309.3401 -1.8477356e-16 -13.262987)
(307.90378 1.2975928e-17 -10.521815)
(308.20891 0 -11.49494)
(306.99577 1.6079215e-17 -8.9007469)
(307.24087 1.4432665e-17 -9.765194)
(306.26033 1.1637582e-16 -7.4257129)
(306.44947 5.7624732e-20 -8.1630717)
(305.69228 1.4468144e-16 -6.1458439)
(305.82966 1.475618e-16 -6.7432004)
(305.28222 -1.6145174e-16 -5.019973)
(305.36225 -2.2891741e-16 -5.5707608)
(305.00141 2.6564889e-17 -4.1026151)
(304.9953 -1.8092332e-16 -4.6465891)
(304.82821 4.4728966e-16 -3.4296172)
(304.79744 1.2468179e-17 -3.8733622)
(304.73052 2.0138147e-16 -2.8921217)
(304.71562 -1.8389316e-16 -3.18722)
(304.70338 -3.3973489e-16 -2.3931556)
(304.68439 -5.3948275e-16 -2.5986608)
(304.71628 -6.7636679e-16 -1.9653059)
(304.69267 4.1139431e-16 -2.1349393)
(304.74451 -5.3718035e-16 -1.5941314)
(304.71591 -2.8142795e-16 -1.7639893)
(304.78846 -5.3525548e-16 -1.4005646)
(304.76695 -2.5217506e-16 -1.3723932)
(304.86641 -3.2392016e-16 -1.2274243)
(304.97373 1.8666641e-17 -0.94600833)
(304.94844 9.155529e-18 -0.82065556)
(305.046 0 -0.60807263)
(304.98709 4.437736e-18 -0.39484957)
(305.02612 1.0358496e-17 -0.4129478)
(304.94808 -8.4410909e-18 -0.19217504)
(304.94754 -4.8080969e-16 -0.30347526)
(304.89553 -2.2854803e-16 -0.14276033)
(304.89371 -1.6548605e-17 -0.22911735)
(304.85463 -4.68965e-16 -0.13559026)
(304.86325 -2.5070881e-16 -0.16583242)
(304.83841 -9.2313632e-17 -0.06686384)
(304.84293 -4.0518141e-16 -0.095997004)
(304.83173 8.7793221e-18 -0.029297991)
(220.27999 -1.9336793e-16 -14.076177)
(204.21075 7.3514784e-18 -13.801598)
(251.39157 9.7991484e-17 -16.161331)
(240.75089 -1.3532164e-16 -15.872847)
(275.07661 3.6317214e-17 -17.814601)
(265.66768 1.0766075e-16 -17.765421)
(297.34062 -9.6586776e-17 -19.425931)
(288.05469 4.0179674e-18 -19.271028)
(315.58109 2.7162389e-18 -20.817067)
(310.20207 5.0770749e-18 -21.292681)
(322.36875 -4.8953572e-17 -21.327549)
(323.07589 -7.451845e-17 -21.757941)
(322.37228 -1.802069e-17 -21.336395)
(321.58297 -5.3199773e-17 -22.49554)
(322.60728 5.3320389e-17 -21.366528)
(323.18455 4.421636e-17 -21.451515)
(322.23767 5.428623e-18 -21.360363)
(321.7868 -5.3227054e-18 -22.747026)
(322.29631 -6.2794932e-18 -21.38579)
(322.60907 5.9714088e-17 -21.391493)
(322.03557 3.9582159e-17 -21.394823)
(321.77532 -5.6515844e-17 -22.740036)
(321.96688 5.6639761e-17 -21.42114)
(322.17863 3.9415247e-17 -21.54786)
(321.70545 -5.0677584e-17 -21.438832)
(321.58888 8.8895159e-20 -22.605006)
(321.55033 -6.1061069e-17 -21.461366)
(321.69107 -5.5294181e-17 -21.780418)
(321.27799 -2.0156363e-17 -21.480734)
(321.26827 4.1145515e-17 -22.457356)
(321.02872 -2.4259839e-17 -21.491111)
(321.15892 -4.474523e-17 -21.987649)
(320.69689 5.589701e-17 -21.501944)
(320.76491 1.9052912e-17 -22.347177)
(320.33653 7.9034455e-17 -21.499648)
(320.48168 1.3543519e-17 -22.117519)
(319.8895 1.4055141e-17 -21.481669)
(320.02746 -4.9995895e-19 -22.262911)
(319.37472 0 -21.430111)
(319.56635 1.0911384e-17 -22.130825)
(318.75788 0 -21.331438)
(318.97251 -1.827757e-17 -22.113222)
(318.03439 0 -21.154993)
(318.29836 1.5033165e-17 -21.935175)
(317.18334 -6.3617412e-17 -20.867468)
(317.48725 3.7551591e-17 -21.712037)
(316.19866 -2.0488563e-16 -20.421669)
(316.55043 -5.9537304e-17 -21.313425)
(315.07769 -5.6909165e-17 -19.76911)
(315.46954 -7.1938196e-17 -20.7357)
(313.83799 1.3033555e-16 -18.863433)
(314.26059 1.0118427e-17 -19.899013)
(312.51658 -1.218e-17 -17.679872)
(312.95065 -2.2444648e-19 -18.779741)
(311.17164 -1.6987746e-17 -16.227711)
(311.59352 1.0335929e-16 -17.364456)
(309.87151 1.5738411e-17 -14.560121)
(310.25824 2.9415856e-17 -15.696995)
(308.67879 -4.4680967e-19 -12.766713)
(309.01382 1.9130955e-16 -13.859371)
(307.63752 0 -10.955417)
(307.91378 3.042596e-16 -11.963441)
(306.7693 0 -9.2287624)
(306.98613 1.4931553e-17 -10.121827)
(306.07603 1.5684606e-17 -7.667042)
(306.2392 3.5893867e-16 -8.4250268)
(305.54404 -1.8364929e-16 -6.3160251)
(305.66256 3.5343114e-17 -6.932948)
(305.16848 -2.5332671e-16 -5.1200816)
(305.22273 -2.3853774e-17 -5.705507)
(304.91379 -2.1676269e-16 -4.1822741)
(304.89294 0 -4.7335344)
(304.76699 -5.9422594e-16 -3.483189)
(304.72865 -2.4341138e-16 -3.9200434)
(304.6822 -8.8252871e-16 -2.9341763)
(304.66992 -3.631008e-16 -3.2114968)
(304.67015 1.0308315e-16 -2.4014338)
(304.64523 -1.3609691e-17 -2.6088086)
(304.69021 8.8411788e-16 -1.9621579)
(304.66368 4.1959003e-16 -2.1376869)
(304.73123 9.8953395e-20 -1.5828506)
(304.69368 -2.8247945e-16 -1.7547809)
(304.77672 2.7424408e-16 -1.4297796)
(304.77742 8.3684454e-16 -1.3434605)
(304.87253 3.4528786e-16 -1.1945804)
(304.97894 3.0027783e-16 -0.91433675)
(304.9425 0 -0.80161042)
(305.03652 -4.4224113e-16 -0.59855442)
(304.98315 -4.2028538e-16 -0.36995223)
(305.00906 3.2709088e-16 -0.41561102)
(304.93825 -5.4276507e-16 -0.20798404)
(304.93786 1.2832658e-18 -0.30973432)
(304.89045 -1.2033351e-17 -0.15487148)
(304.88967 -1.6688266e-17 -0.23403913)
(304.85284 -1.6792675e-16 -0.13629772)
(304.861 1.965652e-19 -0.16723183)
(304.83699 -3.5172082e-16 -0.065096487)
(304.8416 3.7664643e-16 -0.094872364)
(304.83071 -1.4583938e-16 -0.026750026)
(221.4971 7.4824791e-17 -15.108953)
(205.30019 1.779049e-16 -14.781442)
(252.79818 -1.447445e-16 -17.343056)
(242.04959 -1.3119995e-16 -17.005231)
(276.65393 8.4164722e-17 -19.11467)
(267.16324 -1.1110745e-16 -19.035986)
(298.96966 1.0325223e-16 -20.835221)
(289.72735 2.8234527e-16 -20.640864)
(316.59384 -6.417973e-17 -22.259809)
(311.73299 -8.383955e-17 -22.80468)
(322.51091 -8.032794e-17 -22.733626)
(323.35182 -6.833551e-17 -23.138215)
(322.32696 0 -22.735558)
(321.49362 -3.7526271e-18 -23.948449)
(322.56687 -9.202721e-18 -22.769438)
(323.12699 9.9892969e-17 -22.811497)
(322.17662 4.2627272e-17 -22.762806)
(321.6992 -8.2805873e-17 -24.197927)
(322.23149 1.9725738e-17 -22.788793)
(322.54353 5.8356238e-17 -22.765382)
(321.95661 -6.4245717e-17 -22.79842)
(321.69044 -4.1341762e-17 -24.176236)
(321.88115 -1.2776214e-17 -22.81869)
(322.09706 -3.568874e-17 -22.930751)
(321.60611 -2.2267862e-21 -22.83308)
(321.49628 3.004259e-17 -24.018943)
(321.4505 3.6948437e-17 -22.851152)
(321.59386 3.3439049e-17 -23.175144)
(321.1808 2.4005474e-17 -22.871369)
(321.16854 6.8157232e-17 -23.863424)
(320.92932 -7.5255434e-18 -22.887623)
(321.05186 1.0119445e-18 -23.394422)
(320.58816 -2.1943987e-17 -22.900256)
(320.65095 1.8700269e-17 -23.75463)
(320.21562 -6.3170314e-17 -22.897672)
(320.35481 -4.6428941e-17 -23.529722)
(319.75608 -4.5276265e-18 -22.876787)
(319.88898 -1.2938437e-17 -23.669456)
(319.22319 -4.5540958e-18 -22.818185)
(319.4095 1.0690982e-17 -23.536013)
(318.58407 -6.3659497e-18 -22.705006)
(318.79519 -1.7917988e-17 -23.504394)
(317.83345 4.9940788e-17 -22.503982)
(318.09394 -7.0134753e-19 -23.30797)
(316.95061 5.0028404e-17 -22.177461)
(317.2518 -1.3853935e-18 -23.049988)
(315.9307 7.2203655e-17 -21.673975)
(316.27902 -4.8794459e-19 -22.600873)
(314.77426 -1.3458243e-17 -20.941087)
(315.16091 -6.3533339e-17 -21.949003)
(313.50329 -1.174257e-16 -19.931146)
(313.91693 1.3166898e-16 -21.013761)
(312.16048 1.0399058e-16 -18.622156)
(312.58037 -1.1215082e-17 -19.771745)
(310.80876 1.5615174e-16 -17.030884)
(311.21043 -2.2534478e-17 -18.216737)