/*--------------------------------*- C++ -*----------------------------------*\
  =========                 |
  \\      /  F ield         | OpenFOAM: The Open Source CFD Toolbox
   \\    /   O peration     | Website:  https://openfoam.org
    \\  /    A nd           | Version:  8
     \\/     M anipulation  |
\*---------------------------------------------------------------------------*/
FoamFile
{
    version     2.0;
    format      ascii;
    class       volScalarField;
    location    "0.0499991";
    object      T;
}
// * * * * * * * * * * * * * * * * * * * * * * * * * * * * * * * * * * * * * //

dimensions      [0 0 0 1 0 0 0];

internalField   nonuniform List<scalar> 
20000
(
297.35511
297.03074
296.06749
294.09265
290.41681
284.17608
282.63106
282.42191
282.89807
282.89521
283.26621
283.3824
283.71791
283.93653
284.28967
284.60683
285.01614
285.4363
285.92785
286.45671
287.06023
287.74978
288.52009
289.35781
290.25465
291.20179
292.18298
293.17046
294.12929
295.0267
295.83489
296.53677
297.12276
297.59499
297.94864
298.20042
298.39152
298.50738
298.53982
298.52503
298.4846
298.45246
298.40549
298.25732
298.03999
297.98078
298.03441
298.06357
298.05898
298.03779
297.32493
296.92486
295.89305
293.80165
289.89398
283.67987
282.4842
282.27492
282.75144
282.74445
283.11721
283.23458
283.57296
283.79616
284.15334
284.47668
284.89041
285.31778
285.8206
286.37664
287.01858
287.72523
288.50429
289.35154
290.26409
291.23179
292.2313
293.23284
294.20003
295.09909
295.90293
296.59584
297.17111
297.63114
297.97181
298.22517
298.41637
298.51315
298.53904
298.52229
298.48471
298.45919
298.38542
298.1585
298.04634
298.01786
298.0484
298.06289
298.0595
298.0372
297.19116
296.73537
295.62353
293.39473
289.18955
283.12584
282.30734
282.12006
282.60851
282.60265
282.98248
283.10414
283.44636
283.67499
284.03612
284.36566
284.78536
285.22449
285.74406
286.32535
286.98447
287.71019
288.50335
289.37024
290.30527
291.29286
292.3094
293.3227
294.29496
295.19197
295.98776
296.66859
297.23048
297.67591
298.00317
298.25678
298.43563
298.52064
298.54045
298.52366
298.48756
298.46087
298.34514
298.15371
298.04819
298.01624
298.05102
298.06391
298.05988
298.0368
297.15808
296.61433
295.42361
293.06638
288.5424
282.68949
282.18533
282.00607
282.50654
282.49048
282.87434
282.9992
283.34039
283.57389
283.93892
284.27653
284.7072
285.16796
285.70939
286.30568
286.97668
287.71056
288.52355
289.41241
290.36907
291.37725
292.41036
293.43428
294.40982
295.3025
296.08763
296.75377
297.29963
297.7279
298.04087
298.29278
298.45766
298.52893
298.54326
298.52415
298.49301
298.46267
298.30374
298.12874
298.05375
298.03486
298.05586
298.06545
298.06027
298.03635
297.08146
296.47242
295.20479
292.72304
287.85917
282.29731
282.09072
281.90476
282.41346
282.40207
282.78698
282.91071
283.25695
283.49664
283.86879
284.22192
284.66895
285.14434
285.69445
286.29937
286.97803
287.73413
288.56961
289.48173
290.46131
291.48978
292.53847
293.5711
294.54721
295.43242
296.20367
296.85221
297.37918
297.78793
298.08747
298.33201
298.47984
298.53887
298.54798
298.52591
298.5003
298.46301
298.26851
298.12017
298.05669
298.03922
298.05983
298.06738
298.06065
298.03593
297.04675
296.35562
295.00536
292.4026
287.18951
281.97628
282.02087
281.83443
282.34261
282.33575
282.71147
282.84291
283.20072
283.45126
283.83409
284.19904
284.65254
285.13633
285.69264
286.31022
287.00841
287.784
288.64226
289.57823
290.58065
291.6291
292.69216
293.73145
294.70536
295.58001
296.33431
296.96241
297.46765
297.85469
298.14215
298.37309
298.5034
298.55088
298.55422
298.52827
298.50733
298.45315
298.24179
298.1094
298.05916
298.0477
298.06385
298.06973
298.06101
298.03551
297.00395
296.23644
294.80083
292.08216
286.52707
281.72169
281.97022
281.77915
282.2825
282.27989
282.66922
282.8084
283.17412
283.43244
283.81952
284.19156
284.64912
285.14095
285.71128
286.34663
287.06262
287.86072
288.74265
289.70304
290.72854
291.79634
292.87223
293.91572
294.88434
295.74508
296.47926
297.08406
297.56466
297.92799
298.20377
298.4163
298.52787
298.56319
298.56209
298.53167
298.51197
298.43364
298.22305
298.10267
298.06006
298.05329
298.06768
298.07243
298.06132
298.03511
296.98094
296.12999
294.59855
291.76141
285.88742
281.52793
281.93702
281.73287
282.25404
282.25073
282.65102
282.79195
283.16368
283.42729
283.8169
284.19577
284.66299
285.17017
285.75438
286.40774
287.14429
287.9651
288.87142
289.85665
290.90509
291.99132
293.07818
294.12311
295.08312
295.92652
296.63743
297.21601
297.66914
298.00744
298.2709
298.46093
298.55362
298.57824
298.57116
298.53642
298.51469
298.41102
298.20738
298.09739
298.06047
298.05899
298.07128
298.07529
298.06149
298.0347
296.96949
296.03246
294.39624
291.43225
285.28241
281.39165
281.93018
281.73226
282.24971
282.25547
282.65063
282.79365
283.16396
283.43488
283.83143
284.22302
284.7005
285.22203
285.82215
286.49502
287.25269
288.09757
289.02909
290.03951
291.11063
292.21409
293.30969
294.35298
295.30084
296.1234
296.80784
297.35719
297.78029
298.09343
298.34191
298.50657
298.58087
298.59591
298.58135
298.54297
298.51673
298.38561
298.19401
298.09399
298.06059
298.06373
298.07474
298.0783
298.06158
298.03427
296.97446
295.94326
294.1904
291.08173
284.71898
281.29856
281.93341
281.72216
282.25418
282.25315
282.66138
282.81523
283.18363
283.46504
283.86876
284.27212
284.76108
285.29865
285.91546
286.60877
287.38894
288.25872
289.21615
290.25199
291.34523
292.46437
293.56611
294.60437
295.53637
296.33452
296.98921
297.50629
297.89732
298.18654
298.41477
298.55283
298.60829
298.61598
298.59275
298.55159
298.51832
298.35935
298.18208
298.09201
298.06125
298.06809
298.07826
298.08145
298.06162
298.03383
296.98132
295.85823
293.9802
290.70407
284.21184
281.24701
281.95081
281.73581
282.27098
282.26926
282.69285
282.85088
283.22635
283.51706
283.9283
284.34464
284.84576
285.39996
286.03467
286.74951
287.55319
288.44885
289.43283
290.49413
291.60871
292.74164
293.84656
294.87613
295.78841
296.55847
297.18007
297.66195
298.01972
298.28649
298.48785
298.59931
298.63737
298.63779
298.60552
298.56221
298.51789
298.33359
298.17133
298.09084
298.06255
298.07223
298.08179
298.08475
298.06164
298.03336
297.00663
295.79005
293.77806
290.29997
283.77479
281.23482
281.98457
281.77832
282.30795
282.32182
282.7414
282.91072
283.2898
283.59103
284.01046
284.44042
284.95469
285.52659
286.18027
286.91769
287.746
288.66837
289.67942
290.76602
291.90081
293.04524
294.15003
295.16699
296.05552
296.79368
297.3788
297.82308
298.14744
298.39074
298.56073
298.64567
298.66844
298.66057
298.61951
298.57415
298.51119
298.30975
298.16168
298.09032
298.06551
298.07639
298.08529
298.0881
298.06163
298.03287
297.03949
295.7319
293.58214
289.86135
283.41189
281.25794
282.03552
281.83778
282.37067
282.38894
282.8123
282.98953
283.37456
283.6872
284.11557
284.56005
285.08836
285.67884
286.35256
287.11357
287.96752
288.91738
289.95589
291.06739
292.22094
293.3742
294.47521
295.4754
296.33595
297.03826
297.58378
297.98895
298.28069
298.49668
298.63248
298.69193
298.70225
298.68347
298.63435
298.58618
298.4984
298.28865
298.15342
298.09035
298.06956
298.08084
298.08876
298.09144
298.0616
298.03235
297.09084
295.69191
293.40293
289.39334
283.12913
281.31774
282.11271
281.91748
282.45507
282.48517
282.90414
283.09078
283.48139
283.80612
284.24404
284.70373
285.24699
285.85695
286.55181
287.33743
288.21804
289.19611
290.26228
291.39801
292.56847
293.72748
294.82072
295.7997
296.62778
297.29033
297.79373
298.15931
298.41886
298.60144
298.70274
298.73934
298.73741
298.70646
298.64955
298.59648
298.47925
298.27047
298.14651
298.09197
298.07473
298.08591
298.09231
298.09444
298.06154
298.03181
297.15165
295.66261
293.23619
288.89415
282.91366
281.39251
282.2117
282.01501
282.56177
282.59431
283.01747
283.21381
283.61047
283.94792
284.39598
284.87163
285.43073
286.06104
286.77811
287.58934
288.49757
289.50446
290.59831
291.7573
292.94243
294.10373
295.18485
296.13783
296.9288
297.54811
298.00789
298.33398
298.55909
298.70342
298.77161
298.78881
298.77288
298.7294
298.66484
298.60276
298.45788
298.25356
298.14006
298.09443
298.08071
298.09182
298.09642
298.09665
298.06146
298.03125
297.22579
295.64912
293.08572
288.37171
282.77056
281.49646
282.3327
282.13497
282.68969
282.72507
283.15215
283.35891
283.76178
284.11254
284.57142
285.06367
285.63958
286.29117
287.03158
287.86944
288.80624
289.84245
290.96377
292.14468
293.34183
294.50152
295.56576
296.48759
297.23694
297.81044
298.22592
298.51195
298.69753
298.80206
298.84064
298.83949
298.80792
298.7523
298.68048
298.60685
298.43577
298.23835
298.13379
298.09684
298.08711
298.09849
298.10212
298.09804
298.06136
298.03068
297.31497
295.6488
292.94884
287.83933
282.69846
281.63964
282.47447
282.27463
282.83648
282.87656
283.30771
283.5256
283.93506
284.29978
284.77014
285.27981
285.87351
286.54733
287.31222
288.17772
289.14393
290.2098
291.35813
292.55926
293.76534
294.91908
295.96121
296.84655
297.55042
298.07673
298.44718
298.6901
298.83168
298.89767
298.91124
298.88971
298.84228
298.77511
298.69707
298.60975
298.41378
298.22564
298.12941
298.09808
298.09407
298.1058
298.10898
298.09873
298.06102
298.03009
297.4183
295.65939
292.8186
287.29246
282.69075
281.78225
282.63456
282.4349
282.99973
283.04895
283.48401
283.71367
284.13007
284.5094
284.99206
285.51989
286.13249
286.82959
287.62015
288.51429
289.5107
290.6064
291.78095
293.00018
294.2116
295.3545
296.36881
297.21247
297.86822
298.34662
298.66957
298.86413
298.96113
298.9926
298.98175
298.93889
298.87562
298.79769
298.71506
298.61168
298.39238
298.21526
298.1272
298.09837
298.10154
298.1134
298.11647
298.09914
298.06053
298.02948
297.54016
295.68316
292.69386
286.76132
282.74517
281.95382
282.81272
282.61484
283.18359
283.24141
283.68046
283.92265
284.3465
284.7412
285.23701
285.78393
286.41655
287.13797
287.95535
288.87908
289.90633
291.03182
292.23146
293.46623
294.67888
295.80547
296.78595
297.58356
298.18985
298.61853
298.88852
299.03218
299.08679
299.08804
299.0504
298.98667
298.90771
298.81967
298.7336
298.60966
298.37238
298.2064
298.12607
298.09894
298.10875
298.12086
298.12416
298.09937
298.05996
298.02887
297.67671
295.716
292.56557
286.25132
282.85159
282.14095
283.00604
282.81359
283.38574
283.45368
283.89691
284.15245
284.58431
284.9951
285.50504
286.07189
286.72573
287.47256
288.31792
289.27216
290.33078
291.48575
292.70898
293.95622
295.16533
296.26952
297.21027
297.9589
298.51457
298.88837
299.10102
299.19388
299.21147
299.18111
299.117
299.03272
298.93849
298.84066
298.74951
298.60035
298.35452
298.19875
298.12563
298.10177
298.11552
298.1278
298.13149
298.09946
298.05934
298.02824
297.82869
295.7604
292.42992
285.78154
283.00688
282.34827
283.21876
283.03174
283.60715
283.68588
284.13335
284.40296
284.84342
285.27108
285.79614
286.38391
287.06011
287.83337
288.70783
289.69339
290.78374
291.96761
293.2125
294.46856
295.66867
296.74393
297.63986
298.33801
298.83961
299.15149
299.30541
299.35173
299.33376
299.27107
299.18096
299.07677
298.96801
298.86079
298.75787
298.58358
298.33851
298.19268
298.127
298.10664
298.12225
298.13381
298.13767
298.09944
298.05864
298.0276
297.99558
295.81827
292.28161
285.37473
283.20667
282.57375
283.44926
283.26888
283.84725
283.93772
284.38961
284.6741
285.12386
285.56918
286.11043
286.71995
287.41972
288.22048
289.12513
290.14278
291.26503
292.47691
293.74104
295.00155
296.18645
297.22621
298.07366
298.71979
299.15964
299.40512
299.50238
299.50753
299.45141
299.35734
299.24198
299.11855
298.9964
298.88111
298.76268
298.56126
298.32302
298.18848
298.13072
298.11407
298.12961
298.13887
298.14225
298.09879
298.05787
298.02695
298.17158
295.88742
292.11308
285.03443
283.43752
282.81762
283.69776
283.52491
284.10604
284.20915
284.66572
284.96591
285.42574
285.88946
286.44789
287.0801
287.80457
288.63388
289.56979
290.62018
291.77427
293.01291
294.29327
295.55308
296.71594
297.7142
298.51114
299.10039
299.47027
299.64804
299.69522
299.65786
299.56425
299.43948
299.29969
299.15778
299.02364
298.90273
298.76558
298.53495
298.30809
298.18598
298.13657
298.12341
298.13801
298.14436
298.1449
298.09776
298.057
298.02628
298.35678
295.97071
291.92472
284.7593
283.68423
283.07979
283.96385
283.79964
284.38337
284.50021
284.96176
285.27847
285.74906
286.23188
286.80849
287.46423
288.21465
289.07368
290.0419
291.12559
292.31123
293.5749
294.86774
296.1208
297.25451
298.20653
298.95117
299.47401
299.76851
299.88266
299.88291
299.80184
299.67157
299.51714
299.35383
299.19423
299.04947
298.92561
298.7675
298.50706
298.29401
298.18448
298.14326
298.1334
298.14756
298.15256
298.14646
298.09647
298.05604
298.0256
298.54071
296.06022
291.70941
284.54578
283.95714
283.35954
284.24755
284.09341
284.67952
284.81107
285.27781
285.61163
286.09369
286.59622
287.19208
287.87238
288.65005
289.53997
290.54151
291.65887
292.87543
294.16186
295.46257
296.70203
297.79975
298.70238
299.38967
299.8359
300.05321
300.11185
300.06269
299.93879
299.77305
299.59004
299.40421
299.22787
299.07353
298.94695
298.76542
298.4805
298.28128
298.18348
298.14919
298.14365
298.15816
298.1627
298.14724
298.09501
298.05502
298.02492
298.73069
296.16433
291.47753
284.4049
284.25233
283.65836
284.54985
284.40622
284.99442
285.14129
285.61346
285.96499
286.45926
286.98226
287.59859
288.30461
289.111
290.03304
291.06881
292.22001
293.46645
294.77264
296.07566
297.29411
298.34981
299.20087
299.82032
300.18281
300.32785
300.33312
300.23385
300.06829
299.86835
299.65797
299.4507
299.25885
299.09589
298.96121
298.75666
298.45813
298.27094
298.18296
298.15327
298.15426
298.16892
298.17343
298.1478
298.0934
298.05396
298.02423
298.91343
296.27578
291.2272
284.33075
284.56564
283.97408
284.8685
284.73692
285.32707
285.49024
285.96816
286.33807
286.84555
287.38996
288.02823
288.76131
289.59785
290.55315
291.62388
292.80881
294.0836
295.4057
296.70451
297.89444
298.90343
299.6987
300.2375
300.51318
300.59518
300.54391
300.39572
300.18996
299.95728
299.72079
299.49316
299.28737
299.11743
298.968
298.74117
298.4406
298.26404
298.18366
298.15749
298.16435
298.17854
298.1835
298.14813
298.09167
298.05286
298.02354
299.08778
296.39592
290.96723
284.33187
284.89601
284.30742
285.20405
285.08543
285.67717
285.85745
286.34156
286.73075
287.25269
287.81971
288.48146
289.24293
290.11107
291.10069
292.20694
293.42514
294.72608
296.05927
297.34649
298.50084
299.45975
300.18913
300.63764
300.83074
300.85219
300.74356
300.54792
300.3036
300.03969
299.77835
299.53143
299.31347
299.13922
298.97168
298.72092
298.42551
298.26047
298.18656
298.16304
298.17345
298.18599
298.19105
298.14752
298.08986
298.05174
298.02285
299.25631
296.52033
290.70372
284.41159
285.24208
284.65674
285.55544
285.45062
286.04404
286.24258
286.73382
287.14344
287.68133
288.27213
288.95892
289.75009
290.65111
291.67597
292.81803
294.06864
295.39278
296.73114
297.9989
299.11145
300.01675
300.66561
301.01831
301.13845
301.0963
300.9314
300.69015
300.40905
300.11551
299.83049
299.56534
299.33694
299.16079
298.97389
298.69635
298.41152
298.25844
298.19159
298.17072
298.18227
298.19134
298.19573
298.14562
298.08801
298.0506
298.02217
299.41694
296.64137
290.44682
284.56306
285.60133
285.02135
285.92206
285.83281
286.42822
286.64656
287.14597
287.57714
288.13234
288.74799
289.46122
290.2833
291.21847
292.27936
293.45728
294.7389
296.08229
297.41885
298.65926
299.72493
300.5683
301.1238
301.38238
301.434
301.32651
301.10712
300.82227
300.5063
300.18461
299.87694
299.59488
299.35749
299.17838
298.97413
298.66823
298.39804
298.25742
298.19836
298.18029
298.19139
298.19694
298.19849
298.14297
298.08608
298.04943
298.02149
299.56407
296.75169
290.20946
284.78051
285.97533
285.40332
286.30537
286.23377
286.83136
287.07077
287.57918
288.03269
288.60638
289.24784
289.9889
290.84314
291.81358
292.91112
294.12462
295.43517
296.79277
298.11968
299.3253
300.33986
301.1074
301.56
301.73329
301.71449
301.54224
301.27045
300.94422
300.59531
300.24684
299.91748
299.62034
299.3755
299.18555
298.96864
298.63824
298.38557
298.25736
298.20626
298.19071
298.20124
298.20576
298.2002
298.13995
298.08408
298.04824
298.02083
299.70593
296.84975
290.00795
285.05934
286.3667
285.80439
286.70772
286.65505
287.25475
287.51598
288.03404
288.51047
289.10388
289.77217
290.54253
291.43016
292.43698
293.57162
294.81998
296.15646
297.52201
298.83101
299.99511
300.95254
301.62775
301.97481
302.07088
301.97816
301.74314
301.42133
301.05606
300.67608
300.30201
299.95229
299.64248
299.39212
299.1887
298.95553
298.60933
298.37493
298.25919
298.21471
298.20128
298.21225
298.21656
298.20126
298.13671
298.08203
298.04705
298.02018
299.84873
296.93
289.85432
285.38979
286.77693
286.2259
287.12959
287.09684
287.69843
287.98208
288.51057
289.01072
289.62524
290.32157
291.12276
292.04507
293.08917
294.2611
295.543
296.90136
298.26746
299.5503
300.66705
301.55554
302.12512
302.37204
302.39155
302.22456
301.92898
301.55977
301.15789
300.74858
300.35016
299.9824
299.66237
299.40732
299.18955
298.93327
298.58423
298.36616
298.26228
298.22333
298.21146
298.22333
298.22801
298.20191
298.13332
298.07997
298.04587
298.01954
299.99917
296.9873
289.75767
285.72676
287.20581
286.66723
287.56987
287.55819
288.1618
288.46892
289.00902
289.53392
290.17114
290.8968
291.73038
292.68853
293.77073
294.97978
296.29313
297.66806
299.02644
300.27509
301.339
302.14141
302.5968
302.7547
302.6924
302.45326
302.09977
301.68596
301.24982
300.81281
300.39183
300.0095
299.6805
299.41842
299.18872
298.90511
298.56207
298.359
298.26613
298.23188
298.22103
298.23263
298.23762
298.20201
298.12982
298.07793
298.0447
298.01892
300.15123
297.01389
289.72473
286.12911
287.64968
287.12583
288.02742
288.039
288.64522
288.97712
289.53016
290.08084
290.74239
291.49873
292.3662
293.36133
294.48213
295.72766
297.0694
298.45434
299.79624
301.00311
302.00535
302.70421
303.04605
303.11872
302.97312
302.66408
302.2556
301.80009
301.33198
300.869
300.42821
300.03456
299.69544
299.42239
299.18371
298.87333
298.5428
298.35411
298.27041
298.24018
298.2303
298.23893
298.24332
298.20011
298.12632
298.07593
298.04356
298.01831
300.30862
297.00778
289.75761
286.59638
288.11118
287.60429
288.50427
288.54078
289.15
289.50762
290.0749
290.6524
291.33994
292.12831
293.03112
294.06417
295.22387
296.50459
297.87043
299.2576
300.57428
301.73248
302.65814
303.23922
303.47652
303.46128
303.23309
302.85703
302.39675
301.90246
301.40458
300.91778
300.46079
300.0554
299.7035
299.42376
299.17548
298.83952
298.52603
298.3514
298.27501
298.24825
298.23933
298.24426
298.24669
298.19676
298.12287
298.07397
298.04245
298.01772
300.4761
296.97583
289.86607
287.05217
288.59194
288.10344
289.00161
289.06402
289.6768
290.06114
290.64412
291.24956
291.96481
292.78655
293.72604
294.79783
295.99629
297.31006
298.69436
300.07502
301.35786
302.4604
303.2894
303.746
303.88784
303.78035
303.47219
303.03228
302.52355
301.99333
301.46797
300.96025
300.49004
300.06639
299.70643
299.4237
299.16334
298.80504
298.51123
298.35013
298.28007
298.25625
298.24833
298.25158
298.24862
298.19243
298.11951
298.07206
298.04135
298.01715
300.65174
296.9184
290.04733
287.53287
289.09136
288.62349
289.51904
289.60944
290.22645
290.63869
291.23892
291.87346
292.61812
293.47457
294.45194
295.56302
296.79962
298.14318
299.53894
300.90379
302.14418
303.17943
303.89333
304.22825
304.27625
304.07564
303.69041
303.19022
302.63644
302.07306
301.52285
300.99775
300.51323
300.07071
299.70692
299.42241
299.14611
298.77189
298.49828
298.34954
298.28582
298.26455
298.25761
298.26107
298.24966
298.18756
298.1162
298.07017
298.04028
298.0166
300.82926
296.84039
290.29776
288.03984
289.61026
289.16574
290.05804
290.17832
290.80022
291.24137
291.86048
292.52524
293.30104
294.19345
295.20976
296.36044
297.63377
299.00255
300.4015
301.74117
302.93078
303.8808
304.46496
304.6902
304.63811
304.34679
303.88801
303.33131
302.7358
302.14206
301.57026
301.03104
300.52397
300.072
299.70619
299.41707
299.12227
298.74217
298.48777
298.35068
298.29238
298.27315
298.26678
298.27125
298.2504
298.18243
298.11292
298.06833
298.03924
298.01607
301.00375
296.7561
290.61697
288.57338
290.15021
289.73158
290.61997
290.77158
291.39918
291.87026
292.50995
293.20614
294.01472
294.94433
296.00045
297.19061
298.49831
299.88628
301.27908
302.58411
303.71374
304.55578
305.00663
305.1277
304.97296
304.59387
304.06544
303.45607
302.82208
302.20115
301.61144
301.05823
300.52894
300.07189
299.70379
299.40774
299.09147
298.71723
298.47971
298.35334
298.29957
298.28167
298.27491
298.27954
298.25099
298.17713
298.10972
298.06655
298.03823
298.01555
301.19129
296.67346
290.99841
289.13273
290.71096
290.32152
291.2054
291.39008
292.02447
292.5265
293.1886
293.91741
294.76045
295.72838
296.82498
298.05391
299.39237
300.79196
302.16873
303.42934
304.48398
305.19864
305.52184
305.53749
305.28019
304.81713
304.22321
303.56492
302.89581
302.25153
301.64752
301.07297
300.5308
300.06936
299.69863
299.39428
299.05715
298.69503
298.47371
298.35724
298.3073
298.28984
298.28152
298.28382
298.24966
298.1718
298.10662
298.06484
298.03726
298.01505
301.38883
296.59838
291.44
289.7201
291.29383
290.93621
291.81542
292.03508
292.67737
293.21137
293.89772
294.66044
295.53955
296.5469
297.68427
298.95038
300.31448
301.71674
303.06723
304.27347
305.23231
305.80597
306.01237
305.91638
305.55991
305.01706
304.3619
303.65834
302.95796
302.29472
301.67778
301.08027
300.53078
300.06391
299.69106
299.37712
299.02058
298.67511
298.46938
298.36212
298.31561
298.298
298.28762
298.28623
298.24679
298.16653
298.10363
298.0632
298.03633
298.01457
301.61637
296.54467
291.9251
290.33298
291.90141
291.57738
292.45149
292.70774
293.35918
293.9261
294.63875
295.43676
296.35355
297.40121
298.57911
299.87964
301.26262
302.65748
303.97098
305.11067
305.94956
306.38071
306.47357
306.26424
305.81229
305.19423
304.48202
303.73712
303.01014
302.33197
301.69698
301.08368
300.52679
300.05591
299.681
299.35674
298.98277
298.65712
298.46649
298.36748
298.32386
298.30608
298.29457
298.28744
298.24252
298.16134
298.10077
298.06163
298.03544
298.01412
301.87643
296.51422
292.45274
290.96818
292.53401
292.24687
293.1146
293.40911
294.07122
294.67227
295.41342
296.24819
297.20409
298.29261
299.50998
300.84068
302.23412
303.6108
304.87596
305.93064
306.62925
306.92725
306.90148
306.5807
306.03783
305.34929
304.58435
303.80296
303.0544
302.36265
301.70648
301.08496
300.51951
300.04543
299.66836
299.33304
298.94486
298.64094
298.46473
298.37294
298.332
298.31465
298.30292
298.28824
298.23715
298.1563
298.09804
298.06014
298.03458
298.01367
302.15656
296.51053
293.03829
291.63349
293.19045
292.94465
293.80593
294.14054
294.81544
295.4519
296.2239
297.09671
298.09292
299.22231
300.47696
301.83186
303.2258
304.57293
305.77776
306.72328
307.27026
307.44359
307.29434
306.866
306.23714
305.48294
304.67024
303.85834
303.09193
302.38185
301.71107
301.08204
300.50902
300.03261
299.65273
299.30517
298.90861
298.62657
298.46365
298.37864
298.33987
298.32275
298.31155
298.28894
298.23095
298.15145
298.09538
298.05873
298.03376
298.01324
302.48248
296.54793
293.65323
292.32764
293.87222
293.67285
294.52745
294.9046
295.59439
296.26745
297.0724
297.98444
299.02169
300.19124
301.47953
302.8508
304.234
305.5392
306.66808
307.47919
307.87602
307.92522
307.6518
307.12053
306.41099
305.59632
304.74192
303.90525
303.12086
302.39089
301.71321
301.07548
300.49568
300.01743
299.63355
299.27172
298.87609
298.61453
298.46403
298.38494
298.34748
298.32893
298.31659
298.28894
298.22432
298.14679
298.09279
298.05738
298.03298
298.01284
302.85212
296.61417
294.31086
293.05536
294.58451
294.43482
295.28289
295.70364
296.41074
297.12138
297.96125
298.91345
299.99196
301.19989
302.51638
303.89437
305.25478
306.50472
307.53551
308.19219
308.45068
308.36746
307.97388
307.34497
306.56039
305.69127
304.80188
303.94233
303.13469
302.39485
301.71157
301.06538
300.47973
299.99989
299.61061
299.23299
298.84808
298.60498
298.46582
298.3916
298.35441
298.33349
298.31942
298.28777
298.2176
298.14226
298.09032
298.05608
298.03224
298.01244
303.26343
296.68445
295.00795
293.81655
295.32753
295.23252
296.07428
296.54012
297.26709
298.01624
298.89281
299.88578
301.00497
302.24804
303.58534
304.95878
306.28337
307.46333
308.36839
308.86397
308.98825
308.77023
308.26094
307.54026
306.68682
305.77042
304.85118
303.96426
303.14062
302.39585
301.70601
301.05216
300.46143
299.97997
299.58406
299.19181
298.82329
298.59769
298.46859
298.39805
298.36058
298.33742
298.32105
298.28548
298.21082
298.1379
298.08798
298.05483
298.03157
298.01207
303.72196
296.79455
295.74657
294.61638
296.10564
296.06938
296.90522
297.41676
298.16626
298.95478
299.86947
300.90322
302.06141
303.33465
304.68341
306.03961
307.3139
308.40365
309.15752
309.49863
309.48425
309.13293
308.51364
307.70762
306.79235
305.83613
304.88697
303.97391
303.14218
302.39288
301.69689
301.03614
300.441
299.95774
299.55436
299.14965
298.80131
298.5921
298.47168
298.40408
298.36649
298.34191
298.32219
298.28212
298.20396
298.13371
298.08575
298.05368
298.03093
298.01172
304.22963
296.94231
296.52633
295.45664
296.92097
296.94665
297.77826
298.33637
299.11124
299.93983
300.89347
301.96722
303.16132
304.45779
305.80667
307.13188
308.3399
309.31328
309.89927
310.09507
309.93569
309.45598
308.73306
307.84885
306.87967
305.88842
304.90481
303.97716
303.14002
302.38576
301.68458
301.01769
300.41861
299.93316
299.52188
299.10783
298.7819
298.5877
298.47477
298.40984
298.37272
298.34773
298.32305
298.27771
298.1973
298.12967
298.08362
298.0526
298.03031
298.01138
304.78136
297.15252
297.34659
296.34042
297.7763
297.86803
298.69734
299.30258
300.10525
300.9741
301.96664
303.07866
304.30396
305.61454
306.95044
308.22925
309.35224
310.17943
310.59655
310.6474
310.34224
309.73992
308.92062
307.96626
306.95125
305.92262
304.91221
303.97568
303.1326
302.37506
301.66947
300.99712
300.3944
299.90611
299.48669
299.06758
298.76498
298.58444
298.47806
298.41547
298.37881
298.35426
298.32335
298.27229
298.19091
298.12577
298.0816
298.05158
298.02973
298.01107
305.3679
297.44021
298.20996
297.27397
298.67655
298.8375
299.66672
300.31846
301.15088
302.05955
303.09036
304.23775
305.48758
306.80096
308.10914
309.32408
310.33647
310.99392
311.25356
311.1499
310.70387
309.98591
309.0784
308.06262
307.00741
305.9395
304.9136
303.96817
303.12106
302.36115
301.65196
300.97476
300.3684
299.87619
299.44796
299.0307
298.75056
298.58236
298.4817
298.42115
298.38382
298.35797
298.32258
298.26598
298.18471
298.12203
298.07969
298.05064
298.02917
298.01078
305.99022
297.82126
299.11268
298.2607
299.62693
299.85793
300.68912
301.38636
302.24996
303.19802
304.26572
305.44406
306.7094
308.01193
309.27588
310.40736
311.27854
311.75766
311.86257
311.60226
311.02113
310.19553
309.20905
308.14062
307.04221
305.94639
304.9083
303.95534
303.10567
302.34453
301.63244
300.95087
300.34067
299.84325
299.40488
298.99913
298.73836
298.58091
298.48505
298.42626
298.38877
298.36035
298.32091
298.25896
298.17873
298.11844
298.07789
298.04977
298.02865
298.01052
306.6324
298.31761
300.05991
299.30115
300.62903
300.93054
301.76642
302.50835
303.40458
304.39152
305.49363
306.69623
307.96532
309.24111
310.44168
311.46466
312.16633
312.47495
312.41749
312.00384
311.29521
310.3712
309.31542
308.20111
307.05901
305.94632
304.89608
303.93781
303.0871
302.32562
301.61127
300.92569
300.31119
299.80767
299.36015
298.97138
298.72782
298.57966
298.48809
298.43129
298.39351
298.36195
298.31847
298.25163
298.17291
298.115
298.07621
298.04895
298.02816
298.01025
307.27715
298.95239
301.05234
300.39648
301.68428
302.05673
302.90146
303.68785
304.61789
305.6423
306.77429
307.99154
309.24967
310.48053
311.59622
312.48033
312.99726
313.14031
312.91586
312.35519
311.52798
310.51609
309.40024
308.23759
307.06564
305.93783
304.87799
303.91622
303.06581
302.30486
301.58882
300.89943
300.28
299.77
299.31554
298.94641
298.71827
298.57843
298.49105
298.43646
298.3982
298.36335
298.31519
298.24422
298.16723
298.11176
298.07462
298.04824
298.02769
298.00998
307.89952
299.76148
302.09034
301.54711
302.79455
303.23968
304.09936
304.93011
305.89397
306.95217
308.10652
309.32537
310.55488
311.71986
312.72546
313.43905
313.774
313.74642
313.35704
312.65748
311.72219
310.63349
309.46484
308.25494
307.06429
305.92188
304.85472
303.89126
303.04235
302.28264
301.56542
300.87227
300.24707
299.7307
299.27232
298.92337
298.7093
298.57731
298.49423
298.44188
298.40315
298.36473
298.31099
298.2367
298.16174
298.10881
298.07309
298.04756
298.02725
298.0097
308.4761
300.76734
303.18359
302.7606
303.9682
304.48813
305.36927
306.24032
307.23614
308.3214
309.48678
310.69078
311.87132
312.94657
313.81127
314.33448
314.49374
314.28884
313.74132
312.91294
311.88138
310.72579
309.50318
308.26157
307.05324
305.89948
304.82706
303.86347
303.01714
302.25936
301.54138
300.84443
300.21244
299.68975
299.23074
298.90178
298.70071
298.57628
298.49766
298.44783
298.40907
298.36562
298.30608
298.22917
298.15647
298.106
298.07169
298.04691
298.02681
298.0094
309.04073
301.94599
304.35687
304.05613
305.22327
305.82312
306.71729
307.62096
308.64514
309.74776
310.90888
312.07805
313.18653
314.14548
314.83553
315.1679
315.1472
314.76677
314.06996
313.12471
312.00924
310.79337
309.52183
308.25859
307.03429
305.8715
304.79574
303.83345
302.99067
302.23538
301.51697
300.81606
300.17619
299.647
299.19069
298.88143
298.69253
298.57553
298.50144
298.45433
298.41589
298.3657
298.30061
298.22174
298.15138
298.10319
298.07046
298.04629
298.02639
298.00911
309.65606
303.30278
305.61189
305.44904
306.56712
307.22867
308.12562
309.07516
310.11973
311.22573
312.36341
313.47492
314.48488
315.29569
315.78942
315.93683
315.72881
315.18027
314.34558
313.29668
312.10848
310.83323
309.52836
308.24534
307.00846
305.83889
304.7614
303.80165
302.96334
302.21109
301.49246
300.78732
300.13855
299.60252
299.15244
298.86222
298.68483
298.57516
298.50562
298.46111
298.42213
298.36494
298.29459
298.21434
298.14636
298.10066
298.06936
298.04568
298.02598
298.00882
310.35308
304.69735
306.94603
306.91881
307.98997
308.70323
309.63585
310.6053
311.65508
312.74562
313.83735