/*--------------------------------*- C++ -*----------------------------------*\
  =========                 |
  \\      /  F ield         | OpenFOAM: The Open Source CFD Toolbox
   \\    /   O peration     | Website:  https://openfoam.org
    \\  /    A nd           | Version:  8
     \\/     M anipulation  |
\*---------------------------------------------------------------------------*/
FoamFile
{
    version     2.0;
    format      ascii;
    class       volVectorField;
    location    "0.0499991";
    object      U;
}
// * * * * * * * * * * * * * * * * * * * * * * * * * * * * * * * * * * * * * //

dimensions      [0 1 -1 0 0 0 0];

internalField   nonuniform List<vector> 
20000
(
(198.92798 6.3813949e-16 -8.0765207)
(234.50141 -2.343242e-16 -9.2219201)
(257.72486 0 -10.313756)
(277.46 1.6296442e-16 -11.223638)
(294.76552 -1.3904171e-16 -12.194865)
(307.35755 1.1868288e-16 -12.768912)
(308.67315 -9.9385997e-17 -13.208968)
(309.59736 -8.1552498e-17 -12.640643)
(308.66876 6.9086189e-17 -13.380305)
(308.98463 0 -12.505353)
(308.31408 0 -13.389492)
(308.26344 7.9710889e-17 -12.53131)
(307.62393 -1.3295921e-16 -13.28928)
(307.24976 5.8630945e-17 -12.628125)
(306.52439 -2.8711881e-18 -13.153797)
(305.83438 -3.8276883e-17 -12.720039)
(304.89546 3.1701737e-17 -13.01229)
(303.85306 0 -12.746105)
(302.5853 0 -12.847649)
(301.11199 0 -12.66668)
(299.36145 0 -12.670666)
(297.30503 0 -12.550108)
(294.95659 -1.0194857e-17 -12.436838)
(292.31688 3.5766255e-17 -12.200463)
(289.40943 -1.3574565e-17 -11.897444)
(286.25307 1.9732021e-17 -11.467743)
(282.91632 -3.1869508e-17 -10.913851)
(279.49657 1.4641272e-17 -10.211864)
(276.12302 -2.9600511e-18 -9.3746682)
(272.92354 -1.8852431e-17 -8.4296327)
(270.01427 4.5075304e-17 -7.4301878)
(267.47515 4.7157319e-17 -6.4376152)
(265.35185 -3.4544676e-17 -5.5097928)
(263.64931 8.5161982e-17 -4.6808644)
(262.37793 -2.7222353e-18 -3.9735412)
(261.44329 6.8333457e-17 -3.4167772)
(260.74407 0 -2.965641)
(260.33382 1.125007e-16 -2.5323078)
(260.1985 -2.7937542e-17 -2.1296724)
(260.20937 -1.9421272e-17 -1.7920764)
(260.30108 4.5918313e-17 -1.5068308)
(260.35668 -2.2561928e-17 -1.2505477)
(260.53618 0 -0.95356338)
(261.08569 1.2215517e-16 -0.61961717)
(261.53524 -1.804251e-17 -0.36460649)
(261.54875 -1.0692979e-16 -0.22155057)
(261.33029 -6.9615446e-17 -0.15838139)
(261.23367 -7.5511614e-18 -0.12918701)
(261.24309 0 -0.08525172)
(261.26704 2.8644551e-19 -0.036159212)
(200.23728 0 -8.9075952)
(235.91937 -2.4081195e-16 -10.185546)
(259.29484 1.9594399e-16 -11.377899)
(279.09081 -1.6673244e-16 -12.330371)
(296.35435 2.8461575e-16 -13.384358)
(308.31009 -1.2095694e-16 -13.924852)
(309.07615 0 -14.390947)
(310.02314 -1.320012e-18 -13.781382)
(309.06944 0 -14.609247)
(309.39194 0 -13.676047)
(308.69982 3.047478e-18 -14.631045)
(308.64658 0 -13.724046)
(307.98874 -6.768128e-17 -14.525385)
(307.60275 -3.6509337e-18 -13.83284)
(306.85945 4.9654548e-17 -14.376551)
(306.1522 0 -13.922003)
(305.19303 8.0744559e-18 -14.211543)
(304.12141 1.3476303e-17 -13.934628)
(302.80616 -4.4492038e-17 -14.037861)
(301.24958 1.8366989e-17 -13.865987)
(299.40668 0 -13.864395)
(297.29021 -2.5168537e-17 -13.719494)
(294.90331 -1.0368965e-17 -13.572908)
(292.21749 0 -13.29809)
(289.24889 1.4100332e-17 -12.947088)
(286.02779 -4.5538178e-17 -12.457541)
(282.63538 -1.8646744e-17 -11.827242)
(279.17732 0 -11.034407)
(275.78737 -9.6214591e-17 -10.094916)
(272.59574 1.151111e-16 -9.0417877)
(269.71492 -9.1217585e-17 -7.9343258)
(267.21871 -9.5511319e-17 -6.839536)
(265.14285 -3.7150498e-17 -5.8197687)
(263.49154 -1.5797556e-16 -4.9097972)
(262.26699 0 -4.1366192)
(261.33224 -6.681473e-17 -3.5329614)
(260.65606 2.5210522e-17 -3.0445518)
(260.29797 -7.5470392e-17 -2.5781138)
(260.17848 2.1073279e-16 -2.1518783)
(260.19413 1.6649499e-16 -1.8000229)
(260.28108 0 -1.5107398)
(260.33553 1.8083105e-16 -1.2510137)
(260.61391 1.6593739e-17 -0.93343606)
(261.22002 -3.0509182e-16 -0.59181321)
(261.49177 -1.6177968e-16 -0.35776782)
(261.4678 1.0639101e-16 -0.23125664)
(261.31107 2.5770511e-16 -0.16851635)
(261.23802 7.4659029e-18 -0.13249621)
(261.24126 7.9980653e-17 -0.08491035)
(261.26676 5.594194e-19 -0.034393683)
(201.84479 -1.3048305e-18 -9.7967167)
(237.70353 9.5628543e-19 -11.219567)
(261.15994 1.5611327e-18 -12.523882)
(280.94737 1.328259e-18 -13.546724)
(298.09048 1.45369e-16 -14.706408)
(309.20971 7.2089507e-20 -15.208545)
(309.43398 -9.9964277e-17 -15.693072)
(310.38732 -8.5922218e-17 -15.014835)
(309.40535 7.1620644e-17 -15.906797)
(309.73387 5.9604955e-17 -14.90011)
(309.01847 -5.272431e-17 -15.908136)
(308.95954 -8.7832387e-17 -14.948721)
(308.28581 7.7322143e-17 -15.782843)
(307.8876 7.1489081e-18 -15.058754)
(307.12687 -1.1895883e-17 -15.612273)
(306.39923 0 -15.140919)
(305.40995 -8.2237355e-18 -15.429957)
(304.28721 4.1004657e-17 -15.154858)
(302.90749 -2.2569947e-17 -15.269288)
(301.28454 -3.7611998e-17 -15.102909)
(299.39057 -2.2814562e-19 -15.081196)
(297.22934 5.1090009e-17 -14.90347)
(294.78672 8.2130735e-20 -14.719349)
(292.03271 -1.213602e-16 -14.408048)
(288.9903 -2.856749e-17 -14.006515)
(285.7014 -2.3272514e-17 -13.451673)
(282.25309 5.6261118e-17 -12.739058)
(278.75934 0 -11.849098)
(275.35882 9.7507281e-17 -10.801702)
(272.1832 -7.774862e-17 -9.6364552)
(269.34074 -3.0887707e-17 -8.4190842)
(266.89758 1.4485072e-16 -7.2223305)
(264.87983 -1.8729986e-17 -6.1119966)
(263.29081 1.1599857e-16 -5.1232366)
(262.11806 -1.7758975e-16 -4.289751)
(261.18988 0 -3.6411712)
(260.56274 0 -3.1136162)
(260.25362 -2.8485025e-16 -2.6157296)
(260.1544 -2.1181196e-16 -2.169138)
(260.17398 -1.8806995e-16 -1.8049846)
(260.25225 0 -1.5113683)
(260.32143 -2.0375419e-16 -1.2418302)
(260.73968 3.3226066e-17 -0.90731098)
(261.26646 1.8281553e-16 -0.56783859)
(261.47013 -4.300816e-16 -0.35326808)
(261.43558 0 -0.23867443)
(261.29855 -1.5730035e-16 -0.17655632)
(261.23846 -1.4756777e-17 -0.13518812)
(261.23943 -7.8666974e-17 -0.084403595)
(261.26646 -2.1859261e-18 -0.032376638)
(203.2988 2.6308956e-18 -10.701483)
(239.29413 2.4948372e-16 -12.26191)
(262.8461 -1.5952842e-18 -13.675001)
(282.63317 -1.3571035e-18 -14.763374)
(299.63284 1.4806632e-16 -16.021749)
(309.92839 -2.5278139e-16 -16.461672)
(309.69192 -3.3639987e-18 -16.979842)
(310.664 9.2783926e-17 -16.232752)
(309.65559 4.5538976e-18 -17.202093)
(309.99566 1.2127661e-16 -16.125278)
(309.25698 -1.0095817e-16 -17.194005)
(309.18475 5.2556495e-18 -16.186312)
(308.50674 -8.5471575e-21 -17.055938)
(308.09527 -7.280716e-18 -16.299235)
(307.31172 9.3418269e-21 -16.864404)
(306.54964 -2.0124157e-17 -16.385241)
(305.51307 -1.6721752e-17 -16.688793)
(304.33285 2.7762938e-17 -16.423416)
(302.9002 -2.3024835e-17 -16.533689)
(301.23763 -3.8141834e-17 -16.354612)
(299.31006 0 -16.30349)
(297.09921 -2.6140116e-17 -16.09562)
(294.58589 6.4204277e-17 -15.880269)
(291.75617 7.0416007e-17 -15.530134)
(288.63846 -6.7765287e-20 -15.074345)
(285.28128 0 -14.449689)
(281.77997 0 -13.649672)
(278.25642 0 -12.657713)
(274.85403 0 -11.498475)
(271.70479 -1.9797976e-17 -10.218685)
(268.91161 4.6793189e-17 -8.8907484)
(266.53173 -2.4340377e-17 -7.5928718)
(264.58215 -1.9045797e-17 -6.3934173)
(263.06378 2.4907438e-16 -5.3280914)
(261.94245 1.5667338e-16 -4.4381775)
(261.0357 -1.7035536e-17 -3.7454115)
(260.46673 -3.8344944e-16 -3.1777533)
(260.2057 2.8649111e-16 -2.650723)
(260.1241 4.6823761e-16 -2.1857189)
(260.15198 -2.0970875e-17 -1.8106967)
(260.21712 4.6319069e-17 -1.511957)
(260.31122 -4.0805084e-16 -1.2271981)
(260.85229 -1.6562193e-17 -0.88058383)
(261.29787 2.435676e-17 -0.54971171)
(261.43804 5.7144001e-16 -0.3517464)
(261.39743 4.2097819e-16 -0.24548307)
(261.28632 0 -0.18331367)
(261.23614 -2.3332118e-16 -0.13760394)
(261.23751 0 -0.083935382)
(261.26612 0 -0.030363773)
(204.69865 3.4708584e-16 -11.627645)
(240.83782 -5.0692461e-16 -13.328688)
(264.48414 2.0816085e-16 -14.856468)
(284.2636 2.76608e-18 -16.013081)
(301.05916 0 -17.372949)
(310.50146 7.9184304e-18 -17.735127)
(309.87713 0 -18.2953)
(310.86703 -4.8910749e-21 -17.469902)
(309.82001 -9.26972e-18 -18.517035)
(310.17733 0 -17.366414)
(309.40225 0 -18.497012)
(309.33315 -9.6247495e-17 -17.44155)
(308.64158 6.2217851e-17 -18.346148)
(308.20833 1.4802369e-17 -17.563133)
(307.39071 1.2320355e-17 -18.151523)
(306.58723 5.266945e-21 -17.676161)
(305.50913 -5.1110756e-17 -17.985015)
(304.29135 -7.6217631e-20 -17.712326)
(302.83019 2.3420341e-17 -17.805178)
(301.13318 3.8787647e-17 -17.608115)
(299.15987 0 -17.534823)
(296.88108 7.9544917e-17 -17.304957)
(294.29124 -2.1686361e-17 -17.055318)
(291.38212 -3.5984318e-17 -16.662404)
(288.18673 1.7555909e-16 -16.14767)
(284.76153 1.4344111e-16 -15.447577)
(281.21043 1.5553518e-16 -14.55426)
(277.66355 -1.5548346e-17 -13.454752)
(274.2686 0 -12.179346)
(271.15667 2.0064609e-17 -10.782543)
(268.42404 -1.5707568e-17 -9.3436572)
(266.11795 2.4797998e-17 -7.945937)
(264.24715 -3.8391321e-17 -6.6594252)
(262.8077 -4.5855052e-16 -5.5210042)
(261.7349 0 -4.5782286)
(260.87117 3.0807761e-16 -3.8424939)
(260.36644 4.1159627e-16 -3.2349563)
(260.15239 -3.0730277e-16 -2.6817201)
(260.08679 -4.9879424e-16 -2.2002462)
(260.12656 2.1046893e-17 -1.8159992)
(260.17936 0 -1.511345)
(260.3196 -2.2618211e-17 -1.2073559)
(260.94125 3.3210538e-17 -0.85235051)
(261.3142 -3.6429379e-17 -0.53590063)
(261.41706 1.7797014e-17 -0.35158411)
(261.36922 -4.1844685e-16 -0.25163971)
(261.27462 0 -0.18912452)
(261.23119 6.9153378e-16 -0.13967894)
(261.2354 3.4783613e-16 -0.083375983)
(261.26574 -2.0870886e-18 -0.028295097)
(206.0297 -3.5494995e-16 -12.577679)
(242.30522 2.5945705e-16 -14.421228)
(266.04579 -3.3177909e-18 -16.06532)
(285.81885 -2.8243347e-18 -17.290028)
(302.33883 -4.7962992e-18 -18.746686)
(310.93245 -1.330304e-16 -19.014091)
(309.98309 -6.8826727e-18 -19.627201)
(310.99211 -9.0495572e-17 -18.717629)
(309.91689 3.0637037e-16 -19.846298)
(310.27028 -2.5077626e-16 -18.622289)
(309.49119 1.0443966e-16 -19.817236)
(309.41831 4.0595657e-21 -18.714699)
(308.67905 7.2502978e-17 -19.664839)
(308.22083 -6.0153382e-17 -18.868529)
(307.37257 5.0198028e-17 -19.473448)
(306.54025 -2.0743467e-17 -18.988369)
(305.43954 3.4608541e-17 -19.290104)
(304.19559 -2.8727349e-17 -19.005028)
(302.69966 -4.7642217e-17 -19.080709)
(300.95342 0 -18.874529)
(298.91754 0 -18.781503)
(296.5679 -5.3799762e-17 -18.527677)
(293.89884 0 -18.24191)
(290.90767 1.2738805e-16 -17.802142)
(287.6336 4.4957921e-17 -17.223314)
(284.1416 -3.1551909e-16 -16.441781)
(280.5452 -1.5736842e-16 -15.448905)
(276.98279 -3.1928657e-17 -14.236223)
(273.60573 2.5299082e-17 -12.840544)
(270.54281 -3.243443e-16 -11.324731)
(267.88221 0 -9.7750899)
(265.66049 2.5078419e-17 -8.2792876)
(263.87915 9.9667303e-20 -6.9083285)
(262.52588 2.238705e-16 -5.7013906)
(261.49948 0 -4.7084524)
(260.69914 -3.1018916e-16 -3.9310042)
(260.2614 4.4010148e-16 -3.2851753)
(260.09123 3.0885335e-16 -2.7087787)
(260.04326 0 -2.2127011)
(260.09749 -6.5433858e-16 -1.8207017)
(260.14751 -4.8064907e-16 -1.5086181)
(260.3619 -4.3123242e-16 -1.1847652)
(261.00174 -4.9746349e-16 -0.82348476)
(261.32476 0 -0.52527522)
(261.3984 1.7717563e-17 -0.35276629)
(261.34415 -1.2996617e-17 -0.25735325)
(261.26297 0 -0.19412121)
(261.22433 -4.4114914e-16 -0.1414062)
(261.23313 -3.5274332e-16 -0.082685307)
(261.26535 2.6115828e-16 -0.026181358)
(207.30061 -3.6003651e-16 -13.550461)
(243.71385 -2.0671867e-18 -15.53871)
(267.54675 2.2003443e-16 -17.302779)
(287.31594 -1.8135781e-16 -18.596329)
(303.47121 4.8857266e-18 -20.144531)
(311.23865 0 -20.30386)
(310.01875 -1.0375857e-16 -20.981767)
(311.04334 8.6099452e-17 -19.987591)
(309.95598 9.5847354e-18 -21.205879)
(310.31293 0 -19.911278)
(309.50422 -1.3286098e-17 -21.175034)
(309.41626 9.9567761e-17 -20.02343)
(308.63524 1.7254924e-19 -21.008705)
(308.16033 -1.0712128e-16 -20.190886)
(307.2938 0 -20.803633)
(306.44116 -4.2365881e-17 -20.304537)
(305.31472 0 -20.595535)
(304.03385 1.1691334e-16 -20.307177)
(302.48975 2.4279303e-17 -20.372511)
(300.68453 0 -20.155953)
(298.58256 0 -20.041634)
(296.15689 0 -19.76272)
(293.40539 0 -19.437557)
(290.32984 -1.2919685e-16 -18.946412)
(286.97645 -2.5709711e-16 -18.297778)
(283.41983 1.9701488e-16 -17.428225)
(279.78376 2.0100259e-17 -16.329142)
(276.21484 -4.8405307e-17 -14.99755)
(272.86712 2.5653451e-17 -13.477717)
(269.86549 -7.0614197e-19 -11.841375)
(267.28856 0 -10.181744)
(265.16202 0 -8.5901129)
(263.48069 0 -7.1379347)
(262.21935 3.0169766e-17 -5.8679052)
(261.24108 -3.9038166e-16 -4.8273037)
(260.5201 0 -4.0094248)
(260.15169 -4.1654249e-16 -3.3280771)
(260.0237 -6.2076493e-16 -2.7314724)
(259.99416 -9.1931317e-16 -2.2226597)
(260.06382 1.3544272e-15 -1.824052)
(260.12092 -1.2494706e-20 -1.5025753)
(260.41965 2.0676248e-19 -1.1607706)
(261.04288 5.3016111e-16 -0.79554625)
(261.32966 0 -0.51651514)
(261.38317 0 -0.35483123)
(261.32305 -8.1344615e-16 -0.26281258)
(261.25161 -2.8477387e-17 -0.19856002)
(261.21691 1.4054021e-17 -0.14278283)
(261.23116 -3.4160646e-16 -0.081811673)
(261.26494 -2.5130827e-16 -0.024017405)
(208.50631 3.6657533e-16 -14.542298)
(245.05765 -2.6950566e-16 -16.675593)
(268.98153 0 -18.563448)
(288.7594 1.8495875e-16 -19.930988)
(304.44528 5.0607789e-18 -21.569556)
(311.42625 -1.4191566e-16 -21.618058)
(309.99151 0 -22.376281)
(311.05286 0 -21.292515)
(309.91379 -1.9495432e-17 -22.599371)
(310.28301 1.1354756e-16 -21.227468)
(309.4384 -9.4488611e-17 -22.552716)
(309.35058 -2.2481042e-17 -21.347458)
(308.53957 0 -22.359386)
(308.0497 -4.6956376e-21 -21.515803)
(307.16181 7.7821402e-17 -22.133644)
(306.28024 -4.2994958e-17 -21.629837)
(305.11729 3.586296e-17 -21.917716)
(303.78883 -8.8979521e-17 -21.626285)
(302.19247 -2.4695997e-17 -21.678411)
(300.32443 2.0304985e-17 -21.451594)
(298.151 -3.3839343e-17 -21.314259)
(295.64554 2.7666519e-17 -21.007644)
(292.80837 6.8646387e-17 -20.639528)
(289.64644 1.8672016e-17 -20.091969)
(286.21385 1.2280204e-16 -19.367256)
(282.59584 -1.7541256e-16 -18.4026)
(278.92704 -2.0153723e-17 -17.190364)
(275.36191 2.2911807e-16 -15.734162)
(272.05592 2.6008261e-17 -14.086667)
(269.12829 3.3211252e-16 -12.328878)
(266.64683 5.2433186e-16 -10.560636)
(264.62658 2.5626151e-17 -8.8759688)
(263.05518 6.1414789e-16 -7.346517)
(261.88829 3.0430294e-17 -6.0191671)
(260.96543 3.4689414e-16 -4.9335669)
(260.33601 0 -4.0767116)
(260.03811 0 -3.3636398)
(259.94623 -1.2653253e-19 -2.7494205)
(259.94063 8.9350029e-16 -2.2297919)
(260.02489 -6.3631059e-16 -1.8252363)
(260.0999 -4.8192681e-16 -1.4924663)
(260.48805 1.4303944e-15 -1.1356096)
(261.07449 -1.6532505e-17 -0.76959852)
(261.331 -7.5884466e-16 -0.50915864)
(261.36957 5.6183567e-16 -0.35755403)
(261.30422 8.2070073e-16 -0.26809868)
(261.24049 0 -0.20254845)
(261.20862 -1.3876663e-17 -0.14380691)
(261.22947 9.9735048e-16 -0.080725878)
(261.26457 3.9007277e-18 -0.021813149)
(209.64967 0 -15.557138)
(246.33708 0 -17.838414)
(270.35268 -2.2162534e-16 -19.854704)
(290.16039 3.7682564e-16 -21.300853)
(305.26278 -1.6684654e-16 -23.019127)
(311.50935 8.4973481e-18 -22.945202)
(309.8907 -7.1521307e-18 -23.785931)
(310.94275 1.900782e-16 -22.605357)
(309.79737 -1.3863952e-16 -24.000765)
(310.15586 -1.9297604e-21 -22.549867)
(309.30657 1.3737226e-17 -23.933386)
(309.21479 -4.5792366e-17 -22.675241)
(308.38907 5.700144e-17 -23.716349)
(307.87624 6.3330434e-17 -22.854946)
(306.95892 5.2785579e-17 -23.481581)
(306.04016 4.3955381e-17 -22.973766)
(304.8371 1.0380916e-19 -23.254418)
(303.45868 0 -22.960692)
(301.80536 0 -22.998613)
(299.87007 0 -22.760195)
(297.62104 0 -22.597591)
(295.03162 -2.8393404e-17 -22.26033)
(292.10556 -6.9810539e-17 -21.844976)
(288.8556 -1.9195146e-17 -21.235341)
(285.34469 -2.3465158e-16 -20.427664)
(281.6697 4.0682753e-16 -19.360317)
(277.9765 0 -18.027763)
(274.4267 -2.6496875e-16 -16.441409)
(271.17562 4.2495861e-16 -14.66324)
(268.3351 0 -12.783749)
(265.96123 -1.0265902e-15 -10.908916)
(264.05866 -5.164176e-17 -9.1346354)
(262.60555 -6.1911041e-16 -7.5327415)
(261.53141 -4.9058887e-16 -6.1534446)
(260.67912 0 -5.0261422)
(260.14853 5.626319e-16 -4.1321482)
(259.92041 -2.6317106e-17 -3.391887)
(259.85941 1.2911393e-15 -2.7623374)
(259.88281 9.1075517e-16 -2.2337051)
(259.97976 -6.8010622e-16 -1.8236398)
(260.08204 1.0267478e-15 -1.4776688)
(260.55855 -7.2631544e-16 -1.1092386)
(261.0999 -1.6530315e-17 -0.74604401)
(261.32856 7.4437047e-16 -0.50279204)
(261.35612 -1.6595701e-15 -0.36065361)
(261.28728 0 -0.27327766)
(261.22943 0 -0.20618785)
(261.19967 0 -0.1444693)
(261.22794 -6.6052601e-16 -0.079399884)
(261.26425 7.629026e-18 -0.01957349)
(210.75662 -7.5936929e-16 -16.595781)
(247.57306 2.7969964e-16 -19.023733)
(271.67443 -3.5844762e-18 -21.16765)
(291.53455 -3.8396274e-16 -22.691838)
(305.92827 3.2915515e-16 -24.472397)
(311.508 0 -24.26646)
(309.72899 -2.2543124e-16 -25.195256)
(310.81345 3.9820897e-16 -23.915487)
(309.61688 -3.3237018e-16 -25.402684)
(310.00035 1.6543722e-17 -23.875846)
(309.10695 9.7634521e-17 -25.32436)
(308.98567 -2.322675e-17 -24.023772)
(308.1635 3.8690915e-17 -25.095915)
(307.62431 2.1669454e-20 -24.214677)
(306.6761 2.6880734e-17 -24.844427)
(305.71878 1.9177665e-19 -24.333871)
(304.4724 -1.8487369e-16 -24.606014)
(303.04014 3.058696e-17 -24.309917)
(301.32602 -2.5520803e-17 -24.331787)
(299.31936 -2.1305994e-17 -24.080329)
(296.99029 -1.0474891e-16 -23.889803)
(294.31303 -1.1501574e-16 -23.518288)
(291.29509 2.3760376e-17 -23.050839)
(287.956 -1.9267527e-17 -22.372798)
(284.36857 2.5330956e-16 -21.47464)
(280.64232 -4.1306128e-16 -20.296561)
(276.93446 -3.3502147e-16 -18.836413)
(273.41271 0 -17.114663)
(270.23047 -4.0239477e-16 -15.20342)
(267.49059 -4.2572127e-17 -13.202707)
(265.23683 5.5199641e-16 -11.22398)
(263.46313 3.9188533e-16 -9.3642509)
(262.13411 -7.770236e-20 -7.6957475)
(261.14866 4.7847518e-16 -6.2689031)
(260.38865 7.7465639e-16 -5.1039506)
(259.95911 1.7985832e-17 -4.1755432)
(259.79756 1.3225398e-17 -3.4127606)
(259.76497 -6.4789498e-16 -2.7701077)
(259.82031 -9.2754086e-16 -2.2340797)
(259.92834 6.810998e-16 -1.8187242)
(260.06827 -9.9604795e-16 -1.4579981)
(260.62747 0 -1.0815197)
(261.12066 0 -0.72509413)
(261.32257 -2.3921409e-17 -0.49719081)
(261.34147 2.2241476e-15 -0.36379124)
(261.27132 -7.9631459e-16 -0.27830606)
(261.21824 0 -0.20953472)
(261.19008 0 -0.14475874)
(261.22649 0 -0.077801053)
(261.26399 3.7296178e-18 -0.017301415)
(211.81525 0 -17.658875)
(248.7467 4.4526726e-18 -20.23409)
(272.92385 -3.6534059e-18 -22.509005)
(292.86189 -6.2059194e-18 -24.117596)
(306.42321 5.2340326e-18 -25.947082)
(311.412 0 -25.604374)
(309.50412 7.3882123e-18 -26.628978)
(310.6056 -1.2259492e-17 -25.246456)
(309.37944 0 -26.825641)
(309.76148 0 -25.217668)
(308.84216 -2.8386488e-17 -26.727811)
(308.71423 9.453718e-17 -25.385242)
(307.85972 -5.8855756e-17 -26.48643)
(307.29368 9.2459311e-20 -25.589628)
(306.31278 -5.4319614e-17 -26.221223)
(305.3138 4.5328591e-17 -25.709619)
(304.02102 1.1282297e-16 -25.971361)
(302.53143 0 -25.672819)
(300.75241 1.0349735e-16 -25.676798)
(298.67016 0 -25.41034)
(296.2568 3.5194982e-17 -25.188805)
(293.48792 8.7553372e-17 -24.778888)
(290.37544 -1.6826327e-16 -24.253832)
(286.94676 -1.9569721e-17 -23.500357)
(283.2857 0 -22.503568)
(279.51531 2.0928612e-16 -21.206322)
(275.80397 6.7872531e-16 -19.611321)
(272.3241 -1.71335e-17 -17.74937)
(269.22537 -4.2281446e-16 -15.703371)
(266.60023 0 -13.582712)
(264.47934 0 -11.503542)
(262.84449 -3.9501004e-16 -9.5633506)
(261.64192 -2.0299389e-17 -7.8348272)
(260.7454 9.656281e-16 -6.3642703)
(260.09794 -7.3195423e-16 -5.1657795)
(259.76899 -5.5093996e-16 -4.2071008)
(259.66805 -1.3275667e-17 -3.4260437)
(259.66545 0 -2.7727593)
(259.75324 -9.2980894e-16 -2.2307566)
(259.87206 -1.3640383e-15 -1.8099995)
(260.06651 9.6505758e-16 -1.4343196)
(260.69105 2.2672923e-17 -1.0523136)
(261.13742 0 -0.70664847)
(261.31452 0 -0.49232714)
(261.32504 -2.2116357e-15 -0.36674401)
(261.25569 8.0275177e-16 -0.28308265)
(261.20687 1.1868737e-15 -0.21262592)
(261.17996 8.4097314e-16 -0.14465748)
(261.2251 6.2868118e-16 -0.075904132)
(261.26383 -4.707373e-16 -0.014998221)
(212.82402 -3.0711308e-18 -18.741537)
(249.85651 -4.5324036e-18 -21.461737)
(274.09553 3.7203206e-18 -23.870978)
(294.13616 -3.8959574e-21 -25.569578)
(306.74784 5.3265517e-18 -27.432874)
(311.21303 0 -26.951492)
(309.21413 7.5130516e-18 -28.077125)
(310.33165 1.869971e-16 -26.590701)
(309.06965 -1.6627893e-16 -28.264609)
(309.45478 -1.5577586e-16 -26.575732)
(308.50516 1.4405473e-16 -28.148329)
(308.36072 0 -26.762457)
(307.47989 4.3472515e-20 -27.889143)
(306.88363 6.6489017e-17 -26.9804)
(305.86749 0 -27.611673)
(304.82371 -6.3362836e-20 -27.100446)
(303.48123 -3.8224477e-17 -27.349825)
(301.93059 3.1785052e-17 -27.048341)
(300.08263 -1.5749778e-16 -27.032231)
(297.92061 2.1650499e-17 -26.748417)
(295.41875 1.4359558e-16 -26.49233)
(292.55468 0 -26.039258)
(289.34545 1.7031531e-16 -25.45042)
(285.8275 1.8027277e-16 -24.613764)
(282.09695 -2.6217305e-16 -23.509581)
(278.29105 4.2651146e-16 -22.084435)
(274.58882 1.3404403e-18 -20.34748)
(271.16576 0 -18.341094)
(268.16605 4.4054443e-16 -16.159477)
(265.67035 0 -13.921038)
(263.69473 -5.4834694e-16 -11.745728)
(262.20615 0 -9.7308749)
(261.12908 0 -7.9488381)
(260.33118 -2.0070838e-15 -6.4390085)
(259.8095 4.7553036e-17 -5.2108675)
(259.57866 1.0902723e-15 -4.2271732)
(259.52978 1.3330419e-17 -3.4313115)
(259.56367 -1.2845949e-15 -2.7703058)
(259.68252 9.1689895e-16 -2.2237496)
(259.8144 1.3863505e-15 -1.7967831)
(260.08311 0 -1.4080051)
(260.74634 1.4692988e-15 -1.0219643)
(261.15016 1.0323402e-15 -0.69038294)
(261.30464 -2.372653e-17 -0.48818718)
(261.30611 1.0992457e-15 -0.36936267)
(261.23975 1.244345e-17 -0.28744679)
(261.19544 -1.1746489e-15 -0.21549238)
(261.16965 1.3203917e-17 -0.14415796)
(261.22375 -6.1808687e-16 -0.073682503)
(261.26375 4.5700567e-16 -0.01266413)
(213.78125 3.1213475e-18 -19.851701)
(250.9021 -5.908848e-16 -22.718533)
(275.18459 4.85136e-16 -25.266267)
(295.34938 4.1769624e-16 -27.054888)
(306.90597 -3.5700518e-16 -28.932523)
(310.89687 -9.0877551e-18 -28.313194)
(308.85299 -1.5240623e-17 -29.544507)
(309.9865 1.2652396e-17 -27.949808)
(308.68889 1.691671e-16 -29.720432)
(309.07426 3.538685e-17 -27.950665)
(308.09429 -1.4638444e-16 -29.584221)
(307.9328 0 -28.157322)
(307.02156 -8.1200359e-17 -29.306484)
(306.39217 -3.3754972e-17 -28.387644)
(305.33841 -6.7703765e-20 -29.015537)
(304.24676 -7.9438398e-20 -28.505681)
(302.85135 3.8906831e-17 -28.740387)
(301.23606 -3.2088301e-17 -28.435158)
(299.31507 -2.6791202e-17 -28.396527)
(297.06909 2.1995713e-17 -28.092578)
(294.47459 1.0963152e-16 -27.797936)
(291.51197 2.7136966e-16 -27.296327)
(288.20428 -2.4924701e-17 -26.636821)
(284.59837 2.0422541e-16 -25.708496)
(280.80384 2.4865001e-16 -24.487589)
(276.97265 -4.3111868e-16 -22.925627)
(273.29354 -3.7044835e-16 -21.039919)
(269.94337 3.5015489e-17 -18.885567)
(267.05918 -1.3889765e-17 -16.568408)
(264.70789 7.0735315e-16 -14.215353)
(262.88836 -1.3590769e-18 -11.949112)
(261.54995 0 -9.8660911)
(260.59683 -6.4173816e-16 -8.0364109)
(259.91613 9.9420803e-16 -6.4928456)
(259.52561 -2.3912704e-17 -5.2391144)
(259.38595 1.8580811e-17 -4.2359421)
(259.38408 0 -3.4285102)
(259.46129 1.2678158e-15 -2.762491)
(259.60969 -9.3305868e-16 -2.2131386)
(259.76027 -1.3871671e-15 -1.7787663)
(260.11964 -1.5502847e-17 -1.3800758)
(260.79177 -1.4216313e-15 -0.99110961)
(261.15885 -1.0455036e-15 -0.6758434)
(261.2914 0 -0.48455263)
(261.28444 0 -0.37158266)
(261.22275 0 -0.29118109)
(261.18398 0 -0.21811037)
(261.16016 -1.296843e-17 -0.14332184)
(261.22245 3.1551094e-21 -0.071119732)
(261.26376 -8.8045137e-16 -0.010298986)
(214.67839 6.3537101e-18 -20.978622)
(251.88017 0 -23.987411)
(276.18759 0 -26.677965)
(296.48665 0 -28.555505)
(306.90181 1.1011618e-17 -30.432421)
(310.46326 9.2277488e-18 -29.68057)
(308.41827 -2.4794091e-16 -31.027733)
(309.56758 -2.5136281e-19 -29.322205)
(308.23263 -2.5849143e-19 -31.192056)
(308.61726 1.4271699e-16 -29.341748)
(307.60584 2.9742464e-17 -31.035412)
(307.42486 0 -29.569262)
(306.48265 -8.2691714e-17 -30.737117)
(305.81766 1.0285978e-16 -29.810558)
(304.72416 -1.7140641e-16 -30.431891)
(303.58168 1.8993201e-16 -29.92424)
(302.13012 -3.930616e-17 -30.141878)
(300.44649 0 -29.831821)
(298.44835 1.0863626e-16 -29.768008)
(296.11421 0 -29.440724)
(293.42299 -1.4818894e-16 -29.103035)
(290.35874 -2.7516413e-16 -28.546826)
(286.95152 2.268367e-16 -27.808994)
(283.26005 -3.2958716e-16 -26.779763)
(279.40858 0 -25.432305)
(275.56391 0 -23.724564)
(271.92342 2.224503e-17 -21.683762)
(268.66358 1.8052808e-19 -19.37876)
(265.9123 1.4301314e-17 -16.927216)
(263.7196 -7.3544765e-16 -14.463796)
(262.06409 5.5834572e-16 -12.112681)
(260.87693 0 -9.9683685)
(260.05182 6.6654471e-16 -8.0966892)
(259.50853 9.861101e-16 -6.5255994)
(259.24677 -7.4549898e-16 -5.2510663)
(259.1873 -1.1536539e-15 -4.2331163)
(259.23522 -8.59391e-16 -3.4178901)
(259.3588 1.2709947e-15 -2.74908)
(259.53619 9.3399826e-16 -2.1987264)
(259.71614 1.3872027e-15 -1.7561254)
(260.17006 1.5483426e-17 -1.3506375)
(260.82985 1.4406118e-15 -0.96099994)
(261.1644 1.0092034e-15 -0.66284107)
(261.27333 1.1756079e-17 -0.48123406)
(261.26054 1.6959163e-17 -0.37330929)
(261.20401 -1.2238299e-17 -0.2940876)
(261.17168 0 -0.22027957)
(261.1523 1.8524964e-20 -0.14225853)
(261.22119 -1.2041299e-15 -0.068238055)
(261.26385 8.8226291e-16 -0.007902574)
(215.51262 8.1987992e-16 -22.127536)
(252.79235 0 -25.276847)
(277.11089 7.8674945e-18 -28.116548)
(297.53657 0 -30.077874)
(306.73834 3.3584115e-16 -31.943579)
(309.99296 2.6513714e-19 -31.06289)
(307.90776 -5.0342295e-16 -32.529871)
(309.07275 2.0885463e-16 -30.709448)
(307.69969 0 -32.679259)
(308.08219 -3.6277422e-17 -30.748543)
(307.03894 0 -32.499919)
(306.83672 0 -30.997282)
(305.86234 -4.2078144e-17 -32.179982)
(305.15931 3.4717083e-17 -31.248215)
(304.02392 1.7389233e-16 -31.859673)
(302.82762 -9.6325255e-17 -31.354978)
(301.31656 0 -31.553036)
(299.56082 -1.3315028e-16 -31.236802)
(297.4813 -1.1004266e-16 -31.144906)
(295.05474 0 -30.790626)
(292.26281 -3.7893046e-17 -30.404861)
(289.09421 -1.8709896e-16 -29.787267)
(285.58716 -2.2953811e-16 -28.962643)
(281.81377 -3.5732563e-16 -27.822516)
(277.91403 -1.7445197e-17 -26.338261)
(274.06941 -4.1835196e-16 -24.47588)
(270.48467 -3.5997169e-16 -22.274252)
(267.33408 0 -19.81694)
(264.73325 -4.3001271e-16 -17.233406)
(262.71096 -7.4575684e-16 -14.664925)
(261.22411 0 -12.235663)
(260.18966 2.7370282e-17 -10.036943)
(259.50639 6.3062133e-16 -8.129907)
(259.11249 -1.9993964e-15 -6.5372728)
(258.97007 7.486759e-16 -5.2471215)
(258.98266 1.1770343e-15 -4.2187468)
(259.0866 1.6830729e-15 -3.399498)
(259.25649 -1.2531304e-15 -2.7299896)
(259.4623 -2.9204234e-17 -2.1798378)
(259.68318 4.2664087e-17 -1.7288612)
(260.22593 1.0078007e-15 -1.3192399)
(260.8632 -1.4596272e-15 -0.93236319)
(261.16798 -1.0378407e-15 -0.65142963)
(261.25438 1.5198793e-15 -0.47847981)
(261.23539 -1.0948385e-15 -0.37458168)
(261.18326 1.5288405e-15 -0.29607745)
(261.15666 1.7498648e-17 -0.22159937)
(261.14609 -8.2214887e-16 -0.14101256)
(261.22001 1.1837917e-15 -0.065101136)
(261.26402 -8.5696356e-16 -0.0054741209)
(216.27354 -6.56785e-18 -23.301841)
(253.62908 0 -26.591775)
(277.95661 -1.6011275e-17 -29.589769)
(298.47919 -4.3217738e-16 -31.625068)
(306.42515 3.7539848e-16 -33.469971)
(309.46445 -3.0519632e-16 -32.458379)
(307.32237 -2.9572673e-19 -34.046841)
(308.50293 2.1211125e-16 -32.108476)
(307.09068 -2.2166721e-17 -34.180108)
(307.46966 -1.8476119e-17 -32.169726)
(306.39387 -1.2298488e-16 -33.9761)
(306.16817 1.5328049e-16 -32.44029)
(305.16051 -8.4999354e-17 -33.633848)
(304.41686 2.0439119e-19 -32.699628)
(303.23728 -1.1764072e-16 -33.297848)
(301.98401 0 -32.796731)
(300.4099 -8.1491058e-17 -32.972673)
(298.57808 1.6874313e-16 -32.64859)
(296.41276 -2.7868488e-17 -32.52543)
(293.88947 0 -32.139946)
(290.99305 -1.5352091e-16 -31.700452)
(287.71785 2.5211499e-16 -31.013906)
(284.1116 0 -30.093194)
(280.26135 3.1837313e-16 -28.831471)
(276.32372 -1.7708729e-17 -27.199861)
(272.49453 4.7826068e-16 -25.174227)
(268.98454 3.6327408e-16 -22.806839)
(265.96332 1.8291871e-17 -20.196818)
(263.52915 4.4805117e-16 -17.485015)
(261.68536 -2.2755885e-18 -14.817615)
(260.37047 -1.7834023e-17 -12.317425)
(259.49603 1.3761024e-17 -10.071493)
(258.97234 -6.9747245e-16 -8.1367841)
(258.72834 2.0755017e-15 -6.5284797)
(258.69056 1.5542078e-15 -5.2271028)
(258.77647 -1.1624513e-15 -4.1933906)
(258.94014 -8.6375294e-16 -3.3733591)
(259.15451 -1.9916326e-17 -2.705309)
(259.38673 1.4619769e-17 -2.1556727)
(259.65741 -2.1301709e-17 -1.6962162)
(260.28285 -1.0062005e-15 -1.2856746)
(260.89066 1.455079e-15 -0.90507626)
(261.16934 0 -0.64131404)
(261.23673 -2.9764178e-15 -0.47669071)
(261.20961 1.0702778e-15 -0.37554429)
(261.16065 -1.539152e-15 -0.29725511)
(261.13791 0 -0.22171434)
(261.14169 -1.5968547e-15 -0.13942867)
(261.2191 0 -0.06180872)
(261.26426 8.3904644e-16 -0.0030149698)
(216.96127 8.6043314e-16 -24.494033)
(254.39782 0 -27.920433)
(278.73476 8.1422932e-18 -31.08802)
(299.2797 0 -33.183654)
(305.97298 0 -35.00519)
(308.85652 0 -33.861862)
(306.66307 -2.5975206e-16 -35.579555)
(307.85877 -2.9673393e-19 -33.520412)
(306.40604 2.0225381e-16 -35.695101)
(306.78005 3.7386179e-17 -33.60552)
(305.67102 0 -35.463905)
(305.41953 5.1870101e-17 -33.897944)
(304.3773 0 -35.097965)
(303.59025 0 -34.163969)
(302.36396 1.1992463e-16 -34.745567)
(301.05032 -4.9607108e-17 -34.24844)
(299.40936 8.2525377e-17 -34.399637)
(297.49724 0 -34.065639)
(295.24157 -1.1395701e-16 -33.907676)
(292.61724 -1.4140725e-16 -33.486178)
(289.61275 1.1660515e-16 -32.986615)
(286.22933 0 -32.222707)
(282.52563 2.6543109e-17 -31.195774)
(278.60516 -4.3205964e-17 -29.801116)
(274.64191 2.6496149e-16 -28.011405)
(270.84561 2.8413252e-17 -25.814319)
(267.43138 -7.3997746e-16 -23.277284)
(264.55988 0 -20.515655)
(262.30528 -9.6847859e-16 -17.680534)
(260.64488 7.8238995e-16 -14.920922)
(259.50863 -1.7934412e-17 -12.357581)
(258.80964 8.6229684e-16 -10.072925)
(258.45534 4.2575474e-17 -8.1179367)
(258.35141 -4.7382188e-17 -6.4995401)
(258.40862 -1.5353096e-15 -5.1915095)