/*--------------------------------*- C++ -*----------------------------------*\
  =========                 |
  \\      /  F ield         | OpenFOAM: The Open Source CFD Toolbox
   \\    /   O peration     | Website:  https://openfoam.org
    \\  /    A nd           | Version:  8
     \\/     M anipulation  |
\*---------------------------------------------------------------------------*/
FoamFile
{
    version     2.0;
    format      ascii;
    class       volVectorField;
    location    "0.0499991";
    object      wallShearStress;
}
// * * * * * * * * * * * * * * * * * * * * * * * * * * * * * * * * * * * * * //

dimensions      [1 -1 -2 0 0 0 0];

internalField   uniform (0 0 0);

boundaryField
{
    aerofoil
    {
        type            calculated;
        value           nonuniform List<vector> 
300
(
(-131.65725 -4.2236357e-16 7.0576898)
(-132.46355 7.9090336e-23 7.613623)
(-134.47852 9.0314423e-19 8.2766946)
(-136.29863 -1.7642148e-18 8.9502672)
(-138.10659 -2.3430921e-16 9.6471891)
(-139.85235 2.4101732e-16 10.365838)
(-141.56007 2.4590046e-16 11.10746)
(-143.21658 -2.5193317e-16 11.868607)
(-144.8238 -2.8888949e-34 12.653192)
(-146.40405 5.2779572e-16 13.461241)
(-147.95685 -1.9990882e-19 14.294311)
(-149.46938 2.2609716e-18 15.149149)
(-150.94987 -2.2032198e-18 16.030779)
(-152.38121 -4.6161514e-18 16.931921)
(-153.76393 -5.8548343e-16 17.856605)
(-155.08366 4.8094792e-18 18.805514)
(-156.3365 -6.2026376e-16 19.774379)
(-157.51749 -3.1178252e-22 20.765708)
(-158.61159 6.419846e-16 21.775257)
(-159.63123 -1.3109969e-15 22.80788)
(-160.57649 -1.155558e-33 23.865273)
(-161.45216 6.8853436e-16 24.947168)
(-162.27558 6.8651966e-16 26.058814)
(-163.0529 -7.1125097e-16 27.198641)
(-163.80767 5.5645779e-18 28.379089)
(-164.52791 3.7590627e-16 29.593257)
(-165.23651 -5.8894065e-18 30.848386)
(-165.95134 -1.2062512e-17 32.150441)
(-166.63984 -3.8047453e-16 33.494039)
(-167.31274 -9.1696004e-22 34.888152)
(-167.95886 4.0835393e-16 36.335872)
(-168.56194 -1.2873548e-17 37.834861)
(-169.09611 -4.1077476e-16 39.378775)
(-169.53245 0 40.967998)
(-169.90118 4.4054509e-16 42.619758)
(-170.19518 -1.2540234e-17 44.334747)
(-170.416 -4.5743792e-16 46.113111)
(-170.57832 4.8093507e-16 47.96566)
(-170.70773 -1.1335999e-18 49.90261)
(-170.83141 -9.6721177e-16 51.921508)
(-170.86027 -1.5388436e-18 54.011605)
(-170.7747 -5.0183874e-16 56.188512)
(-170.53587 -2.1145417e-17 58.4629)
(-170.08773 5.3565976e-16 60.809845)
(-169.37673 -1.6510679e-17 63.203762)
(-168.38809 3.8615634e-18 65.622597)
(-167.08808 5.5606041e-16 68.109232)
(-165.45562 5.5286632e-16 70.652601)
(-163.46631 -2.2690552e-17 73.253866)
(-161.09602 1.7843986e-17 75.904459)
(-158.33426 5.8397175e-16 78.610848)
(-155.16602 6.0913566e-16 81.378207)
(-151.57551 5.880521e-16 84.198111)
(-147.58058 -7.0164821e-18 87.034532)
(-143.23669 1.4020579e-17 89.831502)
(-138.65123 1.53863e-19 92.511482)
(-133.92901 -6.480267e-16 95.023325)
(-128.90115 -6.6342543e-16 97.277487)
(-123.34646 -1.6962544e-19 99.135036)
(-117.13182 -6.8267812e-16 100.46417)
(-110.20484 3.1677924e-17 101.15118)
(-102.54487 1.3714885e-15 101.07119)
(-94.085744 7.0248946e-16 99.942837)
(-84.71016 7.2051087e-16 97.578217)
(-74.500918 -1.4412325e-15 93.779719)
(-63.588176 -3.8518599e-34 88.141723)
(-52.229179 -1.4449507e-15 80.375255)
(-40.813971 3.5706552e-16 70.237348)
(-29.612056 2.1888951e-17 57.582494)
(-18.565899 -3.4585584e-16 42.557848)
(-9.6543053 3.0865049e-16 25.856563)
(-4.4452702 1.2424858e-19 11.13964)
(-1.5417673 1.3596826e-18 2.2087368)
(-0.98575268 -2.4727487e-18 -1.8228144)
(-1.7639581 2.0636307e-18 -11.320286)
(-3.457651 -3.6426202e-16 -1.0299823)
(-9.6955938 4.8148249e-35 -0.8051909)
(-10.770843 -4.0887782e-16 -0.95466431)
(-13.437255 -4.1985286e-22 -1.1710472)
(-15.546671 4.357146e-22 -1.3365569)
(-17.780057 -4.77205e-16 -1.504665)
(-19.885824 -1.6355417e-19 -1.6553679)
(-21.947106 -5.0713984e-16 -1.7961476)
(-23.924567 -5.1969687e-16 -1.9238888)
(-25.827445 -2.7132108e-20 -2.0407876)
(-27.656024 -5.4082084e-16 -2.1464446)
(-29.415752 -1.5157116e-20 -2.2416346)
(-31.118147 5.3171226e-22 -2.3277756)
(-32.778139 1.8909118e-19 -2.4064618)
(-34.398224 5.734908e-16 -2.4776898)
(-35.97467 -1.1043644e-21 -2.5421577)
(-37.514876 -2.0236719e-19 -2.6000148)
(-39.02282 -2.9644318e-16 -2.6514609)
(-40.500224 -2.1136064e-19 -2.6974472)
(-41.948895 -6.032262e-16 -2.7378202)
(-43.369357 -7.7400882e-22 -2.7731739)
(-44.764618 -1.8938269e-25 -2.8031807)
(-46.137411 -6.1791273e-16 -2.8287525)
(-47.498779 3.1099677e-16 -2.8493791)
(-48.851867 -6.2686122e-16 -2.8663975)
(-50.199073 -8.8886181e-33 -2.8790229)
(-51.538666 -6.3485887e-16 -2.8882321)
(-52.875035 -3.1940523e-16 -2.8928632)
(-54.206342 3.2132148e-16 -2.8938911)
(-55.536021 1.2346283e-21 -2.8903436)
(-56.858878 -3.2479115e-16 -2.882558)
(-58.178553 2.2668646e-21 -2.8715343)
(-59.500441 3.2857359e-16 -2.8553768)
(-60.820812 -9.8479806e-20 -2.834689)
(-62.146274 -3.3221454e-16 -2.8095661)
(-63.480819 2.5488729e-21 -2.7803853)
(-64.825681 0 -2.7465114)
(-66.178898 6.7370978e-16 -2.7077613)
(-67.540675 3.384547e-16 -2.6635411)
(-68.910945 3.3990902e-16 -2.614443)
(-70.292703 3.4147927e-16 -2.5596036)
(-71.68133 -3.4304336e-16 -2.4986421)
(-73.076184 7.4108666e-20 -2.4312038)
(-74.479736 2.6377185e-21 -2.3576225)
(-75.899264 1.7371905e-16 -2.2765478)
(-77.337197 1.3307621e-19 -2.188542)
(-78.796253 1.7570204e-16 -2.0929824)
(-80.26724 1.4061278e-19 -1.9894706)
(-81.745761 -1.7730902e-16 -1.8781756)
(-83.239056 9.3871702e-20 -1.7594843)
(-84.755697 -1.4253688e-19 -1.6313545)
(-86.289862 4.3362403e-20 -1.4925782)
(-87.838382 1.0571713e-19 -1.3440834)
(-89.40846 -1.8135582e-16 -1.1840688)
(-91.003157 1.8185999e-16 -1.0115747)
(-92.624616 -1.2230423e-19 -0.8272987)
(-94.275293 5.5981938e-21 -0.63005179)
(-95.95752 -2.7905216e-25 -0.41897891)
(-97.667521 9.2085118e-17 -0.19398701)
(-99.399678 9.254817e-17 0.042713105)
(-101.15171 4.6563545e-17 0.2888731)
(-102.91443 -1.1922511e-25 0.55511398)
(-104.69212 -4.6763384e-17 0.86889413)
(-106.48401 -7.599304e-20 1.1887222)
(-108.29008 1.4048866e-18 1.5362342)
(-110.1214 2.3714764e-17 1.9126655)
(-111.98401 -4.7318456e-17 2.2979103)
(-113.87971 9.5200221e-17 2.6921315)
(-115.79982 -9.5431027e-17 3.116638)
(-117.75383 3.0092655e-36 3.5708755)
(-119.74084 -1.1714285e-20 4.056123)
(-121.75911 -1.9293372e-16 4.5727425)
(-123.80312 -3.3585988e-20 5.1248066)
(-125.89306 -5.1610068e-21 5.7182102)
(-129.23387 -1.944688e-16 6.4131443)
(-159.31901 1.5707492e-19 7.3481425)
(-160.84568 -1.6458693e-16 6.7784798)
(-161.09336 -8.4119095e-17 6.1358937)
(-161.40853 1.5648181e-34 5.4880556)
(-161.71762 -4.9081085e-20 4.841262)
(-162.04958 -4.3694531e-17 4.1829949)
(-162.3828 -2.9891468e-18 3.4437181)
(-162.74261 2.5128749e-17 2.6798899)
(-163.11826 4.0625085e-35 1.9220349)
(-163.50634 4.6238723e-18 1.1334245)
(-163.90044 2.8179094e-17 0.32713373)
(-164.31329 5.0080645e-17 -0.3958334)
(-164.73149 1.8684836e-19 -1.1579309)
(-165.14759 3.2228177e-18 -1.9421907)
(-165.57956 -1.1321103e-16 -2.748438)
(-166.01922 -3.3118911e-18 -3.5754948)
(-166.44902 3.5712449e-18 -4.4212789)
(-166.8877 2.8078982e-22 -5.2888792)
(-167.32425 -2.9519183e-19 -6.1769878)
(-167.77238 0 -7.0972842)
(-168.22929 1.2445058e-16 -8.0459105)
(-168.68188 3.9919339e-18 -9.0178582)
(-169.13641 3.1138143e-20 -10.015092)
(-169.57578 -4.1168855e-18 -11.035222)
(-170.03733 -2.7365551e-16 -12.08982)
(-170.49501 2.7904872e-16 -13.171897)
(-170.95277 7.7037198e-34 -14.284872)
(-171.40978 -2.8563781e-16 -15.433742)
(-171.8524 2.9132425e-16 -16.616226)
(-172.28836 2.8768522e-16 -17.838831)
(-172.69436 9.427086e-18 -19.099892)
(-173.06028 0 -20.40181)
(-173.39885 -9.8582516e-18 -21.74966)
(-173.72721 3.4077848e-16 -23.150761)
(-174.06387 -9.93914e-18 -24.615294)
(-174.41628 3.2251749e-16 -26.146543)
(-174.78234 3.5057313e-16 -27.746201)
(-175.17801 -3.8518599e-34 -29.424705)
(-175.61659 1.1340472e-18 -31.194634)
(-176.11731 7.1937068e-16 -33.065621)
(-176.66667 3.6859297e-16 -35.044302)
(-177.23653 -4.2936143e-20 -37.142223)
(-177.80389 -3.9055707e-16 -39.36958)
(-178.34569 1.2160172e-17 -41.723029)
(-178.77939 -3.8487709e-16 -44.194452)
(-179.1107 3.9257647e-16 -46.824789)
(-179.34051 2.4647688e-18 -49.627304)
(-179.46658 4.2139165e-16 -52.62208)
(-179.47374 4.3239427e-16 -55.798617)
(-179.30784 -4.374385e-16 -59.14606)
(-178.90659 4.3165487e-16 -62.676886)
(-178.1188 1.3147775e-17 -66.38841)
(-176.81392 4.7208682e-16 -70.278796)
(-174.85874 -1.3609271e-17 -74.366053)
(-172.14618 -6.9489414e-18 -78.740341)
(-168.63375 -2.3549193e-19 -83.480764)
(-164.21897 4.7803705e-16 -88.563927)
(-158.82713 4.2360839e-17 -93.99721)
(-152.65281 4.9380958e-16 -100.00591)
(-146.02556 1.6504134e-18 -106.60425)
(-140.1092 5.1844202e-16 -113.75431)
(-135.59118 4.2683716e-18 -121.15064)
(-131.47192 1.7623997e-17 -128.51419)
(-126.63762 -3.5758472e-17 -135.34411)
(-120.18874 -5.6902093e-16 -141.0362)
(-111.78076 -5.8326052e-16 -144.95502)
(-101.51193 0 -146.72862)
(-89.080013 1.540744e-33 -145.4355)
(-74.714614 -3.2129853e-16 -140.2405)
(-59.165248 -4.0275167e-18 -130.60361)
(-43.363391 3.3821821e-16 -116.10818)
(-28.538748 -3.3181748e-16 -97.009112)
(-16.407021 1.6339929e-16 -74.572835)
(-8.400457 1.6111079e-16 -50.352117)
(-3.7503245 -7.4579472e-17 -26.672936)
(-84.790404 2.3310844e-15 14.406026)
(-81.35312 1.8335903e-15 15.934264)
(-84.476011 5.469302e-19 16.448558)
(-87.565737 -9.1455493e-16 16.867356)
(-89.793236 9.1427976e-16 17.123156)
(-91.662633 9.1263652e-16 17.310222)
(-93.153694 9.116171e-16 17.426787)
(-94.401453 1.8189074e-15 17.499063)
(-95.410215 1.5377126e-20 17.527947)
(-96.248692 -9.034987e-16 17.527236)
(-96.925481 -6.3617898e-19 17.494439)
(-97.478547 8.9841688e-16 17.441602)
(-97.916955 -3.382983e-27 17.370254)
(-98.270222 -8.9041156e-16 17.285827)
(-98.549899 -8.8728224e-16 17.188743)
(-98.770576 1.68095e-21 17.08325)
(-98.940573 -4.0513422e-20 16.970263)
(-99.060722 -8.7463711e-16 16.84937)
(-99.127649 -5.0374044e-26 16.721575)
(-99.149132 5.5197811e-20 16.586915)
(-99.124445 -1.644627e-21 16.446439)
(-99.059761 8.0796128e-21 16.299506)
(-98.949695 -8.1284517e-22 16.147099)
(-98.801013 -8.4555552e-16 15.988808)
(-98.607562 0 15.825108)
(-98.378541 -7.9611207e-22 15.655275)
(-98.10769 4.624325e-19 15.480591)
(-97.803313 -8.2686696e-16 15.299966)
(-97.455724 0 15.114078)
(-97.077343 -8.1777696e-16 14.922912)
(-96.662621 1.1812022e-19 14.726553)
(-96.220738 -1.1500562e-25 14.527825)
(-95.74554 1.1398697e-25 14.322797)
(-95.2264 -4.1513126e-19 14.111291)
(-94.658991 -1.3376588e-19 13.893271)
(-94.042627 7.8786584e-16 13.668748)
(-93.372679 -7.8322556e-16 13.436563)
(-92.645042 1.2936423e-25 13.196321)
(-91.854912 -1.3793092e-25 12.94721)
(-90.997928 -3.6826847e-19 12.689386)
(-90.062592 -7.8721314e-20 12.42066)
(-89.021891 8.0432619e-20 12.138298)
(-87.848974 1.6798455e-19 11.840205)
(-86.532068 4.3150222e-24 11.525541)
(-85.060206 -2.4264966e-19 11.193429)
(-83.440095 8.3599085e-20 10.846197)
(-81.700918 1.4926589e-19 10.487505)
(-79.894188 8.5462061e-20 10.123493)
(-78.071628 8.546593e-20 9.7586492)
(-76.215615 -6.9848057e-16 9.3884798)
(-74.11337 6.8940296e-16 8.989165)
(-71.213316 -8.4519681e-21 8.5116823)
(-67.065848 -2.8806733e-21 7.9084246)
(-61.605726 -1.0621029e-19 7.1820897)
(-54.71743 -6.2290558e-16 6.3429)
(-46.955398 0 5.4167248)
(-39.321294 -5.5732171e-16 4.5209536)
(-32.955406 -5.1973242e-16 3.7728161)
(-31.814642 -5.0413392e-16 3.4898634)
(-42.845436 -5.2927557e-16 4.3410332)
(-67.804826 2.3566487e-20 6.4215783)
(-99.032291 4.3791183e-21 9.1004686)
(-126.24578 -3.0136042e-16 11.361493)
(-143.68374 -1.0231491e-19 12.590397)
(-152.0364 -1.0268676e-19 12.975648)
(-156.07536 1.1603879e-19 12.886213)
(-157.87914 -2.97374e-16 12.557913)
(-158.81972 5.9398551e-16 12.123784)
(-159.35628 2.9681571e-16 11.634173)
(-159.75785 -9.058281e-21 11.108106)
(-160.10796 -2.970459e-16 10.559205)
(-160.34877 -4.5059071e-20 9.9809659)
(-160.56879 2.9772557e-16 9.3772778)
(-160.77808 1.7440032e-21 8.7519351)
(-159.42676 9.0796533e-21 8.0102237)
)
;
    }
    inlet
    {
        type            calculated;
        value           uniform (0 0 0);
    }
    outlet
    {
        type            calculated;
        value           uniform (0 0 0);
    }
    back
    {
        type            empty;
    }
    front
    {
        type            empty;
    }
}


// ************************************************************************* //
