/*--------------------------------*- C++ -*----------------------------------*\
  =========                 |
  \\      /  F ield         | OpenFOAM: The Open Source CFD Toolbox
   \\    /   O peration     | Website:  https://openfoam.org
    \\  /    A nd           | Version:  8
     \\/     M anipulation  |
\*---------------------------------------------------------------------------*/
FoamFile
{
    version     2.0;
    format      ascii;
    class       volScalarField;
    location    "0.0499991";
    object      yPlus;
}
// * * * * * * * * * * * * * * * * * * * * * * * * * * * * * * * * * * * * * //

dimensions      [0 0 0 0 0 0 0];

internalField   uniform 0;

boundaryField
{
    aerofoil
    {
        type            calculated;
        value           nonuniform List<scalar> 
300
(
131.83161
131.56831
131.59093
131.52999
131.51021
131.48545
131.47866
131.47951
131.48819
131.51118
131.5575
131.61373
131.69246
131.77896
131.87698
131.98299
132.09046
132.20164
132.30526
132.40786
132.5111
132.61408
132.72994
132.8513
133.00081
133.16605
133.35593
133.58242
133.82563
134.0921
134.37979
134.68245
134.98784
135.28001
135.5743
135.87233
136.17032
136.47401
136.79889
137.15964
137.51592
137.86516
138.19118
138.4895
138.72116
138.88847
138.98375
139.00916
138.96679
138.84791
138.65866
138.41646
138.12629
137.80293
137.47666
137.18837
136.97853
136.82158
136.58034
136.20476
135.60896
134.77319
133.59035
131.85267
129.43407
126.04745
121.30658
114.6804
105.29109
91.74262
72.582075
48.661343
22.744244
19.3861
48.279788
26.648715
40.02791
42.051279
46.884515
50.306057
53.685356
56.654362
59.397592
61.894875
64.186864
66.299176
68.255355
70.082493
71.806419
73.440314
74.98554
76.455287
77.858461
79.200843
80.488087
81.723149
82.912492
84.058864
85.174954
86.263521
87.329378
88.3705
89.393002
90.394307
91.379717
92.345028
93.292588
94.228771
95.150239
96.062046
96.966927
97.866045
98.758527
99.644902
100.52415
101.39967
102.26834
103.12957
103.98471
104.83904
105.69275
106.54834
107.40008
108.24512
109.08799
109.93489
110.7829
111.62811
112.47529
113.32589
114.18067
115.04117
115.90897
116.783
117.65926
118.53752
119.41067
120.28226
121.14993
122.01482
122.88405
123.76009
124.6465
125.53697
126.43815
127.34959
128.27037
129.19999
130.13837
131.23234
123.34728
122.8844
122.2851
121.76241
121.26644
120.82026
120.4054
120.03329
119.69743
119.40065
119.13423
118.90069
118.7021
118.52823
118.38779
118.27993
118.19063
118.13069
118.09003
118.07609
118.08927
118.12136
118.17971
118.24589
118.34485
118.46099
118.59344
118.74822
118.91252
119.09604
119.28938
119.48795
119.69349
119.91133
120.15416
120.42901
120.73159
121.06701
121.44385
121.87383
122.3492
122.86617
123.41838
124.01752
124.60959
125.21657
125.83319
126.4754
127.14879
127.83339
128.51573
129.16213
129.73438
130.20233
130.5796
130.91441
131.1935
131.45385
131.82784
132.5229
134.009
136.55233
139.84733
143.48857
147.07463
150.25082
152.9749
154.66916
154.73086
152.53669
147.04199
137.25862
122.45822
101.68686
74.153862
103.96235
114.89055
116.66305
118.44268
119.54596
120.45437
121.09697
121.60831
121.96492
122.23272
122.39965
122.5042
122.54152
122.53564
122.49063
122.4165
122.31584
122.19114
122.03689
121.86027
121.65721
121.43483
121.18504
120.91762
120.62221
120.30958
119.97008
119.61549
119.23288
118.83519
118.4127
117.97461
117.51666
117.03332
116.52
115.97771
115.40244
114.79221
114.14236
113.44975
112.70867
111.9039
111.01488
110.03727
108.95841
107.77877
106.50705
105.16496
103.78052
102.34273
100.73496
98.650784
95.696748
91.736777
86.541079
80.161138
73.312645
66.908672
65.120016
73.743751
89.091245
102.94401
112.28061
117.92318
120.25516
121.50569
122.03509
122.36051
122.57165
122.75391
122.95845
123.1395
123.33178
123.5267
123.58885
)
;
    }
    inlet
    {
        type            calculated;
        value           uniform 0;
    }
    outlet
    {
        type            calculated;
        value           uniform 0;
    }
    back
    {
        type            empty;
    }
    front
    {
        type            empty;
    }
}


// ************************************************************************* //
