/*--------------------------------*- C++ -*----------------------------------*\
  =========                 |
  \\      /  F ield         | OpenFOAM: The Open Source CFD Toolbox
   \\    /   O peration     | Website:  https://openfoam.org
    \\  /    A nd           | Version:  8
     \\/     M anipulation  |
\*---------------------------------------------------------------------------*/
FoamFile
{
    version     2.0;
    format      ascii;
    class       volScalarField;
    location    "0.120004";
    object      alphat;
}
// * * * * * * * * * * * * * * * * * * * * * * * * * * * * * * * * * * * * * //

dimensions      [1 -1 -1 0 0 0 0];

internalField   nonuniform List<scalar> 
20000
(
0.00094569517
0.0024014251
0.0032807781
0.003674825
0.0034738864
0.0024499655
0.00058621122
1.1573893e-07
1.9084409e-09
1.8968824e-09
1.8321613e-09
1.8518265e-09
1.8251664e-09
1.8552973e-09
1.857764e-09
1.8939956e-09
1.9194808e-09
1.9678541e-09
2.0172076e-09
2.089151e-09
2.1724214e-09
2.2839416e-09
2.4200547e-09
2.5964528e-09
2.8160663e-09
3.0940939e-09
3.4367815e-09
3.8522746e-09
4.3347246e-09
4.8679447e-09
5.4194417e-09
5.9528591e-09
6.4383713e-09
6.8616139e-09
7.2173727e-09
7.509823e-09
7.7441651e-09
7.9311171e-09
8.0791942e-09
8.1970932e-09
8.2888412e-09
8.3606553e-09
8.415189e-09
8.4540999e-09
8.4931927e-09
8.5534815e-09
8.6138946e-09
8.6394182e-09
8.6470502e-09
8.6833061e-09
0.00095122694
0.0023954534
0.0032464506
0.0036092448
0.003372074
0.0022897156
0.00048596288
4.4940165e-08
1.9129428e-09
1.9091033e-09
1.8439759e-09
1.8646582e-09
1.8383885e-09
1.8697605e-09
1.8728541e-09
1.910706e-09
1.9375563e-09
1.988051e-09
2.0397174e-09
2.1146606e-09
2.2014772e-09
2.3173858e-09
2.4588184e-09
2.6414886e-09
2.8683381e-09
3.1538399e-09
3.5029301e-09
3.9213167e-09
4.4012638e-09
4.9263121e-09
5.4663269e-09
5.9884524e-09
6.465024e-09
6.8815013e-09
7.2322889e-09
7.5207702e-09
7.7520197e-09
7.9368134e-09
8.0837079e-09
8.200701e-09
8.2917488e-09
8.36312e-09
8.4171644e-09
8.4552011e-09
8.4953166e-09
8.5610567e-09
8.6135925e-09
8.6404114e-09
8.6477919e-09
8.683171e-09
0.00094854359
0.0023766614
0.0032056029
0.0035424107
0.0032728383
0.0021294595
0.00039502106
1.9814264e-08
1.9205624e-09
1.9221718e-09
1.8570925e-09
1.8790369e-09
1.8531434e-09
1.8856573e-09
1.8895169e-09
1.9289427e-09
1.957279e-09
2.0099415e-09
2.0640651e-09
2.1422277e-09
2.2329191e-09
2.3536636e-09
2.5009927e-09
2.6907115e-09
2.9257711e-09
3.2199793e-09
3.576902e-09
3.9996838e-09
4.4781702e-09
4.9951438e-09
5.5229695e-09
6.0321373e-09
6.4972909e-09
6.9048165e-09
7.2489011e-09
7.5324049e-09
7.7601181e-09
7.9424613e-09
8.0878983e-09
8.203844e-09
8.2941792e-09
8.3650649e-09
8.4184173e-09
8.4559515e-09
8.4978654e-09
8.5694129e-09
8.6184517e-09
8.6409554e-09
8.6534019e-09
8.6805025e-09
0.00094657007
0.0023596342
0.0031657791
0.0034764651
0.0031746496
0.0019650417
0.00031259539
1.0100036e-08
1.9314017e-09
1.9367142e-09
1.8716408e-09
1.8946796e-09
1.8692191e-09
1.902935e-09
1.9076243e-09
1.9486979e-09
1.9786131e-09
2.0335611e-09
2.0902899e-09
2.1718245e-09
2.2665841e-09
2.3924178e-09
2.5460094e-09
2.7433104e-09
2.9872877e-09
3.2911372e-09
3.6570238e-09
4.0856569e-09
4.5645328e-09
5.0753704e-09
5.5919259e-09
6.0877323e-09
6.5401917e-09
6.9370187e-09
7.2726605e-09
7.5496026e-09
7.7723972e-09
7.9512693e-09
8.0944947e-09
8.2088272e-09
8.2980478e-09
8.368164e-09
8.4204887e-09
8.457417e-09
8.5026082e-09
8.5756784e-09
8.6200434e-09
8.6423525e-09
8.6552514e-09
8.6795544e-09
0.000944648
0.0023428657
0.0031261701
0.0034101739
0.0030765402
0.0017969033
0.00023739616
6.0019127e-09
1.9442955e-09
1.9522869e-09
1.8874767e-09
1.911653e-09
1.8867133e-09
1.9216772e-09
1.9272944e-09
1.970084e-09
2.0017069e-09
2.059082e-09
2.1186236e-09
2.2037794e-09
2.3029527e-09
2.4343179e-09
2.5947513e-09
2.8003465e-09
3.0540993e-09
3.3685164e-09
3.744262e-09
4.1794904e-09
4.659302e-09
5.1643132e-09
5.6695582e-09
6.151331e-09
6.5898404e-09
6.9745496e-09
7.3004007e-09
7.569714e-09
7.7867945e-09
7.9615929e-09
8.1021252e-09
8.2145044e-09
8.3024003e-09
8.3716069e-09
8.4227429e-09
8.4591964e-09
8.5090798e-09
8.5810088e-09
8.6226949e-09
8.6436708e-09
8.6572689e-09
8.6784767e-09
0.0009429646
0.0023265962
0.0030868603
0.0033434542
0.0029784661
0.0016275279
0.00016880006
4.1270496e-09
1.9591552e-09
1.9691501e-09
1.904632e-09
1.9299342e-09
1.905574e-09
1.9418251e-09
1.9484722e-09
1.9930632e-09
2.0265413e-09
2.0865009e-09
2.149063e-09
2.2380861e-09
2.3420084e-09
2.4793391e-09
2.6471841e-09
2.8617789e-09
3.1261493e-09
3.4520114e-09
3.8383814e-09
4.2808145e-09
4.7620831e-09
5.2616951e-09
5.7557095e-09
6.2230094e-09
6.6466579e-09
7.0180634e-09
7.3329105e-09
7.5935085e-09
7.8039707e-09
7.9739985e-09
8.1112938e-09
8.2213134e-09
8.3076015e-09
8.3756784e-09
8.4253038e-09
8.4615073e-09
8.5167309e-09
8.5857375e-09
8.6249752e-09
8.644964e-09
8.658158e-09
8.6776653e-09
0.00094170851
0.0023108998
0.0030475603
0.0032755024
0.0028793492
0.0014627079
0.00010776096
3.2060476e-09
1.9754663e-09
1.98709e-09
1.9229972e-09
1.9494605e-09
1.9257789e-09
1.9633801e-09
1.971175e-09
2.0176654e-09
2.0531525e-09
2.1158616e-09
2.1816714e-09
2.274844e-09
2.383911e-09
2.5277131e-09
2.7036161e-09
2.9279889e-09
3.2038566e-09
3.5419963e-09
3.939588e-09
4.3894841e-09
4.8722003e-09
5.3662756e-09
5.8488136e-09
6.3011504e-09
6.70916e-09
7.066323e-09
7.3691991e-09
7.620225e-09
7.8233652e-09
7.9880638e-09
8.1216693e-09
8.2289951e-09
8.3134384e-09
8.3801739e-09
8.427968e-09
8.464245e-09
8.5249239e-09
8.5905062e-09
8.6274865e-09
8.6461262e-09
8.6587453e-09
8.6768929e-09
0.00094053512
0.002295846
0.0030086617
0.0032060461
0.0027785849
0.0013031506
5.8456935e-05
2.7315885e-09
1.9931906e-09
2.0061834e-09
1.9426013e-09
1.9702391e-09
1.947322e-09
1.9863291e-09
1.9953978e-09
2.0438876e-09
2.0815473e-09
2.1471747e-09
2.216469e-09
2.3140965e-09
2.4287335e-09
2.5795417e-09
2.7641798e-09
2.9991391e-09
3.2873916e-09
3.6385885e-09
4.0478611e-09
4.5052828e-09
4.9892295e-09
5.4774509e-09
5.9481473e-09
6.3850437e-09
6.7767753e-09
7.1189305e-09
7.40903e-09
7.6497354e-09
7.8449151e-09
8.0037698e-09
8.1332618e-09
8.237577e-09
8.3199411e-09
8.3850951e-09
8.4307734e-09
8.4674656e-09
8.5333897e-09
8.5953369e-09
8.629959e-09
8.6472102e-09
8.659012e-09
8.6761688e-09
0.00093946298
0.0022814589
0.0029705096
0.0031355518
0.0026755496
0.0011497404
2.6019958e-05
2.4823705e-09
2.012144e-09
2.0263612e-09
1.9634055e-09
1.9922449e-09
1.9701972e-09
2.0106805e-09
2.0211573e-09
2.0717539e-09
2.1117462e-09
2.180472e-09
2.2535167e-09
2.355943e-09
2.4766199e-09
2.6350155e-09
2.8291165e-09
3.0755169e-09
3.3770494e-09
3.7420093e-09
4.1632518e-09
4.6280027e-09
5.112653e-09
5.5944125e-09
6.0527246e-09
6.4736713e-09
6.848582e-09
7.1751323e-09
7.451826e-09
7.681617e-09
7.8683213e-09
8.0209059e-09
8.1459213e-09
8.246953e-09
8.3270323e-09
8.3903767e-09
8.4337913e-09
8.47126e-09
8.5419303e-09
8.6002186e-09
8.6324538e-09
8.6482344e-09
8.6591537e-09
8.6754453e-09
0.00093870834
0.0022678625
0.0029332199
0.0030686179
0.0025678695
0.0010032822
9.6908253e-06
2.3536677e-09
2.0323252e-09
2.0476524e-09
1.9854242e-09
2.015486e-09
1.9944152e-09
2.036445e-09
2.0484704e-09
2.1012757e-09
2.1437711e-09
2.2157917e-09
2.2928834e-09
2.4004899e-09
2.527713e-09
2.6943152e-09
2.8986511e-09
3.1573866e-09
3.4730896e-09
3.8524317e-09
4.2857617e-09
4.7574228e-09
5.2420269e-09
5.7165274e-09
6.1617914e-09
6.5662618e-09
6.9238844e-09
7.2343632e-09
7.4971634e-09
7.7155654e-09
7.8933719e-09
8.0393289e-09
8.1595549e-09
8.2570625e-09
8.3346686e-09
8.3959973e-09
8.437154e-09
8.4758384e-09
8.5503731e-09
8.6050469e-09
8.63489e-09
8.6492082e-09
8.6592327e-09
8.6747129e-09
0.00093833321
0.0022548052
0.0028964367
0.0029978712
0.0024536499
0.00086506865
3.2041938e-06
2.2913836e-09
2.0536621e-09
2.0700289e-09
2.0086443e-09
2.0399672e-09
2.0199922e-09
2.063643e-09
2.0773514e-09
2.1324715e-09
2.1776509e-09
2.2531964e-09
2.334673e-09
2.4478792e-09
2.5821945e-09
2.7576673e-09
2.973062e-09
3.2450664e-09
3.5758132e-09
3.9700455e-09
4.4153806e-09
4.8932918e-09
5.3768616e-09
5.843116e-09
6.2745573e-09
6.6620107e-09
7.0019464e-09
7.2960086e-09
7.5445623e-09
7.7512231e-09
7.919809e-09
8.0588568e-09
8.1740377e-09
8.2678172e-09
8.3427736e-09
8.4018939e-09
8.4408801e-09
8.4814766e-09
8.5585486e-09
8.6097489e-09
8.6372431e-09
8.6501224e-09
8.6592832e-09
8.6739479e-09
0.00093813639
0.0022417707
0.0028602721
0.0029262727
0.002332669
0.00073652382
1.0050305e-06
2.266594e-09
2.0761726e-09
2.09353e-09
2.033103e-09
2.0657208e-09
2.0469491e-09
2.0922856e-09
2.1078068e-09
2.1653587e-09
2.2134373e-09
2.2927742e-09
2.3790073e-09
2.4982658e-09
2.6402571e-09
2.8253133e-09
3.0526471e-09
3.3388894e-09
3.6855196e-09
4.0950182e-09
4.5520651e-09
5.0353342e-09
5.5166774e-09
5.9735542e-09
6.3903218e-09
6.7602132e-09
7.0821233e-09
7.3595266e-09
7.5935947e-09
7.7882663e-09
7.9473954e-09
8.0793196e-09
8.1892545e-09
8.2791358e-09
8.3512705e-09
8.4079685e-09
8.4450795e-09
8.4884706e-09
8.5662646e-09
8.6142787e-09
8.6394907e-09
8.6509365e-09
8.6591928e-09
8.6731257e-09
0.00093820722
0.0022286163
0.002821421
0.0028524024
0.0022042488
0.00061885502
3.155777e-07
2.2632309e-09
2.0998795e-09
2.1181604e-09
2.0588101e-09
2.0927476e-09
2.0752908e-09
2.1223695e-09
2.1398512e-09
2.1999798e-09
2.2512137e-09
2.3346436e-09
2.4260365e-09
2.5518318e-09
2.7021262e-09
2.8975353e-09
3.13775e-09
3.4392272e-09
3.8025223e-09
4.2275006e-09
4.6957337e-09
5.1832258e-09
5.6609559e-09
6.1071994e-09
6.5083884e-09
6.8601808e-09
7.1637886e-09
7.4243862e-09
7.6438353e-09
7.8263682e-09
7.9758879e-09
8.10054e-09
8.205083e-09
8.2909317e-09
8.3600813e-09
8.4141356e-09
8.4498198e-09
8.4969146e-09
8.5734222e-09
8.6186432e-09
8.6416379e-09
8.6516049e-09
8.6589379e-09
8.6722409e-09
0.00093855567
0.0022156553
0.0027827136
0.0027780899
0.0020685982
0.00051562831
1.0547824e-07
2.2724329e-09
2.1247685e-09
2.1439435e-09
2.0857673e-09
2.1210518e-09
2.1050031e-09
2.1539035e-09
2.1735177e-09
2.2364172e-09
2.2910901e-09
2.3789386e-09
2.475917e-09
2.6087677e-09
2.7680423e-09
2.9746384e-09
3.2287392e-09
3.5464665e-09
3.9271255e-09
4.3676069e-09
4.8462537e-09
5.3365993e-09
5.8091653e-09
6.2434314e-09
6.6281104e-09
6.961288e-09
7.246378e-09
7.4901082e-09
7.6948969e-09
7.8652266e-09
8.0050575e-09
8.1223476e-09
8.2214042e-09
8.3031201e-09
8.3691382e-09
8.4204103e-09
8.455118e-09
8.5063947e-09
8.5802701e-09
8.6228882e-09
8.6436772e-09
8.6521596e-09
8.6585591e-09
8.6713069e-09
0.00093906054
0.0022025446
0.0027432907
0.0027026163
0.0019257181
0.00041901066
3.876674e-08
2.2891313e-09
2.1508647e-09
2.1708655e-09
2.1139568e-09
2.1506012e-09
2.1360902e-09
2.1869207e-09
2.208894e-09
2.2747793e-09
2.3332004e-09
2.4258087e-09
2.5288258e-09
2.6692945e-09
2.8382862e-09
3.0569762e-09
3.3260311e-09
3.6610216e-09
4.0596282e-09
4.5154126e-09
5.0034334e-09
5.4950325e-09
5.960737e-09
6.3816159e-09
6.7488495e-09
7.0629322e-09
7.3293542e-09
7.5562381e-09
7.7464095e-09
7.9045501e-09
8.0346811e-09
8.1445737e-09
8.2380975e-09
8.3156144e-09
8.3783707e-09
8.4267437e-09
8.4609297e-09
8.5164496e-09
8.5870731e-09
8.6270402e-09
8.6456443e-09
8.652647e-09
8.6581071e-09
8.6703458e-09
0.00093972949
0.0021890687
0.0027026527
0.0026225595
0.0017764052
0.00033043783
1.6549324e-08
2.3105104e-09
2.1780958e-09
2.1988735e-09
2.1433466e-09
2.1814028e-09
2.1685984e-09
2.221523e-09
2.2460963e-09
2.3152039e-09
2.3776793e-09
2.4754024e-09
2.5849472e-09
2.7336513e-09
2.9131669e-09
3.1449344e-09
3.4300672e-09
3.7833089e-09
4.200297e-09
4.6709329e-09
5.1670122e-09
5.6580539e-09
6.115083e-09
6.5211333e-09
6.8700057e-09
7.1645626e-09
7.4122347e-09
7.6223699e-09
7.7980409e-09
7.9440726e-09
8.0645516e-09
8.1670595e-09
8.2550466e-09
8.3283305e-09
8.3877063e-09
8.4330784e-09
8.4671912e-09
8.526947e-09
8.5938444e-09
8.6310441e-09
8.6475522e-09
8.6530612e-09
8.6576356e-09
8.6693655e-09
0.00094044151
0.002174766
0.0026605971
0.0025385925
0.0016226167
0.00024926386
8.4858261e-09
2.334911e-09
2.2064005e-09
2.227965e-09
2.1739699e-09
2.2135457e-09
2.2026549e-09
2.2578429e-09
2.2852582e-09
2.3578057e-09
2.4246564e-09
2.5278833e-09
2.6444959e-09
2.8021189e-09
2.9930418e-09
3.2389502e-09
3.5413307e-09
3.913757e-09
4.349369e-09
4.8341216e-09
5.3366621e-09
5.8251369e-09
6.2715849e-09
6.6613573e-09
6.9909923e-09
7.2656541e-09
7.4945676e-09
7.6881268e-09
7.8494814e-09
7.983544e-09
8.0944725e-09
8.1896537e-09
8.272137e-09
8.341181e-09
8.3970698e-09
8.4393481e-09
8.4738854e-09
8.5378514e-09
8.6005245e-09
8.6347971e-09
8.6492994e-09
8.6534208e-09
8.6571649e-09
8.6683772e-09
0.00094119898
0.0021595263
0.0026158202
0.0024539546
0.0014661508
0.00017451876
5.2485272e-09
2.3614875e-09
2.2358624e-09
2.2582375e-09
2.2059652e-09
2.2471909e-09
2.2384017e-09
2.2960047e-09
2.3264764e-09
2.4027004e-09
2.4742693e-09
2.5834342e-09
2.7077118e-09
2.8750078e-09
3.0783002e-09
3.339493e-09
3.6603226e-09
4.0527781e-09
4.507024e-09
5.0048479e-09
5.5119735e-09
5.9956997e-09
6.4296023e-09
6.8016732e-09
7.1112585e-09
7.3657302e-09
7.5759527e-09
7.7531791e-09
7.9004581e-09
8.0227395e-09
8.1242646e-09
8.2122175e-09
8.2892614e-09
8.3540791e-09
8.4063913e-09
8.4455026e-09
8.4810737e-09
8.5490571e-09
8.6070637e-09
8.6382002e-09
8.6508083e-09
8.6537593e-09
8.6567127e-09
8.6673838e-09
0.0009419979
0.0021438358
0.0025662735
0.0023677234
0.0013088793
0.00010735967
3.8241717e-09
2.3896932e-09
2.2666136e-09
2.2898874e-09
2.2395072e-09
2.2824809e-09
2.2759387e-09
2.3360787e-09
2.369838e-09
2.4499951e-09
2.5266746e-09
2.6422681e-09
2.7748756e-09
2.9526741e-09
3.1693831e-09
3.4470851e-09
3.787576e-09
4.2007734e-09
4.673388e-09
5.1829061e-09
5.692468e-09
6.1691127e-09
6.588474e-09
6.941467e-09
7.2302721e-09
7.4643439e-09
7.6560223e-09
7.8172261e-09
7.950721e-09
8.0614515e-09
8.1537607e-09
8.2346219e-09
8.3063178e-09
8.3669371e-09
8.4156125e-09
8.4517453e-09
8.4889028e-09
8.5602977e-09
8.6134217e-09
8.6412397e-09
8.6520142e-09
8.6540351e-09
8.6562932e-09
8.6663779e-09
0.00094296566
0.0021288958
0.002521139
0.0022781837
0.001152915
5.3664426e-05
3.1561597e-09
2.4194195e-09
2.2989168e-09
2.3231039e-09
2.2747033e-09
2.319457e-09
2.3152909e-09
2.3781228e-09
2.4154359e-09
2.4998374e-09
2.5820595e-09
2.7046244e-09
2.8463006e-09
3.0355068e-09
3.2667688e-09
3.5622812e-09
3.9236283e-09
4.3580969e-09
4.8484946e-09
5.3679887e-09
5.8775836e-09
6.344697e-09
6.7475244e-09
7.0801403e-09
7.3475379e-09
7.5610982e-09
7.7344593e-09
7.88001e-09
8.0000542e-09
8.0994988e-09
8.1828106e-09
8.2567521e-09
8.3232154e-09
8.3796695e-09
8.4246735e-09
8.4581511e-09
8.4976074e-09
8.5711182e-09
8.6195284e-09
8.644068e-09
8.6529453e-09
8.6541662e-09
8.65587e-09
8.6653536e-09
0.00094396171
0.0021129008
0.0024730464
0.0021834704
0.0010007313
2.0651837e-05
2.8373665e-09
2.4506072e-09
2.3327551e-09
2.3578449e-09
2.3114928e-09
2.3580938e-09
2.356498e-09
2.4222317e-09
2.4634108e-09
2.5523937e-09
2.6406406e-09
2.7707877e-09
2.9223455e-09
3.1239478e-09
3.3709977e-09
3.6856909e-09
4.0690307e-09
4.5250651e-09
5.0323013e-09
5.5597011e-09
6.0666899e-09
6.5217333e-09
6.9060679e-09
7.217107e-09
7.462587e-09
7.6556302e-09
7.8109792e-09
7.9412975e-09
8.0482633e-09
8.1367198e-09
8.2112773e-09
8.2785031e-09
8.3398719e-09
8.3921939e-09
8.4335263e-09
8.4647815e-09
8.5074823e-09
8.5809605e-09
8.6252536e-09
8.6467988e-09
8.6538158e-09
8.6542792e-09
8.6553859e-09
8.66431e-09
0.0009450458
0.002096297
0.0024230512
0.0020827926
0.00085504734
6.3030701e-06
2.6917565e-09
2.4838462e-09
2.3679856e-09
2.3939877e-09
2.3498401e-09
2.3984531e-09
2.3996758e-09
2.468555e-09
2.5139218e-09
2.6078587e-09
2.7026651e-09
2.8410726e-09
3.0033994e-09
3.2184752e-09
3.4826507e-09
3.817945e-09
4.2243079e-09
4.70191e-09
5.2246487e-09
5.757531e-09
6.2590644e-09
6.6994543e-09
7.0634153e-09
7.351812e-09
7.5749947e-09
7.7476272e-09
7.8853434e-09
8.0008927e-09
8.0951864e-09
8.1729805e-09
8.2390441e-09
8.2997827e-09
8.3562175e-09
8.4044377e-09
8.4421389e-09
8.4717389e-09
8.5186172e-09
8.5894225e-09
8.6304326e-09
8.6494209e-09
8.654782e-09
8.6543646e-09
8.6548328e-09
8.6632511e-09
0.00094626734
0.0020792597
0.0023709395
0.0019776493
0.00071809535
1.6684121e-06
2.6347223e-09
2.5185572e-09
2.4045988e-09
2.4316272e-09
2.3898925e-09
2.4407e-09
2.4449864e-09
2.5172472e-09
2.5671373e-09
2.6664469e-09
2.76842e-09
2.9158415e-09
3.0899027e-09
3.3196317e-09
3.602379e-09
3.9597184e-09
4.3899733e-09
4.8887936e-09
5.4252755e-09
5.9608663e-09
6.4539126e-09
6.8770588e-09
7.2188852e-09
7.4837382e-09
7.6843766e-09
7.8368037e-09
7.9573365e-09
8.0586244e-09
8.1406853e-09
8.2081637e-09
8.2660124e-09
8.3205067e-09
8.3721871e-09
8.416336e-09
8.4504833e-09
8.4790335e-09
8.53007e-09
8.5970568e-09
8.6349665e-09
8.6519132e-09
8.6561009e-09
8.6544151e-09
8.6542123e-09
8.6621897e-09
0.00094747381
0.0020618857
0.0023167282
0.0018666296
0.00059213942
4.3063393e-07
2.6231606e-09
2.5545409e-09
2.4426252e-09
2.4710619e-09
2.4318524e-09
2.4850103e-09
2.4925547e-09
2.5684467e-09
2.6232429e-09
2.7284162e-09
2.8382308e-09
2.9954853e-09
3.1823287e-09
3.4280028e-09
3.7308718e-09
4.1116865e-09
4.566473e-09
5.0857524e-09
5.6337658e-09
6.1689569e-09
6.6503441e-09
7.0537051e-09
7.3718165e-09
7.6124275e-09
7.7904072e-09
7.9229099e-09
8.0267755e-09
8.1143656e-09
8.1846583e-09
8.2421677e-09
8.2921071e-09
8.3406039e-09
8.3877222e-09
8.4278306e-09
8.4585313e-09
8.4866076e-09
8.5415003e-09
8.6040755e-09
8.6388829e-09
8.6540243e-09
8.6576577e-09
8.6541575e-09
8.6535275e-09
8.6611432e-09
0.00094899858
0.0020450611
0.0022633749
0.0017477528
0.0004782518
1.2164533e-07
2.63558e-09
2.592126e-09
2.4823447e-09
2.5123457e-09
2.4758246e-09
2.5314401e-09
2.5424993e-09
2.6223148e-09
2.682471e-09
2.7940652e-09
2.9124666e-09
3.0804427e-09
3.2812162e-09
3.5442574e-09
3.8688908e-09
4.2745445e-09
4.7541997e-09
5.2927096e-09
5.8495715e-09
6.3809421e-09
6.8474006e-09
7.2285441e-09
7.521596e-09
7.7374823e-09
7.8928161e-09
8.0057251e-09
8.0934981e-09
8.1680348e-09
8.2270314e-09
8.2748892e-09
8.3172629e-09
8.360014e-09
8.4027653e-09
8.4388655e-09
8.4662509e-09
8.4943549e-09
8.5527166e-09
8.6106269e-09
8.642305e-09
8.6557172e-09
8.6588235e-09
8.6538029e-09
8.6528278e-09
8.6601023e-09
0.00095070874
0.0020280255
0.0022143349
0.0016207322
0.00038057586
4.304994e-08
2.6607208e-09
2.6313048e-09
2.5238634e-09
2.5554631e-09
2.5217913e-09
2.5800898e-09
2.5949664e-09
2.6790775e-09
2.745106e-09
2.8637055e-09
2.9915187e-09
3.1711805e-09
3.3871516e-09
3.6691224e-09
4.0172311e-09
4.4489507e-09
4.9534259e-09
5.5094138e-09
6.0719662e-09
6.5958214e-09
7.0440575e-09
7.4007615e-09
7.66769e-09
7.8585543e-09
7.9913838e-09
8.0850809e-09
8.1573977e-09
8.2196107e-09
8.2677579e-09
8.3062295e-09
8.3414114e-09
8.3786961e-09
8.4172649e-09
8.4493927e-09
8.4736187e-09
8.5022183e-09
8.5636021e-09
8.6167048e-09
8.6452954e-09
8.6569965e-09
8.6593823e-09
8.6534133e-09
8.6521417e-09
8.6590557e-09
0.00095248832
0.0020093851
0.0021588893
0.0014853017
0.00029106419
1.822068e-08
2.6930261e-09
2.6722444e-09
2.5672268e-09
2.6006878e-09
2.5698624e-09
2.631111e-09
2.6501746e-09
2.7390186e-09
2.8114699e-09
2.9377174e-09
3.0758125e-09
3.2682275e-09
3.500811e-09
3.8034219e-09
4.1767461e-09
4.6355402e-09
5.1643187e-09
5.7354643e-09
6.3000834e-09
6.8125091e-09
7.2393153e-09
7.5696872e-09
7.8096823e-09
7.9752944e-09
8.0858847e-09
8.1608671e-09
8.2184494e-09
8.2690973e-09
8.3067793e-09
8.3361122e-09
8.3644546e-09
8.3966237e-09
8.4311753e-09
8.4593775e-09
8.4806724e-09
8.5102663e-09
8.5739921e-09
8.6222186e-09
8.647813e-09
8.6579737e-09
8.6596561e-09
8.6530601e-09
8.6514595e-09
8.6579949e-09
0.00095456514
0.0019901565
0.0021032576
0.0013439439
0.00020998842
9.5462078e-09
2.7300219e-09
2.7149592e-09
2.6125059e-09
2.6480706e-09
2.6202841e-09
2.6847388e-09
2.7084045e-09
2.8024391e-09
2.881901e-09
3.0165062e-09
3.1658106e-09
3.37217e-09
3.6229461e-09
3.9480445e-09
4.3482914e-09
4.8348543e-09
5.3868626e-09
5.9702418e-09
6.5328713e-09
7.0298373e-09
7.4322878e-09
7.7348711e-09
7.9472534e-09
8.0873069e-09
8.1760322e-09
8.2330501e-09
8.276757e-09
8.3164716e-09
8.3439905e-09
8.3645379e-09
8.3862789e-09
8.4137813e-09
8.4444649e-09
8.4688131e-09
8.4875889e-09
8.518793e-09
8.5836799e-09
8.6270881e-09
8.6498228e-09
8.658673e-09
8.6598005e-09
8.652698e-09
8.6507554e-09
8.6569139e-09
0.00095686012
0.0019696277
0.0020448488
0.001199557
0.00013688383
6.1301645e-09
2.7704481e-09
2.7595166e-09
2.6598523e-09
2.6976777e-09
2.6733441e-09
2.7413634e-09
2.7699479e-09
2.8696466e-09
2.9567317e-09
3.1004827e-09
3.2620388e-09
3.483693e-09
3.7544183e-09
4.1039629e-09
4.5327337e-09
5.0473493e-09
5.6208817e-09
6.2129503e-09
6.7691595e-09
7.2466848e-09
7.622363e-09
7.8960786e-09
8.0800556e-09
8.1941623e-09
8.2614715e-09
8.3016459e-09
8.3325015e-09
8.3615907e-09
8.3792227e-09
8.391606e-09
8.4068239e-09
8.4301402e-09
8.457114e-09
8.4777234e-09
8.4946278e-09
8.5282718e-09
8.5924331e-09
8.631307e-09
8.6513391e-09
8.6590187e-09
8.6598695e-09
8.6522765e-09
8.6500112e-09
8.6558071e-09
0.00095922171
0.0019467803
0.0019837139
0.0010609138
7.5443705e-05
4.6435123e-09
2.8137906e-09
2.8061715e-09
2.7094287e-09
2.7497564e-09
2.7290756e-09
2.8011996e-09
2.8350984e-09
2.9409497e-09
3.0363217e-09
3.1901159e-09
3.3651084e-09
3.6035774e-09
3.8961807e-09
4.2721922e-09
4.7308829e-09
5.2733087e-09
5.8659551e-09
6.4625511e-09
7.0076535e-09
7.4620673e-09
7.809208e-09
8.0529712e-09
8.2074072e-09
8.2955636e-09
8.3419658e-09
8.3666746e-09
8.3857522e-09
8.4041595e-09
8.4123796e-09
8.4174363e-09
8.4262226e-09
8.4456438e-09
8.4691154e-09
8.4861646e-09
8.5020564e-09
8.5390173e-09
8.600008e-09
8.6349471e-09
8.6525274e-09
8.6591728e-09
8.6598897e-09
8.6517732e-09
8.6492155e-09
8.654669e-09
0.00096141118
0.0019196589
0.0019183231
0.00092824085
3.2876938e-05
3.9553592e-09
2.8597189e-09
2.8550572e-09
2.7613681e-09
2.8044903e-09
2.7878321e-09
2.8643816e-09
2.904144e-09
3.0166723e-09
3.121077e-09
3.2859123e-09
3.4757331e-09
3.7327259e-09
4.0492959e-09
4.4538008e-09
4.9434905e-09
5.5128517e-09
6.121446e-09
6.7178405e-09
7.2470912e-09
7.6753248e-09
7.9925547e-09
8.2044198e-09
8.3285553e-09
8.3911985e-09
8.4178308e-09
8.428118e-09
8.4360676e-09
8.4441353e-09
8.4435476e-09
8.4419073e-09
8.4448735e-09
8.4602114e-09
8.4804611e-09
8.4942042e-09
8.5100257e-09
8.5505686e-09
8.6067716e-09
8.6381656e-09
8.6535652e-09
8.6592358e-09
8.6597008e-09
8.6511829e-09
8.6483636e-09
8.6534935e-09
0.00096337957
0.0018886027
0.0018475195
0.00080238375
1.1302774e-05
3.6342112e-09
2.9081015e-09
2.906296e-09
2.8158898e-09
2.8621919e-09
2.8499293e-09
2.9311664e-09
2.9773518e-09
3.09718e-09
3.2114833e-09
3.3885225e-09
3.5947396e-09
3.8721467e-09
4.2149037e-09
4.6498456e-09
5.171169e-09
5.765834e-09
6.3864204e-09
6.9774349e-09
7.4863298e-09
7.8860822e-09
8.1713983e-09
8.3492496e-09
8.4427334e-09
8.4810158e-09
8.48958e-09
8.4859889e-09
8.4830079e-09
8.4823622e-09
8.4727325e-09
8.4643319e-09
8.4632033e-09
8.4738088e-09
8.4911356e-09
8.5018978e-09
8.5185881e-09
8.5623452e-09
8.6131191e-09
8.6410563e-09
8.6544168e-09
8.6592613e-09
8.6593149e-09
8.6505151e-09
8.647457e-09
8.652275e-09
0.00096494195
0.0018527553
0.0017666984
0.0006841782
3.299472e-06
3.494211e-09
2.9590071e-09
2.9601026e-09
2.8733089e-09
2.9231688e-09
2.9156355e-09
3.0019836e-09
3.0549912e-09
3.1828279e-09
3.308136e-09
3.4987114e-09
3.7230767e-09
4.0229729e-09
4.3942286e-09
4.8613716e-09
5.4143837e-09
6.031875e-09
6.659717e-09
7.2399462e-09
7.7245426e-09
8.0939504e-09
8.3439581e-09
8.4863308e-09
8.5494032e-09
8.5654264e-09
8.5576878e-09
8.5404407e-09
8.5273123e-09
8.5182181e-09
8.4999531e-09
8.4850926e-09
8.480838e-09
8.4865563e-09
8.501105e-09
8.5092853e-09
8.5272655e-09
8.573954e-09
8.6192281e-09
8.6437069e-09
8.6550212e-09
8.659039e-09
8.6588213e-09
8.6497842e-09
8.6464905e-09
8.6510082e-09
0.00096612933
0.0018125188
0.0016729512
0.0005750863
9.0491956e-07
3.4476728e-09
3.0127859e-09
3.0168382e-09
2.9339989e-09
2.9876581e-09
2.985218e-09
3.0771202e-09
3.1374142e-09
3.274193e-09
3.4117739e-09
3.61736e-09
3.8618001e-09
4.1864334e-09
4.5885354e-09
5.0893262e-09
5.6733457e-09
6.3102506e-09
6.9399248e-09
7.5040261e-09
7.9611795e-09
8.297354e-09
8.5087035e-09
8.6145429e-09
8.6491613e-09
8.6459502e-09
8.6213192e-09
8.5915192e-09
8.5689489e-09
8.5519111e-09
8.5252343e-09
8.5044006e-09
8.4973078e-09
8.4987866e-09
8.5103305e-09
8.5164043e-09
8.5361557e-09
8.5851222e-09
8.625109e-09
8.6462423e-09
8.6555226e-09
8.6586582e-09
8.6582826e-09
8.6489928e-09
8.6454607e-09
8.6496898e-09
0.00096722931
0.0017692518
0.001568237
0.00047621338
2.5764298e-07
3.4507857e-09
3.0696514e-09
3.0767522e-09
2.9980561e-09
3.0558417e-09
3.0588418e-09
3.1568014e-09
3.2253164e-09
3.3719715e-09
3.5232402e-09
3.7454626e-09
4.0120865e-09
4.3638715e-09
4.799128e-09
5.3345538e-09
5.9480149e-09
6.5999563e-09
7.2255512e-09
7.7685629e-09
8.195743e-09
8.4940336e-09
8.6640709e-09
8.7336462e-09
8.7443223e-09
8.7212169e-09
8.6808155e-09
8.6392985e-09
8.6081268e-09
8.5834024e-09
8.5487954e-09
8.5224599e-09
8.5120147e-09
8.5108434e-09
8.5188267e-09
8.5233906e-09
8.5453241e-09
8.5954535e-09
8.6305322e-09
8.6486588e-09
8.6561071e-09
8.6582408e-09
8.6577089e-09
8.6481297e-09
8.6443686e-09
8.6483184e-09
0.00096849473
0.0017236993
0.0014540081
0.00038587192
8.4501342e-08
3.4810082e-09
3.1295998e-09
3.139901e-09
3.0655475e-09
3.1279855e-09
3.136853e-09
3.2415143e-09
3.3193786e-09
3.4769854e-09
3.6434725e-09
3.8841191e-09
4.1752312e-09
4.5567207e-09
5.0272753e-09
5.5976811e-09
6.2379898e-09
6.8996437e-09
7.5150447e-09
8.0327013e-09
8.4264923e-09
8.6818797e-09
8.808944e-09
8.8457575e-09
8.8340968e-09
8.7914977e-09
8.7361626e-09
8.6839234e-09
8.6449017e-09
8.6128059e-09
8.5707104e-09
8.5392022e-09
8.5253975e-09
8.5223694e-09
8.5267438e-09
8.5304424e-09
8.5550925e-09
8.6045509e-09
8.6352337e-09
8.650775e-09
8.6568193e-09
8.658025e-09
8.6569917e-09
8.6471755e-09
8.6432289e-09
8.6468949e-09
0.00096982814
0.0016752049
0.0013390353
0.00030606908
3.4707345e-08
3.5264996e-09
3.1926745e-09
3.2064394e-09
3.1368033e-09
3.204397e-09
3.2197639e-09
3.3319755e-09
3.4203027e-09
3.5901683e-09
3.773512e-09
4.0345506e-09
4.3526732e-09
4.7665166e-09
5.2741969e-09
5.8790969e-09
6.5425484e-09
7.2077887e-09
7.8070069e-09
8.2958071e-09
8.650674e-09
8.8590366e-09
8.9433619e-09
8.9527724e-09
8.9177498e-09
8.8567559e-09
8.7875663e-09
8.7255372e-09
8.6793872e-09
8.6401866e-09
8.5910222e-09
8.5545882e-09
8.5376481e-09
8.5330743e-09
8.5343839e-09
8.5377188e-09
8.5656432e-09
8.6121525e-09
8.639125e-09
8.6524195e-09
8.6573383e-09
8.6579487e-09
8.6559943e-09
8.6461489e-09
8.6420581e-09
8.6454238e-09
0.00097108079
0.0016201268
0.0012230602
0.00023206684
1.6979251e-08
3.5811939e-09
3.2590863e-09
3.2766891e-09
3.2122397e-09
3.2855849e-09
3.30826e-09
3.4289871e-09
3.5289745e-09
3.7124617e-09
3.9145032e-09
4.198115e-09
4.5459798e-09
4.9948394e-09
5.5409547e-09
6.1788233e-09
6.8605308e-09
7.5226975e-09
8.1001792e-09
8.5564369e-09
8.8653416e-09
9.0240799e-09
9.0700519e-09
9.0533144e-09
8.9955183e-09
8.9171951e-09
8.8351752e-09
8.7643006e-09
8.7116853e-09
8.6656327e-09
8.6097705e-09
8.5687582e-09
8.5489291e-09
8.5425798e-09
8.5420534e-09
8.5453089e-09
8.576433e-09
8.6185238e-09
8.6422784e-09
8.6536277e-09
8.6576331e-09
8.6579523e-09
8.6548777e-09
8.6450986e-09
8.6408644e-09
8.6439124e-09
0.00097346013
0.0015652911
0.0011048735
0.00016371709
1.0043669e-08
3.6424302e-09
3.3292058e-09
3.3511093e-09
3.2924219e-09
3.3722728e-09
3.4031641e-09
3.5333735e-09
3.6463095e-09
3.8448934e-09
4.067721e-09
4.3763482e-09
4.7568677e-09
5.243276e-09
5.8284224e-09
6.4965203e-09
7.1904974e-09
7.8427268e-09
8.393626e-09
8.8113762e-09
9.0683797e-09
9.1769966e-09
9.1907645e-09
9.1467488e-09
9.067459e-09
8.972982e-09
8.8791841e-09
8.8003744e-09
8.741909e-09
8.689218e-09
8.6269918e-09
8.5817581e-09
8.5593231e-09
8.5511544e-09
8.5496104e-09
8.5530741e-09
8.5868278e-09
8.6240239e-09
8.6448578e-09
8.6545371e-09
8.6577755e-09
8.6579673e-09
8.6537145e-09
8.6440234e-09
8.6396501e-09
8.6423699e-09
0.00097723797
0.0015125516
0.00098680473
0.00010247392
7.0298222e-09
3.7086915e-09
3.4034802e-09
3.430395e-09
3.3781502e-09
3.4653129e-09
3.5053529e-09
3.6460277e-09
3.7732916e-09
3.9886317e-09
4.2346173e-09
4.5709811e-09
4.9871751e-09
5.513331e-09
6.1371162e-09
6.8313629e-09
7.5306842e-09
8.1662568e-09
8.6862229e-09
9.0568183e-09
9.2578776e-09
9.3206127e-09
9.3041071e-09
9.2332783e-09
9.1337982e-09
9.0243318e-09
8.9197861e-09
8.833926e-09
8.7701725e-09
8.7110142e-09
8.6427145e-09
8.59357e-09
8.56876e-09
8.5591291e-09
8.55698e-09
8.5607753e-09
8.5962698e-09
8.6287669e-09
8.6469862e-09
8.6553346e-09
8.6578428e-09
8.6579016e-09
8.652515e-09
8.6429263e-09
8.6384184e-09
8.6408051e-09
0.00098199028
0.0014555804
0.00087050812
5.3641439e-05
5.6199308e-09
3.7795511e-09
3.482733e-09
3.515485e-09
3.4702923e-09
3.5655247e-09
3.6156453e-09
3.7678448e-09
3.9110353e-09
4.145049e-09
4.4168396e-09
4.7839464e-09
5.2388431e-09
5.8063809e-09
6.4671756e-09
7.1821111e-09
7.8792455e-09
8.4918533e-09
8.9747803e-09
9.2900134e-09
9.4331411e-09
9.4574508e-09
9.4090998e-09
9.3130312e-09
9.1947562e-09
9.0714661e-09
8.957186e-09
8.8651198e-09
8.7965858e-09
8.7310752e-09
8.6569423e-09
8.6042216e-09
8.5773741e-09
8.5666301e-09
8.5640724e-09
8.5683093e-09
8.6047153e-09
8.6328366e-09
8.6485936e-09
8.6557288e-09
8.6578759e-09
8.6576975e-09
8.6512478e-09
8.6418116e-09
8.6371821e-09
8.639223e-09
0.00098804359
0.0013946618
0.00075837004
2.2685235e-05
4.939673e-09
3.8557139e-09
3.5679503e-09
3.6070632e-09
3.5695754e-09
3.6735284e-09
3.7348007e-09
3.8998166e-09
4.0609687e-09
4.3157471e-09
4.6162449e-09
5.0173514e-09
5.5138248e-09
6.1235239e-09
6.8182236e-09
7.5470545e-09
8.2342166e-09
8.8181381e-09
9.2550221e-09
9.508558e-09
9.5969772e-09
9.585933e-09
9.5060477e-09
9.3862693e-09
9.2505935e-09
9.1146215e-09
8.9915924e-09
8.8941207e-09
8.8212547e-09
8.7494434e-09
8.6696962e-09
8.6137877e-09
8.5852749e-09
8.5737222e-09
8.5708738e-09
8.5756723e-09
8.612152e-09
8.6363262e-09
8.6498423e-09
8.655876e-09
8.657621e-09
8.6573173e-09
8.6499436e-09
8.6406493e-09
8.6359914e-09
8.6376222e-09
0.00099572689
0.0013299229
0.00065218994
7.9559353e-06
4.6213673e-09
3.9386219e-09
3.6596241e-09
3.7055239e-09
3.6764172e-09
3.7900131e-09
3.8637942e-09
4.0431533e-09
4.2247462e-09
4.5025934e-09
4.8349136e-09
5.2734623e-09
5.8140055e-09
6.4654907e-09
7.1893985e-09
7.9242555e-09
8.5937145e-09