/*--------------------------------*- C++ -*----------------------------------*\
  =========                 |
  \\      /  F ield         | OpenFOAM: The Open Source CFD Toolbox
   \\    /   O peration     | Website:  https://openfoam.org
    \\  /    A nd           | Version:  8
     \\/     M anipulation  |
\*---------------------------------------------------------------------------*/
FoamFile
{
    version     2.0;
    format      ascii;
    class       volVectorField;
    location    "0.120004";
    object      cellDisplacement;
}
// * * * * * * * * * * * * * * * * * * * * * * * * * * * * * * * * * * * * * //

dimensions      [0 1 0 0 0 0 0];

internalField   nonuniform List<vector> 
20000
(
(0.0023945649 0 0.0019044469)
(0.0023945477 0 0.0019040571)
(0.0023945093 0 0.0019030204)
(0.0023944267 0 0.0019018194)
(0.0023942806 0 0.0019004234)
(0.0023940434 0 0.0018988128)
(0.0023936773 0 0.0018969711)
(0.0023931297 0 0.0018948898)
(0.0023923291 0 0.0018925724)
(0.0023911784 0 0.0018900442)
(0.0023895463 0 0.0018873643)
(0.0023872569 0 0.0018846443)
(0.0023840759 0 0.0018820769)
(0.0023796942 0 0.0018799742)
(0.0023737081 0 0.0018788266)
(0.0023655954 0 0.0018793779)
(0.0023546917 0 0.0018827456)
(0.0023401658 0 0.0018905359)
(0.0023209984 0 0.0019050907)
(0.0022959741 0 0.0019296727)
(0.0022636954 0 0.0019687506)
(0.0022226327 0 0.0020282052)
(0.0021712261 0 0.0021154034)
(0.0021080461 0 0.0022391258)
(0.0020320087 0 0.0024090055)
(0.001942621 0 0.0026344565)
(0.0018401643 0 0.002923156)
(0.0017259356 0 0.0032786353)
(0.0016020187 0 0.0036985947)
(0.001471268 0 0.0041739412)
(0.0013370251 0 0.0046872146)
(0.0012026678 0 0.0052171051)
(0.0010713321 0 0.0057373232)
(0.00094613208 0 0.0062228053)
(0.00082903907 0 0.0066510674)
(0.00072145535 0 0.0070074325)
(0.0006239237 0 0.0072809908)
(0.00053653812 0 0.007465892)
(0.00045867107 0 0.0075609069)
(0.00039015364 0 0.0075626813)
(0.0003292539 0 0.0074736388)
(0.00027612066 0 0.0072871318)
(0.00022942164 0 0.0070072757)
(0.00018861366 0 0.0066110298)
(0.00015225633 0 0.0060952849)
(0.00012008043 0 0.0054380262)
(9.085473e-05 0 0.0046262386)
(6.3869721e-05 0 0.0036008509)
(3.7748008e-05 0 0.0023448362)
(1.1225997e-05 0 0.00078635101)
(0.002400205 0 0.0015647324)
(0.0024001956 0 0.0015636683)
(0.002400155 0 0.0015624338)
(0.0024000697 0 0.0015609785)
(0.0023999195 0 0.0015592783)
(0.0023996766 0 0.0015573027)
(0.002399302 0 0.0015550217)
(0.0023987426 0 0.0015524116)
(0.0023979252 0 0.0015494588)
(0.0023967513 0 0.0015461701)
(0.0023950871 0 0.0015425844)
(0.0023927543 0 0.0015387927)
(0.002389515 0 0.0015349656)
(0.002385056 0 0.0015313941)
(0.0023789682 0 0.001528547)
(0.0023707234 0 0.0015271526)
(0.0023596504 0 0.0015283076)
(0.0023449103 0 0.0015336447)
(0.002325478 0 0.0015455168)
(0.0023001344 0 0.0015672735)
(0.0022674831 0 0.0016035338)
(0.0022260024 0 0.0016603872)
(0.0021741531 0 0.0017454242)
(0.0021105457 0 0.0018677502)
(0.0020341524 0 0.002037359)
(0.0019445478 0 0.0022640312)
(0.0018420903 0 0.0025557714)
(0.0017281086 0 0.0029164622)
(0.0016046969 0 0.003344158)
(0.0014746516 0 0.0038299743)
(0.0013411978 0 0.0043568419)
(0.0012075971 0 0.0049032434)
(0.0010768901 0 0.0054428531)
(0.0009520564 0 0.0059501804)
(0.00083508454 0 0.0064021701)
(0.0007273835 0 0.0067830655)
(0.0006295585 0 0.0070812566)
(0.00054174514 0 0.0072902549)
(0.00046340572 0 0.007408099)
(0.00039433415 0 0.0074315262)
(0.00033297195 0 0.0073622809)
(0.00027932338 0 0.0071944112)
(0.00023216743 0 0.00693078)
(0.00019090828 0 0.0065504475)
(0.00015418625 0 0.0060487766)
(0.00012164424 0 0.0054045846)
(9.2100208e-05 0 0.004603355)
(6.4790107e-05 0 0.0035885075)
(3.8353084e-05 0 0.0023394872)
(1.1469815e-05 0 0.00078513664)
(0.0024044053 0 0.0012322937)
(0.0024043934 0 0.0012310195)
(0.0024043494 0 0.0012295289)
(0.0024042592 0 0.0012277767)
(0.0024041025 0 0.001225725)
(0.0024038505 0 0.0012233341)
(0.0024034636 0 0.0012205638)
(0.0024028875 0 0.0012173785)
(0.0024020477 0 0.0012137494)
(0.0024008436 0 0.0012096672)
(0.0023991393 0 0.0012051509)
(0.002396753 0 0.0012002704)
(0.0023934431 0 0.0011951734)
(0.0023888914 0 0.0011901266)
(0.002382683 0 0.0011855762)
(0.0023742828 0 0.0011822282)
(0.0023630122 0 0.0011811753)
(0.0023480249 0 0.0011840436)
(0.0023282894 0 0.001193244)
(0.0023025839 0 0.0012121994)
(0.0022695143 0 0.0012457194)
(0.0022275672 0 0.0013001166)
(0.0021752271 0 0.0013831527)
(0.002111151 0 0.0015042748)
(0.0020343739 0 0.001673812)
(0.0019445444 0 0.0019018692)
(0.0018421049 0 0.0021967336)
(0.0017284216 0 0.0025625743)
(0.0016055993 0 0.0029977433)
(0.0014763731 0 0.0034935474)
(0.0013438504 0 0.0040332572)
(0.0012111654 0 0.0045952335)
(0.0010812541 0 0.0051531334)
(0.00095696086 0 0.0056811449)
(0.00084027523 0 0.0061557157)
(0.0007326076 0 0.0065601282)
(0.00063462122 0 0.0068820844)
(0.00054649214 0 0.007114483)
(0.00046777038 0 0.0072546385)
(0.00039822414 0 0.0072993129)
(0.00033645294 0 0.0072496225)
(0.00028234221 0 0.0071001778)
(0.00023476765 0 0.0068527422)
(0.00019309192 0 0.006488193)
(0.0001560284 0 0.006000608)
(0.00012314385 0 0.0053694899)
(9.3299133e-05 0 0.0045789984)
(6.5680724e-05 0 0.0035748052)
(3.8940233e-05 0 0.0023331864)
(1.1705165e-05 0 0.00078359451)
(0.0024072039 0 0.00090699777)
(0.0024071876 0 0.00090552397)
(0.0024071378 0 0.00090379668)
(0.00240704 0 0.00090176151)
(0.0024068734 0 0.00089937114)
(0.0024066085 0 0.00089657531)
(0.0024062048 0 0.00089332195)
(0.0024056067 0 0.00088956238)
(0.0024047381 0 0.0008852538)
(0.0024034962 0 0.00088037108)
(0.0024017424 0 0.00087491484)
(0.0023992915 0 0.00086893596)
(0.0023958973 0 0.00086255825)
(0.0023912366 0 0.00085602557)
(0.0023848876 0 0.00084975855)
(0.0023763082 0 0.00084444516)
(0.0023648115 0 0.00084115765)
(0.0023495437 0 0.00084154799)
(0.0023294676 0 0.00084806936)
(0.0023033596 0 0.00086422024)
(0.0022698298 0 0.00089507841)
(0.0022273718 0 0.00094719215)
(0.002174496 0 0.0010283781)
(0.0021099154 0 0.0011484925)
(0.0020327316 0 0.0013181662)
(0.0019426757 0 0.0015477788)
(0.0018402767 0 0.0018458681)
(0.0017269467 0 0.0022168221)
(0.0016047961 0 0.0026592426)
(0.0014764992 0 0.0031646018)
(0.0013450397 0 0.0037164705)
(0.0012134197 0 0.004293152)
(0.0010844578 0 0.0048683077)
(0.00096086862 0 0.0054158928)
(0.00084462336 0 0.0059119361)
(0.00073713352 0 0.0063388609)
(0.00063911176 0 0.0066837133)
(0.00055077693 0 0.0069387962)
(0.00047176061 0 0.0071007235)
(0.00040181925 0 0.0071662121)
(0.00033969275 0 0.0071358041)
(0.00028517323 0 0.0070045477)
(0.00023721883 0 0.0067732498)
(0.00019516187 0 0.0064243443)
(0.00015778073 0 0.0059508344)
(0.00012457777 0 0.0053327906)
(9.4449986e-05 0 0.0045532231)
(6.6540527e-05 0 0.0035597911)
(3.9509126e-05 0 0.0023259651)
(1.193192e-05 0 0.00078172697)
(0.0024086447 0 0.00058868928)
(0.0024086223 0 0.0005870092)
(0.0024085648 0 0.00058503405)
(0.002408457 0 0.00058270532)
(0.0024082774 0 0.00057996883)
(0.0024079958 0 0.00057676541)
(0.0024075704 0 0.00057303239)
(0.0024069443 0 0.00056870685)
(0.0024060396 0 0.00056373066)
(0.0024047513 0 0.00055805926)
(0.0024029376 0 0.000551674)
(0.0024004096 0 0.00054460226)
(0.0023969165 0 0.00053694599)
(0.0023921289 0 0.00052892325)
(0.0023856181 0 0.00052093107)
(0.0023768338 0 0.00051363131)
(0.0023650808 0 0.00050808777)
(0.0023494983 0 0.00050594685)
(0.0023290431 0 0.00050980761)
(0.0023024921 0 0.0005231042)
(0.0022684631 0 0.00055141671)
(0.0022254488 0 0.00060150972)
(0.0021719914 0 0.00068099592)
(0.0021068719 0 0.00080033615)
(0.0020292611 0 0.0009703903)
(0.0019389784 0 0.0012017656)
(0.0018366462 0 0.0015032128)
(0.0017237238 0 0.0018792837)
(0.0016023279 0 0.0023287726)
(0.0014750665 0 0.0028433002)
(0.0013447981 0 0.0034066894)
(0.0012143835 0 0.003997255)
(0.0010865179 0 0.0045886693)
(0.00096378609 0 0.00515475)
(0.00084812995 0 0.0056711681)
(0.00074095615 0 0.006119599)
(0.00064302288 0 0.006486459)
(0.00055458988 0 0.0067634858)
(0.00047536754 0 0.0069466081)
(0.00040510952 0 0.0070324469)
(0.00034268371 0 0.007021012)
(0.0002878087 0 0.0069076818)
(0.00023951506 0 0.0066924269)
(0.00019711273 0 0.0063590102)
(0.00015943947 0 0.0058995416)
(0.00012594273 0 0.0052945535)
(9.5551042e-05 0 0.0045260442)
(6.7368171e-05 0 0.0035434838)
(4.0058958e-05 0 0.0023178265)
(1.2150325e-05 0 0.00077954176)
(0.0024087649 0 0.00027722882)
(0.0024087344 0 0.00027535137)
(0.0024086667 0 0.00027314267)
(0.002408546 0 0.00027053471)
(0.0024083499 0 0.000267463)
(0.0024080475 0 0.00026385793)
(0.0024075957 0 0.00025964459)
(0.0024069359 0 0.00025474811)
(0.0024059883 0 0.00024909524)
(0.0024046453 0 0.00024262623)
(0.0024027616 0 0.00023530282)
(0.0024001442 0 0.00022713198)
(0.0023965369 0 0.00021819035)
(0.0023916039 0 0.00020867046)
(0.0023849087 0 0.00019893907)
(0.0023758922 0 0.00018963033)
(0.0023638506 0 0.00018177244)
(0.0023479187 0 0.00017700089)
(0.0023270447 0 0.00017832975)
(0.0023000151 0 0.00018944584)
(0.0022654551 0 0.0002153866)
(0.0022218319 0 0.00026297648)
(0.0021677441 0 0.00034085226)
(0.0021020537 0 0.00045968821)
(0.002023997 0 0.0006303937)
(0.0019334904 0 0.00086375721)
(0.0018312536 0 0.0011687235)
(0.0017187959 0 0.001549939)
(0.0015982374 0 0.0020063484)
(0.0014721164 0 0.0025296941)
(0.0013431606 0 0.003104016)
(0.0012140859 0 0.0037076892)
(0.0010874548 0 0.0043144081)
(0.00096572647 0 0.004897938)
(0.0008508002 0 0.0054336584)
(0.00074407612 0 0.0059025897)
(0.00064635095 0 0.00629056)
(0.00055792589 0 0.0065887696)
(0.00047858478 0 0.0067924846)
(0.00040808879 0 0.0068981817)
(0.00034542046 0 0.0069053789)
(0.00029024371 0 0.0068096883)
(0.00024165205 0 0.0066103503)
(0.00019894107 0 0.0062922562)
(0.00016100207 0 0.0058467728)
(0.00012723684 0 0.0052548151)
(9.6600437e-05 0 0.0044975072)
(6.8162435e-05 0 0.0035259238)
(4.0589161e-05 0 0.0023087945)
(1.2360281e-05 0 0.0007770439)
(0.0024075995 0 -2.7531401e-05)
(0.0024075594 0 -2.9614032e-05)
(0.0024074794 0 -3.2069099e-05)
(0.0024073433 0 -3.496867e-05)
(0.0024071279 0 -3.838452e-05)
(0.0024068009 0 -4.2395089e-05)
(0.002406318 0 -4.7086344e-05)
(0.0024056189 0 -5.2547024e-05)
(0.0024046214 0 -5.8865896e-05)
(0.0024032149 0 -6.612234e-05)
(0.0024012507 0 -7.4374222e-05)
(0.002398531 0 -8.363847e-05)
(0.0023947938 0 -9.3862286e-05)
(0.0023896959 0 -0.00010488213)
(0.0023827923 0 -0.00011636138)
(0.0023735138 0 -0.00012770576)
(0.0023611468 0 -0.00013790061)
(0.0023448408 0 -0.00014482931)
(0.0023235424 0 -0.00014574191)
(0.0022959948 0 -0.00013661514)
(0.0022608157 0 -0.00011284736)
(0.0022165328 0 -6.7618686e-05)
(0.0021617978 0 8.6855155e-06)
(0.0020954961 0 0.0001264949)
(0.0020169767 0 0.00029815942)
(0.0019262519 0 0.00053376144)
(0.0018241433 0 0.00084243391)
(0.001712209 0 0.0012288508)
(0.0015925715 0 0.001692062)
(0.0014676928 0 0.0022239106)
(0.0013401671 0 0.002808614)
(0.0012125582 0 0.0034246618)
(0.0010872924 0 0.0040457667)
(0.00096670372 0 0.0046457329)
(0.00085264153 0 0.0051997001)
(0.00074649418 0 0.005688132)
(0.00064909322 0 0.0060963058)
(0.00056077904 0 0.00641492)
(0.00048140602 0 0.0066385967)
(0.0004107493 0 0.006763633)
(0.00034789658 0 0.0067890895)
(0.00029247165 0 0.0067107271)
(0.00024362444 0 0.0065271472)
(0.00020064196 0 0.0062241919)
(0.00016246491 0 0.0057926161)
(0.00012845697 0 0.0052136441)
(9.7596515e-05 0 0.0044676314)
(6.8921944e-05 0 0.0035071281)
(4.1099045e-05 0 0.0022988787)
(1.2561857e-05 0 0.0007742361)
(0.0024051865 0 -0.00032572445)
(0.0024051346 0 -0.00032800558)
(0.0024050401 0 -0.00033069576)
(0.0024048858 0 -0.00033387634)
(0.0024046475 0 -0.00033762852)
(0.002404292 0 -0.00034204092)
(0.0024037732 0 -0.00034721171)
(0.0024030289 0 -0.00035324164)
(0.0024019744 0 -0.00036023464)
(0.0024004958 0 -0.00036828559)
(0.0023984403 0 -0.00037747252)
(0.0023956051 0 -0.00038783353)
(0.0023917215 0 -0.00039934233)
(0.0023864384 0 -0.00041186311)
(0.002379301 0 -0.00042509571)
(0.0023697296 0 -0.00043850348)
(0.0023570302 0 -0.00045065726)
(0.0023403348 0 -0.0004594444)
(0.0023185519 0 -0.00046243995)
(0.0022904309 0 -0.00045568372)
(0.002254592 0 -0.00043404316)
(0.0022096052 0 -0.00039045567)
(0.0021541591 0 -0.00031547461)
(0.002087223 0 -0.00019857597)
(0.0020082361 0 -2.6385712e-05)
(0.0019173025 0 0.00021171576)
(0.0018153587 0 0.00052430411)
(0.0017040099 0 0.00091599162)
(0.0015853778 0 0.0013859097)
(0.0014618423 0 0.0019259739)
(0.0013358587 0 0.002520548)
(0.0012098355 0 0.0031482775)
(0.0010860574 0 0.0037828886)
(0.00096673702 0 0.0043983112)
(0.00085366485 0 0.0049694984)
(0.00074821571 0 0.0054764398)
(0.00065125018 0 0.0059039081)
(0.0005631474 0 0.0062421364)
(0.00048382744 0 0.0064851232)
(0.0004130867 0 0.0066289572)
(0.00035010802 0 0.0066722731)
(0.00029448855 0 0.0066109053)
(0.00024542862 0 0.0064428954)
(0.00020221235 0 0.0061548827)
(0.00016382565 0 0.0057371161)
(0.00012960131 0 0.0051710771)
(9.8537404e-05 0 0.0044364642)
(6.9645475e-05 0 0.0034871384)
(4.1587907e-05 0 0.0022881007)
(1.275497e-05 0 0.00077112586)
(0.0024015642 0 -0.00061749173)
(0.0024014988 0 -0.00061997692)
(0.0024013874 0 -0.0006229112)
(0.0024012121 0 -0.00062638107)
(0.0024009476 0 -0.0006304751)
(0.0024005592 0 -0.00063529157)
(0.0023999993 0 -0.00064093904)
(0.0023992034 0 -0.0006475327)
(0.0023980841 0 -0.00065519161)
(0.002396524 0 -0.00066402973)
(0.0023943658 0 -0.00067414456)
(0.0023914009 0 -0.00068559757)
(0.0023873538 0 -0.00069838431)
(0.0023818643 0 -0.00071239198)
(0.0023744665 0 -0.00072732683)
(0.0023645922 0 -0.00074261155)
(0.0023515435 0 -0.00075652388)
(0.0023344083 0 -0.00076739363)
(0.0023120961 0 -0.00077252305)
(0.0022833526 0 -0.00076797933)
(0.0022468068 0 -0.00074836882)
(0.0022010651 0 -0.00070638228)
(0.0021448681 0 -0.00063245277)
(0.0020772712 0 -0.00051558835)
(0.0019977904 0 -0.00034327588)
(0.001906685 0 -0.00010236728)
(0.001804948 0 0.00021436884)
(0.0016942491 0 0.00061141377)
(0.0015767084 0 0.0010879631)
(0.0014546147 0 0.0016359815)
(0.0013302809 0 0.0022399428)
(0.0012059557 0 0.0028786997)
(0.0010837796 0 0.003525969)
(0.00096584653 0 0.0041559018)
(0.00085388307 0 0.004743303)
(0.00074924653 0 0.005267775)
(0.00065282329 0 0.0057136268)
(0.00056502858 0 0.0060706691)
(0.00048584524 0 0.0063322938)
(0.00041509537 0 0.0064943611)
(0.00035204961 0 0.0065551094)
(0.00029628891 0 0.0065103798)
(0.00024705989 0 0.006357723)
(0.00020364781 0 0.0060844383)
(0.00016508087 0 0.0056803622)
(0.00013066688 0 0.0051271844)
(9.9421472e-05 0 0.0044040272)
(7.0331615e-05 0 0.0034659701)
(4.2055086e-05 0 0.002276473)
(1.2939593e-05 0 0.00076771345)
(0.0023967673 0 -0.00090296123)
(0.0023966863 0 -0.00090564463)
(0.0023965555 0 -0.00090881361)
(0.0023963562 0 -0.00091256401)
(0.0023960618 0 -0.00091699387)
(0.0023956362 0 -0.00092221133)
(0.0023950298 0 -0.00092833722)
(0.002394176 0 -0.00093549916)
(0.002392984 0 -0.00094383162)
(0.0023913328 0 -0.00095346402)
(0.0023890602 0 -0.00096451473)
(0.0023859515 0 -0.00097706674)
(0.0023817236 0 -0.00099114407)
(0.0023760076 0 -0.0010066652)
(0.0023683299 0 -0.0010233672)
(0.0023581344 0 -0.0010401862)
(0.0023447004 0 -0.0010559668)
(0.0023270883 0 -0.0010688507)
(0.0023042017 0 -0.0010760884)
(0.0022747859 0 -0.0010736636)
(0.0022374831 0 -0.0010559905)
(0.0021909375 0 -0.001015513)
(0.002133951 0 -0.00094238443)
(0.0020656562 0 -0.00082527488)
(0.0019857024 0 -0.00065190658)
(0.0018944433 0 -0.00040854583)
(0.0017929581 0 -8.7408083e-05)
(0.0016829774 0 0.00031508109)
(0.0015666156 0 0.00079819998)
(0.0014460613 0 0.0013539321)
(0.00132348 0 0.0019668276)
(0.0012009587 0 0.002615994)
(0.0010804911 0 0.0032751064)
(0.00096405669 0 0.0039186367)
(0.00085331223 0 0.004521277)
(0.0007495965 0 0.0050623157)
(0.00065381693 0 0.0055256446)
(0.00056642369 0 0.0059006959)
(0.00048745813 0 0.0061802715)
(0.00041677283 0 0.0063599905)
(0.00035371866 0 0.0064377219)
(0.00029786977 0 0.0064092543)
(0.0002485153 0 0.0062717077)
(0.00020494571 0 0.0060129236)
(0.00016622847 0 0.0056224003)
(0.00013165198 0 0.0050820031)
(0.00010024687 0 0.0043703697)
(7.0979145e-05 0 0.0034436664)
(4.2499788e-05 0 0.002264016)
(1.3115618e-05 0 0.00076400755)
(0.0023908265 0 -0.0011822674)
(0.002390728 0 -0.0011851542)
(0.0023905756 0 -0.0011885668)
(0.0023903493 0 -0.001192606)
(0.0023900216 0 -0.0011973772)
(0.0023895546 0 -0.0012029984)
(0.0023888966 0 -0.001209601)
(0.0023879784 0 -0.0012173265)
(0.002386706 0 -0.0012263251)
(0.0023849539 0 -0.0012367455)
(0.0023825548 0 -0.001248726)
(0.002379287 0 -0.0012623753)
(0.0023748587 0 -0.0012777466)
(0.0023688904 0 -0.0012948038)
(0.0023609268 0 -0.0013130822)
(0.0023503976 0 -0.0013315059)
(0.0023365349 0 -0.0013490959)
(0.0023184025 0 -0.0013639609)
(0.0022948944 0 -0.0013732572)
(0.0022647553 0 -0.0013728751)
(0.0022266438 0 -0.0013570415)
(0.0021792477 0 -0.0013179537)
(0.0021214383 0 -0.0012453536)
(0.0020524323 0 -0.0011276862)
(0.0019720177 0 -0.00095228084)
(0.0018806044 0 -0.00070680269)
(0.0017794419 0 -0.00038099093)
(0.0016702501 0 2.703167e-05)
(0.0015551566 0 0.00051666991)
(0.0014362374 0 0.001079893)
(0.001315507 0 0.0017012879)
(0.0011948882 0 0.0023602766)
(0.0010762442 0 0.0030311533)
(0.00096140722 0 0.0036874283)
(0.00085197995 0 0.004304306)
(0.00074928202 0 0.0048608791)
(0.00065423956 0 0.0053406888)
(0.00056733386 0 0.0057324473)
(0.0004886649 0 0.0060292684)
(0.00041811566 0 0.0062260398)
(0.00035511145 0 0.0063202835)
(0.00029922682 0 0.0063076811)
(0.00024979091 0 0.0061849771)
(0.00020610218 0 0.0059404477)
(0.00016726528 0 0.0055633204)
(0.0001325538 0 0.0050356046)
(0.00010101201 0 0.0043355158)
(7.1586643e-05 0 0.0034202427)
(4.2921336e-05 0 0.0022507437)
(1.3282992e-05 0 0.00076000853)
(0.0023837777 0 -0.0014555333)
(0.0023836595 0 -0.0014586195)
(0.0023834829 0 -0.0014622685)
(0.0023832267 0 -0.00146659)
(0.0023828618 0 -0.0014716986)
(0.0023823487 0 -0.0014777217)
(0.0023816336 0 -0.0014848025)
(0.0023806442 0 -0.0014930948)
(0.002379283 0 -0.0015027631)
(0.00237742 0 -0.001513972)
(0.0023748818 0 -0.0015268787)
(0.0023714396 0 -0.001541611)
(0.002366792 0 -0.0015582414)
(0.002360563 0 -0.0015767455)
(0.0023522998 0 -0.0015964255)
(0.0023413954 0 -0.001616575)
(0.0023270698 0 -0.0016360144)
(0.0023083755 0 -0.0016528339)
(0.0022841972 0 -0.0016641581)
(0.0022532821 0 -0.0016657565)
(0.0022143096 0 -0.0016516685)
(0.0021660185 0 -0.0016138614)
(0.0021073587 0 -0.0015414803)
(0.0020376295 0 -0.0014229334)
(0.0019567514 0 -0.0012451144)
(0.001865247 0 -0.00099653698)
(0.0017644513 0 -0.00066641395)
(0.0016561215 0 -0.00025277928)
(0.001542388 0 0.00024333464)
(0.0014251984 0 0.00081383758)
(0.0013064396 0 0.0014440181)
(0.0011878257 0 0.0021124427)
(0.0010710917 0 0.0027943895)
(0.00095793114 0 0.0034625464)
(0.00084990812 0 0.0040926442)
(0.00074831704 0 0.0046637042)
(0.00065409643 0 0.0051589933)
(0.00056776189 0 0.0055665279)
(0.00048946653 0 0.0058794347)
(0.00041912316 0 0.0060926427)
(0.00035622654 0 0.00620291)
(0.00030035803 0 0.0062057595)
(0.00025088445 0 0.0060976079)
(0.00020711499 0 0.0058670745)
(0.00016818943 0 0.0055031693)
(0.00013337076 0 0.0049880265)
(0.00010171506 0 0.0042995166)
(7.2152891e-05 0 0.0033957434)
(4.3318872e-05 0 0.0022366765)
(1.3441566e-05 0 0.00075572526)
(0.002375652 0 -0.0017228874)
(0.002375512 0 -0.001726177)
(0.0023753085 0 -0.0017300696)
(0.0023750192 0 -0.0017346796)
(0.0023746134 0 -0.0017401294)
(0.0023740497 0 -0.0017465554)
(0.0023732718 0 -0.0017541117)
(0.0023722045 0 -0.0017629654)
(0.0023707462 0 -0.0017732961)
(0.0023687621 0 -0.0017852867)
(0.0023660726 0 -0.0017991141)
(0.002362441 0 -0.0018149298)
(0.0023575571 0 -0.0018328346)
(0.0023510527 0 -0.0018526356)
(0.002342464 0 -0.0018738008)
(0.0023311544 0 -0.0018956153)
(0.0023163299 0 -0.0019168618)
(0.0022970299 0 -0.0019356117)
(0.0022721311 0 -0.0019489208)
(0.0022403862 0 -0.0019524389)
(0.0022005016 0 -0.0019399692)
(0.0021513074 0 -0.0019025627)
(0.0020917804 0 -0.0018300212)
(0.0020213206 0 -0.0017103232)
(0.0019399657 0 -0.0015304162)
(0.0018484271 0 -0.0012777336)
(0.0017480261 0 -0.00094362111)
(0.0016406511 0 -0.00052433038)
(0.0015283717 0 -2.1779772e-05)
(0.0014130525 0 0.00055657257)
(0.0012963654 0 0.0011954481)
(0.0011798267 0 0.0018728784)
(0.0010650544 0 0.0025644922)
(0.00095364708 0 0.0032435659)
(0.00084711044 0 0.0038858945)
(0.00074671089 0 0.0044704659)
(0.00065339607 0 0.0049803139)
(0.00056771262 0 0.0054031703)
(0.00048986304 0 0.0057313355)
(0.00041979395 0 0.0059599818)
(0.00035706165 0 0.0060857653)
(0.00030126025 0 0.0061036353)
(0.00025179275 0 0.0060097252)
(0.00020798085 0 0.0057929118)
(0.00016899803 0 0.005442037)
(0.00013410021 0 0.0049393412)
(0.00010235449 0 0.0042623973)
(7.2676465e-05 0 0.0033701843)
(4.369169e-05 0 0.002221829)
(1.3591278e-05 0 0.00075115874)
(0.0023664796 0 -0.001984448)
(0.0023663158 0 -0.001987938)
(0.002366083 0 -0.0019920679)
(0.0023657575 0 -0.0019969606)
(0.0023653072 0 -0.0020027467)
(0.0023646884 0 -0.0020095727)
(0.0023638422 0 -0.0020176038)
(0.0023626899 0 -0.00202702)
(0.0023611259 0 -0.0020380152)
(0.00235901 0 -0.0020507884)
(0.0023561555 0 -0.002065535)
(0.002352317 0 -0.0020824266)
(0.002347184 0 -0.0021015995)
(0.0023403919 0 -0.0021226855)
(0.002331449 0 -0.0021453119)
(0.0023197013 0 -0.0021687528)
(0.0023043392 0 -0.0021917758)
(0.0022843874 0 -0.0022124106)
(0.0022587148 0 -0.0022276838)
(0.0022260875 0 -0.0022330519)
(0.0021852979 0 -0.0022214124)
(0.0021351769 0 -0.0021840605)
(0.0020747351 0 -0.0021109993)
(0.0020035217 0 -0.0019898105)
(0.0019217174 0 -0.0018075286)
(0.0018301627 0 -0.0015510848)
(0.0017302178 0 -0.0012127244)
(0.0016238979 0 -0.0007876837)
(0.0015132326 0 -0.00027787571)
(0.0013998951 0 0.00030852562)
(0.0012853217 0 0.00095527175)
(0.0011709157 0 0.0016409499)
(0.0010581686 0 0.0023414162)
(0.00094858445 0 0.0030304892)
(0.00084360908 0 0.0036841019)
(0.00074447953 0 0.0042812428)
(0.00065214879 0 0.0048047483)
(0.00056719226 0 0.0052420886)
(0.00048985824 0 0.0055851164)
(0.00042012694 0 0.005828179)
(0.0003576166 0 0.0059689561)
(0.00030193242 0 0.0060014018)
(0.00025251423 0 0.0059214034)
(0.00020869798 0 0.005718022)
(0.00016968946 0 0.0053799707)
(0.0001347407 0 0.0048895865)
(0.0001029285 0 0.0042242111)
(7.315614e-05 0 0.0033436107)
(4.4038888e-05 0 0.0022062223)
(1.3731933e-05 0 0.00074631823)
(0.0023562959 0 -0.0022403365)
(0.002356106 0 -0.0022440281)
(0.002355841 0 -0.0022483975)
(0.0023554759 0 -0.0022535747)
(0.0023549767 0 -0.0022596984)
(0.0023542975 0 -0.0022669248)
(0.0023533766 0 -0.0022754302)
(0.0023521318 0 -0.0022854063)
(0.0023504529 0 -0.002297062)
(0.0023481939 0 -0.0023106114)
(0.0023451612 0 -0.0023262659)
(0.0023411006 0 -0.002344209)
(0.0023357038 0 -0.0023645741)
(0.0023286036 0 -0.0023869748)
(0.0023192789 0 -0.0024110592)
(0.0023070597 0 -0.0024361077)
(0.0022911195 0 -0.0024608668)
(0.0022704671 0 -0.0024833475)
(0.0022439656 0 -0.0025005669)
(0.0022104616 0 -0.0025071046)
(0.0021687357 0 -0.0024959819)
(0.0021176027 0 -0.0024589532)
(0.0020562204 0 -0.0023851348)
(0.0019842559 0 -0.0022621199)
(0.0019020555 0 -0.0020764609)
(0.0018104919 0 -0.0018164898)
(0.0017111298 0 -0.0014730694)
(0.0016060053 0 -0.0010419411)
(0.0014970872 0 -0.00052437556)
(0.0013857677 0 6.9389354e-05)
(0.001273359 0 0.00072340025)
(0.0011611378 0 0.0014166162)
(0.0010504728 0 0.0021251611)
(0.00094277409 0 0.0028233626)
(0.00083942788 0 0.0034873523)
(0.00074163987 0 0.0040961529)
(0.00065036596 0 0.004632438)
(0.00056620734 0 0.0050834366)
(0.00048945393 0 0.0054405981)
(0.00042012436 0 0.0056977254)
(0.00035789054 0 0.0058526372)
(0.00030237253 0 0.0058991968)
(0.00025304652 0 0.0058327642)
(0.00020926366 0 0.0056425105)
(0.00017026118 0 0.0053170599)
(0.00013528979 0 0.0048388355)
(0.00010343561 0 0.0041849844)
(7.3590512e-05 0 0.0033160396)
(4.4359733e-05 0 0.0021898717)
(1.3863458e-05 0 0.00074120504)
(0.0023451266 0 -0.002490669)
(0.0023449081 0 -0.0024945616)
(0.0023446082 0 -0.0024991705)
(0.0023442001 0 -0.0025046321)
(0.0023436479 0 -0.0025110938)
(0.0023429033 0 -0.002518721)
(0.0023419016 0 -0.0025277015)
(0.0023405566 0 -0.0025382406)
(0.0023387533 0 -0.0025505624)
(0.0023363394 0 -0.0025648995)
(0.0023331137 0 -0.0025814873)
(0.0023288126 0 -0.0026005453)
(0.0023231397 0 -0.0026220018)
(0.0023157116 0 -0.0026456674)
(0.0023059778 0 -0.0026711765)
(0.0022932526 0 -0.0026977916)
(0.0022766924 0 -0.0027242434)
(0.0022552894 0 -0.0027484728)
(0.0022279509 0 -0.0027672163)
(0.0021935421 0 -0.0027746107)
(0.0021507864 0 -0.0027643015)
(0.0020986028 0 -0.0027273897)
(0.0020362635 0 -0.0026525002)
(0.0019635555 0 -0.0025273411)
(0.0018809922 0 -0.0023378469)
(0.0017895252 0 -0.0020734255)
(0.0016908419 0 -0.0017248261)
(0.0015870892 0 -0.0012864565)
(0.0014799747 0 -0.00076168353)
(0.0013707201 0 -0.00016104698)
(0.0012605244 0 0.00049966474)
(0.0011505362 0 0.0011997555)
(0.0010420043 0 0.0019156469)
(0.00093624701 0 0.0026221529)
(0.00083459103 0 0.0032956551)
(0.00073821007 0 0.0039152413)
(0.00064806008 0 0.004463454)
(0.00056476613 0 0.0049273028)
(0.00048865669 0 0.0052978726)
(0.00041978948 0 0.0055687414)
(0.00035788273 0 0.0057369063)
(0.00030258041 0 0.0057971068)
(0.00025338872 0 0.0057438789)
(0.00020967655 0 0.0055664381)
(0.00017071181 0 0.0052533521)
(0.00013574614 0 0.0047871264)
(0.00010387409 0 0.0041447724)
(7.3978337e-05 0 0.0032875169)
(4.4653273e-05 0 0.0021727988)
(1.3985616e-05 0 0.00073582877)
(0.0023329989 0 -0.0027355594)
(0.0023327496 0 -0.002739654)
(0.0023324119 0 -0.002744503)
(0.0023319573 0 -0.0027502498)
(0.0023313478 0 -0.0027570497)
(0.0023305326 0 -0.0027650779)
(0.0023294435 0 -0.0027745328)
(0.0023279904 0 -0.0027856322)
(0.0023260527 0 -0.0027986147)
(0.0023234715 0 -0.0028137293)
(0.0023200363 0 -0.0028312295)
(0.002315487 0 -0.0028513712)
(0.0023095298 0 -0.0028739261)
(0.0023017452 0 -0.002898845)
(0.0022915707 0 -0.0029257556)
(0.0022783024 0 -0.0029539174)
(0.0022610792 0 -0.0029820289)
(0.0022388871 0 -0.0030080384)
(0.0022106955 0 -0.0030277006)
(0.0021753042 0 -0.0030361385)
(0.0021314668 0 -0.0030264787)
(0.0020781998 0 -0.0029894681)
(0.0020148981 0 -0.0029130983)
(0.0019415073 0 -0.0027848543)
(0.0018585961 0 -0.002591701)
(0.001767326 0 -0.0023218604)
(0.0016694661 0 -0.0019674767)
(0.0015672161 0 -0.0015216431)
(0.0014619482 0 -0.00098999384)
(0.0013548054 0 -0.00038293897)
(0.0012468687 0 0.00028394706)
(0.0011391569 0 0.00099029245)
(0.0010328029 0 0.0017128389)
(0.0009290357 0 0.0024268691)
(0.00082912437 0 0.0031090594)
(0.00073420929 0 0.003738592)
(0.00064524484 0 0.0042979064)
(0.00056287742 0 0.004773815)
(0.00048747176 0 0.0051570744)
(0.0004191229 0 0.0054410571)
(0.00035759347 0 0.0056218983)
(0.00030255511 0 0.0056952608)
(0.00025353922 0 0.0056548647)
(0.00020993449 0 0.0054899074)
(0.00017103914 0 0.0051889357)
(0.00013610755 0 0.0047345329)
(0.00010424249 0 0.0041036024)
(7.4318235e-05 0 0.003258061)
(4.4918756e-05 0 0.0021550199)
(1.4098331e-05 0 0.00073019161)
(0.0023199404 0 -0.0029751188)
(0.002319658 0 -0.002979415)
(0.0023192795 0 -0.0029845034)
(0.0023187748 0 -0.0029905344)
(0.0023181037 0 -0.0029976716)
(0.0023172126 0 -0.0030060988)
(0.00231603 0 -0.0030160254)
(0.002314461 0 -0.0030276813)
(0.0023123797 0 -0.0030413173)
(0.0023096204 0 -0.0030571947)
(0.0023059642 0 -0.0030755745)
(0.0023011538 0 -0.003096705)
(0.0022948891 0 -0.0031204097)
(0.0022867235 0 -0.0031465963)
(0.0022760772 0 -0.0031749042)
(0.0022622281 0 -0.0032045734)
(0.0022442947 0 -0.0032342732)
(0.0022212987 0 -0.0032617547)
(0.0021922093 0 -0.0032824693)
(0.0021557654 0 -0.0032917773)
(0.0021107933 0 -0.0032825982)
(0.002056462 0 -0.0032446234)
(0.0019922233 0 -0.0031663598)
(0.0019181616 0 -0.0030346095)
(0.0018349454 0 -0.0028374071)
(0.0017439301 0 -0.0025625758)
(0.0016471366 0 -0.0022004937)
(0.0015464257 0 -0.0017477577)
(0.0014430559 0 -0.0012095689)
(0.0013380725 0 -0.00059651366)
(0.0012324388 0 7.6058803e-05)
(0.0011270428 0 0.00078808082)
(0.0010229059 0 0.0015166307)
(0.0009211718 0 0.002237448)
(0.00082305323 0 0.0029275441)
(0.00072965713 0 0.0035662201)
(0.00064193442 0 0.0041358383)
(0.00056055109 0 0.0046230374)
(0.00048590561 0 0.0050182773)
(0.00041812852 0 0.0053147574)
(0.00035702472 0 0.0055076907)
(0.00030229737 0 0.0055937367)
(0.00025349776 0 0.0055657885)
(0.0002100366 0 0.0054129765)
(0.00017124205 0 0.0051238575)
(0.00013637278 0 0.0046810932)
(0.0001045392 0 0.0040615316)
(7.460898e-05 0 0.0032277192)
(4.5155204e-05 0 0.0021365575)
(1.4201313e-05 0 0.00072430285)
(0.0023059771 0 -0.0032094565)
(0.002305659 0 -0.003213955)
(0.0023052367 0 -0.0032192842)
(0.0023046783 0 -0.0032256009)
(0.0023039412 0 -0.0032330769)
(0.0023029687 0 -0.0032419061)
(0.0023016855 0 -0.0032523089)
(0.0022999922 0 -0.0032645281)
(0.0022977565 0 -0.0032788316)
(0.0022948049 0 -0.0032955023)
(0.0022909095 0 -0.0033148341)
(0.0022858266 0 -0.003336883)
(0.002279238 0 -0.0033616659)
(0.0022706672 0 -0.0033890736)
(0.0022595183 0 -0.0034187357)
(0.0022450496 0 -0.0034498921)
(0.0022263687 0 -0.0034812128)
(0.0022025517 0 -0.0035096466)
(0.0021724925 0 -0.0035315069)
(0.0021349421 0 -0.0035415456)
(0.0020888448 0 -0.003532235)
(0.0020334521 0 -0.0034928328)
(0.0019682593 0 -0.0034122391)
(0.0018935205 0 -0.0032771312)
(0.0018100989 0 -0.0030749429)
(0.0017195077 0 -0.0027943312)
(0.001623897 0 -0.0024245367)
(0.0015247678 0 -0.001965053)
(0.0014233511 0 -0.0014206147)
(0.0013205745 0 -0.00080194569)
(0.0012172852 0 -0.0001241399)
(0.0011142396 0 0.00059301899)
(0.0010123534 0 0.0013269591)
(0.00091268864 0 0.002053867)
(0.0008164047 0 0.0027511261)
(0.00072457443 0 0.0033981775)
(0.00063814422 0 0.0039773306)
(0.00055779775 0 0.0044750715)
(0.00048396514 0 0.0048815949)
(0.00041681022 0 0.0051899663)
(0.00035618103 0 0.0053946864)
(0.00030180734 0 0.0054926546)
(0.00025326353 0 0.0054767618)
(0.00020998128 0 0.0053357445)
(0.0001713187 0 0.0050582047)
(0.00013653989 0 0.0046268814)
(0.00010476281 0 0.0040185882)
(7.4849195e-05 0 0.0031965105)
(4.5361847e-05 0 0.0021174293)
(1.4294491e-05 0 0.00071816597)
(0.0022911375 0 -0.0034386795)
(0.002290781 0 -0.0034433803)