/*--------------------------------*- C++ -*----------------------------------*\
  =========                 |
  \\      /  F ield         | OpenFOAM: The Open Source CFD Toolbox
   \\    /   O peration     | Website:  https://openfoam.org
    \\  /    A nd           | Version:  8
     \\/     M anipulation  |
\*---------------------------------------------------------------------------*/
FoamFile
{
    version     2.0;
    format      ascii;
    class       volScalarField;
    location    "0.120004";
    object      Ma;
}
// * * * * * * * * * * * * * * * * * * * * * * * * * * * * * * * * * * * * * //

dimensions      [0 0 0 0 0 0 0];

internalField   nonuniform List<scalar> 
20000
(
0.7702342
0.89756267
0.97977026
1.0509848
1.1189215
1.1859822
1.2344816
1.2457674
1.2395029
1.2418528
1.2368238
1.2370239
1.2324978
1.2307709
1.2259242
1.222138
1.2161048
1.209851
1.2016377
1.192164
1.1805358
1.1666879
1.1501177
1.1304144
1.1072674
1.0803304
1.0496866
1.0157581
0.97975377
0.94348087
0.90915232
0.87850629
0.85240817
0.83090916
0.81358795
0.79984658
0.78905442
0.78064637
0.7741178
0.76901896
0.7650933
0.76210901
0.75983843
0.75818356
0.75679739
0.754962
0.75316497
0.75213882
0.75273235
0.75173925
0.77127804
0.89910479
0.98161138
1.0531332
1.1214225
1.189103
1.234444
1.2443909
1.2378596
1.2402591
1.2350755
1.2352562
1.230617
1.2288167
1.2238279
1.2198913
1.2136833
1.2072042
1.1987527
1.1889712
1.1770153
1.162783
1.1458114
1.125698
1.1021851
1.075012
1.04438
1.0108505
0.97565325
0.94043147
0.90708891
0.87718782
0.85159156
0.83041153
0.81329467
0.79968944
0.78897815
0.78062178
0.77412007
0.76903557
0.76511623
0.76213083
0.7598626
0.75821819
0.7568148
0.75469186
0.75284048
0.75220273
0.75246402
0.75194178
0.77099873
0.89944164
0.98251256
1.0545771
1.1233877
1.1918973
1.2339564
1.2426626
1.2360245
1.2384956
1.2331646
1.233342
1.2285723
1.2266833
1.2215636
1.2174692
1.2110955
1.2043872
1.1957035
1.185614
1.1733368
1.1587147
1.1413335
1.1207791
1.0968508
1.0693513
1.0386047
1.0053008
0.97071904
0.93640513
0.90403983
0.87498838
0.85003887
0.82932488
0.81253782
0.79917599
0.78863793
0.78039939
0.77396981
0.76893385
0.76504692
0.76207828
0.75983116
0.75821523
0.75675839
0.75441834
0.75277165
0.75221143
0.75235304
0.75199798
0.77084511
0.89996336
0.98356229
1.0561317
1.1253945
1.19466
1.233139
1.2408873
1.2340381
1.2365563
1.2310785
1.2312318
1.2263369
1.2243554
1.2191032
1.2148472
1.2083048
1.2013613
1.1924384
1.18203
1.1694177
1.1543867
1.1365719
1.1155447
1.0911624
1.0632896
1.0323745
0.99923476
0.96521265
0.93177905
0.90041577
0.87229395
0.8481011
0.82795667
0.81158405
0.79852658
0.78820408
0.78011311
0.77377816
0.76880588
0.76496127
0.7620163
0.75979646
0.7582058
0.7566569
0.75418649
0.75269563
0.75220479
0.75224506
0.75206473
0.77062219
0.90036645
0.98448874
1.0575805
1.1272948
1.1972331
1.2319237
1.2388804
1.2318771
1.2344328
1.22882
1.2289417
1.2239236
1.2218405
1.2164561
1.2120282
1.2053125
1.1981218
1.1889499
1.1782094
1.1652476
1.1497891
1.1315161
1.1099868
1.0851151
1.0568308
1.0257077
0.99268765
0.95917431
0.92658154
0.89622481
0.86908735
0.84573536
0.82625099
0.81037349
0.79768603
0.78763062
0.77972474
0.77351237
0.76862416
0.7648365
0.76192613
0.75974524
0.75817726
0.75648714
0.7540063
0.75264563
0.75217982
0.7521857
0.75210704
0.77039003
0.90075263
0.98539007
1.0590149
1.1291809
1.1995923
1.2303561
1.2367258
1.2295591
1.2321423
1.2263946
1.226475
1.2213348
1.2191411
1.2136224
1.2090123
1.2021161
1.1946653
1.1852321
1.1741438
1.1608122
1.1449018
1.1261411
1.104078
1.0786841
1.049962
1.0186145
0.98570456
0.95269084
0.92093264
0.89159391
0.86548132
0.84303358
0.82427861
0.80895998
0.79669458
0.78694659
0.77925593
0.77318925
0.7684019
0.76468309
0.761817
0.75968552
0.75813425
0.75626798
0.75385425
0.75258798
0.75215309
0.75214568
0.75214327
0.77009194
0.90106491
0.98621637
1.0603915
1.1310274
1.2017459
1.2284264
1.2343961
1.2270814
1.2296849
1.2238095
1.2238403
1.2185801
1.2162659
1.2106104
1.205806
1.1987215
1.1909973
1.18129
1.169837
1.156114
1.1397261
1.1204474
1.0978196
1.0718738
1.0426948
1.0111188
0.97832495
0.94581562
0.9148941
0.88658432
0.86152656
0.8400305
0.82206009
0.80735364
0.79555633
0.786153
0.778706
0.772807
0.76813688
0.76449875
0.76168747
0.75961626
0.75807587
0.75602062
0.75371118
0.75252965
0.75212738
0.75212748
0.75217351
0.76980248
0.90135196
0.9870071
1.0617473
1.1328805
1.2036653
1.2262231
1.2319221
1.2244642
1.2270763
1.2210757
1.2210463
1.2156663
1.2132206
1.2074248
1.202414
1.1951328
1.1871221
1.1771271
1.1652911
1.1511527
1.1342596
1.1144313
1.0912079
1.0646837
1.0350376
1.0032427
0.97058811
0.93860624
0.90853746
0.88127092
0.8572907
0.83678069
0.8196359
0.80558304
0.79429091
0.78526306
0.77808394
0.77237177
0.76783327
0.76428646
0.76154043
0.75953899
0.7580022
0.75575891
0.75356739
0.7524679
0.75210376
0.75211799
0.75220159
0.76952311
0.90162659
0.98777762
1.063086
1.1347615
1.2053063
1.2238662
1.2293015
1.2217096
1.2243192
1.2181981
1.218098
1.212599
1.2100105
1.2040705
1.1988413
1.1913553
1.1830452
1.1727474
1.1605079
1.1459278
1.1285012
1.1080918
1.0842428
1.0571181
1.0270029
0.99501021
0.96253048
0.93111031
0.90191817
0.87571122
0.85282619
0.83332661
0.81703735
0.80366974
0.7929127
0.78428617
0.77739578
0.77188723
0.76749323
0.76404753
0.76137693
0.759453
0.75790966
0.7554905
0.7534227
0.75240545
0.7520816
0.7521145
0.75222863
0.76922023
0.90188165
0.98854156
1.0644198
1.1367016
1.2066257
1.2212752
1.226544
1.2188261
1.2214207
1.2151829
1.2150009
1.209383
1.2066397
1.2005515
1.1950924
1.1873935
1.1787701
1.1681522
1.155487
1.1404376
1.1224485
1.101426
1.0769231
1.0491804
1.0186035
0.98644603
0.95418859
0.92337472
0.89509023
0.86996107
0.84818483
0.82971169
0.81429794
0.80163807
0.79143875
0.78323399
0.77664944
0.77135865
0.76712014
0.76378439
0.76119852
0.75935643
0.75779185
0.75522156
0.7532791
0.75234324
0.75206056
0.75211394
0.7522556
0.76889519
0.90211306
0.98928275
1.0657424
1.1387154
1.2075643
1.2184904
1.2236512
1.2158162
1.2183847
1.2120341
1.2117585
1.2060217
1.2031118
1.1968717
1.1911718
1.1832512
1.1742989
1.1633409
1.1502257
1.134678
1.1160971
1.0944297
1.0692463
1.040874
1.0098525
0.97757468
0.94559696
0.91544161
0.8881006
0.86406855
0.8434116
0.82597423
0.81144776
0.7995103
0.78988498
0.7821176
0.77585249
0.77079108
0.76671726
0.76349942
0.76100668
0.75924575
0.75763968
0.75495801
0.75313914
0.75228295
0.75204121
0.75211523
0.75228329
0.76856091
0.90234587
0.99002804
1.0670632
1.140801
1.208122
1.2155276
1.2206319
1.2126863
1.2152159
1.2087554
1.2083738
1.2025182
1.1994308
1.1930358
1.1870837
1.1789302
1.169631
1.1583105
1.1447204
1.1286446
1.1094421
1.0870981
1.0612101
1.0322035
1.0007651
0.9684223
0.9367908
0.90735231
0.88099387
0.85807848
0.83854825
0.82215023
0.80851569
0.79730833
0.78826738
0.78094837
0.77501291
0.77018999
0.7662882
0.7631953
0.76080332
0.75911761
0.75744353
0.75470565
0.7530043
0.75222567
0.75202505
0.75211965
0.7523124
0.76820201
0.90257893
0.99078481
1.0683893
1.1429407
1.2082925
1.2123913
1.2174864
1.2094375
1.2119152
1.2053489
1.2048496
1.1988766
1.1956015
1.189048
1.1828307
1.1744298
1.1647635
1.1530564
1.1389654
1.1223313
1.1024768
1.0794244
1.0528108
1.0231733
0.99135665
0.95901507
0.92780411
0.89914533
0.87381031
0.85203063
0.83363181
0.81827195
0.80552798
0.79505243
0.78660108
0.7797373
0.77413851
0.76956081
0.76583664
0.76287473
0.76059016
0.75896995
0.75719842
0.75446818
0.75287484
0.75217201
0.75201436
0.75212924
0.75234328
0.76780695
0.90281086
0.99155533
1.069719
1.1450963
1.207984
1.2091105
1.2142176
1.2060728
1.2084866
1.2018189
1.2011911
1.1951022
1.191629
1.1849108
1.178412
1.1697465
1.1596915
1.147573
1.1329553
1.1157316
1.0951939
1.0714016
1.0440456
1.0137899
0.98164552
0.94938152
0.91867189
0.89085855
0.86658813
0.84596187
0.82869627
0.81436897
0.80250896
0.79276169
0.78490057
0.77849508
0.77323702
0.768909
0.76536643
0.7625407
0.76036888
0.75880262
0.75691067
0.75424243
0.75274993
0.75212202
0.75200681
0.75214308
0.75237568
0.7674222
0.90306326
0.99237613
1.0710984
1.1472634
1.2072421
1.2057766
1.2108295
1.2025964
1.2049341
1.1981711
1.1974043
1.1911999
1.1875152
1.1806225
1.1738234
1.1648744
1.1544094
1.1418544
1.1266831
1.108837
1.0875837
1.0630213
1.0349114
1.0040607
0.97165123
0.93955079
0.9094285
0.88252768
0.85936224
0.83990524
0.82377182
0.81046765
0.79948051
0.7904535
0.78317931
0.77723186
0.77231589
0.76823989
0.76488143
0.76219644
0.76014159
0.75861705
0.75659399
0.75402046
0.75262889
0.75207253
0.75200145
0.75215976
0.75240894
0.7670174
0.90331473
0.99323071
1.0725304
1.1493843
1.2060437
1.2023028
1.2073277
1.1990147
1.2012648
1.194412
1.1934939
1.1871709
1.1832573
1.1761773
1.1690584
1.1598075
1.1489118
1.1358943
1.120141
1.1016385
1.0796364
1.0542751
1.0254071
0.99399643
0.96139662
0.92955434
0.90010905
0.87418779
0.85216586
0.83389136
0.818886
0.80659186
0.79646244
0.78814382
0.78144982
0.77595722
0.77138225
0.7675586
0.76438549
0.76184524
0.75991091
0.75841544
0.75625607
0.75379952
0.75251254
0.75202575
0.75199848
0.75217784
0.7524423
0.76657955
0.90356335
0.99413288
1.0740384
1.151402
1.204394
1.1987307
1.2037225
1.1953369
1.1974856
1.1905445
1.1894585
1.1830096
1.1788481
1.1715679
1.1641115
1.1545405
1.1431932
1.1296852
1.1133196
1.0941244
1.0713398
1.0451541
1.0155324
0.98360973
0.95090644
0.91942434
0.89074794
0.86587205
0.84502947
0.82794765
0.81406309
0.80276253
0.7934722
0.78584684
0.77972349
0.77468003
0.77044281
0.76687001
0.76388236
0.76149023
0.75967884
0.75819947
0.75589962
0.75358084
0.75240358
0.75198437
0.75199845
0.75219659
0.75247519
0.7661384
0.90382782
0.99510904
1.0756713
1.1532752
1.2022963
1.1950579
1.200018
1.1915645
1.1935946
1.1865623
1.1852889
1.1787066
1.1742798
1.1667888
1.1589785
1.1490688
1.1372475
1.1232184
1.1062081
1.0862828
1.062682
1.0356504
1.0052898
0.97291701
0.94020888
0.90919505
0.88138004
0.85761301
0.83798199
0.82209934
0.80932497
0.79899827
0.79052527
0.78357532
0.7780107
0.77340851
0.76950383
0.7661787
0.76337567
0.76113437
0.75944588
0.75796836
0.75552823
0.75336665
0.75230599
0.7519509
0.75200061
0.75221515
0.7525073
0.76569463
0.90410228
0.99614256
1.0774488
1.1549327
1.1997522
1.191292
1.1962094
1.1876871
1.1895797
1.1824531
1.1809745
1.1742548
1.169549
1.1618373
1.1536562
1.1433871
1.1310668
1.1164833
1.0987937
1.0780997
1.0536495
1.0257566
0.99468416
0.96193759
0.92933397
0.89890109
0.87203945
0.84944139
0.83104985
0.81636884
0.80469062
0.79531506
0.78763493
0.78134037
0.7763207
0.77215012
0.76857102
0.76548892
0.76286891
0.7607804
0.75921089
0.75771773
0.75515025
0.75315938
0.75221899
0.75192623
0.752005
0.75223311
0.75253864
0.76527399
0.90440696
0.99723698
1.0794083
1.1563138
1.1967532
1.1874228
1.1922838
1.1836896
1.1854265
1.1782081
1.1765115
1.1696538
1.1646553
1.1567113
1.1481404
1.1374882
1.1246414
1.1094674
1.0910628
1.0695606
1.0442295
1.0154676
0.98372443
0.95069526
0.91831493
0.8885786
0.86276044
0.84138706
0.82425797
0.81077655
0.80017679
0.79172676
0.78481275
0.77915172
0.77466171
0.77091161
0.76764961
0.76480463
0.7623654
0.7604306
0.75897126
0.75743966
0.75477959
0.7529618
0.7521408
0.75191006
0.75201225
0.75225101
0.75256932
0.76481326
0.90466702
0.99834476
1.0815575
1.1573153
1.1932691
1.1834259
1.1882247
1.1795634
1.181133
1.1738301
1.1719045
1.1649055
1.1595979
1.1514061
1.1424246
1.1313631
1.1179597
1.1021569
1.083
1.0606495
1.0344084
1.0047802
0.9724228
0.93921668
0.90718665
0.87826392
0.85357623
0.83347799
0.81762881
0.80534022
0.79579756
0.78824482
0.78206844
0.77701765
0.77304076
0.769699
0.76674427
0.76412945
0.76186823
0.76008681
0.75872379
0.75712462
0.75443343
0.75277789
0.75206885
0.7518999
0.75202304
0.75226981
0.75259945
0.76429138
0.90486917
0.9994338
1.0838931
1.1578535
1.1894293
1.1792938
1.1840353
1.1753204
1.1767118
1.169328
1.1671569
1.160008
1.1543713
1.1459149
1.1365006
1.1250008
1.1110082
1.0945366
1.0745891
1.0513498
1.0241744
0.9936947
0.96079644
0.92753276
0.89598674
0.86799471
0.84451997
0.82574103
0.81118296
0.80007552
0.79156497
0.78487895
0.77941024
0.77494518
0.77146388
0.7685175
0.76585915
0.76346666
0.76138038
0.75975063
0.75846634
0.75676809
0.75412555
0.75261212
0.75200238
0.75189105
0.75203563
0.75228997
0.75262909
0.76373971
0.90504681
1.0005221
1.0864524
1.1579112
1.1857206
1.1750443
1.1797361
1.1709706
1.1721687
1.1647009
1.1622629
1.1549536
1.1489681
1.1402297
1.1303587
1.1183884
1.103772
1.0865902
1.0658124
1.0416441
1.0135163
0.9822147
0.94886645
0.91567758
0.88475461
0.85780879
0.83562378
0.81820076
0.80493804
0.79499539
0.78748887
0.78163697
0.77684473
0.77293989
0.76993604
0.76737146
0.76499787
0.76281924
0.76090464
0.75942356
0.75819916
0.75638311
0.75385349
0.75246761
0.75193772
0.75187802
0.75204966
0.75231159
0.75265822
0.76319161
0.90523259
1.001611
1.0892411
1.1574443
1.1817209
1.1707076
1.1753395
1.1665119
1.1674922
1.1599363
1.1572121
1.1497347
1.1433818
1.1343418
1.1239875
1.1115111
1.0962348
1.0783004
1.0566515
1.0315154
1.0024256
0.97034887
0.93665941
0.90368968
0.8735324
0.84774521
0.82691945
0.81087995
0.79890907
0.79011045
0.78357762
0.77852549
0.77437687
0.77100606
0.76846161
0.76626439
0.76416355
0.76218979
0.76044365
0.75910725
0.75792481
0.75598973
0.75360466
0.75234405
0.75188381
0.7518606
0.75206833
0.75233447
0.75268678
0.76267431
0.90544301
1.0027051
1.0922496
1.1564239
1.1775595
1.1662622
1.170828
1.1619313
1.1626699
1.1550257
1.1519986
1.1443463
1.137606
1.1282406
1.1173729
1.1043527
1.0883794
1.0696487
1.0470862
1.0209462
0.99089683
0.9581107
0.92420679
0.89161117
0.86236384
0.83784282
0.81843685
0.80379811
0.79310774
0.78542845
0.77983777
0.77554953
0.77200947
0.76914654
0.76704457
0.76519915
0.76335872
0.76158055
0.75999974
0.75880322
0.75764619
0.7555964
0.7533743
0.75223905
0.7518433
0.75184927
0.75209268
0.75235789
0.75271499
0.76208788
0.90561116
1.0037502
1.0953805
1.1547705
1.1731514
1.1616942
1.1661874
1.1572151
1.157703
1.1499696
1.146621
1.1387825
1.1316306
1.121912
1.1104987
1.0968958
1.0801881
1.0606153
1.0370954
1.0099202
0.97892861
0.94551997
0.91154595
0.8794882
0.85129449
0.82814016
0.81020289
0.79697111
0.78754368
0.78095531
0.77627414
0.77271229
0.76974337
0.76736322
0.7656887
0.7641786
0.76258531
0.76099346
0.75957481
0.7585122
0.75736479
0.75520888
0.7531614
0.75215095
0.75181679
0.75185228
0.7521181
0.7523812
0.75274321
0.76145871
0.90577035
1.0048002
1.0986019
1.1524963
1.1687026
1.1570067
1.1614159
1.1523587
1.1525883
1.1447691
1.1410747
1.1330332
1.1254414
1.1153397
1.1033486
1.0891235
1.0716421
1.0511784
1.0266563
0.99842262
0.96652455
0.9326025
0.8987192
0.86736937
0.84037011
0.81867247
0.80223797
0.79040985
0.78222552
0.77669622
0.77288901
0.77001374
0.76757794
0.76565789
0.76439683
0.76320616
0.76184453
0.76043007
0.75916994
0.75823308
0.75707888
0.75483227
0.75296838
0.7520784
0.75180198
0.75186565
0.75214248
0.75240456
0.75277168
0.76079533
0.90594645
1.0058834
1.1018078
1.1496069
1.1640756
1.1521953
1.1565088
1.1473619
1.1473162
1.1394123
1.1353481
1.1270833
1.1190221
1.1085068
1.0959062
1.0810178
1.0627207
1.0413141
1.0157459
0.98644197
0.95369472
0.91939135
0.88577441
0.85530621
0.8296358
0.80946868
0.79455415
0.78412168
0.77716315
0.77265795
0.76968205
0.76744999
0.76551332
0.76403369
0.76316947
0.76228574
0.76113722
0.75989162
0.75878525
0.75796157
0.75678155
0.75447411
0.75279794
0.75202177
0.7517958
0.7518831
0.75216661
0.75242868
0.75280058
0.76005739
0.90612467
1.0070282
1.1048353
1.1462642
1.1593148
1.1472641
1.1514644
1.142222
1.1418857
1.1338822
1.1294216
1.1209159
1.1123572
1.101398
1.0881553
1.0725594
1.0534002
1.0309959
1.0043412
0.97397087
0.9404559
0.90592605
0.87276366
0.84335135
0.819132
0.8005467
0.78715557
0.77811398
0.77236724
0.76884857
0.76665055
0.7650141
0.76355264
0.7624955
0.76200378
0.76141967
0.76046428
0.75937901
0.75841998
0.75769025
0.75646003
0.75414498
0.75265093
0.75198043
0.75180389
0.75190345
0.75219209
0.75245419
0.75283002
0.75925565
0.9063305
1.0082918
1.1076563
1.142503
1.1544118
1.1422018
1.1462747
1.1369298
1.1362891
1.1281684
1.123278
1.1145154
1.1054333
1.093999
1.0800788
1.0637259
1.0436541
1.0201956
0.99242117
0.96100829
0.92683338
0.89225344
0.85974372
0.83155714
0.80889095
0.79191384
0.78004826
0.77240167
0.76784662
0.76527314
0.76379122
0.76270171
0.76170258
0.76104766
0.76089569
0.76060485
0.75982741
0.75889278
0.75807287
0.75741132
0.75610224
0.75385372
0.75252563
0.75195053
0.75181716
0.75192499
0.75221981
0.75248149
0.75286017
0.75835554
0.90653414
1.009663
1.1101487
1.1383185
1.149361
1.1369966
1.1409258
1.1314773
1.1305129
1.1222612
1.1169116
1.1078687
1.0982375
1.0862938
1.0716562
1.0544907
1.0334518
1.008884
0.9799678
0.94756014
0.91286051
0.87842682
0.84677388
0.8199711
0.79893217
0.78357425
0.77325505
0.76700687
0.76360573
0.76192391
0.76110139
0.76051862
0.75996543
0.75969029
0.75984657
0.75983002
0.75922912
0.75843314
0.75774245
0.75712114
0.75571122
0.75359735
0.75241824
0.75192804
0.75183274
0.75194989
0.75225007
0.75251077
0.75289116
0.75737264
0.90673637
1.0111568
1.1122234
1.1337601
1.1441621
1.131645
1.1354105
1.1258558
1.124543
1.1161402
1.1103155
1.1009649
1.0907559
1.0782633
1.0628627
1.0448235
1.0227606
0.99703241
0.96696823
0.93364108
0.89858
0.86450638
0.83391415
0.80863214
0.78926432
0.77554825
0.76681436
0.76195082
0.75964221
0.75878041
0.75857849
0.75847627
0.75832776
0.75842139
0.75886913
0.75908084
0.75867121
0.75800022
0.75742721
0.75682339
0.75530436
0.75336282
0.75232508
0.75191123
0.75185214
0.75198004
0.75228274
0.75254204
0.75292313
0.75633409
0.90694615
1.0127798
1.1137931
1.1288692
1.1388158
1.1261423
1.1297179
1.1200503
1.118362
1.1097902
1.1034743
1.0937943
1.082972
1.0698828
1.0536681
1.0346901
1.0115458
0.98461381
0.95341613
0.91927515
0.88404326
0.85055696
0.82122047
0.79756622
0.77989588
0.76788224
0.76076224
0.75724454
0.75593861
0.75582353
0.75621711
0.75656884
0.75678199
0.7572398
0.75796968
0.75835593
0.75815137
0.75759442
0.75712573
0.75651812
0.75489632
0.75314302
0.75224344
0.75189975
0.75187525
0.75201305
0.75231756
0.75257534
0.75295622
0.75530258
0.90720365
1.0145282
1.1147517
1.1237017
1.1333115
1.1204733
1.1238315
1.1140418
1.1119562
1.1032012
1.0963713
1.0863433
1.0748648
1.061121
1.044038
1.0240544
0.99977294
0.97160503
0.93931372
0.90449747
0.86931081
0.8366458
0.80874148
0.78678817
0.77085998
0.76063144
0.755127
0.75287063
0.75246035
0.75305445
0.75401109
0.754782
0.75533447
0.75614223
0.75713841
0.75767102
0.75766049
0.75721654
0.75683562
0.7562086
0.75449833
0.75293807
0.75217015
0.75189368
0.75190703
0.75204693
0.75235449
0.75261075
0.75299047
0.75432481
0.90754378
1.0163667
1.1149031
1.1183113
1.1276281
1.1146185
1.1177356
1.1078206
1.1053173
1.0963655
1.0889984
1.0785846
1.0664053
1.0519418
1.0339351
1.0128787
0.98740784
0.95798811
0.92467281
0.88935391
0.85445034
0.8228381
0.7965143
0.7763115
0.76222114
0.75384126
0.74991193
0.74877334
0.74919765
0.75048046
0.7519556
0.75311073
0.75398066
0.75512312
0.75636819
0.75704361
0.75718691
0.75686677
0.75655304
0.75589205
0.75412279
0.75275156
0.75210559
0.75189069
0.75193585
0.75208108
0.75239379
0.75264831
0.75302589
0.75339511
0.90798633
1.0182339
1.1142813
1.112606
1.1217554
1.1085734
1.1114249
1.1013884
1.0984384
1.0892741
1.0813396
1.0704807
1.0575577
1.0423066
1.0233202
1.0011246
0.97441839
0.94375242
0.90951675
0.8739013
0.8395347
0.80919389
0.78456481
0.76617447
0.75405064
0.74754162
0.74506828
0.74491996
0.74616724
0.74809243
0.75004451
0.75154876
0.7527176
0.75417644
0.75565567
0.75647785
0.75672978
0.75654226
0.75627295
0.75556112
0.75378355
0.75258967
0.75205047
0.75188786
0.75196244
0.75211673
0.75243566
0.75268793
0.7530624
0.75251479
0.90857922
1.0200605
1.1128564
1.1066457
1.1156951
1.1023427
1.1048964
1.094741
1.091306
1.0819047
1.0733626
1.0619969
1.0482824
1.0321762
1.0121533
0.98875353
0.96077547
0.92889617
0.89388134
0.85820631
0.82463774
0.79576377
0.77291288
0.75645302
0.7464056
0.74172556
0.74052207
0.74132987
0.74336162
0.74588347
0.74827043
0.75009123
0.75154093
0.75329949
0.75500063
0.75596358
0.75630033
0.75623498
0.75599086
0.7552075
0.75349141
0.75245626
0.75200845
0.75189018
0.75198613
0.75215572
0.75247956
0.75272944
0.75309984
0.75173754
0.90937292
1.0217766
1.1106439
1.1004467
1.1094427
1.0959191
1.0981383
1.0878566
1.0838984
1.0742239
1.065027
1.0530966
1.0385395
1.0215096
1.000393
0.97572713
0.94645521
0.91342865
0.87781568
0.84234444
0.80983101
0.78258812
0.76159449
0.74723826
0.7393219
0.73632881
0.73625501
0.73800954
0.74077306
0.74384444
0.74662592
0.74873273
0.75044671
0.75249018
0.75440046
0.75549454
0.75590887
0.75593461
0.7557046
0.7548372
0.75324633
0.75234984
0.75198021
0.75189922
0.75200851
0.75219711
0.75252428
0.75277258
0.75313796
0.75113291
0.91040545
1.023278
1.1076087
1.0940144
1.1029812
1.0892851
1.0911268
1.0807074
1.0761783
1.0661893
1.0562916
1.0437399
1.0282905
1.0102652
0.98799602
0.96200819
0.93144134
0.89737236
0.86138151
0.82639599
0.79517885
0.76969801
0.75068862
0.73860391
0.73279473
0.73126847
0.73229419
0.73494853
0.73839121
0.74196632
0.74510331
0.74746789
0.74943091
0.75174656
0.75385144
0.75506611
0.75555689
0.75563712
0.75541999
0.75447529
0.753038
0.75226582
0.75196258
0.75191376
0.75203073
0.75224024
0.75256915
0.75281698
0.75317645
0.75065691
0.91172233
1.0244592
1.1037118
1.087339
1.0962852
1.082414
1.0838236
1.0732535
1.0681023
1.057757
1.0471171
1.0338889
1.0174958
0.99839869
0.97491662
0.94756199
0.91572783
0.88076503
0.84465304
0.81044285
0.78073711
0.7571283
0.74030656
0.73059593
0.72675556
0.72652756
0.72864374
0.73213656
0.73620555
0.74023969
0.74369499
0.74629134
0.74848986
0.75106716
0.75335258
0.75467624
0.75523455
0.75534616
0.7551359
0.75413658
0.75285929
0.75219994
0.7519506
0.75193227
0.75205492
0.75228577
0.75261416
0.75286227
0.75321504
0.7502314
0.91335857
1.0251972
1.0989136
1.0804137
1.0893165
1.0752654
1.0761822
1.065448
1.0596297
1.0488896
1.0374684
1.0235037
1.0061118
0.98586291
0.96110785
0.93235847
0.89932107
0.86365971
0.8277141
0.79456356
0.7665536
0.74495189
0.73054491
0.72322429
0.7211069
0.72213615
0.72529172
0.72956103
0.73420489
0.73865501
0.74239335
0.7451978
0.74762022
0.75045107
0.75290302
0.75432266
0.75493409
0.75506427
0.75485778
0.75382724
0.75270672
0.75215077
0.75194538
0.75195763
0.7520822
0.75233461
0.75265958
0.75290797
0.75325358
0.74983476
0.91532772
1.0253399
1.0931664
1.0732003
1.0820194
1.0677902
1.068163
1.0572527
1.0507317
1.0395571
1.0273108
1.0125356
0.99408839
0.97260788
0.94652346
0.91637579
0.88224304
0.84612477
0.81065463
0.7788308
0.75267323
0.73328861
0.72146689
0.71642802
0.71581898
0.71810151
0.72222501
0.72720907
0.73237799
0.7372028
0.74119099
0.74418233
0.74681918
0.74989758
0.75250017
0.75400053
0.75465209
0.75479387
0.75458912
0.75354821
0.75257725
0.75211618
0.75195465
0.75198425
0.75211324
0.75238519
0.75270586
0.75295305
0.75329217
0.74937925
0.91759843
1.0247114
1.0865673
1.0656484
1.0743445
1.0599584
1.0597421
1.0486497
1.0413857
1.0297271
1.0166035
1.0009281
0.98136974
0.95858181
0.93112035
0.89960389
0.8645335
0.82824237
0.79356527
0.76330986
0.73915898
0.72226389
0.71310307
0.71009794
0.71092322
0.71440937
0.7194285
0.7250672
0.73071343
0.73587361
0.74008068
0.74324017
0.74608416
0.74940553
0.75214033
0.75370559
0.75438633
0.75453551
0.75433292
0.75329987
0.75246853
0.75209082
0.75197014
0.75201517
0.75214711
0.75243635
0.75275308
0.75299662
0.75333109
0.74877994
0.92015152
1.023192
1.0797637
1.0577452
1.0662915
1.0517747
1.0509087
1.0396151
1.0315573
1.0193522
1.0052909
0.98862599
0.96789691
0.943731
0.91486105
0.88204791
0.84625134
0.81010641
0.77653378
0.74806071
0.72612586
0.71197172
0.70541375
0.70418139
0.7064322
0.71104473
0.71688659
0.72312195
0.72919996
0.73465825
0.73905547
0.74236665
0.74541248
0.74897352
0.75181956
0.75343416
0.75413464
0.75428765
0.75407902
0.75308362
0.75237943
0.75207342
0.75198842
0.75204892
0.752183
0.75248825
0.75280048
0.75303877
0.75337039
0.74792487
0.92297915
1.0207128
1.0728147
1.049545
1.057865
1.0432347
1.0416341
1.0301022
1.0211946
1.0083745
0.99330925
0.9755768
0.95360923
0.92800066
0.89771701
0.86373129
0.82747382
0.79181764
0.75964306
0.73314661
0.7137242
0.70246325
0.69829165
0.69869835
0.7023352
0.70798957
0.71458308
0.72135973
0.72782643
0.73354768
0.73810848
0.74155686
0.74480093
0.74860035
0.75153411
0.75318293
0.75389467
0.75404734
0.75381373
0.7529007
0.75230822
0.75206353
0.75201115
0.75208609
0.75222075
0.75254061
0.75284735
0.75307985
0.75340934
0.74699789
0.9260741
1.0172797
1.0650872
1.0410271
1.0490164
1.0342714
1.0318671
1.0200512
1.0102423
0.99673635
0.9806005
0.96171936
0.93844131
0.91133765
0.8796737
0.84469896
0.80829484
0.77347887
0.74297332
0.71867118
0.7020826
0.6937343
0.69165221
0.69367023
0.69861459
0.70522534
0.7125017
0.71976723
0.72658195
0.73253315
0.73723307
0.74080597
0.74424632
0.74828468
0.75128021
0.7529485
0.75366274
0.75381245
0.75354819
0.75274594
0.75225203
0.75205994
0.75203961
0.75212624
0.75226099
0.75259299
0.75289311
0.75312014
0.7534462
0.74590194
0.92917784
1.0127977
1.0567989
1.0321145
1.0396615
1.024814
1.0215403
1.0094034
0.99864465
0.98437917
0.96710962
0.94698246
0.92232186
0.89369454
0.86073546
0.82501841
0.78882073
0.75518963
0.72660291
0.70479202
0.6912831
0.68569594
0.68548772
0.68909448
0.69524947
0.70273252
0.71062608
0.71833122
0.72545586
0.73160614
0.73642283
0.74011017
0.74374776
0.74802271
0.75105342
0.75272761
0.75343709
0.75358332
0.75330455
0.75261111
0.75220804
0.75205897
0.75206797
0.75216722
0.75230557
0.75264528
0.7529374
0.75315911
0.7534817
0.74466121
0.93211523
1.0073217
1.0478945
1.0227484
1.0297525
1.0148092
1.0106068
0.99810647
0.98634345
0.97123048
0.95277315
0.93128892
0.90517704
0.87503703
0.84093185
0.80478025
0.76916672
0.73704826
0.71062692
0.69167872
0.68136021
0.67822858
0.67983292
0.68495079
0.69221794
0.70049156
0.70894026
0.71703898
0.72443791
0.73075847
0.73567197
0.73946785
0.74330966
0.74780505
0.75084834
0.75251703
0.75321671
0.75336191
0.75307886
0.75249448
0.7521736
0.75206491
0.75209563
0.75220414
0.75235744
0.75269756
0.75298016
0.75319698
0.75351509
0.74317219
0.93481177
1.0008881
1.0384935
1.0129007
1.0192456
1.0042252
0.99902859
0.98610501
0.97327115
0.95721215
0.93749607
0.91454819
0.88693849
0.85535201
0.8203202
0.78409469
0.7494504
0.71915388
0.6951996
0.67945753
0.67225528
0.6712898
0.67469619
0.68121565
0.68949687
0.69848287
0.70742855
0.71587811
0.72351816
0.72998231
0.73497552
0.73887932
0.74293946
0.74761746
0.7506595
0.7523144
0.75300195
0.75314981
0.75287665
0.75239535
0.75214682
0.75207517
0.75212173
0.75223708
0.75241335
0.75274934
0.75302147
0.75323386
0.75354653
0.74136669
0.93720391
0.99352938
1.0284287
1.0025718
1.0081151
0.99301853
0.98675048
0.97332356
0.95934259
0.94222713
0.9211564
0.89666679
0.86755462
0.83465458
0.79898637
0.76308726
0.72979046
0.70161303
0.68052045
0.66819456
0.66383748
0.66491735
0.67005468
0.67786341
0.68706289
0.69668722
0.70607581
0.7148367
0.72268706
0.72927031
0.7343294
0.73834478
0.74263497
0.74745153
0.75048271
0.75211826
0.75279356
0.75294835
0.75269726
0.75231292
0.7521283
0.75208973
0.7521489
0.75226969
0.75246935
0.75280006
0.75306154
0.75326996
0.75357611
0.73896952
0.93932618
0.98532271
1.0177248
0.99171355
0.99630692
0.98111396
0.97368657
0.95965907
0.94444641
0.92614097
0.90364176
0.87756503
0.84699922
0.8129916
0.77704196
0.74189227
0.71030912
0.68457347
0.66676014
0.65787289
0.65602889
0.65912816
0.66588297
0.67486693
0.68489246
0.69508573
0.70486729
0.71390321
0.72193539
0.72861563
0.73373022
0.73786283
0.74238471
0.74730581
0.75031499
0.75192824
0.7525935
0.75275855
0.75253965
0.75224507
0.75211355
0.75210427
0.75217786
0.75230285
0.75252585
0.75284953
0.75310065
0.75330547
0.75360406
0.73584654
0.94103669
0.97626427
1.0062947
0.9802353
0.98372063
0.96839908
0.95972036
0.94498227
0.92844987
0.90882228
0.88484943
0.85718439
0.82527578
0.79044213
0.75461984
0.7206479
0.69113425
0.66824439
0.65402903
0.64837669
0.64884527
0.65390804
0.66215109
0.67219857
0.6829625
0.69366025
0.70378902
0.71306669
0.72125447
0.72801204
0.73317503
0.73743147
0.74218017
0.74717621
0.75015456
0.75174423
0.75240555
0.75258081
0.75240274
0.7521896
0.75210401
0.75212689
0.75220872
0.75233668
0.75258324
0.75289788
0.75313908
0.75334053
0.75363054
0.73182039
0.94200006
0.96629685
0.99402741
0.96802976
0.97023296
0.95473635
0.94471192
0.9291455
0.91120847
0.89016485
0.8646976
0.83549059
0.8024197
0.76711542
0.73186821
0.69949694
0.6724144
0.65284594
0.64235715
0.63959256
0.64231607
0.64922806
0.65882758
0.66983034
0.6812504
0.69239327
0.70282756
0.71231662
0.72063602
0.72745393
0.73266117
0.73704761
0.74201334
0.7470594
0.75000058
0.75156477
0.7522231
0.75241447
0.75228718
0.75214856
0.75210106
0.75214872
0.7522421
0.75237217
0.75264017
0.7529453
0.75317706
0.7533752
0.75365569
0.72666493
0.94200245
0.95532296
0.98077071
0.95495037
0.95569821
0.93996384
0.928509
0.91200227
0.89260355
0.8700807
0.84312189
0.81247456
0.77850035
0.74314859
0.70894579
0.67859305
0.65436743
0.63854181
0.63165999
0.6315008
0.6364392
0.64505413
0.65587975
0.66773476
0.67973445
0.69126816
0.70197022
0.71164307
0.72007235
0.72693624
0.73218613
0.73670773
0.74187731
0.74695227
0.74985264
0.75139211
0.75204388
0.75225798
0.75219475
0.75211391
0.75210882
0.75217441
0.75227727
0.75241108
0.75269672
0.75299194
0.75321478
0.75340948
0.75367958
0.72011776
0.94142896
0.94318949
0.96639887
0.94082312
0.93995317
0.92391212
0.91096336
0.89342179
0.87254951
0.84848896
0.82007034
0.78815556
0.7536227
0.71870262
0.68602074
0.65810798
0.637256
0.62540704
0.62179251
0.62414541
0.63118186
0.64134915
0.65327416
0.66588461
0.67839357
0.69026896
0.70120481
0.7110365
0.7195562
0.72645444
0.7317474
0.73640776
0.74176571
0.74685166
0.74970938
0.75122969
0.7518799
0.75211189
0.75212285
0.7520941
0.75212349
0.75220123
0.7523118
0.75245598
0.75275316
0.75303795
0.75325238
0.75344333
0.75370224
0.71217274
0.94002669
0.9297086
0.95073934
0.92548367
0.92285208
0.90643463
0.89195251
0.87329665
0.85095065
0.82530799
0.7955068
0.76258841
0.72792832
0.69395859
0.66327824
0.63827384
0.62129456
0.6133918
0.61270302
0.61753557
0.62650534