/*--------------------------------*- C++ -*----------------------------------*\
  =========                 |
  \\      /  F ield         | OpenFOAM: The Open Source CFD Toolbox
   \\    /   O peration     | Website:  https://openfoam.org
    \\  /    A nd           | Version:  8
     \\/     M anipulation  |
\*---------------------------------------------------------------------------*/
FoamFile
{
    version     2.0;
    format      ascii;
    class       surfaceScalarField;
    location    "0.120004";
    object      meshPhi;
}
// * * * * * * * * * * * * * * * * * * * * * * * * * * * * * * * * * * * * * //

dimensions      [0 3 -1 0 0 0 0];

internalField   nonuniform List<scalar> 
39600
(
2.7391911e-05
1.6961051e-06
-1.6882619e-06
2.7407952e-05
2.0441578e-06
-2.0705548e-06
2.7424489e-05
2.4494808e-06
-2.4800609e-06
2.7443932e-05
2.9344132e-06
-2.970744e-06
2.7466524e-05
3.5151652e-06
-3.5583783e-06
2.7493888e-05
4.2106508e-06
-4.2620249e-06
2.7526984e-05
5.0433281e-06
-5.1044528e-06
2.7567836e-05
6.0399328e-06
-6.112817e-06
2.7620356e-05
7.2323742e-06
-7.3194497e-06
2.7688154e-05
8.6585467e-06
-8.7627424e-06
2.7775512e-05
1.0363343e-05
-1.0488216e-05
2.788435e-05
1.2399907e-05
-1.2549652e-05
2.8017508e-05
1.4830592e-05
-1.501025e-05
2.8179554e-05
1.772817e-05
-1.7943688e-05
2.840191e-05
2.117591e-05
-2.1434815e-05
2.8683421e-05
2.5267264e-05
-2.5579057e-05
2.9162104e-05
3.0104233e-05
-3.0479771e-05
2.9916329e-05
3.5788363e-05
-3.624215e-05
3.0790136e-05
4.2433776e-05
-4.2985672e-05
3.1789582e-05
5.0184691e-05
-5.0858581e-05
3.2971609e-05
5.9197145e-05
-6.0022318e-05
3.4380625e-05
6.9658137e-05
-7.067512e-05
3.6812623e-05
8.1578644e-05
-8.2841682e-05
4.1090981e-05
9.4815759e-05
-9.6412831e-05
4.8249384e-05
0.00010883979
-0.00011084778
5.667929e-05
0.00012350131
-0.00012603681
6.6703495e-05
0.00013855391
-0.00014178982
7.4760132e-05
0.00015505225
-0.00015910306
8.3789511e-05
0.00017451945
-0.00017950381
9.1381039e-05
0.00019629732
-0.0002024531
0.00010104284
0.00021973029
-0.00022732245
0.00011911139
0.00023885087
-0.00024827927
0.00014188196
0.00025166263
-0.00026314975
0.00016868599
0.00026224387
-0.00027662995
0.00019995863
0.00027469507
-0.00029305644
0.00024504208
0.0002852833
-0.00030877628
0.00029486769
0.00029233871
-0.00032250145
0.00036120935
0.00029366485
-0.00033221775
0.00043314489
0.00028397281
-0.00033251933
0.00051876942
0.00026242308
-0.00032104095
0.00061227991
0.00023416891
-0.00030465309
0.00073164281
0.0002117734
-0.00029712
0.00084842881
0.00019221799
-0.0002932577
0.00096126812
0.00017288664
-0.00028658801
0.0010377589
0.00015500195
-0.00027670258
0.0010851171
0.00014826916
-0.00027102047
0.0010848809
0.00015072906
-0.00026772952
0.00084745738
0.00014835581
-0.00024303536
0.00032864935
4.4213172e-05
-9.1551656e-05
-3.3920666e-05
2.6014866e-05
2.2023463e-05
1.6814973e-06
2.2024432e-05
2.0265491e-06
2.2022438e-05
2.4277284e-06
2.2020841e-05
2.9082726e-06
2.2022479e-05
3.4838402e-06
2.2029367e-05
4.1730255e-06
2.2044654e-05
4.9982755e-06
2.2069803e-05
5.9860664e-06
2.210757e-05
7.1682057e-06
2.2158931e-05
8.5822711e-06
2.2225921e-05
1.0272934e-05
2.2306835e-05
1.2292781e-05
2.240722e-05
1.4703556e-05
2.2532282e-05
1.7576873e-05
2.2720184e-05
2.0993883e-05
2.2981145e-05
2.504711e-05
2.3398922e-05
2.983812e-05
2.402916e-05
3.547026e-05
2.4765141e-05
4.2057802e-05
2.5617608e-05
4.9733567e-05
2.6645646e-05
5.8647707e-05
2.7925652e-05
6.8962731e-05
3.0144028e-05
8.0691035e-05
3.4046155e-05
9.3673079e-05
4.0443972e-05
0.00010742285
4.8212691e-05
0.00012171545
5.781707e-05
0.0001361729
6.5635931e-05
0.00015203021
7.4385336e-05
0.00017072674
8.1929991e-05
0.00019159304
9.1839973e-05
0.00021381216
0.0001096652
0.00023132787
0.00013169514
0.00024217084
0.00015847878
0.00025019092
0.0001892519
0.00025904946
0.00023398842
0.00026471493
0.00028316188
0.00026547299
0.00034939435
0.00025856206
0.00042121406
0.00023888441
0.00050624361
0.00020698749
0.00059893252
0.00016721235
0.00071704873
0.00013050559
0.00083505973
9.5717093e-05
0.00094690411
6.3182722e-05
0.0010271588
3.6813829e-05
0.0010730154
2.7678207e-05
0.0010790866
3.3790838e-05
0.00083841259
5.1304492e-05
0.00032560261
-6.3470771e-06
-4.3892279e-05
1.7080088e-05
1.6723425e-06
1.7153134e-05
2.0150184e-06
1.7224852e-05
2.4132419e-06
1.7282784e-05
2.8902285e-06
1.7324222e-05
3.4616628e-06
1.7353282e-05
4.1461551e-06
1.73716e-05
4.9660375e-06
1.738102e-05
5.9478095e-06
1.7381169e-05
7.1232182e-06
1.7374208e-05
8.5298725e-06
1.736388e-05
1.021239e-05
1.7353773e-05
1.2223073e-05
1.7358689e-05
1.4623275e-05
1.7394403e-05
1.7483366e-05
1.7495292e-05
2.0883576e-05
1.7685191e-05
2.4916326e-05
1.8000288e-05
2.9683e-05
1.8450564e-05
3.5289599e-05
1.899882e-05
4.1847351e-05
1.9669029e-05
4.9480525e-05
2.0511477e-05
5.8334747e-05
2.1647683e-05
6.855257e-05
2.3627641e-05
8.0149034e-05
2.7138478e-05
9.2948255e-05
3.2803087e-05
0.0001065061
3.9988251e-05
0.00012052376
4.9135735e-05
0.00013449788
5.6668289e-05
0.00014981472
6.5029377e-05
0.00016787549
7.2336529e-05
0.00018799491
8.230405e-05
0.00020916304
9.9620155e-05
0.00022530149
0.000121069
0.00023440832
0.00014735306
0.00024007962
0.00017777235
0.00024556806
0.00022178003
0.00024655409
0.00027046753
0.00024128829
0.00033619576
0.00022643459
0.00040798445
0.00019698189
0.00049203908
0.00015463523
0.00058382176
0.00010343853
0.00070102354
5.2752337e-05
0.00081998372
2.6245227e-06
0.00093110871
-4.3539298e-05
0.001013886
-7.9037194e-05
0.0010605582
-9.155188e-05
0.001071326
-8.3034326e-05
0.00082807069
-4.5887051e-05
0.00032074995
-5.7276582e-05
-5.4463168e-05
1.2369878e-05
1.6696462e-06
1.244467e-05
2.0124158e-06
1.252309e-05
2.4107431e-06
1.2595482e-05
2.8877747e-06
1.2656271e-05
3.4590022e-06
1.2706913e-05
4.1429463e-06
1.2744252e-05
4.9617683e-06
1.2764686e-05
5.9420239e-06
1.2763709e-05
7.1153645e-06
1.2738575e-05
8.5194036e-06
1.2692856e-05
1.0198864e-05
1.263047e-05
1.2206044e-05
1.2569147e-05
1.4602354e-05
1.2531036e-05
1.7457939e-05
1.2544483e-05
2.0852917e-05
1.2639131e-05
2.4880081e-05
1.2831245e-05
2.9642217e-05
1.3119628e-05
3.5245608e-05
1.3499632e-05
4.1797917e-05
1.3990955e-05
4.9420257e-05
1.4656055e-05
5.8251719e-05
1.5633398e-05
6.8420158e-05
1.7374818e-05
7.9941449e-05
2.0520084e-05
9.2622605e-05
2.5550603e-05
0.00010605587
3.2216259e-05
0.0001198707
4.088405e-05
0.00013347264
4.8091544e-05
0.00014838199
5.6027715e-05
0.00016596884
6.309067e-05
0.0001854932
7.2990663e-05
0.00020576806
8.9722628e-05
0.00022075031
0.00011061018
0.00022837042
0.00013631191
0.00023191157
0.00016634761
0.00023425143
0.00020953997
0.00023083048
0.00025771595
0.00021982176
0.00032282059
0.00019733808
0.00039444448
0.00015838591
0.00047753207
0.00010570501
0.00056843818
4.3278169e-05
0.00068494702
-2.113104e-05
0.00080457515
-8.6696982e-05
0.00091546495
-0.00014679933
0.0010003778
-0.00019200411
0.0010488853
-0.00020896864
0.0010637074
-0.00019947288
0.00081905343
-0.00014326416
0.00031625392
-0.00010865754
-6.5534703e-05
7.8804666e-06
1.6725257e-06
7.8861778e-06
2.0160296e-06
7.901525e-06
2.4152319e-06
7.9299327e-06
2.8933908e-06
7.9657223e-06
3.4660035e-06
8.0057905e-06
4.1517134e-06
8.0421167e-06
4.9727617e-06
8.067734e-06
5.9557409e-06
8.076384e-06
7.132327e-06
8.060471e-06
8.5401747e-06
8.0229327e-06
1.0223912e-05
7.9609681e-06
1.2235836e-05
7.8894421e-06
1.4637456e-05
7.8211035e-06
1.749909e-05
7.7835915e-06
2.0901274e-05
7.8003005e-06
2.4937953e-05
7.8851589e-06
2.9713325e-05
8.0468706e-06
3.5333072e-05
8.281577e-06
4.1903808e-05
8.6099e-06
4.9545533e-05
9.1052901e-06
5.8391924e-05
9.9134634e-06
6.8557306e-05
1.1423745e-05
8.0054954e-05
1.4231605e-05
9.2676841e-05
1.8710898e-05
0.00010604839
2.4912691e-05
0.00011973561
3.3075809e-05
0.00013307503
3.9883628e-05
0.0001477165
4.7370869e-05
0.00016499118
5.4190175e-05
0.00018406645
6.3943457e-05
0.00020359093
8.005555e-05
0.00021761611
0.00010037726
0.00022398948
0.00012548903
0.00022561716
0.00015509499
0.00022501804
0.00019740099
0.00021746553
0.00024501056
0.0002010204
0.0003094068
0.00017121672
0.0003807322
0.00012305294
0.0004628731
6.0231794e-05
0.00055292244
-1.316822e-05
0.00066880147
-9.1065401e-05
0.00078884821
-0.0001721043
0.00089980206
-0.00024640134
0.00098664445
-0.00030184254
0.001037722
-0.00032429733
0.001056162
-0.00031523918
0.00081113865
-0.00024079555
0.00031208585
-0.00016047805
-7.7022775e-05
3.7380874e-06
1.6808861e-06
3.7397928e-06
2.026e-06
3.74726e-06
2.4270995e-06
3.7594722e-06
2.9075702e-06
3.7689091e-06
3.4831e-06
3.7737789e-06
4.1725101e-06
3.7677876e-06
4.998259e-06
3.7485161e-06
5.9871509e-06
3.7138294e-06
7.1710787e-06
3.6600288e-06
8.5878837e-06
3.5923228e-06
1.0282356e-05
3.5066859e-06
1.230694e-05
3.4149235e-06
1.4723257e-05
3.3197175e-06
1.7601944e-05
3.2364668e-06
2.1024295e-05
3.1858981e-06
2.5085571e-05
3.1837621e-06
2.9890939e-05
3.2400155e-06
3.5546891e-05
3.3514197e-06
4.2160115e-05
3.5346245e-06
4.9850254e-05
3.8646777e-06
5.8747658e-05
4.4970265e-06
6.8954719e-05
5.7836225e-06
8.0478488e-05
8.2785277e-06
9.309702e-05
1.2283395e-05
0.00010645788
1.8064918e-05
0.00012006793
2.5700148e-05
0.00013324562
3.2045798e-05
0.0001477709
3.9074077e-05
0.00016489653
4.5651147e-05
0.00018365611
5.5208307e-05
0.00020257332
7.0686893e-05
0.00021582733
9.0437329e-05
0.00022117286
0.00011498485
0.00022108062
0.00014412021
0.0002177451
0.00018547444
0.00020634599
0.00023245382
0.00018477832
0.00029607901
0.00014798417
0.00036698996
9.0933959e-05
0.0004482037
1.8248285e-05
0.0005374002
-6.5865659e-05
0.00065263832
-0.00015701552
0.00077289963
-0.00025349447
0.00088408913
-0.00034215341
0.00097274189
-0.00040833789
0.0010269139
-0.0004373759
0.0010486622
-0.00043020453
0.00080415012
-0.00033845409
0.00030823366
-0.00021275207
-8.8857758e-05
-1.4714284e-07
1.6947791e-06
-1.5709091e-07
2.0429438e-06
-1.6735671e-07
2.4477389e-06
-1.791704e-07
2.9327341e-06
-2.0061094e-07
3.5137775e-06
-2.3160714e-07
4.2098562e-06
-2.7660958e-07
5.0436243e-06
-3.3537017e-07
6.0421109e-06
-4.0735548e-07
7.2374423e-06
-4.9460693e-07
8.6677617e-06
-5.9082667e-07
1.0378174e-05
-7.014151e-07
1.2421571e-05
-8.1688639e-07
1.486012e-05
-9.4149789e-07
1.7765279e-05
-1.0694091e-06
2.121944e-05
-1.1828659e-06
2.531906e-05
-1.2606863e-06
3.017061e-05
-1.2958697e-06
3.5882761e-05
-1.2978144e-06
4.2563533e-05
-1.2505295e-06
5.0331241e-05
-1.077077e-06
5.9312409e-05
-6.1783805e-07
6.9601456e-05
4.5244397e-07
8.1198473e-05
2.6544946e-06
9.3866411e-05
6.2533366e-06
0.00010726526
1.1651398e-05
0.00012085115
1.8735748e-05
0.00013396567
2.4567351e-05
0.00014852354
3.1134891e-05
0.00016565695
3.7468826e-05
0.00018423182
4.6795967e-05
0.00020267392
6.1641812e-05
0.00021532789
8.0812243e-05
0.00021985695
0.00010483948
0.00021823263
0.0001334787
0.00021233536
0.0001738253
0.00019736261
0.00022009828
0.000171017
0.00028290441
0.00012757502
0.00035329653
6.1968893e-05
0.00043359948
-2.0287922e-05
0.00052193475
-0.00011482126
0.00063648477
-0.00021896526
0.00075678867
-0.0003307901
0.00086830333
-0.00043394325
0.00095869859
-0.00051134156
0.0010163043
-0.00054801144
0.0010411393
-0.00054413515
0.00079787103
-0.0004361762
0.0003046589
-0.00026551235
-0.00010102404
-3.7934015e-06
1.7138401e-06
-3.8300784e-06
2.0660105e-06
-3.8761718e-06
2.4756589e-06
-3.926301e-06
2.9666097e-06
-3.985143e-06
3.55489e-06
-4.0493192e-06
4.2596762e-06
-4.1223328e-06
5.1038402e-06
-4.2038146e-06
6.1147122e-06
-4.2942904e-06
7.3247971e-06
-4.3976806e-06
8.7727033e-06
-4.5095498e-06
1.0504143e-05
-4.6387239e-06
1.2572733e-05
-4.7782842e-06
1.5041504e-05
-4.9373236e-06
1.7983014e-05
-5.1152627e-06
2.1481175e-05
-5.2916103e-06
2.563346e-05
-5.4426894e-06
3.0548416e-05
-5.5685353e-06
3.6337887e-05
-5.6837048e-06
4.3110699e-05
-5.7700022e-06
5.0984471e-05
-5.7442698e-06
6.0082099e-05
-5.4495425e-06
7.0491592e-05
-4.5822467e-06
8.2204609e-05
-2.6553918e-06
9.4974332e-05
5.836591e-07
0.00010846038
5.6311708e-06
0.00012206801
1.2155202e-05
0.00013521096
1.7433159e-05
0.00014994715
2.3540986e-05
0.00016724625
2.9623993e-05
0.00018577266
3.869662e-05
0.0002038842
5.2915961e-05
0.00021610703
7.1498312e-05
0.00022001351
9.5052505e-05
0.00021702619
0.00012319335
0.00020873456
0.00016248374
0.00019045876
0.00020797239
0.00015968473
0.00026992029
0.00010995538
0.00033970816
3.6142761e-05
0.00041911256
-5.5368277e-05
0.00050657301
-0.00016004952
0.00062038289
-0.00027692734
0.00074059075
-0.00040396198
0.00085247433
-0.00052169406
0.00094455979
-0.00061077183
0.001005828
-0.00065614703
0.001033556
-0.00065693229
0.00079216237
-0.00053383837
0.00030136402
-0.00031868975
-0.00011345696
-7.1907778e-06
1.737938e-06
-7.2364911e-06
2.0950331e-06
-7.2936269e-06
2.5103876e-06
-7.3561342e-06
3.0081377e-06
-7.4279597e-06
3.6045526e-06
-7.5060297e-06
4.3191367e-06
-7.5949711e-06
5.1752002e-06
-7.694874e-06
6.2005707e-06
-7.8075999e-06
7.428305e-06
-7.9377667e-06
8.8977704e-06
-8.0818038e-06
1.0655451e-05
-8.2498722e-06
1.2755971e-05
-8.4356338e-06
1.5263479e-05
-8.649938e-06
1.8251913e-05
-8.8908796e-06
2.1806032e-05
-9.1369125e-06
2.6025173e-05
-9.3691991e-06
3.1021565e-05
-9.5918838e-06
3.6908615e-05
-9.8225049e-06
4.3796986e-05
-1.0040543e-05
5.1804703e-05
-1.015827e-05
6.105184e-05
-1.0022276e-05
7.1620064e-05
-9.3429866e-06
8.349044e-05
-7.6733341e-06
9.6409191e-05
-4.7554425e-06
0.00011002902
-2.5942357e-08
0.00012370652
5.942157e-06
0.00013696523
1.0637974e-05
0.0001520195
1.6285321e-05
0.00016963775
2.210957e-05
0.0001882482
3.0906094e-05
0.00020616181
4.4507604e-05
0.00021811238
6.2490189e-05
0.00022159021
8.5601694e-05
0.00021742059
0.00011325092
0.00020689444
0.00015146601
0.00018555824
0.00019609514
0.00015070659
0.0002571518
9.5062305e-05
0.00032626231
1.3396805e-05
0.00040477697
-8.7045488e-05
0.00049134635
-0.00020157079
0.00060436404
-0.00033089112
0.0007243599
-0.00047295386
0.0008366268
-0.00060531887
0.00093035895
-0.00070649871
0.00099539227
-0.00076156903
0.001025845
-0.00076832314
0.00078683648
-0.00063131009
0.00029830342
-0.00037227615
-0.00012614106
-1.0349317e-05
1.766862e-06
-1.0384163e-05
2.1296295e-06
-1.0426284e-05
2.5515703e-06
-1.0476202e-05
3.0571995e-06
-1.0541508e-05
3.6631266e-06
-1.0621996e-05
4.389251e-06
-1.0723344e-05
5.2594032e-06
-1.0845668e-05
6.3019953e-06
-1.0990861e-05
7.5508674e-06
-1.1162272e-05
9.0461547e-06
-1.1355771e-05
1.0835496e-05
-1.1580314e-05
1.2974582e-05
-1.182894e-05
1.5529005e-05
-1.2109624e-05
1.8573862e-05
-1.2417311e-05
2.2194728e-05
-1.273194e-05
2.6493656e-05
-1.304673e-05
3.1586326e-05
-1.3372877e-05
3.7589841e-05
-1.3722633e-05
4.4616901e-05
-1.4072156e-05
5.2785704e-05
-1.4331711e-05
6.2214016e-05
-1.4351274e-05
7.2978803e-05
-1.3850299e-05
8.5049371e-05
-1.242308e-05
9.8167683e-05
-9.7986986e-06
0.00011197844
-5.3695229e-06
0.00012577905
6.2858403e-08
0.00013923125
4.1807547e-06
0.00015471693
9.375486e-06
0.00017277396
1.4936151e-05
0.00019158491
2.3440159e-05
0.00020943178
3.6438704e-05
0.00022125252
5.3815636e-05
0.00022446064
7.6491553e-05
0.00021926668
0.00010365916
0.00020666353
0.00014080623
0.00018249216
0.00018450903
0.0001438927
0.00024463827
8.2716749e-05
0.00031300954
-6.4324892e-06
0.00039063791
-0.00011548222
0.00047629807
-0.00023957209
0.00058847652
-0.0003810424
0.00070815731
-0.0005379205
0.00082080361
-0.00068493701
0.00091612492
-0.00079862275
0.00098493702
-0.00086434283
0.0010179458
-0.00087823514
0.00078174861
-0.00072838405
0.00029544708
-0.00042611964
-0.0001390032
-1.330572e-05
1.8007375e-06
-1.33483e-05
2.1706999e-06
-1.3400542e-05
2.6012958e-06
-1.3462919e-05
3.1174234e-06
-1.3542732e-05
3.735945e-06
-1.3639548e-05
4.4772381e-06
-1.3758924e-05
5.3654334e-06
-1.3901281e-05
6.4295581e-06
-1.4068965e-05
7.7040573e-06
-1.4266988e-05
9.2299698e-06
-1.4491237e-05
1.1055818e-05
-1.4752982e-05
1.3238783e-05
-1.5043434e-05
1.5845837e-05
-1.5369714e-05
1.8953294e-05
-1.5722063e-05
2.264853e-05
-1.6094872e-05
2.7037511e-05
-1.6493033e-05
3.2241315e-05
-1.6921712e-05
3.8379455e-05
-1.7393257e-05
4.556663e-05
-1.7874813e-05
5.3922727e-05
-1.827514e-05
6.3563034e-05
-1.8448589e-05
7.4561316e-05
-1.8120188e-05
8.6874251e-05
-1.692877e-05
0.00010024281
-1.4583103e-05
0.00011429958
-1.0444678e-05
0.00012827419
-5.5208692e-06
0.00014199632
-1.9538501e-06
0.00015802289
2.806202e-06
0.00017663093
8.104609e-06
0.00019574769
1.6310834e-05
0.00021363659
2.8728329e-05
0.00022545262
4.5500906e-05
0.0002285447
6.7725699e-05
0.00022250033
9.4409513e-05
0.00020799876
0.00013052272
0.00018119938
0.00017324724
0.00013915553
0.00023240566
7.2836879e-05
0.0002999758
-2.3399157e-05
0.00037671711
-0.00014070837
0.00046144958
-0.00027404606
0.00057274465
-0.00042733927
0.00069201471
-0.00059877828
0.00080502344
-0.00076042713
0.00090186823
-0.00088697385
0.00097440009
-0.00096419445
0.0010098039
-0.000986335
0.00077676583
-0.00082487742
0.00029275923
-0.00048021801
-0.00015206488
-1.6070975e-05
1.8391629e-06
-1.6138782e-05
2.217091e-06
-1.62249e-05
2.6572326e-06
-1.632422e-05
3.1850348e-06
-1.644083e-05
3.8178028e-06
-1.6570666e-05
4.5762842e-06
-1.6718706e-05
5.4852571e-06
-1.6884283e-05
6.5743193e-06
-1.7071086e-05
7.8786662e-06
-1.7283917e-05
9.4402479e-06
-1.7521661e-05
1.1308497e-05
-1.779669e-05
1.3541777e-05
-1.8102157e-05
1.6208157e-05
-1.8445626e-05
1.9385173e-05
-1.8830141e-05
2.3164666e-05
-1.9265992e-05
2.76583e-05
-1.9754429e-05
3.2990362e-05
-2.0285311e-05
3.9282849e-05
-2.0862968e-05
4.6650145e-05
-2.1464853e-05
5.5213993e-05
-2.1998611e-05
6.5092391e-05
-2.2319418e-05
7.6357666e-05
-2.216184e-05
8.8955351e-05
-2.1208958e-05
0.00010263287
-1.9135283e-05
0.00011700113
-1.528397e-05
0.00013122088
-1.0839428e-05
0.00014528114
-7.7868192e-06
0.00016192061
-3.4363426e-06
0.0001811754
1.6113339e-06
0.00020069492
9.5241685e-06
0.00021873077
2.1372415e-05
0.00023066656
3.7530637e-05
0.00023380044
5.9271026e-05
0.00022708792
8.5457049e-05
0.00021088344
0.00012058645
0.0001816632
0.00016231026
0.0001364409
0.00022046609
6.532473e-05
0.00028717107
-3.7611547e-05
0.00036301483
-0.00016281637
0.00044680158
-0.00030510094
0.00055717676
-0.00046990297
0.00067595091
-0.00065564036
0.00078929803
-0.0008318888
0.00088759199
-0.00097163842
0.00096374864
-0.0010611846
0.0010013841
-0.0010925455
0.00077180499
-0.00092054697
0.00029022994
-0.0005343819
-0.00016525523
-1.8675454e-05
1.8825778e-06
-1.8795674e-05
2.2705124e-06
-1.893341e-05
2.7226202e-06
-1.907466e-05
3.2646482e-06
-1.9221223e-05
3.9140376e-06
-1.9372643e-05
4.6920472e-06
-1.9533921e-05
5.6239615e-06
-1.9707291e-05
6.7399906e-06
-1.9898737e-05
8.0763361e-06
-2.0113945e-05
9.6758524e-06
-2.035685e-05
1.1589497e-05
-2.06392e-05
1.3877296e-05
-2.0959129e-05
1.6608884e-05
-2.1329829e-05
1.9865213e-05
-2.1772544e-05
2.3743701e-05
-2.2298398e-05
2.8360019e-05
-2.2884825e-05
3.3840069e-05
-2.3506551e-05
4.0303607e-05
-2.4164858e-05
4.7867256e-05
-2.4857662e-05
5.6657443e-05
-2.5506063e-05
6.6796496e-05
-2.5962989e-05
7.835891e-05
-2.5977217e-05
9.1281886e-05
-2.5269616e-05
0.00010532362
-2.3469715e-05
0.00012006959
-1.9910948e-05
0.00013460314
-1.5911122e-05
0.00014906595
-1.332148e-05
0.00016638654
-9.3448891e-06
0.00018636904
-4.5381147e-06
0.00020637793
3.0735173e-06
0.0002246646
1.4352869e-05
0.00023685066
2.9875887e-05
0.00024019503
5.1092991e-05
0.00023301937
7.6757969e-05
0.00021533031
0.00011095445
0.00018389998
0.00015167939
0.00013574954
0.00020882701
6.0153098e-05
0.00027461099
-4.9120606e-05
0.00034953291
-0.00018184008
0.00043235612
-0.00033271512
0.00054177828
-0.00050867475
0.00065998004
-0.0007084073
0.00077363502
-0.00089917885
0.00087330008
-0.0010524192
0.00095294142
-0.0011549949
0.00099264836
-0.0011965062
0.00076677346
-0.0010151888
0.00028783122
-0.00058857379
-0.00017858215
-2.1044465e-05
1.9292345e-06
-2.1161422e-05
2.3253382e-06
-2.129411e-05
2.7868721e-06
-2.1433188e-05
3.3402913e-06
-2.1581072e-05
4.0039456e-06
-2.1741511e-05
4.7997245e-06
-2.1917089e-05
5.753858e-06
-2.2112906e-05
6.8977854e-06
-2.2331755e-05
8.2685646e-06
-2.2580723e-05
9.91073e-06
-2.2863806e-05
1.1876458e-05
-2.3192458e-05
1.4227747e-05
-2.356963e-05
1.7036306e-05
-2.4017411e-05
2.0387055e-05
-2.4558733e-05
2.4381673e-05
-2.5192074e-05
2.9137503e-05
-2.5879886e-05
3.4780103e-05
-2.6576404e-05
4.1429715e-05
-2.7295201e-05
4.9205002e-05
-2.8057976e-05
5.8240842e-05
-2.8805082e-05
6.8667801e-05
-2.9391949e-05
8.0558851e-05
-2.9577953e-05
9.3847346e-05
-2.9113486e-05
0.00010830503
-2.7595029e-05
0.00012349998
-2.43289e-05
0.00013842908
-2.0722225e-05
0.00015333887
-1.8539113e-05
0.00017136548
-1.4903022e-05
0.00019212783
-1.0345736e-05
0.00021270914
-3.0548496e-06
0.00023136103
7.6586037e-06
0.00024391918
2.2534459e-05
0.00024761189
4.318948e-05
0.00024015203
6.8305759e-05
0.00022119264
0.00010161579
0.00018775703
0.00014135142
0.00013690894
0.00019749221
5.7137003e-05
0.0002623228
-5.8137878e-05
0.0003362967
-0.00019803584
0.00041813153
-0.00035717015
0.00052656966
-0.00054393528
0.00064412612
-0.00075735349
0.0007580491
-0.00096255213
0.00085899173
-0.0011295284
0.00094194473
-0.0012457661
0.00098355896
-0.0012981575
0.00076159989
-0.0011085259
0.00028554306
-0.00064256285
-0.00019196758
-2.3197962e-05
1.9807102e-06
-2.3271567e-05
2.387212e-06
-2.336254e-05
2.8609482e-06
-2.3473106e-05
3.4289901e-06
-2.3607098e-05
4.1099484e-06
-2.3767752e-05
4.9264404e-06
-2.3957356e-05
5.9053985e-06
-2.4180152e-05
7.0790339e-06
-2.4438375e-05
8.486044e-06
-2.47374e-05
1.0172101e-05
-2.5082441e-05
1.2191845e-05
-2.5481988e-05
1.4609341e-05
-2.5945647e-05
1.7499865e-05
-2.6492232e-05
2.0952373e-05
-2.7141867e-05
2.507122e-05
-2.7882517e-05
2.9975949e-05
-2.866304e-05
3.5791062e-05
-2.9436647e-05
4.2638421e-05
-3.0223052e-05
5.0646051e-05
-3.1059622e-05
5.995605e-05
-3.1905091e-05
7.0701357e-05
-3.2620566e-05
8.295349e-05
-3.2977567e-05
9.6646702e-05
-3.2748219e-05
0.00011156893
-3.1520058e-05
0.00012727871
-2.8536542e-05
0.00014267243
-2.5255838e-05
0.00015806222
-2.3431053e-05
0.00017682023
-2.0122239e-05
0.00019842537
-1.5832126e-05
0.00021966641
-8.8757737e-06
0.00023878492
1.279118e-06
0.00025182904
1.5505086e-05
0.00025601256
3.5567365e-05
0.00024845269
6.0107727e-05
0.00022844024
9.2566889e-05
0.00019321266
0.00013132369
0.00013990372
0.00018645423
5.6264421e-05
0.00025031377
-6.4666538e-05
0.00032332547
-0.00021140715
0.00040413417
-0.00037842796
0.00051155729
-0.00057558739
0.00062839798
-0.00080233675
0.00074254047
-0.0010218145
0.00084465854
-0.0012027147
0.0009307277
-0.0013331296
0.00097409143
-0.0013971123
0.00075621724
-0.0012003466
0.0002833335
-0.00069632271
-0.00020544197
-2.5231761e-05
2.0362683e-06
-2.5307225e-05
2.4541037e-06
-2.5398248e-05
2.9412507e-06
-2.5507443e-05
3.5252796e-06
-2.5639041e-05
4.2254701e-06
-2.5796889e-05
5.0650737e-06
-2.598568e-05
6.0716851e-06
-2.6210744e-05
7.278583e-06
-2.6478043e-05
8.7255219e-06
-2.6794679e-05
1.045965e-05
-2.7170471e-05
1.2537748e-05
-2.7613711e-05
1.5025738e-05
-2.813635e-05
1.8002311e-05
-2.8757509e-05
2.1560607e-05
-2.9490253e-05
2.5808619e-05
-3.0318383e-05
3.0866716e-05
-3.1186694e-05
3.6861962e-05
-3.2053597e-05
4.3923168e-05
-3.2933684e-05
5.2185985e-05
-3.3862334e-05
6.1797338e-05
-3.4813171e-05
7.2889407e-05
-3.5655748e-05
8.5532769e-05
-3.6178133e-05
9.9665981e-05
-3.6176059e-05
0.00011509673
-3.523456e-05
0.00013138156
-3.2513949e-05
0.00014731012
-2.9508912e-05
0.00016321592
-2.8015738e-05
0.00018272588
-2.5036905e-05
0.00020523561
-2.1026712e-05
0.00022722742
-1.4412882e-05
0.00024691896
-4.8092591e-06
0.00026056213
8.7662639e-06
0.0002653662
2.8211895e-05
0.00025787845
5.2151463e-05
0.00023702841
8.3784264e-05
0.00020022343
0.0001215751
0.00014467862
0.00017568998
5.7464412e-05
0.00023856367
-6.878748e-05
0.00031060362
-0.00022204559
0.00039034711
-0.0003966159
0.00049672632
-0.00060379138
0.00061278552
-0.00084352827
0.0007270925
-0.0010771337
0.00083027869
-0.0012721165
0.00091926109
-0.0014171846
0.00096422215
-0.0014933015
0.00075058808
-0.0012903705
0.00028118821
-0.00074961648
-0.00021892944
-2.7110715e-05
2.0958251e-06
-2.7190464e-05
2.5258326e-06
-2.7286065e-05
3.027283e-06
-2.7400473e-05
3.6285381e-06
-2.7537783e-05
4.3494138e-06
-2.7702026e-05
5.2138686e-06
-2.7898372e-05
6.2503163e-06
-2.8132572e-05
7.4932881e-06
-2.8411688e-05
8.9834401e-06
-2.8744358e-05
1.0769899e-05
-2.9142093e-05
1.2910936e-05
-2.9615401e-05
1.5475065e-05
-3.0174808e-05
1.854376e-05
-3.0841841e-05
2.2213556e-05
-3.1627833e-05
2.6594966e-05
-3.251833e-05
3.1812142e-05
-3.3472794e-05
3.7997661e-05
-3.4445481e-05
4.5287025e-05
-3.5435829e-05
5.3824531e-05
-3.6473443e-05
6.3761151e-05
-3.753383e-05
7.522502e-05
-3.8499643e-05
8.8287184e-05
-3.9178867e-05
0.00010289233
-3.9394149e-05
0.00011887168
-3.8730436e-05
0.00013579155
-3.6246651e-05
0.00015231291
-3.3485112e-05
0.00016876039
-3.2317169e-05
0.00018905576
-2.9670504e-05
0.0002125404
-2.5947684e-05
0.00023536813
-1.9683677e-05
0.00025572818
-1.0624238e-05
0.00027007989
2.3021922e-06
0.00027563878
2.1115112e-05
0.00026839465
4.4432584e-05
0.00024691481
7.5254814e-05
0.00020875349
0.00011209108
0.00015121394
0.00016518622
6.0723145e-05
0.00022705519
-7.0496838e-05
0.00029810917
-0.00022990893
0.00037676085
-0.00041165654
0.00048206797
-0.00062844207
0.00059728425
-0.00088077645
0.00071169806
-0.0011283056
0.00081584264
-0.00133747
0.00090752866
-0.001497556
0.00095394378
-0.0015863686
0.00074467149
-0.0013784191
0.00027908525
-0.00080240528
-0.00023244691
-2.8840448e-05
2.1592955e-06
-2.8924703e-05
2.6022819e-06
-2.9025656e-05
3.1190089e-06
-2.9146328e-05
3.7385698e-06
-2.9291082e-05
4.4816104e-06
-2.9464009e-05
5.3725298e-06
-2.9670948e-05
6.4410554e-06
-2.9917744e-05
7.7224701e-06
-3.0212584e-05
9.2591322e-06
-3.0564734e-05
1.1101628e-05
-3.0984732e-05
1.3309977e-05
-3.1484287e-05
1.5955324e-05
-3.2073092e-05
1.9122045e-05
-3.2768461e-05
2.290913e-05
-3.3583841e-05
2.7430073e-05
-3.4521723e-05
3.2813117e-05
-3.5554815e-05
3.9197837e-05
-3.6633059e-05
4.6729327e-05
-3.7742645e-05
5.5560042e-05
-3.8896243e-05
6.5840885e-05
-4.0065651e-05
7.7697453e-05
-4.1147984e-05
9.1200727e-05
-4.1978702e-05
0.00010630577
-4.2397392e-05
0.00012286481
-4.1988538e-05
0.0001404506
-3.9714813e-05
0.00015761694
-3.7182045e-05
0.00017466053
-3.6344803e-05
0.00019577471
-3.4027845e-05
0.0002202791
-3.0596065e-05
0.00024401041
-2.4686915e-05
0.00026512803
-1.6163868e-05
0.0002802845
-3.8828221e-06
0.00028670848
1.4288548e-05
0.00027985484
3.6967919e-05
0.00025793449
6.6988086e-05
0.00021862217
0.00010287961
0.00015930873
0.00015495257
6.5814643e-05
0.00021579655
-7.0046077e-05
0.00028585165
-0.00023528737
0.00036339206
-0.00042389052
0.0004675927
-0.00064989647
0.0005819053
-0.00091443034
0.00069635809
-0.0011756636
0.00080134334
-0.0013990532
0.00089551238
-0.0015744365
0.00094323744
-0.0016762652
0.0007384329
-0.0014641809
0.00027700922
-0.0008544259
-0.0002459119
-3.0429791e-05
2.2265885e-06
-3.0518315e-05
2.6832224e-06
-3.0624405e-05
3.216147e-06
-3.0751247e-05
3.8551236e-06
-3.0903344e-05
4.6214925e-06
-3.1085151e-05
5.5404945e-06
-3.130283e-05
6.6428628e-06
-3.1562588e-05
7.9649632e-06
-3.1873448e-05
9.5507754e-06
-3.2244772e-05
1.1452587e-05
-3.2685567e-05
1.3731985e-05
-3.3205293e-05
1.6462391e-05
-3.3816041e-05
1.9731498e-05
-3.4527825e-05
2.3640147e-05
-3.5363705e-05
2.8305811e-05
-3.6344472e-05
3.386371e-05
-3.7449866e-05
4.0459102e-05
-3.8635168e-05
4.8247111e-05
-3.9867646e-05
5.7388615e-05
-4.1137023e-05
6.8031036e-05
-4.241393e-05
8.030045e-05
-4.3608282e-05
9.4267606e-05
-4.4586216e-05
0.00010989893
-4.5192361e-05
0.00012706773
-4.4996706e-05
0.00014534207
-4.2907622e-05
0.00016319146
-4.0609626e-05
0.00018088193
-4.0111167e-05
0.00020285956
-3.8119466e-05
0.00022843572
-3.4981489e-05
0.00025313531
-2.9429676e-05
0.00027509142
-2.1433905e-05
0.00029114551
-9.7919483e-06
0.00029854958
7.7353765e-06
0.00029223194
2.9765785e-05
0.00027005073
5.898722e-05
0.00022979915
9.3942368e-05
0.0001689518
0.00014498993
7.2742478e-05
0.00020479212
-6.7416701e-05
0.00027384248
-0.00023814593
0.00035025534
-0.00043325695
0.00045330124
-0.00066803457
0.00056665077
-0.00094429781
0.00068106938
-0.0012189563
0.00078677075
-0.0014565556
0.00088319184
-0.0016474118
0.00093208749
-0.0017626258
0.00073183433
-0.0015474849
0.00027492499
-0.00090563158
-0.00025934185
-3.1884086e-05
2.2975233e-06
-3.1974908e-05
2.7684984e-06
-3.208343e-05
3.3183586e-06
-3.2213604e-05
3.9777243e-06
-3.2369908e-05
4.7683978e-06
-3.2557455e-05
5.7167201e-06
-3.2782159e-05
6.8542385e-06
-3.3051526e-05
8.2185949e-06
-3.3373723e-05
9.8552847e-06
-3.3759371e-05
1.1818283e-05
-3.4215543e-05
1.417113e-05
-3.475197e-05
1.6990099e-05
-3.5378605e-05
2.0364953e-05
-3.6107644e-05
2.4400685e-05
-3.6971286e-05
2.9220273e-05
-3.7996387e-05
3.4962735e-05
-3.9177024e-05
4.1781787e-05
-4.0468505e-05
4.9841998e-05
-4.1821074e-05
5.9307607e-05
-4.3204446e-05
7.0327249e-05
-4.4588127e-05
8.3028167e-05
-4.5892031e-05
9.7478044e-05
-4.7008077e-05
0.00011365414
-4.7773403e-05
0.00013144035
-4.7751361e-05
0.0001504072
-4.5841441e-05
0.00016898774
-4.3794162e-05
0.00018740772
-4.3635469e-05
0.0002103028
-4.1967035e-05
0.00023699163
-3.9126706e-05
0.00026272746
-3.3933834e-05
0.0002856085
-2.6456444e-05
0.00030265202
-1.5446539e-05
0.00031114033
1.4374018e-06
0.00030549503
2.2810687e-05
0.00028322926
5.1233514e-05
0.00024224362
8.5257731e-05
0.00018008937
0.00013527713
8.1436842e-05
0.00019402114
-6.2695574e-05
0.00026205996
-0.00023858591
0.0003373283
-0.00043987689
0.0004391704
-0.00068301592
0.00055149837
-0.00097057599
0.00066580412
-0.0012583838
0.00077209571
-0.0015101412
0.00087054837
-0.0017166089
0.00092048369
-0.0018453796
0.00072485248
-0.0016280182
0.00027281119
-0.00095576145
-0.00027265577
-3.3180977e-05
2.3713174e-06
-3.3245082e-05
2.8560473e-06
-3.3331134e-05
3.4218288e-06
-3.3448238e-05
4.1003597e-06
-3.3602451e-05
4.9147277e-06
-3.37966e-05
5.8922379e-06
-3.4035239e-05
7.0654651e-06
-3.4324378e-05
8.4738887e-06
-3.4668338e-05
1.0164059e-05
-3.5078621e-05
1.2191793e-05
-3.5558983e-05
1.4622926e-05
-3.6121818e-05
1.7535908e-05
-3.6776544e-05
2.1024186e-05
-3.7537333e-05
2.5196374e-05
-3.8438991e-05
3.0179717e-05
-3.9511832e-05
3.6118436e-05
-4.0763319e-05
4.3172715e-05
-4.2151019e-05
5.1514709e-05