/*--------------------------------*- C++ -*----------------------------------*\
  =========                 |
  \\      /  F ield         | OpenFOAM: The Open Source CFD Toolbox
   \\    /   O peration     | Website:  https://openfoam.org
    \\  /    A nd           | Version:  8
     \\/     M anipulation  |
\*---------------------------------------------------------------------------*/
FoamFile
{
    version     2.0;
    format      ascii;
    class       volScalarField;
    location    "0.120004";
    object      nut;
}
// * * * * * * * * * * * * * * * * * * * * * * * * * * * * * * * * * * * * * //

dimensions      [0 2 -1 0 0 0 0];

internalField   nonuniform List<scalar> 
20000
(
0.0013091888
0.0033180728
0.0045183394
0.0050297795
0.0046993795
0.0032430479
0.00075199644
1.4718665e-07
2.4307699e-09
2.4099422e-09
2.328188e-09
2.3467849e-09
2.3105573e-09
2.3407247e-09
2.338133e-09
2.3729607e-09
2.3948748e-09
2.4398654e-09
2.484685e-09
2.5505639e-09
2.6259952e-09
2.7262388e-09
2.8470146e-09
3.0011908e-09
3.1895866e-09
3.4229034e-09
3.7034145e-09
4.0343316e-09
4.4075862e-09
4.8082353e-09
5.211203e-09
5.5912861e-09
5.9298846e-09
6.2199575e-09
6.460345e-09
6.6557084e-09
6.8109694e-09
6.9340975e-09
7.0310822e-09
7.1079394e-09
7.1675533e-09
7.2141598e-09
7.2495312e-09
7.2742979e-09
7.2994558e-09
7.3381892e-09
7.3767807e-09
7.3929941e-09
7.3979465e-09
7.4213003e-09
0.0013141636
0.0033031718
0.0044617919
0.0049288168
0.0045492139
0.0030192716
0.00062168442
5.7056146e-08
2.4325894e-09
2.4214053e-09
2.3392811e-09
2.3588863e-09
2.3230439e-09
2.3543655e-09
2.3522988e-09
2.3886117e-09
2.4117279e-09
2.4585896e-09
2.5054281e-09
2.5738675e-09
2.652277e-09
2.7561094e-09
2.8811304e-09
3.0401263e-09
3.2338645e-09
3.4723298e-09
3.7567216e-09
4.0884172e-09
4.4582137e-09
4.8513962e-09
5.2449708e-09
5.6163356e-09
5.9482796e-09
6.2334638e-09
6.4703497e-09
6.6629767e-09
6.8161383e-09
6.9378209e-09
7.0340212e-09
7.1102777e-09
7.1694232e-09
7.2157214e-09
7.2507836e-09
7.2749935e-09
7.3008016e-09
7.3430417e-09
7.3765779e-09
7.3936169e-09
7.398414e-09
7.4212074e-09
0.0013080269
0.0032713733
0.0043975001
0.0048276776
0.0044041535
0.0027971859
0.00050402274
2.5115849e-08
2.4381369e-09
2.4335595e-09
2.351589e-09
2.3724214e-09
2.3369664e-09
2.3693128e-09
2.3679164e-09
2.4056468e-09
2.4300772e-09
2.4788361e-09
2.5278058e-09
2.5989805e-09
2.6806315e-09
2.7884062e-09
2.9181177e-09
3.0825148e-09
3.2823047e-09
3.5267971e-09
3.816057e-09
4.1495369e-09
4.5165074e-09
4.9021401e-09
5.2856749e-09
5.6470309e-09
5.9705265e-09
6.2492885e-09
6.4814871e-09
6.6707017e-09
6.8214697e-09
6.9415152e-09
7.0367536e-09
7.112319e-09
7.1709947e-09
7.2169539e-09
7.2515272e-09
7.2754629e-09
7.3024226e-09
7.3483927e-09
7.3796815e-09
7.3939531e-09
7.4020038e-09
7.4194899e-09
0.0013025209
0.0032410146
0.0043332874
0.0047264207
0.0042596992
0.0025702042
0.00039776107
1.2777206e-08
2.4472068e-09
2.4470665e-09
2.3652187e-09
2.3871045e-09
2.3521003e-09
2.3855182e-09
2.3848563e-09
2.4240542e-09
2.4498764e-09
2.5006172e-09
2.5518337e-09
2.6258477e-09
2.7108749e-09
2.8227621e-09
2.9574165e-09
3.1275937e-09
3.3339252e-09
3.5850857e-09
3.8799799e-09
4.2162437e-09
4.5816641e-09
4.9610599e-09
5.3350835e-09
5.6860142e-09
6.0000623e-09
6.2711246e-09
6.4974061e-09
6.6821147e-09
6.8295554e-09
6.94728e-09
7.0410561e-09
7.1155594e-09
7.1735069e-09
7.2189496e-09
7.2528205e-09
7.2763974e-09
7.3054632e-09
7.3524017e-09
7.3806936e-09
7.3948388e-09
7.403181e-09
7.4188656e-09
0.0012969132
0.0032108412
0.0042692928
0.0046247541
0.0041157502
0.0023398237
0.00030125902
7.5774268e-09
2.4584857e-09
2.4614619e-09
2.3800269e-09
2.4029929e-09
2.3685337e-09
2.4030525e-09
2.4032197e-09
2.4439296e-09
2.4712523e-09
2.5240825e-09
2.5777111e-09
2.6547551e-09
2.7434235e-09
2.8597537e-09
2.9997756e-09
3.1762341e-09
3.3896898e-09
3.6481145e-09
3.9491855e-09
4.2886521e-09
4.652813e-09
5.0261119e-09
5.3905296e-09
5.7305016e-09
6.0341848e-09
6.2965438e-09
6.5159772e-09
6.6954547e-09
6.839033e-09
6.9540349e-09
7.0460307e-09
7.1192494e-09
7.1763353e-09
7.2211823e-09
7.2542616e-09
7.277533e-09
7.3096155e-09
7.355804e-09
7.3823862e-09
7.3956738e-09
7.4044657e-09
7.4181561e-09
0.0012914774
0.0031808947
0.0042050836
0.0045219002
0.0039716398
0.002109243
0.00021361894
5.1988278e-09
2.471766e-09
2.4769989e-09
2.3960364e-09
2.4200559e-09
2.3862088e-09
2.4218503e-09
2.422945e-09
2.4652251e-09
2.4941735e-09
2.5492121e-09
2.6054162e-09
2.685673e-09
2.7782338e-09
2.8993228e-09
3.0451196e-09
3.2283465e-09
3.4494856e-09
3.7157202e-09
4.0233986e-09
4.3663853e-09
4.7295686e-09
5.0970155e-09
5.4518373e-09
5.7805031e-09
6.0731558e-09
6.3259732e-09
6.5377194e-09
6.7112266e-09
6.850336e-09
6.9621509e-09
7.0520066e-09
7.1236745e-09
7.1797155e-09
7.2238334e-09
7.2559111e-09
7.2790126e-09
7.3145282e-09
7.3588183e-09
7.3838381e-09
7.3964927e-09
7.4050265e-09
7.4176151e-09
0.0012863328
0.0031512935
0.0041406086
0.0044172183
0.0038263324
0.0018863377
0.00013599762
4.0292251e-09
2.486479e-09
2.4934714e-09
2.4131367e-09
2.4382273e-09
2.4050959e-09
2.4419034e-09
2.4440373e-09
2.4879567e-09
2.5186598e-09
2.5760306e-09
2.6349879e-09
2.7186691e-09
2.815421e-09
2.941639e-09
3.0936724e-09
3.2841996e-09
3.5135912e-09
3.7881243e-09
4.1026944e-09
4.4492447e-09
4.811345e-09
5.1727963e-09
5.5178359e-09
5.8348486e-09
6.1159299e-09
6.3585599e-09
6.5619609e-09
6.7289212e-09
6.8630924e-09
6.9713497e-09
7.0587665e-09
7.1286647e-09
7.1835062e-09
7.2267663e-09
7.2576241e-09
7.2807673e-09
7.3197891e-09
7.361857e-09
7.3854364e-09
7.3972274e-09
7.4053939e-09
7.4170981e-09
0.0012813189
0.0031221732
0.0040763039
0.0043103276
0.0036789666
0.0016720724
7.3569463e-05
3.4244584e-09
2.5025366e-09
2.5109478e-09
2.4313477e-09
2.4575053e-09
2.4251803e-09
2.463189e-09
2.4664807e-09
2.5121084e-09
2.5447025e-09
2.6045306e-09
2.666424e-09
2.7537579e-09
2.8550191e-09
2.9867531e-09
3.1454989e-09
3.343869e-09
3.5820722e-09
3.8653347e-09
4.1869648e-09
4.5369773e-09
4.8977495e-09
5.252952e-09
5.5879615e-09
5.8930072e-09
6.1620914e-09
6.3940197e-09
6.5885346e-09
6.7484483e-09
6.8772577e-09
6.9816176e-09
7.0663162e-09
7.1342375e-09
7.1877262e-09
7.229979e-09
7.2594247e-09
7.2828333e-09
7.3252249e-09
7.3649359e-09
7.3870078e-09
7.3979119e-09
7.4055558e-09
7.4166115e-09
0.0012761335
0.003093896
0.004012935
0.0042020658
0.0035288984
0.0014676625
3.2655016e-05
3.1039836e-09
2.5197307e-09
2.5293575e-09
2.4506251e-09
2.4778579e-09
2.4464468e-09
2.4857045e-09
2.4902786e-09
2.5376894e-09
2.572305e-09
2.6347233e-09
2.6997585e-09
2.7910021e-09
2.8971229e-09
3.0347898e-09
3.2007532e-09
3.40753e-09
3.6550898e-09
3.9474373e-09
4.2761569e-09
4.6293403e-09
4.9883279e-09
5.3368418e-09
5.6614733e-09
5.95424e-09
6.2109882e-09
6.4318303e-09
6.6170471e-09
6.7695236e-09
6.8926327e-09
6.9928155e-09
7.0745573e-09
7.1403233e-09
7.1923251e-09
7.233428e-09
7.2613716e-09
7.2852692e-09
7.3307078e-09
7.3680487e-09
7.3885924e-09
7.3985581e-09
7.4056379e-09
7.4161271e-09
0.0012713679
0.0030663722
0.0039505844
0.0040985763
0.0033729834
0.0012740792
1.2127415e-05
2.9350827e-09
2.5380363e-09
2.5487212e-09
2.4709746e-09
2.4992836e-09
2.4688955e-09
2.5094485e-09
2.5154343e-09
2.564696e-09
2.6014711e-09
2.6666245e-09
2.7350306e-09
2.8304686e-09
2.9418226e-09
3.0858607e-09
3.2595694e-09
3.475331e-09
3.7327695e-09
4.0344742e-09
4.3701777e-09
4.726085e-09
5.0826881e-09
5.4239611e-09
5.7378033e-09
6.017987e-09
6.262128e-09
6.471599e-09
6.6472082e-09
6.7919412e-09
6.9090755e-09
7.0048483e-09
7.0834285e-09
7.1468823e-09
7.1972746e-09
7.2371002e-09
7.2635576e-09
7.2882113e-09
7.336127e-09
7.3711292e-09
7.3901388e-09
7.3991718e-09
7.4056792e-09
7.4156397e-09
0.0012668923
0.0030393091
0.0038887136
0.0039901053
0.0032088915
0.001092937
3.9982989e-06
2.8493694e-09
2.5573707e-09
2.5690081e-09
2.4923759e-09
2.5217784e-09
2.4925312e-09
2.5344289e-09
2.5419476e-09
2.5931307e-09
2.6322105e-09
2.7002709e-09
2.772309e-09
2.872253e-09
2.9892388e-09
3.140112e-09
3.3221208e-09
3.5474578e-09
3.8152625e-09
4.126496e-09
4.4689256e-09
4.8269447e-09
5.1804135e-09
5.5137821e-09
5.8163674e-09
6.0836724e-09
6.3149951e-09
6.5129028e-09
6.6786921e-09
6.815461e-09
6.9264143e-09
7.0175957e-09
7.092848e-09
7.1538564e-09
7.2025232e-09
7.240952e-09
7.2659744e-09
7.2918377e-09
7.3413734e-09
7.3741307e-09
7.3916321e-09
7.3997477e-09
7.4057019e-09
7.4151339e-09
0.0012625513
0.0030122328
0.0038276409
0.0038807233
0.003036499
0.00092581128
1.2504617e-06
2.8103061e-09
2.5777397e-09
2.5902485e-09
2.5148548e-09
2.5453633e-09
2.5173626e-09
2.5606441e-09
2.569811e-09
2.6229942e-09
2.6645519e-09
2.7357209e-09
2.8116764e-09
2.9164593e-09
3.0394973e-09
3.1976975e-09
3.3885902e-09
3.6241005e-09
3.9027111e-09
4.2235313e-09
4.5722741e-09
4.931641e-09
5.281104e-09
5.6058269e-09
5.8966536e-09
6.1507961e-09
6.3691414e-09
6.5553703e-09
6.711209e-09
6.839866e-09
6.9444915e-09
7.0309455e-09
7.1027408e-09
7.161193e-09
7.2080186e-09
7.2449078e-09
7.2686925e-09
7.2963392e-09
7.3463236e-09
7.3770237e-09
7.3930585e-09
7.4002601e-09
7.4056336e-09
7.4145938e-09
0.0012583399
0.002984583
0.0037627904
0.0037684872
0.002855074
0.00077397287
3.9148584e-07
2.7976351e-09
2.5991545e-09
2.6124378e-09
2.5384116e-09
2.5700286e-09
2.5433831e-09
2.5880789e-09
2.5990238e-09
2.6543094e-09
2.6985523e-09
2.7730579e-09
2.8532375e-09
2.9632113e-09
3.0927478e-09
3.2587993e-09
3.4591903e-09
3.7054713e-09
3.9952613e-09
4.3255922e-09
4.6800701e-09
5.0398668e-09
5.3843414e-09
5.6996148e-09
5.9781623e-09
6.218876e-09
6.4241353e-09
6.5986404e-09
6.7444727e-09
6.8649381e-09
6.963146e-09
7.0447808e-09
7.1130267e-09
7.168836e-09
7.2137092e-09
7.248903e-09
7.2717539e-09
7.3017758e-09
7.3509146e-09
7.3798123e-09
7.3944215e-09
7.4006794e-09
7.4054593e-09
7.4140159e-09
0.0012545022
0.0029571826
0.0036982906
0.0036561941
0.00266543
0.00064167271
1.3045619e-07
2.8002172e-09
2.6215934e-09
2.6355934e-09
2.5630385e-09
2.5957695e-09
2.5705682e-09
2.6167292e-09
2.6296016e-09
2.6871347e-09
2.7342901e-09
2.8123768e-09
2.8970995e-09
3.0126367e-09
3.1491473e-09
3.3236117e-09
3.5341461e-09
3.7917853e-09
4.0930437e-09
4.4326596e-09
4.7921257e-09
5.1512914e-09
5.4897087e-09
5.794691e-09
6.0604365e-09
6.2874798e-09
6.4795922e-09
6.6423897e-09
6.7782238e-09
6.8904766e-09
6.9822265e-09
7.0589894e-09
7.1236281e-09
7.1767305e-09
7.2195531e-09
7.2529599e-09
7.27517e-09
7.3078802e-09
7.3553065e-09
7.3825255e-09
7.3957166e-09
7.4010254e-09
7.405205e-09
7.4134085e-09
0.0012507392
0.0029293814
0.0036327826
0.0035427386
0.0024676688
0.00051888747
4.7793108e-08
2.8116861e-09
2.6450691e-09
2.659692e-09
2.5887095e-09
2.6225456e-09
2.5989102e-09
2.6466122e-09
2.6616086e-09
2.7215495e-09
2.7718632e-09
2.8537835e-09
2.9433844e-09
3.0648848e-09
3.2088818e-09
3.3923624e-09
3.6137118e-09
3.8832695e-09
4.1961775e-09
4.5446835e-09
4.9082139e-09
5.265554e-09
5.5967732e-09
5.8906008e-09
6.1430337e-09
6.3561969e-09
6.5351499e-09
6.6863137e-09
6.8122162e-09
6.9162884e-09
7.0015861e-09
7.0734608e-09
7.1344662e-09
7.1848204e-09
7.2255072e-09
7.2570501e-09
7.2789101e-09
7.3143548e-09
7.3596697e-09
7.3851799e-09
7.396965e-09
7.4013253e-09
7.4049033e-09
7.4127857e-09
0.0012470507
0.0029008722
0.0035655791
0.0034236776
0.0022631845
0.00040724125
2.0336253e-08
2.8285284e-09
2.6695055e-09
2.6846782e-09
2.6153858e-09
2.6503538e-09
2.6284394e-09
2.6778069e-09
2.6951332e-09
2.7576582e-09
2.8113676e-09
2.89738e-09
2.9922166e-09
3.1201156e-09
3.2721539e-09
3.4652966e-09
3.6981518e-09
3.9801421e-09
4.3047502e-09
4.6615685e-09
5.0280638e-09
5.3822686e-09
5.7050999e-09
5.9869096e-09
6.2255451e-09
6.4246575e-09
6.5904865e-09
6.730143e-09
6.8462301e-09
6.9421983e-09
7.0210889e-09
7.088091e-09
7.1454652e-09
7.1930514e-09
7.2315254e-09
7.2611371e-09
7.2829352e-09
7.3211137e-09
7.3640128e-09
7.3877397e-09
7.3981773e-09
7.4015765e-09
7.4045886e-09
7.41215e-09
0.0012433754
0.0028712328
0.0034966019
0.0033000947
0.0020548692
0.00030576488
1.0392738e-08
2.8486951e-09
2.6948382e-09
2.7105457e-09
2.6430882e-09
2.679266e-09
2.6592588e-09
2.7104189e-09
2.730277e-09
2.795542e-09
2.8528922e-09
2.9432787e-09
3.0437427e-09
3.1785188e-09
3.3391995e-09
3.5426919e-09
3.7877521e-09
4.0826202e-09
4.4188208e-09
4.7831747e-09
5.151363e-09
5.5010216e-09
5.8142434e-09
6.0831878e-09
6.3075781e-09
6.4925143e-09
6.6453044e-09
6.7736297e-09
6.8800621e-09
6.9680422e-09
7.0406064e-09
7.1027813e-09
7.1565501e-09
7.2013668e-09
7.2375596e-09
7.2651707e-09
7.2872385e-09
7.3281332e-09
7.3682974e-09
7.3901385e-09
7.3992866e-09
7.401795e-09
7.4042741e-09
7.4115083e-09
0.0012396412
0.0028401911
0.003424012
0.0031760936
0.001845228
0.00021310607
6.4060191e-09
2.8710957e-09
2.7211343e-09
2.7373749e-09
2.6719329e-09
2.7094166e-09
2.6914823e-09
2.744543e-09
2.7671066e-09
2.8352806e-09
2.8965301e-09
2.9916056e-09
3.0981263e-09
3.2403032e-09
3.4102725e-09
3.6248414e-09
3.8828004e-09
4.190897e-09
4.5384e-09
4.9093035e-09
5.2777508e-09
5.6213719e-09
5.9237542e-09
6.1790225e-09
6.388771e-09
6.5594569e-09
6.6993434e-09
6.816559e-09
6.9135341e-09
6.9936735e-09
7.0600218e-09
7.1174415e-09
7.1676509e-09
7.2097102e-09
7.2435656e-09
7.2691064e-09
7.2918638e-09
7.3353441e-09
7.3724915e-09
7.3923126e-09
7.4002437e-09
7.4020035e-09
7.403971e-09
7.4108625e-09
0.0012359407
0.0028086247
0.0033454127
0.0030506679
0.001636909
0.00013052439
4.6513119e-09
2.8950402e-09
2.7485043e-09
2.7653365e-09
2.7020664e-09
2.7409213e-09
2.7251842e-09
2.7802247e-09
2.8056782e-09
2.8769443e-09
2.9423885e-09
3.0425084e-09
3.15556e-09
3.3057083e-09
3.4856594e-09
3.7120686e-09
3.9835966e-09
4.3051474e-09
4.6634557e-09
5.0397075e-09
5.4068287e-09
5.742858e-09
6.0331799e-09
6.2740097e-09
6.4687804e-09
6.6251988e-09
6.7523672e-09
6.8587369e-09
6.9464842e-09
7.0189576e-09
7.0792264e-09
7.1319876e-09
7.1787013e-09
7.2180251e-09
7.2495081e-09
7.2731075e-09
7.296905e-09
7.3425741e-09
7.3765689e-09
7.3942543e-09
7.4010066e-09
7.4021704e-09
7.4036887e-09
7.4102081e-09
0.0012323782
0.0027779764
0.0032726553
0.0029214408
0.0014326091
6.4965374e-05
3.8250939e-09
2.9202853e-09
2.7771734e-09
2.7945889e-09
2.733572e-09
2.7738019e-09
2.7603696e-09
2.8174967e-09
2.8460513e-09
2.9206364e-09
2.9905977e-09
3.0961512e-09
3.2162581e-09
3.3749924e-09
3.5656664e-09
3.8047093e-09
4.09043e-09
4.4255005e-09
4.7938859e-09
5.1740731e-09
5.5381518e-09
5.8649974e-09
6.1420689e-09
6.3677635e-09
6.5472929e-09
6.68949e-09
6.8041755e-09
6.8999993e-09
6.978774e-09
7.0437775e-09
7.0981233e-09
7.1463456e-09
7.1896421e-09
7.2262557e-09
7.2553472e-09
7.2772161e-09
7.3025086e-09
7.3495303e-09
7.3804845e-09
7.3960617e-09
7.4015934e-09
7.4022447e-09
7.4034037e-09
7.4095411e-09
0.00122873
0.0027457909
0.003196053
0.0027859535
0.0012354339
2.4896039e-05
3.4260459e-09
2.9467216e-09
2.8071117e-09
2.8250822e-09
2.7663804e-09
2.8080209e-09
2.7970564e-09
2.8564232e-09
2.8883257e-09
2.9664737e-09
3.0413098e-09
3.1527333e-09
3.2804656e-09
3.4484484e-09
3.6506377e-09
3.903128e-09
4.2035862e-09
4.552049e-09
4.929535e-09
5.3120351e-09
5.6712414e-09
5.9872933e-09
6.2499732e-09
6.4599131e-09
6.6240168e-09
6.7521058e-09
6.8545909e-09
6.9401991e-09
7.0102796e-09
7.0680297e-09
7.1166241e-09
7.1604475e-09
7.2004202e-09
7.2343485e-09
7.261051e-09
7.2814593e-09
7.3088615e-09
7.3558545e-09
7.3841545e-09
7.3978086e-09
7.4021429e-09
7.4023072e-09
7.4030794e-09
7.4088614e-09
0.0012251201
0.0027128058
0.0031171534
0.0026433546
0.0010487189
7.566812e-06
3.2378439e-09
2.9750351e-09
2.8381768e-09
2.856695e-09
2.8004453e-09
2.8436189e-09
2.835329e-09
2.8971153e-09
2.9326144e-09
3.0145944e-09
3.094698e-09
3.2124729e-09
3.3484447e-09
3.5263876e-09
3.7409361e-09
4.0076897e-09
4.323316e-09
4.6848161e-09
5.0701665e-09
5.4531571e-09
5.80557e-09
6.109229e-09
6.3564518e-09
6.550115e-09
6.6986937e-09
6.8128572e-09
6.9034677e-09
6.9792145e-09
7.0408992e-09
7.0916291e-09
7.1346542e-09
7.1742343e-09
7.2109909e-09
7.2422568e-09
7.2665994e-09
7.2859081e-09
7.3160211e-09
7.3612894e-09
7.3874734e-09
7.3994886e-09
7.4027576e-09
7.402352e-09
7.4027107e-09
7.4081716e-09
0.0012215556
0.0026792562
0.0030357917
0.0024957363
0.0008750895
1.9944434e-06
3.1569561e-09
3.0046268e-09
2.8703456e-09
2.8895015e-09
2.8358837e-09
2.8807254e-09
2.8753107e-09
2.9396852e-09
2.9790355e-09
3.0651498e-09
3.1509647e-09
3.2756208e-09
3.4204907e-09
3.6091618e-09
3.8369648e-09
4.1187766e-09
4.4498485e-09
4.8237694e-09
5.2154778e-09
5.5969474e-09
5.9405765e-09
6.2302787e-09
6.4610781e-09
6.6380557e-09
6.7710943e-09
6.871574e-09
6.9506761e-09
7.0169407e-09
7.0705467e-09
7.1145016e-09
7.1521508e-09
7.1876518e-09
7.2213126e-09
7.2499388e-09
7.2719749e-09
7.2905722e-09
7.3233793e-09
7.3661909e-09
7.3903778e-09
7.4010873e-09
7.4036036e-09
7.4023744e-09
7.4022987e-09
7.4074798e-09
0.0012180423
0.002645579
0.0029523931
0.0023416491
0.00071708893
5.1272024e-07
3.130712e-09
3.0351855e-09
2.9036274e-09
2.9237626e-09
2.8728575e-09
2.9194784e-09
2.9170893e-09
2.9842286e-09
3.0277188e-09
3.1183236e-09
3.2103383e-09
3.342444e-09
3.4969148e-09
3.6971438e-09
3.9391395e-09
4.2367526e-09
4.5833487e-09
4.9687832e-09
5.365067e-09
5.7428352e-09
6.0756514e-09
6.3499013e-09
6.5634468e-09
6.7234654e-09
6.8410306e-09
6.9281103e-09
6.9961084e-09
7.0533019e-09
7.0991602e-09
7.1365837e-09
7.1690664e-09
7.2006549e-09
7.2313478e-09
7.2573569e-09
7.2771596e-09
7.2954164e-09
7.3307137e-09
7.3706957e-09
7.3928854e-09
7.4024405e-09
7.4046069e-09
7.4021994e-09
7.4018453e-09
7.4067976e-09
0.0012147152
0.0026124433
0.0028703265
0.0021785436
0.00057560486
1.442396e-07
3.1327822e-09
3.0670093e-09
2.9382536e-09
2.9595055e-09
2.9114408e-09
2.959899e-09
2.9607444e-09
3.0308578e-09
3.0788302e-09
3.1743287e-09
3.2730768e-09
3.4132394e-09
3.5780704e-09
3.790757e-09
4.0479141e-09
4.3619786e-09
4.723932e-09
5.1196527e-09
5.5184531e-09
5.8901924e-09
6.2101562e-09
6.4675638e-09
6.6631918e-09
6.8061171e-09
6.908352e-09
6.9823402e-09
7.0396706e-09
7.0882521e-09
7.1266958e-09
7.1578109e-09
7.1853603e-09
7.2132053e-09
7.2410596e-09
7.2644753e-09
7.2821329e-09
7.3003683e-09
7.3379078e-09
7.3748987e-09
7.3950757e-09
7.4035241e-09
7.4053584e-09
7.4019625e-09
7.4013822e-09
7.4061189e-09
0.0012115699
0.002579137
0.0027942659
0.0020065931
0.00045531356
5.0840024e-08
3.1495465e-09
3.1000707e-09
2.9743015e-09
2.9966923e-09
2.9515992e-09
3.0020577e-09
3.0063779e-09
3.0797385e-09
3.1325757e-09
3.2333746e-09
3.3394481e-09
3.4883163e-09
3.6643348e-09
3.8904532e-09
4.1637466e-09
4.4947683e-09
4.8716164e-09
5.2760543e-09
5.675048e-09
6.0383162e-09
6.3434256e-09
6.5827675e-09
6.7600042e-09
6.8858182e-09
6.9729418e-09
7.034173e-09
7.0813052e-09
7.1217848e-09
7.1531275e-09
7.1781216e-09
7.2009896e-09
7.2252773e-09
7.2504154e-09
7.271263e-09
7.2868776e-09
7.3053886e-09
7.344885e-09
7.3787958e-09
7.3969891e-09
7.4043407e-09
7.4057161e-09
7.4017033e-09
7.4009278e-09
7.4054365e-09
0.0012084184
0.002543889
0.0027106418
0.0018258191
0.00034620444
2.142504e-08
3.1742157e-09
3.1345017e-09
3.0117923e-09
3.0355493e-09
2.9934088e-09
3.0460673e-09
3.054151e-09
3.1310806e-09
3.1891873e-09
3.2957353e-09
3.4097395e-09
3.5680234e-09
3.7561427e-09
3.9967407e-09
4.2871178e-09
4.6354005e-09
5.0263391e-09
5.4375699e-09
5.8341882e-09
6.1864686e-09
6.4748284e-09
6.6951187e-09
6.8536569e-09
6.9623768e-09
7.0346795e-09
7.0835553e-09
7.1210076e-09
7.1539092e-09
7.1784217e-09
7.1974692e-09
7.2158924e-09
7.2368548e-09
7.2593864e-09
7.277698e-09
7.2914168e-09
7.3105273e-09
7.3515338e-09
7.3823287e-09
7.3985993e-09
7.404962e-09
7.4058834e-09
7.4014673e-09
7.4004758e-09
7.4047449e-09
0.0012055339
0.0025079033
0.0026272891
0.0016397006
0.00024836543
1.1176332e-08
3.2037997e-09
3.1702985e-09
3.0507711e-09
3.0760988e-09
3.0370614e-09
3.0921057e-09
3.1042742e-09
3.1851036e-09
3.2489039e-09
3.3616987e-09
3.4842585e-09
3.6527424e-09
3.8539706e-09
4.1101546e-09
4.4184856e-09
4.784068e-09
5.1879051e-09
5.6036438e-09
5.9951071e-09
6.3338786e-09
6.6038241e-09
6.8043756e-09
6.9439875e-09
7.0355714e-09
7.093405e-09
7.1304831e-09
7.1588561e-09
7.1846172e-09
7.2025142e-09
7.2158565e-09
7.2299969e-09
7.2479287e-09
7.2679529e-09
7.2837763e-09
7.2958685e-09
7.3159854e-09
7.357726e-09
7.385446e-09
7.3998832e-09
7.4054053e-09
7.405963e-09
7.4012249e-09
7.4000099e-09
7.4040401e-09
0.0012028228
0.0024703934
0.0025410327
0.0014521905
0.00016101298
7.145188e-09
3.2367371e-09
3.2075039e-09
3.091353e-09
3.1183777e-09
3.0827813e-09
3.1404813e-09
3.1569622e-09
3.2420265e-09
3.3119513e-09
3.4315415e-09
3.563353e-09
3.7429191e-09
3.9583605e-09
4.2312699e-09
4.5582919e-09
4.9408883e-09
5.3560109e-09
5.7736189e-09
6.1569847e-09
6.4798297e-09
6.7300658e-09
6.9104404e-09
7.0308161e-09
7.1051598e-09
7.1489136e-09
7.1749833e-09
7.1949783e-09
7.2138223e-09
7.2253001e-09
7.2333505e-09
7.2432656e-09
7.2584812e-09
7.276103e-09
7.2895141e-09
7.3003998e-09
7.322069e-09
7.3633299e-09
7.3881438e-09
7.4008498e-09
7.4056238e-09
7.4059923e-09
7.400944e-09
7.3995184e-09
7.4033187e-09
0.0012000893
0.0024300332
0.002451849
0.0012740332
8.8270304e-05
5.387885e-09
3.2723107e-09
3.2463197e-09
3.133655e-09
3.1625755e-09
3.1305677e-09
3.1913432e-09
3.2124251e-09
3.3020619e-09
3.3785714e-09
3.5055809e-09
3.6474274e-09
3.8390576e-09
4.0699024e-09
4.3606653e-09
4.7069116e-09
5.1058441e-09
5.5301908e-09
5.9466968e-09
6.3189455e-09
6.6237162e-09
6.8533958e-09
7.013147e-09
7.113746e-09
7.1709861e-09
7.2010779e-09
7.2170842e-09
7.2294278e-09
7.2413401e-09
7.2467214e-09
7.2500304e-09
7.2557861e-09
7.2684763e-09
7.2838321e-09
7.2949484e-09
7.305182e-09
7.3289719e-09
7.3681806e-09
7.3904694e-09
7.4016051e-09
7.4057171e-09
7.4059919e-09
7.4006107e-09
7.3989941e-09
7.402577e-09
0.0011970068
0.0023843952
0.0023578704
0.0011055504
3.826604e-05
4.5681447e-09
3.3100746e-09
3.2868413e-09
3.1777702e-09
3.208827e-09
3.1806922e-09
3.2447686e-09
3.2708619e-09
3.3654289e-09
3.4490357e-09
3.5841411e-09
3.7369516e-09
3.9417371e-09
4.1892433e-09
4.4989299e-09
4.8646544e-09
5.2787967e-09
5.7098469e-09
6.1219976e-09
6.4801651e-09
6.765162e-09
6.9737005e-09
7.1118159e-09
7.1923379e-09
7.2328845e-09
7.2501265e-09
7.2567886e-09
7.261928e-09
7.2671496e-09
7.2668381e-09
7.2658198e-09
7.2678168e-09
7.2778628e-09
7.2911349e-09
7.3001228e-09
7.3103114e-09
7.3363938e-09
7.3725088e-09
7.3925245e-09
7.4022632e-09
7.4057516e-09
7.4058594e-09
7.4002227e-09
7.398434e-09
7.4018114e-09
0.0011935134
0.0023340088
0.0022577354
0.00094769687
1.3088152e-05
4.1773174e-09
3.349822e-09
3.3291521e-09
3.2238643e-09
3.2573707e-09
3.2333894e-09
3.3009357e-09
3.3324469e-09
3.4323725e-09
3.5236715e-09
3.6676618e-09
3.8324671e-09
4.0515936e-09
4.3170582e-09
4.6466124e-09
5.0317083e-09
5.4594232e-09
5.8942005e-09
6.2985535e-09
6.6399241e-09
6.9039859e-09
7.0903869e-09
7.2057474e-09
7.2661467e-09
7.2908565e-09
7.2964121e-09
7.2941179e-09
7.292204e-09
7.2918008e-09
7.2856578e-09
7.2802775e-09
7.2796336e-09
7.2866191e-09
7.2980011e-09
7.3050726e-09
7.315821e-09
7.3439618e-09
7.3765578e-09
7.3943697e-09
7.4027994e-09
7.4057604e-09
7.4056028e-09
7.3997871e-09
7.3978395e-09
7.401018e-09
0.0011893888
0.0022779434
0.0021459615
0.00080135198
3.8014077e-06
3.9968793e-09
3.3915623e-09
3.3734119e-09
3.27218e-09
3.3084346e-09
3.2888474e-09
3.3601623e-09
3.3973524e-09
3.5031071e-09
3.6028839e-09
3.7566549e-09
3.93459e-09
4.1693314e-09
4.454052e-09
4.8042214e-09
5.2081414e-09
5.6472472e-09
6.0823499e-09
6.4754299e-09
6.7977329e-09
7.0399998e-09
7.2023693e-09
7.2942786e-09
7.334876e-09
7.3451981e-09
7.3402578e-09
7.3291833e-09
7.3207407e-09
7.3148972e-09
7.3031959e-09
7.293653e-09
7.2909956e-09
7.2948237e-09
7.3044093e-09
7.3098229e-09
7.3214026e-09
7.3514086e-09
7.3804588e-09
7.3960613e-09
7.4031753e-09
7.4056073e-09
7.4052801e-09
7.3993135e-09
7.3972064e-09
7.4001935e-09
0.0011846674
0.0022168013
0.0020192515
0.00066805386
1.0373148e-06
3.9239477e-09
3.4355579e-09
3.4199003e-09
3.3230016e-09
3.3621814e-09
3.347248e-09
3.4226382e-09
3.4658125e-09
3.5780484e-09
3.687179e-09
3.8517056e-09
4.043993e-09
4.2956945e-09
4.6009224e-09
4.9721633e-09
5.3938317e-09
5.8415729e-09
6.2732617e-09
6.6517518e-09
6.9532957e-09
7.1722488e-09
7.3087415e-09
7.3767585e-09
7.3989571e-09
7.3969121e-09
7.3811425e-09
7.3620253e-09
7.3475246e-09
7.3365775e-09
7.3194716e-09
7.3060844e-09
7.3016008e-09
7.3026918e-09
7.3103354e-09
7.3143983e-09
7.327119e-09
7.3585691e-09
7.3842263e-09
7.3976794e-09
7.4034877e-09
7.4053511e-09
7.4049315e-09
7.3988033e-09
7.3965324e-09
7.3993358e-09
0.0011796434
0.0021522476
0.0018801921
0.00054872167
2.9379973e-07
3.9072473e-09
3.4819446e-09
3.4687956e-09
3.3763721e-09
3.4187223e-09
3.4086814e-09
3.4884957e-09
3.5383353e-09
3.6576876e-09
3.7771285e-09
3.9534644e-09
4.1614121e-09
4.4314766e-09
4.7583571e-09
5.1507434e-09
5.5884817e-09
6.0415432e-09
6.4658902e-09
6.8268275e-09
7.1063574e-09
7.2993574e-09
7.4085874e-09
7.4531029e-09
7.459912e-09
7.4451403e-09
7.4193016e-09
7.3927016e-09
7.3726965e-09
7.3568211e-09
7.3346288e-09
7.317705e-09
7.3110652e-09
7.3104452e-09
7.3157891e-09
7.318888e-09
7.3330147e-09
7.3651891e-09
7.3876984e-09
7.3992218e-09
7.4038579e-09
7.4050705e-09
7.4045616e-09
7.3982484e-09
7.3958181e-09
7.3984438e-09
0.0011745759
0.0020852
0.0017308726
0.00044105686
9.5852324e-08
3.9205354e-09
3.5306685e-09
3.5201099e-09
3.4323102e-09
3.4782353e-09
3.4733853e-09
3.5580783e-09
3.6154006e-09
3.7425959e-09
3.8733562e-09
4.0626363e-09
4.2876396e-09
4.5774973e-09
4.9269777e-09
5.3400893e-09
5.7915528e-09
6.246105e-09
6.6591921e-09
7.0001569e-09
7.2558644e-09
7.4200718e-09
7.5012859e-09
7.5247263e-09
7.5172639e-09
7.4900792e-09
7.4547403e-09
7.4213141e-09
7.3962976e-09
7.375705e-09
7.348717e-09
7.328472e-09
7.3196729e-09
7.3178541e-09
7.320868e-09
7.3234203e-09
7.3392965e-09
7.3710162e-09
7.3907066e-09
7.4005726e-09
7.4043107e-09
7.4049212e-09
7.4040976e-09
7.3976344e-09
7.3950732e-09
7.3975181e-09
0.0011693775
0.0020149994
0.0015820909
0.00034708757
3.9157727e-08
3.9501031e-09
3.5817177e-09
3.5739369e-09
3.4910536e-09
3.5409273e-09
3.5417274e-09
3.6319082e-09
3.6974895e-09
3.8334179e-09
3.9765431e-09
4.1799886e-09
4.4235372e-09
4.734607e-09
5.1073312e-09
5.5401474e-09
6.0023089e-09
6.454134e-09
6.8522644e-09
7.1713963e-09
7.400139e-09
7.5333197e-09
7.5869525e-09
7.5928807e-09
7.5705734e-09
7.5317257e-09
7.4876032e-09
7.4479623e-09
7.4184058e-09
7.3932743e-09
7.3617658e-09
7.3383612e-09
7.3275486e-09
7.3247321e-09
7.3257673e-09
7.3280958e-09
7.3460805e-09
7.3758833e-09
7.3931932e-09
7.4016218e-09
7.40464e-09
7.4048632e-09
7.4034507e-09
7.39697e-09
7.3943096e-09
7.3965614e-09
0.0011638667
0.0019373784
0.0014337494
0.00026113679
1.9051288e-08
3.9888667e-09
3.6352186e-09
3.6305051e-09
3.5529026e-09
3.6071643e-09
3.6142049e-09
3.7105629e-09
3.7852121e-09
3.9307648e-09
4.0874189e-09
4.3063569e-09
4.570018e-09
4.9036399e-09
5.2998151e-09
5.7506047e-09
6.2197503e-09
6.6644422e-09
7.0443273e-09
7.3396898e-09
7.5374173e-09
7.6383148e-09
7.6673975e-09
7.6567266e-09
7.6200201e-09
7.5702277e-09
7.5179966e-09
7.4727562e-09
7.4390907e-09
7.4095883e-09
7.3738025e-09
7.3474641e-09
7.3347974e-09
7.3308363e-09
7.3306836e-09
7.3329684e-09
7.3530163e-09
7.3799626e-09
7.3952039e-09
7.4023911e-09
7.4048261e-09
7.4048586e-09
7.402725e-09
7.3962867e-09
7.3935326e-09
7.3955786e-09
0.0011594281
0.0018605533
0.0012846051
0.00018283478
1.1205909e-08
4.0336422e-09
3.6914306e-09
3.6901502e-09
3.6182715e-09
3.6774772e-09
3.6914101e-09
3.7945983e-09
3.8791797e-09
4.0352934e-09
4.2067818e-09
4.44267e-09
4.7280561e-09
5.0853838e-09
5.5046645e-09
5.9709093e-09
6.4427355e-09
6.8759245e-09
7.2348359e-09
7.503073e-09
7.6664958e-09
7.7351657e-09
7.7437841e-09
7.7158995e-09
7.6656656e-09
7.6057075e-09
7.5460548e-09
7.4958048e-09
7.458429e-09
7.424697e-09
7.3848522e-09
7.3558109e-09
7.3414733e-09
7.33634e-09
7.3355249e-09
7.3379439e-09
7.3596957e-09
7.3834799e-09
7.3968425e-09
7.4029689e-09
7.4049137e-09
7.4048632e-09
7.4019695e-09
7.3955871e-09
7.3927425e-09
7.3945756e-09
0.0011563644
0.0017866698
0.001137575
0.00011359716
7.7980804e-09
4.082559e-09
3.7506715e-09
3.7533923e-09
3.6877558e-09
3.7524848e-09
3.7739604e-09
3.8846209e-09
3.9800322e-09
4.1477454e-09
4.3355271e-09
4.5899548e-09
4.8986584e-09
5.2805172e-09
5.7218437e-09
6.2002038e-09
6.6699614e-09
7.0875356e-09
7.4231398e-09
7.6592544e-09
7.7863154e-09
7.8257562e-09
7.8152778e-09
7.7705639e-09
7.707676e-09
7.6383159e-09
7.5719094e-09
7.5172201e-09
7.4764971e-09
7.4386487e-09
7.3949343e-09
7.3633907e-09
7.3475313e-09
7.3414564e-09
7.3402434e-09
7.3428643e-09
7.3657585e-09
7.3865113e-09
7.3981914e-09
7.4034756e-09
7.4049524e-09
7.4048172e-09
7.4011924e-09
7.3948752e-09
7.3919412e-09
7.3935579e-09
0.0011541393
0.0017082248
0.00099470359
5.9035919e-05
6.1970799e-09
4.1348899e-09
3.8135618e-09
3.8209355e-09
3.761988e-09
3.8327599e-09
3.8624041e-09
3.9812109e-09
4.0884844e-09
4.2689843e-09
4.4746531e-09
4.749332e-09
5.0828458e-09
5.4895803e-09
5.9510508e-09
6.4373927e-09
6.900131e-09
7.2983902e-09
7.607294e-09
7.8066634e-09
7.8965881e-09
7.9117445e-09
7.8813096e-09
7.820833e-09
7.7462107e-09
7.6682058e-09
7.5956984e-09
7.5371117e-09
7.4933684e-09
7.4514801e-09
7.4040522e-09
7.3702217e-09
7.3530583e-09
7.3462666e-09
7.3447821e-09
7.3476742e-09
7.3711715e-09
7.389111e-09
7.3992091e-09
7.4037219e-09
7.4049674e-09
7.4046819e-09
7.4003726e-09
7.3941532e-09
7.3911362e-09
7.3925288e-09
0.0011530784
0.0016255574
0.00085874832
2.478925e-05
5.4132884e-09
4.1910388e-09
3.8808371e-09
3.8932563e-09
3.8414654e-09
3.918695e-09
3.9572205e-09
4.0850008e-09
4.2054624e-09
4.4000073e-09
4.6252624e-09
4.9219862e-09
5.2815831e-09
5.7128788e-09
6.1916421e-09
6.6811221e-09
7.1319277e-09
7.5076694e-09
7.7847259e-09
7.9439732e-09
7.9992053e-09
7.9921978e-09
7.9421171e-09
7.8669001e-09
7.7814515e-09
7.6955378e-09
7.6175607e-09
7.5555886e-09
7.5091132e-09
7.4632203e-09
7.4122206e-09
7.3763528e-09
7.3581246e-09
7.3508124e-09
7.349133e-09
7.3523781e-09
7.375929e-09
7.391337e-09
7.3999965e-09
7.4038064e-09
7.4047949e-09
7.4044316e-09
7.3995272e-09
7.393401e-09
7.3903601e-09
7.3914874e-09
0.0011535221
0.0015388337
0.00073168822
8.631927e-06
5.0316345e-09
4.2522822e-09
3.9528135e-09
3.9705832e-09
3.9264208e-09
4.0107214e-09
4.0590377e-09
4.1967644e-09
4.3320237e-09
4.5419618e-09
4.7885618e-09
5.1091453e-09
5.4957219e-09
5.9504368e-09
6.4426774e-09
6.9299557e-09
7.3641437e-09
7.7140081e-09
7.952948e-09