/*--------------------------------*- C++ -*----------------------------------*\
  =========                 |
  \\      /  F ield         | OpenFOAM: The Open Source CFD Toolbox
   \\    /   O peration     | Website:  https://openfoam.org
    \\  /    A nd           | Version:  8
     \\/     M anipulation  |
\*---------------------------------------------------------------------------*/
FoamFile
{
    version     2.0;
    format      ascii;
    class       volScalarField;
    location    "0.120004";
    object      nuTilda;
}
// * * * * * * * * * * * * * * * * * * * * * * * * * * * * * * * * * * * * * //

dimensions      [0 2 -1 0 0 0 0];

internalField   nonuniform List<scalar> 
20000
(
0.001312504
0.0033185896
0.0045186155
0.0050299982
0.0046996215
0.0032435243
0.00075983571
2.8505361e-05
1.0203698e-05
1.016244e-05
1.007668e-05
1.0076174e-05
1.0029114e-05
1.0036058e-05
1.0014964e-05
1.0017968e-05
1.000964e-05
1.0009099e-05
1.000536e-05
1.0004234e-05
1.0002572e-05
1.0001774e-05
1.0001128e-05
1.0000879e-05
1.0000787e-05
1.0000668e-05
1.0000596e-05
1.000057e-05
1.0000572e-05
1.0000598e-05
1.0000598e-05
1.0000588e-05
1.0000597e-05
1.000075e-05
1.0000894e-05
1.0000958e-05
1.0001134e-05
1.0001423e-05
1.0001608e-05
1.0001688e-05
1.0001743e-05
1.0001867e-05
1.0002025e-05
1.0001539e-05
1.0001469e-05
1.0001351e-05
1.0001027e-05
1.0000796e-05
1.0000871e-05
1.0001015e-05
0.0013174342
0.0033036902
0.0044620733
0.0049290431
0.0045494701
0.0030198149
0.0006328153
2.2446645e-05
1.0193284e-05
1.0161721e-05
1.0076003e-05
1.0075818e-05
1.0028876e-05
1.0035928e-05
1.0014696e-05
1.0017829e-05
1.0009473e-05
1.0008971e-05
1.0005274e-05
1.0004168e-05
1.0002518e-05
1.0001725e-05
1.0001074e-05
1.0000815e-05
1.0000725e-05
1.0000604e-05
1.0000541e-05
1.0000529e-05
1.0000542e-05
1.0000582e-05
1.000059e-05
1.0000585e-05
1.0000591e-05
1.0000738e-05
1.0000886e-05
1.0000949e-05
1.0001118e-05
1.0001407e-05
1.0001599e-05
1.0001678e-05
1.0001722e-05
1.0001821e-05
1.000199e-05
1.0001518e-05
1.0001437e-05
1.0001323e-05
1.0001015e-05
1.0000776e-05
1.000086e-05
1.0001006e-05
0.0013113098
0.003271899
0.0043977882
0.004827912
0.0044044248
0.0027978117
0.000520151
1.8252854e-05
1.0186104e-05
1.0160611e-05
1.0075317e-05
1.0075422e-05
1.0028677e-05
1.0035722e-05
1.001444e-05
1.0017654e-05
1.0009315e-05
1.0008857e-05
1.0005204e-05
1.000413e-05
1.0002506e-05
1.0001735e-05
1.0001093e-05
1.0000819e-05
1.0000727e-05
1.0000605e-05
1.0000537e-05
1.0000524e-05
1.0000544e-05
1.0000581e-05
1.0000591e-05
1.0000585e-05
1.0000588e-05
1.0000728e-05
1.000088e-05
1.0000945e-05
1.0001107e-05
1.0001396e-05
1.0001596e-05
1.0001675e-05
1.0001717e-05
1.0001786e-05
1.0001899e-05
1.0001498e-05
1.0001408e-05
1.0001292e-05
1.0000992e-05
1.0000759e-05
1.0000848e-05
1.0000996e-05
0.0013058104
0.0032415468
0.0043335821
0.0047266635
0.0042599866
0.002570936
0.00042149323
1.5387008e-05
1.0180927e-05
1.0159417e-05
1.0074582e-05
1.0074944e-05
1.002845e-05
1.0035482e-05
1.0014198e-05
1.0017464e-05
1.0009159e-05
1.0008726e-05
1.0005125e-05
1.0004072e-05
1.0002472e-05
1.0001715e-05
1.000108e-05
1.0000814e-05
1.0000727e-05
1.0000605e-05
1.0000531e-05
1.0000515e-05
1.0000531e-05
1.0000572e-05
1.0000585e-05
1.0000583e-05
1.0000584e-05
1.0000718e-05
1.0000872e-05
1.0000938e-05
1.0001098e-05
1.0001386e-05
1.0001595e-05
1.0001677e-05
1.0001723e-05
1.0001775e-05
1.000184e-05
1.0001483e-05
1.0001387e-05
1.0001266e-05
1.0000979e-05
1.0000744e-05
1.0000836e-05
1.0000974e-05
0.0013002079
0.0032113798
0.0042695943
0.0046250058
0.0041160553
0.0023406949
0.00033635628
1.3478477e-05
1.0176936e-05
1.0157989e-05
1.0073803e-05
1.0074394e-05
1.0028211e-05
1.0035213e-05
1.0013969e-05
1.0017266e-05
1.0009007e-05
1.0008593e-05
1.0005049e-05
1.0004019e-05
1.0002446e-05
1.0001704e-05
1.0001078e-05
1.0000816e-05
1.000073e-05
1.0000607e-05
1.0000531e-05
1.0000511e-05
1.0000524e-05
1.0000566e-05
1.0000584e-05
1.0000584e-05
1.0000582e-05
1.0000709e-05
1.0000866e-05
1.0000932e-05
1.0001088e-05
1.0001375e-05
1.0001592e-05
1.0001677e-05
1.0001733e-05
1.0001784e-05
1.0001821e-05
1.0001466e-05
1.0001364e-05
1.0001233e-05
1.0000966e-05
1.000073e-05
1.0000823e-05
1.0000949e-05
0.0012947757
0.0031814395
0.0042053921
0.0045221614
0.0039719644
0.0021102999
0.00026443251
1.224369e-05
1.0173651e-05
1.0156387e-05
1.0072983e-05
1.0073768e-05
1.002796e-05
1.0034913e-05
1.0013754e-05
1.0017055e-05
1.000886e-05
1.0008455e-05
1.0004972e-05
1.0003962e-05
1.0002417e-05
1.000169e-05
1.0001073e-05
1.0000815e-05
1.0000732e-05
1.000061e-05
1.0000529e-05
1.0000506e-05
1.0000517e-05
1.000056e-05
1.0000581e-05
1.0000584e-05
1.000058e-05
1.00007e-05
1.0000859e-05
1.0000926e-05
1.0001079e-05
1.0001364e-05
1.0001589e-05
1.0001678e-05
1.0001746e-05
1.000181e-05
1.0001815e-05
1.0001451e-05
1.0001343e-05
1.0001198e-05
1.000095e-05
1.0000715e-05
1.0000811e-05
1.0000921e-05
0.0012896311
0.0031518443
0.0041409243
0.0044174897
0.0038266785
0.0018876392
0.00020493935
1.1465834e-05
1.017077e-05
1.0154628e-05
1.0072125e-05
1.0073073e-05
1.0027699e-05
1.0034582e-05
1.0013552e-05
1.0016834e-05
1.0008717e-05
1.0008313e-05
1.0004896e-05
1.0003903e-05
1.0002388e-05
1.0001676e-05
1.0001069e-05
1.0000815e-05
1.0000734e-05
1.0000612e-05
1.0000528e-05
1.0000502e-05
1.0000511e-05
1.0000555e-05
1.0000579e-05
1.0000584e-05
1.0000578e-05
1.0000691e-05
1.0000852e-05
1.000092e-05
1.000107e-05
1.0001352e-05
1.0001584e-05
1.0001677e-05
1.0001758e-05
1.0001846e-05
1.0001805e-05
1.0001435e-05
1.0001323e-05
1.0001163e-05
1.0000931e-05
1.00007e-05
1.0000798e-05
1.0000891e-05
0.0012846164
0.0031227298
0.004076627
0.00431061
0.0036793369
0.0016737028
0.00015655768
1.0987266e-05
1.0168112e-05
1.0152727e-05
1.0071235e-05
1.0072311e-05
1.002743e-05
1.0034221e-05
1.0013366e-05
1.0016602e-05
1.0008578e-05
1.0008167e-05
1.000482e-05
1.0003843e-05
1.0002359e-05
1.0001662e-05
1.0001065e-05
1.0000815e-05
1.0000735e-05
1.0000614e-05
1.0000527e-05
1.0000498e-05
1.0000505e-05
1.000055e-05
1.0000578e-05
1.0000584e-05
1.0000577e-05
1.0000682e-05
1.0000844e-05
1.0000914e-05
1.0001062e-05
1.0001341e-05
1.0001578e-05
1.0001675e-05
1.0001768e-05
1.0001888e-05
1.000179e-05
1.000142e-05
1.0001303e-05
1.0001129e-05
1.000091e-05
1.0000686e-05
1.0000786e-05
1.0000861e-05
0.0012794289
0.003094458
0.0040132654
0.00420236
0.0035292962
0.001469744
0.00011799525
1.0699019e-05
1.0165565e-05
1.0150695e-05
1.0070314e-05
1.0071483e-05
1.0027154e-05
1.003383e-05
1.0013193e-05
1.001636e-05
1.0008444e-05
1.0008018e-05
1.0004744e-05
1.0003782e-05
1.000233e-05
1.0001647e-05
1.0001062e-05
1.0000815e-05
1.0000736e-05
1.0000616e-05
1.0000526e-05
1.0000494e-05
1.00005e-05
1.0000546e-05
1.0000577e-05
1.0000583e-05
1.0000575e-05
1.0000674e-05
1.0000837e-05
1.0000908e-05
1.0001053e-05
1.000133e-05
1.0001571e-05
1.0001672e-05
1.0001776e-05
1.0001936e-05
1.0001789e-05
1.0001404e-05
1.0001284e-05
1.0001097e-05
1.0000887e-05
1.0000671e-05
1.0000774e-05
1.0000833e-05
0.0012746589
0.0030669393
0.0039509222
0.0040988825
0.0033734135
0.0012767935
8.797067e-05
1.0528447e-05
1.016307e-05
1.0148542e-05
1.0069367e-05
1.0070593e-05
1.0026871e-05
1.0033411e-05
1.0013034e-05
1.0016108e-05
1.0008314e-05
1.0007866e-05
1.0004669e-05
1.0003719e-05
1.0002301e-05
1.0001631e-05
1.0001058e-05
1.0000814e-05
1.0000737e-05
1.0000618e-05
1.0000526e-05
1.0000491e-05
1.0000495e-05
1.0000542e-05
1.0000576e-05
1.0000582e-05
1.0000573e-05
1.0000667e-05
1.000083e-05
1.0000902e-05
1.0001044e-05
1.0001318e-05
1.0001563e-05
1.0001666e-05
1.0001781e-05
1.0001991e-05
1.000181e-05
1.000139e-05
1.0001266e-05
1.0001069e-05
1.0000864e-05
1.0000656e-05
1.0000761e-05
1.0000809e-05
0.0012701756
0.003039881
0.003889059
0.003990425
0.0032093606
0.0010965572
6.5118939e-05
1.0428345e-05
1.0160597e-05
1.0146281e-05
1.0068398e-05
1.0069644e-05
1.0026585e-05
1.0032964e-05
1.0012889e-05
1.0015846e-05
1.0008188e-05
1.000771e-05
1.0004596e-05
1.0003655e-05
1.0002272e-05
1.0001615e-05
1.0001055e-05
1.0000814e-05
1.0000737e-05
1.000062e-05
1.0000526e-05
1.0000488e-05
1.0000491e-05
1.0000538e-05
1.0000575e-05
1.000058e-05
1.0000572e-05
1.0000659e-05
1.0000822e-05
1.0000895e-05
1.0001035e-05
1.0001307e-05
1.0001554e-05
1.0001659e-05
1.0001782e-05
1.0002047e-05
1.0001826e-05
1.0001378e-05
1.0001249e-05
1.0001044e-05
1.0000841e-05
1.0000642e-05
1.0000748e-05
1.0000788e-05
0.0012658254
0.0030128096
0.0038279939
0.0038810576
0.0030370157
0.00093075141
4.8142264e-05
1.0369457e-05
1.0158136e-05
1.0143926e-05
1.006741e-05
1.0068643e-05
1.0026295e-05
1.0032493e-05
1.0012757e-05
1.0015576e-05
1.0008066e-05
1.0007553e-05
1.0004523e-05
1.0003591e-05
1.0002244e-05
1.0001599e-05
1.0001052e-05
1.0000814e-05
1.0000738e-05
1.0000622e-05
1.0000526e-05
1.0000485e-05
1.0000487e-05
1.0000535e-05
1.0000573e-05
1.0000579e-05
1.000057e-05
1.0000652e-05
1.0000815e-05
1.0000888e-05
1.0001026e-05
1.0001296e-05
1.0001545e-05
1.0001651e-05
1.0001775e-05
1.0002087e-05
1.0001836e-05
1.0001369e-05
1.0001232e-05
1.0001022e-05
1.000082e-05
1.0000629e-05
1.0000734e-05
1.000077e-05
0.0012616023
0.0029851646
0.0037631519
0.0037688377
0.0028556498
0.00078086312
3.5791596e-05
1.0334111e-05
1.0155684e-05
1.0141475e-05
1.0066407e-05
1.0067589e-05
1.0026002e-05
1.0031998e-05
1.0012637e-05
1.0015298e-05
1.0007948e-05
1.0007393e-05
1.000445e-05
1.0003526e-05
1.0002215e-05
1.0001583e-05
1.0001049e-05
1.0000813e-05
1.0000738e-05
1.0000624e-05
1.0000527e-05
1.0000483e-05
1.0000484e-05
1.0000532e-05
1.0000571e-05
1.0000577e-05
1.0000568e-05
1.0000645e-05
1.0000807e-05
1.0000881e-05
1.0001016e-05
1.0001285e-05
1.0001537e-05
1.0001641e-05
1.0001759e-05
1.0002101e-05
1.0001839e-05
1.0001362e-05
1.0001217e-05
1.0001003e-05
1.00008e-05
1.0000616e-05
1.000072e-05
1.0000756e-05
0.0012577511
0.002957769
0.0036986611
0.0036565622
0.0026660804
0.00065137096
2.7086659e-05
1.0312169e-05
1.0153244e-05
1.013895e-05
1.0065392e-05
1.0066491e-05
1.0025709e-05
1.0031482e-05
1.0012529e-05
1.0015013e-05
1.0007834e-05
1.0007232e-05
1.0004379e-05
1.000346e-05
1.0002187e-05
1.0001567e-05
1.0001046e-05
1.0000812e-05
1.0000737e-05
1.0000625e-05
1.0000528e-05
1.0000481e-05
1.0000481e-05
1.0000529e-05
1.0000569e-05
1.0000575e-05
1.0000567e-05
1.0000638e-05
1.0000799e-05
1.0000874e-05
1.0001007e-05
1.0001273e-05
1.0001529e-05
1.0001632e-05
1.0001738e-05
1.0002105e-05
1.0001834e-05
1.0001357e-05
1.0001203e-05
1.0000987e-05
1.0000782e-05
1.0000603e-05
1.0000704e-05
1.0000744e-05
0.0012539734
0.0029299728
0.0036331624
0.0035431261
0.0024684152
0.00053299716
2.1005128e-05
1.0297679e-05
1.0150811e-05
1.0136349e-05
1.0064367e-05
1.006535e-05
1.0025417e-05
1.0030945e-05
1.0012433e-05
1.0014721e-05
1.0007724e-05
1.000707e-05
1.0004309e-05
1.0003394e-05
1.0002159e-05
1.0001551e-05
1.0001044e-05
1.0000812e-05
1.0000737e-05
1.0000627e-05
1.0000529e-05
1.000048e-05
1.0000479e-05
1.0000526e-05
1.0000566e-05
1.0000573e-05
1.0000565e-05
1.0000632e-05
1.0000791e-05
1.0000867e-05
1.0000997e-05
1.0001262e-05
1.0001521e-05
1.0001623e-05
1.0001714e-05
1.0002104e-05
1.0001821e-05
1.0001354e-05
1.000119e-05
1.0000972e-05
1.0000763e-05
1.0000586e-05
1.0000688e-05
1.0000735e-05
0.0012502686
0.0029014687
0.0035659689
0.0034240874
0.0022640565
0.00042828683
1.6914776e-05
1.0287378e-05
1.0148386e-05
1.0133682e-05
1.0063337e-05
1.0064171e-05
1.0025125e-05
1.003039e-05
1.0012347e-05
1.0014424e-05
1.0007616e-05
1.0006908e-05
1.000424e-05
1.0003329e-05
1.0002131e-05
1.0001535e-05
1.0001041e-05
1.0000811e-05
1.0000737e-05
1.0000628e-05
1.0000531e-05
1.0000479e-05
1.0000477e-05
1.0000523e-05
1.0000563e-05
1.0000571e-05
1.0000564e-05
1.0000626e-05
1.0000783e-05
1.0000859e-05
1.0000987e-05
1.000125e-05
1.0001514e-05
1.0001614e-05
1.0001688e-05
1.0002099e-05
1.0001802e-05
1.0001354e-05
1.0001179e-05
1.0000958e-05
1.0000748e-05
1.0000566e-05
1.0000672e-05
1.0000725e-05
0.0012465767
0.002871835
0.0034970026
0.0033005302
0.0020559079
0.00033759134
1.4260082e-05
1.0279412e-05
1.0145972e-05
1.0130969e-05
1.0062303e-05
1.0062962e-05
1.0024836e-05
1.002982e-05
1.001227e-05
1.0014122e-05
1.0007512e-05
1.0006747e-05
1.0004172e-05
1.0003263e-05
1.0002104e-05
1.0001519e-05
1.0001039e-05
1.000081e-05
1.0000736e-05
1.0000629e-05
1.0000532e-05
1.0000478e-05
1.0000476e-05
1.0000519e-05
1.000056e-05
1.0000569e-05
1.0000562e-05
1.000062e-05
1.0000775e-05
1.0000851e-05
1.0000977e-05
1.0001237e-05
1.0001507e-05
1.0001607e-05
1.0001663e-05
1.0002078e-05
1.0001783e-05
1.0001354e-05
1.0001169e-05
1.0000945e-05
1.0000732e-05
1.000055e-05
1.0000655e-05
1.0000715e-05
0.0012428253
0.0028407995
0.0034244249
0.0031765576
0.0018464919
0.0002606605
1.2599138e-05
1.0272677e-05
1.0143568e-05
1.0128215e-05
1.0061269e-05
1.0061727e-05
1.002455e-05
1.0029236e-05
1.0012202e-05
1.0013817e-05
1.000741e-05
1.0006591e-05
1.0004106e-05
1.0003199e-05
1.0002077e-05
1.0001503e-05
1.0001036e-05
1.0000809e-05
1.0000735e-05
1.0000629e-05
1.0000533e-05
1.0000478e-05
1.0000474e-05
1.0000515e-05
1.0000556e-05
1.0000566e-05
1.0000561e-05
1.0000614e-05
1.0000766e-05
1.0000843e-05
1.0000966e-05
1.0001224e-05
1.0001499e-05
1.00016e-05
1.0001638e-05
1.0002028e-05
1.000177e-05
1.0001354e-05
1.000116e-05
1.0000931e-05
1.0000717e-05
1.0000538e-05
1.0000637e-05
1.0000703e-05
0.0012391072
0.0028092396
0.0033458399
0.0030511641
0.0016384841
0.00019706931
1.1597276e-05
1.0266526e-05
1.0141175e-05
1.0125433e-05
1.0060238e-05
1.006047e-05
1.0024268e-05
1.0028641e-05
1.0012141e-05
1.0013509e-05
1.0007311e-05
1.0006438e-05
1.000404e-05
1.0003134e-05
1.0002051e-05
1.0001488e-05
1.0001034e-05
1.0000808e-05
1.0000734e-05
1.000063e-05
1.0000534e-05
1.0000477e-05
1.0000471e-05
1.000051e-05
1.0000552e-05
1.0000563e-05
1.000056e-05
1.0000609e-05
1.0000758e-05
1.0000834e-05
1.0000956e-05
1.0001211e-05
1.000149e-05
1.0001593e-05
1.0001618e-05
1.0001992e-05
1.0001762e-05
1.0001352e-05
1.0001152e-05
1.000092e-05
1.0000703e-05
1.0000525e-05
1.0000619e-05
1.000069e-05
0.0012355261
0.0027785976
0.0032730961
0.0029219743
0.001434624
0.00014577823
1.1012608e-05
1.0260484e-05
1.0138785e-05
1.0122622e-05
1.005921e-05
1.0059193e-05
1.0023992e-05
1.0028036e-05
1.0012087e-05
1.00132e-05
1.0007215e-05
1.0006286e-05
1.0003974e-05
1.0003071e-05
1.0002025e-05
1.0001473e-05
1.0001031e-05
1.0000807e-05
1.0000733e-05
1.000063e-05
1.0000534e-05
1.0000475e-05
1.0000468e-05
1.0000506e-05
1.0000548e-05
1.000056e-05
1.0000558e-05
1.0000604e-05
1.0000749e-05
1.0000825e-05
1.0000945e-05
1.0001197e-05
1.000148e-05
1.0001587e-05
1.00016e-05
1.0001958e-05
1.0001753e-05
1.0001349e-05
1.0001144e-05
1.000091e-05
1.0000689e-05
1.0000511e-05
1.0000601e-05
1.0000676e-05
0.0012318588
0.0027464189
0.0031965091
0.0027865314
0.0012380857
0.00010553126
1.0682734e-05
1.0254397e-05
1.0136397e-05
1.0119792e-05
1.0058189e-05
1.0057901e-05
1.0023721e-05
1.0027425e-05
1.0012039e-05
1.0012891e-05
1.0007121e-05
1.0006136e-05
1.000391e-05
1.0003009e-05
1.0002e-05
1.0001458e-05
1.0001029e-05
1.0000806e-05
1.0000732e-05
1.0000629e-05
1.0000534e-05
1.0000474e-05
1.0000465e-05
1.0000501e-05
1.0000544e-05
1.0000556e-05
1.0000557e-05
1.0000599e-05
1.000074e-05
1.0000815e-05
1.0000934e-05
1.0001183e-05
1.0001469e-05
1.0001581e-05
1.0001583e-05
1.0001911e-05
1.000174e-05
1.0001345e-05
1.0001137e-05
1.0000903e-05
1.0000677e-05
1.0000498e-05
1.0000582e-05
1.0000662e-05
0.0012282291
0.0027134411
0.0031176264
0.0026439863
0.0010523148
7.4999897e-05
1.0502199e-05
1.0248848e-05
1.013401e-05
1.0116954e-05
1.0057176e-05
1.00566e-05
1.0023456e-05
1.0026809e-05
1.0011995e-05
1.0012582e-05
1.0007029e-05
1.0005988e-05
1.0003846e-05
1.0002948e-05
1.0001975e-05
1.0001443e-05
1.0001026e-05
1.0000805e-05
1.0000731e-05
1.0000629e-05
1.0000533e-05
1.0000472e-05
1.0000461e-05
1.0000496e-05
1.0000539e-05
1.0000554e-05
1.0000556e-05
1.0000594e-05
1.0000731e-05
1.0000806e-05
1.0000923e-05
1.0001168e-05
1.0001456e-05
1.0001574e-05
1.0001567e-05
1.0001859e-05
1.0001723e-05
1.0001339e-05
1.0001129e-05
1.00009e-05
1.000067e-05
1.0000484e-05
1.0000564e-05
1.0000647e-05
0.0012246436
0.0026798991
0.0030362833
0.002496433
0.00088012158
5.266887e-05
1.0405331e-05
1.0243624e-05
1.0131618e-05
1.0114115e-05
1.0056173e-05
1.0055293e-05
1.0023199e-05
1.002619e-05
1.0011954e-05
1.0012275e-05
1.0006938e-05
1.0005842e-05
1.0003783e-05
1.0002889e-05
1.0001951e-05
1.0001429e-05
1.0001023e-05
1.0000804e-05
1.0000729e-05
1.0000628e-05
1.0000532e-05
1.0000469e-05
1.0000457e-05
1.0000491e-05
1.0000534e-05
1.0000551e-05
1.0000554e-05
1.000059e-05
1.0000722e-05
1.0000795e-05
1.0000912e-05
1.0001152e-05
1.0001443e-05
1.0001567e-05
1.0001554e-05
1.0001804e-05
1.00017e-05
1.0001334e-05
1.0001122e-05
1.00009e-05
1.0000671e-05
1.0000471e-05
1.0000544e-05
1.0000632e-05
0.0012211097
0.00264623
0.0029529056
0.0023424264
0.00072435021
3.7155919e-05
1.0352771e-05
1.0238303e-05
1.0129204e-05
1.0111312e-05
1.0055177e-05
1.0053984e-05
1.002295e-05
1.0025572e-05
1.0011915e-05
1.0011971e-05
1.0006848e-05
1.0005698e-05
1.0003721e-05
1.0002831e-05
1.0001928e-05
1.0001415e-05
1.000102e-05
1.0000803e-05
1.0000728e-05
1.0000627e-05
1.0000531e-05
1.0000466e-05
1.0000453e-05
1.0000486e-05
1.000053e-05
1.0000548e-05
1.0000552e-05
1.0000586e-05
1.0000713e-05
1.0000785e-05
1.00009e-05
1.0001137e-05
1.0001428e-05
1.000156e-05
1.0001543e-05
1.0001751e-05
1.000167e-05
1.0001328e-05
1.0001114e-05
1.0000899e-05
1.0000678e-05
1.0000458e-05
1.0000525e-05
1.0000617e-05
0.0012177597
0.0026131022
0.0028708607
0.0021794245
0.00058639053
2.6912682e-05
1.0322913e-05
1.023295e-05
1.0126753e-05
1.0108534e-05
1.0054189e-05
1.0052653e-05
1.0022709e-05
1.0024956e-05
1.0011877e-05
1.0011668e-05
1.0006759e-05
1.0005558e-05
1.000366e-05
1.0002775e-05
1.0001904e-05
1.0001401e-05
1.0001017e-05
1.0000802e-05
1.0000726e-05
1.0000625e-05
1.0000529e-05
1.0000464e-05
1.0000448e-05
1.000048e-05
1.0000525e-05
1.0000544e-05
1.0000551e-05
1.0000582e-05
1.0000703e-05
1.0000774e-05
1.0000888e-05
1.000112e-05
1.0001413e-05
1.0001551e-05
1.0001534e-05
1.0001693e-05
1.0001638e-05
1.0001321e-05
1.0001106e-05
1.0000896e-05
1.0000683e-05
1.0000445e-05
1.0000506e-05
1.0000602e-05
0.0012145902
0.0025798041
0.0027948213
0.0020076105
0.00047144551
2.0654554e-05
1.0304493e-05
1.0227548e-05
1.0124266e-05
1.010576e-05
1.0053215e-05
1.0051316e-05
1.0022477e-05
1.0024343e-05
1.0011839e-05
1.0011343e-05
1.000667e-05
1.0005421e-05
1.00036e-05
1.000272e-05
1.0001882e-05
1.0001387e-05
1.0001014e-05
1.0000801e-05
1.0000724e-05
1.0000623e-05
1.0000527e-05
1.000046e-05
1.0000444e-05
1.0000475e-05
1.000052e-05
1.000054e-05
1.0000548e-05
1.0000577e-05
1.0000694e-05
1.0000763e-05
1.0000876e-05
1.0001104e-05
1.0001397e-05
1.0001542e-05
1.0001525e-05
1.0001629e-05
1.0001605e-05
1.0001313e-05
1.0001099e-05
1.000089e-05
1.0000682e-05
1.0000432e-05
1.0000487e-05
1.0000587e-05
0.0012114141
0.0025445654
0.0027112232
0.0018270216
0.0003709562
1.6578452e-05
1.0291619e-05
1.0222101e-05
1.0121742e-05
1.0103006e-05
1.0052256e-05
1.004999e-05
1.0022256e-05
1.0023736e-05
1.0011801e-05
1.0011014e-05
1.0006582e-05
1.0005288e-05
1.000354e-05
1.0002667e-05
1.0001859e-05
1.0001373e-05
1.000101e-05
1.00008e-05
1.0000722e-05
1.0000621e-05
1.0000524e-05
1.0000457e-05
1.0000439e-05
1.0000469e-05
1.0000515e-05
1.0000536e-05
1.0000545e-05
1.0000572e-05
1.0000684e-05
1.0000751e-05
1.0000863e-05
1.0001087e-05
1.000138e-05
1.0001532e-05
1.0001512e-05
1.0001566e-05
1.000156e-05
1.0001302e-05
1.0001092e-05
1.0000883e-05
1.000067e-05
1.0000419e-05
1.0000467e-05
1.0000572e-05
0.0012085032
0.0025085897
0.0026278985
0.0016411578
0.00028634018
1.4037814e-05
1.0281784e-05
1.0216613e-05
1.0119186e-05
1.0100272e-05
1.005131e-05
1.0048676e-05
1.0022044e-05
1.0023136e-05
1.001176e-05
1.0010704e-05
1.0006494e-05
1.0005159e-05
1.0003481e-05
1.0002616e-05
1.0001837e-05
1.000136e-05
1.0001007e-05
1.0000799e-05
1.000072e-05
1.0000618e-05
1.0000521e-05
1.0000453e-05
1.0000434e-05
1.0000464e-05
1.000051e-05
1.0000533e-05
1.0000542e-05
1.0000567e-05
1.0000674e-05
1.0000739e-05
1.0000851e-05
1.0001071e-05
1.0001364e-05
1.0001521e-05
1.0001503e-05
1.000152e-05
1.0001511e-05
1.000129e-05
1.0001085e-05
1.0000876e-05
1.0000652e-05
1.0000406e-05
1.0000448e-05
1.0000556e-05
0.0012057644
0.0024710908
0.002541674
0.001454004
0.00021681275
1.2507077e-05
1.0273605e-05
1.0211092e-05
1.0116607e-05
1.0097565e-05
1.005038e-05
1.004738e-05
1.0021844e-05
1.0022546e-05
1.0011717e-05
1.0010414e-05
1.0006406e-05
1.0005033e-05
1.0003424e-05
1.0002566e-05
1.0001814e-05
1.0001347e-05
1.0001003e-05
1.0000798e-05
1.0000717e-05
1.0000615e-05
1.0000517e-05
1.0000448e-05
1.0000429e-05
1.0000458e-05
1.0000505e-05
1.0000529e-05
1.0000539e-05
1.0000562e-05
1.0000664e-05
1.0000727e-05
1.0000839e-05
1.0001054e-05
1.0001347e-05
1.000151e-05
1.0001495e-05
1.0001493e-05
1.0001483e-05
1.0001277e-05
1.0001076e-05
1.0000872e-05
1.0000632e-05
1.0000391e-05
1.0000429e-05
1.0000541e-05
0.0012030027
0.0024307437
0.0024525268
0.0012763296
0.00016134382
1.161298e-05
1.0266304e-05
1.0205538e-05
1.0113997e-05
1.0094882e-05
1.0049463e-05
1.0046102e-05
1.0021655e-05
1.0021967e-05
1.001167e-05
1.0010153e-05
1.000632e-05
1.0004912e-05
1.0003367e-05
1.0002518e-05
1.0001792e-05
1.0001333e-05
1.0001e-05
1.0000798e-05
1.0000715e-05
1.0000612e-05
1.0000513e-05
1.0000444e-05
1.0000424e-05
1.0000452e-05
1.00005e-05
1.0000525e-05
1.0000535e-05
1.0000557e-05
1.0000654e-05
1.0000714e-05
1.0000826e-05
1.0001037e-05
1.000133e-05
1.00015e-05
1.0001489e-05
1.0001474e-05
1.0001461e-05
1.0001262e-05
1.0001067e-05
1.0000864e-05
1.0000614e-05
1.0000377e-05
1.000041e-05
1.0000525e-05
0.0011998932
0.0023851223
0.0023585912
0.0011085181
0.00011799851
1.1103356e-05
1.0259452e-05
1.0199959e-05
1.0111364e-05
1.0092236e-05
1.0048557e-05
1.0044846e-05
1.0021478e-05
1.0021402e-05
1.001162e-05
1.0009895e-05
1.0006234e-05
1.0004796e-05
1.0003311e-05
1.0002471e-05
1.000177e-05
1.000132e-05
1.0000996e-05
1.0000798e-05
1.0000712e-05
1.0000608e-05
1.0000509e-05
1.0000441e-05
1.000042e-05
1.0000446e-05
1.0000494e-05
1.0000521e-05
1.0000531e-05
1.0000551e-05
1.0000644e-05
1.00007e-05
1.0000814e-05
1.000102e-05
1.0001313e-05
1.000149e-05
1.0001483e-05
1.0001459e-05
1.0001438e-05
1.0001248e-05
1.0001057e-05
1.0000856e-05
1.0000599e-05
1.0000365e-05
1.0000392e-05
1.0000509e-05
0.0011963739
0.0023347562
0.0022585079
0.00095161913
8.4982437e-05
1.0818347e-05
1.0252836e-05
1.0194363e-05
1.0108718e-05
1.008963e-05
1.0047662e-05
1.0043615e-05
1.002131e-05
1.0020848e-05
1.0011566e-05
1.0009648e-05
1.0006147e-05
1.0004684e-05
1.0003256e-05
1.0002425e-05
1.0001747e-05
1.0001307e-05
1.0000992e-05
1.0000798e-05
1.0000709e-05
1.0000603e-05
1.0000505e-05
1.0000438e-05
1.0000416e-05
1.000044e-05
1.0000489e-05
1.0000517e-05
1.0000528e-05
1.0000546e-05
1.0000635e-05
1.0000686e-05
1.0000801e-05
1.0001002e-05
1.0001293e-05
1.0001479e-05
1.0001476e-05
1.0001449e-05
1.00014e-05
1.0001235e-05
1.0001043e-05
1.0000846e-05
1.0000587e-05
1.0000355e-05
1.0000374e-05
1.0000493e-05
0.0011922258
0.002278716
0.0021468013
0.00080666308
6.0578894e-05
1.0660125e-05
1.0246376e-05
1.0188758e-05
1.0106065e-05
1.0087066e-05
1.0046783e-05
1.0042412e-05
1.0021153e-05
1.0020265e-05
1.0011507e-05
1.000941e-05
1.0006061e-05
1.0004577e-05
1.0003201e-05
1.0002381e-05
1.0001724e-05
1.0001294e-05
1.0000988e-05
1.0000799e-05
1.0000705e-05
1.0000598e-05
1.0000502e-05
1.0000435e-05
1.0000412e-05
1.0000434e-05
1.0000483e-05
1.0000513e-05
1.0000523e-05
1.0000539e-05
1.0000626e-05
1.0000672e-05
1.0000789e-05
1.0000983e-05
1.000127e-05
1.0001467e-05
1.0001468e-05
1.0001424e-05
1.0001371e-05
1.0001223e-05
1.0001027e-05
1.0000832e-05
1.0000579e-05
1.0000349e-05
1.0000357e-05
1.0000477e-05
0.0011874828
0.0022176043
0.0020201821
0.00067541379
4.3174911e-05
1.0571157e-05
1.0240041e-05
1.0183146e-05
1.0103407e-05
1.0084545e-05
1.004592e-05
1.004124e-05
1.002101e-05
1.0019694e-05
1.0011442e-05
1.0009182e-05
1.0005974e-05
1.0004474e-05
1.0003147e-05
1.0002337e-05
1.00017e-05
1.000128e-05
1.0000984e-05
1.0000801e-05
1.0000701e-05
1.0000594e-05
1.00005e-05
1.0000433e-05
1.0000407e-05
1.0000427e-05
1.0000478e-05
1.0000509e-05
1.0000518e-05
1.0000532e-05
1.0000617e-05
1.0000658e-05
1.0000775e-05
1.0000964e-05
1.0001247e-05
1.0001453e-05
1.0001459e-05
1.0001398e-05
1.0001359e-05
1.0001211e-05
1.0001015e-05
1.0000816e-05
1.0000575e-05
1.0000345e-05
1.0000339e-05
1.0000461e-05
0.0011824374
0.0021530859
0.0018812439
0.00055912219
3.1251874e-05
1.0518937e-05
1.0233785e-05
1.0177532e-05
1.0100744e-05
1.0082069e-05
1.0045075e-05
1.0040103e-05
1.0020879e-05
1.0019153e-05
1.0011373e-05
1.0008964e-05
1.0005887e-05
1.0004375e-05
1.0003092e-05
1.0002293e-05
1.0001676e-05
1.0001267e-05
1.0000981e-05
1.0000802e-05
1.0000697e-05
1.0000592e-05
1.0000499e-05
1.000043e-05
1.0000401e-05
1.000042e-05
1.0000472e-05
1.0000504e-05
1.0000512e-05
1.0000525e-05
1.0000608e-05
1.0000644e-05
1.0000762e-05
1.0000945e-05
1.0001222e-05
1.0001441e-05
1.0001452e-05
1.0001372e-05
1.0001347e-05
1.00012e-05
1.0001009e-05
1.0000798e-05
1.0000572e-05
1.0000344e-05
1.000032e-05
1.0000444e-05
0.0011773472
0.0020860782
0.0017320871
0.00045609194
2.3488132e-05
1.0485863e-05
1.0227565e-05
1.0171923e-05
1.0098085e-05
1.0079642e-05
1.0044252e-05
1.0039006e-05
1.0020763e-05
1.0018646e-05
1.0011299e-05
1.0008757e-05
1.0005801e-05
1.000428e-05
1.0003038e-05
1.000225e-05
1.0001652e-05
1.0001253e-05
1.0000978e-05
1.0000803e-05
1.0000693e-05
1.0000591e-05
1.0000497e-05
1.0000425e-05
1.0000394e-05
1.0000412e-05
1.0000466e-05
1.00005e-05
1.0000506e-05
1.0000517e-05
1.0000599e-05
1.000063e-05
1.0000748e-05
1.0000927e-05
1.0001196e-05
1.000143e-05
1.0001448e-05
1.0001348e-05
1.0001334e-05
1.0001191e-05
1.0001003e-05
1.0000783e-05
1.0000566e-05
1.0000341e-05
1.0000301e-05
1.0000427e-05
0.0011721253
0.0020159238
0.0015835115
0.0003689241
1.8689421e-05
1.0462553e-05
1.0221344e-05
1.0166327e-05
1.009544e-05
1.0077265e-05
1.0043455e-05
1.0037961e-05
1.0020661e-05
1.0018191e-05
1.0011223e-05
1.000856e-05
1.0005714e-05
1.0004189e-05
1.0002984e-05
1.0002207e-05
1.0001626e-05
1.000124e-05
1.0000976e-05
1.0000804e-05
1.0000692e-05
1.000059e-05
1.0000494e-05
1.0000419e-05
1.0000388e-05
1.0000405e-05
1.000046e-05
1.0000496e-05
1.0000499e-05
1.0000509e-05
1.000059e-05
1.0000616e-05
1.0000735e-05
1.0000908e-05
1.0001171e-05
1.0001419e-05
1.0001445e-05
1.0001327e-05
1.000132e-05
1.0001183e-05
1.0000999e-05
1.0000771e-05
1.0000556e-05
1.0000333e-05
1.0000285e-05
1.000041e-05
0.0011665911
0.0019383609
0.0014354377
0.00029313897
1.553783e-05
1.0443974e-05
1.0215086e-05
1.016075e-05
1.0092815e-05
1.0074942e-05
1.0042685e-05
1.0036985e-05
1.0020574e-05
1.0017766e-05
1.0011141e-05
1.0008373e-05
1.0005627e-05
1.00041e-05
1.0002928e-05
1.0002163e-05
1.0001601e-05
1.0001227e-05
1.0000975e-05
1.0000806e-05
1.0000693e-05
1.0000589e-05
1.0000489e-05
1.0000412e-05
1.0000381e-05
1.0000397e-05
1.0000454e-05
1.0000491e-05
1.0000491e-05
1.0000499e-05
1.0000581e-05
1.0000603e-05
1.0000721e-05
1.000089e-05
1.0001144e-05
1.0001402e-05
1.0001442e-05
1.0001311e-05
1.0001302e-05
1.0001176e-05
1.0000995e-05
1.0000762e-05
1.0000543e-05
1.000032e-05
1.000027e-05
1.0000392e-05
0.0011621223
0.0018615993
0.0012866547
0.00022886726
1.3545758e-05
1.0427773e-05
1.0208769e-05
1.01552e-05
1.0090211e-05
1.0072677e-05
1.0041944e-05
1.0036041e-05
1.0020503e-05
1.0017361e-05
1.0011055e-05
1.0008197e-05
1.000554e-05
1.0004014e-05
1.0002872e-05
1.0002119e-05
1.0001575e-05
1.0001215e-05
1.0000975e-05
1.0000809e-05
1.0000695e-05
1.0000587e-05
1.0000481e-05
1.0000405e-05
1.0000373e-05
1.000039e-05
1.0000447e-05
1.0000486e-05
1.0000483e-05
1.0000487e-05
1.0000571e-05
1.0000589e-05
1.0000707e-05
1.0000872e-05
1.0001115e-05
1.0001374e-05
1.0001439e-05
1.0001292e-05
1.000128e-05
1.0001168e-05
1.000099e-05
1.0000755e-05
1.0000531e-05
1.0000307e-05
1.0000255e-05
1.0000374e-05
0.0011590206
0.0017877829
0.0011401181
0.00017557065
1.2315872e-05
1.0412506e-05
1.0202381e-05
1.0149684e-05
1.0087637e-05
1.0070474e-05
1.0041234e-05
1.003514e-05
1.0020449e-05
1.0016979e-05
1.0010964e-05
1.0008031e-05
1.0005454e-05
1.0003929e-05
1.0002814e-05
1.0002075e-05
1.0001548e-05
1.0001203e-05
1.0000975e-05
1.0000811e-05
1.0000697e-05
1.0000581e-05
1.0000474e-05
1.0000398e-05
1.0000366e-05
1.0000382e-05
1.000044e-05
1.0000481e-05
1.0000474e-05
1.0000475e-05
1.000056e-05
1.0000574e-05
1.0000692e-05
1.0000853e-05
1.0001084e-05
1.0001328e-05
1.0001433e-05
1.0001274e-05
1.0001258e-05
1.0001161e-05
1.0000984e-05
1.000075e-05
1.000052e-05
1.0000296e-05
1.000024e-05
1.0000355e-05
0.0011567523
0.0017094187
0.00099793345
0.00013245012
1.1574818e-05
1.0397355e-05
1.019592e-05
1.014421e-05
1.00851e-05
1.0068336e-05
1.0040558e-05
1.0034281e-05
1.0020413e-05
1.0016622e-05
1.0010869e-05
1.0007874e-05
1.0005366e-05
1.0003845e-05
1.0002755e-05
1.000203e-05
1.0001522e-05
1.0001192e-05
1.0000973e-05
1.0000812e-05
1.0000697e-05
1.0000573e-05
1.0000466e-05
1.000039e-05
1.0000358e-05
1.0000374e-05
1.0000433e-05
1.0000476e-05
1.0000464e-05
1.000046e-05
1.0000548e-05
1.0000558e-05
1.0000677e-05
1.0000835e-05
1.0001053e-05
1.0001281e-05
1.0001416e-05
1.0001257e-05
1.000124e-05
1.0001153e-05
1.0000975e-05
1.0000744e-05
1.0000511e-05
1.0000287e-05
1.0000224e-05
1.0000336e-05
0.0011556416
0.0016268487
0.00086294551
9.839469e-05
1.1137191e-05
1.0382047e-05
1.0189385e-05
1.0138787e-05
1.0082606e-05
1.006627e-05
1.0039919e-05
1.0033466e-05
1.0020395e-05
1.0016288e-05
1.001077e-05
1.0007726e-05
1.0005277e-05
1.0003762e-05
1.0002694e-05
1.0001984e-05
1.0001496e-05
1.0001182e-05
1.0000969e-05
1.0000814e-05
1.0000694e-05
1.0000565e-05
1.0000457e-05
1.0000383e-05
1.0000351e-05
1.0000365e-05
1.0000426e-05
1.000047e-05
1.0000455e-05
1.0000445e-05
1.0000535e-05
1.0000541e-05
1.0000661e-05
1.0000815e-05
1.0001022e-05
1.000124e-05
1.000139e-05
1.0001239e-05
1.0001221e-05
1.0001139e-05
1.0000963e-05
1.0000735e-05
1.0000499e-05
1.0000278e-05
1.0000208e-05
1.0000317e-05
0.0011560277
0.0015402431
0.00073726578
7.2179171e-05
1.0881714e-05
1.0367032e-05
1.0182785e-05
1.0133427e-05
1.0080161e-05
1.0064278e-05
1.0039319e-05
1.0032695e-05
1.00204e-05
1.0015978e-05
1.0010668e-05
1.0007585e-05
1.0005188e-05
1.0003678e-05
1.0002631e-05
1.0001938e-05
1.000147e-05
1.000117e-05
1.0000963e-05
1.0000818e-05
1.0000688e-05
1.0000555e-05