/*--------------------------------*- C++ -*----------------------------------*\
  =========                 |
  \\      /  F ield         | OpenFOAM: The Open Source CFD Toolbox
   \\    /   O peration     | Website:  https://openfoam.org
    \\  /    A nd           | Version:  8
     \\/     M anipulation  |
\*---------------------------------------------------------------------------*/
FoamFile
{
    version     2.0;
    format      ascii;
    class       volScalarField;
    location    "0.120004";
    object      p;
}
// * * * * * * * * * * * * * * * * * * * * * * * * * * * * * * * * * * * * * //

dimensions      [1 -1 -2 0 0 0 0];

internalField   nonuniform List<scalar> 
20000
(
56586.524
56602.797
56621.81
56648.351
56684.67
56733.02
56799.469
56877.072
56974.092
57089.064
57224.127
57393.81
57584.878
57833.82
58109.507
58471.947
58876.463
59402.406
60002.141
60766.625
61659.171
62773.334
64094.253
65709.225
67623.654
69901.671
72535.674
75509.777
78719.053
82007.507
85166.649
88021.259
90471.555
92502.6
94144.219
95451.606
96476.267
97276.349
97901.174
98394.409
98777.889
99073.954
99300.454
99469.845
99631.074
99870.811
100117.1
100253.16
100259.78
100398.13
56704.985
56722.149
56741.629
56768.473
56805.176
56854.209
56921.776
57001.007
57100.068
57218.166
57356.992
57532.69
57729.835
57988.348
58273.153
58649.325
59067.49
59612.333
60232.276
61022.412
61943.664
63091.427
64449.789
66104.448
68058.304
70367.737
73014.956
75969.68
79122.171
82326.28
85398.157
88181.682
90581.904
92579.175
94197.966
95488.831
96502.093
97294.481
97915.145
98405.407
98786.733
99081.7
99306.603
99472.982
99637.129
99905.257
100137.92
100252.9
100279.83
100387.7
56824.731
56842.544
56862.858
56890.863
56929.251
56980.629
57051.272
57133.654
57236.563
57359.424
57503.23
57685.813
57889.432
58157.649
58451.758
58841.573
59273.519
59837.325
60477.767
61294.129
62244.865
63427.67
64825.291
66522.816
68520.261
70867.319
73535.715
76481.157
79586.707
82712.374
85695.134
88398.367
90735.885
92687.697
94274.287
95541.826
96538.791
97320.142
97934.216
98419.861
98797.941
99091.088
99313.752
99476.82
99647.189
99938.45
100152.25
100255.73
100296.58
100378.75
56961.165
56979.678
57000.81
57029.882
57069.822
57123.323
57196.779
57281.958
57388.181
57515.321
57663.783
57853.143
58063.297
58341.561
58645.23
59049.181
59495.38
60078.88
60740.683
61584.25
62565.667
63785.094
65224.129
66967.443
69012.256
71401.765
74096.994
77040.046
80106.223
83159.249
86052.882
88669.516
90934.623
92830.901
94376.552
95613.878
96589.238
97355.784
97960.482
98439.506
98812.931
99103.229
99322.577
99482.434
99664.287
99966.384
100162.1
100260.88
100307.15
100373.13
57106.448
57125.701
57148.005
57178.471
57220.344
57276.388
57353.243
57441.742
57551.989
57684.058
57837.675
58034.39
58251.445
58540.214
58853.882
59272.581
59733.813
60337.971
61022.321
61894.443
62908.325
64166.548
65649.779
67442.108
69537.956
71973.565
74698.911
77642.624
80672.447
83655.051
86458.907
88984.333
91169.654
93002.477
94500.068
95701.527
96650.988
97399.604
97992.541
98463.235
98830.824
99117.336
99332.288
99489.718
99688.934
99989.353
100171.95
100266.39
100314.74
100368.56
57267.064
57286.474
57309.862
57341.716
57385.429
57443.72
57523.66
57615.335
57729.452
57866.356
58025.025
58229.263
58453.401
58753.114
59077.263
59511.476
59988.622
60614.544
61322.76
62224.93
63273.248
64572.659
66103.047
67947.681
70098.066
72582.766
75340.183
78285.7
81280.223
84193.289
86906.614
89337.396
91437.313
93200.277
94643.764
95804.308
96723.893
97451.613
98030.512
98491.207
98851.789
99133.498
99342.844
99498.825
99718.966
100009.7
100181.77
100271.63
100319
100364.87
57439.234
57458.668
57482.734
57516.006
57561.765
57622.376
57705.402
57800.363
57918.674
58060.77
58224.763
58436.968
58668.583
58979.813
59315.052
59765.619
60259.673
60908.473
61641.888
62575.718
63660.69
65003.937
66584.649
68484.967
70693.197
73229.269
76019.382
78965.962
81924.146
84766.888
87388.476
89721.971
91732.3
93420.489
94805.031
95920.476
96806.811
97511.048
98073.877
98523.07
98875.585
99151.453
99354.035
99509.612
99751.784
100029.69
100191.94
100276.4
100321.37
100361.61
57619.947
57642.422
57667.3
57701.913
57749.702
57812.6
57898.842
57996.972
58119.56
58267.096
58436.59
58657.142
58896.601
59219.948
59566.924
60034.726
60546.658
61219.452
61979.5
62946.78
64070.832
65460.722
67095.024
69054.41
71323.536
73912.573
76734.881
79680.392
82599.804
85370.364
87898.647
90132.714
92050.352
93660.031
94981.796
96048.679
96898.878
97577.359
98122.304
98558.633
98902.103
99171.062
99365.834
99522.145
99786.056
100049.89
100202.23
100280.8
100322.47
100358.58
57810.716
57834.767
57860.397
57896.78
57947.1
58012.66
58102.626
58204.153
58331.294
58484.713
58660.02
58889.376
59137.113
59473.24
59832.668
60318.575
60849.359
61547.272
62335.491
63338.187
64503.931
65943.39
67634.622
69656.432
71989.173
74631.983
77484.831
80425.843
83302.79
85998.373
88431.464
90564.36
92387.1
93915.597
95171.71
96187.303
96999.014
97649.828
98175.317
98597.586
98931.131
99192.156
99378.335
99536.789
99820.914
100070.22
100212.53
100284.92
100322.97
100355.6
58012.083
58037.955
58064.079
58102.182
58155.161
58223.301
58317.327
58422.274
58553.944
58713.489
58894.831
59133.424
59389.9
59739.511
60112.101
60616.944
61167.52
61891.779
62709.952
63750.269
64960.492
66452.547
68204.105
70291.625
72690.301
75386.848
78267.452
81199.39
84029.199
86646.318
88982.076
91012.33
92738.663
94184.172
95372.578
96334.812
97106.17
97727.743
98232.446
98639.627
98962.451
99214.583
99391.843
99554.336
99855.619
100090.34
100222.66
100288.83
100323.15
100352.56
58222.663
58250.73
58277.239
58316.739
58372.416
58443.071
58541.757
58650.547
58786.886
58952.925
59140.672
59389.065
59654.81
60018.603
60405.015
60929.582
61500.996
62253.01
63103.136
64183.437
65441.037
66988.791
68804.12
70960.522
73426.951
76176.269
79080.701
81997.931
84775.116
87309.768
89545.914
91472.323
93101.348
94462.828
95582.216
96489.635
97219.246
97810.346
98293.18
98684.414
98995.801
99238.178
99406.784
99575.901
99889.431
100109.91
100232.43
100292.5
100323.17
100349.37
58440.679
58471.071
58499.03
58540.267
58599.234
58672.376
58775.543
58888.715
59030.062
59203.013
59397.522
59656.252
59931.732
60310.308
60711.133
61256.268
61849.756
62631.203
63515.525
64638.325
65946.31
67552.966
69435.574
71663.874
74199.266
76999.372
79922.568
82818.502
85536.924
87984.753
90118.939
91940.539
93471.844
94748.891
95798.582
96650.272
97337.171
97896.885
98357
98731.592
99030.901
99262.759
99423.608
99602.694
99921.569
100128.74
100241.76
100295.78
100322.77
100345.94
58671.464
58702.125
58731.701
58774.625
58836.768
58912.193
59019.34
59136.939
59283.418
59463.637
59665.253
59934.817
60220.412
60614.305
61030.189
61596.95
62214.057
63026.831
63947.707
65115.577
66477.04
68145.908
70099.359
72402.334
75007.155
77854.961
80790.738
83657.936
86310.957
88667.421
90697.357
92413.446
93847.078
95039.847
96019.725
96815.264
97458.884
97986.6
98423.377
98780.795
99067.449
99288.137
99442.621
99635.292
99951.547
100146.84
100250.63
100298.48
100321.69
100342.23
58908.805
58940.394
58971.543
59016.31
59081.712
59160.39
59272.412
59394.888
59546.769
59734.631
59943.63
60224.433
60520.459
60930.273
61362.119
61951.87
62594.395
63440.505
64400.378
65615.981
67034.151
68768.698
70796.592
73176.69
75850.541
78741.773
81682.844
84513.126
87093.767
89354.272
91277.783
92887.919
94224.312
95333.431
96243.858
96983.246
97583.371
98078.753
98491.79
98831.65
99105.129
99314.112
99463.892
99672.531
99979.993
100164.38
100259.03
100300.7
100320.06
100338.28
59153.318
59186.296
59219.413
59266.25
59335.57
59418.088
59534.763
59662.514
59820.035
60015.762
60232.232
60524.616
60831.518
61258.175
61707.244
62321.608
62991.435
63872.883
64874.229
66140.332
67618.601
69422.447
71528.359
73987.552
76729.023
79658.156
82596.184
85380.757
87881.872
90041.907
91857.026
93361.061
94601.029
95627.558
96469.317
97152.931
97709.661
98172.627
98561.726
98883.783
99143.614
99340.439
99487.259
99712.446
100008.09
100181.5
100267.11
100302.67
100318.1
100334.18
59407.94
59442.231
59477.09
59525.84
59599.062
59685.155
59806.173
59939.217
60102.492
60306.332
60530.471
60835.034
61153.671
61598.472
62066.255
62706.855
63405.836
64324.619
65370.041
66689.618
68231.598
70108.519
72295.924
74835.555
77642.074
80602.301
83527.964
86257.578
88671.981
90727.217
92432.235
93830.319
94975.018
95920.385
96694.612
97323.143
97836.849
98267.542
98632.694
98936.827
99182.58
99366.867
99512.448
99754.347
100036
100198.03
100274.9
100304.42
100316.02
100330.03
59669.053
59704.986
59741.892
59793.021
59870.339
59960.502
60086.041
60224.161
60393.302
60605.841
60838.271
61156.068
61487.616
61952.001
62439.899
63108.243
63838.169
64796.345
65888.642
67264.901
68874.411
70828.29
73100.447
75721.06
78588.755
81571.96
84475.075
87140.179
89460.789
91407.186
93000.734
94293.351
95344.277
96210.249
96918.389
97492.796
97964.089
98362.853
98704.222
98990.417
99221.714
99393.226
99539.268
99798.057
100063.53
100213.6
100282.08
100305.91
100313.87
100325.86
59938.998
59976.49
60015.3
60068.715
60150.005
60244.026
60373.818
60517.566
60692.736
60914.748
61156.45
61488.768
61834.355
62319.508
62828.715
63526.204
64288.977
65288.815
66431.072
67867.484
69548.535
71583.33
73943.162
76644.321
79567.905
82564.677
85434.317
88025.218
90245.17
92079.065
93560.151
94748.118
95707.083
96495.718
97139.46
97660.92
98090.609
98457.967
98775.872
99044.196
99260.711
99419.496
99567.814
99843.245
100090.47
100227.77
100288.31
100307.23
100311.8
100321.71
60214.081
60253.322
60294.172
60350.198
60435.923
60534.316
60668.886
60819.607
61001.736
61234.384
61486.314
61834.177
62194.486
62701.311
63232.966
63961.162
64758.899
65802.915
66998.492
68498.74
70255.507
72375.188
74825.118
77605.202
80577.874
83577.578
86402.235
88909.241
91022.019
92740.208
94108.28
95192.781
96061.905
96775.53
97356.77
97826.634
98215.699
98552.337
98847.23
99097.818
99299.296
99445.858
99598.624
99888.952
100116.66
100240.44
100293.35
100308.29
100309.88
100317.55
60496.213
60537.459
60580.644
60639.748
60730.21
60833.289
60973.24
61132.379
61322.281
61566.253
61828.645
62192.483
62567.977
63097.458
63652.978
64413.662
65248.744
66339.745
67592.288
69160.259
70997.073
73205.553
75747.31
78603.309
81616.682
84607.578
87375.33
89788.889
91788.421
93388.219
94643.192
95625.782
96407.47
97048.62
97569.415
97989.173
98338.724
98645.469
98917.92
99150.949
99337.24
99472.685
99632.688
99933.424
100141.86
100252.15
100297.19
100308.84
100307.99
100313.35
60789.797
60833.138
60878.484
60940.596
61035.571
61143.287
61288.937
61456.865
61654.549
61910.048
62182.825
62563.164
62954.687
63508.234
64089.325
64884.474
65759.501
66900.557
68213.95
69853.705
71775.033
74076.04
76710.421
79637.747
82681.846
85651.209
88349.892
90660.751
92541.515
94020.827
95163.125
96045.752
96742.681
97314.065
97776.607
98147.869
98459.113
98736.922
98987.594
99203.272
99374.355
99500.43
99671.237
99974.436
100165.59
100263.33
100300.65
100309.16
100305.89
100309.12
61092.959
61138.835
61186.689
61252.349
61352.46
61465.747
61616.797
61793.003
61997.054
62264.402
62548.055
62946.173
63355.07
63934.346
64542.787
65374.481
66292.325
67486.797
68865.144
70580.934
72591.358
74988.284
77714.909
80707.245
83770.56
86704.822
89322.186
91521.529
93278.657
94636.037
95666.594
96451.58
97066.657
97571.11
97977.698
98302.17
98576.379
98826.303
99055.94
99254.49
99410.485
99529.403
99714.805
100010.24
100187.18
100274.02
100304.36
100309.41
100303.51
100304.86
61405.948
61454.092
61504.054
61573.05
61678.29
61796.964
61953.319
62137.915
62349.236
62629.323
62924.978
63342.382
63770.028
64376.578
65014.179
65884.703
66848.562
68100.056
69547.622
71343.876
73448.04
75943.731
78760.784
81809.952
84879.484
87764.395
90288.287
92367.883
93997.309
95232.06
96152.309
96842.307
97378.65
97819.122
98172.156
98451.61
98690.116
98913.268
99122.673
99304.319
99445.484
99559.601
99760.572
100042.2
100206.21
100284.19
100309.16
100309.46
100300.87
100300.63
61721.515
61772.569
61825.362
61898.609
62009.723
62134.562
62297.638
62492.023
62711.318
63006.579
63314.944
63752.874
64200.212
64835.566
65504.346
66416.345
67429.756
68742.067
70263.28
72144.645
74347.169
76943.693
79847.665
82943.551
86004.909
88825.713
91244.25
93196.607
94695.215
95807.459
96619.283
97217.166
97678.056
98057.657
98359.598
98595.792
98800.012
98997.523
99187.544
99352.498
99479.197
99590.759
99806.685
100071.5
100222.67
100292.92
100314.96
100308.43
100297.99
100296.5
62048.819
62102.778
62158.375
62235.794
62352.548
62483.308
62652.949
62857.352
63085.041
63396.757
63718.644
64178.021
64646.099
65311.979
66014.43
66970.893
68037.618
69414.647
71014.122
72985.465
75290.796
77989.127
80974.541
84105.047
87142.559
89884.226
92185.985
94004.551
95370.341
96361.063
97066.761
97575.502
97964.372
98286.457
98539.766
98734.331
98905.809
99078.827
99250.327
99398.785
99511.463
99622.521
99852.26
100098.8
100237.06
100299.96
100319.61
100306.73
100295.03
100292.44
62385.784
62442.681
62501.099
62582.811
62705.485
62842.688
63019.084
63234.168
63471.365
63799.585
64135.635
64618.023
65108.299
65806.927
66545.864
67549.993
68673.916
70119.712
71802.343
73868.775
76280.984
79080.653
82139.847
85290.898
88287.812
90935.271
93109.518
94788.959
96021.132
96891.995
97494.242
97916.878
98237.308
98505.509
98712.52
98866.855
99007.249
99157.01
99310.831
99442.984
99542.201
99654.659
99896.785
100124.16
100249.63
100305.28
100322
100304.78
100292.13
100288.4
62730.119
62790.467
62852.399
62939.15
63068.615
63213.18
63396.802
63623.24
63870.487
64216.32
64566.153
65073.411
65587.903
66321.902
67100.328
68155.359
69340.443
70859.272
72630.319
74797.125
77319.604
80218.307
83341.246
86496.869
89435.614
91973.997
94011.073
95547.672
96646.497
97399.391
97901.225
98241.076
98496.881
98714.925
98877.704
98993.069
99103.977
99231.965
99368.894
99484.977
99571.57
99687.291
99939.729
100147.28
100260.29
100309.33
100323.2
100303.07
100289.25
100284.34
63085.672
63149.365
63214.677
63306.282
63442.692
63594.625
63785.89
64024.632
64282.518
64647.356
65011.572
65545.429
66086.48
66858.523
67679.497
68788.664
70039.083
71635.579
73500.719
75773.212
78408.3
81401.555
84575.708
87718.191
90580.66
92995.696
94887.659
96279.597
97245.858
97882.276
98287.023
98548.193
98743.593
98914.752
99035.001
99112.948
99195.557
99303.63
99424.392
99524.758
99600.154
99721.282
99980.258
100167.82
100268.9
100312.22
100323.84
100301.36
100286.3
100280.26
63448.911
63516.313
63585.505
63682.459
63826.532
63986.729
64186.327
64438.387
64708.039
65092.747
65473.683
66036.38
66605.627
67418.323
68284.877
69451.595
70771.89
72451.159
74416.438
76799.679
79548.236
82629.055
85839.36
88949.464
91717.356
93996.01
95737.426
96984.53
97818.566
98339.483
98650.652
98838.531
98978.285
99104.61
99183.844
99226.865
99281.707
99371.917
99477.24
99562.424
99628.935
99758.389
100017.18
100185.73
100275.45
100313.66
100324.11
100299.44
100283.2
100276.11
63822.401
63893.87
63967.545
64070.154
64222.128
64391.234
64599.664
64865.985
65147.982
65553.737
65952.672
66547.553
67146.868
68002.657
68917.963
70145.978
71541.266
73308.929
75380.627
77879.085
80740.03
83898.649
87127.594
90184.833
92840.191
94971.57
96559.914
97662.159
98362.906
98770.278
98991.472
99112.444
99201.502
99283.533
99323.831
99335.358
99362.807
99436.631
99527.392
99598.151
99658.937
99800.224
100049.53
100201.23
100280.57
100314.27
100324.16
100297.18
100279.89
100271.89
64207.165
64283.002
64361.68
64470.342
64630.627
64809.224
65026.793
65308.266
65603.036
66031.322
66450.16
67079.367
67711.501
68612.905
69580.405
70873.972
72350.009
74212.134
76396.541
79013.665
81983.506
85207.181
88434.932
91417.991
93944.021
95920.354
97355.02
98309.434
98876.588
99173.995
99310.667
99370.133
99412.073
99451.229
99455.192
99438.211
99440.263
99497.474
99574.822
99632.144
99690.689
99845.794
100078.27
100214.9
100284.97
100314.44
100323.46
100294.55
100276.36
100267.57
64604.174
64684.574
64768.622
64883.549
65052.284
65240.892
65467.94
65765.757
66074.158
66527.051
66968.086
67632.705
68300.666
69250.526
70274.204
71638.217
73201.36
75164.342
77467.465
80205.223
83277.64
86550.54
89755.185
92642.596
95024.73
96841.83
98120.382
98922.553
99357.334
99550.819
99610.552
99611.837
99608.389
99610.41
99578.067
99533.204
99515.834
99554.255
99619.493
99664.589
99723.893
99892.799
100105.21
100227.15
100288.68
100314.44
100321.85
100291.55
100272.59
100263.13
65012.594
65097.765
65187.524
65308.966
65486.566
65686.243
65923.625
66239.52
66563.07
67042.649
67507.75
68209.689
68915.238
69917.214
71001.927
72441.861
74098.907
76169.29
78596.513
81454.858
84620.331
87923.51
91081.469
93852.577
96079.583
97735.55
98850.484
99497.901
99803.598
99902.572
99893.397
99838.247
99792.468
99760.105
99692.537
99620.841
99588.855
99607.304
99661.317
99695.618
99758.123
99939.805
100130.98
100238.37
100291.43
100313.53
100319.72
100288.24
100268.59
100258.55
65431.582
65522.128
65618.477
65747.239
65934.77
66147.125
66395.881
66731.521
67071.79
67579.517
68070.33
68811.634
69556.561
70615.172
71766.805
73288.504
75046.501
77230.809
79786.51
82762.853
86008.33
89319.912
92406.653
95042.746
97107.378
98597.41
99540.18
100032.15
100217.63
100234.8
100157.37
100049.85
99965.029
99900.42
99798.802
99702.132
99657.546
99657.79
99700.176
99725.446
99793.18
99985.511
100155.55
100249
100293.59
100311.96
100317.34
100284.63
100264.33
100253.8
65864.144
65960.685
66064.499
66201.555
66399.657
66625.912
66886.511
67243.176
67600.988
68138.128
68656.264
69439.172
70227.856
71347.429
72572.541
74182.035
76048.153
78352.681
81039.754
84128.424
87437.083
90732.59
93723.655
96209.09
98107.234
99420.147
100184.62
100524.72
100607.79
100545.13
100402.93
100247.09
100126.78
100031.57
99897.626
99777.879
99719.641
99707.133
99736.073
99754.549
99829.3
100028.38
100178.3
100259.12
100295.93
100310.18
100314.81
100280.71
100259.83
100248.89
66313.47
66416.222
66527.819
66673.565
66881.996
67122.899
67395.495
67774.516
68150.164
68719.421
69266.772
70094.15
70932.679
72117.665
73423.017
75126.542
77108.022
79538.588
82357.854
85549.601
88900.848
92153.802
95026.013
97349.116
99074.617
100196.82
100780.54
100982.98
100974.39
100833.37
100630.64
100430.64
100278.19
100153.93
99989.5
99848.101
99775.891
99754.621
99769.425
99783.631
99867.494
100066.77
100198.25
100268.12
100298.76
100309.07
100311.76
100276.43
100255.14
100243.82
66777.899
66887.206
67007.035
67162.101
67380.914
67637.641
67922.79
68325.922
68720.625
69324.408
69904.13
70780.056
71674.224
72929.919
74322.314
76126.258
78230.353
80791.944
83741.463
87022.964
90392.627
93575.504
96308.198
98461.282
100000.86
100921.64
101328.64
101415.37
101314.91
101100.04
100841.32
100601.21
100419.76
100267.9
100074.65
99912.672
99827.269
99799.053
99801.255
99813.362
99908.804
100099.42
100214.96
100275.19
100300.92
100308.51
100307.67
100271.89
100250.29
100238.6
67256.275
67372.772
67501.688
67667.221
67896.72
68170.865
68469.359
68898.587
69314.232
69955.657
70571.781
71500.805
72456.427
73788.202
75274.661
77185.605
79419.434
82115.704
85190.103
88543.623
91904.408
94989.945
97566
99542.01
100876.48
101590.7
101838.44
101820.21
101629.8
101346.04
101035.83
100759.55
100552.01
100373.87
100153.28
99972.042
99874.416
99839.012
99832.799
99844.148
99951.86
100126.78
100228.62
100280.45
100302.17
100308.27
100303.14
100267.28
100245.3
100233.26
67750.13
67874.605
68013.481
68190.566
68430.93
68724.109
69036.923
69494.885
69933.787
70616.877
71273.985
72260.536
73283.197
74696.47
76284.45
78309.289
80679.475
83512.024
86701.81
90105.147
93427.421
96390.073
98796.507
100581.72
101694.66
102204.62
102318.56
102194.91
101919.88
101572.32
101215.04
100906.39
100675.45
100472.22
100225.57
100026.51
99917.75
99874.952
99863.984
99875.603
99993.344
100150.39
100239.9
100284.41
100302.74
100308.14
100298.41
100262.56
100240.21
100227.83
68261.769
68394.948
68544.274
68733.697
68985.087
69299.281
69628.173
70118.671
70583.443
71312.384
72015.047
73063.118
74158.294
75658.834
77356.408
79502.317
82014.507
84982.001
88272.945
91699.677
94952.736
97769.889
99996.976
101568.38
102450.4
102773.38
102767.37
102540.05
102186.29
101779.95
101379.89
101042.5
100790.61
100563.28
100291.67
100076.09
99957.166
99908.162
99894.471
99906.99
100031.68
100170.79
100249.26
100287.73
100302.96
100307.69
100293.45
100257.73
100235.03
100222.35
68790.855
68933.917
69094.405
69297.684
69561.543
69899.925
70247.53
70774.316
71268.235
72046.182
72798.475
73912.019
75085.799
76679.977
78495.63
80769.862
83428.107
86525.358
89898.014
93318.048
96471.658
99124.378
101158.37
102493.03
103142.41
103308.02
103181.5
102856.7
102430.2
101969.98
101531.28
101168.61
100897.98
100647.36
100351.62
100120.85
99993.053
99939.299
99923.953
99937.8
100066.4
100188.32
100256.49
100289.64
100303
100306.79
100288.05
100252.82
100229.82
100216.84
69342.224
69496.235
69668.356
69887.641
70166.263
70532.265
70900.266
71465.979
71991.132
72820.74
73627.024
74810.729
76071.023
77765.255
79707.5
82117.066
84923.013
88140.134
91569.769
94950.347
97976.244
100449.56
102267.6
103349.34
103780.31
103807.37
103561.67
103146.25
102652.9
102143.51
101670.15
101285.44
100998.06
100724.67
100405.52
100161.09
100025.89
99968.665
99952.247
99967.613
100097.43
100203.39
100262.12
100290.45
100302.06
100305.25
100282.58
100247.74
100224.74
100211.28
69919.821
70086.605
70271.934
70510.707
70805.239
71200.338
71588.763
72195.107
72753.418
73638.259
74504.137
75763.598
77119.911
78920.687
80997.626
83548.753
86500.662
89822.284
93279.222
96586.446
99459.365
101738.99
103311.45
104133.4
104377.01
104267.94
103909.12
103410.15
102855.68
102301.63
101797.41
101393.69
101091.28
100795.4
100453.5
100197.19
100056.1
99996.45
99979.342
99996.395
100124.82
100216.28
100266.6
100290.68
100300.58
100303.24
100277.13
100242.59
100219.85
100205.64
70531.607
70711.469
70909.906
71169.134
71477.446
71902.438
72310.595
72962.706
73558.091
74502.802
75435.038
76776.79
78237.952
80152.389
82371.892
85069.211
88160.818
91565.527
95015.955
98216.641
100915.02
102978.98
104281.72
104852.67
104934.17
104689.53
104225.49
103649.95
103039.83
102445.43
101913.96
101494.05
101178.11
100859.76
100495.73
100229.53
100084.04
100022.87
100005.42
100025.02
100148.42
100227.13
100270.16
100290.71
100298.74
100300.86
100271.59
100237.46
100215.17
100199.9
71163.987
71359.454
71572.505
71854.334
72178.125
72637.676
73068.967
73771.702
74410.166
75419.854
76425.74
77856.979
79430.523
81466.846
83836.342
86681.789
89901.142
93361.318
96768.556
99831.744
102337.57
104153.2
105172.41
105520.21
105448.73
105073.51
104512.52
103867.2
103206.67
102575.98
102020.66
101587.16
101259.03
100918
100532.34
100258.46
100110.01
100048.19
100030.81
100054.91
100168.19
100236.13
100272.58
100289.8
100296.38
100298.11
100266.01
100232.43
100210.69
100194.14
71826.138
72038.823
72266.735
72573.204
72914.569
73414.138
73870.78
74628.605
75315.812
76395.079
77481.794
79009.896
80704.517
82871.033
85396.852
88388.29
91716.798
95199.098
98525.41
101423.08
103714.83
105249.78
105985.93
106143.48
105918.76
105421.75
104772.06
104063.5
103357.46
102694.33
102118.36
101673.69
101334.57
100970.43
100563.47
100284.33
100134.34
100072.68
100055.82
100084.99
100185.29
100243.73
100274.24
100288.25
100293.47
100294.9
100260.43
100227.57
100206.36
100188.52
72520.45
72753.05
72997.589
73332.814
73693.319
74237.382
74723.304
75539.886
76280.726
77433.966
78609.225
80241.315
82067.064
84372.65
87058.686
90188.305
93600.198
97066.668
100275.31
102982.97
105029.28
106260.55
106734.53
106720.23
106345.68
105736.33
105006.01
104240.41
103493.47
102801.49
102207.89
101754.27
101405.1
101017.01
100589.55
100307.55
100157.39
100096.57
100080.53
100113.51
100200.41
100250.31
100275.69
100286.73
100290.37
100291
100254.87
100222.92
100202.14
100183.18
73255.241
73510.174
73773.055
74140.816
74521.024
75113.757
75630.739
76509.681
77309.805
78542.782
79816.099
81557.3
83526.404
85979.699
88825.631
92078.496
95540.951
98950.785
102007.41
104502.2
106262.89
107182.09
107432.56
107246.27
106731.56
106019.42
105216.27
104399.45
103615.91
102898.44
102290.05
101829.45
101470.71
101056.98
100611.8
100328.71
100179.48
100119.94
100104.77
100139.56
100213.69
100255.85
100276.95
100285.79
100288.57
100285.44
100249.41
100218.5
100198.06
100178.13
74035.417
74314.22
74595.881
74998.703
75398.458
76045.685
76596.256
77541.728
78408.589
79728.196
81109.016
82969.498
85092.464
87699.462
90698.955
94052.139
97526.164
100837.92
103711.11
105962.1
107404.97
108025.15
108078.81
107722.96
107078.79
106273.3
105404.72
104542.14
103725.96
102986.14
102365.6
101899.73
101531.2
101089.24
100631.94
100348.39
100200.88
100142.75
100128.35
100162.99
100225.22
100260.39
100277.85
100285.02
100287.26
100279.47
100244.08
100214.29
100194.1
100173.38
74859.326
75164.768
75466.583
75907.704
76327.382
77034.769
77624.311
78642.013
79584.984
80999.474
82499.203
84489.91
86775.026
89537.265
92676.642
96099.07
99541.068
102714.68
105376.31
107341.34
108447.9
108806.32
108669.05
108152.56
107389.96
106500.26
105573.22
104669.9
103824.75
103065.52
102435.29
101965.48
101586.4
101115.03
100650.06
100367.04
100221.72
100164.93
100151.07
100183.84
100235.17
100263.99
100278.27
100284.15
100285.92
100273.53
100238.9
100210.28
100190.25
100168.9
75726.346
76063.596
76389.045
76873.69
77314.082
78087.796
78723.12
79819.673
80849.375
82367.882
84000.919
86130.463
88582.303
91495.508
94752.844
98205.868
101569.8
104567.43
106986.23
108623.8
109398.13
109529.46
109202.86
108537.84
107667.73
106702.54
105723.55
104784.14
103913.37
103137.45
102499.77
102027.02
101636.23
101135.49
100666.42
100384.95
100242.01
100186.34
100172.75
100202.31
100243.89
100267
100278.43
100283.1
100284.42
100267.65
100233.89
100206.43
100186.47
100164.68
76640.571
77015.882
77369.21
77905.343
78367.832
79214.428
79903.718
81086.734
82215.168
83847.85
85627.224
87901.493
90520.033
93573.055
96917.741
100356.46
103596.37
106383.09
108517.53
109798.98
110271.45
110191.11
109682.67
108881.78
107914.82
106882.39
105857.46
104886.17
103992.87
103202.79
102559.66
102084.57
101680.84
101151.64
100681.35
100402.3
100261.71
100206.8
100193.28
100218.51
100251.49
100269.64
100278.45
100281.89
100282.81
100261.55
100229.03
100202.7
100182.76
100160.7
77615.456
78031.65
78410.645
79011.822
79499.901
80426.82
81180.008
82457.737
83697.716
85454.687
87388.38
89811.016
92591.223
95764.894
99157.646
102532.85
105604.53
108146.9
109947.21
110866.38
111079.31
110788.5
110111.55
109187.51
108133.92
107041.95
105976.6
104977.27
104064.25
103262.34
102615.5
102138.32
101720.45
101164.36
100695.14
100419.17
100280.83
100226.35
100212.69
100232.38
100257.67
100271.44
100277.88
100280.3
100280.88
100255.75
100224.31
100199.05
100179.12
100156.95
78669.251
79129.337
79528.714
80205.524
80724.934
81740.508
82568.612
83948.626
85311.61
87199.804
89293.304
91865.112
94795.765
98061.661
101455.32
104716.09
107577.63
109833.11
111261.56
111840.59
111819.12
111324.14
110493.03
109458.28
108327.68
107183.3
106082.54
105058.63
104128.45
103316.85
102667.78
102188.47
101755.39
101174.44
100708.01
100435.58
100299.45
100245.18
100231.1
100243.75
100262.32
100272.29
100276.91
100278.48
100278.36
100250.11
100219.71
100195.46
100175.55
100153.42
79809.628
80323.769
80742.378
81504.258
82060.001
83172.222
84086.745
85575.131
87070.489
89090.531
91349.339
94068.253
97129.783
100449.25
103790.46
106886.55
109498.77
111413.93
112453.44
112740.17
112485.79
111801.46
110830.82
109697.29
108498.7
107308.43
106176.78
105131.4
104186.38
103367.02
102716.9
102235.19
101786.05
101182.59
100720.26
100451.62
100317.44
100263.06
100248.26
100252.95
100265.78
100272.59
100275.85
100276.99
100274.59
100244.57
100215.22
100191.91
100172.06
100150.12
81040.361
81624.339
82064.565
82924.817
83522.508
84737.308
85748.866
87349.08
88982.748
91137.461
93564.505
96422.539
99584.539
102908.77
106140.62
109023.41
111341.41
112870.54
113536.27
113563.05
113081.99
112224.59
111128.78
109907.73
108649.46
107419.21
106260.73
105196.66
104238.91
103413.51
102763.24
102278.65
101812.84
101189.48
100732.3
100467.59
100334.83
100279.41
100262.9
100261.09
100268.47
100272.65
100274.76
100275.56
100269.87
100239.12
100210.82
100188.38
100168.67
100147.06
82381.444
83051.246
83507.197
84480.479
85127.031
86446.625
87564.208
89279.477
91059.3
93354.13
95946.285
98925.361
102145.05
105416.72
108481.83
111105.17
113073.73
114190.73
114532.22
114303.52
113611.6
112597.88
111390.73
110092.68
108782.33
107517.44
106335.74
105255.43
104286.86
103456.92
102807.11
102319.1
101836.27
101195.75
100744.58
100483.81
100351.9
100294.3
100273.94
100268.76
100270.6
100272.52
100273.55
100273.99
100264.56
100233.74
100206.48
100184.87
100165.39
100144.26
83851.227
84627.39
85089.444
86182.698
86883.078
88305.969
89539.122
91375.955
93319.504
95754.841
98498.327
101567.09
104789.57
107945.93
110788.45
113104.03
114670.7
115386.53
115440.87
114963.64
114079.41
112925.9
111620.49
110255.11
108899.57
107604.79
106403.05
105308.7
104330.99
103497.8
102848.83
102356.85
101856.95
101202.05
100757.46
100500.26
100368.23
100307.54
100283.03
100274.68
100272.64
100272.25
100272.25
100272.07
100258.94
100228.4
100202.19
100181.38
100162.25
100141.71
85441.023
86352.865
86814.21
88032.59
88797.475
90325.308
91690.321
93661.495
95777.941
98349.517
101217.52
104329.66
107490.11
110466.92
113033.69
114984.04
116117.29
116480.73
116256.59
115547.91
114490.58
113213.24
111821.74
110397.84
109003.32
107682.86
106463.87
105357.39
104372.04
103536.65
102888.68
102392.24
101875.49
101209.11
100771.07
100516.64
100383.6
100319.54
100291.09
100279.19
100274.23
100271.94
100270.85
100269.38
100252.92
100223.09
100197.95
100177.9
100159.24
100139.42
87186.707
88241.559
88689.43
90036.154
90888.907
92531.868
94049.248
96158.301
98448.371
101141.35
104091.08
107185.69
110213.22
112947.88
115186.07
116714.78
117423.62