/*--------------------------------*- C++ -*----------------------------------*\
  =========                 |
  \\      /  F ield         | OpenFOAM: The Open Source CFD Toolbox
   \\    /   O peration     | Website:  https://openfoam.org
    \\  /    A nd           | Version:  8
     \\/     M anipulation  |
\*---------------------------------------------------------------------------*/
FoamFile
{
    version     2.0;
    format      ascii;
    class       surfaceScalarField;
    location    "0.120004";
    object      phi;
}
// * * * * * * * * * * * * * * * * * * * * * * * * * * * * * * * * * * * * * //

dimensions      [1 0 -1 0 0 0 0];

internalField   nonuniform List<scalar> 
39600
(
7.5871523e-05
-0.0077333975
0.0076381036
2.6518546e-05
-0.010866955
0.010916753
-2.6438733e-05
-0.014241066
0.014294623
-8.4878786e-05
-0.018364042
0.018423249
-0.00014419083
-0.023571909
0.023632376
-0.00018613476
-0.03028511
0.030328719
-0.00035797168
-0.038323235
0.038496965
-0.00066719732
-0.046520168
0.04683126
-0.0010382391
-0.05544871
0.055821927
-0.0014793429
-0.066693442
0.06713701
-0.002011312
-0.079657312
0.080192375
-0.0026463265
-0.095692222
0.09633076
-0.0034056559
-0.1144642
0.115228
-0.0043141645
-0.13742295
0.13833705
-0.0053961347
-0.16455115
0.16563966
-0.0066902768
-0.19750722
0.19880942
-0.0082298086
-0.23668912
0.23823812
-0.0100698
-0.28411074
0.28596237
-0.012257068
-0.34073298
0.34293411
-0.014871676
-0.40912853
0.41176013
-0.017984476
-0.49106526
0.49419885
-0.021709615
-0.58994219
0.59369329
-0.026164061
-0.70869006
0.71317653
-0.031525652
-0.85184353
0.8572451
-0.038003321
-1.023857
1.0303852
-0.045893393
-1.230619
1.2385769
-0.055559746
-1.4781534
1.4879128
-0.067434835
-1.7735276
1.7855332
-0.081939891
-2.1242421
2.1389216
-0.099447582
-2.5393868
2.5571205
-0.12032813
-3.0302829
3.0514342
-0.14502313
-3.6117802
3.6367766
-0.1740528
-4.3027451
4.3321041
-0.20801118
-5.1264955
5.1608137
-0.24753405
-6.1107845
6.1507018
-0.29325776
-7.2890237
7.3351693
-0.34580347
-8.7001942
8.7532062
-0.40571563
-10.392108
10.45255
-0.47329453
-12.421505
12.489744
-0.5484843
-14.85587
14.931864
-0.63060234
-17.776457
17.85947
-0.7178064
-21.281532
21.369689
-0.80630173
-25.487214
25.576747
-0.88923797
-30.536515
30.620826
-0.95534716
-36.602025
36.670473
-0.99019574
-43.881084
43.919613
-0.9730605
-52.612881
52.599281
-0.83629023
-63.127568
62.994552
-0.55547779
-75.822572
75.545354
-91.050953
90.50855
-5.0012815e-05
-0.007698839
-9.0703706e-05
-0.01082578
-0.00014156752
-0.014189566
-0.00019931871
-0.018305486
-0.00026039641
-0.023509715
-0.00030439132
-0.030239505
-0.00048394637
-0.038141984
-0.00077400845
-0.046228422
-0.0011240283
-0.055096695
-0.0015378214
-0.066277105
-0.0020350803
-0.079157173
-0.0026267534
-0.095096834
-0.0033325322
-0.11375427
-0.0041758684
-0.13657452
-0.005179487
-0.16354154
-0.0063801015
-0.19629928
-0.0078058443
-0.23525467
-0.0095113361
-0.28239475
-0.011536041
-0.3386955
-0.013957374
-0.40669132
-0.016838315
-0.48816477
-0.02029061
-0.58646545
-0.024419899
-0.70453062
-0.029402682
-0.84682319
-0.035440389
-1.017772
-0.04283604
-1.2231605
-0.051967195
-1.4689379
-0.063303597
-1.7620732
-0.077311274
-2.1100761
-0.094401949
-2.5220903
-0.11494008
-3.0094966
-0.13932248
-3.5871165
-0.16801476
-4.273739
-0.20156327
-5.0926021
-0.24057619
-6.0713906
-0.28567347
-7.2435182
-0.33746048
-8.6479528
-0.39648365
-10.332564
-0.46305169
-12.354286
-0.53714747
-14.78098
-0.61813323
-17.694589
-0.7042932
-21.19443
-0.79197684
-25.398498
-0.87458011
-30.45252
-0.94122244
-36.532921
-0.98008439
-43.838582
-0.96120356
-52.628192
-0.8378814
-63.247299
-0.57074616
-76.086882
-91.56795
-4.9700003e-05
-0.0076611926
-9.3176698e-05
-0.010781975
-0.00014240305
-0.01413988
-0.00019620646
-0.018251047
-0.00025097192
-0.023453954
-0.00028328911
-0.030205648
-0.00045825289
-0.037965478
-0.00073192088
-0.045953158
-0.0010621538
-0.054764631
-0.0014537389
-0.065883259
-0.0019241951
-0.078684073
-0.0024851812
-0.094532577
-0.0031545466
-0.11308105
-0.00395573
-0.13576856
-0.0049076453
-0.16258403
-0.0060470828
-0.19515299
-0.0073985937
-0.23389507
-0.0090151787
-0.28076829
-0.010932538
-0.33676633
-0.013226584
-0.40438282
-0.015956621
-0.48541712
-0.019227674
-0.5831726
-0.023141541
-0.70059002
-0.027868464
-0.84206321
-0.033606882
-1.0119922
-0.040661882
-1.2160512
-0.049420544
-1.4601069
-0.060370903
-1.7510217
-0.074003863
-2.0963076
-0.09075525
-2.5051598
-0.11098756
-2.9890429
-0.13506718
-3.5627797
-0.16341482
-4.2450985
-0.19654003
-5.0591495
-0.23502576
-6.0325389
-0.27947214
-7.1986765
-0.33048522
-8.5964968
-0.38861
-10.273927
-0.45417063
-12.288083
-0.5271833
-14.707183
-0.60707831
-17.61382
-0.69224119
-21.108333
-0.7792095
-25.310503
-0.86157086
-30.368738
-0.92884894
-36.462984
-0.96995828
-43.793733
-0.95287944
-52.641861
-0.84191627
-63.355141
-0.58865856
-76.33757
-92.059388
-4.36092e-05
-0.00762603
-8.2853199e-05
-0.010742275
-0.00012675672
-0.014095455
-0.00017368665
-0.018203439
-0.00022028323
-0.023406374
-0.00024280477
-0.030181662
-0.00041669958
-0.037790161
-0.00067616906
-0.045692238
-0.00099023644
-0.05444884
-0.0013633011
-0.065508019
-0.001809828
-0.078235072
-0.002343283
-0.093995965
-0.0029782476
-0.11244247
-0.0037386872
-0.13500362
-0.0046407298
-0.16167677
-0.0057209274
-0.19406641
-0.0070001852
-0.23260834
-0.0085305781
-0.27922876
-0.01034432
-0.33494155
-0.012514851
-0.40219864
-0.015100489
-0.4828148
-0.01819991
-0.58005254
-0.021907255
-0.69685735
-0.026392793
-0.83754641
-0.031852157
-1.0064937
-0.038593884
-1.2092589
-0.047016512
-1.4516176
-0.057621393
-1.7403243
-0.070919201
-2.0828859
-0.087356675
-2.4885588
-0.10729705
-2.9688994
-0.13108204
-3.5387556
-0.15909809
-4.2168067
-0.19181929
-5.0261166
-0.22981177
-5.9941955
-0.27365504
-7.154452
-0.32395322
-8.5457684
-0.38124715
-10.21613
-0.44588601
-12.222812
-0.51792082
-14.634375
-0.59684251
-17.534037
-0.68116205
-21.023091
-0.76757087
-25.223077
-0.84989698
-30.284954
-0.9180006
-36.391911
-0.96069014
-43.747381
-0.94851272
-52.650705
-0.84821606
-63.452478
-0.60953008
-76.574093
-92.525564
-3.7567465e-05
-0.0075942796
-7.3067578e-05
-0.010706614
-0.00011205417
-0.014056182
-0.00015217379
-0.018162824
-0.00018979895
-0.023367886
-0.00020357472
-0.030166506
-0.00037520595
-0.037617275
-0.00062207589
-0.045444009
-0.00091938844
-0.054149986
-0.0012734481
-0.06515198
-0.0016964295
-0.077809807
-0.002202815
-0.093486672
-0.0028043513
-0.11183758
-0.0035256739
-0.13427813
-0.0043793896
-0.16081821
-0.0054019959
-0.19303787
-0.0066101032
-0.23139322
-0.00805812
-0.27777215
-0.0097771754
-0.33321226
-0.011835563
-0.40012776
-0.014278023
-0.48035721
-0.017205808
-0.57710617
-0.020716242
-0.69332425
-0.024973189
-0.83326161
-0.03017211
-1.0012601
-0.036626849
-1.2027596
-0.044747427
-1.4434387
-0.055046859
-1.7299442
-0.068044525
-2.06978
-0.084195012
-2.4722642
-0.10385755
-2.9490553
-0.12735797
-3.5150373
-0.15505359
-4.1888553
-0.18739345
-4.9934834
-0.22491737
-5.9563377
-0.26820119
-7.1108022
-0.31783705
-8.4957159
-0.37437595
-10.159099
-0.43818033
-12.158386
-0.50934818
-14.562447
-0.58742663
-17.455112
-0.67104493
-20.938565
-0.7570739
-25.136048
-0.839555
-30.200976
-0.90957211
-36.318545
-0.95367264
-43.699747
-0.94681506
-52.654355
-0.85683486
-63.539799
-0.63327396
-76.795815
-92.966415
-3.1324459e-05
-0.0075650617
-6.2714252e-05
-0.01067454
-9.6708823e-05
-0.014021622
-0.00013017366
-0.01812869
-0.00015877271
-0.023338336
-0.00016558379
-0.030158302
-0.00033560891
-0.037446058
-0.00057031314
-0.045208006
-0.00085245471
-0.053866336
-0.0011889229
-0.0648136
-0.0015899832
-0.077406607
-0.00207064
-0.093003279
-0.0026402714
-0.11126483
-0.0033238716
-0.13359062
-0.0041309453
-0.16000662
-0.0050977514
-0.19206549
-0.0062411725
-0.23024329
-0.0076156073
-0.27638974
-0.0092483923
-0.33156987
-0.011201024
-0.39816329
-0.013504669
-0.47803919
-0.016265641
-0.57432753
-0.019580783
-0.68998754
-0.023616516
-0.82919943
-0.028572828
-0.99627088
-0.034766694
-1.1965239
-0.042619196
-1.4355318
-0.052652482
-1.719836
-0.06539006
-2.0569427
-0.08128483
-2.4562371
-0.10069202
-2.9294811
-0.12392248
-3.4916047
-0.15131326
-4.1612247
-0.18329136
-4.9612278
-0.22038067
-5.9189301
-0.26315346
-7.0676781
-0.31218686
-8.4462794
-0.36803898
-10.102765
-0.43109809
-12.094716
-0.50149963
-14.4913
-0.57887073
-17.376909
-0.66194072
-20.854602
-0.74775696
-25.04926
-0.83059881
-30.116606
-0.9024466
-36.243153
-0.94883002
-43.649827
-0.94786243
-52.65219
-0.86800616
-63.617193
-0.66006066
-77.002506
-93.381989
-2.6610129e-05
-0.0075384384
-5.4871407e-05
-0.010645944
-8.4225346e-05
-0.0139918
-0.00011134245
-0.01810108
-0.00013068537
-0.023318147
-0.00013137894
-0.030156293
-0.00029865424
-0.037277694
-0.0005215615
-0.044983854
-0.00078878893
-0.053597715
-0.001108141
-0.064492461
-0.0014877045
-0.077025051
-0.001943543
-0.092544883
-0.0024822404
-0.11072324
-0.0031294366
-0.13293979
-0.0038913508
-0.1592405
-0.0048074342
-0.19114422
-0.0058949145
-0.2291497
-0.0072015606
-0.2750756
-0.0087435938
-0.33001895
-0.010584954
-0.39631107
-0.012764165
-0.47584689
-0.015374889
-0.5717008
-0.018503374
-0.68683962
-0.022322249
-0.82535683
-0.027049087
-0.99151463
-0.033007735
-1.1905281
-0.040626236
-1.4278652
-0.050432622
-1.7099632
-0.062948405
-2.0443388
-0.078621388
-2.4404466
-0.097797286
-2.9101554
-0.12077608
-3.4684418
-0.14788069
-4.1338987
-0.1795215
-4.9293273
-0.21621301
-5.8819376
-0.25851043
-7.0250453
-0.30699459
-8.3974066
-0.36223983
-10.047049
-0.42464518
-12.031712
-0.49439886
-14.420815
-0.57118904
-17.299304
-0.65386237
-20.771052
-0.73964361
-24.962537
-0.82304943
-30.031647
-0.89661861
-36.165916
-0.94613423
-43.596776
-0.95134394
-52.643931
-0.88171445
-63.684554
-0.68988468
-77.193458
-93.772017
-2.0293152e-05
-0.0075148281
-4.5584808e-05
-0.010620632
-7.0729432e-05
-0.01396626
-9.1750872e-05
-0.018079461
-0.00010178607
-0.023307245
-9.8920239e-05
-0.030157858
-0.000260899
-0.037114681
-0.00047264218
-0.044770945
-0.00072554803
-0.053343496
-0.001028459
-0.064187862
-0.0013873902
-0.076664276
-0.0018192796
-0.092110605
-0.0023282757
-0.11021156
-0.0029408973
-0.13232375
-0.0036612114
-0.15851625
-0.0045317538
-0.19026879
-0.0055624602
-0.22811331
-0.0067957981
-0.27383529
-0.0082467686
-0.32855959
-0.00997953
-0.394568
-0.012036341
-0.4737776
-0.014504892
-0.56921697
-0.017468459
-0.68385751
-0.021088264
-0.82171441
-0.02559819
-0.98697674
-0.031348255
-1.184743
-0.038767245
-1.4204008
-0.048385763
-1.7002827
-0.060719988
-2.0319228
-0.076204494
-2.4248536
-0.095177251
-2.8910445
-0.1179269
-3.4455213
-0.14476523
-4.1068532
-0.17609137
-4.8977565
-0.2124161
-5.8453273
-0.25428905
-6.9828517
-0.30229194
-8.3490289
-0.3569972
-9.9918845
-0.41883958
-11.969283
-0.48806005
-14.35088
-0.56440737
-17.222159
-0.64684694
-20.687754
-0.73276937
-24.875693
-0.81695875
-29.945878
-0.89242353
-36.08673
-0.94553986
-43.540149
-0.95719787
-52.629317
-0.89814116
-63.741487
-0.72283712
-77.368065
-94.136285
-1.5869084e-05
-0.0074938299
-3.7326384e-05
-0.010599038
-5.7732205e-05
-0.013945584
-7.2494892e-05
-0.018064256
-7.2169053e-05
-0.023306801
-6.7318994e-05
-0.0301615
-0.00022323734
-0.03695788
-0.00042381431
-0.044569289
-0.00066273645
-0.053103389
-0.0009496854
-0.063899336
-0.0012885348
-0.076323706
-0.0016971819
-0.091699698
-0.0021771735
-0.10972904
-0.0027556658
-0.13174204
-0.0034381683
-0.15783005
-0.0042640587
-0.18943831
-0.0052336381
-0.22713837
-0.0063941922
-0.27266816
-0.0077598044
-0.32718621
-0.0093918423
-0.39292648
-0.011326642
-0.4718314
-0.013653381
-0.56687636
-0.016461511
-0.68103261
-0.01990782
-0.81824773
-0.024225451
-0.98263402
-0.029789352
-1.1791478
-0.037044196
-1.4131055
-0.046513485
-1.690758
-0.058704517
-2.0196589
-0.074036114
-2.409425
-0.092833755
-2.8721226
-0.11537837
-3.4228212
-0.14197445
-4.0800662
-0.17301872
-4.8664844
-0.20901196
-5.8090653
-0.25050842
-6.9410503
-0.29808242
-8.3010947
-0.35232657
-9.937194
-0.41370857
-11.907326
-0.4825039
-14.281385
-0.5585553
-17.14533
-0.64092733
-20.604547
-0.72718339
-24.788529
-0.81235223
-29.85906
-0.88997987
-36.005386
-0.94707669
-43.479612
-0.96550508
-52.608032
-0.91731942
-63.787643
-0.75899276
-77.525735
-94.474453
-1.0453935e-05
-0.0074752969
-2.8514946e-05
-0.010580737
-4.4254705e-05
-0.013929343
-5.2949375e-05
-0.018055056
-4.1917412e-05
-0.023316971
-3.8019264e-05
-0.030164272
-0.00018894174
-0.036806049
-0.00037910093
-0.044378099
-0.00060461876
-0.05287672
-0.00087631323
-0.063626122
-0.001195852
-0.076002535
-0.0015819939
-0.091311398
-0.0020335006
-0.10927514
-0.0025796873
-0.13119279
-0.0032250311
-0.15718121
-0.0040048282
-0.18865417
-0.0049171318
-0.22622107
-0.0060092761
-0.27156987
-0.0072929925
-0.32589513
-0.0088265239
-0.39138391
-0.010644511
-0.47000252
-0.01283641
-0.56467118
-0.015493896
-0.67835908
-0.018785842
-0.81493631
-0.022938147
-0.97845781
-0.028339283
-1.1737171
-0.035464214
-1.4059424
-0.044823692
-1.6813463
-0.056909586
-2.007505
-0.072122879
-2.3941219
-0.090775586
-2.853355
-0.11314624
-3.400306
-0.13953177
-4.0535022
-0.17031981
-4.8354822
-0.20602308
-5.773108
-0.2471838
-6.8995988
-0.29439246
-8.2535393
-0.34825304
-9.8828996
-0.40926762
-11.84575
-0.47776708
-14.212202
-0.55365736
-17.068681
-0.63614263
-20.521247
-0.72292477
-24.700842
-0.80929232
-29.770912
-0.88938629
-35.921662
-0.95079517
-43.414874
-0.97637201
-52.5797
-0.93940222
-63.822655
-0.79841265
-77.666101
-94.786029
-6.5277865e-06
-0.0074586957
-2.1755292e-05
-0.010565451
-3.3532917e-05
-0.013917272
-3.6574087e-05
-0.018051612
-1.4636418e-05
-0.023338073
-1.3180083e-05
-0.03016476
-0.00015878544
-0.03665963
-0.000338979
-0.044196908
-0.00055160361
-0.05266303
-0.00080861312
-0.06336768
-0.0011095605
-0.075700048
-0.0014743631
-0.09094454
-0.0018996111
-0.10884764
-0.0024175464
-0.13067196
-0.0030255557
-0.15656993
-0.0037581354
-0.18791752
-0.004615153
-0.22535933
-0.0056409994
-0.27053821
-0.0068450132
-0.32468426
-0.0082831938
-0.38993739
-0.0099887256
-0.46828699
-0.01205277
-0.56259503
-0.014569898
-0.67582741
-0.017718196
-0.81177044
-0.021731571
-0.97442297
-0.027005226
-1.1684171
-0.034031279
-1.3988821
-0.043318885
-1.6720117
-0.055337589
-1.9954254
-0.070471708
-2.3789072
-0.089016664
-2.8347064
-0.11124247
-3.3779486
-0.1374459
-4.0271343
-0.16801095
-4.8047181
-0.203462
-5.7374186
-0.24434342
-6.8584416
-0.29124696
-8.2063029
-0.34480135
-9.8289245
-0.40554054
-11.784463
-0.47386715
-14.143208
-0.54975582
-16.992054
-0.63252045
-20.437685
-0.72003678
-24.612401
-0.8078193
-29.681147
-0.89072479
-35.83529
-0.95677623
-43.34563
-0.98980308
-52.544037
-0.96448215
-63.846099
-0.84131786
-77.788633
-95.070639
-1.9572045e-06
-0.0074447824
-1.3009778e-05
-0.01055408
-1.9895112e-05
-0.013910133
-1.6621353e-05
-0.018054481
1.6754049e-05
-0.023370552
1.6331827e-05
-0.030163392
-0.00012362994
-0.036518944
-0.00029392746
-0.04402567
-0.00049403962
-0.05246189
-0.00073686768
-0.063123474
-0.0010199009
-0.075415577
-0.0013641034
-0.090598407
-0.0017653733
-0.10844426
-0.002255625
-0.130179
-0.002826847
-0.15599564
-0.0035147085
-0.18722582
-0.0043181509
-0.22455144
-0.0052793784
-0.26957153
-0.0064060659
-0.32355107
-0.0077523228
-0.38858315
-0.0093569228
-0.46667282
-0.011306563
-0.56063379
-0.013693713
-0.67342632
-0.016701872
-0.80874546
-0.020600125
-0.97050425
-0.025782755
-1.1632095
-0.032741083
-1.3918913
-0.041994307
-1.6627142
-0.053988556
-1.9833742
-0.069085809
-2.3637351
-0.087555863
-2.8161403
-0.1096566
-3.3557253
-0.13569472
-4.0009424
-0.16606965
-4.7741565
-0.20130781
-5.7019559
-0.24196644
-6.8175208
-0.28863975
-8.1593096
-0.34197332
-9.775183
-0.40254777
-11.723356
-0.47082107
-14.074284
-0.54686159
-16.915298
-0.63009424
-20.353673
-0.71855589
-24.522975
-0.80800839
-29.589462
-0.89411059
-35.745944
-0.96511193
-43.271568
-1.0059903
-52.500654
-0.99268052
-63.857668
-0.88777126
-77.893112
-95.327739
1.3275273e-06
-0.0074323348
-6.807523e-06
-0.010545738
-9.5218194e-06
-0.013907185
-1.0223819e-06
-0.01806262
4.1751332e-05
-0.023412544
3.66937e-05
-0.030157418
-9.7433332e-05
-0.036384141
-0.0002585008
-0.043863717
-0.00044664634
-0.052272826
-0.00067589509
-0.062892934
-0.0009416758
-0.075148476
-0.0012658595
-0.090272398
-0.0016436635
-0.10806452
-0.0021057872
-0.12971431
-0.0026417284
-0.15545684
-0.0032880934
-0.1865758
-0.0040401014
-0.22379524
-0.0049389266
-0.26866755
-0.0059902318
-0.32249373
-0.0072539458
-0.38731209
-0.0087694972
-0.46514848
-0.010614743
-0.55877795
-0.012882389
-0.67114601
-0.015767435
-0.80584518
-0.019562739
-0.96669054
-0.024680677
-1.1580692
-0.031612819
-1.3849301
-0.040875882
-1.6534112
-0.052890358
-1.9713087
-0.06797741
-2.3485807
-0.086390644
-2.7976403
-0.10839076
-3.3336135
-0.13429304
-3.9748986
-0.16451441
-4.743762
-0.19958851
-5.6666717
-0.24007905
-6.7767823
-0.2865955
-8.1124864
-0.33980892
-9.7215751
-0.40032158
-11.662327
-0.46867583
-14.005296
-0.54502312
-16.838257
-0.62891026
-20.269029
-0.71853699
-24.432336
-0.81031052
-29.495189
-0.89964894
-35.653653
-0.97590451
-43.192371
-1.0249549
-52.449197
-1.0241511
-63.856873
-0.93799305
-77.978978
-95.556792
5.4315198e-06
-0.0074219011
4.3252793e-07
-0.010540428
2.2440709e-06
-0.013908635
1.6527708e-05
-0.018076496
6.8830278e-05
-0.023463901
5.8654124e-05
-0.030146448
-6.6498897e-05
-0.036258275
-0.0002184512
-0.043710925
-0.0003949652
-0.052095426
-0.0006111227
-0.062675541
-0.00086066514
-0.07489767
-0.0011668577
-0.089964467
-0.0015216333
-0.10770788
-0.0019560259
-0.12927747
-0.0024581391
-0.15495197
-0.0030635942
-0.18596688
-0.0037656368
-0.22308921
-0.0046036724
-0.26782465
-0.0055879147
-0.32150376
-0.0067787013
-0.38611429
-0.0082028424
-0.46371593
-0.0099401262
-0.55703049
-0.012100143
-0.66897383
-0.014889659
-0.80304102
-0.018609352
-0.96295327
-0.023694735
-1.1529627
-0.030649238
-1.377948
-0.039965705
-1.644057
-0.052028792
-1.9591977
-0.067121848
-2.333425
-0.085501174
-2.7791804
-0.10743314
-3.3115775
-0.13323795
-3.9489613
-0.16334492
-4.7134927
-0.19830431
-5.6315147
-0.23868774
-6.7361636
-0.28512077
-8.0657587
-0.33829414
-9.6680197
-0.3988713
-11.601251
-0.46743802
-13.936116
-0.54425724
-16.760768
-0.62898737
-20.183562
-0.7200122
-24.340255
-0.81451424
-29.398137
-0.90734515
-35.557974
-0.98919604
-43.107651
-1.0468835
-52.389142
-1.058984
-63.843217
-0.99215201
-78.045619
-95.75727
9.5003071e-06
-0.0074138894
7.9205392e-06
-0.010538632
1.477206e-05
-0.013915172
3.5537945e-05
-0.018096952
9.6892675e-05
-0.023524394
8.1556484e-05
-0.030130405
-3.5072424e-05
-0.036141011
-0.00017850322
-0.043566677
-0.00034386934
-0.051929222
-0.00054764673
-0.062470569
-0.00078118661
-0.074662913
-0.0010705159
-0.089673441
-0.001404238
-0.10737237
-0.0018119567
-0.12886737
-0.0022809935
-0.1544803
-0.0028465663
-0.18539793
-0.0035007898
-0.22243119
-0.0042835207
-0.26703735
-0.0052082356
-0.32057373
-0.0063241187
-0.38499195
-0.0076522926
-0.46238004
-0.0092879168
-0.55538557
-0.011351153
-0.66689951
-0.014066929
-0.80031199
-0.017750141
-0.95925423
-0.022846274
-1.1478478
-0.029867611
-1.3709021
-0.039269714
-1.6346209
-0.051397682
-1.9470268
-0.066523002
-2.3182433
-0.08490032
-2.7607302
-0.10679534
-3.2895875
-0.13253841
-3.9230963
-0.16257343
-4.6833073
-0.19746846
-5.5964351
-0.23781287
-6.695597
-0.28423319
-8.019056
-0.33746605
-9.6144177
-0.3982186
-11.540018
-0.46714842
-13.866595
-0.54460014
-16.68267
-0.63037522
-20.09707
-0.7230285
-24.246504
-0.82035892
-29.298254
-0.91719567
-35.458383
-1.0050811
-43.016965
-1.0718036
-52.320045
-1.0973304
-63.816137
-1.0503198
-78.092496
-95.928466
1.2502723e-05
-0.0074073173
1.3565419e-05
-0.01053948
2.4789168e-05
-0.013926112
5.1693851e-05
-0.018123576
0.00011991853
-0.023591781
9.8340792e-05
-0.03010816
-1.2014473e-05
-0.03603008
-0.00014759966
-0.043430328
-0.00030285551
-0.05177319
-0.0004951037
-0.062277179
-0.00071356166
-0.074443317
-0.0009860186
-0.089399368
-0.0012987187
-0.10705796
-0.0016806081
-0.1284832
-0.0021175605
-0.1540408
-0.002644584
-0.18486771
-0.0032522236
-0.22181993
-0.0039864149
-0.26629878
-0.0048526647
-0.31970238
-0.0058881329
-0.38395028
-0.0071285239
-0.46113223
-0.0086767388
-0.55382841
-0.010663224
-0.66490237
-0.013321214
-0.79764122
-0.016997867
-0.9555624
-0.02214894
-1.142679
-0.029269739
-1.3637581
-0.038785168
-1.6250733
-0.051002575
-1.934769
-0.066191973
-2.3030012
-0.084596713
-2.7422576
-0.10648739
-3.2676082
-0.13220592
-3.8972636
-0.16221405
-4.6531583
-0.19710284
-5.561373
-0.23746486
-6.6550244
-0.28395932
-7.9722904
-0.33735101
-9.5606691
-0.3983988
-11.478507
-0.4678358
-13.79659
-0.546096
-16.60379
-0.63311034
-20.009359
-0.72763993
-24.150842
-0.82801136
-29.195329
-0.92924748
-35.354495
-1.0236441
-42.919886
-1.0998491
-52.241495
-1.1393048
-63.775148
-1.112752
-78.118891
-96.069702
1.6069861e-05
-0.0074028115
2.0359651e-05
-0.010543534
3.6661963e-05
-0.013942135
7.0880636e-05
-0.018157457
0.00014482254
-0.023664914
0.00011662777
-0.030079344
1.2685347e-05
-0.035925594
-0.00011534228
-0.043301555
-0.00026099662
-0.051626814
-0.00044268334
-0.062094406
-0.00064790623
-0.074237026
-0.00090348844
-0.089142231
-0.0011937683
-0.10676608
-0.0015496414
-0.12812512
-0.001955514
-0.15363252
-0.0024456274
-0.18437449
-0.0030105897
-0.22125151
-0.0036955856
-0.26560964
-0.0045008042
-0.3188924
-0.0054624583
-0.38298289
-0.0066300923
-0.45995778
-0.0081060233
-0.5523443
-0.010033127
-0.66296556
-0.01265738
-0.79500538
-0.016347035
-0.95185911
-0.021591378
-1.1374189
-0.02884988
-1.356479
-0.038497635
-1.6153967
-0.05083687
-1.9223936
-0.06611807
-2.2876727
-0.084580967
-2.7237335
-0.10650042
-3.2456079
-0.13223283
-3.8714262
-0.16226049
-4.6230003
-0.19719785
-5.526274
-0.23765362
-6.6143699
-0.28430675
-7.9253777
-0.3379542
-9.5066775
-0.39942369
-11.416593
-0.4695184
-13.725953
-0.54876814
-16.523949
-0.63724004
-19.920211
-0.73389245
-24.053026
-0.83755767
-29.089079
-0.94353924
-35.245974
-1.0449337
-42.816031
-1.1311876
-52.153027
-1.1850403
-63.719792
-1.1794655
-78.124275
-96.180172
1.8854477e-05
-0.0073997094
2.5601896e-05
-0.010550053
4.6242651e-05
-0.013962504
8.7477962e-05
-0.018198378
0.00016452342
-0.023741159
0.00012854488
-0.030042809
3.0324242e-05
-0.03582688
-9.0526048e-05
-0.043179991
-0.00022638516
-0.05149028
-0.00039628523
-0.06192346
-0.00058771917
-0.074044593
-0.00082752392
-0.08890094
-0.0010968836
-0.10649518
-0.001428445
-0.12779146
-0.0018048998
-0.15325375
-0.0022593373
-0.18391714
-0.0027874471
-0.2207201
-0.0034245184
-0.26496857
-0.0041678372
-0.31814447
-0.0050669457
-0.38207823
-0.0061739285
-0.45884422
-0.0075902471
-0.55092009
-0.0094654716
-0.66108097
-0.012081723
-0.79237794
-0.01582537
-0.94810233
-0.021193553
-1.1320358
-0.028615233
-1.3490379
-0.038423725
-1.6055608
-0.050912471
-1.9098708
-0.066313656
-2.2722273
-0.084863845
-2.7051262
-0.10684591
-3.2235503
-0.1326323
-3.8455415
-0.16272938
-4.5927812
-0.19777441
-5.4910771
-0.23840092
-6.5735551
-0.28529493
-7.8782346
-0.33931411
-9.4523262
-0.40132833
-11.354151
-0.47224008
-13.654525
-0.55266983
-16.442957
-0.6428153
-19.829407
-0.74184978
-23.952788
-0.84911656
-28.979197
-0.96015011
-35.132499
-1.0689658
-42.704998
-1.1658797
-52.05411
-1.2346961
-63.649447
-1.2508107
-78.107856
-96.259145
2.193031e-05
-0.0073984256
3.131907e-05
-0.010559242
5.6502076e-05
-0.013987452
0.00010592175
-0.018247502
0.00018452017
-0.023818995
0.00014129872
-0.029999079
4.9444252e-05
-0.035734557
-6.3594541e-05
-0.043066279
-0.00018906962
-0.051364185
-0.00034694083
-0.061764583
-0.00052401551
-0.073866569
-0.00074858962
-0.088674922
-0.00099921809
-0.1062431
-0.0013082193
-0.12748045
-0.0016572742
-0.15290254
-0.0020789428
-0.18349265
-0.0025698128
-0.22022607
-0.0031600587
-0.26437453
-0.0038468528
-0.31745334
-0.0046913342
-0.38122859
-0.005742878
-0.45778661
-0.0071021448
-0.5495536
-0.008944311
-0.65923026
-0.011579028
-0.7897331
-0.015428782
-0.94424081
-0.020956097
-1.1264954
-0.028556491
-1.3414204
-0.038557803
-1.5955348
-0.051223236
-1.8971749
-0.066771071
-2.2566397
-0.085437842
-2.6864078
-0.10751722
-3.201402
-0.1333998
-3.8195685
-0.16361777
-4.5624505
-0.19883765
-5.4557157
-0.23970664
-6.5325082
-0.28694291
-7.8307599
-0.34143205
-9.3975179
-0.40413604
-11.291037
-0.4760305
-13.582139
-0.55783361
-16.360623
-0.64987056
-19.736722
-0.75156137
-23.849824
-0.8628042
-28.865387
-0.97922206
-35.013694
-1.0957809
-42.586387
-1.2039348
-51.944285
-1.2882951
-63.563361
-1.3268642
-78.068906
-96.305812
2.5271929e-05
-0.0073993228
3.7605338e-05
-0.010571378
6.7708992e-05
-0.014017326
0.00012687549
-0.018306369
0.00020546655
-0.023896871
0.00015524395
-0.029948397
6.9905847e-05
-0.035648792
-3.5709608e-05
-0.042959999
-0.00015217742
-0.051247125
-0.00030083689
-0.061614934
-0.00046526927
-0.073701234
-0.00067427922
-0.088464521
-0.00090641979
-0.10600959
-0.0011935098
-0.12719146
-0.0015157341
-0.15257826
-0.0019090771
-0.18309665
-0.0023632997
-0.21976884
-0.0029058254
-0.26382833
-0.003544209
-0.31681074
-0.0043372634
-0.38043054
-0.0053341515
-0.45678385
-0.0066487207
-0.54823205
-0.0084865465
-0.65738418
-0.011177756
-0.7870321
-0.015161864
-0.94024536
-0.020875808
-1.120769
-0.02868576
-1.3335942
-0.038907829
-1.5852893
-0.051775225
-1.8842788
-0.067495482
-2.2408824
-0.086308329
-2.6675469
-0.10852058
-3.1791253
-0.13454299
-3.7934615
-0.16493611
-4.531952
-0.2003955
-5.4201236
-0.24158879
-6.4911462
-0.28925714
-7.7828629
-0.34434578
-9.3421229
-0.40787284
-11.227118
-0.48091515
-13.508631
-0.56429358
-16.276746
-0.65846729
-19.641902
-0.76308044
-23.743825
-0.87872299
-28.747352
-1.0009364
-34.889164
-1.125588
-42.45971
-1.2451839
-51.823044
-1.3459445
-63.460881
-1.4079165
-78.006672
-96.319287
2.7672117e-05
-0.0074014744
4.201234e-05
-0.010585548
7.6233584e-05
-0.014051289
0.00014546518
-0.018375257
0.00022147006
-0.023972192
0.00016673314
-0.02989323
8.8111323e-05
-0.035569748
-9.9661663e-06
-0.042861232
-0.00011793314
-0.051138554
-0.00025845141
-0.06147343
-0.00041227192
-0.073546548
-0.0006076143
-0.088267837
-0.00082251389
-0.1057934
-0.0010888702
-0.12692329
-0.0013860456
-0.15227915
-0.0017507382
-0.18272941
-0.0021698525
-0.21934685
-0.002668143
-0.26332656
-0.003265411
-0.3162095
-0.0040104008
-0.37968088
-0.0049582402
-0.4558306
-0.0062499143
-0.54693399
-0.0081118469
-0.65551474
-0.010899609
-0.78423551
-0.015041278
-0.9360936
-0.020958578
-1.1148409
-0.029013039
-1.3255255
-0.039481382
-1.5748
-0.05257821
-1.8711565
-0.068500584
-2.2249268
-0.087489536
-2.6485145
-0.10987023
-3.1566858
-0.13607756
-3.7671764
-0.16669897
-4.5012334
-0.202468
-5.3842308
-0.24406515
-6.4493896
-0.29226836
-7.7344411
-0.34807439
-9.2860242
-0.41257372
-11.162246
-0.48693816
-13.433826
-0.57209544
-16.191122
-0.66867011
-19.544677
-0.77653104
-23.634465
-0.89695749
-28.624806
-1.0254355
-34.758491
-1.158626
-42.324426
-1.2900474
-51.68987
-1.4079822
-63.341454
-1.4942056
-77.92038
-96.298694
3.0525965e-05
-0.0074053778
4.7196757e-05
-0.010602061
8.5320478e-05
-0.014089144
0.00016495614
-0.018454525
0.00023594611
-0.024042546
0.00018417222
-0.029841002
0.00011033936
-0.035495495
1.7749499e-05
-0.042767975
-8.2323865e-05
-0.051037946
-0.00021427808
-0.06134053
-0.00035764125
-0.073402405
-0.0005402863
-0.088083909
-0.00073885306
-0.10559362
-0.00098565583
-0.12667475
-0.0012613945
-0.1520016
-0.00159712
-0.18239128
-0.0019810334
-0.2189602
-0.0024416724
-0.26286255
-0.0029996563
-0.31564767
-0.0037013271
-0.37897468
-0.0046169257
-0.45490974
-0.0059078846
-0.54563686
-0.0078176035
-0.65359775
-0.010725468
-0.78131914
-0.01505267
-0.93175665
-0.021208691
-1.1086745
-0.029538943
-1.3171818
-0.040282678
-1.5640363
-0.053633499
-1.8577816
-0.069782276
-2.2087469
-0.08897674
-2.6292795
-0.11156309
-3.1340444
-0.13800189
-3.7406649
-0.16891062
-4.4702338
-0.20505123
-5.3479741
-0.24714725
-6.407142
-0.29598873
-7.6853898
-0.35263185
-9.2291014
-0.41825654
-11.09627
-0.49412393
-13.357544
-0.58128453
-16.103526
-0.68052381
-19.444783
-0.79264004
-23.520774
-0.91756808
-28.498065
-1.0527535
-34.621281
-1.1951599
-42.17985
-1.3387024
-51.544364
-1.4746866
-63.204032
-1.5860371
-77.809168
-96.243088
3.1852033e-05
-0.0074097483
4.9656957e-05
-0.010619726
9.0094525e-05
-0.014129363
0.00017925263
-0.018543323
0.0002421478
-0.024104817
0.00019123498
-0.029789656
0.0001214082
-0.035425308
3.3575654e-05
-0.042679531
-6.0432631e-05
-0.05094348
-0.00018353245
-0.061216548
-0.00031493088
-0.073270294
-0.00048389642
-0.087913718
-0.00066621224
-0.10541017
-0.00089315275
-0.12644616
-0.0011478239
-0.1517452
-0.0014579712
-0.18207884
-0.0018094316
-0.21860614
-0.0022387317
-0.26243008
-0.0027603156
-0.31512246
-0.0034258356
-0.37830494
-0.0043283837
-0.45400235
-0.0056360068
-0.54432361
-0.0076199139
-0.65160729
-0.010670273
-0.77826117
-0.015210149
-0.92720816
-0.021646365
-1.1022293
-0.030286971
-1.3085294
-0.041330238
-1.5529753
-0.05494709
-1.8441433
-0.071337605
-2.1923286
-0.090767404
-2.6098132
-0.11359845
-3.1111631
-0.14031806
-3.7138784
-0.17158166
-4.4388866
-0.2081809
-5.3112665
-0.25085594
-6.3643235
-0.30044252
-7.6356027
-0.35806149
-9.1712162
-0.42496831
-11.029033
-0.50251995
-13.279607
-0.59190238
-16.013742
-0.69407394
-19.341954
-0.8104788
-23.402832
-0.94046739
-28.366449
-1.0827748
-34.477188
-1.2352048
-42.025395
-1.3915691
-51.385317
-1.5464547
-63.047614
-1.6837049
-77.672243
-96.151551
3.5393752e-05
-0.0074166829
5.6263222e-05
-0.010640443
0.00010080219
-0.014173656
0.00020161338
-0.018643767
0.00025700126
-0.024159633
0.00020488361
-0.029737185
0.00014062167
-0.035360708
5.8403875e-05
-0.042596727
-2.8945264e-05
-0.050855685
-0.00014350867
-0.061101107
-0.0002636222
-0.073149528
-0.00042011803
-0.087756033
-0.00058761775
-0.10524159
-0.00079665767
-0.12623554
-0.001030376
-0.15150987
-0.0013159628
-0.1817911
-0.0016397136
-0.21827992
-0.0020385087
-0.26202823
-0.0025278806
-0.31462958
-0.0031705199
-0.37765821
-0.0040695422
-0.45309863
-0.005410131
-0.54297759
-0.0074927873
-0.64951829
-0.010713616
-0.77503304
-0.015512884
-0.92240059
-0.022272206
-1.0954614
-0.031242803