/*--------------------------------*- C++ -*----------------------------------*\
  =========                 |
  \\      /  F ield         | OpenFOAM: The Open Source CFD Toolbox
   \\    /   O peration     | Website:  https://openfoam.org
    \\  /    A nd           | Version:  8
     \\/     M anipulation  |
\*---------------------------------------------------------------------------*/
FoamFile
{
    version     2.0;
    format      ascii;
    class       pointVectorField;
    location    "0.120004";
    object      pointDisplacement;
}
// * * * * * * * * * * * * * * * * * * * * * * * * * * * * * * * * * * * * * //

dimensions      [0 1 0 0 0 0 0];

internalField   nonuniform List<vector> 
40800
(
(0.0023913881 0 0.0020761564)
(0.0023977565 0 0.001732748)
(0.0023973785 0 0.001734213)
(0.0023908274 0 0.002084763)
(0.0023973521 0 0.0017332809)
(0.0023908076 0 0.0020838074)
(0.0023972904 0 0.001732049)
(0.00239075 0 0.0020827487)
(0.0023971743 0 0.001730611)
(0.0023906399 0 0.002081519)
(0.0023969803 0 0.0017289404)
(0.0023904541 0 0.0020800938)
(0.0023966751 0 0.0017270132)
(0.0023901604 0 0.0020784546)
(0.0023962131 0 0.0017248098)
(0.0023897142 0 0.0020765883)
(0.0023955319 0 0.0017223194)
(0.0023890541 0 0.0020744911)
(0.0023945463 0 0.0017195477)
(0.0023880969 0 0.0020721759)
(0.0023931411 0 0.0017165271)
(0.0023867294 0 0.0020696829)
(0.0023911615 0 0.0017133328)
(0.0023847998 0 0.0020670957)
(0.0023884009 0 0.0017101062)
(0.0023821052 0 0.0020645641)
(0.0023845859 0 0.0017070889)
(0.0023783765 0 0.002062337)
(0.0023793576 0 0.0017046713)
(0.0023732608 0 0.00206081)
(0.0023722503 0 0.0017034611)
(0.0023662993 0 0.0020605904)
(0.002362668 0 0.0017043793)
(0.0023569036 0 0.0020625904)
(0.0023498597 0 0.0017087885)
(0.0023443313 0 0.0020681452)
(0.0023328976 0 0.0017186703)
(0.0023276627 0 0.0020791853)
(0.0023106637 0 0.0017368483)
(0.0023057857 0 0.0020984443)
(0.0022818535 0 0.0017672408)
(0.002277398 0 0.0021296915)
(0.0022450107 0 0.0018150999)
(0.0022410379 0 0.0021779707)
(0.0021986051 0 0.0018871348)
(0.0021951588 0 0.0022497469)
(0.0021411689 0 0.0019915162)
(0.002138259 0 0.0023529057)
(0.0020714859 0 0.0021375567)
(0.0020690694 0 0.0024964399)
(0.0019888204 0 0.002334863)
(0.0019867858 0 0.0026896531)
(0.0018931271 0 0.002592022)
(0.0018912868 0 0.0029408896)
(0.0017852429 0 0.0029146673)
(0.001783349 0 0.0032556036)
(0.001666878 0 0.0033034925)
(0.0016646585 0 0.0036343469)
(0.0015404737 0 0.0037529636)
(0.0015376848 0 0.0040715004)
(0.0014090372 0 0.0042502067)
(0.001405524 0 0.004554086)
(0.0012757973 0 0.0047762976)
(0.0012715275 0 0.0050632057)
(0.001143876 0 0.0053079932)
(0.0011389318 0 0.0055757682)
(0.0010162567 0 0.0058199951)
(0.0010108352 0 0.0060667276)
(0.00089543165 0 0.006288594)
(0.00088978486 0 0.0065128278)
(0.00078309276 0 0.0066946901)
(0.00077746218 0 0.0068957222)
(0.00068027039 0 0.0070248864)
(0.00067485821 0 0.0072027865)
(0.00058735047 0 0.0072701389)
(0.00058230411 0 0.007425566)
(0.00050416017 0 0.0074261984)
(0.00049955963 0 0.0075603765)
(0.00043031691 0 0.0074905768)
(0.00042621826 0 0.0076049315)
(0.00036500373 0 0.0074622586)
(0.00036139097 0 0.0075584497)
(0.00030735566 0 0.0073395155)
(0.00030421288 0 0.0074190616)
(0.00025685918 0 0.0071203216)
(0.00025417142 0 0.0071850098)
(0.00021255825 0 0.0067968047)
(0.0002102934 0 0.0068478441)
(0.00017351993 0 0.0063549321)
(0.00017162833 0 0.0063934431)
(0.0001388288 0 0.0057828805)
(0.00013727224 0 0.0058101345)
(0.00010777651 0 0.0050623799)
(0.00010652692 0 0.0050800433)
(7.9363751e-05 0 0.0041598089)
(7.83995e-05 0 0.0041689889)
(5.256805e-05 0 0.0030342382)
(5.1881286e-05 0 0.0030368137)
(2.6043824e-05 0 0.0016424139)
(2.5643431e-05 0 0.0016413274)
(0 0 0)
(0 0 0)
(0.0024026689 0 0.0013967059)
(0.0024023 0 0.0013979154)
(0.0024022735 0 0.0013966497)
(0.0024022085 0 0.0013951665)
(0.0024020879 0 0.0013934268)
(0.0024018874 0 0.0013913972)
(0.0024015733 0 0.0013890428)
(0.0024010991 0 0.0013863313)
(0.0024004009 0 0.001383237)
(0.0023993921 0 0.0013797489)
(0.0023979555 0 0.0013758808)
(0.0023959337 0 0.0013716874)
(0.0023931167 0 0.0013672884)
(0.0023892269 0 0.0013629028)
(0.0023839005 0 0.0013588987)
(0.0023766659 0 0.0013558633)
(0.0023669199 0 0.0013547021)
(0.0023539045 0 0.0013567764)
(0.0023366851 0 0.0013640902)
(0.0023141387 0 0.0013795244)
(0.0022849605 0 0.0014071228)
(0.0022476986 0 0.0014523307)
(0.0022008381 0 0.0015220641)
(0.0021429437 0 0.0016247588)
(0.0020728503 0 0.0017700673)
(0.0019898867 0 0.0019679412)
(0.0018940827 0 0.0022272899)
(0.0017863326 0 0.0025540526)
(0.0016683692 0 0.0029492355)
(0.0015426108 0 0.0034075569)
(0.0014119786 0 0.0039164099)
(0.0012795848 0 0.004456976)
(0.0011484412 0 0.0050059174)
(0.0010214163 0 0.0055377611)
(0.00090093397 0 0.0060283703)
(0.00078869138 0 0.0064579096)
(0.00068574736 0 0.0068121246)
(0.00059253844 0 0.0070813137)
(0.00050895389 0 0.0072605566)
(0.00043464607 0 0.0073469859)
(0.00036885456 0 0.0073393239)
(0.00031074794 0 0.0072357569)
(0.00025978584 0 0.0070340854)
(0.00021504929 0 0.0067266562)
(0.0001756135 0 0.0062999058)
(0.00014056941 0 0.0057415745)
(0.00010918379 0 0.0050331988)
(8.046003e-05 0 0.0041414705)
(5.3353995e-05 0 0.0030253155)
(2.6505013e-05 0 0.0016400412)
(0 0 0)
(0.0024061573 0 0.0010678768)
(0.0024057976 0 0.0010689466)
(0.0024057671 0 0.0010674552)
(0.0024056967 0 0.0010657039)
(0.0024055689 0 0.0010636467)
(0.0024053588 0 0.0010612395)
(0.0024050319 0 0.001058437)
(0.0024045407 0 0.001055195)
(0.0024038201 0 0.0010514745)
(0.0024027815 0 0.0010472491)
(0.0024013055 0 0.0010425149)
(0.0023992317 0 0.0010373071)
(0.0023963465 0 0.0010317238)
(0.0023923676 0 0.0010259604)
(0.0023869254 0 0.0010203613)
(0.0023795418 0 0.0010154915)
(0.0023696064 0 0.0010122404)
(0.0023563531 0 0.001011968)
(0.0023388408 0 0.0010167084)
(0.0023159424 0 0.0010294047)
(0.0022863534 0 0.0010542528)
(0.0022486275 0 0.0010969275)
(0.0022012658 0 0.001164516)
(0.002142871 0 0.0012656977)
(0.0020723356 0 0.0014104715)
(0.0019890595 0 0.0016090962)
(0.0018931536 0 0.0018707612)
(0.0017855753 0 0.0022016601)
(0.0016680822 0 0.0026030535)
(0.0015430676 0 0.0030698766)
(0.001413364 0 0.0035897579)
(0.0012819607 0 0.0041439973)
(0.0011517507 0 0.0047092113)
(0.0010254829 0 0.005259806)
(0.00090550591 0 0.0057713023)
(0.00079351205 0 0.0062232186)
(0.00069058406 0 0.0066005127)
(0.00059720596 0 0.0068928468)
(0.00051332747 0 0.0070946486)
(0.00043863925 0 0.0072026499)
(0.00037243699 0 0.0072152969)
(0.00031392501 0 0.0071306626)
(0.00026254384 0 0.0069463682)
(0.00021740854 0 0.0066549403)
(0.0001776051 0 0.0062432345)
(0.00014223168 0 0.0056986212)
(0.00011053378 0 0.005002449)
(8.1516346e-05 0 0.0041217031)
(5.4114792e-05 0 0.0030151913)
(2.6951949e-05 0 0.0016369343)
(0 0 0)
(0.0024082665 0 0.00074611143)
(0.0024079147 0 0.00074704375)
(0.0024078782 0 0.00074532976)
(0.0024078 0 0.00074331325)
(0.002407662 0 0.00074094065)
(0.0024074388 0 0.00073815924)
(0.0024070949 0 0.00073491296)
(0.0024065816 0 0.00073114524)
(0.0024058322 0 0.00072680295)
(0.0024047564 0 0.00072184344)
(0.002403232 0 0.00071624478)
(0.0024010954 0 0.00071002204)
(0.002398129 0 0.00070325122)
(0.0023940452 0 0.00069610422)
(0.0023884685 0 0.00068890089)
(0.0023809133 0 0.000682183)
(0.0023707612 0 0.00067682172)
(0.0023572386 0 0.00067417501)
(0.0023393975 0 0.00067632904)
(0.0023161079 0 0.00068627709)
(0.0022860677 0 0.00070841014)
(0.0022478351 0 0.00074870868)
(0.0021999272 0 0.00081433626)
(0.0021409917 0 0.00091418732)
(0.0020699861 0 0.0010586463)
(0.0019863862 0 0.0012582288)
(0.0018903901 0 0.0015223629)
(0.001783023 0 0.0018574489)
(0.0016660686 0 0.002264946)
(0.0015418925 0 0.0027399693)
(0.0014132356 0 0.0032703518)
(0.001282959 0 0.0038375208)
(0.001153829 0 0.0044180875)
(0.0010284711 0 0.0049863864)
(0.00090915387 0 0.0055176759)
(0.00079755484 0 0.0059909136)
(0.00069477625 0 0.0063903404)
(0.00060134632 0 0.0067050091)
(0.0005172732 0 0.0069287177)
(0.00044228853 0 0.0070577815)
(0.00037574371 0 0.0070903585)
(0.00031688051 0 0.0070243832)
(0.00026512755 0 0.0068572922)
(0.00021963138 0 0.0065817556)
(0.00017949103 0 0.006185)
(0.00014381284 0 0.0056540845)
(0.00011182437 0 0.0049701771)
(8.2531232e-05 0 0.0041005417)
(5.4849481e-05 0 0.0030038918)
(2.7384295e-05 0 0.0016331051)
(0 0 0)
(0.0024090391 0 0.00043126244)
(0.0024086916 0 0.00043205916)
(0.002408647 0 0.00043012391)
(0.0024085586 0 0.00042784387)
(0.0024084076 0 0.00042515775)
(0.0024081677 0 0.00042200371)
(0.0024078024 0 0.00041831514)
(0.0024072616 0 0.00041402322)
(0.0024064771 0 0.00040906067)
(0.0024053562 0 0.00040336856)
(0.002403774 0 0.00039690659)
(0.0024015633 0 0.00038966915)
(0.002398502 0 0.00038170946)
(0.0023942969 0 0.00037317482)
(0.0023885656 0 0.00036435881)
(0.0023808146 0 0.00035577628)
(0.002370417 0 0.000348274)
(0.0023565921 0 0.00034319485)
(0.0023383856 0 0.00034276104)
(0.0023146661 0 0.00035015326)
(0.002284138 0 0.00036979988)
(0.0022453565 0 0.00040774021)
(0.0021968543 0 0.00047141133)
(0.002137338 0 0.00057011681)
(0.0020658357 0 0.00071451493)
(0.001981903 0 0.00091529174)
(0.001885831 0 0.0011820764)
(0.0017787166 0 0.0015214315)
(0.0016623699 0 0.0019349595)
(0.0015391258 0 0.0024179205)
(0.0014116299 0 0.0029583212)
(0.0012826099 0 0.0035377229)
(0.0011546988 0 0.0041327656)
(0.0010303957 0 0.0047177583)
(0.00091188464 0 0.0052677729)
(0.00080082039 0 0.0057612864)
(0.00069832019 0 0.006181893)
(0.0006049531 0 0.0065180683)
(0.00052078352 0 0.0067630052)
(0.00044558604 0 0.0069125914)
(0.0003787673 0 0.0069646877)
(0.00031960797 0 0.0069170679)
(0.00026753113 0 0.0067669774)
(0.00022171295 0 0.0065071975)
(0.00018126738 0 0.0061252801)
(0.00014530995 0 0.0056080238)
(0.00011305327 0 0.0049364258)
(8.3503057e-05 0 0.0040780158)
(5.5556983e-05 0 0.0029914385)
(2.7801673e-05 0 0.001628565)
(0 0 0)
(0.0024085074 0 0.0001231866)
(0.0024081645 0 0.00012384893)
(0.0024081099 0 0.00012169307)
(0.0024080088 0 0.00011915034)
(0.0024078417 0 0.00011615169)
(0.0024075815 0 0.00011262603)
(0.0024071905 0 0.00010849614)
(0.0024066171 0 0.0001036809)
(0.0024057911 0 9.8098922e-05)
(0.0024046175 0 9.1674922e-05)
(0.0024029681 0 8.4350093e-05)
(0.0024006719 0 7.6097936e-05)
(0.0023975016 0 6.6948334e-05)
(0.002393158 0 5.7022675e-05)
(0.0023872509 0 4.6585816e-05)
(0.0023792782 0 3.6120651e-05)
(0.0023686035 0 2.6444791e-05)
(0.0023544442 0 1.9006326e-05)
(0.0023358461 0 1.6182967e-05)
(0.0023116667 0 2.1340232e-05)
(0.002280602 0 3.8809785e-05)
(0.0022412159 0 7.4400204e-05)
(0.0021920771 0 0.00013606141)
(0.0021319456 0 0.00023359063)
(0.0020599198 0 0.00037800773)
(0.0019756475 0 0.00058024185)
(0.0018795171 0 0.00084988262)
(0.0017726995 0 0.0011936155)
(0.0016570307 0 0.0016131308)
(0.0015348115 0 0.0021038004)
(0.0014085871 0 0.0026537753)
(0.0012809477 0 0.0032447561)
(0.0011543866 0 0.00385344)
(0.0010312749 0 0.0044541524)
(0.0009137085 0 0.0050218513)
(0.00080331248 0 0.0055346081)
(0.00070121489 0 0.0059754394)
(0.00060802214 0 0.0063322799)
(0.00052385258 0 0.0065977443)
(0.00044852515 0 0.0067672856)
(0.00038150125 0 0.0068384613)
(0.00032210153 0 0.0068088649)
(0.00026974922 0 0.006675544)
(0.0002236487 0 0.0064313619)
(0.00018293045 0 0.0060641531)
(0.00014672014 0 0.0055604994)
(0.0001142183 0 0.0049012388)
(8.4430248e-05 0 0.0040541577)
(5.6236292e-05 0 0.002977857)
(2.8203699e-05 0 0.0016233263)
(0 0 0)
(0.0024067087 0 -0.00017825568)
(0.0024063699 0 -0.00017772794)
(0.0024063033 0 -0.00018010507)
(0.0024061871 0 -0.00018291132)
(0.0024060011 0 -0.00018622324)
(0.002405717 0 -0.00019012083)
(0.002405296 0 -0.0001946919)
(0.0024046847 0 -0.00020002983)
(0.0024038108 0 -0.00020623018)
(0.0024025766 0 -0.00021338466)
(0.0024008504 0 -0.00022157081)
(0.0023984568 0 -0.00023083632)
(0.002395163 0 -0.00024117516)
(0.0023906628 0 -0.00025249271)
(0.0023845576 0 -0.00026455491)
(0.0023763356 0 -0.00027691987)
(0.0023653578 0 -0.00028869416)
(0.0023508433 0 -0.00029821008)
(0.002331827 0 -0.00030311771)
(0.0023071477 0 -0.00030013047)
(0.0022754905 0 -0.00028482471)
(0.0022354439 0 -0.00025130831)
(0.0021856246 0 -0.00019136949)
(0.0021248418 0 -9.5045666e-05)
(0.0020522713 0 4.9257078e-05)
(0.0019676578 0 0.00025304291)
(0.0018714902 0 0.00052576624)
(0.0017650168 0 0.00087400793)
(0.0016500978 0 0.0012994902)
(0.0015289957 0 0.001797668)
(0.0014041502 0 0.0023568077)
(0.0012780092 0 0.002958754)
(0.0011529219 0 0.0035802835)
(0.0010311299 0 0.0041957765)
(0.00091463867 0 0.0047801476)
(0.00080503759 0 0.005311131)
(0.00070346148 0 0.0057712337)
(0.00061055098 0 0.0061478884)
(0.00052647589 0 0.0064331606)
(0.00045110031 0 0.0066220651)
(0.00038393983 0 0.0067118532)
(0.00032435589 0 0.0066999213)
(0.00027177684 0 0.0065831125)
(0.00022543433 0 0.0063543454)
(0.00018447665 0 0.0060016977)
(0.00014804062 0 0.0055115724)
(0.00011531724 0 0.0048646611)
(8.5311214e-05 0 0.0040289997)
(5.6886322e-05 0 0.00296317)
(2.8589945e-05 0 0.0016174005)
(0 0 0)
(0.0024036816 0 -0.00047320269)
(0.0024033459 0 -0.00047280809)
(0.0024032651 0 -0.00047540567)
(0.0024031312 0 -0.00047847428)
(0.0024029231 0 -0.00048209831)
(0.0024026115 0 -0.00048636691)
(0.0024021558 0 -0.00049137849)
(0.0024015011 0 -0.00049723871)
(0.0024005726 0 -0.00050405729)
(0.0023992695 0 -0.00051194216)
(0.0023974565 0 -0.00052098942)
(0.0023949531 0 -0.00053126779)
(0.0023915205 0 -0.00054279447)
(0.0023868449 0 -0.00055549958)
(0.0023805183 0 -0.00056917248)
(0.0023720238 0 -0.0005833862)
(0.0023607267 0 -0.00059707467)
(0.0023458344 0 -0.0006085047)
(0.0023263575 0 -0.00061545117)
(0.0023011258 0 -0.00061466295)
(0.0022688281 0 -0.00060154114)
(0.0022280753 0 -0.00056987336)
(0.0021775258 0 -0.00051133715)
(0.0021160537 0 -0.00041584188)
(0.0020429182 0 -0.00027161172)
(0.0019579673 0 -6.6344474e-05)
(0.0018617937 0 0.00020971335)
(0.0017557157 0 0.00056261352)
(0.0016416205 0 0.00099406055)
(0.0015217276 0 0.0014995699)
(0.0013983651 0 0.002067495)
(0.0012738347 0 0.0026798292)
(0.0011503374 0 0.0033134461)
(0.0010299851 0 0.0039428151)
(0.00091469122 0 0.0045428758)
(0.00080600468 0 0.0050910874)
(0.00070506344 0 0.0055695131)
(0.00061253921 0 0.005965125)
(0.00052865053 0 0.0062694699)
(0.00045330714 0 0.0064771243)
(0.00038607821 0 0.0065850336)
(0.00032636635 0 0.0065903821)
(0.00027360948 0 0.0064898023)
(0.00022706581 0 0.0062762446)
(0.00018590259 0 0.0059379929)
(0.00014926871 0 0.0054613041)
(0.00011634797 0 0.0048267381)
(8.6144344e-05 0 0.0040025738)
(5.7506025e-05 0 0.0029474024)
(2.8959982e-05 0 0.0016108002)
(0 0 0)
(0.0023994645 0 -0.00076178872)
(0.002399129 0 -0.00076152644)
(0.0023990319 0 -0.00076434428)
(0.0023988777 0 -0.00076767504)
(0.0023986443 0 -0.00077161094)
(0.002398301 0 -0.00077625022)
(0.002397806 0 -0.00078170182)
(0.002397102 0 -0.0007880838)
(0.0023961118 0 -0.00079552022)
(0.0023947311 0 -0.00080413529)
(0.0023928206 0 -0.00081404381)
(0.0023901946 0 -0.00082533583)
(0.0023866076 0 -0.00083805231)
(0.0023817377 0 -0.00085214952)
(0.0023751678 0 -0.00086743968)
(0.0023663822 0 -0.00088337342)
(0.0023547455 0 -0.00089882105)
(0.0023394405 0 -0.00091218153)
(0.0023194585 0 -0.00092121212)
(0.0022936273 0 -0.00092256646)
(0.0022606401 0 -0.00091151831)
(0.0022191318 0 -0.00088161874)
(0.0021678077 0 -0.00082432205)
(0.0021056106 0 -0.00072923695)
(0.002031893 0 -0.00058465808)
(0.001946617 0 -0.0003777874)
(0.001850473 0 -9.8287876e-05)
(0.0017448453 0 0.00025943581)
(0.0016316501 0 0.00069685788)
(0.0015130584 0 0.0012095421)
(0.00139128 0 0.0017858989)
(0.0012684665 0 0.0024080762)
(0.0011466683 0 0.0030530571)
(0.0010278674 0 0.0036954303)
(0.0009138849 0 0.0043102279)
(0.00080622521 0 0.0048746902)
(0.00070602641 0 0.0053704983)
(0.00061398811 0 0.0057842082)
(0.00053037498 0 0.006106879)
(0.00045514243 0 0.0063326513)
(0.00038791234 0 0.0064581683)
(0.00032812883 0 0.0064803901)
(0.00027524307 0 0.0063957322)
(0.00022853945 0 0.0061971561)
(0.00018720506 0 0.0058731178)
(0.00015040178 0 0.0054097567)
(0.00011730838 0 0.0047875161)
(8.6928055e-05 0 0.0039749135)
(5.8094299e-05 0 0.002930578)
(2.9313346e-05 0 0.0016035377)
(0 0 0)
(0.0023940883 0 -0.0010441449)
(0.0023937519 0 -0.0010440141)
(0.0023936362 0 -0.0010470519)
(0.002393459 0 -0.0010506446)
(0.0023931971 0 -0.0010548921)
(0.0023928184 0 -0.0010599019)
(0.0023922792 0 -0.0010657934)
(0.0023915201 0 -0.0010726971)
(0.002390461 0 -0.0010807514)
(0.0023889941 0 -0.0010900969)
(0.0023869754 0 -0.0011008674)
(0.0023842134 0 -0.0011131749)
(0.0023804553 0 -0.0011270865)
(0.0023753704 0 -0.0011425921)
(0.0023685395 0 -0.0011594804)
(0.0023594487 0 -0.0011770346)
(0.0023474448 0 -0.0011941861)
(0.002331687 0 -0.0012094644)
(0.0023111569 0 -0.0012205349)
(0.002284678 0 -0.0012239706)
(0.0022509506 0 -0.0012149061)
(0.0022086375 0 -0.0011866744)
(0.0021564968 0 -0.0011304341)
(0.0020935442 0 -0.0010354809)
(0.0020192402 0 -0.00088992973)
(0.001933652 0 -0.00068114432)
(0.0018375707 0 -0.00039824796)
(0.0017324569 0 -3.5524844e-05)
(0.0016202405 0 0.00040788917)
(0.0015030423 0 0.00092760717)
(0.0013829461 0 0.0015120635)
(0.0012619503 0 0.0021435678)
(0.0011419566 0 0.0027993882)
(0.0010248143 0 0.0034541187)
(0.00091224708 0 0.0040827267)
(0.00080571711 0 0.0046624507)
(0.00070636043 0 0.0051746675)
(0.0006149017 0 0.0056054787)
(0.00053164928 0 0.005945585)
(0.00045660413 0 0.0061888262)
(0.00038943915 0 0.0063314181)
(0.0003296399 0 0.006370085)
(0.00027667403 0 0.0063010195)
(0.00022985183 0 0.006117176)
(0.00018838105 0 0.0058071516)
(0.00015143736 0 0.0053569927)
(0.00011819642 0 0.004747042)
(8.7660789e-05 0 0.0039460536)
(5.8650061e-05 0 0.0029127218)
(2.9649552e-05 0 0.0015956253)
(0 0 0)
(0.0023875834 0 -0.0013203996)
(0.0023872478 0 -0.0013204003)
(0.0023871113 0 -0.0013236588)
(0.0023869084 0 -0.0013275143)
(0.0023866147 0 -0.0013320743)
(0.0023861965 0 -0.0013374551)
(0.0023856082 0 -0.0013437868)
(0.0023847881 0 -0.0013512118)
(0.0023836528 0 -0.0013598826)
(0.0023820906 0 -0.0013699562)
(0.0023799526 0 -0.0013815847)
(0.0023770408 0 -0.0013949012)
(0.0023730945 0 -0.0014099961)
(0.0023677764 0 -0.0014268856)
(0.0023606708 0 -0.0014452641)
(0.0023512565 0 -0.0014643951)
(0.0023388525 0 -0.0014832937)
(0.0023226014 0 -0.0015004703)
(0.0023014779 0 -0.0015135458)
(0.0022743013 0 -0.0015190081)
(0.0022397819 0 -0.0015118449)
(0.0021966152 0 -0.0014851762)
(0.00214362 0 -0.0014297902)
(0.0020798905 0 -0.0013346651)
(0.0020049962 0 -0.0011876454)
(0.0019191137 0 -0.00097644437)
(0.0018231395 0 -0.00069000977)
(0.0017186042 0 -0.00032226984)
(0.0016074476 0 0.00012715517)
(0.0014917353 0 0.00065377759)
(0.001373423 0 0.001246186)
(0.0012543494 0 0.0018867485)
(0.0011362601 0 0.0025529701)
(0.001020871 0 0.0032194569)
(0.00090980897 0 0.0038609529)
(0.00080450088 0 0.0044549197)
(0.00070607708 0 0.0049825274)
(0.00061528471 0 0.0054293922)
(0.0005324745 0 0.0057858983)
(0.00045769125 0 0.0060458231)
(0.00039065634 0 0.0062049389)
(0.00033089671 0 0.0062596036)
(0.00027789919 0 0.00620578)
(0.00023099987 0 0.0060364004)
(0.00018942772 0 0.0057401734)
(0.00015237302 0 0.0053030751)
(0.00011901009 0 0.0047053636)
(8.8340967e-05 0 0.0039160284)
(5.9172201e-05 0 0.0028938586)
(2.9968121e-05 0 0.0015870767)
(0 0 0)
(0.0023799911 0 -0.0015906794)
(0.0023796501 0 -0.0015908105)
(0.0023794905 0 -0.0015942897)
(0.0023792591 0 -0.0015984079)
(0.0023789301 0 -0.0016032802)
(0.0023784682 0 -0.0016090319)
(0.0023778258 0 -0.0016158032)
(0.0023769384 0 -0.0016237486)
(0.0023757193 0 -0.0016330345)
(0.0023740527 0 -0.0016438336)
(0.0023717841 0 -0.0016563165)
(0.0023687088 0 -0.0016706362)
(0.0023645576 0 -0.001686906)
(0.0023589916 0 -0.0017051148)
(0.0023515957 0 -0.0017249008)
(0.0023418301 0 -0.0017456011)
(0.0023289905 0 -0.0017662612)
(0.0023122072 0 -0.0017853227)
(0.0022904442 0 -0.0018003721)
(0.0022625187 0 -0.0018078121)
(0.0022271548 0 -0.0018024641)
(0.0021830955 0 -0.0017770567)
(0.0021292216 0 -0.0017221054)
(0.0020646993 0 -0.0016264881)
(0.0019892058 0 -0.001477838)
(0.001903055 0 -0.0012637175)
(0.001807236 0 -0.00097341189)
(0.0017033383 0 -0.00060079911)
(0.0015933291 0 -0.00014535264)
(0.0014792074 0 0.00038823913)
(0.0013627928 0 0.00098873821)
(0.0012457399 0 0.0016382164)
(0.0011296326 0 0.0023141337)
(0.0010160692 0 0.0029913977)
(0.00090659256 0 0.0036448321)
(0.00080259138 0 0.0042520398)
(0.00070518576 0 0.0047940533)
(0.0006151426 0 0.0052561345)
(0.00053285291 0 0.0056282139)
(0.00045840359 0 0.00590391)
(0.00039156245 0 0.006078881)
(0.00033189703 0 0.0061490784)
(0.00027891588 0 0.0061101273)
(0.0002319808 0 0.0059549238)
(0.00019034246 0 0.0056722619)
(0.0001532065 0 0.0052480667)
(0.00011974744 0 0.0046625288)
(8.8967053e-05 0 0.0038848738)
(5.9659609e-05 0 0.0028740136)
(3.0268526e-05 0 0.0015779044)
(0 0 0)
(0.0023713323 0 -0.0018551066)
(0.0023709896 0 -0.0018553684)
(0.0023708046 0 -0.0018590687)
(0.0023705419 0 -0.0018634499)
(0.0023701741 0 -0.0018686344)
(0.0023696645 0 -0.0018747562)
(0.0023689629 0 -0.0018819658)
(0.002368002 0 -0.0018904298)
(0.0023666915 0 -0.0019003283)
(0.0023649109 0 -0.0019118503)
(0.0023625 0 -0.0019251841)
(0.0023592466 0 -0.0019405036)
(0.002354875 0 -0.0019579488)
(0.0023490469 0 -0.0019774386)
(0.0023413403 0 -0.0019986065)
(0.0023311939 0 -0.0020208661)
(0.0023178845 0 -0.0020432447)
(0.0023005277 0 -0.0020641556)
(0.0022780769 0 -0.0020811456)
(0.00224935 0 -0.0020905147)
(0.002213104 0 -0.0020867211)
(0.0021681333 0 -0.0020620397)
(0.0021133567 0 -0.0020070321)
(0.0020480178 0 -0.0019105855)
(0.0019719211 0 -0.0017601614)
(0.0018855241 0 -0.0015429668)
(0.0017899016 0 -0.0012486403)
(0.0016867116 0 -0.00087113721)
(0.001577961 0 -0.00040944483)
(0.0014655563 0 0.00013150161)
(0.0013511386 0 0.00074007047)
(0.0012361737 0 0.0013979447)
(0.0011221087 0 0.0020827276)
(0.0010104352 0 0.002769744)
(0.00090261917 0 0.0034341687)
(0.00080000422 0 0.0040536582)
(0.00070369766 0 0.0046091438)
(0.00061448307 0 0.0050856505)
(0.00053278851 0 0.005472676)
(0.00045874166 0 0.0057633536)
(0.00039215628 0 0.0059533898)
(0.00033263926 0 0.0060386382)
(0.00027972187 0 0.0060141726)
(0.00023279215 0 0.0058728402)
(0.00019112284 0 0.0056034956)
(0.0001539356 0 0.005192031)
(0.00012040656 0 0.0046185865)
(8.9537493e-05 0 0.0038526254)
(6.0111173e-05 0 0.0028532129)
(3.0550235e-05 0 0.0015681217)
(0 0 0)
(0.0023616468 0 -0.0021138025)
(0.0023612991 0 -0.002114193)
(0.0023610862 0 -0.0021181131)
(0.0023607892 0 -0.0021227553)
(0.0023603791 0 -0.00212825)
(0.0023598172 0 -0.0021347403)
(0.002359051 0 -0.0021423873)
(0.00235801 0 -0.0021513691)
(0.0023566 0 -0.0021618796)
(0.0023546956 0 -0.0021741224)
(0.0023521301 0 -0.0021883027)
(0.0023486836 0 -0.0022046107)
(0.0023440766 0 -0.0022232028)
(0.0023379713 0 -0.0022439576)
(0.0023299318 0 -0.0022665051)
(0.0023193741 0 -0.0022903028)
(0.0023055584 0 -0.0023143679)
(0.0022875847 0 -0.0023370893)
(0.0022643953 0 -0.0023559891)
(0.002234828 0 -0.0023670905)
(0.0021976822 0 -0.0023643885)
(0.0021517668 0 -0.0023401377)
(0.002096042 0 -0.002284906)
(0.0020298632 0 -0.0021873127)
(0.0019531782 0 -0.0020346259)
(0.0018665618 0 -0.0018141756)
(0.0017711884 0 -0.001515711)
(0.001668813 0 -0.0011329409)
(0.0015614542 0 -0.00066457175)
(0.0014508774 0 -0.00011605025)
(0.0013385169 0 0.00050012036)
(0.00122569 0 0.0011656707)
(0.0011137242 0 0.0018585615)
(0.0010040031 0 0.0025544949)
(0.00089791559 0 0.003229006)
(0.00079675939 0 0.0038598553)
(0.00070162669 0 0.0044279072)
(0.00061331492 0 0.0049179781)
(0.00053228597 0 0.0053192388)
(0.00045870729 0 0.0056242834)
(0.00039243788 0 0.0058286931)
(0.0003331224 0 0.0059284077)
(0.00028031541 0 0.0059180242)
(0.00023343182 0 0.0057902419)
(0.00019176667 0 0.0055339519)
(0.00015455828 0 0.0051350313)
(0.00012098563 0 0.0045735858)
(9.0050785e-05 0 0.0038193205)
(6.0525767e-05 0 0.0028314826)
(3.0812719e-05 0 0.001557743)
(0 0 0)
(0.0023509655 0 -0.0023668846)
(0.0023506089 0 -0.0023674038)
(0.0023503656 0 -0.0023715443)
(0.0023500311 0 -0.0023764484)
(0.002349575 0 -0.0023822542)
(0.0023489562 0 -0.0023891138)
(0.0023481196 0 -0.0023971984)
(0.0023469915 0 -0.0024066983)
(0.0023454735 0 -0.0024178211)
(0.0023434348 0 -0.0024307865)
(0.002340702 0 -0.002445818)
(0.0023370471 0 -0.002463128)
(0.0023321894 0 -0.0024828325)
(0.0023257902 0 -0.002504803)
(0.002317394 0 -0.002528716)
(0.0023063942 0 -0.0025540278)
(0.0022920347 0 -0.0025797434)
(0.0022733987 0 -0.0026042204)
(0.0022494302 0 -0.0026248862)
(0.0022190013 0 -0.0026373615)
(0.0021809189 0 -0.0026354981)
(0.0021339967 0 -0.0026116899)
(0.0020772821 0 -0.0025561123)
(0.0020102554 0 -0.0024570715)
(0.0019330062 0 -0.0023015953)
(0.0018462201 0 -0.0020773526)
(0.0017511795 0 -0.0017743456)
(0.001649753 0 -0.0013857089)
(0.001543913 0 -0.000910295)
(0.0014352329 0 -0.00035449696)
(0.0013249749 0 0.00026869106)
(0.0012143356 0 0.00094128746)
(0.0011045205 0 0.001641573)
(0.0009968075 0 0.0023456316)
(0.00089250957 0 0.0030293692)
(0.00079287793 0 0.0036706944)
(0.00069898789 0 0.0042504361)
(0.00061164804 0 0.0047532304)
(0.0005313513 0 0.0051679509)
(0.00045830398 0 0.0054868094)
(0.00039240843 0 0.0057050189)
(0.00033334552 0 0.0058185072)
(0.00028069515 0 0.0058217879)
(0.00023389797 0 0.0057072201)
(0.00019227191 0 0.0054637082)
(0.00015507259 0 0.0050771308)
(0.00012148286 0 0.0045275766)
(9.0505412e-05 0 0.0037849961)
(6.0902263e-05 0 0.0028088493)
(3.1055401e-05 0 0.0015467815)
(0 0 0)
(0.0023393085 0 -0.0026144684)
(0.0023389456 0 -0.0026151156)
(0.0023386692 0 -0.0026194767)
(0.0023382942 0 -0.0026246431)
(0.0023377881 0 -0.0026307605)
(0.0023371077 0 -0.0026379895)
(0.0023361951 0 -0.0026465119)
(0.0023349729 0 -0.0026565301)
(0.0023333381 0 -0.0026682653)
(0.0023311541 0 -0.0026819538)
(0.0023282402 0 -0.002697838)
(0.0023243625 0 -0.002716159)
(0.0023192426 0 -0.0027369606)
(0.0023125322 0 -0.002760108)
(0.0023037525 0 -0.002785357)
(0.002292278 0 -0.0028121535)
(0.0022773355 0 -0.0028394853)
(0.002257994 0 -0.0028656823)
(0.0022332181 0 -0.002887841)
(0.0022018951 0 -0.0029014017)
(0.0021628133 0 -0.0029003787)
(0.0021148301 0 -0.0028769409)
(0.0020571025 0 -0.0028207317)
(0.0019892393 0 -0.0027197495)
(0.0019114552 0 -0.002561097)
(0.0018245626 0 -0.0023325236)
(0.0017299661 0 -0.0020243191)
(0.0016296251 0 -0.0016292944)
(0.0015254066 0 -0.0011467017)
(0.0014186714 0 -0.00058408198)
(0.0013105627 0 4.5617693e-05)
(0.0012021572 0 0.00072467222)
(0.0010945393 0 0.001431682)
(0.00098888388 0 0.0021431171)
(0.00088642984 0 0.0028352647)
(0.00078838208 0 0.0034862201)
(0.00069579739 0 0.0040768068)
(0.00060949353 0 0.0045915059)
(0.00052999188 0 0.005018923)
(0.0004575359 0 0.0053509831)
(0.00039206892 0 0.0055824058)
(0.00033330824 0 0.0057090498)
(0.00028086022 0 0.0057255659)
(0.00023418913 0 0.0056238638)
(0.00019263682 0 0.0053928405)
(0.00015547675 0 0.005018393)
(0.00012189656 0 0.0044806087)
(9.0899891e-05 0 0.0037496902)
(6.1239529e-05 0 0.0027853403)
(3.1277733e-05 0 0.0015352528)
(0 0 0)
(0.0023267107 0 -0.0028566663)
(0.0023263365 0 -0.002857441)
(0.0023260245 0 -0.0028620229)
(0.0023256056 0 -0.0028674516)
(0.0023250457 0 -0.0028738801)
(0.002324299 0 -0.002881478)
(0.0023233045 0 -0.002890437)
(0.0023219811 0 -0.0029009708)
(0.0023202208 0 -0.0029133138)
(0.002317881 0 -0.0029277159)
(0.0023147731 0 -0.0029444332)
(0.0023106605 0 -0.0029637202)
(0.0023052653 0 -0.002985602)
(0.0022982226 0 -0.0030099416)
(0.0022890304 0 -0.0030365205)
(0.0022770468 0 -0.0030647801)
(0.0022614802 0 -0.0030936873)
(0.0022413972 0 -0.0031215091)
(0.0022157855 0 -0.0031449734)
(0.0021835163 0 -0.003159505)
(0.0021433719 0 -0.0031592428)
(0.002094298 0 -0.0031358229)
(0.002035559 0 -0.0030785059)
(0.0019668825 0 -0.0029750368)
(0.0018885962 0 -0.0028128136)
(0.0018016508 0 -0.0025797206)
(0.0017076339 0 -0.0022655643)
(0.0016085182 0 -0.0018635952)
(0.0015059867 0 -0.0013740742)
(0.0014012436 0 -0.00080501542)
(0.0012953303 0 -0.00016927245)
(0.0011892016 0 0.00051569212)
(0.0010838221 0 0.001228797)
(0.00098026767 0 0.0019469011)
(0.00087970539 0 0.0026466845)
(0.00078329449 0 0.0033064631)
(0.00069207211 0 0.0039070812)
(0.00060686324 0 0.00443289)
(0.00052821544 0 0.0048722551)
(0.00045640727 0 0.0052168446)
(0.00039142108 0 0.0054608771)
(0.00033301114 0 0.0056001408)
(0.00028081014 0 0.0056294571)
(0.00023430409 0 0.0055402606)
(0.00019285977 0 0.0053214243)
(0.00015576904 0 0.0049588809)
(0.00012222506 0 0.0044327331)
(9.1232784e-05 0 0.003713442)
(6.1536433e-05 0 0.0027609832)
(3.1479099e-05 0 0.00152317)
(0 0 0)
(0.0023131922 0 -0.0030935882)
(0.0023128084 0 -0.0030944903)
(0.002312458 0 -0.0030992932)
(0.0023119921 0 -0.0031049844)
(0.0023113743 0 -0.0031117244)
(0.0023105564 0 -0.0031196916)
(0.0023094741 0 -0.0031290877)
(0.002308042 0 -0.0031401385)
(0.0023061472 0 -0.0031530917)
(0.0023036403 0 -0.003168213)
(0.0023003248 0 -0.0031857772)
(0.0022959637 0 -0.003205999)
(0.0022902772 0 -0.0032289144)
(0.0022828802 0 -0.0032544332)
(0.0022732479 0 -0.0032823221)
(0.0022607207 0 -0.0033120181)
(0.0022444896 0 -0.003342476)
(0.002223636 0 -0.0033717063)
(0.0021971514 0 -0.0033963258)
(0.0021638758 0 -0.0034118069)
(0.002122627 0 -0.0034120326)
(0.002072457 0 -0.0033881033)
(0.0020127142 0 -0.0033291342)
(0.0019432279 0 -0.0032228969)
(0.0018644762 0 -0.0030567065)
(0.0017775702 0 -0.0028186715)
(0.0016842794 0 -0.0024979946)
(0.0015864993 0 -0.0020887714)
(0.0014857012 0 -0.0015926577)
(0.0013830004 0 -0.0010175159)
(0.0012793274 0 -0.00037616323)
(0.0011755153 0 0.00031420144)
(0.0010724106 0 0.0010328117)
(0.00097099474 0 0.0017569179)
(0.0008723659 0 0.0024636039)
(0.0007776387 0 0.0031314371)
(0.00068782988 0 0.0037413055)
(0.00060376993 0 0.0042774544)
(0.00052603071 0 0.0047280349)
(0.00045492357 0 0.0050844925)
(0.00039046854 0 0.005340598)
(0.00033245623 0 0.0054919579)
(0.00028054493 0 0.0055335566)
(0.00023424201 0 0.0054564954)
(0.00019293942 0 0.0052495335)
(0.00015594792 0 0.0048986572)
(0.0001224668 0 0.0043840002)
(9.1502652e-05 0 0.0036762906)
(6.1791857e-05 0 0.0027358067)
(3.1658939e-05 0 0.0015105499)
(0 0 0)