/*--------------------------------*- C++ -*----------------------------------*\
  =========                 |
  \\      /  F ield         | OpenFOAM: The Open Source CFD Toolbox
   \\    /   O peration     | Website:  https://openfoam.org
    \\  /    A nd           | Version:  8
     \\/     M anipulation  |
\*---------------------------------------------------------------------------*/
FoamFile
{
    version     2.0;
    format      ascii;
    class       volScalarField;
    location    "0.120004";
    object      rho;
}
// * * * * * * * * * * * * * * * * * * * * * * * * * * * * * * * * * * * * * //

dimensions      [1 -3 0 0 0 0 0];

internalField   nonuniform List<scalar> 
20000
(
0.72234862
0.72373673
0.72610013
0.73061008
0.73922187
0.75544989
0.77954023
0.7863402
0.78511734
0.78710541
0.78694659
0.78909017
0.78992419
0.7926168
0.79454978
0.79815725
0.80149504
0.80654251
0.81185631
0.81909349
0.827275
0.83776233
0.85003178
0.86514017
0.88289305
0.9039376
0.92800264
0.95487221
0.98346833
1.0124176
1.0399595
1.0646671
1.0857498
1.1031609
1.1171807
1.1283281
1.1370136
1.1437851
1.1490684
1.1532306
1.1564394
1.1589229
1.1607908
1.1621878
1.1635378
1.165612
1.1677038
1.1685953
1.1688447
1.1700518
0.72383268
0.7251978
0.72761165
0.73227332
0.74124245
0.75836462
0.78168618
0.78764655
0.78638043
0.78842801
0.78826546
0.790483
0.79137006
0.79416746
0.79618008
0.79992325
0.80338925
0.80861434
0.81411929
0.82158891
0.83003316
0.84081812
0.85342178
0.86887501
0.88696959
0.9082782
0.93244378
0.95912878
0.98722629
1.0154425
1.0422037
1.0662563
1.086873
1.1039611
1.1177586
1.1287403
1.1373038
1.1439923
1.1492299
1.1533587
1.1565434
1.1590137
1.1608627
1.162228
1.1636142
1.1658734
1.1676949
1.1686312
1.168871
1.1700483
0.72517021
0.72650003
0.72895813
0.73376863
0.74312478
0.76128531
0.78373631
0.78891426
0.7877165
0.78985991
0.78971749
0.79203335
0.7929692
0.7958669
0.79796588
0.80183966
0.805439
0.81084096
0.81654395
0.8242567
0.83298212
0.84408879
0.85705634
0.87289438
0.89137652
0.91300327
0.9373287
0.96388627
0.99151127
1.0189717
1.0448937
1.0681961
1.0882274
1.1048964
1.1184009
1.1291773
1.1376021
1.1441971
1.1493792
1.1534696
1.1566288
1.1590853
1.1609165
1.1622562
1.163705
1.1661615
1.1678623
1.1686516
1.1690621
1.1699595
0.72673852
0.72806211
0.73057638
0.73554125
0.74527825
0.76454717
0.78588894
0.79047299
0.7892275
0.79144397
0.791318
0.79371504
0.79470181
0.79770331
0.79989045
0.80390047
0.80763762
0.81322357
0.81913251
0.8270948
0.83610819
0.84754526
0.86089002
0.87713166
0.89602757
0.91800834
0.94253716
0.96902805
0.99626123
1.0230418
1.0481424
1.0706503
1.0900207
1.1061842
1.1193175
1.1298224
1.1380532
1.1445154
1.1496137
1.1536447
1.1567631
1.1591941
1.160995
1.1623083
1.1638698
1.1663778
1.1679178
1.1687006
1.169126
1.1699301
0.72835629
0.72966202
0.73223693
0.73736902
0.74750338
0.76796406
0.78801376
0.79207801
0.79085053
0.79314148
0.79304814
0.79553048
0.79657406
0.79968191
0.80196323
0.80611328
0.80999689
0.81577456
0.82190091
0.83012511
0.83944449
0.85123306
0.86498142
0.88165579
0.90099627
0.92335776
0.9481095
0.97454592
1.0013943
1.0274964
1.0517625
1.0734366
1.0920846
1.107679
1.1203846
1.130575
1.1385812
1.1448883
1.149885
1.1538442
1.1569137
1.1593125
1.1610752
1.1623714
1.164094
1.166563
1.1680092
1.1687469
1.1691956
1.1698967
0.73017211
0.73145063
0.73408516
0.7393945
0.74993653
0.77161692
0.7901931
0.79384235
0.79261387
0.79497487
0.79490902
0.79747552
0.79857762
0.80179433
0.80417489
0.80847127
0.81250985
0.81848851
0.82484443
0.83334294
0.84298483
0.85514451
0.86932053
0.88645379
0.90626567
0.92902921
0.95401499
0.98040267
1.006875
1.0323093
1.0557377
1.0765516
1.0944324
1.1094046
1.1216313
1.1314636
1.1392099
1.1453355
1.1502107
1.1540833
1.1570934
1.1594507
1.1611641
1.1624526
1.1643582
1.1667277
1.1680883
1.1687923
1.1692271
1.1698727
0.73206259
0.73331914
0.73601999
0.74152639
0.75250839
0.77542053
0.79237369
0.79569822
0.79448297
0.7969175
0.79688638
0.79954059
0.80070723
0.804037
0.80652382
0.81097298
0.81517647
0.82136519
0.82796242
0.83674891
0.84673311
0.85928699
0.87391768
0.89153771
0.91184635
0.93502606
0.96024372
0.98656806
1.012648
1.037403
1.0599831
1.0799166
1.0969975
1.1113087
1.1230178
1.1324586
1.1399184
1.1458418
1.1505791
1.154353
1.1572954
1.1596022
1.1612572
1.1625485
1.1646406
1.1668939
1.1681756
1.1688334
1.1692484
1.1698501
0.73406232
0.73531705
0.7380845
0.74380615
0.75526247
0.77936151
0.79458169
0.79766972
0.79646763
0.79897503
0.79898047
0.80172364
0.80295908
0.80640583
0.80900571
0.81361461
0.81799211
0.82439985
0.83125152
0.84034149
0.85068925
0.86366108
0.87877335
0.89690714
0.9177349
0.94133881
0.96677724
0.99301441
1.0186782
1.0427379
1.0644576
1.0834951
1.0997526
1.1133733
1.1245338
1.1335547
1.140704
1.1464062
1.1509904
1.1546542
1.1575206
1.1597675
1.1613556
1.1626609
1.1649321
1.167062
1.1682618
1.1688717
1.1692589
1.1698292
0.73615057
0.73739565
0.74022585
0.74618671
0.75817934
0.78337969
0.7968115
0.79973585
0.79855371
0.80113696
0.80118455
0.80401949
0.80532944
0.80889795
0.81161862
0.81639393
0.82095468
0.82759061
0.83471028
0.84412065
0.85485468
0.86826923
0.88389055
0.90256456
0.9239303
0.94795884
0.97359633
0.99971075
1.024923
1.0482626
1.0691075
1.0872371
1.1026557
1.1155661
1.1261558
1.1347352
1.1415553
1.147021
1.151439
1.1549831
1.1577664
1.1599447
1.1614598
1.162793
1.1652259
1.1672315
1.1683489
1.1689081
1.1692651
1.1698081
0.73836831
0.73959069
0.74248604
0.74870277
0.76130738
0.78745481
0.7990856
0.80190801
0.80074644
0.8034045
0.80349745
0.80642607
0.80781614
0.81151141
0.81436019
0.81930812
0.82406073
0.83093506
0.83833923
0.8480894
0.85923383
0.87311651
0.88927448
0.90851418
0.93043263
0.9548785
0.98068383
1.0066311
1.0313495
1.0539398
1.0738939
1.0911061
1.105676
1.1178634
1.1278665
1.1359883
1.1424643
1.1476807
1.1519217
1.1553377
1.1580312
1.1601328
1.1615732
1.1629518
1.165516
1.1673987
1.1684341
1.1689427
1.1692692
1.1697862
0.74066346
0.74186764
0.74482882
0.75132155
0.7646424
0.79150381
0.80138973
0.80417225
0.80303551
0.80577032
0.80591455
0.80894067
0.81041736
0.81424423
0.81722786
0.82235421
0.82730863
0.83443355
0.84214004
0.85225038
0.86382987
0.8782064
0.89492863
0.91475799
0.93723882
0.96208608
0.98801809
1.0137449
1.0379211
1.059729
1.0787758
1.0950639
1.1087809
1.1202391
1.1296466
1.1372999
1.1434212
1.1483786
1.1524338
1.1557147
1.1583126
1.16033
1.1616997
1.1631467
1.1657967
1.1675612
1.1685164
1.1689753
1.1692725
1.1697628
0.74303834
0.74422807
0.74726217
0.75404811
0.76821301
0.79554034
0.80372658
0.8065289
0.80542297
0.80823616
0.80843647
0.81156298
0.81313171
0.81709391
0.82021828
0.82552958
0.83069755
0.83808783
0.84611706
0.85660939
0.86864944
0.88354635
0.90086074
0.92130179
0.94434878
0.96957233
0.99558032
1.0210263
1.044607
1.0655975
1.0837202
1.0990795
1.1119432
1.1226714
1.1314794
1.1386577
1.1444172
1.1491086
1.1529711
1.1561112
1.1586083
1.1605349
1.161843
1.1633876
1.1660614
1.1677174
1.1685949
1.1690044
1.169271
1.1697371
0.74556752
0.74670495
0.7498134
0.75690116
0.77204448
0.79957887
0.80610142
0.80897955
0.80790702
0.81079931
0.81106098
0.81429051
0.81595589
0.82005657
0.82332833
0.82883359
0.83422992
0.84190231
0.85027481
0.8611709
0.87369734
0.88914177
0.90707617
0.92814814
0.95175786
0.97732273
1.0033467
1.0284448
1.0513737
1.0715108
1.0886937
1.1031222
1.1151366
1.1251388
1.1333481
1.1400493
1.1454432
1.149864
1.1535291
1.1565241
1.1589158
1.1607461
1.1620057
1.1636778
1.1663069
1.1678675
1.1686699
1.1690285
1.1692641
1.169709
0.74815188
0.74924981
0.75243301
0.75982622
0.77608932
0.80356337
0.80853372
0.81151924
0.81048569
0.8134583
0.81378548
0.81711945
0.8188855
0.82312866
0.82655743
0.83226856
0.83791023
0.84588205
0.85461927
0.86594187
0.87898168
0.89500198
0.91358418
0.93530279
0.9594636
0.98532445
1.0112954
1.0359733
1.058192
1.07744
1.0936689
1.1071667
1.1183386
1.1276226
1.135238
1.1414634
1.1464907
1.1506389
1.1541035
1.1569502
1.1592322
1.1609619
1.1621884
1.164003
1.1665415
1.1680133
1.168741
1.1690488
1.1692531
1.1696788
0.75080575
0.75188206
0.75515022
0.76285322
0.78038262
0.80751242
0.81113605
0.8141486
0.81315828
0.81621019
0.81660497
0.82004435
0.82191661
0.82631012
0.8299088
0.83584027
0.84174425
0.85003255
0.8591556
0.87092802
0.88450923
0.90113469
0.92039167
0.94276761
0.96745843
0.99355909
1.0193998
1.0435809
1.0650308
1.0833556
1.0986182
1.1111883
1.1215281
1.1301052
1.137135
1.142889
1.1475516
1.151427
1.1546901
1.1573865
1.1595547
1.1611803
1.1623896
1.1643474
1.1667742
1.1681557
1.1688097
1.1690672
1.1692397
1.1696474
0.75356083
0.75462677
0.75798484
0.76599853
0.78491727
0.81140178
0.81378333
0.81685929
0.81591543
0.8190466
0.8195129
0.82306194
0.82505074
0.82960593
0.83338935
0.83955458
0.8457374
0.85435909
0.86389043
0.87613802
0.89029047
0.9075515
0.92750867
0.95054638
0.97573555
1.0020091
1.0276348
1.0512397
1.0718627
1.0892321
1.1035188
1.1151665
1.1246871
1.1325718
1.139027
1.1443166
1.1486184
1.1522227
1.1552847
1.15783
1.1598806
1.1613991
1.162607
1.1647063
1.1670056
1.1682929
1.168876
1.1690835
1.1692257
1.1696155
0.75636338
0.75743804
0.76091048
0.76924443
0.78964794
0.81521107
0.81651433
0.81964289
0.81874866
0.82196308
0.82250961
0.82617737
0.82829539
0.83302443
0.8370054
0.84341686
0.84989399
0.85886651
0.86883011
0.88157995
0.89633491
0.91426226
0.93494236
0.95863833
0.98428253
1.0106511
1.0359707
1.0589189
1.0786587
1.0950437
1.108348
1.1190817
1.1277989
1.1350084
1.1409027
1.145737
1.149684
1.1530207
1.1558833
1.1582775
1.1602073
1.1616173
1.162839
1.1650786
1.1672336
1.1684216
1.1689369
1.1690976
1.1692118
1.1695834
0.75925282
0.76035058
0.7639644
0.77262786
0.79456702
0.81892558
0.81931036
0.82250454
0.82166339
0.82496611
0.82560458
0.82940154
0.83166027
0.83657168
0.84076101
0.84742978
0.8542182
0.86356125
0.8739837
0.8872652
0.90265534
0.92127993
0.9427019
0.96704332
0.99308675
1.0194621
1.0443794
1.0665903
1.0853933
1.1007686
1.1130872
1.1229177
1.1308501
1.1374037
1.1427525
1.1471424
1.1507422
1.153816
1.1564823
1.1587261
1.1605322
1.1618351
1.1630872
1.165461
1.1674566
1.1685383
1.1689896
1.1691104
1.1691986
1.1695513
0.76216985
0.7633083
0.76710106
0.77612698
0.79960707
0.82252259
0.82216915
0.82544431
0.824669
0.82806983
0.82881085
0.8327438
0.83514925
0.84024916
0.8446572
0.85159687
0.8587153
0.8684506
0.87936056
0.89320455
0.90926338
0.92861549
0.95079286
0.97575581
1.0021296
1.0284139
1.0528292
1.0742233
1.0920399
1.1063844
1.1177179
1.1266595
1.1338279
1.1397472
1.1445676
1.1485255
1.151787
1.1546041
1.1570781
1.1591726
1.1608529
1.1620542
1.1633566
1.1658442
1.1676732
1.1686425
1.1690321
1.1691213
1.1691865
1.1695188
0.76515462
0.76635216
0.77036394
0.77980962
0.80476813
0.82604356
0.82511762
0.82848849
0.8277876
0.8312886
0.83213393
0.83620311
0.83876008
0.84405618
0.84869673
0.85592253
0.8633922
0.87354422
0.88497274
0.8994116
0.91617356
0.93628229
0.95922166
0.98476947
1.0113915
1.0374785
1.0612899
1.0817904
1.0985753
1.1118725
1.1222254
1.1302952
1.1367225
1.1420306
1.1463409
1.14988
1.1528132
1.155381
1.1576676
1.1596143
1.1611675
1.1622784
1.1636559
1.1662131
1.1678811
1.1687393
1.1690652
1.1691273
1.1691744
1.1694859
0.76824343
0.76950976
0.77378404
0.78374028
0.81002633
0.82952036
0.82817363
0.83164105
0.83101424
0.8346138
0.83556383
0.83977259
0.84249078
0.84799561
0.85288468
0.86041382
0.86825741
0.87885257
0.89083235
0.90589942
0.92339949
0.94429141
0.96799013
0.99407196
1.0208468
1.0466234
1.0697286
1.0892622
1.1049755
1.1172142
1.1265953
1.1338137
1.1395252
1.1442463
1.1480659
1.1512006
1.1538163
1.1561433
1.1582479
1.1600483
1.1614746
1.1625117
1.1639956
1.1665484
1.168076
1.1688324
1.169096
1.1691327
1.1691602
1.1694523
0.77140137
0.7727467
0.77733342
0.78793538
0.81532877
0.83298994
0.83134223
0.83489987
0.83433108
0.83803021
0.83909273
0.84345294
0.84634671
0.85207441
0.85722805
0.86507808
0.87332084
0.88438823
0.89695359
0.91268351
0.93095717
0.95265501
0.97709921
1.003649
1.0304691
1.0558163
1.0781139
1.0966122
1.1112199
1.1223944
1.1308168
1.1372068
1.1422294
1.1463887
1.1497376
1.1524828
1.1547924
1.1568876
1.1588168
1.1604722
1.161773
1.1627568
1.1643784
1.1668367
1.1682523
1.1689215
1.1691295
1.1691371
1.1691437
1.1694183
0.77463869
0.77606068
0.78099565
0.7924093
0.82060133
0.8365319
0.83457568
0.83822929
0.8377353
0.84154166
0.84273026
0.84725395
0.85033651
0.85629917
0.86173351
0.86992426
0.87859413
0.89016455
0.90335055
0.91977899
0.93886148
0.96138203
0.98654426
1.0134798
1.0402258
1.0650208
1.0864117
1.1038123
1.1172879
1.127399
1.1348795
1.140467
1.1448291
1.1484527
1.1513516
1.1537229
1.155738
1.1576113
1.1593719
1.1608837
1.1620617
1.1630134
1.1647724
1.1670967
1.1684066
1.1690057
1.169174
1.1691404
1.169125
1.1693842
0.77787638
0.7793748
0.78469822
0.79714129
0.82575873
0.83989987
0.83787852
0.84164528
0.84122965
0.84516869
0.84648952
0.85118538
0.85446468
0.86067467
0.86640806
0.87496278
0.88409063
0.89619628
0.91003901
0.92720316
0.94712879
0.97048082
0.99631824
1.023541
1.0500832
1.0742008
1.0945896
1.1108371
1.1231625
1.1322179
1.1387769
1.1435889
1.1473201
1.1504351
1.1529052
1.1549178
1.1566509
1.1583118
1.1599113
1.161281
1.1623397
1.1632794
1.1651663
1.1673356
1.1685401
1.1690772
1.1692258
1.1691333
1.1691041
1.1693506
0.78124734
0.7828158
0.78854197
0.80225464
0.83087064
0.84335496
0.8412879
0.84516841
0.84483322
0.84891155
0.85037457
0.85524801
0.85873468
0.86520653
0.8712621
0.88020702
0.88982503
0.90249831
0.91703498
0.9349734
0.95577381
0.97995523
1.0064072
1.0338023
1.0600019
1.0833162
1.1026131
1.1176609
1.1288277
1.1368423
1.1425034
1.1465676
1.1496984
1.1523341
1.1543963
1.1560642
1.157529
1.1589874
1.1604331
1.1616621
1.1626059
1.1635515
1.1655525
1.1675587
1.1686567
1.1691347
1.1692646
1.1691228
1.1690827
1.1693172
0.78469181
0.78632065
0.79245812
0.80770272
0.83585665
0.84677363
0.84479158
0.84879358
0.84855244
0.85276606
0.85437774
0.85944319
0.86315181
0.86990538
0.87630846
0.88567111
0.89581206
0.90908648
0.92435653
0.94310941
0.96481178
0.98980663
1.0167933
1.0442301
1.0699411
1.0923281
1.1104502
1.1242631
1.134273
1.1412667
1.1460563
1.1494004
1.1519625
1.1541504
1.1558242
1.1571592
1.1583702
1.1596366
1.1609355
1.1620255
1.16286
1.1638283
1.1659273
1.1677657
1.1687587
1.1691786
1.1692836
1.1691111
1.1690618
1.1692836
0.78819875
0.78988253
0.79644809
0.81349422
0.8407297
0.85043998
0.84840349
0.85253152
0.85238702
0.85674878
0.85850325
0.86377596
0.86772659
0.87478491
0.88156208
0.89136969
0.90206643
0.91597705
0.93202274
0.95163079
0.97425489
1.00003
1.0274512
1.0547843
1.0798558
1.101195
1.1180705
1.1306277
1.1394912
1.1454844
1.1494318
1.1520863
1.1541133
1.1558851
1.1571874
1.1582005
1.1591712
1.1602587
1.1614171
1.16237
1.1631035
1.1641111
1.1662862
1.1679538
1.1688446
1.1692124
1.1692941
1.1691006
1.169041
1.1692496
0.79182661
0.79355605
0.80054827
0.81962434
0.84548719
0.85414683
0.85211674
0.85637929
0.8563376
0.86085865
0.8627655
0.86825884
0.8724738
0.87985934
0.88703704
0.89731644
0.90860364
0.92318875
0.94005555
0.96055877
0.98411369
1.0106159
1.0383505
1.0654215
1.0897007
1.1098789
1.1254522
1.1367497
1.1444799
1.1494883
1.1526245
1.1546273
1.1561564
1.1575386
1.158483
1.1591885
1.1599284
1.1608532
1.1618767
1.1626954
1.1633418
1.1644082
1.1666213
1.1681201
1.1689134
1.1692369
1.1693011
1.16909
1.1690194
1.1692149
0.79550647
0.79728779
0.80473235
0.826027
0.85014556
0.85794466
0.85593359
0.86033698
0.86041104
0.86509541
0.86718141
0.87291533
0.87740712
0.88514149
0.89274533
0.90352523
0.91544061
0.93074227
0.948478
0.96991271
0.99439294
1.0215468
1.0494528
1.0760927
1.0994275
1.1183447
1.1325836
1.1426302
1.1492343
1.1532692
1.1556261
1.1570265
1.1580996
1.1591068
1.1597058
1.1601271
1.16064
1.1614193
1.1623137
1.1630025
1.1635839
1.1647352
1.1669222
1.1682646
1.1689656
1.1692491
1.1693058
1.1690774
1.1689965
1.1691793
0.79929179
0.8011325
0.80907305
0.83271445
0.85468773
0.86184431
0.85987167
0.86442232
0.86461592
0.86947323
0.8717468
0.87775288
0.88253951
0.89064215
0.89869921
0.91001114
0.92259765
0.93866214
0.9573156
0.97971126
1.005093
1.0327988
1.060715
1.0867466
1.1089911
1.1265683
1.1394656
1.148268
1.1537392
1.1568233
1.158433
1.1592874
1.1599469
1.1605807
1.1608532
1.1610208
1.1613108
1.1619552
1.162728
1.1632933
1.1638391
1.1651044
1.167182
1.1683895
1.1690069
1.1692552
1.1693086
1.1690621
1.1689718
1.1691427
0.803178
0.8050879
0.81358678
0.83961057
0.8591655
0.86585916
0.86393632
0.86863911
0.86895718
0.87399884
0.87648137
0.88277311
0.88788109
0.89637292
0.90491235
0.91679255
0.93009833
0.94697486
0.96659356
0.98996884
1.0162058
1.0443385
1.0720857
1.0973279
1.1183496
1.1345366
1.1460994
1.1536321
1.157976
1.1601455
1.1610598
1.1614115
1.1616843
1.1619597
1.1619287
1.1618658
1.1619546
1.1624582
1.1631195
1.16357
1.1641126
1.1655002
1.1674142
1.1685001
1.1690432
1.1692582
1.169304
1.1690436
1.1689452
1.1691048
0.80718313
0.80916495
0.81831476
0.84666142
0.86358506
0.86999033
0.86812803
0.87299142
0.87344421
0.878688
0.88140152
0.88798456
0.89344097
0.90234565
0.91140197
0.92389225
0.93797001
0.95570971
0.97633711
1.000696
1.0277166
1.0561254
1.0835094
1.1077839
1.1274724
1.1422508
1.1524617
1.1586932
1.1619273
1.16324
1.1635281
1.1634017
1.1632982
1.163274
1.1629331
1.1626386
1.1625864
1.1629274
1.1634878
1.1638348
1.1644063
1.1659027
1.1676339
1.1685994
1.1690735
1.1692603
1.1692924
1.1690222
1.1689165
1.1690655
0.81129825
0.8133422
0.8232757
0.85377349
0.86795804
0.87423892
0.87245176
0.87748928
0.87809444
0.88355605
0.8865166
0.89340902
0.89922482
0.90857482
0.91819064
0.93133731
0.94624246
0.96489642
0.98656871
1.0118958
1.0395999
1.0681088
1.0949248
1.118064
1.1363408
1.1497087
1.1585017
1.1634228
1.1655825
1.1661259
1.1658565
1.165265
1.1648155
1.1645028
1.1638676
1.1633529
1.1631934
1.1633669
1.163832
1.1640891
1.1647038
1.1663008
1.1678445
1.1686905
1.1690958
1.1692544
1.1692767
1.1689982
1.1688859
1.1690246
0.81553126
0.81762136
0.8285103
0.86083074
0.87236135
0.8786287
0.87693018
0.88215253
0.8829261
0.88861495
0.89183654
0.89905396
0.90524465
0.91507975
0.92530678
0.93915837
0.95494726
0.97456513
0.99730787
1.023564
1.0518213
1.0802317
1.1062708
1.128128
1.1449507
1.1568694
1.1641819
1.1677953
1.1689704
1.1688594
1.1680196
1.1670049
1.1662362
1.165654
1.1647336
1.1640162
1.1637596
1.1637882
1.1641505
1.1643342
1.1650085
1.1666836
1.1680451
1.1687776
1.1691142
1.1692434
1.169259
1.1689719
1.1688532
1.1689819
0.81993557
0.8220422
0.83408796
0.86785177
0.87692516
0.88318343
0.88157784
0.88699133
0.88794131
0.89386441
0.89736164
0.90492283
0.91153281
0.92188801
0.93278229
0.94738779
0.96411652
0.98474437
1.0085682
1.0356861
1.0643345
1.0924287
1.1174872
1.1379461
1.1532971
1.1636685
1.1694632
1.1718133
1.1721749
1.1713972
1.1700313
1.1686253
1.1675683
1.1667271
1.1655389
1.1646356
1.1642646
1.1642032
1.164444
1.1645745
1.1653221
1.1670377
1.1682302
1.1688606
1.1691347
1.1692314
1.1692399
1.1689429
1.1688184
1.1689375
0.82454993
0.82663031
0.84004917
0.8748779
0.88156764
0.88790114
0.88638924
0.89200134
0.89313163
0.89931373
0.90310479
0.91103411
0.91811965
0.92903194
0.9406495
0.9560591
0.9737832
0.99546134
1.020357
1.0482377
1.0770845
1.1046317
1.1285222
1.1475033
1.1613356
1.1700535
1.1743246
1.1755588
1.1751746
1.1737523
1.1718936
1.1701329
1.1688148
1.1677265
1.1662866
1.1652091
1.1647238
1.1645995
1.1647176
1.1648167
1.1656557
1.1673493
1.1683908
1.1689332
1.1691594
1.1692258
1.1692163
1.1689109
1.1687821
1.1688914
0.82935589
0.8313647
0.84637592
0.8818222
0.88633424
0.8927753
0.89136489
0.8971865
0.89851456
0.90496947
0.9090873
0.91742153
0.92503115
0.93654627
0.94894234
0.96520635
0.98398021
1.0067397
1.0326718
1.0611806
1.090005
1.1167708
1.1393321
1.1567909
1.1689878
1.1759803
1.1787817
1.1791008
1.177949
1.1759265
1.1736154
1.1715335
1.1699801
1.1686549
1.1669785
1.1657355
1.1651438
1.1649674
1.1649816
1.1650665
1.1660154
1.1676097
1.1685242
1.1689897
1.1691775
1.1692247
1.1691838
1.1688771
1.1687444
1.1688436
0.83435923
0.83624449
0.85305852
0.88868668
0.89122651
0.89781429
0.89651469
0.90255791
0.90410452
0.91085936
0.91534179
0.92411902
0.93230297
0.94446402
0.95769517
0.97486484
0.99474019
1.0185985
1.0455
1.0744653
1.1030239
1.1287815
1.1498871
1.1657767
1.1761778
1.181423
1.1829376
1.1824002
1.1805111
1.1779296
1.1752034
1.1728338
1.1710686
1.1695161
1.1676161
1.1662198
1.1655304
1.165294
1.1652465
1.1653274
1.166383
1.1678276
1.1686329
1.1690314
1.1691879
1.1692259
1.1691475
1.1688431
1.1687058
1.1687946
0.83959812
0.84130195
0.86009288
0.89544671
0.89626624
0.90303192
0.90185488
0.90813865
0.9099289
0.91701744
0.92190701
0.93116258
0.93996673
0.95281729
0.96694326
0.98507179
1.0060939
1.0310483
1.0588153
1.0880285
1.1160627
1.1406067
1.1601679
1.1743688
1.1828583
1.1863993
1.1868569
1.1854416
1.1828664
1.1797695
1.1766657
1.17404
1.1720845
1.1703128
1.168201
1.1666638
1.1658863
1.1655886
1.1655077
1.1655955
1.1667368
1.1680162
1.1687227
1.169063
1.1691933
1.1692272
1.1691097
1.1688083
1.1686664
1.1687445
0.84509585
0.84658312
0.86747018
0.90209627
0.90146068
0.90844428
0.90741225
0.91396593
0.91602778
0.92348215
0.9288197
0.93858393
0.94805275
0.96163939
0.9767246
0.99586649
1.0180698
1.0440895
1.0725771
1.1017969
1.1290451
1.1522
1.1701553
1.1824676
1.1889935
1.1910176
1.1905025
1.1882379
1.1850263
1.1814557
1.1780102
1.1751586
1.1730323
1.1710479
1.1687345
1.167067
1.1662094
1.1658626
1.1657624
1.1658632
1.1670583
1.1681789
1.1687973
1.1690907
1.1691963
1.1692256
1.1690704
1.1687724
1.1686265
1.1686938
0.85082797
0.85210964
0.8751429
0.90863856
0.90684415
0.91408636
0.91323042
0.92007726
0.92244848
0.93028688
0.9361066
0.94641066
0.95659478
0.97096912
0.98707966
1.0072884
1.0306911
1.0577095
1.0867284
1.1156862
1.1418978
1.1635238
1.1797597
1.1900105
1.1945842
1.1953684
1.1938497
1.1907978
1.1870005
1.1829972
1.1792445
1.1761959
1.1739161
1.1717236
1.1692168
1.1674305
1.1665043
1.1661202
1.1660077
1.1661254
1.1673471
1.1683187
1.1688538
1.1691051
1.1691984
1.1692194
1.1690287
1.1687358
1.1685865
1.1686424
0.85685545
0.85797637
0.88310205
0.91514189
0.91248477
0.92002038
0.91935767
0.92651018
0.92920775
0.93744766
0.94378793
0.95467059
0.9656395
0.9808506
0.99805042
1.0193756
1.0439723
1.071881
1.1011984
1.1296092
1.1545574
1.1745511
1.1888698
1.1969526
1.1997414
1.1994115
1.1969161
1.1931345
1.1888005
1.1844035
1.1803769
1.1771579
1.1747399
1.1723416
1.169649
1.167757
1.1667749
1.1663639
1.1662429
1.1663808
1.1676023
1.168439
1.1688982
1.1691116
1.1691912
1.1692075
1.168986
1.1686975
1.1685481
1.1685905
0.86319363
0.86426425
0.89133225
0.92171826
0.91843696
0.92627171
0.92580566
0.93326752
0.93631189
0.94498165
0.95189371
0.96340135
0.97523525
0.99133298
1.0096798
1.0321616
1.057915
1.0865574
1.1159023
1.1434783
1.1669671
1.1852237
1.1973794
1.2032701
1.204577
1.2031214
1.1997114
1.1952603
1.1904372
1.1856837
1.1814148
1.1780504
1.1755073
1.172903
1.1700324
1.1680498
1.1670246
1.1665952
1.1664685
1.1666317
1.1678245
1.1685418
1.1689337
1.1691138
1.1691808
1.1691916
1.1689434
1.1686587
1.1685113
1.1685378
0.86989638
0.87108087
0.89981642
0.92857329
0.92466915
0.93280833
0.93253868
0.94035583
0.94379153
0.95292729
0.9604711
0.97265773
0.98542359
1.0024635
1.0220125
1.0456743
1.0725054
1.101674
1.1307455
1.1572135
1.1790832
1.1954145
1.2052385
1.2090594
1.2090752
1.2065061
1.2022516
1.197189
1.1919218
1.1868472
1.1823659
1.1788792
1.1762221
1.1734095
1.170369
1.1683122
1.1672563
1.1668162
1.1666861
1.1668867
1.1680123
1.168628
1.1689618
1.1691147
1.1691674
1.1691724
1.1689002
1.1686201
1.1684764
1.1684841
0.87674084
0.87830885
0.90835228
0.93565153
0.93114033
0.93962548
0.9396059
0.94780119
0.9516918
0.96133256
0.96957083
0.98249406
0.99624584
1.0142929
1.035093
1.0599315
1.0877102
1.1171465
1.1456265
1.1707395
1.1908623
1.2049884
1.2124026
1.2144399
1.2132077
1.2095804
1.2045514
1.1989337
1.193265
1.1879028
1.1832374
1.1796497
1.1768886
1.173863
1.1706601
1.1685468
1.1674723
1.1670303
1.1668986
1.1671489
1.1681666
1.168699
1.1689803
1.169107
1.1691499
1.1691497
1.1688569
1.1685825
1.168443
1.1684303
0.88388345
0.88613569
0.917035
0.94260565
0.93795054
0.94681581
0.94706959
0.95567099
0.96006603
0.97024405
0.97923514
0.99295268
1.0077598
1.0268751
1.0489632
1.0749363
1.1034748
1.1328762
1.1604467
1.1839881
1.2021902
1.2138645
1.2189208
1.2194593
1.216964
1.212362
1.2066274
1.200508
1.1944779
1.1888594
1.1840367
1.1803675
1.1775108
1.1742657
1.1709074
1.1687566
1.1676748
1.1672371
1.1671089
1.1674111
1.1683017
1.1687592
1.1689933
1.1690947
1.1691281
1.1691226
1.1688141
1.1685465
1.1684105
1.1683781
0.89127929
0.89456002
0.92584772
0.94982152
0.94514351
0.95440964
0.95499096
0.96401658
0.96895913
0.97970506
0.9895141
1.0040784
1.0200187
1.0402695
1.0636567
1.0906701
1.1197206
1.148752
1.1751125
1.196901
1.2129147
1.2219855
1.2249205
1.2240776
1.2203662
1.2148684
1.2084954
1.2019249
1.1955707
1.1897254
1.1847704
1.1810375
1.1780917
1.174616
1.1711161
1.1689451
1.167867
1.1674398
1.1673183
1.1676558
1.1684206
1.1688113
1.1690054
1.1690835
1.1691057
1.1690887
1.1687714
1.1685124
1.1683787
1.1683288
0.89902749
0.90367845
0.93488761
0.95738079
0.95278577
0.96247081
0.96339597
0.97286461
0.97840784
0.98976834
1.0004764
1.0159178
1.0330886
1.0545358
1.0791923
1.1070883
1.1363468
1.1646583
1.1895362
1.209402
1.222893
1.2293416
1.2305253
1.2282623
1.2234322
1.2171194
1.2101717
1.2031973
1.1965537
1.1905092
1.1854453
1.1816645
1.1786314
1.1749059
1.1712982
1.1691175
1.1680516
1.1676378
1.1675249
1.1678759
1.168525
1.1688551
1.1690159
1.1690771
1.1690954
1.1690408
1.1687294
1.1684802
1.1683478
1.1682821
0.9071269
0.91359867
0.94415616
0.96552993
0.96086321
0.97100088
0.9723097
0.98224382
0.98845717
1.0004876
1.0121663
1.028579
1.047049
1.0697234
1.0955638
1.1241164
1.1532331
1.1804795
1.2036336
1.2213158
1.2320608
1.2360641
1.2356828
1.2320428
1.2261836
1.2191338
1.211672
1.2043376
1.1974364
1.1912185
1.1860679
1.1822522
1.1791275
1.175126
1.1714689
1.1692789
1.1682304
1.1678315
1.1677269
1.1680721
1.1686153
1.1688905
1.169023
1.1690717
1.1690877
1.1689909
1.1686887
1.1684498
1.1683176
1.1682383
0.91552132
0.92431463
0.95362152
0.97397854
0.96940225
0.98000641
0.98176998
0.99220827
0.99917565
1.0119446
1.0246872
1.0421526
1.0619715
1.0858614
1.1127353
1.1416522
1.1702471
1.1961052
1.2173275
1.2324704
1.2403652
1.2423036
1.2403635
1.2354378
1.2286432
1.2209316
1.213012
1.2053578
1.1982284
1.1918612
1.1866442
1.1828036
1.1795779
1.1752942
1.1716236
1.1694331
1.1684041
1.1680193
1.1679223
1.1682451
1.168693
1.1689185
1.1690266
1.1690654
1.1690788
1.1689419
1.1686496
1.1684209
1.1682881
1.1681971
0.92409332
0.93586263
0.96336189
0.98290535
0.97846624
0.98955867
0.99185294
1.0028392
1.0106509
1.0242324
1.0381568
1.0567319
1.0779104
1.1029506
1.1306372
1.1595675
1.1872511
1.2114238
1.2304645
1.2427521
1.2479061
1.2480565
1.2445758
1.2384733
1.2308334
1.2225312
1.2142061
1.2062691
1.1989386
1.1924445
1.1871798
1.1833209
1.1799814
1.1754193
1.1717656
1.1695823
1.1685727
1.1682
1.1681093
1.168397
1.1687613
1.1689423
1.1690284
1.1690579
1.1690676
1.1688947
1.1686119
1.1683932
1.1682591
1.1681584
0.93282728
0.94818164
0.97344082
0.99238158
0.98813922
0.99973766
1.0026523
1.0142403
1.0229979
1.0374755
1.0526711
1.0723881
1.0948951
1.1209599
1.1491671
1.1777155
1.2041113
1.2263343
1.242845
1.2520933
1.2548387
1.2532863
1.2483481
1.2411753
1.2327777
1.2239515
1.215269
1.2070827
1.1995756
1.1929756
1.1876795
1.1838056
1.1803392
1.1755113
1.1718968
1.1697281
1.1687356
1.1683696
1.1682867
1.168529
1.1688206
1.1689634
1.1690294
1.1690496
1.1690546
1.1688459
1.1685754
1.1683665
1.1682306
1.168122
0.94197231
0.96132337
0.9838072
1.0024706
0.99853078
1.0106499
1.0142881
1.0265358
1.0363451
1.0517941
1.0682982
1.0891697
1.11293
1.1398243
1.1681913
1.1959373
1.2206939
1.2407146
1.2542888
1.2605244
1.2612448
1.2579761
1.2517079
1.2435705
1.2344982
1.22521
1.216214
1.2078087
1.2001476
1.193461
1.1881479
1.184259
1.180653
1.175578
1.1720193
1.1698709
1.1688947
1.1685301
1.1684545
1.1686406
1.168867
1.1689761
1.1690246
1.1690379
1.1690383
1.1687998
1.1685402
1.1683403
1.1682026
1.1680878
0.95161511
0.9754929
0.9946947
1.0132273
1.0097608
1.0224355
1.0269016
1.0398563
1.0508031
1.067262
1.0850965
1.1071079
1.1319917
1.1594422
1.1875498
1.2140721
1.2368657
1.2543308
1.2647162
1.268212
1.2670698
1.2621653
1.2546867
1.2456867
1.2360173
1.226324
1.2170541
1.2084571
1.2006626
1.1939069
1.1885886
1.1846823
1.1809259
1.1756266
1.1721344
1.1700106
1.1690512
1.1686856
1.1686132
1.1687308
1.1689009
1.1689814
1.1690168
1.1690253
1.1690158
1.1687554
1.168506
1.1683145
1.1681751
1.168056
0.96158464
0.99097199
1.0063919
1.0248884
1.0219626
1.0352273
1.0406298
1.0543248
1.0664737
1.0839168
1.1031061
1.1262192
1.1520229
1.1796722
1.2070605
1.2319563
1.2524934
1.2669621
1.2740896
1.2753175
1.2722759
1.2658829
1.2573161
1.2475505
1.2373561
1.2273094
1.2178013
1.2090371
1.2011278
1.1943191
1.1890048
1.1850766
1.1811611
1.1756635
1.1722444
1.1701476
1.1692024
1.1688322
1.1687588
1.168805
1.1689255
1.1689825
1.1690084
1.1690161
1.1689821
1.1687124
1.1684728
1.1682889
1.1681484
1.1680265
0.97204166
1.0077008
1.0188319
1.0375894
1.0352904
1.0491451
1.0555753
1.0700182
1.0833958
1.1018431
1.1223783
1.1464966
1.1729234
1.2003358
1.2265301
1.2494205
1.2673405
1.2784873
1.2825877
1.2817673
1.276913
1.2691666
1.2596292
1.2491885
1.2385352
1.2281819
1.2184673
1.2095576
1.2015505
1.1947029
1.1893993
1.1854433
1.1813626
1.1756945
1.172353
1.170285
1.1693492
1.1689648
1.1688776
1.168874
1.1689448
1.1689822
1.169
1.1690072
1.1689407
1.1686703
1.1684403
1.1682635
1.1681226
1.1679994
0.98321854
1.0258421
1.0322565
1.0513957
1.0498473
1.0642582
1.0717842
1.0869936
1.1016501
1.1211389
1.142953
1.1678877
1.1945392
1.2212196
1.2457577
1.2662945
1.2811451
1.2888276
1.2904137
1.2875213
1.2810125
1.2720533
1.2616575
1.2506256
1.2395736
1.2289555
1.2190627
1.2100268
1.2019373
1.1950632
1.1897743
1.1857843
1.1815348
1.1757255
1.1724634
1.170425
1.1694941
1.169087
1.1689616
1.1689395
1.1689602
1.1689805
1.1689909
1.1689964
1.1688949
1.1686289
1.1684084
1.1682383
1.1680979
1.1679749
0.9953468
1.0456055
1.046892
1.0663957