/*--------------------------------*- C++ -*----------------------------------*\
  =========                 |
  \\      /  F ield         | OpenFOAM: The Open Source CFD Toolbox
   \\    /   O peration     | Website:  https://openfoam.org
    \\  /    A nd           | Version:  8
     \\/     M anipulation  |
\*---------------------------------------------------------------------------*/
FoamFile
{
    version     2.0;
    format      ascii;
    class       surfaceVectorField;
    location    "0.120004";
    object      rhoUf;
}
// * * * * * * * * * * * * * * * * * * * * * * * * * * * * * * * * * * * * * //

dimensions      [1 -2 -1 0 0 0 0];

internalField   nonuniform List<vector> 
39600
(
(198.04051 6.1902003e-17 7.6685228)
(184.55642 -9.9776153e-17 6.5366166)
(183.99013 -2.9342101e-21 7.2448368)
(224.01846 7.4784624e-17 8.6428339)
(215.31927 1.3835903e-16 7.929443)
(214.62903 1.1810013e-17 8.7397006)
(243.13055 0 9.3171434)
(235.48673 -5.7057246e-17 8.5711039)
(234.61923 4.9033137e-17 9.4620103)
(261.09779 0 9.9067937)
(253.48036 9.7778596e-17 9.1371913)
(252.41366 -4.209175e-17 10.094934)
(279.79217 2.5441142e-19 10.466059)
(271.59811 -4.2771959e-17 9.6649903)
(270.27793 0 10.689036)
(298.08751 -2.7526483e-17 10.917088)
(291.28634 -5.8948322e-19 10.208489)
(289.54599 2.970006e-19 11.302858)
(309.26093 -9.7001196e-18 11.182129)
(307.6878 -3.0979261e-17 10.346405)
(306.79958 -4.2303228e-18 11.549533)
(310.94392 8.5438193e-18 11.196166)
(311.79633 2.5706586e-17 10.852113)
(311.555 3.5982037e-18 12.060934)
(310.69255 -6.7781659e-18 11.135261)
(310.23305 2.3962942e-19 10.174669)
(310.01362 -2.2755163e-17 11.43409)
(310.97997 2.0385228e-17 11.076919)
(311.5192 9.7295406e-18 10.881696)
(311.26143 1.9485453e-17 12.101184)
(310.90244 -6.7423271e-19 10.997847)
(310.60512 -7.8067385e-18 9.9495868)
(310.37959 0 11.228979)
(311.20548 -8.0903397e-19 10.910929)
(311.52389 8.1532718e-20 10.762988)
(311.26927 -8.1574078e-19 12.007021)
(311.30767 6.2565573e-20 10.797477)
(311.09403 0 9.7602487)
(310.85175 -3.8557754e-20 11.065177)
(311.67866 7.5124407e-20 10.664414)
(311.84897 6.8041683e-20 10.479337)
(311.58559 5.932746e-21 11.762197)
(311.95059 -1.4038154e-18 10.492579)
(311.76861 2.6326923e-21 9.5398564)
(311.50442 7.0364939e-18 10.876711)
(312.42696 -1.687171e-18 10.284208)
(312.47594 -2.3241475e-18 10.01977)
(312.1931 -7.3997681e-18 11.357557)
(312.88366 -2.4530185e-19 10.017823)
(312.68785 7.0669349e-19 9.1868934)
(312.39699 1.5681233e-19 10.575267)
(313.51955 -7.0638029e-19 9.6902862)
(313.45254 -3.0198338e-19 9.3483851)
(313.14459 4.2834484e-18 10.762191)
(314.19819 -4.9522081e-19 9.2753626)
(313.94988 -4.4812761e-19 8.5747606)
(313.62889 -3.3909487e-18 10.042248)
(315.05186 2.3439666e-18 8.7644596)
(314.85856 -3.176219e-18 8.3771964)
(314.52185 0 9.8949318)
(315.99016 8.934761e-19 8.1279003)
(315.65997 -2.7727208e-18 7.550071)
(315.30976 2.5366121e-18 9.133691)
(317.08953 9.9483263e-19 7.3584486)
(316.76833 -4.3304994e-18 6.9640458)
(316.40909 -2.0710402e-18 8.6224925)
(318.27046 -4.2948443e-18 6.4371868)
(317.86166 3.6493115e-18 5.9546277)
(317.49898 4.5170295e-18 7.6973534)
(319.53479 -1.8392348e-17 5.3812002)
(319.13882 1.6485654e-17 4.9783571)
(318.78576 -8.6230355e-18 6.8167594)
(320.76352 -2.9377402e-18 4.2209381)
(320.36997 -9.111131e-18 3.7435348)
(320.04095 -8.3678889e-18 5.6801014)
(321.84684 -1.3165803e-17 3.0451816)
(321.55805 1.2312655e-17 2.5220933)
(321.27497 7.0952362e-18 4.5550951)
(322.58221 -3.1091289e-17 1.9761852)
(322.4626 -1.6501021e-17 1.3020241)
(322.24494 -2.1004779e-17 3.4065961)
(322.77925 -1.0214662e-17 1.1577616)
(322.92763 -1.8059325e-17 0.33356444)
(322.78721 -6.3870082e-18 2.4613224)
(322.28973 -1.3667606e-17 0.67213409)
(322.74355 1.1302758e-17 -0.2881183)
(322.67228 -8.4033996e-18 1.7827582)
(321.11573 -2.4829835e-17 0.50941607)
(321.85104 -4.5598935e-17 -0.48987384)
(321.82615 -2.1247859e-18 1.4282796)
(319.40482 -3.9406703e-17 0.59388686)
(320.32562 -1.6799004e-17 -0.35829942)
(320.32318 -8.9837595e-18 1.3217011)
(317.39106 1.783906e-17 0.83826638)
(318.386 -4.7803267e-17 -0.0053207692)
(318.39106 -2.198673e-17 1.3929175)
(315.31209 6.9435289e-17 1.1625939)
(316.28334 1.8678812e-17 0.45236622)
(316.28887 3.1373076e-17 1.570643)
(313.34483 6.1263053e-17 1.4992045)
(314.23486 2.5478904e-17 0.92504598)
(314.23789 5.6746331e-18 1.795279)
(311.5913 4.3901645e-17 1.7979047)
(312.36532 -1.4358308e-17 1.3577337)
(312.36462 3.0357534e-17 2.0221602)
(310.0872 -1.0282696e-17 2.0147556)
(310.74757 -9.2204064e-18 1.699505)
(310.74113 -8.4651409e-18 2.1995954)
(308.83142 0 2.1372826)
(309.37124 -1.4476946e-17 1.928531)
(309.35984 3.2779843e-18 2.3008957)
(307.81621 4.4973058e-19 2.1583651)
(308.24898 -7.6361739e-17 2.0437969)
(308.23398 2.8480745e-18 2.3192755)
(307.01091 1.0643482e-17 2.0858525)
(307.35562 5.0518187e-19 2.0419427)
(307.33905 -2.3491626e-18 2.2453119)
(306.37879 4.6762638e-18 1.9406552)
(306.65054 1.0873819e-16 1.948952)
(306.63385 3.8990481e-18 2.0981)
(305.8944 -4.5301281e-17 1.7532795)
(306.10165 -8.9440068e-18 1.7938047)
(306.08562 -6.3341742e-18 1.9018411)
(305.52725 1.6826945e-17 1.5468243)
(305.69028 2.6814491e-17 1.6062563)
(305.6758 -7.502246e-18 1.6835605)
(305.25297 7.6908519e-17 1.3188075)
(305.37143 -1.8623768e-16 1.4068585)
(305.35742 1.0984357e-17 1.4593782)
(305.07128 2.5142049e-19 1.0314753)
(305.14609 -1.0818554e-16 1.1713255)
(305.1321 -2.1705117e-18 1.2082896)
(304.95668 -1.1053804e-19 0.6598972)
(305.01392 0 0.8300487)
(305.00216 1.8801284e-18 0.86625687)
(304.92918 -5.5026449e-20 0.47068082)
(304.89275 1.2638043e-16 0.38937094)
(304.90514 -8.0076113e-21 0.42925289)
(305.01499 -3.2128327e-17 0.88014398)
(304.74032 9.3459154e-20 0.032923797)
(304.79378 1.3796246e-20 0.059230885)
(304.85071 -3.9893842e-17 -0.19504383)
(304.73445 -7.3366225e-19 -0.13931133)
(304.68411 -2.590169e-18 -0.13813395)
(305.06123 0 0.008509192)
(304.95874 5.4277059e-17 -0.22805288)
(304.98459 0 -0.22832308)
(305.01697 3.3097323e-19 -0.8822308)
(304.99548 0 -0.8967917)
(198.84652 -4.4637926e-17 6.9114624)
(185.00644 -2.0003395e-16 5.8129798)
(224.91937 2.4759371e-17 7.7667544)
(215.97716 6.8922907e-17 7.0927722)
(244.16443 2.6428625e-17 8.3576611)
(236.30295 -1.1496207e-16 7.650455)
(262.29702 6.690071e-17 8.8731052)
(254.46691 1.4545467e-16 8.1438166)
(281.26747 -4.6865134e-17 9.3626833)
(272.80354 -1.9706482e-17 8.6004807)
(299.36137 -1.6035686e-18 9.7322337)
(292.90992 -3.8016186e-17 9.0729016)
(309.82524 -8.0378085e-19 9.9457931)
(308.3978 1.6018442e-17 9.1045984)
(311.20725 1.9577752e-17 9.9390114)
(312.0391 8.5750843e-19 9.6222329)
(310.93039 1.5622145e-17 9.8762782)
(310.44019 2.1988676e-17 8.8857432)
(311.22074 -1.643923e-17 9.811874)
(311.77341 -8.5337414e-18 9.6457229)
(311.13692 -7.6850376e-18 9.7252277)
(310.83288 3.6479005e-19 8.6399826)
(311.45097 8.7825719e-19 9.6261905)
(311.78594 8.1783221e-19 9.5047238)
(311.562 0 9.4976499)
(311.34699 2.239733e-20 8.427705)
(311.94599 2.3650358e-21 9.3447014)
(312.12635 -6.9699736e-18 9.1809732)
(312.22619 -7.1080709e-19 9.1495248)
(312.04534 1.9450756e-18 8.1755871)
(312.71671 -2.2445365e-19 8.9133886)
(312.77137 -1.1871095e-18 8.6642978)
(313.18538 7.3204075e-19 8.6129869)
(312.99155 1.0305939e-18 7.7738068)
(313.83625 -3.7597618e-20 8.2463624)
(313.77217 1.1152184e-18 7.9164826)
(314.52768 -2.8500066e-18 7.7828897)
(314.28347 -9.5401272e-19 7.0860121)
(315.3929 -8.2156385e-18 7.2169998)
(315.20564 -3.1087293e-18 6.8428286)
(316.3392 -7.7527472e-18 6.5142334)
(316.02083 5.6104165e-18 5.950313)
(317.44102 -2.3981575e-18 5.6712723)
(317.13563 -2.1680367e-18 5.2945754)
(318.61598 2.2940459e-17 4.6658477)
(318.23138 0 4.2052024)
(319.86134 2.7798823e-17 3.5211064)
(319.49536 1.2099706e-17 3.1413637)
(321.05546 3.965106e-18 2.2703902)
(320.69868 2.2173492e-17 1.8184505)
(322.08591 1.1644471e-17 1.0164312)
(321.83385 -3.5494634e-19 0.51538028)
(322.75579 -3.5893421e-18 -0.10014898)
(322.66332 1.1321053e-17 -0.75852467)
(322.89065 4.0769519e-19 -0.90773098)
(323.03711 6.900586e-18 -1.7325034)
(322.36051 -1.4695066e-17 -1.3003505)
(322.76799 -2.3344656e-17 -2.2874294)
(321.16886 -4.0450779e-17 -1.2801475)
(321.81587 -6.4672431e-17 -2.3397483)
(319.45287 -2.2069523e-17 -0.94637924)
(320.26262 4.6531752e-17 -1.984915)
(317.44152 -5.3656916e-17 -0.42813316)
(318.31848 3.1816239e-17 -1.3680477)
(315.36758 -2.5536197e-17 0.15679311)
(316.224 -2.9338668e-17 -0.64477846)
(313.40338 -4.5385764e-17 0.72004225)
(314.18868 7.9908643e-18 0.066461565)
(311.65051 -6.7604158e-17 1.2051872)
(312.33283 -6.0634503e-17 0.69969645)
(310.14342 -1.2825278e-17 1.5707574)
(310.7292 1.7186627e-16 1.203149)
(308.88253 -8.3629993e-17 1.8084315)
(309.36445 8.7487939e-17 1.5586399)
(307.86362 -8.4679324e-17 1.9171356)
(308.25068 1.8742891e-16 1.770661)
(307.05483 8.6241674e-17 1.9099409)
(307.36268 -1.6467969e-17 1.841326)
(306.41848 1.0819916e-16 1.8140237)
(306.66048 2.0703933e-16 1.8030794)
(305.92982 5.9020944e-17 1.6636606)
(306.11293 1.4479232e-16 1.6891931)
(305.55845 -1.5213016e-16 1.4853401)
(305.7014 5.3149321e-17 1.5321436)
(305.27959 -3.8007467e-16 1.2781782)
(305.38312 6.8918356e-17 1.3578633)
(305.09619 -1.2064151e-16 1.0009511)
(305.15873 -2.0952573e-16 1.1387572)
(304.963 1.1262213e-16 0.63476708)
(305.02428 -1.0618201e-17 0.7973418)
(304.92299 1.4076089e-16 0.62276758)
(304.86696 1.2881572e-18 0.35426142)
(304.88016 3.1828317e-17 0.5183365)
(304.72382 -1.8723091e-16 0.012365727)
(304.83489 8.8359544e-17 -0.18785754)
(304.7621 3.1494305e-17 -0.13892049)
(305.03945 6.0539246e-17 -0.065342232)
(304.94069 5.0289605e-18 -0.22558109)
(305.03348 -9.5547749e-19 -0.85719098)
(199.26464 -1.1070122e-16 6.1289374)
(185.38706 -9.9671487e-17 5.0686304)
(225.53717 -5.326903e-17 6.8875082)
(216.57782 5.7820999e-19 6.2378525)
(244.9726 -1.8906725e-17 7.4069559)
(237.08877 -5.6923415e-17 6.7174654)
(263.32164 7.3683936e-17 7.853725)
(255.44818 4.8807021e-17 7.1397034)
(282.63051 -9.6458949e-18 8.2721103)
(274.01944 4.3771734e-17 7.5211137)
(300.54464 -2.5004999e-17 8.5530178)
(294.58264 -5.6811768e-17 7.9192386)
(310.28908 1.8819072e-17 8.707457)
(309.0638 1.6356004e-17 7.8435165)
(311.42174 1.5673787e-18 8.6802552)
(312.30579 -1.4035038e-17 8.3769633)
(311.16455 7.7403926e-19 8.6088266)
(310.67117 1.0920481e-17 7.5781178)
(311.47177 7.1850304e-18 8.5327554)
(312.04812 -1.0973903e-17 8.3905759)
(311.39163 8.6384108e-18 8.433119)
(311.07976 7.7828797e-18 7.3089223)
(311.72059 4.071346e-20 8.3186239)
(312.0653 6.8081201e-18 8.2236422)
(311.83505 -6.2346036e-18 8.1726652)
(311.61383 2.3417696e-20 7.0726654)
(312.23098 -5.7753189e-18 7.9997216)
(312.41563 -1.0377776e-17 7.8576034)
(312.51953 1.7296362e-18 7.7799532)
(312.33446 1.4064637e-18 6.7885167)
(313.02298 -1.3565748e-19 7.515159)
(313.07819 -8.1375056e-19 7.2825345)
(313.50351 1.3986776e-18 7.1798973)
(313.30682 -1.0675425e-18 6.3366145)
(314.16856 3.8448605e-19 6.7722732)
(314.10258 -7.0848362e-18 6.4568973)
(314.8742 -1.0315956e-18 6.2597145)
(314.62774 1.0408149e-18 5.571038)
(315.7533 9.7148553e-18 5.6366599)
(315.56241 1.6860209e-18 5.2795187)
(316.71095 1.1728078e-17 4.8674404)
(316.39039 -6.0859557e-18 4.3225951)
(317.81774 0 3.9496102)
(317.50963 -1.6475106e-17 3.5959364)
(318.98814 -1.1665113e-17 2.861785)
(318.60539 0 2.4282879)
(320.21268 5.7238463e-18 1.6315172)
(319.85239 -3.9646801e-17 1.2792779)
(321.3648 1.9890658e-17 0.2996769)
(321.02272 -7.9349508e-19 -0.12503187)
(322.32686 -1.735144e-18 -1.0168741)
(322.09754 -4.6839688e-18 -1.4977834)
(322.90541 2.2012435e-17 -2.1583143)
(322.84215 3.8260041e-18 -2.8065872)
(322.93842 -1.367241e-17 -2.9321022)
(323.11327 1.260563e-17 -3.763444)
(322.31817 -6.8659195e-17 -3.2170014)
(322.7475 1.2426145e-17 -4.2328459)
(321.06795 1.0403958e-17 -3.0134591)
(321.726 4.8446548e-17 -4.128737)
(319.32955 1.0120455e-16 -2.4408403)
(320.14038 -1.6828777e-17 -3.5566879)
(317.32059 6.2011016e-17 -1.6622461)
(318.19395 4.2790685e-17 -2.6889668)
(315.26192 0 -0.82780288)
(316.11485 1.0057192e-17 -1.7133657)
(313.31822 0 -0.045767605)
(314.10178 0 -0.77373252)
(311.5868 1.5231721e-16 0.62060399)
(312.26853 1.2588796e-17 0.053170035)
(310.10047 2.8042561e-16 1.1310914)
(310.68662 1.8050261e-16 0.71370963)
(308.85657 3.4607953e-16 1.4810785)
(309.33969 -3.0486869e-17 1.1924387)
(307.84984 2.7756486e-16 1.6752278)
(308.23921 8.5277054e-17 1.4989047)
(307.04898 7.9139351e-17 1.7320398)
(307.36028 -1.639357e-17 1.6406129)
(306.41782 2.5047403e-16 1.6846538)
(306.66363 -8.6707334e-17 1.6563606)
(305.93218 1.4919194e-16 1.5707944)
(306.1194 -1.8886594e-17 1.5832342)
(305.56278 2.7226196e-16 1.4204825)
(305.70902 1.3377247e-17 1.4562099)
(305.28633 2.7100352e-16 1.2339551)
(305.39237 4.8101189e-16 1.3072666)
(305.1031 -1.2198297e-16 0.96556674)
(305.17 -3.3892447e-16 1.1041836)
(304.95704 -1.237756e-16 0.60184447)
(305.03265 -1.0647922e-17 0.75940035)
(304.91471 -3.0712186e-16 0.58879268)
(304.8401 -3.6889527e-16 0.31694687)
(304.82812 -2.1238562e-16 0.25390683)
(304.72547 -8.6348156e-18 -0.0055581597)
(304.84371 -4.9842355e-17 -0.18331647)
(304.77526 -8.7722229e-18 -0.13927202)
(305.03176 -5.6807142e-17 -0.13452098)
(304.92818 -4.7493606e-17 -0.222754)
(305.04514 -1.3198605e-18 -0.83260042)
(199.7742 9.5818835e-19 5.3322083)
(185.78419 -5.2969504e-17 4.3167271)
(226.2636 1.4644807e-18 5.9863018)
(217.211 3.8345113e-17 5.36426)
(245.88995 1.0084569e-18 6.4271272)
(237.91018 4.3595699e-19 5.7637978)
(264.44972 1.9984965e-17 6.7984814)
(256.46924 8.1884854e-19 6.1109672)
(284.09253 5.5150985e-18 7.139054)
(275.27278 2.2422282e-17 6.4100966)
(301.77166 -2.2103543e-17 7.3316904)
(296.29481 -3.7326937e-17 6.7305879)
(310.77719 -1.3369935e-17 7.4352518)
(309.6631 3.2881838e-17 6.5522365)
(311.69514 -6.8435736e-18 7.3911384)
(312.5898 -1.271624e-17 7.1089227)
(311.42364 1.1521845e-18 7.3126668)
(310.91151 -4.5002468e-19 6.246167)
(311.74019 -1.1854298e-17 7.2273498)
(312.3297 -1.0724247e-17 7.1133387)
(311.65844 6.0708486e-18 7.1162997)
(311.33764 4.1406613e-18 5.9538808)
(311.99774 7.3208373e-18 6.9881819)
(312.35335 3.1554417e-18 6.9206527)
(312.11641 -3.2002207e-18 6.8253028)
(311.89106 1.016342e-17 5.6947208)
(312.52409 -4.2911018e-18 6.632118)
(312.71507 7.5574185e-19 6.5116097)
(312.82086 -9.0315471e-19 6.3876674)
(312.634 -7.3272065e-19 5.378558)
(313.33728 -1.7044411e-18 6.0939104)
(313.39476 -1.4695563e-18 5.8771472)
(313.82947 -8.8845127e-18 5.7233894)
(313.63205 -1.2074892e-17 4.8759379)
(314.50824 -7.1004267e-18 5.2744084)
(314.44219 1.5055735e-18 4.9724013)
(315.22654 3.65061e-18 4.712295)
(314.98084 1.8020558e-17 4.0314403)
(316.1166 -1.3151942e-17 4.0320156)
(315.92651 1.6508686e-18 3.6904283)
(317.08162 -3.2855752e-17 3.196826)
(316.76586 -2.7816213e-17 2.6695932)
(318.18855 -1.7860754e-17 2.2052844)
(317.88719 -1.8693545e-18 1.8718012)
(319.34883 -2.4063376e-17 1.0377656)
(318.98001 4.001073e-18 0.62748185)
(320.54619 -4.941677e-17 -0.27298102)
(320.20565 7.9249548e-18 -0.60377389)
(321.64975 -2.4585415e-17 -1.6766682)
(321.33691 -3.3809179e-17 -2.0828485)
(322.53692 0 -3.0413566)
(322.34315 9.8453639e-18 -3.5134813)
(323.01931 -6.237308e-18 -4.1880957)
(322.99293 4.4011564e-18 -4.8391065)
(322.95054 3.8295906e-17 -4.9080841)
(323.15093 -7.0253041e-17 -5.7571252)
(322.24596 1.244835e-16 -5.0719501)
(322.67909 5.0811433e-17 -6.1220163)
(320.94409 2.7928252e-17 -4.6838161)
(321.58153 1.5374897e-16 -5.8522131)
(319.18839 -8.047846e-17 -3.8810598)
(319.96126 -6.2014872e-17 -5.0658382)
(317.18801 -5.2496113e-18 -2.855033)
(318.01529 -2.5853035e-17 -3.9583077)
(315.1517 1.1090409e-17 -1.7834685)
(315.95827 3.0584889e-17 -2.7436325)
(313.23406 1.1162417e-17 -0.79228544)
(313.97592 -1.3836645e-16 -1.587226)
(311.52767 2.2665352e-17 0.048621111)
(312.17357 1.248633e-17 -0.57528453)
(310.06313 -1.057377e-16 0.6994081)
(310.62064 -1.2591811e-16 0.23625015)
(308.83615 -3.0239707e-16 1.1586524)
(309.29748 -3.817021e-16 0.83385628)
(307.84184 -1.9602317e-16 1.4362254)
(308.21487 -1.7571073e-16 1.2317708)
(307.04921 -1.7380663e-16 1.555907)
(307.34857 0 1.4426302)
(306.42307 -3.6289876e-16 1.5563996)
(306.66011 -1.9573242e-16 1.5112929)
(305.9401 -1.580363e-16 1.4784941)
(306.12116 1.2806081e-16 1.4782219)
(305.57206 1.6892764e-16 1.3557327)
(305.71326 1.3300505e-17 1.3805991)
(305.29696 -3.5915576e-17 1.1895949)
(305.3993 1.6696475e-16 1.2568223)
(305.11336 -2.6492325e-16 0.93094663)
(305.17971 2.0762602e-16 1.0687959)
(304.95178 -2.1566244e-16 0.56724274)
(305.0383 3.4830295e-16 0.71964106)
(304.87407 -1.0681051e-16 0.48061876)
(304.81976 2.5399939e-16 0.28015381)
(304.80054 1.965544e-16 0.13543817)
(304.72872 1.8119121e-16 -0.021348415)
(304.84168 -1.8497558e-18 -0.18054395)
(304.78167 -1.2953175e-17 -0.13984309)
(305.02167 3.6531846e-18 -0.1730914)
(304.91983 1.3010657e-17 -0.2195468)
(305.05368 -1.6204264e-16 -0.80651823)
(200.29285 -2.3802871e-17 4.5218033)
(186.22096 -5.2120837e-17 3.5585638)
(226.9902 4.0279624e-17 5.0686489)
(217.87647 7.4940336e-17 4.4666902)
(246.81095 2.2113377e-19 5.4287849)
(238.76583 -6.3142008e-17 4.7860666)
(265.58759 1.5221812e-18 5.7220239)
(257.5337 5.2671205e-17 5.0581201)
(285.5661 -1.4782049e-17 5.9797009)
(276.57574 -2.3289402e-17 5.2687201)
(302.96786 1.091929e-17 6.0852554)
(298.03624 -2.9526946e-17 5.5100943)
(311.21002 3.7068928e-17 6.1414708)
(310.20628 5.0548248e-17 5.2332156)
(311.95688 -7.4271038e-18 6.0844538)
(312.88068 -1.4621333e-17 5.8186877)
(311.68674 -1.12504e-17 5.9977994)
(311.1666 -4.1106557e-18 4.8912822)
(312.0152 3.7425129e-18 5.901675)
(312.62256 2.542973e-18 5.8149628)
(311.93538 1.3659723e-18 5.7784452)
(311.60711 1.9581431e-18 4.5757988)
(312.28587 5.382783e-18 5.6356144)
(312.65118 5.4560983e-18 5.5954339)
(312.40907 1.4775742e-17 5.4551911)
(312.17799 4.0197099e-18 4.2940893)
(312.82832 4.3506874e-18 5.2414576)
(313.0231 -5.0652429e-19 5.1421682)
(313.13327 -1.2271862e-18 4.9718373)
(312.94249 -5.040507e-19 3.9456789)
(313.66217 -1.0763588e-17 4.6486334)
(313.71946 -1.0409766e-18 4.4470399)
(314.16584 -3.0028031e-18 4.2421361)
(313.96569 1.1399099e-18 3.3912229)
(314.85782 2.4752006e-17 3.7510063)
(314.78927 9.3335126e-18 3.4616863)
(315.58852 1.7401467e-17 3.1387574)
(315.34111 1.5832554e-17 2.4662649)
(316.48899 -1.0283172e-17 2.400772)
(316.2963 -3.4785315e-18 2.0741328)
(317.46079 3.8516479e-19 1.4994294)
(317.14562 2.0713499e-17 0.98979379)
(318.56635 1.9068226e-17 0.43445865)
(318.26662 9.1428735e-18 0.12012366)
(319.71375 3.50574e-17 -0.81103727)
(319.35317 -3.3599751e-17 -1.1995567)
(320.87911 2.6886469e-17 -2.1980694)
(320.55253 3.7125962e-17 -2.5104957)
(321.92644 -3.8609191e-18 -3.6650619)
(321.63787 -1.1413477e-17 -4.0577996)
(322.7281 1.468199e-17 -5.0635113)
(322.56669 1.4818198e-17 -5.534339)
(323.10144 -5.1717332e-17 -6.1956049)
(323.1116 1.4169133e-19 -6.8583076)
(322.91651 -6.9310163e-17 -6.8403956)
(323.14726 2.281483e-18 -7.7153508)
(322.11381 6.9821083e-17 -6.8669802)
(322.56232 -1.1488757e-16 -7.9558932)
(320.75116 8.6051403e-17 -6.288687)
(321.38458 -2.4464131e-18 -7.5092586)
(318.97636 -1.1641619e-17 -5.2609556)
(319.72899 8.0140408e-18 -6.5088358)
(316.98848 3.9240905e-18 -3.9988321)
(317.78657 3.4597006e-19 -5.1705781)
(314.98207 -1.0003752e-16 -2.7026148)
(315.75771 -4.8911001e-19 -3.7295616)
(313.09988 -1.5287505e-16 -1.5130505)
(313.81361 2.5587022e-18 -2.3685778)
(311.428 -1.2029499e-16 -0.50574012)
(312.04963 0 -1.1813247)
(309.99422 -3.725979e-16 0.27936194)
(310.53231 -1.2501204e-16 -0.22599991)
(308.79175 -2.7818722e-16 0.84355506)
(309.23846 -1.9137111e-17 0.48518029)
(307.81557 0 1.2015428)
(308.17806 3.5758825e-16 0.97077039)
(307.03545 0 1.3822348)
(307.32778 -2.6677669e-16 1.2482978)
(306.41768 2.5761658e-16 1.4294997)
(306.65003 -4.0787633e-16 1.3683674)
(305.93987 3.1211577e-16 1.3868162)
(306.11828 8.0650825e-18 1.3744409)
(305.57511 -6.1815091e-18 1.2909672)
(305.71417 -1.3380718e-17 1.3056348)
(305.3031 4.0615057e-16 1.1443892)
(305.40404 -2.9409233e-16 1.2064934)
(305.11844 8.0609667e-16 0.89630627)
(305.18772 4.5381264e-16 1.0315869)
(304.97004 8.3082331e-16 0.61142413)
(305.03344 2.7517057e-18 0.67879901)
(304.85494 5.551079e-16 0.40541966)
(304.80921 2.6075934e-16 0.24424402)
(304.79024 -7.6567563e-18 0.064178369)
(304.73274 -3.7051777e-16 -0.035513838)
(304.84266 -8.1949658e-19 -0.17833807)
(304.78503 2.6215223e-16 -0.14059726)
(305.01788 -1.3346174e-16 -0.19902867)
(304.91454 9.8257513e-18 -0.21583011)
(305.06007 -1.6533765e-16 -0.7799881)
(200.83782 3.4092553e-17 3.6913999)
(186.67715 0 2.7882255)
(227.7548 -1.5366985e-17 4.1267005)
(218.56624 3.7157747e-17 3.5535809)
(247.78127 -2.0900108e-17 4.4027662)
(239.64918 -7.7255827e-17 3.7826377)
(266.78617 3.4336387e-17 4.6145745)
(258.63597 6.5217473e-17 3.9807722)
(287.0885 -3.7208002e-17 4.7842865)
(277.92727 -2.3430586e-17 4.0965911)
(304.15772 2.948684e-18 4.8045902)
(299.7897 -9.7591141e-18 4.2591233)
(311.62768 5.1246884e-18 4.8199311)
(310.68607 2.4651071e-17 3.8875351)
(312.23905 -1.2200593e-17 4.7517114)
(313.1773 -2.3444637e-17 4.5057232)
(311.96436 8.8466048e-18 4.6580508)
(311.42805 9.05729e-18 3.5123668)
(312.30207 8.4488992e-19 4.5517463)
(312.92145 -5.2827956e-18 4.4949288)
(312.22206 5.6802378e-18 4.4170991)
(311.88351 -4.2239448e-18 3.174268)
(312.5824 4.2362978e-18 4.2598381)
(312.95555 5.0439974e-18 4.2474089)
(312.70957 -1.0561141e-17 4.0619045)
(312.47232 6.5707192e-19 2.8704261)
(313.13984 -5.2540895e-18 3.8272818)
(313.33796 -8.6852172e-18 3.7487288)
(313.4529 -2.7884495e-19 3.5320694)
(313.25837 -9.7911933e-18 2.4892198)
(313.99401 1.043058e-17 3.1786659)
(314.05087 1.7800835e-18 2.9913497)
(314.50901 1.2549011e-17 2.7354592)
(314.30635 9.8833664e-18 1.8815335)
(315.21341 7.4431008e-20 2.201419)
(315.14232 -2.5100081e-18 1.9238244)
(315.95532 -3.0319717e-18 1.5384393)
(315.70662 -3.5615894e-17 0.87455076)
(316.86423 2.4894531e-17 0.74222029)
(316.66955 2.8430786e-17 0.42960037)
(317.84025 3.026789e-17 -0.22556131)
(317.52716 5.5191643e-17 -0.71808198)
(318.94088 -3.8894373e-17 -1.3636677)
(318.64508 -4.761097e-18 -1.6604773)
(320.0706 -3.7649089e-17 -2.6852877)
(319.72153 -2.9283743e-18 -3.0542548)
(321.19749 3.7642893e-18 -4.1440143)
(320.88899 -3.911495e-18 -4.4420998)
(322.18051 4.5949213e-18 -5.6652034)
(321.92075 6.0067347e-18 -6.050579)
(322.88748 1.879184e-18 -7.0823827)
(322.76259 5.053645e-18 -7.5601218)
(323.14341 5.3179528e-17 -8.1794546)
(323.19253 -1.3044785e-17 -8.863063)
(322.83707 -3.1595159e-17 -8.7274206)
(323.09762 7.0993339e-17 -9.6364553)
(321.9347 -1.9704324e-16 -8.6000456)
(322.3947 -2.6348727e-18 -9.7324318)
(320.51223 -8.0540102e-17 -7.8248447)
(321.13528 -9.9146302e-17 -9.0969931)
(318.72103 2.0636344e-17 -6.5757165)
(319.44578 1.6088509e-17 -7.8814292)
(316.75046 -3.9563443e-18 -5.0878491)
(317.51093 1.3161279e-17 -6.3202888)
(314.78026 1.0091127e-16 -3.5795247)
(315.51627 -2.0718277e-17 -4.6652353)
(312.94 1.5443721e-16 -2.2030955)
(313.61735 1.3854699e-16 -3.1123066)
(311.30855 8.7117736e-18 -1.0385307)
(311.89854 -1.2964376e-17 -1.7603605)
(309.91036 2.1476024e-16 -0.12603419)
(310.42293 3.3569399e-16 -0.66944261)
(308.73627 5.7203975e-16 0.53804876)
(309.16351 2.139994e-16 0.14912249)
(307.78131 1.6110107e-16 0.97288609)
(308.12934 3.787099e-16 0.71792168)
(307.01615 -6.5758604e-16 1.2122926)
(307.29823 2.4469435e-16 1.0591127)
(306.40855 -7.0387271e-16 1.3049262)
(306.63361 1.4414467e-17 1.2286708)
(305.9372 -3.1457786e-16 1.2966171)
(306.11089 -2.911936e-16 1.2727175)
(305.57664 -2.6918453e-16 1.2268107)
(305.71188 -4.2854223e-16 1.2321068)
(305.30844 -3.3257532e-16 1.0985703)
(305.40679 -3.0421519e-16 1.1564204)
(305.12054 -2.996378e-16 0.86116954)
(305.19409 -7.114241e-18 0.99224933)
(304.97718 -5.9990803e-16 0.62579171)
(305.02216 -3.3772959e-16 0.63748061)
(304.84294 -5.9488878e-16 0.35412778)
(304.80341 -2.4091516e-16 0.21006788)
(304.78675 -1.7197693e-16 0.0332553)
(304.73587 -1.2072871e-17 -0.04843083)
(304.84187 3.0244122e-16 -0.17646892)
(304.78739 6.3881024e-18 -0.14124354)
(305.01489 4.8316119e-21 -0.20910267)
(304.91234 -3.1212838e-18 -0.21175843)
(305.06522 1.5368233e-16 -0.75304863)
(201.41573 0 2.8462448)
(187.1487 0 1.9541675)
(228.54545 -1.441663e-17 3.1674736)
(219.2815 0 2.6439378)
(248.77862 -4.1982127e-18 3.3567246)
(240.56165 -7.4619758e-18 2.7571595)
(268.0224 1.5676783e-17 3.4841709)
(259.77789 7.206684e-18 2.8803)
(288.63828 2.3222452e-18 3.5609703)
(279.33368 -6.0931864e-18 2.8944499)
(305.32068 8.7616841e-18 3.4978841)
(301.54785 1.1984991e-18 2.9791069)
(312.00656 4.8647099e-19 3.4764461)
(311.11386 1.7807334e-17 2.5183928)
(312.52085 -5.2121588e-18 3.3983091)
(313.47874 -1.4847835e-17 3.170978)
(312.2454 -3.6280615e-18 3.2971367)
(311.69681 6.2083743e-18 2.1097008)
(312.5934 -1.0318923e-17 3.1801291)
(313.22634 -8.2536199e-18 3.1534174)
(312.51452 -5.5756171e-18 3.0334279)
(312.16677 2.867121e-18 1.7494314)
(312.88518 1.8914583e-18 2.8611255)
(313.26583 -3.5287696e-18 2.8760496)
(313.01689 3.230439e-18 2.645065)
(312.77319 -6.0523955e-18 1.4232565)
(313.45812 -1.3036048e-17 2.3889295)
(313.6585 6.2634935e-18 2.3303832)
(313.7794 -8.7004091e-18 2.0673785)
(313.58044 1.4661266e-18 1.0083466)
(314.33236 5.9155528e-19 1.6829735)
(314.38768 1.4464828e-17 1.5089092)
(314.85832 -3.8530662e-18 1.2022139)
(314.65248 -4.5009238e-18 0.34585716)
(315.57421 -3.4758041e-17 0.62443537)
(315.49958 -5.0528394e-18 0.35773024)
(316.32633 -1.0056807e-17 -0.089901038)
(316.07565 -1.790929e-17 -0.74482551)
(317.24218 5.5899023e-17 -0.94505119)
(317.04468 3.4951565e-17 -1.2445745)
(318.22051 2.5882944e-17 -1.9797882)
(317.90892 -7.0275014e-18 -2.4556619)
(319.31309 3.0374006e-17 -3.1908795)
(319.02077 1.0294916e-17 -3.471703)
(320.42048 3.0259944e-17 -4.5867176)
(320.08282 6.3961184e-17 -4.9382292)
(321.50218 -2.5883967e-18 -6.1122234)
(321.21217 -6.6550802e-17 -6.3998425)
(322.41193 6.5412216e-18 -7.6777829)
(322.18195 5.9039949e-18 -8.0616583)
(323.01395 -7.9692751e-18 -9.0976648)
(322.92671 0 -9.5900601)
(323.14285 -3.3261284e-18 -10.138533)
(323.23174 -8.7843387e-18 -10.851459)
(322.70809 1.0659917e-16 -10.567595)
(322.9993 1.4811313e-17 -11.518012)
(321.70249 1.0330517e-16 -10.269116)
(322.17558 9.025306e-17 -11.44926)
(320.2201 -1.5028931e-17 -9.2892872)
(320.83521 -9.8548397e-18 -10.612984)
(318.4154 8.9876549e-18 -7.8211934)
(319.11489 8.0757354e-18 -9.1805988)
(316.46716 0 -6.1171614)
(317.1923 0 -7.4036556)
(314.53949 0 -4.4091863)
(315.23762 0 -5.5464865)
(312.74794 -1.1492558e-17 -2.857914)
(313.39013 -1.6955763e-17 -3.814409)
(311.16338 2.7444403e-16 -1.5460395)
(311.72252 -4.0399556e-16 -2.3089376)
(309.80657 3.48085e-16 -0.5138911)
(310.29404 3.045574e-16 -1.0913021)
(308.66567 3.4629732e-18 0.24428044)
(309.07366 -7.4408303e-18 -0.17218916)
(307.73568 4.7701708e-16 0.75181603)
(308.0694 -3.4990193e-16 0.47479953)
(306.98839 9.4077839e-16 1.0471857)
(307.26035 2.4859767e-16 0.87621164)
(306.39322 4.6097649e-16 1.183453)
(306.61109 4.3291142e-16 1.0929977)
(305.93003 -3.8946076e-16 1.2084729)
(306.09915 -1.8222937e-17 1.1736047)
(305.57503 -4.7780619e-16 1.163497)
(305.70653 -1.1783826e-19 1.1604866)
(305.31181 -1.2692721e-17 1.0520336)
(305.4077 -6.2598865e-16 1.1064778)
(305.11964 -6.8445258e-18 0.82481704)
(305.19886 -7.8921719e-20 0.95061764)
(304.97243 1.167468e-17 0.60565281)
(305.00798 -3.3344517e-16 0.59570886)
(304.83766 3.2159789e-16 0.31947921)
(304.79843 0 0.17818616)
(304.78683 1.6544639e-16 0.015852632)
(304.73834 6.4033925e-18 -0.060084405)
(304.84263 -3.017851e-16 -0.17451627)
(304.78957 -6.4087167e-18 -0.14159023)
(305.0149 1.3306903e-16 -0.21044148)
(304.91187 3.9265762e-16 -0.2073013)
(305.06961 1.5448401e-16 -0.72596574)
(202.00776 0 1.982784)
(187.65035 9.1200531e-19 1.0827141)
(229.36865 7.3745795e-18 2.1868269)
(220.01929 -1.2926352e-18 1.725767)
(249.81268 2.5397578e-18 2.2866329)
(241.49756 8.0123929e-18 1.7081016)
(269.30795 -1.3028425e-17 2.3266197)
(260.95364 -6.8436945e-18 1.7568883)
(290.21902 -7.7589502e-18 2.3057389)
(280.79659 -7.5142915e-18 1.6610912)
(306.46252 8.7414239e-18 2.1641151)
(303.28609 -1.2946305e-18 1.6686847)
(312.36654 5.3707595e-18 2.1086435)
(311.5105 1.1053445e-17 1.1265834)
(312.81118 -5.3336995e-18 2.021601)
(313.78293 -7.4158446e-18 1.8148906)
(312.53404 2.8207994e-18 1.9128965)
(311.97054 3.0959902e-18 0.68229037)
(312.89143 3.7627983e-18 1.7849782)
(313.5354 -6.0531753e-18 1.7893131)
(312.81328 5.3713301e-18 1.6260098)
(312.45533 3.6626521e-19 0.30063911)
(313.19362 -1.1096813e-17 1.4382982)
(313.58053 0 1.4803308)
(313.32969 -4.0607118e-18 1.2036713)
(313.07921 -5.7846528e-18 -0.048199238)
(313.7815 2.0828221e-17 0.92536118)
(313.98341 1.0081596e-17 0.88601291)
(314.11094 2.3091488e-17 0.57671577)
(313.90747 1.0560889e-17 -0.49792301)
(314.67525 1.1002929e-17 0.16037145)
(314.72854 1.3959113e-18 -0.0014429588)
(315.21168 -5.6347812e-18 -0.35870409)
(315.00261 -6.0769216e-18 -1.2168125)
(315.93789 1.2505327e-17 -0.98098339)
(315.85941 -7.7883352e-18 -1.2376994)
(316.69893 2.1816661e-17 -1.7474932)
(316.44633 5.6246289e-17 -2.3930987)
(317.61989 -2.3238336e-17 -2.6625785)
(317.41966 -5.5457944e-17 -2.9499584)
(318.59797 -2.3772217e-17 -3.764933)
(318.28857 -3.6143265e-17 -4.2247155)
(319.67856 3.8682476e-17 -5.0487587)
(319.39092 5.232525e-17 -5.3152963)
(320.75803 -1.9825608e-17 -6.5165457)
(320.43361 -7.7315274e-17 -6.8530097)
(321.78692 -6.4576756e-17 -8.1032186)
(321.51788 5.7538396e-18 -8.3846565)
(322.61391 0 -9.7021683)
(322.41644 0 -10.090845)
(323.10095 0 -11.107349)
(323.05352 -8.7754068e-17 -11.622359)
(323.09486 6.8590557e-18 -12.069846)
(323.22404 1.4836647e-16 -12.820321)
(322.52791 -8.489769e-18 -12.357699)
(322.84844 7.578843e-18 -13.356298)
(321.41958 -1.1719634e-17 -11.871217)
(321.90318 -5.6457127e-18 -13.102912)
(319.88059 1.1214627e-17 -10.679108)
(320.48489 -3.4091513e-19 -12.054203)
(318.06705 0 -8.9941219)
(318.73861 0 -10.403378)
(316.14658 0 -7.0830876)
(316.83389 -1.392769e-17 -8.4174275)
(314.26725 -1.5040398e-17 -5.1878278)
(314.92509 3.6073054e-16 -6.3698356)
(312.53009 -3.6537778e-16 -3.4740131)
(313.13483 3.1686123e-19 -4.471489)
(310.99766 -4.5055277e-16 -2.0253)