/*--------------------------------*- C++ -*----------------------------------*\
  =========                 |
  \\      /  F ield         | OpenFOAM: The Open Source CFD Toolbox
   \\    /   O peration     | Website:  https://openfoam.org
    \\  /    A nd           | Version:  8
     \\/     M anipulation  |
\*---------------------------------------------------------------------------*/
FoamFile
{
    version     2.0;
    format      ascii;
    class       volScalarField;
    location    "0.120004";
    object      T;
}
// * * * * * * * * * * * * * * * * * * * * * * * * * * * * * * * * * * * * * //

dimensions      [0 0 0 1 0 0 0];

internalField   nonuniform List<scalar> 
20000
(
272.28859
271.8445
271.05068
269.50379
266.5349
261.03186
253.2614
251.41432
252.23544
252.10607
252.7535
252.81433
253.38815
253.61905
254.20808
254.6375
255.33135
256.00005
256.89216
257.86649
259.06638
260.44596
262.08803
263.99952
266.22805
268.78955
271.68503
274.86611
278.21641
281.55106
284.65341
287.36708
289.63136
291.4596
292.90954
294.04317
294.92941
295.61476
296.14561
296.56339
296.89311
297.14485
297.34494
297.49414
297.63061
297.81586
298.0155
298.19285
298.1489
298.25229
272.29917
271.86886
271.05999
269.46184
266.37342
260.58405
253.10999
251.54427
252.38712
252.25231
252.91649
252.97955
253.56188
253.80017
254.40198
254.84608
255.55582
256.2465
257.16064
258.16542
259.39686
260.8144
262.49501
264.44578
266.70777
269.2886
272.17764
275.31295
278.57668
281.80353
284.81256
287.46173
289.68493
291.48943
292.92522
294.05043
294.93311
295.61631
296.14623
296.56358
296.89301
297.14481
297.34492
297.49322
297.62914
297.8518
298.07974
298.1829
298.2018
298.22223
272.3709
271.95756
271.13736
269.49248
266.27904
260.16152
253.0222
251.72448
252.56134
252.41664
253.09511
253.15634
253.75011
253.99763
254.61063
255.07037
255.79458
256.50732
257.44203
258.47566
259.73538
261.18841
262.90471
264.89404
267.19055
269.79689
272.69029
275.79852
279.00125
282.14454
285.06726
287.64479
289.81623
291.58408
292.9942
294.09976
294.9679
295.64135
296.16544
296.57863
296.90475
297.15462
297.35256
297.49749
297.63599
297.87713
298.07965
298.18611
298.20288
298.21825
272.43566
272.02876
271.19312
269.49996
266.16524
259.7003
252.9727
251.88023
252.74555
252.5961
253.28843
253.35275
253.95733
254.21427
254.83874
255.31414
256.05306
256.78825
257.74413
258.80797
260.09791
261.58906
263.34428
265.37634
267.71217
270.34951
273.25327
276.33981
279.48358
282.54032
285.37007
287.86572
289.97315
291.69459
293.07182
294.15351
295.00505
295.66735
296.18445
296.59282
296.91534
297.16311
297.35886
297.50094
297.64488
297.90514
298.09482
298.18892
298.218
298.20903
272.52387
272.1279
271.27684
269.53236
266.07286
259.2376
252.98073
252.07102
252.9468
252.79496
253.498
253.5665
254.18143
254.44874
255.08441
255.57657
256.33042
257.08919
258.06703
259.16203
260.48301
262.01337
263.80909
265.88592
268.26388
270.93573
273.85397
276.92436
280.01635
282.99264
285.72965
288.13792
290.17321
291.83936
293.17589
294.22715
295.05675
295.70411
296.21147
296.61302
296.93045
297.17507
297.36741
297.50656
297.66115
297.92629
298.10081
298.19351
298.22279
298.20398
272.61073
272.22646
271.36022
269.56142
265.97474
258.76414
253.03264
252.27086
253.1623
253.00902
253.72378
253.79742
254.42274
254.70131
255.34839
255.85824
256.62769
257.41125
258.41214
259.53978
260.89373
262.46562
264.30465
266.42919
268.85231
271.56101
274.49519
277.55
280.59027
283.48554
286.1278
288.44412
290.40079
292.00516
293.29533
294.31183
295.11636
295.74648
296.24233
296.63582
296.9473
297.18811
297.37622
297.51301
297.68327
297.94484
298.10983
298.19749
298.22743
298.19915
272.72421
272.34901
271.46327
269.60341
265.88022
258.29567
253.13354
252.49073
253.39456
253.24023
253.96542
254.04487
254.68016
254.9709
255.62951
256.15822
256.94395
257.75357
258.77873
259.9405
261.32928
262.94487
264.8298
267.00464
269.47546
272.22265
275.1732
278.21219
281.20089
284.01548
286.56194
288.78316
290.65643
292.1936
293.43236
294.40979
295.18577
295.79609
296.27849
296.66246
296.96696
297.2031
297.38589
297.52073
297.70903
297.96195
298.11782
298.20122
298.22902
298.19521
272.83696
272.47763
271.57313
269.64584
265.7756
257.83793
253.27632
252.72341
253.63983
253.48568
254.22132
254.30768
254.95298
255.25698
255.92744
256.47619
257.279
258.11593
259.16651
260.36403
261.78978
263.45152
265.3852
267.613
270.13377
272.92016
275.88601
278.90685
281.84172
284.57403
287.02326
289.14706
290.9335
292.39959
293.58315
294.51823
295.26303
295.85151
296.31888
296.69212
296.9888
297.21949
297.39601
297.52943
297.7368
297.9792
298.12643
298.20449
298.22965
298.19155
272.96374
272.61621
271.69424
269.69331
265.65808
257.40308
253.4565
252.97096
253.89886
253.7458
254.49128
254.58549
255.24063
255.55897
256.2416
256.81156
257.63217
258.4976
259.57502
260.81008
262.27516
263.98554
265.97073
268.254
270.82656
273.65209
276.63112
279.63049
282.50854
285.1566
287.50718
289.53184
291.22904
292.62112
293.74648
294.63646
295.34773
295.91256
296.36344
296.72484
297.0129
297.23729
297.40673
297.5394
297.76572
297.99648
298.13486
298.20749
298.22955
298.18808
273.09181
272.76204
271.8207
269.74057
265.51649
257.00079
253.6691
253.23118
254.17007
254.01941
254.7745
254.87764
255.54262
255.87644
256.57163
257.16393
258.0031
258.89827
260.00395
261.27849
262.78538
264.54691
266.58638
268.92745
271.55312
274.41683
277.40574
280.37915
283.19633
285.75747
288.00791
289.93225
291.5387
292.85488
293.91997
294.7628
295.43875
295.97844
296.41165
296.76026
297.03898
297.25631
297.41812
297.55122
297.7951
298.01369
298.14324
298.21027
298.22903
298.18462
273.2338
272.92179
271.96046
269.79299
265.34601
256.65119
253.91318
253.50484
254.45382
254.30644
255.07067
255.18379
255.85859
256.20904
256.91715
257.5328
258.39129
259.31752
260.45332
261.76949
263.32084
265.13607
267.23252
269.63351
272.31308
275.21306
278.20753
281.1496
283.90126
286.37247
288.52127
290.34444
291.85928
293.09842
294.10184
294.89604
295.53524
296.04857
296.46312
296.79815
297.06689
297.27646
297.43045
297.56582
297.82421
298.03048
298.15131
298.21287
298.22827
298.1811
273.38035
273.08527
272.10651
269.84782
265.13896
256.35083
254.18598
253.79053
254.749
254.6061
255.3793
255.50359
256.18824
256.5564
257.27771
257.91771
258.79646
259.75534
260.92321
262.28323
263.88167
265.75311
267.90921
270.37195
273.1055
276.03887
279.03353
281.93807
284.61904
286.9971
289.04282
290.76439
292.18739
293.34908
294.29013
295.03473
295.6362
296.12228
296.51737
296.8382
297.09637
297.29759
297.44409
297.58423
297.85239
298.04666
298.15901
298.2152
298.22744
298.17745
273.5289
273.25497
272.25925
269.90688
264.89256
256.09857
254.48837
254.08824
255.05575
254.91851
255.7003
255.83684
256.53127
256.91803
257.65283
258.31828
259.21852
260.21183
261.41405
262.82025
264.46849
266.39866
268.61704
271.14308
273.92993
276.89274
279.88127
282.74143
285.3462
287.62776
289.56908
291.18889
292.52027
293.60464
294.48312
295.17764
295.74074
296.19892
296.57394
296.8801
297.12718
297.31951
297.45931
297.60739
297.87905
298.06222
298.16629
298.21708
298.22597
298.17359
273.68671
273.4322
272.41933
269.97344
264.60901
255.90229
254.81074
254.39789
255.37367
255.24319
256.03325
256.18308
256.8871
257.29341
258.04211
258.73441
259.65771
260.68743
261.92624
263.38083
265.08159
267.07306
269.35624
271.9467
274.78527
277.77247
280.74763
283.55603
286.07892
288.26073
290.0965
291.61474
292.85518
293.86289
294.67913
295.3235
295.84795
296.27784
296.63237
296.92354
297.15906
297.342
297.47617
297.63544
297.9039
298.07722
298.17313
298.21852
298.22396
298.16955
273.85129
273.61173
272.58002
270.04101
264.28395
255.76006
255.11747
254.71888
255.70242
255.57983
256.37767
256.5417
257.2552
257.6821
258.44554
259.16636
260.11453
261.18259
262.46032
263.96562
265.72174
267.77713
270.12753
272.78298
275.67071
278.67616
281.62986
284.37876
286.81403
288.89294
290.62224
292.03936
293.18989
294.12197
294.8767
295.47117
295.95697
296.35842
296.6922
296.96818
297.19177
297.36488
297.49454
297.66658
297.92817
298.09182
298.17963
298.21965
298.22154
298.16538
274.02453
273.79541
272.74228
270.11013
263.92395
255.67817
255.44681
255.05103
256.04164
255.92786
256.7329
256.91207
257.63517
258.08416
258.86353
259.61475
260.58953
261.69779
263.01672
264.5751
266.38949
268.51143
270.93125
273.65157
276.58477
279.60122
282.52467
285.20606
287.54811
289.52124
291.14342
292.46018
293.5222
294.3801
295.07439
295.61958
296.06698
296.44008
296.75301
297.01369
297.22502
297.38795
297.51424
297.6999
297.95222
298.10599
298.18586
298.2207
298.21892
298.16117
274.20914
273.98498
272.90323
270.17764
263.53693
255.65746
255.7838
255.39321
256.39021
256.28633
257.09827
257.29392
258.02731
258.50019
259.29683
260.08007
261.0832
262.23346
263.59609
265.21011
267.08583
269.27698
271.76809
274.55235
277.52614
280.54526
283.42907
286.03489
288.2783
290.14304
291.65773
292.87517
293.85035
294.63581
295.27104
295.76777
296.17725
296.52226
296.81442
297.05975
297.25857
297.41096
297.53503
297.73515
297.97601
298.11948
298.19167
298.22156
298.21608
298.15697
274.4014
274.17663
273.05625
270.23478
263.12881
255.70123
256.13178
255.74457
256.7474
256.65493
257.47404
257.68802
258.43251
258.93105
259.74601
260.56282
261.59592
262.79004
264.19901
265.87137
267.81155
270.07448
272.63832
275.4846
278.49282
281.50523
284.33958
286.86183
289.00151
290.75564
292.16286
293.28235
294.17267
294.88772
295.4655
295.91484
296.28706
296.6044
296.87604
297.10607
297.29216
297.43382
297.55685
297.77225
297.99931
298.13186
298.19676
298.22221
298.2133
298.15283
274.60571
274.37484
273.20335
270.27706
262.71315
255.80974
256.48863
256.10562
257.11404
257.03464
257.86138
258.09551
258.85172
259.3772
260.21141
261.06314
262.12807
263.36817
264.82642
266.55997
268.5678
270.90502
273.54247
276.44769
279.48286
282.47831
285.25308
287.68393
289.71517
291.3569
292.65699
293.68014
294.48782
295.13472
295.65687
296.06001
296.39579
296.68604
296.93754
297.1524
297.32556
297.45657
297.58
297.81063
298.02198
298.14297
298.20092
298.22257
298.21068
298.14873
274.81615
274.57378
273.33875
270.2913
262.29939
255.9774
256.85421
256.4768
257.49135
257.42704
258.26156
258.51716
259.28514
259.83867
260.69306
261.58136
262.68018
263.96854
265.47921
267.27688
269.35557
271.76936
274.48051
277.44028
280.49356
283.46106
286.16602
288.49796
290.41654
291.94456
293.13829
294.06706
294.79458
295.3758
295.84428
296.20258
296.50285
296.76671
296.99859
297.19847
297.35858
297.47943
297.60521
297.84899
298.04394
298.15309
298.20389
298.22268
298.20816
298.14466
275.03952
274.78268
273.46851
270.26998
261.90703
256.20347
257.23139
256.86075
257.88135
257.8332
258.67478
258.9526
259.73243
260.3153
261.19126
262.1179
263.25297
264.59216
266.15859
268.02341
270.17617
272.66851
275.45249
278.46102
281.52233
284.45026
287.07522
289.30114
291.10337
292.51686
293.60538
294.44199
295.09201
295.61016
296.02705
296.34196
296.60775
296.846
297.05885
297.24406
297.39104
297.50269
297.63349
297.88557
298.06482
298.16257
298.20632
298.22226
298.20551
298.14064
275.2796
275.0067
273.59798
270.20627
261.55467
256.48187
257.62176
257.25758
258.28305
258.25183
259.09982
259.40106
260.19343
260.80744
261.70656
262.67347
263.84732
265.24007
266.8657
268.80074
271.0307
273.60311
276.45787
279.50781
282.56589
285.44218
287.97712
290.09047
291.77329
293.07199
294.05688
294.80386
295.37927
295.83708
296.20458
296.47762
296.71003
296.92355
297.11803
297.28889
297.42275
297.5266
297.66568
297.91864
298.08409
298.17167
298.2088
298.22188
298.20265
298.13666
275.53357
275.24434
273.72748
270.08743
261.25426
256.77214
258.0252
257.666
258.69474
258.6815
259.53609
259.86277
260.6688
261.31578
262.23966
263.24881
264.46429
265.91353
267.60193
269.6103
271.92051
274.57387
277.496
280.57845
283.621
286.43332
288.86855
290.86338
292.42439
293.60861
294.49182
295.15196
295.65577
296.05605
296.37641
296.60917
296.80932
296.99906
297.17584
297.3327
297.45355
297.55118
297.70157
297.94744
298.10132
298.18042
298.21172
298.22119
298.19959
298.13278
275.79682
275.49427
273.85916
269.90371
261.01766
257.13962
258.43647
258.08262
259.11623
259.12288
259.98477
260.33879
261.15937
261.84094
262.79125
263.84488
265.10509
266.61386
268.36859
270.45341
272.84667
275.58104
278.56555
281.67003
284.68382
287.41969
289.746
291.61711
293.05472
294.12543
294.90928
295.48557
295.92093
296.26659
296.54215
296.73622
296.90531
297.07226
297.23203
297.3752
297.48322
297.57626
297.7385
297.97372
298.11624
298.18812
298.21575
298.21994
298.19635
298.12906
276.06302
275.74949
273.99214
269.64431
260.84593
257.52351
258.85714
258.50925
259.54859
259.57799
260.4471
260.82999
261.66557
262.38338
263.36213
264.46276
265.7711
267.34249
269.16717
271.33161
273.81046
276.62479
279.66495
282.77945
285.75046
288.39751
290.6063
292.34933
293.66281
294.62163
295.30874
295.80425
296.17439
296.46849
296.70158
296.8585
296.99777
297.14294
297.28644
297.41614
297.51156
297.60153
297.77576
297.99804
298.12927
298.19438
298.21968
298.21757
298.19302
298.1255
276.34384
276.02291
274.14138
269.31888
260.75762
257.95901
259.29001
258.94826
259.99345
260.04662
260.92323
261.33631
262.18777
262.94376
263.95345
265.10389
266.46377
268.10085
269.99913
272.24636
274.8128
277.70465
280.79184
283.90284
286.8165
289.36269
291.4461
293.05766
294.2473
295.09648
295.68975
296.10755
296.41583
296.66163
296.85456
296.97567
297.08649
297.21092
297.33894
297.45534
297.53843
297.62674
297.81276
298.0207
298.14064
298.19902
298.22193
298.21477
298.1897
298.12204
276.63278
276.30864
274.30116
268.92406
260.74751
258.36117
259.73362
259.39918
260.45138
260.52847
261.41243
261.85793
262.72664
263.52326
264.5666
265.76967
267.18456
268.89044
270.86614
273.19937
275.85464
278.81988
281.94349
285.0362
287.87767
290.31141
292.26251
293.74046
294.80742
295.54957
296.05213
296.39535
296.6452
296.84615
297.00102
297.08746
297.17124
297.27612
297.38942
297.49276
297.56391
297.65187
297.84912
298.04152
298.15042
298.20241
298.22281
298.21233
298.18645
298.11867
276.92611
276.60158
274.46923
268.46967
260.81817
258.79218
260.18892
259.86285
260.92226
261.02505
261.91548
262.39555
263.28341
264.12335
265.20312
266.46153
267.93488
269.71279
271.76989
274.19215
276.93639
279.96893
283.11634
286.17485
288.92925
291.23966
293.05284
294.39653
295.34269
295.98027
296.39549
296.6676
296.86269
297.02216
297.14081
297.1937
297.25167
297.33846
297.43781
297.52842
297.58836
297.67741
297.8843
298.06021
298.15849
298.20479
298.22296
298.20996
298.18318
298.11537
277.23223
276.90668
274.64389
267.97165
260.95837
259.23516
260.6548
260.33907
261.40599
261.53623
262.43399
262.95074
263.85968
264.74546
265.86442
267.18078
268.71622
270.5697
272.7124
275.22636
278.05825
281.14981
284.30651
287.31409
289.96674
292.14401
293.81554
295.02584
295.853
296.38792
296.71936
296.92465
297.06897
297.18964
297.27361
297.29456
297.32742
297.3979
297.48402
297.56241
297.61241
297.70455
297.91748
298.07662
298.16465
298.20595
298.22255
298.20745
298.1798
298.11212
277.5435
277.21588
274.8117
267.43789
261.18035
259.69357
261.13187
260.82806
261.90332
262.06228
262.96945
263.52577
264.45688
265.39082
266.55163
267.92876
269.53027
271.46312
273.69564
276.30326
279.21963
282.35956
285.50931
288.44864
290.98541
293.02143
294.54992
295.62853
296.33774
296.77172
297.02304
297.16684
297.26475
297.34809
297.39895
297.39052
297.39843
297.45433
297.52795
297.59478
297.63677
297.73504
297.94748
298.09086
298.16935
298.20621
298.22199
298.20467
298.17628
298.10891
277.86571
277.53395
274.97091
266.89802
261.47177
260.16737
261.62177
261.33167
262.4151
262.60464
263.52184
264.12112
265.0763
266.06047
267.26599
268.70699
270.37902
272.39538
274.72176
277.42395
280.41941
283.59473
286.71976
289.57329
291.98117
293.8702
295.25642
296.20415
296.79541
297.13146
297.30662
297.39455
297.45022
297.49683
297.51664
297.48195
297.46533
297.50754
297.56954
297.62555
297.66164
297.76982
297.9738
298.10331
298.17317
298.20594
298.22109
298.20155
298.17256
298.10573
278.19657
277.86058
275.11074
266.37171
261.83078
260.6566
262.12483
261.85033
262.94187
263.16422
264.09328
264.73698
265.71884
266.75552
268.00892
269.51734
271.26482
273.36892
275.79273
278.58886
281.65555
284.85088
287.93213
290.68253
292.95034
294.68959
295.93477
296.7496
297.22426
297.46698
297.57179
297.60795
297.62411
297.63635
297.62693
297.56819
297.52962
297.55723
297.60879
297.65474
297.68568
297.80716
297.99793
298.11442
298.17647
298.20542
298.21927
298.19809
298.16866
298.10254
278.53529
278.1993
275.22156
265.88474
262.25076
261.16053
262.64125
262.38477
263.48469
263.74263
264.68543
265.37439
266.38529
267.47715
268.78223
270.36213
272.1903
274.38634
276.91036
279.79791
282.92529
286.12302
289.14055
291.77147
293.89066
295.47995
296.58242
297.26215
297.62298
297.77929
297.82074
297.80742
297.78574
297.76911
297.72982
297.64732
297.59257
297.60331
297.6457
297.68236
297.71179
297.84559
298.0209
298.12453
298.17895
298.20421
298.21692
298.19435
298.16456
298.09935
278.87532
278.54735
275.29068
265.47463
262.71287
261.67899
263.17182
262.93634
264.04553
264.34113
265.29915
266.03537
267.07633
268.22691
269.58836
271.2441
273.15825
275.45013
278.07599
281.05008
284.22471
287.4052
290.33879
292.83559
294.80084
296.24051
297.19456
297.73929
297.99151
298.07086
298.05476
297.99368
297.93728
297.89342
297.82559
297.72046
297.65295
297.64635
297.68028
297.70874
297.73854
297.88404
298.04284
298.13394
298.1807
298.20234
298.21437
298.19036
298.16026
298.09612
279.21104
278.90372
275.30847
265.1465
263.1883
262.21379
263.71883
263.50697
264.62572
264.96092
265.93527
266.72042
267.79371
269.00691
270.43027
272.16622
274.17157
276.56271
279.29046
282.34354
285.54909
288.69115
291.52105
293.87165
295.68078
296.96713
297.76782
298.17943
298.33379
298.34594
298.27178
298.16712
298.07888
298.01016
297.91451
297.78819
297.70921
297.68758
297.7124
297.73418
297.76614
297.92135
298.06329
298.14288
298.18241
298.20012
298.2117
298.1861
298.15575
298.09285
279.54264
279.27117
275.27188
264.8924
263.70408
262.76611
264.28326
264.09744
265.22515
265.60212
266.59382
267.43017
268.54084
269.82009
271.31116
273.13159
275.23303
277.72613
280.55378
283.67528
286.89264
289.97396
292.68177
294.8773
296.52951
297.65384
298.299
298.58439
298.65661
298.60089
298.47318
298.32821
298.21128
298.11934
297.99732
297.8511
297.7597
297.728
297.742
297.75905
297.79482
297.95611
298.08168
298.15111
298.18454
298.19823
298.20867
298.18152
298.15106
298.08954
279.86919
279.64995
275.18222
264.73204
264.24248
263.33559
264.8642
264.70737
265.84301
266.26588
267.27634
268.16694
269.32081
270.66977
272.23419
274.14326
276.34537
278.94213
281.86523
285.04132
288.24897
291.24697
293.8165
295.85158
297.34252
298.29608
298.78726
298.96207
298.95797
298.83705
298.65928
298.47762
298.33485
298.22146
298.07428
297.90914
297.80564
297.76655
297.7695
297.78392
297.82608
297.98688
298.09734
298.15773
298.18634
298.19687
298.2048
298.17665
298.14624
298.08618
280.18379
280.03636
275.04204
264.66282
264.80365
263.92198
265.46185
265.33742
266.48149
266.95298
267.98535
268.93436
270.13641
271.55936
273.20257
275.20427
277.51112
280.21182
283.22291
286.43638
289.61075
292.50346
294.92159
296.79345
298.11251
298.89029
299.23554
299.31795
299.23627
299.05475
298.83098
298.61596
298.45009
298.31682
298.14557
297.96237
297.84748
297.80228
297.7959
297.80908
297.86054
298.01271
298.11025
298.16274
298.18738
298.19584
298.20057
298.17161
298.14128
298.08281
280.48003
280.42626
274.86087
264.69627
265.38641
264.52656
266.07743
265.98917
267.14242
267.6666
268.72446
269.73601
270.9912
272.49198
274.21948
276.31767
278.73264
281.53557
284.62381
287.85421
290.97056
293.73769
295.99475
297.69931
298.8331
299.43524
299.65347
299.64867
299.49286
299.25505
298.98901
298.74392
298.55747
298.40583
298.21139
298.01127
297.88574
297.83419
297.82217
297.83439
297.8938
298.03487
298.1209
298.16646
298.1877
298.19512
298.19615
298.16644
298.13616
298.07943
280.75974
280.81331
274.65018
264.83787
265.99391
265.15127
266.71266
266.66556
267.82892
268.41063
269.49773
270.57543
271.88829
273.47061
275.2881
277.48655
280.01184
282.91273
286.06344
289.28742
292.32064
294.94464
297.03433
298.56062
299.50043
299.93403
300.04624
299.9531
299.72841
299.43877
299.13417
298.86212
298.65746
298.4888
298.27184
298.05596
297.9207
297.86322
297.84798
297.85956
297.92589
298.05403
298.1297
298.16925
298.1876
298.1942
298.19142
298.16123
298.13095
298.07608
281.0297
281.19057
274.42721
265.08846
266.62436
265.79864
267.37079
267.37122
268.54505
269.18902
270.30884
271.45554
272.83059
274.4984
276.41178
278.71399
281.35014
284.3415
287.53609
290.728
293.65389
296.12049
298.03792
299.36901
300.11229
300.39695
300.41075
300.23259
299.94415
299.60695
299.26729
298.97123
298.75054
298.56608
298.32704
298.09643
297.95231
297.89021
297.87322
297.88443
297.95559
298.07052
298.1368
298.17127
298.1872
298.19311
298.18602
298.15597
298.12566
298.07276
281.28947
281.54591
274.21294
265.44541
267.27971
266.47327
268.05668
268.10963
269.29572
270.0047
271.16029
272.379
273.82147
275.57893
277.59394
280.00286
282.74809
285.81855
289.03457
292.1673
294.96367
297.26201
298.99715
300.11937
300.67033
300.83146
300.74511
300.48812
300.14112
299.76047
299.38915
299.07188
298.83715
298.63791
298.37699
298.13285
297.98103
297.9155
297.89749
297.90806
297.98284
298.08467
298.14221
298.17201
298.18623
298.19155
298.18064
298.15065
298.12035
298.06947
281.54988
281.87187
274.0347
265.90111
267.96576
267.18183
268.77464
268.88395
270.0823
270.85908
272.05405
273.34845
274.8656
276.71619
278.83796
281.3556
284.20514
287.33907
290.55076
293.59694
296.24453
298.36672
299.90239
300.80856
301.18516
301.23445
301.05105
300.72112
300.32055
299.90036
299.50054
299.16469
298.91771
298.70458
298.42173
298.16552
298.00724
297.93922
297.9206
297.92973
298.00767
298.09678
298.14649
298.17215
298.18449
298.18964
298.17532
298.14524
298.11517
298.06615
281.82501
282.15948
273.91528
266.40279
268.68655
267.92576
269.52456
269.69443
270.90539
271.7541
272.99336
274.36782
275.9674
277.91447
280.14709
282.77386
285.71919
288.89643
292.07537
295.00872
297.49156
299.42863
300.74505
301.43603
301.66637
301.60391
301.32963
300.93287
300.48352
300.02751
299.60224
299.25025
298.99263
298.76629
298.46133
298.19479
298.03129
297.96149
297.94272
297.94989
298.02999
298.10707
298.14989
298.17198
298.18242
298.18747
298.16987
298.13981
298.11018
298.06278
282.13197
282.40184
273.87675
266.9329
269.43482
268.70171
270.30277
270.5427
271.76856
272.69382
273.98285
275.44246
277.1304
279.17774
281.5245
284.25841
287.28655
290.4826
293.59892
296.39554
298.70109
300.43672
301.52147
302.01109
302.11305
301.94076
301.58256
301.12481
300.63124
300.1429
299.69499
299.32916
299.06233
298.82334
298.49583
298.22097
298.05348
297.98224
297.9641
297.97196
298.04944
298.11571
298.15238
298.17127
298.17988
298.18506
298.1643
298.13443
298.10538
298.05937
282.45598
282.57234
273.91498
267.61443
270.20765
269.51161
271.11532
271.43146
272.67689
273.6829
275.02739
276.57709
278.35824
280.51004
282.97293
285.80859
288.90146
292.08795
295.11162
297.75066
299.86856
301.37988
302.2289
302.54451
302.523
302.24645
301.81135
301.29827
300.76478
300.24739
299.77951
299.40197
299.12726
298.87605
298.52517
298.24437
298.07423
298.00237
297.9849
297.9946
298.06586
298.12298
298.15399
298.16978
298.17678
298.18243
298.15864
298.12916
298.10077
298.05597
282.81989
282.68645
274.05153
268.36113
271.01519
270.36539
271.96942
272.36738
273.63562
274.72579
276.13076
277.77532
279.65592
281.91559
284.4945
287.42206
290.55634
293.70213
296.60458
299.06835
300.98398
302.25204
302.87282
303.0408
302.8956
302.5229
302.01772
301.45468
300.88529
300.3419
299.85653
299.46925
299.18785
298.92475
298.5494
298.26533
298.09374
298.02175
298.005
298.01706
298.08049
298.12923
298.15523
298.16814
298.17331
298.1795
298.153
298.12403
298.09634
298.05268
283.22331
282.74621
274.28473
269.17574
271.86094
271.26589
272.87063
273.35515
274.64894
275.8265
277.29811
279.04069
281.02793
283.39872
286.09002
289.09411
292.24152
295.31397
298.06934
300.34336
302.03444
303.04902
303.46503
303.49696
303.23283
302.77188
302.20327
301.59534
300.99379
300.42724
299.9267
299.5315
299.24433
298.96924
298.56899
298.28426
298.1124
298.04078
298.02444
298.03843
298.09338
298.13457
298.15629
298.16696
298.17056
298.17516
298.14746
298.11909
298.09208
298.04955
283.68394
282.73511
274.62134
269.99224
272.74963
272.21887
273.82065
274.39705
275.7205
276.98963
278.53547
280.37808
282.47978
284.96314
287.75831
290.81758
293.94584
296.91266
299.49821
301.56842
303.00898
303.7716
304.01627
303.91053
303.53672
302.99542
302.36968
301.7216
301.09135
300.50425
299.99069
299.58921
299.29677
299.00866
298.58524
298.3016
298.13043
298.05925
298.04309
298.05806
298.10464
298.13903
298.15715
298.16603
298.16862
298.17016
298.14198
298.11434
298.088
298.04659
284.21089
282.65571
275.06917
270.89422
273.67782
273.22544
274.82186
275.49584
276.85512
278.22024
279.84767
281.79729
284.01752
286.61089
289.49542
292.58269
295.65687
298.48769
300.88383
302.72882
303.9029
304.43155
304.52303
304.28405
303.80939
303.19539
302.5185
301.83466
301.1789
300.57369
300.0491
299.64277
299.34513
299.04215
298.59959
298.31771
298.14809
298.07732
298.06084
298.07597
298.11441
298.14259
298.15749
298.16506
298.16691
298.16498
298.13658
298.10979
298.08406
298.04378
284.83571
282.50622
275.61629
271.84998
274.64774
274.28679
275.87877
276.65717
278.06015
279.52628
281.24471
283.30564
285.64561
288.34138
291.29449
294.37755
297.36188
300.02924
302.21921
303.81117
304.71318
305.04221
304.98321
304.61955
304.05319
303.37381
302.65134
301.93579
301.25743
300.63634
300.10253
299.69253
299.38957
299.07082
298.61192
298.33286
298.16546
298.09492
298.07764
298.09217
298.1229
298.14548
298.15751
298.16387
298.16531
298.15954
298.13129
298.10539
298.08022
298.04111
285.57538
282.32674
276.26246
272.8675
275.66585
275.41114
277.00008
277.88954
279.34471
280.91655
282.73686
284.90991
287.36605
290.15096
293.14559
296.18851
299.04817
301.52754
303.49126
304.80695
305.44882
305.60436
305.39756
304.91961
304.27032
303.53251
302.76964
302.0261
301.32781
300.69289
300.15153
299.73879
299.43018
299.09516
298.62277
298.34722
298.18248
298.11252
298.09346
298.10668
298.1304
298.14793
298.15729
298.16239
298.16384
298.15385
298.12614
298.10112
298.07647
298.03855
286.40022
282.13993
277.03095
273.95781
276.73775
276.60717
278.1961
279.20332
280.71943
282.40242
284.33116
286.61395
289.17798
292.03283
295.03634
298.00111
300.70389
302.97408
304.68421
305.71158
306.12377
306.11569
305.7688
305.18687
304.46316
303.6734
302.87488
302.10671
301.3909
300.74403
300.19658
299.78181
299.4672
299.11582
298.63246
298.36091
298.19874
298.12972
298.10838
298.11946
298.13694
298.15006
298.15683
298.16062
298.16227
298.14837
298.12109
298.09695
298.07279
298.03608
287.34719
281.95298
277.90568
275.1444
277.87692
277.88473
279.47915
280.61025
282.19549
283.99308
286.03145
288.41904
291.07772
293.97704
296.95201
299.8004
302.3171
304.3578
305.78441
306.5285
306.74593
306.57474
306.09969
305.42392
304.63385
303.79819
302.96837
302.17864
301.4475
300.79039
300.23815
299.82184
299.50084
299.13325
298.64132
298.37407
298.21418
298.14607
298.12267
298.13025
298.14212
298.15123
298.15593
298.15844
298.16052
298.1429
298.11613
298.09285
298.06917
298.03371
288.49018
281.73835
278.86735
276.41842
279.09997
279.25814
280.863
282.12165
283.78151
285.69252
287.84017
290.32432
293.05867
295.97063
298.87642
301.572
303.87646
305.66036
306.78635
307.27244
307.31208
306.98504
306.39337
305.63356
304.78465
303.90863
303.05145
302.24289
301.4984
300.8326
300.27666
299.85909
299.53141
299.14797
298.6496
298.38676
298.22908
298.16185
298.13654
298.13871
298.14611
298.15185
298.1549
298.15635
298.1579
298.13743
298.11125
298.08881
298.06561
298.03142
289.78757
281.54729
279.97316
277.79362
280.41717
280.73875
282.35951
283.74646
285.48412
287.50173
289.75781
292.32709
295.1111
297.99771
300.79226
303.30139
305.37022
306.86508
307.68818
307.95774
307.81899
307.34961
306.65292
305.81835
304.91758
304.00627
303.1253
302.30036
301.5443
300.8712
300.31249
299.89377
299.55916
299.16043
298.65765
298.39917
298.24336
298.17662
298.14978
298.14532
298.1492
298.15208
298.15381
298.15436
298.15441
298.13196
298.10644
298.08479
298.0621
298.02923
291.23436
281.40311
281.18979
279.28874
281.84129
282.33473
283.97658
285.48804
287.30548
289.4259
291.78507
294.42171
297.22147
300.03991
302.68206
304.974
306.77975
307.96353
308.50485
308.58046
308.27093
307.67213
306.8816
305.98096
305.03473
304.0927
303.19111
302.35197
301.58591
300.90675
300.34599
299.9261
299.58443
299.17108
298.66593
298.41166
298.25714
298.18973
298.16117
298.15142
298.15161
298.15216
298.15256
298.15246
298.1503
298.12651
298.10167
298.08079
298.05866
298.02713
292.81833
281.32372
282.51212
280.90856
283.3822
284.0494
285.71708
287.3482
289.2521
291.47067
293.92046
296.59806
299.37191
302.07667
304.52793
306.57527
308.08528
308.95063
309.25421
309.13714
308.67111
307.95615
307.08244
306.12376
305.13792
304.16929
303.24991
302.39851
301.62386
300.93973
300.3775
299.95632
299.60755
299.18035
298.67485
298.4245
298.27077
298.20156
298.16972
298.15741
298.15334
298.15198
298.15113
298.15064
298.14555
298.12108
298.09694
298.07679
298.05528
298.02512
294.48913
281.40208
283.96446
282.65599
285.04328
285.88373
287.58336
289.33142
291.33515
293.64019
296.15789
298.84058
301.54106
304.08679
306.31204
308.08675
309.27482
309.84088
309.93338
309.63167
309.02393
308.20552
307.25858
306.24924
305.22902
304.23745
303.30277
302.44078
301.65878
300.9706
300.40734
299.98473
299.62902
299.1887
298.68472
298.43755
298.28372
298.21217
298.17705
298.16183
298.15502
298.1517
298.1497
298.14869
298.14035
298.11566
298.09224
298.07279
298.05197
298.02319
296.10967
281.78131
285.53924
284.52811
286.82886
287.84468
289.58577
291.45535
293.55685
295.932
298.48473
301.12759
303.70421
306.04824