/*--------------------------------*- C++ -*----------------------------------*\
  =========                 |
  \\      /  F ield         | OpenFOAM: The Open Source CFD Toolbox
   \\    /   O peration     | Website:  https://openfoam.org
    \\  /    A nd           | Version:  8
     \\/     M anipulation  |
\*---------------------------------------------------------------------------*/
FoamFile
{
    version     2.0;
    format      ascii;
    class       volVectorField;
    location    "0.120004";
    object      U;
}
// * * * * * * * * * * * * * * * * * * * * * * * * * * * * * * * * * * * * * //

dimensions      [0 1 -1 0 0 0 0];

internalField   nonuniform List<vector> 
20000
(
(254.99624 -3.4954096e-20 9.5457821)
(296.8915 1.8955006e-16 11.536738)
(323.61514 0 12.447612)
(346.14949 0 13.199447)
(366.49578 0 13.808289)
(384.4377 7.4042813e-19 14.277675)
(394.17823 -7.8500699e-17 14.079485)
(396.31282 6.6167688e-17 14.592209)
(394.99038 -5.5531986e-17 13.788391)
(395.6088 4.7490424e-17 14.615699)
(394.55129 0 13.480108)
(394.6288 -1.8795853e-18 14.438907)
(393.67294 0 13.202258)
(393.27099 1.7369877e-19 14.040636)
(392.21575 0 12.867724)
(391.31562 -3.872127e-18 13.402843)
(389.94727 0 12.34568)
(388.4439 -6.7001529e-19 12.478258)
(386.50742 -1.1162167e-18 11.479875)
(384.19396 0 11.163717)
(381.35808 6.2509546e-18 10.093656)
(377.90458 -5.1078541e-18 9.308716)
(373.73685 8.673769e-18 8.0344783)
(368.69342 -2.1315986e-17 6.8168929)
(362.68768 -2.0764562e-17 5.3330984)
(355.57968 1.7462184e-17 3.9063173)
(347.36127 -5.2298912e-17 2.5247506)
(338.10162 -1.0237789e-17 1.4485813)
(328.101 -1.0837869e-17 0.74506481)
(317.84223 -1.731453e-17 0.45164449)
(307.9603 -3.2524794e-17 0.45606769)
(298.99417 -4.3394965e-17 0.64863295)
(291.25174 8.9501246e-17 0.93118156)
(284.79936 3.1721713e-17 1.233827)
(279.55371 8.4147614e-17 1.5138402)
(275.36202 -1.6410106e-17 1.7286864)
(272.05468 0 1.8602038)
(269.4678 0 1.9068523)
(267.45425 8.8153874e-19 1.8643732)
(265.88065 1.9697357e-17 1.7529602)
(264.67134 -1.5491805e-17 1.5958848)
(263.75171 -6.8736379e-17 1.4173294)
(263.05533 1.1879487e-16 1.2324848)
(262.54916 3.8910704e-19 1.0211084)
(262.13023 0 0.7256678)
(261.57665 -2.1334719e-19 0.34803142)
(261.0417 1.5954363e-19 0.037105952)
(260.76357 -6.1811191e-17 -0.1196959)
(260.95007 0 -0.19626427)
(260.64992 0 -0.76524189)
(255.38267 -2.7277265e-16 8.5465382)
(297.4587 1.9236816e-16 10.369319)
(324.27682 -1.5498153e-16 11.153687)
(346.88142 2.6390313e-16 11.803161)
(367.25747 -1.1404579e-16 12.325036)
(385.17415 -2.2567979e-18 12.717944)
(394.10302 -1.8859289e-18 12.450536)
(396.03202 0 13.006623)
(394.63925 5.4748392e-17 12.130555)
(395.27056 -2.1912341e-17 13.030857)
(394.17376 -1.9577255e-17 11.806145)
(394.24848 2.0367773e-18 12.836417)
(393.25964 0 11.507988)
(392.84143 0 12.396237)
(391.74669 6.5381955e-21 11.142162)
(390.81032 -1.968979e-18 11.697639)
(389.3934 1.7396675e-18 10.573358)
(387.8332 -8.5113928e-20 10.695166)
(385.83069 0 9.6369475)
(383.43655 -7.649268e-18 9.2827167)
(380.50921 -1.271051e-17 8.1521618)
(376.94947 -5.2101372e-18 7.3102359)
(372.6647 0 5.9724408)
(367.49816 5.8391597e-17 4.6920696)
(361.37342 -7.1072428e-20 3.1528372)
(354.17485 9.8019592e-18 1.6859063)
(345.92739 1.607336e-17 0.29936042)
(336.74379 -2.732505e-17 -0.72828814)
(326.93751 3.3378916e-17 -1.3092739)
(316.95418 -7.2152069e-17 -1.4007576)
(307.34549 0 -1.1309914)
(298.59459 -4.6281235e-17 -0.64870119)
(291.0011 -5.4281358e-17 -0.091211939)
(284.64567 1.4547847e-17 0.44765714)
(279.463 -1.0896898e-16 0.91965751)
(275.31374 0 1.2855664)
(272.03212 -2.5368264e-17 1.5332041)
(269.46161 -1.3309443e-16 1.6675909)
(267.45647 0 1.690139)
(265.88728 1.6855934e-16 1.6272825)
(264.67975 0 1.5065494)
(263.75957 1.148553e-16 1.3547279)
(263.06389 -4.3948764e-16 1.1915164)
(262.56085 -1.8661844e-16 0.9946215)
(262.13568 0 0.70106459)
(261.49887 2.1746968e-16 0.32004029)
(260.95736 0 0.018854114)
(260.78138 6.110279e-17 -0.11879989)
(260.88019 9.3533102e-17 -0.19403744)
(260.70707 5.7156484e-19 -0.74251181)
(255.35625 -2.7933621e-16 7.5125606)
(297.65769 0 9.1881936)
(324.66278 -1.6064806e-16 9.8713298)
(347.42117 1.3462384e-16 10.433371)
(367.88242 5.8672591e-17 10.869199)
(385.81433 -9.6508383e-17 11.183438)
(393.92658 4.2235904e-17 10.834096)
(395.67199 2.1485302e-18 11.425888)
(394.23735 1.7954899e-18 10.469814)
(394.88607 7.7439565e-21 11.434965)
(393.74948 2.000287e-17 10.116169)
(393.82426 5.5364476e-20 11.208197)
(392.79804 5.5843565e-20 9.7908774)
(392.36077 -1.7316367e-17 10.720843)
(391.22765 4.8137299e-18 9.3934978)
(390.2536 -1.0075044e-18 9.9606942)
(388.78882 8.3392029e-19 8.7765897)
(387.17042 2.8037774e-18 8.8804857)
(385.10153 -2.3115866e-18 7.7677221)
(382.62465 0 7.3710237)
(379.6042 2.5734334e-17 6.1837111)
(375.93341 0 5.2835597)
(371.52524 0 3.8864856)
(366.22329 -2.95588e-17 2.5476089)
(359.96219 4.9364788e-17 0.96313577)
(352.64582 -1.0350771e-17 -0.52834669)
(344.33317 8.2318012e-18 -1.897299)
(335.17884 4.0976662e-17 -2.8525449)
(325.51779 -7.9478952e-17 -3.2948379)
(315.77511 -5.5136704e-17 -3.1834191)
(306.43983 8.8492124e-17 -2.6608952)
(297.93533 1.048755e-16 -1.9062363)
(290.53432 0 -1.0885057)
(284.31952 0 -0.32330185)
(279.23711 0 0.33453167)
(275.16174 3.0324078e-16 0.84749619)
(271.93249 1.7848975e-16 1.208378)
(269.39762 4.5898516e-16 1.4283076)
(267.41428 -2.8588032e-17 1.5144355)
(265.8596 1.9041501e-16 1.4993907)
(264.66152 2.5003571e-16 1.4145119)
(263.74607 -2.3031195e-17 1.2890695)
(263.05657 5.5800727e-16 1.1478119)
(262.56182 -1.739461e-16 0.96491012)
(262.11924 -1.8272854e-17 0.66920196)
(261.41525 -2.1626521e-16 0.28763807)
(260.93346 -3.2176083e-16 0.0021992756)
(260.7858 -7.5504271e-18 -0.11895591)
(260.84219 -8.6236753e-17 -0.19185669)
(260.72488 -2.2335226e-18 -0.72260339)
(255.36436 1.1076567e-18 6.4658988)
(297.9043 1.5697543e-18 7.9816773)
(325.08071 2.5321281e-18 8.5557893)
(347.97806 0 9.0219737)
(368.50269 5.89559e-17 9.3633544)
(386.40876 -5.3026899e-17 9.5986888)
(393.66904 0 9.1759901)
(395.27196 -3.7192768e-17 9.8104408)
(393.78841 2.5602862e-17 8.7739547)
(394.45122 -2.7418978e-17 9.8099821)
(393.27362 -5.8947741e-20 8.396866)
(393.34611 1.6904851e-17 9.556348)
(392.28266 3.8099954e-21 8.0497785)
(391.82549 -8.8390107e-18 9.0235593)
(390.65276 -1.2172787e-18 7.6225148)
(389.63974 -1.0194217e-18 8.202335)
(388.12537 -3.4279888e-18 6.9589157)
(386.44651 -1.9970339e-17 7.0451342)
(384.30841 4.7692977e-18 5.8791919)
(381.74517 4.0342809e-18 5.4408804)
(378.62713 -3.9521067e-17 4.199526)
(374.83938 -3.8488547e-17 3.2439528)
(370.30034 0 1.792591)
(364.85321 -6.0688642e-17 0.40203022)
(358.44398 -4.9979649e-17 -1.2171225)
(350.99563 0 -2.718062)
(342.60205 0 -4.0499291)
(333.45903 -1.4311623e-17 -4.9128143)
(323.92576 1.0274006e-16 -5.2029999)
(314.4134 1.4829111e-16 -4.8877137)
(305.35713 -1.1906133e-16 -4.1235546)
(297.12169 -2.3959538e-17 -3.1132654)
(289.94525 1.835714e-17 -2.05128)
(283.90239 0 -1.0719866)
(278.94638 2.2400032e-17 -0.23652429)
(274.96426 1.7477928e-17 0.41820057)
(271.80124 -2.3071623e-16 0.88884501)
(269.31179 -3.0781123e-16 1.1921097)
(267.35757 0 1.3405269)
(265.8224 -3.3983282e-16 1.3726316)
(264.63708 -2.8205688e-16 1.3231511)
(263.7287 4.6067914e-17 1.2235776)
(263.04753 2.7063849e-16 1.1042763)
(262.56019 -4.0941542e-16 0.9350979)
(262.08809 0 0.63578619)
(261.34722 -4.1681496e-16 0.25576632)
(260.91375 3.0910286e-16 -0.011951612)
(260.78473 -7.4613528e-18 -0.1193308)
(260.81136 5.6536987e-18 -0.18926303)
(260.74405 0 -0.70048323)
(255.3563 -1.4482137e-16 5.4130037)
(298.12253 1.0234599e-16 6.7528302)
(325.46972 -1.2904246e-18 7.2214011)
(348.5108 2.1951221e-18 7.5913648)
(369.0969 1.881707e-18 7.8323496)
(386.93275 -4.4516655e-17 7.990057)
(393.32269 8.2488272e-17 7.4976308)
(394.81901 4.5220329e-18 8.1781246)
(393.28952 -2.608654e-17 7.0597728)
(393.96598 0 8.1669652)
(392.74758 1.0380452e-17 6.6565292)
(392.81686 -8.6397909e-18 7.8834024)
(391.71539 2.5225543e-17 6.2871598)
(391.23649 1.048822e-17 7.3036828)
(390.02301 -6.1987723e-19 5.8306859)
(388.9685 -2.6116222e-18 6.4213718)
(387.40226 -2.614623e-17 5.1208604)
(385.65942 2.3131968e-17 5.1876317)
(383.44836 3.8734383e-17 3.9709723)
(380.79417 0 3.490707)
(377.57297 -2.7034348e-17 2.1981262)
(373.66125 3.3217498e-17 1.188682)
(368.98254 9.1624585e-18 -0.31253762)
(363.37983 7.7074738e-17 -1.7489401)
(356.8105 -2.556121e-17 -3.3926878)
(349.21782 2.1143895e-17 -4.8881835)
(340.73163 9.2091999e-18 -6.1631549)
(331.5883 -1.2906595e-16 -6.9130015)
(322.1707 0 -7.0358177)
(312.87979 1.5159467e-16 -6.512336)
(304.10502 0 -5.5139312)
(296.15496 -2.4269297e-17 -4.2625364)
(289.22816 3.7592249e-17 -2.9719837)
(283.38418 -2.4870835e-16 -1.7917686)
(278.57874 0 -0.7882979)
(274.70952 -2.3932795e-16 0.0015099831)
(271.62813 -4.3925727e-16 0.5772303)
(269.19537 0 0.96061207)
(267.27873 0 1.1692753)
(265.76923 0 1.2473402)
(264.60108 5.0264676e-16 1.2325363)
(263.70309 -2.308911e-17 1.1583068)
(263.03376 1.6940169e-17 1.06071)
(262.55289 7.6765166e-16 0.90390139)
(262.03653 5.9940937e-16 0.60084832)
(261.29408 8.5542494e-16 0.2243081)
(260.89903 0 -0.02467443)
(260.77808 -1.4743703e-17 -0.11997018)
(260.79288 1.6683537e-17 -0.18627203)
(260.75657 -2.7986559e-16 -0.67808225)
(255.34018 0 4.3603897)
(298.33038 1.0280619e-16 5.4922031)
(325.8454 -1.6877689e-16 5.852334)
(349.03128 1.386819e-16 6.128221)
(369.67642 -6.3223921e-17 6.2624483)
(387.37159 -3.2366175e-17 6.3483025)
(392.89122 4.6100175e-17 5.788484)
(394.31924 -4.0821634e-17 6.5190031)
(392.74392 1.51782e-17 5.3183652)
(393.43224 6.3245442e-18 6.5004672)
(392.17273 -5.2500959e-18 4.8920635)
(392.23705 2.195252e-17 6.1880813)
(391.09681 -1.4642525e-17 4.5031517)
(390.59429 -1.1476417e-17 5.5618433)
(389.33852 -6.3522117e-19 4.01852)
(388.23978 0 4.618417)
(386.61887 2.8277406e-17 3.2627716)
(384.80818 0 3.3086193)
(382.51989 1.9892949e-19 2.0436579)
(379.76954 -8.2625332e-18 1.5213054)
(376.43854 7.5032158e-17 0.18015242)
(372.39477 -1.1244893e-17 -0.88142211)
(367.56663 -8.5512713e-17 -2.4279305)
(361.79764 7.74086e-18 -3.903881)
(355.05714 0 -5.5616122)
(347.31099 1.0970174e-17 -7.0361372)
(338.72658 -8.7127271e-18 -8.2341927)
(329.58026 1.3103877e-16 -8.8505808)
(320.27652 -2.2662247e-16 -8.7909636)
(311.20622 -1.5370352e-16 -8.0543179)
(302.71716 1.5092336e-17 -6.8276156)
(295.06491 2.4578705e-17 -5.3483916)
(288.40683 -3.8038588e-17 -3.8447358)
(282.78279 2.5080356e-16 -2.477451)
(278.14746 0 -1.3166436)
(274.40727 1.7323335e-17 -0.39945697)
(271.42011 4.0308803e-16 0.27583132)
(269.05349 6.2300062e-16 0.73551528)
(267.18167 -4.6304404e-16 1.0019438)
(265.70314 -7.0592717e-16 1.1244409)
(264.55591 -4.8786033e-16 1.1434057)
(263.67138 0 1.094012)
(263.01715 -5.2368975e-16 1.0174317)
(262.54095 1.2389928e-17 0.87097529)
(261.97043 -5.9686227e-16 0.56537216)
(261.24955 -4.1175545e-16 0.19413687)
(260.883 -6.3692849e-16 -0.036226455)
(260.77055 4.6595758e-16 -0.12062668)
(260.78104 0 -0.18291527)
(260.76707 9.2650209e-21 -0.65515663)
(255.31064 0 3.2813947)
(298.52159 0 4.2290848)
(326.2027 -4.3061294e-17 4.4579934)
(349.53523 3.8779125e-17 4.6428582)
(370.23886 0 4.6648886)
(387.73931 6.5847719e-18 4.6864919)
(392.37478 1.6588601e-17 4.0596805)
(393.77198 -1.8459788e-17 4.8406787)
(392.15207 7.7433485e-18 3.5562956)
(392.85104 -1.9273255e-17 4.8155095)
(391.5505 -5.3626765e-18 3.1070912)
(391.6084 -8.9280041e-18 4.4720798)
(390.42858 1.5899971e-17 2.6989009)
(389.90031 -1.0173572e-17 3.7982823)
(388.60052 -2.3393666e-17 2.1862565)
(387.45446 4.3422565e-18 2.793204)
(385.77585 -3.5914908e-18 1.3846429)
(383.89332 -6.047114e-18 1.4079984)
(381.52337 -8.5333348e-17 0.097284292)
(378.67126 7.5324374e-17 -0.467395)
(375.22327 5.5852924e-17 -1.8545495)
(371.03878 0 -2.9665179)
(366.05105 7.6840016e-17 -4.5535889)
(360.10504 -1.6253766e-17 -6.0624218)
(353.18301 1.3061246e-17 -7.7228632)
(345.27642 0 -9.1600147)
(336.5921 -1.8437101e-17 -10.260627)
(327.44533 1.4547294e-17 -10.723288)
(318.25882 2.1717064e-16 -10.466522)
(309.41195 -3.8911227e-17 -9.5114592)
(301.21332 1.5322601e-17 -8.0613815)
(293.86852 0 -6.3665572)
(287.49362 0 -4.6648375)
(282.1062 0 -3.1246138)
(277.65715 -2.3005557e-17 -1.817839)
(274.05999 5.7383049e-16 -0.78177764)
(271.17843 -2.6262194e-17 -0.013164153)
(268.88668 3.9504297e-17 0.51840482)
(267.06644 8.8607785e-16 0.83966023)
(265.62391 7.2915175e-16 1.004711)
(264.50125 -1.5733558e-17 1.0563007)
(263.63345 -7.390901e-16 1.0311768)
(262.99761 0 0.97427294)
(262.52426 -2.4673782e-17 0.83605395)
(261.89615 1.7988744e-17 0.5295219)
(261.20749 0 0.16577074)
(260.86627 6.2139087e-16 -0.046746799)
(260.76327 -4.6017345e-16 -0.12108444)
(260.77542 -5.3794179e-18 -0.17924421)
(260.7759 2.653722e-16 -0.63206165)
(255.28015 0 2.0654178)
(298.70223 0 2.9874665)
(326.54662 2.1965653e-17 3.0422621)
(350.02653 -1.8617125e-17 3.1334113)
(370.78953 -1.5950263e-17 3.0354752)
(388.03107 -3.3610027e-18 3.0009843)
(391.79562 2.8145524e-17 2.3108509)
(393.18095 -1.8809298e-17 3.1415321)
(391.51708 7.8641021e-18 1.7707828)
(392.22474 -1.6379658e-18 3.1101664)
(390.88278 1.2324469e-17 1.3007713)
(390.93234 0 2.7345554)
(389.7119 -3.0410849e-17 0.87422971)
(389.15546 2.5283791e-17 2.0126267)
(387.80974 2.6397803e-17 0.33379228)
(386.61314 3.093827e-17 0.94544069)
(384.87375 -7.384663e-18 -0.5135775)
(382.91534 -6.2311821e-18 -0.51415606)
(380.45906 4.0599366e-17 -1.8680642)
(377.4991 8.8521786e-18 -2.4755744)
(373.92622 -7.0862337e-17 -3.9062908)
(369.59182 2.3612539e-17 -5.0666998)
(364.43399 6.922079e-17 -6.6892246)
(358.30023 -1.3121457e-16 -8.2235895)
(351.1873 0 -9.874476)
(343.1158 0 -11.256694)
(334.3339 0 -12.238726)
(325.19427 1.5371584e-17 -12.52767)
(316.1336 -3.7010926e-17 -12.059841)
(307.51698 1.9455513e-17 -10.881613)
(299.6147 0 -9.2128592)
(292.5851 0 -7.3140466)
(286.50415 0 -5.428902)
(281.36596 -3.0339148e-17 -3.7299297)
(277.11588 -6.9325514e-16 -2.288962)
(273.67318 -3.419746e-17 -1.1430784)
(270.90674 1.3103982e-17 -0.2879202)
(268.69737 -6.4862298e-16 0.31065796)
(266.93467 -4.5191102e-16 0.68343395)
(265.5326 2.1537569e-17 0.88887166)
(264.43785 -1.5755651e-17 0.97172686)
(263.59005 7.3900136e-16 0.97019739)
(262.97549 -1.0788366e-15 0.93123421)
(262.5027 2.4605587e-17 0.79914723)
(261.81777 -5.9179729e-16 0.49333517)
(261.16523 0 0.13949529)
(260.84863 -6.1567179e-16 -0.056178389)
(260.75651 4.5442379e-16 -0.12121132)
(260.77241 6.8223887e-16 -0.17525181)
(260.78408 -3.9909043e-18 -0.60888325)
(255.25358 2.4491856e-18 0.89509171)
(298.87925 -3.465714e-18 1.7141718)
(326.88468 0 1.5971555)
(350.50911 0 1.6021845)
(371.33295 -4.0694692e-18 1.3760725)
(388.24177 0 1.2931234)
(391.18807 0 0.54342566)
(392.54663 0 1.4248161)
(390.83973 0 -0.036760642)
(391.55405 -1.3344743e-17 1.3849003)
(390.17042 -1.1111514e-17 -0.52601232)
(390.2097 0 0.9755828)
(388.94763 1.5444456e-17 -0.97065527)
(388.36045 0 0.20454932)
(386.96676 0 -1.5389686)
(385.7164 -2.6789712e-17 -0.92506204)
(383.91317 -7.4455697e-18 -2.43177)
(381.87477 -1.2547851e-17 -2.4578733)
(379.3271 9.3786768e-17 -3.8525677)
(376.25261 -1.3872652e-16 -4.5036385)
(372.54638 -1.4592313e-17 -5.9754776)
(368.05251 9.6346537e-17 -7.1820878)
(362.71392 -2.4092602e-16 -8.8344822)
(356.38191 1.4077239e-16 -10.386159)
(349.0699 0 -12.01401)
(340.83164 -1.8368089e-16 -13.32246)
(331.95822 3.0251627e-16 -14.164196)
(322.83741 0 -14.259885)
(313.91495 2.5367599e-17 -13.568154)
(305.5381 -1.9772194e-17 -12.162879)
(297.93892 0 -10.280332)
(291.23088 -2.5497691e-17 -8.1888105)
(285.45173 6.5151564e-16 -6.1345091)
(280.57199 3.0620553e-17 -4.2908749)
(276.53059 -2.4630291e-17 -2.7276689)
(273.25152 8.3906458e-19 -1.4813655)
(270.60813 -8.4806382e-16 -0.54684263)
(268.48758 0 0.11349953)
(266.78761 0 0.53417526)
(265.42999 0 0.77758688)
(264.36619 -1.0114927e-15 0.89018555)
(263.54156 -2.3109062e-17 0.91148975)
(262.9506 1.0937238e-15 0.88953509)
(262.47517 -7.5949299e-16 0.7604052)
(261.73756 -5.8911579e-16 0.45685705)
(261.12267 -1.3026896e-17 0.11542153)
(260.83067 6.1925453e-16 -0.064438641)
(260.75014 -4.4863311e-16 -0.12093253)
(260.77116 -6.6561287e-16 -0.17092771)
(260.792 4.9964158e-16 -0.58570077)
(255.21434 -7.4707475e-18 -0.30952115)
(299.04837 7.0456182e-18 0.41883383)
(327.2175 4.4622359e-20 0.1205409)
(350.98328 -3.7813282e-20 0.037953151)
(371.87108 4.1313091e-18 -0.32265605)
(388.36482 0 -0.44307758)
(390.52197 -1.1695029e-17 -1.2474009)
(391.86993 4.8644769e-18 -0.31057108)
(390.12099 0 -1.8673738)
(390.83991 -6.8393191e-18 -0.36159988)
(389.41432 1.7005869e-17 -2.3735162)
(389.44119 0 -0.80534587)
(388.13634 0 -2.8359404)
(387.51569 0 -1.6264789)
(386.07199 3.2918157e-17 -3.4321072)
(384.76468 9.0891452e-18 -2.8183425)
(382.89457 -6.1094813e-17 -4.3697418)
(380.77176 0 -4.4232418)
(378.127 -8.4474542e-17 -5.8565322)
(374.93064 7.0408533e-17 -6.5520394)
(371.0821 0 -8.0624268)
(366.41894 -9.7694844e-17 -9.3125841)
(360.8888 1.7290818e-16 -10.988723)
(354.34838 -2.5567857e-17 -12.548458)
(346.83056 1.3818607e-17 -14.138336)
(338.42658 1.8531625e-16 -15.352811)
(329.4715 -3.0508799e-16 -16.032084)
(320.38503 0 -15.915662)
(311.61643 0 -14.988563)
(303.49111 2.0676599e-17 -13.353604)
(296.20246 5.0566304e-16 -11.262711)
(289.8213 0 -8.9896829)
(284.34935 -6.1633226e-16 -6.7801827)
(279.73438 -1.5230386e-17 -4.8057634)
(275.90861 7.7337499e-16 -3.1322666)
(272.80015 -1.7217399e-15 -1.7951107)
(270.28613 8.5168786e-16 -0.78865293)
(268.25968 -1.9877728e-17 -0.072052034)
(266.62684 1.4631588e-17 0.39265773)
(265.31709 0 0.6714317)
(264.287 1.0434963e-15 0.81217891)
(263.48842 5.0937433e-20 0.85553499)
(262.92233 -1.6777581e-17 0.85109138)
(262.43969 -1.5341479e-19 0.72017539)
(261.65735 1.1359064e-15 0.42019339)
(261.08045 8.2722663e-16 0.093564457)
(260.81277 0 -0.071647363)
(260.74406 -8.8576399e-16 -0.12019869)
(260.77074 -6.5444806e-16 -0.16624964)
(260.79988 3.7966467e-18 -0.56255919)
(255.16833 2.285146e-17 -1.5424622)
(299.21163 -3.5935e-18 -0.89847273)
(327.54415 -8.7235171e-18 -1.3743569)
(351.4501 0 -1.552398)
(372.40475 0 -2.0550696)
(388.39648 0 -2.2045782)
(389.80883 5.9324575e-18 -3.0624963)
(391.15157 0 -2.0619525)
(389.36146 -3.3227421e-17 -3.7188561)
(390.083 4.1337654e-17 -2.1287738)
(388.61503 -1.1499954e-17 -4.2414104)
(388.62718 0 -2.6084949)
(387.27834 0 -4.7218013)
(386.62146 1.3392537e-17 -3.4807421)
(385.12585 -1.0025846e-16 -5.3454377)
(383.75847 -4.6603929e-17 -4.7342336)
(381.81818 7.3681979e-18 -6.327382)
(379.60596 -5.18796e-17 -6.4105974)
(376.85766 0 -7.8805537)
(373.53156 0 -8.6212815)
(369.53134 1.2036706e-16 -10.16734)
(364.68885 0 -11.457847)
(358.95631 -1.5655852e-16 -13.150959)
(352.19782 -8.4996531e-18 -14.708304)
(344.46923 0 -16.243649)
(335.90369 1.206471e-17 -17.34256)
(326.88059 1.0279801e-17 -17.83695)
(317.84736 -2.721145e-16 -17.490525)
(309.25084 4.2849561e-16 -16.318215)
(301.3904 3.2292057e-16 -14.452413)
(294.42007 -5.0880495e-16 -12.159422)
(288.37015 -8.6945302e-16 -9.7162014)
(283.20883 6.8574362e-16 -7.3652087)
(278.86244 9.4690206e-16 -5.2735983)
(275.25686 2.3480315e-17 -3.5016112)
(272.32403 2.3036825e-15 -2.0831866)
(269.9442 -6.6997861e-17 -1.012352)
(268.01606 3.9682921e-17 -0.24516533)
(266.45395 -9.4192441e-16 0.2595327)
(265.19491 0 0.57089639)
(264.20102 3.1668731e-17 0.73816906)
(263.43111 -4.6093244e-17 0.80279012)
(262.88957 1.6739337e-17 0.81353261)
(262.39353 7.78148e-16 0.67919487)
(261.57888 -1.7671739e-17 0.38353713)
(261.0393 -1.6290129e-15 0.07384219)
(260.79539 0 -0.077817)
(260.73848 8.7421173e-16 -0.11898721)
(260.77086 6.4344918e-16 -0.16120292)
(260.80799 -4.8180363e-16 -0.53948873)
(255.11552 -4.3950993e-17 -2.7602544)
(299.37135 6.590023e-17 -2.2523619)
(327.86916 -2.0745778e-17 -2.8794858)
(351.91062 0 -3.164445)
(372.92736 -8.5725833e-18 -3.8190577)
(388.33413 -2.1518332e-17 -3.9915985)
(389.05089 -4.4330859e-20 -4.90749)
(390.39285 1.0032179e-17 -3.832103)
(388.5618 1.6820567e-17 -5.5916564)
(389.28369 -4.2045467e-17 -3.9176854)
(387.7728 0 -6.1304522)
(387.7678 0 -4.4346106)
(386.37385 0 -6.6283625)
(385.67816 -1.3626824e-17 -5.3581724)
(384.12887 1.1063204e-17 -7.2785487)
(382.69808 7.5655423e-17 -6.6726494)
(380.68369 6.293118e-17 -8.3049485)
(378.37632 6.5730791e-17 -8.4205584)
(375.5174 -1.0892538e-17 -9.9252731)
(372.05325 0 -10.711756)
(367.89169 -1.2164166e-16 -12.290224)
(362.85957 1.2880889e-17 -13.617287)
(356.91369 3.2855589e-16 -15.319823)
(349.92814 0 -16.86292)
(341.98598 -1.4865425e-17 -18.325414)
(333.26648 -3.893496e-16 -19.285855)
(324.19272 -1.0462129e-17 -19.572941)
(315.23474 2.90765e-16 -18.979892)
(306.8306 -4.1800783e-16 -17.554404)
(299.24942 -1.0219808e-15 -15.458276)
(292.60531 0 -12.970416)
(286.8901 8.3597242e-16 -10.36855)
(282.04111 -6.4947858e-16 -7.8895604)
(277.96497 -9.8326853e-16 -5.6940187)
(274.58205 -1.1830033e-17 -3.8350814)
(271.82808 -1.1486732e-15 -2.3448638)
(269.58583 -2.6957302e-17 -1.217228)
(267.75916 3.9933257e-17 -0.40520732)
(266.27061 9.2877879e-16 0.13532041)
(265.06457 2.1678139e-17 0.47638038)
(264.10907 9.966506e-16 0.66843842)
(263.37022 1.4736971e-15 0.75359256)
(262.85134 0 0.77727935)
(262.33382 0 0.63839102)
(261.50387 -1.123532e-15 0.34717923)
(260.99965 8.1442926e-16 0.056140994)
(260.7789 -1.8494032e-17 -0.082979006)
(260.7339 8.7621771e-16 -0.11728612)
(260.77203 0 -0.15582084)
(260.81653 -4.677411e-16 -0.51651383)
(255.0505 -8.4232024e-17 -3.9176064)
(299.52769 5.2225223e-17 -3.6701899)
(328.19479 -9.6751158e-17 -4.4171335)
(352.36794 5.103903e-18 -4.8109516)
(373.4305 -8.7508362e-18 -5.6179977)
(388.17502 7.2095949e-18 -5.7961067)
(388.24955 1.2250272e-17 -6.77898)
(389.59333 1.0222228e-17 -5.6237983)
(387.72197 -7.4762313e-20 -7.4865724)
(388.44186 1.4227653e-17 -5.7291605)
(386.88775 0 -8.0406113)
(386.86323 1.9894751e-17 -6.2838976)
(385.42335 1.6702801e-17 -8.5550804)
(384.68639 2.7711579e-17 -7.2584534)
(383.08147 4.6012144e-17 -9.2310835)
(381.58331 -1.9048176e-17 -8.6339685)
(379.49009 4.844224e-17 -10.30315)
(377.08114 0 -10.454032)
(374.10401 -1.1263997e-17 -11.991413)
(370.49325 1.5891996e-16 -12.823763)
(366.16039 1.5718733e-17 -14.430943)
(360.92804 2.086012e-16 -15.790078)
(354.75782 -1.8246558e-16 -17.493533)
(347.5372 0 -19.008867)
(339.38121 -2.396695e-16 -20.378344)
(330.51906 -4.4091072e-18 -21.176254)
(321.41567 0 -21.233929)
(312.55768 5.4774783e-16 -20.379221)
(304.36774 -1.3117134e-17 -18.694679)
(297.08077 7.0225008e-16 -16.370545)
(290.77054 -1.6696163e-17 -13.696103)
(285.39263 0 -10.947449)
(280.85617 6.5842942e-16 -8.3537756)
(277.05011 0 -6.0671953)
(273.89046 0 -4.1325058)
(271.31699 1.8115888e-17 -2.579764)
(269.21444 1.3616672e-17 -1.402831)
(267.49141 -1.3232063e-15 -0.55173218)
(266.0785 4.4337106e-17 0.020414874)
(264.92721 -4.3316115e-17 0.38820768)
(264.01198 1.6163526e-17 0.60313668)
(263.30626 -1.4938827e-15 0.70771217)
(262.80703 -1.0330667e-15 0.74176545)
(262.25923 -3.6189409e-17 0.59870884)
(261.43333 2.2504712e-15 0.31159692)
(260.96159 -1.6160041e-15 0.040327146)
(260.76348 -1.8300662e-17 -0.087146895)
(260.73102 -8.2465305e-16 -0.11505391)
(260.77472 -9.7168415e-18 -0.1501577)
(260.8256 4.6488364e-16 -0.49369919)
(254.97162 8.0393031e-17 -5.1159)
(299.68108 7.6284903e-18 -5.090246)
(328.52194 -5.5440688e-17 -5.9777402)
(352.82331 3.6606481e-17 -6.4837952)
(373.9027 -2.6571713e-17 -7.4454241)
(387.89571 -7.3972136e-18 -7.6131635)
(387.40606 1.2481866e-17 -8.6720705)
(388.75341 0 -7.4347257)
(386.84206 -1.7526058e-17 -9.4028573)
(387.55789 2.894483e-17 -7.5630318)
(385.96032 0 -9.9717572)
(385.91416 2.0237269e-17 -8.1558597)
(384.4276 -8.4337074e-17 -10.501226)
(383.64664 -4.2220323e-17 -9.1812807)
(381.98349 0 -11.203306)
(380.4131 1.9664631e-17 -10.619102)
(378.23555 -8.1363997e-17 -12.32303)
(375.71817 1.0939744e-16 -12.511803)
(372.61505 -9.1291685e-17 -14.079415)
(368.84885 -1.5121723e-16 -14.9573)
(364.33436 -1.271588e-16 -16.589101)
(358.89082 -1.968163e-16 -17.975067)
(352.48532 -1.0820207e-17 -19.669777)
(345.02286 -2.7568946e-16 -21.141916)
(336.65582 2.2661109e-16 -22.396304)
(327.66627 8.1574047e-18 -23.00674)
(318.55786 -3.4162459e-16 -22.813611)
(309.82693 -5.3457814e-16 -21.684133)
(301.87404 0 -19.736942)
(294.89629 0 -17.188995)
(288.92714 1.7252464e-17 -14.337355)
(283.88815 -1.3259594e-17 -11.45411)
(279.66308 -6.6193974e-16 -8.758903)
(276.12531 1.5953469e-17 -6.3937806)
(273.18794 -7.848835e-16 -4.3941248)
(270.79521 1.1630193e-15 -2.7878373)
(268.83333 2.7171683e-17 -1.5689613)
(267.21519 1.2654147e-15 -0.68447773)
(265.87931 0 -0.084915831)
(264.78403 0 0.30662946)
(263.91067 -1.0425007e-15 0.54236271)
(263.23973 -1.4454026e-15 0.66455323)
(262.75664 -1.6858896e-17 0.70677039)
(262.172 -1.2045965e-17 0.56060235)
(261.36604 -2.1841576e-15 0.27756485)
(260.92487 3.2048126e-15 0.026309453)
(260.74914 -9.0463131e-18 -0.09031835)
(260.72903 0 -0.11221972)
(260.77864 1.2229217e-15 -0.14423442)
(260.8351 -8.9600243e-16 -0.47109585)
(254.89292 1.7998615e-16 -6.3407431)
(299.83536 -7.6973685e-18 -6.5320272)
(328.85821 -5.0187888e-17 -7.5681908)
(353.28725 4.2581266e-17 -8.189)
(374.33852 -5.4053837e-17 -9.313556)
(387.509 7.500517e-17 -9.4579752)
(386.52199 -5.080572e-17 -10.595052)
(387.87339 0 -9.2678783)
(385.92263 0 -11.340478)
(386.63226 0 -9.4191659)
(384.99149 -2.4692885e-17 -11.922765)
(384.92151 2.0566888e-17 -10.049996)
(383.38722 3.4272428e-17 -12.466305)
(382.55864 4.274504e-17 -11.127358)
(380.83368 -2.3963278e-17 -13.196327)
(379.18545 1.9799503e-17 -12.629508)
(376.91771 0 -14.365659)
(374.285 -1.1054587e-16 -14.594562)
(371.04785 1.0388985e-16 -16.189656)
(367.11702 -1.8421288e-16 -17.112296)
(362.41009 1.2795805e-16 -18.764185)
(356.74401 2.2934586e-16 -20.170902)
(350.09255 1.1372134e-17 -21.845812)
(342.38326 6.0625242e-16 -23.257154)
(333.81137 2.3374112e-16 -24.372443)
(324.71381 4.1945679e-16 -24.769864)
(315.62839 3.4471599e-16 -24.30567)
(307.05348 -1.676424e-17 -22.890543)
(299.36095 4.4235031e-16 -20.679515)
(292.70712 -7.0523344e-16 -17.913828)
(287.08551 -5.561829e-16 -14.895463)
(282.38611 2.7218853e-17 -11.890174)
(278.47002 -4.177515e-17 -9.1064179)
(275.19735 3.1977816e-17 -6.6748271)
(272.4799 -1.3891441e-17 -4.6205265)
(270.26693 -1.1665627e-15 -2.9693181)
(268.44565 8.7119464e-16 -1.7156432)
(266.93283 0 -0.80335111)
(265.67468 2.9675727e-17 -0.18052326)
(264.63621 -2.1636745e-17 0.23182468)
(263.80615 0 0.48627919)
(263.17127 1.4644684e-15 0.62375829)
(262.70058 1.0587152e-15 0.67191509)
(262.0761 -1.5045948e-15 0.52407496)
(261.2998 1.0846548e-15 0.24584308)
(260.8893 2.6678602e-19 0.01412572)
(260.73482 0 -0.092480755)
(260.72767 1.6569356e-15 -0.10873525)
(260.78337 -1.2023059e-15 -0.1380424)
(260.84485 8.7715759e-16 -0.44873638)
(254.80477 -1.7763356e-16 -7.5929157)
(299.98392 2.5967265e-16 -8.0044942)
(329.19816 -9.5795262e-17 -9.1942291)
(353.76046 5.4285803e-18 -9.9325546)
(374.72281 9.1348445e-18 -11.228112)
(387.01196 -7.5950619e-18 -11.324046)
(385.59807 5.1741027e-17 -12.541698)
(386.95432 1.0536449e-19 -11.123301)
(384.96495 -3.5970532e-17 -13.298505)
(385.66628 -3.0005992e-17 -11.296055)
(383.98232 5.0092991e-17 -13.892357)
(383.88569 -4.1833383e-17 -11.966339)
(382.3016 1.7664124e-17 -14.451273)
(381.42073 -1.4472339e-17 -13.098419)
(379.62971 0 -15.211799)
(377.89784 0 -14.666473)
(375.53411 1.7004507e-17 -16.431758)
(372.77912 -1.399383e-17 -16.702633)
(369.39957 0 -18.322285)
(365.29436 3.1453535e-16 -19.288479)
(360.3836 -1.152401e-16 -20.955428)
(354.48329 -2.5168451e-17 -22.375781)
(347.57572 -3.7003753e-19 -24.018164)
(339.61689 -2.92772e-16 -25.348782)
(330.85032 -2.5060006e-16 -26.299163)
(321.66836 -1.3222423e-17 -26.457834)
(312.63705 -3.3294433e-16 -25.703899)
(304.24849 -5.4055501e-16 -23.994769)
(296.83966 -9.0771835e-16 -21.521209)
(290.52374 7.0929822e-16 -18.545723)
(285.25524 -3.4700883e-18 -15.372155)
(280.89503 0 -12.257687)
(277.28435 0 -9.3981789)
(274.27234 -1.0331873e-15 -6.9117374)
(271.77124 7.8023849e-16 -4.8126035)
(269.736 1.1737561e-15 -3.1246946)
(268.05435 -8.7281907e-16 -1.8431038)
(266.64653 0 -0.90841882)
(265.46621 0 -0.26637147)
(264.48493 -1.3655102e-15 0.1638982)
(263.69944 -1.5734868e-17 0.43507749)
(263.10169 0 0.58553759)
(262.63955 -1.649603e-17 0.63689292)
(261.97377 1.5315669e-15 0.48918324)
(261.2338 1.7111025e-17 0.21690679)
(260.85517 -1.6113643e-15 0.0038067966)
(260.72133 1.7700726e-17 -0.093644743)
(260.7271 1.2794903e-17 -0.10474009)
(260.78849 1.1727495e-15 -0.13155986)
(260.85461 8.5878648e-16 -0.42663624)
(254.70393 -5.6590201e-18 -8.8650266)
(300.12702 1.201516e-16 -9.4953262)
(329.54451 -2.2115408e-16 -10.845129)
(354.24834 5.4580426e-18 -11.707572)
(375.04214 1.5805301e-16 -13.17977)
(386.40679 -6.1793358e-17 -13.204296)
(384.63592 -1.3158926e-17 -14.506898)
(385.99823 4.3764347e-17 -12.997715)
(383.97059 -3.6544929e-17 -15.276428)
(384.66093 -3.0517326e-17 -13.193666)
(382.93263 -2.5379203e-17 -15.881392)
(382.80538 -2.2666359e-19 -13.906759)
(381.16847 -5.3056307e-17 -16.4585)
(380.23018 -7.3963853e-17 -15.096576)
(378.36894 0 -17.251061)
(376.54789 2.0690543e-17 -16.730714)
(374.08243 -1.7071659e-17 -18.521699)
(371.19798 -1.1520872e-16 -18.8362)
(367.66706 0 -20.477427)
(363.37699 -1.3912974e-16 -21.485484)
(358.25043 2.6764024e-16 -23.161818)
(352.10398 -2.355945e-16 -24.587397)
(344.93108 0 -26.182537)
(336.72283 0 -27.410033)
(327.77614 0 -28.168167)
(318.53764 -4.2653008e-16 -28.062657)
(309.59429 3.2344381e-16 -27.00234)
(301.42328 5.7872581e-16 -24.99362)
(294.32105 -4.595027e-16 -22.261381)
(288.35604 -2.2714171e-17 -19.085848)
(283.44505 6.0101064e-16 -15.769567)
(279.42256 8.9935501e-16 -12.559047)
(276.1126 -2.1134892e-17 -9.6363603)
(273.3557 -3.1048153e-18 -7.1061981)
(271.06638 -2.4605305e-17 -4.9714984)
(269.20595 2.0376682e-17 -3.2546673)
(267.66218 0 -1.9517477)
(266.35837 -1.3145784e-15 -0.99989007)
(265.2554 -1.4901938e-17 -0.34252802)
(264.33137 1.4071098e-15 0.10288456)
(263.5915 -1.9820331e-15 0.38884617)
(263.03159 -4.5499868e-17 0.55039484)
(262.57401 1.6393707e-17 0.60150817)
(261.86586 -1.5117885e-15 0.4561296)
(261.16846 0 0.19105458)