/*--------------------------------*- C++ -*----------------------------------*\
  =========                 |
  \\      /  F ield         | OpenFOAM: The Open Source CFD Toolbox
   \\    /   O peration     | Website:  https://openfoam.org
    \\  /    A nd           | Version:  8
     \\/     M anipulation  |
\*---------------------------------------------------------------------------*/
FoamFile
{
    version     2.0;
    format      ascii;
    class       volVectorField;
    location    "0.120004";
    object      wallShearStress;
}
// * * * * * * * * * * * * * * * * * * * * * * * * * * * * * * * * * * * * * //

dimensions      [1 -1 -2 0 0 0 0];

internalField   uniform (0 0 0);

boundaryField
{
    aerofoil
    {
        type            calculated;
        value           nonuniform List<vector> 
300
(
(-157.83296 2.1770811e-20 -7.9678239)
(-159.7526 1.7062466e-16 -7.4281949)
(-160.22306 1.7522918e-16 -6.8000892)
(-160.74583 -6.9715077e-19 -6.1603451)
(-161.25272 9.1488195e-17 -5.5135432)
(-161.77705 -1.9102726e-21 -4.8675856)
(-162.28998 1.0296672e-19 -4.1981684)
(-162.8065 -8.5473557e-20 -3.4110146)
(-163.34523 -1.5668209e-18 -2.6605304)
(-163.88511 4.7955792e-18 -1.8797601)
(-164.42516 -1.4528807e-17 -1.0734595)
(-164.9684 2.8306362e-17 -0.27650257)
(-165.52261 5.4631155e-17 0.46801825)
(-166.0615 -5.2176766e-17 1.2513696)
(-166.60594 -1.1755741e-16 2.0596692)
(-167.1513 1.1623376e-16 2.8916323)
(-167.68541 3.3521397e-18 3.7443203)
(-168.22384 -3.7834163e-18 4.6201695)
(-168.75939 1.2801225e-16 5.5174931)
(-169.30512 -3.9400641e-18 6.4406346)
(-169.84555 2.8287096e-34 7.3957753)
(-170.36893 -3.4065842e-20 8.3784459)
(-170.88748 4.181801e-18 9.3877966)
(-171.39913 -4.2670299e-18 10.423043)
(-171.93109 -5.986755e-21 11.493431)
(-172.4417 2.8483203e-16 12.590776)
(-172.93547 1.2633126e-19 13.719124)
(-173.42161 -1.4040022e-20 14.884321)
(-173.87769 -3.0177192e-16 16.082311)
(-174.31066 -3.0748277e-16 17.320417)
(-174.7082 -1.8051261e-20 18.600381)
(-175.07636 -6.0185311e-36 19.925218)
(-175.42316 1.0211316e-17 21.297996)
(-175.77027 -1.0343151e-17 22.726486)
(-176.13935 -3.385106e-16 24.221359)
(-176.53247 3.4579037e-16 25.786184)
(-176.94548 1.1033909e-17 27.422909)
(-177.39507 -1.145082e-17 29.142418)
(-177.90941 -3.669386e-16 30.957883)
(-178.47196 -3.6002169e-16 32.875625)
(-179.04685 -2.5321952e-17 34.902255)
(-179.62841 -5.1136289e-20 37.04918)
(-180.18317 3.9179033e-16 39.319533)
(-180.68321 2.5103108e-17 41.713889)
(-181.0492 -2.5583402e-17 44.23801)
(-181.35759 1.5327803e-17 46.935187)
(-181.56585 7.0433129e-18 49.802792)
(-181.68776 -4.6607777e-16 52.848308)
(-181.67732 1.0149731e-17 56.061184)
(-181.48683 -4.6573521e-16 59.439869)
(-180.96735 -1.690181e-19 62.989902)
(-180.0259 4.8250734e-16 66.743957)
(-178.55714 6.1190935e-18 70.732209)
(-176.44764 1.4656735e-17 74.945777)
(-173.53774 -5.0011246e-16 79.366672)
(-169.74012 -1.5521257e-17 84.042921)
(-165.08041 3.1744439e-17 89.083389)
(-159.56129 -2.8933911e-17 94.538596)
(-153.25437 -2.9353442e-19 100.51723)
(-146.69045 -1.6621438e-18 107.0204)
(-141.05119 5.6429593e-16 113.83444)
(-136.40631 6.1629758e-33 120.79359)
(-131.90406 -3.8987462e-19 127.57183)
(-126.52695 -5.8776073e-16 133.72987)
(-119.52081 -2.2322367e-19 138.56834)
(-110.65364 6.2602357e-16 141.66497)
(-100.01177 3.692857e-19 142.61623)
(-87.264294 -9.8350809e-18 140.49688)
(-72.784594 8.7690484e-18 134.55672)
(-57.316262 -3.4554606e-16 124.30551)
(-41.768828 5.3620246e-18 109.31475)
(-27.28089 -3.4158109e-16 89.934457)
(-15.468675 -1.0166024e-18 67.446773)
(-7.9009921 1.6416216e-16 43.410852)
(-3.5229484 -1.145458e-18 21.412476)
(-62.312741 2.1110341e-15 -10.527953)
(-59.035747 3.3670078e-15 -11.884425)
(-63.209722 6.5032452e-21 -12.627307)
(-66.979228 -1.7080619e-15 -13.229501)
(-70.000923 1.7149539e-15 -13.683939)
(-72.639764 4.6211601e-19 -14.059442)
(-74.914263 -1.5125949e-20 -14.362008)
(-76.915048 8.6087626e-16 -14.609866)
(-78.671112 -8.6064722e-16 -14.808476)
(-80.221953 -1.7203538e-15 -14.96846)
(-81.60124 -1.7173512e-15 -15.09533)
(-82.832355 -1.7155974e-15 -15.192796)
(-83.933795 -8.4614534e-26 -15.266183)
(-84.926116 -5.3201817e-19 -15.319543)
(-85.823266 8.5235289e-16 -15.353951)
(-86.636184 8.5034711e-16 -15.373049)
(-87.374889 8.8100647e-20 -15.378427)
(-88.042931 9.7942391e-20 -15.370172)
(-88.645087 1.0264584e-19 -15.350633)
(-89.192138 -1.0690855e-19 -15.320413)
(-89.687016 -3.2005001e-21 -15.281365)
(-90.133938 1.599025e-21 -15.232882)
(-90.53295 -2.3370204e-25 -15.176816)
(-90.891251 -3.0520764e-19 -15.112239)
(-91.209103 1.3802468e-19 -15.041231)
(-91.492007 -8.2618564e-16 -14.962876)
(-91.737652 -8.2351017e-16 -14.878992)
(-91.952139 7.8448071e-22 -14.788227)
(-92.136247 1.6360974e-15 -14.69261)
(-92.300538 -3.8784433e-22 -14.591752)
(-92.441093 -1.6581744e-19 -14.486083)
(-92.557749 1.5311093e-25 -14.377242)
(-92.651291 -1.510678e-25 -14.262099)
(-92.71573 -8.0343568e-16 -14.14128)
(-92.752395 1.7505276e-19 -14.014985)
(-92.760299 1.6541687e-25 -13.883055)
(-92.737111 7.564721e-22 -13.744562)
(-92.678477 -7.9167073e-16 -13.599273)
(-92.580725 1.7435252e-25 -13.446343)
(-92.442961 3.815262e-19 -13.286471)
(-92.271569 9.5814882e-20 -13.119646)
(-92.071013 -9.7316723e-20 -12.946064)
(-91.83562 -1.840497e-19 -12.765192)
(-91.549891 1.8095444e-25 -12.575691)
(-91.191905 7.6821188e-16 -12.374036)
(-90.738332 -1.0581588e-19 -12.158429)
(-90.171962 -1.7182027e-19 -11.926976)
(-89.486387 -1.0851325e-19 -11.679454)
(-88.687444 -1.0898022e-19 -11.418658)
(-87.816542 -1.6367158e-19 -11.15038)
(-86.955306 -7.4097419e-16 -10.881075)
(-86.178199 7.3598297e-16 -10.615511)
(-85.462869 -7.3095274e-16 -10.349255)
(-84.535253 1.1381914e-19 -10.049413)
(-82.786857 1.0975146e-20 -9.6689077)
(-79.81577 7.1012976e-16 -9.1615296)
(-75.579395 1.4693679e-39 -8.5352681)
(-69.810209 1.3640056e-15 -7.7904214)
(-62.926209 7.8048557e-20 -6.9463159)
(-56.011204 3.6734198e-40 -6.1134441)
(-50.122351 -9.942651e-20 -5.4123855)
(-48.445053 9.0523058e-21 -5.0770986)
(-55.81421 -3.003194e-16 -5.5654899)
(-74.346295 3.0825996e-16 -6.9626581)
(-99.298069 1.2687779e-19 -8.8317896)
(-122.09368 6.2459883e-16 -10.467738)
(-138.30643 -9.5270396e-20 -11.480309)
(-147.65919 3.099747e-16 -11.844521)
(-152.47198 3.0956574e-16 -11.774018)
(-154.97845 -6.1849071e-16 -11.448596)
(-156.37253 3.0902505e-16 -10.999074)
(-157.3015 7.3305536e-20 -10.480728)
(-158.03653 3.443473e-20 -9.920014)
(-158.71555 -1.692304e-21 -9.3328312)
(-157.65366 -1.8695827e-20 -8.6060394)
(-133.4091 2.1131581e-16 -7.742562)
(-134.04582 2.1251412e-19 -8.2932315)
(-135.98352 -2.2293371e-16 -8.9653008)
(-137.73039 -2.2836883e-16 -9.6475967)
(-139.46883 8.0539817e-20 -10.352403)
(-141.13536 -1.251957e-21 -11.077741)
(-142.75387 5.7262475e-20 -11.824204)
(-144.32841 3.4236655e-20 -12.591442)
(-145.86403 -1.880791e-37 -13.379176)
(-147.34543 2.0524514e-18 -14.190077)
(-148.79829 -3.985202e-18 -15.023131)
(-150.22352 -1.1986178e-19 -15.878746)
(-151.6135 1.9549433e-18 -16.760054)
(-152.96016 -4.36002e-18 -17.661299)
(-154.2719 4.4568442e-18 -18.586796)
(-155.52826 5.9807323e-16 -19.535311)
(-156.71519 -6.1080923e-16 -20.502647)
(-157.8445 -6.1879602e-16 -21.493451)
(-158.90219 6.3168788e-16 -22.502467)
(-159.88876 6.4942736e-16 -23.532839)
(-160.79318 -1.6180864e-21 -24.584927)
(-161.61835 -6.7640925e-16 -25.658268)
(-162.37478 6.8918841e-16 -26.757369)
(-163.06799 7.0366472e-16 -27.880165)
(-163.72655 -7.120058e-16 -29.039592)
(-164.34208 2.1523031e-20 -30.229641)
(-164.93585 -7.5261253e-16 -31.458144)
(-165.5129 -1.1898125e-19 -32.729026)
(-166.08275 -7.7670622e-16 -34.042918)
(-166.66509 3.8518599e-33 -35.408147)
(-167.23162 4.0371901e-16 -36.825106)
(-167.77628 -4.2441593e-16 -38.295623)
(-168.28799 -6.6777476e-20 -39.820532)
(-168.75195 1.3506568e-17 -41.399138)
(-169.13647 -4.2166102e-16 -43.031123)
(-169.42827 -1.5271733e-17 -44.720392)
(-169.63564 -4.6615507e-16 -46.470892)
(-169.76695 -9.0715223e-16 -48.289849)
(-169.83303 -1.373788e-17 -50.190102)
(-169.84901 2.8762808e-17 -52.180744)
(-169.84465 -1.3815417e-17 -54.257768)
(-169.77566 4.9697067e-16 -56.413488)
(-169.57626 -5.0089624e-16 -58.646117)
(-169.21892 -1.6091187e-17 -60.959298)
(-168.64728 5.5682827e-16 -63.358426)
(-167.84337 -5.4975873e-16 -65.862857)
(-166.72853 -5.5401748e-16 -68.421249)
(-165.27378 -5.3414569e-16 -71.025257)
(-163.46796 -1.236218e-17 -73.691755)
(-161.27636 -5.7006055e-16 -76.42484)
(-158.68778 6.1466863e-16 -79.23063)
(-155.67946 -1.6109014e-17 -82.106116)
(-152.22328 1.4138481e-17 -85.03554)
(-148.32751 -1.2802867e-17 -88.017558)
(-144.04924 -1.345167e-17 -91.037256)
(-139.48265 -6.3208376e-16 -94.001851)
(-134.80761 4.6222319e-32 -96.830346)
(-129.96939 4.8907233e-18 -99.429362)
(-124.72561 -6.6454207e-16 -101.67624)
(-118.86187 -1.8157896e-17 -103.45351)
(-112.25599 7.2791819e-16 -104.57112)
(-104.88289 -2.9160851e-17 -104.93744)
(-96.672523 -7.0461209e-16 -104.28971)
(-87.49775 -7.0919606e-16 -102.36004)
(-77.411285 1.0132478e-19 -98.984362)
(-66.506917 -5.3793641e-18 -93.731621)
(-55.037028 1.1108681e-17 -86.281137)
(-43.412046 -7.2222373e-35 -76.350765)
(-32.039031 1.2010891e-17 -63.763385)
(-20.788657 -3.6432862e-16 -48.576712)
(-11.256367 9.9401323e-18 -31.460116)
(-5.3413777 -2.818263e-16 -14.648503)
(-2.0643963 1.1050554e-16 -4.2369264)
(-0.83512471 3.1665323e-17 0.59923972)
(-1.6599359 -7.8215002e-18 8.1373327)
(-6.8934569 4.751244e-16 1.5092078)
(-15.583964 4.8280971e-16 1.2232359)
(-17.336276 5.5017072e-20 1.4675608)
(-20.668175 9.9997732e-22 1.721148)
(-23.270307 7.8600838e-26 1.9072908)
(-25.900817 -2.4646225e-20 2.0867815)
(-28.303971 5.7029902e-16 2.2401241)
(-30.583573 -1.1068264e-21 2.3767547)
(-32.717799 6.2135694e-24 2.49518)
(-34.736314 -8.5916809e-21 2.599536)
(-36.656704 1.2186642e-15 2.6906619)
(-38.492067 3.0835075e-16 2.7701312)
(-40.24974 8.047808e-22 2.8397021)
(-41.937723 -3.1501441e-16 2.9004122)
(-43.563237 1.2089975e-21 2.9521308)
(-45.13206 -5.2123265e-24 2.9963549)
(-46.653115 2.2925463e-19 3.0336041)
(-48.127506 -1.2367514e-21 3.0639646)
(-49.55795 3.2695108e-16 3.0884311)
(-50.949914 -2.3955978e-19 3.1070132)
(-52.305781 1.2644973e-21 3.1205462)
(-53.635232 -3.3259994e-16 3.1286708)
(-54.945182 6.685996e-16 3.1327575)
(-56.241513 1.4794796e-19 3.1321411)
(-57.520937 -6.7504506e-16 3.1279167)
(-58.785932 2.5867688e-21 3.1189963)
(-60.037487 -3.4063647e-16 3.1065879)
(-61.282246 2.1822639e-25 3.0894955)
(-62.517736 6.8667814e-16 3.0688878)
(-63.746127 -3.4455595e-16 3.0436775)
(-64.962039 3.4573531e-16 3.0141931)
(-66.171173 3.472706e-16 2.9816285)
(-67.381017 -3.4851597e-16 2.9438601)
(-68.588709 -3.4956916e-16 2.9017279)
(-69.80068 3.5118678e-16 2.8553304)
(-71.018754 3.5223187e-16 2.8049975)
(-72.243485 9.6296497e-35 2.7499689)
(-73.47255 -3.5433602e-16 2.6901405)
(-74.706362 2.4101194e-25 2.6247974)
(-75.944418 1.8642474e-19 2.5546945)
(-77.189653 1.4348421e-19 2.4788179)
(-78.438881 3.5855531e-16 2.3969983)
(-79.692256 1.7977678e-16 2.308843)
(-80.951443 -1.8040272e-16 2.2148667)
(-82.223144 -1.8066872e-16 2.1135102)
(-83.512442 -3.6303416e-16 2.0055102)
(-84.827012 -1.1105592e-19 1.8900808)
(-86.161971 -1.5039099e-19 1.766766)
(-87.512872 -1.5191859e-19 1.6352799)
(-88.878588 -1.1813409e-19 1.495888)
(-90.256987 1.5385478e-19 1.3467446)
(-91.6364 -1.849244e-16 1.1874509)
(-93.013782 -1.8555617e-16 1.019537)
(-94.404439 1.5170957e-19 0.84123183)
(-95.820875 9.3530166e-17 0.65096932)
(-97.26913 1.8727437e-16 0.44897347)
(-98.751937 1.8758122e-16 0.23428194)
(-100.26685 -9.4075862e-17 0.0069347649)
(-101.81203 9.4445648e-17 -0.2311879)
(-103.38171 -4.7416073e-17 -0.47784491)
(-104.97251 -4.7541016e-17 -0.74902668)
(-106.57792 2.3730324e-17 -1.0593668)
(-108.20501 -1.1894858e-17 -1.37831)
(-109.83962 7.9855696e-20 -1.7217431)
(-111.48733 -2.3828778e-17 -2.0911054)
(-113.1574 -1.1888999e-19 -2.4612766)
(-114.85856 2.2082757e-25 -2.8456926)
(-116.59481 -9.6252829e-17 -3.2584703)
(-118.36458 -2.9245301e-20 -3.6973657)
(-120.17148 -9.6681298e-17 -4.164594)
(-122.012 2.3663415e-20 -4.6619088)
(-123.88313 1.9439534e-16 -5.1898106)
(-125.78594 -1.9484652e-16 -5.7532711)
(-127.74537 -1.9534857e-16 -6.3605527)
(-131.078 1.9523098e-16 -7.0795644)
)
;
    }
    inlet
    {
        type            calculated;
        value           uniform (0 0 0);
    }
    outlet
    {
        type            calculated;
        value           uniform (0 0 0);
    }
    back
    {
        type            empty;
    }
    front
    {
        type            empty;
    }
}


// ************************************************************************* //
