/*--------------------------------*- C++ -*----------------------------------*\
  =========                 |
  \\      /  F ield         | OpenFOAM: The Open Source CFD Toolbox
   \\    /   O peration     | Website:  https://openfoam.org
    \\  /    A nd           | Version:  8
     \\/     M anipulation  |
\*---------------------------------------------------------------------------*/
FoamFile
{
    version     2.0;
    format      ascii;
    class       volScalarField;
    location    "0.120004";
    object      yPlus;
}
// * * * * * * * * * * * * * * * * * * * * * * * * * * * * * * * * * * * * * //

dimensions      [0 0 0 0 0 0 0];

internalField   uniform 0;

boundaryField
{
    aerofoil
    {
        type            calculated;
        value           nonuniform List<scalar> 
300
(
124.49083
124.11154
123.55257
123.06827
122.60975
122.20176
121.82341
121.48352
121.18105
120.91469
120.67897
120.47269
120.30422
120.15758
120.04017
119.95286
119.8849
119.84541
119.82574
119.83331
119.86531
119.91336
119.98333
120.06436
120.17985
120.30777
120.44701
120.60712
120.7724
120.95022
121.13492
121.3304
121.53718
121.76193
122.01809
122.31019
122.6333
122.99323
123.40408
123.86372
124.35709
124.89003
125.45103
126.04485
126.61875
127.22738
127.8493
128.50472
129.18508
129.87296
130.52002
131.11435
131.65288
132.11847
132.46771
132.71055
132.90675
133.13934
133.46654
134.18839
135.71964
138.13968
141.1759
144.47155
147.58556
150.27564
152.4792
153.55766
152.96534
150.0634
143.74028
133.00482
117.06785
94.793889
66.647731
88.782451
98.361608
101.43774
104.10269
106.07857
107.74928
109.12242
110.28655
111.26834
112.10131
112.81269
113.42205
113.94234
114.38937
114.77367
115.10278
115.38333
115.61983
115.81385
115.97376
116.10044
116.19884
116.26674
116.31088
116.32862
116.32634
116.30037
116.25665
116.19227
116.11586
116.02464
115.91756
115.79652
115.65719
115.50052
115.3257
115.13125
114.91549
114.67593
114.41074
114.1223
113.81427
113.48349
113.12316
112.72026
112.26336
111.73959
111.14542
110.47866
109.754
109.01173
108.28933
107.58676
106.78481
105.56494
103.61423
100.86182
97.083264
92.24181
87.012245
82.150629
80.014294
84.198964
94.017992
104.87168
112.92934
118.10625
120.97175
122.40856
123.18264
123.62952
123.96617
124.24864
124.52819
124.66822
131.79076
131.45248
131.4013
131.27847
131.19502
131.10843
131.03931
130.98188
130.94469
130.91488
130.90345
130.91176
130.94165
130.98304
131.04418
131.1196
131.19636
131.28452
131.37339
131.46418
131.55359
131.63891
131.72991
131.81881
131.93034
132.05334
132.19793
132.36878
132.5649
132.7961
133.05258
133.33125
133.62622
133.93097
134.23598
134.53665
134.83243
135.12642
135.42737
135.74518
136.09055
136.44886
136.79114
137.12382
137.40345
137.65514
137.83279
137.93957
137.98031
137.94542
137.84254
137.68575
137.47503
137.22613
136.98137
136.77833
136.68193
136.70857
136.72382
136.66803
136.40702
135.92437
135.13313
133.82026
131.8602
128.96671
124.77971
118.7747
110.1667
97.593886
79.729774
55.493275
30.633802
12.038124
41.015469
38.085487
50.677798
53.27816
58.045797
61.421133
64.648033
67.423159
69.933045
72.181555
74.225044
76.102203
77.839366
79.45439
80.962552
82.378856
83.71293
84.977428
86.177709
87.318257
88.407257
89.447779
90.450553
91.421145
92.36706
93.285158
94.179869
95.050982
95.906029
96.741923
97.562616
98.363972
99.149004
99.925522
100.69028
101.44844
102.20062
102.94769
103.68815
104.42294
105.15052
105.87434
106.59188
107.30359
108.01001
108.71597
109.42271
110.13634
110.85389
111.57241
112.28952
113.00496
113.71265
114.4097
115.10595
115.80896
116.52103
117.24421
117.97553
118.71543
119.46006
120.2099
120.9576
121.70892
122.45495
123.19885
123.94498
124.69808
125.46311
126.23787
127.02459
127.82322
128.63045
129.45001
130.28213
131.28088
)
;
    }
    inlet
    {
        type            calculated;
        value           uniform 0;
    }
    outlet
    {
        type            calculated;
        value           uniform 0;
    }
    back
    {
        type            empty;
    }
    front
    {
        type            empty;
    }
}


// ************************************************************************* //
