/*--------------------------------*- C++ -*----------------------------------*\
  =========                 |
  \\      /  F ield         | OpenFOAM: The Open Source CFD Toolbox
   \\    /   O peration     | Website:  https://openfoam.org
    \\  /    A nd           | Version:  8
     \\/     M anipulation  |
\*---------------------------------------------------------------------------*/
FoamFile
{
    version     2.0;
    format      ascii;
    class       volScalarField;
    location    "0.189994";
    object      alphat;
}
// * * * * * * * * * * * * * * * * * * * * * * * * * * * * * * * * * * * * * //

dimensions      [1 -1 -1 0 0 0 0];

internalField   nonuniform List<scalar> 
20000
(
0.0010715579
0.0025692067
0.0033406549
0.0035207398
0.0029765649
0.0012615084
3.7215738e-05
6.6735321e-09
5.4657767e-09
5.4546465e-09
5.3383537e-09
5.3724385e-09
5.3108295e-09
5.3537465e-09
5.3602771e-09
5.403803e-09
5.4396e-09
5.4995082e-09
5.5644067e-09
5.6509487e-09
5.75464e-09
5.8823609e-09
6.0262836e-09
6.1943745e-09
6.382943e-09
6.5950997e-09
6.8263317e-09
7.0713863e-09
7.3209896e-09
7.5654125e-09
7.794965e-09
8.0015245e-09
8.1796073e-09
8.3271055e-09
8.444793e-09
8.534311e-09
8.5982764e-09
8.6390155e-09
8.6607796e-09
8.668574e-09
8.6690938e-09
8.6628625e-09
8.6468705e-09
8.6240395e-09
8.5846581e-09
8.5245263e-09
8.4885194e-09
8.4683226e-09
8.4642669e-09
8.5012038e-09
0.0010513152
0.002511701
0.0032556899
0.0033981378
0.0028266864
0.0010894125
1.4289439e-05
6.2294215e-09
5.4268208e-09
5.4208216e-09
5.306979e-09
5.3431908e-09
5.2825626e-09
5.3266512e-09
5.3342576e-09
5.3788619e-09
5.4157425e-09
5.4771464e-09
5.5444912e-09
5.6359527e-09
5.7446611e-09
5.8764517e-09
6.0255279e-09
6.1960226e-09
6.3901858e-09
6.6072907e-09
6.8431691e-09
7.0917809e-09
7.3435101e-09
7.5881906e-09
7.8163283e-09
8.0202149e-09
8.1949503e-09
8.3390105e-09
8.4535549e-09
8.5406374e-09
8.602987e-09
8.6418128e-09
8.6617872e-09
8.6684623e-09
8.6690952e-09
8.6620286e-09
8.6457922e-09
8.6222072e-09
8.5803575e-09
8.5221772e-09
8.484647e-09
8.4676476e-09
8.4630074e-09
8.502831e-09
0.0010462292
0.0024757987
0.0031842237
0.0032809896
0.0026607576
0.00090971735
4.2733667e-06
5.9719532e-09
5.3959199e-09
5.3922777e-09
5.2809581e-09
5.3182015e-09
5.2585402e-09
5.3032881e-09
5.31197e-09
5.3575721e-09
5.3959146e-09
5.4601754e-09
5.5334165e-09
5.6301083e-09
5.7422797e-09
5.8762926e-09
6.0271507e-09
6.2033042e-09
6.4024239e-09
6.6249126e-09
6.8655674e-09
7.1177065e-09
7.3712542e-09
7.6157765e-09
7.841964e-09
8.0425239e-09
8.2132034e-09
8.3531608e-09
8.4639503e-09
8.5481997e-09
8.6085005e-09
8.6451416e-09
8.6628725e-09
8.6683425e-09
8.6689376e-09
8.6612985e-09
8.6445108e-09
8.619896e-09
8.5747174e-09
8.5151928e-09
8.4812058e-09
8.4635151e-09
8.4610921e-09
8.5069721e-09
0.0010393538
0.0024367149
0.0031096335
0.0031665905
0.0024930819
0.00075254365
1.2359727e-06
5.8233388e-09
5.3677403e-09
5.3673658e-09
5.2585282e-09
5.2972229e-09
5.2388942e-09
5.2844544e-09
5.2943288e-09
5.3419102e-09
5.3845053e-09
5.4533073e-09
5.529456e-09
5.6285208e-09
5.7419367e-09
5.8781485e-09
6.0350203e-09
6.2164672e-09
6.4215269e-09
6.6495783e-09
6.8950459e-09
7.1505198e-09
7.4054486e-09
7.6491586e-09
7.8725916e-09
8.0690352e-09
8.2349522e-09
8.3701541e-09
8.4766077e-09
8.5576975e-09
8.6151231e-09
8.6489732e-09
8.6644312e-09
8.6687532e-09
8.6689385e-09
8.6606418e-09
8.6432808e-09
8.6173577e-09
8.5686249e-09
8.5110988e-09
8.4775435e-09
8.4615703e-09
8.4593824e-09
8.5098764e-09
0.0010332276
0.0023993049
0.0030362325
0.0030516253
0.0023211535
0.00061458533
3.7289048e-07
5.7357354e-09
5.3457226e-09
5.3477353e-09
5.2416368e-09
5.2809337e-09
5.2243604e-09
5.2712555e-09
5.2841955e-09
5.3350864e-09
5.3801819e-09
5.4508888e-09
5.5287149e-09
5.6288749e-09
5.7458706e-09
5.8867851e-09
6.048586e-09
6.2360283e-09
6.4470948e-09
6.6809047e-09
6.9311595e-09
7.1897034e-09
7.4454921e-09
7.6877092e-09
7.9076188e-09
8.0991833e-09
8.259617e-09
8.389423e-09
8.4909341e-09
8.5686376e-09
8.622547e-09
8.6532274e-09
8.6662362e-09
8.6696269e-09
8.6690937e-09
8.6600843e-09
8.6419999e-09
8.6144438e-09
8.5620007e-09
8.5061674e-09
8.4743335e-09
8.459115e-09
8.4577691e-09
8.5127706e-09
0.0010272741
0.0023627144
0.002964633
0.0029394494
0.0021449394
0.00049561336
1.2520786e-07
5.6801567e-09
5.3291758e-09
5.3319144e-09
5.2284609e-09
5.2668725e-09
5.216452e-09
5.265471e-09
5.2802564e-09
5.3326076e-09
5.3792039e-09
5.4508298e-09
5.5305223e-09
5.6343798e-09
5.7553899e-09
5.9009269e-09
6.0686217e-09
6.2622066e-09
6.4796767e-09
6.7193693e-09
6.9743179e-09
7.235573e-09
7.4916087e-09
7.7315597e-09
7.9471036e-09
8.1329985e-09
8.287248e-09
8.4109964e-09
8.507016e-09
8.5811095e-09
8.6308227e-09
8.657923e-09
8.6683071e-09
8.670926e-09
8.6694435e-09
8.6595982e-09
8.6407033e-09
8.6111811e-09
8.5550391e-09
8.5017046e-09
8.4714124e-09
8.4572418e-09
8.456213e-09
8.5150257e-09
0.0010215283
0.0023263464
0.0028933785
0.0028281759
0.0019649861
0.00038888585
4.916584e-08
5.64389e-09
5.3182991e-09
5.3193132e-09
5.2164897e-09
5.2559416e-09
5.2133334e-09
5.2633387e-09
5.2792444e-09
5.3322649e-09
5.3802724e-09
5.4546082e-09
5.5377364e-09
5.6450629e-09
5.7706391e-09
5.9214568e-09
6.0951397e-09
6.29527e-09
6.5193515e-09
6.7650149e-09
7.024483e-09
7.2879942e-09
7.5435788e-09
7.7804294e-09
7.990749e-09
8.1701832e-09
8.3175421e-09
8.4345795e-09
8.5247866e-09
8.594835e-09
8.6397738e-09
8.66298e-09
8.6708722e-09
8.6726117e-09
8.6699854e-09
8.6591544e-09
8.6393314e-09
8.6075089e-09
8.5476794e-09
8.4970837e-09
8.4687883e-09
8.4555615e-09
8.4547532e-09
8.5168856e-09
0.001015985
0.0022901056
0.0028216151
0.0027150664
0.0017826029
0.00029449251
2.3489852e-08
5.6238933e-09
5.3068032e-09
5.3084656e-09
5.20649e-09
5.248747e-09
5.2123438e-09
5.2629222e-09
5.2804269e-09
5.3355672e-09
5.386372e-09
5.463384e-09
5.5499274e-09
5.6613887e-09
5.7918743e-09
5.9482712e-09
6.1284466e-09
6.3354277e-09
6.5663729e-09
6.8180277e-09
7.0817543e-09
7.3469612e-09
7.6013042e-09
7.8341556e-09
8.0383652e-09
8.2105393e-09
8.3502852e-09
8.4599857e-09
8.5444347e-09
8.6095476e-09
8.6492476e-09
8.6683029e-09
8.6739147e-09
8.6746003e-09
8.670684e-09
8.6587619e-09
8.637839e-09
8.6033607e-09
8.5400849e-09
8.4924747e-09
8.4663294e-09
8.4543525e-09
8.4538468e-09
8.5183576e-09
0.0010106786
0.0022540092
0.0027480466
0.0025996223
0.0015995052
0.00021014641
1.3729216e-08
5.6092508e-09
5.3033394e-09
5.3005796e-09
5.2012279e-09
5.2428585e-09
5.2141881e-09
5.2667151e-09
5.2864384e-09
5.3435729e-09
5.3970435e-09
5.4771695e-09
5.5675904e-09
5.6834217e-09
5.8192422e-09
5.9816803e-09
6.1686942e-09
6.3828753e-09
6.6208696e-09
6.8784715e-09
7.1460959e-09
7.4123333e-09
7.6645592e-09
7.8924635e-09
8.0896637e-09
8.2537666e-09
8.3851562e-09
8.4869987e-09
8.5658926e-09
8.6250214e-09
8.6590507e-09
8.6737953e-09
8.677572e-09
8.6767818e-09
8.6715304e-09
8.6583945e-09
8.6361473e-09
8.5986103e-09
8.5324985e-09
8.487745e-09
8.4638862e-09
8.4534231e-09
8.4534559e-09
8.5196894e-09
0.0010056263
0.0022187904
0.0026740231
0.002486787
0.001418136
0.00013500188
9.5999259e-09
5.598654e-09
5.3049474e-09
5.3029501e-09
5.2040382e-09
5.2464365e-09
5.2211557e-09
5.274984e-09
5.2968323e-09
5.3562178e-09
5.4127211e-09
5.4961692e-09
5.5907456e-09
5.7113719e-09
5.8529301e-09
6.0218199e-09
6.2160939e-09
6.4377922e-09
6.6829881e-09
6.9464085e-09
7.2174607e-09
7.4839543e-09
7.7331056e-09
7.955068e-09
8.1443365e-09
8.2995339e-09
8.4218382e-09
8.5155315e-09
8.5888747e-09
8.6410749e-09
8.6690401e-09
8.6796963e-09
8.6816912e-09
8.6791732e-09
8.6725204e-09
8.6580279e-09
8.6341802e-09
8.5931379e-09
8.525283e-09
8.4830675e-09
8.4613733e-09
8.4525915e-09
8.4532469e-09
8.5210888e-09
0.0010008624
0.0021851294
0.0026055291
0.0023742455
0.0012413096
7.2805087e-05
7.6955658e-09
5.5930983e-09
5.3079313e-09
5.3086766e-09
5.2118176e-09
5.2558451e-09
5.2322437e-09
5.2875566e-09
5.3118077e-09
5.3736292e-09
5.4333947e-09
5.5204913e-09
5.6195991e-09
5.7453808e-09
5.8931029e-09
6.0688847e-09
6.2708105e-09
6.5003279e-09
6.7528161e-09
7.0218327e-09
7.2957296e-09
7.5616008e-09
7.8066468e-09
8.0216291e-09
8.2020142e-09
8.3474538e-09
8.4600375e-09
8.5456605e-09
8.6129532e-09
8.6573959e-09
8.6790593e-09
8.6861488e-09
8.6861227e-09
8.6817351e-09
8.6735955e-09
8.6576314e-09
8.6318683e-09
8.5868838e-09
8.5187739e-09
8.4786242e-09
8.4587561e-09
8.4516221e-09
8.4531502e-09
8.5227686e-09
0.00099610492
0.0021514695
0.0025360834
0.0022600157
0.0010713518
3.09653e-05
6.7594017e-09
5.5906043e-09
5.3148575e-09
5.3168947e-09
5.2236128e-09
5.2687483e-09
5.2476512e-09
5.3045268e-09
5.3314121e-09
5.3959258e-09
5.459262e-09
5.5502953e-09
5.6542824e-09
5.7856207e-09
5.9399363e-09
6.1230478e-09
6.3330242e-09
6.5706262e-09
6.8304275e-09
7.1047099e-09
7.3807471e-09
7.6450104e-09
7.8848429e-09
8.0917549e-09
8.2622692e-09
8.3971206e-09
8.4995479e-09
8.5775311e-09
8.6374843e-09
8.6737024e-09
8.6891417e-09
8.6933247e-09
8.6906949e-09
8.6844498e-09
8.6747292e-09
8.6571724e-09
8.6291723e-09
8.5799305e-09
8.5131271e-09
8.4745317e-09
8.4559929e-09
8.4502798e-09
8.454303e-09
8.5248481e-09
0.00099147275
0.0021181339
0.0024666703
0.0021427549
0.00091057718
1.050519e-05
6.2848389e-09
5.5928623e-09
5.3250215e-09
5.3294238e-09
5.239075e-09
5.2859143e-09
5.2674321e-09
5.3260987e-09
5.3558508e-09
5.4232731e-09
5.4904362e-09
5.5857075e-09
5.6949379e-09
5.832232e-09
5.993585e-09
6.1844744e-09
6.4028851e-09
6.6487944e-09
6.9158447e-09
7.1949452e-09
7.472297e-09
7.7338638e-09
7.9672908e-09
8.1649869e-09
8.3246316e-09
8.4481692e-09
8.5403222e-09
8.6109005e-09
8.6619173e-09
8.6897679e-09
8.6996507e-09
8.7008611e-09
8.6954208e-09
8.6872992e-09
8.6759471e-09
8.6566176e-09
8.6260859e-09
8.5728334e-09
8.5079255e-09
8.4708784e-09
8.4534602e-09
8.4483387e-09
8.4567759e-09
8.5273498e-09
0.00098683496
0.0020850214
0.0023970313
0.0020220583
0.00076149271
3.1216174e-06
6.0418716e-09
5.6008137e-09
5.3391398e-09
5.3454494e-09
5.2589893e-09
5.3075468e-09
5.2919526e-09
5.3524496e-09
5.3852508e-09
5.4557749e-09
5.5270288e-09
5.6268413e-09
5.7416902e-09
5.8853645e-09
6.0542144e-09
6.2533388e-09
6.4805533e-09
6.7349392e-09
7.0090728e-09
7.2924145e-09
7.5701231e-09
7.8277875e-09
8.0535143e-09
8.2407981e-09
8.3886321e-09
8.5003448e-09
8.5824086e-09
8.6449306e-09
8.6859554e-09
8.705476e-09
8.7109694e-09
8.7084795e-09
8.7002377e-09
8.6902557e-09
8.6772574e-09
8.6559394e-09
8.6226295e-09
8.5656761e-09
8.5030396e-09
8.467598e-09
8.4512233e-09
8.4464985e-09
8.4604692e-09
8.5302023e-09
0.00098227152
0.0020526403
0.0023273913
0.0019010709
0.00062550606
9.005379e-07
5.9199625e-09
5.612956e-09
5.357684e-09
5.3667962e-09
5.2834949e-09
5.3338406e-09
5.321212e-09
5.3836287e-09
5.4196543e-09
5.4934887e-09
5.5691103e-09
5.6737865e-09
5.7946515e-09
5.9451494e-09
6.1219719e-09
6.3297932e-09
6.5661541e-09
6.8291238e-09
7.1100621e-09
7.3969318e-09
7.6739011e-09
7.9263227e-09
8.1429577e-09
8.3186468e-09
8.4538805e-09
8.5535298e-09
8.625758e-09
8.6786972e-09
8.7093297e-09
8.7213843e-09
8.7226442e-09
8.7161059e-09
8.7051053e-09
8.6932791e-09
8.6786268e-09
8.6551083e-09
8.6188289e-09
8.5584379e-09
8.4984092e-09
8.4647547e-09
8.4495716e-09
8.4458382e-09
8.4652749e-09
8.5333446e-09
0.00097804174
0.0020216543
0.0022581586
0.0017742847
0.00050377107
2.7645983e-07
5.864012e-09
5.6298028e-09
5.3807761e-09
5.3925723e-09
5.3125016e-09
5.364667e-09
5.355092e-09
5.4196035e-09
5.4590771e-09
5.5364416e-09
5.6167506e-09
5.7266436e-09
5.8539513e-09
6.011746e-09
6.1970365e-09
6.4140145e-09
6.6598312e-09
6.93141e-09
7.2187476e-09
7.5082764e-09
7.7832449e-09
8.0289241e-09
8.2350178e-09
8.3980492e-09
8.5201213e-09
8.607657e-09
8.66979e-09
8.7114631e-09
8.7319357e-09
8.7379709e-09
8.7342954e-09
8.7236694e-09
8.7099706e-09
8.6963018e-09
8.6799697e-09
8.6540862e-09
8.6146886e-09
8.5510717e-09
8.4940465e-09
8.4624393e-09
8.4483936e-09
8.4454981e-09
8.4709385e-09
8.5366061e-09
0.00097416556
0.0019922268
0.0021935411
0.0016422039
0.00040022483
9.8068901e-08
5.8450512e-09
5.6508018e-09
5.4081899e-09
5.4225861e-09
5.3458296e-09
5.3999425e-09
5.3935824e-09
5.460377e-09
5.5035375e-09
5.5847003e-09
5.670027e-09
5.7855184e-09
5.919723e-09
6.0853125e-09
6.2795804e-09
6.5061646e-09
6.7616974e-09
7.0418109e-09
7.3350027e-09
7.6261483e-09
7.8976655e-09
8.1349631e-09
8.3291278e-09
8.4786811e-09
8.5872153e-09
8.6625065e-09
8.7132566e-09
8.7430572e-09
8.7543956e-09
8.7548236e-09
8.7457714e-09
8.7311162e-09
8.714792e-09
8.699242e-09
8.6810976e-09
8.6528143e-09
8.6101595e-09
8.5436023e-09
8.4899191e-09
8.4605943e-09
8.4478406e-09
8.445426e-09
8.4772758e-09
8.5399808e-09
0.00097060753
0.0019634649
0.0021328478
0.0015038755
0.00030784581
4.1645761e-08
5.8452105e-09
5.6758513e-09
5.4399037e-09
5.4567462e-09
5.3834539e-09
5.4396465e-09
5.43671e-09
5.505969e-09
5.5530949e-09
5.6383218e-09
5.7290344e-09
5.8505423e-09
5.9921309e-09
6.1660457e-09
6.3698114e-09
6.6064383e-09
6.8718825e-09
7.1603415e-09
7.4586721e-09
7.7501877e-09
8.0165873e-09
8.2438024e-09
8.4248739e-09
8.5603858e-09
8.6549601e-09
8.7173453e-09
8.7552137e-09
8.773446e-09
8.7773058e-09
8.7714081e-09
8.7569866e-09
8.7384028e-09
8.7195383e-09
8.7020388e-09
8.6816289e-09
8.6512097e-09
8.6051121e-09
8.536123e-09
8.4859959e-09
8.4590286e-09
8.4475934e-09
8.4454575e-09
8.4842948e-09
8.543354e-09
0.00096725314
0.0019344742
0.0020690873
0.0013600936
0.00022496283
2.1708418e-08
5.85825e-09
5.7049928e-09
5.4756284e-09
5.4951052e-09
5.4254088e-09
5.4838304e-09
5.4845204e-09
5.5564374e-09
5.6078012e-09
5.6974073e-09
5.793894e-09
5.9218641e-09
6.0713523e-09
6.2541412e-09
6.4679306e-09
6.7150035e-09
6.9904803e-09
7.2869543e-09
7.5895147e-09
7.8799139e-09
8.13935e-09
8.3549043e-09
8.5220638e-09
8.6429784e-09
8.7227624e-09
8.7707973e-09
8.7954967e-09
8.8034823e-09
8.8000725e-09
8.7875654e-09
8.7678649e-09
8.7454942e-09
8.7241982e-09
8.7047012e-09
8.681848e-09
8.6491688e-09
8.5992971e-09
8.5287801e-09
8.4822679e-09
8.4576411e-09
8.4475418e-09
8.4455527e-09
8.4919511e-09
8.5466132e-09
0.00096425146
0.0019058672
0.0020064744
0.0012140282
0.00015095135
1.3778526e-08
5.8799791e-09
5.7382962e-09
5.5155552e-09
5.537716e-09
5.4717498e-09
5.5325279e-09
5.5370696e-09
5.6118326e-09
5.6677517e-09
5.7620592e-09
5.8647527e-09
5.9996684e-09
6.1576034e-09
6.3498374e-09
6.5741749e-09
6.8320571e-09
7.1175957e-09
7.4215903e-09
7.7272308e-09
8.0147596e-09
8.2653063e-09
8.4679622e-09
8.6206057e-09
8.7257875e-09
8.7892445e-09
8.8223567e-09
8.8344533e-09
8.8334738e-09
8.8221885e-09
8.8031705e-09
8.7783439e-09
8.7523598e-09
8.7287737e-09
8.7073046e-09
8.6818867e-09
8.6465987e-09
8.5923737e-09
8.5218286e-09
8.4788254e-09
8.4566332e-09
8.4477762e-09
8.4465289e-09
8.4998612e-09
8.549712e-09
0.00096156747
0.0018771557
0.0019427781
0.0010721184
8.7926677e-05
1.0267344e-08
5.9081978e-09
5.7757677e-09
5.559647e-09
5.5845874e-09
5.5224902e-09
5.5857702e-09
5.5944259e-09
5.6722454e-09
5.7330501e-09
5.8324394e-09
5.9417874e-09
6.0841589e-09
6.2511056e-09
6.4533688e-09
6.6887626e-09
6.957763e-09
7.2532731e-09
7.5640964e-09
7.8713879e-09
8.1540596e-09
8.3939215e-09
8.5828877e-09
8.7200315e-09
8.8073236e-09
8.8536073e-09
8.8719562e-09
8.8730908e-09
8.8625156e-09
8.843561e-09
8.8181438e-09
8.7883689e-09
8.7589713e-09
8.7332667e-09
8.709939e-09
8.6818539e-09
8.6434527e-09
8.5842077e-09
8.515618e-09
8.4757517e-09
8.4562802e-09
8.4489731e-09
8.4486104e-09
8.5078176e-09
8.5527411e-09
0.00095889143
0.0018464978
0.0018771653
0.0009386303
4.202283e-05
8.5881901e-09
5.9417801e-09
5.8174158e-09
5.6078978e-09
5.6357295e-09
5.5776603e-09
5.6436232e-09
5.6567151e-09
5.7377996e-09
5.8038583e-09
5.9087152e-09
6.0252042e-09
6.1755713e-09
6.3521245e-09
6.5650153e-09
6.8119624e-09
7.0923215e-09
7.3975685e-09
7.7142728e-09
8.0214746e-09
8.297168e-09
8.5249178e-09
8.699515e-09
8.8187879e-09
8.8866062e-09
8.9154706e-09
8.9206972e-09
8.9105019e-09
8.8905541e-09
8.8640281e-09
8.8324186e-09
8.7978973e-09
8.7652985e-09
8.7376502e-09
8.7126478e-09
8.6818044e-09
8.6397693e-09
8.5755871e-09
8.5100713e-09
8.4731067e-09
8.4561974e-09
8.4504855e-09
8.4525494e-09
8.515586e-09
8.5556938e-09
0.00095611251
0.0018128863
0.0018082035
0.00081303512
1.6287564e-05
7.7474607e-09
5.9800579e-09
5.8631331e-09
5.6603181e-09
5.6911795e-09
5.6373731e-09
5.7061954e-09
5.7240303e-09
5.8086464e-09
5.8803508e-09
5.9910949e-09
6.115223e-09
6.2741506e-09
6.4609257e-09
6.6850509e-09
6.9440206e-09
7.2358915e-09
7.5504484e-09
7.8717784e-09
8.1768565e-09
8.443522e-09
8.6582281e-09
8.8167844e-09
8.9155001e-09
8.9628404e-09
8.9757442e-09
8.9680849e-09
8.9464861e-09
8.9173635e-09
8.8835073e-09
8.8459405e-09
8.8068968e-09
8.771314e-09
8.7418499e-09
8.7153825e-09
8.6814821e-09
8.6356186e-09
8.5669255e-09
8.5053491e-09
8.4709842e-09
8.4562478e-09
8.4513278e-09
8.4593916e-09
8.5230077e-09
8.5584921e-09
0.00095288955
0.0017760837
0.0017345943
0.00069620208
5.4565218e-06
7.3223888e-09
6.0229057e-09
5.9131589e-09
5.7170413e-09
5.751159e-09
5.7017656e-09
5.7736699e-09
5.796452e-09
5.8849708e-09
5.9627165e-09
6.0797839e-09
6.2120862e-09
6.3801829e-09
6.5778289e-09
6.8138088e-09
7.0852361e-09
7.3886648e-09
7.7118495e-09
8.0361971e-09
8.3369025e-09
8.5927982e-09
8.7936704e-09
8.932874e-09
9.0089625e-09
9.036405e-09
9.0347577e-09
9.0135036e-09
8.9808333e-09
8.9428571e-09
8.9019115e-09
8.8586559e-09
8.8153467e-09
8.7769933e-09
8.7457481e-09
8.7177894e-09
8.6807767e-09
8.6309758e-09
8.5583415e-09
8.5014551e-09
8.4701014e-09
8.4563541e-09
8.4523182e-09
8.4686811e-09
8.5299484e-09
8.5610976e-09
0.00094923269
0.0017355617
0.0016523674
0.00058825726
1.7144608e-06
7.1126516e-09
6.0706883e-09
5.9676185e-09
5.7782808e-09
5.8157388e-09
5.7709946e-09
5.8461582e-09
5.8742049e-09
5.9669374e-09
6.0511515e-09
6.1750132e-09
6.3160568e-09
6.4939699e-09
6.7031625e-09
6.9516153e-09
7.2358702e-09
7.5507322e-09
7.8815516e-09
8.2069528e-09
8.5010013e-09
8.7448749e-09
8.9298975e-09
9.0462772e-09
9.0984869e-09
9.1085815e-09
9.0914074e-09
9.0568537e-09
9.0134292e-09
8.9669248e-09
8.9191836e-09
8.8705328e-09
8.8232368e-09
8.7823352e-09
8.7492625e-09
8.7188845e-09
8.6795741e-09
8.6255638e-09
8.5499962e-09
8.497872e-09
8.4697471e-09
8.4572112e-09
8.4540814e-09
8.4791667e-09
8.5363385e-09
8.5635461e-09
0.00094512963
0.0016915704
0.0015580018
0.00049024498
5.5058155e-07
7.0182612e-09
6.123073e-09
6.0265064e-09
5.8440405e-09
5.8850339e-09
5.8451764e-09
5.9238232e-09
5.9574451e-09
6.0547335e-09
6.1458576e-09
6.2770248e-09
6.4274436e-09
6.615878e-09
6.8373292e-09
7.0988623e-09
7.3962342e-09
7.722169e-09
8.0592685e-09
8.383447e-09
8.6687304e-09
8.899614e-09
9.0648816e-09
9.1556927e-09
9.185201e-09
9.1785255e-09
9.145511e-09
9.0979265e-09
9.0441677e-09
8.9895031e-09
8.935276e-09
8.8815482e-09
8.8305572e-09
8.7873514e-09
8.7524633e-09
8.7193638e-09
8.67773e-09
8.6188476e-09
8.542395e-09
8.4944716e-09
8.4696656e-09
8.4587779e-09
8.4564385e-09
8.4910673e-09
8.5424991e-09
8.565924e-09
0.00094066581
0.0016454283
0.001454116
0.00040091037
1.9375732e-07
6.9875585e-09
6.1802108e-09
6.0900285e-09
5.914484e-09
5.9591835e-09
5.9244508e-09
6.0067928e-09
6.046328e-09
6.1485259e-09
6.2470662e-09
6.3861235e-09
6.5466003e-09
6.7463064e-09
6.9807343e-09
7.2559241e-09
7.5665602e-09
7.9029177e-09
8.2445263e-09
8.5650464e-09
8.8398241e-09
9.055803e-09
9.1968047e-09
9.2603689e-09
9.270268e-09
9.2453231e-09
9.1968e-09
9.1366305e-09
9.0729718e-09
9.010552e-09
8.9501574e-09
8.8916847e-09
8.837303e-09
8.7920522e-09
8.7555581e-09
8.7194773e-09
8.6751098e-09
8.6103446e-09
8.5362112e-09
8.4921898e-09
8.4698448e-09
8.461419e-09
8.4597052e-09
8.5027536e-09
8.5484932e-09
8.5682627e-09
0.00093621514
0.0015979608
0.0013424154
0.00032116728
7.9416754e-08
6.9927988e-09
6.2420479e-09
6.1581122e-09
5.9896506e-09
6.0382469e-09
6.0089243e-09
6.0951945e-09
6.1410074e-09
6.2485099e-09
6.3550554e-09
6.502664e-09
6.6739549e-09
6.885725e-09
7.1338555e-09
7.4232174e-09
7.7470924e-09
8.0928597e-09
8.4368179e-09
8.7512501e-09
9.014173e-09
9.2112388e-09
9.3242483e-09
9.3617172e-09
9.3523487e-09
9.3088286e-09
9.2451423e-09
9.1728683e-09
9.0997935e-09
9.0300256e-09
8.9638117e-09
8.9009291e-09
8.843471e-09
8.7964125e-09
8.7587093e-09
8.7194603e-09
8.6716145e-09
8.600492e-09
8.5310917e-09
8.4912996e-09
8.4714532e-09
8.4651678e-09
8.4645992e-09
8.5140609e-09
8.554254e-09
8.570555e-09
0.00093138537
0.0015478646
0.0012316313
0.00024809996
3.8366466e-08
7.0188636e-09
6.3083735e-09
6.230897e-09
6.0696603e-09
6.1223573e-09
6.098726e-09
6.1891701e-09
6.2417009e-09
6.3549423e-09
6.4702043e-09
6.627099e-09
6.8099911e-09
7.0346258e-09
7.2971685e-09
7.6011147e-09
7.9379397e-09
8.2916665e-09
8.6355234e-09
8.9416387e-09
9.191068e-09
9.3636164e-09
9.4461814e-09
9.4608816e-09
9.4305243e-09
9.3687658e-09
9.2904211e-09
9.2065828e-09
9.1245943e-09
9.0479056e-09
8.9762383e-09
8.9092787e-09
8.8490809e-09
8.8003827e-09
8.7616822e-09
8.7193874e-09
8.6671047e-09
8.5899624e-09
8.5264499e-09
8.4910424e-09
8.4738874e-09
8.4692939e-09
8.4723053e-09
8.5247815e-09
8.5597014e-09
8.5727818e-09
0.00092660799
0.0014927876
0.0011217746
0.00018059811
2.2083494e-08
7.0588134e-09
6.379517e-09
6.3084886e-09
6.1546506e-09
6.2116026e-09
6.1940006e-09
6.2889391e-09
6.3487237e-09
6.4683438e-09
6.5929831e-09
6.7599299e-09
6.9552432e-09
7.1935686e-09
7.4712069e-09
7.7900182e-09
8.1391606e-09
8.4989387e-09
8.8400951e-09
9.1360042e-09
9.3682398e-09
9.511408e-09
9.5638853e-09
9.5564945e-09
9.5045805e-09
9.4250017e-09
9.3325658e-09
9.2377359e-09
9.1473587e-09
9.0641947e-09
8.987455e-09
8.9167474e-09
8.8541565e-09
8.8039616e-09
8.7635173e-09
8.718661e-09
8.6612192e-09
8.5794511e-09
8.5220406e-09
8.4910272e-09
8.4764723e-09
8.4728832e-09
8.4836259e-09
8.5347261e-09
8.5648045e-09
8.5749445e-09
0.00092295306
0.0014446776
0.0010105431
0.00011909602
1.4953374e-08
7.1077141e-09
6.4553778e-09
6.3908999e-09
6.2446309e-09
6.3061641e-09
6.2950221e-09
6.3949157e-09
6.4625335e-09
6.5892241e-09
6.7239122e-09
6.9017212e-09
7.1102784e-09
7.3631157e-09
7.6564788e-09
7.990216e-09
8.3506159e-09
8.7141006e-09
9.0499654e-09
9.3339893e-09
9.5431197e-09
9.653061e-09
9.6786108e-09
9.6475397e-09
9.5742356e-09
9.4774135e-09
9.3715351e-09
9.266326e-09
9.1681007e-09
9.0789144e-09
8.9974978e-09
8.9233755e-09
8.8587257e-09
8.8073081e-09
8.7642898e-09
8.717106e-09
8.6532924e-09
8.5700602e-09
8.5181158e-09
8.4911685e-09
8.4792302e-09
8.4766354e-09
8.497734e-09
8.543756e-09
8.5695861e-09
8.5770682e-09
0.00091984159
0.0013949577
0.00089953343
6.7568748e-05
1.1557017e-08
7.1628037e-09
6.5360654e-09
6.478195e-09
6.3399496e-09
6.4064518e-09
6.4023689e-09
6.5076388e-09
6.5837012e-09
6.7181265e-09
6.8635512e-09
7.0530387e-09
7.2757151e-09
7.5439065e-09
7.8535357e-09
8.2019839e-09
8.5720916e-09
8.9366448e-09
9.2647148e-09
9.5339334e-09
9.7136508e-09
9.7892976e-09
9.7894356e-09
9.7335541e-09
9.6393368e-09
9.5259376e-09
9.4073161e-09
9.2923876e-09
9.1868648e-09
9.0921133e-09
9.0064106e-09
8.9291937e-09
8.8628103e-09
8.810623e-09
8.764555e-09
8.7144939e-09
8.6429053e-09
8.5627924e-09
8.5158728e-09
8.4922061e-09
8.4824285e-09
8.4807561e-09
8.5125181e-09
8.5524667e-09
8.5742222e-09
8.57919e-09
0.00091742123
0.0013436913
0.00079082599
3.1734138e-05
9.8533326e-09
7.2237373e-09
6.6218198e-09
6.571175e-09
6.4412959e-09
6.5132098e-09
6.5166398e-09
6.6276729e-09
6.7127114e-09
6.8555182e-09
7.0124509e-09
7.214522e-09
7.4522116e-09
7.7365733e-09
8.0628557e-09
8.425395e-09
8.803156e-09
9.1659943e-09
9.4840173e-09
9.7331194e-09
9.8779e-09
9.9213472e-09
9.8951496e-09
9.8142668e-09
9.6997556e-09
9.5705521e-09
9.4399409e-09
9.3159814e-09
9.2037136e-09
9.1038522e-09
9.0142345e-09
8.9342263e-09
8.866431e-09
8.8137888e-09
8.7646011e-09
8.7107335e-09
8.6313266e-09
8.556952e-09
8.5149341e-09
8.494072e-09
8.4863844e-09
8.4856753e-09
8.5266703e-09
8.5608126e-09
8.5787646e-09
8.581355e-09
0.00091584238
0.0012904232
0.00068620232
1.2493461e-05
8.9810859e-09
7.2925745e-09
6.7137878e-09
6.6707505e-09
6.5494088e-09
6.6269358e-09
6.6382725e-09
6.7554085e-09
6.8500218e-09
7.0019347e-09
7.1712437e-09
7.3868353e-09
7.6404947e-09
7.9418131e-09
8.28491e-09
8.6604465e-09
9.0433533e-09
9.4016624e-09
9.707312e-09
9.9286361e-09
1.0035269e-08
1.0049411e-08
9.9948494e-09
9.8894697e-09
9.7554366e-09
9.6112863e-09
9.469476e-09
9.3371656e-09
9.2186907e-09
9.1141711e-09
9.0209835e-09
8.9385037e-09
8.8696756e-09
8.8157983e-09
8.7645586e-09
8.7056724e-09
8.6195181e-09
8.5519587e-09
8.5147203e-09
8.49673e-09
8.4910193e-09
8.4922256e-09
8.5390547e-09
8.5685463e-09
8.58329e-09
8.5836929e-09
0.00091544349
0.0012368158
0.00058704056
4.3714507e-06
8.5436042e-09
7.3733194e-09
6.8124803e-09
6.7770399e-09
6.6644655e-09
6.7477878e-09
6.7675285e-09
6.8912362e-09
6.99613e-09
7.1580041e-09
7.3406123e-09
7.5707673e-09
7.8413278e-09
8.1602768e-09
8.5199917e-09
8.906876e-09
9.2920839e-09
9.6430523e-09
9.9318122e-09
1.0118451e-08
1.018688e-08
1.0171936e-08
1.0088294e-08
9.9590209e-09
9.8063726e-09
9.6482119e-09
9.4959977e-09
9.3559623e-09
9.2317821e-09
9.1230499e-09
9.0266512e-09
8.9421275e-09
8.8727588e-09
8.8166317e-09
8.7638255e-09
8.6989225e-09
8.6082913e-09
8.547564e-09
8.5148118e-09
8.4997655e-09
8.4951297e-09
8.5024472e-09
8.548977e-09
8.575372e-09
8.587808e-09
8.5863781e-09
0.00091611351
0.0011830105
0.00049413363
1.4678415e-06
8.3410047e-09
7.4602241e-09
6.9174537e-09
6.8897623e-09
6.7864842e-09
6.8760211e-09
6.9048205e-09
7.0357026e-09
7.1516797e-09
7.3244505e-09
7.5213755e-09
7.767133e-09
8.055548e-09
8.3926403e-09
8.7683401e-09
9.1643613e-09
9.5488277e-09
9.8897001e-09
1.0154489e-08
1.0300394e-08
1.0334356e-08
1.0287503e-08
1.0175188e-08
1.0022864e-08
9.8526197e-09
9.6814251e-09
9.5195591e-09
9.3723502e-09
9.2429538e-09
9.1304675e-09
9.031297e-09
8.9453465e-09
8.8757225e-09
8.8169578e-09
8.7619726e-09
8.6897591e-09
8.5983954e-09
8.5438872e-09
8.515238e-09
8.5026716e-09
8.4989164e-09
8.514357e-09
8.5570896e-09
8.5810186e-09
8.5919995e-09
8.5899946e-09
0.00091690008
0.0011189326
0.00040803146
5.1586019e-07
8.2649092e-09
7.5531256e-09
7.0288759e-09
7.0093622e-09
6.9159942e-09
7.0122016e-09
7.050808e-09
7.1894763e-09
7.3174484e-09
7.5021158e-09
7.7143974e-09
7.9768667e-09
8.2839899e-09
8.6394454e-09
9.0299366e-09
9.4323734e-09
9.8128919e-09
1.0140128e-08
1.0372182e-08
1.0475206e-08
1.0475902e-08
1.0395766e-08
1.0255369e-08
1.0081008e-08
9.8942777e-09
9.7110128e-09
9.5401831e-09
9.3863412e-09
9.2523141e-09
9.1365825e-09
9.0352058e-09
8.9484806e-09
8.8777668e-09
8.8170772e-09
8.7587191e-09
8.6777397e-09
8.5904577e-09
8.5408698e-09
8.5159781e-09
8.5054932e-09
8.502517e-09
8.5258815e-09
8.5643243e-09
8.5860838e-09
8.5959502e-09
8.5937987e-09
0.00091802018
0.0010513245
0.00032977354
2.0270993e-07
8.259066e-09
7.6533777e-09
7.1473736e-09
7.1366732e-09
7.0536312e-09
7.1570712e-09
7.2061735e-09
7.3533873e-09
7.494278e-09
7.6919251e-09
7.9206609e-09
8.2009084e-09
8.5275232e-09
8.9011819e-09
9.3046804e-09
9.710446e-09
1.0083699e-08
1.0391177e-08
1.0582496e-08
1.0644094e-08
1.0610158e-08
1.049635e-08
1.0328761e-08
1.0133537e-08
9.9314702e-09
9.7370348e-09
9.5579101e-09
9.3981562e-09
9.2602953e-09
9.1418558e-09
9.0388554e-09
8.9515041e-09
8.8786068e-09
8.817099e-09
8.7540264e-09
8.6648627e-09
8.5834331e-09
8.5384054e-09
8.5168841e-09
8.5082926e-09
8.5061772e-09
8.5362182e-09
8.5710294e-09
8.590785e-09
8.5996712e-09
8.5974581e-09
0.00091887857
0.00097615684
0.00025913506
9.3354533e-08
8.2952986e-09
7.7612798e-09
7.2738873e-09
7.2722139e-09
7.2001458e-09
7.3113119e-09
7.371782e-09
7.5283028e-09
7.6831338e-09
7.8948727e-09
8.1411671e-09
8.440304e-09
8.7869282e-09
9.1780938e-09
9.5921478e-09
9.9978769e-09
1.0360421e-08
1.0639188e-08
1.0784019e-08
1.0807276e-08
1.0735804e-08
1.0589043e-08
1.0395374e-08
1.0180574e-08
9.9642988e-09
9.7595376e-09
9.572931e-09
9.408356e-09
9.2675321e-09
9.1467975e-09
9.0423815e-09
8.9532787e-09
8.879013e-09
8.8166586e-09
8.7479288e-09
8.6518129e-09
8.57757e-09
8.5372735e-09
8.5181061e-09
8.5111163e-09
8.5099146e-09
8.5459075e-09
8.5772566e-09
8.5951429e-09
8.6031193e-09
8.6008908e-09
0.0009192585
0.00089534219
0.00019798953
5.135961e-08
8.3579184e-09
7.8772848e-09
7.4088519e-09
7.4167128e-09
7.3563101e-09
7.4758294e-09
7.5485299e-09
7.7152218e-09
7.8849968e-09
8.1120193e-09
8.3770404e-09
8.696051e-09
9.0629587e-09
9.470325e-09
9.8919315e-09
1.0293898e-08
1.0640782e-08
1.0880919e-08
1.097768e-08
1.0962792e-08
1.0852608e-08
1.0673734e-08
1.0455312e-08
1.0222263e-08
9.9928423e-09
9.7786599e-09
9.5857215e-09
9.4175973e-09
9.2741318e-09
9.1511855e-09
9.0446287e-09
8.9539645e-09
8.8791965e-09
8.8154573e-09
8.7402489e-09
8.6394749e-09
8.5726304e-09
8.5368947e-09
8.519838e-09
8.5141584e-09
8.5138327e-09
8.5547068e-09
8.5829466e-09
8.599106e-09
8.6062631e-09
8.6040512e-09
0.00091876582
0.00080308424
0.00014317243
3.2669985e-08
8.4390963e-09
8.0021353e-09
7.5529983e-09
7.5710168e-09
7.5230556e-09
7.6515299e-09
7.737434e-09
7.915032e-09
8.1009746e-09
8.3445159e-09
8.6294301e-09
8.9692475e-09
9.3561651e-09
9.7777087e-09
1.020339e-08
1.0597566e-08
1.0920797e-08
1.1113282e-08
1.1165134e-08
1.1108748e-08
1.0960161e-08
1.0750414e-08
1.0508704e-08
1.0258714e-08
1.0017212e-08
9.7947934e-09
9.5969656e-09
9.4258161e-09
9.2784992e-09
9.1531755e-09
9.0455269e-09
8.9542154e-09
8.8792639e-09
8.8131124e-09
8.7303059e-09
8.6287424e-09
8.568498e-09
8.5369332e-09
8.522121e-09
8.5175814e-09
8.5190535e-09
8.5623764e-09
8.5880275e-09
8.6026613e-09
8.6090935e-09
8.6069227e-09
0.00091910379
0.00072067745
9.7463472e-05
2.3504146e-08
8.5352117e-09
8.1365913e-09
7.7074e-09
7.7360628e-09
7.7013482e-09
7.8393686e-09
7.9394777e-09
8.1289678e-09
8.3322035e-09
8.5936372e-09
8.8996386e-09
9.2608691e-09
9.666985e-09
1.0099965e-08
1.0525855e-08
1.0907827e-08
1.1196238e-08
1.1336146e-08
1.1344728e-08
1.1244493e-08
1.1058343e-08
1.0819187e-08
1.055571e-08
1.0290047e-08
1.003771e-08
9.8086396e-09
9.6070294e-09
9.4311348e-09
9.2804545e-09
9.1541186e-09
9.045859e-09
8.9542589e-09
8.8789698e-09
8.8092944e-09
8.7175167e-09
8.6203568e-09
8.5651004e-09
8.5370818e-09
8.5246148e-09
8.5207086e-09
8.5270956e-09
8.5687161e-09
8.5925031e-09
8.6058504e-09
8.6116454e-09
8.6095375e-09
0.00092090109
0.00065857953
6.179055e-05
1.8588059e-08
8.6448142e-09
8.2818e-09
7.8728576e-09
7.9127563e-09
7.8920918e-09
8.0402711e-09
8.1557291e-09
8.3582478e-09
8.5800395e-09
8.8607711e-09
9.1889665e-09
9.5718788e-09
9.9955417e-09
1.0436492e-08