/*--------------------------------*- C++ -*----------------------------------*\
  =========                 |
  \\      /  F ield         | OpenFOAM: The Open Source CFD Toolbox
   \\    /   O peration     | Website:  https://openfoam.org
    \\  /    A nd           | Version:  8
     \\/     M anipulation  |
\*---------------------------------------------------------------------------*/
FoamFile
{
    version     2.0;
    format      ascii;
    class       volVectorField;
    location    "0.189994";
    object      cellDisplacement;
}
// * * * * * * * * * * * * * * * * * * * * * * * * * * * * * * * * * * * * * //

dimensions      [0 1 0 0 0 0 0];

internalField   nonuniform List<vector> 
20000
(
(-0.002605196 0 -0.0019004603)
(-0.0026051752 0 -0.0019007182)
(-0.0026051356 0 -0.0019016759)
(-0.0026050519 0 -0.0019028745)
(-0.0026049039 0 -0.0019043577)
(-0.002604664 0 -0.0019061959)
(-0.0026042941 0 -0.0019084814)
(-0.0026037417 0 -0.0019113341)
(-0.0026029355 0 -0.0019149151)
(-0.0026017792 0 -0.0019194398)
(-0.0026001431 0 -0.0019252013)
(-0.0025978545 0 -0.0019325975)
(-0.0025946849 0 -0.001942171)
(-0.002590335 0 -0.0019546597)
(-0.0025844166 0 -0.0019710654)
(-0.0025764325 0 -0.0019927435)
(-0.0025657563 0 -0.0020215235)
(-0.0025516131 0 -0.0020598436)
(-0.0025330667 0 -0.0021109578)
(-0.0025090206 0 -0.0021791129)
(-0.00247824 0 -0.0022697649)
(-0.0024394102 0 -0.0023897137)
(-0.0023912366 0 -0.0025470961)
(-0.0023325866 0 -0.0027510994)
(-0.0022626816 0 -0.0030111926)
(-0.0021812656 0 -0.003335875)
(-0.0020887848 0 -0.0037306014)
(-0.0019863924 0 -0.0041959119)
(-0.0018759914 0 -0.0047248946)
(-0.0017599366 0 -0.0053028524)
(-0.0016410007 0 -0.0059068147)
(-0.0015219131 0 -0.0065090028)
(-0.001405276 0 -0.0070796389)
(-0.0012931362 0 -0.0075924315)
(-0.001187086 0 -0.0080256778)
(-0.0010878447 0 -0.0083668718)
(-0.00099573166 0 -0.0086088733)
(-0.00091046823 0 -0.008750309)
(-0.00083154817 0 -0.0087923807)
(-0.00075819533 0 -0.0087374056)
(-0.00068948714 0 -0.0085844681)
(-0.00062443079 0 -0.0083319734)
(-0.00056210542 0 -0.007976268)
(-0.00050082634 0 -0.0075058655)
(-0.0004391564 0 -0.0069069819)
(-0.00037588817 0 -0.0061623368)
(-0.00030814816 0 -0.0052391617)
(-0.00023437146 0 -0.0041074446)
(-0.00014971664 0 -0.0027002874)
(-4.9412922e-05 0 -0.00092967401)
(-0.0025962291 0 -0.001542441)
(-0.0025962169 0 -0.0015429709)
(-0.0025961724 0 -0.0015436184)
(-0.0025960815 0 -0.0015444195)
(-0.0025959242 0 -0.0015454296)
(-0.0025956723 0 -0.0015467119)
(-0.0025952869 0 -0.0015483511)
(-0.0025947145 0 -0.0015504597)
(-0.0025938826 0 -0.0015531886)
(-0.0025926931 0 -0.0015567413)
(-0.0025910144 0 -0.001561394)
(-0.0025886712 0 -0.0015675219)
(-0.0025854318 0 -0.00157564)
(-0.0025809931 0 -0.0015864555)
(-0.0025749624 0 -0.001600939)
(-0.0025668378 0 -0.0016204209)
(-0.0025559877 0 -0.0016467105)
(-0.0025416328 0 -0.0016822586)
(-0.0025228343 0 -0.0017303329)
(-0.0024984965 0 -0.0017952472)
(-0.0024673928 0 -0.0018825635)
(-0.0024282267 0 -0.00199925)
(-0.0023797359 0 -0.0021536817)
(-0.0023208381 0 -0.0023553524)
(-0.002250817 0 -0.0026141088)
(-0.0021694915 0 -0.0029388534)
(-0.002077368 0 -0.0033355144)
(-0.001975646 0 -0.0038050421)
(-0.0018662102 0 -0.0043410596)
(-0.0017513668 0 -0.004929277)
(-0.0016337742 0 -0.0055471582)
(-0.0015160478 0 -0.0061670346)
(-0.0014006712 0 -0.0067589809)
(-0.0012896254 0 -0.0072960392)
(-0.0011844553 0 -0.0077557253)
(-0.0010859062 0 -0.0081242925)
(-0.00099431557 0 -0.0083936562)
(-0.00090944995 0 -0.0085615956)
(-0.00083083372 0 -0.008628735)
(-0.00075771903 0 -0.0085970116)
(-0.00068921 0 -0.0084656008)
(-0.00062432248 0 -0.0082328501)
(-0.00056212329 0 -0.0078950205)
(-0.00050098383 0 -0.0074410822)
(-0.00043945692 0 -0.0068572571)
(-0.00037626613 0 -0.006125904)
(-0.00030863853 0 -0.0052148512)
(-0.00023481299 0 -0.0040923681)
(-0.0001500912 0 -0.0026924725)
(-4.9558353e-05 0 -0.00092606072)
(-0.002586066 0 -0.0011921859)
(-0.0025860484 0 -0.0011924965)
(-0.0025859969 0 -0.0011928769)
(-0.0025858973 0 -0.0011933673)
(-0.0025857288 0 -0.0011940052)
(-0.0025854625 0 -0.0011948404)
(-0.0025850585 0 -0.0011959429)
(-0.0025844621 0 -0.0011974086)
(-0.0025835993 0 -0.0011993708)
(-0.0025823702 0 -0.0012020138)
(-0.0025806407 0 -0.0012055946)
(-0.0025782326 0 -0.0012104684)
(-0.0025749108 0 -0.0012171302)
(-0.0025703679 0 -0.0012262651)
(-0.0025642066 0 -0.0012388231)
(-0.0025559196 0 -0.0012561139)
(-0.00254487 0 -0.0012799386)
(-0.0025302736 0 -0.0013127424)
(-0.0025111893 0 -0.0013578293)
(-0.0024865229 0 -0.0014195697)
(-0.0024550569 0 -0.0015036372)
(-0.0024155154 0 -0.0016171696)
(-0.0023666714 0 -0.0017687786)
(-0.0023074969 0 -0.0019682574)
(-0.0022373437 0 -0.0022258082)
(-0.0021561093 0 -0.0025507085)
(-0.0020643658 0 -0.0029493008)
(-0.0019633582 0 -0.0034228992)
(-0.0018549555 0 -0.003965592)
(-0.0017414117 0 -0.0045634637)
(-0.0016252689 0 -0.0051943947)
(-0.0015090238 0 -0.0058308649)
(-0.0013950362 0 -0.0064428744)
(-0.0012852133 0 -0.0070029145)
(-0.0011810481 0 -0.0074878071)
(-0.0010833049 0 -0.0078826699)
(-0.00099233688 0 -0.0081785055)
(-0.00090795481 0 -0.0083722602)
(-0.00082971448 0 -0.0084639652)
(-0.00075689858 0 -0.0084551553)
(-0.00068863829 0 -0.0083450358)
(-0.00062396173 0 -0.0081318848)
(-0.00056192665 0 -0.0078118715)
(-0.00050095622 0 -0.007374369)
(-0.00043959674 0 -0.0068056109)
(-0.00037651149 0 -0.0060876476)
(-0.00030901319 0 -0.0051888038)
(-0.00023517183 0 -0.0040758807)
(-0.00015040761 0 -0.0026836495)
(-4.968415e-05 0 -0.00092220046)
(-0.00257474 0 -0.0008495048)
(-0.0025747154 0 -0.00084959313)
(-0.002574655 0 -0.0008497104)
(-0.0025745441 0 -0.00084988713)
(-0.0025743612 0 -0.00085015072)
(-0.0025740767 0 -0.00085053984)
(-0.0025736495 0 -0.00085111089)
(-0.0025730237 0 -0.00085194486)
(-0.0025721236 0 -0.00085315787)
(-0.0025708472 0 -0.00085491531)
(-0.0025690577 0 -0.00085745275)
(-0.0025665738 0 -0.00086110369)
(-0.0025631565 0 -0.00086633907)
(-0.0025584938 0 -0.00087382212)
(-0.0025521829 0 -0.00088448129)
(-0.0025437108 0 -0.00089961181)
(-0.0025324347 0 -0.00092100266)
(-0.0025175657 0 -0.00095111472)
(-0.0024981596 0 -0.00099327255)
(-0.0024731248 0 -0.0010519186)
(-0.0024412541 0 -0.0011328398)
(-0.0024012944 0 -0.0012433476)
(-0.0023520581 0 -0.0013922918)
(-0.0022925754 0 -0.0015897588)
(-0.0022222721 0 -0.0018462836)
(-0.0021411286 0 -0.0021714861)
(-0.0020497877 0 -0.002572062)
(-0.0019495392 0 -0.0030496404)
(-0.0018422386 0 -0.0035987007)
(-0.0017300816 0 -0.0042056749)
(-0.0016154945 0 -0.0048488294)
(-0.0015008478 0 -0.0055008399)
(-0.0013883744 0 -0.0061316899)
(-0.0012799002 0 -0.0067134386)
(-0.0011768634 0 -0.0072222911)
(-0.0010800374 0 -0.0076423487)
(-0.00098979195 0 -0.0079637307)
(-0.0009059787 0 -0.0081825725)
(-0.00082818682 0 -0.0082982984)
(-0.00075573046 0 -0.008312024)
(-0.00068776941 0 -0.0082229268)
(-0.0006233461 0 -0.0080292006)
(-0.00056151345 0 -0.0077269202)
(-0.00050074177 0 -0.0073058028)
(-0.00043957492 0 -0.0067521071)
(-0.00037662277 0 -0.0060476091)
(-0.00030927367 0 -0.0051610793)
(-0.00023544776 0 -0.0040580116)
(-0.0001506669 0 -0.0026738429)
(-4.9790393e-05 0 -0.00091808754)
(-0.0025622906 0 -0.00051424267)
(-0.0025622568 0 -0.00051410546)
(-0.0025621848 0 -0.00051395297)
(-0.0025620594 0 -0.00051380973)
(-0.0025618585 0 -0.00051369462)
(-0.0025615515 0 -0.00051363617)
(-0.0025610963 0 -0.00051367896)
(-0.0025604354 0 -0.00051388844)
(-0.0025594912 0 -0.00051436455)
(-0.0025581594 0 -0.00051525253)
(-0.0025563003 0 -0.00051676704)
(-0.0025537292 0 -0.00051921812)
(-0.0025502025 0 -0.00052305391)
(-0.0025454033 0 -0.00052891362)
(-0.002538923 0 -0.00053770608)
(-0.0025302423 0 -0.00055071)
(-0.0025187123 0 -0.00056971271)
(-0.0025035382 0 -0.00059717676)
(-0.0024837741 0 -0.0006364729)
(-0.0024583306 0 -0.00069211018)
(-0.0024260127 0 -0.00076999795)
(-0.0023855927 0 -0.00087762708)
(-0.002335926 0 -0.0010240861)
(-0.0022761057 0 -0.0012197478)
(-0.0022056373 0 -0.0014754575)
(-0.0021245879 0 -0.0018011435)
(-0.0020336753 0 -0.0022037963)
(-0.0019342331 0 -0.0026853089)
(-0.001828103 0 -0.0032404842)
(-0.0017174188 0 -0.003856063)
(-0.0016044882 0 -0.0045106797)
(-0.0014915512 0 -0.0051772323)
(-0.0013807103 0 -0.0058257514)
(-0.0012737038 0 -0.0064279653)
(-0.0011719116 0 -0.0069595515)
(-0.0010761103 0 -0.0074036931)
(-0.00098668357 0 -0.0077496733)
(-0.00090352269 0 -0.0079928382)
(-0.00082625037 0 -0.0081320023)
(-0.00075421396 0 -0.0081678438)
(-0.00068660222 0 -0.0080994641)
(-0.00062247465 0 -0.0079249548)
(-0.0005608825 0 -0.0076402909)
(-0.00050033991 0 -0.0072354851)
(-0.00043939107 0 -0.0066968241)
(-0.00037659982 0 -0.0060058507)
(-0.0003094186 0 -0.0051317039)
(-0.00023563981 0 -0.0040387787)
(-0.00015086826 0 -0.0026630619)
(-4.9877154e-05 0 -0.00091372566)
(-0.0025487511 0 -0.0001862484)
(-0.0025487066 0 -0.00018589154)
(-0.0025486212 0 -0.00018547866)
(-0.0025484791 0 -0.0001850248)
(-0.0025482572 0 -0.00018453878)
(-0.0025479239 0 -0.00018403795)
(-0.0025474357 0 -0.0001835542)
(-0.0025467336 0 -0.00018313988)
(-0.0025457381 0 -0.00018287853)
(-0.0025443421 0 -0.00018289855)
(-0.0025424031 0 -0.00018339458)
(-0.0025397323 0 -0.00018465534)
(-0.0025360816 0 -0.0001871057)
(-0.0025311287 0 -0.00019136313)
(-0.0025244585 0 -0.00019831479)
(-0.0025155449 0 -0.00020922577)
(-0.0025037321 0 -0.00022587562)
(-0.0024882204 0 -0.00025074898)
(-0.0024680605 0 -0.00028724616)
(-0.0024421675 0 -0.00033996184)
(-0.0024093596 0 -0.00041493296)
(-0.0023684373 0 -0.00051983741)
(-0.0023183034 0 -0.00066400544)
(-0.0022581183 0 -0.00085808887)
(-0.0021874725 0 -0.0011132206)
(-0.0021065241 0 -0.0014396005)
(-0.0020160687 0 -0.0018444578)
(-0.0019174825 0 -0.0023298949)
(-0.0018125923 0 -0.0028909736)
(-0.001703465 0 -0.0035147097)
(-0.0015922878 0 -0.0041800788)
(-0.0014811657 0 -0.0048602334)
(-0.0013720684 0 -0.0055252986)
(-0.0012666417 0 -0.0061467724)
(-0.0011662047 0 -0.0066998811)
(-0.0010715303 0 -0.0071669973)
(-0.00098301513 0 -0.0075366114)
(-0.00090058752 0 -0.0078033108)
(-0.00082390461 0 -0.007965297)
(-0.00075234745 0 -0.0080228005)
(-0.00068513502 0 -0.0079748011)
(-0.00062134536 0 -0.0078192707)
(-0.0005600317 0 -0.0075520798)
(-0.00049974865 0 -0.007163489)
(-0.00043904381 0 -0.0066398199)
(-0.00037644076 0 -0.0059624085)
(-0.00030944884 0 -0.00510073)
(-0.00023574768 0 -0.004018209)
(-0.00015101246 0 -0.0026513287)
(-4.9944628e-05 0 -0.00090911161)
(-0.0025341518 0 0.00013463222)
(-0.0025340944 0 0.00013521256)
(-0.0025339929 0 0.0001358927)
(-0.0025338309 0 0.00013666326)
(-0.0025335845 0 0.00013752402)
(-0.0025332209 0 0.00013846749)
(-0.0025326952 0 0.00013947382)
(-0.0025319466 0 0.00014050513)
(-0.0025308932 0 0.00014149366)
(-0.0025294252 0 0.00014233021)
(-0.0025273965 0 0.00014283978)
(-0.0025246142 0 0.0001427554)
(-0.0025208251 0 0.00014167386)
(-0.0025157007 0 0.00013900034)
(-0.0025088195 0 0.00013386577)
(-0.0024996479 0 0.00012501961)
(-0.0024875231 0 0.00011068095)
(-0.0024716393 0 8.8356612e-05)
(-0.0024510458 0 5.4589384e-05)
(-0.0024246619 0 4.7034195e-06)
(-0.0023913215 0 -6.7479189e-05)
(-0.0023498563 0 -0.00016982989)
(-0.0022992203 0 -0.00031192374)
(-0.0022386463 0 -0.0005046823)
(-0.0021678147 0 -0.00075950181)
(-0.0020869786 0 -0.0010868161)
(-0.0019970135 0 -0.001494038)
(-0.0018993359 0 -0.0019834261)
(-0.0017957555 0 -0.0025502385)
(-0.0016882679 0 -0.0031817278)
(-0.0015789366 0 -0.0038571938)
(-0.0014697289 0 -0.0045500601)
(-0.0013624789 0 -0.005230598)
(-0.0012587371 0 -0.00587016)
(-0.0011597586 0 -0.006443606)
(-0.0010663082 0 -0.0069325877)
(-0.00097879318 0 -0.0073248591)
(-0.00089717719 0 -0.0076142778)
(-0.00082115151 0 -0.0077984392)
(-0.00075013196 0 -0.0078771148)
(-0.00068336802 0 -0.0078491261)
(-0.00061995826 0 -0.0077123056)
(-0.00055896062 0 -0.007462414)
(-0.00049896787 0 -0.0070899185)
(-0.00043853302 0 -0.0065811752)
(-0.00037614565 0 -0.005917347)
(-0.00030936329 0 -0.0050681872)
(-0.0002357703 0 -0.0039963211)
(-0.00015109897 0 -0.0026386563)
(-4.999248e-05 0 -0.0009042461)
(-0.0025185268 0 0.00044854369)
(-0.0025184548 0 0.00044934339)
(-0.0025183353 0 0.00045028352)
(-0.0025181511 0 0.00045136387)
(-0.0025178771 0 0.00045259371)
(-0.0025174793 0 0.0004539764)
(-0.0025169112 0 0.00045550452)
(-0.00251611 0 0.0004571531)
(-0.0025149913 0 0.00045887016)
(-0.0025134423 0 0.00046056274)
(-0.0025113133 0 0.00046207533)
(-0.0025084066 0 0.00046316123)
(-0.0025044636 0 0.00046343949)
(-0.0024991495 0 0.00046233554)
(-0.0024920352 0 0.00045899989)
(-0.0024825796 0 0.0004521927)
(-0.002470112 0 0.00044013673)
(-0.0024538215 0 0.00042030989)
(-0.0024327551 0 0.00038921148)
(-0.0024058385 0 0.00034206132)
(-0.0023719231 0 0.0002725342)
(-0.0023298751 0 0.00017255622)
(-0.002278704 0 3.2303296e-05)
(-0.0022177201 0 -0.00015940548)
(-0.0021466983 0 -0.00041420269)
(-0.0020659904 0 -0.00074271681)
(-0.0019765527 0 -0.0011524907)
(-0.0018798397 0 -0.0016458817)
(-0.0017776404 0 -0.002218289)
(-0.0016718738 0 -0.0028571668)
(-0.0015644774 0 -0.0035421163)
(-0.0014572774 0 -0.0042468549)
(-0.0013519717 0 -0.0049418376)
(-0.0012500126 0 -0.0055983558)
(-0.0011525897 0 -0.006190975)
(-0.0010604548 0 -0.0067007233)
(-0.00097402439 0 -0.0071146681)
(-0.00089329517 0 -0.0074259746)
(-0.00081799264 0 -0.0076316383)
(-0.00074756755 0 -0.0077309675)
(-0.00068130071 0 -0.0077225906)
(-0.00061831222 0 -0.0076041833)
(-0.00055766782 0 -0.0073713906)
(-0.00049799602 0 -0.0070148484)
(-0.00043785756 0 -0.0065209493)
(-0.00037571284 0 -0.0058707045)
(-0.00030916265 0 -0.0050341273)
(-0.00023570759 0 -0.0039731446)
(-0.00015112834 0 -0.0026250654)
(-5.0021113e-05 0 -0.0008991289)
(-0.0025019102 0 0.00075563424)
(-0.0025018215 0 0.0007566561)
(-0.0025016813 0 0.00075786084)
(-0.0025014714 0 0.00075925502)
(-0.0025011661 0 0.00076085626)
(-0.0025007297 0 0.00076267805)
(-0.002500114 0 0.00076472446)
(-0.0024992541 0 0.00076698501)
(-0.0024980628 0 0.00076942298)
(-0.002496424 0 0.00077196366)
(-0.0024941838 0 0.00077447056)
(-0.0024911396 0 0.000776718)
(-0.0024870269 0 0.00077834525)
(-0.0024815038 0 0.00077879908)
(-0.0024741336 0 0.00077724659)
(-0.0024643666 0 0.00077245979)
(-0.0024515248 0 0.00076265519)
(-0.0024347908 0 0.00074529228)
(-0.002413212 0 0.00071679602)
(-0.002385721 0 0.00067228149)
(-0.002351189 0 0.00060526273)
(-0.0023085201 0 0.0005074574)
(-0.0022567843 0 0.00036878691)
(-0.0021953735 0 0.00017782572)
(-0.002124162 0 -7.7265373e-05)
(-0.0020436037 0 -0.00040726994)
(-0.0019547353 0 -0.00081980711)
(-0.0018590462 0 -0.0013172799)
(-0.0017583003 0 -0.0018951727)
(-0.0016543348 0 -0.002541107)
(-0.001548958 0 -0.0032349701)
(-0.0014438535 0 -0.003950785)
(-0.0013405819 0 -0.0046592302)
(-0.0012404959 0 -0.0053316084)
(-0.0011447183 0 -0.0059422673)
(-0.0010539848 0 -0.0064716913)
(-0.00096871868 0 -0.006906322)
(-0.00088894815 0 -0.0072386672)
(-0.00081443215 0 -0.0074651367)
(-0.00074465689 0 -0.0075845705)
(-0.00067893457 0 -0.0075953786)
(-0.00061640821 0 -0.0074950595)
(-0.00055615362 0 -0.0072791372)
(-0.00049683345 0 -0.0069383837)
(-0.00043701761 0 -0.0064592249)
(-0.0003751426 0 -0.0058225472)
(-0.00030884591 0 -0.0049985816)
(-0.0002355584 0 -0.0039486983)
(-0.00015110013 0 -0.0026105705)
(-5.0029982e-05 0 -0.00089375932)
(-0.0024843331 0 0.0010560424)
(-0.0024842259 0 0.0010572822)
(-0.0024840627 0 0.0010587455)
(-0.0024838248 0 0.0010604476)
(-0.0024834846 0 0.0010624158)
(-0.0024830053 0 0.0010646738)
(-0.0024823366 0 0.001067238)
(-0.0024814113 0 0.0010701108)
(-0.0024801392 0 0.0010732713)
(-0.0024784009 0 0.0010766603)
(-0.0024760379 0 0.0010801608)
(-0.0024728423 0 0.0010835663)
(-0.0024685432 0 0.0010865377)
(-0.0024627911 0 0.0010885412)
(-0.002455141 0 0.0010887619)
(-0.0024450343 0 0.0010859805)
(-0.0024317847 0 0.0010784112)
(-0.0024145704 0 0.001063473)
(-0.0023924385 0 0.0010375206)
(-0.0023643314 0 0.0009955366)
(-0.0023291421 0 0.00093086903)
(-0.0022858157 0 0.00083502302)
(-0.0022334884 0 0.00069765578)
(-0.0021716379 0 0.00050711758)
(-0.0021002421 0 0.00025139592)
(-0.0020198601 0 -8.0409477e-05)
(-0.0019316081 0 -0.0004959405)
(-0.0018370057 0 -0.00099758987)
(-0.0017377868 0 -0.0015808796)
(-0.0016357012 0 -0.0022335673)
(-0.0015324253 0 -0.0029358077)
(-0.0014294981 0 -0.0036619466)
(-0.0013283433 0 -0.0043829145)
(-0.0012302138 0 -0.0050700962)
(-0.0011361648 0 -0.0056976865)
(-0.0010469124 0 -0.0062457123)
(-0.00096288572 0 -0.0067000424)
(-0.00088414213 0 -0.0070525687)
(-0.00081047363 0 -0.0072991286)
(-0.00074140166 0 -0.0074380959)
(-0.00067627027 0 -0.0074676365)
(-0.00061424601 0 -0.0073850559)
(-0.00055441723 0 -0.0071857511)
(-0.00049547905 0 -0.0068606004)
(-0.00043601225 0 -0.0063960618)
(-0.00037443349 0 -0.0057729155)
(-0.00030841375 0 -0.004961602)
(-0.00023532285 0 -0.0039230145)
(-0.00015101472 0 -0.0025951913)
(-5.0019634e-05 0 -0.00088813936)
(-0.0024658219 0 0.0013499089)
(-0.0024656938 0 0.0013513693)
(-0.002465505 0 0.0013530957)
(-0.0024652356 0 0.00135511)
(-0.0024648569 0 0.0013574473)
(-0.0024643303 0 0.001360142)
(-0.0024636035 0 0.0013632216)
(-0.0024626068 0 0.0013667025)
(-0.0024612467 0 0.0013705792)
(-0.0024593998 0 0.0013748106)
(-0.0024569027 0 0.0013792982)
(-0.0024535419 0 0.001383856)
(-0.0024490394 0 0.0013881653)
(-0.0024430376 0 0.0013917131)
(-0.0024350824 0 0.0013937009)
(-0.002424606 0 0.0013929195)
(-0.0024109141 0 0.0013875712)
(-0.0023931798 0 0.0013750427)
(-0.0023704549 0 0.0013515678)
(-0.0023416914 0 0.0013119939)
(-0.0023058057 0 0.0012494994)
(-0.0022617881 0 0.0011553791)
(-0.002208847 0 0.0010190054)
(-0.002146549 0 0.00082853833)
(-0.0020749799 0 0.00057182665)
(-0.0019948075 0 0.00023789072)
(-0.0019072241 0 -0.00018088093)
(-0.001813775 0 -0.00068681822)
(-0.0017161578 0 -0.001275435)
(-0.0016160294 0 -0.0019345963)
(-0.0015149311 0 -0.002644712)
(-0.0014142575 0 -0.0033804597)
(-0.001315295 0 -0.0041130523)
(-0.0012191979 0 -0.0048140174)
(-0.0011269533 0 -0.0054574641)
(-0.0010392559 0 -0.0060230333)
(-0.00095653847 0 -0.0064960802)
(-0.00087888635 0 -0.0068679206)
(-0.00080612335 0 -0.0071338392)
(-0.00073780617 0 -0.0072917443)
(-0.00067331062 0 -0.0073395417)
(-0.00061182757 0 -0.0072743248)
(-0.00055245975 0 -0.0070913594)
(-0.00049393368 0 -0.0067816038)
(-0.00043484202 0 -0.0063315444)
(-0.00037358603 0 -0.0057218772)
(-0.00030786525 0 -0.004923222)
(-0.00023499979 0 -0.0038961133)
(-0.00015087165 0 -0.0025789431)
(-4.9989472e-05 0 -0.00088226879)
(-0.0024464088 0 0.0016373669)
(-0.002446258 0 0.0016390455)
(-0.0024460412 0 0.0016410307)
(-0.0024457374 0 0.0016433529)
(-0.0024453166 0 0.0016460569)
(-0.0024447381 0 0.0016491867)
(-0.0024439475 0 0.0016527822)
(-0.0024428723 0 0.0016568724)
(-0.0024414156 0 0.0016614671)
(-0.0024394498 0 0.0016665416)
(-0.0024368064 0 0.0016720159)
(-0.0024332655 0 0.0016777243)
(-0.0024285414 0 0.0016833701)
(-0.0024222679 0 0.0016884606)
(-0.0024139809 0 0.0016922169)
(-0.0024031028 0 0.0016934396)
(-0.0023889314 0 0.0016903177)
(-0.0023706365 0 0.0016801947)
(-0.0023472791 0 0.0016591286)
(-0.0023178207 0 0.0016218218)
(-0.0022812013 0 0.0015613028)
(-0.0022364604 0 0.0014686632)
(-0.0021828879 0 0.0013329448)
(-0.0021201396 0 0.0011421736)
(-0.002048414 0 0.00088409797)
(-0.0019684904 0 0.00054768764)
(-0.0018816336 0 0.00012541786)
(-0.0017894077 0 -0.00038492638)
(-0.0016934682 0 -0.00097881159)
(-0.0015953728 0 -0.0016441859)
(-0.0014965255 0 -0.0023616999)
(-0.0013981756 0 -0.0031063792)
(-0.0013014741 0 -0.0038497362)
(-0.0012074781 0 -0.0045635041)
(-0.0011171071 0 -0.0052217605)
(-0.0010310323 0 -0.0058038362)
(-0.00094968921 0 -0.0062946252)
(-0.00087318903 0 -0.0066849115)
(-0.00080138667 0 -0.0069694452)
(-0.0007338736 0 -0.0071456765)
(-0.00067005742 0 -0.0072112336)
(-0.00060915351 0 -0.0071629843)
(-0.00055028102 0 -0.0069960578)
(-0.00049219668 0 -0.0067014702)
(-0.00043350624 0 -0.0062657333)
(-0.00037259896 0 -0.0056694743)
(-0.00030720107 0 -0.0048834937)
(-0.00023458952 0 -0.0038680293)
(-0.00015067126 0 -0.0025618461)
(-4.9940098e-05 0 -0.00087615052)
(-0.002426121 0 0.0019185512)
(-0.002425945 0 0.0019204497)
(-0.0024256973 0 0.0019226972)
(-0.0024253558 0 0.0019253303)
(-0.0024248887 0 0.0019284023)
(-0.0024242536 0 0.0019319669)
(-0.0024233937 0 0.0019360758)
(-0.0024222333 0 0.0019407718)
(-0.002420672 0 0.0019460796)
(-0.0024185774 0 0.0019519925)
(-0.0024157753 0 0.0019584496)
(-0.0024120389 0 0.001965306)
(-0.0024070743 0 0.0019722868)
(-0.0024005056 0 0.0019789228)
(-0.0023918579 0 0.0019844577)
(-0.0023805426 0 0.0019877119)
(-0.0023658528 0 0.0019868218)
(-0.0023469506 0 0.0019791768)
(-0.0023229277 0 0.0019603997)
(-0.0022927396 0 0.001925173)
(-0.0022553512 0 0.0018664022)
(-0.0022098579 0 0.0017749891)
(-0.0021556432 0 0.0016395437)
(-0.0020924476 0 0.0014480692)
(-0.0020205887 0 0.0011882403)
(-0.0019409604 0 0.00084899983)
(-0.0018548933 0 0.00042296539)
(-0.0017639641 0 -9.1910857e-05)
(-0.001669779 0 -0.00069101457)
(-0.0015737907 0 -0.0013623562)
(-0.0014772631 0 -0.0020868175)
(-0.0013813014 0 -0.0028397822)
(-0.0012869224 0 -0.0035930813)
(-0.001195089 0 -0.004318707)
(-0.0011066533 0 -0.0049907616)
(-0.0010222625 0 -0.0055883275)
(-0.00094235333 0 -0.0060958941)
(-0.00086706155 0 -0.0065037561)
(-0.0007962717 0 -0.0068061518)
(-0.00072960969 0 -0.0070000789)
(-0.00066651463 0 -0.0070828805)
(-0.00060622668 0 -0.0070511812)
(-0.00054788288 0 -0.0068999712)
(-0.00049026936 0 -0.0066203042)
(-0.0004320058 0 -0.0061987134)
(-0.00037147302 0 -0.0056157762)
(-0.00030642039 0 -0.0048424519)
(-0.00023409092 0 -0.003838784)
(-0.000150413 0 -0.0025439156)
(-4.9870899e-05 0 -0.00086978506)
(-0.0024049853 0 0.0021935895)
(-0.0024047822 0 0.0021957061)
(-0.0024045013 0 0.002198212)
(-0.0024041191 0 0.0022011525)
(-0.0024036022 0 0.0022045895)
(-0.0024029061 0 0.0022085872)
(-0.0024019712 0 0.002213209)
(-0.0024007185 0 0.0022185111)
(-0.0023990438 0 0.0022245331)
(-0.0023968095 0 0.0022312852)
(-0.0023938355 0 0.0022387252)
(-0.0023898873 0 0.0022467293)
(-0.0023846621 0 0.0022550455)
(-0.0023777731 0 0.0022632305)
(-0.0023687327 0 0.0022705623)
(-0.0023569376 0 0.0022759402)
(-0.002341694 0 0.0022771982)
(-0.0023221936 0 0.0022714336)
(-0.0022974938 0 0.0022546362)
(-0.0022665443 0 0.0022212672)
(-0.0022283493 0 0.0021640536)
(-0.0021820702 0 0.0020737166)
(-0.0021271425 0 0.0019388857)
(-0.0020635083 0 0.0017462873)
(-0.0019915453 0 0.0014843122)
(-0.0019122656 0 0.0011418768)
(-0.0018270572 0 0.00071180994)
(-0.0017375015 0 0.00019227771)
(-0.0016451482 0 -0.00041199753)
(-0.0015513392 0 -0.0010890718)
(-0.0014571959 0 -0.0018200479)
(-0.0013636809 0 -0.0025806835)
(-0.001271679 0 -0.0033431364)
(-0.0011820626 0 -0.004079713)
(-0.0010956174 0 -0.0047645847)
(-0.0010129659 0 -0.0053766502)
(-0.00093454523 0 -0.0059000435)
(-0.00086051404 0 -0.006324616)
(-0.00079078544 0 -0.0066441156)
(-0.00072501898 0 -0.0068550978)
(-0.00066268511 0 -0.0069546125)
(-0.00060304852 0 -0.006939028)
(-0.00054526577 0 -0.0068031926)
(-0.00048815154 0 -0.0065381813)
(-0.00043034026 0 -0.0061305455)
(-0.00037020719 0 -0.0055608261)
(-0.00030552388 0 -0.0048001496)
(-0.00023350439 0 -0.003808414)
(-0.00015009721 0 -0.0025251726)
(-4.9782524e-05 0 -0.00086317658)
(-0.0023830335 0 0.00246261)
(-0.0023828008 0 0.0024649452)
(-0.0023824837 0 0.0024677106)
(-0.0023820572 0 0.0024709589)
(-0.0023814861 0 0.0024747611)
(-0.0023807235 0 0.0024791914)
(-0.0023797071 0 0.0024843249)
(-0.0023783546 0 0.0024902306)
(-0.0023765571 0 0.0024969641)
(-0.0023741718 0 0.0025045518)
(-0.0023710119 0 0.0025129712)
(-0.002366835 0 0.002522118)
(-0.0023613284 0 0.0025317616)
(-0.0023540935 0 0.0025414775)
(-0.002344629 0 0.0025505474)
(-0.0023323406 0 0.0025578317)
(-0.0023165597 0 0.002560968)
(-0.0022964491 0 0.0025568402)
(-0.0022710209 0 0.00254178)
(-0.0022392652 0 0.0025100794)
(-0.002200221 0 0.0024542381)
(-0.0021531102 0 0.0023647294)
(-0.0020974579 0 0.0022303111)
(-0.0020333619 0 0.0020368502)
(-0.001961331 0 0.0017723306)
(-0.0018824615 0 0.0014263282)
(-0.001798186 0 0.00099196029)
(-0.0017100833 0 0.0004676518)
(-0.0016196395 0 -0.00014174765)
(-0.0015280794 0 -0.00082432704)
(-0.0014363803 0 -0.0015614036)
(-0.0013453646 0 -0.0023291226)
(-0.0012557873 0 -0.0030999742)
(-0.0011684352 0 -0.0038466295)
(-0.0010840286 0 -0.0045433725)
(-0.0010031654 0 -0.0051689715)
(-0.00092628232 0 -0.0057072561)
(-0.00085355965 0 -0.0061476787)
(-0.00078493755 0 -0.0064835203)
(-0.00072010853 0 -0.0067109047)
(-0.00065857395 0 -0.0068265876)
(-0.00059962273 0 -0.006826665)
(-0.00054243221 0 -0.0067058437)
(-0.00048584501 0 -0.0064552048)
(-0.00042851085 0 -0.0060613148)
(-0.00036880242 0 -0.0055046943)
(-0.00030451084 0 -0.0047566229)
(-0.00023282892 0 -0.0037769426)
(-0.00014972332 0 -0.0025056333)
(-4.967432e-05 0 -0.00085632574)
(-0.0023602875 0 0.0027257364)
(-0.0023600229 0 0.0027282892)
(-0.0023596668 0 0.0027313133)
(-0.0023591926 0 0.0027348687)
(-0.0023585631 0 0.0027390351)
(-0.0023577291 0 0.002743897)
(-0.0023566251 0 0.0027495408)
(-0.002355165 0 0.0027560491)
(-0.0023532354 0 0.0027634925)
(-0.0023506876 0 0.0027719146)
(-0.0023473278 0 0.0027813113)
(-0.0023429047 0 0.0027916)
(-0.0023370953 0 0.0028025734)
(-0.0023294889 0 0.0028138335)
(-0.0023195746 0 0.0028246758)
(-0.0023068066 0 0.0028334335)
(-0.0022904648 0 0.0028381913)
(-0.0022696729 0 0.0028359359)
(-0.0022434686 0 0.0028226076)
(-0.0022108595 0 0.0027924506)
(-0.0021709261 0 0.0027377809)
(-0.0021229643 0 0.0026487938)
(-0.002066621 0 0.0025139096)
(-0.0020020205 0 0.0023198202)
(-0.0019299906 0 0.0020523429)
(-0.0018516005 0 0.0017023968)
(-0.0017683373 0 0.0012634672)
(-0.0016817697 0 0.00073427214)
(-0.0015933131 0 0.00011980078)
(-0.0015040691 0 -0.00056806119)
(-0.0014148696 0 -0.0013108364)
(-0.0013263997 0 -0.0020850783)
(-0.0012392877 0 -0.0028636036)
(-0.0011542403 0 -0.0036195023)
(-0.0010719138 0 -0.0043272024)
(-0.00099288207 0 -0.0049653969)
(-0.00091758053 0 -0.0055176561)
(-0.00084621005 0 -0.0059730788)
(-0.00077873637 0 -0.0063245015)
(-0.000714884 0 -0.0065676295)
(-0.00065418492 0 -0.006698925)
(-0.0005959515 0 -0.0067141978)
(-0.00053938323 0 -0.0066080139)
(-0.00048335 0 -0.006371449)
(-0.00042651742 0 -0.0059910821)
(-0.00036725791 0 -0.0054474258)
(-0.000303382 0 -0.0047119258)
(-0.00023206495 0 -0.0037444078)
(-0.0001492916 0 -0.0024853189)
(-4.9546961e-05 0 -0.00084923766)
(-0.0023367711 0 0.0029830898)
(-0.0023364722 0 0.0029858608)
(-0.0023360741 0 0.0029891438)
(-0.0023355486 0 0.0029930066)
(-0.0023348565 0 0.0029975372)
(-0.0023339457 0 0.0030028301)
(-0.0023327477 0 0.0030089834)
(-0.0023311723 0 0.0030160927)
(-0.002329101 0 0.0030242436)
(-0.002326379 0 0.0030334965)
(-0.0023228046 0 0.0030438671)
(-0.002318117 0 0.0030552946)
(-0.0023119809 0 0.0030675994)
(-0.0023039703 0 0.0030804297)
(-0.0022936151 0 0.0030928009)
(-0.0022803484 0 0.0031030745)
(-0.0022633924 0 0.0031094569)
(-0.0022418785 0 0.0031089258)
(-0.0022148524 0 0.0030972347)
(-0.0021813444 0 0.0030684842)
(-0.0021404847 0 0.0030147829)
(-0.0020916554 0 0.0029260024)
(-0.0020346099 0 0.0027902814)
(-0.0019695955 0 0.0025946133)
(-0.0018975773 0 0.0023243645)
(-0.0018197426 0 0.0019700908)
(-0.0017375754 0 0.0015263467)
(-0.001652627 0 0.00099216793)
(-0.0015662347 0 0.0003726835)
(-0.0014793707 0 -0.00032023966)
(-0.0013927209 0 -0.0010683246)
(-0.0013068374 0 -0.0018485527)
(-0.0012222243 0 -0.0026340559)
(-0.0011395152 0 -0.0033983966)
(-0.0010593036 0 -0.0041161752)
(-0.0009821401 0 -0.0047660553)
(-0.00090845876 0 -0.0053313917)
(-0.0008384798 0 -0.0058009747)
(-0.00077219286 0 -0.0061672204)
(-0.00070935355 0 -0.0064254262)
(-0.00064952408 0 -0.0065717707)
(-0.00059203928 0 -0.0066017586)
(-0.00053612199 0 -0.0065098201)
(-0.00048066877 0 -0.0062870149)
(-0.00042436153 0 -0.0059199323)
(-0.00036557486 0 -0.0053890915)
(-0.00030213674 0 -0.0046660958)
(-0.00023121157 0 -0.0037108351)
(-0.00014880152 0 -0.002464247)
(-4.9399797e-05 0 -0.00084191384)
(-0.0023125084 0 0.0032347886)
(-0.0023121728 0 0.003237777)
(-0.0023117298 0 0.0032413182)
(-0.0023111495 0 0.0032454872)
(-0.0023103902 0 0.0032503809)
(-0.0023093974 0 0.0032561035)
(-0.0023080989 0 0.0032627643)
(-0.0023064002 0 0.0032704722)
(-0.0023041774 0 0.0032793272)
(-0.0023012692 0 0.0032894055)
(-0.0022974656 0 0.0033007396)
(-0.0022924958 0 0.0033132855)
(-0.0022860123 0 0.0033268747)
(-0.0022775971 0 0.0033411483)
(-0.0022667971 0 0.0033548754)
(-0.0022529742 0 0.0033667708)
(-0.0022353606 0 0.0033748034)
(-0.0022130806 0 0.003375924)
(-0.0021851857 0 0.0033657733)
(-0.0021507335 0 0.0033382898)
(-0.0021089123 0 0.0032853615)
(-0.0020592056 0 0.003196459)
(-0.0020014743 0 0.0030595153)
(-0.0019361322 0 0.002861269)
(-0.0018641192 0 0.0025884206)
(-0.0017869447 0 0.002229444)
(-0.0017059613 0 0.0017806531)
(-0.0016227174 0 0.001241412)
(-0.0015384655 0 0.00061698474)
(-0.0014540422 0 -8.0778434e-05)
(-0.0013699872 0 -0.00083379154)
(-0.0012867247 0 -0.0016194928)
(-0.0012046373 0 -0.0024113043)
(-0.0011242937 0 -0.0031833206)
(-0.0010462255 0 -0.0039103312)
(-0.00097096148 0 -0.0045710168)
(-0.00089893398 0 -0.0051485549)
(-0.00083038164 0 -0.0056314742)
(-0.00076531639 0 -0.0060117901)
(-0.00070352377 0 -0.0062844081)
(-0.00064459597 0 -0.0064452319)
(-0.00058788892 0 -0.006489445)
(-0.00053265003 0 -0.0064113471)
(-0.00047780194 0 -0.0062019746)
(-0.00042204326 0 -0.0058479256)
(-0.00036375263 0 -0.0053297372)
(-0.00030077594 0 -0.0046191883)
(-0.00023026937 0 -0.0036762644)
(-0.00014825335 0 -0.0024424394)
(-4.9233477e-05 0 -0.00083435972)
(-0.002287522 0 0.0034809489)
(-0.0022871471 0 0.003484155)
(-0.0022866561 0 0.0034879547)
(-0.0022860172 0 0.0034924301)
(-0.0022851864 0 0.0034976866)
(-0.0022841061 0 0.0035038384)
(-0.0022827003 0 0.0035110059)
(-0.0022808701 0 0.0035193107)
(-0.0022784859 0 0.0035288673)
(-0.002275379 0 0.0035397686)
(-0.0022713309 0 0.0035520654)
(-0.00226606 0 0.0035657358)
(-0.0022592066 0 0.0035806446)
(-0.0022503855 0 0.0035961346)
(-0.002239102 0 0.0036112879)
(-0.0022246926 0 0.0036247278)
(-0.0022063826 0 0.003634352)