/*--------------------------------*- C++ -*----------------------------------*\
  =========                 |
  \\      /  F ield         | OpenFOAM: The Open Source CFD Toolbox
   \\    /   O peration     | Website:  https://openfoam.org
    \\  /    A nd           | Version:  8
     \\/     M anipulation  |
\*---------------------------------------------------------------------------*/
FoamFile
{
    version     2.0;
    format      ascii;
    class       volScalarField;
    location    "0.189994";
    object      Ma;
}
// * * * * * * * * * * * * * * * * * * * * * * * * * * * * * * * * * * * * * //

dimensions      [0 0 0 0 0 0 0];

internalField   nonuniform List<scalar> 
20000
(
0.58544742
0.68739244
0.75484112
0.81404875
0.86959594
0.92078145
0.93395812
0.93732909
0.93376247
0.93462664
0.93205033
0.93159348
0.92915589
0.92757097
0.92481914
0.92213833
0.91862
0.91471388
0.91005211
0.90468023
0.89840877
0.89103968
0.88262442
0.87314439
0.8627552
0.85154386
0.83969789
0.82753616
0.81549105
0.80398963
0.79342993
0.78409281
0.77615625
0.76966752
0.76457932
0.76077067
0.75804857
0.75626641
0.75521304
0.75476019
0.75461966
0.75466226
0.75495762
0.75540662
0.7562261
0.75754837
0.75873208
0.75883681
0.7590808
0.75734521
0.58866514
0.69105342
0.75922033
0.81898591
0.87485566
0.9252439
0.93580703
0.93919037
0.93555722
0.93643741
0.93380525
0.9333246
0.93083543
0.92919343
0.9263837
0.92362785
0.92004351
0.91603544
0.91124188
0.90562944
0.89897896
0.89128852
0.88268699
0.87307336
0.86249426
0.85104206
0.8389762
0.82664999
0.81451268
0.80300386
0.79251013
0.78329416
0.77550375
0.76916216
0.76420285
0.76049837
0.75781731
0.75609053
0.75513016
0.75472674
0.75458346
0.75464228
0.75496357
0.75543838
0.75631619
0.75789698
0.75876683
0.7590574
0.75911643
0.75719546
0.59289186
0.69613696
0.76477675
0.82490697
0.88104248
0.92979109
0.93762053
0.94090053
0.93717044
0.93804419
0.93534136
0.93482087
0.93228321
0.93057973
0.92771625
0.92488106
0.92121366
0.91705271
0.91203362
0.90614112
0.89926625
0.89139264
0.88258893
0.87275349
0.86189899
0.85018698
0.83789827
0.82541598
0.81320687
0.80171881
0.79132481
0.78226521
0.77465609
0.76849417
0.7636945
0.76011463
0.75751279
0.75587992
0.75501793
0.75467318
0.75453097
0.75462259
0.75496898
0.75547927
0.75646222
0.75805962
0.75888093
0.75914338
0.7591504
0.75708622
0.59658636
0.70052067
0.76966178
0.83018441
0.88665442
0.93358878
0.93898092
0.94225503
0.93845091
0.93934949
0.9365862
0.93602098
0.93346873
0.93170348
0.92878017
0.92583678
0.92202179
0.91764934
0.91239758
0.90629285
0.89927968
0.89126079
0.88224579
0.87212106
0.86099083
0.84901469
0.83651057
0.82388993
0.811637
0.80020368
0.78994642
0.78107912
0.77368408
0.76773015
0.76311509
0.7596709
0.75717499
0.7556546
0.75489753
0.75460796
0.75447845
0.75460006
0.75497496
0.7555283
0.75663554
0.75823304
0.75899574
0.75923723
0.75919208
0.75697272
0.60018096
0.70482763
0.77445602
0.83533331
0.89213071
0.93697733
0.94007768
0.94336537
0.93945881
0.94037348
0.93752131
0.93691265
0.93436112
0.93251688
0.92949397
0.92639494
0.92241009
0.91785315
0.9124762
0.90624963
0.8990963
0.89087688
0.88157497
0.87115916
0.85973694
0.84749689
0.83478681
0.82204839
0.80978243
0.79844064
0.78835905
0.77972112
0.77257337
0.76685691
0.76245359
0.75915477
0.75679633
0.75541011
0.75476189
0.75452292
0.75441992
0.75457403
0.75498007
0.75558637
0.7568276
0.75838109
0.75910346
0.75930571
0.7592337
0.75687766
0.60354868
0.70889422
0.7790081
0.84021024
0.89730644
0.93985005
0.94082028
0.9441802
0.94017224
0.9410777
0.93823931
0.93760632
0.93491375
0.93296674
0.92983104
0.92658965
0.9225072
0.91784851
0.91236843
0.90599389
0.89863083
0.89015375
0.8805715
0.86985161
0.85813462
0.84563366
0.83273149
0.81990037
0.80765595
0.79644512
0.78657921
0.77820737
0.77133901
0.76588875
0.76172172
0.75857558
0.75638414
0.75514933
0.75461133
0.75441899
0.75435394
0.75454569
0.75498539
0.75565464
0.75703619
0.75853202
0.75920036
0.75936945
0.75927278
0.75679609
0.60677022
0.71279953
0.78340129
0.84490426
0.90221627
0.94220929
0.94142884
0.94473663
0.94074016
0.94160213
0.93870633
0.93798959
0.93515144
0.93310654
0.92990794
0.92658305
0.92242687
0.91765056
0.91202483
0.90544027
0.89784486
0.88909988
0.87921844
0.86818872
0.85617277
0.84341728
0.83034082
0.81744639
0.80526166
0.79422366
0.78461426
0.77654491
0.76998761
0.76483185
0.76091861
0.75793835
0.75594173
0.75487336
0.75444633
0.75429741
0.75428004
0.75451428
0.75499172
0.75573433
0.75725922
0.75867877
0.75929102
0.75942078
0.7593072
0.75673121
0.60980998
0.71651361
0.78761394
0.84940654
0.90679759
0.94407336
0.94167825
0.94515467
0.94099687
0.94189066
0.9388548
0.93811917
0.93518376
0.93306851
0.92981499
0.92639253
0.92213245
0.91719015
0.91137951
0.90457634
0.89672998
0.8876991
0.8775097
0.86616218
0.85384705
0.84084674
0.82761815
0.81469416
0.80261066
0.79178917
0.78247732
0.77474621
0.7685314
0.76369682
0.76004214
0.757255
0.75547653
0.75458587
0.75426318
0.75416087
0.75419893
0.75448056
0.75500106
0.75582804
0.7574941
0.75882705
0.75937607
0.75946014
0.75933326
0.75667836
0.61267023
0.72004909
0.79166582
0.85375196
0.91102826
0.94543951
0.94170736
0.94510093
0.94097013
0.94176299
0.9387718
0.93796192
0.9350448
0.93284318
0.92950909
0.9259509
0.9215541
0.91643651
0.91043144
0.90339044
0.89527783
0.8859479
0.87543765
0.86376646
0.85115379
0.83792218
0.82456815
0.81165269
0.79971499
0.78915504
0.78018171
0.77282417
0.76698304
0.76249262
0.75909082
0.75653716
0.75499613
0.75428882
0.75405737
0.75401339
0.75411154
0.75444513
0.75501576
0.75593965
0.7577331
0.75897615
0.75945893
0.75949381
0.75934547
0.75663147
0.61544526
0.72349798
0.79564059
0.85803568
0.91492771
0.94639599
0.94155887
0.9450232
0.94075504
0.94160077
0.93848268
0.93757495
0.93467025
0.9323576
0.92892976
0.92523145
0.92069291
0.915385
0.90916922
0.90187707
0.89348234
0.88383904
0.87299745
0.86099773
0.8480923
0.83464704
0.82119897
0.80833423
0.79658945
0.78633697
0.77774303
0.77079414
0.76535648
0.76122566
0.75807269
0.75579507
0.75450761
0.75398067
0.75382918
0.75385765
0.75401882
0.75440891
0.75503847
0.75607368
0.75796543
0.75912243
0.75953969
0.75952171
0.75934457
0.7565833
0.61812611
0.72683097
0.79949612
0.8622421
0.91840913
0.94696362
0.9412078
0.94468603
0.9403644
0.9411683
0.93798803
0.93701239
0.93402895
0.93160821
0.9280834
0.92423329
0.91953939
0.91402911
0.90758862
0.90003014
0.89133818
0.88136841
0.8701854
0.85785445
0.84466426
0.83102751
0.81752153
0.80475347
0.79325084
0.78335247
0.77517872
0.76867316
0.76366482
0.75989683
0.75700426
0.75503969
0.75401633
0.75365297
0.75358503
0.75369448
0.75392183
0.75437295
0.75507135
0.75623296
0.75818005
0.75926392
0.7596215
0.75954979
0.75933557
0.7565283
0.6206511
0.72998273
0.8031853
0.8663658
0.92139754
0.94709432
0.94063059
0.94410432
0.93973359
0.94047926
0.93725459
0.93618729
0.93314056
0.93059775
0.92696477
0.92295133
0.91808994
0.91236408
0.905684
0.89784509
0.88884104
0.87853213
0.86699925
0.8543367
0.84087359
0.82707227
0.81354921
0.8009272
0.7897179
0.78022103
0.77250818
0.7664789
0.7619184
0.75850414
0.7559085
0.75428322
0.75352313
0.75330002
0.75333178
0.75352503
0.75382147
0.75433838
0.75511573
0.75641618
0.75837093
0.75939608
0.75970488
0.75958635
0.75930519
0.75646241
0.6230356
0.73297061
0.80671223
0.87043259
0.92386685
0.94680904
0.93983167
0.94329595
0.9388648
0.93956367
0.93628043
0.93512039
0.93199625
0.9293194
0.92556832
0.92138027
0.91633911
0.91038564
0.90345191
0.8953185
0.88598802
0.87532818
0.86343842
0.85044677
0.83672682
0.82279286
0.80929807
0.79687473
0.78601184
0.77696463
0.76975241
0.76422789
0.76012348
0.75705321
0.75481004
0.75353498
0.7530197
0.75292577
0.75307357
0.75335038
0.75371792
0.75430628
0.75517191
0.75661457
0.75854193
0.75951559
0.75978416
0.75963441
0.75923238
0.75638371
0.62526985
0.73577505
0.8100476
0.87443349
0.92577301
0.94610392
0.93880068
0.94225688
0.9377593
0.93838803
0.93505824
0.93379141
0.93058592
0.92776545
0.92388808
0.91951626
0.91428426
0.9080915
0.90088998
0.89244819
0.88277713
0.87175526
0.85950347
0.84618842
0.83223238
0.81820288
0.80478616
0.79261742
0.78215622
0.77360703
0.76693213
0.76193311
0.75828278
0.75556753
0.75372671
0.75279856
0.7524938
0.75254257
0.75281182
0.75317177
0.75361101
0.75427773
0.7552394
0.75681984
0.75870061
0.7596216
0.75985105
0.75968087
0.75911628
0.75629248
0.62738335
0.73841215
0.81319122
0.87837346
0.92710934
0.94493756
0.9375328
0.94097504
0.93640124
0.93696714
0.93357394
0.93219374
0.92890394
0.92593317
0.92192289
0.91735877
0.91192468
0.90548092
0.89799733
0.88923314
0.87920763
0.86781356
0.85519665
0.84156759
0.82740121
0.81331853
0.8000343
0.78817976
0.77817738
0.77017275
0.7640658
0.75960335
0.75640087
0.75408238
0.75266901
0.75206493
0.75194687
0.75215816
0.75254874
0.75299098
0.75350168
0.75425378
0.75531758
0.75703174
0.75884979
0.75971363
0.7598981
0.75970803
0.7589603
0.75619082
0.62932444
0.74083649
0.81608506
0.88220032
0.9278399
0.9433823
0.93600399
0.93942713
0.9347832
0.93528067
0.93182784
0.93032869
0.92695316
0.92382563
0.91967495
0.91490944
0.90926122
0.90255414
0.89477362
0.88567265
0.87527902
0.86350365
0.85052109
0.8365915
0.82224589
0.80815788
0.7950656
0.78358887
0.77410277
0.76668384
0.76116717
0.75724526
0.75449495
0.7526292
0.75164076
0.75131741
0.75139425
0.75177591
0.75228627
0.7528105
0.75339304
0.75423578
0.75540635
0.75725171
0.75899024
0.75979174
0.75992976
0.75971219
0.75878096
0.75608196
0.63107457
0.74305358
0.81873148
0.88588511
0.92795563
0.94185322
0.93422801
0.93762784
0.93292188
0.93334237
0.92983086
0.9282054
0.92474009
0.92144756
0.91714743
0.91217044
0.90629513
0.89931167
0.89121876
0.88176632
0.87099132
0.85882703
0.84548138
0.83126945
0.81678138
0.80274187
0.78990663
0.77887458
0.76995868
0.76315744
0.75824627
0.75486985
0.75260156
0.75122446
0.75063127
0.75055569
0.75084708
0.75139839
0.75202625
0.75263333
0.75329066
0.75422569
0.75550712
0.75747972
0.75912236
0.75985637
0.75994628
0.75970698
0.75857367
0.75596951
0.63265106
0.74509383
0.82117752
0.88942473
0.92752678
0.9399525
0.93222649
0.93559613
0.93083427
0.93116292
0.92759166
0.92583026
0.92226939
0.91880264
0.91434276
0.90914375
0.90302741
0.89575366
0.88733223
0.87751336
0.86634431
0.85378535
0.84008271
0.8256119
0.81102436
0.7970939
0.78458668
0.7740665
0.76576599
0.75960497
0.75531429
0.75250095
0.75076013
0.74986838
0.74962162
0.74979706
0.75031047
0.75102779
0.75177006
0.75246193
0.75320268
0.75422619
0.75562383
0.75771288
0.75924709
0.75990896
0.759945
0.75969593
0.75834301
0.75585665
0.63404444
0.74695174
0.82344148
0.89276096
0.92657691
0.93782928
0.93001248
0.93333741
0.92851884
0.9287466
0.92511369
0.92320652
0.91954374
0.91589342
0.91126292
0.90583057
0.89945851
0.89187979
0.88311329
0.87291304
0.86133824
0.84838119
0.83433184
0.81963139
0.8049945
0.79124111
0.77913746
0.76919077
0.7615385
0.75603816
0.75239335
0.7501781
0.7489884
0.74854622
0.74861275
0.74905527
0.7497878
0.75066593
0.75151853
0.7522967
0.75313047
0.75424046
0.75576404
0.75794606
0.75936453
0.75995249
0.75993126
0.75967927
0.75809584
0.75574596
0.63527084
0.74865943
0.82556774
0.89579463
0.92513672
0.93550136
0.92758336
0.93085204
0.92597919
0.92609468
0.92239881
0.92033641
0.91656524
0.91272205
0.90790912
0.90223154
0.89558804
0.88768891
0.87856045
0.86796407
0.8559732
0.84261743
0.82823633
0.81334195
0.79871398
0.78521345
0.77358972
0.76426562
0.75728613
0.75248062
0.74952267
0.74793381
0.7472796
0.74724111
0.74762459
0.74833604
0.74928201
0.75031443
0.75127196
0.75213562
0.75306713
0.75427174
0.75593838
0.75817147
0.75947311
0.75998531
0.75990785
0.75964611
0.75783662
0.75563947
0.63629849
0.75019862
0.82758215
0.89851135
0.92324666
0.93293292
0.92493731
0.92814083
0.92321623
0.92320947
0.91944953
0.91722264
0.9133358
0.90928991
0.90428173
0.89834602
0.8914147
0.8831793
0.87367196
0.86266533
0.85024985
0.83649809
0.82180559
0.80676056
0.79220893
0.77904344
0.76797
0.75930214
0.75302817
0.74897661
0.74674162
0.7457736
0.74561375
0.74596314
0.74666911
0.7476434
0.74879559
0.74997479
0.75103066
0.75197603
0.75300955
0.75432184
0.75615403
0.75837889
0.75956903
0.76000184
0.75986413
0.7595781
0.75757134
0.75553718
0.63711001
0.75156487
0.82949983
0.90088128
0.92095165
0.9301464
0.92207929
0.9252078
0.9202345
0.92009475
0.91626875
0.91386739
0.9098562
0.90559707
0.90037969
0.8941725
0.88693645
0.87834854
0.86844552
0.85701526
0.84416865
0.83002739
0.81505006
0.79990667
0.78550843
0.77276268
0.76229627
0.75431267
0.74880817
0.74557298
0.74406621
0.743681
0.74398929
0.74473081
0.74575096
0.74698051
0.74833059
0.7496485
0.75079571
0.75181651
0.75295641
0.75439019
0.75640182
0.75856219
0.75964851
0.75999878
0.75980356
0.75945331
0.7573076
0.75543808
0.63771323
0.75276818
0.83134202
0.90286704
0.91829817
0.92714441
0.91901523
0.92205735
0.91703764
0.91675287
0.9128574
0.91027081
0.90612544
0.90164213
0.89620103
0.88970861
0.88215077
0.87319393
0.86287865
0.85101236
0.83773045
0.82321068
0.80798271
0.79280372
0.77864455
0.76639905
0.7565796
0.74932929
0.74468395
0.7422978
0.7414855
0.74164708
0.7424266
0.74354967
0.74487462
0.74634989
0.7478886
0.74933698
0.75056962
0.7516588
0.75291139
0.75447486
0.75666365
0.75871969
0.75971082
0.75998966
0.75974399
0.75924129
0.75705142
0.75534323
0.6381314
0.7538037
0.83310844
0.90441792
0.91532079
0.92393616
0.91574809
0.91869072
0.91362551
0.91318279
0.90921383
0.9064313
0.90214147
0.89742306
0.89174343
0.88495195
0.87705487
0.86771219
0.85696818
0.84465441
0.8309358
0.81605406
0.80061886
0.78547844
0.77164921
0.75997253
0.75083376
0.74441042
0.74070196
0.73915238
0.73898106
0.73969112
0.74093392
0.74242525
0.74404319
0.74575352
0.74747071
0.74904129
0.75035611
0.75151162
0.75288064
0.75457655
0.75693177
0.75885027
0.75974535
0.75996801
0.75968512
0.75895324
0.7568078
0.75525393
0.63840493
0.75469437
0.8348138
0.90549856
0.91204843
0.92051626
0.9122737
0.91510281
0.90999491
0.90938214
0.90533592
0.90234744
0.89790233
0.89293807
0.88700476
0.87989984
0.87164548
0.86189945
0.85071034
0.83793903
0.82378593
0.80856588
0.79297811
0.77796144
0.76455228
0.75349633
0.74509682
0.73962016
0.73688824
0.73611051
0.73656557
0.73782724
0.73951681
0.7413611
0.74325923
0.74519287
0.74707763
0.74876188
0.75015817
0.75139384
0.75286728
0.75470312
0.75719987
0.75896229
0.75975345
0.75992654
0.7596131
0.75860146
0.75658011
0.75517073
0.63853008
0.75541922
0.83641035
0.9059982
0.90851285
0.91688136
0.90859013
0.91129389
0.90614546
0.90535116
0.90122286
0.89801855
0.89340673
0.88818573
0.88198298
0.87454928
0.86591833
0.85575043
0.84410014
0.83086303
0.81628238
0.80075662
0.78508365
0.77028441
0.75737761
0.74698442
0.739436
0.73500712
0.73323009
0.73316541
0.7342627
0.73606057
0.73817922
0.74036016
0.74252454
0.74466894
0.74670984
0.74849867
0.74997467
0.75131026
0.75287504
0.75487095
0.75745397
0.7590623
0.75974782
0.75985064
0.75952373
0.75821691
0.75636511
0.75509238
0.63858128
0.75604626
0.83790162
0.90586081
0.90474632
0.91303717
0.90470275
0.90726576
0.90207853
0.90109021
0.89687442
0.89344444
0.88865387
0.88316481
0.87667552
0.86889582
0.85986756
0.84925864
0.83713188
0.82342348
0.80842847
0.79264065
0.77696297
0.76247859
0.75014301
0.74047263
0.73392366
0.73059793
0.7296919
0.73034654
0.73208072
0.73439607
0.73692406
0.73942439
0.74184032
0.74418228
0.74636779
0.74825154
0.74979954
0.7512448
0.75290789
0.75509711
0.75767407
0.75913595
0.75972797
0.7597406
0.75940847
0.75782332
0.75615762
0.75501757
0.63855988
0.75658812
0.83923045
0.90510262
0.90074269
0.90898008
0.90060956
0.90301831
0.89779444
0.8966003
0.89229092
0.88862556
0.88364299
0.87787312
0.871078
0.86293294
0.85348526
0.84241596
0.82979893
0.81561755
0.80022928
0.78423603
0.7686458
0.75457113
0.74286304
0.7340298
0.72861548
0.7263761
0.72627586
0.72767377
0.73002569
0.73283669
0.73575329
0.73855505
0.74120717
0.74373303
0.74605167
0.74802101
0.74962781
0.75119003
0.75296896
0.75538235
0.75785494
0.75916851
0.75965287
0.75960081
0.75924337
0.75743875
0.75595836
0.75494644
0.63846459
0.7570661
0.84039337
0.90368974
0.89652909
0.90471839
0.89631675
0.8985558
0.8932954
0.89188327
0.88747294
0.88356181
0.8783717
0.87230576
0.86518296
0.85665118
0.84676161
0.8352133
0.82209453
0.8074436
0.79169347
0.77556588
0.76016346
0.74658472
0.73556513
0.72773882
0.72354409
0.72230141
0.72301944
0.72515387
0.72810143
0.73138453
0.73466808
0.73775271
0.74062515
0.74332087
0.74576113
0.74780835
0.74946427
0.75114331
0.75306252
0.75570795
0.75801142
0.75917166
0.75956176
0.75943727
0.75899038
0.75706896
0.75576932
0.75487954
0.63836891
0.75753384
0.84135109
0.90164229
0.89211638
0.90025181
0.89182533
0.89387854
0.88858173
0.88693981
0.88241956
0.8782503
0.87283375
0.86645365
0.85897951
0.85003901
0.83968546
0.8276407
0.81401171
0.79890128
0.78283345
0.76665724
0.75154563
0.73853739
0.72831142
0.72166666
0.71869863
0.71837605
0.71994302
0.72279259
0.72631032
0.73004055
0.73366872
0.73701725
0.7400938
0.74294507
0.74549499
0.74761346
0.7493286
0.75111354
0.75319939
0.75604898
0.75815289
0.75915927
0.75945101
0.75927687
0.75863235
0.75672067
0.75559219
0.75481715
0.6382986
0.75799456
0.84203231
0.8989431
0.88751259
0.89557986
0.88713355
0.88898797
0.88365383
0.88176856
0.87712545
0.87268241
0.86701748
0.8603038
0.85245449
0.84308347
0.83224495
0.81968798
0.80554414
0.78999317
0.77366671
0.75754042
0.74281996
0.73045096
0.72119122
0.71585727
0.71403798
0.71463886
0.71705402
0.7205932
0.72465339
0.7288046
0.73275456
0.73634776
0.73961204
0.74260468
0.74525179
0.74743245
0.74923402
0.75111326
0.75339888
0.75637161
0.7582738
0.75913799
0.75933166
0.75912773
0.75818732
0.75639978
0.75542699
0.75475917
0.63818854
0.75849382
0.84240221
0.89558885
0.88272739
0.89070773
0.88224449
0.88388339
0.87850677
0.87635979
0.87157663
0.86684296
0.86090743
0.85384164
0.84559411
0.83577135
0.82442759
0.81134442
0.79668618
0.78072503
0.76421503
0.74824533
0.73401035
0.72237263
0.71428579
0.71031624
0.70955511
0.71111462
0.71435802
0.71855728
0.72313019
0.72767528
0.73192389
0.73574248
0.73917828
0.74229868
0.74503048
0.74725907
0.74916878
0.75114739
0.75367779
0.75664091
0.75835186
0.75910082
0.75919688
0.75897084
0.75769907
0.7561022
0.75527133
0.75470452
0.63803805
0.75906048
0.84239189
0.89159516
0.87776625
0.8856323
0.87714911
0.87854907
0.87312172
0.87069368
0.8657539
0.86071528
0.8544891
0.84705352
0.83838504
0.82808887
0.81622033
0.80259934
0.78743432
0.77110763
0.75450488
0.7388009
0.7251388
0.71438641
0.70765776
0.70500862
0.70528381
0.70781447
0.71185801
0.71668478
0.72173895
0.72665011
0.7311743
0.73519913
0.7387908
0.74202618
0.7448304
0.74709453
0.74911987
0.75121951
0.7540234
0.75685166
0.75837727
0.75901182
0.75903861
0.75879586
0.75721791
0.75582131
0.75512242
0.75465119
0.63783976
0.75971615
0.84192511
0.88697486
0.87260484
0.88032314
0.8718202
0.87295606
0.8674743
0.86475158
0.85964221
0.85428744
0.84775086
0.83992683
0.83081333
0.82002145
0.8076092
0.79344225
0.77778785
0.76115671
0.74456525
0.72923435
0.71623538
0.70658972
0.70133871
0.69991061
0.70125718
0.70474414
0.70955493
0.71497389
0.72047665
0.72572627
0.73050368
0.734716
0.73844846
0.74178592
0.74464921
0.74695743
0.74908243
0.75133346
0.75439947
0.75702588
0.75837462
0.75889732
0.75885539
0.75856366
0.75677969
0.75556265
0.75497822
0.75459615
0.63754845
0.76044705
0.8409036
0.88184014
0.86719976
0.87474259
0.86623429
0.8670881
0.86155305
0.85852695
0.85323462
0.84755111
0.84068156
0.83244752
0.8228633
0.81155265
0.79857945
0.78386399
0.76775065
0.75089392
0.73442662
0.71957354
0.70736864
0.69906554
0.69531206
0.69504229
0.69749321
0.70190691
0.70744767
0.71342134
0.71933985
0.72490173
0.72991125
0.7342927
0.73815075
0.74157495
0.74448123
0.74686449
0.74906409
0.75150064
0.75477707
0.75717414
0.75835407
0.75877114
0.7586647
0.75822052
0.75640829
0.75533245
0.75483768
0.75453656
0.6370696
0.76121803
0.83923792
0.87668997
0.86154781
0.86889376
0.8603935
0.86095291
0.85536002
0.85201871
0.84652448
0.84049526
0.83326655
0.82459837
0.81451666
0.80266465
0.78911584
0.77385731
0.75733138
0.74034502
0.7241189
0.70984834
0.69864187
0.69187144
0.68953503
0.69044784
0.69399813
0.69930318
0.705533
0.71202272
0.7183254
0.72417567
0.72939675
0.73392871
0.73789534
0.74138646
0.74432313
0.74680568
0.74908077
0.75174099
0.75512867
0.75729746
0.75832179
0.75863886
0.75849444
0.75783168
0.75610072
0.75513477
0.75470539
0.7544621
0.63635973
0.76204463
0.83692069
0.87124442
0.85568301
0.86280232
0.85430963
0.85455481
0.84889126
0.84521721
0.83949778
0.83310305
0.82548675
0.81635889
0.80575308
0.7933381
0.7792036
0.76341863
0.74654471
0.72953914
0.71367311
0.70010631
0.69015817
0.68502156
0.68400663
0.68615514
0.690776
0.69693098
0.7038062
0.71077358
0.71743103
0.72354645
0.72895626
0.73361901
0.73767415
0.74121112
0.74418814
0.74676489
0.74914138
0.75207094
0.75543167
0.75739377
0.75827876
0.75850698
0.75832685
0.75743253
0.75583193
0.75496337
0.7545841
0.75437544
0.63550293
0.76292748
0.83395074
0.86533758
0.84960276
0.85645718
0.84796968
0.84787568
0.84212891
0.83810362
0.83213456
0.8253533
0.81732005
0.80770634
0.7965506
0.7835533
0.76882927
0.75254896
0.7354108
0.71850626
0.70312113
0.69043414
0.68200216
0.67848086
0.67877313
0.682173
0.68782716
0.69478584
0.70226158
0.70966995
0.71665378
0.72300692
0.72857738
0.73335043
0.73747358
0.74104668
0.74409504
0.74673501
0.74924836
0.7524694
0.75568695
0.75746502
0.75822719
0.75837446
0.75816719
0.75705405
0.7555871
0.75480704
0.75447063
0.75429117
0.63449228
0.76380554
0.83030421
0.85917757
0.84326626
0.84982838
0.84134973
0.84089362
0.83505141
0.8306572
0.82441206
0.81722249
0.80874232
0.79861675
0.78688657
0.77329039
0.75798232
0.74125553
0.72395582
0.70727887
0.69250143
0.68094694
0.67422398
0.67222598
0.67387382
0.67850723
0.68514927
0.69286183
0.70089368
0.70870811
0.71598673
0.72254082
0.72824158
0.73310774
0.73728708
0.74091153
0.74403815
0.74671947
0.74940054
0.75289402
0.75590554
0.75750199
0.75816132
0.75823921
0.75801525
0.75669878
0.75536164
0.75466342
0.75436629
0.75421324
0.63334792
0.76458602
0.82596214
0.85269536
0.83665699
0.8428983
0.83443242
0.83358966
0.82763697
0.82285513
0.81630554
0.80868513
0.79972844
0.78906523
0.77673748
0.7625305
0.74665598
0.72955161
0.71220915
0.69589306
0.68187979
0.67175444
0.66682138
0.66627956
0.66933075
0.67515861
0.68273707
0.69115213
0.69969732
0.70788174
0.7154154
0.72212826
0.72794188
0.73289273
0.73713298
0.74082231
0.74399838
0.74672995
0.74960298
0.75331802
0.75608571
0.75750344
0.75806738
0.75809559
0.7578585
0.7563686
0.75515627
0.75453309
0.7542717
0.75414464
0.63211102
0.76520893
0.82094701
0.84586807
0.82976016
0.83564852
0.82719715
0.82594114
0.81986019
0.81467228
0.80778895
0.79971514
0.79025241
0.77902578
0.76607899
0.7512557
0.73484885
0.71745716
0.70020274
0.68438957
0.67136584
0.66294622
0.65975479
0.66069519
0.66515058
0.67212499
0.68058372
0.68965023
0.69866633
0.70717804
0.71491959
0.72176524
0.72770446
0.73273725
0.73703157
0.74076638
0.74396872
0.74677786
0.74987259
0.75371109
0.75623304
0.75748695
0.757962
0.75793785
0.75766823
0.75606879
0.75497246
0.7544168
0.75418808
0.75408403
0.63086653
0.76553006
0.81528729
0.83869296
0.82255368
0.82805324
0.81961807
0.81792287
0.81169457
0.80608359
0.79883675
0.79028603
0.78028705
0.76847034
0.75488554
0.73945094
0.72256578
0.70499798
0.68797196
0.67281829
0.66108971
0.65456123
0.65301905
0.65550944
0.66133629
0.66940071
0.67868148
0.6883492
0.69778962
0.70657637
0.71448607
0.72148345
0.72755703
0.73264918
0.73697009
0.74072497
0.7439508
0.74687251
0.75022921
0.75404701
0.75635116
0.75745799
0.75784794
0.757776
0.7574034
0.75580607
0.75481029
0.75431405
0.7541136
0.75403109
0.62953419
0.76552104
0.80902653
0.83114969
0.81501346
0.82008602
0.81167051
0.80951211
0.80311618
0.7970656
0.78942342
0.78036961
0.76980221
0.75736837
0.74313167
0.72710525
0.7098192
0.69220529
0.67556062
0.66126797
0.65117023
0.6465812
0.64666415
0.65073678
0.65788638
0.66697834
0.6770224
0.68723924
0.69704791
0.70605643
0.71412926
0.721311
0.72747821
0.73259484
0.73692594
0.74069185
0.74395081
0.74701449
0.75065758
0.75433047
0.75644265
0.75741591
0.75772676
0.75762727
0.75709501
0.75557236
0.75466544
0.75422295
0.75404889
0.75398505
0.6279509
0.76515343
0.80220288
0.8232176
0.8071207
0.81172641
0.80333418
0.80069066
0.79410286
0.78759351
0.77951983
0.7699328
0.7587633
0.7456864
0.73079293
0.7142142
0.69662881
0.67911397
0.66302074
0.64987137
0.64169169
0.63897673
0.64074378
0.64638323
0.65479568
0.66484898
0.67559656
0.68630302
0.69641623
0.70561759
0.71389013
0.7212215
0.72743157
0.73255814
0.73689133
0.74066621
0.74397164
0.7471973
0.75111839
0.75458524
0.75650905
0.75736019
0.75760088
0.75746712
0.7567723
0.75535159
0.75453323
0.75414209
0.75399284
0.75394538
0.62602072
0.76437521
0.79483556
0.81489231
0.79886606
0.80296143
0.79459267
0.79143887
0.7846279
0.77763539
0.76908929
0.75893563
0.74713047
0.73338922
0.7178483
0.7007807
0.68302182
0.66576657
0.65042251
0.6387757
0.63267925
0.63176953
0.63529117
0.64244922
0.65205636
0.66300263
0.67438891
0.68551462
0.69587946
0.70529441
0.71376636
0.72117233
0.72740481
0.73253585
0.73686656
0.74065095
0.74401597
0.74742296
0.75158756
0.75481236
0.75655307
0.75729641
0.75746968
0.75730397
0.75644956
0.75514328
0.75441238
0.75407069
0.75394494
0.75391365
0.62373514
0.76320339
0.78697282
0.80616017
0.79023984
0.79376996
0.78542042
0.78172584
0.77465253
0.76714883
0.75808642
0.74733182
0.73486027
0.72044226
0.70428287
0.68681725
0.66903209
0.65221741
0.63788546
0.62810961
0.62410315
0.62502753
0.63031521
0.6389306
0.6496581
0.66142565
0.67337575
0.68484839
0.69545435
0.70510554
0.71370237
0.72115121
0.72740351
0.73253151
0.73685365
0.7406488
0.74409089
0.74771283
0.75203663
0.75500536
0.75656682
0.75722385
0.75733062
0.75714312
0.75613481
0.75494879
0.75430292
0.75400814
0.75390407
0.75388718
0.62100714
0.76148239
0.77860574
0.7969875
0.78120935
0.78411719
0.77577131
0.77150588
0.76412603
0.75608168
0.74645943
0.73507041
0.72190794
0.70681458
0.69009061
0.67234575
0.65470198
0.63853655
0.62557033
0.61794503
0.61595913
0.6188016
0.62582066
0.63581949
0.64758797
0.66009753
0.67252806
0.68430153
0.69517874
0.70501224
0.71367498
0.72116525
0.72743108
0.73254494
0.73685195
0.74066104
0.74420614
0.74809247
0.75243851
0.75516193
0.75655156
0.75712503
0.75718316
0.75698109
0.75583375
0.75477188
0.7542059
0.75395443
0.75386951
0.75386517
0.61780408
0.75884566
0.76975481
0.78733097
0.77171915
0.77394662
0.76558914
0.76072348
0.75299043
0.74437615
0.73415227
0.7220987
0.70823028
0.69248207
0.67527599
0.65739864
0.6400874
0.62482687
0.61363629
0.60828816
0.60830355
0.61311602
0.62180493
0.63310429
0.64582801
0.65898905
0.67182562
0.68391186
0.69504151
0.70497229
0.71368806
0.72121663
0.72748319
0.73257296
0.7368592
0.74068981
0.74436936
0.74855127
0.75278604
0.75529001
0.75652755
0.75701253
0.7570246
0.75680226
0.75555995
0.75461705
0.75412276
0.75391032
0.75384185
0.75384847
0.61401092
0.7554976
0.76035986
0.77712896
0.76170515
0.76319704
0.75480985
0.74931983
0.74118351
0.73197014
0.72110629
0.70836368
0.69378788
0.67742953
0.65985459
0.6420173
0.62526215
0.61124634
0.60221353
0.59911501
0.60121066
0.6079802
0.61826102
0.63076933
0.64435326
0.65806946
0.67127902
0.68369284
0.69498082
0.70497757
0.71374748
0.7213008
0.72755706
0.73261298
0.73687364
0.74073604
0.74458277
0.74905029
0.75309225
0.75539166
0.75648894
0.75689485
0.7568617
0.75657526
0.75532418
0.75448704
0.75405429
0.75387515
0.75382051
0.75383632
0.6095674
0.75152692
0.75036128
0.76632345
0.75111935
0.75181222
0.74336735
0.73723043
0.72863907
0.71879825
0.70726169
0.69381395
0.67854723
0.66165234
0.64385349
0.62625685
0.610323
0.59798391
0.59135345
0.59045834
0.5947273
0.60339511
0.6151762
0.62879228
0.64313128
0.65732462
0.67092148
0.68359043
0.69497264
0.70503426
0.71384745
0.72141417
0.72764906
0.73266223
0.73689406
0.74080095
0.74484478
0.74956684
0.75336357
0.75546662
0.75642985
0.75676902
0.75669988
0.75631165
0.7551249
0.75437891
0.75399907
0.75384694
0.75380339
0.75382645
0.60450747
0.74687755
0.73976144
0.75484263
0.7398903
0.73972769
0.73118704
0.72438478
0.71528844
0.70479467
0.69255949
0.67840177
0.66248316
0.645158
0.62731295
0.6101944
0.59542252
0.5852131
0.58104228
0.58241128
0.58886913
0.59935557
0.6125324
0.62714324
0.64212971
0.65677804
0.67073996
0.68355949
0.6950224
0.70514021
0.71398392
0.7215526
0.72775602
0.73271824
0.73692025
0.74088913
0.74516011
0.75007901
0.75360212
0.75551747
0.75635746
0.75663558
0.75653636
0.75604687
0.75494764
0.75428513
0.7539521
0.75382405
0.75379175
0.75382076
0.59885058
0.74122286
0.72850823
0.74260409
0.72793412
0.72687461
0.7181936
0.71071211
0.70106488
0.68989416
0.67694177
0.6620837
0.64558052
0.62796793
0.61028935
0.59393531
0.58076446
0.57303657
0.57129891
0.57504174
0.58364392
0.59584855
0.61030306
0.62578665
0.64133477
0.65644686
0.67066693
0.68359476
0.69513138
0.70528956
0.71415197
0.72171228
0.72787461
0.73277853
0.736953
0.74100975
0.74555088
0.75055177
0.75380145
0.75553844
0.75627482
0.7564941
0.7563738
0.75579282
0.75478472
0.75420044
0.75391145
0.75380663
0.75378549
0.75382075
0.59253201
0.73441951
0.71653982
0.72953445
0.71517202
0.71318433
0.70431443
0.6961442
0.68590197
0.67402961
0.6603485
0.64482067
0.6278358
0.61011935
0.59286371
0.57762762
0.56655856
0.56147989
0.56221371
0.56838427
0.57904904
0.59285303
0.60845252
0.62469003
0.64077481
0.6562872
0.67067248
0.68370031
0.69529182
0.70547695
0.71434712
0.72188944
0.72800165
0.7328408
0.73699421
0.74117331
0.74602698
0.75095977
0.75396009
0.75552994
0.75618566
0.75634949
0.75621033
0.75554663
0.75463504
0.75412474
0.75387894
0.75379503
0.75378327
0.75382304
0.58557794
0.72629437
0.70380742
0.71557223
0.70153555
0.69859727
0.68948112
0.68060817
0.66972554
0.65712484
0.64271626
0.62658006
0.60926028
0.59166902
0.57515015
0.56148464
0.5529688
0.55055757
0.55388061
0.56245366
0.57507173
0.59033762
0.60694013
0.62384063
0.64045747
0.65623835
0.67075827
0.68386822
0.69549744
0.70569688
0.71456503
0.72208047
0.72813397
0.73290297
0.73704591
0.74138676
0.74655833
0.75131428
0.75408871
0.75550375