/*--------------------------------*- C++ -*----------------------------------*\
  =========                 |
  \\      /  F ield         | OpenFOAM: The Open Source CFD Toolbox
   \\    /   O peration     | Website:  https://openfoam.org
    \\  /    A nd           | Version:  8
     \\/     M anipulation  |
\*---------------------------------------------------------------------------*/
FoamFile
{
    version     2.0;
    format      ascii;
    class       surfaceScalarField;
    location    "0.189994";
    object      meshPhi;
}
// * * * * * * * * * * * * * * * * * * * * * * * * * * * * * * * * * * * * * //

dimensions      [0 3 -1 0 0 0 0];

internalField   nonuniform List<scalar> 
39600
(
-1.5892007e-05
-1.0517228e-06
1.0957753e-06
-1.59226e-05
-1.2544171e-06
1.2843408e-06
-1.5958916e-05
-1.5033548e-06
1.5385814e-06
-1.6003604e-05
-1.8012411e-06
1.843336e-06
-1.6062799e-05
-2.1581058e-06
2.2084166e-06
-1.6139486e-05
-2.5856648e-06
2.6457964e-06
-1.6240792e-05
-3.0978806e-06
3.1698026e-06
-1.6370438e-05
-3.7114365e-06
3.7975854e-06
-1.6532943e-05
-4.4463104e-06
4.5496406e-06
-1.6733935e-05
-5.3263567e-06
5.4504448e-06
-1.6979182e-05
-6.3799388e-06
6.5291295e-06
-1.7278384e-05
-7.6408416e-06
7.8203502e-06
-1.763866e-05
-9.1488739e-06
9.365037e-06
-1.8075744e-05
-1.0950855e-05
1.1211303e-05
-1.8608318e-05
-1.3101074e-05
1.3415162e-05
-1.9261217e-05
-1.5661767e-05
1.6040904e-05
-2.0021072e-05
-1.8703899e-05
1.9161867e-05
-2.0871688e-05
-2.2308196e-05
2.2862804e-05
-2.1864278e-05
-2.6566118e-05
2.7239652e-05
-2.3072762e-05
-3.1579096e-05
3.2399752e-05
-2.4585505e-05
-3.7462331e-05
3.8464658e-05
-2.6538893e-05
-4.4323869e-05
4.5548599e-05
-2.8959997e-05
-5.2291163e-05
5.3792225e-05
-3.2243605e-05
-6.1470838e-05
6.3324603e-05
-3.6682178e-05
-7.1996055e-05
7.4319891e-05
-4.319258e-05
-8.3900838e-05
8.685206e-05
-5.10665e-05
-9.7175707e-05
0.00010095852
-6.0611834e-05
-0.00011182154
0.00011663467
-7.1476571e-05
-0.00012810684
0.00013416779
-8.5337942e-05
-0.00014593112
0.00015354577
-0.00010117038
-0.00016523869
0.00017477644
-0.00011658609
-0.00018883405
0.00020068139
-0.00013588642
-0.0002176376
0.00023230384
-0.00016480149
-0.00024736207
0.00026547216
-0.00020001008
-0.00027605074
0.00029842251
-0.00023055955
-0.00031256361
0.00033993715
-0.00026522781
-0.00036130557
0.00039412377
-0.00030523513
-0.00042029734
0.00045932839
-0.00035341548
-0.00049211485
0.00053838959
-0.00040761911
-0.00057604823
0.00063044051
-0.00046716518
-0.00067250703
0.00073543379
-0.00052652428
-0.00079254773
0.00086404325
-0.00058722703
-0.00094602329
0.0010253993
-0.00064233698
-0.0011213589
0.0012069966
-0.00069546362
-0.0013213864
0.0014114626
-0.00073831051
-0.0015499404
0.0016449694
-0.00064198006
-0.0017185931
0.001804856
-0.00047068546
-0.0017476662
0.0018044563
-0.00015948291
-0.0015787536
0.0016032255
-0.00076328709
0.0007673268
-1.2763354e-05
-1.0314577e-06
-1.2808633e-05
-1.2300862e-06
-1.2870136e-05
-1.4737971e-06
-1.2944952e-05
-1.7658105e-06
-1.3032839e-05
-2.1157013e-06
-1.3134592e-05
-2.5348492e-06
-1.3250528e-05
-3.0370147e-06
-1.3384167e-05
-3.6385019e-06
-1.3537355e-05
-4.3589337e-06
-1.3716828e-05
-5.221612e-06
-1.3928591e-05
-6.2543255e-06
-1.418333e-05
-7.4899743e-06
-1.4492929e-05
-8.967412e-06
-1.4874969e-05
-1.0732146e-05
-1.5358644e-05
-1.283669e-05
-1.5957964e-05
-1.5341801e-05
-1.6657736e-05
-1.8317097e-05
-1.7449796e-05
-2.1840467e-05
-1.8379818e-05
-2.5997841e-05
-1.9527722e-05
-3.0884461e-05
-2.0977692e-05
-3.6608187e-05
-2.2848532e-05
-4.3273588e-05
-2.5181632e-05
-5.0996428e-05
-2.8339141e-05
-5.9859847e-05
-3.2617872e-05
-6.9960603e-05
-3.8762226e-05
-8.1297085e-05
-4.621007e-05
-9.381562e-05
-5.4969942e-05
-0.00010754589
-6.5041595e-05
-0.00012275028
-7.8202924e-05
-0.00013915671
-9.3322672e-05
-0.00015672714
-0.00010834217
-0.00017818607
-0.00012731295
-0.00020425623
-0.00015532885
-0.00023059388
-0.00018951772
-0.00025534677
-0.0002199778
-0.00028720577
-0.00025447219
-0.00033054458
-0.00029425355
-0.00038337244
-0.00034197192
-0.00044792274
-0.00039588982
-0.00052369733
-0.00045497442
-0.00061155503
-0.00051511112
-0.0007229839
-0.00057677633
-0.00086798727
-0.00063289138
-0.0010359759
-0.0006868483
-0.0012307067
-0.00072577269
-0.0014534771
-0.0006347306
-0.0016281456
-0.00046998442
-0.001684565
-0.00015961032
-0.0015471675
-0.00075495367
-9.9011565e-06
-1.0149326e-06
-9.9824064e-06
-1.2103205e-06
-1.0075373e-05
-1.4501455e-06
-1.0171488e-05
-1.7374847e-06
-1.0269654e-05
-2.0817338e-06
-1.0372274e-05
-2.4941156e-06
-1.0481948e-05
-2.9881325e-06
-1.0602316e-05
-3.5798464e-06
-1.0736153e-05
-4.288511e-06
-1.0890435e-05
-5.1370193e-06
-1.1069417e-05
-6.1526334e-06
-1.128525e-05
-7.3675213e-06
-1.1548597e-05
-8.8197337e-06
-1.1883251e-05
-1.0553514e-05
-1.2315468e-05
-1.261991e-05
-1.2849916e-05
-1.5078758e-05
-1.3481049e-05
-1.799828e-05
-1.4208014e-05
-2.1453752e-05
-1.5078194e-05
-2.5526084e-05
-1.6168578e-05
-3.0304327e-05
-1.7554585e-05
-3.5889891e-05
-1.9337949e-05
-4.2383114e-05
-2.1582733e-05
-4.9889377e-05
-2.4619905e-05
-5.8470315e-05
-2.8720369e-05
-6.8192757e-05
-3.448206e-05
-7.9023381e-05
-4.1466179e-05
-9.0867642e-05
-4.941674e-05
-0.00010381173
-5.8690747e-05
-0.00011809725
-7.1127968e-05
-0.00013326181
-8.5439521e-05
-0.00014928082
-0.00010002107
-0.00016878791
-0.0001185781
-0.00019232588
-0.0001457104
-0.0002155102
-0.000178659
-0.00023657808
-0.00020895912
-0.00026399778
-0.00024314969
-0.00030209494
-0.00028261748
-0.00034891406
-0.00032981093
-0.0004063808
-0.00038341198
-0.00047415284
-0.00044189785
-0.00055350888
-0.0005026471
-0.00065623133
-0.00056529083
-0.00079243279
-0.00062204291
-0.00095276756
-0.00067712007
-0.0011417693
-0.0007115722
-0.0013591804
-0.00062581106
-0.0015398682
-0.00046756541
-0.0016209037
-0.00015863476
-0.0015142971
-0.00074678505
-7.1692506e-06
-1.0022042e-06
-7.2399987e-06
-1.1950144e-06
-7.320773e-06
-1.4317251e-06
-7.406129e-06
-1.7153388e-06
-7.497132e-06
-2.0551336e-06
-7.5949628e-06
-2.4622083e-06
-7.7034293e-06
-2.9498431e-06
-7.8222133e-06
-3.5339328e-06
-7.9539508e-06
-4.2334366e-06
-8.1013438e-06
-5.0708928e-06
-8.2684934e-06
-6.0731711e-06
-8.4665973e-06
-7.2718294e-06
-8.7039061e-06
-8.7042078e-06
-9.0076008e-06
-1.0413477e-05
-9.3946176e-06
-1.244962e-05
-9.8721285e-06
-1.4871459e-05
-1.0437309e-05
-1.7746171e-05
-1.1101954e-05
-2.1146784e-05
-1.1923002e-05
-2.5148889e-05
-1.2960935e-05
-2.9836532e-05
-1.4286023e-05
-3.5305164e-05
-1.5991291e-05
-4.1650071e-05
-1.8155855e-05
-4.8966874e-05
-2.1091429e-05
-5.7296639e-05
-2.5013263e-05
-6.6683145e-05
-3.0438788e-05
-7.7064251e-05
-3.6976677e-05
-8.8316959e-05
-4.4179753e-05
-0.00010059608
-5.2755043e-05
-0.00011409958
-6.450194e-05
-0.00012818048
-7.807956e-05
-0.00014281672
-9.2239195e-05
-0.00016053953
-0.00011036663
-0.00018173251
-0.00013663346
-0.00020198649
-0.00016844468
-0.00021959418
-0.00019852917
-0.00024276918
-0.00023239529
-0.00027579284
-0.0002715387
-0.00031675691
-0.00031821564
-0.00036732
-0.00037149937
-0.00042723752
-0.00042942665
-0.00049818976
-0.00049062352
-0.00059214747
-0.00055402474
-0.00071931823
-0.00061144999
-0.00087176469
-0.00066748177
-0.0010546499
-0.00069804725
-0.0012669366
-0.00061751605
-0.0014533513
-0.00046464818
-0.0015568076
-0.00015790996
-0.0014804016
-0.00073854092
-4.5708203e-06
-9.9327443e-07
-4.6002406e-06
-1.1843241e-06
-4.6433026e-06
-1.4189376e-06
-4.7016395e-06
-1.7000361e-06
-4.7766236e-06
-2.0367735e-06
-4.8662525e-06
-2.4401564e-06
-4.9717329e-06
-2.9233258e-06
-5.0899363e-06
-3.501998e-06
-5.2228243e-06
-4.1949156e-06
-5.3696107e-06
-5.0243717e-06
-5.5348112e-06
-6.0168794e-06
-5.7259149e-06
-7.2035773e-06
-5.950113e-06
-8.6212915e-06
-6.2297436e-06
-1.0312426e-05
-6.5800103e-06
-1.2325955e-05
-7.0056798e-06
-1.4720025e-05
-7.5111262e-06
-1.7560875e-05
-8.1257381e-06
-2.0918871e-05
-8.901167e-06
-2.4865841e-05
-9.8891145e-06
-2.9481007e-05
-1.1155101e-05
-3.4853975e-05
-1.2787548e-05
-4.1074417e-05
-1.4877565e-05
-4.8228185e-05
-1.7722221e-05
-5.6336765e-05
-2.1475378e-05
-6.5425797e-05
-2.6614567e-05
-7.5408776e-05
-3.2723042e-05
-8.6143594e-05
-3.922943e-05
-9.7866927e-05
-4.7189012e-05
-0.00011071479
-5.8281092e-05
-0.00012385388
-7.119146e-05
-0.00013726586
-8.4946458e-05
-0.00015336066
-0.00010263544
-0.00017237658
-0.00012805683
-0.0001899034
-0.00015880513
-0.00020428627
-0.00018862703
-0.00022342801
-0.00022215277
-0.00025154209
-0.00026096842
-0.0002868047
-0.00030713605
-0.0003306332
-0.00036010209
-0.00038283968
-0.00041750088
-0.00044548941
-0.00047897705
-0.00053068309
-0.00054290542
-0.0006486663
-0.000601044
-0.00079300021
-0.00065789006
-0.0009694019
-0.00068521078
-0.0011768221
-0.00060972605
-0.0013686491
-0.00046160453
-0.0014926209
-0.00015728845
-0.0014455951
-0.00072991475
-2.1742337e-06
-9.8791743e-07
-2.2013475e-06
-1.1778282e-06
-2.2404217e-06
-1.4110931e-06
-2.2904423e-06
-1.690568e-06
-2.3515424e-06
-2.0253707e-06
-2.4221348e-06
-2.4264446e-06
-2.5038014e-06
-2.9068618e-06
-2.5955598e-06
-3.4822284e-06
-2.7009761e-06
-4.1711576e-06
-2.8210669e-06
-4.9957606e-06
-2.961022e-06
-5.9823093e-06
-3.1278173e-06
-7.1616222e-06
-3.3270109e-06
-8.5700829e-06
-3.5763371e-06
-1.0249557e-05
-3.8856744e-06
-1.2248321e-05
-4.2603815e-06
-1.4623844e-05
-4.7131019e-06
-1.7441514e-05
-5.2801131e-06
-2.0769669e-05
-6.0106348e-06
-2.4676756e-05
-6.9495304e-06
-2.9237373e-05
-8.1572976e-06
-3.4535799e-05
-9.7201724e-06
-4.0655854e-05
-1.1738483e-05
-4.767277e-05
-1.4496856e-05
-5.5589921e-05
-1.809841e-05
-6.4416862e-05
-2.2989766e-05
-7.4044149e-05
-2.8680761e-05
-8.4332349e-05
-3.4539418e-05
-9.5605071e-05
-4.194731e-05
-0.00010790869
-5.2420165e-05
-0.00012023367
-6.4716715e-05
-0.00013256353
-7.8080093e-05
-0.00014717556
-9.53248e-05
-0.00016417748
-0.0001199228
-0.00017917251
-0.00014966161
-0.00019053789
-0.00017918281
-0.00020583704
-0.00021235242
-0.00022920967
-0.00025083647
-0.00025892268
-0.00029650572
-0.00029617892
-0.00034915755
-0.00034080815
-0.00040604269
-0.00039525052
-0.00046765186
-0.00047170195
-0.00053191284
-0.00058042986
-0.0005907809
-0.00071647056
-0.00064833485
-0.000886039
-0.00067307757
-0.0010887055
-0.00060239445
-0.0012854951
-0.00045864538
-0.0014283105
-0.00015661159
-0.0014099169
-0.00072080375
7.3920528e-08
-9.8609339e-07
5.4101343e-08
-1.1756516e-06
2.5686768e-08
-1.4085392e-06
-1.0162279e-08
-1.6875562e-06
-5.3006198e-08
-2.0218001e-06
-1.0217961e-07
-2.4221774e-06
-1.6003201e-07
-2.9017161e-06
-2.268247e-07
-3.4759647e-06
-3.0712152e-07
-4.1634579e-06
-4.0248371e-07
-4.9862047e-06
-5.1816479e-07
-5.9703292e-06
-6.6018719e-07
-7.1464765e-06
-8.3282138e-07
-8.5507773e-06
-1.0503256e-06
-1.0224774e-05
-1.3192474e-06
-1.2216249e-05
-1.6450894e-06
-1.4582273e-05
-2.047281e-06
-1.7387551e-05
-2.5672893e-06
-2.0698571e-05
-3.2524151e-06
-2.4580834e-05
-4.1422449e-06
-2.9104708e-05
-5.2920654e-06
-3.4349311e-05
-6.7864185e-06
-4.039247e-05
-8.733276e-06
-4.7298303e-05
-1.14065e-05
-5.5052655e-05
-1.4874315e-05
-6.3649411e-05
-1.9546305e-05
-7.2959365e-05
-2.4828039e-05
-8.2865235e-05
-3.0086044e-05
-9.3784897e-05
-3.6995613e-05
-0.0001056516
-4.688369e-05
-0.0001172819
-5.8611774e-05
-0.00012866596
-7.1592624e-05
-0.00014193413
-8.8389746e-05
-0.00015707386
-0.00011218677
-0.0001697212
-0.00014095916
-0.00017828831
-0.00017014551
-0.00018995304
-0.0002029429
-0.00020875238
-0.00024108907
-0.00023307127
-0.00028627531
-0.00026391431
-0.00033862126
-0.00030109894
-0.00039499453
-0.00034743855
-0.00045661035
-0.0004152129
-0.00052103355
-0.00051465887
-0.00058062807
-0.00064223775
-0.00063880029
-0.00080464102
-0.0006615686
-0.0010026084
-0.0005954091
-0.0012038487
-0.00045582286
-0.0013639568
-0.0001557932
-0.0013733925
-0.00071111918
2.18423e-06
-9.8761785e-07
2.18099e-06
-1.1774349e-06
2.1747279e-06
-1.4106976e-06
2.1627811e-06
-1.6901855e-06
2.1436102e-06
-2.0250109e-06
2.1160498e-06
-2.4260835e-06
2.0774792e-06
-2.9064184e-06
2.0279026e-06
-3.481572e-06
1.9638428e-06
-4.1700691e-06
1.8850827e-06
-4.9939012e-06
1.787763e-06
-5.9791838e-06
1.6677359e-06
-7.1564985e-06
1.5218561e-06
-8.561876e-06
1.3382232e-06
-1.0236721e-05
1.1113346e-06
-1.2228577e-05
8.3390158e-07
-1.4594203e-05
4.8153168e-07
-1.7397675e-05
9.0415996e-09
-2.0704259e-05
-6.3012384e-07
-2.4576329e-05
-1.4701274e-06
-2.9080428e-05
-2.5614608e-06
-3.4291296e-05
-3.9870044e-06
-4.028056e-05
-5.8606847e-06
-4.7100855e-05
-8.446692e-06
-5.47217e-05
-1.1791579e-05
-6.3119432e-05
-1.6263736e-05
-7.2149759e-05
-2.1147831e-05
-8.1741998e-05
-2.5849049e-05
-9.2400251e-05
-3.23049e-05
-0.00010392072
-4.1639641e-05
-0.00011496487
-5.2834521e-05
-0.0001255276
-6.5438849e-05
-0.0001375838
-8.1785962e-05
-0.00015101092
-0.00010480282
-0.00016149016
-0.00013264058
-0.0001674573
-0.00016146347
-0.00017567986
-0.00019387234
-0.00019007871
-0.00023167125
-0.00020916234
-0.00027639154
-0.00023374651
-0.00032844066
-0.00026360828
-0.00038429257
-0.00030194999
-0.00044581246
-0.00036113002
-0.00051026312
-0.00045132596
-0.00057056392
-0.00057031105
-0.0006292847
-0.00072524213
-0.00065061209
-0.00091846074
-0.00058870112
-0.0011235841
-0.00045314402
-0.0012995508
-0.00015479234
-0.0013361002
-0.00070091964
4.1502901e-06
-9.9241923e-07
4.1531539e-06
-1.1831672e-06
4.1547975e-06
-1.4175548e-06
4.1522233e-06
-1.6983811e-06
4.1434403e-06
-2.0347859e-06
4.1275843e-06
-2.4377303e-06
4.1030088e-06
-2.9203109e-06
4.0702398e-06
-3.4981616e-06
4.0269602e-06
-4.1898767e-06
3.9733373e-06
-5.0175818e-06
3.9059983e-06
-6.0074676e-06
3.821012e-06
-7.1902231e-06
3.7147758e-06
-8.6019249e-06
3.5757684e-06
-1.0283983e-05
3.3974082e-06
-1.2283812e-05
3.170559e-06
-1.4657887e-05
2.8682388e-06
-1.7470023e-05
2.4434589e-06
-2.0784096e-05
1.8518077e-06
-2.4660183e-05
1.0634309e-06
-2.9161298e-05
3.2502279e-08
-3.435803e-05
-1.322387e-06
-4.0315934e-05
-3.119354e-06
-4.7075954e-05
-5.6120555e-06
-5.4591943e-05
-8.8406732e-06
-6.2820934e-05
-1.3128762e-05
-7.160818e-05
-1.7629784e-05
-8.0948838e-05
-2.1815147e-05
-9.1430826e-05
-2.7854323e-05
-0.00010269387
-3.6664258e-05
-0.00011325424
-4.7355275e-05
-0.00012311716
-5.9587219e-05
-0.0001340884
-7.5482994e-05
-0.00014594413
-9.7739014e-05
-0.00015442807
-0.00012466886
-0.00015800779
-0.00015310266
-0.00016299665
-0.00018510618
-0.00017317015
-0.00022254674
-0.00018718359
-0.00026681961
-0.00020566528
-0.00031858154
-0.00022832929
-0.00037389429
-0.0002587914
-0.00043523181
-0.00030949741
-0.00049959636
-0.0003904996
-0.00056057442
-0.00050077784
-0.00061978047
-0.00064795009
-0.00064010981
-0.00083631119
-0.00058220547
-0.0010446906
-0.0004505792
-0.0012351382
-0.00015361896
-0.0012980697
-0.00069020513
5.9779385e-06
-1.0003472e-06
5.9753205e-06
-1.1925274e-06
5.9697181e-06
-1.4286541e-06
5.9621793e-06
-1.711562e-06
5.9531509e-06
-2.05048e-06
5.9436356e-06
-2.4564646e-06
5.9329216e-06
-2.9427623e-06
5.9215319e-06
-3.5251469e-06
5.907208e-06
-4.2224275e-06
5.8889576e-06
-5.0568583e-06
5.8626086e-06
-6.054921e-06
5.8226568e-06
-7.2474119e-06
5.763831e-06
-8.6706097e-06
5.6731536e-06
-1.0365989e-05
5.5427095e-06
-1.2380817e-05
5.3617004e-06
-1.4771442e-05
5.1061144e-06
-1.7601765e-05
4.7309876e-06
-2.0935071e-05
4.1898254e-06
-2.4828733e-05
3.4562977e-06
-2.9342712e-05
2.4882929e-06
-3.4543841e-05
1.2073554e-06
-4.0492372e-05
-5.0895863e-07
-4.7216854e-05
-2.8996491e-06
-5.4657573e-05
-6.0124531e-06
-6.2751627e-05
-1.0122711e-05
-7.1333519e-05
-1.425676e-05
-8.0486706e-05
-1.7971576e-05
-9.0872431e-05
-2.3624928e-05
-0.00010195311
-3.1935941e-05
-0.00011212373
-4.2145942e-05
-0.00012139945
-5.4007768e-05
-0.00013141025
-6.94514e-05
-0.00014183771
-9.0965011e-05
-0.00014849531
-0.00011701072
-0.00014987363
-0.00014503278
-0.00015181815
-0.00017661441
-0.00015794527
-0.00021368386
-0.00016705758
-0.0002575299
-0.00017958678
-0.00030901399
-0.00019516254
-0.00036376064
-0.00021786567
-0.00042484855
-0.00026022561
-0.00048904177
-0.00033211601
-0.00055065704
-0.00043359392
-0.00061029432
-0.00057274896
-0.00062999871
-0.00075609889
-0.00057588731
-0.00096712709
-0.00044810064
-0.0011707767
-0.00015228816
-0.0012594101
-0.00067906743
7.6890055e-06
-1.0114101e-06
7.6922547e-06
-1.205809e-06
7.6945624e-06
-1.4447208e-06
7.697237e-06
-1.7309897e-06
7.7010158e-06
-2.0739113e-06
7.7069186e-06
-2.4847338e-06
7.7143849e-06
-2.9767518e-06
7.7238263e-06
-3.5659586e-06
7.7330725e-06
-4.2713265e-06
7.7412826e-06
-5.115379e-06
7.7438964e-06
-6.12477e-06
7.7354928e-06
-7.3306883e-06
7.7089845e-06
-8.7695833e-06
7.6514599e-06
-1.0483088e-05
7.5521354e-06
-1.2518388e-05
7.4073005e-06
-1.4932542e-05
7.1974791e-06
-1.7790344e-05
6.8725185e-06
-2.1153967e-05
6.3853299e-06
-2.5078457e-05
5.7097926e-06
-2.9620863e-05
4.8069096e-06
-3.4844325e-05
3.6040313e-06
-4.0804899e-05
1.9721389e-06
-4.7518239e-05
-3.0562897e-07
-5.491319e-05
-3.2945984e-06
-6.290631e-05
-7.225204e-06
-7.1319465e-05
-1.1009647e-05
-8.0343694e-05
-1.4303526e-05
-9.0707704e-05
-1.9600962e-05
-0.00010167917
-2.7437079e-05
-0.00011155038
-3.7185237e-05
-0.00012034957
-4.8677649e-05
-0.00012952074
-6.3668822e-05
-0.00013865625
-8.4457923e-05
-0.00014365226
-0.00010964344
-0.00014302826
-0.00013723318
-0.00014213172
-0.00016837661
-0.00014439532
-0.00020506023
-0.00014878267
-0.00024850287
-0.00015551424
-0.00029971791
-0.00016411453
-0.00035386533
-0.0001791957
-0.00041464887
-0.00021337238
-0.00047860459
-0.00027624937
-0.00054080896
-0.00036885585
-0.00060082445
-0.00049975806
-0.00062020629
-0.00067790668
-0.0005696842
-0.00089091964
-0.00044566173
-0.0011065057
-0.00015082962
-0.0012201557
-0.00066752914
9.2896315e-06
-1.0254028e-06
9.3089705e-06
-1.2225428e-06
9.3332032e-06
-1.464847e-06
9.3606027e-06
-1.7552616e-06
9.3902496e-06
-2.1032483e-06
9.4211078e-06
-2.520159e-06
9.4520706e-06
-3.0195462e-06
9.4828813e-06
-3.6175755e-06
9.51155e-06
-4.3334566e-06
9.5369996e-06
-5.1900189e-06
9.5554739e-06
-6.2141346e-06
9.5617828e-06
-7.4372645e-06
9.549972e-06
-8.8960933e-06
9.507089e-06
-1.0632258e-05
9.4298915e-06
-1.2693882e-05
9.3230659e-06
-1.5139574e-05
9.1634729e-06
-1.8034383e-05
8.8897379e-06
-2.143952e-05
8.4509957e-06
-2.540697e-05
7.8304974e-06
-2.9991451e-05
6.9932626e-06
-3.5253997e-05
5.871118e-06
-4.1247083e-05
4.3271161e-06
-4.7972534e-05
2.1726188e-06
-5.5351402e-05
-6.8452223e-07
-6.3279311e-05
-4.4293259e-06
-7.156863e-05
-7.8801356e-06
-8.0527239e-05
-1.079958e-05
-9.0933821e-05
-1.5769228e-05
-0.00010185732
-2.3152153e-05
-0.00011151231
-3.2453377e-05
-0.00011993929
-4.3576738e-05
-0.00012838976
-5.8115383e-05
-0.00013637054
-7.8196384e-05
-0.00013986577
-0.00010254222
-0.00013741907
-0.00012968106
-0.00013387021
-0.00016037029
-0.00013245691
-0.00019665296
-0.00013230007
-0.00023972006
-0.00013337727
-0.00029067441
-0.00013509566
-0.00034417831
-0.00014270275
-0.00040461269
-0.00016887727
-0.00046827928
-0.00022285531
-0.0005310202
-0.00030653726
-0.00059136585
-0.00042898382
-0.0006106673
-0.00060172128
-0.00056355681
-0.00081609765
-0.00044322686
-0.0010424459
-0.00014926274
-0.001180446
-0.00065568499
1.0797102e-05
-1.0424658e-06
1.0847484e-05
-1.2432847e-06
1.0903054e-05
-1.4901463e-06
1.0956658e-05
-1.7859734e-06
1.1006646e-05
-2.1402784e-06
1.1053477e-05
-2.5646316e-06
1.1096458e-05
-3.072755e-06
1.1136818e-05
-3.6810327e-06
1.1173469e-05
-4.4090571e-06
1.1206465e-05
-5.2799301e-06
1.1232929e-05
-6.3210115e-06
1.1249054e-05
-7.5642214e-06
1.1250367e-05
-9.0466988e-06
1.1228082e-05
-1.0810765e-05
1.1189108e-05
-1.2906195e-05
1.1136106e-05
-1.5392677e-05
1.1031102e-05
-1.8334866e-05
1.0802303e-05
-2.1790985e-05
1.0401234e-05
-2.5811451e-05
9.8263546e-06
-3.0450979e-05
9.0526126e-06
-3.5768904e-05
8.0115994e-06
-4.181387e-05
6.5581851e-06
-4.8574437e-05
4.5355916e-06
-5.5966398e-05
1.8156429e-06
-6.3864834e-05
-1.7349563e-06
-7.2073642e-05
-4.8652833e-06
-8.1024599e-05
-7.4541754e-06
-9.1534383e-05
-1.2120429e-05
-0.00010246908
-1.906957e-05
-0.00011198761
-2.7936649e-05
-0.00012014501
-3.8690951e-05
-0.0001279892
-5.2777675e-05
-0.00013494518
-7.216532e-05
-0.00013709783
-9.5690616e-05
-0.00013302176
-0.00012236141
-0.0001270228
-0.00015258117
-0.0001221219
-0.00018844822
-0.00011760808
-0.00023118162
-0.00011316739
-0.00028188999
-0.00010807886
-0.00033468103
-0.00010838993
-0.00039472486
-0.00012680263
-0.00045805869
-0.000172019
-0.0005212822
-0.00024675078
-0.00058190845
-0.00036056367
-0.00060132076
-0.00052766398
-0.00055746717
-0.00074271865
-0.00044075891
-0.00097863969
-0.0001476182
-0.0011403031
-0.00064354286
1.2167717e-05
-1.0619525e-06
1.2216201e-05
-1.2660768e-06
1.2269638e-05
-1.5169429e-06
1.2322413e-05
-1.8175848e-06
1.2374464e-05
-2.1778829e-06
1.2427432e-05
-2.609593e-06
1.2480758e-05
-3.1268116e-06
1.2536302e-05
-3.7464182e-06
1.2591832e-05
-4.4882304e-06
1.2648188e-05
-5.3760548e-06
1.2701559e-05
-6.4375674e-06
1.2749728e-05
-7.7054007e-06
1.2788309e-05
-9.2172623e-06
1.2816533e-05
-1.1016694e-05
1.2839531e-05
-1.3154619e-05
1.2849439e-05
-1.5690906e-05
1.2797137e-05
-1.8688788e-05
1.2602412e-05
-2.2203788e-05
1.2232459e-05
-2.6286457e-05
1.1701593e-05
-3.0994008e-05
1.0990841e-05
-3.6384158e-05
1.0030844e-05
-4.2499301e-05
8.6704791e-06
-4.9316482e-05
6.7823993e-06
-5.6749284e-05
4.199849e-06
-6.4650121e-05
8.5115758e-07
-7.2824336e-05
-1.9700756e-06
-8.182824e-05
-4.2633215e-06
-9.2496758e-05
-8.6451737e-06
-0.00010349801
-1.517825e-05
-0.00011295499
-2.3621805e-05
-0.00012093897
-3.4007066e-05
-0.00012829064
-4.7642678e-05
-0.00013435389
-6.6351647e-05
-0.00013531627
-8.9074797e-05
-0.00012977828
-0.00011526288
-0.0001215119
-0.00014499881
-0.00011331325
-0.00018043556
-0.00010463159
-0.00022289319
-9.4785693e-05
-0.00027337574
-8.2930563e-05
-0.0003253603
-7.6139566e-05
-0.00038497803
-8.705409e-05
-0.00044794544
-0.00012364328
-0.00051159371
-0.00018940705
-0.0005724523
-0.00029444042
-0.00059212724
-0.00045568469
-0.00055139621
-0.00067082514
-0.00043822975
-0.00091523985
-0.00014591607
-0.001099873
-0.00063118431
1.3413443e-05
-1.0843389e-06
1.343696e-05
-1.2927718e-06
1.3467042e-05
-1.5488782e-06
1.3504009e-05
-1.8558174e-06
1.3549268e-05
-2.2235421e-06
1.3603529e-05
-2.6641526e-06
1.366666e-05
-3.1920154e-06
1.3739326e-05
-3.8242677e-06
1.3819447e-05
-4.5814352e-06
1.3906645e-05
-5.4876193e-06
1.399784e-05
-6.5714609e-06
1.4090571e-05
-7.8663785e-06
1.4182799e-05
-9.4112974e-06
1.4273193e-05
-1.1250968e-05
1.4362478e-05
-1.3437365e-05
1.4432081e-05
-1.6029912e-05
1.4422011e-05
-1.9089035e-05
1.4260496e-05
-2.2669571e-05
1.3931685e-05
-2.6826182e-05
1.3454472e-05
-3.1617263e-05
1.2810235e-05
-3.7096587e-05
1.1931687e-05
-4.3300261e-05
1.0666571e-05
-5.0194064e-05
8.9110024e-06
-5.7692479e-05
6.4644926e-06
-6.5626799e-05
3.3256272e-06
-7.3808962e-05
8.0396522e-07
-8.2921469e-05
-1.2208434e-06
-9.3803642e-05
-5.3353389e-06
-0.00010492622
-1.1468898e-05
-0.0001143941
-1.9498429e-05
-0.00012229931
-2.9514316e-05
-0.00012926786
-4.2700089e-05
-0.00013456397
-6.0744718e-05
-0.00013448673
-8.2684971e-05
-0.00012766684
-0.00010837704
-0.00011732709
-0.0001376156
-0.00010602414
-0.00017260907
-9.3368069e-05
-0.00021488102
-7.8189998e-05
-0.00026517045
-5.9538956e-05
-0.00031620844
-4.5898757e-05
-0.00037536648
-4.9692215e-05
-0.00043794048
-7.7817738e-05
-0.00050195273
-0.00013462576
-0.00056299356
-0.00023076004
-0.00058304982
-0.00038593207
-0.00054530664
-0.00060051057
-0.00043561019
-0.00085230906
-0.00014417121
-0.0010591873
-0.00061861114
1.4590358e-05
-1.1093572e-06
1.4615477e-05
-1.3226372e-06
1.4646319e-05
-1.5847075e-06
1.4683436e-05
-1.8987278e-06
1.4728508e-05
-2.2749625e-06
1.4782589e-05
-2.7257808e-06
1.484669e-05
-3.2658038e-06
1.4922091e-05
-3.9126378e-06
1.5008714e-05
-4.6872061e-06
1.5107204e-05
-5.614178e-06
1.5216998e-05
-6.7230214e-06
1.533694e-05
-8.0479392e-06
1.5466695e-05
-9.6290709e-06
1.5604364e-05
-1.1512673e-05
1.5744649e-05
-1.3752119e-05
1.5859358e-05
-1.6405222e-05
1.5885612e-05
-1.9530685e-05
1.5769005e-05
-2.3186257e-05
1.5500189e-05
-2.7429698e-05
1.5088485e-05
-3.2318731e-05
1.4515385e-05
-3.7903176e-05
1.3718408e-05
-4.4212635e-05
1.2549043e-05
-5.1202874e-05
1.0921437e-05
-5.8788322e-05
8.6081161e-06
-6.6781613e-05
5.6839351e-06
-7.501429e-05
3.4548734e-06
-8.4293744e-05
1.6779402e-06
-9.5443075e-05
-2.1843266e-06
-0.00010673797
-7.9334412e-06
-0.00011628471
-1.5557097e-05
-0.00012420066
-2.5203636e-05
-0.00013089425
-3.7941054e-05
-0.00013554895
-5.5334807e-05
-0.00013457685
-7.6509468e-05
-0.00012663549
-0.00010169303
-0.00011440272
-0.00013042179
-0.00010018837
-0.00016495876
-8.3756415e-05
-0.00020709175
-6.3401419e-05
-0.00025720381
-3.8043603e-05
-0.00030721143
-1.772509e-05
-0.00036587641
-1.4645136e-05
-0.00042803249
-3.4475313e-05
-0.00049234628
-8.2353466e-05
-0.00055351909
-0.00016950425
-0.00057404344
-0.0003184
-0.00053917028
-0.00053185661
-0.00043288135
-0.00079002796
-0.00014239527
-0.0010184083
-0.00060590365
1.5677674e-05
-1.1369176e-06
1.5705785e-05
-1.3555743e-06
1.5739819e-05
-1.6241726e-06
1.5780563e-05
-1.9460469e-06
1.5829587e-05
-2.3316892e-06
1.588809e-05
-2.7937766e-06
1.5957322e-05
-3.3472734e-06
1.6038838e-05
-4.0103516e-06
1.6133259e-05
-4.8042397e-06
1.6242127e-05
-5.754502e-06
1.6365943e-05
-6.8911211e-06
1.6505029e-05
-8.2494023e-06
1.6659304e-05
-9.8704576e-06
1.6828744e-05
-1.1802266e-05
1.7002787e-05
-1.4098525e-05
1.7147565e-05
-1.6816656e-05
1.7210769e-05
-2.0015719e-05
1.7149289e-05
-2.3755674e-05
1.69497e-05
-2.8096949e-05
1.6611628e-05
-3.3097168e-05
1.611337e-05
-3.8801634e-05
1.5398163e-05
-4.5233358e-05
1.4322558e-05
-5.2338747e-05
1.2815718e-05
-6.0029968e-05
1.0630353e-05
-6.8105869e-05
7.9232123e-06
-7.6427984e-05
5.9821252e-06
-8.5928506e-05
4.4367705e-06
-9.7398264e-05
8.1464388e-07
-0.00010891517
-4.5636849e-06
-0.00011860677
-1.1789035e-05
-0.00012662143
-2.1066626e-05
-0.00013314338
-3.3357649e-05
-0.00013727562
-5.0112929e-05
-0.0001355526
-7.0537881e-05
-0.00012666364
-9.5202533e-05
-0.00011272887
-0.00012340948
-9.5798901e-05
-0.00015747436
-7.5798202e-05
-0.0001994761
-5.0390135e-05
-0.0002494103
-1.8351105e-05
-0.00029835933
8.4269923e-06
-0.00035649713
1.8028082e-05
-0.00041821055
6.285146e-06
-0.00048276432
-3.2722882e-05
-0.0005440157
-0.00011083604
-0.00056507566
-0.00025326166
-0.00053297098
-0.00046495961
-0.00043002053
-0.00072845057
-0.00014059807
-0.00097755333
-0.00059304728
1.667867e-05
-1.1669985e-06
1.6709828e-05
-1.3915029e-06
1.6747408e-05
-1.6672405e-06
1.6792266e-05
-1.9976448e-06
1.6846108e-05
-2.3936137e-06
1.6910194e-05
-2.8679672e-06
1.6986178e-05
-3.4363141e-06
1.7075692e-05
-4.117088e-06
1.7180066e-05
-4.932301e-06
1.7301086e-05
-5.9080612e-06
1.7439583e-05
-7.075223e-06
1.7596374e-05
-8.4701078e-06
1.7772236e-05
-1.0135157e-05
1.7964844e-05
-1.2119494e-05
1.8160654e-05
-1.4477233e-05
1.8328945e-05
-1.7265834e-05
1.8426861e-05
-2.0545464e-05
1.8419697e-05
-2.4378302e-05
1.8291313e-05
-2.8827747e-05
1.8029696e-05
-3.3950922e-05
1.7608759e-05
-3.978941e-05
1.6975187e-05
-4.6358902e-05
1.5991499e-05
-5.3598205e-05
1.4599448e-05
-6.1415671e-05
1.2532353e-05
-6.9590818e-05
1.0039774e-05
-7.8034865e-05
8.3824002e-06
-8.781014e-05
7.0570488e-06
-9.9650889e-05
3.6665288e-06
-0.00011143982
-1.3537934e-06
-0.00012133854
-8.1879312e-06
-0.00012953332
-1.7097296e-05
-0.00013598507
-2.8944114e-05
-0.00013971427
-4.5073406e-05
-0.00013737591
-6.4764219e-05
-0.00012768764
-8.8901042e-05
-0.00011222194
-0.00011657511
-9.2768665e-05
-0.00015014703
-6.9415691e-05
-0.00019199478
-3.9184789e-05
-0.00024174547
-6.2159342e-07
-0.00028964321
3.2499677e-05
-0.00034722617
4.8433946e-05
-0.00040847476
4.4592674e-05
-0.0004732045
1.4391356e-05
-0.00053448186
-5.465792e-05
-0.00055612504
-0.00019044298
-0.00052669512
-0.00039988125
-0.00042701079
-0.00066776688
-0.00013878915
-0.00093678566
-0.00058011401
1.7598464e-05
-1.1995174e-06
1.7632597e-05
-1.4302863e-06
1.7673739e-05
-1.7137535e-06
1.7722878e-05
-2.0534068e-06
1.7781745e-05
-2.4604668e-06
1.7851884e-05
-2.9481455e-06
1.7935112e-05
-3.5325122e-06
1.8033403e-05
-4.2324661e-06
1.8148424e-05
-5.0707585e-06
1.8282309e-05
-6.0742254e-06
1.8435966e-05
-7.2746219e-06
1.8610113e-05
-8.7091899e-06
1.8805779e-05
-1.0422061e-05
1.9017904e-05
-1.2463078e-05
1.9231466e-05
-1.4886856e-05
1.9420121e-05
-1.7751801e-05
1.9550181e-05
-2.1119189e-05
1.9594665e-05
-2.5053469e-05
1.9535108e-05
-2.9620825e-05
1.9349551e-05
-3.4878443e-05
1.900717e-05
-4.0864093e-05
1.845432e-05
-4.7585659e-05
1.7562776e-05
-5.4975961e-05
1.6280226e-05
-6.2939017e-05
1.4318135e-05
-7.1228171e-05
1.2034661e-05
-7.9822076e-05
1.0657435e-05
-8.9922606e-05
9.5444807e-06
-0.00010218596
6.3777357e-06
-0.00011429581
1.7032431e-06
-0.00012446187
-4.7467161e-06
-0.000132917
-1.3288438e-05
-0.00013939593
-2.4693546e-05
-0.00014283567
-4.0210113e-05
-0.00014001593
-5.9183835e-05
-0.00012968581
-8.2785115e-05
-0.00011286828
-0.00010991634
-9.1086475e-05
-0.00014296505
-6.4615459e-05
-0.00018461798
-2.975369e-05
-0.00023417786
1.526925e-05
-0.00028105331
5.455936e-05
-0.00033805947
7.6508342e-05
-0.0003988244
8.0344116e-05
-0.00046366587
5.8850711e-05
-0.0005249152
-1.1394224e-06
-0.00054716991
-0.00013013755
-0.0005203172
-0.00033674697
-0.00042383306
-0.00060804618
-0.00013697015
-0.00089612912
-0.00056708766
1.8440958e-05
-1.2343711e-06
1.8478014e-05
-1.4718808e-06
1.8522643e-05
-1.7636245e-06
1.8576017e-05
-2.1132607e-06
1.8639931e-05
-2.5322029e-06
1.8716156e-05
-3.0342271e-06
1.8806741e-05
-3.6357729e-06
1.8913964e-05
-4.356356e-06
1.9039578e-05
-5.219451e-06
1.9185859e-05
-6.2526621e-06
1.9353562e-05
-7.4886341e-06
1.9543706e-05
-8.9659775e-06
1.9755816e-05
-1.0729757e-05
1.998423e-05
-1.2830922e-05
2.0213398e-05
-1.5325102e-05
2.0422185e-05
-1.8271963e-05
2.058586e-05
-2.1734359e-05
2.0680925e-05
-2.5779036e-05
2.0687359e-05
-3.0474487e-05
2.0575845e-05
-3.5877669e-05
2.0310873e-05
-4.2022705e-05
1.9837157e-05
-4.8909436e-05
1.9042036e-05
-5.6469784e-05
1.7862344e-05
-6.460009e-05
1.5995115e-05
-7.3017919e-05
1.391778e-05
-8.1791091e-05
1.2812193e-05
-9.2263416e-05
1.1904172e-05
-0.00010499131
8.9534006e-06
-0.00011746655
4.6141718e-06
-0.00012795698
-1.4579848e-06
-0.00013674814
-9.6343179e-06
-0.00014334788
-2.0601566e-05
-0.00014660771