/*--------------------------------*- C++ -*----------------------------------*\
  =========                 |
  \\      /  F ield         | OpenFOAM: The Open Source CFD Toolbox
   \\    /   O peration     | Website:  https://openfoam.org
    \\  /    A nd           | Version:  8
     \\/     M anipulation  |
\*---------------------------------------------------------------------------*/
FoamFile
{
    version     2.0;
    format      ascii;
    class       volScalarField;
    location    "0.189994";
    object      nut;
}
// * * * * * * * * * * * * * * * * * * * * * * * * * * * * * * * * * * * * * //

dimensions      [0 2 -1 0 0 0 0];

internalField   nonuniform List<scalar> 
20000
(
0.0010962694
0.0026256233
0.0034045686
0.0035677381
0.0029835303
0.0012379513
3.6150079e-05
6.470939e-09
5.3044901e-09
5.2877362e-09
5.1755976e-09
5.20233e-09
5.139933e-09
5.1735198e-09
5.1735193e-09
5.2046902e-09
5.2285049e-09
5.2711241e-09
5.3171293e-09
5.378962e-09
5.4529881e-09
5.5435781e-09
5.6448273e-09
5.7621287e-09
5.8927077e-09
6.0385314e-09
6.1962596e-09
6.36212e-09
6.5297307e-09
6.6925549e-09
6.8443749e-09
6.9799934e-09
7.0961328e-09
7.1916679e-09
7.2676166e-09
7.3252793e-09
7.3664393e-09
7.3926802e-09
7.406722e-09
7.4117608e-09
7.4120955e-09
7.4080461e-09
7.3976521e-09
7.3829444e-09
7.3576416e-09
7.3190406e-09
7.2958928e-09
7.2827988e-09
7.2806053e-09
7.3052099e-09
0.0010779372
0.002572117
0.0033242427
0.0034488749
0.0028361682
0.0010693657
1.3903562e-05
6.0502391e-09
5.2749727e-09
5.2627389e-09
5.1525475e-09
5.1810524e-09
5.1193116e-09
5.1537939e-09
5.154617e-09
5.1866117e-09
5.2112813e-09
5.2550273e-09
5.3028398e-09
5.3682379e-09
5.4458811e-09
5.5393975e-09
5.6443039e-09
5.7632954e-09
5.8977399e-09
6.0469126e-09
6.2077186e-09
6.3758596e-09
6.5447655e-09
6.7076257e-09
6.8583903e-09
6.992174e-09
7.1060775e-09
7.1993536e-09
7.2732424e-09
7.3293284e-09
7.3694406e-09
7.3944499e-09
7.4073447e-09
7.411662e-09
7.4120726e-09
7.4074913e-09
7.3969519e-09
7.3817557e-09
7.3548609e-09
7.3175155e-09
7.2933631e-09
7.2823614e-09
7.2797495e-09
7.3061573e-09
0.0010741104
0.0025382754
0.0032542752
0.0033317103
0.0026691408
0.00089246725
4.1623117e-06
5.8069853e-09
5.251252e-09
5.2412169e-09
5.1333781e-09
5.162769e-09
5.1017554e-09
5.1366942e-09
5.1383929e-09
5.1711459e-09
5.1969406e-09
5.2427895e-09
5.2948797e-09
5.364046e-09
5.4441745e-09
5.5392748e-09
5.6454527e-09
5.768395e-09
5.9062342e-09
6.059026e-09
6.2229675e-09
6.3933396e-09
6.5632952e-09
6.7258943e-09
6.8752436e-09
7.0067543e-09
7.1179489e-09
7.208526e-09
7.2799504e-09
7.3341924e-09
7.3729804e-09
7.3965815e-09
7.4080371e-09
7.4115845e-09
7.4119715e-09
7.4070157e-09
7.3961347e-09
7.3802738e-09
7.3512304e-09
7.3130124e-09
7.2911466e-09
7.2796849e-09
7.2784678e-09
7.3087737e-09
0.0010684739
0.0025011774
0.0031811859
0.0032174334
0.0025003904
0.00073801381
1.2051046e-06
5.668598e-09
5.2295088e-09
5.2223461e-09
5.116784e-09
5.147372e-09
5.0873677e-09
5.1228812e-09
5.1255291e-09
5.1597404e-09
5.1886738e-09
5.2378208e-09
5.2920222e-09
5.3628936e-09
5.4439156e-09
5.5405746e-09
5.650984e-09
5.7775882e-09
5.9194662e-09
6.0759531e-09
6.243004e-09
6.4154312e-09
6.5861096e-09
6.7479811e-09
6.8953545e-09
7.0240571e-09
7.1320778e-09
7.2195272e-09
7.2881144e-09
7.3403015e-09
7.3772305e-09
7.3990347e-09
7.4090307e-09
7.4118427e-09
7.4119652e-09
7.4065866e-09
7.395345e-09
7.3786422e-09
7.3473114e-09
7.3103713e-09
7.2887769e-09
7.278422e-09
7.2773362e-09
7.3105758e-09
0.0010631859
0.0024647726
0.0031079577
0.0031012172
0.0023262677
0.00060237754
3.6385339e-07
5.587707e-09
5.2122697e-09
5.2072462e-09
5.1041544e-09
5.1351821e-09
5.0766705e-09
5.1131472e-09
5.1181102e-09
5.1547303e-09
5.1855236e-09
5.2360543e-09
5.2914739e-09
5.3631285e-09
5.4466968e-09
5.5466658e-09
5.6605098e-09
5.7912319e-09
5.9371538e-09
6.0974255e-09
6.2675216e-09
6.4417814e-09
6.6127949e-09
6.7734611e-09
6.9183361e-09
7.0437228e-09
7.1480915e-09
7.2319971e-09
7.2973533e-09
7.3473378e-09
7.3819964e-09
7.4017606e-09
7.4101836e-09
7.4123992e-09
7.4120617e-09
7.4062279e-09
7.3945248e-09
7.3767707e-09
7.343051e-09
7.3071889e-09
7.2867052e-09
7.27683e-09
7.2762828e-09
7.312375e-09
0.0010578926
0.0024286826
0.0030359122
0.0029872507
0.0021474842
0.00048547892
1.2224842e-07
5.5369123e-09
5.1992718e-09
5.1947392e-09
5.0937427e-09
5.123474e-09
5.0707652e-09
5.1088001e-09
5.1151894e-09
5.1528644e-09
5.1847902e-09
5.2359864e-09
5.2927549e-09
5.3670437e-09
5.4534463e-09
5.5566417e-09
5.6745656e-09
5.8094668e-09
5.959661e-09
6.1237511e-09
6.2967766e-09
6.4725805e-09
6.6434828e-09
6.8024057e-09
6.944211e-09
7.0657568e-09
7.1660149e-09
7.2459471e-09
7.3077186e-09
7.3553558e-09
7.3873075e-09
7.4047691e-09
7.411506e-09
7.413228e-09
7.4122823e-09
7.4059165e-09
7.3936938e-09
7.3746743e-09
7.3385726e-09
7.3043069e-09
7.2848105e-09
7.2756139e-09
7.2752506e-09
7.3137612e-09
0.0010525435
0.002392222
0.0029634883
0.0028735818
0.0019647113
0.00038069009
4.8023782e-08
5.5037094e-09
5.1902377e-09
5.183809e-09
5.0832001e-09
5.1137323e-09
5.0684045e-09
5.107105e-09
5.1143953e-09
5.1525445e-09
5.1855361e-09
5.2386827e-09
5.2979158e-09
5.3746557e-09
5.4642624e-09
5.5711179e-09
5.6931489e-09
5.8324649e-09
5.9870242e-09
6.1549391e-09
6.3307227e-09
6.5077186e-09
6.6780098e-09
6.8346161e-09
6.9727768e-09
7.0899602e-09
7.1856476e-09
7.2611859e-09
7.3191667e-09
7.3641767e-09
7.3930514e-09
7.4080097e-09
7.4131452e-09
7.4143044e-09
7.4126272e-09
7.4056318e-09
7.3928144e-09
7.3723146e-09
7.3338373e-09
7.3013207e-09
7.2831052e-09
7.2745238e-09
7.2742641e-09
7.3148935e-09
0.0010471229
0.0023552129
0.0028896841
0.0027573344
0.0017793443
0.00028805964
2.2948963e-08
5.4847886e-09
5.179747e-09
5.1735975e-09
5.07394e-09
5.1069078e-09
5.0675708e-09
5.1066532e-09
5.1151971e-09
5.1548648e-09
5.189918e-09
5.2449765e-09
5.3066442e-09
5.3862908e-09
5.4793186e-09
5.5900102e-09
5.7164596e-09
5.8603526e-09
6.0193955e-09
6.1910916e-09
6.3694018e-09
6.5471683e-09
6.7162913e-09
6.8699698e-09
7.0038978e-09
7.1161956e-09
7.2068465e-09
7.2775898e-09
7.3318172e-09
7.3736282e-09
7.3991289e-09
7.4114205e-09
7.4150903e-09
7.4155749e-09
7.4130721e-09
7.4053799e-09
7.3918573e-09
7.3696488e-09
7.3289497e-09
7.2983404e-09
7.2815073e-09
7.27374e-09
7.2736394e-09
7.3157751e-09
0.0010417295
0.0023178359
0.0028134002
0.002638252
0.0015935077
0.00020539524
1.3413982e-08
5.4709477e-09
5.1766516e-09
5.1662293e-09
5.0688864e-09
5.1010522e-09
5.0687702e-09
5.109261e-09
5.1195082e-09
5.1605906e-09
5.1976007e-09
5.254872e-09
5.3192888e-09
5.4019861e-09
5.4987073e-09
5.6135231e-09
5.7445846e-09
5.8932421e-09
6.0568366e-09
6.2322232e-09
6.4127613e-09
6.5908102e-09
6.7581568e-09
6.9082706e-09
7.0373753e-09
7.1442614e-09
7.2293994e-09
7.295017e-09
7.3456247e-09
7.3835645e-09
7.4054158e-09
7.4149398e-09
7.4174295e-09
7.4169691e-09
7.4136113e-09
7.4051442e-09
7.390772e-09
7.3665956e-09
7.3240652e-09
7.2952805e-09
7.2799234e-09
7.2731366e-09
7.2733426e-09
7.3165676e-09
0.0010364559
0.0022810314
0.0027362352
0.0025215654
0.0014098666
0.00013185068
9.378743e-09
5.4596693e-09
5.1774224e-09
5.167306e-09
5.0704607e-09
5.1030648e-09
5.0737511e-09
5.1151227e-09
5.1270006e-09
5.1696715e-09
5.2088928e-09
5.2685097e-09
5.3358549e-09
5.4218795e-09
5.5225457e-09
5.6417324e-09
5.7776478e-09
5.9312295e-09
6.0994167e-09
6.2783436e-09
6.4607385e-09
6.6385131e-09
6.8034274e-09
6.9493153e-09
7.0729977e-09
7.173936e-09
7.2530975e-09
7.3134087e-09
7.3604038e-09
7.3938686e-09
7.4118202e-09
7.4187206e-09
7.4200647e-09
7.4184978e-09
7.4142429e-09
7.4049089e-09
7.3895097e-09
7.3630781e-09
7.319417e-09
7.2922525e-09
7.2782928e-09
7.2725983e-09
7.2731654e-09
7.3174073e-09
0.0010312433
0.002245284
0.0026640746
0.0024046942
0.0012312354
7.1047397e-05
7.5160592e-09
5.45233e-09
5.1783859e-09
5.1705932e-09
5.0758175e-09
5.1096492e-09
5.0817558e-09
5.1241071e-09
5.1378139e-09
5.1821938e-09
5.223779e-09
5.2859574e-09
5.3564776e-09
5.4460561e-09
5.550931e-09
5.6747509e-09
5.8157358e-09
5.9743858e-09
6.1471599e-09
6.3294126e-09
6.5132199e-09
6.6901e-09
6.8518856e-09
6.9928661e-09
7.1105142e-09
7.2049626e-09
7.277747e-09
7.3328115e-09
7.375878e-09
7.4043398e-09
7.4182417e-09
7.422854e-09
7.4229e-09
7.4201353e-09
7.4149297e-09
7.4046544e-09
7.3880258e-09
7.359058e-09
7.3152235e-09
7.2893764e-09
7.2765941e-09
7.2719739e-09
7.2730629e-09
7.3184409e-09
0.0010258686
0.0022091867
0.0025904944
0.0022857877
0.001060086
3.0191935e-05
6.5986377e-09
5.4472438e-09
5.1823075e-09
5.175732e-09
5.0841244e-09
5.118722e-09
5.0929293e-09
5.1362783e-09
5.1519756e-09
5.1982351e-09
5.2423915e-09
5.3073172e-09
5.3812352e-09
5.4746194e-09
5.583964e-09
5.7126718e-09
5.8589412e-09
6.0227727e-09
6.2000772e-09
6.3853678e-09
6.5700663e-09
6.7453682e-09
6.9032864e-09
7.0386524e-09
7.1496375e-09
7.2370738e-09
7.3032104e-09
7.353316e-09
7.391633e-09
7.414797e-09
7.4247016e-09
7.42745e-09
7.425826e-09
7.4218707e-09
7.4156535e-09
7.4043596e-09
7.386295e-09
7.3545883e-09
7.311586e-09
7.2867255e-09
7.2748007e-09
7.2711107e-09
7.2737708e-09
7.3197473e-09
0.0010204012
0.0021729536
0.002516411
0.0021634348
0.00089871588
1.0233128e-05
6.131339e-09
5.4457396e-09
5.1885737e-09
5.1839809e-09
5.0950919e-09
5.1308879e-09
5.1072724e-09
5.1517745e-09
5.1696247e-09
5.2179043e-09
5.2647985e-09
5.3326638e-09
5.4102104e-09
5.5076461e-09
5.6217262e-09
5.7555783e-09
5.9073308e-09
6.0764225e-09
6.2581403e-09
6.4461036e-09
6.6310969e-09
6.8040776e-09
6.9573443e-09
7.0863622e-09
7.1900547e-09
7.2700289e-09
7.3294576e-09
7.3747632e-09
7.4073146e-09
7.4250949e-09
7.4314329e-09
7.4322755e-09
7.4288506e-09
7.4236926e-09
7.4164302e-09
7.4040032e-09
7.3843135e-09
7.3500258e-09
7.308235e-09
7.2843584e-09
7.2731554e-09
7.2698612e-09
7.2753365e-09
7.3213346e-09
0.0010147688
0.002136662
0.0024417908
0.0020374365
0.00074964698
3.0376914e-06
5.8895408e-09
5.4487966e-09
5.197717e-09
5.1947595e-09
5.1092931e-09
5.1462847e-09
5.1250666e-09
5.1707166e-09
5.1908411e-09
5.2412637e-09
5.2910639e-09
5.3620594e-09
5.4434691e-09
5.5452155e-09
5.6643021e-09
5.8035551e-09
5.960973e-09
6.1353626e-09
6.3213059e-09
6.5114929e-09
6.6961044e-09
6.865954e-09
7.0137284e-09
7.1356406e-09
7.2314555e-09
7.3036603e-09
7.356518e-09
7.3966126e-09
7.4227327e-09
7.4351591e-09
7.4386806e-09
7.4371519e-09
7.4319336e-09
7.4255831e-09
7.4172663e-09
7.4035675e-09
7.3820943e-09
7.3454245e-09
7.3050871e-09
7.2822335e-09
7.2717003e-09
7.2686735e-09
7.2776989e-09
7.3231475e-09
0.0010090182
0.0021007573
0.0023668202
0.0019109305
0.00061417045
8.7533694e-07
5.7648718e-09
5.4547233e-09
5.2100698e-09
5.2093823e-09
5.126819e-09
5.1650418e-09
5.146281e-09
5.1931249e-09
5.2156408e-09
5.268337e-09
5.3212191e-09
5.3955459e-09
5.4810651e-09
5.5873896e-09
5.7117591e-09
5.8566666e-09
6.019907e-09
6.1995863e-09
6.3894908e-09
6.5813663e-09
6.7648373e-09
6.9306693e-09
7.0720585e-09
7.186126e-09
7.2735831e-09
7.3378894e-09
7.3843552e-09
7.4182705e-09
7.4377157e-09
7.4453469e-09
7.4461538e-09
7.4420312e-09
7.435049e-09
7.4275167e-09
7.4181401e-09
7.4030336e-09
7.379654e-09
7.3407707e-09
7.302105e-09
7.2803914e-09
7.2706207e-09
7.2682484e-09
7.2807902e-09
7.325147e-09
0.0010033674
0.0020658732
0.0022919248
0.0017784932
0.00049332894
2.683748e-07
5.703378e-09
5.4640502e-09
5.2257123e-09
5.2271894e-09
5.1475927e-09
5.1870535e-09
5.1708026e-09
5.218962e-09
5.2440183e-09
5.299124e-09
5.3552926e-09
5.4331698e-09
5.5230607e-09
5.6342462e-09
5.7641822e-09
5.9149891e-09
6.0841805e-09
6.2690822e-09
6.4625995e-09
6.6555311e-09
6.8370049e-09
6.9978419e-09
7.1319279e-09
7.2374973e-09
7.3162693e-09
7.3726705e-09
7.4125951e-09
7.4392653e-09
7.4521972e-09
7.455964e-09
7.4536093e-09
7.4468685e-09
7.4381625e-09
7.4294497e-09
7.4189972e-09
7.402377e-09
7.3769956e-09
7.3360338e-09
7.299295e-09
7.2788889e-09
7.2698429e-09
7.268026e-09
7.2844372e-09
7.3272104e-09
0.00099791558
0.0020323276
0.0022215777
0.0016409051
0.00039090057
9.5055775e-08
5.6769139e-09
5.4763499e-09
5.244469e-09
5.2480328e-09
5.1714706e-09
5.2122471e-09
5.1986175e-09
5.2482132e-09
5.2759673e-09
5.3336515e-09
5.3933141e-09
5.4749781e-09
5.5695171e-09
5.685858e-09
5.8216468e-09
5.9785839e-09
6.1538157e-09
6.3438028e-09
6.5404937e-09
6.7337428e-09
6.9122517e-09
7.0670402e-09
7.1929574e-09
7.2895392e-09
7.3594212e-09
7.4078601e-09
7.4404383e-09
7.4594895e-09
7.4665761e-09
7.4667465e-09
7.4609502e-09
7.451629e-09
7.4412471e-09
7.4313298e-09
7.419716e-09
7.4015602e-09
7.3740873e-09
7.3312294e-09
7.2966362e-09
7.2776904e-09
7.2694671e-09
7.2679701e-09
7.2885175e-09
7.329358e-09
0.00099259367
0.0019991566
0.0021550478
0.0014973918
0.00029987902
4.0302976e-08
5.6680914e-09
5.4915468e-09
5.2663109e-09
5.2718321e-09
5.1984205e-09
5.2405919e-09
5.2297301e-09
5.2808738e-09
5.311509e-09
5.3719364e-09
5.4353238e-09
5.5210321e-09
5.6205132e-09
5.7423201e-09
5.8842481e-09
6.0475298e-09
6.228842e-09
6.4236987e-09
6.6230153e-09
6.8157194e-09
6.9901699e-09
7.1378321e-09
7.2548713e-09
7.3421471e-09
7.4029064e-09
7.4429872e-09
7.4672816e-09
7.4789236e-09
7.4812335e-09
7.477353e-09
7.468122e-09
7.4562853e-09
7.4442826e-09
7.4331178e-09
7.4200524e-09
7.4005298e-09
7.3708457e-09
7.3264169e-09
7.2941086e-09
7.2766738e-09
7.269291e-09
7.2679754e-09
7.2930357e-09
7.3315089e-09
0.00098733522
0.0019655564
0.0020853885
0.0013490287
0.00021856569
2.0972253e-08
5.6707096e-09
5.5096706e-09
5.2910156e-09
5.2986144e-09
5.2284513e-09
5.2721089e-09
5.2641552e-09
5.3169647e-09
5.3506564e-09
5.4140244e-09
5.4813774e-09
5.5714023e-09
5.6761333e-09
5.8037223e-09
5.9520719e-09
6.1218824e-09
6.3092605e-09
6.5086766e-09
6.7099495e-09
6.9011023e-09
7.0703015e-09
7.2098554e-09
7.3175391e-09
7.3951989e-09
7.4463437e-09
7.4771723e-09
7.4930217e-09
7.4981144e-09
7.4957897e-09
7.4876824e-09
7.4750766e-09
7.4608152e-09
7.4472615e-09
7.4348194e-09
7.4201889e-09
7.3992195e-09
7.3671103e-09
7.3216907e-09
7.2917067e-09
7.2757729e-09
7.2692456e-09
7.2680149e-09
7.2979626e-09
7.3335832e-09
0.00098228466
0.001932131
0.0020168473
0.0011991768
0.00014627511
1.3285298e-08
5.6806892e-09
5.5307514e-09
5.3187056e-09
5.3284006e-09
5.2615857e-09
5.3068032e-09
5.3019127e-09
5.3564991e-09
5.3934515e-09
5.4599592e-09
5.5315455e-09
5.6261804e-09
5.7364842e-09
5.8701791e-09
6.0252232e-09
6.2017122e-09
6.3950761e-09
6.598634e-09
6.8010446e-09
6.9894814e-09
7.1522037e-09
7.2829017e-09
7.3808968e-09
7.4482626e-09
7.4888536e-09
7.5100972e-09
7.5178859e-09
7.5172591e-09
7.5099211e-09
7.4976558e-09
7.4817742e-09
7.4651994e-09
7.4501851e-09
7.4364828e-09
7.4202101e-09
7.3975694e-09
7.3626621e-09
7.3172151e-09
7.2894892e-09
7.2751202e-09
7.2693903e-09
7.2686181e-09
7.3030501e-09
7.3355537e-09
0.00097738987
0.0018983675
0.0019471596
0.0010543084
8.4979245e-05
9.8791338e-09
5.6958988e-09
5.5547813e-09
5.3493378e-09
5.3611808e-09
5.297814e-09
5.344677e-09
5.3430325e-09
5.3995171e-09
5.4399396e-09
5.5098241e-09
5.5859165e-09
5.6854673e-09
5.8016717e-09
5.9417971e-09
6.1037893e-09
6.2870625e-09
6.4862496e-09
6.693405e-09
6.8959642e-09
7.0803885e-09
7.2355128e-09
7.3569055e-09
7.4446403e-09
7.5003877e-09
7.5299319e-09
7.541724e-09
7.5425193e-09
7.5357807e-09
7.5235693e-09
7.5072233e-09
7.4881805e-09
7.4694202e-09
7.4530549e-09
7.4381656e-09
7.4201859e-09
7.3955496e-09
7.3574144e-09
7.3132156e-09
7.2875095e-09
7.274893e-09
7.2701555e-09
7.2699308e-09
7.3081641e-09
7.3374775e-09
0.00097237812
0.0018624863
0.0018755759
0.0009187707
4.0507377e-05
8.2448579e-09
5.7152316e-09
5.5817559e-09
5.3828907e-09
5.3969454e-09
5.3371375e-09
5.3857559e-09
5.3875852e-09
5.4460797e-09
5.4902044e-09
5.5637024e-09
5.6445953e-09
5.7493821e-09
5.8718273e-09
6.018709e-09
6.1878865e-09
6.3779965e-09
6.5827473e-09
6.7927938e-09
6.9943254e-09
7.1733757e-09
7.320036e-09
7.431753e-09
7.5077761e-09
7.5509566e-09
7.5693443e-09
7.5727594e-09
7.5663444e-09
7.5536466e-09
7.5366318e-09
7.5163447e-09
7.4942689e-09
7.4734592e-09
7.4558538e-09
7.4398951e-09
7.4201511e-09
7.3931845e-09
7.3518734e-09
7.3096423e-09
7.2858043e-09
7.2748414e-09
7.271127e-09
7.2724435e-09
7.3131534e-09
7.3393465e-09
0.0009671029
0.0018234445
0.0018006494
0.00079201716
1.5658349e-05
7.4198506e-09
5.738048e-09
5.6115753e-09
5.4193523e-09
5.4357005e-09
5.3796149e-09
5.4300927e-09
5.4355958e-09
5.4962644e-09
5.5443354e-09
5.621703e-09
5.7076923e-09
5.8180454e-09
5.9470774e-09
6.1010373e-09
6.2776098e-09
6.474546e-09
6.6844736e-09
6.8965134e-09
7.095671e-09
7.2680559e-09
7.4057187e-09
7.5067611e-09
7.5694353e-09
7.5994748e-09
7.6076774e-09
7.6028916e-09
7.5892357e-09
7.570715e-09
7.5490568e-09
7.5249862e-09
7.500019e-09
7.4772998e-09
7.4585349e-09
7.4416407e-09
7.4199414e-09
7.3905192e-09
7.3463043e-09
7.3065976e-09
7.2844277e-09
7.2748732e-09
7.2716671e-09
7.2768349e-09
7.3179169e-09
7.3411039e-09
0.00096130653
0.0017812067
0.0017212538
0.00067490987
5.231721e-06
6.9948476e-09
5.7642089e-09
5.6444036e-09
5.4587991e-09
5.4775867e-09
5.42532e-09
5.4777936e-09
5.4870759e-09
5.5501699e-09
5.6024291e-09
5.6839288e-09
5.7753296e-09
5.8916014e-09
6.0275798e-09
6.1889395e-09
6.3730847e-09
6.576762e-09
6.7913127e-09
7.0042319e-09
7.1995543e-09
7.3642028e-09
7.4924341e-09
7.5807705e-09
7.6288655e-09
7.6461959e-09
7.6451463e-09
7.6317336e-09
7.6110625e-09
7.5869327e-09
7.5607894e-09
7.5331124e-09
7.5054176e-09
7.480926e-09
7.4610231e-09
7.4431761e-09
7.419486e-09
7.3875377e-09
7.3407833e-09
7.304085e-09
7.2838467e-09
7.2749417e-09
7.2723082e-09
7.2828147e-09
7.3223703e-09
7.3427255e-09
0.00095490452
0.0017351153
0.0016333882
0.00056746781
1.6393016e-06
6.7760114e-09
5.7939229e-09
5.6802949e-09
5.5013596e-09
5.5226268e-09
5.4743382e-09
5.5289082e-09
5.5421658e-09
5.6078773e-09
5.6645831e-09
5.7504964e-09
5.8476385e-09
5.9701997e-09
6.1134921e-09
6.2825611e-09
6.4744047e-09
6.6846219e-09
6.903046e-09
7.1155189e-09
7.3055496e-09
7.4617229e-09
7.5793156e-09
7.6528367e-09
7.6856486e-09
7.6919425e-09
7.6810566e-09
7.6592273e-09
7.631756e-09
7.6022305e-09
7.5717945e-09
7.5407034e-09
7.5104582e-09
7.4843368e-09
7.4632659e-09
7.4438713e-09
7.4187114e-09
7.3840622e-09
7.3354141e-09
7.3017722e-09
7.2836043e-09
7.2754929e-09
7.273446e-09
7.2895685e-09
7.3264701e-09
7.3442421e-09
0.00094791243
0.0016855944
0.001533811
0.000470619
5.2493782e-07
6.6669274e-09
5.8269256e-09
5.7192377e-09
5.547014e-09
5.570881e-09
5.5267235e-09
5.5835228e-09
5.6009412e-09
5.6694805e-09
5.7308959e-09
5.8215259e-09
5.9247771e-09
6.0540282e-09
6.205016e-09
6.3820862e-09
6.5816917e-09
6.7980892e-09
7.0194139e-09
7.2299376e-09
7.41336e-09
7.5605143e-09
7.6650784e-09
7.7221561e-09
7.740517e-09
7.7361877e-09
7.7153003e-09
7.6852453e-09
7.6512516e-09
7.6165708e-09
7.5820424e-09
7.5477449e-09
7.5151348e-09
7.4875396e-09
7.4653082e-09
7.4441719e-09
7.417525e-09
7.3797488e-09
7.3305221e-09
7.2995782e-09
7.2835318e-09
7.2764982e-09
7.2749669e-09
7.2972328e-09
7.3304234e-09
7.3457135e-09
0.00094050296
0.0016340689
0.0014253123
0.00038298322
1.8417452e-07
6.617671e-09
5.8632746e-09
5.7613509e-09
5.5958528e-09
5.6224208e-09
5.5825445e-09
5.6416946e-09
5.6634737e-09
5.735055e-09
5.8014826e-09
5.8971764e-09
6.006929e-09
6.1432909e-09
6.3023477e-09
6.4876787e-09
6.6950085e-09
6.9170396e-09
7.1400385e-09
7.3470374e-09
7.5227949e-09
7.6597956e-09
7.7485885e-09
7.7882802e-09
7.7942183e-09
7.7783645e-09
7.7477154e-09
7.709735e-09
7.6695032e-09
7.6299327e-09
7.5915133e-09
7.5542249e-09
7.5194451e-09
7.490541e-09
7.4672827e-09
7.4442381e-09
7.415841e-09
7.3742864e-09
7.3265414e-09
7.2981067e-09
7.2836163e-09
7.2781904e-09
7.2770693e-09
7.3047577e-09
7.3342692e-09
7.347162e-09
0.00093284416
0.0015810924
0.0013096657
0.00030533242
7.5253367e-08
6.6015825e-09
5.9028765e-09
5.806554e-09
5.6478754e-09
5.6772585e-09
5.6418437e-09
5.703477e-09
5.7298308e-09
5.8046873e-09
5.8764855e-09
5.9776357e-09
6.0943219e-09
6.2382321e-09
6.4057241e-09
6.5995224e-09
6.8144214e-09
7.0413096e-09
7.264528e-09
7.4664617e-09
7.6337667e-09
7.758173e-09
7.8289788e-09
7.8521244e-09
7.8459192e-09
7.8183929e-09
7.7782267e-09
7.7326399e-09
7.6864849e-09
7.642286e-09
7.6001973e-09
7.560133e-09
7.5233887e-09
7.4933247e-09
7.469293e-09
7.4442204e-09
7.4135963e-09
7.3679551e-09
7.3232454e-09
7.2975333e-09
7.2846321e-09
7.2805988e-09
7.2802143e-09
7.3120373e-09
7.3379609e-09
7.3485838e-09
0.00092475512
0.0015258305
0.0011956459
0.00023472905
3.623695e-08
6.6042374e-09
5.9455494e-09
5.8549267e-09
5.7031386e-09
5.7354583e-09
5.7046769e-09
5.7689312e-09
5.8001227e-09
5.8785018e-09
5.9561122e-09
6.0631532e-09
6.1872145e-09
6.3391028e-09
6.5153723e-09
6.7177652e-09
6.9399032e-09
7.1706007e-09
7.3924263e-09
7.5879134e-09
7.7458104e-09
7.8542116e-09
7.9056357e-09
7.9144259e-09
7.8950567e-09
7.8561107e-09
7.8067687e-09
7.7539287e-09
7.7021745e-09
7.6536205e-09
7.608095e-09
7.5654646e-09
7.5269795e-09
7.4958583e-09
7.4711887e-09
7.4441665e-09
7.4107008e-09
7.361187e-09
7.3202563e-09
7.2973677e-09
7.2861949e-09
7.2832485e-09
7.2851716e-09
7.318938e-09
7.3414487e-09
7.349967e-09
0.00091652282
0.0014657568
0.0010833126
0.00017005336
2.0787229e-08
6.6187763e-09
5.9914838e-09
5.9065115e-09
5.7617083e-09
5.7970491e-09
5.7711089e-09
5.8381707e-09
5.874521e-09
5.9568334e-09
6.040627e-09
6.1540033e-09
6.2858908e-09
6.4461906e-09
6.6315488e-09
6.8425676e-09
7.0713913e-09
7.3045743e-09
7.5233334e-09
7.7112357e-09
7.8574894e-09
7.9469858e-09
7.9793978e-09
7.9743425e-09
7.941513e-09
7.8914459e-09
7.8333053e-09
7.7735821e-09
7.7165648e-09
7.6639398e-09
7.6152189e-09
7.5702273e-09
7.5302305e-09
7.4981399e-09
7.4723562e-09
7.4436942e-09
7.4069231e-09
7.3544288e-09
7.3174158e-09
7.2973503e-09
7.2878552e-09
7.2855514e-09
7.2924582e-09
7.3253369e-09
7.344716e-09
7.3513124e-09
0.00090929662
0.0014127624
0.00097057967
0.00011161946
1.4026106e-08
6.6405884e-09
6.0405742e-09
5.9612918e-09
5.823559e-09
5.8621252e-09
5.8412916e-09
5.9114406e-09
5.9532921e-09
6.0399736e-09
6.1303211e-09
6.2504953e-09
6.3906477e-09
6.5597742e-09
6.7544834e-09
6.9740077e-09
7.208694e-09
7.4427857e-09
7.6568455e-09
7.8361812e-09
7.9672061e-09
8.0355669e-09
8.0510737e-09
8.0312584e-09
7.9851279e-09
7.9243321e-09
7.8578178e-09
7.7916037e-09
7.7296673e-09
7.6732591e-09
7.6215941e-09
7.5744492e-09
7.5331544e-09
7.5002733e-09
7.4728431e-09
7.4426914e-09
7.401835e-09
7.3483885e-09
7.3148855e-09
7.2974231e-09
7.2896254e-09
7.287961e-09
7.3015341e-09
7.3311456e-09
7.3477784e-09
7.3526363e-09
0.00090244086
0.0013583638
0.00085906169
6.3037983e-05
1.0800821e-08
6.6670963e-09
6.0928647e-09
6.0192822e-09
5.8889002e-09
5.9309349e-09
5.9155838e-09
5.9890662e-09
6.0367735e-09
6.1282364e-09
6.2255035e-09
6.3529292e-09
6.5018063e-09
6.6801734e-09
6.8844245e-09
7.1121506e-09
7.3515741e-09
7.5848438e-09
7.7926608e-09
7.9616919e-09
8.0737101e-09
8.1204522e-09
8.12011e-09
8.084907e-09
8.0258219e-09
7.9547396e-09
7.8803029e-09
7.8080202e-09
7.7415127e-09
7.6816101e-09
7.6272491e-09
7.5781517e-09
7.5357641e-09
7.5023872e-09
7.4730041e-09
7.441012e-09
7.3951655e-09
7.3437108e-09
7.3134369e-09
7.2980616e-09
7.2916801e-09
7.2906084e-09
7.3110461e-09
7.3367481e-09
7.3507498e-09
7.3539623e-09
0.00089613024
0.0013026571
0.00075084721
2.9474001e-05
9.1738951e-09
6.6978236e-09
6.148493e-09
6.0810103e-09
5.9581738e-09
6.0039524e-09
5.9943506e-09
6.0713819e-09
6.1252361e-09
6.2218548e-09
6.326468e-09
6.4616449e-09
6.6197029e-09
6.8076911e-09
7.0215624e-09
7.2569256e-09
7.4996591e-09
7.7303228e-09
7.9305439e-09
8.0860741e-09
8.175848e-09
8.2024442e-09
8.1857799e-09
8.1351421e-09
8.0635301e-09
7.9826649e-09
7.9007859e-09
7.8228734e-09
7.7521428e-09
7.6890331e-09
7.6322101e-09
7.5813512e-09
7.5380737e-09
7.5044049e-09
7.4730233e-09
7.4385976e-09
7.3877292e-09
7.3399486e-09
7.3128288e-09
7.2992247e-09
7.2942253e-09
7.2937784e-09
7.3201492e-09
7.3421147e-09
7.3536637e-09
7.3553191e-09
0.00089050503
0.0012452224
0.0006476433
1.1552448e-05
8.3288614e-09
6.7343371e-09
6.2082212e-09
6.1470656e-09
6.0318472e-09
6.0814717e-09
6.0778378e-09
6.1585945e-09
6.2189235e-09
6.3211189e-09
6.4335536e-09
6.576987e-09
6.744707e-09
6.9426608e-09
7.1660736e-09
7.408211e-09
7.6525699e-09
7.878864e-09
8.0701196e-09
8.2075473e-09
8.2733073e-09
8.2816988e-09
8.2475523e-09
8.1818557e-09
8.0982319e-09
8.0081355e-09
7.9193139e-09
7.8362018e-09
7.7615871e-09
7.6955557e-09
7.6364864e-09
7.5840674e-09
7.5401408e-09
7.5056837e-09
7.4729844e-09
7.43535e-09
7.3801441e-09
7.3367306e-09
7.312693e-09
7.3009307e-09
7.2972078e-09
7.2980005e-09
7.3281128e-09
7.347086e-09
7.3565693e-09
7.3567884e-09
0.00088584705
0.0011876347
0.00055069563
4.0240831e-06
7.8902293e-09
6.7800168e-09
6.272352e-09
6.2174754e-09
6.1099903e-09
6.1635463e-09
6.1661636e-09
6.2509045e-09
6.3180985e-09
6.4263676e-09
6.5471215e-09
6.6993703e-09
6.8771983e-09
7.0853725e-09
7.3180111e-09
7.565721e-09
7.8098459e-09
8.0300491e-09
8.2096424e-09
8.3249063e-09
8.3668366e-09
8.357288e-09
8.3053086e-09
8.2249805e-09
8.1299356e-09
8.0312049e-09
7.9359393e-09
7.8480212e-09
7.7698378e-09
7.701166e-09
7.6400747e-09
7.5863648e-09
7.542104e-09
7.5062122e-09
7.4725028e-09
7.4310195e-09
7.3729302e-09
7.3338992e-09
7.3127565e-09
7.3028838e-09
7.2998521e-09
7.3045812e-09
7.3344897e-09
7.3514724e-09
7.3594695e-09
7.3584813e-09
0.00088201658
0.0011300103
0.00046068387
1.344917e-06
7.6700229e-09
6.8297784e-09
6.3405188e-09
6.2919991e-09
6.1925618e-09
6.2502946e-09
6.2595443e-09
6.3486111e-09
6.423114e-09
6.5379942e-09
6.6676115e-09
6.829213e-09
7.0175906e-09
7.2361202e-09
7.4773881e-09
7.7291366e-09
7.9710878e-09
8.1835526e-09
8.3472559e-09
8.4368813e-09
8.4574793e-09
8.4283748e-09
8.3588953e-09
8.2645007e-09
8.1586873e-09
8.0519399e-09
7.9506999e-09
7.8583208e-09
7.7768742e-09
7.7058503e-09
7.6430133e-09
7.5884042e-09
7.5439914e-09
7.5064177e-09
7.4713049e-09
7.4251409e-09
7.366567e-09
7.3315304e-09
7.3130342e-09
7.3047527e-09
7.3022877e-09
7.3122399e-09
7.3397003e-09
7.3551005e-09
7.3621584e-09
7.3607798e-09
0.0008781753
0.001062892
0.00037807456
4.7045372e-07
7.5662789e-09
6.8834673e-09
6.4128021e-09
6.3709003e-09
6.2798687e-09
6.3420418e-09
6.3583564e-09
6.4520866e-09
6.5344016e-09
6.6564571e-09
6.7954779e-09
6.9669953e-09
7.1662793e-09
7.3950985e-09
7.6440505e-09
7.8980173e-09
8.1357995e-09
8.3384325e-09
8.4810612e-09
8.5440001e-09
8.5441718e-09
8.4947861e-09
8.4082399e-09
8.3004386e-09
8.1845595e-09
8.0704e-09
7.9636145e-09
7.8671109e-09
7.7827655e-09
7.709709e-09
7.6454839e-09
7.5903912e-09
7.5452942e-09
7.5064915e-09
7.4692117e-09
7.4174296e-09
7.361457e-09
7.3295833e-09
7.3134954e-09
7.3065675e-09
7.3045979e-09
7.3196632e-09
7.3443464e-09
7.3583543e-09
7.3646909e-09
7.3632065e-09
0.00087451409
0.00099281268
0.00030369216
1.8403237e-07
7.5261213e-09
6.9419815e-09
6.4895821e-09
6.4546933e-09
6.3722812e-09
6.4392213e-09
6.4629811e-09
6.5617996e-09
6.6524228e-09
6.7822545e-09
6.9312373e-09
7.1131836e-09
7.3236667e-09
7.5624587e-09
7.8177935e-09
8.0719728e-09
8.3035695e-09
8.4927404e-09
8.6096655e-09
8.647062e-09
8.6261284e-09
8.5563312e-09
8.4533214e-09
8.3328629e-09
8.2076382e-09
8.0866277e-09
7.9747124e-09
7.8745322e-09
7.7877855e-09
7.7130337e-09
7.6477897e-09
7.5923093e-09
7.545832e-09
7.5065031e-09
7.4661971e-09
7.4091648e-09
7.3569311e-09
7.327988e-09
7.3140462e-09
7.3083723e-09
7.3069497e-09
7.3262959e-09
7.3486533e-09
7.3613738e-09
7.3670751e-09
7.3655432e-09
0.00087048781
0.00091610461
0.00023718482
8.4345096e-08
7.5229794e-09
7.0054533e-09
6.571439e-09
6.543666e-09
6.4702368e-09
6.5422155e-09
6.57391e-09
6.6782304e-09
6.7777036e-09
6.9159134e-09
7.0753992e-09
7.2682943e-09
7.4900807e-09
7.7381874e-09
7.9982141e-09
8.2504778e-09
8.473844e-09
8.6442694e-09
8.7322958e-09
8.7462521e-09
8.7025929e-09
8.6129159e-09
8.494169e-09
8.3618625e-09
8.2279941e-09
8.1006564e-09
7.9841156e-09
7.8809386e-09
7.792336e-09
7.7161464e-09
7.6500163e-09
7.5934321e-09
7.5460965e-09
7.5062201e-09
7.462286e-09
7.4007848e-09
7.3531508e-09
7.3272499e-09
7.3147863e-09
7.3101941e-09
7.3093546e-09
7.3325164e-09
7.3526555e-09
7.3641725e-09
7.3692828e-09
7.3677372e-09
0.00086585238
0.00083473247
0.00018011614
4.6170788e-08
7.5421179e-09
7.0741124e-09
6.6585985e-09
6.63824e-09
6.5741756e-09
6.6515465e-09
6.6916386e-09
6.8019285e-09
6.9107632e-09
7.0579848e-09
7.2285334e-09
7.4327918e-09
7.6658168e-09
7.9222049e-09
8.184929e-09
8.4329812e-09
8.6452032e-09
8.7911131e-09
8.8496007e-09
8.8404327e-09
8.7734745e-09
8.6645068e-09
8.5308668e-09
8.3875376e-09
8.2456824e-09
8.1125759e-09
7.9921244e-09
7.8867426e-09
7.7964873e-09
7.7189068e-09
7.65143e-09
7.5938586e-09
7.5462211e-09
7.5054551e-09
7.4573653e-09
7.3928571e-09
7.349965e-09
7.3269994e-09
7.3158644e-09
7.3121483e-09
7.3118774e-09
7.3381633e-09
7.3563115e-09
7.3667162e-09
7.3712943e-09
7.3697592e-09
0.0008602782
0.00074354137
0.00012946082
2.9218326e-08
7.5760566e-09
7.1483907e-09
6.7514802e-09
6.7389055e-09
6.6846317e-09
6.7677142e-09
6.8167328e-09
6.9333305e-09
7.0521861e-09
7.2090578e-09
7.3912032e-09
7.6071845e-09
7.851028e-09
8.1142369e-09
8.3774212e-09
8.6188402e-09
8.8152284e-09
8.9314992e-09
8.9626502e-09
8.9285193e-09
8.8385727e-09
8.7111283e-09
8.5635131e-09
8.4099671e-09
8.2607775e-09
8.1226325e-09
7.9991679e-09
7.8919037e-09
7.7992311e-09
7.7201508e-09
7.6519861e-09
7.5940089e-09
7.5462705e-09
7.5039669e-09
7.450999e-09
7.3859558e-09
7.3472988e-09
7.3270218e-09
7.3173297e-09
7.3143447e-09
7.3152369e-09
7.343086e-09
7.359576e-09
7.3689972e-09
7.3731045e-09
7.371598e-09
0.00085530424
0.00066240964
8.7595485e-05
2.0909046e-08
7.6211912e-09
7.2287139e-09
6.8507222e-09
6.8461995e-09
6.802146e-09
6.8912348e-09
6.9497152e-09
7.0731336e-09
7.2025539e-09
7.3697784e-09
7.5640467e-09
7.7918812e-09
8.0457867e-09
8.3139448e-09
8.5751709e-09
8.8073635e-09
8.9814177e-09
9.0654569e-09
9.0705125e-09
9.0101825e-09
8.8978585e-09
8.7528719e-09
8.5922199e-09
8.4292325e-09
8.2734709e-09
8.1312643e-09
8.0054749e-09
7.8952438e-09
7.8004553e-09
7.7207329e-09
7.6521815e-09
7.5940253e-09
7.5460869e-09
7.5015459e-09
7.4428125e-09
7.3805581e-09
7.3451038e-09
7.327116e-09
7.3189292e-09
7.3163565e-09
7.3204093e-09
7.3471561e-09
7.3624516e-09
7.3710424e-09
7.374736e-09
7.3732738e-09
0.00085154819
0.00060075372
5.5195896e-05
1.6444601e-08
7.6758742e-09
7.3157684e-09
6.9567689e-09
6.9606258e-09
6.9272029e-09
7.0225925e-09
7.0911447e-09
7.221987e-09
7.3625674e-09
7.5408388e-09
7.7476734e-09
7.9872631e-09
8.2499634e-09
8.5208012e-09