/*--------------------------------*- C++ -*----------------------------------*\
  =========                 |
  \\      /  F ield         | OpenFOAM: The Open Source CFD Toolbox
   \\    /   O peration     | Website:  https://openfoam.org
    \\  /    A nd           | Version:  8
     \\/     M anipulation  |
\*---------------------------------------------------------------------------*/
FoamFile
{
    version     2.0;
    format      ascii;
    class       volScalarField;
    location    "0.189994";
    object      nuTilda;
}
// * * * * * * * * * * * * * * * * * * * * * * * * * * * * * * * * * * * * * //

dimensions      [0 2 -1 0 0 0 0];

internalField   nonuniform List<scalar> 
20000
(
0.0010981819
0.0026259572
0.0034047655
0.0035679143
0.002983774
0.0012392726
0.00010234236
1.0622078e-05
1.0114829e-05
1.0098312e-05
1.0045191e-05
1.0048997e-05
1.0014715e-05
1.0019499e-05
1.0010344e-05
1.0009768e-05
1.0005905e-05
1.0004949e-05
1.0003869e-05
1.0003754e-05
1.0004083e-05
1.0004238e-05
1.0003974e-05
1.0003349e-05
1.0002558e-05
1.000181e-05
1.0001241e-05
1.0000919e-05
1.0000832e-05
1.0000861e-05
1.0001029e-05
1.0001117e-05
1.0001078e-05
1.0000796e-05
1.0000611e-05
1.0000569e-05
1.0000607e-05
1.0000721e-05
1.000083e-05
1.0000885e-05
1.0000887e-05
1.0000814e-05
1.0000629e-05
1.0000553e-05
1.0000543e-05
1.0000651e-05
1.0000714e-05
1.0000614e-05
1.0001194e-05
1.0002282e-05
0.0010799277
0.002572467
0.0033244504
0.0034490644
0.0028364387
0.0010711343
7.6105189e-05
1.0458398e-05
1.0112643e-05
1.0097566e-05
1.0044757e-05
1.0048949e-05
1.0014534e-05
1.0019346e-05
1.001023e-05
1.0009664e-05
1.0005871e-05
1.0004919e-05
1.0003846e-05
1.0003723e-05
1.0004055e-05
1.0004228e-05
1.0003986e-05
1.0003378e-05
1.000259e-05
1.0001832e-05
1.0001244e-05
1.0000895e-05
1.0000799e-05
1.0000812e-05
1.0000962e-05
1.0001058e-05
1.0001029e-05
1.0000764e-05
1.0000572e-05
1.0000539e-05
1.0000574e-05
1.0000687e-05
1.0000798e-05
1.0000848e-05
1.0000855e-05
1.0000787e-05
1.0000618e-05
1.0000537e-05
1.0000521e-05
1.0000633e-05
1.0000668e-05
1.0000611e-05
1.0001134e-05
1.0002144e-05
0.0010761227
0.0025386361
0.0032544925
0.0033319136
0.002669446
0.00089499215
5.4638319e-05
1.0361053e-05
1.011037e-05
1.0096165e-05
1.0044342e-05
1.0048751e-05
1.0014361e-05
1.0019075e-05
1.0010103e-05
1.0009541e-05
1.000582e-05
1.0004876e-05
1.0003817e-05
1.0003691e-05
1.0004029e-05
1.0004207e-05
1.0004001e-05
1.0003414e-05
1.0002635e-05
1.0001871e-05
1.0001274e-05
1.000091e-05
1.0000794e-05
1.0000799e-05
1.0000952e-05
1.0001059e-05
1.0001037e-05
1.0000783e-05
1.0000575e-05
1.0000536e-05
1.0000572e-05
1.0000681e-05
1.0000793e-05
1.0000847e-05
1.0000855e-05
1.0000777e-05
1.0000625e-05
1.0000539e-05
1.0000514e-05
1.0000626e-05
1.000067e-05
1.0000596e-05
1.0001071e-05
1.0002073e-05
0.0010705153
0.0025015501
0.003181414
0.0032176518
0.0025007378
0.0007416774
3.963039e-05
1.0307269e-05
1.010812e-05
1.0094807e-05
1.004388e-05
1.0048522e-05
1.0014188e-05
1.0018826e-05
1.0009983e-05
1.0009414e-05
1.0005773e-05
1.0004833e-05
1.0003788e-05
1.0003657e-05
1.0004e-05
1.0004185e-05
1.0004008e-05
1.0003443e-05
1.0002672e-05
1.0001902e-05
1.0001292e-05
1.0000914e-05
1.0000789e-05
1.0000786e-05
1.000093e-05
1.0001045e-05
1.0001037e-05
1.0000793e-05
1.0000578e-05
1.0000535e-05
1.0000568e-05
1.0000675e-05
1.0000785e-05
1.000084e-05
1.0000845e-05
1.0000766e-05
1.0000624e-05
1.0000537e-05
1.0000511e-05
1.000062e-05
1.0000659e-05
1.0000584e-05
1.0001032e-05
1.0001979e-05
0.0010652534
0.0024651574
0.0031081971
0.0031014524
0.0023266681
0.0006078006
2.9262376e-05
1.027643e-05
1.0105901e-05
1.0093315e-05
1.0043292e-05
1.0047905e-05
1.0013972e-05
1.0018561e-05
1.0009865e-05
1.0009285e-05
1.0005724e-05
1.0004786e-05
1.0003757e-05
1.0003623e-05
1.0003971e-05
1.0004162e-05
1.0004012e-05
1.0003469e-05
1.000271e-05
1.0001936e-05
1.0001314e-05
1.0000924e-05
1.0000786e-05
1.0000777e-05
1.0000914e-05
1.0001038e-05
1.0001039e-05
1.0000808e-05
1.0000584e-05
1.0000536e-05
1.0000567e-05
1.0000671e-05
1.0000779e-05
1.0000836e-05
1.0000841e-05
1.0000765e-05
1.0000626e-05
1.0000536e-05
1.000051e-05
1.0000611e-05
1.0000656e-05
1.0000573e-05
1.0001014e-05
1.000189e-05
0.0010599856
0.0024290796
0.0030361634
0.0029875041
0.0021479524
0.00049361877
2.2253925e-05
1.0257693e-05
1.0104163e-05
1.0091469e-05
1.004174e-05
1.004506e-05
1.0013693e-05
1.0018288e-05
1.0009748e-05
1.0009149e-05
1.0005673e-05
1.0004738e-05
1.0003727e-05
1.0003591e-05
1.0003942e-05
1.0004137e-05
1.0004013e-05
1.0003492e-05
1.0002745e-05
1.0001968e-05
1.0001334e-05
1.0000932e-05
1.0000782e-05
1.0000767e-05
1.0000895e-05
1.0001028e-05
1.0001038e-05
1.0000821e-05
1.0000589e-05
1.0000537e-05
1.0000566e-05
1.0000667e-05
1.0000772e-05
1.000083e-05
1.0000837e-05
1.0000765e-05
1.0000627e-05
1.0000534e-05
1.0000509e-05
1.0000602e-05
1.000064e-05
1.0000562e-05
1.0000975e-05
1.0001799e-05
0.0010546609
0.0023926316
0.002963752
0.0028738555
0.0019652681
0.00039328007
1.7616248e-05
1.0245304e-05
1.0102073e-05
1.008812e-05
1.0038198e-05
1.0041593e-05
1.0013521e-05
1.0018007e-05
1.0009633e-05
1.000901e-05
1.0005622e-05
1.000469e-05
1.0003697e-05
1.0003558e-05
1.0003913e-05
1.0004109e-05
1.000401e-05
1.0003511e-05
1.0002778e-05
1.0002e-05
1.0001356e-05
1.0000941e-05
1.0000779e-05
1.0000758e-05
1.0000877e-05
1.0001018e-05
1.0001036e-05
1.0000834e-05
1.0000595e-05
1.0000537e-05
1.0000565e-05
1.0000664e-05
1.0000765e-05
1.0000824e-05
1.0000833e-05
1.0000765e-05
1.0000629e-05
1.0000532e-05
1.0000508e-05
1.0000589e-05
1.0000622e-05
1.0000554e-05
1.0000914e-05
1.0001709e-05
0.0010492638
0.0023556356
0.0028899613
0.0027576312
0.0017800194
0.00030786136
1.4649389e-05
1.023731e-05
1.0098028e-05
1.0083671e-05
1.0034339e-05
1.0038498e-05
1.0013299e-05
1.0017715e-05
1.0009521e-05
1.0008869e-05
1.0005571e-05
1.0004641e-05
1.0003669e-05
1.0003527e-05
1.0003884e-05
1.0004082e-05
1.0004004e-05
1.0003527e-05
1.0002809e-05
1.0002031e-05
1.0001377e-05
1.0000949e-05
1.0000776e-05
1.000075e-05
1.0000858e-05
1.0001005e-05
1.0001033e-05
1.0000846e-05
1.0000601e-05
1.0000539e-05
1.0000565e-05
1.0000661e-05
1.0000758e-05
1.0000819e-05
1.0000829e-05
1.0000765e-05
1.0000629e-05
1.000053e-05
1.0000507e-05
1.0000575e-05
1.0000605e-05
1.0000548e-05
1.000086e-05
1.0001618e-05
0.0010438929
0.0023182721
0.0028136924
0.0026385755
0.0015943439
0.00023646365
1.2812075e-05
1.0231467e-05
1.0096934e-05
1.008054e-05
1.0031949e-05
1.0035433e-05
1.0013012e-05
1.0017417e-05
1.0009413e-05
1.0008727e-05
1.0005521e-05
1.0004592e-05
1.000364e-05
1.0003496e-05
1.0003856e-05
1.0004056e-05
1.0003996e-05
1.0003539e-05
1.0002838e-05
1.0002062e-05
1.0001398e-05
1.0000958e-05
1.0000773e-05
1.0000741e-05
1.000084e-05
1.000099e-05
1.0001028e-05
1.0000859e-05
1.0000608e-05
1.000054e-05
1.0000564e-05
1.0000658e-05
1.0000751e-05
1.0000813e-05
1.0000825e-05
1.0000765e-05
1.000063e-05
1.0000528e-05
1.0000504e-05
1.0000559e-05
1.0000594e-05
1.0000543e-05
1.0000798e-05
1.0001529e-05
0.0010386407
0.0022814814
0.0027365436
0.0025219186
0.0014109271
0.00017826742
1.1717245e-05
1.0224867e-05
1.0096143e-05
1.0079261e-05
1.0030999e-05
1.0034256e-05
1.001282e-05
1.0017119e-05
1.0009308e-05
1.0008584e-05
1.0005471e-05
1.0004543e-05
1.0003612e-05
1.0003466e-05
1.0003828e-05
1.0004029e-05
1.0003984e-05
1.0003548e-05
1.0002864e-05
1.0002092e-05
1.0001419e-05
1.0000967e-05
1.0000772e-05
1.0000733e-05
1.0000823e-05
1.0000975e-05
1.0001022e-05
1.0000871e-05
1.0000615e-05
1.0000542e-05
1.0000563e-05
1.0000656e-05
1.0000744e-05
1.0000807e-05
1.000082e-05
1.0000765e-05
1.000063e-05
1.0000526e-05
1.0000499e-05
1.0000541e-05
1.0000581e-05
1.0000541e-05
1.000074e-05
1.0001445e-05
0.0010334481
0.0022457478
0.0026643992
0.0024050811
0.0012326142
0.0001321977
1.1085571e-05
1.0218728e-05
1.0093765e-05
1.0077514e-05
1.0030354e-05
1.0033712e-05
1.0012675e-05
1.0016815e-05
1.0009205e-05
1.0008439e-05
1.0005421e-05
1.0004493e-05
1.0003585e-05
1.0003437e-05
1.0003801e-05
1.0004002e-05
1.0003971e-05
1.0003553e-05
1.0002888e-05
1.0002121e-05
1.0001441e-05
1.0000976e-05
1.000077e-05
1.0000725e-05
1.0000807e-05
1.000096e-05
1.0001014e-05
1.0000882e-05
1.0000625e-05
1.0000544e-05
1.0000561e-05
1.0000654e-05
1.0000738e-05
1.0000801e-05
1.0000817e-05
1.0000764e-05
1.0000629e-05
1.0000524e-05
1.0000496e-05
1.0000525e-05
1.0000566e-05
1.0000542e-05
1.0000685e-05
1.0001379e-05
0.0010280932
0.0022096648
0.0025908366
0.002286214
0.0010619283
9.6598132e-05
1.0727941e-05
1.0212611e-05
1.0091536e-05
1.0075834e-05
1.0029752e-05
1.0033063e-05
1.0012589e-05
1.001651e-05
1.0009104e-05
1.0008295e-05
1.0005372e-05
1.0004444e-05
1.0003558e-05
1.0003409e-05
1.0003774e-05
1.0003975e-05
1.0003955e-05
1.0003554e-05
1.0002908e-05
1.0002149e-05
1.0001462e-05
1.0000986e-05
1.0000769e-05
1.0000719e-05
1.0000792e-05
1.0000945e-05
1.0001001e-05
1.0000891e-05
1.0000635e-05
1.0000546e-05
1.0000559e-05
1.0000651e-05
1.0000733e-05
1.0000796e-05
1.0000813e-05
1.0000764e-05
1.0000629e-05
1.0000523e-05
1.0000494e-05
1.0000508e-05
1.0000551e-05
1.0000546e-05
1.0000635e-05
1.0001333e-05
0.0010226449
0.0021734464
0.0025167722
0.0021639081
0.00090125044
6.9773475e-05
1.0528236e-05
1.0206706e-05
1.0089272e-05
1.0074096e-05
1.0029135e-05
1.0032407e-05
1.0012497e-05
1.00162e-05
1.0009006e-05
1.0008152e-05
1.0005322e-05
1.0004394e-05
1.0003532e-05
1.0003382e-05
1.0003747e-05
1.0003947e-05
1.0003937e-05
1.0003552e-05
1.0002926e-05
1.0002175e-05
1.0001484e-05
1.0000995e-05
1.0000769e-05
1.0000714e-05
1.0000777e-05
1.000093e-05
1.000099e-05
1.00009e-05
1.0000646e-05
1.0000549e-05
1.0000558e-05
1.0000648e-05
1.0000729e-05
1.000079e-05
1.0000808e-05
1.0000763e-05
1.0000628e-05
1.0000523e-05
1.0000493e-05
1.0000492e-05
1.0000536e-05
1.0000551e-05
1.0000595e-05
1.0001302e-05
0.0010170315
0.0021371699
0.0024421727
0.0020379669
0.0007532389
5.0239204e-05
1.0416926e-05
1.0201558e-05
1.0087003e-05
1.0072338e-05
1.0028516e-05
1.0031741e-05
1.001245e-05
1.0015889e-05
1.0008911e-05
1.0008012e-05
1.0005274e-05
1.0004346e-05
1.0003507e-05
1.0003356e-05
1.000372e-05
1.000392e-05
1.0003916e-05
1.0003547e-05
1.0002941e-05
1.0002201e-05
1.0001506e-05
1.0001005e-05
1.0000768e-05
1.0000709e-05
1.0000763e-05
1.0000914e-05
1.000098e-05
1.0000907e-05
1.0000659e-05
1.0000551e-05
1.0000556e-05
1.0000644e-05
1.0000725e-05
1.0000785e-05
1.0000803e-05
1.0000762e-05
1.0000628e-05
1.0000524e-05
1.0000493e-05
1.0000479e-05
1.0000519e-05
1.000055e-05
1.0000567e-05
1.000127e-05
0.0010112993
0.0021012807
0.0023672246
0.0019115288
0.00061941855
3.6433422e-05
1.035371e-05
1.0196084e-05
1.008472e-05
1.0070547e-05
1.0027895e-05
1.0031062e-05
1.001241e-05
1.0015576e-05
1.0008818e-05
1.0007873e-05
1.0005225e-05
1.0004297e-05
1.0003482e-05
1.0003332e-05
1.0003694e-05
1.0003892e-05
1.0003892e-05
1.0003539e-05
1.0002953e-05
1.0002224e-05
1.0001528e-05
1.0001016e-05
1.0000768e-05
1.0000706e-05
1.000075e-05
1.0000899e-05
1.0000969e-05
1.0000913e-05
1.0000672e-05
1.0000554e-05
1.0000554e-05
1.0000639e-05
1.0000722e-05
1.000078e-05
1.0000797e-05
1.0000761e-05
1.0000628e-05
1.0000525e-05
1.0000494e-05
1.0000468e-05
1.00005e-05
1.0000551e-05
1.0000555e-05
1.0001238e-05
0.001005665
0.0020664119
0.0022923535
0.0017791778
0.0005012188
2.6993295e-05
1.0316596e-05
1.019059e-05
1.0082428e-05
1.0068729e-05
1.0027273e-05
1.0030371e-05
1.0012351e-05
1.0015261e-05
1.0008728e-05
1.0007735e-05
1.0005178e-05
1.0004249e-05
1.0003459e-05
1.0003309e-05
1.0003667e-05
1.0003863e-05
1.0003865e-05
1.0003528e-05
1.0002963e-05
1.0002246e-05
1.000155e-05
1.0001027e-05
1.0000767e-05
1.0000702e-05
1.0000738e-05
1.0000884e-05
1.0000958e-05
1.0000917e-05
1.0000685e-05
1.0000556e-05
1.0000552e-05
1.0000632e-05
1.0000719e-05
1.0000775e-05
1.0000792e-05
1.0000759e-05
1.0000628e-05
1.0000527e-05
1.0000496e-05
1.0000455e-05
1.0000476e-05
1.0000547e-05
1.0000548e-05
1.0001189e-05
0.0010002279
0.0020328814
0.0022220312
0.0016417013
0.00040284549
2.0778698e-05
1.0293758e-05
1.0185054e-05
1.0080129e-05
1.006689e-05
1.0026653e-05
1.0029673e-05
1.0012292e-05
1.0014945e-05
1.0008641e-05
1.0007598e-05
1.000513e-05
1.0004202e-05
1.0003436e-05
1.0003287e-05
1.000364e-05
1.0003834e-05
1.0003835e-05
1.0003514e-05
1.0002969e-05
1.0002267e-05
1.0001571e-05
1.0001039e-05
1.0000767e-05
1.0000698e-05
1.0000727e-05
1.000087e-05
1.0000949e-05
1.0000919e-05
1.0000698e-05
1.0000559e-05
1.000055e-05
1.0000624e-05
1.0000716e-05
1.0000771e-05
1.0000787e-05
1.0000758e-05
1.0000628e-05
1.0000529e-05
1.0000497e-05
1.0000444e-05
1.000045e-05
1.0000534e-05
1.000054e-05
1.0001156e-05
0.00099491884
0.0019997256
0.0021555262
0.0014983372
0.00031829821
1.6743857e-05
1.0277584e-05
1.0179499e-05
1.0077826e-05
1.0065032e-05
1.0026035e-05
1.0028969e-05
1.0012237e-05
1.001463e-05
1.0008556e-05
1.0007463e-05
1.0005082e-05
1.0004157e-05
1.0003415e-05
1.0003267e-05
1.0003614e-05
1.0003803e-05
1.0003803e-05
1.0003497e-05
1.0002972e-05
1.0002285e-05
1.0001593e-05
1.0001052e-05
1.0000766e-05
1.0000693e-05
1.0000716e-05
1.0000855e-05
1.000094e-05
1.000092e-05
1.0000712e-05
1.0000563e-05
1.0000548e-05
1.0000615e-05
1.0000711e-05
1.0000766e-05
1.0000781e-05
1.0000756e-05
1.0000628e-05
1.000053e-05
1.0000498e-05
1.0000435e-05
1.0000427e-05
1.0000514e-05
1.0000531e-05
1.0001128e-05
0.00098967202
0.0019661413
0.0020858955
0.0013501789
0.00024704185
1.420444e-05
1.0265183e-05
1.0173948e-05
1.0075524e-05
1.0063163e-05
1.002542e-05
1.0028262e-05
1.0012189e-05
1.0014316e-05
1.0008474e-05
1.0007331e-05
1.0005035e-05
1.0004112e-05
1.0003395e-05
1.0003248e-05
1.0003587e-05
1.0003771e-05
1.0003769e-05
1.0003478e-05
1.0002973e-05
1.0002302e-05
1.0001614e-05
1.0001065e-05
1.0000766e-05
1.0000688e-05
1.0000706e-05
1.0000841e-05
1.0000929e-05
1.0000919e-05
1.0000725e-05
1.0000568e-05
1.0000547e-05
1.0000606e-05
1.0000705e-05
1.0000761e-05
1.0000776e-05
1.0000755e-05
1.0000628e-05
1.000053e-05
1.00005e-05
1.0000427e-05
1.000041e-05
1.0000484e-05
1.000052e-05
1.0001097e-05
0.00098463111
0.0019327322
0.002017385
0.0012006124
0.00018869148
1.2656328e-05
1.0254749e-05
1.0168395e-05
1.0073223e-05
1.0061284e-05
1.0024811e-05
1.0027553e-05
1.001215e-05
1.0014005e-05
1.0008394e-05
1.0007201e-05
1.0004988e-05
1.0004069e-05
1.0003376e-05
1.0003232e-05
1.0003561e-05
1.0003737e-05
1.0003733e-05
1.0003457e-05
1.000297e-05
1.0002317e-05
1.0001635e-05
1.000108e-05
1.0000767e-05
1.0000684e-05
1.0000697e-05
1.0000826e-05
1.0000918e-05
1.0000916e-05
1.0000738e-05
1.0000574e-05
1.0000546e-05
1.0000596e-05
1.0000699e-05
1.0000756e-05
1.0000771e-05
1.0000753e-05
1.0000628e-05
1.000053e-05
1.0000502e-05
1.0000423e-05
1.0000402e-05
1.0000447e-05
1.0000507e-05
1.0001066e-05
0.00097974406
0.0018989856
0.0019477313
0.0010561378
0.00014214793
1.1736627e-05
1.0245362e-05
1.016285e-05
1.0070925e-05
1.0059399e-05
1.0024209e-05
1.0026844e-05
1.0012127e-05
1.0013696e-05
1.0008316e-05
1.0007074e-05
1.0004942e-05
1.0004027e-05
1.0003358e-05
1.0003217e-05
1.0003535e-05
1.0003701e-05
1.0003695e-05
1.0003434e-05
1.0002965e-05
1.0002329e-05
1.0001655e-05
1.0001095e-05
1.0000769e-05
1.0000679e-05
1.0000688e-05
1.0000811e-05
1.0000907e-05
1.0000912e-05
1.0000751e-05
1.0000584e-05
1.0000547e-05
1.0000586e-05
1.0000691e-05
1.000075e-05
1.0000767e-05
1.0000751e-05
1.0000628e-05
1.0000529e-05
1.0000505e-05
1.0000424e-05
1.0000392e-05
1.0000405e-05
1.0000492e-05
1.0001032e-05
0.0009747397
0.0018631235
0.0018761862
0.0009211397
0.00010589135
1.1200367e-05
1.0236538e-05
1.0157328e-05
1.0068636e-05
1.0057517e-05
1.0023616e-05
1.0026139e-05
1.0012133e-05
1.0013392e-05
1.000824e-05
1.000695e-05
1.0004896e-05
1.0003987e-05
1.0003341e-05
1.0003204e-05
1.0003509e-05
1.0003664e-05
1.0003657e-05
1.0003409e-05
1.0002958e-05
1.000234e-05
1.0001674e-05
1.0001111e-05
1.0000772e-05
1.0000675e-05
1.000068e-05
1.0000795e-05
1.0000896e-05
1.0000906e-05
1.0000764e-05
1.0000598e-05
1.0000549e-05
1.0000578e-05
1.0000683e-05
1.0000743e-05
1.0000763e-05
1.0000749e-05
1.0000628e-05
1.0000528e-05
1.0000505e-05
1.0000426e-05
1.0000386e-05
1.0000365e-05
1.0000473e-05
1.000099e-05
0.00096947199
0.0018241035
0.0018013049
0.00079514573
7.8112388e-05
1.0890256e-05
1.0228037e-05
1.0151824e-05
1.0066357e-05
1.0055637e-05
1.0023032e-05
1.0025437e-05
1.001214e-05
1.0013092e-05
1.0008165e-05
1.000683e-05
1.0004851e-05
1.0003948e-05
1.0003326e-05
1.0003193e-05
1.0003484e-05
1.0003627e-05
1.0003618e-05
1.0003382e-05
1.0002948e-05
1.0002348e-05
1.0001692e-05
1.0001128e-05
1.0000778e-05
1.0000671e-05
1.000067e-05
1.0000778e-05
1.0000883e-05
1.0000899e-05
1.0000776e-05
1.0000618e-05
1.0000552e-05
1.0000571e-05
1.0000675e-05
1.0000736e-05
1.0000759e-05
1.0000746e-05
1.0000628e-05
1.0000524e-05
1.0000494e-05
1.0000425e-05
1.0000381e-05
1.0000334e-05
1.0000451e-05
1.0000932e-05
0.00096368512
0.0017818912
0.0017219634
0.00067912571
5.7400664e-05
1.0710841e-05
1.0219808e-05
1.0146364e-05
1.0064093e-05
1.0053771e-05
1.0022461e-05
1.0024743e-05
1.001212e-05
1.0012798e-05
1.0008091e-05
1.0006713e-05
1.0004806e-05
1.0003912e-05
1.0003312e-05
1.0003183e-05
1.0003459e-05
1.0003593e-05
1.000358e-05
1.0003354e-05
1.0002936e-05
1.0002354e-05
1.000171e-05
1.0001147e-05
1.0000786e-05
1.0000667e-05
1.0000661e-05
1.0000761e-05
1.0000868e-05
1.000089e-05
1.0000786e-05
1.0000641e-05
1.0000557e-05
1.0000566e-05
1.0000667e-05
1.0000728e-05
1.0000754e-05
1.0000744e-05
1.0000627e-05
1.0000518e-05
1.0000478e-05
1.0000425e-05
1.0000384e-05
1.0000318e-05
1.0000431e-05
1.0000859e-05
0.00095729444
0.0017358298
0.0016341668
0.00057327279
4.2263571e-05
1.0604696e-05
1.02118e-05
1.0140926e-05
1.0061843e-05
1.0051915e-05
1.0021903e-05
1.0024058e-05
1.0012097e-05
1.0012509e-05
1.0008019e-05
1.0006601e-05
1.0004763e-05
1.0003877e-05
1.0003299e-05
1.0003176e-05
1.0003435e-05
1.000356e-05
1.0003543e-05
1.0003325e-05
1.0002921e-05
1.0002357e-05
1.0001727e-05
1.0001167e-05
1.0000795e-05
1.0000663e-05
1.0000651e-05
1.0000744e-05
1.0000853e-05
1.0000879e-05
1.0000796e-05
1.0000666e-05
1.0000562e-05
1.0000562e-05
1.000066e-05
1.0000721e-05
1.0000749e-05
1.0000742e-05
1.0000625e-05
1.0000512e-05
1.0000459e-05
1.0000423e-05
1.0000385e-05
1.0000309e-05
1.0000413e-05
1.0000779e-05
0.0009503156
0.001686344
0.0015346828
0.0004787622
3.1549005e-05
1.0539222e-05
1.0204011e-05
1.013554e-05
1.0059615e-05
1.0050079e-05
1.002136e-05
1.0023386e-05
1.0012072e-05
1.0012227e-05
1.0007948e-05
1.0006493e-05
1.000472e-05
1.0003844e-05
1.0003287e-05
1.000317e-05
1.0003411e-05
1.0003528e-05
1.0003507e-05
1.0003295e-05
1.0002904e-05
1.0002359e-05
1.0001745e-05
1.0001188e-05
1.0000805e-05
1.0000659e-05
1.0000642e-05
1.0000727e-05
1.0000837e-05
1.0000868e-05
1.0000804e-05
1.0000694e-05
1.0000568e-05
1.0000559e-05
1.0000654e-05
1.0000712e-05
1.0000743e-05
1.0000739e-05
1.0000624e-05
1.0000508e-05
1.0000432e-05
1.0000415e-05
1.0000385e-05
1.00003e-05
1.0000398e-05
1.0000701e-05
0.00094292113
0.0016348582
0.001426308
0.00039463778
2.4176206e-05
1.049591e-05
1.0196398e-05
1.0130207e-05
1.0057411e-05
1.0048267e-05
1.0020834e-05
1.0022728e-05
1.0012045e-05
1.0011952e-05
1.000788e-05
1.0006389e-05
1.0004679e-05
1.0003814e-05
1.0003277e-05
1.0003167e-05
1.0003387e-05
1.0003495e-05
1.0003472e-05
1.0003263e-05
1.0002886e-05
1.000236e-05
1.0001762e-05
1.0001208e-05
1.0000816e-05
1.0000656e-05
1.0000633e-05
1.000071e-05
1.0000819e-05
1.0000858e-05
1.0000809e-05
1.0000722e-05
1.0000576e-05
1.0000556e-05
1.0000647e-05
1.0000703e-05
1.0000737e-05
1.0000736e-05
1.0000622e-05
1.0000507e-05
1.0000389e-05
1.00004e-05
1.0000378e-05
1.0000294e-05
1.0000383e-05
1.0000625e-05
0.00093527669
0.0015819261
0.0013108275
0.00032216464
1.927215e-05
1.0464562e-05
1.0188914e-05
1.0124925e-05
1.0055233e-05
1.0046482e-05
1.0020327e-05
1.0022084e-05
1.0012015e-05
1.0011673e-05
1.0007812e-05
1.000629e-05
1.0004639e-05
1.0003786e-05
1.0003268e-05
1.0003162e-05
1.0003364e-05
1.0003464e-05
1.0003437e-05
1.0003231e-05
1.0002866e-05
1.000236e-05
1.0001779e-05
1.0001228e-05
1.0000828e-05
1.0000655e-05
1.0000625e-05
1.0000693e-05
1.0000802e-05
1.0000847e-05
1.000081e-05
1.0000747e-05
1.0000588e-05
1.0000554e-05
1.0000641e-05
1.0000694e-05
1.0000731e-05
1.0000732e-05
1.0000621e-05
1.0000507e-05
1.0000359e-05
1.0000387e-05
1.0000363e-05
1.0000289e-05
1.0000364e-05
1.0000554e-05
0.0009272039
0.0015267155
0.0011970183
0.00025920638
1.601304e-05
1.0439631e-05
1.0181552e-05
1.0119712e-05
1.0053086e-05
1.004473e-05
1.001984e-05
1.0021456e-05
1.0011984e-05
1.001138e-05
1.0007745e-05
1.0006196e-05
1.00046e-05
1.0003759e-05
1.000326e-05
1.0003157e-05
1.0003341e-05
1.0003433e-05
1.0003403e-05
1.0003198e-05
1.0002845e-05
1.0002359e-05
1.0001793e-05
1.0001248e-05
1.0000842e-05
1.0000655e-05
1.0000617e-05
1.0000676e-05
1.0000784e-05
1.0000834e-05
1.0000807e-05
1.0000765e-05
1.0000605e-05
1.000055e-05
1.0000634e-05
1.0000685e-05
1.0000726e-05
1.0000729e-05
1.000062e-05
1.0000507e-05
1.000035e-05
1.0000372e-05
1.0000346e-05
1.0000286e-05
1.0000342e-05
1.0000488e-05
0.00091898715
0.0014667042
0.001084956
0.00020524969
1.3901921e-05
1.0418193e-05
1.017429e-05
1.0114566e-05
1.0050973e-05
1.0043014e-05
1.0019375e-05
1.0020843e-05
1.0011949e-05
1.0011116e-05
1.0007678e-05
1.0006107e-05
1.0004564e-05
1.0003736e-05
1.0003253e-05
1.0003151e-05
1.0003319e-05
1.0003403e-05
1.0003369e-05
1.0003165e-05
1.0002824e-05
1.0002357e-05
1.0001806e-05
1.0001267e-05
1.0000858e-05
1.0000657e-05
1.0000613e-05
1.000066e-05
1.0000765e-05
1.000082e-05
1.0000802e-05
1.0000774e-05
1.0000623e-05
1.0000545e-05
1.0000626e-05
1.0000675e-05
1.0000721e-05
1.0000725e-05
1.0000617e-05
1.0000497e-05
1.0000341e-05
1.0000356e-05
1.000033e-05
1.0000283e-05
1.0000322e-05
1.0000427e-05
0.00091177051
0.0014137699
0.00097258991
0.00015983963
1.2568306e-05
1.039856e-05
1.0167125e-05
1.0109501e-05
1.0048899e-05
1.004134e-05
1.0018934e-05
1.0020249e-05
1.001191e-05
1.0010876e-05
1.0007612e-05
1.0006023e-05
1.0004528e-05
1.0003714e-05
1.0003248e-05
1.0003145e-05
1.0003297e-05
1.0003374e-05
1.0003336e-05
1.0003132e-05
1.0002805e-05
1.0002353e-05
1.0001815e-05
1.0001287e-05
1.0000875e-05
1.0000661e-05
1.0000611e-05
1.0000645e-05
1.0000747e-05
1.0000805e-05
1.0000795e-05
1.0000777e-05
1.0000635e-05
1.000054e-05
1.0000616e-05
1.0000665e-05
1.0000715e-05
1.0000721e-05
1.0000613e-05
1.0000472e-05
1.0000331e-05
1.0000342e-05
1.0000308e-05
1.000028e-05
1.0000306e-05
1.0000371e-05
0.00090492085
0.0013594394
0.00086157712
0.00012257764
1.1742913e-05
1.0379801e-05
1.0160054e-05
1.010452e-05
1.0046867e-05
1.0039713e-05
1.0018518e-05
1.0019676e-05
1.0011866e-05
1.0010669e-05
1.0007546e-05
1.0005943e-05
1.0004495e-05
1.0003694e-05
1.0003244e-05
1.0003139e-05
1.0003277e-05
1.0003345e-05
1.0003301e-05
1.0003101e-05
1.0002785e-05
1.0002346e-05
1.0001824e-05
1.0001306e-05
1.0000893e-05
1.0000666e-05
1.000061e-05
1.0000633e-05
1.0000728e-05
1.0000789e-05
1.0000788e-05
1.0000776e-05
1.0000641e-05
1.0000536e-05
1.0000605e-05
1.0000656e-05
1.0000706e-05
1.0000715e-05
1.0000607e-05
1.0000431e-05
1.0000321e-05
1.000033e-05
1.0000292e-05
1.0000277e-05
1.0000293e-05
1.0000319e-05
0.00089861223
0.0013038108
0.00075406881
9.2788458e-05
1.1242551e-05
1.0361614e-05
1.0153087e-05
1.0099635e-05
1.0044881e-05
1.0038136e-05
1.0018129e-05
1.0019125e-05
1.001182e-05
1.0010468e-05
1.0007482e-05
1.0005869e-05
1.0004463e-05
1.0003677e-05
1.000324e-05
1.0003135e-05
1.0003256e-05
1.0003317e-05
1.0003266e-05
1.0003073e-05
1.0002766e-05
1.0002337e-05
1.000183e-05
1.0001325e-05
1.0000913e-05
1.0000673e-05
1.0000609e-05
1.0000623e-05
1.000071e-05
1.0000773e-05
1.0000779e-05
1.0000771e-05
1.0000642e-05
1.0000531e-05
1.0000591e-05
1.0000647e-05
1.0000698e-05
1.0000707e-05
1.0000602e-05
1.0000377e-05
1.0000315e-05
1.0000329e-05
1.000028e-05
1.0000276e-05
1.0000285e-05
1.0000272e-05
0.00089298412
0.0012464671
0.00065186742
6.9593129e-05
1.0942522e-05
1.0344275e-05
1.0146228e-05
1.0094848e-05
1.0042946e-05
1.0036611e-05
1.0017768e-05
1.0018597e-05
1.0011772e-05
1.001028e-05
1.000742e-05
1.00058e-05
1.0004434e-05
1.0003661e-05
1.0003238e-05
1.000313e-05
1.0003236e-05
1.0003289e-05
1.0003232e-05
1.0003046e-05
1.0002745e-05
1.0002326e-05
1.0001836e-05
1.0001344e-05
1.0000935e-05
1.0000683e-05
1.0000608e-05
1.0000614e-05
1.0000694e-05
1.0000758e-05
1.0000768e-05
1.0000764e-05
1.000064e-05
1.0000526e-05
1.0000575e-05
1.0000638e-05
1.0000692e-05
1.0000699e-05
1.0000605e-05
1.0000367e-05
1.0000308e-05
1.000033e-05
1.0000269e-05
1.0000273e-05
1.0000281e-05
1.0000227e-05
0.0008883164
0.0011889825
0.00055636676
5.1958868e-05
1.0762321e-05
1.0328813e-05
1.0139472e-05
1.0090154e-05
1.0041065e-05
1.0035141e-05
1.0017436e-05
1.0018092e-05
1.0011722e-05
1.0010104e-05
1.0007359e-05
1.0005736e-05
1.0004406e-05
1.0003646e-05
1.0003236e-05
1.0003127e-05
1.0003217e-05
1.0003263e-05
1.0003201e-05
1.0003022e-05
1.0002723e-05
1.0002314e-05
1.000184e-05
1.0001361e-05
1.0000957e-05
1.0000696e-05
1.0000608e-05
1.0000606e-05
1.0000677e-05
1.0000744e-05
1.0000756e-05
1.0000753e-05
1.0000637e-05
1.0000521e-05
1.0000558e-05
1.0000629e-05
1.0000686e-05
1.0000693e-05
1.0000611e-05
1.0000364e-05
1.0000302e-05
1.0000322e-05
1.0000259e-05
1.0000271e-05
1.0000276e-05
1.0000182e-05
0.00088446984
0.0011314746
0.00046848182
3.8927225e-05
1.0652246e-05
1.0313598e-05
1.0132806e-05
1.0085562e-05
1.0039241e-05
1.003373e-05
1.0017136e-05
1.0017612e-05
1.001167e-05
1.0009939e-05
1.00073e-05
1.0005677e-05
1.0004381e-05
1.0003633e-05
1.0003235e-05
1.0003123e-05
1.0003198e-05
1.0003238e-05
1.0003174e-05
1.0002998e-05
1.0002699e-05
1.0002301e-05
1.0001843e-05
1.0001379e-05
1.000098e-05
1.0000712e-05
1.0000608e-05
1.0000599e-05
1.000066e-05
1.0000731e-05
1.0000743e-05
1.0000742e-05
1.0000635e-05
1.0000517e-05
1.000054e-05
1.0000618e-05
1.0000677e-05
1.0000689e-05
1.0000616e-05
1.0000359e-05
1.0000297e-05
1.0000305e-05
1.0000248e-05
1.0000269e-05
1.000027e-05
1.0000147e-05
0.00088061165
0.0010645186
0.0003890425
2.9694914e-05
1.0580791e-05
1.0298654e-05
1.0126256e-05
1.0081089e-05
1.003748e-05
1.0032384e-05
1.0016867e-05
1.0017156e-05
1.0011617e-05
1.0009786e-05
1.0007244e-05
1.0005624e-05
1.0004357e-05
1.0003621e-05
1.0003234e-05
1.000312e-05
1.0003181e-05
1.0003215e-05
1.0003149e-05
1.0002973e-05
1.0002675e-05
1.0002288e-05
1.0001845e-05
1.0001395e-05
1.0001004e-05
1.0000731e-05
1.0000611e-05
1.0000593e-05
1.0000643e-05
1.0000717e-05
1.000073e-05
1.0000734e-05
1.0000635e-05
1.0000514e-05
1.0000523e-05
1.0000606e-05
1.0000663e-05
1.0000682e-05
1.0000594e-05
1.0000355e-05
1.0000284e-05
1.000031e-05
1.0000239e-05
1.0000267e-05
1.0000262e-05
1.0000124e-05
0.00087693141
0.00099464217
0.00031932953
2.3363441e-05
1.0530306e-05
1.0284013e-05
1.011983e-05
1.0076744e-05
1.0035788e-05
1.0031104e-05
1.0016631e-05
1.0016726e-05
1.0011564e-05
1.0009644e-05
1.0007191e-05
1.0005575e-05
1.0004335e-05
1.000361e-05
1.0003233e-05
1.0003117e-05
1.0003164e-05
1.0003195e-05
1.0003128e-05
1.0002947e-05
1.0002653e-05
1.0002275e-05
1.0001846e-05
1.0001411e-05
1.0001028e-05
1.0000753e-05
1.0000617e-05
1.0000589e-05
1.0000626e-05
1.0000701e-05
1.0000718e-05
1.0000728e-05
1.0000639e-05
1.0000511e-05
1.0000505e-05
1.0000593e-05
1.0000647e-05
1.0000669e-05
1.000055e-05
1.0000358e-05
1.0000275e-05
1.0000281e-05
1.0000234e-05
1.0000265e-05
1.0000254e-05
1.0000104e-05
0.00087288728
0.00091821029
0.00025952057
1.9142597e-05
1.0491464e-05
1.0269661e-05
1.0113532e-05
1.0072531e-05
1.0034169e-05
1.0029895e-05
1.0016429e-05
1.0016322e-05
1.001151e-05
1.0009514e-05
1.000714e-05
1.000553e-05
1.0004314e-05
1.0003599e-05
1.0003233e-05
1.0003114e-05
1.0003149e-05
1.0003179e-05
1.0003108e-05
1.0002921e-05
1.0002631e-05
1.0002262e-05
1.0001847e-05
1.0001427e-05
1.0001053e-05
1.0000777e-05
1.0000627e-05
1.0000588e-05
1.000061e-05
1.0000684e-05
1.0000704e-05
1.000072e-05
1.0000647e-05
1.0000509e-05
1.0000491e-05
1.0000578e-05
1.0000631e-05
1.0000656e-05
1.0000486e-05
1.0000361e-05
1.0000272e-05
1.0000262e-05
1.0000232e-05
1.0000263e-05
1.0000244e-05
1.0000089e-05
0.00086823601
0.00083721318
0.0002110747
1.6401664e-05
1.0459033e-05
1.0255582e-05
1.0107365e-05
1.0068456e-05
1.0032626e-05
1.0028762e-05
1.0016258e-05
1.0015941e-05
1.0011453e-05
1.0009395e-05
1.0007093e-05
1.000549e-05
1.0004295e-05
1.0003588e-05
1.0003232e-05
1.0003113e-05
1.0003138e-05
1.0003165e-05
1.0003087e-05
1.0002895e-05
1.000261e-05
1.000225e-05
1.0001847e-05
1.0001441e-05
1.0001078e-05
1.0000803e-05
1.0000641e-05
1.0000588e-05
1.0000598e-05
1.0000664e-05
1.0000688e-05
1.0000707e-05
1.0000657e-05
1.0000512e-05
1.0000481e-05
1.0000561e-05
1.0000617e-05
1.0000646e-05
1.0000435e-05
1.0000354e-05
1.0000271e-05
1.0000243e-05
1.000023e-05
1.000026e-05
1.0000234e-05
1.0000078e-05
0.00086265014
0.00074659097
0.00017074195
1.4572316e-05
1.043024e-05
1.0241784e-05
1.0101336e-05
1.0064527e-05
1.0031164e-05
1.0027699e-05
1.0016125e-05
1.0015551e-05
1.0011395e-05
1.0009287e-05
1.0007049e-05
1.0005454e-05
1.0004276e-05
1.0003577e-05
1.0003232e-05
1.0003114e-05
1.0003129e-05
1.0003152e-05
1.0003063e-05
1.0002871e-05
1.000259e-05
1.0002238e-05
1.0001847e-05
1.0001456e-05
1.0001104e-05
1.000083e-05
1.000066e-05
1.0000589e-05
1.0000586e-05
1.0000645e-05
1.000067e-05
1.0000695e-05
1.0000666e-05
1.0000525e-05
1.0000476e-05
1.0000543e-05
1.0000605e-05
1.0000643e-05
1.0000429e-05
1.0000344e-05
1.0000268e-05
1.0000229e-05
1.0000229e-05
1.0000256e-05
1.0000223e-05
1.0000071e-05
0.00085765995
0.00066615472
0.00013873915
1.3350056e-05
1.0403663e-05
1.0228265e-05
1.0095456e-05
1.0060751e-05
1.0029787e-05
1.0026701e-05
1.0016031e-05
1.0015192e-05
1.0011336e-05
1.0009189e-05
1.0007009e-05
1.0005421e-05
1.0004259e-05
1.0003567e-05
1.000323e-05
1.0003115e-05
1.0003125e-05
1.0003142e-05
1.0003039e-05
1.0002848e-05
1.0002571e-05
1.0002227e-05
1.0001848e-05
1.000147e-05
1.0001129e-05
1.0000859e-05
1.0000683e-05
1.0000591e-05
1.0000576e-05
1.0000627e-05
1.000065e-05
1.000068e-05
1.0000671e-05
1.0000548e-05
1.0000476e-05
1.0000523e-05
1.0000591e-05
1.0000641e-05
1.000042e-05
1.0000342e-05
1.0000261e-05
1.000022e-05
1.0000229e-05
1.0000252e-05
1.0000213e-05
1.0000066e-05
0.0008538799
0.00060518133
0.00011329798
1.2520615e-05
1.0378542e-05
1.0215045e-05
1.008974e-05
1.0057142e-05
1.0028501e-05
1.002577e-05
1.0015979e-05
1.0014883e-05
1.0011277e-05
1.0009102e-05
1.0006971e-05
1.0005392e-05
1.0004242e-05