/*--------------------------------*- C++ -*----------------------------------*\
  =========                 |
  \\      /  F ield         | OpenFOAM: The Open Source CFD Toolbox
   \\    /   O peration     | Website:  https://openfoam.org
    \\  /    A nd           | Version:  8
     \\/     M anipulation  |
\*---------------------------------------------------------------------------*/
FoamFile
{
    version     2.0;
    format      ascii;
    class       volScalarField;
    location    "0.189994";
    object      p;
}
// * * * * * * * * * * * * * * * * * * * * * * * * * * * * * * * * * * * * * //

dimensions      [1 -1 -2 0 0 0 0];

internalField   nonuniform List<scalar> 
20000
(
83097.324
83111.831
83128.346
83150.595
83180.999
83220.279
83272.533
83332.565
83407.595
83499.638
83604.774
83741.215
83889.606
84084.782
84296.377
84568.962
84868.353
85239.556
85653.378
86152.731
86731.688
87423.816
88202.432
89089
90061.445
91121.295
92245.386
93404.133
94554.529
95655.292
96666.911
97561.909
98322.936
98946.855
99436.979
99803.552
100060.56
100222.15
100309.73
100339.81
100337.74
100310.89
100248.29
100155.99
99999.937
99766.631
99591.63
99516.792
99471.462
99613.278
82888.523
82904.078
82921.109
82944.983
82978.363
83021.572
83079.787
83145.653
83226.32
83324.186
83434.059
83576.339
83729.178
83930.706
84147.402
84426.556
84731.34
85111.096
85537.166
86061.579
86672.945
87391.347
88192.57
89090.591
90085.968
91169.212
92314.596
93489.176
94648.384
95749.691
96754.762
97637.833
98384.434
98993.825
99471.248
99827.729
100079.24
100234.13
100313.38
100338.92
100337.35
100308.2
100243.55
100148.14
99983.313
99738.707
99580.127
99501.429
99465.74
99629.542
82733.008
82749.023
82766.424
82790.747
82825.018
82868.679
82928.006
82994.761
83076.697
83176.864
83288.588
83434.834
83591.355
83798.552
84019.463
84304.897
84616.576
85011.197
85465.033
86017.759
86649.098
87381.545
88195.748
89118.353
90138.575
91246.496
92412.918
93602.094
94767.826
95866.784
96861.999
97729.844
98458.888
99051.028
99513.349
99858.235
100101.71
100247.83
100318.19
100338.77
100337.25
100305.57
100238.55
100139.26
99961.992
99714.989
99565.239
99488.345
99459.051
99646.296
82595.868
82612.307
82630.204
82655.241
82690.923
82735.848
82797.147
82865.708
82949.586
83052.631
83166.465
83317.063
83477.482
83690.435
83916.023
84211.899
84542.415
84960.277
85433.385
86002.622
86643.056
87387.218
88226.558
89175.646
90222.803
91355.794
92542.731
93744.952
94914.608
96007.984
96989.775
97838.904
98547.176
99119.235
99563.9
99895.75
100128.24
100263.49
100324.44
100340.25
100337.44
100303.16
100233.47
100129.21
99937.67
99694.992
99550.223
99478.115
99452.294
99661.611
82486.92
82503.963
82522.512
82548.418
82585.772
82631.994
82695.136
82765.342
82850.904
82956.861
83073.251
83228.228
83391.511
83612.321
83850.496
84163.532
84508.853
84940.689
85423.774
86000.701
86656.873
87422.495
88287.501
89264.545
90339.315
91497.436
92703.981
93917.281
95087.912
96172.191
97136.84
97963.735
98648.115
99197.319
99621.78
99939.563
100158.31
100280.87
100331.96
100343.54
100338.23
100301.01
100228.29
100117.85
99911.311
99675.33
99536.363
99468.606
99445.628
99675.543
82401.424
82419.115
82438.429
82465.289
82504.488
82552.113
82617.313
82689.454
82777.398
82887.465
83008.085
83170.589
83341.154
83573.089
83820.918
84144.849
84498.169
84936.447
85428.845
86022.486
86698.91
87488.176
88380.574
89386.287
90489.35
91672.358
92897.238
94119.241
95287.541
96358.935
97302.599
98103.749
98761.188
99284.758
99686.643
99989.48
100191.73
100299.99
100340.93
100348.57
100339.77
100299.12
100222.99
100105.12
99883.231
99656.24
99524.009
99460.359
99439.358
99687.385
82336.842
82355.193
82375.213
82402.943
82444.158
82493.629
82562.054
82638.15
82730.404
82846.652
82972.275
83142.391
83318.984
83558.985
83811.552
84140.706
84500.433
84951.419
85459.76
86072.19
86771.083
87585.903
88506.635
89541.904
90673.582
91880.947
93122.492
94350.4
95512.71
96567.207
97485.981
98257.927
98885.427
99380.625
99758.339
100044.75
100228.04
100320.63
100351.38
100355.2
100342.05
100297.44
100217.45
100090.86
99853.492
99637.187
99512.915
99453.324
99433.802
99697.244
82298.506
82317.619
82338.492
82367.385
82411.467
82462.696
82533.983
82613.037
82707.952
82828.614
82957.617
83132.481
83312.175
83557.014
83815.339
84154.93
84526.695
84992.431
85518.29
86151.445
86874.402
87716.171
88666.547
89732.139
90892.593
92123.449
93379.565
94610.151
95762.483
96795.89
97685.852
98425.197
99019.753
99483.988
99837.336
100104.25
100266.55
100342.41
100363.61
100363.16
100345.02
100295.95
100211.46
100074.77
99822.534
99618.008
99502.555
99447.968
99430.214
99705.424
82281.867
82301.879
82323.729
82353.525
82399.795
82451.845
82524.663
82605.232
82701.12
82824.472
82955.297
83135.339
83321.114
83575.465
83842.664
84194.036
84578.864
85060.8
85605.7
86260.967
87009.574
87879.775
88860.963
89957.586
91146.719
92399.83
93667.984
94897.592
96035.661
97043.662
97900.901
98604.282
99162.872
99593.937
99923.59
100167.02
100306.54
100365.05
100378.15
100372.02
100348.59
100294.57
100204.75
100056.41
99791.315
99598.514
99492.361
99443.877
99428.643
99712.795
82278.888
82299.841
82322.683
82353.633
82402.334
82456.247
82531.631
82615.63
82714.389
82842.775
82977.034
83163.917
83355.223
83618.711
83895.017
84258.92
84657.931
85157.233
85722.541
86401.423
87177.213
88077.245
89090.397
90218.602
91436.044
92709.769
93986.961
95211.533
96330.81
97309.012
98129.636
98793.688
99313.396
99709.929
100016.17
100232.2
100347.36
100388.92
100394.67
100381.73
100352.67
100293.2
100197
100035.24
99761.259
99579.165
99481.977
99440.216
99427.973
99720.224
82297.648
82319.521
82343.285
82375.406
82426.531
82482.352
82560.212
82647.714
82749.672
82883.25
83021.889
83216.028
83413.037
83686.165
83972.445
84349.888
84764.286
85282.25
85869.446
86573.389
87377.882
88309.115
89355.261
90515.418
91760.47
93052.726
94335.483
95550.591
96646.343
97590.284
98370.387
98991.745
99470.049
99832.064
100113.44
100298.66
100388.4
100414.82
100412.58
100392.17
100357.1
100291.73
100187.95
100010.94
99733.788
99560.613
99471.154
99436.174
99427.877
99728.405
82334.855
82357.969
82383.039
82416.802
82470.796
82528.899
82609.481
82700.721
82805.775
82944.873
83087.94
83289.955
83493.956
83777.892
84075.307
84467.444
84898.533
85436.402
86046.902
86777.34
87612.006
88575.735
89655.782
90848.021
92119.61
93427.837
94712.226
95913.116
96980.433
97885.578
98621.24
99196.679
99631.863
99960.816
100212.98
100365.19
100429.61
100443.4
100431.21
100403.25
100361.84
100290.02
100177.43
99983.706
99709.656
99543.393
99459.742
99430.753
99431.799
99737.832
82395.046
82419.276
82445.436
82480.645
82537.253
82597.338
82680.216
82775.111
82883.217
83028.216
83176.203
83387.039
83598.953
83894.747
84204.376
84612.2
85061.152
85620.108
86255.314
87013.656
87879.942
88877.407
89992.113
91216.287
92512.918
93834.057
95115.699
96297.297
97331.075
98192.783
98880.145
99406.885
99798.398
100095.53
100312.46
100430.84
100472.11
100473.78
100450.39
100414.89
100366.89
100287.94
100165.41
99955.417
99687.604
99527.911
99449.043
99422.758
99440.983
99748.74
82473.273
82498.81
82526.181
82563.1
82622.674
82685.142
82770.954
82870.37
82982.387
83134.349
83288.085
83508.612
83729.168
84037.543
84360.19
84784.525
85252.432
85833.62
86494.911
87282.568
88181.895
89214.261
90364.212
91619.849
92939.559
94270.039
95544.123
96701.038
97695.944
98509.53
99145.029
99621.144
99969.647
100233.35
100410.41
100495.06
100517.41
100504.73
100469.96
100426.98
100372.33
100285.38
100151.95
99926.714
99666.931
99513.975
99439.586
99415.086
99455.139
99761.068
82572.399
82599.509
82628.398
82667.559
82730.022
82795.248
82884.691
82989.387
83105.851
83265.398
83425.048
83655.558
83885.055
84206.452
84542.821
84984.455
85472.437
86077.038
86765.838
87584.25
88518.03
89586.389
90771.968
92058.241
93398.563
94734.291
95995.549
97122.015
98072.49
98833.422
99414.132
99838.798
100145.45
100370.63
100505.73
100559.46
100564.48
100535.77
100489.72
100439.35
100378.06
100282.22
100137.14
99897.581
99647.329
99501.74
99432.357
99411.142
99474.067
99774.576
82697.268
82725.86
82756.147
82797.364
82862.688
82931.129
83023.849
83133.514
83254.041
83421.044
83586.591
83827.338
84066.145
84401.109
84752.03
85211.862
85721.127
86350.384
87068.164
87918.803
88888.422
89993.749
91215.083
92530.746
93888.684
95225.025
96467.691
97557.52
98457.952
99162.268
99686.201
100059.45
100323.9
100504.22
100597.87
100626.01
100611.76
100566.6
100509.48
100451.75
100383.77
100278.31
100120.99
99867.824
99628.817
99491.623
99427.243
99409.31
99497.001
99788.838
82842.606
82872.962
82904.994
82948.701
83017.419
83089.494
83185.432
83300.32
83425.019
83599.842
83771.561
84023.109
84271.857
84621.123
84987.582
85466.591
85998.437
86653.684
87401.992
88286.374
89293.193
90436.323
91693.234
93036.57
94408.564
95740.285
96958.017
98004.639
98849.762
99494.526
99960.526
100282.26
100500.56
100632.95
100688.66
100693.88
100658.42
100597
100529.07
100463.86
100388.78
100273.45
100103.36
99837.47
99611.296
99483.531
99424.743
99408.592
99523.036
99803.373
83009.78
83041.835
83075.532
83121.519
83193.435
83268.584
83367.984
83488.555
83617.729
83800.968
83979.339
84242.393
84501.853
84866.238
85249.3
85748.539
86304.336
86986.983
87767.418
88687.081
89732.394
90913.967
92205.911
93574.666
94956.539
96277.74
97463.577
98460.37
99245.905
99829.308
100236.26
100504.69
100671.4
100756.61
100780.5
100761.05
100704.04
100626.78
100548.39
100475.41
100391.72
100267.32
100083.76
99806.856
99594.657
99476.704
99423.658
99408.415
99551.989
99817.817
83195.76
83229.684
83265.243
83313.723
83389.271
83468.023
83571.067
83697.842
83831.832
84024.189
84209.728
84485.012
84755.968
85136.284
85537.071
86057.641
86638.851
87350.406
88164.625
89121.117
90206.127
91426.56
92752.571
94143.922
95530.778
96834.794
97981.262
98922.199
99645.307
100165.83
100511.31
100721.85
100835.18
100877.8
100872.13
100826.53
100748.31
100655.78
100567.37
100486.41
100393.13
100259.54
100061.27
99776.568
99578.872
99470.661
99423.351
99408.549
99583.065
99831.839
83400.457
83436.482
83474.257
83525.553
83605.124
83687.969
83794.93
83928.367
84067.432
84269.505
84462.645
84750.808
85034.042
85431.117
85850.819
86393.932
87002.101
87744.131
88593.807
89588.64
90714.402
91973.815
93332.459
94742.925
96129.048
97408.401
98507.936
99388.454
100047.36
100501.72
100780.85
100930.98
100992.88
100998.23
100961.42
100889.79
100790.98
100683.88
100586.02
100497.11
100393.75
100249.75
100034.6
99747.562
99564.196
99465.925
99424.055
99411.521
99615.442
99845.212
83625.807
83663.929
83703.973
83757.997
83841.572
83928.465
84039.457
84179.97
84324.31
84536.658
84737.838
85039.54
85335.931
85750.668
86190.598
86757.537
87394.291
88168.423
89055.244
90089.874
91257.269
92555.446
93944.753
95370.1
96748.837
97995.36
99041.062
99858.466
100450.45
100831.77
101041.25
101131.6
101147.89
101115.44
101047.63
100950.46
100831.8
100710.95
100604.35
100507.89
100393.97
100237.75
100003.03
99721.173
99550.891
99463.653
99428.34
99418.738
99648.333
99858.191
83869.104
83909.688
83952.495
84009.622
84097.437
84188.958
84304.272
84452.331
84602.062
84825.302
85035.048
85351.067
85661.626
86095.026
86556.582
87148.714
87815.701
88623.578
89549.202
90624.995
91834.689
93171.026
94588.387
96023.465
97387.165
98592.431
99579.008
100331.43
100849.25
101151.66
101290.82
101327.05
101298.42
101228.4
101130.23
101008.27
100870.6
100736.86
100622.27
100518.98
100394.04
100223.66
99968.841
99697.588
99539.259
99462.712
99434.272
99432.946
99680.741
99870.902
84133.447
84176.246
84221.526
84281.373
84373.273
84469.183
84588.714
84744.831
84900.334
85135.245
85354.299
85685.489
86011.325
86464.429
86949.05
87567.753
88266.645
89109.941
90076.015
91194.251
92446.681
93820.124
95262.176
96700.758
98040.863
99196.93
100121.17
100803.85
101238.22
101458.33
101532.15
101516.91
101443.02
101336.43
101208.82
101062.97
100907.25
100761.49
100639.5
100530.22
100393.21
100207.74
99934.074
99677.245
99529.941
99462.476
99438.153
99458.167
99711.94
99883.17
84411.987
84457.605
84506.263
84569.712
84666.346
84768.107
84892.473
85057.699
85219.376
85466.849
85695.885
86043.069
86385.305
86859.146
87368.295
88014.972
88747.458
89627.876
90636.023
91797.864
93093.176
94502.105
95964.534
97399.214
98706.633
99806.982
100666.65
101269.14
101612.64
101752.44
101767.11
101698.89
101580.93
101439.09
101283.1
101114.38
100941.66
100784.73
100655.58
100540.4
100390.86
100189.98
99899.345
99660.392
99525.366
99462.597
99442
99493.867
99741.29
99894.823
84711.888
84760.235
84812.41
84879.275
84980.314
85087.917
85216.95
85391.652
85559.68
85820.314
86060.029
86423.988
86783.795
87279.418
87814.567
88490.666
89258.508
90177.835
91229.676
92436.153
93774.126
95216.203
96693.551
98115.783
99381.556
100421.73
101211.1
101721.27
101969.72
102038.35
101992.81
101872.16
101711.65
101536.01
101352.83
101162.38
100973.78
100806.57
100670.16
100546.24
100386.59
100169.44
99865.241
99645.277
99523.444
99465.314
99448.069
99536.881
99768.463
99905.843
85029.92
85081.058
85137.016
85207.648
85313.247
85427.197
85561.138
85746.211
85921.03
86195.63
86446.845
86828.391
87206.979
87725.437
88288.116
88995.191
89800.265
90760.368
91857.477
93109.416
94489.335
95961.298
97446.784
98847.149
100063.27
101040.31
101747.12
102155.29
102312.5
102314.81
102207.74
102036.12
101834.82
101626.91
101417.85
101206.88
101003.6
100827.05
100683.4
100548.98
100379.9
100144.14
99833.497
99630.986
99522.936
99471.137
99456.651
99584.727
99794.385
99916.46
85363.885
85418.424
85479.179
85554.868
85665.73
85786.825
85925.573
86121.793
86303.633
86592.92
86856.434
87256.357
87654.962
88197.365
88789.218
89529.014
90373.357
91376.177
92520.051
93817.988
95238.523
96735.975
98221.473
99590.207
100750.35
101658.82
102267.74
102568.31
102645.65
102578.5
102411.08
102190.36
101950.17
101711.62
101478.04
101247.83
101031.06
100846.22
100696.06
100550.1
100370.26
100111.99
99806.774
99620.353
99523.796
99481.233
99468.673
99632.443
99819.594
99926.787
85720.645
85778.598
85842.65
85921.333
86037.554
86166.423
86310.048
86517.975
86707.293
87012.017
87288.765
87707.864
88127.829
88695.435
89318.342
90092.844
90978.609
92026.069
93218.021
94562.092
96021.079
97538.293
99014.458
100342.19
101441.81
102269.51
102767.5
102964.17
102966.48
102828.27
102602.32
102334.61
102057.51
101790.01
101533.36
101285.24
101056.15
100864.02
100708.86
100550.51
100357.32
100073.79
99784.683
99615.341
99529.618
99495.996
99486.701
99678.882
99843.92
99936.793
86094.21
86155.756
86224.101
86306.909
86428.028
86565.098
86713.832
86934.581
87131.95
87452.89
87743.817
88182.951
88625.821
89220.188
89876.283
90687.66
91617.031
92710.976
93952.077
95341.901
96836.131
98365.885
99822.578
101101.03
102135.28
102863.94
103242.79
103347.8
103271.3
103063.38
102781.1
102468.68
102156.73
101862.04
101583.82
101319.16
101078.9
100880.26
100721.2
100550.59
100340.62
100032.08
99764.93
99613.388
99538.843
99513.091
99515.198
99723.223
99867.031
99946.394
86484.606
86550.052
86623.368
86711.203
86837.069
86983.598
87137.464
87371.744
87577.662
87915.403
88221.605
88681.89
89149.601
89772.597
90464.189
91314.649
92289.724
93431.835
94722.834
96157.327
97682.26
99215.796
100642.72
101865.2
102823.23
103436.04
103696.91
103716.49
103558.89
103283.36
102947.2
102592.46
102247.81
101927.7
101629.47
101349.66
101099.44
100894.91
100729.89
100548.59
100318.91
99989.503
99746.339
99612.935
99549.271
99528.509
99558.963
99764.63
99888.723
99955.58
86893.366
86963
87041.545
87134.705
87265.113
87421.833
87580.773
87829.043
88044.084
88399.6
88722.676
89205.666
89700.453
90354.038
91083.398
91975.081
92997.84
94189.632
95530.889
97008.064
98557.621
100084.88
101472.18
102633.25
103496.48
103980.78
104135.02
104066.46
103828.51
103487.93
103100.57
102706
102330.8
101987.11
101670.43
101376.88
101117.97
100908.47
100734.15
100543.42
100289.77
99950.201
99729.556
99613.437
99560.418
99543.781
99614.689
99802.559
99909.058
99964.407
87320.085
87394.181
87477.996
87576.593
87711.246
87878.563
88043.14
88306.317
88531.786
88906.667
89248.656
89755.998
90279.985
90965.985
91735.243
92670.239
93742.559
94985.331
96376.667
97893.333
99459.771
100969.93
102308.58
103399.66
104147.31
104499.5
104555.94
104395.77
104079.71
103676.93
103241.23
102809.43
102405.89
102040.43
101706.87
101400.9
101134.63
100921.75
100735.97
100534.33
100251.17
99918.467
99718.615
99617.227
99573.231
99559.885
99674.429
99838.651
99928.611
99973.052
87763.712
87842.541
87931.554
88035.893
88175.066
88354.159
88525.826
88805.674
89043.172
89438.957
89801.647
90334.564
90889.59
91609.711
92420.99
93401.41
94525.111
95819.928
97260.418
98811.918
100385.87
101868.04
103150.27
104155.39
104769.3
104996.94
104955.89
104703.61
104312.22
103850.43
103369.39
102903.02
102473.33
102087.91
101738.97
101421.83
101149.47
100934.63
100736.63
100520.91
100206.4
99893.283
99713.55
99624.506
99588.936
99578.116
99732.518
99873.303
99947.665
99981.726
88224.219
88308.358
88403.025
88514.687
88660.144
88852.8
89032.374
89330.658
89580.915
89998.308
90382.943
90942.379
91530.261
92286.388
93141.949
94169.981
95346.771
96694.298
98181.987
99761.922
101332.68
102776.38
103994.82
104890.15
105359.9
105475.17
105331.69
104989.45
104526
104008.6
103485.36
102987.06
102533.33
102129.72
101766.81
101439.77
101162.73
100943.9
100736.83
100502.71
100159.58
99871.873
99711.656
99634.673
99607.639
99602.661
99784.468
99905.583
99966.5
99990.899
88707.065
88797.131
88898.332
89019.752
89172.201
89378.882
89565.265
89882.315
90145.59
90584.892
90992.916
91580.132
92203.039
92997.359
93899.625
94977.468
96208.882
97609.198
99140.775
100740.91
102297.01
103692.31
104833.85
105596.7
105922.61
105930.65
105682.35
105253.08
104721.2
104151.81
103589.5
103061.71
102585.91
102165.84
101790.41
101455.08
101175.12
100948.48
100734.87
100478.33
100113.93
99853.06
99711.298
99646.605
99625.481
99640.261
99827.183
99934.269
99985.208
100001.37
89215.568
89311.986
89419.928
89551.199
89708.657
89929.609
90122.742
90458.804
90736.471
91198.693
91632.208
92248.955
92909.376
93744.305
94695.737
95825.534
97112.77
98565.082
100135.55
101745.88
103275.64
104613.29
105656.62
106268.27
106463.42
106358.66
106007.22
105494.49
104898.17
104280.48
103682.08
103126.98
102631
102196.23
101809.95
101468.54
101187.02
100950.38
100728.88
100445.05
100072.6
99837.087
99712.319
99658.29
99641.409
99687.186
99861.756
99958.334
100002.94
100015.14
89744.586
89847.809
89962.208
90102.982
90265.502
90502.379
90703.835
91060.317
91354.332
91840.989
92302.321
92950.561
93651.124
94529.177
95532.187
96715.898
98059.684
99562.034
101164.49
102773.59
104265.39
105534.6
106452.82
106906.2
106979.57
106757.64
106306.07
105713.94
105057.4
104395.09
103763.27
103182.91
102668.91
102221.37
101826.33
101481.27
101196.1
100951.09
100717.76
100400.75
100038.31
99823.957
99715.067
99669.667
99656.236
99733.085
99892.293
99979.619
100019.5
100030.08
90293.696
90404.591
90525.612
90676.967
90845.484
91099.918
91310.825
91689.101
92001.156
92513.647
93005.189
93686.97
94430.392
95354.111
96410.967
97650.301
99050.649
100599.52
102225.07
103820.71
105263.12
106446.15
107214.26
107515.14
107466.52
107126.79
106578.91
105911.92
105199.47
104495.95
103833.24
103230.2
102701.07
102242.81
101841.2
101493.47
101200.74
100951.26
100701.29
100351.03
100008.48
99813.151
99718.873
99680.899
99670.601
99775.745
99920.351
99999.303
100035.17
100044.54
90865.844
90985.553
91113.679
91277.107
91451.521
91724.681
91945.695
92346.976
92678.805
93218.621
93742.94
94460.454
95249.429
96221.298
97334.091
98630.388
100086.35
101676.37
103314.19
104883.77
106265.65
107336.12
107936.56
108097.59
107920.43
107465.79
106826.09
106089.06
105324.91
104583.33
103892.63
103270.73
102729.73
102262.46
101855.35
101501.87
101202.75
100949.98
100679.62
100299.62
99983.076
99806.897
99724.054
99692.285
99684.344
99815.544
99946.365
100017.57
100049.74
100058.08
91462.647
91592.222
91727.569
91904.224
92084.668
92377.84
92609.992
93035.701
93389.388
93958.146
94517.956
95273.418
96110.547
97132.939
98303.552
99657.671
101166.97
102790.62
104428.3
105958.81
107265.57
108193.76
108622.08
108649.35
108340.17
107774.62
107048.17
106246.03
105434.13
104657.75
103943.04
103306.93
102755.7
102280.07
101865.55
101506.07
101203.57
100945.99
100652.12
100249.76
99961.71
99804.277
99731.032
99704.769
99698.726
99852.083
99970.175
100034.26
100063.09
100070.52
92085.235
92225.636
92368.111
92559.792
92746.706
93061.323
93305.837
93757.577
94135.39
94734.688
95332.658
96128.256
97016.034
98091.286
99321.4
100733.43
102292.06
103939.65
105563.87
107041.94
108250.86
109009.91
109277.08
109164.92
108725.23
108053.66
107245.92
106383.46
105527.63
104720.54
103986.86
103339.19
102774.39
102289.96
101870.73
101507.85
101203.81
100937.82
100616.39
100205.02
99943.764
99803.546
99739.746
99718.925
99717.372
99884.521
99991.513
100049.3
100075.17
100081.78
92736.1
92887.941
93037.579
93245.768
93439.898
93777.514
94035.912
94515.051
94919.318
95550.562
96189.303
97027.284
97968.254
99098.725
100389.69
101858.62
103460.38
105120.07
106716.89
108128.71
109207.91
109783.06
109899.54
109641.83
109075.53
108303.55
107420.06
106501.87
105606.44
104774.07
104025.73
103361.98
102783.79
102294.5
101872.9
101508.66
101202.92
100924.17
100569.86
100168.57
99928.938
99803.624
99749.454
99732.341
99745.794
99912.041
100010.39
100062.83
100086.08
100091.99
93415.131
93580.325
93738.415
93964.528
94166.889
94529.204
94802.402
95310.271
95743.212
96407.815
97090.053
97972.947
98969.768
100157.81
101510.39
103033.57
104669.87
106328.07
107882.61
109208.77
110125.54
110517.03
110484.23
110079.24
109391.41
108525.11
107571.33
106602.14
105672.69
104820.83
104057.28
103373.42
102787.53
102296.32
101873.87
101508.93
101200.33
100904.85
100517.58
100136.89
99917.262
99805.983
99759.564
99745.3
99780.852
99937.019
100027.54
100075.1
100095.95
100101.18
94130.401
94309.182
94474.906
94719.343
94929.574
95317.767
95607.346
96144.568
96608.826
97308.543
98037.415
98968.113
100023.53
101271.26
102685.17
104257.82
105917.53
107559.46
109055.88
110268.02
110995.58
111216.2
111025.6
110476.84
109673.5
108719.21
107700.57
106686.04
105729.32
104860.71
104074.6
103377.94
102788.94
102296.88
101874.12
101508.68
101195.92
100880.56
100463.07
100108.06
99907.908
99809.834
99770.103
99758.376
99817.504
99960.945
100043.41
100086.23
100104.83
100109.47
94875.156
95069.683
95244.469
95509.096
95727.86
96144.107
96451.152
97019.639
97518.417
98255.655
99034.679
100016.3
101132.92
102441.84
103915.24
105529.98
107199.63
108809.46
110230.13
111291.22
111818.77
111875.55
111522.25
110834.87
109922.72
108886.76
107809.25
106756.53
105778.13
104887.28
104082.17
103379.5
102788.64
102296.09
101873.48
101507.53
101189.31
100850.99
100409.19
100081.98
99900.477
99814.888
99781.266
99772.116
99853.503
99983.804
100058.07
100096.25
100112.7
100116.8
95655.323
95866.674
96050.296
96336.322
96563.22
97009.714
97336.869
97938.32
98475.581
99253.059
100085.83
101121.5
102301.47
103672.04
105200.92
106847.55
108511.72
110072.02
111391
112266.21
112600.74
112488.42
111973.51
111153.93
110140.06
109028.99
107899.88
106816.7
105815.94
104900.67
104085.03
103378.33
102785.57
102293.62
101871.84
101505.34
101179.47
100813.04
100358.97
100060.02
99896.921
99821.228
99793.026
99786.242
99888.985
100005.44
100071.5
100105.19
100119.6
100123.17
96464.437
96695.428
96890.332
97202.027
97437.943
97917.923
98268.471
98905.095
99484.922
100305.43
101195.35
102287.92
103532.66
104963.76
106541.43
108206.89
109848.67
111340.42
112522.22
113188.1
113340.5
113051.07
112379.47
111435
110326.78
109147.98
107975.83
106866.57
105836.89
104906.17
104084.86
103373.45
102779.94
102289.68
101869.4
101501.9
101164.83
100763.89
100315.57
100041.95
99895.699
99829.007
99805.695
99800.637
99922.242
100025.33
100083.53
100113.07
100125.64
100128.75
97311.781
97563.98
97770.507
98113.594
98359.12
98874.523
99251.547
99925.024
100551.5
101417.78
102367.9
103519.76
104829.51
106317.9
107934.64
109603.22
111203.88
112603.47
113607.69
114059.36
114031.42
113562.32
112740.62
111679.23
110484.56
109246.91
108039.36
106898.54
105846
104907.5
104080.14
103365.09
102772.01
102284.55
101866.41
101497.07
101144.03
100707.64
100278.41
100026.88
99895.635
99838.206
99819.607
99817.536
99951.746
100042.84
100094.01
100119.88
100130.83
100133.54
98212.448
98485
98697.059
99075.111
99331.552
99884.201
100291.24
101003.2
101680.56
102595.39
103608.21
104820.93
106194.39
107734.13
109377.12
111030.99
112569.44
113843.69
114635.56
114885.22
114666.31
114021.86
113057.96
111888.18
110615.99
109329.38
108087.98
106914.49
105849.32
104904.2
104071.13
103353.58
102762.14
102278.53
101863.08
101490.81
101116.67
100649.1
100245.76
100014.95
99897.963
99848.664
99833.166
99841.412
99976.246
100057.64
100102.93
100125.72
100135.32
100137.68
99162.959
99459.264
99674.736
100089.59
100359.3
100952.25
101393.48
102145.48
102877.72
103843.6
104920.78
106194.85
107628.67
109210.76
110864.08
112483.41
113935.88
115041.54
115605.08
115658.72
115243.21
114430.05
113332.84
112064.04
110724.58
109396.68
108115.87
106921.09
105847.76
104895.85
104058.18
103339.28
102750.63
102271.9
101859.56
101482.95
101083.43
100590.21
100216.38
100005.88
99902.21
99859.816
99846.715
99871.727
99996.711
100070.23
100110.57
100130.7
100139.12
100141.22
100159.52
100486.82
100709.54
101164.5
101449.63
102084.13
102564.55
103357.92
104148.42
105167.37
106309.6
107644.13
109132.48
110744.54
112389.39
113951.36
115285.46
116180.64
116521.75
116371.35
115761.3
114787.81
113567.1
112209.94
110814.07
109443.27
108128.59
106921.83
105840.27
104882.86
104041.74
103322.59
102737.83
102264.96
101855.88
101472.71
101043.55
100533.46
100190.08
99999.26
99908.065
99871.847
99861.124
99902.668
100015.54
100081.62
100117.4
100134.58
100141.48
100143.35
101216.49
101578.46
101806.65
102306.48
102609.61
103285.95
103810.62
104646.21
105497.45
106571.01
107778.07
109170.43
110704.45
112330.48
113945.37
115423.9
116597.23
117254.82
117381.59
117018.64
116220.64
115096.65
113763.37
112329.71
110885.54
109468.57
108132.93
106915.73
105827.33
104865.74
104022.26
103303.86
102724.04
102258
101851.97
101458.61
100993.45
100483.6
100168.21
99996.235
99915.456
99884.628
99876.097
99932.391
100033.1
100091.41
100122.4
100137.38
100143.74
100145.48
102340.84
102742.4
102973.82
103522.04
103845.99
104563.69
105136.81
106015.08
106928.87
108058.57
109329.26
110774.45
112341.55
113961.83
115521.98
116885.06
117850.24
118266.41
118175.44
117599.15
116622.08
115358.83
113925.47
112426.92
110931.64
109479.81
108129.93
106903.11
105809.53
104845.01
104000.16
103283.43
102709.6
102251.3
101847.65
101438.72
100933.8
100442.12
100150.54
99995.43
99923.883
99897.705
99890.971
99960.332
100048.86
100099.65
100126.61
100139.94
100145.71
100147.19
103537.93
103984.44
104215.96
104814.79
105163.19
105921.12
106547.04
107469.02
108447.09
109634.38
110966.05
112455.6
114038.82
115629.93
117106.3
118311.64
119031.72
119215.57
118895.82
118112.49
116967.29
115577.56
114057.8
112502.21
110955.27
109482.02
108119.03
106884.68
105787.52
104821.19
103975.84
103261.65
102694.82
102245.1
101842.76
101411.47
100870.77
100405.43
100135.89
99995.685
99932.939
99910.913
99905.751
99986.472
100062.95
100106.94
100130.69
100142.33
100146.93
100148.13
104808.11
105305.51
105535.5
106185.46
106563.03
107360.95
108045.9
109014.51
110058.35
111303.47
112690.46
114211.21
115788.8
117323.42
118682.32
119678.17
120140.91
120091.99
119540.44
118559.44
117258.99
115757.18
114163.68
112548.85
110965.26
109475.11
108101.06
106861.23
105761.91
104794.75
103949.69
103238.84
102680.01
102239.56
101837.07
101377.95
100807.54
100372.18
100123.97
99997.853
99943.084
99924.779
99920.936
100009.52
100075.52
100113.85
100134.41
100144.04
100147.71
100148.63
106151.53
106703.36
106932.54
107634.86
108048.53
108888.34
109640.27
110660.6
111770.72
113070.7
114502.56
116035.71
117581.07
119026.74
120223.53
120966.42
121180.26
120885.56
120108.35
118941.86
117501.01
115902.55
114241.97
112572.26
110965.3
109459.52
108076.97
106833.54
105733.29
104766.14
103922.08
103215.31
102665.47
102234.78
101829.97
101338.37
100746.76
100342.2
100114.63
100001.8
99954.408
99939.786
99937.754
100028.77
100086.54
100119.87
100137.21
100145.13
100148.26
100149.23
107578.78
108186.45
108419.85
109177.02
109636.24
110518.21
111340.65
112416.31
113591.49
114938.89
116398.87
117919.57
119401.35
120720.57
121701.13
122172.89
122137.63
121592.97
120600.24
119262.99
117698.33
116017.09
114289.54
112581.3
110954.59
109436.34
108047.71
106802.32
105702.2
104735.79
103893.34
103191.37
102651.47
102230.72
101820.28
101289.08
100691.79
100315.86
100107.98
100007.63
99966.682
99954.548
99958.605
100044
100095.42
100124.31
100139.05
100145.91
100148.94
100149.89
109116.25
109782.3
110028.2
110836.21
111356.78
112278.73
113165.3
114290.28
115524.75
116906.56
118371.12
119848.77
121229.95
122374.93
123092.23
123299.36
123000.78
122212.69
121018.27
119527.57
117856.28
116098.33
114313.38
112578.5
110934.45
109406.76
108014.2
106768.27
105669.17
104704.11
103863.82
103167.33
102638.28
102227.06
101805.9
101227.93
100645.76
100294.6
100104.94
100014.98
99979.133
99968.671
99980.707
100057.28
100102.57
100127.62
100140.54
100146.88
100149.5
100150.06
110779.61
111512.56
111783.15
112631.73
113211.04
114172.61
115123.09
116295.35
117572.04
118966.21
120405.45
121804.52
123042.92
123956.99
124391.29
124331.15
123765.42
122745.38
121366.42
119741.54
117978.63
116146.45
114321.27
112563.94
110906.28
109371.93
107977.3
106732.02
105634.66
104671.47
103833.84
103143.48
102626.08
102223.47
101785.06
101163.22
100605.55
100277.84
100104.37
100023.34
99991.808
99982.778
100001.57
100069.07
100108.79
100130.8
100142.3
100147.71
100149.73
100150.3
112591.86
113387.76
113682.54
114565.65
115203.58
116206.68
117218.37
118422.78
119723.49
121103.78
122482.57
123761.37