/*--------------------------------*- C++ -*----------------------------------*\
  =========                 |
  \\      /  F ield         | OpenFOAM: The Open Source CFD Toolbox
   \\    /   O peration     | Website:  https://openfoam.org
    \\  /    A nd           | Version:  8
     \\/     M anipulation  |
\*---------------------------------------------------------------------------*/
FoamFile
{
    version     2.0;
    format      ascii;
    class       surfaceScalarField;
    location    "0.189994";
    object      phi;
}
// * * * * * * * * * * * * * * * * * * * * * * * * * * * * * * * * * * * * * //

dimensions      [1 0 -1 0 0 0 0];

internalField   nonuniform List<scalar> 
39600
(
-0.0001634338
-0.0083549381
0.0085333089
-0.0001993949
-0.011716767
0.011752091
-0.0002329258
-0.015446834
0.015479568
-0.00026824365
-0.020022845
0.02005717
-0.00030655705
-0.025775164
0.025812044
-0.00038755265
-0.033042876
0.033121933
-0.00065740767
-0.040302485
0.040570632
-0.00099617184
-0.048529951
0.048866785
-0.0013984636
-0.057924785
0.058324753
-0.001873306
-0.069559478
0.070031532
-0.0024376208
-0.083160597
0.083721589
-0.0031103667
-0.099755849
0.10042459
-0.003910338
-0.11935526
0.12015043
-0.0048679261
-0.14307703
0.14402884
-0.006007679
-0.1712692
0.17240202
-0.0073729765
-0.20522532
0.20658228
-0.0090011111
-0.24571111
0.24732916
-0.010949656
-0.29432999
0.29626634
-0.013274774
-0.35239257
0.35470289
-0.016058081
-0.42197958
0.42474505
-0.019339508
-0.5051223
0.50838213
-0.023203744
-0.60459883
0.60843709
-0.027846225
-0.72345729
0.72806858
-0.033406136
-0.86533617
0.87085884
-0.040080543
-1.0344256
1.0410556
-0.048086193
-1.2358202
1.2437735
-0.057698861
-1.475405
1.484955
-0.069237735
-1.7602749
1.7717391
-0.083066428
-2.0989738
2.1127129
-0.099575378
-2.5019574
2.5183609
-0.11919941
-2.9820349
3.0015325
-0.14241966
-3.5548993
3.5779653
-0.16977839
-4.2397058
4.2668856
-0.20188961
-5.0597221
5.0916333
-0.23944912
-6.0428366
6.080167
-0.2832021
-7.222424
7.2658985
-0.33414301
-8.6377922
8.6883564
-0.39285978
-10.336656
10.394907
-0.45928949
-12.375979
12.441887
-0.53320241
-14.823806
14.897147
-0.61493134
-17.761321
17.842409
-0.7021027
-21.284042
21.370489
-0.79138929
-25.509632
25.597743
-0.87668313
-30.576648
30.66002
-0.9476943
-36.652659
36.720503
-0.98139316
-43.952898
43.982405
-0.96661937
-52.715924
52.696864
-0.84191098
-63.229835
63.101018
-0.56524904
-75.876441
75.595006
-90.995006
90.461094
-1.0057205e-06
-0.0083420957
-2.3742022e-05
-0.011694668
-5.3607803e-05
-0.015417759
-8.7233488e-05
-0.019990184
-0.00012467363
-0.025739144
-0.00021911328
-0.032950266
-0.00048085821
-0.040042379
-0.0008014106
-0.048211271
-0.0011874523
-0.057541007
-0.0016501581
-0.069099504
-0.0022044871
-0.082609533
-0.0028696087
-0.099094671
-0.0036618175
-0.11856777
-0.0046115971
-0.14213294
-0.0057429781
-0.17014462
-0.0071002408
-0.20387625
-0.008721134
-0.24410008
-0.010654928
-0.29240816
-0.012960584
-0.3501014
-0.015699762
-0.41925787
-0.018929761
-0.50191336
-0.022770643
-0.60078325
-0.027374029
-0.71888426
-0.032906278
-0.85984032
-0.039522728
-1.0278526
-0.047456388
-1.2279378
-0.056977303
-1.4659456
-0.068400096
-1.7489256
-0.082075285
-2.0853863
-0.0983824
-2.4857533
-0.11773966
-2.962801
-0.1406115
-3.5321774
-0.16752325
-4.2129681
-0.19907066
-5.0283695
-0.2359348
-6.0061954
-0.27888124
-7.1797609
-0.32886778
-8.5881847
-0.38635111
-10.27963
-0.45145068
-12.311382
-0.52410767
-14.751728
-0.60442222
-17.681624
-0.69028231
-21.198904
-0.77851513
-25.422591
-0.86330067
-30.493841
-0.93489025
-36.584419
-0.9729392
-43.918786
-0.95807981
-52.734691
-0.84475317
-63.347123
-0.58163412
-76.144314
-91.504906
-4.1367053e-06
-0.0083289174
-2.2232749e-05
-0.011677151
-4.3549783e-05
-0.015397206
-6.751666e-05
-0.019967156
-9.0509226e-05
-0.025717566
-0.00018760501
-0.03285486
-0.00044493528
-0.039786632
-0.00075924645
-0.047898796
-0.0011365206
-0.057165962
-0.0015871484
-0.068651562
-0.0021260946
-0.082073807
-0.0027731721
-0.098451463
-0.0035398074
-0.11780579
-0.0044599394
-0.14121837
-0.005557897
-0.16905334
-0.0068716114
-0.20257056
-0.0084399467
-0.24254143
-0.010312663
-0.29054714
-0.012517653
-0.34791056
-0.015144195
-0.41664836
-0.018269006
-0.49880908
-0.021999038
-0.5970778
-0.026483994
-0.71442896
-0.031855776
-0.854504
-0.038296791
-1.0214539
-0.046040174
-1.2202444
-0.055357943
-1.4566876
-0.066565183
-1.7377902
-0.08000715
-2.0720298
-0.096056896
-2.4698034
-0.11511937
-2.9438579
-0.13764468
-3.509797
-0.16413986
-4.1866412
-0.19518524
-4.9975121
-0.23144415
-5.9701522
-0.27371215
-7.1377818
-0.3228575
-8.5394262
-0.37929715
-10.223641
-0.44324061
-12.247919
-0.51483566
-14.680702
-0.59396574
-17.603111
-0.67875043
-21.114865
-0.76619464
-25.336371
-0.85076681
-30.411335
-0.92241097
-36.516362
-0.96414443
-43.880711
-0.95233258
-52.750198
-0.84929178
-63.454116
-0.60047411
-76.397805
-91.990578
-5.848704e-06
-0.0083166426
-2.3914563e-05
-0.01165966
-4.464554e-05
-0.015377162
-6.7437713e-05
-0.019945272
-8.6020591e-05
-0.025700401
-0.0001883822
-0.032754161
-0.00043794169
-0.039538606
-0.00073975827
-0.047598794
-0.0011027435
-0.056805127
-0.0015363979
-0.068220544
-0.0020555325
-0.081557793
-0.0026809067
-0.097829879
-0.0034211316
-0.11707009
-0.0043110438
-0.14033391
-0.0053745487
-0.16799637
-0.0066494027
-0.20130354
-0.0081489848
-0.2410513
-0.0099348527
-0.28877267
-0.012059452
-0.34579973
-0.014594531
-0.41412988
-0.017630151
-0.4957934
-0.021263595
-0.59346838
-0.025611949
-0.71010954
-0.030830974
-0.84931959
-0.037105448
-1.0152208
-0.044669277
-1.2127296
-0.053797781
-1.4476177
-0.064804563
-1.7268538
-0.078032654
-2.0588851
-0.09384456
-2.4540887
-0.11263536
-2.9251831
-0.13483883
-3.4877339
-0.16094708
-4.160696
-0.19152299
-4.9671178
-0.22722063
-5.9346629
-0.2688685
-7.0964293
-0.31722322
-8.4914584
-0.3727002
-10.168608
-0.43559907
-12.18549
-0.50622424
-14.61064
-0.58429835
-17.525662
-0.66816679
-21.031762
-0.75498926
-25.250794
-0.83955359
-30.328918
-0.91195948
-36.447643
-0.95625602
-43.83993
-0.94952884
-52.76042
-0.85589625
-63.551541
-0.62181269
-76.636385
-92.452046
-7.3866716e-06
-0.0083054044
-2.3208889e-05
-0.011644474
-4.0658765e-05
-0.015360473
-5.9638096e-05
-0.01992724
-7.1955373e-05
-0.025689558
-0.0001777125
-0.032650008
-0.0004214917
-0.039296316
-0.00071371372
-0.047308329
-0.0010653463
-0.056455569
-0.0014866708
-0.067801772
-0.0019846571
-0.081062833
-0.0025838397
-0.097234381
-0.0033023273
-0.11635601
-0.0041682101
-0.13947331
-0.005184571
-0.16698636
-0.0063966803
-0.20009906
-0.0078357382
-0.23962144
-0.0095582966
-0.2870612
-0.011612793
-0.34375859
-0.014080095
-0.41167865
-0.017022682
-0.49287019
-0.020543147
-0.58997123
-0.024762098
-0.70591865
-0.029835418
-0.8442798
-0.035952527
-1.0091438
-0.043349165
-1.2053804
-0.0523029
-1.4387207
-0.063127635
-1.7160973
-0.076160055
-2.0459334
-0.091755958
-2.4385865
-0.11029713
-2.9067538
-0.13220521
-3.465961
-0.157956
-4.1351023
-0.1881003
-4.9371474
-0.22327372
-5.89969
-0.26435398
-7.0556515
-0.31197138
-8.4442277
-0.36656525
-10.114449
-0.42854112
-12.123964
-0.49829889
-14.54144
-0.57545142
-17.449131
-0.65855236
-20.949449
-0.74494539
-25.165672
-0.82969781
-30.246404
-0.90316301
-36.377964
-0.95029007
-43.796231
-0.94883658
-52.765158
-0.86471839
-63.639266
-0.64579624
-76.859502
-92.889105
-8.9945969e-06
-0.0082948642
-2.3410379e-05
-0.011630675
-3.8739615e-05
-0.015345914
-5.5315784e-05
-0.019911595
-6.4355962e-05
-0.025682012
-0.00017667312
-0.032539221
-0.00041303575
-0.039061429
-0.0006979202
-0.047025201
-0.0010351105
-0.056120422
-0.0014422543
-0.067397134
-0.0019230096
-0.080585029
-0.0024982108
-0.096662749
-0.0031852749
-0.11567322
-0.0040071283
-0.1386566
-0.0049808788
-0.16601878
-0.0061484583
-0.19893891
-0.0075378373
-0.23824101
-0.0092106876
-0.28539911
-0.011205755
-0.34177651
-0.013590388
-0.40930966
-0.016436883
-0.49004256
-0.019848679
-0.58658214
-0.0239434
-0.70185125
-0.028880036
-0.83937583
-0.03484954
-1.0032133
-0.042092351
-1.1981838
-0.050887158
-1.4299813
-0.061547706
-1.7055036
-0.074405424
-2.0331542
-0.089806501
-2.4232765
-0.10812214
-2.8885465
-0.12976005
-3.4444538
-0.15518344
-4.1098309
-0.1849292
-4.9075684
-0.21962434
-5.8651893
-0.26019271
-7.0153906
-0.30713577
-8.3976681
-0.36092638
-10.061083
-0.4220895
-12.063245
-0.49107625
-14.473007
-0.56744981
-17.373372
-0.64994472
-20.867757
-0.73609138
-25.080829
-0.82125113
-30.163582
-0.89604501
-36.307025
-0.9462903
-43.749403
-0.95047952
-52.764154
-0.87600698
-63.717148
-0.67253562
-77.066735
-93.301654
-9.5480779e-06
-0.0082858906
-2.2129845e-05
-0.011618678
-3.4757112e-05
-0.015334037
-4.8383254e-05
-0.019898865
-5.5564345e-05
-0.025676338
-0.00017515962
-0.032421063
-0.00040510438
-0.038832919
-0.00067730618
-0.046754711
-0.0010004167
-0.055799287
-0.001386835
-0.067013152
-0.0018485432
-0.080126189
-0.0023992371
-0.096115517
-0.0030586486
-0.11501795
-0.0038466447
-0.13787358
-0.004786368
-0.16508505
-0.0059194451
-0.19781305
-0.0072698613
-0.23689929
-0.0088856905
-0.28379374
-0.010811473
-0.33986331
-0.013116303
-0.40701996
-0.015871394
-0.4873057
-0.019177186
-0.58329828
-0.023154136
-0.69790064
-0.027961726
-0.83459968
-0.033795654
-0.99741695
-0.040898478
-1.1911255
-0.049551597
-1.4213816
-0.060067522
-1.6950522
-0.07277101
-2.0205263
-0.088000534
-2.4081345
-0.10611402
-2.870537
-0.12750806
-3.4231852
-0.15263525
-4.0848495
-0.18201987
-4.8783426
-0.21628427
-5.8311191
-0.25638381
-6.9755982
-0.30270984
-8.3517194
-0.3557967
-10.008404
-0.4162495
-12.003236
-0.48458182
-14.405221
-0.5603099
-17.298243
-0.64235987
-20.786529
-0.72845605
-24.996079
-0.81424075
-30.080247
-0.8905608
-36.234597
-0.94429641
-43.699138
-0.95446299
-52.75716
-0.88978976
-63.784945
-0.70216858
-77.257748
-93.689296
-1.067224e-05
-0.0082778241
-2.1008138e-05
-0.011608877
-2.9664829e-05
-0.015326136
-3.7240223e-05
-0.019892121
-3.8707315e-05
-0.025676488
-0.00015838011
-0.032302741
-0.00037680991
-0.038615853
-0.00063771631
-0.046495473
-0.0009486892
-0.055490232
-0.0013233737
-0.066640834
-0.0017662167
-0.079686115
-0.0023019659
-0.095583147
-0.0029363791
-0.11438757
-0.0037036546
-0.13711116
-0.0046148837
-0.16417966
-0.0057085593
-0.19672639
-0.0070101515
-0.23560614
-0.0085695939
-0.28224442
-0.010429446
-0.33801566
-0.01265698
-0.40480711
-0.01532286
-0.48465754
-0.01852869
-0.58011377
-0.022394709
-0.69406026
-0.027082431
-0.82994253
-0.032792583
-0.99174337
-0.039770513
-1.1841909
-0.048300225
-1.412904
-0.058691749
-1.6847235
-0.071263714
-2.0080276
-0.086343453
-2.3931395
-0.10428
-2.852701
-0.12545781
-3.4021284
-0.15031859
-4.0601289
-0.17937717
-4.8494357
-0.21328752
-5.7974086
-0.25294205
-6.9362441
-0.29871365
-8.3063158
-0.35118657
-9.9563209
-0.41102636
-11.943844
-0.47882671
-14.337954
-0.55405477
-17.2236
-0.63583297
-20.705594
-0.72207422
-24.911244
-0.8087206
-29.996171
-0.88676045
-36.160431
-0.94424178
-43.645153
-0.96078453
-52.743695
-0.90630297
-63.84225
-0.73482282
-77.432625
-94.051698
-1.0341961e-05
-0.0082719237
-1.6722828e-05
-0.011603016
-1.937519e-05
-0.015324206
-1.9170809e-05
-0.019893198
-1.7851369e-05
-0.025679295
-0.00014050239
-0.032181424
-0.00034884756
-0.038408818
-0.00060093944
-0.046245021
-0.00090003485
-0.055193001
-0.0012628554
-0.066280322
-0.0016931189
-0.079258562
-0.002218069
-0.095061493
-0.0028298412
-0.11377972
-0.0035685607
-0.13637716
-0.0044458603
-0.16330802
-0.0055012108
-0.19567784
-0.0067570743
-0.23435846
-0.0082632285
-0.28074807
-0.010059062
-0.33623161
-0.01221275
-0.40266756
-0.014794065
-0.48209326
-0.017904444
-0.57702385
-0.021666302
-0.69032297
-0.026244834
-0.82539323
-0.031843765
-0.98617937
-0.038713279
-1.1773627
-0.047139344
-1.4045278
-0.057427372
-1.6744958
-0.069889721
-1.9956354
-0.084843859
-2.3782664
-0.10262755
-2.8350134
-0.12361652
-3.3812551
-0.14824263
-4.0356362
-0.1770191
-4.820804
-0.21066154
-5.7639693
-0.2498851
-6.8973153
-0.29513948
-8.2614179
-0.3470755
-9.9047733
-0.40651259
-11.884862
-0.47383205
-14.271148
-0.54871341
-17.149304
-0.63039269
-20.624781
-0.71698883
-24.826128
-0.80471994
-29.911147
-0.88466622
-36.084237
-0.94611821
-43.587178
-0.96946102
-52.72346
-0.92567473
-63.88878
-0.77062802
-77.590609
-94.388242
-9.9477715e-06
-0.0082683042
-1.4045414e-05
-0.011599476
-1.3802562e-05
-0.015325198
-9.3384449e-06
-0.019898549
-1.0749666e-05
-0.025679338
-0.00013905315
-0.032054385
-0.00034148921
-0.038207659
-0.00058350856
-0.046004604
-0.00087211015
-0.054906217
-0.0012184509
-0.065936237
-0.001632274
-0.078847381
-0.0021345508
-0.094562418
-0.0027254802
-0.11319261
-0.0034393355
-0.13566788
-0.0042864397
-0.16246642
-0.0053051319
-0.19466574
-0.0065173807
-0.23315412
-0.0079713028
-0.27930362
-0.0097065378
-0.33450777
-0.011789102
-0.40059871
-0.014290266
-0.47960864
-0.017311221
-0.57402279
-0.020977114
-0.68668096
-0.025456555
-0.82094222
-0.030959195
-0.98071066
-0.037737916
-1.1706241
-0.046079274
-1.396235
-0.056286382
-1.6643474
-0.068661675
-1.983328
-0.08351388
-2.3634926
-0.10117039
-2.8174497
-0.12199814
-3.3605388
-0.14642135
-4.0113408
-0.17495035
-4.7924147
-0.20836501
-5.7307605
-0.24720863
-6.8587587
-0.2920296
-8.2169405
-0.34353691
-9.8536516
-0.40266327
-11.826192
-0.46963415
-14.204675
-0.54430877
-17.075207
-0.62607123
-20.543909
-0.71322685
-24.740537
-0.80230342
-29.824935
-0.88435673
-36.005691
-0.94996744
-43.524959
-0.98060602
-52.695971
-0.94804664
-63.923963
-0.80966137
-77.731011
-94.698281
-1.0853054e-05
-0.0082653276
-1.3542959e-05
-0.011597303
-1.0399399e-05
-0.015329043
8.5919689e-08
-0.019909904
-4.8367231e-06
-0.025675805
-0.00013648709
-0.031923927
-0.00033117599
-0.038014197
-0.0005666415
-0.045770706
-0.00084331503
-0.054631303
-0.0011803861
-0.065601364
-0.001577924
-0.078452403
-0.0020602779
-0.094083174
-0.0026308136
-0.11262577
-0.0033197984
-0.13498333
-0.0041367462
-0.16165478
-0.0051199422
-0.19368891
-0.0062904802
-0.23199123
-0.007694965
-0.2779083
-0.0093720246
-0.33284168
-0.011387117
-0.39859678
-0.013812523
-0.47719906
-0.016750403
-0.57110392
-0.020329005
-0.68312513
-0.024721711
-0.81657657
-0.030142281
-0.97532231
-0.036848558
-1.163956
-0.045126672
-1.3880031
-0.055274875
-1.6542552
-0.067586754
-1.9710807
-0.082360733
-2.3487934
-0.099915628
-2.7999833
-0.12061029
-3.3399503
-0.14486401
-3.9872083
-0.1731852
-4.7642303
-0.20640954
-5.697741
-0.2449264
-6.8205188
-0.28939617
-8.1728001
-0.34058937
-9.802855
-0.39949487
-11.767738
-0.46624929
-14.1384
-0.54088183
-17.001137
-0.62290397
-20.462804
-0.71083937
-24.654258
-0.80141077
-29.737363
-0.88593459
-35.924354
-0.95589123
-43.458223
-0.9940196
-52.660977
-0.97364874
-63.946933
-0.85217624
-77.854294
-94.98131
-1.0480474e-05
-0.0082642745
-1.0749216e-05
-0.01159754
-3.8566728e-06
-0.015336623
1.4229967e-05
-0.019928903
5.3319526e-06
-0.025668257
-0.00012869163
-0.031791059
-0.00031552321
-0.037828561
-0.0005430086
-0.045544751
-0.00081015877
-0.054365858
-0.0011364745
-0.06527717
-0.0015193582
-0.078071989
-0.0019849388
-0.093620586
-0.0025341392
-0.11208014
-0.0031985164
-0.13432322
-0.0039867206
-0.16087172
-0.0049361587
-0.19274561
-0.0060680185
-0.23086678
-0.0074258329
-0.27655931
-0.0090472773
-0.33123085
-0.01099831
-0.3966585
-0.013353765
-0.47485898
-0.016215314
-0.56826084
-0.019715903
-0.67964667
-0.02403375
-0.81228504
-0.029389487
-0.96999787
-0.036042378
-1.15734
-0.04427912
-1.3798113
-0.054391153
-1.6441974
-0.066663331
-1.958871
-0.081383644
-2.3341451
-0.098862144
-2.78259
-0.11945275
-3.3194617
-0.14357169
-3.9632053
-0.17175373
-4.7361846
-0.20479383
-5.6649014
-0.24303184
-6.7825483
-0.28720712
-8.1289476
-0.33830111
-9.7521611
-0.39702579
-11.70946
-0.46369366
-14.072195
-0.53844301
-16.926948
-0.62092309
-20.38127
-0.70985759
-24.567066
-0.80176526
-29.648452
-0.88954802
-35.839535
-0.96418907
-43.386525
-1.0097486
-52.618382
-1.0024767
-63.957645
-0.89820898
-77.9588
-95.236641
-1.109544e-05
-0.0082639513
-1.0167527e-05
-0.01159895
-9.4966123e-07
-0.015346488
2.3874341e-05
-0.019954627
7.9898884e-06
-0.02565363
-0.00012931784
-0.03165485
-0.00030987409
-0.037649139
-0.00052972246
-0.045326387
-0.00078773049
-0.05410948
-0.0011029784
-0.064963981
-0.0014715986
-0.077705741
-0.0019200729
-0.093175017
-0.0024489241
-0.11155472
-0.0030899226
-0.13368636
-0.0038515953
-0.16011499
-0.0047692046
-0.19183395
-0.0058590588
-0.22978407
-0.0071667224
-0.27526016
-0.0087329351
-0.3296748
-0.010624364
-0.39477925
-0.012916311
-0.47258168
-0.015716743
-0.56547798
-0.01915473
-0.67622969
-0.023412686
-0.80805201
-0.028720047
-0.96472007
-0.035340136
-1.1507548
-0.043557476
-1.3716365
-0.05365652
-1.6341498
-0.065911996
-1.9466746
-0.080602953
-2.3195226
-0.098031708
-2.7652424
-0.11854687
-3.2990433
-0.14256665
-3.9392956
-0.17070371
-4.7081826
-0.20354092
-5.6322586
-0.24159566
-6.7447519
-0.28554745
-8.0853191
-0.33663567
-9.7014744
-0.39528865
-11.651247
-0.46201432
-14.005915
-0.53704249
-16.852479
-0.62017871
-20.29911
-0.71034187
-24.478728
-0.80406732
-29.557678
-0.89526329
-35.75111
-0.97517519
-43.309306
-1.0288979
-52.567443
-1.0338307
-63.956265
-0.94796829
-78.043544
-95.463655
-1.1006996e-05
-0.0082651418
-8.3413166e-06
-0.011602149
3.4163029e-06
-0.015358929
3.6108689e-05
-0.019988225
1.3117233e-05
-0.02563186
-0.00012701548
-0.031515758
-0.00030067155
-0.037476581
-0.00051178942
-0.045116704
-0.00075965913
-0.053863231
-0.0010628301
-0.064662811
-0.0014169487
-0.077353958
-0.0018491713
-0.092745608
-0.0023587089
-0.11104853
-0.0029770633
-0.13307201
-0.0037116555
-0.15938521
-0.004595192
-0.19095617
-0.005640787
-0.22874538
-0.0068975085
-0.27401164
-0.0084122995
-0.32816982
-0.010249033
-0.39295431
-0.012484856
-0.47036006
-0.015234158
-0.56274577
-0.018629295
-0.67285496
-0.022846439
-0.80385914
-0.028124298
-0.9594709
-0.034732688
-1.1441803
-0.042953515
-1.363457
-0.053063437
-1.6240897
-0.065325895
-1.9344691
-0.080011539
-2.304903
-0.0974166
-2.7479157
-0.11788694
-3.2786659
-0.14184152
-3.9154463
-0.16995479
-4.6802029
-0.20263282
-5.599768
-0.24050659
-6.7071275
-0.28450922
-8.0416477
-0.33558571
-9.650796
-0.39429604
-11.592967
-0.46121537
-13.939428
-0.53669965
-16.777551
-0.62069356
-20.216126
-0.71232818
-24.38899
-0.80823126
-29.464666
-0.90309015
-35.658867
-0.98859273
-43.226313
-1.0509465
-52.507689
-1.0685093
-63.941718
-1.0016267
-78.108026
-95.661851
-1.0188245e-05
-0.0082683438
-5.3116568e-06
-0.01160752
9.2785984e-06
-0.015374119
5.0202668e-05
-0.020030094
2.0292197e-05
-0.02560303
-0.00012076248
-0.031375725
-0.00028685976
-0.037311567
-0.0004900341
-0.04491494
-0.00072817025
-0.053626678
-0.0010199398
-0.064372992
-0.0013611811
-0.077014992
-0.0017786973
-0.092330834
-0.0022706449
-0.11055984
-0.0028682886
-0.13247827
-0.0035733264
-0.15868484
-0.0044191111
-0.19011597
-0.0054282816
-0.22774287
-0.0066462684
-0.27280153
-0.0081164345
-0.32670903
-0.0099056186
-0.39117636
-0.012091228
-0.46818795
-0.014787987
-0.5600652
-0.018147373
-0.66951485
-0.02234602
-0.79968338
-0.027613398
-0.95423048
-0.034231569
-1.1375939
-0.04247953
-1.3552479
-0.052622824
-1.6139934
-0.064916525
-1.9222292
-0.079621292
-2.2902609
-0.097028943
-2.7305825
-0.11748537
-3.2582971
-0.14143213
-3.8915997
-0.16951807
-4.6522477
-0.20212526
-5.5673417
-0.23988975
-6.6696083
-0.28403351
-7.9978382
-0.33518695
-9.6000376
-0.39406955
-11.534505
-0.4613372
-13.872582
-0.53745211
-16.701995
-0.62252108
-20.132104
-0.71586751
-24.297606
-0.81424398
-29.369134
-0.91304867
-35.562539
-1.0043529
-43.137289
-1.0761128
-52.438314
-1.1066948
-63.913766
-1.0593014
-78.152236
-95.830615
-1.0875978e-05
-0.0082719899
-5.1644449e-06
-0.01161369
1.0558973e-05
-0.015390414
5.7693936e-05
-0.020078147
1.860992e-05
-0.02556496
-0.00011570234
-0.031242419
-0.00027624414
-0.037152056
-0.00047317044
-0.044719352
-0.00070288312
-0.053398471
-0.00098528136
-0.064092467
-0.0013147362
-0.076687731
-0.0017187244
-0.091929495
-0.0021946187
-0.11008711
-0.0027715785
-0.13190509
-0.0034492809
-0.15801168
-0.0042637132
-0.1893069
-0.0052420408
-0.22677096
-0.0064268158
-0.27162434
-0.0078586528
-0.32528627
-0.0096050976
-0.3894408
-0.011747463
-0.4660587
-0.014400544
-0.55742785
-0.017726884
-0.66620726
-0.021918139
-0.79551441
-0.027200103
-0.9489747
-0.033851169
-1.1309738
-0.042148479
-1.3469884
-0.052349751
-1.6038376
-0.064696955
-1.9099337
-0.07944556
-2.2755727
-0.096881927
-2.7132178
-0.11735629
-3.2379061
-0.14138133
-3.8676714
-0.16940699
-4.6243492
-0.20194901
-5.5349751
-0.23984029
-6.6319609
-0.28412734
-7.9538869
-0.33546418
-9.5490911
-0.39464599
-11.475735
-0.46241364
-13.805229
-0.5393436
-16.625644
-0.62569891
-20.046837
-0.72101374
-24.20431
-0.8221393
-29.270817
-0.92529081
-35.461768
-1.0228347
-43.04179
-1.1043157
-52.358817
-1.1484937
-63.872168
-1.1212244
-78.175595
-95.969397
-1.0809157e-05
-0.0082767649
-3.3798826e-06
-0.011621544
1.4267369e-05
-0.015408624
6.7680656e-05
-0.020132474
2.0590653e-05
-0.0255188
-0.00010799067
-0.031114747
-0.00026297705
-0.036998055
-0.00045369944
-0.044529929
-0.00067483421
-0.053178784
-0.000948079
-0.063821033
-0.0012660227
-0.076371902
-0.001656446
-0.091541632
-0.0021157253
-0.10963088
-0.00267025
-0.13135422
-0.0033248995
-0.15736138
-0.004116571
-0.18852042
-0.0050665696
-0.22582713
-0.006218248
-0.27047996
-0.0076156041
-0.32389759
-0.009325589
-0.38774117
-0.011432936
-0.46396378
-0.014056851
-0.55481878
-0.0173594
-0.66292238
-0.021556699
-0.791338
-0.026878516
-0.94367741
-0.033584641
-1.1242965
-0.041956156
-1.3386524
-0.052237535
-1.5935988
-0.064662251
-1.8975577
-0.079477632
-2.2608146
-0.09697121
-2.695792
-0.11750358
-3.2174517
-0.14160824
-3.8436603
-0.16965295
-4.5964277
-0.20216855
-5.5026307
-0.24031814
-6.5940544
-0.28480162
-7.909739
-0.33642351
-9.4978536
-0.39603768
-11.416519
-0.46446218
-13.737218
-0.54239608
-16.548324
-0.63027251
-19.960098
-0.72781231
-24.108846
-0.83197336
-29.169419
-0.93984162
-35.356196
-1.0443429
-42.939214
-1.1356076
-52.26941
-1.194058
-63.816208
-1.1874613
-78.177586
-96.077485
-1.1308849e-05
-0.0082820577
-2.698041e-06
-0.011630575
1.6773071e-05
-0.015428676
7.4824737e-05
-0.020191448
2.0374693e-05
-0.025465229
-0.00010756
-0.030987656
-0.00025669377
-0.036849857
-0.0004414541
-0.044346426
-0.00065449454
-0.05296714
-0.00091898728
-0.063558286
-0.0012259999
-0.076066931
-0.0016039672
-0.091166131
-0.0020457906
-0.109192
-0.0025798001
-0.13082373
-0.0032146827
-0.15673072
-0.0039843644
-0.1877557
-0.004908899
-0.22490853
-0.0060319235
-0.26936398
-0.0073988301
-0.32253909
-0.0090798631
-0.38607021
-0.011160748
-0.46189495
-0.013766804
-0.55222719
-0.017063902
-0.65964243
-0.0212812
-0.78714108
-0.02666015
-0.93832224
-0.033449539
-1.1175353
-0.041917445
-1.330219
-0.052302171
-1.5832552
-0.064826498
-1.8850803
-0.079733192
-2.2459634
-0.09731146
-2.6782786
-0.1179864
-3.1968511
-0.14213115
-3.8196061
-0.17017507
-4.5685037
-0.20292194
-5.4700512
-0.2413103
-6.5559093
-0.28607762
-7.8653064
-0.33810467
-9.4462039
-0.39827883
-11.35673
-0.46752022
-13.668392
-0.54666087
-16.469866
-0.63629149
-19.871663
-0.73632746
-24.010957
-0.84385479
-29.064572
-0.95679415
-35.245464
-1.0688845
-42.828972
-1.1701059
-52.169998
-1.2435688
-63.745257
-1.2583898
-78.157323
-96.154241
-1.157637e-05
-0.0082879986
-1.6475712e-06
-0.011640902
2.0316553e-05
-0.015451199
8.0999294e-05
-0.02025302
1.9635057e-05
-0.025404688
-0.00010376949
-0.030865116
-0.00024718008
-0.036707349
-0.00042621132
-0.044168609
-0.00063171196
-0.052762983
-0.00088795481
-0.063303732
-0.001184719
-0.075772133
-0.0015510577
-0.090802173
-0.0019778445
-0.10876805
-0.0024948959
-0.13031007
-0.0031115989
-0.15611804
-0.0038594713
-0.18701261
-0.004760758
-0.22401294
-0.0058588478
-0.26827263
-0.0072008444
-0.32120513
-0.0088538141
-0.38442681
-0.010912336
-0.45984783
-0.013512302
-0.54964083
-0.016831283
-0.65633952
-0.02108818
-0.78290321
-0.026540911
-0.93289162
-0.03344156
-1.1106609
-0.042029548
-1.3216632
-0.052539704
-1.5727837
-0.065185996
-1.8724784
-0.080214592
-2.2309875
-0.097950197
-2.6606036
-0.11872301
-3.1761488
-0.14294013
-3.7954764
-0.17107135
-4.5404888
-0.20413778
-5.4371493
-0.24281291
-6.5174776
-0.28797228
-7.8204799
-0.34051064
-9.394034
-0.40139448
-11.296214
-0.47162222
-13.598583
-0.55217227
-16.390033
-0.64378615
-19.781311
-0.7466108
-23.910362
-0.85785
-28.955891
-0.97619527
-35.129232
-1.0963454
-42.710637
-1.208114
-52.060051
-1.2971109
-63.658204
-1.3341192
-78.11458
-96.198921
-1.1600237e-05
-0.0082947521
9.5873069e-08
-0.011652957
2.552185e-05
-0.015477168
8.7615558e-05
-0.020315984
2.0663794e-05
-0.025338499
-9.898162e-05
-0.03074628
-0.0002372906
-0.036569902
-0.00041113465
-0.04399594
-0.00060970614
-0.052565706
-0.00085850028
-0.063056571
-0.0011461671
-0.075486368
-0.0014999561
-0.090450678
-0.0019132115
-0.10835753
-0.0024162946
-0.12981024
-0.0030163648
-0.15552187
-0.0037450497
-0.18628848
-0.0046264036
-0.22313706
-0.0057036832
-0.26720187
-0.0070217997
-0.3198948
-0.0086484856
-0.38280942
-0.01069211
-0.4578153
-0.013300129
-0.54704606
-0.016658207
-0.6529971
-0.020985615
-0.77859433
-0.026540619
-0.92735808
-0.033570579
-1.1036565
-0.042301054
-1.312964
-0.052958966
-1.5621631
-0.06575059
-1.85973
-0.080959227
-2.2158292
-0.09882825
-2.6427923
-0.11972486
-3.1553199
-0.14397305
-3.7713131
-0.17244704
-4.512128
-0.20579801
-5.403961
-0.24484492
-6.4786744
-0.29049036
-7.7751651
-0.34367723
-9.3412059
-0.40541292
-11.234827
-0.47680101
-13.527606
-0.55897062
-16.308597
-0.65281038
-19.688802
-0.7587022
-23.806774
-0.87389411
-28.843112
-0.9981456
-35.007025
-1.1265098
-42.583842
-1.2499783
-51.937844
-1.3548996
-63.554459
-1.4152084
-78.048239
-96.211001
-1.2692741e-05
-0.0083012113
-3.9891456e-08
-0.011665951
2.8764598e-05
-0.015506532
9.0596655e-05
-0.02037867
1.8644937e-05
-0.025267242
-9.8382191e-05
-0.030630044
-0.00023212791
-0.036436994
-0.00040120523
-0.043828009
-0.00059342481
-0.052374738
-0.00083540551
-0.062816171
-0.0011146527
-0.075208953
-0.0014577014
-0.090109837
-0.0018586521
-0.10795921
-0.0023486649
-0.12932335
-0.0029339813
-0.15494026
-0.0036461665
-0.18558071
-0.0045109618
-0.22227753
-0.0055680875
-0.26615098
-0.0068626408
-0.31860767
-0.0084770354
-0.38120383
-0.010526487
-0.45577631
-0.013157429
-0.54442754
-0.016564185
-0.64960496
-0.020983946
-0.77419178
-0.026665491
-0.92169636
-0.033842749
-1.0965029
-0.042742271
-1.3040938
-0.053568073
-1.5513724
-0.066563284
-1.8467753
-0.081922302
-2.2005174
-0.099941467
-2.6248276
-0.12090586
-3.1344202
-0.14546077
-3.7468405
-0.17423222
-4.4834665
-0.20794215
-5.3704124
-0.24744065
-6.4394197
-0.29367147
-7.7292615
-0.34762482
-9.2876001
-0.4103715
-11.172409
-0.48310443
-13.455264
-0.56710452
-16.225341
-0.66342013
-19.593884
-0.77201268
-23.70053
-0.89190458
-28.725432
-1.0226439
-34.878257
-1.1596012
-42.448395
-1.2959453
-51.80256
-1.4170787
-63.433377
-1.5015656
-77.957745
-96.189436
-1.2743221e-05
-0.0083083796
1.5953191e-06
-0.01168064
3.4823108e-05
-0.015540339
9.5473771e-05
-0.020440162
2.0252973e-05
-0.025192682
-9.3958501e-05
-0.030516598
-0.00022344738
-0.036308306
-0.00038839807
-0.04366417
-0.00057480668
-0.052189525
-0.00081023258
-0.06258227
-0.0010808298
-0.074940116
-0.0014148822
-0.089777912
-0.0018063828
-0.10757024
-0.0022843024
-0.12884844
-0.0028568667
-0.15437128
-0.0035545239
-0.18488727
-0.0044036113
-0.22143351
-0.0054414559
-0.26511917
-0.0067242146
-0.31733212
-0.0083434884
-0.37959312
-0.010412313
-0.45371768
-0.013083235
-0.54176872
-0.016557099
-0.64614539
-0.021081777
-0.76968385
-0.026903371
-0.91589401
-0.034255819
-1.0891734
-0.04334919
-1.2950288
-0.054379549
-1.5403765
-0.067566328
-1.8336274
-0.083096273
-2.1850324
-0.1012366
-2.6067395
-0.12244719
-3.1132729
-0.14732212
-3.7220453
-0.17643426
-4.4544618
-0.21056739
-5.3364401
-0.25061571
-6.3996149
-0.29753608
-7.6826646
-0.35237191
-9.2331006
-0.41628551
-11.108804
-0.49055824
-13.381361
-0.57662264
-16.140028
-0.67566792
-19.496296
-0.78741104
-23.591074
-0.91217569
-28.602688
-1.0499411
-34.742295
-1.1957582
-42.304035
-1.3463983
-51.653366
-1.4837865
-63.294447
-1.5932917
-77.842373
-96.133194
-1.4293279e-05
-0.0083146514
1.5934497e-07
-0.011695421
3.668588e-05
-0.015577428
9.3104302e-05
-0.020497384
1.4360991e-05
-0.025114579
-9.7957724e-05
-0.030405032
-0.00022380332
-0.036183227
-0.00038521542
-0.043503836
-0.00056659973
-0.052009305
-0.00079708428
-0.062353245
-0.0010600099
-0.074678908
-0.0013846475
-0.089455301
-0.0017673446
-0.10719
-0.0022347678
-0.12838389
-0.0027964948
-0.15381299
-0.0034831361
-0.18420471
-0.0043170979
-0.22060443
-0.0053424363
-0.2640996
-0.006626599
-0.31605482
-0.0082585812
-0.37796923
-0.010356368
-0.45162948
-0.013082917
-0.53905347
-0.016647775
-0.64259383
-0.021296131
-0.76505094
-0.027280233
-0.90992758
-0.034833091
-1.0816419
-0.044130832
-1.2857578
-0.055396621
-1.5291429
-0.068769007
-1.820291
-0.08448075
-2.1693625
-0.10280369
-2.5884671
-0.12435374
-3.0917834
-0.14955346
-3.6969228
-0.17906634
-4.4250542
-0.21370478
-5.3019623
-0.25438677
-6.3591757
-0.30210759
-7.6352618
-0.35796333
-9.1775689
-0.42320368
-11.043858
-0.49921088
-13.305727
-0.58757192
-16.052472
-0.68961855
-19.39576
-0.80510346
-23.477785
-0.93506246
-28.474489
-1.0802386
-34.598436
-1.2360293
-42.149705
-1.3996649
-51.4912
-1.5552686
-63.135392
-1.6906968
-77.701358
-96.041397
-1.3541139e-05
-0.0083222754
2.6432081e-06
-0.011711895
4.4403385e-05
-0.015619778
9.6249325e-05
-0.020550053
1.6611762e-05
-0.025035448
-9.2960806e-05
-0.030296262
-0.00021471947
-0.03606215
-0.00037268672
-0.043346931
-0.0005494388
-0.051833622
-0.00077536055
-0.062128747
-0.0010323908
-0.074423507
-0.0013493638
-0.089140297
-0.0017239024
-0.10681781
-0.0021824885
-0.12792808
-0.0027355667
-0.15326322
-0.0034129414
-0.18353124
-0.0042380132
-0.21978404
-0.0052606307
-0.26308257
-0.0065526951
-0.3147694
-0.0082038188
-0.37632598
-0.010339187
-0.44950345
-0.013134127
-0.53626959
-0.01681264
-0.63892833
-0.021616183
-0.76026247
-0.027793116
-0.90376775
-0.035559993
-1.0738958
-0.045093808
-1.2762502
-0.056581383
-1.5176863