/*--------------------------------*- C++ -*----------------------------------*\
  =========                 |
  \\      /  F ield         | OpenFOAM: The Open Source CFD Toolbox
   \\    /   O peration     | Website:  https://openfoam.org
    \\  /    A nd           | Version:  8
     \\/     M anipulation  |
\*---------------------------------------------------------------------------*/
FoamFile
{
    version     2.0;
    format      ascii;
    class       pointVectorField;
    location    "0.189994";
    object      pointDisplacement;
}
// * * * * * * * * * * * * * * * * * * * * * * * * * * * * * * * * * * * * * //

dimensions      [0 1 0 0 0 0 0];

internalField   nonuniform List<vector> 
40800
(
(-0.0026093847 0 -0.0020814005)
(-0.0026010231 0 -0.0017194896)
(-0.0026007039 0 -0.0017216314)
(-0.0026091897 0 -0.0020914329)
(-0.0026006746 0 -0.0017222305)
(-0.0026091657 0 -0.0020923621)
(-0.0026006099 0 -0.0017231317)
(-0.002609104 0 -0.0020934349)
(-0.00260049 0 -0.0017242548)
(-0.0026089887 0 -0.0020947634)
(-0.0026002907 0 -0.0017256581)
(-0.0026087961 0 -0.0020964076)
(-0.0025999789 0 -0.0017274192)
(-0.0026084936 0 -0.0020984522)
(-0.0025995089 0 -0.0017296405)
(-0.0026080365 0 -0.0021010081)
(-0.0025988182 0 -0.0017324579)
(-0.0026073634 0 -0.0021042217)
(-0.0025978222 0 -0.0017360543)
(-0.0026063911 0 -0.0021082879)
(-0.0025964071 0 -0.0017406766)
(-0.0026050077 0 -0.0021134671)
(-0.0025944204 0 -0.0017466604)
(-0.0026030632 0 -0.0021201088)
(-0.0025916603 0 -0.0017544632)
(-0.0026003585 0 -0.0021286839)
(-0.0025878611 0 -0.0017647106)
(-0.0025966317 0 -0.0021398284)
(-0.002582677 0 -0.0017782565)
(-0.0025915412 0 -0.0021544017)
(-0.0025756631 0 -0.001796265)
(-0.0025846471 0 -0.0021735658)
(-0.0025662555 0 -0.0018203164)
(-0.0025753909 0 -0.0021988875)
(-0.0025537516 0 -0.0018525409)
(-0.0025630747 0 -0.0022324667)
(-0.0025372949 0 -0.0018957882)
(-0.002546846 0 -0.0022771013)
(-0.0025158702 0 -0.0019538232)
(-0.00252569 0 -0.0023364739)
(-0.0024883168 0 -0.0020315307)
(-0.0024984409 0 -0.0024153448)
(-0.0024533708 0 -0.0021350894)
(-0.0024638205 0 -0.0025197191)
(-0.0024097473 0 -0.0022720382)
(-0.0024205164 0 -0.0026569081)
(-0.0023562638 0 -0.0024511241)
(-0.0023673026 0 -0.0028353801)
(-0.0022920077 0 -0.0026817665)
(-0.0023032068 0 -0.0030642391)
(-0.0022165147 0 -0.0029730313)
(-0.0022276936 0 -0.0033522266)
(-0.0021299335 0 -0.0033319768)
(-0.0021408427 0 -0.0037060848)
(-0.0020331072 0 -0.0037616885)
(-0.0020434458 0 -0.0041286259)
(-0.0019275756 0 -0.0042591626)
(-0.0019370319 0 -0.0046165829)
(-0.0018154373 0 -0.0048139305)
(-0.0018237394 0 -0.0051592347)
(-0.0016991748 0 -0.0054077132)
(-0.001706141 0 -0.0057380696)
(-0.0015814247 0 -0.0060158072)
(-0.0015869945 0 -0.0063282499)
(-0.0014647268 0 -0.0066100494)
(-0.0014689632 0 -0.0069016931)
(-0.0013513099 0 -0.0071626516)
(-0.0013543706 0 -0.007431025)
(-0.0012429347 0 -0.0076494797)
(-0.0012450338 0 -0.007892794)
(-0.0011407651 0 -0.0080527218)
(-0.0011421216 0 -0.0082701381)
(-0.0010453508 0 -0.0083617318)
(-0.0010461579 0 -0.008553386)
(-0.00095677065 0 -0.00857139)
(-0.00095718326 0 -0.008738205)
(-0.0008746829 0 -0.0086809459)
(-0.00087481478 0 -0.0088244197)
(-0.00079849446 0 -0.0086916989)
(-0.00079842573 0 -0.0088136801)
(-0.00072739398 0 -0.0086043165)
(-0.00072717582 0 -0.008706682)
(-0.00066044922 0 -0.0084175012)
(-0.00066011355 0 -0.0085020438)
(-0.00059670737 0 -0.008128635)
(-0.00059628654 0 -0.0081971384)
(-0.00053492298 0 -0.0077306018)
(-0.00053442481 0 -0.0077846103)
(-0.00047353658 0 -0.0072109499)
(-0.00047295239 0 -0.007251791)
(-0.00041119367 0 -0.0065541636)
(-0.00041054951 0 -0.0065833008)
(-0.00034594483 0 -0.0057359559)
(-0.00034524779 0 -0.005754722)
(-0.00027546929 0 -0.0047242794)
(-0.00027477664 0 -0.004734564)
(-0.00019669377 0 -0.0034718796)
(-0.00019608124 0 -0.0034759319)
(-0.0001047554 0 -0.0019012797)
(-0.00010430919 0 -0.0019015791)
(0 0 0)
(0 0 0)
(-0.0025914515 0 -0.0013653997)
(-0.0025911397 0 -0.0013675095)
(-0.0025911082 0 -0.0013679765)
(-0.0025910366 0 -0.0013685562)
(-0.0025909075 0 -0.001369291)
(-0.0025906965 0 -0.0013702322)
(-0.0025903696 0 -0.0013714469)
(-0.0025898801 0 -0.0013730257)
(-0.0025891642 0 -0.0013750918)
(-0.0025881359 0 -0.0013778132)
(-0.0025866792 0 -0.00138142)
(-0.0025846393 0 -0.0013862281)
(-0.0025818113 0 -0.0013926726)
(-0.0025779258 0 -0.0014013538)
(-0.0025726327 0 -0.0014130996)
(-0.0025654823 0 -0.0014290499)
(-0.0025559057 0 -0.0014507662)
(-0.0025431951 0 -0.0014803737)
(-0.0025264906 0 -0.0015207364)
(-0.0025047764 0 -0.0015756627)
(-0.0024768965 0 -0.0016501228)
(-0.0024416011 0 -0.0017504344)
(-0.0023976319 0 -0.0018843398)
(-0.0023438493 0 -0.0020608556)
(-0.002279399 0 -0.0022897349)
(-0.0022038872 0 -0.0025804192)
(-0.0021175322 0 -0.0029403786)
(-0.0020212308 0 -0.0033731075)
(-0.0019165373 0 -0.003876034)
(-0.0018055172 0 -0.0044391237)
(-0.0016905723 0 -0.0050444931)
(-0.0015742251 0 -0.0056677163)
(-0.0014588988 0 -0.0062806503)
(-0.0013467263 0 -0.0068551789)
(-0.0012394085 0 -0.0073665216)
(-0.0011380923 0 -0.0077959434)
(-0.0010433469 0 -0.0081317431)
(-0.00095527998 0 -0.0083679194)
(-0.00087358792 0 -0.0085029968)
(-0.0007977078 0 -0.0085377739)
(-0.0007268565 0 -0.0084727257)
(-0.0006601214 0 -0.0083065577)
(-0.00059655087 0 -0.008036577)
(-0.00053491768 0 -0.0076558114)
(-0.00047368902 0 -0.0071520573)
(-0.0004114775 0 -0.006509665)
(-0.0003463403 0 -0.0057044235)
(-0.00027592839 0 -0.0047039091)
(-0.00019712948 0 -0.0034604238)
(-0.00010510081 0 -0.0018966727)
(0 0 0)
(-0.0025806968 0 -0.0010189682)
(-0.002580392 0 -0.0010209319)
(-0.0025803535 0 -0.001021156)
(-0.0025802729 0 -0.0010214472)
(-0.0025801324 0 -0.0010218392)
(-0.0025799069 0 -0.0010223706)
(-0.0025795613 0 -0.001023095)
(-0.002579048 0 -0.0010240881)
(-0.0025783018 0 -0.0010254566)
(-0.0025772346 0 -0.0010273503)
(-0.0025757285 0 -0.0010299796)
(-0.0025736258 0 -0.0010336398)
(-0.0025707181 0 -0.0010387445)
(-0.0025667321 0 -0.0010458721)
(-0.002561313 0 -0.0010558291)
(-0.0025540057 0 -0.0010697358)
(-0.0025442357 0 -0.0010891403)
(-0.0025312901 0 -0.001116165)
(-0.0025143052 0 -0.0011536907)
(-0.0024922648 0 -0.0012055726)
(-0.0024640189 0 -0.0012768694)
(-0.0024283333 0 -0.0013740409)
(-0.002383979 0 -0.001505034)
(-0.0023298631 0 -0.001679132)
(-0.0022651947 0 -0.0019064073)
(-0.0021896554 0 -0.0021966511)
(-0.0021035372 0 -0.0025577006)
(-0.0020077932 0 -0.0029934057)
(-0.0019039929 0 -0.0035015672)
(-0.0017941676 0 -0.0040725338)
(-0.0016806358 0 -0.0046887895)
(-0.0015658026 0 -0.005326193)
(-0.0014519697 0 -0.0059566734)
(-0.0013411683 0 -0.0065518747)
(-0.0012350337 0 -0.0070864703)
(-0.00113469 0 -0.0075408981)
(-0.0010407206 0 -0.0079024775)
(-0.00095326078 0 -0.0081643507)
(-0.00087204437 0 -0.0083243214)
(-0.00079654001 0 -0.0083826711)
(-0.00072599408 0 -0.0083396444)
(-0.00065951536 0 -0.0081939112)
(-0.00059615663 0 -0.007942694)
(-0.00053470901 0 -0.0075791366)
(-0.0004736655 0 -0.0070912566)
(-0.00041161142 0 -0.0064632941)
(-0.00034660929 0 -0.0056711037)
(-0.0002762852 0 -0.0046819343)
(-0.00019749126 0 -0.0034476999)
(-0.00010540186 0 -0.0018913232)
(0 0 0)
(-0.0025687997 0 -0.00068003558)
(-0.0025685003 0 -0.00068184928)
(-0.0025684525 0 -0.00068182819)
(-0.0025683604 0 -0.00068182772)
(-0.0025682054 0 -0.00068187317)
(-0.0025679615 0 -0.0006819929)
(-0.002567593 0 -0.00068222895)
(-0.0025670508 0 -0.00068264317)
(-0.002566268 0 -0.00068332617)
(-0.0025651549 0 -0.00068440961)
(-0.0025635907 0 -0.00068608366)
(-0.0025614148 0 -0.00068862175)
(-0.0025584152 0 -0.00069241443)
(-0.0025543139 0 -0.00069801697)
(-0.0025487509 0 -0.00070621407)
(-0.0025412655 0 -0.00071810812)
(-0.0025312769 0 -0.00073523593)
(-0.0025180668 0 -0.00075972098)
(-0.0025007676 0 -0.00079446527)
(-0.002478363 0 -0.00084337538)
(-0.0024497098 0 -0.00091160376)
(-0.0024135915 0 -0.0010057576)
(-0.0023688117 0 -0.0011339913)
(-0.0023143282 0 -0.001305852)
(-0.0022494183 0 -0.0015317171)
(-0.002173844 0 -0.0018216993)
(-0.0020879755 0 -0.0021839573)
(-0.0019928237 0 -0.0026226418)
(-0.0018899737 0 -0.0031358675)
(-0.0017814204 0 -0.0037143143)
(-0.0016693959 0 -0.0043408064)
(-0.0015561846 0 -0.0049914917)
(-0.0014439619 0 -0.0056384186)
(-0.0013346529 0 -0.0062530733)
(-0.0012298219 0 -0.0068096787)
(-0.0011305651 0 -0.0072879388)
(-0.0010374756 0 -0.0076742705)
(-0.00095071439 0 -0.0079609903)
(-0.00087005215 0 -0.0081451901)
(-0.0007949902 0 -0.0082266217)
(-0.00072480552 0 -0.0082052668)
(-0.00065862987 0 -0.0080797227)
(-0.00059552341 0 -0.0078471167)
(-0.00053429582 0 -0.0075006823)
(-0.00047346528 0 -0.0070286317)
(-0.00041159487 0 -0.006415116)
(-0.00034675145 0 -0.0056360467)
(-0.00027653963 0 -0.0046583923)
(-0.00019777891 0 -0.0034337305)
(-0.00010565867 0 -0.0018852408)
(0 0 0)
(-0.0025557985 0 -0.0003484451)
(-0.0025555008 0 -0.00035011063)
(-0.0025554419 0 -0.00034984573)
(-0.0025553356 0 -0.0003495551)
(-0.0025551631 0 -0.00034925551)
(-0.0025548973 0 -0.00034896538)
(-0.0025545014 0 -0.00034871527)
(-0.0025539248 0 -0.00034855376)
(-0.0025530991 0 -0.00034855615)
(-0.0025519322 0 -0.0003488367)
(-0.0025503008 0 -0.00034956614)
(-0.0025480408 0 -0.00035099644)
(-0.0025449361 0 -0.00035349547)
(-0.0025407039 0 -0.00035759555)
(-0.0025349785 0 -0.00036405964)
(-0.002527293 0 -0.00037397232)
(-0.0025170599 0 -0.00038886053)
(-0.0025035549 0 -0.00041085144)
(-0.0024859066 0 -0.00044287199)
(-0.002463099 0 -0.00048888591)
(-0.002433997 0 -0.00055414631)
(-0.0023974038 0 -0.00064541467)
(-0.0023521588 0 -0.00077105702)
(-0.0022972747 0 -0.00094088182)
(-0.0022321025 0 -0.0011655564)
(-0.0021564889 0 -0.0014554865)
(-0.0020708862 0 -0.0018191059)
(-0.0019763645 0 -0.002260812)
(-0.0018745231 0 -0.0027789747)
(-0.0017673184 0 -0.003364555)
(-0.0016568924 0 -0.0040006882)
(-0.0015454057 0 -0.0046638139)
(-0.0014349038 0 -0.0053261407)
(-0.0013272014 0 -0.0059590717)
(-0.0012237878 0 -0.0065364701)
(-0.0011257267 0 -0.0070373973)
(-0.0010336167 0 -0.007447443)
(-0.00094764284 0 -0.0077581352)
(-0.00086761153 0 -0.007965867)
(-0.00079305757 0 -0.0080698534)
(-0.00072328953 0 -0.0080697842)
(-0.00065746348 0 -0.0079641506)
(-0.00059464963 0 -0.0077499726)
(-0.00053367664 0 -0.0074205491)
(-0.00047308724 0 -0.0069642621)
(-0.00041142686 0 -0.006365191)
(-0.00034676613 0 -0.005599298)
(-0.00027669116 0 -0.0046333145)
(-0.00019799197 0 -0.0034185342)
(-0.00010587129 0 -0.0018784354)
(0 0 0)
(-0.002541721 0 -2.4044394e-05)
(-0.0025414255 0 -2.5563212e-05)
(-0.0025413533 0 -2.5055623e-05)
(-0.0025412305 0 -2.4476261e-05)
(-0.0025410374 0 -2.3833456e-05)
(-0.0025407461 0 -2.3135679e-05)
(-0.0025403184 0 -2.2402068e-05)
(-0.0025397023 0 -2.1668111e-05)
(-0.0025388274 0 -2.0994188e-05)
(-0.0025375992 0 -2.0477512e-05)
(-0.0025358913 0 -2.0269871e-05)
(-0.0025335361 0 -2.0602576e-05)
(-0.002530313 0 -2.182151e-05)
(-0.0025259339 0 -2.4436668e-05)
(-0.002520027 0 -2.919e-05)
(-0.0025121185 0 -3.7149125e-05)
(-0.002501614 0 -4.9832398e-05)
(-0.002487783 0 -6.9373094e-05)
(-0.00246975 0 -9.8727526e-05)
(-0.0024465 0 -0.00014192284)
(-0.0024169072 0 -0.00020432112)
(-0.0023797971 0 -0.00029284618)
(-0.0023340484 0 -0.00041608083)
(-0.0022787331 0 -0.00058409204)
(-0.0022132805 0 -0.00080782134)
(-0.0021376271 0 -0.001097937)
(-0.0020523103 0 -0.0014631021)
(-0.0019584596 0 -0.0019079065)
(-0.0018576871 0 -0.0024309175)
(-0.0017519072 0 -0.0030233281)
(-0.0016431681 0 -0.0036685565)
(-0.0015335037 0 -0.0043433343)
(-0.0014248266 0 -0.0050200656)
(-0.001318838 0 -0.0056701389)
(-0.0012169489 0 -0.0062671426)
(-0.0011201865 0 -0.0067895832)
(-0.0010291512 0 -0.0072222989)
(-0.00094405001 0 -0.0075560701)
(-0.00086472415 0 -0.0077866088)
(-0.0007907424 0 -0.0079125893)
(-0.00072144559 0 -0.0079333859)
(-0.00065601532 0 -0.0078473528)
(-0.00059353417 0 -0.0076513899)
(-0.00053285027 0 -0.0073388389)
(-0.00047253045 0 -0.0068982281)
(-0.00041110656 0 -0.0063135805)
(-0.00034665273 0 -0.005560904)
(-0.00027673945 0 -0.0046067349)
(-0.00019813019 0 -0.0034021337)
(-0.00010603977 0 -0.0018709174)
(0 0 0)
(-0.0025266003 0 0.00029331513)
(-0.0025263065 0 0.00029194279)
(-0.0025262189 0 0.0002926929)
(-0.0025260771 0 0.00029356068)
(-0.0025258604 0 0.00029454604)
(-0.00252554 0 0.00029565022)
(-0.0025250762 0 0.00029686536)
(-0.0025244153 0 0.00029816894)
(-0.0025234848 0 0.00029951531)
(-0.0025221875 0 0.00030082401)
(-0.0025203939 0 0.00030196188)
(-0.0025179323 0 0.0003027179)
(-0.0025145771 0 0.00030276766)
(-0.0025100346 0 0.00030162286)
(-0.0025039265 0 0.00029856166)
(-0.0024957714 0 0.00029253214)
(-0.0024849678 0 0.0002820228)
(-0.0024707784 0 0.00026489152)
(-0.0024523241 0 0.00023814744)
(-0.0024285916 0 0.00019769184)
(-0.0023984662 0 0.00013804412)
(-0.0023607978 0 5.2109311e-05)
(-0.0023145083 0 -6.8917745e-05)
(-0.0022587337 0 -0.00023535943)
(-0.0021929863 0 -0.00045841379)
(-0.0021172967 0 -0.00074897971)
(-0.00203229 0 -0.0011159035)
(-0.0019391549 0 -0.001563913)
(-0.0018395135 0 -0.002091717)
(-0.0017352343 0 -0.0026906932)
(-0.001628268 0 -0.003344515)
(-0.0015205189 0 -0.0040302055)
(-0.0014137641 0 -0.0047203948)
(-0.0013095894 0 -0.0053865185)
(-0.0012093249 0 -0.0060019705)
(-0.0011139583 0 -0.0065447862)
(-0.0010240879 0 -0.0069991266)
(-0.00093994113 0 -0.0073550688)
(-0.00086139287 0 -0.0076076646)
(-0.0007880459 0 -0.0077550487)
(-0.00071927395 0 -0.0077962597)
(-0.00065428505 0 -0.0077294867)
(-0.00059217629 0 -0.007551497)
(-0.0005318158 0 -0.0072556543)
(-0.00047179415 0 -0.0068306114)
(-0.00041063326 0 -0.0062603468)
(-0.00034641072 0 -0.0055209122)
(-0.00027668411 0 -0.0045786874)
(-0.0001981932 0 -0.0033845494)
(-0.00010616415 0 -0.001862697)
(0 0 0)
(-0.0025104711 0 0.00060378082)
(-0.0025101778 0 0.00060255349)
(-0.0025100727 0 0.00060354511)
(-0.0025099093 0 0.00060469993)
(-0.0025096659 0 0.00060602631)
(-0.0025093126 0 0.00060753516)
(-0.0025088081 0 0.00060922988)
(-0.0025080968 0 0.00061110075)
(-0.002507104 0 0.00061311676)
(-0.0025057296 0 0.0006152138)
(-0.0025038404 0 0.00061727697)
(-0.0025012604 0 0.00061911519)
(-0.0024977589 0 0.00062042498)
(-0.0024930359 0 0.00062073905)
(-0.0024867058 0 0.00061935498)
(-0.0024782797 0 0.0006152355)
(-0.002467148 0 0.00060687407)
(-0.0024525668 0 0.00059211601)
(-0.0024336537 0 0.00056792912)
(-0.0024093982 0 0.00053013287)
(-0.0023786982 0 0.00047311729)
(-0.0023404311 0 0.00038960768)
(-0.0022935657 0 0.0002705704)
(-0.0022373066 0 0.00010543153)
(-0.002171254 0 -0.00011724299)
(-0.0020955365 0 -0.00040854894)
(-0.0020108691 0 -0.00077746951)
(-0.0019184982 0 -0.0012288169)
(-0.0018200522 0 -0.0017613863)
(-0.0017173497 0 -0.0023666961)
(-0.0016122396 0 -0.0030286487)
(-0.0015064938 0 -0.0037245569)
(-0.0014017525 0 -0.0044273038)
(-0.0012994847 0 -0.005108428)
(-0.001200938 0 -0.0057412039)
(-0.0011070577 0 -0.0063032745)
(-0.0010184375 0 -0.0067781971)
(-0.00093532312 0 -0.0071553914)
(-0.00085762175 0 -0.0074292744)
(-0.00078497023 0 -0.0075974447)
(-0.00071677554 0 -0.0076585895)
(-0.00065227287 0 -0.007610708)
(-0.00059057568 0 -0.007450422)
(-0.00053057265 0 -0.0071710983)
(-0.0004708778 0 -0.0067614938)
(-0.00041000636 0 -0.0062055532)
(-0.00034603964 0 -0.0054793707)
(-0.00027652473 0 -0.0045492059)
(-0.00019818073 0 -0.0033658042)
(-0.00010624443 0 -0.0018537851)
(0 0 0)
(-0.0024933678 0 0.00090749575)
(-0.0024930722 0 0.00090641222)
(-0.0024929474 0 0.00090764464)
(-0.0024927596 0 0.00090908569)
(-0.0024924862 0 0.00091075208)
(-0.0024920959 0 0.00091266433)
(-0.0024915459 0 0.00091483687)
(-0.0024907785 0 0.00091727279)
(-0.0024897164 0 0.00091995567)
(-0.0024882563 0 0.00092283763)
(-0.0024862612 0 0.00092582182)
(-0.0024835505 0 0.00092873682)
(-0.0024798877 0 0.0009312997)
(-0.0024749662 0 0.00093306377)
(-0.0024683927 0 0.00093334543)
(-0.0024596699 0 0.0009311212)
(-0.0024481799 0 0.00092488745)
(-0.0024331724 0 0.0009124726)
(-0.002413762 0 0.00089079352)
(-0.0023889426 0 0.00085557416)
(-0.0023576267 0 0.00080106349)
(-0.0023187216 0 0.00071979991)
(-0.0022712475 0 0.00060251505)
(-0.0022144824 0 0.00043838845)
(-0.0021481187 0 0.00021577458)
(-0.0020723869 0 -7.6584062e-05)
(-0.0019880929 0 -0.00044776162)
(-0.0018965388 0 -0.00090260075)
(-0.0017993553 0 -0.0014399313)
(-0.0016983053 0 -0.0020513704)
(-0.0015951321 0 -0.0027210252)
(-0.001491473 0 -0.0034264968)
(-0.0013888301 0 -0.0041409446)
(-0.0012885551 0 -0.0048360604)
(-0.0011918122 0 -0.0054850684)
(-0.0010995025 0 -0.0060652951)
(-0.0010122124 0 -0.0065597636)
(-0.00093020418 0 -0.0069572851)
(-0.00085341602 0 -0.0072516688)
(-0.00078151852 0 -0.0074399844)
(-0.00071395204 0 -0.007520556)
(-0.00064997957 0 -0.0074911709)
(-0.00058873244 0 -0.0073482927)
(-0.00052912052 0 -0.0070852742)
(-0.00046978098 0 -0.0066909581)
(-0.00040922539 0 -0.0061492635)
(-0.0003455391 0 -0.0054363284)
(-0.00027626097 0 -0.0045183254)
(-0.00019809242 0 -0.0033459199)
(-0.00010628064 0 -0.001844193)
(0 0 0)
(-0.0024753172 0 0.0012045994)
(-0.0024750182 0 0.0012036586)
(-0.0024748714 0 0.0012051311)
(-0.0024746565 0 0.0012068575)
(-0.00247435 0 0.0012088629)
(-0.0024739188 0 0.0012111774)
(-0.0024733184 0 0.0012138265)
(-0.0024724891 0 0.0012168257)
(-0.0024713505 0 0.0012201733)
(-0.0024697962 0 0.0012238376)
(-0.0024676849 0 0.0012277396)
(-0.0024648309 0 0.0012317273)
(-0.0024609915 0 0.0012355382)
(-0.0024558528 0 0.0012387461)
(-0.0024490134 0 0.0012406862)
(-0.002439967 0 0.0012403481)
(-0.0024280872 0 0.0012362293)
(-0.0024126171 0 0.0012261366)
(-0.0023926702 0 0.0012069207)
(-0.0023672464 0 0.0011741907)
(-0.002335274 0 0.0011220449)
(-0.0022956935 0 0.0010428321)
(-0.0022475809 0 0.00092704109)
(-0.0021902924 0 0.00076361103)
(-0.0021236165 0 0.00054071541)
(-0.0020478894 0 0.00024697086)
(-0.0019640087 0 -0.00012674238)
(-0.0018733285 0 -0.00058524427)
(-0.0017774766 0 -0.0011273493)
(-0.001678155 0 -0.001744736)
(-0.001576997 0 -0.0024216941)
(-0.0014755031 0 -0.0031361115)
(-0.0013750371 0 -0.0038614444)
(-0.0012768336 0 -0.004569583)
(-0.0011819735 0 -0.0052337657)
(-0.0010913122 0 -0.0058310729)
(-0.0010054266 0 -0.0063440615)
(-0.00092459397 0 -0.0067609825)
(-0.0008487821 0 -0.0070750676)
(-0.00077769483 0 -0.0072828676)
(-0.00071080591 0 -0.0073823353)
(-0.00064740647 0 -0.0073710268)
(-0.00058664712 0 -0.0072452356)
(-0.0005274594 0 -0.0069982852)
(-0.00046850356 0 -0.0066190872)
(-0.00040829004 0 -0.0060915425)
(-0.00034490875 0 -0.0053918348)
(-0.00027589256 0 -0.0044860826)
(-0.000197928 0 -0.00332492)
(-0.00010627272 0 -0.0018339313)
(0 0 0)
(-0.0024563458 0 0.0014952283)
(-0.0024560451 0 0.00149443)
(-0.002455874 0 0.0014961426)
(-0.0024556293 0 0.0014981546)
(-0.0024552861 0 0.0015004989)
(-0.00245481 0 0.0015032153)
(-0.0024541544 0 0.0015063401)
(-0.0024532571 0 0.0015099015)
(-0.0024520349 0 0.001513912)
(-0.0024503776 0 0.0015183562)
(-0.0024481393 0 0.001523173)
(-0.0024451288 0 0.0015282298)
(-0.0024410969 0 0.0015332849)
(-0.0024357216 0 0.001537933)
(-0.0024285927 0 0.0015415285)
(-0.0024191942 0 0.001543075)
(-0.0024068912 0 0.0015410688)
(-0.0023909205 0 0.0015332912)
(-0.0023703972 0 0.0015164999)
(-0.0023443293 0 0.0014861599)
(-0.0023116618 0 0.0014362194)
(-0.0022713703 0 0.0013588439)
(-0.0022225929 0 0.0012442656)
(-0.0021647684 0 0.0010811889)
(-0.0020977846 0 0.00085764719)
(-0.0020220873 0 0.00056216588)
(-0.0019386654 0 0.0001856232)
(-0.0018489205 0 -0.00027672505)
(-0.001754472 0 -0.00082363126)
(-0.0016569546 0 -0.0014468017)
(-0.0015578873 0 -0.0021306891)
(-0.0014586323 0 -0.0028534679)
(-0.0013604153 0 -0.0035889084)
(-0.0012643549 0 -0.0043091399)
(-0.0011714495 0 -0.0049874747)
(-0.0010825077 0 -0.0056008119)
(-0.00099809554 0 -0.0061313076)
(-0.00091850339 0 -0.0065667016)
(-0.00084372745 0 -0.0068996797)
(-0.00077350405 0 -0.0071262868)
(-0.00070734024 0 -0.0072440986)
(-0.00064455544 0 -0.0072504242)
(-0.00058432063 0 -0.0071413758)
(-0.00052558964 0 -0.0069102342)
(-0.00046704556 0 -0.0065459646)
(-0.00040720009 0 -0.0060324557)
(-0.00034414836 0 -0.0053459403)
(-0.0002754192 0 -0.0044525135)
(-0.00019768718 0 -0.0033028281)
(-0.00010622074 0 -0.0018230129)
(0 0 0)
(-0.0024364914 0 0.0017795174)
(-0.0024361827 0 0.0017788601)
(-0.0024359849 0 0.0017808126)
(-0.0024357074 0 0.0017831095)
(-0.0024353241 0 0.0017857922)
(-0.0024347988 0 0.0017889097)
(-0.0024340828 0 0.0017925093)
(-0.0024331112 0 0.0017966318)
(-0.0024317979 0 0.0018013038)
(-0.0024300283 0 0.0018065261)
(-0.0024276519 0 0.0018122556)
(-0.0024244712 0 0.0018183793)
(-0.0024202299 0 0.0018246768)
(-0.0024145974 0 0.0018307648)
(-0.0024071536 0 0.0018360189)
(-0.0023973724 0 0.0018394609)
(-0.0023846101 0 0.0018395777)
(-0.0023680981 0 0.001834135)
(-0.0023469585 0 0.0018197384)
(-0.00232021 0 0.0017916589)
(-0.0022868109 0 0.001743735)
(-0.0022457749 0 0.0016679662)
(-0.0021963103 0 0.0015542961)
(-0.0021379428 0 0.0013911996)
(-0.0020706612 0 0.001166628)
(-0.0019950251 0 0.0008690451)
(-0.0019121136 0 0.00048936772)
(-0.0018233702 0 2.2981085e-05)
(-0.0017303988 0 -0.00052876145)
(-0.0016347611 0 -0.001157565)
(-0.0015378572 0 -0.0018480289)
(-0.00144091 0 -0.0025786143)
(-0.0013450078 0 -0.0033234208)
(-0.0012511551 0 -0.0040548527)
(-0.001160269 0 -0.0047463514)
(-0.0010731114 0 -0.0053746954)
(-0.00099023577 0 -0.0059217006)
(-0.00091194442 0 -0.0063746454)
(-0.00083826043 0 -0.0067257027)
(-0.0007689519 0 -0.0069704254)
(-0.00070355877 0 -0.0071060113)
(-0.00064142883 0 -0.0071295081)
(-0.0005817543 0 -0.0070368367)
(-0.00052351181 0 -0.0068212232)
(-0.00046540719 0 -0.0064716733)
(-0.00040595549 0 -0.0059720688)
(-0.00034325773 0 -0.0052986957)
(-0.00027484071 0 -0.0044176561)
(-0.00019736969 0 -0.0032796686)
(-0.0001061246 0 -0.001811449)
(0 0 0)
(-0.0024157708 0 0.0020575967)
(-0.0024154579 0 0.0020570804)
(-0.002415231 0 0.0020592725)
(-0.0024149179 0 0.0020618542)
(-0.002414491 0 0.0020648747)
(-0.0024139122 0 0.0020683925)
(-0.0024131307 0 0.0020724656)
(-0.0024120787 0 0.0020771476)
(-0.0024106665 0 0.0020824794)
(-0.0024087753 0 0.0020884779)
(-0.0024062491 0 0.0020951181)
(-0.002402884 0 0.0021023072)
(-0.0023984156 0 0.0021098461)
(-0.002392504 0 0.0021173752)
(-0.0023847179 0 0.0021242966)
(-0.0023745191 0 0.002129671)
(-0.0023612597 0 0.0021319213)
(-0.0023441783 0 0.0021286628)
(-0.0023224018 0 0.0021164224)
(-0.0022949451 0 0.0020903936)
(-0.0022607795 0 0.0020442796)
(-0.0022189654 0 0.0019699119)
(-0.0021687776 0 0.0018570386)
(-0.0021098495 0 0.0016937086)
(-0.0020422861 0 0.0014677074)
(-0.0019667491 0 0.0011676481)
(-0.001884406 0 0.00078452304)
(-0.0017967345 0 0.0003139023)
(-0.0017053163 0 -0.0002427156)
(-0.0016116332 0 -0.00087701075)
(-0.0015169624 0 -0.0015737153)
(-0.0014223868 0 -0.0023115788)
(-0.0013288588 0 -0.0030650432)
(-0.0012372714 0 -0.0038068193)
(-0.0011484623 0 -0.0045105289)
(-0.0010631468 0 -0.0051528848)
(-0.00098186513 0 -0.0057154204)
(-0.00090493016 0 -0.0061850013)
(-0.00083239046 0 -0.0065533216)
(-0.00076404488 0 -0.0068154584)
(-0.00069946592 0 -0.0069682326)
(-0.00063802952 0 -0.0070084196)
(-0.00057894985 0 -0.0069317392)
(-0.00052122682 0 -0.0067313536)
(-0.00046358889 0 -0.0063962965)
(-0.0004045563 0 -0.0059104479)
(-0.00034223676 0 -0.0052501526)
(-0.00027415682 0 -0.0043815477)
(-0.00019697532 0 -0.0032554667)
(-0.00010598429 0 -0.001799252)
(0 0 0)
(-0.0023942204 0 0.0023295955)
(-0.0023939 0 0.0023292185)
(-0.0023936415 0 0.0023316493)
(-0.0023932899 0 0.0023345142)
(-0.0023928157 0 0.0023378711)
(-0.002392179 0 0.0023417878)
(-0.0023913265 0 0.0023463335)
(-0.0023901874 0 0.002351574)
(-0.0023886681 0 0.0023575646)
(-0.0023866452 0 0.0023643382)
(-0.0023839569 0 0.0023718877)
(-0.0023803922 0 0.0023801399)
(-0.0023756782 0 0.0023889171)
(-0.0023694645 0 0.0023978817)
(-0.0023613078 0 0.0024064567)
(-0.0023506615 0 0.0024137221)
(-0.0023368861 0 0.0024179863)
(-0.0023192299 0 0.0024166133)
(-0.0022968001 0 0.0024061808)
(-0.0022686003 0 0.0023819621)
(-0.0022336292 0 0.0023374612)
(-0.002190997 0 0.0022643012)
(-0.0021400456 0 0.0021521599)
(-0.0020805328 0 0.0019885918)
(-0.0020127003 0 0.0017609251)
(-0.0019373074 0 0.0014580083)
(-0.001855597 0 0.0010711179)
(-0.0017690722 0 0.000596068)
(-0.0016792849 0 3.4536286e-05)
(-0.0015876305 0 -0.00060511401)
(-0.0014952594 0 -0.0013077369)
(-0.0014031141 0 -0.0020523734)
(-0.0013120134 0 -0.0028138186)
(-0.0012227416 0 -0.0035651175)
(-0.0011360604 0 -0.0042801197)
(-0.0010526384 0 -0.0049355219)
(-0.00097300238 0 -0.0055126291)
(-0.00089747457 0 -0.0059979414)
(-0.00082612763 0 -0.0063827094)
(-0.00075879019 0 -0.0066615514)
(-0.00069506663 0 -0.0068309151)
(-0.00063436084 0 -0.0068872953)
(-0.00057590937 0 -0.0068262018)
(-0.00051873585 0 -0.0066407252)
(-0.00046159126 0 -0.006319917)
(-0.00040300274 0 -0.0058476596)
(-0.00034108541 0 -0.005200363)
(-0.00027336745 0 -0.0043442278)
(-0.00019650383 0 -0.0032302481)
(-0.0001057998 0 -0.0017864354)
(0 0 0)
(-0.0023718677 0 0.0025956388)
(-0.0023715357 0 0.0025954006)
(-0.0023712431 0 0.0025980699)
(-0.0023708496 0 0.0026012181)
(-0.0023703243 0 0.0026049111)
(-0.002369625 0 0.0026092262)
(-0.0023686958 0 0.0026142434)
(-0.0023674626 0 0.002620041)
(-0.0023658276 0 0.0026266885)
(-0.0023636626 0 0.0026342349)
(-0.0023607995 0 0.002642691)
(-0.0023570197 0 0.0026520035)
(-0.0023520409 0 0.002662016)
(-0.0023455018 0 0.0026724136)
(-0.0023369473 0 0.0026826349)
(-0.0023258394 0 0.0026916228)
(-0.0023115462 0 0.0026976065)
(-0.0022932927 0 0.0026979854)
(-0.002270164 0 0.002689297)
(-0.0022411735 0 0.002666748)
(-0.002205353 0 0.0026236854)
(-0.0021618658 0 0.0025514983)
(-0.00211014 0 0.0024396811)
(-0.0020500317 0 0.0022757271)
(-0.0019819396 0 0.0020463185)
(-0.0019067498 0 0.0017401549)
(-0.0018257431 0 0.0013491803)
(-0.0017404437 0 0.00086951129)
(-0.0016523664 0 0.00030303206)
(-0.0015628138 0 -0.0003418384)
(-0.0014728053 0 -0.0010500678)
(-0.0013831438 0 -0.001800993)
(-0.0012945169 0 -0.0025697708)
(-0.0012076045 0 -0.0033298047)
(-0.0011230949 0 -0.0040552157)
(-0.0010416115 0 -0.0047227288)
(-0.00096366712 0 -0.0053134708)
(-0.0008895924 0 -0.0058136229)
(-0.00081948286 0 -0.0062140269)
(-0.00075319564 0 -0.0065088603)
(-0.00069036644 0 -0.0066942048)
(-0.00063042658 0 -0.0067662674)
(-0.00057263528 0 -0.0067203404)
(-0.00051604034 0 -0.0065494367)
(-0.00045941513 0 -0.006242617)
(-0.00040129512 0 -0.0057837707)
(-0.00033980376 0 -0.0051493799)
(-0.00027247245 0 -0.0043057354)
(-0.00019595502 0 -0.0032040393)
(-0.00010557104 0 -0.0017730116)
(0 0 0)
(-0.0023487288 0 0.0028558492)
(-0.002348388 0 0.0028557491)
(-0.0023480586 0 0.0028586567)
(-0.0023476201 0 0.0028620879)
(-0.0023470398 0 0.0028661166)
(-0.0023462732 0 0.0028708295)
(-0.0023452615 0 0.0028763173)
(-0.0023439272 0 0.0028826707)
(-0.0023421681 0 0.0028899734)
(-0.0023398504 0 0.0028982905)
(-0.0023367995 0 0.0029076506)
(-0.0023327884 0 0.002918021)
(-0.0023275245 0 0.002929269)
(-0.0023206342 0 0.0029411103)
(-0.0023116631 0 0.0029529354)
(-0.002300088 0 0.0029634958)
(-0.0022852565 0 0.0029710382)
(-0.0022663586 0 0.0029731274)
(-0.0022424797 0 0.00296618)
(-0.0022126518 0 0.0029452102)
(-0.0021759397 0 0.0029034197)
(-0.0021315693 0 0.0028319494)
(-0.0020790657 0 0.0027199893)
(-0.0020183794 0 0.0025551584)
(-0.0019500597 0 0.0023237716)
(-0.0018751289 0 0.0020141167)
(-0.001794903 0 0.0016187399)
(-0.0017109112 0 0.0011342716)
(-0.001624624 0 0.00056281998)
(-0.0015372446 0 -8.7134127e-05)
(-0.0014496579 0 -0.00080066572)
(-0.0013625283 0 -0.0015574138)
(-0.0012764154 0 -0.0023329036)
(-0.001191899 0 -0.0031009165)
(-0.0011095983 0 -0.0038358872)
(-0.0010300922 0 -0.0045146067)
(-0.00095387962 0 -0.0051180712)
(-0.00088129918 0 -0.0056321867)
(-0.00081246776 0 -0.0060474214)
(-0.00074726971 0 -0.0063575311)
(-0.00068537139 0 -0.0065582397)
(-0.00062623097 0 -0.006645463)
(-0.00056913038 0 -0.0066142673)
(-0.00051314202 0 -0.006457585)
(-0.00045706151 0 -0.0061644785)
(-0.00039943396 0 -0.0057188482)
(-0.00033839194 0 -0.0050972562)
(-0.00027147176 0 -0.0042661107)
(-0.00019532871 0 -0.0031768672)
(-0.00010529805 0 -0.0017589954)
(0 0 0)
(-0.0023248354 0 0.0031103467)
(-0.0023244807 0 0.0031103837)
(-0.0023241118 0 0.0031135295)
(-0.0023236251 0 0.0031172434)
(-0.0023229858 0 0.0031216073)
(-0.002322147 0 0.0031267172)
(-0.002321047 0 0.0031326744)
(-0.0023196044 0 0.003139582)
(-0.0023177124 0 0.0031475374)
(-0.0023152314 0 0.0031566214)
(-0.0023119794 0 0.00316688)
(-0.0023077207 0 0.0031782989)
(-0.0023021516 0 0.0031907651)
(-0.0022948906 0 0.0032040137)
(-0.0022854959 0 0.0032173132)
(-0.0022734357 0 0.003229379)
(-0.0022580226 0 0.0032385243)
(-0.0022384347 0 0.0032422759)
(-0.0022137613 0 0.0032369665)
(-0.0021830503 0 0.0032174591)
(-0.0021454057 0 0.0031767719)
(-0.0021001274 0 0.0031057583)
(-0.0020468408 0 0.0029933055)
(-0.0019856218 0 0.0028269232)
(-0.0019171199 0 0.0025931571)
(-0.0018424941 0 0.0022799141)
(-0.0017631369 0 0.0018798243)
(-0.0016805378 0 0.0013903914)
(-0.0015961215 0 0.000813955)
(-0.0015109847 0 0.00015905803)
(-0.0014258747 0 -0.00055947664)
(-0.0013413196 0 -0.0013215982)
(-0.0012577546 0 -0.0021032046)
(-0.0011756642 0 -0.0028784716)
(-0.0010956031 0 -0.0036221868)
(-0.0010181066 0 -0.0043112398)
(-0.00094366064 0 -0.0049265393)
(-0.00087261091 0 -0.0054537589)
(-0.00080509437 0 -0.0058830285)
(-0.00074102131 0 -0.0062076997)
(-0.00068008793 0 -0.006423151)
(-0.00062177857 0 -0.0065250038)
(-0.00056539775 0 -0.0065080918)
(-0.00051004285 0 -0.0063652653)
(-0.00045453157 0 -0.0060855823)
(-0.00039741984 0 -0.005652959)
(-0.00033685019 0 -0.0050440461)
(-0.0002703654 0 -0.0042253953)
(-0.00019462475 0 -0.0031487597)
(-0.00010498068 0 -0.0017443991)
(0 0 0)
(-0.0023002041 0 0.0033592478)
(-0.0022998372 0 0.0033594217)
(-0.002299426 0 0.0033628055)
(-0.0022988877 0 0.0033668017)
(-0.0022981854 0 0.0033715002)
(-0.0022972696 0 0.0033770062)
(-0.0022960753 0 0.0033834317)
(-0.002294517 0 0.0033908917)
(-0.0022924831 0 0.0033994975)
(-0.0022898276 0 0.0034093449)
(-0.002286361 0 0.0034204971)
(-0.0022818381 0 0.0034329583)
(-0.0022759439 0 0.0034466361)
(-0.0022683009 0 0.0034612006)