/*--------------------------------*- C++ -*----------------------------------*\
  =========                 |
  \\      /  F ield         | OpenFOAM: The Open Source CFD Toolbox
   \\    /   O peration     | Website:  https://openfoam.org
    \\  /    A nd           | Version:  8
     \\/     M anipulation  |
\*---------------------------------------------------------------------------*/
FoamFile
{
    version     2.0;
    format      ascii;
    class       volScalarField;
    location    "0.189994";
    object      rho;
}
// * * * * * * * * * * * * * * * * * * * * * * * * * * * * * * * * * * * * * //

dimensions      [1 -3 0 0 0 0 0];

internalField   nonuniform List<scalar> 
20000
(
0.97745352
0.9785097
0.98122435
0.98682657
0.99766341
1.0190291
1.0294782
1.0313081
1.0304055
1.0315653
1.0314469
1.0326984
1.0332488
1.0348363
1.0360987
1.0382564
1.0403738
1.0433275
1.0465058
1.0505649
1.0553186
1.0611125
1.0675762
1.0750149
1.0831936
1.0921695
1.1016859
1.1114827
1.1211779
1.1304222
1.1388864
1.1463513
1.1526852
1.1578824
1.1619756
1.1650492
1.1672228
1.1685905
1.1693135
1.1695701
1.1695875
1.1693856
1.1688669
1.168103
1.1667676
1.1647054
1.1634655
1.1627841
1.1625774
1.1637179
0.97529422
0.97650608
0.97937363
0.98528791
0.99665439
1.0187467
1.0277533
1.0296158
1.0287866
1.0300379
1.029972
1.0312943
1.0318893
1.0335397
1.0348504
1.0370665
1.0392344
1.0422679
1.0455702
1.0498701
1.0548634
1.0608467
1.0675414
1.0750833
1.0834974
1.0926717
1.1023646
1.1122862
1.1220432
1.1312781
1.1396739
1.1470273
1.1532312
1.1582999
1.1622815
1.1652688
1.1673867
1.1686891
1.1693512
1.1695707
1.1695912
1.1693606
1.1688317
1.1680429
1.166624
1.1646271
1.1633381
1.1627613
1.162541
1.1637898
0.97403292
0.97538092
0.97846882
0.98477517
0.99685658
1.0193294
1.0266805
1.0284084
1.0275491
1.0288214
1.028749
1.0301063
1.0307314
1.0324321
1.0337803
1.0360512
1.0382868
1.0414638
1.0450504
1.049601
1.0547567
1.0608415
1.0676116
1.0753952
1.0840112
1.0933957
1.1032627
1.1133003
1.1231027
1.1323069
1.1406089
1.1478245
1.1538722
1.158789
1.1626385
1.165527
1.167574
1.1688023
1.1693884
1.1695667
1.1695859
1.1693371
1.1687876
1.1679642
1.166433
1.1643892
1.1632198
1.1626211
1.1624826
1.1639397
0.97273883
0.97422173
0.97750519
0.98419706
0.99707439
1.0196874
1.0256137
1.0272971
1.026433
1.0277684
1.0277019
1.0291119
1.0297848
1.0315394
1.032933
1.035306
1.0377421
1.0411405
1.0448663
1.0495305
1.0547439
1.0609275
1.0679592
1.0759623
1.0848151
1.094409
1.1044436
1.1145813
1.124404
1.1335477
1.141724
1.1487713
1.1546358
1.159377
1.1630728
1.1658509
1.1677991
1.1689327
1.1694419
1.1695814
1.1695871
1.1693162
1.1687461
1.1678785
1.1662259
1.1642499
1.1630955
1.1625556
1.1624284
1.1640501
0.97181043
0.97343088
0.97691668
0.98400692
0.99779737
1.0202649
1.024836
1.0264909
1.0256036
1.0269788
1.0269354
1.0283826
1.0290918
1.0309218
1.0324505
1.0349885
1.0375388
1.0410298
1.0448346
1.0495506
1.0549276
1.0613196
1.0685586
1.0768052
1.0858899
1.0956928
1.1058853
1.1161049
1.1259222
1.1349751
1.1429943
1.1498442
1.1554996
1.1600424
1.1635635
1.1662234
1.1680508
1.1690769
1.1695036
1.1696114
1.1695927
1.1692976
1.1687025
1.1677798
1.1660004
1.1640821
1.1629856
1.1624725
1.162375
1.1641595
0.97104538
0.97283
0.97651482
0.98399642
0.99881039
1.0208742
1.0242066
1.0258693
1.0249848
1.0264057
1.0264477
1.0279882
1.0287307
1.0306667
1.0322699
1.0348822
1.037497
1.0410321
1.0449231
1.0498106
1.0553674
1.0619591
1.0694424
1.0779313
1.0872558
1.0972635
1.1076012
1.1178806
1.1276628
1.1365919
1.1444213
1.1510442
1.1564653
1.1607863
1.1641138
1.1666478
1.1683313
1.169236
1.1695743
1.1696559
1.1696051
1.1692811
1.1686585
1.1676694
1.1657634
1.1639304
1.1628871
1.1624094
1.162326
1.1642472
0.97052457
0.97245587
0.97633606
0.9841981
1.000135
1.0215284
1.0237795
1.0254688
1.0246735
1.026139
1.0262216
1.0278091
1.0285946
1.0305914
1.0322323
1.0348799
1.0375538
1.0412175
1.0452669
1.0503115
1.0560692
1.0628849
1.0706096
1.0793499
1.0889136
1.0991198
1.1095864
1.1199001
1.1296149
1.1383858
1.1459924
1.1523596
1.1575216
1.1615981
1.1647209
1.1671142
1.1686344
1.1694072
1.1696617
1.1697135
1.1696238
1.1692661
1.168612
1.167545
1.1655126
1.1637735
1.1627991
1.1623526
1.162283
1.1643212
0.97025438
0.9723524
0.97643788
0.98467296
1.0018226
1.0223324
1.0235684
1.0253604
1.0245295
1.0260678
1.0261238
1.0277736
1.0285685
1.0306009
1.0323017
1.0350547
1.037853
1.0416413
1.0458449
1.0510737
1.0570427
1.0640894
1.0720702
1.0810659
1.090869
1.1012641
1.1118397
1.1221585
1.131771
1.1403478
1.1476988
1.1537821
1.15866
1.1624708
1.1653911
1.1676135
1.1689548
1.1695873
1.1697652
1.1697812
1.1696479
1.1692529
1.1685614
1.1674044
1.1652536
1.1636172
1.1627166
1.1623116
1.1622582
1.1643821
0.97018794
0.97245953
0.97676538
0.98535828
1.0037592
1.0231305
1.0235001
1.0252778
1.0244731
1.0260047
1.0261086
1.0277991
1.0286889
1.0308173
1.0326066
1.0354576
1.0383721
1.0423031
1.0466795
1.0520986
1.0582928
1.0655841
1.0738278
1.083084
1.0931234
1.1036948
1.1143556
1.1246468
1.1341198
1.1424659
1.1495286
1.1553002
1.159869
1.1633967
1.1661217
1.1681379
1.1692862
1.1697729
1.1698894
1.1698555
1.169677
1.1692405
1.1685041
1.1672434
1.1649949
1.163457
1.162634
1.1622803
1.1622519
1.164438
0.97023916
0.97270603
0.97725547
0.98620609
1.0058604
1.023898
1.0235829
1.0254548
1.0246311
1.0262496
1.0263443
1.0280949
1.0290523
1.0312526
1.0331249
1.0360847
1.0391309
1.0432114
1.0477694
1.0533933
1.0598245
1.0673706
1.0758865
1.0854059
1.0956764
1.1064077
1.1171261
1.1273539
1.1366484
1.1447268
1.1514688
1.156901
1.1611367
1.1643724
1.1669026
1.1686811
1.1696236
1.1699721
1.1700291
1.1699368
1.1697109
1.1692281
1.1684375
1.1670578
1.1647489
1.1632987
1.1625492
1.1622519
1.1622514
1.1644956
0.97053172
0.97320289
0.97801844
0.98733686
1.0081785
1.0247381
1.023883
1.0258161
1.0250168
1.0267046
1.0267938
1.0286114
1.0296133
1.031898
1.0338653
1.036941
1.0401272
1.0443692
1.0491221
1.0549618
1.0616423
1.069454
1.078249
1.088033
1.0985263
1.1093974
1.1201419
1.1302673
1.1393429
1.1471161
1.1535051
1.1585701
1.1624528
1.1654003
1.167719
1.1692327
1.1699618
1.1701899
1.1701791
1.1700238
1.1697475
1.1692148
1.1683593
1.1668455
1.1645268
1.1631481
1.1624609
1.1622184
1.1622545
1.1645607
0.97097793
0.97386906
0.97899149
0.988723
1.0106241
1.0256131
1.0243634
1.0263161
1.0255777
1.0272732
1.0274362
1.0293091
1.0303796
1.0327568
1.0348285
1.0380304
1.0413686
1.0457817
1.0507405
1.0568077
1.0637489
1.0718359
1.080916
1.0909635
1.101668
1.1126546
1.1233899
1.1333717
1.1421868
1.149617
1.1556207
1.1602922
1.1638098
1.1664848
1.1685488
1.1697829
1.1703018
1.1704319
1.1703338
1.170116
1.1697862
1.1691993
1.168268
1.1666092
1.1643338
1.1630096
1.1623676
1.1621718
1.1622999
1.1646369
0.97165039
0.97476954
0.98023249
0.99044074
1.0131969
1.0265848
1.0250365
1.0270142
1.0262985
1.0280553
1.0282595
1.0302139
1.0313592
1.0338374
1.0360231
1.0393585
1.0428578
1.0474516
1.0526278
1.0589338
1.0661468
1.0745185
1.0838881
1.0941957
1.105096
1.1161698
1.126857
1.1366514
1.1451627
1.1522114
1.1577981
1.1620545
1.1652052
1.1676172
1.1693735
1.1703241
1.1706559
1.170686
1.1704934
1.1702127
1.1698279
1.1691807
1.1681636
1.1663678
1.164156
1.162886
1.1622824
1.1621045
1.1623897
1.1647261
0.97246447
0.97582394
0.98166561
0.9924518
1.0157998
1.0276271
1.0258662
1.0278977
1.0272089
1.0290073
1.0292987
1.0313353
1.0325626
1.0351465
1.0374524
1.0409275
1.0445969
1.0493806
1.054785
1.0613408
1.0688366
1.0775012
1.0871635
1.0977245
1.1088012
1.1199296
1.1305263
1.1400872
1.14825
1.1548785
1.1600198
1.1638472
1.16664
1.1687689
1.170183
1.1708527
1.1710369
1.1709428
1.170656
1.1703129
1.1698727
1.1691579
1.1680465
1.166124
1.1639888
1.1627749
1.1622073
1.1620413
1.1625198
1.1648273
0.97348557
0.97708771
0.98333977
0.99483665
1.0184574
1.0287875
1.0269036
1.0290064
1.0283327
1.0302166
1.03056
1.0326807
1.0339916
1.0366837
1.0391158
1.0427367
1.0465854
1.0515686
1.0572127
1.06403
1.0718191
1.0807844
1.0907403
1.1015453
1.1127746
1.1239206
1.1343809
1.1436592
1.1514269
1.1575983
1.1622719
1.1656663
1.1681126
1.1699084
1.1709684
1.1713872
1.1714295
1.1711998
1.1708202
1.1704153
1.1699195
1.1691299
1.1679177
1.1658773
1.1638301
1.1626785
1.1621527
1.1620184
1.1626863
1.1649383
0.97475417
0.97858947
0.9852669
0.99763145
1.0211667
1.0301224
1.0281659
1.0303336
1.0296738
1.0316383
1.0320362
1.0342415
1.0356403
1.0384447
1.0410102
1.0447845
1.0488223
1.0540151
1.0599106
1.0670008
1.0750936
1.084366
1.0946141
1.1056497
1.1170035
1.1281256
1.1383996
1.1473428
1.1546692
1.1603526
1.1645445
1.1675087
1.1696025
1.1710112
1.1717263
1.1719438
1.1718209
1.1714548
1.1709842
1.1705176
1.1699654
1.1690956
1.1677774
1.165626
1.1636804
1.1626004
1.162115
1.1620071
1.1628817
1.1650554
0.97619556
0.98026395
0.98737877
1.0007897
1.023854
1.031697
1.0296191
1.0318536
1.0312184
1.0332599
1.0337156
1.0360102
1.0375031
1.0404258
1.0431334
1.0470688
1.0513066
1.05672
1.0628791
1.0702542
1.0786606
1.0882453
1.0987814
1.1100302
1.1214755
1.1325276
1.1425606
1.1511133
1.157956
1.16313
1.166833
1.1693669
1.1710676
1.1720718
1.1724779
1.1725085
1.1722061
1.1717057
1.1711467
1.1706171
1.170004
1.1690528
1.1676238
1.165371
1.1635388
1.1625384
1.162099
1.1620062
1.1631002
1.1651745
0.97784228
0.98214132
0.98969545
1.004328
1.0265671
1.0333158
1.0312504
1.0335595
1.0329635
1.0350751
1.0355942
1.037983
1.0395774
1.0426246
1.0454833
1.0495886
1.0540374
1.0596826
1.066118
1.0737898
1.082519
1.092419
1.1032357
1.1146755
1.1261745
1.1371047
1.1468371
1.1549447
1.1612712
1.165924
1.16913
1.1712159
1.1724767
1.1730894
1.1732431
1.1730633
1.1725821
1.1719512
1.1713067
1.1707118
1.1700226
1.1689987
1.1674525
1.1651156
1.1634041
1.1624856
1.1620932
1.1620096
1.163342
1.1652927
0.97965285
0.98418195
0.99218036
1.0082019
1.0292687
1.0350994
1.0330738
1.0354488
1.0348925
1.0370826
1.0376704
1.0401585
1.0418614
1.0450392
1.0480586
1.0523424
1.0570142
1.0629037
1.0696283
1.0776087
1.0866689
1.0968856
1.1079716
1.1195756
1.131084
1.1418343
1.1512028
1.1588173
1.164608
1.1687284
1.1714155
1.1730099
1.1738251
1.1740928
1.1740021
1.1736028
1.1729465
1.1721902
1.1714639
1.170802
1.1700306
1.1689299
1.1672551
1.1648649
1.1632761
1.1624388
1.1620933
1.1620164
1.1636057
1.1654076
0.98163532
0.98640496
0.99485445
1.0123853
1.0319689
1.0371239
1.0350844
1.0375235
1.0370117
1.0392821
1.0399432
1.0425347
1.044353
1.0476679
1.0508578
1.0553304
1.0602376
1.0663839
1.0734105
1.0817108
1.0911087
1.1016402
1.1129804
1.1247159
1.1361827
1.1466885
1.1556306
1.1627181
1.1679617
1.1715198
1.1736435
1.1747327
1.1751247
1.1750924
1.1747378
1.1741231
1.1732971
1.1724214
1.1716184
1.1708902
1.1700325
1.1688432
1.16702
1.1646273
1.1631577
1.1624046
1.1621024
1.1620543
1.1638783
1.1655169
0.98380363
0.98882508
0.99774545
1.0168933
1.0346851
1.0392936
1.0372745
1.0397806
1.0393159
1.0416701
1.0424093
1.0451088
1.0470506
1.0505097
1.0538812
1.0585528
1.0637086
1.0701247
1.0774664
1.0860972
1.0958379
1.1066796
1.118254
1.1300822
1.1414487
1.1516404
1.1601006
1.1666439
1.1713168
1.1742492
1.1757885
1.1763831
1.1764094
1.1760581
1.1754475
1.1746212
1.1736321
1.1726441
1.1717701
1.1709795
1.1700319
1.168737
1.1667425
1.164415
1.1630519
1.1623924
1.1621448
1.1621308
1.1641525
1.1656242
0.98611791
0.99141251
1.0008409
1.0216156
1.0374122
1.0416395
1.0396421
1.042217
1.0418016
1.0442433
1.0450661
1.0478792
1.0499536
1.0535649
1.0571297
1.0620115
1.0674288
1.0741277
1.0817967
1.0907678
1.1008542
1.111998
1.1237811
1.1356551
1.1468544
1.1566614
1.1646004
1.170587
1.1746204
1.1768848
1.1778392
1.1779982
1.1776495
1.1769884
1.1761259
1.1750949
1.17395
1.1728569
1.1719181
1.1710713
1.1700307
1.1686127
1.1664492
1.1642254
1.1629611
1.1623892
1.1621975
1.1622709
1.1644205
1.1657297
0.98862271
0.9942066
1.0041886
1.0265372
1.0401836
1.0441498
1.0421795
1.0448257
1.0444651
1.0469995
1.0479138
1.0508469
1.0530636
1.0568354
1.0606051
1.0657082
1.0714002
1.078395
1.0864036
1.0957238
1.106157
1.1175908
1.1295505
1.1414144
1.1523728
1.1617306
1.1691275
1.1745126
1.177829
1.1794027
1.1798272
1.1795624
1.1788389
1.177876
1.1767705
1.1755424
1.1742499
1.173059
1.1720599
1.1711641
1.1700203
1.1684725
1.1661545
1.1640642
1.1628895
1.1623911
1.162227
1.1625098
1.1646768
1.1658318
0.99123123
0.99712287
1.0077406
1.0315441
1.0429725
1.0468188
1.0448845
1.0476107
1.0473098
1.0499428
1.0509551
1.0540136
1.0563825
1.0603227
1.0643092
1.0696448
1.0756244
1.0829283
1.0912884
1.1009652
1.1117433
1.1234499
1.135546
1.1473342
1.1579746
1.1668333
1.1736732
1.1783595
1.1809045
1.1818171
1.1817638
1.1810558
1.179971
1.1787184
1.1773786
1.1759623
1.1745311
1.1732496
1.1721915
1.1712459
1.169997
1.1683156
1.1658622
1.1639316
1.162861
1.1623948
1.1622607
1.1628308
1.1649163
1.1659291
0.99405328
1.0002557
1.0116103
1.0366339
1.0458545
1.0496739
1.0477734
1.0505782
1.0503393
1.0530735
1.0541907
1.0573802
1.0599112
1.064028
1.068243
1.0738226
1.0801038
1.0877308
1.096454
1.106494
1.1176119
1.1295678
1.1417502
1.153388
1.1636364
1.1719648
1.1781933
1.1820817
1.1838282
1.1841719
1.1836142
1.1824762
1.1810426
1.1795124
1.1779484
1.1763535
1.1747934
1.1734286
1.1723102
1.1712836
1.1699571
1.1681326
1.1655779
1.1638095
1.1628511
1.1624245
1.1623213
1.1631918
1.1651366
1.1660218
0.99703658
1.0035377
1.0157553
1.041693
1.0488572
1.0526902
1.0508288
1.0537202
1.0535494
1.0563907
1.0576208
1.0609471
1.0636505
1.0679521
1.0724078
1.0782441
1.0848412
1.0928058
1.1019033
1.1123104
1.1237585
1.135932
1.1481394
1.159546
1.1693387
1.1771173
1.1826207
1.1856394
1.1866392
1.1864403
1.1853733
1.1838173
1.1820507
1.180256
1.1784788
1.1767155
1.1750364
1.1735966
1.1724182
1.1713007
1.1698956
1.1679053
1.1653188
1.1636935
1.1628515
1.1624792
1.1624023
1.163601
1.1653487
1.1661119
1.0001909
1.0069778
1.0202055
1.0467824
1.052027
1.0558851
1.0540624
1.0570434
1.0569433
1.0598952
1.0612457
1.0647143
1.0676003
1.0720955
1.0768051
1.082912
1.0898414
1.0981584
1.1076403
1.1184162
1.1301795
1.1425292
1.1546896
1.1657826
1.175072
1.1822515
1.1869008
1.1890135
1.1893776
1.1885948
1.1870338
1.1850771
1.1829934
1.1809478
1.1789688
1.1770479
1.17526
1.173754
1.1725227
1.1713055
1.169808
1.1676173
1.1651079
1.1636155
1.1628626
1.1625718
1.1625154
1.1640021
1.1655549
1.1662003
1.0035881
1.0106293
1.0249963
1.0518847
1.05533
1.0592472
1.0574665
1.0605396
1.0605166
1.0635839
1.0650641
1.0686804
1.0717604
1.0764594
1.0814381
1.0878322
1.0951102
1.1037941
1.1136686
1.124811
1.1368668
1.1493398
1.1613714
1.1720744
1.1808287
1.1872946
1.1909915
1.1922527
1.1920016
1.1906319
1.1885925
1.1862531
1.1838693
1.181587
1.1794183
1.1773508
1.1754638
1.1738998
1.172629
1.171306
1.1696907
1.1672834
1.1649332
1.1635849
1.1629212
1.1627021
1.1626854
1.1643897
1.1657536
1.1662866
1.0071762
1.0144454
1.0300947
1.0569506
1.058779
1.0627709
1.0610348
1.0642085
1.0642693
1.0674565
1.0690749
1.0728453
1.0761323
1.0810481
1.0863134
1.093012
1.1006553
1.1097195
1.1199926
1.1314948
1.1438115
1.1563423
1.1681584
1.1784058
1.1865859
1.192178
1.1948669
1.1953972
1.1944848
1.1925451
1.190047
1.1873443
1.1846777
1.1821733
1.1798273
1.1776248
1.1756483
1.1740327
1.1727293
1.1713047
1.1695391
1.1669263
1.1647748
1.1635761
1.1630059
1.1628456
1.1629521
1.1647566
1.1659417
1.1663701
1.0109684
1.0184201
1.0354913
1.0619873
1.0623756
1.0664631
1.0647745
1.0680509
1.0682012
1.0715105
1.0732773
1.0772108
1.0807214
1.0858698
1.09144
1.0984607
1.1064847
1.1159408
1.1266154
1.1384638
1.150998
1.1635087
1.1750234
1.184765
1.1922685
1.1968571
1.1985722
1.1984052
1.1968223
1.1943314
1.1913956
1.1883499
1.1854185
1.1827069
1.1801965
1.1778705
1.1758148
1.1741528
1.1727917
1.1712815
1.1693411
1.1665693
1.1646244
1.1635768
1.1630956
1.1629707
1.1633424
1.1650967
1.1661179
1.1664508
1.0150114
1.0225828
1.0411746
1.0669643
1.0661294
1.0703235
1.0686803
1.0720606
1.0723073
1.0757459
1.0776766
1.081786
1.0855392
1.0909359
1.0968286
1.1041877
1.1126067
1.1224648
1.1335403
1.1457139
1.1584091
1.1708121
1.1819446
1.1911404
1.1978003
1.2012921
1.2021517
1.2012489
1.1990085
1.195989
1.1926384
1.1892707
1.1860925
1.1831888
1.180527
1.178089
1.175965
1.174265
1.1728186
1.1712303
1.1690739
1.1662503
1.1644906
1.1635845
1.1631915
1.1631011
1.1638286
1.1654053
1.1662826
1.1665297
1.0192774
1.0269383
1.0471139
1.0718557
1.0700326
1.0743349
1.0727466
1.076236
1.0765939
1.0801748
1.0822878
1.0865864
1.0905987
1.0962579
1.102489
1.1102026
1.1190296
1.1292976
1.1407683
1.1532349
1.1660209
1.1782235
1.1889023
1.1974754
1.2031209
1.2055113
1.205579
1.2039165
1.2010404
1.1975172
1.1937759
1.190108
1.1867015
1.1836208
1.1808203
1.1782812
1.1760997
1.1743759
1.1728289
1.1711437
1.1687237
1.1660035
1.1644146
1.1636249
1.1633023
1.1632439
1.1643365
1.1657027
1.1664418
1.1666078
1.0237583
1.0314935
1.0532517
1.076664
1.074087
1.0785039
1.0769883
1.0805998
1.0810855
1.0848189
1.087129
1.0916248
1.0959102
1.1018449
1.1084305
1.1165145
1.1257621
1.1364459
1.1482995
1.1610145
1.1738078
1.1857197
1.1958852
1.2036895
1.2081808
1.20956
1.208822
1.206404
1.2029168
1.198917
1.1948104
1.1908644
1.1872477
1.1840048
1.1810779
1.1784478
1.1762197
1.1744821
1.172832
1.1710182
1.1683328
1.1658054
1.1643831
1.1636951
1.1634388
1.1634128
1.1648219
1.1659873
1.1665974
1.166687
1.0284569
1.0362842
1.0595505
1.0814347
1.0783313
1.0828741
1.0814396
1.0851845
1.0858039
1.0896914
1.0922082
1.0969073
1.1014798
1.1077053
1.1146626
1.1231337
1.1328131
1.1439145
1.1561292
1.1690329
1.1817403
1.1932759
1.2028705
1.2096955
1.2129694
1.2134478
1.2118563
1.2087073
1.2046378
1.2001902
1.1957445
1.1915423
1.1877327
1.1843422
1.1813003
1.1785897
1.1763276
1.1745497
1.1728325
1.170849
1.1679336
1.1656362
1.1643755
1.1637872
1.1635984
1.1636373
1.1652461
1.166251
1.1667517
1.1667717
1.0334264
1.041403
1.0660223
1.0862793
1.0828191
1.0874821
1.0861186
1.089992
1.090748
1.0947891
1.0975253
1.1024381
1.1073153
1.1138493
1.1211968
1.1300711
1.140192
1.1517075
1.1642498
1.1772675
1.1897913
1.2008712
1.2097744
1.2154435
1.2175309
1.2171338
1.2146804
1.2108262
1.2062055
1.2013406
1.1965815
1.1921429
1.1881563
1.1846323
1.1814873
1.1787105
1.1764302
1.174578
1.1728099
1.170623
1.1675536
1.165487
1.1643779
1.1638916
1.16374
1.1639883
1.1655858
1.1664836
1.1669058
1.1668682
1.0386664
1.0468827
1.0726248
1.0913538
1.0875087
1.0922857
1.0909978
1.0949987
1.095908
1.1001109
1.1030855
1.1082266
1.1134285
1.1202902
1.128046
1.1373393
1.1479076
1.1598255
1.172647
1.1856896
1.1979324
1.2084843
1.2165059
1.2208768
1.2219189
1.2205795
1.2172885
1.2127609
1.2076231
1.2023717
1.1973234
1.1926658
1.1885179
1.1848748
1.1816409
1.1788179
1.1765287
1.1745893
1.17275
1.1703157
1.1672188
1.165362
1.1643919
1.1639917
1.1638704
1.1643979
1.1658636
1.1666759
1.167049
1.1669952
1.0440984
1.0526929
1.0792563
1.0964824
1.0923597
1.0972646
1.0960732
1.1002117
1.1012938
1.1056698
1.108902
1.1142873
1.1198339
1.1270434
1.1352249
1.1449503
1.1559679
1.1682664
1.1813028
1.1942713
1.2061379
1.2160714
1.222982
1.2260311
1.2260876
1.2237821
1.2196809
1.2145151
1.2088956
1.2032877
1.1979715
1.1931116
1.1888209
1.1850749
1.1817703
1.1789222
1.1765965
1.1745936
1.172643
1.169912
1.1669508
1.1652599
1.1644197
1.1640888
1.1639952
1.1647915
1.1661112
1.1668484
1.1671841
1.1671272
1.0497312
1.0588798
1.0859024
1.1014433
1.0974161
1.1024536
1.1013706
1.1056524
1.106923
1.1114807
1.1149906
1.1206358
1.1265484
1.134125
1.1427479
1.1529167
1.1643784
1.1770217
1.190192
1.2029824
1.2143808
1.2235357
1.2291411
1.230949
1.2300021
1.2267348
1.2218582
1.216093
1.2100277
1.2040909
1.1985272
1.1934876
1.1890794
1.1852477
1.1818912
1.1790225
1.176624
1.1745947
1.172488
1.169479
1.1667138
1.1651773
1.1644559
1.1641843
1.1641215
1.1651479
1.1663401
1.1670084
1.1673115
1.1672538
1.0555884
1.0654928
1.092578
1.1067694
1.1026953
1.107868
1.106902
1.1113331
1.1128089
1.1175592
1.1213676
1.1272904
1.1335888
1.1415516
1.1506298
1.161249
1.1731418
1.186078
1.1992865
1.2117939
1.2226358
1.2307797
1.2349585
1.2356469
1.2336331
1.2294378
1.2238249
1.2175009
1.2110241
1.2047836
1.198997
1.1938116
1.1893137
1.1854101
1.182008
1.179082
1.1766366
1.1745803
1.1722854
1.1690399
1.1665163
1.1651402
1.1645051
1.1642805
1.1642498
1.1654808
1.1665522
1.1671567
1.1674297
1.1673721
1.0616704
1.0725297
1.0992603
1.1123271
1.1082007
1.1135143
1.11268
1.1172679
1.1189688
1.1239235
1.1280521
1.1342696
1.140973
1.1493392
1.1588845
1.1699575
1.1822554
1.1954147
1.2085536
1.2206708
1.23083
1.2377175
1.2404717
1.2400739
1.2369793
1.2318916
1.225586
1.2187441
1.2118878
1.2053705
1.1993959
1.1941048
1.1895269
1.1855545
1.1820835
1.1791061
1.1766414
1.17454
1.1720291
1.1686246
1.1663498
1.1651284
1.1645703
1.1643854
1.164384
1.1657831
1.1667459
1.1672916
1.1675376
1.1674806
1.0679927
1.0800013
1.1059607
1.1180709
1.1139501
1.1194099
1.1187229
1.1234759
1.1254229
1.1305931
1.1350625
1.1415918
1.1487175
1.1575042
1.1675267
1.1790488
1.1917118
1.2050067
1.2179633
1.2295819
1.2388561
1.2442802
1.2457407
1.2441874
1.2400377
1.2341013
1.2271488
1.2198281
1.2126234
1.2058644
1.1997455
1.1943653
1.1896685
1.1856214
1.1821149
1.1791158
1.1766427
1.1744605
1.171696
1.1682635
1.1662106
1.16513
1.164649
1.1645037
1.1645629
1.1660461
1.1669188
1.1674128
1.1676348
1.167579
1.0745947
1.0878859
1.112699
1.1240515
1.1199628
1.1255731
1.1250532
1.1299765
1.1321906
1.1375854
1.1424153
1.1492736
1.1568399
1.1660641
1.1765704
1.1885277
1.2014958
1.2148215
1.2274796
1.2384886
1.2465996
1.2504771
1.2507259
1.2479759
1.2428094
1.2360727
1.2285194
1.2207572
1.2132404
1.2062871
1.2000574
1.1945337
1.1897324
1.1856541
1.1821282
1.1791189
1.1766323
1.1743305
1.1712665
1.1679817
1.1660966
1.1651353
1.1647352
1.1646109
1.1648386
1.166263
1.1670709
1.1675215
1.1677225
1.1676682
1.0814518
1.0961651
1.119531
1.1302828
1.1262615
1.1320269
1.131686
1.1367854
1.1392859
1.1449152
1.1501261
1.1573336
1.1653589
1.1750376
1.1860287
1.1983918
1.211586
1.2248255
1.2370623
1.2472913
1.253978
1.2563524
1.255384
1.2514369
1.2452991
1.237814
1.2297044
1.2215395
1.2137589
1.2066594
1.2003026
1.1946081
1.1897595
1.185668
1.1821337
1.1791188
1.1766061
1.1741495
1.1708059
1.1677307
1.1660093
1.1651628
1.1648252
1.1647172
1.1651531
1.1664658
1.16721
1.1676201
1.1678016
1.1677486
1.0886102
1.1048974
1.1265242
1.1367998
1.1328588
1.1387774
1.1386376
1.1439104
1.1467207
1.1525979
1.158214
1.1657936
1.1742973
1.1844441
1.1959112
1.2086332
1.2219526
1.2349812
1.2466677
1.2558676
1.2609321
1.261943
1.2596693
1.2545695
1.2475133
1.239332
1.2307106
1.2221913
1.2142047
1.2069742
1.2004136
1.194637
1.1897726
1.1856742
1.182134
1.179114
1.1765638
1.1739228
1.1703363
1.1675031
1.1659405
1.1652001
1.164918
1.1648264
1.1654728
1.1666602
1.1673388
1.1677093
1.1678725
1.167821
1.095963
1.1139718
1.1336485
1.1435863
1.13975
1.1458299
1.1459043
1.1513645
1.1545127
1.1606571
1.1667052
1.1746813
1.1836803
1.1943031
1.2062236
1.219234
1.2325613
1.2452475
1.2562391
1.2640921
1.2674957
1.2671843
1.263585
1.2573785
1.2494608
1.2406354
1.2315519
1.2227399
1.2145902
1.2071633
1.2004609
1.1946475
1.1897718
1.1856689
1.1821266
1.1791003
1.1765007
1.1736449
1.169885
1.1672979
1.1658881
1.1652475
1.1650156
1.1649471
1.1657777
1.1668464
1.1674578
1.1677895
1.1679348
1.1678849
1.1035858
1.1234505
1.1409763
1.1506716
1.1469498
1.1531946
1.1535165
1.1591716
1.1626916
1.1691252
1.1756308
1.1840273
1.1935338
1.2046308
1.2169626
1.2301688
1.2433712
1.2555709
1.2656383
1.2718758
1.2737246
1.2720247
1.2671254
1.25987
1.2511501
1.2417345
1.232251
1.2232105
1.2148769
1.2072482
1.2004767
1.194634
1.1897457
1.1856494
1.1821107
1.1790778
1.176407
1.1732847
1.1694778
1.1671294
1.1658731
1.1653062
1.1651143
1.1650754
1.1660801
1.1670222
1.1675665
1.1678608
1.1679888
1.1679415
1.1113811
1.1331842
1.1484589
1.1580401
1.1544741
1.1609033
1.1615062
1.16737
1.1712949
1.178039
1.1850257
1.1938631
1.2038826
1.2154374
1.2281157
1.2414012
1.2543379
1.2658964
1.2747332
1.2792005
1.2795939
1.2764436
1.2702959
1.262054
1.2525929
1.2426488
1.2328378
1.2235965
1.2150115
1.2072808
1.2004697
1.1945881
1.1897006
1.1856191
1.182089
1.1790437
1.1762675
1.1728241
1.1691385
1.1669913
1.1658719
1.1653779
1.1652204
1.1652089
1.1663569
1.1671833
1.1676634
1.1679231
1.1680358
1.1679914
1.1193905
1.1431691
1.156254
1.1657943
1.1623887
1.1690058
1.1699216
1.1759998
1.1803615
1.1874372
1.1949245
1.2042188
1.2147461
1.2267238
1.2396584
1.2528879
1.265402
1.27612
1.2833926
1.2861065
1.2850394
1.2804384
1.2731014
1.2639406
1.2538037
1.2434066
1.233328
1.2238161
1.2150665
1.2072845
1.2004202
1.1945148
1.189637
1.1855798
1.1820631
1.1789969
1.1760688
1.1723195
1.1688485
1.1668768
1.1658773
1.1654608
1.1653355
1.165374
1.1665949
1.1673238
1.1677474
1.1679766
1.1680759
1.1680339
1.1277809
1.1536514
1.1643769
1.1739727
1.1707263
1.1775299
1.1787987
1.1851007
1.1899312
1.1973603
1.205362
1.2151216
1.2261377
1.2384803
1.2515565
1.2645784
1.2764974
1.2860864
1.2915361
1.2926445
1.2900062
1.2840108
1.2755533
1.2655445
1.2548062
1.2440388
1.23369
1.2239148
1.2150843
1.2072471
1.2003374
1.194416
1.1895587
1.1855346
1.182035
1.1789369
1.1758065
1.1718089
1.1685955
1.16679
1.1659068
1.1655544
1.165442
1.165612
1.1667854
1.1674413
1.1678182
1.1680221
1.1681107
1.1680707
1.1365872
1.1647568
1.1727934
1.1825569
1.1795268
1.1865225
1.1881856
1.1947199
1.2000469
1.2078478
1.21637
1.2265934
1.2380615
1.2506853
1.2637637
1.276414
1.2875429
1.2956334
1.2991898
1.2987233
1.2944956
1.2871653
1.2776634
1.2668847
1.2556314
1.2445499
1.2338674
1.2239519
1.2150614
1.207168
1.2002223
1.1942952
1.189468
1.1854855
1.1820054
1.1788608
1.1754893
1.1713079
1.1683668
1.1667259
1.165949
1.1656555
1.1655506
1.1658817
1.166947
1.1675412
1.1678784
1.1680603
1.1681411
1.1681033
1.1456797
1.1763381
1.1816893
1.1916123
1.1888465
1.1960254
1.1981288
1.2049033
1.2107473
1.218935
1.2279744
1.2386484
1.2505108
1.2633043
1.2762247
1.2883136
1.298374
1.3046406
1.3064152
1.3042818
1.2985035
1.2899136
1.2794491
1.2679894
1.2563109
1.2448774
1.2339406
1.223946
1.2149874
1.2070519
1.2000795
1.1941554
1.1893679
1.1854354
1.1819746
1.1787602
1.1751069
1.1708404
1.1681628
1.1666817
1.1660035
1.1657644
1.1656689
1.1661558
1.1670967
1.1676323
1.1679337
1.1680911
1.168158
1.1681213
1.1552555
1.188445
1.1910826
1.2011955
1.1987387
1.2060844
1.2086752
1.2156919
1.2220657
1.2306494
1.2401968
1.2512924
1.2634657
1.2762887
1.2888712
1.3001862
1.3088162
1.3130883
1.3131526
1.3092961
1.3020344
1.2922691
1.2809336
1.2688916
1.2568459
1.2450327
1.2339585
1.2238797
1.2148708
1.2069025
1.1999122
1.1939996
1.1892609
1.1853865
1.1819413
1.1786207
1.1746268
1.1704489
1.1679982
1.1666712
1.1660696
1.1658775
1.165797
1.1664198
1.1672375
1.1677114
1.1679735
1.1681114
1.1681744
1.1681399
1.165393
1.2009965
1.2010387
1.2113592
1.2092541
1.2167456
1.2198566
1.2271184
1.2340266
1.2430178
1.2530543
1.2645229
1.2768926
1.289576
1.3016151
1.3118889
1.3187027
1.3210209
1.3193242
1.3137649
1.3050994
1.2942539
1.2821515
1.2696208
1.2571534
1.2450942
1.2339157
1.2237626
1.214715
1.2067244
1.1997241
1.1938307
1.18915
1.1853416
1.1819039
1.1784226
1.1740733
1.1701317
1.1678675
1.1666753
1.1661441
1.1659922
1.1659264
1.1666534
1.1673643
1.1677768
1.1680063
1.1681301
1.1681888
1.1681553
1.1761824
1.2140585
1.2116006
1.2221166
1.2204177
1.2280307
1.2316957
1.2392125
1.2466604
1.2560687
1.2665639
1.2783254
1.2907417
1.3030891
1.3143462
1.3232193
1.3279578
1.3284331
1.3248777
1.3176886
1.3077148
1.2958958
1.2831396
1.2701741
1.2572915
1.2450908
1.2338071
1.2235991
1.2145261
1.2065216
1.1995184
1.1936515
1.1890378
1.1853024
1.1818608
1.1781495
1.173512
1.1698477
1.1677606
1.1666863
1.1662227
1.1661041
1.1660564
1.1668737
1.1674771
1.1678339
1.1680381
1.1681482
1.168197
1.1681637
1.1877119
1.2274989
1.2227846
1.2334557
1.2322317
1.2399547
1.2442234
1.2520247
1.2600139
1.2698372
1.2807317
1.2926674
1.3049428
1.3167283
1.3269294
1.333969
1.3366121
1.335218
1.3298142
1.3210795
1.3099067
1.2972342
1.2839235
1.2704742
1.2573421
1.2450101
1.2336439
1.2233963
1.2143087
1.206298
1.1992981
1.1934647
1.188927
1.18527
1.1818089
1.1778153
1.1729652
1.1695891
1.1676768
1.1667165
1.1663116
1.1662213
1.1661961
1.1670609
1.1675768
1.1678881
1.1680673
1.1681608
1.1682014
1.1681683
1.2000578
1.241066
1.2346112
1.2453827
1.2447122
1.2525579
1.2574903
1.2656244
1.2741483
1.2843527
1.2955473
1.3074911
1.3194017
1.3303589
1.3391251
1.3440182
1.3446938
1.3413035
1.3341288
1.3239562
1.3117089
1.2983091
1.2844817
1.2706066
1.2573167
1.2448609
1.2334322
1.2231602
1.2140676
1.2060572
1.1990663
1.1932728
1.1888202
1.1852449
1.1817413
1.1774184
1.1724591
1.1693563
1.1676136
1.1667605
1.1664105
1.1663468
1.1663611
1.1672102
1.1676636
1.1679353
1.1680893
1.1681685
1.168204
1.1681736
1.2135485
1.2545879
1.247179
1.2580386
1.2580185
1.2659712
1.2715732
1.2800746
1.2891097
1.2996256
1.310966
1.3227064
1.3339936
1.3438198
1.3507031
1.3533822
1.3520668
1.346689
1.3378353
1.3263504
1.3131658
1.2991459
1.2847823
1.2706451
1.2572002
1.244653
1.2331807
1.2228967
1.2138071
1.2058027
1.1988259
1.1930785
1.18872
1.1852262
1.1816466
1.1769223
1.1720219
1.1691532
1.1675721
1.1668204
1.1665169
1.166465
1.1665597
1.1673233
1.1677336
1.16797
1.1681032
1.1681736
1.1682075
1.1681793
1.2284753
1.2683889
1.2607324
1.2716168
1.2724174
1.2804153
1.2865978
1.2954342
1.3049148
1.3156246
1.3269059
1.3381867
1.3485487
1.3568454
1.3615003
1.3620939
1.3586461
1.3513651
1.3409557
1.328304
1.3143212
1.2997068
1.2849141
1.2705902
1.2570123
1.2443953
1.2328962
1.2226112
1.2135315
1.2055379
1.1985796
1.1928844
1.1886284
1.18521
1.1815036
1.1763216
1.1716722
1.1689941
1.1675627
1.166892
1.1666252
1.1665771
1.1667616
1.1674262
1.1677905
1.1679956
1.1681134
1.1681802
1.16821
1.1681807
1.244779
1.2827379
1.2754897
1.2862028
1.287832
1.2959099
1.3027416
1.311808
1.3215619
1.3322676
1.3432371
1.3537703
1.3628694
1.3691731
1.3715272
1.3699879
1.3644277
1.3553482
1.3435294
1.3298691
1.3152025
1.300003
1.2849367
1.2704396
1.2567621
1.2440976
1.2325858
1.2223088
1.2132445
1.2052658
1.1983302
1.192693
1.1885473
1.1851931
1.1812924
1.1757203
1.1713624
1.1688722
1.1675706
1.1669712
1.166736
1.1666913
1.1669494
1.1675171
1.1678394
1.1680203
1.1681263
1.1681858
1.1682094
1.1681823
1.2624884
1.2981658
1.2914187
1.3018793