/*--------------------------------*- C++ -*----------------------------------*\
  =========                 |
  \\      /  F ield         | OpenFOAM: The Open Source CFD Toolbox
   \\    /   O peration     | Website:  https://openfoam.org
    \\  /    A nd           | Version:  8
     \\/     M anipulation  |
\*---------------------------------------------------------------------------*/
FoamFile
{
    version     2.0;
    format      ascii;
    class       surfaceVectorField;
    location    "0.189994";
    object      rhoUf;
}
// * * * * * * * * * * * * * * * * * * * * * * * * * * * * * * * * * * * * * //

dimensions      [1 -2 -1 0 0 0 0];

internalField   nonuniform List<vector> 
39600
(
(213.10473 -6.4402388e-17 -9.5392835)
(197.49638 -1.5330412e-16 -9.4903261)
(196.77042 -3.0042571e-16 -8.6873331)
(242.31541 3.9230067e-17 -10.936989)
(232.07411 1.1223736e-16 -10.839214)
(231.12073 2.1933586e-16 -9.8943757)
(264.38345 -1.7364112e-16 -12.044813)
(255.29902 -9.1642482e-17 -12.074912)
(254.11891 -9.74143e-17 -11.009337)
(285.03986 -2.4220394e-17 -13.132331)
(276.20575 3.0437622e-18 -13.175413)
(274.82003 -8.3651292e-17 -12.026642)
(305.67967 1.2935251e-16 -14.273722)
(296.75817 -7.3771822e-17 -14.367141)
(295.19077 7.2280084e-17 -13.112084)
(319.89551 1.8419852e-17 -15.124064)
(317.52049 5.8846475e-17 -15.478607)
(316.1501 6.2461444e-17 -14.184458)
(324.03552 -5.584605e-17 -15.329213)
(323.22786 2.1701256e-18 -16.129143)
(323.2084 -7.9774265e-18 -14.855903)
(324.3331 5.0318934e-19 -15.330165)
(324.85 4.3778861e-17 -15.639949)
(324.91577 3.3047845e-20 -14.413743)
(323.96215 6.2978739e-19 -15.29811)
(323.593 3.5382263e-17 -16.322796)
(323.65976 -6.4008058e-17 -15.037767)
(324.00008 -7.1065049e-19 -15.292441)
(324.32067 -1.2145087e-16 -15.490783)
(324.33765 2.7037445e-17 -14.264428)
(323.75141 2.7286215e-19 -15.274162)
(323.57385 5.0579855e-17 -16.356935)
(323.59335 -8.0515326e-19 -15.075025)
(323.69905 1.4573644e-18 -15.268338)
(323.93048 4.2151055e-17 -15.498233)
(323.92588 1.3287641e-18 -14.260578)
(323.47396 -2.7446748e-17 -15.256606)
(323.4182 -3.5043002e-17 -16.270039)
(323.41589 6.9321243e-20 -14.995525)
(323.34938 -1.0009503e-17 -15.24894)
(323.52765 1.2101611e-18 -15.58774)
(323.51668 -3.1249237e-17 -14.335598)
(323.11988 2.7695415e-17 -15.238174)
(323.14286 2.2335095e-18 -16.138413)
(323.13442 2.5711414e-17 -14.869155)
(322.92234 0 -15.223609)
(323.08389 -2.0352871e-17 -15.682397)
(323.07574 0 -14.423129)
(322.64495 -3.8911356e-19 -15.201949)
(322.7294 1.6886416e-17 -15.998214)
(322.7268 2.5144747e-19 -14.739861)
(322.35684 -4.6872891e-19 -15.167766)
(322.52339 6.6146419e-18 -15.719743)
(322.52622 -4.3392521e-19 -14.468904)
(321.99695 0 -15.116689)
(322.13051 0 -15.848558)
(322.14182 3.5992047e-19 -14.605013)
(321.61224 -3.5714126e-18 -15.039235)
(321.77806 0 -15.672429)
(321.80017 5.5091331e-18 -14.423778)
(321.15692 -1.0245901e-17 -14.970256)
(321.29063 2.4521523e-17 -15.687543)
(321.29809 -8.0102909e-18 -14.426092)
(320.59618 -7.1757465e-18 -14.911605)
(320.77322 3.157655e-19 -15.581673)
(320.76387 -5.4537368e-18 -14.311582)
(319.91132 -1.0168112e-18 -14.773843)
(320.16828 0 -15.508592)
(320.18553 0 -14.252525)
(319.1145 5.4804049e-18 -14.552204)
(319.45929 1.7451945e-17 -15.293779)
(319.49615 2.8821349e-18 -14.065317)
(318.20117 6.7829331e-18 -14.214161)
(318.60449 -8.5074097e-20 -15.002531)
(318.66551 6.8296056e-18 -13.818796)
(317.17153 -1.6823642e-18 -13.742448)
(317.62682 -1.3996264e-17 -14.567495)
(317.70915 -3.3195351e-18 -13.437914)
(316.02145 1.6709998e-17 -13.110314)
(316.51667 3.0975832e-17 -13.979011)
(316.6203 -1.7100133e-18 -12.920128)
(314.77564 -1.971971e-18 -12.303743)
(315.29759 1.0064126e-17 -13.202031)
(315.42005 1.4041702e-17 -12.233043)
(313.47549 -8.1446278e-18 -11.329293)
(314.00378 2.6153944e-18 -12.24032)
(314.13988 -2.1338796e-17 -11.378593)
(312.17438 2.3718971e-17 -10.223895)
(312.6879 -5.5458147e-17 -11.11734)
(312.82907 2.1053772e-17 -10.373941)
(310.92884 0 -9.0459973)
(311.40722 0 -9.8908632)
(311.54438 0 -9.2695452)
(309.78996 -1.9170947e-17 -7.8665195)
(310.21613 0 -8.6332121)
(310.34115 0 -8.1302029)
(308.79954 -8.8920049e-18 -6.7492456)
(309.15962 -9.7438963e-17 -7.4186014)
(309.26782 -1.3839223e-17 -7.0242317)
(307.98077 1.8349047e-17 -5.7412134)
(308.27104 8.0644042e-18 -6.306297)
(308.3606 9.9477912e-18 -6.006851)
(307.33608 1.7423221e-17 -4.8645378)
(307.55845 0 -5.3281017)
(307.63029 -4.8689999e-18 -5.1086595)
(306.8483 6.1167746e-17 -4.1236158)
(307.01489 1.948036e-17 -4.4962738)
(307.07087 1.0200434e-17 -4.3411881)
(306.51702 4.8694889e-17 -3.4288623)
(306.60437 -1.5567094e-17 -3.8041578)
(306.65565 2.0569394e-17 -3.6993793)
(306.30113 -5.9657391e-17 -2.8023286)
(306.3162 -9.0402739e-17 -3.2160245)
(306.36164 -2.9096317e-19 -3.150013)
(306.14106 -8.5341066e-17 -2.3421396)
(306.13178 1.7402049e-17 -2.6912284)
(306.16091 -1.9970729e-17 -2.6537051)
(306.01597 -7.0495941e-17 -2.0512338)
(306.02797 -2.5418842e-17 -2.2276904)
(306.04014 4.3058426e-18 -2.2087433)
(305.96391 -1.037644e-17 -1.712995)
(305.97672 1.5624577e-16 -1.853516)
(305.99444 -2.2668516e-17 -1.8448235)
(305.91779 -3.4543988e-18 -1.4172928)
(305.92856 -8.048591e-17 -1.5500087)
(305.9425 1.8006168e-17 -1.5494206)
(305.86971 -1.1085365e-16 -1.1107284)
(305.89011 -1.9320824e-17 -1.2527788)
(305.90029 -2.3621818e-17 -1.2583838)
(305.80129 -5.8286462e-18 -0.75878821)
(305.83363 -1.299955e-16 -0.93549091)
(305.84093 -5.2159196e-18 -0.94710639)
(305.71331 1.248718e-17 -0.34372615)
(305.75 4.115162e-19 -0.52986387)
(305.75301 -5.5928832e-18 -0.5524904)
(305.54409 3.69175e-17 -0.42349887)
(305.72818 8.1159829e-18 -0.084128246)
(305.68734 -3.1817324e-18 -0.10785158)
(305.63854 4.5766767e-17 0.30850722)
(305.69014 -1.0472478e-16 0.22714282)
(305.71533 8.8530775e-18 0.21691172)
(305.48381 5.8852433e-18 0.19238302)
(305.59276 -4.1014134e-18 0.39515768)
(305.56391 -9.0664743e-18 0.39628924)
(305.39885 3.7741261e-18 0.68064648)
(305.55061 1.3507098e-17 0.62513186)
(305.55933 4.2916434e-19 0.63996408)
(305.19798 -4.4233732e-17 0.7095)
(305.20283 0 0.73389097)
(213.64667 3.8227786e-20 -10.400428)
(198.43448 1.6739156e-19 -10.31401)
(243.07312 2.4781656e-19 -11.904989)
(233.1487 2.2455335e-19 -11.8038)
(265.34242 7.3513407e-17 -13.095782)
(256.54801 -9.7847454e-17 -13.149252)
(286.17642 -3.9384689e-17 -14.260237)
(277.6271 1.6352405e-16 -14.329925)
(306.82653 -1.5287788e-16 -15.471009)
(298.34981 -1.3905798e-16 -15.630474)
(320.44126 4.7377048e-17 -16.323365)
(318.7714 -6.2667637e-17 -16.767638)
(323.97936 9.6207343e-17 -16.521421)
(323.3035 1.0477006e-16 -17.409371)
(324.28711 7.8489066e-17 -16.546572)
(324.89443 4.1358054e-17 -16.873851)
(323.93062 -7.1601996e-17 -16.534069)
(323.59982 3.2860693e-17 -17.627671)
(323.98506 -8.4783878e-17 -16.54351)
(324.34089 -1.8038561e-16 -16.733996)
(323.74299 9.2140551e-17 -16.535156)
(323.56796 1.5307522e-16 -17.665356)
(323.69863 1.2543457e-17 -16.535571)
(323.93267 -2.8696779e-18 -16.75582)
(323.47525 -9.9028679e-18 -16.527555)
(323.41024 -3.0103718e-18 -17.571035)
(323.35276 1.3087787e-17 -16.521886)
(323.52381 7.2058478e-19 -16.858433)
(323.12239 -4.2925867e-17 -16.511095)
(323.1326 -2.5418461e-17 -17.429035)
(322.9232 -6.8134605e-18 -16.493719)
(323.0699 7.8729492e-19 -16.956025)
(322.64365 2.4560947e-17 -16.465026)
(322.70549 -1.7875989e-17 -17.274819)
(322.35343 7.6092588e-18 -16.429323)
(322.50093 2.1152995e-17 -16.992746)
(321.99495 0 -16.378569)
(322.10094 0 -17.12952)
(321.59517 2.5471039e-17 -16.319226)
(321.75123 -2.9798156e-17 -16.974846)
(321.10324 3.6877604e-17 -16.26563)
(321.27621 5.2530991e-17 -17.001115)
(320.52868 7.3629155e-18 -16.186085)
(320.7542 -2.0719526e-17 -16.881088)
(319.84406 1.6615995e-17 -16.030786)
(320.12568 2.268733e-17 -16.77779)
(319.04649 1.3510366e-17 -15.76368)
(319.38789 -1.0005803e-17 -16.534049)
(318.12834 -1.9260772e-17 -15.385082)
(318.51376 8.0994982e-18 -16.204006)
(317.07927 1.4079672e-17 -14.854616)
(317.51275 5.838587e-19 -15.715693)
(315.90968 2.6330294e-17 -14.144874)
(316.37967 9.6584162e-18 -15.054216)
(314.64808 1.527195e-17 -13.241719)
(315.14088 -1.6698828e-17 -14.184365)
(313.33915 -3.8579781e-17 -12.156401)
(313.83409 8.2367543e-17 -13.112681)
(312.03848 -8.4152555e-17 -10.931695)
(312.51503 5.7994859e-17 -11.869296)
(310.80233 0 -9.6337679)
(311.24145 -8.8996654e-17 -10.519582)
(309.6795 -6.7692275e-17 -8.339836)
(310.06624 1.3981822e-17 -9.1432072)
(308.70825 -9.1307363e-17 -7.1190347)
(309.03067 2.37035e-17 -7.8200216)
(307.90864 -9.2769503e-18 -6.02119)
(308.16471 -1.5335838e-16 -6.6130039)
(307.28103 0 -5.0700146)
(307.47358 -1.048586e-16 -5.5549186)
(306.8062 -5.3014861e-17 -4.2585539)
(306.94835 -1.9971768e-17 -4.6589779)
(306.48093 -1.4571495e-16 -3.5067224)
(306.54508 -2.9287354e-17 -3.9161156)
(306.26567 -2.5467174e-17 -2.8711167)
(306.26859 1.7031199e-16 -3.2879445)
(306.11365 8.2403626e-17 -2.4009781)
(306.10066 8.3132693e-17 -2.7344214)
(306.0013 1.8041017e-16 -2.0729171)
(306.01191 1.8649644e-16 -2.2526997)
(305.94869 1.1267334e-16 -1.7251343)
(305.95759 9.0356671e-17 -1.8673266)
(305.90503 -1.0316668e-16 -1.4214064)
(305.91381 -5.3368189e-17 -1.5548708)
(305.86147 -2.6025088e-17 -1.109002)
(305.87954 2.2696127e-16 -1.25152)
(305.79389 -1.3847486e-16 -0.75029094)
(305.82639 -2.7068438e-19 -0.9285828)
(305.74736 -4.769039e-18 -0.33035608)
(305.74724 1.5917819e-16 -0.51215938)
(305.64309 -1.2154232e-16 -0.21506791)
(305.75111 1.5709376e-17 -0.066130049)
(305.61301 -1.6488352e-16 0.14458676)
(305.68992 1.251728e-16 0.23297255)
(305.53135 8.1687895e-18 0.24279297)
(305.60678 -4.4283861e-18 0.39159903)
(305.38831 -2.8933398e-17 0.6537187)
(305.54639 -9.8504616e-17 0.60723511)
(305.19264 -2.9061288e-18 0.66880516)
(214.82407 3.4511403e-19 -11.32268)
(199.37506 3.3432921e-16 -11.175275)
(244.45083 -8.7956139e-17 -12.964298)
(234.31641 -1.218665e-16 -12.811366)
(266.87058 -3.0200217e-17 -14.261199)
(257.87158 -1.9520896e-16 -14.267564)
(287.8698 8.9651826e-17 -15.527241)
(279.10756 1.6631189e-16 -15.537459)
(308.39038 -5.6905448e-17 -16.827811)
(300.02966 -7.4535086e-17 -16.962175)
(321.18651 -1.9637798e-17 -17.679759)
(319.90604 4.5410884e-18 -18.114985)
(324.0454 5.6141734e-17 -17.847161)
(323.31006 5.19976e-17 -18.746673)
(324.30751 -2.5351468e-18 -17.86423)
(324.88098 5.6926791e-20 -18.153712)
(323.93562 -5.6736299e-17 -17.843498)
(323.55674 1.2273036e-18 -18.971252)
(323.98424 2.5878024e-17 -17.84849)
(324.32434 -1.48875e-18 -18.008082)
(323.73166 7.2509097e-17 -17.835099)
(323.52907 1.0057845e-16 -18.998968)
(323.68634 -1.8065579e-17 -17.831256)
(323.90378 -1.2888022e-16 -18.038658)
(323.46103 7.0889119e-18 -17.822622)
(323.38183 7.1349081e-17 -18.893296)
(323.33699 -3.4847121e-17 -17.815763)
(323.49857 -2.9030933e-17 -18.149255)
(323.10347 1.5219341e-17 -17.800708)
(323.09651 -9.3237733e-18 -18.735202)
(322.90054 -8.5370601e-18 -17.782246)
(323.03556 2.0216738e-17 -18.249803)
(322.61968 -2.435898e-17 -17.752772)
(322.66139 -5.1135611e-17 -18.57787)
(322.33896 1.5430338e-17 -17.714672)
(322.45513 2.1150334e-17 -18.308741)
(321.98726 -2.6718002e-17 -17.690933)
(322.07277 3.6375034e-17 -18.460914)
(321.57587 -1.0111537e-17 -17.652627)
(321.71967 -3.9164676e-17 -18.317861)
(321.06476 2.2705782e-18 -17.591695)
(321.23874 4.0955647e-17 -18.337895)
(320.46168 -9.3605817e-18 -17.485968)
(320.70412 -4.0725435e-17 -18.196546)
(319.75882 -6.1714007e-19 -17.289465)
(320.04726 2.2243169e-17 -18.062564)
(318.94854 -1.6884043e-17 -16.994234)
(319.28825 -2.7683124e-17 -17.791527)
(318.00468 2.8252931e-17 -16.569103)
(318.39142 1.5133523e-17 -17.421408)
(316.93157 -4.5850905e-18 -15.974136)
(317.36468 1.2619634e-17 -16.874872)
(315.7394 -3.0265522e-17 -15.17955)
(316.20691 -3.1158784e-17 -16.134061)
(314.46086 4.0184255e-17 -14.172487)
(314.94784 6.9763295e-17 -15.164471)
(313.14402 1.798728e-16 -12.969579)
(313.62914 -1.578187e-18 -13.976398)
(311.84635 6.7302915e-17 -11.620735)
(312.30937 3.019316e-17 -12.60765)
(310.62339 -8.5223466e-17 -10.200246)
(311.04654 -6.8948926e-18 -11.131873)
(309.52122 1.034051e-16 -8.7917466)
(309.89143 1.3820892e-17 -9.6361502)
(308.57424 -1.9826725e-17 -7.4691001)
(308.88121 2.6492548e-16 -8.2055963)
(307.79917 -2.5307258e-16 -6.2843142)
(308.04198 2.0029916e-17 -6.9061666)
(307.19366 -1.3356934e-16 -5.26177)
(307.37606 2.002325e-16 -5.7710385)
(306.74022 4.5015104e-18 -4.3764959)
(306.87073 -1.9824162e-17 -4.8138731)
(306.42769 2.6369938e-16 -3.5790184)
(306.4791 2.5741388e-16 -4.0219152)
(306.22066 2.8782094e-16 -2.9305241)
(306.21836 8.78875e-17 -3.3539168)
(306.07698 1.76069e-16 -2.4541151)
(306.06795 0 -2.7727416)
(305.97908 1.0738311e-16 -2.0900273)
(305.99173 -1.390665e-18 -2.2748903)
(305.92956 -5.9137048e-17 -1.7332969)
(305.93745 -1.4626717e-16 -1.8792731)
(305.89173 2.4478521e-16 -1.4214707)
(305.89854 3.0965542e-16 -1.5576297)
(305.85217 2.7848267e-16 -1.1025778)
(305.86879 1.9749245e-17 -1.2482169)
(305.79013 2.7977569e-16 -0.73688285)
(305.81942 1.0868465e-16 -0.91850767)
(305.72644 1.9609591e-16 -0.37724388)
(305.75207 -9.4757302e-18 -0.49119872)
(305.66353 2.4930609e-16 -0.14253462)
(305.7628 2.6407457e-16 -0.047554433)
(305.59766 3.0295692e-16 0.073434864)
(305.69891 8.4625859e-17 0.23835877)
(305.53579 -9.7758386e-17 0.27309914)
(305.61416 4.2847559e-18 0.38770865)
(305.38731 -8.2648662e-17 0.63007427)
(305.54461 -3.391121e-18 0.5882555)
(305.18725 4.0618848e-17 0.63080671)
(215.80794 2.4935548e-16 -12.252142)
(200.29744 3.2613881e-16 -12.054168)
(245.60856 -2.2090573e-16 -14.023145)
(235.43713 6.0996447e-18 -13.833663)
(268.18839 -3.1341284e-17 -15.419922)
(259.15241 -1.9809165e-16 -15.402161)
(289.37618 2.4669012e-17 -16.782267)
(280.54939 8.2618979e-17 -16.758354)
(309.74545 -2.0668747e-17 -18.161014)
(301.70151 -7.2240338e-17 -18.313605)
(321.73542 7.0797837e-17 -19.005889)
(320.9183 6.2123575e-17 -19.462267)
(324.01375 1.2696111e-18 -19.14942)
(323.28967 1.1015874e-16 -20.089869)
(324.26264 3.6397989e-18 -19.1697)
(324.86405 -9.0368143e-17 -19.436616)
(323.89039 5.5398835e-17 -19.149955)
(323.50264 7.8885805e-17 -20.325861)
(323.94553 6.3484173e-17 -19.158276)
(324.29832 -2.2256936e-18 -19.291936)
(323.68605 -7.811444e-17 -19.146071)
(323.47632 8.0134493e-20 -20.347606)
(323.64714 -5.7264551e-17 -19.14325)
(323.85637 -4.0780833e-17 -19.339025)
(323.42799 4.4002202e-17 -19.135962)
(323.33523 3.0182965e-18 -20.234601)
(323.30241 -5.6514773e-18 -19.12895)
(323.45317 0 -19.45944)
(323.06769 -6.7953913e-18 -19.111612)
(323.0365 1.3050141e-17 -20.064545)
(322.87346 -1.5718661e-17 -19.088833)
(322.9733 -1.0663748e-17 -19.579798)
(322.60391 -1.2478887e-17 -19.080296)
(322.61831 6.8078226e-19 -19.927565)
(322.3146 4.0414469e-17 -19.069286)
(322.41429 -2.252641e-17 -19.672316)
(321.93866 3.0401432e-17 -19.049996)
(322.0286 6.0231083e-17 -19.829104)
(321.50251 4.1821012e-18 -19.010141)
(321.66812 -9.7945478e-18 -19.681025)
(320.97317 5.6978634e-18 -18.926504)
(321.16903 -6.2330856e-19 -19.683969)
(320.36783 -1.5092344e-17 -18.787016)
(320.61723 -1.3633895e-17 -19.524896)
(319.65769 0 -18.571085)
(319.94129 0 -19.366993)
(318.82384 0 -18.242799)
(319.15847 0 -19.068344)
(317.85641 0 -17.767621)
(318.23588 0 -18.653573)
(316.75697 -9.5620333e-18 -17.102782)
(317.18107 -1.327975e-17 -18.043573)
(315.54148 5.8044781e-17 -16.217224)
(315.99704 8.6858179e-17 -17.216839)
(314.2465 3.5244104e-17 -15.100325)
(314.71747 7.7059394e-17 -16.140727)
(312.92364 -1.5219457e-16 -13.77481)
(313.38834 7.3306384e-17 -14.830309)
(311.63197 -3.9383723e-17 -12.298581)
(312.07082 -1.1177172e-16 -13.331959)
(310.42599 8.8937983e-17 -10.754204)
(310.82272 7.9995788e-17 -11.728079)
(309.34851 1.4844618e-16 -9.231586)
(309.69218 -1.2976704e-16 -10.113055)
(308.42962 3.2940419e-16 -7.8087251)
(308.71177 -1.9485685e-16 -8.5767783)
(307.68244 4.506422e-16 -6.5393996)
(307.90337 1.7089064e-16 -7.1874168)
(307.1011 3.3624355e-16 -5.4475942)
(307.26627 8.8379871e-17 -5.9783143)
(306.67063 2.0164674e-16 -4.4896668)
(306.78225 0 -4.9624309)
(306.37113 1.0086287e-16 -3.6529355)
(306.40697 -2.8023529e-18 -4.1227757)
(306.17458 -1.8885591e-16 -2.9909176)
(306.16549 -1.80745e-16 -3.4157101)
(306.04174 -1.7666849e-16 -2.5044419)
(306.03346 0 -2.8082532)
(305.9572 -2.380645e-16 -2.10795)
(305.96787 -1.9890484e-16 -2.2958176)
(305.91098 1.7051681e-16 -1.7412956)
(305.91634 -3.3107969e-16 -1.8906158)
(305.87838 1.175741e-16 -1.4213197)
(305.88272 2.1536584e-16 -1.5596923)
(305.84335 -1.6024072e-16 -1.0956609)
(305.85765 -4.6354514e-16 -1.2442002)
(305.78847 -1.6769506e-16 -0.72327607)
(305.81267 7.1821564e-18 -0.9067224)
(305.73185 2.8609349e-17 -0.38181593)
(305.75932 -1.6984319e-16 -0.4696775)
(305.67446 1.1671911e-16 -0.14688621)
(305.77367 2.8793097e-18 -0.029759096)
(305.60573 -2.0518177e-16 0.064432121)
(305.70723 -1.9084065e-16 0.24262793)
(305.54732 1.007901e-16 0.28279203)
(305.61942 4.3301334e-18 0.38296453)
(305.38419 1.168545e-16 0.60483585)
(305.54395 1.0847523e-16 0.56668363)
(305.18244 -3.7761846e-18 0.59143699)
(216.83241 1.1273194e-16 -13.202969)
(201.20181 0 -12.953721)
(246.81923 4.4188226e-17 -15.109888)
(236.55561 1.2115943e-16 -14.880434)
(269.55969 -1.0857254e-16 -16.612378)
(260.43534 -9.9205641e-17 -16.566567)
(290.94391 1.6820196e-21 -18.077443)
(281.9882 1.387521e-18 -18.009327)
(311.11389 -1.8233874e-18 -19.53372)
(303.38653 1.5369486e-16 -19.705175)
(322.25356 9.6829122e-17 -20.364606)
(321.82274 -1.3399899e-16 -20.828789)
(323.98932 3.6265225e-17 -20.480251)
(323.22897 1.0409164e-16 -21.455933)
(324.22398 -3.0074077e-17 -20.500641)
(324.82602 -8.9612749e-17 -20.735175)
(323.84117 2.8945659e-17 -20.47848)
(323.4238 7.9667687e-17 -21.700161)
(323.89654 -6.4356653e-17 -20.485138)
(324.24384 -5.8302806e-17 -20.59335)
(323.62548 3.9782965e-17 -20.476756)
(323.41805 0 -21.716699)
(323.59182 1.4663169e-17 -20.481775)
(323.80778 8.8272307e-17 -20.658339)
(323.38027 -3.9742809e-17 -20.471422)
(323.25922 -3.5902579e-17 -21.596576)
(323.26109 1.7239929e-17 -20.458724)
(323.37406 -2.3377566e-17 -20.801575)
(323.03476 1.1157962e-17 -20.45679)
(322.97686 5.7444768e-18 -21.435961)
(322.83651 4.4627206e-18 -20.458777)
(322.92134 -1.0418584e-17 -20.95613)
(322.54921 -7.2615454e-18 -20.460783)
(322.56594 -6.4667102e-19 -21.315842)
(322.24141 -9.8713019e-18 -20.45195)
(322.355 -4.4002983e-17 -21.060986)
(321.84933 2.6661127e-17 -20.427378)
(321.9603 1.1546749e-17 -21.208711)
(321.40556 -1.5264528e-17 -20.36512)
(321.58076 -2.0911191e-17 -21.053141)
(320.87829 -1.8464924e-17 -20.268823)
(321.07094 -3.4096408e-17 -21.043345)
(320.25996 0 -20.113961)
(320.50254 0 -20.872978)
(319.52478 0 -19.873074)
(319.80556 4.7756808e-17 -20.692902)
(318.66569 0 -19.507828)
(318.99667 0 -20.362666)
(317.66941 -1.1868179e-17 -18.977144)
(318.04533 0 -19.898301)
(316.54165 7.2506224e-17 -18.235907)
(316.96014 -2.6562491e-17 -19.218382)
(315.30193 1.064546e-16 -17.252192)
(315.74852 1.8846867e-17 -18.298278)
(313.9913 1.1495044e-16 -16.018632)
(314.44873 -5.3454541e-17 -17.108166)
(312.66491 1.3076356e-16 -14.565002)
(313.11121 1.1199976e-17 -15.669089)
(311.38304 -1.2501322e-17 -12.958042)
(311.79941 -3.4502338e-17 -14.036928)
(310.19854 -1.1546875e-16 -11.288743)
(310.57046 -1.5758258e-16 -12.303243)
(309.15042 -4.629435e-16 -9.6530009)
(309.46918 2.7138039e-18 -10.569507)
(308.26409 -3.8922435e-16 -8.1322807)
(308.52315 -1.6331834e-16 -8.9297525)
(307.54893 -1.7981842e-16 -6.7817225)
(307.74963 2.8123901e-16 -7.4535014)
(306.99472 -2.3595226e-16 -5.6234328)
(307.14481 -2.1175954e-16 -6.1743036)
(306.59016 -2.0290054e-16 -4.5954896)
(306.68343 3.4719619e-16 -5.1024883)
(306.30764 -2.6339481e-16 -3.72439)
(306.32933 -4.8878796e-16 -4.2166939)
(306.12382 -1.2656031e-17 -3.0513793)
(306.11036 3.5565261e-16 -3.4720537)
(306.00436 0 -2.5492601)
(305.99651 0 -2.8402385)
(305.93325 -2.7690554e-16 -2.1237601)
(305.94068 -3.8893095e-16 -2.3147208)
(305.89161 -3.4810471e-16 -1.7479761)
(305.89409 2.6826907e-16 -1.9006052)
(305.86431 -2.8826324e-16 -1.4198694)
(305.86639 -6.4745603e-16 -1.5605855)
(305.83406 -3.4985276e-16 -1.0870619)
(305.84618 -1.0337492e-17 -1.23893)
(305.78767 2.5412844e-17 -0.70801021)
(305.8063 2.8805932e-17 -0.89260838)
(305.73512 -2.1591165e-16 -0.37773369)
(305.76853 6.1113644e-20 -0.44744536)
(305.68126 -2.840616e-16 -0.14126285)
(305.78393 -2.5604741e-16 -0.013081684)
(305.61078 0 0.061491751)
(305.71498 0 0.24603079)
(305.55173 0 0.2861484)
(305.62325 0 0.37748878)
(305.38351 -1.1051924e-18 0.57710393)
(305.54356 0 0.54102663)
(305.17857 -1.5429095e-16 0.55168162)
(217.82091 -8.9038718e-19 -14.177067)
(202.07993 -5.2908384e-16 -13.874916)
(247.999 -1.7917938e-18 -16.223092)
(237.65231 2.5643785e-16 -15.95194)
(270.89949 3.741991e-19 -17.833108)
(261.70073 -7.9013631e-19 -17.76073)
(292.48229 1.3965987e-16 -19.40272)
(283.40345 -1.78097e-16 -19.288476)
(312.4093 4.6959081e-17 -20.929955)
(305.04866 3.0913448e-16 -21.132905)
(322.67272 -1.4543458e-16 -21.734744)
(322.58856 -2.634204e-16 -22.208246)
(323.91891 -3.7695915e-18 -21.823918)
(323.14131 2.2774591e-16 -22.841961)
(324.15649 4.3674487e-18 -21.843163)
(324.75392 -9.4723046e-17 -22.048608)
(323.76329 5.2395543e-18 -21.82314)
(323.33978 -7.4346873e-17 -23.09809)
(323.83756 0 -21.832574)
(324.17124 6.5753974e-17 -21.918705)
(323.59111 4.0436663e-17 -21.82687)
(323.34036 5.4911897e-17 -23.113748)
(323.55565 4.861431e-17 -21.837973)
(323.75205 -4.742978e-17 -22.006724)
(323.32947 -2.0879549e-17 -21.836544)
(323.18189 -6.7045524e-21 -22.991461)
(323.20694 -3.6924961e-17 -21.843609)
(323.30819 -4.6767152e-17 -22.183429)
(322.96796 -1.4054603e-17 -21.851731)
(322.91063 4.6043591e-19 -22.842721)
(322.75648 -1.621231e-17 -21.857722)
(322.85287 -1.1062083e-17 -22.358361)
(322.4569 -3.306419e-17 -21.859915)
(322.49284 6.4945835e-19 -22.716369)
(322.13843 -2.7577554e-17 -21.839928)
(322.26438 1.5838256e-17 -22.457542)
(321.74644 -3.2345393e-17 -21.803004)
(321.8604 1.3250358e-17 -22.598244)
(321.3003 -3.8251598e-17 -21.7385)
(321.46999 -8.3983822e-17 -22.441967)
(320.75769 -1.887776e-17 -21.633601)
(320.94689 1.8157429e-17 -22.423548)
(320.11991 4.2753579e-17 -21.461478)
(320.35881 0 -22.242199)
(319.36187 5.1891395e-17 -21.193974)
(319.63882 -1.6565833e-18 -22.038028)
(318.47387 0 -20.786993)
(318.80102 2.0210036e-17 -21.67251)
(317.447 -1.2069874e-17 -20.19508)
(317.81807 -6.6245186e-17 -21.15278)
(316.28909 -8.3485897e-17 -19.370258)
(316.70031 -4.0578637e-17 -20.395755)
(315.02474 -1.3191769e-16 -18.280682)
(315.46016 2.4923217e-17 -19.374156)
(313.69977 -1.6183427e-16 -16.923383)
(314.14094 -5.2807815e-17 -18.062158)
(312.37279 -1.4749874e-16 -15.336255)
(312.79764 -1.2892802e-16 -16.488091)
(311.10481 -1.6581597e-16 -13.595623)
(311.49562 1.8973082e-16 -14.718254)
(309.94644 -5.6517235e-17 -11.800945)
(310.29059 -1.653951e-16 -12.853636)
(308.93231 3.1615282e-16 -10.053655)
(309.22346 1.1491261e-16 -11.002429)
(308.08279 4.5529851e-16 -8.4379646)
(308.31639 2.0295664e-16 -9.2620119)
(307.40347 3.0111559e-16 -7.0099638)
(307.58174 -3.1211809e-17 -7.7024062)
(306.87876 3.0790543e-16 -5.7883397)
(307.01247 1.3538606e-17 -6.3576175)
(306.50196 1.5349387e-16 -4.6940642)
(306.57486 -3.1298746e-16 -5.2328341)
(306.23935 3.541829e-17 -3.7931649)
(306.24677 -2.4441631e-16 -4.3025123)
(306.07 4.075457e-16 -3.1098781)
(306.05311 -3.2407545e-18 -3.5224774)
(305.96482 -3.4431023e-16 -2.5896406)
(305.95722 -8.5337488e-18 -2.8685975)
(305.90713 8.1141343e-17 -2.137784)
(305.9105 4.0434369e-16 -2.331453)
(305.87157 7.3138614e-17 -1.7533157)
(305.87071 6.0740895e-16 -1.9089656)
(305.85005 -4.4224675e-16 -1.4171651)
(305.84947 -2.4261377e-16 -1.5602336)
(305.82487 3.6420194e-16 -1.076873)
(305.83443 1.0580825e-17 -1.2323014)
(305.78823 6.6400783e-18 -0.69130537)
(305.8004 1.4391847e-17 -0.87612491)
(305.74303 -1.1713156e-17 -0.36942742)
(305.77912 -3.4429985e-16 -0.42481462)
(305.69186 0 -0.13015773)
(305.79397 0 0.002168435)
(305.61864 0 0.066218211)
(305.7226 3.5732666e-16 0.24843431)
(305.55652 0 0.28222825)
(305.62658 -2.640107e-16 0.37164945)
(305.38263 -1.378411e-16 0.54662039)
(305.54272 2.0014251e-16 0.51395897)
(305.17596 -8.8763705e-18 0.51134304)
(218.80464 -3.368708e-16 -15.174457)
(202.952 -8.7340175e-16 -14.816988)
(249.17676 2.7737151e-16 -17.364151)
(238.73811 7.7589525e-16 -17.045506)
(272.23774 -1.6133277e-16 -19.085475)
(262.958 -4.3022441e-16 -18.982899)
(294.01291 -5.0444362e-17 -20.763269)
(284.80366 1.0573764e-17 -20.596165)
(313.63673 5.0506023e-17 -22.354829)
(306.67108 1.5532951e-16 -22.598922)
(323.02828 6.2827387e-17 -23.125673)
(323.2059 -1.270826e-16 -23.606607)
(323.85469 1.6404156e-16 -23.188668)
(323.0193 2.2943416e-16 -24.26198)
(324.10073 -1.7321226e-16 -23.214712)
(324.68452 -9.25396e-17 -23.393623)
(323.72411 -2.6206262e-17 -23.199041)
(323.24846 -8.2301104e-17 -24.533356)
(323.79848 1.2025978e-16 -23.219465)
(324.11282 5.588783e-17 -23.279393)
(323.54721 -2.2873118e-17 -23.217496)
(323.25092 5.3661224e-17 -24.545469)
(323.49333 -9.8691867e-17 -23.235302)
(323.69228 -1.0095758e-16 -23.389865)
(323.24576 -2.1599881e-17 -23.238597)
(323.09427 -9.1796306e-20 -24.41544)
(323.11484 -1.3953631e-17 -23.254083)
(323.23507 -3.9556332e-17 -23.587936)
(322.86598 4.3063777e-18 -23.263529)
(322.82493 3.9744619e-17 -24.259436)
(322.64555 4.4951614e-18 -23.263464)
(322.755 -3.3245624e-17 -23.768043)
(322.34545 4.7263066e-17 -23.256091)
(322.38673 1.7874889e-17 -24.125147)
(322.02931 5.6020535e-17 -23.237331)
(322.15156 -3.2358946e-17 -23.86897)
(321.63073 -2.9264975e-17 -23.202161)
(321.73917 3.7917959e-17 -24.007113)
(321.16959 -3.7253672e-17 -23.133533)
(321.33418 4.5630104e-17 -23.852759)
(320.6111 3.8194737e-17 -23.01916)
(320.79555 1.6679755e-17 -23.824882)
(319.95105 -4.3425381e-17 -22.829378)
(320.18531 -5.9594358e-17 -23.631574)
(319.16518 -3.4642391e-17 -22.531503)
(319.43922 -4.7604625e-17 -23.400806)
(318.24564 -3.7240605e-17 -22.077806)
(318.56956 1.0173782e-16 -22.99538)
(317.18519 -9.6567378e-17 -21.417928)
(317.5521 -8.2272629e-17 -22.41386)
(315.99565 6.0159474e-17 -20.50157)
(316.39977 -1.2436567e-16 -21.571671)
(314.70676 1.1002819e-16 -19.297841)
(315.13056 8.2937226e-18 -20.439778)
(313.36942 -1.3196443e-17 -17.809471)
(313.79334 0 -18.997663)
(312.04548 1.7334202e-16 -16.083614)
(312.44758 -2.9625634e-17 -17.282351)
(310.79608 2.2486082e-16 -14.206833)
(311.15995 -1.6122555e-16 -15.371418)
(309.66886 -2.3748193e-17 -12.286952)
(309.98405 1.6141897e-16 -13.375397)
(308.69354 -6.0781828e-18 -10.430351)
(308.95615 -1.4548173e-17 -11.408641)
(307.88519 -2.5522299e-16 -8.7232318)
(308.09261 -2.2656921e-19 -9.5709639)
(307.24541 -3.2116621e-16 -7.2218917)
(307.40072 -2.8125602e-16 -7.93219)
(306.75241 -5.6853575e-16 -5.940934)
(306.87045 -2.0382361e-19 -6.5267262)
(306.40557 -7.1556958e-16 -4.7844633)
(306.45707 1.8711121e-17 -5.3521247)
(306.16603 -3.0893335e-16 -3.8583836)
(306.15994 -2.5678004e-16 -4.3791085)
(306.01421 -4.1679078e-16 -3.1640091)
(305.99365 -3.5565145e-16 -3.5664753)
(305.92364 6.9190279e-16 -2.6259078)
(305.91585 -8.5085519e-18 -2.8930628)
(305.87875 9.06513e-16 -2.1497972)
(305.87752 -3.2630865e-18 -2.3457254)
(305.85053 3.8910292e-16 -1.7570111)
(305.84608 2.9550314e-16 -1.9153482)
(305.83528 1.811048e-16 -1.4129926)
(305.83206 4.1823632e-16 -1.5584607)
(305.81567 -3.4019504e-16 -1.0648969)
(305.82255 8.9199914e-18 -1.2241353)
(305.7897 -2.9604852e-16 -0.67308229)
(305.79518 0 -0.85717719)
(305.74993 -3.72723e-16 -0.36442922)
(305.79127 3.1861923e-16 -0.40198188)
(305.70318 3.179419e-16 -0.11393204)
(305.8035 -4.7608275e-16 0.015570789)
(305.62741 1.6386846e-16 0.076884903)
(305.73045 6.449203e-18 0.2496829)
(305.5594 -1.1603787e-16 0.27579092)
(305.62958 -2.6702839e-16 0.36544164)
(305.38257 3.563934e-16 0.51630095)
(305.54156 1.2416796e-17 0.48674247)
(305.17452 1.4800999e-16 0.47049086)
(219.78427 8.9385774e-17 -16.191746)
(203.80432 -3.4840946e-16 -15.778551)
(250.35988 1.7838909e-16 -18.529858)
(239.82028 5.1016458e-16 -18.161719)
(273.58827 -2.9655502e-16 -20.367689)
(264.22987 -2.0091947e-16 -20.236192)
(295.54544 2.0030676e-16 -22.160219)
(286.23171 -9.631782e-18 -21.942494)
(314.81228 3.8442879e-18 -23.816032)
(308.29996 1.5770349e-16 -24.11208)
(323.30812 7.8612685e-18 -24.553697)
(323.74648 -1.3959965e-16 -25.028562)
(323.78418 3.8986275e-18 -24.599499)
(322.90556 1.1747145e-16 -25.719214)
(324.04819 -4.5140812e-18 -24.631975)
(324.61012 0 -24.767845)
(323.6553 -1.2930672e-17 -24.616248)
(323.14052 8.1916074e-17 -25.998808)
(323.72586 -9.0185808e-18 -24.636332)
(324.02736 -5.9105492e-17 -24.667289)
(323.45512 -1.0437887e-17 -24.637653)
(323.15189 0 -26.000119)
(323.39654 -1.2535695e-17 -24.651648)
(323.59934 4.7731818e-17 -24.790377)
(323.13014 -1.4537284e-17 -24.657838)
(322.9929 1.0247331e-19 -25.850813)
(322.99511 6.6552371e-18 -24.666776)
(323.1273 -3.2173559e-17 -25.00127)
(322.74818 8.8744711e-18 -24.673479)
(322.71122 5.3604839e-17 -25.6855)
(322.53115 -2.4276624e-17 -24.676937)
(322.63706 8.5173426e-19 -25.192792)
(322.22803 -5.5968802e-17 -24.675444)
(322.26296 1.8985617e-17 -25.552492)
(321.90048 -5.5844803e-17 -24.658461)
(322.01664 -4.5141807e-17 -25.302967)
(321.49008 1.1065184e-16 -24.622708)
(321.59405 3.8990846e-17 -25.438056)
(321.01392 1.0088923e-16 -24.550297)
(321.17274 8.3850623e-17 -25.28536)
(320.43516 -7.2723901e-17 -24.425465)
(320.61596 -1.0860861e-16 -25.247219)
(319.74966 -6.4716853e-17 -24.215475)
(319.98051 -1.3154248e-17 -25.040033)
(318.93371 7.3260808e-17 -23.883579)
(319.20519 1.2488412e-17 -24.7792)
(317.97948 7.3790401e-17 -23.377356)
(318.30046 -8.604021e-17 -24.32858)
(316.88319 -1.0583574e-16 -22.642039)
(317.24569 6.9047988e-17 -23.67798)
(315.66081 -1.8756659e-16 -21.625443)
(316.05707 1.7142673e-17 -22.741732)
(314.34802 -9.9315527e-17 -20.298776)
(314.75883 -2.9804109e-16 -21.490127)
(313.00092 -1.3398301e-17 -18.671898)
(313.40571 -1.2251852e-16 -19.90945)
(311.68426 -3.4731311e-16 -16.802392)
(312.0615 -1.4659459e-17 -18.046881)
(310.45855 -2.5552297e-16 -14.787577)
(310.79346 -1.8488634e-16 -15.992027)
(309.36772 1.8805963e-16 -12.743369)