/*--------------------------------*- C++ -*----------------------------------*\
  =========                 |
  \\      /  F ield         | OpenFOAM: The Open Source CFD Toolbox
   \\    /   O peration     | Website:  https://openfoam.org
    \\  /    A nd           | Version:  8
     \\/     M anipulation  |
\*---------------------------------------------------------------------------*/
FoamFile
{
    version     2.0;
    format      ascii;
    class       volScalarField;
    location    "0.189994";
    object      T;
}
// * * * * * * * * * * * * * * * * * * * * * * * * * * * * * * * * * * * * * //

dimensions      [0 0 0 1 0 0 0];

internalField   nonuniform List<scalar> 
20000
(
295.49776
295.23034
294.47206
292.87871
289.80332
283.86107
281.15635
280.85981
281.35892
281.35273
281.73934
281.85714
282.20618
282.42883
282.79455
283.11942
283.54345
283.97742
284.48942
285.04237
285.6653
286.37268
287.17388
288.0533
288.99885
289.99674
291.03829
292.0967
293.13729
294.12476
295.02629
295.81883
296.48818
297.03034
297.45015
297.75906
297.96992
298.10183
298.17785
298.20182
298.19123
298.1629
298.10908
298.02937
297.90557
297.73677
297.53127
297.48191
297.39928
297.53138
295.40784
295.0966
294.29302
292.61072
289.39002
283.26179
280.97634
280.69044
281.18922
281.17786
281.56667
281.68517
282.0376
282.26497
282.63529
282.96696
283.39607
283.8377
284.35767
284.92923
285.59499
286.33807
287.15115
288.04014
288.99648
290.01587
291.07734
292.15145
293.20197
294.19227
295.09037
295.87457
296.53317
297.06423
297.47435
297.77508
297.98372
298.11232
298.1791
298.19902
298.18912
298.16129
298.10393
298.02135
297.89271
297.67345
297.52948
297.44182
297.39147
297.56159
295.23541
294.88446
294.01567
292.21868
288.79664
282.57851
280.75608
280.50999
281.02174
281.01261
281.40988
281.53256
281.88964
282.12286
282.49769
282.8361
283.27053
283.72345
284.25917
284.85717
285.54531
286.30734
287.1426
288.04632
289.02818
290.06953
291.15016
292.23788
293.29504
294.28442
295.17524
295.94772
296.59271
297.11042
297.50887
297.80008
298.00279
298.12418
298.18389
298.19959
298.19018
298.15946
298.10031
298.01499
297.87797
297.66347
297.51526
297.43857
297.38641
297.57328
295.13814
294.74755
293.82113
291.91177
288.26608
282.02652
280.60464
280.37678
280.89687
280.88037
281.28357
281.40683
281.7644
282.00272
282.38135
282.72748
283.17081
283.64156
284.20398
284.82618
285.52887
286.30271
287.14943
288.07959
289.08386
290.14808
291.2474
292.34753
293.40933
294.39527
295.27597
296.03378
296.66236
297.16422
297.54884
297.82919
298.02433
298.13748
298.1888
298.20024
298.19046
298.15761
298.09579
298.00694
297.85837
297.6394
297.50217
297.42473
297.38007
297.5908
295.03042
294.60015
293.61496
291.59084
287.69091
281.51307
280.47158
280.25713
280.78958
280.77218
281.17801
281.30614
281.66379
281.90827
282.29272
282.65177
283.11386
283.6063
284.18064
284.81435
285.52467
286.31248
287.1866
288.14105
289.1707
290.25747
291.37452
292.48511
293.54873
294.52791
295.39501
296.13492
296.74421
297.22775
297.59626
297.86464
298.04957
298.15238
298.19546
298.20236
298.19135
298.15598
298.0915
297.99834
297.83738
297.6236
297.48885
297.41756
297.3738
297.60444
294.95683
294.47895
293.4365
291.3003
287.11626
281.07307
280.37982
280.16981
280.70982
280.69397
281.09093
281.21915
281.5925
281.84573
282.2425
282.61805
283.08948
283.59153
284.17343
284.81594
285.54412
286.35504
287.25174
288.23259
289.28705
290.39607
291.52959
292.64846
293.71095
294.68002
295.53013
296.24899
296.83626
297.29908
297.64926
297.90503
298.07747
298.16864
298.20407
298.20597
298.19275
298.15458
298.08698
297.98863
297.81423
297.60537
297.47711
297.40906
297.36758
297.61738
294.88382
294.36377
293.26517
291.02042
286.52633
280.69406
280.30918
280.10534
280.63568
280.62867
281.03158
281.17281
281.55484
281.81877
282.22124
282.60475
283.08157
283.591
284.18275
284.8446
285.59191
286.42522
287.34785
288.35491
289.43471
290.56528
291.71365
292.83821
293.89625
294.85159
295.68119
296.37588
296.93847
297.37819
297.70807
297.95056
298.10814
298.18635
298.21284
298.211
298.19478
298.15339
298.08237
297.9779
297.78963
297.58858
297.46648
297.40255
297.36198
297.62788
294.8286
294.26078
293.10387
290.75456
285.93024
280.36815
280.27166
280.04982
280.59896
280.58705
281.0087
281.149
281.53898
281.80951
282.21503
282.60479
283.08789
283.61248
284.22022
284.90015
285.66864
286.52651
287.47485
288.50885
289.61374
290.76489
291.92612
293.05342
294.10344
295.04132
295.8469
296.51439
297.04967
297.464
297.77248
298.0003
298.14094
298.20516
298.2228
298.21737
298.19747
298.15232
298.07747
297.96588
297.76346
297.57126
297.45661
297.39701
297.3576
297.63674
294.78918
294.1721
292.95306
290.50345
285.33817
280.11258
280.25873
280.04593
280.59123
280.59028
281.00501
281.1517
281.53621
281.81258
282.22367
282.6261
283.12102
283.66039
284.28389
284.98444
285.77515
286.65828
287.63362
288.69478
289.8245
290.99495
292.16665
293.2934
294.33157
295.24815
296.02623
296.66355
297.16894
297.55574
297.84301
298.05329
298.17531
298.22513
298.23434
298.22479
298.20067
298.15137
298.07211
297.9523
297.73644
297.554
297.44728
297.3928
297.35451
297.64445
294.76294
294.09027
292.80243
290.25409
284.75087
279.91755
280.25972
280.03285
280.59297
280.5853
281.01411
281.16742
281.552
281.8394
282.25823
282.67271
283.17875
283.73473
284.37578
285.09764
285.91193
286.82154
287.82448
288.91308
290.06704
291.25513
292.43453
293.55708
294.57937
295.47074
296.21789
296.82213
297.29509
297.65265
297.91945
298.10861
298.21061
298.24523
298.24781
298.23291
298.20414
298.15046
298.06605
297.93665
297.70963
297.53669
297.43793
297.3891
297.35262
297.65189
294.74127
294.01041
292.64723
289.99832
284.17958
279.77661
280.27459
280.04293
280.60703
280.59797
281.04291
281.20233
281.59378
281.89031
282.31641
282.74422
283.26292
283.83625
284.49582
285.24035
286.07938
287.01637
288.04766
289.1637
290.34105
291.54476
292.7287
293.84309
294.84532
295.70758
296.42042
296.98871
297.42691
297.75441
298.0007
298.16554
298.24635
298.26669
298.26277
298.24173
298.20798
298.14949
298.05908
297.91846
297.68441
297.51977
297.42815
297.38559
297.35154
297.65968
294.73902
293.94652
292.4975
289.73729
283.64412
279.69569
280.31034
280.08602
280.64371
280.65117
281.09066
281.26137
281.65732
281.96462
282.39913
282.84112
283.37334
283.96524
284.64466
285.41292
286.27787
287.24318
288.30332
289.44665
290.6462
291.8631
293.04802
294.15003
295.1279
295.95712
296.63229
297.16183
297.5634
297.86124
298.08518
298.22299
298.28209
298.28988
298.27868
298.25115
298.21218
298.14835
298.05106
297.89766
297.6617
297.50373
297.41789
297.38131
297.35166
297.66833
294.75036
293.89359
292.34845
289.45884
283.15186
279.66266
280.36612
280.14741
280.70889
280.71945
281.16396
281.34191
281.74367
282.06278
282.50652
282.96381
283.5107
284.12213
284.82249
285.61558
286.50751
287.50193
288.59131
289.76148
290.98168
292.20893
293.39092
294.4761
295.42523
296.21747
296.85169
297.33994
297.70382
297.97336
298.17067
298.28003
298.31805
298.31532
298.29496
298.26108
298.21657
298.14694
298.04195
297.87502
297.64134
297.48907
297.40772
297.37461
297.35616
297.67808
294.78322
293.85933
292.20755
289.16108
282.71861
279.67599
280.44682
280.22873
280.79568
280.81823
281.25788
281.44571
281.85366
282.18557
282.63937
283.11272
283.67517
284.30708
285.02954
285.84849
286.76846
287.79271
288.91154
290.10784
291.34676
292.58108
293.75589
294.81957
295.73542
296.48671
297.07684
297.52183
297.8479
298.08964
298.25535
298.33604
298.35544
298.34178
298.31163
298.27143
298.22129
298.14514
298.03175
297.85173
297.62236
297.47585
297.39863
297.36785
297.36519
297.68902
294.82795
293.83748
292.07137
288.83286
282.34724
279.73256
280.54847
280.32881
280.90614
280.93076
281.3756
281.57364
281.98813
282.33347
282.79783
283.28794
283.86687
284.52012
285.26577
286.11158
287.06055
288.11523
289.26352
290.48492
291.74019
292.9779
294.14093
295.17824
296.05616
296.76264
297.306
297.70655
297.99557
298.20713
298.33824
298.39101
298.39512
298.36843
298.32846
298.28207
298.22639
298.14287
298.02053
297.82791
297.60441
297.46392
297.39099
297.36191
297.3792
297.70095
294.88951
293.83534
291.95078
288.47597
282.0497
279.82855
280.67448
280.45395
281.04051
281.06801
281.51722
281.72604
282.14703
282.50625
282.98173
283.48926
284.0856
284.76112
285.5311
286.4048
287.38374
288.46937
289.64691
290.89201
292.16084
293.39783
294.54416
295.54991
296.38519
297.04329
297.53786
297.89365
298.14627
298.32285
298.41858
298.44665
298.4357
298.395
298.34534
298.29282
298.23168
298.14002
298.0083
297.80339
297.58739
297.45365
297.38534
297.35931
297.39779
297.71359
294.97159
293.85501
291.85032
288.09121
281.8347
279.93502
280.82383
280.60271
281.19587
281.22838
281.68181
281.90189
282.3296
282.70335
283.19063
283.71639
284.33114
285.02988
285.82534
286.72795
287.73773
288.85465
290.06094
291.32797
292.6071
293.83882
294.96314
295.93193
296.72001
297.3269
297.77147
298.08257
298.2976
298.43465
298.49645
298.50414
298.47599
298.42126
298.3621
298.30342
298.23668
298.13647
297.99502
297.77801
297.57127
297.44534
297.38195
297.35741
297.41973
297.72652
295.06909
293.89096
291.7661
287.67436
281.68582
280.0989
280.9949
280.7726
281.36926
281.41059
281.86822
282.10041
282.53528
282.92431
283.42424
283.96898
284.60326
285.32625
286.1484
287.08095
288.12239
289.27082
290.50506
291.7918
293.07749
294.29895
295.3955
296.32175
297.05865
297.61245
298.00623
298.27211
298.44559
298.54219
298.57385
298.56201
298.5155
298.44705
298.37865
298.31362
298.2407
298.13203
297.98039
297.75195
297.556
297.43842
297.38021
297.35599
297.4444
297.73939
295.18362
293.94503
291.69998
287.23166
281.60781
280.28596
281.18223
280.96286
281.5639
281.61401
282.07597
282.32115
282.76368
283.16878
283.6822
284.24684
284.90176
285.65003
286.50009
287.46355
288.53736
289.71724
290.97828
292.28204
293.57004
294.77567
295.83833
296.71676
297.39958
297.89915
298.24091
298.45939
298.58772
298.64582
298.65211
298.61865
298.55397
298.47221
298.39492
298.32328
298.24287
298.12646
297.96381
297.72567
297.54159
297.43232
297.37925
297.35465
297.46981
297.75188
295.31229
294.01129
291.64617
286.77203
281.59798
280.47597
281.38779
281.17332
281.77821
281.83848
282.30486
282.56385
283.01456
283.43645
283.9643
284.54966
285.22646
286.00115
286.88035
287.87572
288.98247
290.19351
291.47981
292.79741
294.08287
295.26652
296.28896
297.11514
297.74215
298.18592
298.47302
298.64049
298.72397
298.74802
298.72925
298.67361
298.59115
298.49664
298.41092
298.33257
298.24421
298.11946
297.94439
297.69983
297.52801
297.42692
297.37902
297.35385
297.49686
297.76382
295.4576
294.09122
291.60139
286.29525
281.65306
280.69475
281.61306
281.40403
282.01259
282.08379
282.5546
282.82818
283.28758
283.72704
284.2703
284.87739
285.5773
286.37951
287.28903
288.31719
289.45724
290.69886
292.00839
293.33608
294.61348
295.76849
296.74466
297.51567
298.08544
298.4698
298.69831
298.81429
298.85574
298.84912
298.80383
298.7265
298.62682
298.52022
298.42665
298.34183
298.24502
298.11085
297.92121
297.67534
297.51532
297.42325
297.38101
297.35586
297.52497
297.77513
295.62178
294.18531
291.56262
285.82801
281.76996
280.93183
281.85712
281.65454
282.2664
282.34948
282.82479
283.11377
283.58252
284.04034
284.60013
285.22988
285.95422
286.78513
287.72616
288.78787
289.96142
291.23269
292.56299
293.89635
295.15945
296.27882
297.20364
297.91788
298.42719
298.74618
298.91476
298.98131
298.98534
298.9465
298.87558
298.77705
298.66083
298.54284
298.44211
298.35135
298.24553
298.10064
297.89422
297.6534
297.50379
297.42124
297.38526
297.36251
297.55323
297.78608
295.80218
294.29046
291.52184
285.37779
281.94096
281.18928
282.11955
281.92438
282.53921
282.63515
283.11515
283.4204
283.89928
284.37629
284.95376
285.60722
286.35725
287.21795
288.19156
289.28748
290.49445
291.79407
293.14206
294.47592
295.71775
296.79465
297.66467
298.32024
298.76212
299.01218
299.12206
299.14431
299.11004
299.04002
298.94402
298.82505
298.69304
298.56437
298.45709
298.36108
298.24573
298.08906
297.8659
297.63387
297.49425
297.42007
297.38932
297.37682
297.58088
297.79658
296.00048
294.41054
291.47642
284.96421
282.16377
281.46489
282.39965
282.21297
282.83063
282.94064
283.4256
283.74809
284.23787
284.73494
285.33124
286.00937
286.78639
287.67801
288.68524
289.81592
291.05602
292.38228
293.74421
295.07253
296.28562
297.31401
298.12728
298.71881
299.0861
299.26633
299.32296
299.3016
299.22928
299.12902
299.00891
298.87033
298.72335
298.58473
298.47129
298.37044
298.24466
298.07623
297.83704
297.61746
297.48785
297.41949
297.39219
297.40143
297.60727
297.80645
296.2088
294.54006
291.41335
284.60303
282.42968
281.75832
282.69746
282.52072
283.14103
283.26616
283.75635
284.09685
284.59839
285.1163
285.7326
286.43639
287.24165
288.16528
289.20711
290.3729
291.6455
292.9961
294.36739
295.68324
296.86006
297.83545
298.58973
299.10768
299.39587
299.51042
299.51783
299.45142
299.34251
299.21327
299.07002
298.91276
298.75171
298.60385
298.48431
298.37816
298.24217
298.06183
297.80798
297.60353
297.48465
297.42
297.39483
297.43765
297.63205
297.81564
296.43122
294.68799
291.33496
284.31654
282.72445
282.07127
283.01395
282.84788
283.47048
283.61158
284.10732
284.4666
284.98078
285.52032
286.15777
286.88823
287.72308
288.67988
289.75725
290.95838
292.26249
293.63448
295.0096
296.30531
297.43883
298.35834
299.04733
299.48256
299.69071
299.74771
299.70359
299.59358
299.44941
299.29247
299.12719
298.95225
298.77811
298.62176
298.49604
298.38194
298.23795
298.04455
297.77951
297.59052
297.48304
297.42341
297.39977
297.47599
297.65521
297.82426
296.65696
294.8458
291.22989
284.08716
283.03719
282.40164
283.34749
283.19365
283.81848
283.97672
284.4784
284.85724
285.38497
285.9469
286.60674
287.36501
288.23081
289.22195
290.33565
291.57207
292.90616
294.29574
295.6681
296.93564
298.01995
298.88111
299.49355
299.84009
299.97431
299.9755
299.87975
299.72751
299.54971
299.36646
299.18032
298.98876
298.80251
298.63851
298.50698
298.38405
298.23167
298.02234
297.75368
297.57871
297.48276
297.42991
297.40678
297.51596
297.67773
297.83246
296.88837
295.01922
291.10125
283.92009
283.37598
282.7509
283.69914
283.55854
284.18518
284.36148
284.86946
285.26858
285.8108
286.39595
287.07954
287.86685
288.76512
289.7918
290.94251
292.21384
293.5758
294.97824
296.34032
297.57174
298.60245
299.39941
299.92343
300.17953
300.24949
300.19141
300.04572
299.85303
299.64324
299.43512
299.22934
299.02228
298.82488
298.6541
298.51785
298.38511
298.22312
297.99385
297.73242
297.57156
297.48516
297.4407
297.41719
297.55556
297.69952
297.84025
297.11992
295.20171
290.9476
283.82727
283.73476
283.11732
284.06779
283.94167
284.57003
284.76542
285.28023
285.70036
286.25817
286.86751
287.57641
288.39422
289.32645
290.3897
291.57783
292.88325
294.27018
295.6796
297.02315
298.2112
299.18502
299.90613
300.33329
300.50538
300.51234
300.3951
300.20119
299.96993
299.72989
299.49838
299.27424
299.05282
298.84523
298.66839
298.5289
298.38569
298.21213
297.9608
297.71397
297.56798
297.49108
297.45509
297.43418
297.59415
297.72038
297.84754
297.34765
295.39534
290.77152
283.80443
284.11249
283.50113
284.45301
284.34286
284.97289
285.18836
285.71054
286.15248
286.72722
287.36197
288.0979
288.94768
289.91534
291.0161
292.24177
293.57997
294.98802
296.39743
297.71393
298.85251
299.76466
300.39511
300.72177
300.82048
300.76063
300.58603
300.34598
300.07815
299.80963
299.55624
299.31507
299.08045
298.86364
298.68123
298.53877
298.38568
298.1981
297.92512
297.69694
297.56645
297.49929
297.46918
297.46514
297.63081
297.74007
297.8543
297.56303
295.59652
290.58039
283.86024
284.50768
283.90178
284.85524
284.76202
285.39357
285.63003
286.16035
286.62519
287.21848
287.88008
288.64478
289.52799
290.53232
291.67126
292.93423
294.30316
295.72736
297.12867
298.40985
299.49418
300.33396
300.86228
301.0931
301.12099
300.99387
300.76394
300.47997
300.17765
299.88246
299.60874
299.35188
299.10527
298.88026
298.69282
298.54455
298.38338
298.17958
297.88949
297.68102
297.56597
297.50808
297.48148
297.50731
297.66512
297.75862
297.86048
297.7728
295.80223
290.38099
283.9978
284.91907
284.31941
285.27364
285.19868
285.83181
286.09058
286.63037
287.11937
287.73305
288.42277
289.21792
290.13579
291.17796
292.35559
293.65521
295.05203
296.48614
297.87058
299.10879
300.13441
300.88606
301.3049
301.4507
301.40453
301.21161
300.92874
300.60321
300.26854
299.94851
299.656
299.3848
299.12736
298.89524
298.7039
298.54733
298.37848
298.15415
297.85794
297.6678
297.56696
297.51801
297.49307
297.55586
297.69682
297.77623
297.86627
297.97567
296.00678
290.18559
284.21228
285.34457
284.75316
285.70791
285.65321
286.28847
286.57134
287.122
287.6364
288.27199
288.991
289.81803
290.77184
291.85278
293.0693
294.40435
295.82505
297.26162
298.62019
299.80865
300.76725
301.41535
301.72582
301.79202
301.67002
301.41361
301.08038
300.71579
300.351
300.00797
299.6982
299.41397
299.1468
298.9086
298.71503
298.5485
298.37061
298.12071
297.83345
297.66074
297.57075
297.53005
297.50435
297.6052
297.72743
297.79331
297.87191
298.17071
296.20079
290.00717
284.4974
285.78504
285.20453
286.16001
286.12791
286.7658
287.07415
287.63672
288.17723
288.83607
289.58542
290.44585
291.43673
292.55734
293.8127
295.18122
296.62062
298.05113
299.37514
300.50806
301.3852
301.91784
302.12898
302.11425
301.91715
301.59985
301.21905
300.81799
300.42527
300.06105
299.73553
299.43954
299.1637
298.92038
298.72528
298.54895
298.35969
298.08329
297.81286
297.65704
297.57756
297.54509
297.52028
297.65183
297.75633
297.81002
297.8776
298.36092
296.37624
289.86155
284.84471
286.24431
285.67752
286.63262
286.62509
287.26541
287.5998
288.17502
288.74225
289.42577
290.20672
291.10206
292.13129
293.29216
294.5858
295.9848
297.43632
298.85149
300.13276
301.20377
301.98046
302.39315
302.51477
302.41526
302.14561
301.77037
301.34496
300.91008
300.49159
300.10788
299.76811
299.46156
299.17818
298.93093
298.73161
298.54889
298.3449
298.04437
297.79488
297.65535
297.5865
297.56219
297.54284
297.69246
297.78243
297.82641
297.88417
298.55739
296.53434
289.76757
285.21285
286.72456
286.17369
287.12684
287.1445
287.78691
288.14787
288.73687
289.33179
290.04173
290.85572
291.78762
292.85622
294.05779
295.38858
296.81391
298.26966
299.66003
300.89093
301.88795
302.54854
302.84562
302.8796
302.69495
302.35547
301.92547
301.45851
300.99238
300.55007
300.14845
299.79591
299.48011
299.19061
298.94106
298.73438
298.54639
298.3244
298.00679
297.77916
297.65481
297.59581
297.57642
297.57824
297.72459
297.80504
297.84268
297.89275
298.76526
296.66688
289.73354
285.62798
287.22313
286.68957
287.64004
287.68429
288.3296
288.71834
289.32284
289.94667
290.68501
291.53354
292.50351
293.61247
294.85465
296.22052
297.66661
299.1175
300.47371
301.64703
302.55223
303.08516
303.27919
303.2202
302.95287
302.54683
302.06549
301.56009
301.06511
300.6007
300.1828
299.81903
299.49549
299.20167
298.95065
298.73536
298.54067
298.29572
297.97311
297.76609
297.65591
297.60497
297.58878
297.61467
297.75242
297.82443
297.85752
297.90355
298.98033
296.76119
289.76367
286.15286
287.73671
287.22414
288.17217
288.24539
288.8944
289.31246
289.93407
290.58821
291.35684
292.24142
293.25085
294.40076
295.68306
297.0809
298.54077
299.97701
301.28994
302.39637
303.18945
303.59375
303.69007
303.53633
303.18919
302.72014
302.19098
301.65009
301.12842
300.64372
300.21153
299.83816
299.5086
299.2122
298.95737
298.73559
298.53133
298.2584
297.94478
297.75497
297.65802
297.61407
297.59939
297.6509
297.77758
297.84222
297.87168
297.9143
299.20534
296.81454
289.86408
286.66059
288.26948
287.78055
288.72573
288.8296
289.48304
289.93149
290.57205
291.25775
292.05866
292.98065
294.03066
295.22196
296.54297
297.96829
299.43343
300.84498
302.10581
303.12996
303.79419
304.07793
304.07515
303.82739
303.40401
302.87581
302.30238
301.72876
301.18262
300.68011
300.23616
299.85473
299.5206
299.22187
298.96011
298.73546
298.51865
298.21756
297.91952
297.7458
297.6609
297.62349
297.60762
297.68456
297.80096
297.85878
297.88491
297.92444
299.44517
296.83325
290.04314
287.18794
288.82327
288.36017
289.3016
289.43803
290.09673
290.57682
291.23826
291.95687
292.79182
293.75252
294.84402
296.0765
297.43406
298.88089
300.34166
301.7184
302.91834
303.83929
304.36489
304.53894
304.43203
304.09359
303.59789
303.01454
302.40019
301.79645
301.22853
300.71168
300.25825
299.86982
299.53148
299.22813
298.9613
298.73391
298.50238
298.17523
297.89836
297.741
297.66508
297.63395
297.61626
297.71632
297.82244
297.87404
297.89713
297.93376
299.6988
296.81829
290.29906
287.75063
289.39834
288.96374
289.9009
290.07204
290.73709
291.25002
291.93435
292.68704
293.55775
294.5582
295.6918
296.9649
298.35543
299.81618
301.26201
302.59362
303.72027
304.51666
304.9051
304.97242
304.76054
304.33503
303.77134
303.13683
302.48476
301.8538
301.26772
300.73997
300.2771
299.88191
299.53872
299.23089
298.96169
298.72998
298.48125
298.13431
297.88043
297.73839
297.67095
297.64596
297.62619
297.74588
297.84189
297.88792
297.90829
297.94221
299.9628
296.78316
290.63236
288.34086
289.99601
289.59314
290.52531
290.73333
291.40588
291.9527
292.66179
293.44972
294.35769
295.39892
296.57495
297.88713
299.30577
300.77134
302.19141
303.46757
304.50215
305.15669
305.41965
305.3749
305.06058
304.55234
303.92513
303.24329
302.55672
301.90227
301.30202
300.76388
300.28843
299.88694
299.54176
299.23248
298.96168
298.72263
298.45262
298.09776
297.86537
297.73727
297.67789
297.65859
297.64055
297.77252
297.85928
297.90045
297.91837
297.94982
300.24331
296.7371
291.03468
288.96157
290.61784
290.2502
291.17672
291.42343
292.10469
292.68617
293.42192
294.24622
295.19304
296.2759
297.49425
298.84304
300.28298
301.74284
303.12596
304.33569
305.25404
305.76025
305.90528
305.74527
305.33233
304.74609
304.05986
303.33442
302.61719
301.94383
301.33183
300.77844
300.29251
299.88876
299.54322
299.23333
298.96069
298.7115
298.41482
298.06751
297.85287
297.7373
297.68506
297.67011
297.66481
297.79516
297.87486
297.91182
297.92755
297.95667
300.5528
296.6848
291.50043
289.61294
291.26548
290.93656
291.85625
292.14336
292.83462
293.45156
294.21603
295.07804
296.06523
297.1905
298.45032
299.83159
301.28448
302.72727
304.06165
305.18908
305.96887
306.33145
306.35844
306.0834
305.5764
304.91716
304.17628
303.41125
302.66819
301.97993
301.35411
300.78432
300.29334
299.88882
299.54386
299.23381
298.95843
298.69725
298.37268
298.03981
297.84255
297.73926
297.6928
297.68122
297.69245
297.81683
297.88925
297.92218
297.93591
297.96289
300.89841
296.64095
292.02809
290.29467
291.93892
291.65255
292.56497
292.89375
293.59671
294.25028
295.04579
295.94706
296.97604
298.14401
299.44337
300.85143
302.3069
303.72061
304.994
306.01692
306.64189
306.87301
306.77525
306.38934
305.7934
305.06626
304.27522
303.47551
302.71184
302.00914
301.36415
300.78621
300.29266
299.88786
299.54387
299.23388
298.95491
298.68039
298.32768
298.01453
297.83378
297.74222
297.70118
297.69138
297.72192
297.83741
297.90255
297.93155
297.94345
297.96836
301.27722
296.60399
292.60744
291.00601
292.63793
292.399
293.30321
293.67581
294.39286
295.08432
295.91357
296.85546
297.92737
299.13757
300.47309
301.90003
303.34658
304.7186
305.91711
306.80867
307.27622
307.37997
307.15598
306.6637
305.98431
305.19437
304.35823
303.52972
302.74858
302.02643
301.36845
300.78618
300.29027
299.88556
299.54308
299.23313
298.94965
298.65966
298.28231
297.99218
297.82702
297.74613
297.71103
297.70075
297.75048
297.85698
297.91478
297.94
297.9502
297.97291
301.69457
296.59832
293.2434
291.75277
293.36424
293.17666
294.07353
294.49194
295.22578
295.95661
296.82198
297.80577
298.92105
300.17192
301.53833
302.97446
304.39924
305.71584
306.81901
307.55686
307.87629
307.84799
307.50018
306.9071
306.15
305.30264
304.42749
303.57564
302.77496
302.03412
301.36974
300.78357
300.28521
299.88166
299.54141
299.23164
298.94185
298.6313
298.23984
297.9736
297.82369
297.751
297.72172
297.70957
297.77894
297.8751
297.92585
297.94754
297.95619
297.9768
302.16702
296.64859
293.91238
292.53007
294.12132
293.98896
294.87896
295.34545
296.0989
296.87029
297.77389
298.80037
299.95861
301.24708
302.63704
304.07055
305.46024
306.70688
307.68866
308.26005
308.44049
308.27536
307.80857
307.12063
306.29177
305.39312
304.48553
303.61194
302.78731
302.03702
301.36851
300.77769
300.27811
299.87654
299.53916
299.22928
298.93089
298.59303
298.20334
297.95793
297.82211
297.75726
297.73379
297.7178
297.8061
297.89138
297.93564
297.95414
297.96142
297.9802
302.69488
296.72816
294.62792
293.33901
294.91381
294.84117
295.72403
296.23963
297.01567
297.82852
298.77203
299.84137
301.04097
302.3622
303.7661
305.18396
306.52353
307.682
308.51484
308.92165
308.9636
308.6617
308.08164
307.30531
306.41111
305.46836
304.5332
303.63277
302.79236
302.03687
301.36318
300.76907
300.26901
299.87033
299.53649
299.22608
298.91668
298.54953
298.17076
297.94457
297.82152
297.76454
297.74705
297.72821
297.83046
297.90547
297.94412
297.95993
297.9659
297.98312
303.25641
296.80639
295.41113
294.1915
295.74206
295.73537
296.61221
297.17777
297.9795
298.83454
299.81895
300.93044
302.16838
303.51536
304.92163
306.30928
307.5828
308.62836
309.29121
309.54587
309.44113
309.00749
308.32064
307.46273
306.51034
305.53087
304.56797
303.6423
302.79361
302.03263
301.35458
300.7579
300.25829
299.86331
299.53363
299.2222
298.89908
298.50246
298.14174
297.93394
297.82338
297.77198
297.7597
297.74971
297.85018
297.91746
297.95149
297.96499
297.96946
297.98532
303.87312
296.9205
296.23106
295.09133
296.61148
296.6751
297.548
298.16376
298.99398
299.89121
300.91679
302.06858
303.34011
304.70363
306.09865
307.44058
308.6299
309.53242
310.01952
310.12579
309.87288
309.31318
308.52672
307.59478
306.59217
305.58059
304.58572
303.64588
302.79065
302.02428
301.34284
300.74452
300.24614
299.85565
299.53064
299.21753
298.87839
298.45316
298.11554
297.9255
297.82693
297.78002
297.77245
297.77195
297.86807
297.92813
297.95774
297.96869
297.97216
297.98711
304.53448
297.08847
297.09649
296.04157
297.52728
297.66437
298.53514
299.20116
300.06177
301.00105
302.06685
303.25604
304.55441
305.92288
307.29142
308.56982
309.65125
310.38452
310.70486
310.65651
310.25878
309.58006
308.70176
307.70416
306.65931
305.61309
304.59353
303.64498
302.78268
302.01236
301.32842
300.72923
300.23286
299.84759
299.52756
299.21138
298.8523
298.40495
298.09246
297.91916
297.83207
297.78924
297.78436
297.79313
297.88439
297.93706
297.96244
297.97182
297.97469
297.98868
305.23888
297.35223
298.01153
297.04561
298.49388
298.7063
299.57755
300.29248
301.18526
302.16567
303.27022
304.49221
305.80833
307.16783
308.49298
309.68859
310.63246
311.18236
311.3429
311.13567
310.59929
309.80944
308.84797
307.79356
306.71176
305.62936
304.59563
303.63822
302.77056
301.99723
301.31163
300.7123
300.21865
299.83931
299.52434
299.203
298.81658
298.36259
298.07324
297.91572
297.83818
297.79894
297.79567
297.81675
297.89897
297.94492
297.96662
297.97469
297.9769
297.98985
305.97648
297.70903
298.97717
298.10771
299.51496
299.80344
300.67771
301.43992
302.36604
303.38676
304.52733
305.77569
307.09776
308.43198
309.6947
310.78419
311.56001
311.92957
311.92779
311.5633
310.89567
310.00357
308.9686
307.86554
306.7434
305.63639
304.59176
303.62644
302.75466
301.97936
301.29285
300.69403
300.20379
299.83106
299.52088
299.19198
298.77282
298.32603
298.05693
297.91366
297.84508
297.80972
297.80652
297.83838
297.91214
297.95203
297.97064
297.9772
297.97842
297.99048
306.72351
298.19014
299.99351
299.22976
300.59201
300.95655
301.83749
302.64584
303.60639
304.66596
305.83856
307.10381
308.41704
309.70757
310.88623
311.84046
312.42716
312.62604
312.45475
311.93955
311.14945
310.16502
309.06659
307.92041
306.75867
305.6369
304.58143
303.61015
302.73556
301.95914
301.27239
300.67466
300.18845
299.82302
299.51729
299.17796
298.72471
298.29317
298.04282
297.91242
297.85261
297.82113
297.81609
297.85925
297.92412
297.95878
297.97425
297.97905
297.97961
297.99082
307.45911
298.84533
301.05298
300.40932
301.72631
302.16687
303.06008
303.91452
304.90979
306.00536
307.20284
308.47231
309.75877
310.98469
312.05533
312.84049
313.23606
313.26411
312.92388
312.26576
311.36329
310.29741
309.14413
307.95236
306.76497
305.63001
304.56579
303.59006
302.71375
301.93698
301.25056
300.65447
300.17289
299.81534
299.51356
299.16194
298.67349
298.26343
298.03117
297.91294
297.86112
297.8338
297.8241
297.87849
297.93477
297.96466
297.97697
297.98034
297.98061
297.99126
308.12914
299.73332
302.16438
301.64806
302.92171
303.44032
304.35165
305.25116
306.28039
307.40578
308.61752
309.8744
311.11343
312.25075
313.18285
313.77449
313.98915
313.83721
313.33492
312.54365
311.54014
310.40402
309.20052
307.96776
306.76378
305.61632
304.54545
303.56674
302.68969
301.91322
301.22766
300.63368
300.15729
299.80816
299.50904
299.14249
298.62187
298.23696
298.02193
297.91502
297.87051
297.84761
297.83553
297.89497
297.94334
297.96903
297.97891
297.98137
297.98173
297.99175
308.73528
300.84526
303.35024
302.96235
304.19379
304.79644
305.72696
306.66007
307.7203
308.86606
310.07653
311.30072
312.46873
313.49119
314.25065
314.64226
314.67682
314.34522
313.68935
312.77634
311.68399
310.48731
309.23328
307.97341
306.75398
305.59699
304.52125
303.54082
302.66382
301.88821
301.20395
300.61254
300.14183
299.80153
299.50298
299.11457
298.57446
298.21434
298.0153
297.91864
297.87995
297.86107
297.84982
297.90824
297.95011
297.97235
297.98074
297.98255
297.98275
297.9919
309.33629
302.16844
304.62298
304.37894
305.55744
306.23186
307.16195
308.14515
309.2287
310.38122
311.57079
312.73876
313.80919
314.68492
315.24545
315.44705
315.29135
314.78754
313.98916
312.96748
311.79848
310.54523
309.24919
307.97009
306.73712
305.57279
304.49386
303.51281
302.63656
301.86224
301.1797
300.59128
300.12663
299.79525
299.49521
299.07623
298.53411
298.19558
298.01158
297.92332
297.88943
297.87394
297.86403
297.92015
297.95615
297.97549
297.98269
297.9836
297.98359
297.99219
309.98655
303.59827
305.97781
305.87708
307.0059
307.73484
308.7043
309.71025
310.80199
311.94128
313.087