/*--------------------------------*- C++ -*----------------------------------*\
  =========                 |
  \\      /  F ield         | OpenFOAM: The Open Source CFD Toolbox
   \\    /   O peration     | Website:  https://openfoam.org
    \\  /    A nd           | Version:  8
     \\/     M anipulation  |
\*---------------------------------------------------------------------------*/
FoamFile
{
    version     2.0;
    format      ascii;
    class       volVectorField;
    location    "0.189994";
    object      U;
}
// * * * * * * * * * * * * * * * * * * * * * * * * * * * * * * * * * * * * * //

dimensions      [0 1 -1 0 0 0 0];

internalField   nonuniform List<vector> 
20000
(
(201.83876 -3.1765575e-16 -9.3026727)
(236.89229 2.3172957e-16 -10.603971)
(259.79575 -1.8906959e-16 -11.778781)
(279.4087 -1.6153092e-16 -12.793049)
(296.89357 1.381461e-16 -13.80147)
(311.12349 1.1697151e-16 -14.590447)
(314.05226 -9.9485659e-17 -15.075163)
(315.04461 0 -14.589653)
(314.09258 1.0740267e-18 -15.22213)
(314.41814 5.5943259e-20 -14.423438)
(313.72744 -1.5828196e-18 -15.227235)
(313.67804 2.4788128e-18 -14.400712)
(313.01591 1.2933621e-19 -15.115628)
(312.63583 -5.8535814e-17 -14.44794)
(311.88488 4.8961172e-17 -14.949809)
(311.17955 0 -14.488332)
(310.20939 0 -14.761036)
(309.1385 -8.2203861e-19 -14.457695)
(307.83359 0 -14.536438)
(306.32131 0 -14.303476)
(304.52886 -7.471552e-18 -14.245125)
(302.40813 -1.2346595e-17 -14.072531)
(299.97216 0 -13.930568)
(297.2114 -2.0930718e-18 -13.647596)
(294.16632 1.3729916e-17 -13.294145)
(290.85942 -2.8036747e-18 -12.810032)
(287.3476 0 -12.197285)
(283.72555 3.3402245e-17 -11.431336)
(280.12308 -4.4439996e-17 -10.522692)
(276.66929 3.8040959e-17 -9.4957376)
(273.48558 0 -8.4020969)
(270.65916 0 -7.3023007)
(268.24715 -3.7190878e-17 -6.256177)
(266.26716 2.8603583e-17 -5.3092126)
(264.70838 0 -4.4839739)
(263.53711 3.3575167e-17 -3.7866206)
(262.69463 7.6049445e-17 -3.2089581)
(262.1405 -1.1878637e-18 -2.7192087)
(261.8129 -1.133913e-16 -2.2812818)
(261.66951 -2.2347146e-17 -1.8929016)
(261.61823 -1.0784155e-16 -1.5779962)
(261.62198 1.1529494e-16 -1.3225593)
(261.70191 -1.5131834e-16 -1.0714745)
(261.82351 -2.4055199e-17 -0.80268241)
(262.05392 1.8927104e-17 -0.4603527)
(262.43813 4.2489924e-19 -0.079110994)
(262.75742 7.0741032e-17 0.19277513)
(262.77174 4.8441733e-19 0.34161883)
(262.81938 5.9014649e-18 0.54511384)
(262.2765 0 0.62863145)
(202.8799 -3.184304e-19 -10.129681)
(238.05769 4.654977e-19 -11.564807)
(261.1761 0 -12.846566)
(280.92437 1.6403935e-16 -13.919758)
(298.4217 -2.8128165e-16 -15.002792)
(312.24584 -7.1863045e-20 -15.780496)
(314.51468 1.0146641e-16 -16.274043)
(315.52016 8.4035166e-17 -15.75393)
(314.5396 6.6924596e-17 -16.472147)
(314.8734 -2.3310513e-16 -15.61976)
(314.1588 9.8615442e-17 -16.498363)
(314.10773 7.8368459e-17 -15.621578)
(313.42539 -6.7260469e-17 -16.384397)
(313.03332 5.9576043e-17 -15.683619)
(312.26279 -4.3634108e-17 -16.207734)
(311.53921 -3.8807063e-17 -15.724898)
(310.54901 3.2134341e-17 -15.997543)
(309.45033 1.3357344e-17 -15.678837)
(308.10558 0 -15.753377)
(306.52271 0 -15.530625)
(304.6247 5.3316114e-17 -15.480576)
(302.41539 1.2670185e-17 -15.289227)
(299.92434 0 -15.112943)
(297.12552 3.4207161e-17 -14.793743)
(294.02427 -1.3627235e-17 -14.39213)
(290.64959 -2.2638651e-17 -13.850467)
(287.0768 5.5724311e-17 -13.163749)
(283.41111 -1.4892695e-17 -12.308268)
(279.78723 4.8365872e-17 -11.297314)
(276.33775 -1.348365e-16 -10.161058)
(273.18029 0 -8.9572657)
(270.39623 0 -7.7523239)
(268.03336 -1.3129109e-16 -6.6104498)
(266.1019 -1.445331e-17 -5.5800955)
(264.5853 0 -4.6845334)
(263.44775 0 -3.9305575)
(262.61932 -1.0209877e-16 -3.3084484)
(262.08346 -1.53064e-16 -2.7844278)
(261.78436 1.4251787e-16 -2.3215836)
(261.65651 -2.11223e-17 -1.9165835)
(261.60467 3.7428848e-16 -1.5915253)
(261.61433 -2.5260039e-16 -1.3284566)
(261.7017 1.1816886e-16 -1.0721331)
(261.831 -1.98588e-16 -0.79907886)
(262.0795 -1.8266014e-17 -0.44798366)
(262.53098 1.3540127e-17 -0.065007411)
(262.76866 -2.5178577e-16 0.19760782)
(262.83042 -7.5786694e-18 0.33819965)
(262.82829 1.7417093e-17 0.53023827)
(262.23804 -7.6799074e-17 0.59029185)
(204.23419 6.5119542e-19 -11.02277)
(239.67381 0 -12.611506)
(262.90877 -1.9762551e-16 -14.00366)
(282.7065 1.6793398e-16 -15.159859)
(300.15841 -1.1254507e-18 -16.342439)
(313.33486 -1.2143457e-16 -17.110783)
(314.93029 1.02511e-16 -17.606272)
(315.92818 -2.6684343e-18 -17.027487)
(314.91698 -2.2231101e-18 -17.802204)
(315.25726 -1.1864226e-16 -16.877324)
(314.51761 1.9769523e-16 -17.810113)
(314.46217 -8.2145739e-17 -16.878128)
(313.7615 6.000888e-17 -17.676734)
(313.35684 -5.6893553e-17 -16.942983)
(312.56827 -5.9300949e-18 -17.480272)
(311.82496 3.9473133e-17 -16.977993)
(310.80897 -6.5497838e-17 -17.250385)
(309.66654 2.7105282e-17 -16.928675)
(308.25367 0 -17.009606)
(306.59053 -5.6176993e-17 -16.799917)
(304.6289 4.6371381e-17 -16.744121)
(302.36949 -5.1064411e-17 -16.525799)
(299.82388 4.2082722e-17 -16.307323)
(296.95978 -5.1977787e-17 -15.949304)
(293.7806 2.8178126e-17 -15.500954)
(290.33206 2.3285995e-17 -14.896107)
(286.69716 -3.7386855e-17 -14.129248)
(282.99003 -1.5117762e-17 -13.177707)
(279.35054 9.7988751e-17 -12.058491)
(275.91359 2.345897e-16 -10.808485)
(272.79245 -1.5505785e-16 -9.4922028)
(270.06148 2.4219984e-17 -8.1819111)
(267.75862 1.7068641e-16 -6.9458454)
(265.88591 -2.4910843e-16 -5.8347028)
(264.4212 -1.7960684e-16 -4.8718337)
(263.3238 -3.4140991e-17 -4.0644644)
(262.52101 5.1407055e-17 -3.3999173)
(262.01504 4.4279922e-16 -2.841869)
(261.74725 0 -2.355096)
(261.63805 3.3937711e-16 -1.9356825)
(261.58687 -2.1897408e-16 -1.6016738)
(261.60668 1.6100606e-16 -1.3309258)
(261.702 2.7017149e-16 -1.069401)
(261.8424 1.9834454e-16 -0.79094413)
(262.12365 2.9160738e-16 -0.43014081)
(262.58292 1.3439903e-17 -0.048486979)
(262.80189 4.6950111e-16 0.20288677)
(262.85876 0 0.33538731)
(262.83785 -1.8836817e-16 0.51433936)
(262.20543 7.3344497e-17 0.55868785)
(205.42593 6.7863358e-16 -11.929582)
(241.07384 -2.4722093e-16 -13.662384)
(264.44124 -2.0153607e-16 -15.16121)
(284.30214 1.6990909e-16 -16.391127)
(301.72274 -1.4664606e-16 -17.669812)
(314.23665 1.2733641e-16 -18.410799)
(315.22735 0 -18.917636)
(316.23889 2.7179754e-18 -18.282634)
(315.20063 4.5365828e-18 -19.128857)
(315.55298 1.1313472e-16 -18.134279)
(314.78916 1.5779073e-19 -19.13061)
(314.72586 -1.6725109e-16 -18.148091)
(314.01531 7.8294674e-17 -18.986033)
(313.59793 0 -18.216988)
(312.78862 -1.2048189e-17 -18.767569)
(312.01613 0 -18.251572)
(310.95369 -3.3379012e-17 -18.533912)
(309.75014 1.3673804e-17 -18.226119)
(308.27232 6.8878952e-17 -18.31377)
(306.55155 -1.8863633e-17 -18.095778)
(304.55204 3.1443285e-17 -18.016919)
(302.25177 -2.5962197e-17 -17.767011)
(299.64253 0 -17.512644)
(296.69597 0 -17.119041)
(293.43735 0 -16.619012)
(289.91415 0 -15.946816)
(286.21983 -1.9227121e-17 -15.094419)
(282.47717 1.390835e-16 -14.041635)
(278.83117 -9.9248352e-17 -12.809927)
(275.41765 -1.7827302e-16 -11.443468)
(272.34454 1.409864e-16 -10.013772)
(269.67791 0 -8.5987699)
(267.44521 2.8771122e-16 -7.2702729)
(265.63999 2.8108066e-16 -6.0806104)
(264.23487 5.2097207e-16 -5.0529407)
(263.18087 0 -4.1942805)
(262.41225 3.8840415e-16 -3.4884528)
(261.94217 -2.9045013e-16 -2.8967175)
(261.70737 0 -2.3869277)
(261.61559 -3.4062765e-16 -1.9544166)
(261.56873 -3.1356448e-17 -1.6119087)
(261.59805 3.6850453e-16 -1.3332258)
(261.70211 -2.3639502e-16 -1.0665484)
(261.85589 -1.2382641e-17 -0.78193108)
(262.17511 -3.0879435e-16 -0.41215255)
(262.63238 4.4124749e-16 -0.032994531)
(262.83587 -3.269132e-16 0.20694208)
(262.88514 7.4097999e-18 0.33164263)
(262.84951 1.8527203e-16 0.4976421)
(262.17391 -4.3392213e-18 0.52483196)
(206.57447 0 -12.855359)
(242.43704 2.5397519e-16 -14.735987)
(265.9299 -2.0385927e-16 -16.347494)
(285.83838 3.1352879e-21 -17.65188)
(303.20603 0 -19.034408)
(315.01275 -3.929808e-18 -19.734873)
(315.43854 2.1246457e-16 -20.258015)
(316.46876 -1.7667501e-16 -19.55787)
(315.3953 1.4760955e-16 -20.47669)
(315.76139 -1.1488218e-16 -19.407207)
(314.96123 0 -20.467544)
(314.89332 8.5127098e-17 -19.435134)
(314.17735 -7.0760727e-17 -20.312037)
(313.74214 0 -19.510419)
(312.89907 3.6772367e-17 -20.08066)
(312.08312 -2.037744e-17 -19.568913)
(310.97145 3.3950089e-17 -19.866432)
(309.71871 -5.6167267e-17 -19.5565)
(308.20514 4.6651251e-17 -19.631817)
(306.45094 0 -19.396446)
(304.40934 -3.1962196e-17 -19.29203)
(302.04997 0 -19.020721)
(299.3594 0 -18.734321)
(296.3288 0 -18.299891)
(292.98684 0 -17.743659)
(289.38915 -2.4034121e-17 -16.998291)
(285.63857 1.74713e-16 -16.054134)
(281.86694 2.5014005e-19 -14.8942)
(278.22409 2.2700761e-16 -13.545334)
(274.84545 -1.9953252e-17 -12.059639)
(271.83243 0 -10.515835)
(269.24157 -2.2447247e-16 -8.9972402)
(267.08927 -6.2024201e-16 -7.578686)
(265.36062 1.4894347e-17 -6.313424)
(264.02345 -3.6535382e-16 -5.2243506)
(263.01569 0 -4.3168877)
(262.29099 -3.9083441e-16 -3.5712862)
(261.86339 -1.945767e-17 -2.9469515)
(261.663 0 -2.4156306)
(261.5869 0 -1.9713858)
(261.54877 -5.3431237e-16 -1.6210484)
(261.5883 4.754795e-21 -1.3344934)
(261.70201 -5.569247e-16 -1.0626032)
(261.87227 2.4716828e-17 -0.77088038)
(262.23245 1.8074586e-17 -0.3933542)
(262.67669 -4.3868496e-16 -0.018077131)
(262.86728 0 0.21031237)
(262.90569 0 0.32718035)
(262.86119 0 0.47724324)
(262.14705 -2.126089e-18 0.49095176)
(207.65123 0 -13.80316)
(243.72177 -2.0070395e-18 -15.833893)
(267.34029 -1.6375999e-18 -17.561296)
(287.2879 2.7841309e-18 -18.937003)
(304.57598 3.041581e-16 -20.425433)
(315.64828 -2.5561988e-16 -21.066702)
(315.54712 -6.7493422e-18 -21.611363)
(316.61183 0 -20.840115)
(315.49953 9.3722574e-18 -21.837873)
(315.87286 0 -20.6946)
(315.06358 0 -21.821735)
(314.99548 8.6561968e-17 -20.736232)
(314.23421 1.7149459e-19 -21.656805)
(313.77354 -4.4853113e-17 -20.841614)
(312.89494 -2.4934409e-17 -21.438859)
(312.04264 2.7909663e-21 -20.919846)
(310.90186 -3.4443942e-17 -21.214023)
(309.6217 -2.8668786e-17 -20.893741)
(308.0778 -2.3787557e-17 -20.950949)
(306.27941 -3.9425882e-17 -20.703704)
(304.17699 -3.2659113e-17 -20.581848)
(301.74375 0 -20.288693)
(298.97153 8.846248e-17 -19.967891)
(295.85356 0 -19.489286)
(292.42724 0 -18.8714)
(288.75629 -2.4412688e-17 -18.046737)
(284.95402 -1.3792454e-16 -17.004234)
(281.1615 -9.5174134e-17 -15.731145)
(277.53275 -2.0380302e-16 -14.260673)
(274.20138 -4.0653836e-17 -12.653437)
(271.2609 -2.7378109e-16 -10.995445)
(268.75717 2.2655059e-16 -9.3749963)
(266.69517 3.3271395e-16 -7.8692744)
(265.05195 4.677483e-16 -6.5317261)
(263.79017 0 -5.3852228)
(262.83089 5.9328125e-16 -4.4315055)
(262.15932 -4.4583668e-16 -3.6476346)
(261.7796 6.2635035e-16 -2.9923442)
(261.61434 0 -2.4413541)
(261.55234 -6.641901e-16 -1.9866139)
(261.52646 9.9188202e-16 -1.6289592)
(261.57786 -1.1072132e-15 -1.334787)
(261.70189 5.3968457e-16 -1.0575944)
(261.8917 2.4619923e-17 -0.75787978)
(262.29455 -1.8040288e-17 -0.37414999)
(262.72092 0 -0.0042887103)
(262.89565 0 0.21285706)
(262.92401 0 0.32228417)
(262.87201 0 0.45351534)
(262.12456 -2.6559877e-16 0.4564207)
(208.67222 -1.0775752e-15 -14.771833)
(244.94691 5.2319936e-16 -16.955263)
(268.6915 0 -18.804165)
(288.67142 -3.6041445e-16 -20.248661)
(305.83567 3.1430315e-16 -21.845953)
(316.13727 -2.6022529e-16 -22.412315)
(315.61493 4.4635181e-16 -22.988435)
(316.6743 -1.8260639e-16 -22.14168)
(315.54998 -1.525986e-16 -23.226621)
(315.9238 1.2668782e-16 -22.010306)
(315.08855 1.0579564e-16 -23.209707)
(315.00783 -1.7585568e-16 -22.074148)
(314.19527 -1.8053684e-19 -23.036145)
(313.71256 -4.5879295e-17 -22.199259)
(312.81217 2.5264499e-17 -22.809598)
(311.939 -2.1153297e-17 -22.278135)
(310.77535 3.4929316e-17 -22.562352)
(309.46098 5.8150607e-17 -22.233659)
(307.87292 4.836931e-17 -22.281411)
(306.01451 -1.1968326e-16 -22.026693)
(303.84423 6.6025787e-17 -21.884917)
(301.33309 0 -21.56899)
(298.47449 -8.9769845e-17 -21.211266)
(295.26719 3.7110301e-17 -20.68386)
(291.7556 -1.2062114e-16 -19.998551)
(288.01363 -4.9260988e-17 -19.087785)
(284.16551 1.801203e-16 -17.939956)
(280.36149 0 -16.547585)
(276.75889 -2.6022789e-17 -14.951271)
(273.48787 3.7134701e-16 -13.220673)
(270.6326 -1.6700702e-17 -11.449031)
(268.22723 -2.5553955e-17 -9.7290972)
(266.26525 1.9707188e-17 -8.1396288)
(264.71614 -5.1715458e-16 -6.7336033)
(263.53489 2.316542e-17 -5.5340967)
(262.62832 -1.1241693e-15 -4.5369416)
(262.01848 2.6230272e-17 -3.7163754)
(261.69123 -6.2921889e-16 -3.0323506)
(261.56077 -1.4568872e-17 -2.4638338)
(261.51229 1.3533348e-15 -1.9998107)
(261.50169 4.7311257e-17 -1.6352929)
(261.56645 6.9219708e-16 -1.3339292)
(261.70209 -5.2220306e-16 -1.0513286)
(261.91465 0 -0.74277668)
(262.36102 -5.7389607e-16 -0.35471407)
(262.76433 0 0.008097383)
(262.92234 6.1714387e-16 0.21449572)
(262.93891 -4.5682621e-16 0.31715389)
(262.88149 3.4700608e-16 0.43068608)
(262.10677 2.5557475e-16 0.4215733)
(209.63133 -7.2659353e-16 -15.757763)
(246.10495 1.0662611e-15 -18.094233)
(269.97761 -8.7096932e-16 -20.070415)
(289.98756 3.7311235e-16 -21.585719)
(306.96827 -1.3178173e-21 -23.298106)
(316.48117 8.2704187e-18 -23.780317)
(315.57128 6.9845314e-18 -24.406518)
(316.68717 0 -23.479971)
(315.50747 -9.691642e-18 -24.654527)
(315.90075 -1.611207e-17 -23.358243)
(315.01847 0 -24.623132)
(314.94003 -2.2350405e-17 -23.432519)
(314.09215 0 -24.427881)
(313.59499 -3.1058631e-17 -23.563775)
(312.67438 5.1443771e-17 -24.1792)
(311.77444 -4.2850601e-17 -23.637983)
(310.57751 -9.4393989e-20 -23.920361)
(309.21615 -1.183688e-16 -23.590737)
(307.57395 2.441999e-17 -23.626608)
(305.65176 2.0310967e-16 -23.363145)
(303.40822 -3.3412583e-17 -23.200585)
(300.81408 -1.1093481e-16 -22.8595)
(297.86601 0 -22.461271)
(294.56717 1.5015025e-16 -21.880153)
(290.97043 -3.1199173e-17 -21.121014)
(287.16077 -1.7566656e-16 -20.116836)
(283.27404 -1.6222315e-16 -18.856385)
(279.46932 0 -17.338637)
(275.90599 -2.6376815e-17 -15.61262)
(272.70896 -6.473016e-16 -13.757457)
(269.95162 2.9624843e-16 -11.873406)
(267.6556 1.7645101e-19 -10.056992)
(265.80331 -1.9903771e-17 -8.3877306)
(264.35644 3.0745029e-17 -6.91768)
(263.25681 -2.3345539e-17 -5.6695693)
(262.4117 1.1492694e-15 -4.6321945)
(261.87074 -4.6439183e-16 -3.7767426)
(261.59941 1.9744628e-17 -3.066703)
(261.50145 0 -2.4828532)
(261.46766 -1.3564343e-15 -2.0107785)
(261.47472 4.5781647e-16 -1.6398073)
(261.55431 2.3077114e-17 -1.3317787)
(261.7032 5.383066e-16 -1.0436886)
(261.94189 0 -0.72555373)
(262.43089 1.1246114e-15 -0.3351753)
(262.80804 -8.2085508e-16 0.018747734)
(262.94743 -6.1141102e-16 0.21505792)
(262.95009 2.1440954e-20 0.31168318)
(262.88861 -3.3070353e-16 0.40658103)
(262.09242 -3.9605901e-18 0.38616909)
(210.52836 -8.2363342e-20 -16.762685)
(247.20072 -4.3809503e-18 -19.254881)
(271.205 4.4390118e-16 -21.366071)
(291.2476 -3.8356038e-16 -22.960279)
(307.97153 3.1060619e-16 -24.782262)
(316.69008 -2.7781616e-16 -25.156891)
(315.45954 2.2009303e-16 -25.841076)
(316.56427 0 -24.824742)
(315.37857 1.6756607e-16 -26.090481)
(315.75629 -9.8165229e-17 -24.714607)
(314.87424 0 -26.042001)
(314.78412 1.1368244e-16 -24.794933)
(313.93218 1.9700916e-19 -25.820979)
(313.41451 -3.1367749e-17 -24.934478)
(312.46567 5.2384201e-17 -25.561973)
(311.52913 4.3533327e-17 -25.016637)
(310.29096 3.6270274e-17 -25.293569)
(308.87909 3.0099406e-17 -24.961942)
(307.17922 4.9838928e-17 -24.985431)
(305.18786 -4.1035326e-17 -24.712547)
(302.86632 -1.7052369e-16 -24.526878)
(300.18499 8.4220451e-17 -24.157846)
(297.14378 2.3046854e-17 -23.714949)
(293.75172 -3.0472664e-16 -23.074422)
(290.07068 1.5589015e-16 -22.234436)
(286.1979 2.0332736e-16 -21.128997)
(282.28124 -3.7148474e-16 -19.748398)
(278.48798 -2.1636916e-16 -18.099329)
(274.97797 2.9895227e-19 -16.240254)
(271.86899 3.1677954e-16 -14.260035)
(269.22226 0 -12.265557)
(267.04645 0 -10.356303)
(265.31339 -6.6579182e-16 -8.6117579)
(263.97566 1.5439727e-17 -7.0829577)
(262.95567 0 -5.7902297)
(262.18469 -1.1386344e-15 -4.7161162)
(261.71852 1.6795329e-15 -3.8281982)
(261.50483 -6.347583e-16 -3.0952865)
(261.43501 9.5328106e-16 -2.498115)
(261.41971 2.1506144e-17 -2.0192694)
(261.44581 -1.0268637e-15 -1.6422877)
(261.54163 0 -1.3281834)
(261.70598 1.6780398e-17 -1.0345394)
(261.97465 7.9363102e-16 -0.70633493)
(262.50181 -6.0391505e-16 -0.31555173)
(262.85206 8.4105511e-16 0.027462564)
(262.972 0 0.21428064)
(262.9599 4.4535105e-16 0.30580209)
(262.89152 0 0.38224929)
(262.07963 0 0.3501554)
(211.39442 -7.5549317e-16 -17.791531)
(248.26234 4.3225288e-18 -20.441161)
(272.39786 0 -22.685946)
(292.47865 0 -24.356516)
(308.85429 5.0983823e-18 -26.275952)
(316.78981 8.5611923e-18 -26.5253)
(315.28911 -7.2216424e-18 -27.276772)
(316.42274 -1.1993571e-17 -26.164086)
(315.18512 -1.7028086e-16 -27.523435)
(315.5898 1.1640185e-16 -26.068985)
(314.66082 0 -27.464347)
(314.55068 9.2453253e-17 -26.172789)
(313.69489 -1.5384127e-16 -27.234866)
(313.15147 1.2798246e-16 -26.32594)
(312.17136 -7.9744788e-17 -26.959064)
(311.19625 4.4347493e-17 -26.409802)
(309.91462 -3.667031e-17 -26.680304)
(308.44783 6.1082071e-17 -26.347576)
(306.68565 -1.0137242e-16 -26.356947)
(304.62074 4.1736875e-17 -26.073236)
(302.21645 -2.9311263e-19 -25.861961)
(299.44364 0 -25.461449)
(296.30615 0 -24.969016)
(292.81964 1.5453726e-16 -24.262707)
(289.05614 3.1859089e-17 -23.334185)
(285.12618 -2.560347e-17 -22.119162)
(281.18979 6.903157e-16 -20.610761)
(277.42146 2.1854062e-16 -18.824727)
(273.97961 -2.953775e-19 -16.829878)
(270.973 2.1282535e-17 -14.724907)
(268.44947 -5.3979597e-16 -12.622756)
(266.40463 4.2118612e-16 -10.624942)
(264.79985 6.5052143e-16 -8.8102155)
(263.57571 0 -7.2286366)
(262.63419 0 -5.8950215)
(261.95045 5.7247777e-16 -4.7875623)
(261.56401 -8.5701278e-16 -3.8704261)
(261.40653 6.3695938e-16 -3.1180036)
(261.36168 1.6135652e-19 -2.5094354)
(261.36922 -6.938019e-20 -2.0249469)
(261.41518 -1.0115411e-15 -1.6425562)
(261.5287 -7.1431763e-16 -1.3229791)
(261.71123 1.0555399e-15 -1.0237254)
(262.01428 -7.7875781e-16 -0.68545016)
(262.57049 0 -0.29575767)
(262.89506 0 0.034286593)
(262.99583 1.1989875e-15 0.21194573)
(262.96793 0 0.29921665)
(262.8904 0 0.35732865)
(262.06627 -4.818819e-16 0.31265039)
(212.22326 -7.6871778e-16 -18.841868)
(249.27769 1.1311351e-15 -21.649367)
(273.53908 -4.5727457e-16 -24.031233)
(293.67032 0 -25.782164)
(309.5922 0 -27.792691)
(316.78204 -8.7046501e-18 -27.907628)
(315.04921 1.4677323e-17 -28.738149)
(316.19937 -6.2891308e-21 -27.524157)
(314.93077 1.4249984e-16 -28.977725)
(315.33471 -1.3517884e-16 -27.44021)
(314.38124 1.1291391e-16 -28.900362)
(314.26146 -9.3730306e-17 -27.562916)
(313.37466 0 -28.657142)
(312.80514 -3.2498351e-17 -27.730173)
(311.79218 0 -28.368411)
(310.77489 0 -27.817825)
(309.44594 3.7462428e-17 -28.080234)
(307.92026 -9.2886298e-17 -27.746436)
(306.09143 1.0296522e-16 -27.73993)
(303.94836 -1.2805738e-16 -27.443621)
(301.45674 1.7575259e-16 -27.203632)
(298.58846 1.1644212e-16 -26.767522)
(295.35183 2.1586027e-16 -26.220013)
(291.77034 -3.9283321e-17 -25.440796)
(287.92732 4.8312303e-17 -24.415391)
(283.94759 3.6231699e-19 -23.082035)
(280.0032 -3.8129414e-16 -21.438181)
(276.27446 -2.0757133e-19 -19.509986)
(272.91627 4.7878542e-16 -17.37741)
(270.02653 3.255652e-16 -15.148859)
(267.63878 5.4444905e-16 -12.942578)
(265.73551 -1.2753428e-15 -10.861155)
(264.26677 0 -8.9820057)
(263.15679 0 -7.3537658)
(262.29762 0 -5.9832458)
(261.71248 -1.1700368e-15 -4.8456972)
(261.40883 -8.4771073e-16 -3.9033718)
(261.3021 1.2785276e-15 -3.1345479)
(261.28351 -9.4312218e-16 -2.516742)
(261.31649 6.7057283e-16 -2.0275308)
(261.38325 1.5763054e-17 -1.6404731)
(261.51584 7.3651951e-16 -1.3159772)
(261.71962 -2.1393807e-15 -1.0110517)
(262.06153 2.4206602e-17 -0.66338483)
(262.63374 -1.7589042e-17 -0.27574384)
(262.93659 0 0.039540402)
(263.01984 -1.1870326e-15 0.20803807)
(262.97611 -8.6770813e-16 0.29197798)
(262.88684 0 0.33186391)
(262.05069 9.465112e-16 0.27484999)
(212.99911 -7.850568e-16 -19.909086)
(250.23046 -4.6474287e-18 -22.873728)
(274.61728 -3.833115e-18 -25.396962)
(294.82129 3.9912889e-16 -27.233508)
(310.17165 -3.3755579e-16 -29.323596)
(316.65458 2.8318258e-16 -29.295635)
(314.73639 -7.4545766e-18 -30.214575)
(315.9051 1.2374396e-17 -28.897032)
(314.59978 -1.2411978e-16 -30.446411)
(315.00849 1.3734404e-16 -28.825652)
(314.02346 0 -30.350609)
(313.88948 0 -28.966268)
(312.97523 7.9531519e-17 -30.09031)
(312.37553 -9.9004594e-17 -29.149203)
(311.32644 -5.5004286e-17 -29.790648)
(310.26319 0 -29.240411)
(308.88325 -3.8068896e-17 -29.492785)
(307.29455 -7.4924513e-20 -29.157667)
(305.39466 -1.8288502e-16 -29.13302)
(303.16902 2.1619711e-16 -28.821796)
(300.58563 1.0738879e-16 -28.549541)
(297.61813 -8.8589794e-17 -28.07306)
(294.28001 -1.9417589e-16 -27.464234)
(290.60383 -1.599945e-16 -26.604234)
(286.68552 0 -25.472952)
(282.66499 4.5303179e-16 -24.012187)
(278.72585 -2.1367105e-17 -22.225375)
(275.05245 -1.7406935e-17 -20.150426)
(271.79399 -4.2815926e-16 -17.879041)
(269.03584 -3.5018485e-16 -15.529008)
(266.79637 0 -13.222956)
(265.04465 1.7431778e-15 -11.063583)
(263.71733 -4.1377783e-17 -9.126475)
(262.71836 1.0301236e-15 -7.4571604)
(261.95326 8.1758472e-16 -6.0544386)
(261.47455 -3.6906336e-17 -4.890141)
(261.25311 8.3727713e-16 -3.9271535)
(261.18974 -1.2619592e-15 -3.1446015)
(261.20263 -9.45124e-16 -2.5198789)
(261.26187 0 -2.0268358)
(261.35032 1.9910299e-15 -1.6359307)
(261.5034 2.0581213e-20 -1.3070031)
(261.73154 3.3449759e-17 -0.99629621)
(262.11593 1.5321021e-15 -0.64063031)
(262.68986 1.1170738e-15 -0.25562722)
(262.97526 0 0.043690345)
(263.04417 -1.1746788e-15 0.20270191)
(262.98688 8.5631006e-16 0.28425166)
(262.87641 0 0.30588642)
(262.0317 -4.6485266e-16 0.23803621)
(213.72421 7.9839007e-16 -21.001393)
(251.12322 4.5646669e-18 -24.126291)
(275.63038 7.4768202e-18 -26.793666)
(295.9329 -4.0653363e-16 -28.720122)
(310.58783 3.4289547e-16 -30.872727)
(316.40708 0 -30.693186)
(314.35117 -2.425166e-16 -31.7076)
(315.53739 2.0105237e-16 -30.281885)
(314.19597 1.4708903e-16 -31.928474)
(314.60657 -1.3951693e-16 -30.22486)
(313.59025 -2.9123511e-17 -31.814374)
(313.43959 2.4236882e-17 -30.386013)
(312.49359 1.2116899e-16 -31.537337)
(311.86004 -1.0069227e-16 -30.58433)
(310.7719 1.1152328e-16 -31.226054)
(309.65915 0 -30.677332)
(308.22466 0 -30.917159)
(306.5691 9.6082819e-17 -30.579922)
(304.59391 -5.3089251e-17 -30.534588)
(302.28136 -2.1772363e-17 -30.205689)
(299.6019 -3.6355157e-16 -29.897113)
(296.5317 -2.1064041e-16 -29.374847)
(293.09029 -2.4848029e-17 -28.697733)
(289.32072 5.0701526e-16 -27.748314)
(285.33278 2.6582566e-16 -26.501558)
(281.28207 -8.3636812e-16 -24.904095)
(277.36289 2.8377985e-19 -22.967132)
(273.76158 -1.7437613e-17 -20.741582)
(270.61953 -4.4912965e-16 -18.331291)
(268.00787 0 -15.862867)
(265.92881 0 -13.462243)
(264.33715 -8.6524731e-16 -11.231295)
(263.15339 0 -9.2432806)
(262.26249 -3.0540417e-17 -7.537778)
(261.60867 -2.3213711e-15 -6.1082037)
(261.23949 1.1809026e-15 -4.9210487)
(261.09405 -2.711435e-17 -3.9416463)
(261.07105 2.0086484e-17 -3.1481893)
(261.12023 -1.8253871e-19 -2.5185383)
(261.20569 -2.1656801e-17 -2.022771)
(261.31638 -9.948407e-16 -1.6287709)
(261.49171 0 -1.2958971)
(261.74707 2.1265833e-15 -0.97925886)
(262.17477 -1.5374147e-15 -0.61738641)
(262.74012 -1.1276135e-15 -0.2358535)
(263.01017 1.2549123e-17 0.047186006)
(263.06713 1.1806154e-15 0.19627055)
(263.00057 -1.320301e-17 0.27449657)
(262.85322 0 0.27943487)
(262.00876 -9.0281551e-16 0.20306478)
(214.39867 8.0891818e-16 -22.109887)
(251.95372 -5.9904364e-16 -25.392074)
(276.57294 -1.5222157e-17 -28.206649)
(297.00172 -6.4657484e-18 -30.230196)
(310.83616 -1.0901942e-17 -32.427537)
(316.03794 -2.928286e-16 -32.091617)
(313.893 1.5124182e-17 -33.211402)
(315.09574 2.0420667e-16 -31.676082)
(313.71551 0 -33.423579)
(314.12587 1.7746809e-17 -31.638804)
(313.07578 2.9543759e-17 -33.293342)
(312.9054 -2.4585869e-17 -31.823174)
(311.92631 -4.094398e-17 -32.998359)
(311.25601 3.4130993e-17 -32.035548)
(310.12657 0 -32.673957)
(308.96128 1.4172094e-16 -32.127461)
(307.46901 -3.9063737e-17 -32.35207)
(305.74285 0 -32.011671)
(303.68814 -1.0804651e-16 -31.942858)
(301.28439 0 -31.593077)
(298.50469 1.8460604e-16 -31.243637)
(295.32861 2.1307113e-16 -30.669484)
(291.78276 -1.759032e-16 -29.916337)
(287.92219 -6.5855956e-16 -28.86809)
(283.87185 -5.2141428e-16 -27.495732)
(279.80329 4.099554e-16 -25.752213)
(275.92022 2.2268603e-17 -23.658381)
(272.40879 -1.7674727e-17 -21.279282)
(269.40045 4.8149904e-16 -18.731078)
(266.95018 7.1900973e-16 -16.148413)
(265.04262 -1.7515366e-17 -13.659269)
(263.61704 -2.7354217e-17 -11.363761)
(262.57581 4.204732e-17 -9.3319986)
(261.79683 -1.0429517e-15 -7.5953909)
(261.26927 2.3334318e-15 -6.1441738)
(261.00826 0 -4.9389793)
(260.92795 2.7202562e-17 -3.9463958)
(260.94977 -2.0133521e-17 -3.1455015)
(261.03681 9.1794818e-16 -2.5125492)
(261.14835 2.1669184e-17 -2.0152896)
(261.28145 0 -1.6188263)
(261.48109 1.4648633e-15 -1.2824959)
(261.76606 -2.1191222e-15 -0.95989708)
(262.2357 0 -0.59369401)
(262.78672 -1.0855123e-15 -0.216864)
(263.04104 -1.2442427e-17 0.050147179)
(263.08628 -1.7965816e-17 0.18940976)
(263.01368 1.3025081e-17 0.26156196)
(262.81704 0 0.2524991)
(261.982 8.9053095e-16 0.16892358)
(215.02838 6.4301133e-18 -23.240384)
(252.72385 0 -26.679105)
(277.44227 7.7443814e-18 -29.643455)
(298.02234 1.3144373e-17 -31.771764)
(310.91571 1.1064436e-17 -33.993981)
(315.53009 9.3033986e-18 -33.501143)
(313.35653 -2.8144288e-16 -34.735883)
(314.5742 2.0740127e-16 -33.087978)
(313.15314 1.9508548e-16 -34.937496)
(313.5611 3.0720579e-19 -33.071144)
(312.47656 -1.1998938e-16 -34.787917)
(312.28465 0 -33.277521)
(311.27163 -8.3389992e-17 -34.472068)
(310.56241 3.4526959e-17 -33.50149)
(309.38981 0 -34.132869)
(308.16907 -4.7676026e-17 -33.589401)
(306.61573 -3.9678661e-17 -33.796077)
(304.81516 -1.3237836e-16 -33.451246)
(302.67665 2.4671831e-16 -33.355951)
(300.17737 2.3024412e-17 -32.981633)
(297.29338 -1.8769483e-16 -32.586253)
(294.0086 2.1709864e-16 -31.953385)
(290.35793 2.2869646e-16 -31.115636)
(286.41003 6.690903e-16 -29.958369)
(282.30621 2.7269983e-16 -28.449831)
(278.23387 4.4575202e-16 -26.55099)
(274.40452 -2.2578317e-17 -24.294226)
(271.0019 -5.4215678e-16 -21.759685)
(268.14508 -1.4279778e-17 -19.07578)
(265.87043 -7.2442705e-16 -16.384112)
(264.14349 -5.6883102e-16 -13.813309)
(262.887 -2.7586591e-17 -11.460766)
(261.98618 -6.5751536e-16 -9.3919328)
(261.33231 1.0348344e-15 -7.6305204)
(260.93827 -1.5883384e-15 -6.1624305)
(260.77774 -1.1733318e-15 -4.9440679)
(260.75567 -8.5966397e-16 -3.9415631)
(260.82821 1.2910838e-15 -3.1363764)
(260.95305 9.7815661e-16 -2.5019475)
(261.0904 -2.1664757e-17 -2.0044279)
(261.24586 -9.7681239e-16 -1.6060135)
(261.47186 -1.4840158e-15 -1.2666593)
(261.78831 1.055564e-15 -0.93818889)
(262.29869 0 -0.56981447)
(262.83048 1.0953646e-15 -0.19892935)
(263.06763 0 0.052620629)
(263.09919 -1.1373607e-15 0.18252027)
(263.02047 0 0.24796623)
(262.76925 0 0.22563534)
(261.95205 -8.7192277e-16 0.13766391)
(215.59683 -6.5273762e-18 -24.393775)
(253.42055 0 -27.989834)
(278.22281 5.0508214e-16 -31.108312)
(298.97752 -4.2754253e-16 -33.341418)
(310.82177 0 -35.566549)
(314.90504 -3.1189031e-16 -34.923674)
(312.7349 2.8551134e-16 -36.281729)
(313.96806 -2.637383e-17 -34.516907)
(312.50615 -1.9809076e-16 -36.468192)
(312.9114 1.6454568e-16 -34.519013)
(311.79266 0 -36.2943)
(311.57777 -1.0167296e-16 -34.746169)
(310.53024 8.441967e-17 -35.95602)
(309.77976 0 -34.980471)
(308.56188 0 -35.601385)
(307.28253 0 -35.061808)
(305.66458 8.0993183e-17 -35.247851)
(303.78563 1.3404382e-16 -34.897026)
(301.55887 -1.111316e-16 -34.771995)
(298.95971 0 -34.368959)
(295.9675 -6.6495395e-19 -33.921965)
(292.57166 3.282899e-17 -33.222759)
(288.81671 -2.5691365e-17 -32.290985)
(284.78661 1.7961135e-18 -31.013754)
(280.64003 0 -29.358114)
(276.57976 -4.2157896e-16 -27.294946)
(272.82335 -2.2610762e-17 -24.870025)
(269.54966 5.8307644e-16 -22.179389)
(266.86215 0 -19.363316)
(264.77554 7.3466517e-16 -16.568908)
(263.23571 1.1290303e-15 -13.924002)
(262.14914 -1.3950832e-17 -11.5223)
(261.39025 7.2497917e-16 -9.4228292)
(260.87853 -2.0968359e-15 -7.6438174)
(260.61666 7.8532543e-16 -6.163763)
(260.5429 1.1768293e-15 -4.9358506)
(260.58192 -8.4861277e-16 -3.9277266)
(260.70743 -4.0007465e-17 -3.1207162)
(260.86955 -9.3393479e-16 -2.486815)
(261.03263 1.3637483e-15 -1.990301)
(261.2106 1.0222485e-15 -1.5903937)
(261.46446 -1.4341233e-15 -1.2483229)
(261.81379 -2.1183799e-15 -0.91413403)
(262.36415 0 -0.54606592)
(262.87162 1.6980525e-17 -0.18232123)
(263.09013 -1.2222428e-17 0.054589296)
(263.10765 1.1247954e-15 0.17554792)
(263.02077 -1.6091356e-15 0.23313855)
(262.71539 -1.8340317e-17 0.19830715)
(261.91991 6.5352709e-18 0.10467523)
(216.09945 1.6934001e-15 -25.562825)
(254.04744 -6.2649595e-16 -29.314565)
(278.91818 0 -32.593002)
(299.85808 4.2804799e-16 -34.931393)
(310.55603 -3.7728209e-16 -37.146923)
(314.28639 -1.9216917e-17 -36.357012)
(312.03277 2.4191954e-16 -37.839066)
(313.2819 -1.8716373e-16 -35.954417)
(311.77878 0 -38.009187)
(312.18043 -3.7120963e-17 -35.978411)
(311.02703 0 -37.810302)
(310.78689 -1.0327148e-16 -36.227786)
(309.70358 8.5735396e-17 -37.449099)
(308.9089 0 -36.471594)
(307.64319 0 -37.078605)
(306.30177 -4.9456284e-17 -36.543575)
(304.6154 -2.052083e-16 -36.70619)
(302.65388 0 -36.347407)
(300.33427 0 -36.189057)
(297.63081 0 -35.752526)
(294.52667 1.9344914e-16 -35.24756)
(291.01798 -2.8665001e-16 -34.473538)
(287.16042 0 -33.437445)
(283.05487 -3.6571117e-16 -32.028618)
(278.87815 1.7464609e-17 -30.214751)
(274.84777 0 -27.978706)
(271.18526 2.3196708e-17 -25.381449)
(268.06154 1.8036779e-19 -22.535516)
(265.55988 -1.4628033e-17 -19.59215)
(263.6708 -1.5054469e-15 -16.702105)
(262.32237 -5.5995024e-16 -13.991221)
(261.40707 -5.6056823e-17 -11.548453)
(260.79958 6.4419466e-17 -9.4257214)
(260.44026 2.0431514e-15 -7.6357729)
(260.30078 1.603633e-15 -6.1486126)
(260.30413 1.1630233e-15 -4.9146862)
(260.41004 1.7952544e-15 -3.9050446)
(260.58823 3.7411864e-19 -3.0986392)