/*--------------------------------*- C++ -*----------------------------------*\
  =========                 |
  \\      /  F ield         | OpenFOAM: The Open Source CFD Toolbox
   \\    /   O peration     | Website:  https://openfoam.org
    \\  /    A nd           | Version:  8
     \\/     M anipulation  |
\*---------------------------------------------------------------------------*/
FoamFile
{
    version     2.0;
    format      ascii;
    class       volVectorField;
    location    "0.189994";
    object      wallShearStress;
}
// * * * * * * * * * * * * * * * * * * * * * * * * * * * * * * * * * * * * * //

dimensions      [1 -1 -2 0 0 0 0];

internalField   uniform (0 0 0);

boundaryField
{
    aerofoil
    {
        type            calculated;
        value           nonuniform List<vector> 
300
(
(-134.0571 2.1099141e-16 8.1663049)
(-134.42056 2.1109536e-19 8.7008772)
(-136.14012 -3.954773e-19 9.3647183)
(-137.65831 -4.5486691e-16 10.036067)
(-139.16722 -8.420689e-20 10.727783)
(-140.61264 1.3170098e-21 11.438828)
(-142.02153 7.3364378e-16 12.170362)
(-143.38729 4.9719892e-16 12.919546)
(-144.70449 5.664316e-20 13.687841)
(-146.00035 5.2211097e-16 14.479187)
(-147.28105 5.3363884e-16 15.292541)
(-148.51811 5.4794522e-16 16.124358)
(-149.7218 -5.5976943e-16 16.97985)
(-150.88302 -5.699288e-16 17.8535)
(-152.0162 -4.5524244e-18 18.750627)
(-153.10524 4.7685651e-18 19.669905)
(-154.13604 -1.2088153e-15 20.606603)
(-155.11548 -6.2939362e-16 21.5653)
(-156.03584 9.7630451e-18 22.541685)
(-156.90216 -6.5038451e-16 23.539442)
(-157.70215 1.3706242e-19 24.5579)
(-158.42453 -6.7143063e-16 25.594845)
(-159.07407 6.8554369e-16 26.654119)
(-159.65265 1.3978082e-15 27.733417)
(-160.18258 1.2818419e-21 28.844239)
(-160.65916 5.690264e-18 29.980103)
(-161.11006 -1.7391745e-17 31.149802)
(-161.54264 1.1791839e-17 32.359575)
(-161.94848 1.3196703e-21 33.605833)
(-162.35723 3.8094195e-16 34.899108)
(-162.78083 1.2497384e-17 36.244469)
(-163.18871 4.0444529e-33 37.639028)
(-163.57752 4.1683079e-16 39.086515)
(-163.94185 -1.3307351e-17 40.590871)
(-164.26582 1.3477571e-17 42.152631)
(-164.50913 -4.3985389e-16 43.763955)
(-164.64208 -4.4960185e-16 45.425311)
(-164.69733 -4.5791279e-16 47.151194)
(-164.67012 -8.2563264e-19 48.947954)
(-164.56629 9.7787803e-19 50.82458)
(-164.40185 -4.8633029e-16 52.792015)
(-164.2168 4.071676e-19 54.849832)
(-163.97051 -3.9045504e-18 56.992023)
(-163.58579 -1.6125744e-17 59.208501)
(-163.00859 5.3795442e-16 61.488042)
(-162.22213 -5.2769341e-16 63.845489)
(-161.16691 -6.9644245e-18 66.280529)
(-159.81858 -3.1527152e-18 68.811982)
(-158.12137 1.2301637e-17 71.433684)
(-156.0357 -5.8677469e-16 74.105431)
(-153.55782 8.6459895e-19 76.826518)
(-150.67372 -2.1168991e-18 79.636245)
(-147.3458 5.8426633e-16 82.503728)
(-143.57064 3.2059189e-17 85.419009)
(-139.39739 -6.0585341e-16 88.363236)
(-134.93496 6.1034183e-16 91.291508)
(-130.38878 -2.0196298e-17 94.134226)
(-125.7533 3.395512e-17 96.762384)
(-120.75851 1.3970782e-19 99.040899)
(-115.18164 6.5155737e-16 100.84261)
(-108.87097 6.9632306e-16 102.01138)
(-101.79454 2.1955601e-32 102.42356)
(-93.885769 7.2703598e-16 101.82621)
(-84.991253 -1.8922116e-17 99.953557)
(-75.173667 -1.0019012e-19 96.610375)
(-64.530993 7.1818616e-16 91.374494)
(-53.3296 -7.2141234e-16 83.981053)
(-41.971476 1.1313853e-17 74.112678)
(-30.857567 -3.7593401e-16 61.618705)
(-19.841761 1.0042586e-17 46.558388)
(-10.597225 1.540744e-33 29.600434)
(-4.9859915 2.723255e-16 13.447155)
(-1.8703601 2.0240645e-16 3.5113216)
(-0.88699548 3.5787615e-17 -0.93493654)
(-1.719157 -4.0026448e-18 -9.1744349)
(-13.030121 1.7888295e-20 -2.2200244)
(-25.798276 5.8507586e-16 -1.937269)
(-28.416174 1.1391182e-21 -2.3416024)
(-32.298299 6.2188637e-16 -2.6161348)
(-35.267759 -1.2179009e-21 -2.8055203)
(-38.121117 -2.5295302e-19 -2.9762121)
(-40.654469 6.5872218e-16 -3.1132652)
(-43.002967 -9.6128825e-26 -3.2290239)
(-45.166122 -9.6296497e-35 -3.3239249)
(-47.183049 -3.4078265e-16 -3.4031546)
(-49.07402 1.5991982e-19 -3.4678175)
(-50.853493 8.875974e-20 -3.5195987)
(-52.532094 9.6069819e-23 -3.5607319)
(-54.123718 3.5096685e-16 -3.5923909)
(-55.6391 1.6423477e-21 -3.6148104)
(-57.085412 1.1156862e-25 -3.6297718)
(-58.473373 -2.5318597e-19 -3.6379961)
(-59.807101 -2.5945928e-19 -3.6394841)
(-61.094267 -2.5621677e-19 -3.6356033)
(-62.347222 2.6121886e-19 -3.6264316)
(-63.570663 -1.3792439e-21 -3.6130102)
(-64.767681 -2.358819e-25 -3.5948434)
(-65.935648 -7.2609793e-16 -3.5729566)
(-67.080834 3.6393565e-16 -3.5462353)
(-68.204617 -7.3020845e-16 -3.5160849)
(-69.313739 3.6586712e-16 -3.4814858)
(-70.407461 -4.292493e-24 -3.4438815)
(-71.490005 3.6753566e-16 -3.401758)
(-72.556892 3.6831894e-16 -3.3563841)
(-73.612593 8.5332849e-24 -3.3064969)
(-74.654576 2.896582e-19 -3.2526581)
(-75.691408 -2.8311256e-21 -3.1963152)
(-76.733026 -3.7114728e-16 -3.1350027)
(-77.774578 -2.1938371e-19 -3.0698159)
(-78.817019 3.7213124e-16 -3.0007139)
(-79.859904 -2.5300522e-25 -2.9278733)
(-80.905351 0 -2.8504455)
(-81.952538 2.677474e-25 -2.7684505)
(-83.001883 -2.5825564e-25 -2.6811693)
(-84.052644 -2.4878692e-19 -2.5894622)
(-85.10836 3.7563637e-16 -2.4922303)
(-86.167304 1.5003416e-19 -2.389316)
(-87.230623 1.3633211e-19 -2.2804553)
(-88.300889 1.8860601e-16 -2.166207)
(-89.386237 1.8853788e-16 -2.0449215)
(-90.490586 1.6260102e-19 -1.9175322)
(-91.620107 -3.7834328e-16 -1.7832052)
(-92.770763 3.7899193e-16 -1.6415692)
(-93.941063 1.5980228e-19 -1.4924568)
(-95.133846 1.5590399e-19 -1.3361898)
(-96.349324 -1.89868e-16 -1.1706796)
(-97.574227 1.1427319e-20 -0.99490505)
(-98.797697 1.485639e-19 -0.80969291)
(-100.02211 -1.5775756e-19 -0.61319946)
(-101.25269 3.0191846e-25 -0.40469465)
(-102.49767 -9.5217977e-17 -0.18510359)
(-103.76648 -9.5147499e-17 0.045403966)
(-105.06223 5.8241277e-21 0.28483573)
(-106.38531 -4.7870386e-17 0.53159054)
(-107.73192 -1.4873151e-21 0.79628598)
(-109.10064 2.4121557e-17 1.1092239)
(-110.48821 5.8341775e-21 1.4219738)
(-111.8919 3.9253491e-19 1.7580246)
(-113.3065 -8.6705939e-20 2.1170795)
(-114.73332 -6.8221416e-20 2.4834206)
(-116.17523 1.2176214e-19 2.8514203)
(-117.64144 -1.9270839e-16 3.2466929)
(-119.14231 1.1169153e-19 3.6669275)
(-120.67787 -9.6685727e-17 4.1116482)
(-122.25157 9.6843595e-17 4.583128)
(-123.85599 -1.5949107e-33 5.0830484)
(-125.48289 -5.7777993e-20 5.611654)
(-127.13123 1.9472225e-16 6.175334)
(-128.8329 -8.7590457e-21 6.7822458)
(-131.97869 1.9482063e-16 7.5052528)
(-157.46515 2.0068926e-20 8.398)
(-159.70522 1.6945139e-16 7.8838548)
(-160.37021 1.7413961e-16 7.2659074)
(-161.08625 0 6.632706)
(-161.77441 9.1724392e-17 5.9866067)
(-162.47233 -9.3920907e-17 5.3327451)
(-163.15729 -1.0155662e-19 4.6791927)
(-163.84211 6.8116711e-20 3.9537475)
(-164.53188 2.3389241e-17 3.1621744)
(-165.23513 1.5907729e-18 2.3874758)
(-165.92145 -1.8068846e-18 1.5794775)
(-166.60252 -4.882562e-18 0.74944373)
(-167.29752 3.0890368e-17 -0.016188148)
(-167.97391 5.5558234e-17 -0.800364)
(-168.64971 5.707497e-17 -1.6160314)
(-169.32298 5.8310207e-17 -2.4579091)
(-169.98286 -2.3738135e-16 -3.3226535)
(-170.64743 1.2120325e-16 -4.2122796)
(-171.30241 -2.9340509e-19 -5.124965)
(-171.95549 -1.2627684e-16 -6.0639759)
(-172.60004 -1.2882836e-16 -7.029218)
(-173.22396 1.3149346e-16 -8.0277422)
(-173.84868 -1.3832747e-16 -9.0588447)
(-174.46249 8.5496515e-18 -10.116827)
(-175.08175 1.352163e-16 -11.210278)
(-175.66859 1.4225236e-16 -12.331755)
(-176.2361 -4.8148249e-35 -13.486362)
(-176.7881 1.4922189e-20 -14.679118)
(-177.29944 -1.6815981e-20 -15.906267)
(-177.78329 2.7564872e-33 -17.176282)
(-178.23803 -1.9259299e-34 -18.491254)
(-178.66995 -3.1938017e-16 -19.854263)
(-179.09452 -1.540744e-33 -21.269296)
(-179.53376 3.3193045e-16 -22.744466)
(-180.00379 6.7699726e-16 -24.289793)
(-180.50067 3.444288e-16 -25.90877)
(-181.0223 3.1241088e-20 -27.604184)
(-181.59692 1.2037062e-35 -29.387211)
(-182.22864 -1.0122043e-17 -31.269046)
(-182.88111 -3.6233834e-16 -33.256436)
(-183.53969 1.3263355e-18 -35.357872)
(-184.19109 -5.1180542e-20 -37.580243)
(-184.79506 -3.9072104e-16 -39.923964)
(-185.31562 4.1467175e-16 -42.395202)
(-185.7262 4.4817495e-20 -45.011093)
(-186.09837 -1.2992183e-17 -47.807333)
(-186.38272 -8.4915427e-16 -50.771668)
(-186.5736 3.0814879e-33 -53.909413)
(-186.65388 -4.2510444e-16 -57.229654)
(-186.47738 -1.3990228e-17 -60.743533)
(-185.97528 -9.1714424e-16 -64.460647)
(-185.04979 -4.6719616e-16 -68.380797)
(-183.52221 4.8271803e-16 -72.438844)
(-181.25835 -5.1132571e-16 -76.708148)
(-178.22869 2.3411163e-17 -81.231457)
(-174.33717 -1.5662058e-17 -86.023754)
(-169.5516 5.2120371e-16 -91.154093)
(-163.9118 -5.2034587e-16 -96.717095)
(-157.50165 -2.2690589e-18 -102.81898)
(-150.83427 -5.3350916e-16 -109.39343)
(-145.01196 3.756096e-19 -116.22273)
(-140.07773 5.6188754e-16 -123.17469)
(-135.22909 -3.5520056e-17 -129.93604)
(-129.51725 4.0726486e-17 -136.09093)
(-122.19606 -6.1719059e-16 -140.90599)
(-113.04695 6.3005902e-16 -144.00107)
(-102.14105 9.927106e-18 -144.96462)
(-89.152534 -9.7765776e-18 -142.88206)
(-74.443368 1.2048724e-17 -137.00744)
(-58.727281 -3.4191005e-16 -126.80232)
(-42.907029 3.3698838e-16 -111.83007)
(-28.143053 3.3017456e-16 -92.41482)
(-16.051913 1.7520924e-16 -69.840365)
(-8.2406225 -1.6437777e-16 -45.676407)
(-3.6755577 1.5142825e-21 -22.927814)
(-38.304594 5.872607e-16 6.3893974)
(-38.066837 1.4287448e-15 7.7580989)
(-42.259821 3.3965061e-19 8.5571524)
(-46.144638 5.8774718e-39 9.2490663)
(-49.410908 -1.5046065e-15 9.8064634)
(-52.348471 1.5188065e-15 10.291011)
(-54.961059 -2.6951414e-20 10.705439)
(-57.326407 2.9261707e-21 11.066329)
(-59.472659 -1.8356315e-23 11.379351)
(-61.432618 3.4071037e-19 11.653469)
(-63.230605 7.7726259e-16 11.892582)
(-64.879809 -7.7863817e-16 12.09975)
(-66.392301 -7.8000312e-16 12.27915)
(-67.785565 4.515579e-19 12.434662)
(-69.073203 7.809508e-16 12.567535)
(-70.265592 2.9866519e-21 12.681679)
(-71.378171 -1.1746755e-19 12.779542)
(-72.421913 -7.8043063e-16 12.862315)
(-73.403225 9.5951424e-21 12.932815)
(-74.326403 1.3537187e-19 12.9908)
(-75.191624 -1.4880496e-21 13.037885)
(-76.005953 7.7741504e-16 13.073775)
(-76.771812 2.7077149e-25 13.100674)
(-77.494086 2.1152285e-19 13.117524)
(-78.170083 -2.9387359e-39 13.125811)
(-78.80535 1.4693679e-39 13.124696)
(-79.401449 3.6246351e-19 13.116451)
(-79.965349 -7.6959851e-16 13.09998)
(-80.492663 7.680094e-16 13.076592)
(-80.987826 -7.6670913e-16 13.04546)
(-81.450264 -7.6442717e-16 13.007429)
(-81.892016 1.8133832e-22 12.965353)
(-82.318436 -1.5219659e-15 12.917071)
(-82.717821 7.5873344e-16 12.862431)
(-83.086842 -7.5729295e-16 12.801103)
(-83.427711 -3.5174977e-19 12.733473)
(-83.740292 2.8943012e-24 12.65882)
(-84.018596 7.1757385e-22 12.5766)
(-84.255293 7.4841639e-16 12.48548)
(-84.448334 -3.4414464e-19 12.385999)
(-84.599864 1.4869446e-15 12.277725)
(-84.711585 7.4106236e-16 12.161071)
(-84.788408 7.3845619e-16 12.036147)
(-84.829357 -1.4710704e-15 11.903594)
(-84.817297 -7.3291587e-16 11.760461)
(-84.723862 7.2970815e-16 11.6036)
(-84.519224 1.6029328e-19 11.4295)
(-84.180739 7.2284932e-16 11.23613)
(-83.70776 1.1154668e-19 11.025528)
(-83.145915 1.6047205e-19 10.803752)
(-82.579762 -7.1009526e-16 10.579125)
(-82.108457 -7.0544571e-16 10.359411)
(-81.759584 4.3779118e-20 10.143503)
(-81.33352 6.9678339e-16 9.9080549)
(-80.220731 6.9140165e-16 9.604244)
(-77.867197 1.3674533e-15 9.1726885)
(-74.334255 1.1456596e-19 8.618793)
(-69.540608 -2.3259595e-25 7.9576031)
(-63.435051 6.4040615e-16 7.1828269)
(-56.760443 -6.1786908e-16 6.3521203)
(-50.337075 8.5272918e-20 5.5779302)
(-46.305637 -5.6905787e-16 5.0232497)
(-48.920259 2.819306e-16 5.0647834)
(-61.873477 -2.8987039e-16 6.0219136)
(-84.179641 -3.0121308e-16 7.7138333)
(-108.71096 -6.1332049e-16 9.5781858)
(-128.68661 6.1487786e-16 10.997425)
(-141.62089 3.0702349e-16 11.732578)
(-148.76141 2.1213269e-21 11.891067)
(-152.50468 -6.1343179e-16 11.694147)
(-154.62883 -6.1364832e-16 11.318441)
(-155.98695 -5.0621196e-20 10.844035)
(-157.02473 -8.1178186e-20 10.313779)
(-157.94635 -3.0771759e-16 9.7422883)
(-157.06531 -1.8768997e-20 9.0240839)
)
;
    }
    inlet
    {
        type            calculated;
        value           uniform (0 0 0);
    }
    outlet
    {
        type            calculated;
        value           uniform (0 0 0);
    }
    back
    {
        type            empty;
    }
    front
    {
        type            empty;
    }
}


// ************************************************************************* //
