/*--------------------------------*- C++ -*----------------------------------*\
  =========                 |
  \\      /  F ield         | OpenFOAM: The Open Source CFD Toolbox
   \\    /   O peration     | Website:  https://openfoam.org
    \\  /    A nd           | Version:  8
     \\/     M anipulation  |
\*---------------------------------------------------------------------------*/
FoamFile
{
    version     2.0;
    format      ascii;
    class       volScalarField;
    location    "0.189994";
    object      yPlus;
}
// * * * * * * * * * * * * * * * * * * * * * * * * * * * * * * * * * * * * * //

dimensions      [0 0 0 0 0 0 0];

internalField   uniform 0;

boundaryField
{
    aerofoil
    {
        type            calculated;
        value           nonuniform List<scalar> 
300
(
132.1779
131.7405
131.59708
131.381
131.2063
131.03436
130.88409
130.75263
130.63429
130.53667
130.47075
130.41675
130.38599
130.36683
130.37033
130.3935
130.42314
130.46592
130.51431
130.57129
130.633
130.69071
130.75139
130.80524
130.8739
130.94862
131.03946
131.15669
131.29018
131.45408
131.65515
131.87977
132.12453
132.38625
132.66429
132.94372
133.20576
133.46415
133.72092
133.98108
134.25102
134.55122
134.86215
135.16891
135.43046
135.66384
135.83581
135.95136
136.00843
135.99064
135.89499
135.74966
135.54807
135.30239
135.0491
134.83713
134.75188
134.8205
134.89305
134.89981
134.70918
134.28525
133.54543
132.26782
130.31505
127.39112
123.16893
117.08978
108.36632
95.596162
77.390453
53.235416
28.051259
14.307448
43.543534
52.705247
65.001535
68.009428
72.317337
75.341819
78.134136
80.490889
82.596229
84.466964
86.156705
87.695892
89.107141
90.405685
91.609127
92.731325
93.781076
94.769352
95.702908
96.587592
97.435244
98.249727
99.036175
99.791409
100.52275
101.2295
101.91926
102.58992
103.24723
103.8861
104.51197
105.1224
105.72142
106.31819
106.90848
107.49354
108.07219
108.64621
109.21524
109.78029
110.33951
110.89658
111.44994
112.00058
112.54917
113.10135
113.65765
114.22335
114.79613
115.37488
115.95989
116.55218
117.14445
117.72851
118.30577
118.8796
119.45401
120.03541
120.6244
121.22281
121.82802
122.44136
123.05669
123.67616
124.29526
124.91507
125.53567
126.16206
126.80166
127.45403
128.12151
128.80268
129.49174
130.1908
130.90165
131.78535
124.04586
123.76083
123.26356
122.84335
122.4448
122.09323
121.76954
121.48292
121.22741
121.01299
120.82309
120.6597
120.53345
120.42735
120.3482
120.29792
120.26608
120.2628
120.27713
120.31546
120.37722
120.45188
120.55077
120.66086
120.80114
120.94991
121.10905
121.28681
121.46622
121.65718
121.85843
122.07394
122.30701
122.56429
122.8573
123.18793
123.55214
123.95977
124.41535
124.91006
125.43805
126.00251
126.58813
127.19431
127.78927
128.42911
129.08856
129.77705
130.49592
131.20241
131.88529
132.53822
133.08284
133.51281
133.85515
134.10868
134.30364
134.53971
134.89024
135.62798
137.13217
139.48294
142.43082
145.66074
148.71584
151.38018
153.58561
154.70456
154.2047
151.42683
145.26335
134.73049
119.0587
97.198328
68.943797
69.633635
79.327404
83.356341
86.847685
89.586382
91.947873
93.956168
95.707274
97.240676
98.59489
99.798916
100.87065
101.82404
102.67653
103.44208
104.13037
104.75372
105.32211
105.84019
106.3138
106.7427
107.13396
107.48746
107.80991
108.09772
108.35705
108.58608
108.79328
108.97346
109.13167
109.26559
109.38238
109.48753
109.57365
109.63775
109.68174
109.7052
109.70604
109.67894
109.62272
109.53838
109.42682
109.28892
109.12707
108.93146
108.68693
108.3745
107.98242
107.50356
106.96041
106.39094
105.85344
105.36978
104.83892
103.96918
102.3767
99.998142
96.798869
92.518185
87.525295
82.354663
78.524748
79.662247
87.241588
98.298867
107.97413
114.67491
118.70453
120.92013
122.07678
122.74287
123.20976
123.59285
123.94489
124.15043
)
;
    }
    inlet
    {
        type            calculated;
        value           uniform 0;
    }
    outlet
    {
        type            calculated;
        value           uniform 0;
    }
    back
    {
        type            empty;
    }
    front
    {
        type            empty;
    }
}


// ************************************************************************* //
