/*--------------------------------*- C++ -*----------------------------------*\
  =========                 |
  \\      /  F ield         | OpenFOAM: The Open Source CFD Toolbox
   \\    /   O peration     | Website:  https://openfoam.org
    \\  /    A nd           | Version:  8
     \\/     M anipulation  |
\*---------------------------------------------------------------------------*/
FoamFile
{
    version     2.0;
    format      ascii;
    class       volScalarField;
    location    "0.0800043";
    object      alphat;
}
// * * * * * * * * * * * * * * * * * * * * * * * * * * * * * * * * * * * * * //

dimensions      [1 -1 -1 0 0 0 0];

internalField   nonuniform List<scalar> 
20000
(
0.0010754767
0.0024836799
0.0031389069
0.0031333531
0.0023544507
0.00060555746
2.7556916e-07
5.4807503e-09
4.9764422e-09
4.9503059e-09
4.8085072e-09
4.842269e-09
4.7616167e-09
4.806131e-09
4.8031864e-09
4.8502315e-09
4.8789383e-09
4.9379231e-09
4.9969055e-09
5.0812456e-09
5.1769128e-09
5.2973765e-09
5.4358394e-09
5.6010657e-09
5.7981115e-09
6.0316593e-09
6.2898087e-09
6.5705363e-09
6.8626229e-09
7.156573e-09
7.43739e-09
7.6946674e-09
7.9203866e-09
8.1113084e-09
8.2670856e-09
8.3905577e-09
8.4864549e-09
8.5589473e-09
8.6099836e-09
8.6497141e-09
8.6857455e-09
8.710225e-09
8.7239377e-09
8.7302345e-09
8.7320808e-09
8.7204552e-09
8.6743157e-09
8.6296804e-09
8.6109305e-09
8.6103174e-09
0.001064298
0.0024275807
0.0030347336
0.0029814684
0.0021262632
0.00046754396
8.1732705e-08
5.3648316e-09
4.9061262e-09
4.8846534e-09
4.7473905e-09
4.7829656e-09
4.704079e-09
4.7495963e-09
4.7480748e-09
4.7963475e-09
4.8268433e-09
4.8877435e-09
4.9491818e-09
5.0359364e-09
5.1341332e-09
5.2571186e-09
5.3995686e-09
5.5722693e-09
5.7800733e-09
6.0239919e-09
6.2896977e-09
6.5763497e-09
6.8746997e-09
7.1718866e-09
7.4539936e-09
7.7105611e-09
7.9344085e-09
8.1228698e-09
8.2762079e-09
8.3976605e-09
8.491977e-09
8.56302e-09
8.6131227e-09
8.6533059e-09
8.6891694e-09
8.7120985e-09
8.7250225e-09
8.7316519e-09
8.7333906e-09
8.7194627e-09
8.6695254e-09
8.6301156e-09
8.6112605e-09
8.6105096e-09
0.0010517314
0.0023698635
0.0029293035
0.0028328804
0.0018976582
0.00034504793
3.0098272e-08
5.2702923e-09
4.8407723e-09
4.8232117e-09
4.6907435e-09
4.7278706e-09
4.6508024e-09
4.6970579e-09
4.697157e-09
4.7466324e-09
4.7790051e-09
4.8418094e-09
4.9054294e-09
4.9941341e-09
5.0945441e-09
5.2207212e-09
5.3696667e-09
5.5551325e-09
5.7749343e-09
6.0238699e-09
6.2947365e-09
6.5886301e-09
6.8921638e-09
7.1923355e-09
7.4749998e-09
7.7300972e-09
7.951284e-09
8.1365725e-09
8.2868709e-09
8.405862e-09
8.4982912e-09
8.5676796e-09
8.6168367e-09
8.6578719e-09
8.6935562e-09
8.7155188e-09
8.7273289e-09
8.7335288e-09
8.7357683e-09
8.7173467e-09
8.6634914e-09
8.6279993e-09
8.612472e-09
8.6106884e-09
0.0010397198
0.0023139836
0.0028234646
0.0026829989
0.0016727253
0.0002406936
1.4682145e-08
5.1869983e-09
4.7793961e-09
4.7656944e-09
4.6378436e-09
4.676597e-09
4.601394e-09
4.6485368e-09
4.6503365e-09
4.7011487e-09
4.7355132e-09
4.8001506e-09
4.8658147e-09
4.9564522e-09
5.059929e-09
5.1919257e-09
5.3524912e-09
5.5488498e-09
5.7735496e-09
6.0269566e-09
6.3077354e-09
6.6088919e-09
6.9176387e-09
7.2199692e-09
7.5022123e-09
7.7548313e-09
7.9723789e-09
8.1536302e-09
8.3001421e-09
8.4160504e-09
8.5060104e-09
8.57326e-09
8.621293e-09
8.6629504e-09
8.6975771e-09
8.7185045e-09
8.7294089e-09
8.7350586e-09
8.7371871e-09
8.7134007e-09
8.6598281e-09
8.6276172e-09
8.6127137e-09
8.6109226e-09
0.0010279128
0.0022609848
0.0027267745
0.0025357385
0.0014552966
0.00015034419
9.2130167e-09
5.1125473e-09
4.7229603e-09
4.7129594e-09
4.5895543e-09
4.629932e-09
4.5565483e-09
4.604614e-09
4.6081914e-09
4.6603424e-09
4.6965678e-09
4.762838e-09
4.8305637e-09
4.9239003e-09
5.0327596e-09
5.1751306e-09
5.34587e-09
5.5475068e-09
5.7765554e-09
6.0393805e-09
6.3285898e-09
6.6368952e-09
6.9500804e-09
7.2537905e-09
7.5346289e-09
7.7837891e-09
7.9967889e-09
8.1732265e-09
8.3153192e-09
8.4276485e-09
8.5147215e-09
8.5795338e-09
8.6263831e-09
8.6683281e-09
8.7017197e-09
8.7218151e-09
8.7319693e-09
8.7366725e-09
8.7377991e-09
8.7082193e-09
8.6567242e-09
8.6267976e-09
8.6129781e-09
8.6111524e-09
0.0010164156
0.0022092789
0.0026319261
0.0023919606
0.0012481273
7.6273094e-05
6.9829074e-09
5.044511e-09
4.6714617e-09
4.6650245e-09
4.5459188e-09
4.5879736e-09
4.5164422e-09
4.5655315e-09
4.5709359e-09
4.6243347e-09
4.6622599e-09
4.7301627e-09
4.8008543e-09
4.8991291e-09
5.0177446e-09
5.1687487e-09
5.3444616e-09
5.5496033e-09
5.7881013e-09
6.0597049e-09
6.3579816e-09
6.6730386e-09
6.9900168e-09
7.29413e-09
7.5724892e-09
7.8171516e-09
8.0246693e-09
8.1955062e-09
8.3325397e-09
8.4407714e-09
8.5245057e-09
8.5865813e-09
8.6321446e-09
8.6738289e-09
8.7057028e-09
8.7249402e-09
8.7346558e-09
8.7385845e-09
8.7380241e-09
8.7026369e-09
8.6541437e-09
8.6261818e-09
8.6130603e-09
8.611406e-09
0.0010051784
0.0021588864
0.0025392365
0.002249151
0.0010542812
2.8764476e-05
5.9728818e-09
4.983401e-09
4.6251083e-09
4.6221387e-09
4.5072569e-09
4.5510809e-09
4.4814205e-09
4.5315526e-09
4.5387402e-09
4.5933459e-09
4.6331193e-09
4.7035851e-09
4.7791869e-09
4.8863675e-09
5.0119982e-09
5.1673023e-09
5.3460886e-09
5.5603676e-09
5.8077782e-09
6.0891146e-09
6.395988e-09
6.717297e-09
7.0371721e-09
7.3406351e-09
7.6153938e-09
7.8545157e-09
8.0556483e-09
8.2201442e-09
8.3515353e-09
8.455202e-09
8.5352097e-09
8.5943481e-09
8.6385367e-09
8.6793658e-09
8.7096286e-09
8.727998e-09
8.7373394e-09
8.7411089e-09
8.7380278e-09
8.6970393e-09
8.6515912e-09
8.6254493e-09
8.6131481e-09
8.6116608e-09
0.00099415374
0.0021097616
0.0024485195
0.002106025
0.00087599969
8.2971583e-06
5.4794303e-09
4.9311935e-09
4.583857e-09
4.5843761e-09
4.473671e-09
4.5193858e-09
4.4516031e-09
4.5027532e-09
4.5117245e-09
4.5679367e-09
4.6106915e-09
4.6862395e-09
4.7696205e-09
4.8815548e-09
5.0108293e-09
5.1688998e-09
5.3562119e-09
5.5789396e-09
5.8364204e-09
6.1274432e-09
6.4428001e-09
6.7697013e-09
7.0914979e-09
7.3931495e-09
7.6631401e-09
7.8956724e-09
8.0895381e-09
8.246987e-09
8.372188e-09
8.4708461e-09
8.5467671e-09
8.6028297e-09
8.6455433e-09
8.6849108e-09
8.7134731e-09
8.7309882e-09
8.740068e-09
8.7437925e-09
8.7379579e-09
8.6916151e-09
8.649134e-09
8.6247292e-09
8.6132049e-09
8.6119101e-09
0.00098331718
0.0020619448
0.0023597753
0.0019651288
0.00071526792
2.105866e-06
5.2220806e-09
4.8845757e-09
4.5482782e-09
4.5522106e-09
4.4453928e-09
4.4929087e-09
4.4270723e-09
4.4794456e-09
4.4906467e-09
4.5497034e-09
4.5982641e-09
4.679199e-09
4.7661173e-09
4.8806811e-09
5.0129611e-09
5.1785802e-09
5.37384e-09
5.6063741e-09
5.8740917e-09
6.1750241e-09
6.4984417e-09
6.8301444e-09
7.152738e-09
7.4513385e-09
7.7153644e-09
7.9402705e-09
8.1260272e-09
8.2757755e-09
8.3942903e-09
8.487538e-09
8.5590595e-09
8.6119735e-09
8.6531514e-09
8.6906499e-09
8.7172813e-09
8.7339036e-09
8.7427677e-09
8.7464751e-09
8.7370908e-09
8.6865184e-09
8.6467558e-09
8.6240125e-09
8.6132531e-09
8.6121451e-09
0.00097306473
0.0020161838
0.0022728795
0.001823045
0.00057257539
5.4190878e-07
5.0770126e-09
4.8449207e-09
4.5186434e-09
4.5259594e-09
4.4223397e-09
4.4716076e-09
4.408289e-09
4.4627594e-09
4.4781618e-09
4.5414157e-09
4.5934341e-09
4.6769149e-09
4.7658355e-09
4.8835911e-09
5.0226674e-09
5.195471e-09
5.4000384e-09
5.6426394e-09
5.9210718e-09
6.2318634e-09
6.5628753e-09
6.898442e-09
7.2206072e-09
7.514852e-09
7.7717046e-09
7.987972e-09
8.1648243e-09
8.3062725e-09
8.4176556e-09
8.5051316e-09
8.5719824e-09
8.6216998e-09
8.6612029e-09
8.696625e-09
8.7211502e-09
8.736704e-09
8.7453072e-09
8.7489759e-09
8.735161e-09
8.6818139e-09
8.6445339e-09
8.6233322e-09
8.6132928e-09
8.61236e-09
0.00096332859
0.0019730136
0.0021890221
0.0016781967
0.00044954525
1.5973217e-07
4.9883119e-09
4.8121613e-09
4.4950899e-09
4.50566e-09
4.4053763e-09
4.4574897e-09
4.3975585e-09
4.4548228e-09
4.4731101e-09
4.5381332e-09
4.5922396e-09
4.6769561e-09
4.7699907e-09
4.8934895e-09
5.0392987e-09
5.2205409e-09
5.434767e-09
5.6880983e-09
5.9774855e-09
6.2980372e-09
6.6359954e-09
6.9743404e-09
7.2947395e-09
7.5832697e-09
7.8317389e-09
8.0383899e-09
8.2055981e-09
8.3382098e-09
8.4420731e-09
8.5234638e-09
8.5854223e-09
8.6318984e-09
8.669633e-09
8.7029232e-09
8.7252207e-09
8.73943e-09
8.7474516e-09
8.7511049e-09
8.7320377e-09
8.6775432e-09
8.6424837e-09
8.6226793e-09
8.6132746e-09
8.612551e-09
0.00095418635
0.0019322303
0.0021140603
0.0015301627
0.00034708184
5.821226e-08
4.9341748e-09
4.7849283e-09
4.4785491e-09
4.4909892e-09
4.3975735e-09
4.4471213e-09
4.3931536e-09
4.4513824e-09
4.4716303e-09
4.5374187e-09
4.5935763e-09
4.6823915e-09
4.7806112e-09
4.9100908e-09
5.0636787e-09
5.2537578e-09
5.4783669e-09
5.7428562e-09
6.043422e-09
6.3734732e-09
6.7175945e-09
7.0574967e-09
7.3747044e-09
7.6561305e-09
7.8950229e-09
8.0911272e-09
8.2480151e-09
8.3713216e-09
8.4673359e-09
8.5423789e-09
8.5992772e-09
8.6424604e-09
8.6783245e-09
8.7094505e-09
8.729582e-09
8.7422399e-09
8.7491989e-09
8.7524499e-09
8.7277336e-09
8.6736993e-09
8.6405904e-09
8.6220486e-09
8.6132212e-09
8.6127159e-09
0.00094538689
0.0018922597
0.0020399335
0.001378411
0.00025593358
2.6308514e-08
4.9070515e-09
4.7635217e-09
4.471584e-09
4.4811531e-09
4.3881049e-09
4.4355077e-09
4.3917145e-09
4.4501759e-09
4.4720035e-09
4.5403777e-09
4.6007594e-09
4.693779e-09
4.7977716e-09
4.9340137e-09
5.0958152e-09
5.2954517e-09
5.5309757e-09
5.8070997e-09
6.1189404e-09
6.4581013e-09
6.8074239e-09
7.147522e-09
7.4600247e-09
7.7329325e-09
7.9610788e-09
8.1457609e-09
8.2917238e-09
8.4053303e-09
8.4932299e-09
8.5617179e-09
8.613444e-09
8.6532878e-09
8.6871128e-09
8.7159796e-09
8.7341834e-09
8.7453322e-09
8.7508751e-09
8.7530076e-09
8.7224284e-09
8.6702304e-09
8.6388106e-09
8.62143e-09
8.6131358e-09
8.6128513e-09
0.00093715873
0.0018532866
0.0019670333
0.0012260871
0.00017609097
1.4919271e-08
4.8961808e-09
4.7504076e-09
4.4631899e-09
4.4727783e-09
4.3778989e-09
4.4262425e-09
4.3917033e-09
4.4521309e-09
4.4775159e-09
4.5489651e-09
4.6136734e-09
4.7116175e-09
4.8218741e-09
4.965311e-09
5.135977e-09
5.3457217e-09
5.5927621e-09
5.8808881e-09
6.2040179e-09
6.5517211e-09
6.9051273e-09
7.2439366e-09
7.5501639e-09
7.813137e-09
8.0294101e-09
8.2018645e-09
8.3363773e-09
8.4399658e-09
8.5195479e-09
8.5813306e-09
8.6278269e-09
8.6642823e-09
8.6958123e-09
8.7222693e-09
8.7388403e-09
8.7487718e-09
8.7529321e-09
8.7531752e-09
8.716777e-09
8.6668539e-09
8.6371059e-09
8.6208243e-09
8.6130264e-09
8.6129467e-09
0.00092937264
0.0018151733
0.001895137
0.0010800944
0.00010737554
1.0247719e-08
4.8832506e-09
4.7422321e-09
4.4537546e-09
4.4641321e-09
4.3704888e-09
4.4206533e-09
4.3962332e-09
4.4594671e-09
4.4884632e-09
4.5633977e-09
4.6328985e-09
4.7360327e-09
4.8529984e-09
5.0041845e-09
5.1842704e-09
5.4047622e-09
5.663869e-09
5.9643397e-09
6.2986304e-09
6.6541402e-09
7.0103324e-09
7.3462347e-09
7.6445539e-09
7.8961749e-09
8.0994985e-09
8.2590022e-09
8.3816285e-09
8.4749587e-09
8.5460821e-09
8.6010675e-09
8.6423302e-09
8.6753561e-09
8.7043087e-09
8.7281564e-09
8.7433335e-09
8.7523498e-09
8.7559646e-09
8.7531389e-09
8.7110013e-09
8.663543e-09
8.6354755e-09
8.620244e-09
8.6129052e-09
8.6129986e-09
0.00092165052
0.0017760841
0.0018228969
0.0009441785
5.4328964e-05
8.1114663e-09
4.879946e-09
4.7348917e-09
4.4542363e-09
4.4639708e-09
4.3725066e-09
4.423595e-09
4.4064888e-09
4.4725667e-09
4.5053863e-09
4.5838906e-09
4.6584045e-09
4.7671314e-09
4.8912564e-09
5.0507107e-09
5.2408226e-09
5.4726803e-09
5.7443946e-09
6.0574651e-09
6.402641e-09
6.7650407e-09
7.1225543e-09
7.4538257e-09
7.7425614e-09
7.9814397e-09
8.1708178e-09
8.3167533e-09
8.4271548e-09
8.5100574e-09
8.572635e-09
8.6207883e-09
8.6568641e-09
8.6864368e-09
8.7125465e-09
8.7335697e-09
8.7476085e-09
8.7561009e-09
8.7595201e-09
8.7529429e-09
8.7052717e-09
8.6603337e-09
8.6339466e-09
8.6197074e-09
8.6127827e-09
8.6130378e-09
0.00091386063
0.0017351283
0.0017494719
0.00081827591
2.2311433e-05
7.0597874e-09
4.8801653e-09
4.7308542e-09
4.4623129e-09
4.4721108e-09
4.3841112e-09
4.4369056e-09
4.4228105e-09
4.4913288e-09
4.5280288e-09
4.6103606e-09
4.6902472e-09
4.8049357e-09
4.936707e-09
5.1049996e-09
5.3057694e-09
5.5496519e-09
5.8344957e-09
6.1603387e-09
6.5159506e-09
6.8841176e-09
7.2412978e-09
7.5660901e-09
7.8435156e-09
8.0683019e-09
8.2428444e-09
8.3747134e-09
8.472652e-09
8.5450213e-09
8.5990121e-09
8.6403557e-09
8.6713442e-09
8.697462e-09
8.7205184e-09
8.7385808e-09
8.7516073e-09
8.7597665e-09
8.7632329e-09
8.7518335e-09
8.6997278e-09
8.6572948e-09
8.632555e-09
8.6192365e-09
8.6126648e-09
8.6130335e-09
0.00090608558
0.0016925324
0.0016738722
0.00070231824
7.7676168e-06
6.5024586e-09
4.8770428e-09
4.7308831e-09
4.4716574e-09
4.482755e-09
4.4003465e-09
4.455096e-09
4.4442825e-09
4.5154563e-09
4.5563567e-09
4.6427903e-09
4.7284037e-09
4.8494768e-09
4.9894093e-09
5.1671317e-09
5.3792321e-09
5.6357922e-09
5.934253e-09
6.2729064e-09
6.6383208e-09
7.0109121e-09
7.365936e-09
7.6822952e-09
7.9466788e-09
8.1561254e-09
8.3150899e-09
8.432516e-09
8.517843e-09
8.57963e-09
8.6250337e-09
8.659646e-09
8.685698e-09
8.70837e-09
8.7282468e-09
8.7435088e-09
8.7553325e-09
8.7630107e-09
8.7665371e-09
8.7498931e-09
8.6945088e-09
8.6545008e-09
8.6313239e-09
8.6188325e-09
8.6125582e-09
8.6129943e-09
0.00089802293
0.0016473418
0.0015944442
0.00059639526
2.5065388e-06
6.1856149e-09
4.8752805e-09
4.7370854e-09
4.4852459e-09
4.4996432e-09
4.4207839e-09
4.4779446e-09
4.4709207e-09
4.5449712e-09
4.5903152e-09
4.6811481e-09
4.7728777e-09
4.9007875e-09
5.0494403e-09
5.23725e-09
5.4614003e-09
5.7313184e-09
6.0438375e-09
6.3951997e-09
6.7695603e-09
7.1449874e-09
7.4958289e-09
7.8016759e-09
8.0513159e-09
8.2443255e-09
8.3871222e-09
8.4898178e-09
8.5624451e-09
8.613664e-09
8.6505296e-09
8.6785487e-09
8.6998615e-09
8.7190944e-09
8.7357363e-09
8.7485729e-09
8.7589259e-09
8.7656166e-09
8.76882e-09
8.7469252e-09
8.689751e-09
8.6520162e-09
8.6302558e-09
8.6184726e-09
8.6124551e-09
8.6129201e-09
0.00088958381
0.001599147
0.0015044345
0.00050011771
8.1699223e-07
6.0087146e-09
4.8780456e-09
4.7474649e-09
4.5029855e-09
4.5204517e-09
4.4460609e-09
4.5058551e-09
4.5026811e-09
4.5797867e-09
4.6298636e-09
4.7254135e-09
4.8236765e-09
4.9589162e-09
5.1168911e-09
5.3154907e-09
5.5524404e-09
5.8363868e-09
6.1633067e-09
6.5270905e-09
6.9092916e-09
7.2857291e-09
7.6301714e-09
7.9233818e-09
8.1567295e-09
8.3324179e-09
8.4585752e-09
8.5462871e-09
8.6061537e-09
8.6468995e-09
8.6753564e-09
8.6969829e-09
8.7137802e-09
8.7295628e-09
8.7429651e-09
8.7537659e-09
8.7625927e-09
8.7677845e-09
8.769754e-09
8.7428178e-09
8.6855703e-09
8.6498788e-09
8.6293619e-09
8.6181597e-09
8.6123556e-09
8.6128068e-09
0.00088104094
0.0015494238
0.0014076431
0.00041141338
2.8332193e-07
5.9057779e-09
4.8857548e-09
4.7629698e-09
4.5254576e-09
4.5466386e-09
4.4760826e-09
4.5385721e-09
4.5394898e-09
4.6198592e-09
4.6749731e-09
4.7755428e-09
4.8808336e-09
5.0239487e-09
5.1919231e-09
5.4020802e-09
5.6526329e-09
5.9512735e-09
6.2928433e-09
6.668537e-09
7.0571932e-09
7.4325215e-09
7.7681446e-09
8.0466263e-09
8.2623868e-09
8.4200519e-09
8.5290976e-09
8.6015551e-09
8.6486245e-09
8.6790865e-09
8.6993921e-09
8.714897e-09
8.7274007e-09
8.7396965e-09
8.7498649e-09
8.7588754e-09
8.7664563e-09
8.77016e-09
8.7700973e-09
8.7377322e-09
8.6819785e-09
8.6480887e-09
8.6286753e-09
8.6179054e-09
8.6122575e-09
8.6126501e-09
0.00087235281
0.0014983573
0.0013043944
0.00033310993
1.1160519e-07
5.8445721e-09
4.8982435e-09
4.7829254e-09
4.5523142e-09
4.5770318e-09
4.510693e-09
4.5760534e-09
4.5812932e-09
4.6651383e-09
4.7256307e-09
4.8316105e-09
4.9444124e-09
5.0960191e-09
5.2747115e-09
5.4972557e-09
5.7621989e-09
6.0761657e-09
6.4324443e-09
6.8193e-09
7.212691e-09
7.584519e-09
7.9088181e-09
8.170723e-09
8.3679351e-09
8.5069099e-09
8.5982462e-09
8.6552023e-09
8.6895417e-09
8.709988e-09
8.7225454e-09
8.7322674e-09
8.7406485e-09
8.7493982e-09
8.7563887e-09
8.7636276e-09
8.7704229e-09
8.7735497e-09
8.7701411e-09
8.7319979e-09
8.6787129e-09
8.6465844e-09
8.6282116e-09
8.6178502e-09
8.6121651e-09
8.6124465e-09
0.00086356589
0.0014458075
0.0011980963
0.00026399429
5.123461e-08
5.808692e-09
4.9151681e-09
4.8072616e-09
4.5836678e-09
4.6119374e-09
4.549856e-09
4.6182627e-09
4.628046e-09
4.7156257e-09
4.7818407e-09
4.8936609e-09
5.0145417e-09
5.1753184e-09
5.3655461e-09
5.601348e-09
5.8815317e-09
6.2113685e-09
6.582268e-09
6.9791956e-09
7.3752563e-09
7.7408997e-09
8.0513986e-09
8.2952784e-09
8.4731295e-09
8.5924625e-09
8.6653584e-09
8.7067934e-09
8.7287403e-09
8.7394605e-09
8.7447342e-09
8.7490636e-09
8.7533917e-09
8.7585495e-09
8.7625629e-09
8.7679483e-09
8.7745593e-09
8.7775966e-09
8.7700759e-09
8.7259016e-09
8.675541e-09
8.6452919e-09
8.6279302e-09
8.6178995e-09
8.6120847e-09
8.6121855e-09
0.00085473724
0.0013908563
0.0010976634
0.00020127368
2.745903e-08
5.7883779e-09
4.9365538e-09
4.8358186e-09
4.6194393e-09
4.6511601e-09
4.5935579e-09
4.6651297e-09
4.6797419e-09
4.7713061e-09
4.8436603e-09
4.9618297e-09
5.0914065e-09
5.2621027e-09
5.4647174e-09
5.7146873e-09
6.0109143e-09
6.3570566e-09
6.7422076e-09
7.1477692e-09
7.5440615e-09
7.9006855e-09
8.1952081e-09
8.4200603e-09
8.5773887e-09
8.6755561e-09
8.7297645e-09
8.7560032e-09
8.7662653e-09
8.7676259e-09
8.7658852e-09
8.7651992e-09
8.7654291e-09
8.7670303e-09
8.7685032e-09
8.7719714e-09
8.7784724e-09
8.7817238e-09
8.7691714e-09
8.7195626e-09
8.6723709e-09
8.6441313e-09
8.627791e-09
8.6180009e-09
8.6120233e-09
8.6118669e-09
0.00084655697
0.0013378906
0.00099672566
0.00014219203
1.7171708e-08
5.7789182e-09
4.9624182e-09
4.868731e-09
4.6594209e-09
4.6946842e-09
4.6417098e-09
4.7166261e-09
4.7363848e-09
4.8322495e-09
4.9112152e-09
5.0363065e-09
5.1752609e-09
5.3567067e-09
5.5726291e-09
5.8377306e-09
6.1507991e-09
6.5135498e-09
6.9122892e-09
7.3246246e-09
7.718329e-09
8.0630755e-09
8.3399235e-09
8.5447092e-09
8.679271e-09
8.7554052e-09
8.7909734e-09
8.8028477e-09
8.8022387e-09
8.7946033e-09
8.7859304e-09
8.7804732e-09
8.7765556e-09
8.7747489e-09
8.7742997e-09
8.7759592e-09
8.7817511e-09
8.7848282e-09
8.7672113e-09
8.7131049e-09
8.6691562e-09
8.6430004e-09
8.6277739e-09
8.6182109e-09
8.6119976e-09
8.6114911e-09
0.00083914799
0.0012881086
0.00089707691
9.0516927e-05
1.2279561e-08
5.7768811e-09
4.9925999e-09
4.9056114e-09
4.7034179e-09
4.7424311e-09
4.6942962e-09
4.772793e-09
4.7980594e-09
4.8985981e-09
4.9847099e-09
5.1173507e-09
5.2664338e-09
5.4594997e-09
5.6896886e-09
5.9708766e-09
6.3015012e-09
6.6809288e-09
7.0922041e-09
7.5089989e-09
7.8970413e-09
8.227334e-09
8.4853031e-09
8.667792e-09
8.777616e-09
8.8312064e-09
8.8490794e-09
8.8481319e-09
8.8362815e-09
8.8200555e-09
8.8049665e-09
8.7947682e-09
8.7867641e-09
8.7817127e-09
8.7797875e-09
8.7801406e-09
8.7843862e-09
8.7861624e-09
8.7640248e-09
8.706759e-09
8.6659538e-09
8.6417954e-09
8.6277192e-09
8.6187719e-09
8.6119837e-09
8.6110601e-09
0.00083213771
0.0012374964
0.00079965756
5.0193048e-05
9.7834215e-09
5.7812378e-09
5.0268506e-09
4.9465585e-09
4.7515769e-09
4.7944758e-09
4.7514132e-09
4.8337489e-09
4.8649484e-09
4.970573e-09
5.0644096e-09
5.2052676e-09
5.3653059e-09
5.570944e-09
5.8164191e-09
6.1146855e-09
6.4635113e-09
6.8594305e-09
7.2817443e-09
7.700214e-09
8.0793978e-09
8.3931376e-09
8.6308392e-09
8.7875646e-09
8.8712137e-09
8.9029652e-09
8.9053165e-09
8.8908414e-09
8.868362e-09
8.8439607e-09
8.8228177e-09
8.8081165e-09
8.7959876e-09
8.7880547e-09
8.7847588e-09
8.7845002e-09
8.7869691e-09
8.7866569e-09
8.7594714e-09
8.7007976e-09
8.6629323e-09
8.6406382e-09
8.6275599e-09
8.6190757e-09
8.6119187e-09
8.6105799e-09
0.00082564379
0.0011862776
0.00070603251
2.4072263e-05
8.4370421e-09
5.7915983e-09
5.0651854e-09
4.9916301e-09
4.8039239e-09
4.8509007e-09
4.8132106e-09
4.8996951e-09
4.9372816e-09
5.0484578e-09
5.150632e-09
5.3004534e-09
5.4723141e-09
5.6915164e-09
5.9533117e-09
6.2696054e-09
6.637091e-09
7.0489336e-09
7.4802646e-09
7.8972455e-09
8.2645585e-09
8.5601948e-09
8.7745264e-09
8.9026879e-09
8.9595013e-09
8.9721301e-09
8.9585849e-09
8.9310889e-09
8.898378e-09
8.8662726e-09
8.8395019e-09
8.8204552e-09
8.8042224e-09
8.7938589e-09
8.7893582e-09
8.7886871e-09
8.7903426e-09
8.7867838e-09
8.7535615e-09
8.6954725e-09
8.6602205e-09
8.6395671e-09
8.6273495e-09
8.6193084e-09
8.6118642e-09
8.6100584e-09
0.00081972047
0.0011340893
0.00061738207
1.033203e-05
7.6827584e-09
5.809296e-09
5.1076213e-09
5.0408911e-09
4.8605794e-09
4.9119215e-09
4.879962e-09
4.9708819e-09
5.0153832e-09
5.1325576e-09
5.2437461e-09
5.403321e-09
5.587959e-09
5.8217962e-09
6.1010066e-09
6.4362768e-09
6.8226922e-09
7.2494735e-09
7.6872433e-09
8.0993195e-09
8.4521086e-09
8.7279623e-09
8.9142718e-09
9.0119168e-09
9.0435765e-09
9.0382935e-09
9.008734e-09
8.9686691e-09
8.9263211e-09
8.8869832e-09
8.8549874e-09
8.8317573e-09
8.8115087e-09
8.7991125e-09
8.7937269e-09
8.7928202e-09
8.7942113e-09
8.7867848e-09
8.7464233e-09
8.6909184e-09
8.6578554e-09
8.6385998e-09
8.6271227e-09
8.619479e-09
8.6118778e-09
8.6095034e-09
0.00081475504
0.0010821658
0.00053450523
4.180334e-06
7.2483976e-09
5.8352334e-09
5.1543389e-09
5.094768e-09
4.9217436e-09
4.9778619e-09
4.9519242e-09
5.0476199e-09
5.0995225e-09
5.2232217e-09
5.3441817e-09
5.5143566e-09
5.7127815e-09
5.9623417e-09
6.2600857e-09
6.615121e-09
7.0204372e-09
7.4605652e-09
7.9017269e-09
8.3054641e-09
8.6416344e-09
8.894088e-09
9.0484428e-09
9.1147661e-09
9.1249102e-09
9.1004919e-09
9.0555954e-09
9.0036031e-09
8.9521727e-09
8.9060994e-09
8.8692687e-09
8.8419574e-09
8.8180145e-09
8.8039254e-09
8.7977508e-09
8.7966366e-09
8.7980157e-09
8.7855921e-09
8.7388975e-09
8.6867192e-09
8.6557717e-09
8.6377387e-09
8.6269063e-09
8.6196263e-09
8.6118919e-09
8.6089213e-09
0.00081083454
0.0010334179
0.00045779518
1.6825541e-06
6.9958296e-09
5.8655928e-09
5.205718e-09
5.1532023e-09
4.9879879e-09
5.0488741e-09
5.029365e-09
5.130158e-09
5.1900444e-09
5.3208862e-09
5.4523665e-09
5.6341174e-09
5.8473859e-09
6.1138777e-09
6.4312707e-09
6.8068214e-09
7.2305753e-09
7.681938e-09
8.1229775e-09
8.5151595e-09
8.832732e-09
9.0561189e-09
9.1756346e-09
9.2130481e-09
9.2021423e-09
9.1587589e-09
9.0991354e-09
9.0358609e-09
8.9759476e-09
8.9236401e-09
8.8823263e-09
8.8509748e-09
8.8239493e-09
8.8084669e-09
8.8014707e-09
8.7998577e-09
8.8002003e-09
8.7833569e-09
8.7313885e-09
8.6827765e-09
8.653893e-09
8.6369823e-09
8.6267316e-09
8.6197659e-09
8.6118615e-09
8.6083308e-09
0.00080672961
0.00097656269
0.00038715072
7.0549751e-07
6.8510105e-09
5.9015343e-09
5.2619265e-09
5.2165754e-09
5.0593224e-09
5.1251986e-09
5.1125418e-09
5.218827e-09
5.2873608e-09
5.4259773e-09
5.5688703e-09
5.7631959e-09
5.9924288e-09
6.2770646e-09
6.615197e-09
7.011692e-09
7.4529027e-09
7.9127001e-09
8.3499525e-09
8.7277788e-09
9.0230666e-09
9.2120604e-09
9.295422e-09
9.3077956e-09
9.2745525e-09
9.2129131e-09
9.1393332e-09
9.0654734e-09
8.9976769e-09
8.9396406e-09
8.894149e-09
8.8588573e-09
8.829378e-09
8.8128391e-09
8.8050992e-09
8.8025748e-09
8.8011411e-09
8.7800788e-09
8.7241895e-09
8.6790637e-09
8.6521522e-09
8.636319e-09
8.6266331e-09
8.6199064e-09
8.6117613e-09
8.6077383e-09
0.0008027971
0.00091905173
0.00032324921
3.1893957e-07
6.7722547e-09
5.9426815e-09
5.3229422e-09
5.284949e-09
5.1358836e-09
5.2071151e-09
5.2018006e-09
5.3140293e-09
5.3919414e-09
5.539012e-09
5.6942584e-09
5.9022349e-09
6.1486612e-09
6.4527472e-09
6.8126891e-09
7.2302875e-09
7.6873754e-09
8.1522585e-09
8.5820073e-09
8.9430022e-09
9.2099391e-09
9.3602361e-09
9.4096387e-09
9.3976687e-09
9.3420697e-09
9.2629626e-09
9.1762111e-09
9.0924786e-09
9.0174121e-09
8.95414e-09
8.904726e-09
8.8656779e-09
8.8343048e-09
8.8169614e-09
8.8086024e-09
8.805051e-09
8.8014966e-09
8.7758358e-09
8.7174794e-09
8.6756045e-09
8.650527e-09
8.635702e-09
8.6266386e-09
8.6200493e-09
8.6115846e-09
8.6071339e-09
0.00079860167
0.00085707044
0.00026555613
1.5919772e-07
6.7350139e-09
5.9889178e-09
5.3889473e-09
5.3586201e-09
5.2180223e-09
5.295035e-09
5.2975814e-09
5.416247e-09
5.504245e-09
5.6605797e-09
5.8291546e-09
6.051962e-09
6.3168508e-09
6.6417111e-09
7.0243247e-09
7.4626619e-09
7.9333168e-09
8.3995058e-09
8.8182219e-09
9.1590699e-09
9.3905531e-09
9.499668e-09
9.519685e-09
9.4816741e-09
9.4045605e-09
9.3089022e-09
9.2098201e-09
9.1169484e-09
9.0352251e-09
8.9671805e-09
8.9140563e-09
8.8715339e-09
8.8387354e-09
8.8206829e-09
8.8116915e-09
8.8075782e-09
8.8016413e-09
8.7706475e-09
8.7113641e-09
8.6724339e-09
8.6490527e-09
8.6351673e-09
8.6266883e-09
8.6201759e-09
8.6113303e-09
8.6065296e-09
0.00079392876
0.00079274783
0.00021402176
8.881134e-08
6.7239074e-09
6.040736e-09
5.4604625e-09
5.438033e-09
5.3062354e-09
5.389363e-09
5.4003447e-09
5.5259306e-09
5.6247652e-09
5.7912329e-09
5.9742456e-09
6.2131672e-09
6.4979345e-09
6.8449363e-09
7.2509094e-09
7.7090764e-09
8.1903187e-09
8.6538053e-09
9.0582198e-09
9.3730085e-09
9.5630487e-09
9.6321501e-09
9.6240855e-09
9.5597965e-09
9.4620349e-09
9.3507943e-09
9.2402445e-09
9.1389741e-09
9.0511912e-09
8.9787872e-09
8.9221459e-09
8.8765527e-09
8.8427327e-09
8.8240222e-09
8.8143225e-09
8.8096477e-09
8.8013687e-09
8.7645457e-09
8.7059176e-09
8.6695721e-09
8.6477333e-09
8.6347148e-09
8.6267634e-09
8.6202054e-09
8.611007e-09
8.6059241e-09
0.00078859245
0.00072382136
0.00016867479
5.519162e-08
6.730925e-09
6.0986376e-09
5.5378687e-09
5.5235061e-09
5.4008996e-09
5.4904565e-09
5.5105405e-09
5.6435677e-09
5.7540576e-09
5.9316042e-09
6.1303208e-09
6.3867552e-09
6.6928552e-09
7.0632492e-09
7.4928068e-09
7.9691087e-09
8.4573014e-09
8.9140426e-09
9.3009171e-09
9.5811248e-09
9.7255777e-09
9.7595003e-09
9.7216856e-09
9.6318598e-09
9.5145177e-09
9.3887271e-09
9.2675983e-09
9.1586627e-09
9.065374e-09
8.9889664e-09
8.9290332e-09
8.8809209e-09
8.8464396e-09
8.8270878e-09
8.8164206e-09
8.8105652e-09
8.8000185e-09
8.7576283e-09
8.7011388e-09
8.666991e-09
8.6465433e-09
8.6343266e-09
8.6268468e-09
8.6201374e-09
8.6106246e-09
8.6053212e-09
0.00078376404
0.00065452121
0.00013070568
3.7775153e-08
6.7513551e-09
6.1625481e-09
5.6211675e-09
5.6153569e-09
5.5022932e-09
5.5988182e-09
5.6285916e-09
5.7697444e-09
5.892757e-09
6.082533e-09
6.2982722e-09
6.5737629e-09
6.9027593e-09
7.2977026e-09
7.7506186e-09
8.2426149e-09
8.7336784e-09
9.1796072e-09
9.5435233e-09
9.7812272e-09
9.8794672e-09
9.8806158e-09
9.812235e-09
9.6979003e-09
9.5621114e-09
9.422836e-09
9.2920145e-09
9.1761052e-09
9.0778014e-09
8.9977169e-09
8.9348338e-09
8.8849151e-09
8.8499889e-09
8.8299223e-09
8.8181356e-09
8.8110092e-09
8.7976433e-09
8.7502962e-09
8.6968158e-09
8.6646169e-09
8.6454462e-09
8.6339769e-09
8.6269217e-09
8.6199596e-09
8.6101945e-09
8.6047263e-09
0.00078052915
0.00060669309
9.8965266e-05
2.784199e-08
6.7828578e-09
6.2326949e-09
5.7110555e-09
5.7138026e-09
5.6111524e-09
5.7147888e-09
5.755098e-09
5.9050159e-09
6.0416147e-09
6.2450462e-09
6.4791368e-09
6.7753349e-09
7.1286964e-09
7.5490255e-09
8.0242224e-09
8.5286826e-09
9.0181723e-09
9.4493848e-09
9.7820562e-09
9.9707618e-09
1.0026457e-08
9.9941675e-09
9.8955677e-09
9.757945e-09
9.6049472e-09
9.4532769e-09
9.3136198e-09
9.1913605e-09
9.0884862e-09
9.0051063e-09
8.9398059e-09
8.8888422e-09
8.8534254e-09
8.8324775e-09
8.8195553e-09
8.8111962e-09
8.7943175e-09
8.743009e-09
8.6927168e-09
8.6623946e-09
8.6444143e-09
8.6336398e-09
8.6269693e-09
8.6196778e-09
8.6097274e-09
8.6041445e-09
0.00077819392
0.00056323644
7.2222414e-05
2.1801315e-08
6.8243723e-09
6.3097979e-09
5.8077585e-09
5.8195499e-09
5.7275807e-09
5.8389443e-09
5.8906078e-09
6.0501924e-09
6.2015707e-09
6.4200362e-09
6.6740949e-09
6.9927175e-09
7.3719886e-09
7.8180839e-09
8.3138558e-09
8.8267694e-09
9.3101264e-09
9.7218795e-09
1.0013044e-08
1.0149501e-08
1.0166976e-08
1.0099328e-08
9.9717109e-09
9.8121431e-09
9.6432147e-09
9.4802156e-09
9.3325065e-09
9.2044627e-09
9.0974944e-09
9.0113621e-09
8.944335e-09
8.8928178e-09
8.8565209e-09
8.8344766e-09
8.8204162e-09
8.8112976e-09
8.7901848e-09
8.7359708e-09
8.6888311e-09
8.6603144e-09
8.6434333e-09
8.6332927e-09
8.6269641e-09
8.6192991e-09
8.6092331e-09
8.6035805e-09
0.00077707479
0.0005265832
5.1012108e-05
1.7957296e-08
6.8750401e-09
6.3938501e-09
5.911536e-09
5.9328242e-09
5.8521027e-09
5.9718769e-09
6.0359617e-09
6.2062149e-09
6.3736518e-09
6.6087833e-09
6.8844469e-09
7.2272605e-09
7.6336379e-09
8.1052027e-09
8.6187554e-09
9.1356287e-09
9.608071e-09
9.9927093e-09
1.0233639e-08
1.031903e-08
1.0299229e-08
1.0196007e-08
1.0040699e-08
9.8606631e-09
9.6771056e-09
9.5037835e-09
9.3487354e-09
9.2154953e-09
9.1050663e-09
9.0168865e-09
8.9486924e-09
8.8963753e-09
8.8584954e-09
8.8354063e-09
8.8208754e-09
8.8108811e-09
8.7853892e-09
8.7293055e-09
8.6852e-09
8.6583913e-09
8.6425026e-09
8.6329234e-09
8.6268842e-09
8.6188345e-09
8.6087204e-09
8.6030382e-09
0.00077741684
0.0004958171
3.4870609e-05
1.541052e-08
6.9341181e-09
6.4849868e-09
6.0227504e-09
6.0541546e-09
5.9855668e-09
6.1145202e-09
6.1921648e-09
6.3741978e-09
6.5591025e-09
6.8125453e-09
7.1116189e-09
7.4804546e-09
7.9148885e-09
8.4108995e-09
8.9386301e-09
9.4545285e-09
9.9111624e-09
1.0257695e-08
1.0441659e-08
1.0481769e-08
1.0421632e-08
1.0284169e-08
1.0102728e-08
9.9037491e-09
9.7068126e-09
9.524081e-09
9.3624098e-09
9.2247202e-09
9.1116469e-09
9.0220217e-09
8.9525523e-09
8.8981867e-09
8.8594471e-09
8.8358747e-09
8.8211174e-09
8.8098911e-09
8.780158e-09
8.7230905e-09
8.6818573e-09
8.6566476e-09
8.6416374e-09
8.6325331e-09
8.6267233e-09
8.6182976e-09
8.6081974e-09
8.6025208e-09
0.00077938173
0.0004710844
2.314337e-05
1.3671969e-08
7.0015102e-09
6.5838266e-09
6.1422419e-09
6.1845571e-09
6.1291291e-09
6.2679225e-09
6.3603247e-09
6.5553389e-09
6.7592348e-09
7.0328586e-09
7.3572068e-09
7.7536764e-09
8.2164692e-09
8.7347956e-09
9.2721839e-09
9.7817002e-09
1.021576e-08
1.0512742e-08
1.063831e-08
1.0635355e-08
1.0534123e-08
1.0363851e-08
1.0157997e-08
9.9416211e-09
9.732484e-09
9.5412337e-09
9.3738152e-09
9.2326369e-09
9.1176493e-09
9.026514e-09
8.954528e-09
8.8990419e-09
8.8598753e-09
8.8360866e-09
8.8212769e-09
8.808298e-09
8.77461e-09
8.7173633e-09
8.6787954e-09
8.6550793e-09
8.6408592e-09
8.6321538e-09
8.6264927e-09
8.6177027e-09
8.6076716e-09
8.602031e-09
0.0007831659
0.00045313832
1.4968623e-05
1.24669e-08
7.0787095e-09
6.6918184e-09
6.2713668e-09
6.3249911e-09
6.2836946e-09
6.433169e-09
6.5416185e-09
6.7509852e-09
6.9755407e-09
7.2712953e-09
7.6229041e-09