/*--------------------------------*- C++ -*----------------------------------*\
  =========                 |
  \\      /  F ield         | OpenFOAM: The Open Source CFD Toolbox
   \\    /   O peration     | Website:  https://openfoam.org
    \\  /    A nd           | Version:  8
     \\/     M anipulation  |
\*---------------------------------------------------------------------------*/
FoamFile
{
    version     2.0;
    format      ascii;
    class       volVectorField;
    location    "0.0800043";
    object      cellDisplacement;
}
// * * * * * * * * * * * * * * * * * * * * * * * * * * * * * * * * * * * * * //

dimensions      [0 1 0 0 0 0 0];

internalField   nonuniform List<vector> 
20000
(
(0.00066913749 0 0.00051633509)
(0.00066913083 0 0.00051628808)
(0.00066911517 0 0.00051619509)
(0.0006690865 0 0.00051609363)
(0.00066903934 0 0.00051598514)
(0.00066896589 0 0.00051587322)
(0.00066885565 0 0.0005157645)
(0.0006686939 0 0.00051566907)
(0.00066846103 0 0.00051560527)
(0.00066812994 0 0.00051559923)
(0.00066766485 0 0.00051569382)
(0.00066701717 0 0.00051595084)
(0.00066612317 0 0.00051646348)
(0.00066489859 0 0.00051736642)
(0.00066323363 0 0.00051885529)
(0.0006609873 0 0.0005212062)
(0.00065798062 0 0.00052481448)
(0.00065398821 0 0.00053022319)
(0.00064874003 0 0.00053817643)
(0.00064191224 0 0.00054969072)
(0.00063314388 0 0.00056610311)
(0.00062204027 0 0.00058914739)
(0.00060820069 0 0.00062095492)
(0.00059128243 0 0.00066402445)
(0.00057099242 0 0.00072106277)
(0.00054728051 0 0.0007945886)
(0.00052015713 0 0.00088679153)
(0.00049009614 0 0.00099801364)
(0.00045744664 0 0.0011288161)
(0.00042335639 0 0.0012744712)
(0.00038860708 0 0.0014312195)
(0.00035405314 0 0.0015917062)
(0.00032084406 0 0.0017491949)
(0.000289284 0 0.0018965041)
(0.00025966289 0 0.0020319599)
(0.00023313988 0 0.0021436495)
(0.00020867562 0 0.0022394122)
(0.00018787121 0 0.0023101183)
(0.00016954325 0 0.0023618267)
(0.00015389796 0 0.0023902221)
(0.00014113441 0 0.0023968537)
(0.00012964272 0 0.0023797985)
(0.00011748715 0 0.0023304035)
(0.00010722353 0 0.002251113)
(9.7678424e-05 0 0.0021242681)
(8.9061962e-05 0 0.0019748467)
(8.003146e-05 0 0.0017716123)
(6.7427106e-05 0 0.0014986235)
(5.0767867e-05 0 0.0011093916)
(2.2397269e-05 0 0.00049879894)
(0.00066931844 0 0.00042247466)
(0.00066931152 0 0.00042233354)
(0.00066929531 0 0.00042217179)
(0.00066926584 0 0.00042198705)
(0.00066921751 0 0.00042177914)
(0.00066914237 0 0.00042154888)
(0.00066902969 0 0.00042130044)
(0.00066886442 0 0.00042104095)
(0.00066862663 0 0.00042078441)
(0.00066828867 0 0.00042055285)
(0.00066781427 0 0.00042038332)
(0.00066715404 0 0.00042033186)
(0.00066624349 0 0.00042048548)
(0.0006649973 0 0.00042097172)
(0.0006633042 0 0.00042197907)
(0.00066102254 0 0.00042377879)
(0.00065796994 0 0.00042676118)
(0.00065392179 0 0.00043146863)
(0.00064860399 0 0.0004386667)
(0.000641695 0 0.00044938314)
(0.00063283274 0 0.00046498841)
(0.00062162674 0 0.00048726094)
(0.00060768496 0 0.00051840022)
(0.00059067095 0 0.00056098462)
(0.00057031826 0 0.00061781182)
(0.00054657675 0 0.00069152168)
(0.00051950492 0 0.00078435679)
(0.0004895418 0 0.00089694211)
(0.00045708866 0 0.0010296485)
(0.00042322898 0 0.0011780991)
(0.00038871746 0 0.0013384547)
(0.00035442586 0 0.0015033602)
(0.00032136564 0 0.0016662135)
(0.00028994995 0 0.001819524)
(0.00026042427 0 0.0019610869)
(0.00023387674 0 0.0020797662)
(0.00020942896 0 0.0021817633)
(0.00018849758 0 0.0022589396)
(0.00017005243 0 0.0023163599)
(0.00015428726 0 0.0023501827)
(0.00014129795 0 0.0023617183)
(0.00012967 0 0.0023489954)
(0.00011756802 0 0.0023041649)
(0.0001072056 0 0.0022286329)
(9.7582314e-05 0 0.0021065517)
(8.882047e-05 0 0.0019590656)
(7.9622641e-05 0 0.0017578328)
(6.6999184e-05 0 0.001485993)
(5.0186586e-05 0 0.0010967747)
(2.1840823e-05 0 0.00048638046)
(0.00066913115 0 0.00033063335)
(0.00066912329 0 0.00033043522)
(0.0006691058 0 0.00033020562)
(0.00066907462 0 0.00032993928)
(0.00066902404 0 0.00032963368)
(0.00066894592 0 0.00032928575)
(0.00066882932 0 0.00032889678)
(0.00066865888 0 0.00032846962)
(0.00066841435 0 0.0003280156)
(0.0006680674 0 0.00032755351)
(0.00066758145 0 0.00032711613)
(0.00066690579 0 0.00032675558)
(0.00066597575 0 0.00032655165)
(0.00066470348 0 0.00032662482)
(0.00066297821 0 0.00032715836)
(0.00066065421 0 0.00032841002)
(0.00065754947 0 0.00033077914)
(0.00065343589 0 0.00033480284)
(0.00064803896 0 0.00034125597)
(0.00064103707 0 0.00035118271)
(0.00063206914 0 0.00036599057)
(0.00062074819 0 0.00038750885)
(0.00060669249 0 0.00041800715)
(0.00058957265 0 0.00046014448)
(0.00056915118 0 0.00051679854)
(0.00054537826 0 0.00059072972)
(0.00051836445 0 0.00068420854)
(0.00048851044 0 0.00079814103)
(0.00045627672 0 0.00093267726)
(0.0004226737 0 0.001083798)
(0.00038844295 0 0.0012475334)
(0.00035444476 0 0.0014166306)
(0.00032158923 0 0.0015845024)
(0.00029035296 0 0.0017435165)
(0.00026096717 0 0.0018908935)
(0.00023443455 0 0.0020162548)
(0.00021003278 0 0.0021242951)
(0.00018900742 0 0.0022077459)
(0.00017047133 0 0.0022707748)
(0.00015460176 0 0.0023099326)
(0.00014141401 0 0.0023263112)
(0.00012965634 0 0.0023178937)
(0.00011760124 0 0.0022775562)
(0.00010715441 0 0.0022057796)
(9.7458749e-05 0 0.0020883284)
(8.8562135e-05 0 0.0019429175)
(7.9205531e-05 0 0.0017437203)
(6.6558469e-05 0 0.0014731134)
(4.9607363e-05 0 0.0010841026)
(2.1305081e-05 0 0.00047450326)
(0.0006685856 0 0.00024075606)
(0.00066857622 0 0.00024047516)
(0.00066855674 0 0.00024014753)
(0.00066852311 0 0.00023977477)
(0.00066846933 0 0.0002393563)
(0.00066838729 0 0.00023888729)
(0.00066826546 0 0.00023836563)
(0.0006680886 0 0.0002377889)
(0.00066783537 0 0.0002371637)
(0.0006674778 0 0.00023649859)
(0.00066697736 0 0.00023582054)
(0.00066628393 0 0.0002351709)
(0.00066533001 0 0.00023462325)
(0.00066402829 0 0.00023429329)
(0.00066226451 0 0.00023435209)
(0.00065989277 0 0.0002350738)
(0.00065672756 0 0.00023682238)
(0.0006525399 0 0.00024016918)
(0.00064705381 0 0.00024588039)
(0.00063994798 0 0.00025503267)
(0.00063086244 0 0.00026907102)
(0.00061941534 0 0.00028987563)
(0.00060523373 0 0.00031978504)
(0.00058800095 0 0.00036153153)
(0.00056750282 0 0.00041807612)
(0.00054370256 0 0.00049227148)
(0.00051674785 0 0.00058644447)
(0.00048702184 0 0.00070169777)
(0.0004550239 0 0.0008380295)
(0.00042170832 0 0.00099168221)
(0.00038779364 0 0.0011586104)
(0.0003541241 0 0.0013316515)
(0.00032151998 0 0.0015042345)
(0.00029050277 0 0.0016686269)
(0.00026129141 0 0.0018215551)
(0.00023481694 0 0.001953261)
(0.00021048249 0 0.002067167)
(0.00018939938 0 0.0021566713)
(0.00017079424 0 0.0022251914)
(0.00015483895 0 0.0022695728)
(0.00014147814 0 0.0022907142)
(0.00012960153 0 0.0022865647)
(0.00011758564 0 0.0022506364)
(0.00010706897 0 0.0021826081)
(9.7306878e-05 0 0.0020696513)
(8.8286646e-05 0 0.0019264483)
(7.8780435e-05 0 0.0017292752)
(6.6105767e-05 0 0.0014599513)
(4.9031919e-05 0 0.0010713642)
(2.0792041e-05 0 0.00046305604)
(0.00066769345 0 0.00015285469)
(0.0006676824 0 0.00015256823)
(0.00066766072 0 0.0001522293)
(0.00066762418 0 0.00015182421)
(0.0006675665 0 0.00015133647)
(0.00066747942 0 0.00015076438)
(0.00066735107 0 0.00015009857)
(0.00066716591 0 0.00014934313)
(0.00066690209 0 0.00014849779)
(0.00066653109 0 0.00014757879)
(0.00066601364 0 0.00014660731)
(0.00066529858 0 0.00014562699)
(0.0006643173 0 0.00014470559)
(0.00066298081 0 0.00014395102)
(0.00066117343 0 0.0001435348)
(0.00065874666 0 0.00014370007)
(0.0006555135 0 0.00014484791)
(0.00065124254 0 0.00014751071)
(0.00064565705 0 0.0001524869)
(0.00063843579 0 0.00016087342)
(0.0006292206 0 0.00017415776)
(0.00061763522 0 0.00019427537)
(0.00060331632 0 0.00022363773)
(0.00058596197 0 0.00026504502)
(0.00056538124 0 0.00032153726)
(0.00054155526 0 0.00039604753)
(0.00051466484 0 0.00049095018)
(0.0004850813 0 0.00060752363)
(0.00045334008 0 0.00074560587)
(0.00042033895 0 0.00090167731)
(0.00038677677 0 0.0010716154)
(0.0003534675 0 0.0012483791)
(0.00032116083 0 0.0014253774)
(0.00029039835 0 0.0015948486)
(0.00026139901 0 0.0017530583)
(0.00023502082 0 0.001890793)
(0.00021078161 0 0.0020103627)
(0.00018967232 0 0.0021057109)
(0.00017102291 0 0.0021795995)
(0.00015499857 0 0.0022290926)
(0.00014148907 0 0.002254923)
(0.00012950403 0 0.0022549989)
(0.00011752322 0 0.0022234004)
(0.00010694869 0 0.002159106)
(9.7126411e-05 0 0.0020505162)
(8.7992277e-05 0 0.001909624)
(7.8345398e-05 0 0.001714521)
(6.5640503e-05 0 0.0014465496)
(4.8457947e-05 0 0.0010585823)
(2.0297432e-05 0 0.00045207494)
(0.00066646398 0 6.6797648e-05)
(0.0006664501 0 6.6405562e-05)
(0.0006664249 0 6.5946647e-05)
(0.00066638411 0 6.5418254e-05)
(0.00066632139 0 6.4816449e-05)
(0.00066622815 0 6.4129397e-05)
(0.00066609222 0 6.3349044e-05)
(0.00066589755 0 6.2464088e-05)
(0.00066562177 0 6.1471833e-05)
(0.00066523555 0 6.0371095e-05)
(0.00066469876 0 5.9177161e-05)
(0.00066395908 0 5.7920887e-05)
(0.0006629466 0 5.6663683e-05)
(0.00066157067 0 5.5509631e-05)
(0.00065971369 0 5.4619639e-05)
(0.0006572253 0 5.4257399e-05)
(0.00065391559 0 5.4780943e-05)
(0.00064955207 0 5.6768758e-05)
(0.00064385659 0 6.1011753e-05)
(0.00063650861 0 6.8652286e-05)
(0.00062715231 0 8.1220135e-05)
(0.00061541708 0 0.0001007027)
(0.00060095071 0 0.00012958571)
(0.00058346699 0 0.00017072727)
(0.00056279911 0 0.00022724388)
(0.00053895048 0 0.0003021342)
(0.00051212947 0 0.00039782854)
(0.00048270656 0 0.00051571576)
(0.00045123993 0 0.00065552575)
(0.00041858207 0 0.00081390227)
(0.00038540396 0 0.00098669064)
(0.00035248839 0 0.0011669495)
(0.00032051881 0 0.0013480889)
(0.00029004835 0 0.001522329)
(0.00026129189 0 0.0016855629)
(0.00023504902 0 0.001829001)
(0.00021092705 0 0.0019540346)
(0.00018982439 0 0.0020550014)
(0.0001711525 0 0.0021341176)
(0.00015507809 0 0.0021885956)
(0.00014144312 0 0.0022190208)
(0.00012936273 0 0.0022232675)
(0.00011741273 0 0.0021959085)
(0.00010679248 0 0.0021353258)
(9.6916537e-05 0 0.0020309761)
(8.7678797e-05 0 0.0018924892)
(7.7900496e-05 0 0.001699449)
(6.5163579e-05 0 0.0014328784)
(4.7886993e-05 0 0.0010457327)
(1.9823351e-05 0 0.00044146869)
(0.00066490712 0 -1.7352588e-05)
(0.00066489096 0 -1.775342e-05)
(0.00066486278 0 -1.8228034e-05)
(0.000664818 0 -1.8792956e-05)
(0.00066474987 0 -1.9467351e-05)
(0.00066464958 0 -2.02593e-05)
(0.00066450457 0 -2.1183271e-05)
(0.00066429841 0 -2.2244299e-05)
(0.00066400812 0 -2.3451036e-05)
(0.00066360373 0 -2.4798429e-05)
(0.00066304418 0 -2.6276785e-05)
(0.00066227599 0 -2.7855082e-05)
(0.00066122781 0 -2.9478519e-05)
(0.00065980717 0 -3.1052095e-05)
(0.0006578945 0 -3.2415851e-05)
(0.00065533665 0 -3.333583e-05)
(0.00065194229 0 -3.3415621e-05)
(0.00064747615 0 -3.2112549e-05)
(0.00064165983 0 -2.8601834e-05)
(0.00063417391 0 -2.1691524e-05)
(0.0006246646 0 -9.8123079e-06)
(0.00061276764 0 9.0729981e-06)
(0.00059814335 0 3.7538098e-05)
(0.00058052226 0 7.8479812e-05)
(0.00055976301 0 0.00013509438)
(0.00053589523 0 0.00021042939)
(0.00050915067 0 0.00030697015)
(0.00047990377 0 0.00042618559)
(0.00044873314 0 0.00056769292)
(0.00041644495 0 0.00072827972)
(0.00038368312 0 0.00090376299)
(0.00035119143 0 0.0010873127)
(0.00031959783 0 0.0012723293)
(0.00028945297 0 0.0014510525)
(0.00026097262 0 0.0016190489)
(0.00023489987 0 0.0017678838)
(0.00021092213 0 0.0018981651)
(0.00018985532 0 0.0020045342)
(0.00017118472 0 0.0020887356)
(0.00015507746 0 0.002148071)
(0.00014133923 0 0.0021830027)
(0.00012917603 0 0.002191361)
(0.00011725563 0 0.002168156)
(0.00010659981 0 0.0021112551)
(9.6676827e-05 0 0.0020110259)
(8.7344566e-05 0 0.0018750126)
(7.7443973e-05 0 0.0016840862)
(6.4674227e-05 0 0.0014189794)
(4.7316869e-05 0 0.0010328469)
(1.9365642e-05 0 0.00043127014)
(0.00066303153 0 -9.9731293e-05)
(0.00066301126 0 -0.00010023008)
(0.00066297815 0 -0.00010081272)
(0.00066292758 0 -0.00010148849)
(0.00066285272 0 -0.00010226702)
(0.00066274431 0 -0.0001031672)
(0.00066258938 0 -0.00010420447)
(0.00066237083 0 -0.00010539724)
(0.00066206502 0 -0.00010675725)
(0.00066164097 0 -0.00010829394)
(0.00066105655 0 -0.00011000302)
(0.00066025691 0 -0.00011186402)
(0.00065916906 0 -0.00011382831)
(0.00065769864 0 -0.00011580505)
(0.0006557237 0 -0.00011764636)
(0.00065308918 0 -0.00011910147)
(0.00064960033 0 -0.00011981748)
(0.00064502173 0 -0.00011918874)
(0.00063907318 0 -0.00011642675)
(0.00063143943 0 -0.00011020775)
(0.00062176591 0 -9.8961563e-05)
(0.00060969645 0 -8.0614331e-05)
(0.00059490525 0 -5.2474756e-05)
(0.00057713982 0 -1.1648482e-05)
(0.0005562872 0 4.5153626e-05)
(0.00053240423 0 0.00012101527)
(0.00050574485 0 0.00021847077)
(0.00047669257 0 0.00033902547)
(0.00044583732 0 0.00048221312)
(0.00041394587 0 0.00064491968)
(0.00038162892 0 0.00082295781)
(0.00034959164 0 0.001009594)
(0.00031840788 0 0.0011982383)
(0.00028862203 0 0.0013811563)
(0.0002604457 0 0.0015536601)
(0.00023457722 0 0.0017075855)
(0.00021076564 0 0.0018428981)
(0.00018976397 0 0.0019544429)
(0.000171116 0 0.0020435695)
(0.00015499464 0 0.0021076225)
(0.00014117468 0 0.0021469528)
(0.0001289427 0 0.0021593518)
(0.00011705076 0 0.0021402051)
(0.00010636973 0 0.0020869473)
(9.6406636e-05 0 0.0019907202)
(8.6989488e-05 0 0.0018572405)
(7.6975814e-05 0 0.0016684193)
(6.4173444e-05 0 0.0014048263)
(4.6749077e-05 0 0.0010198919)
(1.892646e-05 0 0.00042140188)
(0.00066084886 0 -0.00018028445)
(0.00066082562 0 -0.00018079583)
(0.00066078862 0 -0.00018139953)
(0.0006607328 0 -0.00018211772)
(0.00066065077 0 -0.0001829746)
(0.00066053306 0 -0.00018398427)
(0.00066036618 0 -0.00018516813)
(0.00066013268 0 -0.00018653783)
(0.00065980813 0 -0.00018811112)
(0.00065936087 0 -0.00018989115)
(0.0006587476 0 -0.00019187984)
(0.00065791212 0 -0.00019405722)
(0.00065677965 0 -0.00019638265)
(0.00065525359 0 -0.00019877525)
(0.00065320958 0 -0.00020109223)
(0.00065048908 0 -0.00020311723)
(0.00064689663 0 -0.00020447023)
(0.0006421952 0 -0.00020449411)
(0.00063610973 0 -0.00020230435)
(0.00062832069 0 -0.00019670121)
(0.00061847139 0 -0.00018604539)
(0.00060621767 0 -0.00016821841)
(0.0005912423 0 -0.00014053535)
(0.00057332533 0 -9.9751973e-05)
(0.00055237727 0 -4.2673104e-05)
(0.00052848512 0 3.379209e-05)
(0.00050191987 0 0.00013222688)
(0.00047307961 0 0.00025414683)
(0.00044256177 0 0.00039899534)
(0.00041109259 0 0.00056374292)
(0.00037924937 0 0.00074420036)
(0.00034769431 0 0.0009337376)
(0.00031695332 0 0.0011257699)
(0.00028755671 0 0.0013126154)
(0.00025971382 0 0.0014893714)
(0.00023408047 0 0.0016480952)
(0.00021046061 0 0.0017882134)
(0.00018955066 0 0.0019047145)
(0.00017094791 0 0.0019986077)
(0.00015482972 0 0.0020672378)
(0.00014094852 0 0.0021108643)
(0.00012866114 0 0.0021272294)
(0.00011679911 0 0.00211205)
(0.00010610175 0 0.0020623889)
(9.6105414e-05 0 0.0019700516)
(8.661202e-05 0 0.0018391436)
(7.6494454e-05 0 0.0016524786)
(6.3660316e-05 0 0.001390459)
(4.6181498e-05 0 0.0010069064)
(1.8501786e-05 0 0.00041189364)
(0.00065836617 0 -0.00025914043)
(0.00065833728 0 -0.00025975319)
(0.00065829348 0 -0.00026047303)
(0.00065822975 0 -0.00026131133)
(0.00065813876 0 -0.00026228134)
(0.00065801045 0 -0.00026340627)
(0.00065783094 0 -0.00026470652)
(0.00065758184 0 -0.00026620832)
(0.000657238 0 -0.00026793115)
(0.0006567664 0 -0.000269895)
(0.00065612248 0 -0.00027210676)
(0.00065524828 0 -0.00027455928)
(0.00065406706 0 -0.00027721829)
(0.00065247982 0 -0.00028000927)
(0.00065035911 0 -0.00028280313)
(0.00064754368 0 -0.00028537782)
(0.00064384239 0 -0.00028729435)
(0.00063901962 0 -0.00028788303)
(0.00063279008 0 -0.00028620395)
(0.00062482872 0 -0.00028115351)
(0.00061478976 0 -0.0002710352)
(0.00060233505 0 -0.00025366877)
(0.00058716755 0 -0.00022639732)
(0.00056909133 0 -0.00018577898)
(0.00054804937 0 -0.00012831872)
(0.00052415332 0 -5.1158474e-05)
(0.00049769502 0 4.8329531e-05)
(0.00046908619 0 0.00017163462)
(0.00043892673 0 0.00031813297)
(0.00040790529 0 0.00048484682)
(0.00037656175 0 0.00066759842)
(0.00034551611 0 0.00085985431)
(0.00031524656 0 0.0010550454)
(0.00028626825 0 0.0012455529)
(0.0002587836 0 0.0014263111)
(0.00023341479 0 0.0015895459)
(0.00021000758 0 0.0017342446)
(0.00018921531 0 0.0018554759)
(0.0001706782 0 0.0019539615)
(0.00015458138 0 0.0020270183)
(0.00014065891 0 0.0020748209)
(0.00012833036 0 0.0020950666)
(0.00011649971 0 0.0020837535)
(0.00010579513 0 0.002037635)
(9.5772694e-05 0 0.0019490754)
(8.6212162e-05 0 0.0018207701)
(7.5999856e-05 0 0.001636248)
(6.3135881e-05 0 0.0013758534)
(4.5615651e-05 0 0.00099385256)
(1.8093818e-05 0 0.00040267635)
(0.00065559379 0 -0.00033624311)
(0.00065556118 0 -0.00033686974)
(0.00065551256 0 -0.00033761187)
(0.00065544232 0 -0.00033849332)
(0.00065534243 0 -0.0003395413)
(0.0006552026 0 -0.00034077463)
(0.0006550083 0 -0.00034221985)
(0.00065474075 0 -0.00034389647)
(0.00065437383 0 -0.00034583005)
(0.00065387375 0 -0.00034803501)
(0.00065319451 0 -0.00035052411)
(0.00065227656 0 -0.00035329147)
(0.000651041 0 -0.00035631001)
(0.00064938612 0 -0.00035951381)
(0.00064718144 0 -0.00036277197)
(0.00064426805 0 -0.00036587171)
(0.00064045678 0 -0.00036825761)
(0.00063549952 0 -0.00036936856)
(0.00062910907 0 -0.00036828478)
(0.00062096263 0 -0.00036379335)
(0.00061071974 0 -0.00035418708)
(0.00059805291 0 -0.00033722903)
(0.00058268598 0 -0.00031013786)
(0.0005644473 0 -0.00026961849)
(0.0005433083 0 -0.0002118713)
(0.00051941729 0 -0.00013393277)
(0.00049307781 0 -3.3315386e-05)
(0.00046471954 0 9.1403633e-05)
(0.00043494153 0 0.0002395366)
(0.00040439243 0 0.00040814978)
(0.00037357443 0 0.00059307443)
(0.00034306305 0 0.00078788189)
(0.00031329253 0 0.00098601189)
(0.0002847588 0 0.0011799338)
(0.00025765808 0 0.0013644474)
(0.00023258057 0 0.0015319173)
(0.00020940963 0 0.0016809673)
(0.00018875887 0 0.0018067086)
(0.00017030854 0 0.0019096166)
(0.00015424991 0 0.0019869494)
(0.00014030509 0 0.0020388135)
(0.00012794894 0 0.0020628514)
(0.00011615322 0 0.0020553083)
(0.00010544945 0 0.0020126715)
(9.5407875e-05 0 0.0019277824)
(8.5788495e-05 0 0.0018020922)
(7.5490624e-05 0 0.0016197612)
(6.2599128e-05 0 0.0013610488)
(4.504944e-05 0 0.0009807744)
(1.7698665e-05 0 0.00039377888)
(0.00065253845 0 -0.00041171548)
(0.00065249899 0 -0.00041243532)
(0.00065244227 0 -0.00041327972)
(0.0006523627 0 -0.00041426627)
(0.00065225221 0 -0.00041541377)
(0.00065209976 0 -0.00041675178)
(0.00065189029 0 -0.00041830801)
(0.00065160389 0 -0.00042011559)
(0.00065121351 0 -0.00042220357)
(0.0006506838 0 -0.00042460046)
(0.0006499673 0 -0.00042732424)
(0.00064900234 0 -0.00043037944)
(0.00064770802 0 -0.00043374394)
(0.00064597961 0 -0.00043735924)
(0.00064368513 0 -0.00044110093)
(0.00064067084 0 -0.00044461884)
(0.00063673913 0 -0.00044750867)
(0.00063163602 0 -0.0004491408)
(0.00062507286 0 -0.00044860842)
(0.00061672872 0 -0.00044464494)
(0.00060626927 0 -0.00043550542)
(0.00059337978 0 -0.00041889205)
(0.00057780688 0 -0.00039191248)
(0.00055940763 0 -0.00035121912)
(0.00053816562 0 -0.00029326723)
(0.00051429385 0 -0.00021444917)
(0.00048808959 0 -0.00011262742)
(0.00046000293 0 1.3530819e-05)
(0.00043062839 0 0.00016328876)
(0.00040057583 0 0.00033373855)
(0.00037030667 0 0.00052072188)
(0.0003403532 0 0.00071791822)
(0.00031110555 0 0.00091877512)
(0.00028304091 0 0.0011158683)
(0.00025634554 0 0.0013038957)
(0.0002315842 0 0.0014753309)
(0.00020866873 0 0.001628505)
(0.00018818225 0 0.0017585323)
(0.00016983779 0 0.0018656797)
(0.00015383464 0 0.0019471293)
(0.00013988597 0 0.0020029246)
(0.0001275162 0 0.0020306567)
(0.00011575884 0 0.0020267777)
(0.00010506416 0 0.0019875546)
(9.5010642e-05 0 0.0019062281)
(8.5341086e-05 0 0.0017831601)
(7.4966701e-05 0 0.0016030003)
(6.205109e-05 0 0.0013460224)
(4.4484423e-05 0 0.00096763082)
(1.7318491e-05 0 0.00038513717)
(0.00064921115 0 -0.00048550887)
(0.00064916716 0 -0.00048624416)
(0.00064910462 0 -0.00048711184)
(0.0006490172 0 -0.0004881418)
(0.00064889597 0 -0.00048936598)
(0.00064872964 0 -0.0004908106)
(0.0006485023 0 -0.00049250966)
(0.00064819364 0 -0.00049449054)
(0.00064777536 0 -0.00049678849)
(0.00064721143 0 -0.0004994264)
(0.00064645227 0 -0.00050243032)
(0.00064543513 0 -0.00050580242)
(0.00064407522 0 -0.00050953472)
(0.00064226637 0 -0.00051357392)
(0.00063988014 0 -0.00051775143)
(0.0006367615 0 -0.000521702)
(0.00063269751 0 -0.00052506979)
(0.00062743638 0 -0.00052721315)
(0.00062068767 0 -0.0005272096)
(0.00061213194 0 -0.00052375421)
(0.00060144226 0 -0.00051505326)
(0.00058831884 0 -0.00049874185)
(0.00057253317 0 -0.00047180536)
(0.00055396851 0 -0.00043083473)
(0.00053263785 0 -0.00037241775)
(0.00050879152 0 -0.00029280126)
(0.00048273784 0 -0.00018969264)
(0.0004549439 0 -6.2068756e-05)
(0.00042599656 0 8.9302556e-05)
(0.00039646409 0 0.00026153027)
(0.00036676676 0 0.0004504611)
(0.0003373928 0 0.00064989543)
(0.00030869793 0 0.00085344871)
(0.00028112375 0 0.0010534895)
(0.00025485424 0 0.0012447823)
(0.0002304306 0 0.0014199027)
(0.00020778788 0 0.0015768299)
(0.00018748675 0 0.0017109232)
(0.00016926761 0 0.0018221325)
(0.000153336 0 0.0019075404)
(0.00013940093 0 0.0019671421)
(0.00012703088 0 0.0019984687)
(0.00011531698 0 0.0019981516)
(0.00010463887 0 0.0019622689)
(9.4580363e-05 0 0.0018844007)
(8.4868661e-05 0 0.0017639471)
(7.4426855e-05 0 0.0015860014)
(6.1490711e-05 0 0.0013308132)
(4.3918516e-05 0 0.00095446971)
(1.6949561e-05 0 0.00037678036)
(0.00064561698 0 -0.00055773019)
(0.00064556545 0 -0.00055854227)
(0.00064549382 0 -0.00055949924)
(0.00064539551 0 -0.00056062695)
(0.00064526157 0 -0.0005619541)
(0.00064507971 0 -0.00056351218)
(0.00064483382 0 -0.00056533574)
(0.00064450187 0 -0.00056746284)
(0.0006440553 0 -0.00056992867)
(0.00064345541 0 -0.00057276966)
(0.00064265224 0 -0.00057601104)
(0.00064157906 0 -0.00057966991)
(0.00064015019 0 -0.0005837344)
(0.00063825829 0 -0.00058816417)
(0.00063577926 0 -0.00059270938)
(0.00063254327 0 -0.00059712138)
(0.0006283374 0 -0.00060096869)
(0.00062290649 0 -0.00060361663)
(0.0006159591 0 -0.00060412108)
(0.0006071784 0 -0.0006011419)
(0.00059624602 0 -0.00059283302)
(0.00058287911 0 -0.00057676929)
(0.0005668777 0 -0.00054978273)
(0.00054815034 0 -0.00050841038)
(0.00052674524 0 -0.00044925659)
(0.00050292417 0 -0.00036890775)
(0.00047704613 0 -0.00026443831)
(0.00044956711 0 -0.00013532781)
(0.0004210701 0 1.7648788e-05)
(0.00039208045 0 0.0001915982)
(0.00036298617 0 0.00038255305)
(0.00033421432 0 0.00058411039)
(0.00030609039 0 0.00079017483)
(0.0002790229 0 0.00099293653)
(0.00025319489 0 0.0011872411)
(0.00022912718 0 0.0013657707)
(0.00020677295 0 0.0015261946)
(0.00018667438 0 0.0016639929)
(0.00016859796 0 0.0017790757)
(0.00015275404 0 0.0018682764)
(0.00013884956 0 0.0019315464)
(0.0001264927 0 0.0019663592)
(0.00011482706 0 0.0019694935)
(0.00010417322 0 0.0019368717)
(9.4116869e-05 0 0.001862356)
(8.4371328e-05 0 0.0017445045)
(7.3871048e-05 0 0.0015687461)
(6.0919004e-05 0 0.0013153989)
(4.3353321e-05 0 0.00094124825)
(1.6594042e-05 0 0.00036864773)
(0.00064176686 0 -0.00062837016)
(0.00064170791 0 -0.00062924011)
(0.00064162713 0 -0.00063026657)
(0.00064151757 0 -0.00063147777)
(0.00064136982 0 -0.00063290337)
(0.00064117099 0 -0.00063457806)
(0.00064090423 0 -0.00063653795)
(0.00064054664 0 -0.000638823)
(0.00064006844 0 -0.00064147277)
(0.00063942947 0 -0.00064452712)
(0.00063857778 0 -0.00064801805)
(0.00063744448 0 -0.00065196678)
(0.00063594086 0 -0.00065637341)
(0.0006339636 0 -0.0006611414)
(0.00063138282 0 -0.00066608616)
(0.00062802249 0 -0.00067092428)
(0.00062366445 0 -0.00067524233)
(0.0006180518 0 -0.00067837909)
(0.00061089188 0 -0.00067937742)
(0.00060187154 0 -0.00067685628)
(0.00059068326 0 -0.00066890341)
(0.00057707554 0 -0.00065286096)
(0.00056085728 0 -0.00062573652)
(0.00054195687 0 -0.00058402995)
(0.00052048208 0 -0.00052403551)
(0.00049671254 0 -0.00044269341)
(0.0004710222 0 -0.00033694669)
(0.0004438804 0 -0.00020632822)
(0.00041585833 0 -5.1758425e-05)
(0.00038745108 0 0.00012406775)
(0.00035898282 0 0.00031700413)
(0.0003308273 0 0.00052056646)
(0.00030328188 0 0.00072878597)
(0.00027673642 0 0.00093402241)
(0.00025136644 0 0.001131092)
(0.00022767283 0 0.0013127727)
(0.00020562744 0 0.0014765767)
(0.00018574886 0 0.0016178335)
(0.00016783062 0 0.0017364876)
(0.00015208935 0 0.0018293161)
(0.00013823146 0 0.0018961224)
(0.0001259006 0 0.0019343123)
(0.00011428938 0 0.001940791)
(0.00010366689 0 0.0019113463)
(9.3619549e-05 0 0.0018400803)
(8.3847958e-05 0 0.0017248066)
(7.3298192e-05 0 0.0015512727)
(6.0334891e-05 0 0.0012998191)
(4.2786762e-05 0 0.00092801724)
(1.6248304e-05 0 0.0003607694)
(0.00063766702 0 -0.00069747088)
(0.00063760011 0 -0.00069839641)
(0.00063750959 0 -0.00069948904)
(0.00063738804 0 -0.00070077926)
(0.00063722555 0 -0.00070229891)
(0.00063700856 0 -0.00070408536)
(0.00063671944 0 -0.00070617731)
(0.00063633418 0 -0.00070861918)
(0.00063582179 0 -0.00071145315)
(0.00063514048 0 -0.00071472322)
(0.00063423626 0 -0.00071846516)
(0.0006330376 0 -0.00072270559)
(0.00063145572 0 -0.00072745286)
(0.00062938914 0 -0.00073256521)
(0.00062669957 0 -0.00073788465)
(0.00062320459 0 -0.00074315498)
(0.00061868415 0 -0.00074792459)
(0.00061287712 0 -0.00075153625)
(0.00060549034 0 -0.00075301142)
(0.00059621746 0 -0.00075091333)
(0.00058478047 0 -0.00074309532)
(0.0005709291 0 -0.00072696592)
(0.0005544825 0 -0.00069957969)
(0.00053541348 0 -0.00065744506)
(0.00051387232 0 -0.00059669372)
(0.0004901803 0 -0.0005140832)
(0.00046468705 0 -0.00040714401)
(0.00043791006 0 -0.00027501164)
(0.0004104102 0 -0.00011861421)
(0.00038261137 0 5.9111433e-05)
(0.00035477229 0 0.0002538006)
(0.00032724327 0 0.00045917362)
(0.0003002882 0 0.00066933939)
(0.00027427814 0 0.00087681511)
(0.00024937919 0 0.0010764126)
(0.00022607569 0 0.0012609963)
(0.00020435311 0 0.0014279503)
(0.00018471343 0 0.0015725532)
(0.00016696581 0 0.0016944652)
(0.00015134259 0 0.001790749)
(0.0001375468 0 0.001860948)
(0.00012525471 0 0.001902399)
(0.00011370355 0 0.0019121072)
(0.00010311969 0 0.0018857509)
(9.308835e-05 0 0.0018176297)
(8.3298694e-05 0 0.0017049059)
(7.2708251e-05 0 0.0015335623)
(5.9739342e-05 0 0.0012840516)
(4.2220447e-05 0 0.00091473269)
(1.5914484e-05 0 0.00035308669)
(0.00063332452 0 -0.00076506472)
(0.00063324898 0 -0.00076604662)
(0.00063314789 0 -0.00076720609)
(0.00063301338 0 -0.00076857571)
(0.00063283501 0 -0.00077018912)
(0.00063259849 0 -0.00077208687)
(0.00063228533 0 -0.00077431014)
(0.00063187046 0 -0.00077690621)
(0.00063132149 0 -0.0007799212)
(0.00063059491 0 -0.00078340316)
(0.00062963461 0 -0.00078739197)
(0.00062836659 0 -0.00079191587)
(0.00062670277 0 -0.00079698166)
(0.00062454097 0 -0.00080244205)
(0.00062173368 0 -0.00080815385)
(0.0006180961 0 -0.00081382994)
(0.00061340163 0 -0.00081904486)
(0.00060738689 0 -0.00082311437)
(0.00059975803 0 -0.00082505975)
(0.00059023737 0 -0.00082320777)
(0.00057854482 0 -0.00081544182)
(0.00056442665 0 -0.00079928171)
(0.00054774983 0 -0.00077155862)
(0.00052852483 0 -0.00072873138)
(0.00050693177 0 -0.00066712631)
(0.0004833227 0 -0.00058332644)
(0.00045804746 0 -0.00047512499)
(0.00043169428 0 -0.00034118617)
(0.00040474974 0 -0.00018287411)
(0.0003775606 0 -3.4577281e-06)
(0.00035036014 0 0.0001928298)
(0.00032346685 0 0.00039983321)
(0.00029711326 0 0.00061174821)
(0.00027165053 0 0.00082124327)
(0.0002472358 0 0.0010231414)
(0.00022433718 0 0.0012103905)
(0.00020295265 0 0.0013802695)
(0.00018356701 0 0.0015280067)
(0.00016600518 0 0.0016529798)
(0.00015051444 0 0.0017525501)
(0.00013679532 0 0.0018260047)
(0.0001245541 0 0.0018706009)
(0.00011306977 0 0.0018834272)
(0.00010253132 0 0.0018600671)
(9.2522703e-05 0 0.0017949885)
(8.2722564e-05 0 0.0016847774)
(7.2100282e-05 0 0.0015156552)
(5.9131291e-05 0 0.0012681366)
(4.1652325e-05 0 0.00090144722)
(1.558909e-05 0 0.00034563156)
(0.00062874655 0 -0.00083118208)
(0.00062866177 0 -0.00083221951)
(0.00062854937 0 -0.00083344483)
(0.00062840099 0 -0.00083489269)
(0.0006282056 0 -0.00083659912)
(0.00062794816 0 -0.00083860698)
(0.00062760924 0 -0.00084096056)
(0.00062716253 0 -0.00084371146)
(0.0006265742 0 -0.00084690927)
(0.00062579882 0 -0.00085060707)
(0.00062477793 0 -0.00085485068)
(0.00062343468 0 -0.0008596794)
(0.00062168622 0 -0.00086503364)
(0.00061942364 0 -0.00087083058)
(0.00061649236 0 -0.00087690457)
(0.00061270112 0 -0.00088299399)
(0.00060782166 0 -0.00088863232)
(0.00060158575 0 -0.00089313121)
(0.00059371555 0 -0.0008954248)
(0.00058394234 0 -0.00089372259)
(0.00057196903 0 -0.00088606515)
(0.00055757805 0 -0.00086979409)
(0.00054067314 0 -0.00084163123)
(0.00052130094 0 -0.00079801211)
(0.00049968224 0 -0.00073526953)
(0.00047616023 0 -0.00065032829)
(0.00045116536 0 -0.00054054517)
(0.00042527991 0 -0.00040465104)
(0.00039889088 0 -0.00024460984)
(0.0003723202 0 -6.3626815e-05)
(0.00034576637 0 0.0001341145)
(0.00031951681 0 0.00034257864)
(0.0002937733 0 0.00055605579)
(0.00026886787 0 0.00076736147)
(0.00024494726 0 0.0009713434)
(0.00022246613 0 0.0011610311)
(0.0002014312 0 0.0013336187)
(0.0001823132 0 0.0014842834)
(0.0001649532 0 0.0016122169)
(0.0001496062 0 0.0017148036)
(0.00013597774 0 0.0017913673)
(0.00012379928 0 0.0018389871)
(0.00011238791 0 0.0018548133)
(0.00010190177 0 0.0018343533)
(9.1922654e-05 0 0.0017722127)
(8.2119723e-05 0 0.0016644744)
(7.1474281e-05 0 0.0014975323)
(5.8511685e-05 0 0.0012520523)
(4.1084023e-05 0 0.00088811623)
(1.5274256e-05 0 0.00033834646)
(0.00062393979 0 -0.00089585365)
(0.00062384506 0 -0.00089694735)
(0.00062372048 0 -0.00089823941)
(0.00062355721 0 -0.00089976623)
(0.00062334357 0 -0.00090156591)
(0.00062306368 0 -0.00090368422)
(0.00062269714 0 -0.00090616817)
(0.00062221638 0 -0.0009090721)
(0.00062158589 0 -0.00091244992)
(0.00062075819 0 -0.00091635896)
(0.00061967209 0 -0.00092084983)
(0.00061825211 0 -0.00092596947)
(0.00061641676 0 -0.00093161612)
(0.0006140454 0 -0.00093773934)
(0.00061097967 0 -0.00094418666)
(0.00060702603 0 -0.00095066113)
(0.00060194886 0 -0.00095671942)
(0.00059548086 0 -0.00096165279)
(0.00058736855 0 -0.00096413057)
(0.00057732008 0 -0.000962625)