/*--------------------------------*- C++ -*----------------------------------*\
  =========                 |
  \\      /  F ield         | OpenFOAM: The Open Source CFD Toolbox
   \\    /   O peration     | Website:  https://openfoam.org
    \\  /    A nd           | Version:  8
     \\/     M anipulation  |
\*---------------------------------------------------------------------------*/
FoamFile
{
    version     2.0;
    format      ascii;
    class       volScalarField;
    location    "0.0800043";
    object      Ma;
}
// * * * * * * * * * * * * * * * * * * * * * * * * * * * * * * * * * * * * * //

dimensions      [0 0 0 0 0 0 0];

internalField   nonuniform List<scalar> 
20000
(
0.58753835
0.6985624
0.77366295
0.84039994
0.90390089
0.95542652
0.95713604
0.96276561
0.95735222
0.95953651
0.95603129
0.95626872
0.95335615
0.95211985
0.94916065
0.94663006
0.94300696
0.93909027
0.93426736
0.92868515
0.92214434
0.91457556
0.90594331
0.89611128
0.88498935
0.87226058
0.85832663
0.84373654
0.82908753
0.81489307
0.8017293
0.79000459
0.77998211
0.77171659
0.76514673
0.76010082
0.75633142
0.7536452
0.75185393
0.7506655
0.74976563
0.74925399
0.74907245
0.74914116
0.74941316
0.74986467
0.75127463
0.75274694
0.75360731
0.75352268
0.5957786
0.70741124
0.7830096
0.84998235
0.91359623
0.96195451
0.96109797
0.9667704
0.9613132
0.96349183
0.95993444
0.96014479
0.95717932
0.95587898
0.95285598
0.95022524
0.94650474
0.94244205
0.93746597
0.93169577
0.92496619
0.91718962
0.90828845
0.89801651
0.88611217
0.8727206
0.8585019
0.84367864
0.8287959
0.81442958
0.80119578
0.78949115
0.77953901
0.77136723
0.76488709
0.75991226
0.75619019
0.7535428
0.75177392
0.75056724
0.74962435
0.74912638
0.74897832
0.74907969
0.74930573
0.7498493
0.75150091
0.75288185
0.7534229
0.75351559
0.60370078
0.71605485
0.79222953
0.85948687
0.92310669
0.96797515
0.96492351
0.97062654
0.96509085
0.96727801
0.96365572
0.9638345
0.96081384
0.95944028
0.95635035
0.95360691
0.94978012
0.94556024
0.94043188
0.93448104
0.92756562
0.91953727
0.91024375
0.89935464
0.88682419
0.87299222
0.85841032
0.84324293
0.8280853
0.81358369
0.8003266
0.78869084
0.77885794
0.77082424
0.76447406
0.75960474
0.75596201
0.75338169
0.75165225
0.75042518
0.74948853
0.74902731
0.7489143
0.74901505
0.74923132
0.74989378
0.75167829
0.75289749
0.7533904
0.75350676
0.61143599
0.72450343
0.80124008
0.86875943
0.93210948
0.97331742
0.96849235
0.97424078
0.96863667
0.97082585
0.96714408
0.96728643
0.96421116
0.9627588
0.95959842
0.95673527
0.9527983
0.94842317
0.94315124
0.9370237
0.92988995
0.92150269
0.91164357
0.90008564
0.88708376
0.87294758
0.85796575
0.84243651
0.82704433
0.81244797
0.79921798
0.78769922
0.77802932
0.77017017
0.76397954
0.75923844
0.7556931
0.75319349
0.7515088
0.7502615
0.74934816
0.74891923
0.74883788
0.74894963
0.74916272
0.74998815
0.75182292
0.75291614
0.75334471
0.75349636
0.61901621
0.73277411
0.81006845
0.87786741
0.94059143
0.97805722
0.97183262
0.97761512
0.97193886
0.97412507
0.97038182
0.97048082
0.96734975
0.96581057
0.96257605
0.95958736
0.95554207
0.95101592
0.94559629
0.93925551
0.93180116
0.92289076
0.9124066
0.9003809
0.88707634
0.87254782
0.85709779
0.84122712
0.82563459
0.81099352
0.79784469
0.78649414
0.77703309
0.76938697
0.76338748
0.75879985
0.75537319
0.75297066
0.75133828
0.75008269
0.7492099
0.74881387
0.74875548
0.74888685
0.74911685
0.7501299
0.75192285
0.75292172
0.75332861
0.75348505
0.62634674
0.74079628
0.81866498
0.88680885
0.94844591
0.98221237
0.97489697
0.98070897
0.97496081
0.97713905
0.97333549
0.97338452
0.97019678
0.96856329
0.9652531
0.96213842
0.95799072
0.95330956
0.94770293
0.94105222
0.9331254
0.92364675
0.91272136
0.90039563
0.88669533
0.87167771
0.85579578
0.83961426
0.82387062
0.80923888
0.79622727
0.78509608
0.77588802
0.76849101
0.76271134
0.75829972
0.75501012
0.75271729
0.75114305
0.74989593
0.74907224
0.74870582
0.74866425
0.7488185
0.749088
0.75029452
0.75200476
0.75293158
0.75331518
0.75347297
0.63346816
0.74855613
0.82698705
0.89557775
0.95559244
0.98582184
0.97767243
0.9835077
0.97768704
0.97985089
0.97598496
0.97597473
0.97272835
0.97099405
0.96760851
0.96436549
0.96010686
0.95523083
0.94934926
0.94225391
0.93383027
0.92395711
0.91275453
0.90004864
0.88584044
0.87034329
0.85404574
0.83759418
0.82175251
0.80718935
0.79437294
0.78351257
0.77460064
0.76748744
0.76195481
0.75774073
0.75460567
0.7524333
0.75092319
0.74970475
0.74893698
0.74859954
0.74856998
0.74873827
0.7490685
0.75046457
0.75207834
0.75294256
0.75330499
0.75346073
0.64028318
0.75599675
0.8349927
0.90417369
0.96196782
0.9889232
0.98013826
0.98599341
0.98009797
0.98223938
0.97830789
0.97822812
0.97492265
0.97308216
0.96961914
0.96622778
0.96181067
0.95664817
0.95039082
0.9428643
0.9341178
0.92398782
0.91243159
0.8992195
0.88450361
0.86852498
0.85184616
0.83517235
0.81929261
0.80486049
0.79229804
0.78175893
0.77318425
0.76638712
0.76112636
0.75712945
0.75416443
0.75212038
0.75067981
0.74951058
0.74880311
0.74849409
0.74847419
0.74864945
0.74905553
0.75063149
0.75214946
0.75295572
0.7532949
0.75344867
0.64684537
0.7631178
0.84264154
0.91258377
0.96752385
0.99154913
0.98226806
0.98814046
0.9821662
0.98427938
0.98028036
0.98012329
0.97676165
0.97480176
0.97124105
0.96764918
0.96298133
0.95747094
0.95088182
0.94310243
0.93412764
0.92366725
0.91162798
0.89790608
0.88266699
0.86622337
0.84919898
0.83235769
0.81650435
0.8022684
0.79001877
0.77984996
0.77165131
0.76519998
0.76023362
0.75647167
0.75369052
0.75178041
0.7504138
0.74931211
0.74866984
0.74839036
0.74837868
0.74855973
0.74905993
0.7507911
0.75221734
0.75296907
0.75328496
0.75343707
0.65304631
0.76984255
0.84984404
0.92074295
0.97220434
0.99369393
0.98399262
0.98990354
0.9838418
0.98593782
0.98186253
0.98161788
0.97821461
0.97609965
0.97238509
0.96853563
0.96360749
0.95783001
0.95106323
0.94306724
0.93378553
0.9228749
0.91034309
0.89608617
0.88032709
0.86343811
0.84611277
0.82916496
0.81340678
0.7994335
0.78755469
0.77780295
0.77001623
0.76393746
0.75928537
0.75577409
0.75318867
0.7514166
0.75012718
0.74910603
0.74853464
0.74828935
0.74828852
0.7484755
0.74909711
0.75094047
0.75228123
0.7529818
0.75327517
0.75342615
0.65887321
0.77613914
0.85656176
0.92859493
0.97598507
0.9953737
0.98527878
0.99126735
0.98509885
0.98719312
0.98299535
0.98262743
0.97921682
0.97690867
0.97302416
0.96895002
0.963874
0.95793186
0.95097482
0.94267762
0.93298628
0.92161079
0.90855506
0.89375664
0.87748205
0.86017614
0.84260044
0.82561279
0.81002153
0.79637795
0.78492641
0.77563582
0.76829376
0.76261117
0.7582905
0.75504336
0.75266355
0.75103311
0.74982431
0.74888996
0.74839377
0.74819053
0.7482109
0.74840532
0.74917261
0.75107772
0.75234011
0.75299361
0.75326649
0.75341607
0.66431876
0.78204063
0.86283176
0.93612536
0.97893805
0.99664212
0.98624662
0.99225864
0.98596815
0.98805259
0.98381879
0.98333243
0.9797692
0.97729216
0.97330982
0.9691002
0.96390759
0.95776459
0.95052134
0.94184727
0.93172627
0.91985362
0.90626044
0.8909135
0.87413612
0.85644843
0.83868024
0.82172439
0.80637393
0.79312654
0.78215636
0.77336772
0.76649947
0.76123325
0.75725825
0.75428635
0.75211983
0.75063437
0.74951128
0.7486652
0.74824435
0.74809021
0.74814143
0.74835202
0.74928798
0.75120226
0.75239412
0.75300486
0.75325966
0.75340696
0.66946105
0.7876294
0.86875887
0.94333564
0.98119585
0.99758598
0.98699538
0.99289637
0.9866318
0.9885454
0.98432611
0.98372045
0.98002297
0.97743568
0.97338518
0.96901839
0.96364853
0.95721477
0.94964196
0.94056919
0.92998742
0.91760061
0.90345491
0.88755905
0.87029703
0.85227025
0.83437383
0.81752559
0.80249101
0.78970507
0.77926753
0.77101805
0.764649
0.75981579
0.75619779
0.75350975
0.75156194
0.7502245
0.7491944
0.74843717
0.74808687
0.74798355
0.74807901
0.74831894
0.74943525
0.75131566
0.75244422
0.75301588
0.7532544
0.75339883
0.67432292
0.7929466
0.8743946
0.95002122
0.98281388
0.99825009
0.98749931
0.99334473
0.98703381
0.98890301
0.98460126
0.98390746
0.98008964
0.97736917
0.97320798
0.96861134
0.962998
0.9562537
0.94832521
0.93882857
0.92776689
0.91484764
0.90013998
0.88369864
0.86597727
0.84766143
0.82970731
0.81304572
0.79840236
0.78614106
0.77628395
0.76860675
0.76275819
0.75837094
0.75511829
0.75272022
0.7509942
0.74980735
0.74887907
0.74821365
0.74792588
0.74786708
0.74800918
0.74830062
0.7496026
0.75142263
0.75249157
0.75302671
0.75325034
0.75339183
0.67892487
0.79803243
0.87982441
0.95623701
0.98389164
0.99866052
0.98776009
0.99364744
0.98719222
0.98898134
0.9846353
0.98384833
0.97991686
0.97699588
0.97266488
0.96781489
0.96194412
0.95486615
0.94656188
0.93662373
0.92506225
0.91159615
0.89631902
0.87934084
0.86119199
0.8426446
0.82470889
0.80831564
0.79413844
0.78246247
0.77322969
0.76615338
0.76084231
0.75691039
0.75402862
0.75192411
0.75042077
0.74938645
0.74856938
0.74800139
0.74776771
0.74774319
0.7479192
0.74829167
0.74977919
0.7515268
0.75253646
0.75303695
0.75324712
0.75338619
0.6832848
0.80290739
0.88509942
0.96206268
0.98450974
0.99882821
0.98773183
0.99344685
0.98704088
0.98870397
0.98432336
0.9832647
0.97938126
0.97624008
0.97173458
0.96661932
0.9604745
0.95305022
0.94435188
0.93395433
0.92187566
0.90784933
0.89199863
0.87449759
0.85596055
0.83724658
0.81941046
0.80336905
0.78973186
0.77869855
0.77012919
0.76367718
0.75891602
0.75544538
0.75293744
0.75112762
0.74984564
0.74896497
0.7482677
0.74780334
0.74761653
0.74761588
0.74780985
0.74829169
0.74995927
0.75162752
0.75257831
0.75304606
0.75324434
0.75338166
0.68736185
0.8075005
0.89014883
0.96737172
0.98465917
0.99853578
0.98733707
0.99310709
0.98652371
0.98816342
0.98361283
0.98242698
0.97845575
0.97509759
0.97041218
0.96502455
0.95859334
0.95080816
0.94169786
0.93082386
0.91821065
0.90361201
0.88718665
0.86918228
0.85030411
0.83149563
0.81384501
0.79824042
0.78521572
0.77487831
0.76700583
0.76119602
0.75699274
0.75398633
0.75185293
0.75033656
0.74927252
0.74854569
0.74797486
0.74761742
0.74747398
0.74749021
0.74769469
0.74830962
0.75013809
0.75172288
0.75261622
0.75305367
0.75324177
0.75337806
0.69105667
0.81171389
0.89489675
0.97203855
0.98433462
0.99768999
0.98656335
0.99229954
0.98571196
0.98717681
0.98262615
0.98124177
0.97716334
0.97358401
0.96871009
0.96303921
0.95630595
0.94814548
0.93860491
0.92723688
0.91407218
0.89889044
0.88189319
0.86341171
0.84424766
0.82542393
0.80804902
0.79296715
0.78062487
0.7710308
0.76388187
0.75872662
0.75508507
0.75254309
0.75078289
0.74955637
0.7487048
0.74813125
0.74769088
0.7474377
0.74734043
0.74737575
0.74758838
0.74835734
0.75031053
0.75181066
0.7526496
0.75305995
0.75323941
0.75337574
0.69439522
0.81557803
0.89937153
0.97603236
0.9837074
0.99678723
0.98554965
0.99121895
0.98457278
0.98590463
0.98128586
0.97971077
0.97552575
0.97171212
0.9666368
0.96067097
0.95361978
0.94506864
0.93507876
0.92319833
0.90946495
0.8936907
0.87612861
0.85720343
0.83781734
0.81906481
0.80205998
0.78758728
0.77599306
0.76718226
0.76077668
0.75628403
0.75320503
0.75112489
0.74973442
0.74879182
0.74814541
0.74772427
0.74741605
0.74725814
0.7472128
0.74727953
0.74750858
0.74843801
0.75047151
0.75188899
0.75267832
0.7530655
0.75323743
0.75337469
0.69746804
0.81915328
0.90361201
0.97944665
0.98241686
0.99553999
0.98424004
0.98981013
0.98311588
0.9842896
0.9796288
0.97785051
0.97354811
0.96948997
0.96420097
0.95792846
0.95054251
0.94158443
0.93112501
0.91871285
0.90439378
0.88801994
0.86990544
0.85057863
0.83104333
0.81245589
0.79591912
0.78214059
0.77135217
0.76335546
0.75770745
0.7538829
0.75136524
0.74974109
0.74871384
0.74804675
0.74759691
0.74732752
0.7471517
0.74707696
0.74708539
0.74719851
0.74746266
0.74855286
0.75061683
0.7519568
0.75270211
0.7530701
0.75323598
0.75337501
0.70030378
0.82246018
0.90758428
0.98219273
0.98080428
0.99398085
0.9826206
0.98810013
0.98135661
0.98237687
0.97765562
0.97566441
0.97123973
0.96692757
0.96141162
0.95482019
0.94708155
0.93769874
0.92674798
0.91378356
0.89886204
0.88188425
0.86323622
0.84355903
0.82395707
0.80563588
0.78966806
0.77666365
0.76672754
0.75956775
0.7546898
0.75153805
0.7495788
0.74840113
0.7477263
0.74732387
0.74706174
0.7469441
0.74689998
0.7468983
0.74695368
0.74711756
0.74744346
0.74870085
0.75074495
0.75201425
0.75272005
0.75307244
0.7532348
0.7533768
0.70292496
0.8255256
0.91126333
0.98421088
0.97898725
0.99212965
0.98071436
0.98608904
0.97930774
0.9801551
0.97538059
0.97316629
0.96861085
0.96403464
0.95827754
0.95135397
0.94324317
0.93341588
0.92195041
0.9084125
0.89287292
0.87529115
0.85613634
0.83617081
0.81659485
0.79864796
0.78334969
0.77118829
0.76213811
0.75583498
0.75174174
0.74926582
0.7478581
0.74711413
0.74677601
0.74662494
0.74654282
0.74657756
0.74666268
0.7467296
0.74681749
0.74701746
0.74743804
0.74887526
0.75085998
0.75206287
0.75273151
0.75307068
0.75323349
0.75338015
0.70538635
0.8284189
0.91464651
0.98554234
0.97687656
0.99000701
0.978542
0.9837998
0.97699109
0.97764696
0.97281476
0.97036568
0.96567078
0.96082018
0.95480661
0.94753611
0.9390315
0.9287377
0.9167326
0.90259949
0.88642796
0.86824727
0.84862165
0.82844136
0.80899474
0.79153583
0.77700213
0.76573631
0.75759838
0.75217766
0.74888602
0.74708231
0.74621101
0.74588617
0.74586628
0.74595157
0.74604466
0.74623195
0.7464395
0.74657497
0.74667959
0.74689576
0.74743994
0.74906685
0.75096938
0.75210501
0.75273735
0.75306532
0.7532319
0.75338517
0.70772861
0.8311668
0.91769152
0.98620292
0.97448446
0.98763007
0.97611859
0.98123895
0.9744095
0.97485754
0.96996601
0.96727229
0.96242792
0.95729237
0.95100469
0.94337027
0.93444799
0.92366352
0.91109316
0.89634338
0.87952934
0.86076146
0.84071241
0.82040354
0.80120034
0.7843448
0.77065726
0.76032312
0.75313066
0.74862997
0.74614799
0.74499999
0.74463894
0.74471744
0.7450002
0.74530677
0.74557378
0.74591146
0.74622748
0.74643249
0.74654742
0.74677108
0.74745923
0.74927043
0.75107734
0.75214309
0.75273888
0.75305796
0.75323001
0.75339199
0.71001107
0.83379441
0.92038075
0.98617142
0.97187657
0.98499923
0.97345155
0.97841324
0.97156886
0.97179724
0.96684423
0.96389511
0.95888968
0.95345653
0.94687462
0.938857
0.92949091
0.91819006
0.90502811
0.88964134
0.87217786
0.85284295
0.83243012
0.81209275
0.79325588
0.77711463
0.7643356
0.75496648
0.7487763
0.74522879
0.74354561
0.74302098
0.74313975
0.74360476
0.74418036
0.74469589
0.7451372
0.74561927
0.74602346
0.74629594
0.74643333
0.74667052
0.74751206
0.74948162
0.75118533
0.75217941
0.75273721
0.75304828
0.75322793
0.75340068
0.71218737
0.83630949
0.92265763
0.98545741
0.96902821
0.98211878
0.97055113
0.97533823
0.96847991
0.96847671
0.96345734
0.96024096
0.95505968
0.94931431
0.94241556
0.9339933
0.92415575
0.91231181
0.89853237
0.88249025
0.86437609
0.84450464
0.82380252
0.80355064
0.78520803
0.76987876
0.75805257
0.7497069
0.74458649
0.74199975
0.74108062
0.74113396
0.74171775
0.7425518
0.74340727
0.74412417
0.74473864
0.74535619
0.74582888
0.74615806
0.746341
0.74661381
0.74760321
0.7496939
0.7512916
0.75221563
0.75273514
0.75303385
0.75322635
0.75341117
0.71427023
0.83877968
0.92451514
0.98412049
0.96598285
0.97900826
0.96742483
0.97202281
0.96515293
0.96490128
0.95980918
0.95631149
0.95093724
0.94486332
0.9376234
0.92877349
0.91843575
0.90602123
0.89159908
0.87488579
0.85612631
0.8357612
0.8148602
0.7948207
0.77709871
0.76265912
0.75183086
0.74460575
0.7406019
0.73894896
0.73873253
0.73934085
0.74038104
0.74156476
0.74268199
0.74359294
0.74437908
0.74511984
0.74564868
0.74601626
0.74625871
0.7465949
0.74773654
0.74989844
0.75139153
0.75225063
0.75273626
0.7530206
0.75322653
0.75342328
0.71627156
0.84122654
0.92589786
0.98219779
0.96273488
0.97566689
0.96407553
0.96846716
0.96158716
0.9610717
0.9558979
0.95210432
0.94651783
0.94009814
0.93249141
0.92318961
0.91232219
0.89930961
0.88422086
0.86682457
0.84743413
0.82663342
0.80564123
0.78595025
0.76896514
0.75547326
0.74572468
0.73972133
0.73684565
0.73605124
0.73649777
0.73765852
0.73913144
0.74064502
0.74200709
0.74310222
0.7440595
0.74490691
0.74548388
0.74587585
0.74616617
0.74659546
0.74791405
0.75008658
0.75148085
0.75228211
0.75274045
0.75301392
0.75322791
0.75343684
0.7181831
0.84365108
0.92675423
0.97973493
0.95928884
0.97209884
0.96050429
0.96467305
0.95778113
0.9569852
0.95171815
0.94761382
0.94179439
0.93501142
0.92701122
0.917232
0.90580489
0.89216674
0.87638917
0.85830263
0.83830654
0.81714531
0.79618627
0.77698307
0.76083357
0.7483467
0.73981092
0.73509459
0.73330065
0.7332889
0.73439812
0.73608794
0.73797046
0.73979311
0.74138276
0.74265332
0.74377861
0.74471542
0.74533213
0.74574216
0.74605726
0.74660796
0.74813194
0.75025315
0.75155839
0.75230999
0.75274659
0.75300991
0.75322891
0.75345167
0.72001509
0.8460475
0.92707296
0.97678124
0.95563973
0.9683031
0.95671014
0.96063373
0.95372918
0.95263346
0.94726232
0.94283251
0.93675941
0.92959466
0.92117298
0.91088938
0.89887245
0.88458178
0.8680958
0.84931846
0.82875644
0.80732885
0.78654164
0.76796024
0.75272533
0.74134093
0.73415783
0.73074388
0.729925
0.7306837
0.73243919
0.73463141
0.73689809
0.73900879
0.74080945
0.74224783
0.74353204
0.74454273
0.74519271
0.74561935
0.74595086
0.74664252
0.74837505
0.75040177
0.7516261
0.75233481
0.75275357
0.75300747
0.75322996
0.75346746
0.72169649
0.84842627
0.92680826
0.97334039
0.95177227
0.96426715
0.95268053
0.95633928
0.94942037
0.94801014
0.94252258
0.93775397
0.93140443
0.92383807
0.91496538
0.9041493
0.89151233
0.87654274
0.85933163
0.83987157
0.81880006
0.79722
0.77675206
0.75891389
0.74466576
0.73454449
0.72881153
0.72663966
0.72671418
0.72825225
0.73062279
0.73328824
0.7359137
0.73829115
0.74028735
0.74188812
0.74331288
0.74438402
0.74506523
0.74551542
0.74588024
0.74671278
0.74862431
0.75053976
0.75168718
0.75235734
0.75276026
0.75300579
0.75323262
0.7534835
0.72318734
0.85077893
0.92594011
0.96944484
0.94767487
0.95998017
0.94840788
0.95178348
0.94484979
0.94311073
0.93749296
0.93237068
0.92571956
0.91772994
0.90837535
0.89699815
0.88371109
0.86803738
0.85008868
0.82996644
0.80846163
0.78686235
0.7668622
0.74987185
0.73671473
0.72803773
0.72379051
0.72273491
0.72370191
0.72599581
0.72894882
0.73205746
0.73501583
0.73763889
0.73981654
0.7415749
0.74311606
0.7442354
0.74494614
0.74543116
0.74585503
0.74681458
0.7488691
0.75066917
0.75174433
0.75237823
0.75276571
0.75300451
0.7532377
0.75349985
0.72453424
0.85302444
0.92444511
0.96519779
0.94334578
0.95544016
0.94389174
0.94696613
0.94001448
0.93793006
0.93216523
0.92667248
0.9196925
0.91125673
0.90138907
0.88942124
0.87545416
0.85905187
0.84035947
0.8196103
0.79777048
0.77630011
0.75691069
0.74086017
0.72896603
0.72187699
0.71906192
0.71903129
0.72090165
0.72391516
0.7274156
0.73093673
0.73420221
0.73705025
0.73939679
0.74130608
0.74294018
0.74409713
0.74483386
0.74535918
0.74585604
0.74694683
0.74910236
0.75079037
0.75179883
0.7523982
0.75276944
0.7530036
0.75324557
0.75351649
0.72573184
0.85514148
0.92234332
0.96085705
0.9387937
0.95065269
0.93913251
0.94188305
0.93490803
0.93245822
0.92652732
0.92064676
0.9133099
0.90440419
0.8939917
0.88140273
0.86672568
0.84957263
0.83013975
0.80881847
0.78676451
0.76558046
0.74693367
0.73192903
0.72151652
0.71609292
0.71457212
0.71556515
0.71831485
0.72200858
0.72602046
0.7299231
0.73347001
0.73652345
0.73902765
0.7410782
0.74278473
0.74397282
0.74473412
0.74529403
0.74587281
0.74710818
0.74931978
0.75090274
0.75185041
0.75241728
0.75277215
0.75300351
0.75325626
0.75353348
0.7268464
0.85707546
0.91965125
0.95630396
0.93401173
0.94560681
0.93411808
0.93652041
0.92951676
0.926683
0.92056562
0.91428088
0.90655807
0.89715777
0.88616728
0.87292529
0.85750791
0.83958545
0.81942794
0.79761165
0.77548512
0.75474591
0.73696192
0.72316901
0.71444028
0.71065983
0.71031742
0.71235273
0.71594063
0.72027281
0.72475938
0.72901254
0.73281599
0.73605691
0.73870832
0.74088664
0.74264763
0.74386396
0.74465242
0.74524194
0.74590349
0.74729883
0.74951867
0.75100596
0.75189863
0.75243524
0.75277469
0.75300575
0.75326958
0.75355079
0.72789445
0.85872871
0.91638021
0.9513289
0.92897892
0.9402829
0.92883337
0.93086609
0.92382703
0.92059406
0.91426798
0.90756249
0.89942329
0.88950111
0.87789774
0.86396898
0.84778174
0.82907774
0.80822919
0.78602016
0.76397943
0.74383881
0.72703578
0.71469643
0.70778521
0.70551712
0.70633741
0.70939484
0.713776
0.71870334
0.72362748
0.72820072
0.73223725
0.73564958
0.7384371
0.74072478
0.74252461
0.74376816
0.74459035
0.74521913
0.745959
0.74751664
0.74969834
0.75110068
0.75194372
0.75245244
0.75277755
0.75301166
0.75328524
0.75356837
0.72887754
0.86006394
0.91254605
0.94616078
0.92368713
0.93467593
0.92327368
0.92491363
0.91783017
0.91418108
0.90762313
0.90047839
0.89189004
0.8814154
0.86916193
0.85451109
0.83752626
0.81803862
0.79655405
0.77407971
0.75229279
0.73289796
0.71723276
0.70660721
0.70154545
0.7006467
0.70265354
0.70668993
0.71181578
0.71729409
0.72261901
0.72748333
0.73173164
0.73530043
0.73821003
0.74058349
0.74241102
0.7436834
0.74454612
0.74522443
0.74604602
0.7477531
0.7498621
0.75118852
0.75198627
0.75246947
0.75278131
0.75302132
0.75330291
0.75358608
0.72982515
0.8610796
0.90820862
0.94065688
0.91814105
0.92878546
0.91743287
0.91865375
0.9115169
0.907434
0.90061806
0.89301378
0.88393941
0.87287784
0.85993514
0.84452652
0.82672096
0.80646273
0.78442308
0.76183453
0.7404723
0.72196632
0.70767396
0.6989687
0.69566448
0.69608368
0.69926981
0.70423369
0.71005348
0.71603828
0.72172841
0.72685706
0.73129752
0.73500665
0.73801935
0.74045259
0.74230549
0.74361114
0.74451657
0.74524363
0.74616213
0.74799539
0.75001593
0.75127109
0.75202688
0.75248694
0.7527866
0.75303478
0.75332226
0.75360376
0.73059871
0.8617821
0.90342887
0.93486395
0.91232883
0.92259467
0.91129937
0.91207413
0.90487699
0.90034178
0.89323773
0.88514884
0.87554777
0.8638618
0.8501896
0.83398819
0.81534642
0.79435023
0.77186409
0.74933051
0.72856315
0.7111034
0.69847989
0.69180855
0.69010201
0.69185853
0.69618405
0.70201928
0.70848087
0.71492863
0.72095076
0.72631914
0.73093166
0.73476101
0.73785376
0.74032695
0.74221421
0.74355809
0.74450453
0.74527059
0.7463036
0.74823469
0.75016183
0.75134894
0.75206594
0.75250535
0.75279401
0.75305182
0.75334298
0.75362129
0.73114473
0.86213259
0.89821761
0.92875165
0.9062376
0.91609259
0.90486644
0.90516909
0.89789804
0.89288972
0.88546047
0.8768576
0.86668648
0.85433635
0.83989464
0.82286826
0.80338754
0.78171096
0.75891589
0.7366175
0.71661473
0.70041836
0.68974845
0.6850919
0.6848746
0.68798371
0.69339102
0.70003829
0.70708937
0.71395868
0.72028212
0.7258656
0.73062637
0.73455151
0.73770446
0.74021635
0.74215358
0.74353463
0.74451171
0.74530845
0.74646509
0.748466
0.75029906
0.75142193
0.75210361
0.75252508
0.75280399
0.75307212
0.7533648
0.75363856
0.7313844
0.86211951
0.89263171
0.92233585
0.89987121
0.90928
0.89812951
0.8979271
0.89055975
0.88505295
0.87725707
0.86810833
0.85732282
0.84426812
0.82901722
0.81113928
0.79083359
0.76856345
0.74562215
0.72374549
0.7046807
0.69005161
0.68153981
0.67875299
0.68002715
0.68445637
0.69088216
0.69828037
0.7058702
0.71312258
0.71971727
0.72548763
0.7303683
0.7343673
0.73757697
0.74014789
0.74213286
0.74353775
0.74453121
0.74536398
0.74664211
0.74868611
0.75042666
0.75148977
0.75213982
0.75254628
0.75281674
0.75309528
0.75338746
0.75365548
0.73128616
0.86177553
0.88684704
0.91561979
0.89323048
0.90214476
0.89106811
0.89031886
0.88282993
0.87679935
0.86859426
0.85886649
0.84742145
0.83362039
0.81752259
0.79877606
0.77768285
0.75493771
0.73203413
0.71077141
0.69285124
0.6801326
0.67385412
0.6727816
0.67558384
0.68127089
0.68864709
0.69673511
0.70481558
0.712414
0.71924649
0.72517028
0.73014458
0.73421173
0.73749689
0.74012966
0.7421389
0.74355392
0.74455772
0.74543738
0.74683053
0.74889312
0.75054457
0.75155265
0.75217438
0.75256854
0.75283231
0.75312087
0.75341073
0.75367197
0.73078619
0.8611048
0.8800493
0.90857671
0.88628071
0.89464643
0.88364301
0.88230809
0.87467306
0.86809623
0.8594379
0.84909503
0.83694407
0.82235395
0.80537549
0.78575734
0.76394242
0.7408717
0.71820346
0.6977546
0.68126451
0.67075634
0.66662954
0.667226
0.67154215
0.67841734
0.68667349
0.69539199
0.70391729
0.7118222
0.71885317
0.72489832
0.729957
0.73410996
0.73747225
0.74013833
0.74215818
0.74357705
0.74458958
0.74552923
0.74702732
0.74908632
0.75065381
0.75161173
0.75220747
0.75259068
0.752851
0.75314845
0.75343436
0.75368798
0.72975044
0.85983767
0.87330628
0.9011424
0.87897638
0.88674416
0.8758205
0.87387035
0.86605816
0.85891057
0.84975061
0.83875323
0.82584827
0.81042652
0.79254117
0.77206944
0.74963202
0.72641403
0.70418917
0.68476923
0.67008145
0.66196972
0.65982688
0.66212226
0.66789794
0.67588396
0.68494911
0.6942412
0.70316444
0.71132978
0.71851968
0.72467198
0.7298317
0.73407191
0.73747855
0.74016048
0.74218418
0.74360624
0.74463049
0.74563968
0.74723026
0.74926589
0.75075563
0.75166825
0.75223977
0.75261205
0.75287373
0.75317757
0.75345817
0.75370346
0.72806978
0.85812028
0.86605399
0.89331171
0.87130421
0.8784211
0.86757378
0.86498099
0.8569504
0.84920299
0.83948894
0.82779534
0.8140879
0.79779424
0.77898798
0.75770763
0.73478186
0.71161807
0.69005771
0.67193771
0.65943501
0.65374322
0.65346894
0.65748246
0.66464011
0.67365641
0.68346116
0.69327084
0.70253963
0.7109163
0.71824313
0.72451807
0.72977973
0.73407245
0.73750081
0.74019124
0.74221801
0.74364444
0.74468444
0.74576837
0.74743734
0.74943254
0.7508509
0.7517227
0.75227197
0.75263389
0.75290092
0.75320785
0.75348197
0.75371839
0.72581836
0.85597469
0.85839166
0.88505681
0.86324551
0.86964195
0.85886988
0.85559534
0.84730643
0.83892696
0.82860497
0.81617089
0.80161275
0.78441297
0.76469039
0.74268043
0.71943567
0.69654669
0.67589032
0.65943567
0.64941608
0.64600963
0.64761178
0.6533022
0.66175569
0.67172004
0.6821963
0.692464
0.70202022
0.71057343
0.71804899
0.72444885
0.72977369
0.73409307
0.7375353
0.74023518
0.74226328
0.74369218
0.7447525
0.74591424
0.7476461
0.74958727
0.75094046
0.75177574
0.75230501
0.75265735
0.75293148
0.75323904
0.75350559
0.75373274
0.72291872
0.85332321
0.85027815
0.87633148
0.85475185
0.86036486
0.84966102
0.84567143
0.8370756
0.82803215
0.81704474
0.80382401
0.78837051
0.77024029
0.74963164
0.7270082
0.70364609
0.68127068
0.66179288
0.6474335
0.64004112
0.63875943
0.64228461
0.64957055
0.65922815
0.67005885
0.68113718
0.6917965
0.70158857
0.71032067
0.71795246
0.72443458
0.72979227
0.73412939
0.73758691
0.74029444
0.74232012
0.74374917
0.74483569
0.74607516
0.74785316
0.74973153
0.75102539
0.75182824
0.7523398
0.75268307
0.75296414
0.75327089
0.75352889
0.75374648
0.71937263
0.85014564
0.84170505
0.86709461
0.84578721
0.85054637
0.83990128
0.83515898
0.82620354
0.81646091
0.80474936
0.79069493
0.77430734
0.75523906
0.73380759
0.71072732
0.68747729
0.66587834
0.6479328
0.6360705
0.63125413
0.63205532
0.63748503
0.64627341
0.65704023
0.66865543
0.68026102
0.69124401
0.70125143
0.71017974
0.71792502
0.72445063
0.72983096
0.73418641
0.73765656
0.74036722
0.74238778
0.74381606
0.74493419
0.74624813
0.748055
0.74986703
0.75110685
0.75188088
0.75237682
0.75271138
0.7529989
0.75330303
0.75355177
0.75375963
0.71513009
0.8463507
0.83263712
0.85728643
0.83629967
0.84013567
0.82953552
0.8240063
0.8146278
0.80414875
0.7916536
0.77672141
0.75937072
0.73938038
0.71722809
0.69388698
0.67100329
0.65047404
0.63451086
0.6254153
0.62301818
0.62594108
0.63320488
0.64339235
0.655172
0.66748707
0.67954053
0.69079913
0.70103977
0.71012965
0.71793606
0.72449195
0.72989463
0.73426478
0.73774262
0.74045212
0.74246552
0.7438933
0.7450475
0.74642975
0.74824907
0.7499952
0.75118565
0.75193385
0.75241597
0.75274232
0.75303564
0.75333525
0.75357414
0.75377216
0.71016098
0.84188482
0.82305236
0.84686166
0.82623953
0.82908031
0.81850245
0.81215036
0.80227818
0.79102343
0.77768934
0.76183872
0.74351136
0.72264675
0.69991984
0.67655206
0.65431921
0.63521431
0.62170992
0.61545349
0.6153699
0.62043322
0.62942907
0.64090692
0.65360091
0.66652533
0.67895445
0.69048729
0.70094989
0.71013028
0.71797818
0.72456323
0.7299832
0.73436249
0.7378436
0.74054824
0.74255234
0.74398122
0.74517455
0.74661673
0.74843451
0.75011693
0.75126229
0.75198686
0.75245655
0.75277584
0.75307377
0.75336735
0.75359594
0.75378408
0.70447949
0.8366504
0.81292668
0.83575267
0.81554062
0.81731335
0.80672158
0.79951503
0.78907884
0.77700921
0.76278544
0.74598315
0.72668702
0.70503556
0.68192617
0.65880024
0.63754039
0.62031241
0.60965817
0.60612426
0.60837626
0.61552446
0.6261374
0.63879281
0.65229905
0.66573994
0.67850331
0.69031979
0.70093009
0.71016827
0.71805564
0.72466355
0.73009414
0.73447765
0.73795801
0.74065477
0.74264748
0.74407994
0.74531383
0.7468062
0.74861127
0.75023315
0.75133715
0.75203962
0.75249746
0.75281188
0.75311298
0.75339918
0.75361711
0.75379541
0.69807655
0.83052264
0.8022062
0.82387875
0.80412072
0.80476743
0.794101
0.78602386
0.77495179
0.76202949
0.7468676
0.72909077
0.70886523
0.68656252
0.66331065
0.6407323
0.62081917
0.60599648
0.59839027
0.59743757
0.60207452
0.61120061
0.62330615
0.63702224
0.65123435
0.66511332
0.67821146
0.69025688
0.70095574
0.71024755
0.71816738
0.72478974
0.73022504
0.73460834
0.73808436
0.74077049
0.74275083
0.7441894
0.7454636
0.74699577
0.74877953
0.75034444
0.7514102
0.75209188
0.75253833
0.7528503
0.75315296
0.75343058
0.75363763
0.75380616
0.69090717
0.82333235
0.79083178
0.81115785
0.79190136
0.7913647
0.78056612
0.77159747
0.75981763
0.74599794
0.72985499
0.71110213
0.69002826
0.66726395
0.64415498
0.62247667
0.60437515
0.59245047
0.58785299
0.58947598
0.59646085
0.6074396
0.62090638
0.63556157
0.6503743
0.66465589
0.67807215
0.69025886
0.70102909
0.71036764
0.71830912
0.72493865
0.73037344
0.73475272
0.73822125
0.74089436
0.74286226
0.74430924
0.74562197
0.74718351
0.74893931
0.75045081
0.75148116
0.75214365
0.75257966
0.75289088
0.75319339
0.75346148
0.75365749
0.75381634
0.68299941
0.81492351
0.77875459
0.79752274
0.77880308
0.77703263
0.76603684
0.75614825
0.74358101
0.7288159
0.71166275
0.69196524
0.67017907
0.64720106
0.62456843
0.60419965
0.58847459
0.57975912
0.57804018
0.58229482
0.59152419
0.60421434
0.61890453
0.63437444
0.64970011
0.66437927
0.67803076
0.69031612
0.7011513
0.71052294
0.71847704
0.72510723
0.73053709
0.73490908
0.73836734
0.74102557
0.74298159
0.7444389
0.74578704
0.74736801
0.74909088