/*--------------------------------*- C++ -*----------------------------------*\
  =========                 |
  \\      /  F ield         | OpenFOAM: The Open Source CFD Toolbox
   \\    /   O peration     | Website:  https://openfoam.org
    \\  /    A nd           | Version:  8
     \\/     M anipulation  |
\*---------------------------------------------------------------------------*/
FoamFile
{
    version     2.0;
    format      ascii;
    class       surfaceScalarField;
    location    "0.0800043";
    object      meshPhi;
}
// * * * * * * * * * * * * * * * * * * * * * * * * * * * * * * * * * * * * * //

dimensions      [0 3 -1 0 0 0 0];

internalField   nonuniform List<scalar> 
39600
(
-7.0192911e-05
-4.4525471e-06
4.505336e-06
-7.0269701e-05
-5.3416074e-06
5.4306823e-06
-7.0360568e-05
-6.3992971e-06
6.5058914e-06
-7.0471489e-05
-7.6661033e-06
7.7939197e-06
-7.0603087e-05
-9.1833055e-06
9.3367089e-06
-7.0761671e-05
-1.1000507e-05
1.118449e-05
-7.0947292e-05
-1.3176756e-05
1.3397276e-05
-7.1170555e-05
-1.5782501e-05
1.6046738e-05
-7.1430027e-05
-1.8901929e-05
1.9218318e-05
-7.1739029e-05
-2.2635235e-05
2.3013713e-05
-7.2111807e-05
-2.7101002e-05
2.7553523e-05
-7.2573553e-05
-3.2439601e-05
3.2980481e-05
-7.3164342e-05
-3.8816108e-05
3.9462547e-05
-7.3906966e-05
-4.64242e-05
4.7196967e-05
-7.4812441e-05
-5.5489751e-05
5.6412797e-05
-7.5937957e-05
-6.6275215e-05
6.7378697e-05
-7.6764747e-05
-7.909425e-05
8.04175e-05
-7.6954734e-05
-9.434042e-05
9.5922615e-05
-7.6997061e-05
-0.00011243157
0.00011430794
-7.7217086e-05
-0.00013372518
0.00013594321
-7.8144788e-05
-0.00015855004
0.00016118496
-8.0771349e-05
-0.00018704105
0.00019020161
-8.5281995e-05
-0.00021944229
0.00022330393
-9.4100146e-05
-0.00025544656
0.0002602211
-0.00010666964
-0.00029485623
0.00030093099
-0.00012943104
-0.00033650277
0.0003443773
-0.00016225924
-0.00037887665
0.00038904303
-0.00021150227
-0.00041921803
0.00043274891
-0.00026830769
-0.00045661753
0.0004750499
-0.00033439756
-0.00049712231
0.00052184269
-0.00041150053
-0.00054162446
0.00057449512
-0.00050141706
-0.00058824151
0.00063138927
-0.00061434629
-0.00062871703
0.00068535793
-0.00075929795
-0.00064666063
0.00072011862
-0.00095122747
-0.00062321572
0.00071901086
-0.0011797713
-0.00054268294
0.00066506358
-0.0014486493
-0.00038547249
0.00053853649
-0.0017087124
-0.00019504434
0.00038521724
-0.0020135682
9.91565e-06
0.00022196935
-0.0023110298
0.00020775465
7.2849362e-05
-0.00263475
0.00038173622
-5.1280796e-05
-0.0030271344
0.00067392975
-0.00029778753
-0.0034644573
0.0011258924
-0.00070158937
-0.0039087842
0.001597749
-0.0011186043
-0.0043829577
0.0020255814
-0.0014976433
-0.0046018972
0.0025167407
-0.001972179
-0.0046767569
0.0030937574
-0.0025800018
-0.0048565586
0.0036880602
-0.0032308906
-0.0047621485
0.0042498314
-0.0039110602
0.0024467519
-0.0023641756
-5.6417918e-05
-4.3956207e-06
-5.6495639e-05
-5.2734965e-06
-5.6591426e-05
-6.3176845e-06
-5.6705628e-05
-7.5684661e-06
-5.6832539e-05
-9.0667494e-06
-5.6975647e-05
-1.0861054e-05
-5.7129817e-05
-1.3009999e-05
-5.7303698e-05
-1.5582906e-05
-5.7496063e-05
-1.8662975e-05
-5.7721861e-05
-2.2348797e-05
-5.7993454e-05
-2.6757575e-05
-5.8339106e-05
-3.2027956e-05
-5.8782624e-05
-3.8323622e-05
-5.934081e-05
-4.5836532e-05
-6.0001223e-05
-5.4791781e-05
-6.0791954e-05
-6.5447869e-05
-6.1389729e-05
-7.8112908e-05
-6.1518393e-05
-9.3165638e-05
-6.1512826e-05
-0.00011101621
-6.1710819e-05
-0.00013203758
-6.2631604e-05
-0.00015652812
-6.5114694e-05
-0.00018462153
-6.9508697e-05
-0.00021646448
-7.7854266e-05
-0.00025173242
-9.0163448e-05
-0.00029004512
-0.00011182209
-0.00033010637
-0.00014248717
-0.00037055995
-0.000189136
-0.00040788152
-0.00024388543
-0.00044085565
-0.00030824004
-0.00047546804
-0.00038381733
-0.00051238421
-0.00047262308
-0.00054905987
-0.00058492311
-0.00057662401
-0.00072916634
-0.00057763906
-0.00091991203
-0.00053178496
-0.0011440557
-0.000424568
-0.0014107272
-0.00023759307
-0.0016707767
-1.1636023e-05
-0.0019759704
0.00023450093
-0.0022758461
0.00047884936
-0.0026040404
0.00070361355
-0.0029974069
0.0010451137
-0.0034387646
0.0015482622
-0.0038870085
0.0020737075
-0.0043618594
0.0025522043
-0.0046103956
0.0030649764
-0.0046885217
0.0036146285
-0.0048829507
0.0041524409
-0.0047790486
0.0045972879
0.0025358305
-4.3373315e-05
-4.3555552e-06
-4.3226034e-05
-5.2264528e-06
-4.3091864e-05
-6.2624688e-06
-4.3006156e-05
-7.5034732e-06
-4.2977067e-05
-8.989855e-06
-4.3000364e-05
-1.0769727e-05
-4.3074321e-05
-1.2900977e-05
-4.3203024e-05
-1.54523e-05
-4.3392346e-05
-1.8505828e-05
-4.3648913e-05
-2.2159203e-05
-4.3975464e-05
-2.6528278e-05
-4.4378823e-05
-3.1750902e-05
-4.4849664e-05
-3.7989407e-05
-4.5373105e-05
-4.5435763e-05
-4.5933288e-05
-5.4314294e-05
-4.6509555e-05
-6.4879565e-05
-4.6933084e-05
-7.7434896e-05
-4.7064221e-05
-9.2347919e-05
-4.7056749e-05
-0.0001100271
-4.7231942e-05
-0.00013085145
-4.812984e-05
-0.0001550958
-5.0430057e-05
-0.00018288937
-5.4684739e-05
-0.00021429179
-6.2479003e-05
-0.00024897034
-7.449175e-05
-0.00028634773
-9.4883314e-05
-0.00032505854
-0.00012335602
-0.00036387352
-0.00016739623
-0.00039854046
-0.00022010725
-0.00042752667
-0.00028280225
-0.00045666406
-0.00035657772
-0.00048641883
-0.00044442159
-0.00051360812
-0.00055538687
-0.00052874126
-0.00069919862
-0.00051329595
-0.00088832384
-0.00044561572
-0.0011093651
-0.00031210224
-0.0013725051
-9.5531296e-05
-0.0016330754
0.00016579505
-0.001937897
0.0004531652
-0.0022404314
0.00074392645
-0.0025732349
0.0010199649
-0.0029679083
0.0014128717
-0.0034129342
0.0019692643
-0.0038651448
0.002549569
-0.0043396574
0.0030797378
-0.0046127191
0.003617762
-0.0047000616
0.0041451185
-0.0049055322
0.0046300588
-0.0047918126
0.0049647045
0.0026414592
-3.1301215e-05
-4.3304717e-06
-3.1116357e-05
-5.1956968e-06
-3.0926279e-05
-6.2248424e-06
-3.076006e-05
-7.4578473e-06
-3.0630561e-05
-8.9351314e-06
-3.0540387e-05
-1.0704752e-05
-3.0496919e-05
-1.2824232e-05
-3.0515838e-05
-1.5362137e-05
-3.0610498e-05
-1.8400146e-05
-3.0795079e-05
-2.2035328e-05
-3.1070175e-05
-2.6382983e-05
-3.1432593e-05
-3.1580254e-05
-3.1863161e-05
-3.7788403e-05
-3.2320763e-05
-4.5199287e-05
-3.2793193e-05
-5.4036016e-05
-3.3239023e-05
-6.4550821e-05
-3.3551386e-05
-7.704128e-05
-3.364003e-05
-9.1869953e-05
-3.3580426e-05
-0.00010944682
-3.3705836e-05
-0.00013014792
-3.4523961e-05
-0.00015423231
-3.6630411e-05
-0.00018182052
-4.067092e-05
-0.00021290469
-4.7928281e-05
-0.00024713738
-5.9559889e-05
-0.00028375702
-7.8685086e-05
-0.00032136763
-0.00010524545
-0.00035876964
-0.00014696167
-0.00039106223
-0.00019780103
-0.0004164238
-0.00025890091
-0.00044047186
-0.00033098688
-0.00046343933
-0.00041776361
-0.00048154405
-0.00052733486
-0.00048465391
-0.00067034427
-0.00045322303
-0.00085775664
-0.00036432638
-0.001076352
-0.00020494161
-0.0013361898
4.0988307e-05
-0.0015973589
0.00033750997
-0.0019019391
0.00066618773
-0.0022071873
0.0010036105
-0.0025441729
0.0013316036
-0.0029405574
0.0017775636
-0.0033893094
0.002388769
-0.0038455041
0.0030253989
-0.0043205789
0.0036085925
-0.0046141883
0.0041751359
-0.0047119594
0.0046846448
-0.0049267234
0.0051205093
-0.0048058334
0.005351065
0.0027626611
-2.015174e-05
-4.3211856e-06
-2.0111324e-05
-5.1844156e-06
-2.004375e-05
-6.2111592e-06
-1.9945095e-05
-7.4413453e-06
-1.9826488e-05
-8.9151665e-06
-1.9702025e-05
-1.0680688e-05
-1.9588636e-05
-1.2795331e-05
-1.9509288e-05
-1.5327561e-05
-1.9478935e-05
-1.8359054e-05
-1.9519876e-05
-2.1987082e-05
-1.9631417e-05
-2.6326996e-05
-1.9820403e-05
-3.1516252e-05
-2.0071321e-05
-3.771634e-05
-2.0357398e-05
-4.5118865e-05
-2.0658241e-05
-5.394665e-05
-2.0940642e-05
-6.4449689e-05
-2.1113174e-05
-7.6921809e-05
-2.1082351e-05
-9.1723757e-05
-2.0927611e-05
-0.000109264
-2.0967421e-05
-0.00012991312
-2.166426e-05
-0.00015392138
-2.3560229e-05
-0.00018139803
-2.7333578e-05
-0.0002122807
-3.4065254e-05
-0.00024620404
-4.5231856e-05
-0.00028223675
-6.3101253e-05
-0.0003189665
-8.8008049e-05
-0.00035517385
-0.00012773287
-0.0003853517
-0.00017684403
-0.00040741407
-0.00023639377
-0.00042673776
-0.00030688695
-0.00044328106
-0.00039251456
-0.0004526723
-0.00050068147
-0.00044414427
-0.00064263389
-0.00039715321
-0.00082823691
-0.0002876017
-0.0010446885
-0.00010282671
-0.0013014961
0.00017214644
-0.0015632329
0.00050359786
-0.0018677391
0.00087362837
-0.0021756082
0.0012579967
-0.0025164693
0.0016386501
-0.0029149257
0.002139044
-0.0033674583
0.0028065315
-0.0038276521
0.0035010066
-0.0043039921
0.0041386932
-0.004615039
0.0047368245
-0.0047240859
0.0052327311
-0.0049466444
0.0056227953
-0.004820502
0.0057546615
0.0028981997
-9.5311667e-06
-4.3269956e-06
-9.467948e-06
-5.1917418e-06
-9.3812995e-06
-6.2203983e-06
-9.2778697e-06
-7.4528177e-06
-9.1720252e-06
-8.9291659e-06
-9.0731776e-06
-1.0697447e-05
-8.9924581e-06
-1.281511e-05
-8.9392774e-06
-1.5350661e-05
-8.915713e-06
-1.8385995e-05
-8.9310863e-06
-2.2018763e-05
-8.9751973e-06
-2.63649e-05
-9.0528386e-06
-3.1562793e-05
-9.151413e-06
-3.7774867e-05
-9.2620684e-06
-4.51938e-05
-9.3822314e-06
-5.4042878e-05
-9.4804069e-06
-6.4571166e-05
-9.473664e-06
-7.7070654e-05
-9.2841464e-06
-9.1899743e-05
-8.9973701e-06
-0.00010946546
-8.9148596e-06
-0.00013013496
-9.4562079e-06
-0.00015415193
-1.1121778e-05
-0.000181613
-1.4591601e-05
-0.00021241585
-2.0806568e-05
-0.00024616866
-3.1424759e-05
-0.00028180591
-4.8076593e-05
-0.00031790454
-7.1571772e-05
-0.00035310351
-0.00010959528
-0.00038134451
-0.00015708965
-0.00040038303
-0.00021511787
-0.00041534161
-0.00028408312
-0.00042581693
-0.00036850519
-0.0004268711
-0.00047526091
-0.00040709723
-0.00061599365
-0.00034500348
-0.00079970707
-0.00021536226
-0.0010141352
-5.7124681e-06
-0.0012681665
0.00029794532
-0.0015303851
0.0006640774
-0.0018349735
0.0010755046
-0.0021453097
0.0015071932
-0.0024898442
0.0019411481
-0.0028906458
0.0024971379
-0.0033470241
0.0032222184
-0.0038112063
0.0039760785
-0.0042893641
0.0046697835
-0.0046154407
0.0053023576
-0.0047363529
0.0057886846
-0.0049654126
0.0061365477
-0.0048354425
0.0061748297
0.0030474409
4.0147672e-07
-4.3469052e-06
4.6694691e-07
-5.2152812e-06
5.4626124e-07
-6.2481792e-06
6.3339732e-07
-7.4855742e-06
7.1367473e-07
-8.9679002e-06
7.8405855e-07
-1.0743393e-05
8.3981859e-07
-1.2869871e-05
8.8058773e-07
-1.541634e-05
9.1350104e-07
-1.8465326e-05
9.3652586e-07
-2.2115311e-05
9.6597749e-07
-2.6483174e-05
9.9804486e-07
-3.1708515e-05
1.0446688e-06
-3.7955075e-05
1.1046457e-06
-4.5416828e-05
1.1690846e-06
-5.4318369e-05
1.2621342e-06
-6.490892e-05
1.4612831e-06
-7.7479334e-05
1.831925e-06
-9.2387742e-05
2.2785743e-06
-0.00011004053
2.515039e-06
-0.00013080254
2.1606087e-06
-0.00015491172
7.4618139e-07
-0.00018245365
-2.3926696e-06
-0.00021329207
-8.0934391e-06
-0.00024700953
-1.8090256e-05
-0.00028243401
-3.3577869e-05
-0.00031812728
-5.5900032e-05
-0.00035249999
-9.2482288e-05
-0.00037897133
-0.00013845098
-0.00039523962
-0.00019498259
-0.00040617273
-0.00026246788
-0.00041092912
-0.00034563749
-0.00040400183
-0.00045097934
-0.00037335942
-0.00059037695
-0.00029657558
-0.00077214161
-0.00014736684
-0.00098457323
8.6602609e-05
-0.0012360529
0.00041853175
-0.001498644
0.00081904058
-0.0018034488
0.001271874
-0.0021160828
0.0017511946
-0.0024641384
0.002239054
-0.0028674959
0.0028517184
-0.0033277669
0.0036357174
-0.0037959269
0.0044504807
-0.0042763047
0.0052017243
-0.0046156199
0.0058713772
-0.004748731
0.0063520203
-0.0049831501
0.0066609282
-0.004850328
0.0066102039
0.0032094448
9.6673606e-06
-4.3808776e-06
9.6954208e-06
-5.2559558e-06
9.719815e-06
-6.2966552e-06
9.7525912e-06
-7.5431856e-06
9.7890475e-06
-9.0363849e-06
9.8363112e-06
-1.0825032e-05
9.8938431e-06
-1.2967555e-05
9.9637021e-06
-1.5533722e-05
1.0052776e-05
-1.8606927e-05
1.0157362e-05
-2.2286647e-05
1.0292654e-05
-2.6691035e-05
1.0451031e-05
-3.1961133e-05
1.0643551e-05
-3.8262399e-05
1.0863898e-05
-4.5790891e-05
1.1100804e-05
-5.4772974e-05
1.1379013e-05
-6.5459754e-05
1.1769286e-05
-7.8142701e-05
1.2324721e-05
-9.3180035e-05
1.2944596e-05
-0.00011097954
1.3357175e-05
-0.00013190606
1.3216534e-05
-0.00015619248
1.2076491e-05
-0.0001839146
9.2910719e-06
-0.00021490949
4.0971492e-06
-0.00024872756
-5.2439055e-06
-0.00028412493
-1.9631244e-05
-0.00031963316
-4.0980417e-05
-0.00035331599
-7.634741e-05
-0.00037813229
-0.00012087325
-0.00039183776
-0.00017594107
-0.00039904715
-0.00024198042
-0.00039841285
-0.00032386663
-0.00038386031
-0.00042778723
-0.00034273331
-0.00056577475
-0.00025169364
-0.00074554629
-8.3428451e-05
-0.00095596937
0.00017431815
-0.0012050832
0.00053411774
-0.0014679257
0.00096873495
-0.0017730435
0.001462968
-0.0020878009
0.0019902139
-0.0024392544
0.0025324487
-0.00284531
0.0032027067
-0.003309509
0.0040468389
-0.0037816093
0.0049239553
-0.0042645206
0.0057341877
-0.0046156364
0.0064434151
-0.0047611811
0.0069221913
-0.0049999157
0.0071955926
-0.0048649166
0.0070602543
0.0033837246
1.8356364e-05
-4.4283445e-06
1.8391733e-05
-5.3130478e-06
1.8423442e-05
-6.3653314e-06
1.8466497e-05
-7.625996e-06
1.8519623e-05
-9.1363041e-06
1.859088e-05
-1.0945531e-05
1.8678751e-05
-1.3112726e-05
1.8786488e-05
-1.5708392e-05
1.8919964e-05
-1.881675e-05
1.9077627e-05
-2.2538595e-05
1.9276099e-05
-2.699345e-05
1.9510007e-05
-3.2324262e-05
1.9795188e-05
-3.8698755e-05
2.0127282e-05
-4.6315625e-05
2.050154e-05
-5.5405017e-05
2.0942611e-05
-6.6220929e-05
2.1510427e-05
-7.9056478e-05
2.2239656e-05
-9.427125e-05
2.3028776e-05
-0.00011227577
2.3629075e-05
-0.00013343492
2.3721129e-05
-0.00015797973
2.2880488e-05
-0.00018597804
2.0472797e-05
-0.00021724454
1.5770991e-05
-0.00025129233
7.1009792e-06
-0.00028683209
-6.2438592e-06
-0.00032235124
-2.6778285e-05
-0.00035548483
-6.112395e-05
-0.00037876108
-0.00010429206
-0.00039009176
-0.00015792599
-0.00039385977
-0.00022255034
-0.00038815065
-0.00030313165
-0.00036630478
-0.00040562649
-0.00031505561
-0.00054215247
-0.00021014987
-0.00071990273
-2.3311642e-05
-0.00092828715
0.00025763734
-0.0011751879
0.0006448556
-0.0014381621
0.0011132628
-0.0017436553
0.0016488493
-0.0020603682
0.0022242371
-0.0024150982
0.0028212821
-0.0028239515
0.0035500252
-0.0032920851
0.0044555186
-0.0037680855
0.005396398
-0.004253753
0.0062670386
-0.0046156202
0.0070181281
-0.0047737131
0.0074986881
-0.0050158268
0.0077396981
-0.0048789723
0.0075234802
0.0035691868
2.6500014e-05
-4.4891219e-06
2.6592588e-05
-5.3865605e-06
2.6697268e-05
-6.4542728e-06
2.6813356e-05
-7.7336501e-06
2.6931566e-05
-9.266378e-06
2.7054358e-05
-1.1102258e-05
2.7179434e-05
-1.3301152e-05
2.7312807e-05
-1.5934429e-05
2.7463548e-05
-1.9087564e-05
2.7637131e-05
-2.2862486e-05
2.7856199e-05
-2.7380832e-05
2.8124062e-05
-3.2787546e-05
2.8465529e-05
-3.9253696e-05
2.8886325e-05
-4.6981824e-05
2.9386474e-05
-5.6206671e-05
2.9990308e-05
-6.7187019e-05
3.073025e-05
-8.0217981e-05
3.1616084e-05
-9.5659477e-05
3.2565814e-05
-0.00011392614
3.3358464e-05
-0.0001353865
3.3695506e-05
-0.00016027105
3.316298e-05
-0.00018863846
3.114444e-05
-0.00022028855
2.6915186e-05
-0.00025469221
1.8903542e-05
-0.00029052389
6.5242025e-06
-0.00032622983
-1.330657e-05
-0.00035892994
-4.6739916e-05
-0.00038077633
-8.8608453e-05
-0.0003899494
-0.00014082794
-0.0003905725
-0.00020405886
-0.00038011624
-0.00028331927
-0.00035134162
-0.00038438189
-0.00029036932
-0.0005194088
-0.00017203993
-0.00069512537
3.2877038e-05
-0.0009014468
0.00033648387
-0.0011462561
0.00075068585
-0.0014092504
0.0012525776
-0.0017151551
0.0018294343
-0.0020336703
0.0024531281
-0.0023915672
0.0031053195
-0.0028032738
0.0038933177
-0.0032753416
0.00486127
-0.0037551912
0.0058672114
-0.0042438203
0.0067996097
-0.0046156397
0.0075948861
-0.0047863057
0.0080810055
-0.0050309298
0.0082929477
-0.0048922781
0.00799941
0.0037653718
3.4061622e-05
-4.5621105e-06
3.4162772e-05
-5.4735601e-06
3.4275629e-05
-6.5578311e-06
3.440056e-05
-7.8568667e-06
3.4529841e-05
-9.4130833e-06
3.4668814e-05
-1.1277602e-05
3.4817153e-05
-1.3511124e-05
3.4983491e-05
-1.6186713e-05
3.5178416e-05
-1.9391509e-05
3.5408464e-05
-2.3229677e-05
3.5699288e-05
-2.7824927e-05
3.6055244e-05
-3.3325687e-05
3.6510991e-05
-3.9906284e-05
3.7073252e-05
-4.7774063e-05
3.7754409e-05
-5.7169921e-05
3.8543725e-05
-6.8354788e-05
3.9445073e-05
-8.1622819e-05
4.0485679e-05
-9.7339441e-05
4.1592597e-05
-0.0001159261
4.2580504e-05
-0.00013775426
4.3171859e-05
-0.00016305844
4.2943201e-05
-0.00019188318
4.1306252e-05
-0.00022401736
3.7517169e-05
-0.00025888515
3.0121873e-05
-0.00029513652
1.8614884e-05
-0.00033118574
-5.9252023e-07
-0.00036357057
-3.3163294e-05
-0.00038410241
-7.3763027e-05
-0.00039132849
-0.00012458719
-0.00038908877
-0.00018644044
-0.00037419389
-0.00026436328
-0.00033882594
-0.00036398485
-0.00026849953
-0.00049748045
-0.00013714657
-0.00067116429
8.5376003e-05
-0.00087541026
0.00041107446
-0.0011182239
0.00085177764
-0.0013811396
0.0013868062
-0.0016874707
0.0020048248
-0.0020076558
0.0026769361
-0.0023686093
0.0033845985
-0.0027831976
0.0042326157
-0.0032591823
0.0052641288
-0.0037428362
0.0063363949
-0.0042345969
0.0073318784
-0.004615799
0.0081734701
-0.0047989405
0.0086687579
-0.0050452909
0.0088546673
-0.00490466
0.0084867718
0.0039713519
4.1075257e-05
-4.6475788e-06
4.1140381e-05
-5.5759681e-06
4.12008e-05
-6.6801024e-06
4.1272474e-05
-8.0026335e-06
4.1357778e-05
-9.5868151e-06
4.1472452e-05
-1.1484555e-05
4.1620864e-05
-1.3758212e-05
4.1816466e-05
-1.64823e-05
4.2070175e-05
-1.9745985e-05
4.2391812e-05
-2.365623e-05
4.2804598e-05
-2.8339923e-05
4.3313302e-05
-3.3949641e-05
4.3949682e-05
-4.0664708e-05
4.4721745e-05
-4.8698994e-05
4.5608278e-05
-5.8295219e-05
4.6561992e-05
-6.9713732e-05
4.7597902e-05
-8.3253782e-05
4.8788405e-05
-9.9289376e-05
5.0090634e-05
-0.00011825394
5.1307484e-05
-0.00014052482
5.2167934e-05
-0.00016633128
5.2241695e-05
-0.00019570374
5.0969051e-05
-0.00022842203
4.7572796e-05
-0.00026385449
4.0747139e-05
-0.00030063889
3.0017202e-05
-0.00033714755
1.1361812e-05
-0.00036930248
-2.0371933e-05
-0.00038864512
-5.9728795e-05
-0.0003941256
-0.00010918596
-0.00038927888
-0.0001696769
-0.00037024164
-0.00024625981
-0.00032861565
-0.00034444201
-0.00024930336
-0.00047638494
-0.000105337
-0.00064804479
0.00013433423
-0.00085020198
0.00048160825
-0.001091086
0.00094835905
-0.0013538301
0.0015161854
-0.0016605825
0.0021752104
-0.0019823104
0.0028957734
-0.0023462077
0.0036591031
-0.0027636755
0.0045677525
-0.0032435436
0.0056637762
-0.0037309453
0.0068034981
-0.0042259827
0.0078632927
-0.0046160836
0.0087533726
-0.0048115698
0.0092615143
-0.0050589095
0.0094245075
-0.0049159477
0.0089850833
0.0041867002
4.7505262e-05
-4.7439006e-06
4.7465579e-05
-5.6889577e-06
4.7429787e-05
-6.8129957e-06
4.7439189e-05
-8.1597896e-06
4.7501762e-05
-9.7740668e-06
4.7627698e-05
-1.1709412e-05
4.7821996e-05
-1.4029629e-05
4.809273e-05
-1.6811046e-05
4.8448602e-05
-2.0145461e-05
4.88968e-05
-2.4141988e-05
4.9455124e-05
-2.8931144e-05
5.0128918e-05
-3.4668814e-05
5.0941262e-05
-4.1539405e-05
5.1884572e-05
-4.9759154e-05
5.2895863e-05
-5.9572125e-05
5.3934242e-05
-7.1243176e-05
5.507831e-05
-8.5083489e-05
5.6445444e-05
-0.0001014863
5.8008373e-05
-0.00012089427
5.9523886e-05
-0.0001436812
6.0684819e-05
-0.00017007231
6.1065925e-05
-0.00020008001
6.0143121e-05
-0.0002334775
5.708274e-05
-0.00026956134
5.0786678e-05
-0.00030697028
4.0745206e-05
-0.00034404289
2.25769e-05
-0.00037605965
-8.3255027e-06
-0.00039433407
-4.6470478e-05
-0.0003982574
-9.4594298e-05
-0.00039103673
-0.00015375092
-0.00036811938
-0.00022900434
-0.00032052395
-0.00032576436
-0.00023254251
-0.00045614138
-7.6314279e-05
-0.00062579217
0.00018007615
-0.00082584455
0.00054838513
-0.0010648295
0.0010406624
-0.0013273047
0.0016408676
-0.0016344518
0.0023406994
-0.0019576009
0.0031097092
-0.0023243194
0.0039288955
-0.0027446392
0.0048987836
-0.0032283339
0.0060602636
-0.0037194201
0.007268539
-0.0042178426
0.0083938445
-0.0046164864
0.0093343738
-0.0048241363
0.0098588152
-0.005071775
0.010001667
-0.0049259579
0.009492816
0.0044102544
5.3605056e-05
-4.8542871e-06
5.3604741e-05
-5.8244434e-06
5.3619154e-05
-6.978923e-06
5.3681815e-05
-8.3621148e-06
5.3798259e-05
-1.0019431e-05
5.3971641e-05
-1.2004849e-05
5.4211252e-05
-1.4383486e-05
5.4522584e-05
-1.7233596e-05
5.4921299e-05
-2.0648123e-05
5.5414119e-05
-2.4739851e-05
5.6022813e-05
-2.9641892e-05
5.6752595e-05
-3.5514659e-05
5.7620878e-05
-4.2546719e-05
5.8593253e-05
-5.0957444e-05
5.9614818e-05
-6.0995287e-05
6.0686918e-05
-7.293817e-05
6.1932199e-05
-8.7115586e-05
6.3524327e-05
-0.00010393768
6.5396979e-05
-0.00012385123
6.7251439e-05
-0.00014722178
6.8734611e-05
-0.00017426781
6.9422942e-05
-0.00020499323
6.8833666e-05
-0.00023916011
6.6078553e-05
-0.00027599207
6.0280022e-05
-0.00031413144
5.0842144e-05
-0.0003518459
3.3114866e-05
-0.00038379928
3.0432252e-06
-0.00040114798
-3.3920784e-05
-0.00040371495
-8.0752562e-05
-0.00039436002
-0.00013861095
-0.00036782968
-0.0002125389
-0.00031458923
-0.00030787898
-0.00021832021
-0.00043668159
-5.0250057e-05
-0.0006043428
0.00022241447
-0.00080229561
0.00061128137
-0.0010394089
0.0011286496
-0.0013015027
0.0017608213
-0.0016089973
0.0025011556
-0.0019334556
0.0033185065
-0.0023028734
0.004193631
-0.0027259993
0.0052252267
-0.0032134549
0.0064529589
-0.0037081607
0.0077307643
-0.0042100755
0.0089227357
-0.0046169827
0.0099158639
-0.0048365832
0.010460235
-0.0050838688
0.010585804
-0.0049344969
0.010009476
0.0046415739
5.9365639e-05
-4.9746796e-06
5.9505195e-05
-5.9690429e-06
5.9661182e-05
-7.1526943e-06
5.9840625e-05
-8.5714565e-06
6.0044813e-05
-1.0271566e-05
6.0281968e-05
-1.2309099e-05
6.0562793e-05
-1.4750879e-05
6.0896739e-05
-1.7676797e-05
6.1303718e-05
-2.1183162e-05
6.179575e-05
-2.538418e-05
6.2395025e-05
-3.041681e-05
6.3111879e-05
-3.6443854e-05
6.3950882e-05
-4.365674e-05
6.4889366e-05
-5.2279077e-05
6.5892519e-05
-6.2568344e-05
6.7000142e-05
-7.4816557e-05
6.8378015e-05
-8.9375714e-05
7.0194644e-05
-0.0001066706
7.2352427e-05
-0.00012713584
7.4526703e-05
-0.0001511358
7.6322342e-05
-0.00017889915
7.7303011e-05
-0.00021041438
7.7034307e-05
-0.00024543153
7.4587028e-05
-0.00028310488
6.9255804e-05
-0.00032206952
6.0332385e-05
-0.00036049607
4.3011542e-05
-0.00039245963
1.3759109e-05
-0.00040900493
-2.2058889e-05
-0.00041038831
-6.7639538e-05
-0.00039911409
-0.00012422
-0.00036922026
-0.0001968117
-0.00031063268
-0.00029071489
-0.00020642422
-0.00041793137
-2.6898106e-05
-0.00058362423
0.00026160187
-0.00077950344
0.00067051605
-0.0010147945
0.0012125126
-0.0012764087
0.0018762575
-0.0015841732
0.0026567833
-0.0019098352
0.0035223221
-0.0022818296
0.0044534756
-0.0027077009
0.005547251
-0.003198841
0.0068420297
-0.0036971032
0.0081903175
-0.0042026118
0.0094500773
-0.0046175728
0.010497725
-0.0048488441
0.011065386
-0.0050951492
0.011176234
-0.004941435
0.010533779
0.0048796798
6.4580065e-05
-5.1058584e-06
6.4740369e-05
-6.1265095e-06
6.49278e-05
-7.3417681e-06
6.5148357e-05
-8.7982905e-06
6.5405229e-05
-1.0544028e-05
6.5706347e-05
-1.2636706e-05
6.6058284e-05
-1.514489e-05
6.6471072e-05
-1.8151345e-05
6.6955838e-05
-2.1754992e-05
6.752408e-05
-2.6073375e-05
6.8188003e-05
-3.1247597e-05
6.895576e-05
-3.7443703e-05
6.9827351e-05
-4.4857948e-05
7.0788937e-05
-5.3718434e-05
7.1834846e-05
-6.4291021e-05
7.3031581e-05
-7.6886278e-05
7.4561312e-05
-9.1874113e-05
7.6557846e-05
-0.0001096785
7.8926647e-05
-0.00013073018
8.1379327e-05
-0.0001554072
8.346384e-05
-0.00018395066
8.4709914e-05
-0.00021632849
8.4742768e-05
-0.00025226733
8.2620117e-05
-0.00029088139
7.7740431e-05
-0.0003307916
6.9254356e-05
-0.00036999809
5.229133e-05
-0.00040201338
2.3816361e-05
-0.00041784629
-1.089856e-05
-0.00041818667
-5.5253734e-05
-0.00040518703
-0.00011056066
-0.00037218418
-0.00018181048
-0.00030855717
-0.00027426906
-0.00019675954
-0.00039989219
-6.1687442e-06
-0.0005636383
0.00029774532
-0.00075746218
0.00072624792
-0.00099097908
0.0012924519
-0.0012520377
0.0019873902
-0.0015599833
0.0028077614
-0.0018867443
0.0037212554
-0.0022611848
0.004708389
-0.0026897254
0.0058646506
-0.0031844583
0.0072270989
-0.0036861984
0.0086466742
-0.0041953751
0.0099752717
-0.0046181615
0.011079467
-0.0048608059
0.011673856
-0.005105558
0.011772542
-0.004946636
0.011065212
0.0051241452
6.9391522e-05
-5.2476383e-06
6.956547e-05
-6.2968032e-06
6.9770726e-05
-7.5460185e-06
7.0014042e-05
-9.0434734e-06
7.0300381e-05
-1.0838406e-05
7.0638297e-05
-1.2990272e-05
7.1035231e-05
-1.5569596e-05
7.1502472e-05
-1.8662195e-05
7.204947e-05
-2.2369069e-05
7.2687749e-05
-2.6812548e-05
7.3425995e-05
-3.2137032e-05
7.4268618e-05
-3.8513982e-05
7.5221086e-05
-4.6144723e-05
7.6271381e-05
-5.5265355e-05
7.7430346e-05
-6.6152325e-05
7.8778964e-05
-7.9131269e-05
8.0463665e-05
-9.4582996e-05
8.2601971e-05
-0.00011293411
8.513806e-05
-0.00013461385
8.7874851e-05
-0.00016003083
9.0236062e-05
-0.00018943966
9.1676962e-05
-0.00022273975
9.1981879e-05
-0.00025964753
9.0194477e-05
-0.00029928582
8.5771284e-05
-0.00034024521
7.7655806e-05
-0.00038030289
6.0976118e-05
-0.00041239968
3.3230981e-05
-0.00042758129
-4.1383326e-07
-0.0004270064
-4.3556172e-05
-0.00041246484
-9.7598138e-05
-0.00037658065
-0.0001675093
-0.0003081802
-0.00025852782
-0.0001890993
-0.00038255534
1.2209397e-05
-0.00054437702
0.00033112856
-0.00073616197
0.00077872714
-0.00096792919
0.0013686499
-0.0012283711
0.0020943679
-0.0015364223
0.0029542745
-0.0018641655
0.0039154872
-0.0022409146
0.0049585375
-0.0026720294
0.0061775923
-0.0031702413
0.0076083244
-0.0036753798
0.0090999684
-0.0041882692
0.010498387
-0.0046186815
0.011660891
-0.004872368
0.012285085
-0.0051150004
0.012373822
-0.0049499253
0.011602128
0.005373729
7.3820256e-05
-5.3998213e-06
7.4006773e-05
-6.4795163e-06
7.4227569e-05
-7.7651494e-06
7.4489604e-05
-9.3062015e-06
7.4799022e-05
-1.1153925e-05
7.5164665e-05
-1.3368732e-05
7.5595074e-05
-1.6024352e-05
7.6101516e-05
-1.920829e-05
7.6694347e-05
-2.3025517e-05
7.7384842e-05
-2.760143e-05
7.8185029e-05
-3.3085308e-05
7.9098516e-05
-3.9654045e-05
8.0137166e-05
-4.7515322e-05
8.13073e-05
-5.6914384e-05
8.2626692e-05
-6.8140418e-05
8.4157362e-05
-8.1532827e-05
8.6016016e-05
-9.7484084e-05
8.8296357e-05
-0.00011641947
9.099442e-05
-0.00013877208
9.4103936e-05
-0.00016501133
9.6729638e-05
-0.00019538822
9.8234236e-05
-0.00022966081
9.8774986e-05
-0.00026756548
9.7324763e-05
-0.0003083078
9.3367745e-05
-0.00035044206
8.5558444e-05
-0.00039141152
6.9090255e-05
-0.00042359922
4.205226e-05
-0.00043821203
9.4621933e-06
-0.00043687266
-3.2479688e-05
-0.00042099187
-8.526868e-05
-0.00038247504
-0.00015384579
-0.00030960444
-0.00024342938
-0.00018359137
-0.00036586105
2.8041301e-05
-0.00052577999
0.00036154252
-0.0007155414
0.000827786
-0.0009455712
0.0014409809
-0.0012053492
0.0021970694
-0.0015134465
0.0030961683
-0.0018420432
0.0041047885
-0.0022209498
0.0052035262
-0.0026545353
0.0064854992
-0.0031561042
0.0079849717
-0.003664545
0.0095493451
-0.0041811904
0.011018574
-0.0046190496
0.01224138
-0.004883441
0.012898646
-0.0051233983
0.012979648
-0.0049511449
0.012144013
0.0056279822
7.7889524e-05
-5.5621587e-06
7.8087887e-05
-6.6741843e-06
7.8322925e-05
-7.9987597e-06
7.860217e-05
-9.5864744e-06
7.8931513e-05
-1.1490223e-05
7.9321058e-05
-1.3772408e-05
7.9778741e-05
-1.6509066e-05
8.0316659e-05
-1.9790067e-05
8.0945504e-05
-2.3724063e-05
8.1678556e-05
-2.8440307e-05
8.2532328e-05
-3.4092925e-05
8.3513289e-05
-4.0864482e-05
8.4642033e-05
-4.8971458e-05
8.5940999e-05
-5.8668159e-05
8.7432076e-05
-7.0256422e-05
8.9160163e-05
-8.4090032e-05
9.1205186e-05
-0.00010057122
9.3632091e-05
-0.00012012535
9.6493849e-05
-0.00014318549
0.00010012904
-0.00017033417
0.00010301056
-0.0002018147
0.00010438971
-0.00023710031
0.00010513802
-0.00027599048
0.00010403119
-0.00031791029
0.00010054325
-0.00036132996
9.2978318e-05
-0.00040326615
7.6667637e-05
-0.00043555149
5.0324263e-05
-0.00044965179
1.8778111e-05
-0.00044768065
-2.1980712e-05
-0.00043064559
-7.3528021e-05
-0.00038971519
-0.00014077584
-0.00031263614
-0.00022892928
-0.00017999556
-0.00034976454
4.1610519e-05
-0.00050780237
0.00038928522
-0.00069555841
0.00087369268
-0.00092385847
0.0015096634
-0.0011829274
0.002295681
-0.0014910275
0.0032336575
-0.0018203597
0.0042894409
-0.0022012471
0.0054436645
-0.0026371914
0.0067886564
-0.0031419883
0.0083573251
-0.0036536448
0.0099950638
-0.0041740746
0.011536017
-0.0046191899
0.012820807
-0.004893899
0.013514051
-0.0051306786
0.013589272
-0.0049501852
0.012689521
0.0058858938
8.1616674e-05
-5.7342051e-06
8.1826447e-05
-6.8805273e-06
8.2074635e-05
-8.2462434e-06
8.2369603e-05
-9.8835573e-06
8.2716876e-05
-1.1846426e-05
8.3127461e-05
-1.4199942e-05
8.3609012e-05
-1.7022072e-05
8.4174692e-05
-2.0405744e-05
8.4837982e-05
-2.4463368e-05
8.5614509e-05
-2.9328445e-05
8.6524147e-05
-3.5160088e-05
8.7579906e-05
-4.2148374e-05
8.88109e-05
-5.0517588e-05
9.0244638e-05
-6.0532766e-05
9.191113e-05
-7.2508248e-05
9.3834714e-05
-8.6810959e-05
9.6050708e-05
-0.00010384903
9.8609198e-05
-0.00012404787
0.00010154805
-0.00014781227
0.0001054084
-0.00017572244
0.00010855391
-0.0002081858
0.00011008265
-0.00024472033
0.00011106848
-0.00028486503
0.00011033267
-0.00032806718
0.00010729016
-0.00037288243
9.9902236e-05
-0.00041579809
8.373422e-05
-0.00044818954
5.8067154e-05
-0.00046186465
2.7543221e-05
-0.00045937464
-1.2057152e-05
-0.00044134144
-6.2378647e-05
-0.0003982063
-0.00012830776
-0.00031717958
-0.00021504036
-0.00017821819
-0.00033428217
5.3007088e-05
-0.00049045921
0.00041446417
-0.00067622797
0.00091662066
-0.00090280166
0.0015749446
-0.0011611084
0.0023904536
-0.0014691579
0.003366894
-0.0017991241
0.0044694927
-0.002181811
0.0056789012
-0.0026199869
0.0070868597
-0.0031278623
0.0087249978
-0.0036426294
0.010436594
-0.0041668345
0.01205012
-0.0046190087
0.013398697
-0.0049036329
0.014130874
-0.0051367271
0.014202201
-0.0049469333
0.013238108
0.0061470279
8.501781e-05
-5.9154756e-06
8.5238691e-05
-7.0984468e-06
8.5499689e-05
-8.5076688e-06
8.5809225e-05
-1.0196938e-05
8.6173627e-05
-1.2222588e-05
8.6604382e-05
-1.4651517e-05
8.7110355e-05
-1.756379e-05
8.7706858e-05
-2.1056582e-05
8.8409922e-05
-2.5244961e-05
8.9239262e-05
-3.0268067e-05
9.0216168e-05
-3.6290796e-05