/*--------------------------------*- C++ -*----------------------------------*\
  =========                 |
  \\      /  F ield         | OpenFOAM: The Open Source CFD Toolbox
   \\    /   O peration     | Website:  https://openfoam.org
    \\  /    A nd           | Version:  8
     \\/     M anipulation  |
\*---------------------------------------------------------------------------*/
FoamFile
{
    version     2.0;
    format      ascii;
    class       volScalarField;
    location    "0.0800043";
    object      nut;
}
// * * * * * * * * * * * * * * * * * * * * * * * * * * * * * * * * * * * * * //

dimensions      [0 2 -1 0 0 0 0];

internalField   nonuniform List<scalar> 
20000
(
0.0011435155
0.0026380534
0.0033197305
0.0032838581
0.0024242576
0.00060737159
2.7514425e-07
5.4607918e-09
4.9655336e-09
4.9315405e-09
4.7925032e-09
4.8186652e-09
4.736991e-09
4.7726897e-09
4.7646617e-09
4.8002614e-09
4.819079e-09
4.8622495e-09
4.904672e-09
4.9662436e-09
5.0359501e-09
5.1235619e-09
5.2236697e-09
5.3421971e-09
5.4823987e-09
5.647031e-09
5.8271612e-09
6.0209759e-09
6.2204798e-09
6.4191778e-09
6.60714e-09
6.7778157e-09
6.9263659e-09
7.0511513e-09
7.1524136e-09
7.2323412e-09
7.2942375e-09
7.340961e-09
7.3738246e-09
7.3992404e-09
7.4222935e-09
7.4379641e-09
7.4467624e-09
7.4508718e-09
7.452031e-09
7.4444722e-09
7.4149373e-09
7.3863232e-09
7.3743533e-09
7.3738884e-09
0.0011361712
0.0025875743
0.0032196424
0.0031324239
0.0021913694
0.00046973668
8.1873431e-08
5.3623416e-09
4.9109062e-09
4.8813411e-09
4.7462736e-09
4.7741405e-09
4.6938312e-09
4.730399e-09
4.7235382e-09
4.7601414e-09
4.7804099e-09
4.8251217e-09
4.8694953e-09
4.9329866e-09
5.0046971e-09
5.094323e-09
5.1975017e-09
5.3215797e-09
5.4695937e-09
5.6416375e-09
5.8270776e-09
6.024966e-09
6.2286843e-09
6.4294736e-09
6.6181961e-09
6.7883072e-09
6.9355549e-09
7.0586842e-09
7.1583301e-09
7.2369309e-09
7.2977948e-09
7.3435746e-09
7.3758397e-09
7.4015445e-09
7.4244854e-09
7.4391616e-09
7.4474564e-09
7.4517643e-09
7.4528558e-09
7.4438319e-09
7.4118619e-09
7.3866039e-09
7.3745725e-09
7.3740202e-09
0.0011269483
0.0025343792
0.0031165236
0.0029826859
0.0019566585
0.00034719997
3.024003e-08
5.2834468e-09
4.8598762e-09
4.8340101e-09
4.7032783e-09
4.7326016e-09
4.6537491e-09
4.6909276e-09
4.6854342e-09
4.7230086e-09
4.7448045e-09
4.7910484e-09
4.8371726e-09
4.9022446e-09
4.9757277e-09
5.067847e-09
5.1758939e-09
5.3092938e-09
5.4659407e-09
5.6415492e-09
5.8305769e-09
6.0334008e-09
6.2405462e-09
6.4432154e-09
6.6321757e-09
6.8011998e-09
6.9466134e-09
7.0676126e-09
7.1652467e-09
7.2422311e-09
7.3018619e-09
7.3465659e-09
7.3782244e-09
7.4044767e-09
7.4272999e-09
7.4413548e-09
7.4489315e-09
7.4529621e-09
7.4543675e-09
7.4424861e-09
7.4080014e-09
7.3852506e-09
7.3753486e-09
7.3741395e-09
0.0011179172
0.0024821487
0.0030116724
0.002830343
0.0017251202
0.00024260612
1.4793657e-08
5.2146062e-09
4.8117441e-09
4.7895417e-09
4.6629798e-09
4.6938163e-09
4.6164632e-09
4.6543719e-09
4.6503029e-09
4.6889432e-09
4.7123537e-09
4.7600708e-09
4.8078412e-09
4.8744725e-09
4.950349e-09
5.0468688e-09
5.1634695e-09
5.3047877e-09
5.464957e-09
5.6437169e-09
5.8396046e-09
6.047311e-09
6.2578368e-09
6.4617706e-09
6.6502717e-09
6.8175122e-09
6.96043e-09
7.0787222e-09
7.1738516e-09
7.2488134e-09
7.3068343e-09
7.3501502e-09
7.3810883e-09
7.4077407e-09
7.4298814e-09
7.4432691e-09
7.4502625e-09
7.4539229e-09
7.4552578e-09
7.4399632e-09
7.405658e-09
7.3850112e-09
7.3755092e-09
7.3742894e-09
0.0011090307
0.0024320586
0.0029151752
0.0026793637
0.0015008418
0.0001517986
9.3075565e-09
5.153085e-09
4.7672546e-09
4.7485655e-09
4.6260557e-09
4.6583999e-09
4.5825221e-09
4.6211793e-09
4.6186003e-09
4.6583023e-09
4.6832288e-09
4.7322653e-09
4.7816901e-09
4.8504396e-09
4.9303991e-09
5.0346179e-09
5.1586732e-09
5.3038205e-09
5.4670866e-09
5.6524361e-09
5.8540756e-09
6.0665159e-09
6.2798313e-09
6.4844556e-09
6.6718072e-09
6.8365934e-09
6.9764058e-09
7.091477e-09
7.1836874e-09
7.256304e-09
7.3124446e-09
7.3541793e-09
7.384358e-09
7.4111952e-09
7.4325388e-09
7.4453907e-09
7.4519011e-09
7.4549555e-09
7.4556326e-09
7.4366527e-09
7.4036758e-09
7.3844913e-09
7.3756792e-09
7.3744315e-09
0.001099838
0.0023822193
0.0028190783
0.0025306002
0.0012868818
7.7142419e-05
7.0716958e-09
5.0965826e-09
4.7264279e-09
4.7111263e-09
4.5925636e-09
4.6264495e-09
4.5520829e-09
4.5915581e-09
4.5905108e-09
4.6311981e-09
4.6575185e-09
4.7078663e-09
4.7596116e-09
4.8321229e-09
4.919361e-09
5.0299595e-09
5.1576501e-09
5.3053195e-09
5.475275e-09
5.6666921e-09
5.8744512e-09
6.0912736e-09
6.3068717e-09
6.5114779e-09
6.69693e-09
6.8585549e-09
6.9946377e-09
7.105969e-09
7.1948417e-09
7.2647764e-09
7.3187447e-09
7.3587052e-09
7.3880587e-09
7.414725e-09
7.4350924e-09
7.4473931e-09
7.4536211e-09
7.4561755e-09
7.4557623e-09
7.4330808e-09
7.4020304e-09
7.3841028e-09
7.3757315e-09
7.3745886e-09
0.0010907136
0.0023330396
0.0027240765
0.0023815996
0.0010865814
2.9139975e-05
6.0620003e-09
5.0455275e-09
4.6894476e-09
4.677438e-09
4.5627699e-09
4.5982611e-09
4.5254299e-09
4.5657293e-09
4.5661846e-09
4.6078173e-09
4.6356392e-09
4.6879838e-09
4.7434858e-09
4.8226743e-09
4.9151317e-09
5.0289029e-09
5.1588229e-09
5.3130292e-09
5.4892227e-09
5.6873005e-09
5.9007635e-09
6.1215438e-09
6.3387499e-09
6.5425837e-09
6.7253621e-09
6.8831228e-09
7.0148772e-09
7.1219831e-09
7.2071387e-09
7.2740891e-09
7.3256354e-09
7.3636923e-09
7.3921635e-09
7.4182717e-09
7.4376079e-09
7.449352e-09
7.4553394e-09
7.4577905e-09
7.4557571e-09
7.4294975e-09
7.4004036e-09
7.3836396e-09
7.3757868e-09
7.3747463e-09
0.0010814145
0.0022842168
0.0026299585
0.0022309959
0.00090240617
8.4184378e-06
5.5719814e-09
5.0020706e-09
4.656305e-09
4.647579e-09
4.5367753e-09
4.5739569e-09
4.5026761e-09
4.5437716e-09
4.5457322e-09
4.5886012e-09
4.61877e-09
4.6749812e-09
4.7363552e-09
4.8191042e-09
4.9142668e-09
5.0300677e-09
5.1661408e-09
5.3263257e-09
5.5095061e-09
5.7141219e-09
5.9331184e-09
6.1573207e-09
6.3754091e-09
6.5776496e-09
6.7569554e-09
6.9101504e-09
7.0369959e-09
7.1394165e-09
7.2205003e-09
7.2841804e-09
7.3330735e-09
7.3691376e-09
7.3966614e-09
7.421818e-09
7.4400708e-09
7.4512681e-09
7.4570869e-09
7.4595067e-09
7.4557126e-09
7.4260247e-09
7.3988362e-09
7.3831848e-09
7.375822e-09
7.3749006e-09
0.0010720008
0.0022359725
0.0025368268
0.0020816361
0.00073641958
2.1395535e-06
5.3190735e-09
4.9626416e-09
4.6274506e-09
4.621929e-09
4.5147755e-09
4.5535709e-09
4.4839036e-09
4.5259399e-09
4.5297443e-09
4.5747708e-09
4.6094004e-09
4.66968e-09
4.7337362e-09
4.818449e-09
4.9158297e-09
5.0371274e-09
5.1788798e-09
5.3459496e-09
5.5361468e-09
5.7473599e-09
5.9714995e-09
6.1984996e-09
6.4166497e-09
6.6164318e-09
6.7914553e-09
6.9393981e-09
7.060785e-09
7.1580975e-09
7.2347905e-09
7.2949423e-09
7.3409819e-09
7.3750073e-09
7.4015433e-09
7.4255057e-09
7.4425103e-09
7.4531373e-09
7.4588164e-09
7.4612212e-09
7.4551678e-09
7.4227689e-09
7.3973188e-09
7.3827329e-09
7.3758513e-09
7.3750457e-09
0.0010626075
0.0021889047
0.0024444306
0.0019299065
0.00058912137
5.5118916e-07
5.1782807e-09
4.9285539e-09
4.6031136e-09
4.6007483e-09
4.4967228e-09
4.5370851e-09
4.4694819e-09
4.513107e-09
4.5202462e-09
4.5684308e-09
4.6057377e-09
4.6679359e-09
4.7335156e-09
4.8205954e-09
4.9229617e-09
5.0494405e-09
5.1977956e-09
5.3718547e-09
5.5693118e-09
5.7869821e-09
6.0158428e-09
6.2449199e-09
6.4622514e-09
6.6586762e-09
6.8286086e-09
6.9706356e-09
7.0860493e-09
7.1778693e-09
7.2498868e-09
7.3062797e-09
7.3492928e-09
7.3812501e-09
7.4066883e-09
7.4293436e-09
7.4449891e-09
7.4549335e-09
7.4604448e-09
7.4628187e-09
7.453937e-09
7.4197696e-09
7.3959026e-09
7.3823041e-09
7.3758752e-09
7.3751779e-09
0.0010534694
0.0021437669
0.0023543643
0.0017744218
0.00046221095
1.6259967e-07
5.09297e-09
4.8997274e-09
4.583436e-09
4.5840873e-09
4.4832873e-09
4.5260053e-09
4.4611897e-09
4.5069011e-09
4.5163723e-09
4.5658629e-09
4.6048077e-09
4.6679319e-09
4.7365999e-09
4.8279135e-09
4.9351773e-09
5.0676982e-09
5.2228369e-09
5.4042696e-09
5.6090502e-09
5.8329979e-09
6.0660323e-09
6.2963715e-09
6.5119387e-09
6.7040826e-09
6.8681238e-09
7.0036011e-09
7.1125683e-09
7.1985553e-09
7.2656515e-09
7.3180868e-09
7.3579329e-09
7.3877951e-09
7.4120701e-09
7.4333935e-09
7.4475971e-09
7.4566822e-09
7.4618228e-09
7.4641797e-09
7.4519453e-09
7.4170488e-09
7.3945976e-09
7.3818931e-09
7.3758621e-09
7.3752951e-09
0.001044593
0.0021005583
0.0022731841
0.0016151267
0.00035661291
5.9292052e-08
5.0410548e-09
4.8751616e-09
4.569368e-09
4.5716511e-09
4.4769794e-09
4.5166269e-09
4.4577677e-09
4.5041024e-09
4.5152034e-09
4.5652314e-09
4.6057816e-09
4.6719653e-09
4.7444964e-09
4.8401838e-09
4.953068e-09
5.0918563e-09
5.2542197e-09
5.4432302e-09
5.6553786e-09
5.8853074e-09
6.1218788e-09
6.3525826e-09
6.5653938e-09
6.7523251e-09
6.9096959e-09
7.0380276e-09
7.140121e-09
7.2199809e-09
7.2819497e-09
7.3302625e-09
7.3668363e-09
7.3945716e-09
7.4176279e-09
7.4375906e-09
7.4503917e-09
7.4584844e-09
7.462946e-09
7.4650403e-09
7.4491982e-09
7.4146001e-09
7.3933927e-09
7.3814964e-09
7.3758265e-09
7.3753961e-09
0.0010358478
0.0020576354
0.0021923524
0.0014518292
0.00026277956
2.6806919e-08
5.0155572e-09
4.8552813e-09
4.5635563e-09
4.5626468e-09
4.4680276e-09
4.505266e-09
4.4565802e-09
4.5029939e-09
4.5154396e-09
4.5673717e-09
4.6111512e-09
4.6804492e-09
4.7572519e-09
4.8578505e-09
4.9766192e-09
5.122126e-09
5.2920052e-09
5.4888225e-09
5.7082848e-09
5.9438072e-09
6.1831622e-09
6.4132503e-09
6.6222692e-09
6.8030529e-09
6.953e-09
7.0736328e-09
7.1684754e-09
7.2419647e-09
7.2986424e-09
7.3427038e-09
7.3759365e-09
7.4015174e-09
7.4232572e-09
7.4417836e-09
7.4533404e-09
7.4604669e-09
7.464025e-09
7.4653991e-09
7.4458075e-09
7.41239e-09
7.3922598e-09
7.3811076e-09
7.3757703e-09
7.3754784e-09
0.0010273806
0.0020152535
0.0021123808
0.00128815
0.00018068239
1.5204354e-08
5.0053037e-09
4.842494e-09
4.5554062e-09
4.5541147e-09
4.4578254e-09
4.4958353e-09
4.4564251e-09
4.5042819e-09
4.5195687e-09
4.5737566e-09
4.6208241e-09
4.6937481e-09
4.7751523e-09
4.8809332e-09
5.0060005e-09
5.1585431e-09
5.3362689e-09
5.5410339e-09
5.7676932e-09
6.0082999e-09
6.2495881e-09
6.478012e-09
6.6821803e-09
6.8558937e-09
6.9977012e-09
7.1101337e-09
7.197404e-09
7.2643307e-09
7.3155953e-09
7.3553139e-09
7.3851717e-09
7.4085689e-09
7.4288308e-09
7.4458188e-09
7.4563252e-09
7.462671e-09
7.4653473e-09
7.4655058e-09
7.4421944e-09
7.4102375e-09
7.3911743e-09
7.380727e-09
7.3756991e-09
7.375535e-09
0.0010191935
0.0019733042
0.0020330399
0.0011314767
0.00011010145
1.0443543e-08
4.9922966e-09
4.834008e-09
4.5458996e-09
4.5453269e-09
4.4501107e-09
4.4894608e-09
4.4596799e-09
4.5096488e-09
4.5278102e-09
4.5845427e-09
4.6352264e-09
4.7119421e-09
4.7982375e-09
4.9095546e-09
5.0412557e-09
5.201205e-09
5.3870593e-09
5.5998863e-09
5.8335212e-09
6.0785909e-09
6.3208519e-09
6.5464902e-09
6.7447252e-09
6.9104583e-09
7.043453e-09
7.147243e-09
7.2266801e-09
7.2869041e-09
7.3326739e-09
7.3679962e-09
7.3944802e-09
7.4156694e-09
7.4342742e-09
7.4495955e-09
7.4592058e-09
7.4649632e-09
7.4672932e-09
7.4654842e-09
7.4385018e-09
7.4081255e-09
7.3901362e-09
7.380363e-09
7.3756207e-09
7.3755637e-09
0.0010109005
0.0019299579
0.0019531026
0.00098604872
5.5674111e-05
8.2653994e-09
4.9884175e-09
4.8258687e-09
4.5454445e-09
4.5437047e-09
4.4505414e-09
4.4904025e-09
4.4672757e-09
4.5193806e-09
4.540565e-09
4.5998815e-09
4.6543206e-09
4.7350919e-09
4.8265653e-09
4.943739e-09
5.0824364e-09
5.250138e-09
5.4443857e-09
5.6653189e-09
5.9056036e-09
6.1543984e-09
6.3965744e-09
6.6182545e-09
6.8094629e-09
6.966337e-09
7.0899066e-09
7.1846853e-09
7.2560941e-09
7.3095223e-09
7.3497513e-09
7.3806608e-09
7.4038038e-09
7.4227725e-09
7.4395507e-09
7.4530609e-09
7.4619471e-09
7.4673653e-09
7.4695733e-09
7.4653625e-09
7.434841e-09
7.406077e-09
7.3891633e-09
7.3800273e-09
7.3755422e-09
7.3755844e-09
0.001002216
0.0018839836
0.0018713701
0.00085166652
2.284629e-05
7.1911285e-09
4.9865038e-09
4.8190277e-09
4.5511408e-09
4.548812e-09
4.4591939e-09
4.5000778e-09
4.4795645e-09
4.5333976e-09
4.5576264e-09
4.619695e-09
4.6781291e-09
4.7631897e-09
4.8601488e-09
4.9835287e-09
5.1295938e-09
5.3054109e-09
5.5082916e-09
5.7373094e-09
5.9837983e-09
6.2354497e-09
6.476373e-09
6.6928602e-09
6.8759329e-09
7.0231091e-09
7.136718e-09
7.2221974e-09
7.2854494e-09
7.3320302e-09
7.3667025e-09
7.3932196e-09
7.4130885e-09
7.4298384e-09
7.4446555e-09
7.4562491e-09
7.4645126e-09
7.4697121e-09
7.4719531e-09
7.4646537e-09
7.4313025e-09
7.4041367e-09
7.3882789e-09
7.3797339e-09
7.3754674e-09
7.3755773e-09
0.000993206
0.0018356619
0.0017868522
0.00072833729
7.9464041e-06
6.6191597e-09
4.9797224e-09
4.8155643e-09
4.5567226e-09
4.55571e-09
4.4710758e-09
4.5134317e-09
4.4957601e-09
4.5514517e-09
4.5789525e-09
4.643951e-09
4.7066109e-09
4.7962298e-09
4.8989954e-09
5.0289384e-09
5.1827614e-09
5.3670407e-09
5.5787595e-09
5.8157405e-09
6.0678648e-09
6.3213696e-09
6.5597817e-09
6.7697934e-09
6.9436366e-09
7.0803542e-09
7.1835688e-09
7.2595426e-09
7.314568e-09
7.3542868e-09
7.3834123e-09
7.4055934e-09
7.4222883e-09
7.4368276e-09
7.4496032e-09
7.4593825e-09
7.4669021e-09
7.4717887e-09
7.4740692e-09
7.4634222e-09
7.4279723e-09
7.4023529e-09
7.387498e-09
7.3794837e-09
7.3754018e-09
7.3755479e-09
0.00098365461
0.0017841854
0.0016980108
0.00061623404
2.5614348e-06
6.2904208e-09
4.9729278e-09
4.8166809e-09
4.5655312e-09
4.5673655e-09
4.4861553e-09
4.5303185e-09
4.5158517e-09
4.57355e-09
4.6044819e-09
4.6726026e-09
4.7397407e-09
4.8342025e-09
4.9431205e-09
5.0800219e-09
5.2420155e-09
5.4351102e-09
5.6558289e-09
5.9005502e-09
6.1575949e-09
6.4118014e-09
6.6463318e-09
6.8485264e-09
7.0120834e-09
7.1376898e-09
7.2301801e-09
7.2965007e-09
7.343269e-09
7.3761517e-09
7.3997722e-09
7.4177118e-09
7.4313624e-09
7.4436967e-09
7.4543976e-09
7.4626105e-09
7.4692043e-09
7.4734573e-09
7.4755301e-09
7.4615333e-09
7.424939e-09
7.400768e-09
7.3868224e-09
7.3792622e-09
7.3753401e-09
7.375497e-09
0.00097344553
0.0017291436
0.0015977402
0.00051488428
8.3393584e-07
6.103097e-09
4.9696035e-09
4.8210228e-09
4.5774974e-09
4.581979e-09
4.5048959e-09
4.5510088e-09
4.5397909e-09
4.5996027e-09
4.6341596e-09
4.7056071e-09
4.7774919e-09
4.8771055e-09
4.9925444e-09
5.1368223e-09
5.3074083e-09
5.5096529e-09
5.7394533e-09
5.9915625e-09
6.252654e-09
6.5062741e-09
6.7354529e-09
6.928483e-09
7.0808133e-09
7.1948022e-09
7.2763176e-09
7.3328606e-09
7.3713584e-09
7.3974825e-09
7.4156911e-09
7.4295234e-09
7.4402759e-09
7.450399e-09
7.4590268e-09
7.4659268e-09
7.4715521e-09
7.4748473e-09
7.4761223e-09
7.4589138e-09
7.422277e-09
7.3994072e-09
7.3862593e-09
7.3790711e-09
7.3752822e-09
7.3754218e-09
0.00096283593
0.0016721246
0.0014902047
0.00042197191
2.8876162e-07
5.9899008e-09
4.970202e-09
4.8292548e-09
4.5930527e-09
4.6006479e-09
4.5272107e-09
4.5752996e-09
4.5675016e-09
4.6295574e-09
4.667939e-09
4.7428937e-09
4.8198528e-09
4.924959e-09
5.0473334e-09
5.1994412e-09
5.3790658e-09
5.5907791e-09
5.8296679e-09
6.0886593e-09
6.352749e-09
6.6043231e-09
6.8265747e-09
7.0091378e-09
7.1494792e-09
7.2514677e-09
7.3217586e-09
7.3683882e-09
7.3986176e-09
7.4181207e-09
7.4310917e-09
7.4409956e-09
7.4489949e-09
7.4568852e-09
7.4634456e-09
7.4691943e-09
7.4740249e-09
7.4763713e-09
7.4763359e-09
7.4556665e-09
7.4199929e-09
7.3982713e-09
7.3858301e-09
7.3789174e-09
7.3752237e-09
7.3753193e-09
0.000951835
0.0016134769
0.0013760184
0.00034037652
1.1356531e-07
5.9179099e-09
4.974515e-09
4.8408641e-09
4.6119176e-09
4.6224674e-09
4.5529638e-09
4.603138e-09
4.5989207e-09
4.6633493e-09
4.7057801e-09
4.7844961e-09
4.86683e-09
4.9778142e-09
5.1075581e-09
5.2679811e-09
5.457064e-09
5.6785274e-09
5.9263735e-09
6.1915861e-09
6.4574206e-09
6.7053394e-09
6.9190637e-09
7.0900384e-09
7.2178553e-09
7.3074859e-09
7.3662232e-09
7.402819e-09
7.4248472e-09
7.4379164e-09
7.4459168e-09
7.452114e-09
7.457472e-09
7.4630929e-09
7.4676231e-09
7.4722361e-09
7.4765632e-09
7.4785435e-09
7.4763624e-09
7.4520012e-09
7.4179163e-09
7.3973208e-09
7.3855448e-09
7.3788909e-09
7.3751676e-09
7.375187e-09
0.00094045754
0.0015530405
0.0012589425
0.0002687346
5.2037993e-08
5.8705082e-09
4.9822517e-09
4.8557737e-09
4.6341604e-09
4.6476519e-09
4.5821082e-09
4.6344754e-09
4.6339896e-09
4.700954e-09
4.7476539e-09
4.8304093e-09
4.9184746e-09
5.0357588e-09
5.1733656e-09
5.3426042e-09
5.541594e-09
5.7730128e-09
6.0295785e-09
6.3001279e-09
6.5662478e-09
6.8087415e-09
7.0123873e-09
7.1709292e-09
7.2857877e-09
7.3625227e-09
7.4092928e-09
7.4358793e-09
7.4499459e-09
7.45678e-09
7.4601149e-09
7.4628594e-09
7.4656231e-09
7.4689465e-09
7.471576e-09
7.474999e-09
7.4792102e-09
7.4811358e-09
7.4763188e-09
7.448101e-09
7.4158952e-09
7.3965081e-09
7.3853772e-09
7.3789307e-09
7.3751191e-09
7.3750169e-09
0.00092886672
0.001490036
0.0011485684
0.00020411846
2.7834854e-08
5.8378593e-09
4.9934116e-09
4.8738572e-09
4.6597043e-09
4.6760373e-09
4.6146125e-09
4.6692364e-09
4.6726767e-09
4.7423292e-09
4.7935673e-09
4.8806938e-09
4.9748746e-09
5.0989218e-09
5.2448964e-09
5.4234637e-09
5.6327592e-09
5.8742518e-09
6.1391056e-09
6.413889e-09
6.6786189e-09
6.9138565e-09
7.106097e-09
7.2516628e-09
7.3529087e-09
7.4158467e-09
7.4505474e-09
7.4673676e-09
7.4739467e-09
7.4747919e-09
7.4736404e-09
7.4731772e-09
7.4733199e-09
7.4743695e-09
7.4753782e-09
7.4775731e-09
7.4817147e-09
7.4837797e-09
7.47574e-09
7.4440425e-09
7.4138741e-09
7.3957805e-09
7.3853017e-09
7.3790038e-09
7.3750825e-09
7.3748093e-09
0.00091768531
0.0014290557
0.0010382392
0.0001436634
1.7368065e-08
5.81499e-09
5.0079631e-09
4.8951821e-09
4.6883696e-09
4.7075883e-09
4.6503859e-09
4.7073736e-09
4.7149555e-09
4.7874955e-09
4.8435758e-09
4.9354471e-09
5.036163e-09
5.1674831e-09
5.3223646e-09
5.5107943e-09
5.7307737e-09
5.9823548e-09
6.2548674e-09
6.53252e-09
6.7939681e-09
7.0201408e-09
7.1999823e-09
7.3320122e-09
7.4183029e-09
7.4669687e-09
7.4896834e-09
7.4973009e-09
7.4969305e-09
7.4920301e-09
7.486451e-09
7.4829398e-09
7.4804319e-09
7.4793032e-09
7.4790873e-09
7.4801256e-09
7.4838139e-09
7.4857684e-09
7.4744864e-09
7.4399061e-09
7.4118224e-09
7.3950709e-09
7.3853048e-09
7.3791468e-09
7.3750685e-09
7.3745651e-09
0.00090713187
0.0013714966
0.00092999617
9.1118753e-05
1.2390466e-08
5.7986256e-09
5.0257748e-09
4.919454e-09
4.7199917e-09
4.7422295e-09
4.6893929e-09
4.7488925e-09
4.7608581e-09
4.8365228e-09
4.8977884e-09
4.9948083e-09
5.1025211e-09
5.2416394e-09
5.4059777e-09
5.604779e-09
5.8357456e-09
6.0972612e-09
6.3765492e-09
6.6554341e-09
6.9115843e-09
7.127104e-09
7.2938887e-09
7.4110651e-09
7.481245e-09
7.5153913e-09
7.5267722e-09
7.526199e-09
7.5186586e-09
7.5082813e-09
7.4986098e-09
7.4920725e-09
7.486955e-09
7.4837528e-09
7.4825969e-09
7.4828021e-09
7.4855026e-09
7.4866224e-09
7.4724492e-09
7.4358405e-09
7.4097728e-09
7.3943097e-09
7.3852832e-09
7.3795156e-09
7.3750619e-09
7.3742855e-09
0.00089681823
0.001313085
0.00082489137
5.0344751e-05
9.8465377e-09
5.7876463e-09
5.0466333e-09
4.9467234e-09
4.7546592e-09
4.7799927e-09
4.731679e-09
4.7938521e-09
4.810486e-09
4.8895366e-09
4.956355e-09
5.0589449e-09
5.1741609e-09
5.3216461e-09
5.4960159e-09
5.705704e-09
5.947896e-09
6.2190126e-09
6.5039087e-09
6.7821136e-09
7.0309141e-09
7.2345325e-09
7.387494e-09
7.4877234e-09
7.5409855e-09
7.5611357e-09
7.56261e-09
7.5534198e-09
7.5391147e-09
7.5235336e-09
7.5100055e-09
7.5005971e-09
7.492847e-09
7.4878037e-09
7.4857614e-09
7.4855928e-09
7.4871588e-09
7.4869418e-09
7.4695427e-09
7.4320216e-09
7.4078334e-09
7.3935745e-09
7.3851924e-09
7.3797196e-09
7.3750223e-09
7.3739744e-09
0.0008868749
0.0012540735
0.00072457659
2.4058632e-05
8.468278e-09
5.7816749e-09
5.0705219e-09
4.9770089e-09
4.7923671e-09
4.8209139e-09
4.7773271e-09
4.8423699e-09
4.8639723e-09
4.9467029e-09
5.0194577e-09
5.1280865e-09
5.2513267e-09
5.407759e-09
5.5927253e-09
5.8137653e-09
6.0672779e-09
6.3474038e-09
6.6364163e-09
6.9118257e-09
7.1513909e-09
7.3422373e-09
7.479524e-09
7.5611603e-09
7.5971921e-09
7.6051389e-09
7.5965036e-09
7.5790411e-09
7.5582369e-09
7.5377595e-09
7.5206508e-09
7.5084739e-09
7.4981058e-09
7.4915113e-09
7.488689e-09
7.4882726e-09
7.4893204e-09
7.4870308e-09
7.4657718e-09
7.428612e-09
7.4060893e-09
7.3928908e-09
7.385066e-09
7.379878e-09
7.3749892e-09
7.3736369e-09
0.00087736592
0.0011941661
0.00063031128
1.0289568e-05
7.6887971e-09
5.7820637e-09
5.0974424e-09
5.0103442e-09
4.8331818e-09
4.8651292e-09
4.8265095e-09
4.894597e-09
4.9215148e-09
5.0081989e-09
5.08731e-09
5.2024662e-09
5.3342991e-09
5.5002961e-09
5.696445e-09
5.929281e-09
6.1940669e-09
6.4823358e-09
6.7736362e-09
7.0440187e-09
7.2727354e-09
7.449872e-09
7.5686689e-09
7.6306178e-09
7.6505878e-09
7.6471531e-09
7.6283665e-09
7.6029379e-09
7.5760235e-09
7.550956e-09
7.5305263e-09
7.5156864e-09
7.5027576e-09
7.4948671e-09
7.4914815e-09
7.4909173e-09
7.4917979e-09
7.4870394e-09
7.4612149e-09
7.4256981e-09
7.4045667e-09
7.3922688e-09
7.3849257e-09
7.3799962e-09
7.3749997e-09
7.3732783e-09
0.00086866854
0.0011346259
0.00054285736
4.1484155e-06
7.2318282e-09
5.7895311e-09
5.1274958e-09
5.0470145e-09
4.877224e-09
4.9128467e-09
4.8793812e-09
4.9507232e-09
4.9832656e-09
5.0742275e-09
5.1601622e-09
5.2823619e-09
5.4233776e-09
5.5995483e-09
5.8074602e-09
6.0524046e-09
6.3282061e-09
6.6233627e-09
6.9148598e-09
7.1780267e-09
7.3946753e-09
7.5559452e-09
7.6539297e-09
7.6958259e-09
7.7021239e-09
7.6865794e-09
7.6581002e-09
7.6251291e-09
7.5924659e-09
7.5631291e-09
7.5396296e-09
7.5221934e-09
7.5069102e-09
7.4979412e-09
7.4940541e-09
7.4933589e-09
7.4942335e-09
7.4862844e-09
7.45641e-09
7.423013e-09
7.403226e-09
7.3917124e-09
7.3847886e-09
7.3800991e-09
7.3750102e-09
7.372903e-09
0.00086091952
0.0010785354
0.00046248748
1.6637266e-06
6.9571504e-09
5.8002304e-09
5.1609309e-09
5.0869494e-09
4.9248873e-09
4.9641458e-09
4.9361011e-09
5.0108884e-09
5.0494267e-09
5.1450484e-09
5.2382549e-09
5.3680921e-09
5.5188947e-09
5.7059108e-09
5.9261389e-09
6.1834582e-09
6.4697206e-09
6.7701902e-09
7.0595375e-09
7.3134913e-09
7.5169509e-09
7.6589279e-09
7.7344638e-09
7.7579657e-09
7.7509549e-09
7.7234526e-09
7.6856922e-09
7.6456007e-09
7.6075763e-09
7.5742927e-09
7.5479494e-09
7.5279442e-09
7.5106977e-09
7.5008417e-09
7.4964307e-09
7.495419e-09
7.4956336e-09
7.4848621e-09
7.4516162e-09
7.4204944e-09
7.4020206e-09
7.391223e-09
7.3846775e-09
7.3801968e-09
7.374992e-09
7.3725229e-09
0.00085282753
0.0010141754
0.00038905068
6.9505244e-07
6.7896949e-09
5.815192e-09
5.197846e-09
5.1304017e-09
4.9761439e-09
5.0191677e-09
4.996816e-09
5.0752876e-09
5.1202428e-09
5.2209059e-09
5.3219224e-09
5.4599893e-09
5.6212073e-09
5.8197184e-09
6.0527742e-09
6.3224991e-09
6.6183285e-09
6.9221227e-09
7.2069372e-09
7.4499948e-09
7.6380827e-09
7.7576061e-09
7.8100537e-09
7.8177132e-09
7.7966443e-09
7.7576706e-09
7.7111367e-09
7.664377e-09
7.6213772e-09
7.5844707e-09
7.5554792e-09
7.5329696e-09
7.5141615e-09
7.503634e-09
7.4987493e-09
7.497157e-09
7.4962388e-09
7.4827728e-09
7.4470211e-09
7.4181286e-09
7.4009089e-09
7.390796e-09
7.3846164e-09
7.3802957e-09
7.3749285e-09
7.3721416e-09
0.00084473827
0.00094940655
0.00032312096
3.1304379e-07
6.6873242e-09
5.8340251e-09
5.2381892e-09
5.1773841e-09
5.0310576e-09
5.0780779e-09
5.0617323e-09
5.1441616e-09
5.1959933e-09
5.3021013e-09
5.4114848e-09
5.5584094e-09
5.7307241e-09
5.9414184e-09
6.1877735e-09
6.4697388e-09
6.7738584e-09
7.0786785e-09
7.3566027e-09
7.5873255e-09
7.7563916e-09
7.8509834e-09
7.8819003e-09
7.8742463e-09
7.839166e-09
7.7892503e-09
7.734455e-09
7.6814862e-09
7.6339039e-09
7.5936894e-09
7.5622131e-09
7.5373169e-09
7.5173046e-09
7.5062666e-09
7.5009874e-09
7.498741e-09
7.4964702e-09
7.480067e-09
7.442739e-09
7.4159282e-09
7.3998769e-09
7.390403e-09
7.3846238e-09
7.3803971e-09
7.3748155e-09
7.3717525e-09
0.00083625915
0.00088043615
0.00026406111
1.5564377e-07
6.6253661e-09
5.8566091e-09
5.2820599e-09
5.228078e-09
5.0898458e-09
5.1411323e-09
5.1311188e-09
5.2178015e-09
5.2769383e-09
5.3889775e-09
5.5072915e-09
5.6637543e-09
5.8478492e-09
6.071399e-09
6.3313589e-09
6.6250435e-09
6.9357262e-09
7.2390567e-09
7.5079144e-09
7.7243661e-09
7.8701693e-09
7.9385124e-09
7.9509162e-09
7.9269661e-09
7.8784538e-09
7.8181994e-09
7.7556858e-09
7.6969778e-09
7.645204e-09
7.6019768e-09
7.5681513e-09
7.5410484e-09
7.5201305e-09
7.5086431e-09
7.5029611e-09
7.5003576e-09
7.4965673e-09
7.4767577e-09
7.4388371e-09
7.4139138e-09
7.3989467e-09
7.3900686e-09
7.3846627e-09
7.3804884e-09
7.3746524e-09
7.3713636e-09
0.00082713475
0.00080956319
0.00021171008
8.6477387e-08
6.5881626e-09
5.8832489e-09
5.3297992e-09
5.2827645e-09
5.1528255e-09
5.2085745e-09
5.2052512e-09
5.2964673e-09
5.3633374e-09
5.4818378e-09
5.6097229e-09
5.7764541e-09
5.9730867e-09
6.2101628e-09
6.4838923e-09
6.7884156e-09
7.1035381e-09
7.4027819e-09
7.6606145e-09
7.8592628e-09
7.9783227e-09
8.0213793e-09
8.0162066e-09
7.9758891e-09
7.9145304e-09
7.844567e-09
7.7748879e-09
7.7109127e-09
7.6553271e-09
7.6093499e-09
7.5732981e-09
7.5442456e-09
7.5226798e-09
7.5107753e-09
7.5046422e-09
7.5016822e-09
7.4963985e-09
7.4728651e-09
7.4353627e-09
7.4120975e-09
7.3981193e-09
7.3897923e-09
7.3847209e-09
7.380517e-09
7.3744448e-09
7.3709742e-09
0.00081715562
0.00073458948
0.00016598426
5.3525423e-08
6.5674728e-09
5.914271e-09
5.381644e-09
5.3416326e-09
5.2202206e-09
5.2806091e-09
5.2843897e-09
5.3804357e-09
5.455506e-09
5.5810163e-09
5.7192179e-09
5.897001e-09
6.1069236e-09
6.3580866e-09
6.6454236e-09
6.9594052e-09
7.2764784e-09
7.5690886e-09
7.8140066e-09
7.989752e-09
8.0797805e-09
8.100766e-09
8.0770835e-09
8.0209288e-09
7.9474261e-09
7.8684174e-09
7.7921384e-09
7.7233616e-09
7.6643152e-09
7.6158138e-09
7.5776788e-09
7.5470277e-09
7.5250435e-09
7.5127325e-09
7.5059827e-09
7.5022716e-09
7.4955417e-09
7.4684509e-09
7.4323155e-09
7.4104607e-09
7.3973764e-09
7.3895615e-09
7.3847857e-09
7.3804821e-09
7.3741989e-09
7.3705867e-09
0.00080754079
0.00065994384
0.0001279515
3.6472634e-08
6.5586474e-09
5.9495823e-09
5.4375527e-09
5.4048671e-09
5.2921782e-09
5.3575385e-09
5.3687668e-09
5.4700455e-09
5.5538012e-09
5.6870188e-09
5.83627e-09
6.0259583e-09
6.249964e-09
6.5156797e-09
6.816152e-09
7.1377549e-09
7.4540717e-09
7.7375523e-09
7.9663447e-09
8.1145499e-09
8.1754526e-09
8.1760249e-09
8.1334255e-09
8.06213e-09
7.9772183e-09
7.8898431e-09
7.8075254e-09
7.7343841e-09
7.6721871e-09
7.6213684e-09
7.5813674e-09
7.549571e-09
7.5273064e-09
7.5145417e-09
7.5070781e-09
7.5025586e-09
7.4940302e-09
7.4637712e-09
7.4295604e-09
7.4089558e-09
7.3966927e-09
7.3893571e-09
7.384846e-09
7.3803756e-09
7.3739224e-09
7.3702044e-09
0.00079946694
0.00060761856
9.6377322e-05
2.6761123e-08
6.5591893e-09
5.9892953e-09
5.4979796e-09
5.4725704e-09
5.3691674e-09
5.4395392e-09
5.4587326e-09
5.5656025e-09
5.6586483e-09
5.8004582e-09
5.9614536e-09
6.1639401e-09
6.4027208e-09
6.6832127e-09
6.9957909e-09
7.3227181e-09
7.6354191e-09
7.9074454e-09
8.115185e-09
8.2321689e-09
8.2664848e-09
8.2463735e-09
8.1851615e-09
8.0995295e-09
8.0040008e-09
7.9089488e-09
7.8211324e-09
7.7440192e-09
7.6789524e-09
7.6260576e-09
7.5845284e-09
7.5520711e-09
7.529497e-09
7.5161722e-09
7.507984e-09
7.5026808e-09
7.4919109e-09
7.4591199e-09
7.4269495e-09
7.4075475e-09
7.3960491e-09
7.3891602e-09
7.3848889e-09
7.3802011e-09
7.3736221e-09
7.3698307e-09
0.00079214327
0.00056017293
6.9963891e-05
2.0856158e-08
6.5678526e-09
6.0338664e-09
5.5630285e-09
5.5451903e-09
5.4511932e-09
5.5269482e-09
5.5545886e-09
5.6675801e-09
5.7705907e-09
5.9217962e-09
6.0954187e-09
6.311603e-09
6.5658643e-09
6.8610291e-09
7.1842915e-09
7.5138078e-09
7.8200414e-09
8.0778237e-09
8.2584556e-09
8.3425753e-09
8.3531963e-09
8.3113442e-09
8.232338e-09
8.1332378e-09
8.027902e-09
7.9258442e-09
7.8330204e-09
7.752291e-09
7.6846536e-09
7.6300263e-09
7.5874072e-09
7.5546019e-09
7.5314694e-09
7.5174473e-09
7.5085325e-09
7.5027469e-09
7.489275e-09
7.4546277e-09
7.4244762e-09
7.4062299e-09
7.395436e-09
7.3889545e-09
7.3848968e-09
7.3799632e-09
7.3733044e-09
7.3694686e-09
0.00078591703
0.00051995272
4.9151496e-05
1.7094689e-08
6.5836713e-09
6.0832248e-09
5.6328245e-09
5.622823e-09
5.5385573e-09
5.6201038e-09
5.6568317e-09
5.776527e-09
5.8902119e-09
6.051761e-09
6.2388701e-09
6.4696442e-09
6.7398219e-09
7.0491009e-09
7.3809602e-09
7.7101067e-09
8.0069625e-09
8.2459835e-09
8.3945108e-09
8.4468406e-09
8.4345321e-09
8.3709248e-09
8.2750029e-09
8.1633748e-09
8.0490501e-09
7.9406162e-09
7.8432306e-09
7.7592535e-09
7.689444e-09
7.63353e-09
7.5901763e-09
7.5568658e-09
7.5327266e-09
7.5180396e-09
7.5088235e-09
7.5024811e-09
7.4862145e-09
7.4503734e-09
7.4221671e-09
7.4050135e-09
7.3948538e-09
7.3887317e-09
7.3848544e-09
7.3796695e-09
7.3729751e-09
7.3691204e-09
0.00078103457
0.0004859468
3.3415831e-05
1.4595883e-08
6.6058993e-09
6.1374228e-09
5.7075667e-09
5.7057782e-09
5.6317808e-09
5.7195728e-09
5.7660568e-09
5.8930926e-09
6.0182233e-09
6.1910374e-09
6.392568e-09
6.6388228e-09
6.9251561e-09
7.2475182e-09
7.5854249e-09
7.911051e-09
8.1956289e-09
8.4094166e-09
8.5221384e-09
8.5465246e-09
8.5095761e-09
8.425132e-09
8.3133007e-09
8.1901052e-09
8.0675726e-09
7.9533316e-09
7.8518302e-09
7.7650732e-09
7.6936058e-09
7.6367856e-09
7.5926284e-09
7.5580172e-09
7.5333314e-09
7.5183369e-09
7.5089749e-09
7.501848e-09
7.4828751e-09
7.4464066e-09
7.4200434e-09
7.403913e-09
7.3943135e-09
7.3884942e-09
7.3847592e-09
7.3793287e-09
7.3726393e-09
7.3687883e-09
0.00077771225
0.00045823511
2.2053499e-05
1.2881198e-08
6.6342909e-09
6.1968348e-09
5.7877808e-09
5.7946937e-09
5.7315846e-09
5.8259833e-09
5.8829098e-09
6.0179606e-09
6.1553556e-09
6.3404702e-09
6.557352e-09
6.819787e-09
7.122065e-09
7.4557882e-09
7.7966914e-09
8.1154512e-09
8.3837809e-09
8.5657233e-09
8.6422047e-09
8.640245e-09
8.5783471e-09
8.4740234e-09
8.3473738e-09
8.2135766e-09
8.0835677e-09
7.9640723e-09
7.8590006e-09
7.7700662e-09
7.6974006e-09
7.6396312e-09
7.593882e-09
7.5585593e-09
7.5336026e-09
7.51847e-09
7.5090728e-09
7.500829e-09
7.4793325e-09
7.4427511e-09
7.4180992e-09
7.402926e-09
7.3938302e-09
7.3882656e-09
7.3846222e-09
7.3789502e-09
7.3723017e-09
7.368474e-09
0.00077604097
0.0004373688
1.418479e-05
1.1681761e-08
6.6697911e-09
6.2624126e-09
5.8743418e-09
5.8901514e-09
5.8384934e-09
5.9399691e-09
6.0080614e-09
6.1518904e-09
6.3024332e-09
6.500892e-09
6.7340882e-09
7.013277e-09
7.3308469e-09
7.6736672e-09