/*--------------------------------*- C++ -*----------------------------------*\
  =========                 |
  \\      /  F ield         | OpenFOAM: The Open Source CFD Toolbox
   \\    /   O peration     | Website:  https://openfoam.org
    \\  /    A nd           | Version:  8
     \\/     M anipulation  |
\*---------------------------------------------------------------------------*/
FoamFile
{
    version     2.0;
    format      ascii;
    class       volScalarField;
    location    "0.0800043";
    object      nuTilda;
}
// * * * * * * * * * * * * * * * * * * * * * * * * * * * * * * * * * * * * * //

dimensions      [0 2 -1 0 0 0 0];

internalField   nonuniform List<scalar> 
20000
(
0.0011454891
0.002638425
0.0033199622
0.0032840886
0.0024246587
0.00061312688
2.7823735e-05
1.0391763e-05
1.0158513e-05
1.0128862e-05
1.0060147e-05
1.0062138e-05
1.0016954e-05
1.0022262e-05
1.0009999e-05
1.0011348e-05
1.0006213e-05
1.0005278e-05
1.0003102e-05
1.000234e-05
1.0001848e-05
1.0001825e-05
1.0001836e-05
1.0001663e-05
1.000144e-05
1.0001179e-05
1.000091e-05
1.0000667e-05
1.0000487e-05
1.0000405e-05
1.0000395e-05
1.0000422e-05
1.0000419e-05
1.0000363e-05
1.0000306e-05
1.0000268e-05
1.0000269e-05
1.0000338e-05
1.0000425e-05
1.0000311e-05
1.0000247e-05
1.0000234e-05
1.000026e-05
1.0000366e-05
1.0000337e-05
1.0000178e-05
1.0000205e-05
1.0000226e-05
1.0000318e-05
1.0000221e-05
0.0011381944
0.0025879646
0.003219891
0.003132679
0.0021918617
0.0004791155
2.056674e-05
1.0369286e-05
1.0154543e-05
1.012664e-05
1.0059135e-05
1.0061714e-05
1.0016592e-05
1.0021992e-05
1.0009857e-05
1.0011196e-05
1.000615e-05
1.0005222e-05
1.0003088e-05
1.0002317e-05
1.0001821e-05
1.0001801e-05
1.000182e-05
1.0001648e-05
1.0001422e-05
1.0001162e-05
1.0000899e-05
1.000066e-05
1.0000483e-05
1.0000403e-05
1.0000393e-05
1.0000416e-05
1.0000413e-05
1.000036e-05
1.0000305e-05
1.0000267e-05
1.0000267e-05
1.0000331e-05
1.0000424e-05
1.0000312e-05
1.0000245e-05
1.0000231e-05
1.0000259e-05
1.0000346e-05
1.0000319e-05
1.0000171e-05
1.0000199e-05
1.0000228e-05
1.0000328e-05
1.0000232e-05
0.0011290276
0.00253479
0.0031167913
0.0029829691
0.0019572768
0.00036319177
1.6057465e-05
1.0353833e-05
1.0150592e-05
1.0124097e-05
1.0058148e-05
1.0061206e-05
1.0016248e-05
1.0021614e-05
1.0009715e-05
1.0011017e-05
1.0006082e-05
1.0005163e-05
1.0003078e-05
1.0002311e-05
1.0001817e-05
1.0001794e-05
1.0001804e-05
1.0001632e-05
1.0001411e-05
1.0001157e-05
1.0000898e-05
1.000066e-05
1.0000483e-05
1.0000402e-05
1.0000391e-05
1.0000415e-05
1.0000413e-05
1.0000361e-05
1.0000308e-05
1.0000268e-05
1.0000265e-05
1.0000324e-05
1.0000424e-05
1.0000317e-05
1.000025e-05
1.0000235e-05
1.0000258e-05
1.0000342e-05
1.0000306e-05
1.0000183e-05
1.000021e-05
1.0000235e-05
1.0000325e-05
1.0000238e-05
0.0011200518
0.0024825809
0.0030119612
0.0028306594
0.0017259159
0.00026995666
1.345255e-05
1.0341725e-05
1.0146688e-05
1.0121614e-05
1.0057142e-05
1.0060683e-05
1.0015899e-05
1.0021249e-05
1.0009578e-05
1.0010834e-05
1.0006014e-05
1.0005097e-05
1.0003062e-05
1.0002295e-05
1.0001808e-05
1.000179e-05
1.0001796e-05
1.0001627e-05
1.0001409e-05
1.0001157e-05
1.0000899e-05
1.0000663e-05
1.0000485e-05
1.0000403e-05
1.0000389e-05
1.0000415e-05
1.0000415e-05
1.0000364e-05
1.000031e-05
1.000027e-05
1.0000265e-05
1.0000319e-05
1.0000428e-05
1.0000327e-05
1.0000258e-05
1.0000239e-05
1.0000257e-05
1.0000318e-05
1.0000282e-05
1.0000188e-05
1.0000218e-05
1.0000243e-05
1.0000332e-05
1.0000238e-05
0.0011112217
0.0024325126
0.0029154855
0.0026797184
0.0015018925
0.00019645618
1.200175e-05
1.0331114e-05
1.0142819e-05
1.0119107e-05
1.0056125e-05
1.0060145e-05
1.001555e-05
1.0020872e-05
1.0009444e-05
1.001065e-05
1.0005945e-05
1.0005031e-05
1.0003047e-05
1.0002283e-05
1.0001802e-05
1.0001784e-05
1.0001785e-05
1.0001619e-05
1.0001403e-05
1.0001152e-05
1.0000898e-05
1.0000663e-05
1.0000486e-05
1.0000403e-05
1.0000388e-05
1.0000415e-05
1.0000417e-05
1.0000366e-05
1.0000312e-05
1.0000271e-05
1.0000264e-05
1.0000314e-05
1.0000431e-05
1.0000336e-05
1.0000263e-05
1.0000242e-05
1.0000258e-05
1.0000318e-05
1.000026e-05
1.0000197e-05
1.0000229e-05
1.0000251e-05
1.0000333e-05
1.000023e-05
0.0011020848
0.0023826959
0.002819412
0.0025309994
0.0012883085
0.00014008388
1.1223758e-05
1.0321004e-05
1.0138974e-05
1.0116584e-05
1.0055096e-05
1.0059589e-05
1.0015202e-05
1.0020488e-05
1.0009314e-05
1.0010461e-05
1.0005877e-05
1.0004964e-05
1.0003031e-05
1.000227e-05
1.0001796e-05
1.000178e-05
1.0001777e-05
1.0001612e-05
1.0001395e-05
1.0001148e-05
1.0000897e-05
1.0000664e-05
1.0000486e-05
1.0000402e-05
1.0000387e-05
1.0000415e-05
1.0000418e-05
1.0000368e-05
1.0000314e-05
1.0000273e-05
1.0000265e-05
1.0000309e-05
1.0000435e-05
1.000034e-05
1.0000266e-05
1.0000245e-05
1.0000259e-05
1.0000313e-05
1.000024e-05
1.0000202e-05
1.0000242e-05
1.000026e-05
1.0000332e-05
1.0000222e-05
0.001093017
0.0023335398
0.0027244356
0.0023820514
0.0010885764
9.8300665e-05
1.0816325e-05
1.0311425e-05
1.0135154e-05
1.0114049e-05
1.0054055e-05
1.0059016e-05
1.0014855e-05
1.0020097e-05
1.0009188e-05
1.001027e-05
1.0005809e-05
1.0004896e-05
1.0003015e-05
1.0002257e-05
1.0001788e-05
1.0001778e-05
1.0001769e-05
1.0001602e-05
1.0001387e-05
1.0001143e-05
1.0000895e-05
1.0000664e-05
1.0000486e-05
1.0000401e-05
1.0000385e-05
1.0000415e-05
1.0000419e-05
1.0000369e-05
1.0000316e-05
1.0000275e-05
1.0000266e-05
1.0000305e-05
1.0000439e-05
1.0000337e-05
1.0000268e-05
1.0000247e-05
1.000026e-05
1.0000313e-05
1.000023e-05
1.0000204e-05
1.0000256e-05
1.000027e-05
1.000033e-05
1.0000214e-05
0.0010837746
0.0022847416
0.0026303451
0.0022315115
0.0009052835
6.8292976e-05
1.0605661e-05
1.0303661e-05
1.0131362e-05
1.0111499e-05
1.0053003e-05
1.0058426e-05
1.0014511e-05
1.0019699e-05
1.0009067e-05
1.0010078e-05
1.0005742e-05
1.0004828e-05
1.0002997e-05
1.0002241e-05
1.0001777e-05
1.0001776e-05
1.0001757e-05
1.0001591e-05
1.0001378e-05
1.0001137e-05
1.0000892e-05
1.0000663e-05
1.0000486e-05
1.0000399e-05
1.0000384e-05
1.0000415e-05
1.000042e-05
1.000037e-05
1.0000318e-05
1.0000277e-05
1.0000267e-05
1.00003e-05
1.0000442e-05
1.0000328e-05
1.000027e-05
1.0000251e-05
1.0000263e-05
1.0000312e-05
1.0000231e-05
1.0000207e-05
1.0000268e-05
1.000028e-05
1.0000329e-05
1.0000206e-05
0.001074418
0.0022365227
0.0025372435
0.0020822282
0.00074070067
4.7513647e-05
1.0495939e-05
1.0295516e-05
1.0127584e-05
1.0108929e-05
1.0051939e-05
1.0057816e-05
1.001417e-05
1.0019295e-05
1.000895e-05
1.0009885e-05
1.0005675e-05
1.0004757e-05
1.0002976e-05
1.0002224e-05
1.0001767e-05
1.000177e-05
1.0001745e-05
1.0001581e-05
1.0001369e-05
1.0001131e-05
1.0000889e-05
1.0000663e-05
1.0000485e-05
1.0000398e-05
1.0000382e-05
1.0000415e-05
1.0000421e-05
1.0000372e-05
1.0000319e-05
1.0000279e-05
1.0000269e-05
1.0000296e-05
1.0000445e-05
1.0000342e-05
1.0000272e-05
1.0000256e-05
1.0000266e-05
1.000031e-05
1.0000244e-05
1.0000221e-05
1.0000279e-05
1.0000291e-05
1.0000326e-05
1.0000199e-05
0.0010650794
0.0021894808
0.0024448799
0.001930594
0.0005956942
3.3625921e-05
1.0436171e-05
1.0287488e-05
1.0123825e-05
1.010634e-05
1.0050857e-05
1.0057181e-05
1.0013839e-05
1.0018887e-05
1.0008837e-05
1.0009689e-05
1.0005607e-05
1.0004683e-05
1.0002954e-05
1.0002208e-05
1.0001759e-05
1.0001765e-05
1.0001734e-05
1.0001569e-05
1.000136e-05
1.0001125e-05
1.0000886e-05
1.0000661e-05
1.0000484e-05
1.0000396e-05
1.0000379e-05
1.0000414e-05
1.0000422e-05
1.0000373e-05
1.000032e-05
1.0000281e-05
1.000027e-05
1.0000293e-05
1.000042e-05
1.0000356e-05
1.0000275e-05
1.0000262e-05
1.0000271e-05
1.0000307e-05
1.0000249e-05
1.0000242e-05
1.0000291e-05
1.0000302e-05
1.0000324e-05
1.0000191e-05
0.0010559946
0.002144369
0.0023548487
0.001775232
0.00047252188
2.4730924e-05
1.0400742e-05
1.0279481e-05
1.0120129e-05
1.0103744e-05
1.0049749e-05
1.005644e-05
1.0013545e-05
1.0018474e-05
1.0008728e-05
1.0009488e-05
1.0005538e-05
1.0004608e-05
1.0002932e-05
1.0002193e-05
1.0001751e-05
1.000176e-05
1.0001722e-05
1.0001558e-05
1.000135e-05
1.0001118e-05
1.0000883e-05
1.000066e-05
1.0000483e-05
1.0000393e-05
1.0000376e-05
1.0000414e-05
1.0000422e-05
1.0000374e-05
1.0000321e-05
1.0000282e-05
1.0000272e-05
1.0000292e-05
1.0000388e-05
1.0000378e-05
1.0000278e-05
1.0000268e-05
1.000028e-05
1.0000306e-05
1.0000258e-05
1.0000264e-05
1.0000305e-05
1.0000313e-05
1.0000322e-05
1.0000183e-05
0.0010471691
0.0021011864
0.0022737032
0.0016160994
0.00037278676
1.9206431e-05
1.0379243e-05
1.0271561e-05
1.0116971e-05
1.0101012e-05
1.0048979e-05
1.0053158e-05
1.0013386e-05
1.0018055e-05
1.0008621e-05
1.0009286e-05
1.000547e-05
1.0004534e-05
1.0002911e-05
1.0002178e-05
1.0001744e-05
1.0001754e-05
1.0001709e-05
1.0001546e-05
1.000134e-05
1.0001111e-05
1.0000879e-05
1.0000658e-05
1.0000482e-05
1.0000391e-05
1.0000374e-05
1.0000413e-05
1.0000422e-05
1.0000374e-05
1.0000322e-05
1.0000284e-05
1.0000274e-05
1.000029e-05
1.0000369e-05
1.00004e-05
1.0000282e-05
1.0000274e-05
1.0000287e-05
1.0000307e-05
1.0000268e-05
1.0000284e-05
1.0000319e-05
1.0000324e-05
1.0000321e-05
1.0000177e-05
0.0010384737
0.0020582904
0.0021929097
0.0014530247
0.00028845996
1.5745097e-05
1.0369492e-05
1.0264127e-05
1.0115914e-05
1.0097709e-05
1.0045117e-05
1.0047555e-05
1.0013179e-05
1.0017625e-05
1.0008518e-05
1.0009084e-05
1.0005404e-05
1.0004462e-05
1.0002889e-05
1.0002163e-05
1.0001738e-05
1.0001747e-05
1.0001697e-05
1.0001534e-05
1.000133e-05
1.0001103e-05
1.0000875e-05
1.0000656e-05
1.000048e-05
1.0000388e-05
1.0000371e-05
1.0000412e-05
1.0000422e-05
1.0000375e-05
1.0000322e-05
1.0000285e-05
1.0000276e-05
1.000029e-05
1.0000366e-05
1.0000416e-05
1.0000288e-05
1.0000279e-05
1.0000297e-05
1.000031e-05
1.0000275e-05
1.0000302e-05
1.0000331e-05
1.0000335e-05
1.0000319e-05
1.000017e-05
0.0010300535
0.0020159364
0.0021129797
0.0012896561
0.00022027723
1.3660958e-05
1.0365536e-05
1.0258271e-05
1.0112098e-05
1.0092979e-05
1.0039701e-05
1.0042252e-05
1.001285e-05
1.0017191e-05
1.000842e-05
1.0008883e-05
1.0005339e-05
1.0004389e-05
1.0002867e-05
1.0002149e-05
1.0001732e-05
1.000174e-05
1.0001685e-05
1.0001522e-05
1.0001319e-05
1.0001096e-05
1.000087e-05
1.0000654e-05
1.0000478e-05
1.0000385e-05
1.0000367e-05
1.0000411e-05
1.0000422e-05
1.0000375e-05
1.0000323e-05
1.0000286e-05
1.0000278e-05
1.0000292e-05
1.0000365e-05
1.0000428e-05
1.0000295e-05
1.0000285e-05
1.0000305e-05
1.0000309e-05
1.0000281e-05
1.0000319e-05
1.0000342e-05
1.0000346e-05
1.0000317e-05
1.0000164e-05
0.0010219121
0.0019740158
0.0020336844
0.0011334088
0.00016618002
1.2433728e-05
1.0359125e-05
1.0253524e-05
1.010701e-05
1.0088125e-05
1.0035058e-05
1.0037517e-05
1.0012419e-05
1.0016751e-05
1.0008326e-05
1.0008683e-05
1.0005275e-05
1.0004317e-05
1.0002845e-05
1.0002135e-05
1.0001727e-05
1.0001733e-05
1.0001672e-05
1.0001509e-05
1.0001309e-05
1.0001088e-05
1.0000866e-05
1.0000652e-05
1.0000476e-05
1.0000383e-05
1.0000364e-05
1.000041e-05
1.0000422e-05
1.0000376e-05
1.0000323e-05
1.0000287e-05
1.0000279e-05
1.0000293e-05
1.0000367e-05
1.0000438e-05
1.0000303e-05
1.000029e-05
1.0000314e-05
1.0000312e-05
1.0000289e-05
1.0000333e-05
1.0000353e-05
1.0000358e-05
1.0000317e-05
1.0000158e-05
0.0010136649
0.0019307008
0.0019537982
0.00098856341
0.00012393058
1.1724649e-05
1.0356312e-05
1.0248156e-05
1.0105168e-05
1.0084783e-05
1.003255e-05
1.0034606e-05
1.0011962e-05
1.0016311e-05
1.0008234e-05
1.0008483e-05
1.0005211e-05
1.0004245e-05
1.0002823e-05
1.0002122e-05
1.0001723e-05
1.0001726e-05
1.000166e-05
1.0001496e-05
1.0001298e-05
1.0001081e-05
1.0000861e-05
1.000065e-05
1.0000475e-05
1.000038e-05
1.0000361e-05
1.0000408e-05
1.0000421e-05
1.0000376e-05
1.0000323e-05
1.0000287e-05
1.000028e-05
1.0000296e-05
1.0000369e-05
1.0000439e-05
1.0000312e-05
1.0000294e-05
1.0000323e-05
1.0000317e-05
1.00003e-05
1.0000346e-05
1.0000364e-05
1.000037e-05
1.0000317e-05
1.0000152e-05
0.0010050268
0.0018847613
0.0018721241
0.00085499037
9.1742568e-05
1.131945e-05
1.0352009e-05
1.0240173e-05
1.0104106e-05
1.0082337e-05
1.0032089e-05
1.003359e-05
1.0011706e-05
1.0015884e-05
1.0008146e-05
1.0008285e-05
1.0005148e-05
1.0004174e-05
1.0002801e-05
1.0002109e-05
1.000172e-05
1.0001718e-05
1.0001647e-05
1.0001483e-05
1.0001287e-05
1.0001073e-05
1.0000856e-05
1.0000647e-05
1.0000473e-05
1.0000377e-05
1.0000357e-05
1.0000406e-05
1.000042e-05
1.0000376e-05
1.0000323e-05
1.0000288e-05
1.0000281e-05
1.0000299e-05
1.000037e-05
1.0000414e-05
1.0000322e-05
1.0000297e-05
1.0000331e-05
1.0000317e-05
1.0000317e-05
1.0000357e-05
1.0000376e-05
1.0000382e-05
1.0000318e-05
1.0000146e-05
0.0009960633
0.0018364783
0.0017876741
0.00073280416
6.7623038e-05
1.10814e-05
1.0342904e-05
1.0232764e-05
1.0100644e-05
1.0079638e-05
1.0030975e-05
1.0032536e-05
1.0011475e-05
1.0015451e-05
1.0008059e-05
1.0008088e-05
1.0005086e-05
1.0004105e-05
1.000278e-05
1.0002097e-05
1.0001717e-05
1.0001709e-05
1.0001634e-05
1.000147e-05
1.0001276e-05
1.0001065e-05
1.0000851e-05
1.0000645e-05
1.0000471e-05
1.0000374e-05
1.0000353e-05
1.0000403e-05
1.0000419e-05
1.0000376e-05
1.0000323e-05
1.0000288e-05
1.0000281e-05
1.0000303e-05
1.0000371e-05
1.0000388e-05
1.0000332e-05
1.0000301e-05
1.0000336e-05
1.0000331e-05
1.0000334e-05
1.0000368e-05
1.0000389e-05
1.0000394e-05
1.0000322e-05
1.000014e-05
0.00098656071
0.001785046
0.0016989143
0.00062233834
4.9997584e-05
1.0932754e-05
1.0331593e-05
1.0225083e-05
1.0097167e-05
1.0076969e-05
1.0029892e-05
1.0031514e-05
1.0011251e-05
1.0015027e-05
1.0007974e-05
1.0007893e-05
1.0005024e-05
1.0004036e-05
1.0002758e-05
1.0002086e-05
1.0001715e-05
1.0001698e-05
1.0001621e-05
1.0001457e-05
1.0001265e-05
1.0001057e-05
1.0000846e-05
1.0000642e-05
1.0000469e-05
1.0000371e-05
1.000035e-05
1.00004e-05
1.0000418e-05
1.0000376e-05
1.0000323e-05
1.0000288e-05
1.0000281e-05
1.0000307e-05
1.0000373e-05
1.0000374e-05
1.0000337e-05
1.0000304e-05
1.0000338e-05
1.0000343e-05
1.0000354e-05
1.000038e-05
1.0000402e-05
1.0000407e-05
1.0000328e-05
1.0000136e-05
0.00097640341
0.0017300553
0.0015987522
0.00052336892
3.7449504e-05
1.0840334e-05
1.0320292e-05
1.0217513e-05
1.0093707e-05
1.0074293e-05
1.0028819e-05
1.0030481e-05
1.0011038e-05
1.0014602e-05
1.0007889e-05
1.0007699e-05
1.0004964e-05
1.000397e-05
1.0002737e-05
1.0002075e-05
1.0001715e-05
1.0001688e-05
1.0001607e-05
1.0001444e-05
1.0001254e-05
1.0001049e-05
1.0000841e-05
1.0000639e-05
1.0000467e-05
1.0000369e-05
1.0000346e-05
1.0000397e-05
1.0000416e-05
1.0000375e-05
1.0000322e-05
1.0000288e-05
1.0000281e-05
1.0000309e-05
1.0000379e-05
1.0000367e-05
1.0000342e-05
1.000031e-05
1.0000331e-05
1.0000354e-05
1.0000377e-05
1.0000394e-05
1.0000417e-05
1.0000421e-05
1.0000336e-05
1.0000132e-05
0.00096584676
0.0016730938
0.0014913566
0.0004340302
2.8603413e-05
1.0777939e-05
1.0309314e-05
1.0209961e-05
1.0090267e-05
1.0071617e-05
1.0027761e-05
1.0029456e-05
1.0010837e-05
1.0014184e-05
1.0007805e-05
1.0007491e-05
1.0004904e-05
1.0003904e-05
1.0002716e-05
1.0002065e-05
1.0001715e-05
1.0001678e-05
1.0001594e-05
1.0001431e-05
1.0001243e-05
1.0001041e-05
1.0000836e-05
1.0000637e-05
1.0000465e-05
1.0000366e-05
1.0000343e-05
1.0000393e-05
1.0000413e-05
1.0000374e-05
1.0000321e-05
1.0000287e-05
1.0000281e-05
1.0000311e-05
1.0000386e-05
1.0000367e-05
1.0000345e-05
1.0000317e-05
1.0000323e-05
1.0000362e-05
1.0000401e-05
1.0000411e-05
1.0000432e-05
1.0000433e-05
1.0000342e-05
1.000013e-05
0.00095490046
0.0016145108
0.0013773547
0.00035757676
2.2591545e-05
1.0731854e-05
1.0298521e-05
1.0202463e-05
1.0086852e-05
1.0068949e-05
1.0026719e-05
1.0028437e-05
1.0010647e-05
1.0013769e-05
1.0007721e-05
1.0007292e-05
1.0004844e-05
1.0003841e-05
1.0002696e-05
1.0002056e-05
1.0001713e-05
1.0001668e-05
1.000158e-05
1.0001418e-05
1.0001232e-05
1.0001033e-05
1.0000831e-05
1.0000634e-05
1.0000464e-05
1.0000363e-05
1.000034e-05
1.0000389e-05
1.000041e-05
1.0000373e-05
1.0000321e-05
1.0000287e-05
1.0000281e-05
1.0000313e-05
1.0000393e-05
1.0000371e-05
1.0000349e-05
1.0000324e-05
1.0000321e-05
1.0000368e-05
1.0000423e-05
1.0000431e-05
1.0000449e-05
1.0000446e-05
1.0000346e-05
1.0000128e-05
0.00094357897
0.001554148
0.001260519
0.00029311429
1.8548225e-05
1.0695129e-05
1.0287887e-05
1.0195007e-05
1.0083463e-05
1.0066291e-05
1.0025695e-05
1.0027426e-05
1.001047e-05
1.0013362e-05
1.0007638e-05
1.0007102e-05
1.0004784e-05
1.000378e-05
1.0002676e-05
1.0002047e-05
1.0001712e-05
1.0001658e-05
1.0001567e-05
1.0001406e-05
1.0001221e-05
1.0001025e-05
1.0000826e-05
1.0000631e-05
1.0000462e-05
1.0000361e-05
1.0000337e-05
1.0000384e-05
1.0000406e-05
1.0000372e-05
1.000032e-05
1.0000287e-05
1.0000281e-05
1.0000315e-05
1.0000399e-05
1.0000372e-05
1.0000353e-05
1.0000332e-05
1.0000318e-05
1.0000369e-05
1.0000438e-05
1.0000453e-05
1.0000467e-05
1.0000457e-05
1.0000351e-05
1.0000124e-05
0.00093204531
0.0014912294
0.0011504367
0.00023822607
1.5832152e-05
1.0663592e-05
1.027741e-05
1.018762e-05
1.0080107e-05
1.0063655e-05
1.0024692e-05
1.002643e-05
1.0010307e-05
1.0012963e-05
1.0007554e-05
1.0006922e-05
1.0004725e-05
1.0003721e-05
1.0002658e-05
1.000204e-05
1.0001709e-05
1.0001648e-05
1.0001553e-05
1.0001393e-05
1.0001211e-05
1.0001017e-05
1.000082e-05
1.0000628e-05
1.0000461e-05
1.0000359e-05
1.0000334e-05
1.0000379e-05
1.0000403e-05
1.000037e-05
1.0000319e-05
1.0000286e-05
1.000028e-05
1.0000315e-05
1.0000405e-05
1.0000376e-05
1.0000357e-05
1.000034e-05
1.0000317e-05
1.0000368e-05
1.0000453e-05
1.0000476e-05
1.0000485e-05
1.0000467e-05
1.0000354e-05
1.000012e-05
0.00092091641
0.0014303411
0.0010404917
0.00019027269
1.4043692e-05
1.0634843e-05
1.0267043e-05
1.0180278e-05
1.0076782e-05
1.0061036e-05
1.0023712e-05
1.0025446e-05
1.0010157e-05
1.0012573e-05
1.0007469e-05
1.0006756e-05
1.0004666e-05
1.0003664e-05
1.000264e-05
1.0002034e-05
1.0001707e-05
1.0001637e-05
1.000154e-05
1.0001381e-05
1.00012e-05
1.0001009e-05
1.0000815e-05
1.0000625e-05
1.000046e-05
1.0000358e-05
1.0000331e-05
1.0000374e-05
1.0000399e-05
1.0000368e-05
1.0000317e-05
1.0000285e-05
1.000028e-05
1.0000315e-05
1.000041e-05
1.000038e-05
1.0000363e-05
1.0000347e-05
1.0000317e-05
1.0000365e-05
1.0000465e-05
1.0000497e-05
1.0000505e-05
1.0000479e-05
1.0000358e-05
1.0000116e-05
0.00091041024
0.0013728784
0.00093275749
0.0001503712
1.2881091e-05
1.0607706e-05
1.025681e-05
1.0173019e-05
1.0073499e-05
1.0058452e-05
1.0022758e-05
1.0024483e-05
1.0010022e-05
1.0012194e-05
1.0007385e-05
1.0006599e-05
1.0004608e-05
1.000361e-05
1.0002623e-05
1.0002029e-05
1.0001704e-05
1.0001627e-05
1.0001527e-05
1.0001368e-05
1.000119e-05
1.0001001e-05
1.0000809e-05
1.0000623e-05
1.0000461e-05
1.0000357e-05
1.0000328e-05
1.0000369e-05
1.0000395e-05
1.0000366e-05
1.0000316e-05
1.0000285e-05
1.0000279e-05
1.0000314e-05
1.0000413e-05
1.0000386e-05
1.0000369e-05
1.0000349e-05
1.0000317e-05
1.0000362e-05
1.000047e-05
1.0000513e-05
1.0000523e-05
1.000049e-05
1.0000361e-05
1.0000112e-05
0.00090014102
0.0013145765
0.00082833737
0.00011776915
1.2136851e-05
1.0581624e-05
1.0246705e-05
1.016584e-05
1.0070261e-05
1.0055905e-05
1.0021832e-05
1.002354e-05
1.0009902e-05
1.0011826e-05
1.00073e-05
1.0006447e-05
1.000455e-05
1.0003558e-05
1.0002607e-05
1.0002024e-05
1.0001701e-05
1.0001617e-05
1.0001515e-05
1.0001357e-05
1.0001179e-05
1.0000992e-05
1.0000804e-05
1.0000622e-05
1.0000461e-05
1.0000355e-05
1.0000325e-05
1.0000364e-05
1.000039e-05
1.0000363e-05
1.0000314e-05
1.0000284e-05
1.0000279e-05
1.0000312e-05
1.0000397e-05
1.0000392e-05
1.0000377e-05
1.0000354e-05
1.0000324e-05
1.0000361e-05
1.0000467e-05
1.0000523e-05
1.0000538e-05
1.0000502e-05
1.0000364e-05
1.0000109e-05
0.00089023808
0.00125569
0.00072895094
9.1667691e-05
1.1662774e-05
1.0556512e-05
1.0236719e-05
1.0158741e-05
1.0067068e-05
1.0053395e-05
1.0020935e-05
1.0022619e-05
1.0009797e-05
1.001147e-05
1.0007215e-05
1.0006302e-05
1.0004494e-05
1.0003509e-05
1.0002592e-05
1.0002021e-05
1.0001698e-05
1.0001607e-05
1.0001503e-05
1.0001345e-05
1.0001168e-05
1.0000984e-05
1.00008e-05
1.0000622e-05
1.0000462e-05
1.0000354e-05
1.0000322e-05
1.0000358e-05
1.0000385e-05
1.000036e-05
1.0000312e-05
1.0000283e-05
1.0000278e-05
1.0000311e-05
1.0000382e-05
1.0000399e-05
1.0000386e-05
1.0000364e-05
1.0000335e-05
1.0000364e-05
1.000046e-05
1.0000528e-05
1.000055e-05
1.0000514e-05
1.0000367e-05
1.0000105e-05
0.00088076479
0.0011959268
0.00063595424
7.124222e-05
1.1359075e-05
1.0533075e-05
1.0226879e-05
1.0151744e-05
1.0063928e-05
1.0050934e-05
1.002007e-05
1.0021725e-05
1.0009709e-05
1.0011126e-05
1.0007129e-05
1.0006162e-05
1.0004438e-05
1.0003463e-05
1.0002578e-05
1.0002019e-05
1.0001695e-05
1.0001597e-05
1.0001491e-05
1.0001333e-05
1.0001157e-05
1.0000976e-05
1.0000797e-05
1.0000622e-05
1.0000461e-05
1.0000352e-05
1.0000319e-05
1.0000352e-05
1.000038e-05
1.0000356e-05
1.000031e-05
1.0000282e-05
1.0000276e-05
1.0000311e-05
1.0000384e-05
1.0000404e-05
1.0000394e-05
1.0000375e-05
1.0000347e-05
1.0000369e-05
1.0000452e-05
1.0000526e-05
1.0000557e-05
1.0000526e-05
1.0000369e-05
1.0000102e-05
0.00087209489
0.00113655
0.0005502456
5.5522204e-05
1.1160207e-05
1.0511498e-05
1.021717e-05
1.0144838e-05
1.0060842e-05
1.0048522e-05
1.0019239e-05
1.0020857e-05
1.0009636e-05
1.0010794e-05
1.0007043e-05
1.0006028e-05
1.0004384e-05
1.0003419e-05
1.0002566e-05
1.0002018e-05
1.0001693e-05
1.0001588e-05
1.0001479e-05
1.0001321e-05
1.0001147e-05
1.0000969e-05
1.0000795e-05
1.0000621e-05
1.0000461e-05
1.0000351e-05
1.0000317e-05
1.0000346e-05
1.0000374e-05
1.0000352e-05
1.0000307e-05
1.0000281e-05
1.0000275e-05
1.0000311e-05
1.0000387e-05
1.0000409e-05
1.0000401e-05
1.0000385e-05
1.000036e-05
1.0000376e-05
1.0000446e-05
1.000052e-05
1.0000559e-05
1.0000538e-05
1.0000371e-05
1.00001e-05
0.00086436441
0.0010806346
0.00047228603
4.3635338e-05
1.1025437e-05
1.0490007e-05
1.0207579e-05
1.0138033e-05
1.0057814e-05
1.0046164e-05
1.0018444e-05
1.0020019e-05
1.0009581e-05
1.0010475e-05
1.0006957e-05
1.00059e-05
1.0004331e-05
1.0003378e-05
1.0002554e-05
1.0002018e-05
1.0001691e-05
1.0001579e-05
1.0001468e-05
1.000131e-05
1.0001137e-05
1.0000964e-05
1.0000793e-05
1.000062e-05
1.000046e-05
1.000035e-05
1.0000314e-05
1.000034e-05
1.0000368e-05
1.0000348e-05
1.0000304e-05
1.0000279e-05
1.0000274e-05
1.0000312e-05
1.0000388e-05
1.0000413e-05
1.0000407e-05
1.0000392e-05
1.0000375e-05
1.0000387e-05
1.0000446e-05
1.0000515e-05
1.0000561e-05
1.0000548e-05
1.0000373e-05
1.0000099e-05
0.00085629179
0.0010165119
0.00040218911
3.481846e-05
1.093002e-05
1.0468986e-05
1.0198124e-05
1.0131338e-05
1.0054848e-05
1.0043865e-05
1.0017686e-05
1.0019211e-05
1.0009542e-05
1.0010169e-05
1.0006871e-05
1.0005778e-05
1.0004279e-05
1.000334e-05
1.0002543e-05
1.0002018e-05
1.000169e-05
1.0001571e-05
1.0001457e-05
1.0001298e-05
1.0001128e-05
1.000096e-05
1.000079e-05
1.0000618e-05
1.000046e-05
1.0000349e-05
1.0000312e-05
1.0000334e-05
1.0000362e-05
1.0000343e-05
1.0000301e-05
1.0000278e-05
1.0000273e-05
1.0000313e-05
1.000039e-05
1.0000416e-05
1.0000413e-05
1.00004e-05
1.0000391e-05
1.0000406e-05
1.0000453e-05
1.0000513e-05
1.0000563e-05
1.000056e-05
1.0000374e-05
1.0000098e-05
0.0008482198
0.00095202763
0.00034077918
2.8376353e-05
1.0858866e-05
1.04483e-05
1.0188802e-05
1.0124761e-05
1.005195e-05
1.0041631e-05
1.0016968e-05
1.0018436e-05
1.0009523e-05
1.0009876e-05
1.0006786e-05
1.0005662e-05
1.0004229e-05
1.0003304e-05
1.0002533e-05
1.0002018e-05
1.000169e-05
1.0001563e-05
1.0001447e-05
1.0001287e-05
1.0001121e-05
1.0000956e-05
1.0000786e-05
1.0000615e-05
1.000046e-05
1.0000348e-05
1.000031e-05
1.0000328e-05
1.0000355e-05
1.0000338e-05
1.0000297e-05
1.0000276e-05
1.0000272e-05
1.0000314e-05
1.0000391e-05
1.000042e-05
1.0000419e-05
1.0000408e-05
1.0000409e-05
1.0000428e-05
1.0000467e-05
1.0000518e-05
1.0000569e-05
1.0000573e-05
1.0000374e-05
1.0000097e-05
0.00083975974
0.00088342779
0.0002876764
2.3728272e-05
1.0802769e-05
1.0427954e-05
1.0179618e-05
1.0118305e-05
1.0049124e-05
1.0039465e-05
1.0016292e-05
1.0017694e-05
1.0009521e-05
1.0009595e-05
1.0006702e-05
1.0005553e-05
1.0004181e-05
1.0003271e-05
1.0002523e-05
1.0002019e-05
1.0001691e-05
1.0001556e-05
1.0001436e-05
1.0001278e-05
1.0001116e-05
1.0000952e-05
1.0000781e-05
1.0000613e-05
1.000046e-05
1.0000348e-05
1.0000308e-05
1.0000322e-05
1.0000349e-05
1.0000333e-05
1.0000294e-05
1.0000274e-05
1.0000271e-05
1.0000315e-05
1.0000393e-05
1.0000424e-05
1.0000425e-05
1.0000417e-05
1.0000427e-05
1.0000453e-05
1.0000488e-05
1.000053e-05
1.0000578e-05
1.0000587e-05
1.0000375e-05
1.0000096e-05
0.00083065803
0.00081303093
0.00024273817
2.0409117e-05
1.0755369e-05
1.0407921e-05
1.0170569e-05
1.0111971e-05
1.0046371e-05
1.003737e-05
1.0015659e-05
1.0016988e-05
1.0009499e-05
1.0009324e-05
1.0006618e-05
1.0005449e-05
1.0004134e-05
1.000324e-05
1.0002514e-05
1.0002019e-05
1.0001694e-05
1.000155e-05
1.0001427e-05
1.0001271e-05
1.0001112e-05
1.0000945e-05
1.0000775e-05
1.0000612e-05
1.0000461e-05
1.0000348e-05
1.0000306e-05
1.0000316e-05
1.0000342e-05
1.0000327e-05
1.000029e-05
1.0000272e-05
1.000027e-05
1.0000316e-05
1.0000395e-05
1.0000428e-05
1.0000432e-05
1.0000428e-05
1.0000445e-05
1.0000477e-05
1.0000514e-05
1.0000549e-05
1.0000592e-05
1.00006e-05
1.0000375e-05
1.0000095e-05
0.00082070681
0.00073870896
0.00020546697
1.8039853e-05
1.0713175e-05
1.0388212e-05
1.0161666e-05
1.0105769e-05
1.0043698e-05
1.0035351e-05
1.0015069e-05
1.0016314e-05
1.0009466e-05
1.0009032e-05
1.0006533e-05
1.0005351e-05
1.0004089e-05
1.000321e-05
1.0002504e-05
1.0002019e-05
1.0001697e-05
1.0001544e-05
1.0001418e-05
1.0001266e-05
1.0001107e-05
1.0000937e-05
1.000077e-05
1.000061e-05
1.0000461e-05
1.0000348e-05
1.0000303e-05
1.000031e-05
1.0000336e-05
1.0000322e-05
1.0000287e-05
1.000027e-05
1.0000269e-05
1.0000317e-05
1.0000396e-05
1.0000432e-05
1.000044e-05
1.000044e-05
1.0000464e-05
1.0000502e-05
1.0000542e-05
1.0000574e-05
1.0000607e-05
1.0000612e-05
1.0000374e-05
1.0000094e-05
0.00081111463
0.00066491904
0.00017578885
1.6331061e-05
1.0674465e-05
1.0368849e-05
1.0152921e-05
1.0099714e-05
1.0041111e-05
1.0033414e-05
1.0014526e-05
1.0015676e-05
1.0009422e-05
1.0008762e-05
1.0006449e-05
1.0005259e-05
1.0004045e-05
1.0003182e-05
1.0002495e-05
1.0002019e-05
1.0001702e-05
1.0001539e-05
1.0001413e-05
1.0001263e-05
1.00011e-05
1.0000928e-05
1.0000764e-05
1.0000608e-05
1.0000462e-05
1.0000349e-05
1.0000301e-05
1.0000304e-05
1.0000329e-05
1.0000317e-05
1.0000284e-05
1.0000267e-05
1.0000268e-05
1.0000317e-05
1.0000396e-05
1.0000437e-05
1.0000447e-05
1.0000453e-05
1.0000483e-05
1.0000525e-05
1.0000569e-05
1.0000601e-05
1.0000624e-05
1.0000622e-05
1.0000374e-05
1.0000094e-05
0.00080304868
0.00061333723
0.00015163637
1.5060552e-05
1.0638118e-05
1.034983e-05
1.014434e-05
1.0093811e-05
1.0038615e-05
1.0031561e-05
1.001403e-05
1.0015074e-05
1.0009368e-05
1.0008543e-05
1.0006365e-05
1.0005172e-05
1.0004003e-05
1.0003155e-05
1.0002484e-05
1.0002019e-05
1.0001708e-05
1.0001536e-05
1.000141e-05
1.000126e-05
1.000109e-05
1.0000919e-05
1.0000758e-05
1.0000606e-05
1.0000464e-05
1.000035e-05
1.0000299e-05
1.0000298e-05
1.0000322e-05
1.0000312e-05
1.000028e-05
1.0000265e-05
1.0000266e-05
1.0000317e-05
1.0000396e-05
1.0000441e-05
1.0000454e-05
1.0000467e-05
1.0000503e-05
1.0000547e-05
1.0000594e-05
1.0000627e-05
1.0000641e-05
1.0000631e-05
1.0000373e-05
1.0000094e-05
0.00079572386
0.00056671782
0.00013108553
1.4098403e-05
1.0603525e-05
1.0331153e-05
1.0135926e-05
1.0088064e-05
1.0036214e-05
1.0029797e-05
1.0013583e-05
1.0014509e-05
1.0009306e-05
1.0008338e-05
1.0006282e-05
1.0005091e-05
1.0003962e-05
1.0003128e-05
1.0002473e-05
1.0002018e-05
1.0001718e-05
1.0001536e-05
1.000141e-05
1.0001255e-05
1.0001079e-05
1.0000909e-05
1.0000752e-05
1.0000604e-05
1.0000465e-05
1.0000351e-05
1.0000297e-05
1.0000293e-05
1.0000315e-05
1.0000307e-05
1.0000277e-05
1.0000262e-05
1.0000264e-05
1.0000317e-05
1.0000394e-05
1.0000443e-05
1.000046e-05
1.0000481e-05
1.0000525e-05
1.000057e-05
1.0000616e-05
1.000065e-05
1.0000656e-05
1.0000638e-05
1.0000373e-05
1.0000094e-05
0.00078948469
0.00052733137
0.00011377354
1.3363806e-05
1.0570253e-05
1.0312813e-05
1.0127686e-05
1.0082484e-05
1.0033914e-05
1.0028123e-05
1.0013183e-05
1.0013981e-05
1.0009236e-05
1.0008146e-05
1.00062e-05
1.0005013e-05
1.0003921e-05
1.0003102e-05
1.0002462e-05
1.0002017e-05
1.0001725e-05
1.000154e-05
1.0001411e-05
1.0001247e-05
1.0001068e-05
1.00009e-05
1.0000746e-05
1.0000602e-05
1.0000466e-05
1.0000354e-05
1.0000295e-05
1.0000287e-05
1.0000308e-05
1.0000303e-05
1.0000274e-05
1.000026e-05
1.0000261e-05
1.0000315e-05
1.0000392e-05
1.0000443e-05
1.0000464e-05
1.0000496e-05
1.0000549e-05
1.0000592e-05
1.0000636e-05
1.0000669e-05
1.0000668e-05
1.0000644e-05
1.0000373e-05
1.0000094e-05
0.0007845755
0.00049414257
9.9003791e-05
1.279616e-05
1.0538093e-05
1.0294843e-05
1.0119634e-05
1.0077083e-05
1.0031721e-05
1.0026545e-05
1.0012833e-05
1.001349e-05
1.000916e-05
1.0007968e-05
1.000612e-05
1.000494e-05
1.000388e-05
1.0003074e-05
1.000245e-05
1.0002015e-05
1.000173e-05
1.0001547e-05
1.0001412e-05
1.0001237e-05
1.0001056e-05
1.0000889e-05
1.0000739e-05
1.0000599e-05
1.0000468e-05
1.0000356e-05
1.0000293e-05
1.0000282e-05
1.0000302e-05
1.0000297e-05
1.0000271e-05
1.0000256e-05
1.0000259e-05
1.0000313e-05
1.0000387e-05
1.0000442e-05
1.0000469e-05
1.0000511e-05
1.0000574e-05
1.0000616e-05
1.0000656e-05
1.0000687e-05
1.0000679e-05
1.0000649e-05
1.0000373e-05
1.0000095e-05
0.00078121191
0.00046717531
8.6303971e-05
1.2352833e-05
1.0506888e-05
1.0277254e-05
1.0111781e-05
1.0071868e-05
1.002964e-05
1.0025065e-05
1.0012532e-05
1.0013033e-05
1.0009079e-05
1.0007802e-05
1.0006041e-05
1.0004869e-05
1.0003838e-05
1.0003046e-05
1.0002436e-05
1.0002011e-05
1.0001733e-05
1.0001551e-05
1.000141e-05
1.0001225e-05
1.0001043e-05
1.0000878e-05
1.0000732e-05
1.0000597e-05
1.000047e-05
1.0000359e-05
1.0000292e-05
1.0000278e-05
1.0000295e-05
1.000029e-05
1.0000267e-05
1.0000253e-05
1.0000256e-05
1.000031e-05
1.0000382e-05
1.0000439e-05
1.0000473e-05
1.0000525e-05
1.0000598e-05
1.0000642e-05
1.0000678e-05
1.0000707e-05
1.0000694e-05
1.0000654e-05
1.0000373e-05
1.0000095e-05
0.00077948338
0.00044689173
7.5320946e-05
1.2004678e-05
1.0476591e-05
1.0260063e-05
1.0104136e-05
1.0066847e-05
1.0027677e-05
1.0023683e-05
1.001228e-05
1.0012611e-05
1.0008997e-05
1.0007648e-05
1.0005963e-05
1.00048e-05
1.0003795e-05