/*--------------------------------*- C++ -*----------------------------------*\
  =========                 |
  \\      /  F ield         | OpenFOAM: The Open Source CFD Toolbox
   \\    /   O peration     | Website:  https://openfoam.org
    \\  /    A nd           | Version:  8
     \\/     M anipulation  |
\*---------------------------------------------------------------------------*/
FoamFile
{
    version     2.0;
    format      ascii;
    class       volScalarField;
    location    "0.0800043";
    object      p;
}
// * * * * * * * * * * * * * * * * * * * * * * * * * * * * * * * * * * * * * //

dimensions      [1 -1 -2 0 0 0 0];

internalField   nonuniform List<scalar> 
20000
(
80054.494
80068.509
80084.912
80107.126
80140.497
80179.151
80235.055
80295.704
80370.639
80466.058
80566.241
80707.255
80847.569
81047.747
81249.547
81527.213
81819.219
82200.811
82620.869
83144.517
83735.84
84439.894
85234.8
86151.891
87203.732
88416.402
89733.466
91120.978
92520.282
93885.131
95155.082
96291.407
97268.64
98082.023
98736.891
99250.136
99645.241
99940.426
100147.71
100309.07
100452.53
100549.91
100605.97
100632.11
100638.22
100599.66
100426.18
100245.23
100150.92
100143.23
79685.492
79700.529
79717.194
79740.033
79775.217
79814.776
79873.936
79936.963
80013.95
80112.744
80215.385
80361.189
80504.93
80711.722
80918.991
81205.754
81507.026
81901.781
82336.547
82876.98
83485.4
84206.95
85025.74
85983.976
87103.661
88376.832
89727.058
91139.816
92565.277
93945.514
95221.303
96354.608
97323.926
98127.043
98771.99
99277.201
99666.47
99956.432
100160.14
100323.28
100468.97
100562.03
100614.01
100638.69
100647.18
100597.6
100400.27
100235.92
100158.14
100143.36
79339.331
79355.117
79371.882
79395.486
79432.42
79472.922
79533.83
79598.817
79677.325
79779.373
79884.166
80034.85
80182.09
80395.772
80608.952
80905.425
81216.848
81625.166
82074.021
82629.429
83253.554
83996.151
84851.496
85875.868
87059.105
88365.605
89744.943
91191.427
92641.491
94034.03
95311.211
96437.151
97394.422
98183.767
98815.852
99310.75
99692.261
99975.441
100174.98
100340.93
100485.83
100574.29
100622.22
100645.83
100655.84
100590.13
100377.15
100229.75
100161.86
100143.64
79011.991
79028.989
79045.829
79070.218
79109.15
79150.792
79213.487
79280.734
79361.021
79466.686
79573.947
79729.944
79880.986
80102.064
80321.703
80628.659
80950.766
81372.446
81834.216
82403.808
83046.946
83822.703
84739.07
85827.063
87045.608
88376.385
89799.427
91279.905
92752.25
94152.964
95426.676
96540.537
97481.395
98253.267
98869.399
99351.532
99723.152
99997.831
100192.58
100361.03
100502.57
100586.9
100630.92
100652.48
100662.42
100575.74
100359.66
100226.19
100163.6
100144.15
78707.802
78726.441
78743.775
78768.811
78809.534
78852.382
78916.825
78986.478
79068.635
79178.168
79287.989
79449.585
79604.656
79833.619
80060.212
80377.885
80710.262
81144.186
81618.909
82206.196
82879.656
83711.353
84687.788
85812.01
87054.48
88427.897
89893.406
91406.072
92896.758
94301.02
95566.158
96663.153
97583.34
98334.2
98931.522
99398.648
99758.478
100023.25
100212.78
100382.48
100519.25
100599.98
100640.9
100658.89
100665.92
100555.84
100346.32
100222.96
100164.4
100144.84
78427.777
78446.424
78464.968
78491.148
78534.189
78578.732
78645.279
78717.802
78802.073
78915.798
79028.395
79196.016
79355.492
79592.901
79826.743
80154.791
80496.444
80942.489
81434.235
82050.117
82775.931
83660.596
84671.552
85817.522
87103.637
88521.813
90028.902
91570.735
93075.338
94477.942
95729.153
96804.399
97699.704
98426.109
99001.888
99451.847
99798.064
100051.7
100235.61
100404.63
100535.56
100612.74
100651.68
100666.39
100667.67
100533.73
100334.83
100219.88
100164.73
100145.61
78176.751
78195.764
78215.23
78242.364
78287.306
78333.267
78401.544
78476.808
78563.146
78681.384
78797.131
78971.451
79135.781
79381.944
79622.929
79961.029
80312.47
80774.63
81293.699
81958.65
82729.423
83644.454
84675.15
85863.676
87196.341
88660.552
90206.66
91773.859
93287.233
94682.571
95914.353
96962.994
97829.357
98528.059
99079.765
99510.554
99841.506
100083.09
100260.99
100427.11
100551.54
100625.1
100662.44
100676.18
100668.33
100511.15
100323.92
100216.62
100164.89
100146.42
77950.862
77970.528
77991.057
78019.393
78066.565
78114.376
78184.816
78263.446
78352.451
78476.122
78595.803
78777.622
78947.096
79201.928
79449.983
79800.034
80166.678
80658.186
81219.421
81919.07
82714.948
83648.085
84719.028
85953.341
87334.965
88844.573
90427.013
92015.063
93531.55
94913.662
96120.423
97137.672
97971.209
98639.166
99164.474
99574.238
99888.432
100117.35
100288.84
100449.73
100567.2
100637.19
100673.37
100686.88
100668.44
100489.02
100313.34
100213.27
100164.96
100147.2
77755.332
77775.836
77797.536
77827.217
77876.646
77926.551
77999.33
78081.674
78173.549
78302.927
78426.252
78615.458
78790.398
79054.9
79312.035
79680.482
80077.177
80601.918
81189.43
81907.531
82721.471
83691.204
84806.046
86089.296
87520.395
89074.351
90689.631
92293.37
93806.815
95169.51
96345.665
97326.894
98123.96
98758.393
99255.211
99642.273
99938.399
100154.28
100319.14
100472.74
100582.64
100648.95
100684.24
100697.71
100665.97
100467.85
100303.13
100209.94
100164.98
100147.94
77593.618
77615.202
77638.334
77669.691
77721.749
77774.11
77849.39
77935.693
78030.154
78164.653
78290.432
78486.6
78668.35
78947.073
79223.456
79617.888
80037.009
80581.824
81181.995
81918.554
82766.22
83776.467
84938.838
86272.377
87753.262
89349.72
90993.789
92607.444
94111.298
95448.231
96588.266
97529.052
98286.27
98884.673
99351.152
99714.025
99990.957
100193.58
100351.67
100496.61
100598.22
100660.26
100694.49
100707.93
100659.35
100448.02
100293.49
100206.72
100164.97
100148.59
77471.019
77493.566
77517.949
77550.72
77605.15
77659.655
77736.921
77826.77
77923.26
78062.754
78192.516
78399.394
78592.852
78890.298
79182.2
79592.825
80024.03
80578.788
81199.601
81966.562
82852.024
83906.47
85118.279
86503.378
88033.618
89670.082
91338.16
92955.396
94442.813
95747.608
96846.178
97742.374
98456.686
99016.866
99451.422
99788.827
100045.64
100234.8
100385.92
100521.61
100614.48
100671.21
100703.2
100716.58
100647.88
100429.8
100284.53
100203.63
100164.77
100149.15
77377.367
77401.239
77427.36
77462.023
77519.269
77576.183
77655.573
77749.19
77849.202
77997.187
78135.768
78356.201
78557.883
78867.362
79168.038
79586.546
80028.174
80604.257
81253.239
82054.38
82981.139
84081.989
85345.158
86782.533
88361.208
90034.469
91721.123
93335.107
94799.022
96065.334
97117.304
97965.062
98633.739
99153.823
99555.144
99866.027
100102.01
100277.49
100421.17
100547.55
100631.81
100682.39
100710.33
100722.53
100631.44
100413.29
100276.21
100200.63
100164.41
100149.59
77310.551
77335.444
77362.898
77398.96
77458.967
77518.404
77601.13
77701.407
77807.476
77965.224
78109.765
78339.949
78545.746
78861.206
79167.74
79601.506
80063.547
80665.132
81345.781
82184.036
83154.383
84303.784
85619.729
87109.722
88735.252
90441.374
92140.503
93743.998
95177.234
96398.859
97399.382
98195.213
98815.901
99294.366
99661.423
99944.968
100159.65
100321.26
100456.71
100573.71
100650.11
100694.57
100716.92
100725.44
100611.04
100398.35
100268.4
100197.69
100163.91
100149.92
77264.976
77291.246
77320.448
77358.733
77422.825
77486.393
77573.148
77679.647
77789.069
77953.709
78100.345
78336.249
78546.075
78873.711
79194.79
79648.581
80134.156
80764.129
81478.8
82356.242
83372.353
84572.11
85942.033
87484.574
89154.754
90889.087
92593.969
94179.39
95574.72
96745.626
97690.167
98430.955
99001.681
99437.349
99769.391
100025.02
100218.16
100365.69
100491.91
100599.12
100668.72
100708.1
100724.77
100726.69
100588.73
100383.97
100260.93
100194.79
100163.29
100150.1
77242.541
77270.528
77301.691
77341.879
77408.774
77475.09
77563.316
77672.88
77783.166
77952.924
78103.127
78349.888
78571.78
78916.843
79255.334
79731.205
80242.283
80902.223
81652.847
82571.404
83635.208
84886.95
86311.778
87906.263
89618.231
91375.328
93078.683
94638.193
95988.455
97102.873
97987.291
98670.375
99189.589
99581.638
99878.185
100105.58
100277.14
100410.44
100526.32
100623.01
100686.79
100722.35
100736.19
100727.05
100565.61
100369.9
100253.77
100191.98
100162.6
100150.11
77237.361
77266.938
77299.871
77341.727
77411.72
77481.012
77571.749
77686.951
77801.399
77980.872
78137.408
78397.748
78632.246
78995.305
79351.875
79850.515
80388.283
81079.64
81868.019
82829.513
83942.888
85248.141
86728.557
88373.916
90124.076
91897.765
93591.781
95117.334
96415.428
97467.873
98288.465
98911.671
99378.257
99726.177
99986.988
100186.05
100336.23
100455.21
100559.69
100645.11
100703.97
100737.26
100750.04
100726.8
100542.37
100356.24
100246.99
100189.32
100161.87
100150.05
77260.165
77291.784
77327.11
77371.246
77444.78
77517.593
77612.283
77734.946
77854.526
78044.522
78208.688
78483.181
78728.379
79108.685
79483.808
80006.041
80571.922
81296.157
82124.093
83130.365
84295.119
85655.31
87191.646
88886.227
90670.172
92453.557
94129.948
95613.366
96852.334
97837.742
98591.382
99153.106
99566.397
99869.967
100095
100265.88
100395.1
100499.76
100591.99
100665.83
100720.05
100751.98
100764.73
100723.48
100519.56
100343.25
100240.74
100186.92
100161.14
100149.84
77315.455
77349.071
77386.83
77433.217
77510.452
77587.045
77685.3
77815.02
77939.264
78139.732
78311.463
78599.834
78856.895
79255.321
79650.227
80197.184
80792.707
81551.359
82420.709
83473.658
84691.641
86108.113
87700.38
89441.902
91254.41
93039.863
94689.884
96122.838
97295.911
98209.754
98893.975
99393.147
99752.861
100012.1
100201.49
100344.55
100453.43
100543.83
100623.28
100686.02
100735
100765.22
100778.23
100716.62
100497.8
100331.21
100235.12
100184.79
100160.4
100149.48
77396.527
77432.329
77472.838
77521.845
77602.994
77684.469
77786.387
77923.874
78052.471
78264.274
78443.396
78746.662
79016.888
79434.493
79850.454
80423.292
81050.06
81844.736
82757.444
83859.039
85132.112
86606.023
88253.783
90039.175
91874.153
93653.285
95267.785
96641.887
97742.745
98581.295
99194.368
99630.355
99936.504
100151.69
100305.75
100421.6
100510.96
100587.18
100653.58
100706.44
100749.33
100775.97
100787.85
100705.66
100477.67
100320.39
100230.15
100182.86
100159.65
100148.98
77502.278
77540.528
77584.131
77635.914
77720.86
77807.973
77913.644
78059.993
78193.511
78417.477
78604.793
78923.676
79207.855
79645.46
80083.767
80683.686
81343.365
82175.795
83133.938
84286.293
85616.344
87148.691
88850.992
90676.358
92526.782
94290.448
95859.843
97166.775
98189.854
98950.32
99491.055
99863.412
100116.14
100287.85
100407.21
100496.7
100567.47
100629.55
100682.79
100727.22
100763.83
100784.76
100792.77
100690.39
100459.67
100310.93
100225.86
100181.08
100158.88
100148.32
77636.018
77676.708
77723.425
77778.012
77867.054
77959.899
78068.673
78224.174
78362.639
78599.22
78794.926
79129.915
79428.936
79887.414
80349.424
80977.695
81672.059
82544.128
83549.925
84755.252
86144.11
87735.561
89490.762
91351.223
93209.074
94947.388
96461.786
97693.76
98634.758
99315.242
99782.597
100090.87
100290.44
100419.62
100505.36
100569.61
100622.75
100670.6
100710.66
100747.71
100779.01
100794.01
100795.03
100671.1
100443.96
100302.85
100222.36
100179.47
100158.11
100147.48
77793.202
77836.689
77887.011
77944.951
78038.238
78137.386
78249.405
78414.582
78557.95
78807.763
79012.478
79364.393
79679.305
80159.579
80646.722
81304.712
82035.706
82949.508
84005.379
85265.989
86715.433
88366.262
90171.982
92061.57
93917.799
95620.117
97069.573
98219.936
99075.965
99674.854
100067.38
100311.17
100458.15
100546.07
100599.83
100640.23
100676.52
100709.97
100737.01
100766.86
100794.69
100806.85
100795.83
100648.84
100429.8
100295.92
100219.74
100178.65
100157.37
100146.46
77976.131
78022.127
78075.693
78136.521
78233.474
78339.146
78454.393
78629.688
78778.429
79042.296
79256.792
79626.352
79958.234
80461.222
80975.049
81664.307
82434.072
83391.935
84500.411
85818.659
87330.206
89040.168
90892.982
92804.572
94648.978
96304.066
97679.259
98743.25
99512.333
100027.19
100342.95
100522.61
100618.52
100666.58
100690.31
100708.43
100728.3
100747.19
100761.88
100784.32
100810.99
100822.58
100796
100624.85
100416.22
100289.87
100217.89
100178.31
100156.66
100145.23
78177.01
78226.162
78283.838
78348.627
78449.904
78562.935
78682.027
78869.368
79023.464
79302.268
79527.1
79915.042
80264.974
80791.728
81333.981
82056.282
82867.212
83871.68
85035.425
86413.645
87988.587
89756.758
91652.18
93577.315
95398.597
96994.968
98287.991
99262.778
99941.964
100368.35
100606.78
100723.92
100771.63
100781.44
100776.5
100773.94
100777.36
100781.78
100785.7
100800.42
100826.64
100838.98
100793.6
100599.63
100402.73
100284.39
100216.62
100178.23
100156.02
100143.79
78402.448
78454.667
78516.461
78585.207
78690.329
78810.787
78933.446
79132.892
79292.753
79586.657
79822.611
80229.624
80598.967
81150.731
81723.415
82480.792
83335.477
84389.232
85610.931
87051.32
88690.495
90515.074
92447.273
94376.07
96161.981
97688.669
98893.898
99777.074
100359.84
100694.92
100856.9
100914.97
100917.97
100891.16
100858.15
100836.08
100822.88
100813.34
100808.85
100816.11
100839.95
100852.09
100787.03
100573.68
100389.13
100279.11
100215.82
100178.51
100155.52
100142.13
78648.9
78704.239
78770.13
78842.919
78951.505
79080.16
79206.495
79418.41
79584.722
79894.581
80142.58
80569.669
80960.017
81538.268
82143.606
82938.291
83839.482
84945.336
86227.676
87732.279
89436.033
91314.197
93275.884
95196.986
96934.73
98382.186
99496.182
100281.59
100761.35
101004.07
101093.39
101098.34
101056.56
100994.82
100935.5
100894.29
100864.66
100841.82
100830.95
100832.36
100850.53
100858.55
100775.74
100547.83
100375.6
100273.64
100215.05
100180.06
100155.07
100140.25
78913.284
78972.348
79042.998
79120.544
79232.598
79370.489
79500.74
79725.875
79898.997
80225.825
80486.897
80935.197
81348.356
81954.744
82595.123
83429.514
84380.057
85540.862
86886.435
88456.983
90224.926
92152.525
94134.71
96035.405
97712.384
99073.456
100092.82
100769.68
101142
101295.35
101320.24
101271.8
101186.94
101092.11
101008.11
100948.61
100902.51
100867.67
100851.34
100849.32
100860.51
100861.4
100759.17
100523.15
100362.79
100268.35
100213.9
100181.01
100154.44
100138.18
79198.295
79261.33
79336.881
79419.045
79533.858
79681.931
79816.164
80054.993
80235.78
80580.289
80855.837
81326.593
81764.584
82400.85
83078.759
83955.369
84958.205
86176.86
87588.163
89226.054
91056.945
93028.32
95020.239
96886.829
98491.559
99761.541
100677.49
101236.16
101499.51
101573.49
101535.43
101434.76
101308.87
101182.88
101075.91
100998.9
100936.35
100891.22
100870.12
100865.91
100873.14
100862.43
100737.06
100500.74
100351.22
100263.48
100212.56
100181.49
100153.78
100135.94
79498.418
79566.485
79648.185
79736.464
79854.602
80013.38
80152.232
80405.808
80595.015
80958.595
81250.061
81744.633
82209.485
82877.438
83595.454
84516.962
85575.07
86854.438
88333.756
90039.861
91931.26
93938.937
95928.042
97746.545
99269.658
100444.18
101242.11
101676.5
101837.09
101838.77
101737.5
101586.84
101422.27
101267.11
101138.84
101045.04
100966.3
100912.52
100887.65
100882.18
100888.07
100862.64
100709.81
100481.21
100341.07
100259.11
100211.19
100181.7
100153.36
100133.55
79820.144
79891.933
79977.625
80073.481
80195.665
80365.716
80509.786
80779.251
80977.836
81361.63
81670.535
82190.096
82683.911
83385.433
84146.281
85115.512
86231.916
87574.839
89124.248
90898.829
92846.874
94881.444
96853.685
98610.744
100045.34
101114.19
101780.6
102088.9
102160.53
102088.11
101926.02
101727.99
101527.15
101344.83
101196.87
101086.84
100992.91
100931.92
100903.81
100897.34
100903.02
100859.15
100680.14
100463.37
100332.08
100255.24
100209.87
100181.8
100152.97
100131.05
80162.349
80238.305
80327.418
80431.131
80557.786
80740.286
80890.087
81176.445
81385.276
81790.125
82117.945
82663.703
83188.725
83925.898
84732.504
85752.364
86930.082
88339.287
89960.553
91802.863
93801.942
95851.815
97792.303
99476.058
100816.54
101762.11
102287.89
102478.8
102467.31
102320.85
102100.84
101858.23
101623.57
101416.14
101249.96
101124
101016.98
100950.07
100918.72
100910.29
100912.53
100851.43
100650
100446.59
100323.93
100251.81
100208.71
100181.85
100152.42
100128.5
80523.916
80605.573
80699.495
80811.549
80942.609
81138.391
81294.024
81597.858
81817.783
82244.456
82592.883
83166.277
83725.015
84500.157
85355.484
86428.976
87671.011
89149.18
90843.646
92751.789
94794.221
96845.874
98739.638
100340.35
101576.35
102380.8
102762.48
102851.37
102754.39
102536.74
102262.03
101977.7
101711.68
101481.2
101298.09
101156.6
101038.91
100967.42
100933.07
100921.13
100917
100839.74
100620.62
100430.69
100316.29
100248.71
100207.79
100181.88
100151.59
100125.95
80908.144
80995.418
81093.631
81214.644
81349.693
81559.449
81721.157
82043.285
82275.519
82725.246
83096.291
83698.997
84294.123
85109.646
86016.715
87146.897
88456.22
90005.879
91774.203
93744.621
95820.383
97858.652
99691.539
101201.48
102314.6
102964.26
103210
103203.88
103021.12
102735.81
102409.72
102086.62
101791.72
101540.16
101341.24
101184.88
101058.79
100983.82
100946.95
100930.87
100918.77
100824.28
100592.85
100415.75
100309.02
100245.73
100207.25
100181.89
100150.44
100123.37
81311.697
81405.574
81508.685
81639.568
81778.084
82002.891
82171.699
82513.512
82759.372
83233.751
83629.533
84263.238
84897.466
85755.835
86717.731
87907.759
89287.383
90910.876
92752.809
94779.994
96876.715
98885.589
100644.78
102054.49
103021.96
103509.49
103636.82
103532.74
103267.38
102918.26
102544.24
102185.31
101863.98
101593.23
101379.42
101209.18
101076.64
100998.7
100959.37
100940.62
100919.29
100805.17
100567.22
100401.96
100302.26
100242.97
100206.84
100181.84
100148.97
100120.8
81734.247
81835.821
81944.304
82085.957
82229.283
82470.593
82647.559
83010.22
83270.999
83771.24
84193.993
84860.336
85536.409
86440.26
87460.177
88713.349
90166.264
91865.516
93779.398
95855.406
97958.485
99922.001
101596.52
102888.8
103691.32
104021.56
104040.32
103837.27
103493.3
103084.39
102665.94
102274.14
101928.78
101640.52
101412.67
101229.99
101092.67
101012.01
100969.96
100948.94
100918.43
100782.35
100544.11
100389.41
100296.05
100240.43
100206.49
100181.47
100147.21
100118.21
82181.611
82291.371
82404.918
82558.106
82706.127
82964.624
83150.102
83534.392
83811.653
84338.771
84790.885
85491.573
86212.381
87164.567
88245.898
89565.685
91094.847
92871.137
94853.538
96967.831
99060.989
100963.93
102543.82
103692.41
104317.38
104508.21
104416.54
104117.43
103699.25
103234.7
102775.35
102353.59
101986.42
101682.12
101441.14
101247.99
101107.4
101024.12
100978.43
100953.12
100913.86
100756.07
100523.58
100378.01
100290.35
100238.09
100206.15
100180.7
100145.2
100115.62
82653.51
82771.739
82889.893
83055.432
83208.064
83484.54
83679.338
84086.607
84382.122
84937.491
85421.382
86158.286
86926.955
87930.705
89077.055
90467.044
92075.148
93928.622
95973.747
98113.047
100179.11
102007.29
103477.01
104456.68
104903.3
104968.41
104764.12
104373.42
103885.72
103369.76
102873.02
102424.05
102037.05
101718.03
101465.21
101264.21
101121.4
101035.26
100985.2
100954.9
100905.35
100727.58
100505.06
100367.51
100285.04
100235.88
100205.79
100179.51
100142.98
100113.05
83147.174
83274.787
83397.897
83576.88
83734.961
84030.972
84236.388
84668.229
84983.524
85568.517
86086.698
86862.024
87682.039
88740.953
89956.115
91419.928
93109.229
95038.495
97137.898
99286.495
101308.28
103048.73
104383.67
105174.5
105456.51
105398.32
105083
104605.76
104053.41
103490.29
102959.52
102485.83
102080.77
101748.49
101485.79
101279.85
101134.9
101045.33
100990.74
100955.47
100893.14
100698.77
100487.52
100357.65
100280.03
100233.72
100205.33
100177.89
100140.59
100110.52
83663.566
83801.681
83930.469
84124.932
84289.403
84606.111
84822.841
85280.286
85616.82
86232.783
86788.338
87604.787
88480.029
89598.033
90885.831
92426.953
94198.791
96200.331
98342.48
100482.86
102443.48
104082.11
105251.27
105844.27
105980.25
105795.02
105373.43
104815.11
104203.11
103596.97
103035.28
102539.09
102117.81
101774.27
101504.27
101295.53
101147.22
101053.4
100994.29
100955.59
100877.76
100670.56
100470.83
100348.37
100275.26
100231.56
100204.7
100175.88
100138.08
100108.05
84206.823
84356.319
84490.993
84700.938
84872.147
85210.38
85438.728
85922.952
86283.03
86931.877
87528.55
88389.291
89323.835
90504.938
91869.183
93490.776
95345.259
97412.908
99583.377
101697.06
103580.29
105095.04
106071.23
106472
106471.09
106158.3
105636.06
105002.39
104335.72
103690.45
103100.61
102584.16
102148.98
101796.82
101521.79
101309.91
101155.7
101057.58
100996
100954.16
100859.9
100643.53
100455.13
100339.71
100270.72
100229.33
100203.82
100173.5
100135.47
100105.65
84775.794
84937.835
85078.709
85304.283
85482.081
85843.167
86084.303
86597.633
86984.325
87668.575
88310.356
89218.729
90216.646
91464.97
92909.348
94613.921
96549.24
98673.649
100855.24
102923.49
104713.74
106072.5
106836.72
107066.31
106923.87
106488.39
105871.75
105168.59
104452.05
103771.17
103155.92
102621.93
102175.87
101817.53
101537.57
101318.54
101159.89
101059.45
100996.7
100950.59
100840.2
100618.05
100440.59
100331.76
100266.43
100227.01
100202.64
100170.82
100132.8
100103.34
85367.944
85543.647
85690.786
85933.129
86118.881
86505.938
86762.396
87307.91
87724.402
88446.181
89136.987
90096.459
91161.883
92481.595
94009.589
95798.673
97810.582
99979.097
102152.61
104156.44
105834.14
107002.57
107551.49
107624.42
107338.11
106786.1
106081.62
105314.78
104552.82
103839.68
103202.18
102654.16
102200.11
101835.9
101547.11
101322.53
101161.62
101060.13
100996.94
100944.86
100819.14
100594.34
100427.2
100324.51
100262.46
100224.66
100201.13
100167.88
100130.1
100101.14
85984.863
86175.266
86330.372
86594.093
86788.916
87204.035
87477.447
88057.407
88506.446
89267.742
90011.631
91026.018
92163.213
93558.56
95173.165
97046.658
99127.775
101324.38
103469.5
105389.88
106925.9
107875.44
108223.64
108141.42
107713.94
107052.39
106266.85
105441.9
104638.69
103896.98
103241.28
102682.72
102221.36
101847.44
101551.53
101324.02
101162.24
101060.36
100996.82
100936.89
100797.11
100572.48
100414.87
100317.8
100258.81
100222.52
100199.24
100164.75
100127.4
100099.04
86639.173
86845.095
87007.718
87292.257
87495.505
87940.201
88232.271
88847.041
89333.081
90136.474
90937.908
92011.336
93224.622
94699.747
96403.154
98358.752
100498.19
102703.97
104799.86
106617.57
107972.49
108688.53
108856.36
108614.29
108052.2
107288.58
106428.7
105550.86
104710.69
103945.05
103275.4
102707.49
102234.92
101852.95
101553.2
101324.57
101162.4
101060.01
100995.55
100926.62
100774.32
100552.42
100403.48
100311.51
100255.35
100220.68
100196.9
100161.47
100124.73
100097.05
87321.18
87545.237
87716.325
88025.29
88238.199
88715.457
89028.62
89680.951
90207.72
91056.393
91919.948
93056.753
94350.497
95909.175
97702.16
99734.526
101917.57
104111.38
106136.3
107824.46
108961.86
109447.57
109445.21
109042.92
108353.96
107496.05
106568.3
105642.66
104770.64
103986.29
103304.73
102723.52
102241.5
101855.08
101553.74
101324.29
101161.68
101058.72
100992.86
100914.03
100750.97
100534.09
100392.95
100305.59
100252.06
100218.9
100194.12
100158.1
100122.11
100095.19
88040.77
88284.232
88463.411
88798.956
89021.908
89534.119
89870.977
90562.595
91134.764
92031.828
92962.351
94167.085
95545.367
97190.696
99072.014
101172.21
103380.51
105539.83
107471.33
108992.51
109884.73
110162.56
109984.13
109428.1
108620.74
107676.29
106686.89
105719.04
104821.18
104021.61
103324.53
102731.43
102244.12
101855.75
101552.98
101322.45
101159.69
101056.62
100988.51
100899.18
100727.33
100517.35
100383.18
100299.97
100248.78
100216.99
100191
100154.66
100119.56
100093.45
88796.254
89061.635
89249.409
89614.955
89849.136
90399.451
90763.106
91496.704
92118.806
93067.751
94070.175
95347.476
96814.005
98547.837
100513.38
102668.27
104880.22
106981.14
108793.81
110104.25
110743.87
110829.55
110472.52
109771.01
108854.12
107830.72
106786.07
105782.64
104864.36
104047.19
103334.65
102734.66
102244.89
101854.78
101550.36
101319.09
101156.51
101053.62
100982.33
100882.32
100703.77
100502.01
100374.04
100294.49
100245.39
100214.84
100187.59
100151.2
100117.09
100091.84
89592.733
89882.854
90079.627
90478.744
90725.161
91316.251
91709.922
92487.807
93164.972
94169.543
95248.896
96603.284
98160.991
99983.321
102025.39
104217.73
106409.3
108426.36
110084.83
111147.04
111548.17
111442.69
110910.95
110073.32
109055.87
107960.99
106868.25
105836.36
104898.58
104060.97
103338.9
102735.55
102243.56
101851.62
101545.94
101314.36
101152.21
101049.6
100974.25
100863.81
100680.75
100487.75
100365.32
100289.05
100241.83
100212.39
100183.94
100147.75
100114.73
100090.36
90436.456
90753.69
90958.715
91394.638
91654.231
92288.651
92715.937
93540.68
94278.977
95343.356
96504.343
97940.026
99590.645
101498.74
103605.31
105813.61
107958.96
109865.17
111323.32
112116.38
112300.06
111998.32
111300.62
110336.85
109227.79
108069.28
106936.46
105880.71
104918.34
104066.99
103340.13
102733.84
102239.68
101846.36
101539.85
101308.41
101146.87
101044.45
100964.3
100844.12
100658.7
100474.31
100356.94
100283.64
100238.09
100209.64
100180.1
100144.34
100112.48
100089.01
91328.286
91676.029
91889.02
92366.217
92641.117
93321.861
93787.07
94661.722
95467.517
96595.875
97842.61
99363.033
101106.55
103094.16
105248.55
107447.83
109518.82
111280.23
112492.45
113018.31
112994.01
112496.71
111643.33
110563.72
109372.09
108158.68
106993.11
105910.26
104927.39
104069.03
103338.23
102729.12
102233.38
101839.17
101532.24
101301.24
101140.68
101038.1
100952.58
100823.69
100637.75
100461.53
100348.83
100278.28
100234.28
100206.59
100176.12
100140.99
100110.35
100087.8
92271.702
92654.673
92875.945
93399.783
93692.674
94422.192
94931.769
95858.472
96737.401
97933.616
99269.58
100877.37
102711.25
104767.63
106948.26
109110.66
111076.7
112648.25
113580.12
113862.07
113623.02
112938.92
111941.15
110756.16
109491.49
108232.55
107037.09
105925.86
104931.06
104067.46
103332.8
102721.61
102224.88
101830.22
101523.26
101292.98
101133.64
101030.48
100939.25
100802.89
100617.91
100449.3
100340.93
100273.01
100230.58
100203.24
100172.05
100137.72
100108.35
100086.73
93276.698
93699.418
93927.942
94503.119
94816.487
95596.642
96157.565
97137.938
98094.928
99363.038
100791.22
102487.46
104405.7
106514.91
108695.62
110790.58
112617.53
113946.63
114589.23
114642.02
114186.8
113326.9
112196.56
110916.92
109589.43
108292.59
107063.48
105932.83
104930.66
104061.7
103324.12
102711.6
102214.42
101819.71
101513.04
101283.76
101125.74
101021.56
100924.53
100782.02
100599.16
100437.57
100333.3
100267.87
100226.98
100199.62
100167.93
100134.57
100106.47
100085.79
94348.992
94816.795
95051.237
95682.458
96019.648
96851.764
97470.345
98506.571
99546.715
100891.1
102413.69
104197.09
106188.86
108329.14
110479.66
112473.13
114115.64
115158.3
115530.01
115350.1
114686.14
113662.97
112412.28
111049.34
109669.44
108335.31
107076.32
105934.41
104925.26
104052.1
103312.55
102699.38
102202.23
101807.81
101501.71
101273.67
101116.94
101011.35
100908.63
100761.31
100581.43
100426.4
100325.96
100262.88
100223.4
100195.74
100163.8
100131.53
100104.73
100084.98
95494.414
96013.652
96252.389
96943.806
97308.897
98193.692
98876.5
99971.826
101100.56
102525.72
104143.13
106008.23
108056.75
110200.66
112287.29
114141.98
115544.44
116281.17
116399.76
115983.86
115123.09
113950.06
112591.69
111157.3
109733.24
108359.91
107081.53
105930.5
104915.33
104039.15
103298.47
102685.25
102188.52
101794.66
101489.41
101262.81
101107.24
100999.9
100891.8
100740.95
100564.63
100415.85
100318.92
100257.97
100219.77
100191.65
100159.68
100128.63
100103.13
100084.31
96720.235
97296.925
97537.263
98291.208
98690.065
99629.685
100384.8
101543.44
102765.91
104275.3
105984.54
107920.3
110002.03
112116.7
114101.53
115770.81
116882.23
117322.85
117189.98
116543.84
115500.24
114191.53
112738.83
111244.45
109776.18
108371.86
107080.77
105921.2
104901.43
104023.3
103282.26
102669.47
102173.48
101780.44
101476.26
101251.22
101096.64
100987.27
100874.27
100721.17
100548.79
100405.91
100312.15
100253.09
100216.02
100187.39
100155.61
100125.88
100101.67
100083.78
98031.914
98671.097
98910.592
99728.596
100170.96
101170.71
102007.83
103234.07
104553.26
106147.48
107940.58
109928.81
112013.49
114061.57
115902.69
117329.61
118120.59
118284.68
117895.78
117032.14
115821.07
114391.5
112858.28
111312.53
109800.11
108375.7
107073.52
105907.17
104884.16
104005.02
103264.23
102652.3
102157.31
101765.28
101462.36
101238.96
101085.13
100973.55
100856.26
100702.06
100533.99
100396.59
100305.6
100248.2
100212.12
100183
100151.61
100123.28
100100.34
100083.38
99431.945
100139.74
100383.03
101269.29
101769.02
102829.77
103758.92
105056.92
106472.37
108147.42
110009.92
112024.94
114075.8
116015.1
117663.28
118791.1
119264.81
119157.25
118517.31
117451.71
116089.59
114554.66
112953.63
111356.87
109811.64
108372.4
107060.58
105889.13
104864.07
103984.72
103244.72
102633.97
102140.18
101749.31
101447.81
101226.04
101072.73
100958.85
100837.97
100683.7
100520.13
100387.79
100299.24
100243.27
100208.04
100178.53
100147.69
100120.84
100099.15
100083.11
100941.74
101722.45
101979.66
102936.1
103503.2
104624.44
105651.02
107022.82
108530.49
110276.52
112186.37
114194.62
116169.48
117953.02
119348.82
120141.9
120317.92
119933.79
119056.68
117806.63
116310.75
114686.09
113025.43
111381.12
109814.37
108362.19
107042.82
105867.81
104841.72
103962.82
103224.02
102614.7
102122.25
101732.67
101432.69
101212.5
101059.47
100943.3
100819.59
100666.16
100507.18
100379.35
100293.05
100238.35
100203.78
100174.02
100143.86
100118.57
100098.11
100082.98
102575.32
103439.58
103724.69
104750.55
105391.13
106570.73
107693.91
109138.69
110731.12
112531.85
114458.39
116418.63
118269.97
119844.26
120926.84
121385.64
121269.05
120614.16
119517.34
118101.77
116490.01
114789.76
113071.89
111392.76
109809.03
108346.11
107021.13
105843.88
104817.6
103939.68
103202.41
102594.7
102103.69
101715.46
101417.06
101198.37
101045.37
100927.01
100801.27
100649.49
100495.06
100371.23
100286.96
100233.45
100199.33
100169.49
100140.15
100116.45
100097.19
100082.98
104376.23
105325.22
105639.85
106727.6
107447.86
108683.89
109902.33
111411.49
113074.29
114904.47
116807.54
118671.74
120346.78
121648.95