/*--------------------------------*- C++ -*----------------------------------*\
  =========                 |
  \\      /  F ield         | OpenFOAM: The Open Source CFD Toolbox
   \\    /   O peration     | Website:  https://openfoam.org
    \\  /    A nd           | Version:  8
     \\/     M anipulation  |
\*---------------------------------------------------------------------------*/
FoamFile
{
    version     2.0;
    format      ascii;
    class       surfaceScalarField;
    location    "0.0800043";
    object      phi;
}
// * * * * * * * * * * * * * * * * * * * * * * * * * * * * * * * * * * * * * //

dimensions      [1 0 -1 0 0 0 0];

internalField   nonuniform List<scalar> 
39600
(
0.00012488392
-0.0080520852
0.0079935265
0.0001440218
-0.011486557
0.01146899
0.0001658897
-0.015273067
0.01525262
0.00019152342
-0.019966607
0.019942868
0.00023209406
-0.02596467
0.025926492
0.00014552541
-0.033249939
0.033339259
-0.0001221636
-0.039941998
0.04021269
-0.00044730975
-0.048200042
0.048528779
-0.00083413397
-0.057409273
0.057800532
-0.0012979378
-0.069023989
0.069493075
-0.0018486959
-0.082427487
0.082984662
-0.0025113259
-0.09892711
0.09959736
-0.0032973033
-0.11828002
0.11907538
-0.0042426637
-0.14180498
0.14276153
-0.005365015
-0.16965738
0.17079347
-0.0067119909
-0.20326791
0.20463129
-0.0083135582
-0.24324965
0.24487072
-0.010230814
-0.29129887
0.29323843
-0.012510503
-0.34859747
0.3509045
-0.01523518
-0.41727378
0.42003191
-0.018483732
-0.49924807
0.50253815
-0.022370317
-0.59730053
0.60123917
-0.027017304
-0.71432671
0.71903821
-0.032584062
-0.85407585
0.85972435
-0.039215025
-1.0206916
1.0274259
-0.047098792
-1.2193407
1.227352
-0.056616369
-1.4560651
1.465741
-0.068104025
-1.737739
1.7494202
-0.0819479
-2.0730257
2.0870919
-0.098549441
-2.4724482
2.489302
-0.11835988
-2.948888
2.9689833
-0.14185214
-3.5180887
3.5419001
-0.16953202
-4.1991594
4.2272066
-0.20194794
-5.0150996
5.0479423
-0.23971529
-5.9936525
6.0319269
-0.28349934
-7.1679258
7.2122957
-0.33395558
-8.5773543
8.6284986
-0.39173305
-10.26959
10.328069
-0.45714492
-12.300889
12.367099
-0.5301463
-14.74051
14.814492
-0.61027537
-17.668453
17.749769
-0.69564474
-21.182168
21.268745
-0.78255412
-25.3999
25.487782
-0.86412717
-30.46398
30.546352
-0.93110053
-36.543751
36.611599
-0.96754161
-43.839395
43.874618
-0.94419399
-52.61024
52.582876
-0.82022809
-63.154888
63.027616
-0.54491486
-75.814668
75.53669
-91.023209
90.488316
7.3751233e-05
-0.0080728386
9.2599695e-05
-0.011504647
0.00011319306
-0.015292564
0.00013455384
-0.019986314
0.0001658726
-0.025993506
5.7328604e-05
-0.033138638
-0.00019967354
-0.039681902
-0.00051005137
-0.047885951
-0.00087805896
-0.057036798
-0.0013225697
-0.068574185
-0.0018499802
-0.081893509
-0.00248606
-0.098283243
-0.0032403223
-0.1175162
-0.0041486295
-0.14088525
-0.005226073
-0.16856606
-0.0065201393
-0.20195719
-0.0080563833
-0.24169362
-0.0098969247
-0.28943485
-0.012085909
-0.34638026
-0.014706731
-0.41461879
-0.017835327
-0.49607731
-0.021583706
-0.59349986
-0.026060178
-0.70978506
-0.03142099
-0.84863296
-0.037800288
-1.0142085
-0.045435033
-1.2115762
-0.054716099
-1.446629
-0.065949668
-1.7263123
-0.079510066
-2.0592439
-0.095808632
-2.4558977
-0.1152824
-2.9291293
-0.13838904
-3.4946623
-0.16561576
-4.1715643
-0.19749318
-4.9827948
-0.23461819
-5.9560211
-0.27765195
-7.1243099
-0.3272213
-8.527098
-0.38398202
-10.212128
-0.44824907
-12.235819
-0.51999837
-14.667736
-0.59890075
-17.588385
-0.68291492
-21.096979
-0.76863615
-25.313158
-0.85023191
-30.381644
-0.91756818
-36.475618
-0.95618456
-43.80236
-0.93663387
-52.63362
-0.82409765
-63.270634
-0.56123266
-76.080002
-91.534006
6.0105758e-05
-0.0080915747
7.9214e-05
-0.011522386
0.00010115362
-0.015313342
0.00012497174
-0.020008298
0.00015562992
-0.026021544
3.4680711e-05
-0.033014966
-0.00021431527
-0.03942979
-0.00051517138
-0.047581375
-0.0008715805
-0.056675726
-0.0013018714
-0.068138348
-0.0018115294
-0.081377051
-0.0024265608
-0.097660167
-0.0031547058
-0.11677818
-0.004032336
-0.13999592
-0.0050724567
-0.16751172
-0.0063220407
-0.2006907
-0.0078048114
-0.24019048
-0.0095821759
-0.28763347
-0.011698501
-0.34423468
-0.014237077
-0.41204453
-0.017269858
-0.49300036
-0.020897646
-0.58981721
-0.025233531
-0.70538152
-0.030400806
-0.84337894
-0.036574575
-1.0079283
-0.044034369
-1.2039885
-0.053125079
-1.4373822
-0.064136807
-1.7151084
-0.077459199
-2.0457003
-0.093497849
-2.4396075
-0.11267348
-2.9096698
-0.13542769
-3.4715885
-0.16223057
-4.1443936
-0.19359879
-4.9509984
-0.23011497
-5.9189986
-0.27242251
-7.0814203
-0.32115237
-8.4776828
-0.37695135
-10.155628
-0.44014718
-12.171813
-0.51083517
-14.595979
-0.58851983
-17.509559
-0.67131568
-21.012975
-0.75611601
-25.227355
-0.83771731
-30.299378
-0.90571173
-36.406961
-0.94673603
-43.763351
-0.93207963
-52.651955
-0.82945025
-63.376155
-0.58024091
-76.331583
-92.020662
4.7628769e-05
-0.008110342
6.6953119e-05
-0.011540679
9.0283597e-05
-0.015335591
0.00011651744
-0.020032849
0.00014224808
-0.026045195
9.2822941e-06
-0.032879245
-0.00023093249
-0.039186604
-0.0005209306
-0.047287519
-0.00086393799
-0.056328138
-0.0012788303
-0.067717845
-0.0017694388
-0.080879498
-0.002362637
-0.0970587
-0.0030642631
-0.11606645
-0.0039109057
-0.13913734
-0.0049135061
-0.1664946
-0.0061189957
-0.19946794
-0.0075499987
-0.23873862
-0.0092674807
-0.28589104
-0.011316272
-0.342156
-0.013774159
-0.40955058
-0.01670652
-0.4900235
-0.020215659
-0.58625318
-0.024385103
-0.70114206
-0.029365692
-0.83831202
-0.035378428
-1.001812
-0.042690388
-1.1965479
-0.051587337
-1.4283305
-0.062396216
-1.704109
-0.075504455
-2.0323723
-0.091306247
-2.4235553
-0.11021016
-2.8904834
-0.13263928
-3.4488405
-0.15904984
-4.1176167
-0.18994291
-4.9196777
-0.22589443
-5.882542
-0.26753096
-7.0392026
-0.3154866
-8.4290447
-0.37039496
-10.100018
-0.43260531
-12.108785
-0.5022882
-14.525215
-0.57890878
-17.431834
-0.66074637
-20.929949
-0.74485273
-25.142173
-0.82638764
-30.217197
-0.89538769
-36.337435
-0.93870128
-43.72268
-0.92999452
-52.663939
-0.83643128
-63.472458
-0.60177515
-76.568602
-92.482928
3.9618389e-05
-0.0081287721
6.021561e-05
-0.011559509
8.6505014e-05
-0.015359698
0.00011753986
-0.020061394
0.00013750901
-0.026062537
-4.7765333e-06
-0.032734053
-0.000236361
-0.038951842
-0.00051657847
-0.047003465
-0.00084718448
-0.055992799
-0.0012477089
-0.067311635
-0.0017204639
-0.080399782
-0.0022929138
-0.096477973
-0.0029687527
-0.11538044
-0.0037849545
-0.13830905
-0.0047505605
-0.16551428
-0.0059131426
-0.19828784
-0.0072949185
-0.23733563
-0.0089575423
-0.28420327
-0.01093907
-0.34014387
-0.013312654
-0.40713966
-0.016144885
-0.4871456
-0.019510183
-0.58282966
-0.023518173
-0.69706236
-0.028355062
-0.83338956
-0.034238425
-0.99582298
-0.041384945
-1.1892726
-0.050104356
-1.4194569
-0.060732119
-1.6932925
-0.073648222
-2.0192385
-0.08923868
-2.4077169
-0.10789609
-2.8715464
-0.1300291
-3.4263911
-0.15607847
-4.0912037
-0.18653576
-4.8887949
-0.2219596
-5.8466154
-0.26297725
-6.9976055
-0.31021787
-8.3811257
-0.36431649
-10.045217
-0.42563038
-12.046641
-0.49437744
-14.455384
-0.57008725
-17.355069
-0.65123946
-20.847689
-0.73494002
-25.057359
-0.81622914
-30.135135
-0.88665814
-36.266954
-0.93209043
-43.680139
-0.92980171
-52.669408
-0.84544934
-63.559386
-0.62600897
-76.790407
-92.920496
2.7675805e-05
-0.0081477433
4.8332581e-05
-0.011579743
7.6185472e-05
-0.015386342
0.00011247812
-0.020095934
0.00012477769
-0.026072431
-2.3368768e-05
-0.032583145
-0.00024567313
-0.038726359
-0.00051557154
-0.046729585
-0.00083367756
-0.055669908
-0.0012200122
-0.066919568
-0.0016750512
-0.079937645
-0.0022267932
-0.095917846
-0.0028771431
-0.11471982
-0.0036634517
-0.13751058
-0.0045934705
-0.16456944
-0.0057154571
-0.19714817
-0.0070506721
-0.23597904
-0.0086590213
-0.28256929
-0.010568391
-0.33820353
-0.012859613
-0.40481113
-0.015563974
-0.48439389
-0.018792576
-0.57954297
-0.02267528
-0.69311028
-0.027404306
-0.82857474
-0.033137919
-0.98998418
-0.040131296
-1.1821511
-0.048692474
-1.4107425
-0.059160501
-1.6826373
-0.07190948
-2.0062737
-0.087313353
-2.3920671
-0.10575131
-2.8528312
-0.12761566
-3.4042125
-0.15333525
-4.0651231
-0.18339106
-4.8583157
-0.21833294
-5.8111734
-0.25878954
-6.9565716
-0.30538263
-8.3338585
-0.35874539
-9.9911491
-0.41925417
-11.985286
-0.4871512
-14.386409
-0.56207257
-17.279135
-0.6427043
-20.766045
-0.72628266
-24.972713
-0.80746073
-30.05285
-0.8795787
-36.195008
-0.92797538
-43.634814
-0.93175046
-52.668731
-0.85688813
-63.636754
-0.65305059
-76.996663
-93.333164
1.988903e-05
-0.0081660356
4.1553773e-05
-0.011599552
7.0878268e-05
-0.015413612
0.00011289228
-0.020135444
0.00011430111
-0.026071102
-3.8359185e-05
-0.032427508
-0.00025280076
-0.038508491
-0.0005136108
-0.046464748
-0.00081988387
-0.055358649
-0.0011923589
-0.066541231
-0.0016297636
-0.079493076
-0.0021610227
-0.095378168
-0.0027862957
-0.11408423
-0.003544197
-0.13674044
-0.0044412559
-0.1636574
-0.005524505
-0.19604708
-0.006812906
-0.23466912
-0.008359055
-0.28099823
-0.010200499
-0.33633089
-0.012376847
-0.40259549
-0.014970326
-0.48175208
-0.018091271
-0.57636467
-0.021885208
-0.6892455
-0.026481443
-0.82389213
-0.032077133
-0.98428294
-0.038931314
-1.1751696
-0.047354025
-1.4021682
-0.057685229
-1.6721217
-0.070291266
-1.9934554
-0.085535142
-2.3765813
-0.10377965
-2.8343138
-0.12540351
-3.3822783
-0.15082568
-4.039344
-0.18051806
-4.8282037
-0.21502621
-5.776169
-0.25496714
-6.916057
-0.30097391
-8.2871835
-0.35368687
-9.9377275
-0.41348641
-11.924618
-0.48064651
-14.318184
-0.554907
-17.203897
-0.63510497
-20.684891
-0.71859744
-24.888185
-0.80036017
-29.969888
-0.87419186
-36.121384
-0.92599214
-43.586145
-0.93586262
-52.661924
-0.87082467
-63.704253
-0.68299213
-77.186966
-93.720541
1.0525201e-05
-0.0081843195
3.2089262e-05
-0.011619724
6.2605379e-05
-0.015442143
0.00011120719
-0.020181881
0.00010138513
-0.026058455
-5.2174739e-05
-0.032271016
-0.00025780544
-0.038299367
-0.00050846932
-0.046209952
-0.00080232321
-0.055059796
-0.0011606528
-0.066177044
-0.0015810273
-0.079065464
-0.0020933287
-0.094857398
-0.0026953131
-0.11347188
-0.0034266273
-0.13599689
-0.0042933843
-0.16277565
-0.0053350842
-0.19498749
-0.0065765294
-0.23340624
-0.0080573443
-0.27949079
-0.0097999916
-0.33455599
-0.01188873
-0.40046748
-0.014393959
-0.4792002
-0.017439138
-0.57326204
-0.021116168
-0.68549804
-0.025588795
-0.81933361
-0.031058427
-0.97870824
-0.037789668
-1.1683121
-0.046094966
-1.3937124
-0.056312898
-1.6617212
-0.068802203
-1.9807563
-0.083910829
-2.3612337
-0.1019893
-2.8159655
-0.12340182
-3.3605587
-0.1485575
-4.0138349
-0.17792095
-4.798424
-0.21203709
-5.7415603
-0.25152256
-6.8760019
-0.29701902
-8.2410252
-0.34915633
-9.8848765
-0.40833313
-11.864547
-0.47486155
-14.250603
-0.54860987
-17.129196
-0.62854524
-20.604035
-0.71216909
-24.803551
-0.79475698
-29.886108
-0.8705563
-36.045813
-0.92605692
-43.533753
-0.94219642
-52.648791
-0.88747088
-63.761414
-0.71598427
-77.360974
-94.082329
3.7067212e-06
-0.008202484
2.5964341e-05
-0.011640086
5.752738e-05
-0.015471245
0.00011363346
-0.020235424
9.216029e-05
-0.026033939
-5.9722573e-05
-0.032116138
-0.00025705236
-0.038098419
-0.00049727646
-0.045965627
-0.00077895491
-0.054773051
-0.0011231954
-0.065826919
-0.0015285692
-0.078652875
-0.0020254534
-0.094352068
-0.0026063548
-0.11288061
-0.0033095879
-0.13528142
-0.0041430467
-0.16192747
-0.0051483878
-0.19396435
-0.0063218073
-0.23221049
-0.0077282474
-0.27805796
-0.0094025788
-0.3328491
-0.011423967
-0.39840772
-0.013864578
-0.47671222
-0.016807077
-0.5702618
-0.020372098
-0.68186232
-0.024729585
-0.8148905
-0.030086602
-0.9732471
-0.036712895
-1.1615616
-0.044923224
-1.3853543
-0.055052009
-1.6514138
-0.067449672
-1.9681538
-0.082449819
-2.3459999
-0.10038812
-2.797763
-0.12161784
-3.3390272
-0.14653989
-3.9885647
-0.17561736
-4.7689353
-0.20938651
-5.7073038
-0.24847332
-6.8363513
-0.29351977
-8.195325
-0.34516972
-9.8325078
-0.40383768
-11.804956
-0.46984363
-14.183545
-0.54321322
-17.054888
-0.62306018
-20.523309
-0.70703691
-24.718636
-0.79066096
-29.80136
-0.86871505
-35.96839
-0.92817755
-43.477296
-0.95088934
-52.629002
-0.90686128
-63.807851
-0.75214934
-77.518257
-94.418133
-4.9176376e-06
-0.0082210948
1.7309716e-05
-0.011661076
4.8849342e-05
-0.015501104
0.00011210467
-0.020296488
7.8649052e-05
-0.025997859
-6.9336982e-05
-0.031965123
-0.00025914514
-0.03790526
-0.0004890467
-0.045731549
-0.00075971609
-0.054497381
-0.001090839
-0.065489895
-0.001481786
-0.078254727
-0.0019625605
-0.093863004
-0.0025200463
-0.11231284
-0.0031990788
-0.13459014
-0.0039888862
-0.16112232
-0.0049359417
-0.19299911
-0.0060599583
-0.23106432
-0.0074083742
-0.27668282
-0.0090339646
-0.33119211
-0.010995774
-0.39640749
-0.013350523
-0.47431053
-0.016199761
-0.56735518
-0.019662787
-0.67832917
-0.023914094
-0.81055416
-0.029172897
-0.96788501
-0.03571385
-1.1548978
-0.043851078
-1.3770705
-0.053916379
-1.6411717
-0.066247814
-1.9556204
-0.081165299
-2.3308522
-0.098990414
-2.7796774
-0.12006578
-3.3176539
-0.1447868
-3.9634996
-0.1736129
-4.739702
-0.20708617
-5.6733476
-0.24582474
-6.7970542
-0.29049592
-8.1500079
-0.34174716
-9.7805331
-0.40000543
-11.745747
-0.4656356
-14.116855
-0.53874973
-16.980831
-0.6186697
-20.442554
-0.70322332
-24.633247
-0.78813121
-29.715458
-0.86873088
-35.88879
-0.9324123
-43.416467
-0.96207333
-52.602154
-0.92914835
-63.843151
-0.79157915
-77.658426
-94.727466
-1.2078256e-05
-0.0082383766
9.5067459e-06
-0.01168101
4.0354483e-05
-0.015529834
0.00010871467
-0.020362247
6.2140955e-05
-0.025948499
-8.3297974e-05
-0.031816577
-0.00026528555
-0.037719608
-0.0004879334
-0.045504667
-0.00074903849
-0.0542312
-0.0010705106
-0.065162699
-0.0014435447
-0.077874523
-0.0019003942
-0.093397577
-0.0024284285
-0.11177429
-0.0030661411
-0.13394007
-0.0038180205
-0.16035526
-0.0047275112
-0.19207153
-0.0058089194
-0.22996147
-0.0071227725
-0.27534332
-0.0086914342
-0.32959183
-0.010579411
-0.39448112
-0.012853041
-0.47198993
-0.015614365
-0.56453671
-0.018987796
-0.67488618
-0.023147382
-0.80631069
-0.028322005
-0.96260912
-0.034798162
-1.1483019
-0.042886632
-1.3688393
-0.052913518
-1.6309727
-0.065204882
-1.9431328
-0.080065084
-2.315768
-0.097803497
-2.7616847
-0.11875327
-3.2964122
-0.14330662
-3.938608
-0.17192268
-4.7106841
-0.20514705
-5.639646
-0.2436028
-6.7580468
-0.28796675
-8.105007
-0.33890257
-9.7288709
-0.3968541
-11.686829
-0.46227365
-14.050372
-0.53529624
-16.906846
-0.61540004
-20.361624
-0.7007597
-24.547134
-0.78721313
-29.628177
-0.87065281
-35.806762
-0.93883383
-43.350935
-0.97579662
-52.567884
-0.95439632
-63.866881
-0.83451806
-77.780893
-95.009961
-1.8888144e-05
-0.0082553838
2.9709124e-06
-0.011701138
3.4102022e-05
-0.015558719
0.00010640303
-0.020431987
4.8969044e-05
-0.025888231
-9.315825e-05
-0.031671357
-0.00026630124
-0.037542939
-0.00048504201
-0.04528179
-0.00073459067
-0.053976572
-0.0010435109
-0.064847866
-0.0013895708
-0.077521161
-0.001811781
-0.092966971
-0.0023144576
-0.11126128
-0.0029273753
-0.133315
-0.0036486485
-0.15961929
-0.0045313385
-0.19117148
-0.0055821656
-0.22888926
-0.0068436761
-0.27405605
-0.0083515143
-0.32805266
-0.010170283
-0.39262428
-0.01236734
-0.46974638
-0.01504642
-0.561801
-0.018338875
-0.67152477
-0.022422515
-0.80214383
-0.027533273
-0.957398
-0.033964814
-1.1417519
-0.042029341
-1.3606334
-0.052043371
-1.620789
-0.064320507
-1.9306627
-0.079149156
-2.300719
-0.096826581
-2.7437571
-0.11768157
-3.2752695
-0.14210222
-3.9138537
-0.17054867
-4.6818404
-0.2035698
-5.6061526
-0.24180388
-6.7192675
-0.28593397
-8.0602482
-0.33663711
-9.6774399
-0.39440393
-11.628089
-0.45977513
-13.983947
-0.53290081
-16.832734
-0.61333689
-20.280328
-0.69961226
-24.460179
-0.78795332
-29.539364
-0.87445767
-35.722138
-0.94750136
-43.280328
-0.99221389
-52.525752
-0.98272222
-63.878658
-0.88099734
-77.885224
-95.265042
-2.5155318e-05
-0.0082713968
-3.8465361e-06
-0.011720474
2.6644859e-05
-0.015586793
9.7390366e-05
-0.020499952
2.7890641e-05
-0.025816009
-0.00011297258
-0.031527403
-0.00027806129
-0.037374324
-0.00048334975
-0.045072435
-0.00071380519
-0.053741205
-0.0010004031
-0.064555449
-0.0013313684
-0.077183146
-0.0017368074
-0.092553331
-0.0022187277
-0.11076951
-0.0028134764
-0.13270867
-0.0035172964
-0.15890116
-0.004365018
-0.19030644
-0.005370192
-0.22786283
-0.0065811024
-0.27281972
-0.0080306402
-0.32657208
-0.0097838949
-0.39083334
-0.011909596
-0.46757463
-0.014514845
-0.55913992
-0.017735524
-0.66823624
-0.021760668
-0.79803739
-0.026827283
-0.95223375
-0.033236003
-1.1352288
-0.04130143
-1.3524312
-0.051328302
-1.6105982
-0.063615843
-1.9181886
-0.078439268
-2.2856821
-0.096084268
-2.7258687
-0.11687367
-3.2541991
-0.14119629
-3.8892039
-0.16951503
-4.6531305
-0.20238607
-5.5728157
-0.24045736
-6.6806586
-0.28443031
-8.0156548
-0.3350009
-9.626142
-0.39269057
-11.569436
-0.4581649
-13.917452
-0.53160869
-16.758301
-0.61261411
-20.198413
-0.69980198
-24.372263
-0.79042057
-29.448397
-0.87999427
-35.634635
-0.9585201
-43.204147
-1.0113602
-52.475405
-1.0142865
-63.877975
-0.93123042
-77.970898
-95.492152
-3.1681811e-05
-0.0082872411
-9.5619826e-06
-0.011741024
2.3231822e-05
-0.015617572
9.4512602e-05
-0.020568752
2.1681888e-05
-0.02574035
-0.00010858754
-0.031394184
-0.00026181122
-0.037217659
-0.00045258821
-0.044877654
-0.00067498293
-0.053513876
-0.00095071118
-0.064274235
-0.0012718449
-0.076855193
-0.0016716495
-0.092145693
-0.0021420247
-0.11028934
-0.0027133895
-0.13212571
-0.0033836902
-0.1582165
-0.0041938875
-0.18947894
-0.0051572299
-0.22687849
-0.0063194926
-0.27163226
-0.0077147655
-0.32514626
-0.0094069156
-0.38910402
-0.011469173
-0.46546701
-0.014010311
-0.55654344
-0.017171017
-0.66500851
-0.02114965
-0.79397789
-0.026194461
-0.94709245
-0.032605673
-1.1287042
-0.040696363
-1.3442053
-0.050762154
-1.6003707
-0.063086546
-1.9056809
-0.077931145
-2.2706278
-0.095570364
-2.7079902
-0.11632201
-3.2331709
-0.14057875
-3.8646246
-0.16881169
-4.6245111
-0.20158584
-5.5395809
-0.23956155
-6.6421518
-0.28346019
-7.9711423
-0.33398459
-9.5748914
-0.39172017
-11.510757
-0.45741335
-13.850788
-0.53137156
-16.683385
-0.61326594
-20.115564
-0.70142636
-24.283147
-0.79467177
-29.354855
-0.88777598
-35.5437
-0.97200677
-43.122222
-1.0334265
-52.416401
-1.0491932
-63.864408
-0.98540019
-78.037323
-95.690766
-3.5802276e-05
-0.0083042156
-1.0497109e-05
-0.01176489
2.8529587e-05
-0.015654845
0.00010251444
-0.020640463
2.7199283e-05
-0.025662679
-9.7264522e-05
-0.031266905
-0.00024411911
-0.03706754
-0.00043231958
-0.0446856
-0.00064615917
-0.053295349
-0.00091880056
-0.063996282
-0.001230754
-0.076536462
-0.0016211542
-0.091747488
-0.0020648318
-0.10983581
-0.0026086806
-0.13157024
-0.0032490225
-0.15756178
-0.0040251242
-0.18868576
-0.0049490969
-0.22593369
-0.0060657848
-0.27049071
-0.0074101308
-0.32377182
-0.0090485412
-0.38742908
-0.011056013
-0.46341502
-0.013542977
-0.55400229
-0.016655457
-0.66183074
-0.020602858
-0.78995203
-0.025647119
-0.94195515
-0.032086668
-1.1221557
-0.040227596
-1.3359342
-0.050358387
-1.5900841
-0.062747094
-1.8931156
-0.077635525
-2.2555365
-0.095291853
-2.6901016
-0.1160343
-3.2121587
-0.14026116
-3.8400818
-0.16845283
-4.5959391
-0.20118354
-5.5063961
-0.2391356
-6.6036758
-0.28303678
-7.9266327
-0.33362207
-9.5235812
-0.39151586
-11.451946
-0.45755415
-13.783837
-0.53213441
-16.607891
-0.61500281
-20.031714
-0.70485887
-24.192127
-0.80077145
-29.25865
-0.89778786
-35.448874
-0.98806216
-43.034209
-1.0584489
-52.348346
-1.0876076
-63.837397
-1.0435983
-78.083973
-95.860223
-3.9968994e-05
-0.0083217673
-1.405074e-05
-0.011789386
2.7033053e-05
-0.015694174
9.7208514e-05
-0.020708353
1.6706843e-05
-0.02557987
-0.0001078404
-0.03113962
-0.00025145543
-0.036920739
-0.00043344723
-0.044499833
-0.00063933488
-0.053084794
-0.00089618051
-0.063734021
-0.0011933097
-0.076232573
-0.0015658251
-0.091367153
-0.0019890553
-0.10940281
-0.0025099825
-0.13103776
-0.0031237733
-0.15693378
-0.0038682581
-0.18792434
-0.0047558876
-0.22502547
-0.0058302953
-0.26939181
-0.0071291804
-0.32244327
-0.0087197024
-0.38580264
-0.010677673
-0.46141312
-0.013118583
-0.55150785
-0.016199315
-0.65868532
-0.020135725
-0.78593783
-0.025199675
-0.93679902
-0.031692179
-1.1155555
-0.039911327
-1.3275862
-0.05013604
-1.5797062
-0.062609556
-1.8804688
-0.077562458
-2.2403847
-0.095259941
-2.6721762
-0.11602451
-3.191129
-0.14026021
-3.8155349
-0.16845726
-4.5673665
-0.20120482
-5.4732001
-0.23919225
-6.5651709
-0.28318572
-7.8820345
-0.3339362
-9.4721062
-0.39211538
-11.392877
-0.45861267
-13.716471
-0.53399934
-16.531637
-0.61811655
-19.946613
-0.70992503
-24.099081
-0.80879525
-29.159731
-0.91008137
-35.349751
-1.0067679
-42.939705
-1.0865727
-52.270778
-1.1296405
-63.796429
-1.1060999
-78.110157
-95.999868
-4.4518551e-05
-0.0083390823
-1.7896195e-05
-0.011814543
2.6789583e-05
-0.015737045
9.405192e-05
-0.020773306
1.3001123e-05
-0.025496574
-0.00011206224
-0.031011923
-0.00024996877
-0.036779684
-0.00042332543
-0.044322792
-0.00061865875
-0.052884823
-0.00086669433
-0.063480733
-0.0011488599
-0.075943723
-0.0015008874
-0.091007407
-0.0019086226
-0.10898546
-0.0024088132
-0.13052624
-0.0029979126
-0.15633069
-0.0037126251
-0.187193
-0.0045663918
-0.22415146
-0.0056024202
-0.26833165
-0.0068615292
-0.321155
-0.0084082068
-0.38422085
-0.010322109
-0.4594563
-0.012727025
-0.54905081
-0.015791498
-0.65555817
-0.019740171
-0.78191434
-0.024847636
-0.93160317
-0.031418741
-1.1088813
-0.039747475
-1.319134
-0.050087044
-1.5692197
-0.062664826
-1.8677246
-0.077704086
-2.2251536
-0.095470696
-2.6541886
-0.11628898
-3.1700525
-0.14057199
-3.7909474
-0.16882181
-4.5387476
-0.20164247
-5.4399382
-0.23974367
-6.5265594
-0.28391675
-7.8372588
-0.33493426
-9.4203633
-0.39353374
-11.33341
-0.46061777
-13.648541
-0.53699442
-16.454439
-0.62265019
-19.860019
-0.71664848
-24.00386
-0.81880295
-29.057727
-0.92471004
-35.245923
-1.0282203
-42.838262
-1.1179633
-52.183172
-1.1754608
-63.740994
-1.1729378
-78.11532
-96.108941
-4.9695267e-05
-0.0083553286
-2.3517234e-05
-0.01183933
2.3678633e-05
-0.015782487
8.4026803e-05
-0.020831455
3.5989295e-06
-0.02541389
-0.00011580205
-0.030889856
-0.00024669806
-0.036645674
-0.00041523602
-0.044150613
-0.00060090487
-0.052694614
-0.00084100321
-0.063235507
-0.0011088364
-0.075669355
-0.0014466367
-0.090662121
-0.0018376663
-0.10858501
-0.0023175263
-0.13003529
-0.0028830006
-0.15575154
-0.0035697781
-0.18648994
-0.0043920649
-0.22330933
-0.005394394
-0.26730558
-0.006616855
-0.3199039
-0.0081246339
-0.38267858
-0.010003539
-0.45753509
-0.012385397
-0.54661703
-0.015448081
-0.65243349
-0.019429267
-0.77785877
-0.024608082
-0.92633703
-0.031288905
-1.1020981
-0.039750109
-1.3105505
-0.050223192
-1.5586019
-0.062926102
-1.8548586
-0.078076291
-2.2098154
-0.095938389
-2.6361098
-0.11684292
-3.1488942
-0.14121319
-3.766277
-0.16956603
-4.5100302
-0.20251956
-5.4065492
-0.24081326
-6.4877612
-0.28525141
-7.7922185
-0.336657
-9.3682301
-0.3958075
-11.273409
-0.46365651
-13.579845
-0.54116248
-16.376145
-0.62862451
-19.77171
-0.72507644
-23.906233
-0.83084685
-28.952382
-0.94175757
-35.136952
-1.0525157
-42.729426
-1.1526892
-52.085021
-1.2252499
-63.670443
-1.2444778
-78.098731
-96.186736
-5.3549894e-05
-0.0083714992
-2.7145518e-05
-0.011864389
2.3470691e-05
-0.015831399
7.6608376e-05
-0.020882407
-6.5202141e-06
-0.025328623
-0.00011786571
-0.030775912
-0.00024146578
-0.036519031
-0.00040258681
-0.043985974
-0.00058084767
-0.052511919
-0.00081023753
-0.063001111
-0.0010676213
-0.075405561
-0.0013918814
-0.090330514
-0.0017662223
-0.10820142
-0.0022265592
-0.12956411
-0.0027701247
-0.15519461
-0.0034311247
-0.18581306
-0.0042251467
-0.22249588
-0.0051965202
-0.26631093
-0.0063862272
-0.31868616
-0.007861701
-0.38116979
-0.0097173791
-0.45563822
-0.012089963
-0.54419374
-0.015169756
-0.64929399
-0.019202873
-0.77375452
-0.024479064
-0.92097768
-0.031297128
-1.0951822
-0.039911528
-1.301819
-0.050539219
-1.5478356
-0.063389961
-1.8418513
-0.078674346
-2.1943497
-0.096658944
-2.6179151
-0.11768333
-3.1276227
-0.14218282
-3.7414836
-0.17069005
-4.4811649
-0.20384347
-5.3729678
-0.24240272
-6.4487036
-0.28721015
-7.7468078
-0.33910572
-9.3156049
-0.39895969
-11.212717
-0.46778227
-13.51017
-0.54660347
-16.296533
-0.63597883
-19.681584
-0.73526728
-23.806132
-0.84500007
-28.843363
-0.96130467
-35.022403
-1.0797564
-42.612724
-1.1908834
-51.975779
-1.2791074
-63.584154
-1.320779
-78.059697
-96.232458
-5.5750374e-05
-0.0083889415
-2.7913281e-05
-0.011890895
2.6936169e-05
-0.015884562
7.3818337e-05
-0.020927163
-9.7727562e-06
-0.025243005
-0.00011721514
-0.030665894
-0.00023482605
-0.036398431
-0.00038973429
-0.043827587
-0.00055998247
-0.052337286
-0.00078020628
-0.062775968
-0.001026717
-0.075152738
-0.0013382197
-0.090011843
-0.0016976636
-0.10783293
-0.0021401172
-0.12911109
-0.0026635715
-0.15465813
-0.0033007657
-0.18516039
-0.0040705493
-0.22170708
-0.0050143508
-0.26534429
-0.0061756065
-0.3174973
-0.0076277126
-0.37968519
-0.0094708302
-0.45375492
-0.011850123
-0.5417644
-0.014965247
-0.64611965
-0.019073184
-0.76957602
-0.024473075
-0.91549536
-0.031450831
-1.0881076
-0.040239375
-1.2929145
-0.051044558
-1.5368942
-0.064064396
-1.8286783
-0.079506143
-2.1787303
-0.097640943
-2.5995742
-0.11881975
-3.106201
-0.14349173
-3.7165221
-0.1722071
-4.4520968
-0.20562444
-5.3391287
-0.24453186
-6.4093027
-0.28980106
-7.7009334
-0.34231932
-9.2623557
-0.40301465
-11.151197
-0.47304375
-13.439287
-0.55342098
-16.215341
-0.64473075
-19.5895
-0.74727242
-23.70303
-0.86131575
-28.730303
-0.98342671
-34.90185
-1.1100614
-42.487665
-1.2326523
-51.854915
-1.3372543
-63.481385
-1.4020856
-77.997506
-96.245224
-5.8339109e-05
-0.0084069524
-2.9661866e-05
-0.011918232
2.8024944e-05
-0.015940541
6.6118991e-05
-0.020963161
-1.329863e-05
-0.025161534
-0.00011766599
-0.030559027
-0.00023077296
-0.036282376
-0.00038021917
-0.043674744
-0.00054330314
-0.052169888
-0.00075514568
-0.062559355
-0.0009918048
-0.074909896
-0.0012916296
-0.089705039
-0.0016375642
-0.10747816
-0.0020636025
-0.12867476
-0.0025688259
-0.15414019
-0.0031850918
-0.18452898
-0.0039329394
-0.22094061
-0.0048527925
-0.26440201
-0.0059910041
-0.31633196
-0.0074271406
-0.37821681
-0.0092686367
-0.45187518
-0.011667971
-0.53931812
-0.014839119
-0.64289227
-0.019050882
-0.76529714
-0.024601448
-0.90986678
-0.031759371
-1.0808575
-0.04074444
-1.2838187
-0.051747367
-1.5257611
-0.064956469
-1.8153222
-0.080578799
-2.1629367
-0.098892625
-2.5810605
-0.12026102
-3.0845961
-0.14515087
-3.6913493
-0.17413043
-4.4227717
-0.2078845
-5.3049605
-0.24722018
-6.3694782
-0.29305633
-7.6544906
-0.34631883
-9.2083648
-0.40800597
-11.088698
-0.47944578
-13.367021
-0.56166253
-16.132277
-0.65501374
-19.495206
-0.76116461
-23.596396
-0.87962781
-28.613078
-1.0081955
-34.774652
-1.1435553
-42.353741
-1.2781865
-51.721806
-1.3998126
-63.361352
-1.4885811
-77.911364
-96.224147
-5.9160641e-05
-0.0084271233
-2.8239064e-05
-0.011947865
3.2579266e-05
-0.015999697
6.1557268e-05
-0.020990124
-1.3894384e-05
-0.02508407
-0.00011479495
-0.030455692
-0.00022302496
-0.036171243
-0.00036784241
-0.043526656
-0.00052387037
-0.052009617
-0.00072862581
-0.062349965
-0.00095607893
-0.07467641
-0.0012447281
-0.089409583
-0.0015782056
-0.10713608
-0.0019892848
-0.12825362
-0.0024783434
-0.15363876
-0.0030768178
-0.18391574
-0.0038055302
-0.22019363
-0.0047048811
-0.26348063
-0.0058271575
-0.31518272
-0.0072552669
-0.37675589
-0.009104814
-0.44998705
-0.011541032
-0.53683621
-0.014790965
-0.63958651
-0.019134477
-0.76088729
-0.024859928
-0.90406381
-0.032221189
-1.0734046
-0.041423237
-1.2745071
-0.052643886
-1.5144122
-0.066063285
-1.8017582
-0.081889929
-2.1469419
-0.10042038
-2.5623334
-0.12201371
-3.0627702
-0.14716078
-3.6659246
-0.17646275
-4.3931299
-0.21061833
-5.2703968
-0.25048111
-6.3291289
-0.29698987
-7.6073745
-0.35111837
-9.1535138
-0.41394804
-11.025068
-0.48691887
-13.293259
-0.5710773
-16.047227
-0.66717995
-19.398012
-0.77701725
-23.486091
-0.90027701
-28.491175
-1.0357418
-34.640514
-1.1803436
-42.210468
-1.3277333
-51.575811
-1.4669066
-63.223704
-1.5805082
-77.800393
-96.168254
-6.0811969e-05
-0.008448412
-2.852335e-05
-0.011978928
3.3410733e-05
-0.016059987
5.2386443e-05
-0.021007181
-2.1336471e-05
-0.025008311
-0.00011981885
-0.030354805
-0.00022376314
-0.036064307
-0.00036388856
-0.043383448
-0.00051290393
-0.051856316
-0.000710616
-0.06214776
-0.00092999754
-0.07445104
-0.0012087676
-0.089124213
-0.0015314458
-0.10680494
-0.0019293334
-0.12784599
-0.0024041575
-0.15315187
-0.0029868308
-0.18331861
-0.0036993805
-0.21946322
-0.004582909
-0.2625755
-0.0056965325
-0.31404279
-0.0071264722
-0.37529381
-0.0089963339
-0.44807938
-0.011488049
-0.53430029
-0.014841843
-0.63617976
-0.01934087
-0.75632556
-0.025263686
-0.89806782
-0.032850533
-1.0657306
-0.042291228
-1.2649618
-0.053749477
-1.5028311
-0.067401255
-1.7879674
-0.083488354
-2.1306925
-0.10225962
-2.5433719
-0.12411624
-3.0406875
-0.14956333
-3.6402064
-0.1792252
-4.3631353
-0.21386381
-5.2353569
-0.25433667
-6.2881715
-0.30162725
-7.559479
-0.35676299
-9.0976697
-0.42088727
-10.960155
-0.49554231
-13.217842
-0.58197545
-15.95988
-0.68105755
-19.29775
-0.79490084
-23.37179
-0.92345141
-28.364068
-1.0661982
-34.499094
-1.2205974
-42.057335
-1.3814079
-51.416324
-1.5388442
-63.067782
-1.6780836
-77.663788
-96.076599
-6.0314647e-05
-0.0084726659
-2.5360835e-05
-0.012012659
3.7831239e-05
-0.016121726
4.7491511e-05
-0.021014933
-2.2641934e-05
-0.024936478
-0.00011743401
-0.030257725
-0.00021606231
-0.035962982
-0.00035126219
-0.043245133
-0.00049403207
-0.051709536
-0.00068510352
-0.061952276
-0.00089719934
-0.074233159
-0.0011671104
-0.088847849
-0.0014801034
-0.10648372
-0.0018663033
-0.1274503
-0.0023294842
-0.15267694
-0.0028982446
-0.1827358
-0.0035975117
-0.21874654
-0.0044711088
-0.26168072
-0.0055831969
-0.31290479
-0.007024267
-0.37382132
-0.0089308568
-0.44613522
-0.01149964
-0.53168736
-0.014981188
-0.63264528
-0.019658096
-0.75158651
-0.025802106
-0.89185107
-0.033637212
-1.0578093
-0.043337066