/*--------------------------------*- C++ -*----------------------------------*\
  =========                 |
  \\      /  F ield         | OpenFOAM: The Open Source CFD Toolbox
   \\    /   O peration     | Website:  https://openfoam.org
    \\  /    A nd           | Version:  8
     \\/     M anipulation  |
\*---------------------------------------------------------------------------*/
FoamFile
{
    version     2.0;
    format      ascii;
    class       pointVectorField;
    location    "0.0800043";
    object      pointDisplacement;
}
// * * * * * * * * * * * * * * * * * * * * * * * * * * * * * * * * * * * * * //

dimensions      [0 1 0 0 0 0 0];

internalField   nonuniform List<vector> 
40800
(
(0.00066895524 0 0.00056377445)
(0.00066932232 0 0.00046889375)
(0.00066922458 0 0.00046935399)
(0.00066883482 0 0.00056624227)
(0.00066921321 0 0.0004692432)
(0.00066882422 0 0.00056616032)
(0.00066919071 0 0.00046910796)
(0.00066880275 0 0.00056607427)
(0.00066915231 0 0.00046895731)
(0.00066876585 0 0.00056598153)
(0.00066909129 0 0.00046879266)
(0.00066870698 0 0.00056588457)
(0.00066899841 0 0.00046861782)
(0.00066861709 0 0.00056578851)
(0.00066886092 0 0.00046843979)
(0.00066848369 0 0.0005657022)
(0.00066866151 0 0.00046827095)
(0.00066828979 0 0.00056564014)
(0.00066837658 0 0.00046813144)
(0.00066801223 0 0.00056562518)
(0.00066797445 0 0.00046805326)
(0.00066761987 0 0.00056569214)
(0.00066741262 0 0.00046808584)
(0.00066707091 0 0.00056589349)
(0.00066663453 0 0.00046830369)
(0.00066630971 0 0.00056630636)
(0.00066556575 0 0.00046881736)
(0.00066526291 0 0.00056704349)
(0.00066410863 0 0.00046978842)
(0.00066383431 0 0.00056826771)
(0.0006621373 0 0.00047144962)
(0.00066189955 0 0.00057021206)
(0.00065949082 0 0.00047413406)
(0.00065929958 0 0.00057320602)
(0.00065596649 0 0.00047830919)
(0.00065583376 0 0.00057770914)
(0.00065131604 0 0.00048462316)
(0.00065125564 0 0.00058435376)
(0.0006452425 0 0.00049396333)
(0.00064526943 0 0.00059400169)
(0.00063740453 0 0.00050751545)
(0.00063753333 0 0.0006078051)
(0.00062742634 0 0.00052683045)
(0.00062766886 0 0.00062726686)
(0.00061491548 0 0.00055386192)
(0.00061527766 0 0.00065427707)
(0.00059950701 0 0.00059094949)
(0.00059998489 0 0.00069109978)
(0.00058089574 0 0.00064071864)
(0.00058146989 0 0.00074027831)
(0.00055892202 0 0.00070580602)
(0.00055955626 0 0.00080436605)
(0.00053358492 0 0.00078856961)
(0.00053422019 0 0.00088565383)
(0.00050513367 0 0.00089032388)
(0.00050570052 0 0.00098536215)
(0.00047398921 0 0.001011497)
(0.00047441285 0 0.0011038963)
(0.00044088452 0 0.0011500955)
(0.00044109724 0 0.0012392423)
(0.00040675439 0 0.001301972)
(0.00040672769 0 0.0013871897)
(0.00037239458 0 0.0014617189)
(0.0003721154 0 0.0015423745)
(0.00033874606 0 0.0016224529)
(0.00033825729 0 0.0016978885)
(0.00030653084 0 0.0017773348)
(0.00030589295 0 0.0018469546)
(0.00027605462 0 0.001921623)
(0.00027529962 0 0.0019852465)
(0.00024797001 0 0.0020490463)
(0.00024718729 0 0.0021063168)
(0.00022245377 0 0.0021565281)
(0.00022167364 0 0.0022076036)
(0.00019966774 0 0.0022439709)
(0.00019895291 0 0.0022891167)
(0.00017994913 0 0.0023090961)
(0.00017934799 0 0.0023487225)
(0.00016278478 0 0.0023531095)
(0.00016230043 0 0.0023877185)
(0.00014835456 0 0.0023743662)
(0.00014803055 0 0.002404407)
(0.0001360734 0 0.0023727685)
(0.00013590744 0 0.0023987578)
(0.00012426681 0 0.0023435572)
(0.00012412976 0 0.0023656599)
(0.00011294556 0 0.0022829761)
(0.00011284359 0 0.0023015203)
(0.00010295599 0 0.0021846488)
(0.0001029314 0 0.0021994895)
(9.3766695e-05 0 0.0020494541)
(9.38398e-05 0 0.0020615591)
(8.4883671e-05 0 0.0018769672)
(8.5082951e-05 0 0.0018873186)
(7.4200857e-05 0 0.0016432318)
(7.4464311e-05 0 0.0016521948)
(5.9724751e-05 0 0.0013181635)
(6.0053294e-05 0 0.0013265343)
(3.7729161e-05 0 0.00082864345)
(3.8105032e-05 0 0.00083693569)
(0 0 0)
(0 0 0)
(0.00066931708 0 0.0003760536)
(0.00066922109 0 0.00037646554)
(0.00066920897 0 0.0003762829)
(0.00066918538 0 0.0003760723)
(0.0006691455 0 0.00037583115)
(0.00066908245 0 0.00037555823)
(0.00066898682 0 0.00037525433)
(0.00066884557 0 0.00037492331)
(0.00066864107 0 0.000374574)
(0.00066834926 0 0.00037422294)
(0.00066793796 0 0.00037389778)
(0.00066736391 0 0.00037364301)
(0.00066656981 0 0.00037352735)
(0.0006654801 0 0.0003736545)
(0.00066399598 0 0.00037417935)
(0.00066199015 0 0.00037532702)
(0.00065929974 0 0.000377427)
(0.0006557206 0 0.0003809463)
(0.00065100266 0 0.0003865393)
(0.0006448484 0 0.00039510799)
(0.000636917 0 0.00040786269)
(0.00062683454 0 0.00042639586)
(0.00061421521 0 0.00045271955)
(0.00059870213 0 0.00048924797)
(0.0005800072 0 0.00053868919)
(0.00055798474 0 0.00060378242)
(0.0005326585 0 0.00068696581)
(0.00050428496 0 0.00078971121)
(0.00047329364 0 0.00091248737)
(0.0004404127 0 0.0010533648)
(0.00040653249 0 0.0012083243)
(0.00037243983 0 0.0013719273)
(0.00033902159 0 0.0015373525)
(0.00030697649 0 0.0016976994)
(0.00027664246 0 0.0018478576)
(0.00024862045 0 0.0019816117)
(0.00022311645 0 0.0020955915)
(0.00020029846 0 0.0021892622)
(0.00018047271 0 0.0022604306)
(0.00016320089 0 0.0023099741)
(0.00014861422 0 0.002336384)
(0.00013615619 0 0.0023394148)
(0.00012429839 0 0.0023146211)
(0.00011296461 0 0.0022582359)
(0.0001028909 0 0.0021641002)
(9.359783e-05 0 0.0020324271)
(8.4565296e-05 0 0.0018619879)
(7.3785278e-05 0 0.0016299657)
(5.9237041e-05 0 0.0013057318)
(3.7190676e-05 0 0.00081679129)
(0 0 0)
(0.00066894776 0 0.00028521161)
(0.00066885404 0 0.00028557155)
(0.00066884049 0 0.0002853125)
(0.00066881505 0 0.00028501342)
(0.00066877276 0 0.00028467264)
(0.00066870662 0 0.00028428739)
(0.00066860698 0 0.0002838555)
(0.00066846055 0 0.00028337688)
(0.00066824928 0 0.00028285612)
(0.00066794872 0 0.00028230451)
(0.000667526 0 0.00028174386)
(0.00066693714 0 0.00028121244)
(0.0006661239 0 0.00028077196)
(0.00066500946 0 0.00028051979)
(0.0006634938 0 0.00028060353)
(0.00066144778 0 0.00028124465)
(0.00065870669 0 0.00028276682)
(0.00065506453 0 0.0002856377)
(0.00065026963 0 0.00029051911)
(0.00064402409 0 0.00029832544)
(0.00063598765 0 0.00031029792)
(0.00062578906 0 0.00032807312)
(0.00061304944 0 0.00035372326)
(0.00059742157 0 0.00038973575)
(0.00057863523 0 0.00043889779)
(0.00055656115 0 0.00050404204)
(0.00053124831 0 0.00058768045)
(0.00050296192 0 0.00069142193)
(0.00047214112 0 0.00081576364)
(0.0004395079 0 0.00095882834)
(0.00040591103 0 0.0011167037)
(0.00037212166 0 0.0012839424)
(0.00033897498 0 0.0014537813)
(0.00030714455 0 0.0016192751)
(0.00027699066 0 0.0017750088)
(0.0002490714 0 0.0019147964)
(0.00022361349 0 0.0020350153)
(0.00020079303 0 0.002134719)
(0.00018088987 0 0.0022117665)
(0.00016353153 0 0.0022667334)
(0.00014880956 0 0.0022982086)
(0.00013619315 0 0.0023058143)
(0.00012428564 0 0.0022853854)
(0.00011294182 0 0.0022331503)
(0.00010279461 0 0.0021431423)
(9.3405898e-05 0 0.0020149769)
(8.4233853e-05 0 0.0018466644)
(7.3359429e-05 0 0.0016163895)
(5.8743508e-05 0 0.001293115)
(3.6662318e-05 0 0.00080509758)
(0 0 0)
(0.00066822613 0 0.00019632629)
(0.00066813439 0 0.00019666038)
(0.00066811899 0 0.00019635192)
(0.00066809116 0 0.00019599083)
(0.00066804575 0 0.00019556982)
(0.0006679756 0 0.00019508301)
(0.00066787078 0 0.00019452589)
(0.00066771773 0 0.00019389599)
(0.00066749797 0 0.00019319534)
(0.00066718656 0 0.00019243169)
(0.00066674996 0 0.0001916233)
(0.00066614337 0 0.00019080344)
(0.00066530747 0 0.00019002868)
(0.00066416417 0 0.00018939026)
(0.00066261193 0 0.00018902968)
(0.00066051969 0 0.00018916186)
(0.00065772081 0 0.00019010724)
(0.0006540072 0 0.00019233277)
(0.00064912582 0 0.00019650499)
(0.0006427783 0 0.0002035574)
(0.0006346252 0 0.00021476446)
(0.00062429867 0 0.00023180927)
(0.00061142709 0 0.00025682606)
(0.00059567466 0 0.00029237295)
(0.00057678957 0 0.0003413128)
(0.00055466183 0 0.00040656154)
(0.00052936543 0 0.00049069964)
(0.00050117598 0 0.00059545237)
(0.00047054338 0 0.00072133333)
(0.00043818141 0 0.00086650445)
(0.00040489997 0 0.0010271424)
(0.00037144838 0 0.0011978097)
(0.00033861251 0 0.0013717978)
(0.00030703876 0 0.0015421336)
(0.00027710174 0 0.0017031528)
(0.00024932315 0 0.0018486812)
(0.00022394467 0 0.0019748748)
(0.00020115038 0 0.0020804107)
(0.00018119897 0 0.0021631645)
(0.00016377485 0 0.0022234387)
(0.00014893849 0 0.0022598828)
(0.00013618223 0 0.0022720026)
(0.00012422826 0 0.0022558795)
(0.000112877 0 0.0022077439)
(0.00010266641 0 0.0021217981)
(9.3190101e-05 0 0.0019971195)
(8.3888386e-05 0 0.0018310058)
(7.2922924e-05 0 0.0016025123)
(5.8244046e-05 0 0.0012803178)
(3.6143394e-05 0 0.00079354776)
(0 0 0)
(0.00066716331 0 0.00010935682)
(0.00066707244 0 0.0001096536)
(0.00066705449 0 0.00010928451)
(0.00066702343 0 0.00010885169)
(0.000666974 0 0.00010834595)
(0.00066689882 0 0.0001077588)
(0.00066678767 0 0.0001070825)
(0.00066662665 0 0.00010631088)
(0.0006663968 0 0.00010544142)
(0.00066607259 0 0.00010447712)
(0.00066561974 0 0.00010343087)
(0.0006649925 0 0.0001023304)
(0.0006641304 0 0.00010122664)
(0.00066295391 0 0.00010020484)
(0.00066135981 0 9.9401111e-05)
(0.00065921512 0 9.9025191e-05)
(0.00065635095 0 9.9393456e-05)
(0.00065255725 0 0.00010097315)
(0.00064757957 0 0.00010443883)
(0.00064111917 0 0.0001107466)
(0.00063283785 0 0.00012120857)
(0.0006223716 0 0.00013755586)
(0.00060935676 0 0.00016198625)
(0.00059347028 0 0.00019712607)
(0.00057447973 0 0.0002459083)
(0.00055229688 0 0.00031132383)
(0.0005270207 0 0.00039601483)
(0.00049893887 0 0.00050180172)
(0.00046851228 0 0.00062920361)
(0.00043644503 0 0.00077640907)
(0.00040350971 0 0.0009396692)
(0.00037042902 0 0.0011135697)
(0.00033794101 0 0.0012914558)
(0.0003066636 0 0.0014663409)
(0.00027697862 0 0.0016323611)
(0.00024937675 0 0.0017833416)
(0.00022410994 0 0.0019152442)
(0.00020137 0 0.002026404)
(0.00018139845 0 0.0021146852)
(0.00016392941 0 0.0021801403)
(0.0001489991 0 0.0022214496)
(0.00013612147 0 0.0022380151)
(0.00012412568 0 0.0022261327)
(0.00011277001 0 0.002182041)
(0.00010250557 0 0.0021000895)
(9.2949691e-05 0 0.0019788709)
(8.3527914e-05 0 0.0018150179)
(7.2475304e-05 0 0.0015883408)
(5.7738532e-05 0 0.0012673433)
(3.5633204e-05 0 0.00078212889)
(0 0 0)
(0.0006657677 0 2.4263485e-05)
(0.00066567799 0 2.4521576e-05)
(0.00066565713 0 2.4089983e-05)
(0.0006656224 0 2.3583291e-05)
(0.00066556829 0 2.2990934e-05)
(0.0006654872 0 2.2302159e-05)
(0.00066536858 0 2.1506356e-05)
(0.00066519814 0 2.0593813e-05)
(0.00066495642 0 1.9557607e-05)
(0.00066461725 0 1.8395872e-05)
(0.00066414552 0 1.7115819e-05)
(0.00066349449 0 1.5739162e-05)
(0.00066260238 0 1.431042e-05)
(0.00066138813 0 1.290841e-05)
(0.00065974667 0 1.1663097e-05)
(0.00065754288 0 1.0779064e-05)
(0.00065460565 0 1.0569225e-05)
(0.00065072287 0 1.1502254e-05)
(0.0006456387 0 1.426187e-05)
(0.00063905444 0 1.9834543e-05)
(0.00063063343 0 2.9576609e-05)
(0.00062001577 0 4.5265083e-05)
(0.00060684666 0 6.9163688e-05)
(0.00059081705 0 0.00010396344)
(0.00057171492 0 0.00015266028)
(0.00054947642 0 0.00021831244)
(0.00052422515 0 0.00030361775)
(0.0004962623 0 0.0004104703)
(0.0004660599 0 0.00053938209)
(0.0004343108 0 0.00068855796)
(0.00040175114 0 0.00085431118)
(0.00036907299 0 0.0010312609)
(0.00033696792 0 0.0012128055)
(0.00030602405 0 0.0013919591)
(0.00027662479 0 0.0015627012)
(0.00024923368 0 0.0017188498)
(0.00022410975 0 0.0018561947)
(0.00020145145 0 0.0019727652)
(0.00018148706 0 0.0020663887)
(0.00016399373 0 0.0021368895)
(0.00014898963 0 0.0021829527)
(0.00013600894 0 0.0022038877)
(0.00012397719 0 0.002196175)
(0.00011262052 0 0.002156066)
(0.00010231136 0 0.0020780388)
(9.2683889e-05 0 0.0019602472)
(8.3151529e-05 0 0.0017987091)
(7.2016145e-05 0 0.001573883)
(5.722685e-05 0 0.0012541965)
(3.5131115e-05 0 0.00077082973)
(0 0 0)
(0.000664049 0 -5.8992415e-05)
(0.00066396016 0 -5.8769379e-05)
(0.00066393573 0 -5.925858e-05)
(0.00066389657 0 -5.9833047e-05)
(0.00066383698 0 -6.0506428e-05)
(0.00066374906 0 -6.1292662e-05)
(0.0006636219 0 -6.220597e-05)
(0.00066344074 0 -6.3259688e-05)
(0.00066318554 0 -6.4464776e-05)
(0.00066282941 0 -6.5827425e-05)
(0.00066233632 0 -6.7345235e-05)
(0.00066165838 0 -6.9001836e-05)
(0.00066073245 0 -7.0758501e-05)
(0.00065947573 0 -7.2542916e-05)
(0.00065778116 0 -7.4231675e-05)
(0.00065551136 0 -7.5626677e-05)
(0.00065249282 0 -7.6419504e-05)
(0.00064851149 0 -7.6135975e-05)
(0.0006433103 0 -7.4086144e-05)
(0.00063659134 0 -6.9238823e-05)
(0.00062801961 0 -6.0182168e-05)
(0.0006172391 0 -4.5107451e-05)
(0.00060390522 0 -2.1678056e-05)
(0.0005877239 0 1.2857546e-05)
(0.0005685049 0 6.1547179e-05)
(0.00054621106 0 0.00012751323)
(0.00052099054 0 0.00021350007)
(0.00049315904 0 0.0003214556)
(0.00046319949 0 0.00045187213)
(0.00043179196 0 0.00060296148)
(0.00039963633 0 0.00077108931)
(0.00036739092 0 0.00095091456)
(0.00033570172 0 0.0011358903)
(0.00030512618 0 0.0013190429)
(0.00027604455 0 0.0014942344)
(0.00024889638 0 0.0016552718)
(0.00022394511 0 0.0017977941)
(0.00020139499 0 0.0019195571)
(0.00018146394 0 0.0020183329)
(0.00016396684 0 0.0020937361)
(0.00014890864 0 0.0021444353)
(0.00013584294 0 0.0021696563)
(0.00012378206 0 0.0021660364)
(0.00011242829 0 0.0021298442)
(0.00010208313 0 0.0020556684)
(9.2392004e-05 0 0.0019412658)
(8.2758336e-05 0 0.0017820862)
(7.1545007e-05 0 0.0015591462)
(5.6708878e-05 0 0.001240881)
(3.4636487e-05 0 0.00075963975)
(0 0 0)
(0.00066201734 0 -0.00014044924)
(0.00066192925 0 -0.00014026276)
(0.00066190085 0 -0.00014081187)
(0.00066185673 0 -0.00014145692)
(0.0006617909 0 -0.00014221423)
(0.00066169515 0 -0.00014310052)
(0.00066155817 0 -0.00014413322)
(0.00066136471 0 -0.00014532908)
(0.00066109411 0 -0.00014670296)
(0.0006607187 0 -0.0001482654)
(0.00066020146 0 -0.00015001894)
(0.00065949327 0 -0.00015195288)
(0.00065852944 0 -0.00015403479)
(0.0006572253 0 -0.00015619942)
(0.00065547155 0 -0.00015833119)
(0.00065312825 0 -0.00016024067)
(0.00065001953 0 -0.00016162795)
(0.00064592987 0 -0.00016199432)
(0.00064060258 0 -0.00016060629)
(0.00063374058 0 -0.00015641571)
(0.0006250081 0 -0.00014799133)
(0.00061405343 0 -0.00013348658)
(0.00060054259 0 -0.00011051673)
(0.00058419947 0 -7.6216026e-05)
(0.00056485906 0 -2.7449872e-05)
(0.00054251135 0 3.8914291e-05)
(0.0005173285 0 0.00012565537)
(0.00048964172 0 0.0002347565)
(0.00045994433 0 0.00036667816)
(0.00042890174 0 0.00051963071)
(0.00039717748 0 0.00069002351)
(0.00036539357 0 0.00087256041)
(0.00033415117 0 0.0010607502)
(0.00030397639 0 0.0012476435)
(0.00027524254 0 0.0014270183)
(0.00024836754 0 0.0015926705)
(0.00022361736 0 0.0017401071)
(0.00020120094 0 0.0018668411)
(0.00018132846 0 0.0019705749)
(0.00016384773 0 0.0020507298)
(0.00014875477 0 0.0021059404)
(0.00013562181 0 0.0021353564)
(0.00012353948 0 0.0021357472)
(0.00011219294 0 0.0021034004)
(0.00010182021 0 0.0020330002)
(9.2073325e-05 0 0.0019219436)
(8.2347518e-05 0 0.0017651582)
(7.106146e-05 0 0.0015441381)
(5.618449e-05 0 0.0012274019)
(3.4148748e-05 0 0.00074854997)
(0 0 0)
(0.00065968275 0 -0.00022014424)
(0.00065959441 0 -0.00021999566)
(0.00065956118 0 -0.00022060755)
(0.0006595111 0 -0.00022132754)
(0.00065943795 0 -0.00022217336)
(0.00065933319 0 -0.00022316369)
(0.0006591851 0 -0.00022431833)
(0.00065897785 0 -0.00022565718)
(0.00065869011 0 -0.00022719902)
(0.0006582933 0 -0.00022895894)
(0.0006577493 0 -0.00023094493)
(0.0006570076 0 -0.0002331524)
(0.00065600179 0 -0.00023555584)
(0.0006546451 0 -0.00023809768)
(0.0006528257 0 -0.00024067109)
(0.00065040074 0 -0.00024309854)
(0.0006471937 0 -0.00024506575)
(0.00064298989 0 -0.00024603648)
(0.00063753133 0 -0.00024522338)
(0.00063051721 0 -0.0002415954)
(0.00062161151 0 -0.00023374478)
(0.0006104692 0 -0.00021976677)
(0.000596768 0 -0.00019725852)
(0.00058025304 0 -0.00016322664)
(0.00056078737 0 -0.00011434844)
(0.00053838849 0 -4.7495782e-05)
(0.00051325157 0 4.0076065e-05)
(0.00048572411 0 0.000150369)
(0.00045630879 0 0.0002837999)
(0.00042565452 0 0.00043857067)
(0.00039438792 0 0.00061112643)
(0.00036309281 0 0.00079622007)
(0.00033232604 0 0.00098741761)
(0.00030258205 0 0.0011778037)
(0.00027422427 0 0.001361103)
(0.00024765074 0 0.0015311016)
(0.00022312853 0 0.0016831925)
(0.00020087034 0 0.0018146738)
(0.00018108049 0 0.0019231684)
(0.00016363595 0 0.002007918)
(0.00014852705 0 0.0020675098)
(0.00013534421 0 0.0021010232)
(0.00012324872 0 0.0021053371)
(0.00011191421 0 0.0020767596)
(0.00010152201 0 0.0020100566)
(9.172722e-05 0 0.0019022981)
(8.1918275e-05 0 0.0017479332)
(7.0565086e-05 0 0.0015288663)
(5.5653563e-05 0 0.0012137639)
(3.3667335e-05 0 0.00073755213)
(0 0 0)
(0.00065705326 0 -0.00029811376)
(0.00065696453 0 -0.00029800364)
(0.00065692605 0 -0.00029867896)
(0.00065686946 0 -0.00029947436)
(0.00065678825 0 -0.00030040876)
(0.00065667349 0 -0.00030150278)
(0.00065651301 0 -0.00030277867)
(0.0006562904 0 -0.00030425958)
(0.00065598355 0 -0.00030596822)
(0.00065556294 0 -0.00030792444)
(0.00065498924 0 -0.00031014175)
(0.00065421044 0 -0.0003126218)
(0.00065315823 0 -0.00031534599)
(0.00065174357 0 -0.00031826388)
(0.00064985181 0 -0.00032127534)
(0.00064733847 0 -0.00032420671)
(0.0006440285 0 -0.00032670076)
(0.00063970605 0 -0.00032820136)
(0.00063410731 0 -0.00032793633)
(0.00062692763 0 -0.00032486255)
(0.00061783422 0 -0.00031755195)
(0.00060649029 0 -0.00030405321)
(0.00059258796 0 -0.00028190979)
(0.00057589463 0 -0.00024809141)
(0.00055630057 0 -0.00019911273)
(0.00053385368 0 -0.00013172594)
(0.0005087724 0 -4.3242372e-05)
(0.00048142003 0 6.8292172e-05)
(0.00045230738 0 0.00020323812)
(0.00042206485 0 0.00035978604)
(0.00039128127 0 0.0005344092)
(0.00036050074 0 0.00072191278)
(0.00033023642 0 0.00091592113)
(0.00030095092 0 0.001109562)
(0.00027299557 0 0.0012965345)
(0.00024674988 0 0.001470617)
(0.00022248098 0 0.0016271062)
(0.00020040437 0 0.0017631099)
(0.00018072015 0 0.0018761653)
(0.00016333108 0 0.0019653473)
(0.0001482246 0 0.0020291844)
(0.00013500885 0 0.0020666911)
(0.00012290904 0 0.0020748357)
(0.00011159174 0 0.0020499466)
(0.00010118799 0 0.0019868594)
(9.1353067e-05 0 0.001882347)
(8.1469881e-05 0 0.0017304213)
(7.0055495e-05 0 0.0015133392)
(5.5115964e-05 0 0.0011999723)
(3.3191714e-05 0 0.00072663885)
(0 0 0)
(0.00065413673 0 -0.00037439338)
(0.00065404803 0 -0.00037431779)
(0.00065400367 0 -0.00037505102)
(0.00065393989 0 -0.00037591462)
(0.00065384984 0 -0.00037693046)
(0.00065372418 0 -0.00037812212)
(0.00065355017 0 -0.00037951527)
(0.00065331074 0 -0.00038113662)
(0.00065298294 0 -0.00038301298)
(0.00065253617 0 -0.00038516873)
(0.0006519298 0 -0.0003876223)
(0.00065111016 0 -0.00039038101)
(0.000650007 0 -0.00039343222)
(0.00064852877 0 -0.00039673253)
(0.00064655828 0 -0.00040018698)
(0.00064395178 0 -0.00040359107)
(0.00064053451 0 -0.00040656416)
(0.00063608438 0 -0.00040856884)
(0.00063033218 0 -0.00040885119)
(0.00062297344 0 -0.00040633561)
(0.00061367926 0 -0.00039954119)
(0.00060212158 0 -0.00038647511)
(0.00058800923 0 -0.00036459278)
(0.00057113376 0 -0.00033082844)
(0.00055140875 0 -0.00028170795)
(0.00052891729 0 -0.000213786)
(0.00050390453 0 -0.00012430702)
(0.00047674431 0 -1.1479488e-05)
(0.0004479556 0 0.00012498902)
(0.00041814821 0 0.00028327623)
(0.00038787202 0 0.00045987688)
(0.00035763037 0 0.00064965103)
(0.00032789324 0 0.00084628251)
(0.00029909159 0 0.00104295)
(0.00027156302 0 0.0012333521)
(0.0002456696 0 0.0014112625)
(0.00022167769 0 0.0015718982)
(0.00019980484 0 0.0017121995)
(0.00018024809 0 0.0018296142)
(0.0001629332 0 0.0019230618)
(0.00014784692 0 0.0019910036)
(0.00013461477 0 0.0020323942)
(0.00012251982 0 0.0020442725)
(0.00011122529 0 0.0020229864)
(0.00010081764 0 0.0019634307)
(9.0950304e-05 0 0.0018621081)
(8.1001626e-05 0 0.001712632)
(6.9532279e-05 0 0.0014975647)
(5.4571562e-05 0 0.0011860326)
(3.2721384e-05 0 0.00071580394)
(0 0 0)
(0.00065094406 0 -0.0004490182)
(0.00065085386 0 -0.0004489777)
(0.00065080318 0 -0.00044976948)
(0.00065073162 0 -0.00045070159)
(0.00065063194 0 -0.0004517986)
(0.00065049432 0 -0.00045308713)
(0.00065030543 0 -0.00045459656)
(0.00065004747 0 -0.00045635743)
(0.00064969654 0 -0.00045840094)
(0.00064922097 0 -0.00046075602)
(0.00064857866 0 -0.00046344652)
(0.00064771424 0 -0.0004664851)
(0.0006465552 0 -0.00046986592)
(0.0006450074 0 -0.00047355349)
(0.00064295303 0 -0.00047744661)
(0.00064024984 0 -0.00048129319)
(0.00063671809 0 -0.00048472438)
(0.00063212883 0 -0.00048723252)
(0.00062621113 0 -0.00048804288)
(0.00061866054 0 -0.00048605618)
(0.0006091524 0 -0.00047974686)
(0.00059736894 0 -0.00046706854)
(0.0005830378 0 -0.00044538647)
(0.00056597612 0 -0.0004115482)
(0.00054612151 0 -0.00036214735)
(0.00052359269 0 -0.00029364033)
(0.00049866145 0 -0.00020312226)
(0.00047171183 0 -8.8949325e-05)
(0.000443269 0 4.9049529e-05)
(0.00041392004 0 0.00020904109)
(0.00038417468 0 0.00038753384)
(0.00035449464 0 0.00057944563)
(0.00032530916 0 0.00077856133)
(0.00029701621 0 0.00097808298)
(0.00026993628 0 0.0011716772)
(0.00024441696 0 0.001353158)
(0.0002207229 0 0.0015176549)
(0.00019907363 0 0.0016619905)
(0.000179665 0 0.0017835616)
(0.00016244239 0 0.0018811043)
(0.00014739353 0 0.001953006)
(0.00013416103 0 0.0019981654)
(0.00012208043 0 0.002013676)
(0.00011081451 0 0.0019959031)
(0.00010041051 0 0.0019397919)
(9.0518391e-05 0 0.0018415989)
(8.0512878e-05 0 0.0016945763)
(6.8995075e-05 0 0.0014815519)
(5.4020223e-05 0 0.0011719507)
(3.2255852e-05 0 0.00070504144)
(0 0 0)
(0.00064748055 0 -0.00052202214)
(0.00064739011 0 -0.00052200799)
(0.00064733268 0 -0.00052285097)
(0.00064725271 0 -0.00052384651)
(0.00064714249 0 -0.00052502373)
(0.00064699165 0 -0.00052641219)
(0.0006467863 0 -0.00052804346)
(0.00064650784 0 -0.00052995103)
(0.00064613148 0 -0.00053216889)
(0.00064562433 0 -0.00053472945)
(0.0006449428 0 -0.00053766036)
(0.00064402967 0 -0.00054097925)
(0.00064280993 0 -0.00054468597)
(0.00064118762 0 -0.00054875212)
(0.00063904625 0 -0.0005530497)
(0.00063624151 0 -0.00055732063)
(0.0006325858 0 -0.00056121465)
(0.00062784608 0 -0.00056421601)
(0.0006217504 0 -0.00056553939)
(0.00061399467 0 -0.0005640578)
(0.00060425922 0 -0.00055820202)
(0.00059223823 0 -0.00054586858)
(0.00057768066 0 -0.00052432222)
(0.0005604298 0 -0.00049031288)
(0.00054045217 0 -0.00044044249)
(0.00051789472 0 -0.00037125292)
(0.00049305652 0 -0.00027969454)
(0.00046633841 0 -0.00016412515)
(0.00043826395 0 -2.4588921e-05)
(0.00040939666 0 0.00013707398)
(0.00038020707 0 0.00031742079)
(0.00035111324 0 0.00051139831)
(0.00032250222 0 0.00071287762)
(0.0002947394 0 0.00091509223)
(0.00026812643 0 0.0011116429)
(0.00024299996 0 0.0012964321)
(0.00021962199 0 0.0014644975)
(0.0001982139 0 0.0016125642)
(0.00017897218 0 0.0017380501)
(0.0001618592 0 0.0018395144)
(0.00014686436 0 0.0019152276)
(0.00013364702 0 0.0019640365)
(0.00012159041 0 0.001983074)
(0.00011035922 0 0.001968721)
(9.9966193e-05 0 0.0019159644)
(9.0056842e-05 0 0.0018208374)
(8.0003019e-05 0 0.0016762647)
(6.8443508e-05 0 0.0014653092)
(5.3461823e-05 0 0.0011577326)
(3.1794654e-05 0 0.00069434627)
(0 0 0)
(0.00064375665 0 -0.00059343885)
(0.00064366422 0 -0.00059347218)
(0.0006435985 0 -0.00059438852)
(0.00064350843 0 -0.00059546907)
(0.00064338604 0 -0.00059674194)
(0.00064322045 0 -0.00059823827)
(0.00064299712 0 -0.00059999227)
(0.00064269657 0 -0.00060204109)
(0.000642293 0 -0.00060442294)
(0.00064175211 0 -0.00060717555)
(0.0006410287 0 -0.00061033232)
(0.00064006339 0 -0.00061391711)
(0.00063877869 0 -0.00061793655)
(0.00063707835 0 -0.00062235346)
(0.00063484624 0 -0.00062702502)
(0.00063193246 0 -0.0006317096)
(0.00062814283 0 -0.000636063)
(0.00062324174 0 -0.00063955019)
(0.00061695541 0 -0.00064137226)
(0.00060898078 0 -0.00064037455)
(0.0005990046 0 -0.00063493918)
(0.00058673795 0 -0.00062286004)
(0.00057195121 0 -0.00060133395)
(0.00055450826 0 -0.00056709392)
(0.00053441043 0 -0.00051664658)
(0.00051183558 0 -0.00044663201)
(0.00048710622 0 -0.00035398642)
(0.00046063997 0 -0.00023701293)
(0.0004329569 0 -9.59337e-05)
(0.0004045986 0 6.7419005e-05)
(0.00037599387 0 0.0002496534)
(0.00034750906 0 0.00044565043)
(0.00031948819 0 0.00064930541)
(0.00029226959 0 0.00085395993)
(0.00026613936 0 0.0010532258)
(0.00024142267 0 0.0012410668)
(0.00021837882 0 0.0014124712)
(0.00019722955 0 0.0015640306)
(0.00017817159 0 0.0016931537)
(0.00016118425 0 0.0017983306)
(0.00014625937 0 0.0018777034)
(0.00013307221 0 0.0019300383)
(0.00012104931 0 0.0019524938)
(0.00010985917 0 0.0019414634)
(9.9484333e-05 0 0.0018919692)
(8.9565207e-05 0 0.001799841)
(7.9471509e-05 0 0.0016577093)
(6.7877255e-05 0 0.0014488463)
(5.2896227e-05 0 0.0011433848)
(3.1337362e-05 0 0.00068371441)
(0 0 0)
(0.00063978047 0 -0.00066330088)
(0.00063968539 0 -0.00066337078)
(0.0006396111 0 -0.00066434939)
(0.0006395105 0 -0.00066550448)
(0.00063937517 0 -0.00066686611)
(0.00063919366 0 -0.00066846765)
(0.00063895073 0 -0.00067034584)
(0.00063862606 0 -0.00067254045)
(0.00063819271 0 -0.00067509302)
(0.000637615 0 -0.00067804493)
(0.00063684597 0 -0.0006814341)
(0.00063582403 0 -0.00068528941)
(0.00063446972 0 -0.00068962492)
(0.00063268746 0 -0.00069438315)
(0.00063035905 0 -0.00069941888)
(0.00062732789 0 -0.00070451156)
(0.00062339489 0 -0.00070931006)
(0.00061832116 0 -0.00071326866)
(0.00061183099 0 -0.00071557422)
(0.00060362352 0 -0.00071503932)
(0.0005933982 0 -0.00070994694)
(0.00058088437 0 -0.00069797417)
(0.0005658653 0 -0.00067633182)
(0.00054822563 0 -0.00064180154)
(0.00052800812 0 -0.00059076554)
(0.00050543087 0 -0.00051978852)
(0.00048082887 0 -0.00042596195)
(0.0004546322 0 -0.00030762055)
(0.00042737076 0 -0.00016493758)
(0.00039955578 0 2.0475892e-07)
(0.00037155912 0 0.00018430767)
(0.00034369591 0 0.00038217953)
(0.00031627611 0 0.00058779608)
(0.00028961347 0 0.00079462901)
(0.00026398039 0 0.00099637013)
(0.00023968918 0 0.0011870172)
(0.00021699649 0 0.0013615443)
(0.00019612359 0 0.0015164213)
(0.00017726562 0 0.001648945)
(0.00016041839 0 0.0017575889)
(0.00014557889 0 0.0018404664)
(0.00013243631 0 0.0018962006)
(0.00012045686 0 0.001921962)
(0.00010931422 0 0.0019141538)
(9.8964635e-05 0 0.0018678272)
(8.9043077e-05 0 0.0017786277)
(7.8917814e-05 0 0.0016389216)
(6.7295967e-05 0 0.0014321725)
(5.2323298e-05 0 0.0011289141)
(3.0883524e-05 0 0.00067314177)
(0 0 0)
(0.00063555707 0 -0.00073164024)
(0.00063546007 0 -0.00073174594)
(0.00063537656 0 -0.00073278579)
(0.00063526465 0 -0.00073401374)
(0.00063511542 0 -0.00073546193)
(0.00063491683 0 -0.00073716619)
(0.00063465289 0 -0.00073916598)
(0.00063430229 0 -0.00074150419)
(0.00063383693 0 -0.00074422581)
(0.00063321963 0 -0.00074737593)
(0.00063240155 0 -0.00075099646)
(0.00063131877 0 -0.00075512002)
(0.00062989073 0 -0.0007597641)
(0.0006280223 0 -0.00076486021)
(0.00062559113 0 -0.00077026076)
(0.00062243404 0 -0.00077575465)
(0.00061834764 0 -0.0007809868)
(0.00061308931 0 -0.00078540273)
(0.00060638143 0 -0.00078817813)
(0.00059793169 0 -0.00078804726)
(0.00058745529 0 -0.0007831689)
(0.00057468788 0 -0.00077121339)
(0.00055942663 0 -0.00074939227)
(0.00054159115 0 -0.00071443284)
(0.0005212627 0 -0.00066271498)
(0.00049869535 0 -0.0005907235)
(0.00047423613 0 -0.00049567064)
(0.00044833797 0 -0.00037589228)
(0.00042153988 0 -0.00023145131)
(0.00039429546 0 -6.4482075e-05)
(0.00036691693 0 0.00012134936)
(0.00033968318 0 0.00032090752)
(0.00031287489 0 0.00052829219)
(0.00028678012 0 0.00073709048)
(0.00026165693 0 0.00094107851)
(0.00023780524 0 0.0011342959)
(0.00021547864 0 0.0013117107)
(0.00019489772 0 0.0014697077)
(0.00017625528 0 0.0016054293)
(0.00015956243 0 0.0017173227)
(0.00014482326 0 0.0018035478)
(0.00013173914 0 0.0018625517)
(0.0001198128 0 0.0018915041)
(0.00010872421 0 0.0018868145)
(9.8406824e-05 0 0.0018435588)
(8.8490092e-05 0 0.0017572149)
(7.8341482e-05 0 0.0016199145)
(6.6699344e-05 0 0.0014152977)
(5.1742902e-05 0 0.0011143272)
(3.0432756e-05 0 0.00066262563)
(0 0 0)
(0.00063109562 0 -0.00079848811)
(0.00063099537 0 -0.00079862942)
(0.00063090192 0 -0.00079973042)
(0.00063077783 0 -0.00080103095)
(0.00063061367 0 -0.00080256524)
(0.00063039675 0 -0.00080437155)
(0.00063011024 0 -0.00080649209)
(0.00062973183 0 -0.00080897296)
(0.00062923212 0 -0.0008118628)
(0.00062857232 0 -0.00081521081)
(0.00062770156 0 -0.00081906368)
(0.00062655347 0 -0.00082345972)
(0.00062504764 0 -0.00082840261)
(0.00062308856 0 -0.00083382159)
(0.00062054798 0 -0.0008395819)
(0.00061725641 0 -0.00084546916)
(0.00061300621 0 -0.00085112321)
(0.00060755093 0 -0.00085597805)
(0.00060061502 0 -0.0008591798)
(0.00059191939 0 -0.0008593525)
(0.00058118393 0 -0.00085461316)
(0.00056814763 0 -0.00084266245)
(0.00055263696 0 -0.00082061219)
(0.00053461108 0 -0.00078508843)
(0.00051418718 0 -0.0007325031)
(0.00049164237 0 -0.00065943279)
(0.00046734886 0 -0.00056309012)
(0.00044179564 0 -0.00044166791)
(0.00041549529 0 -0.00029538062)
(0.00038883239 0 -0.00012669057)
(0.00036207878 0 6.0711769e-05)
(0.0003354831 0 0.00026179542)
(0.00030929544 0 0.00047076634)
(0.00028377881 0 0.00068132891)
(0.00025917663 0 0.00088734734)
(0.00023577687 0 0.0010829095)
(0.00021382981 0 0.0012629862)
(0.00019355466 0 0.0014238882)
(0.00017514263 0 0.0015626259)
(0.00015861849 0 0.0016775885)
(0.00014399312 0 0.0017669766)
(0.00013098072 0 0.0018291186)
(0.00011911701 0 0.0018611448)
(0.00010808909 0 0.0018594679)
(9.7810695e-05 0 0.0018191841)
(8.7905923e-05 0 0.0017356203)
(7.7742068e-05 0 0.0016007003)
(6.60871e-05 0 0.0013982322)
(5.115491e-05 0 0.0010996314)
(2.9984636e-05 0 0.00065216267)
(0 0 0)
(0.00062640127 0 -0.00086387495)
(0.00062629821 0 -0.00086405175)
(0.00062619409 0 -0.00086521385)
(0.00062605694 0 -0.00086658682)
(0.00062587677 0 -0.00086820698)
(0.00062564018 0 -0.00087011499)
(0.00062532949 0 -0.00087235584)
(0.00062492127 0 -0.00087497885)
(0.0006243847 0 -0.00087803635)
(0.00062367925 0 -0.00088158183)
(0.00062275175 0 -0.00088566699)
(0.00062153423 0 -0.00089033747)
(0.00061994753 0 -0.00089557449)
(0.00061789319 0 -0.00090130438)
(0.00061523561 0 -0.00090741425)
(0.00061180043 0 -0.00091368495)
(0.00060737556 0 -0.00091974939)