/*--------------------------------*- C++ -*----------------------------------*\
  =========                 |
  \\      /  F ield         | OpenFOAM: The Open Source CFD Toolbox
   \\    /   O peration     | Website:  https://openfoam.org
    \\  /    A nd           | Version:  8
     \\/     M anipulation  |
\*---------------------------------------------------------------------------*/
FoamFile
{
    version     2.0;
    format      ascii;
    class       volScalarField;
    location    "0.0800043";
    object      rho;
}
// * * * * * * * * * * * * * * * * * * * * * * * * * * * * * * * * * * * * * //

dimensions      [1 -3 0 0 0 0 0];

internalField   nonuniform List<scalar> 
20000
(
0.94044847
0.94149623
0.94552156
0.95416415
0.97120177
0.99701091
1.0015425
1.0036535
1.0021967
1.0038049
1.0033393
1.0048977
1.0051988
1.0070064
1.0080861
1.0104097
1.0124218
1.0155627
1.0188053
1.0231571
1.0279919
1.0339254
1.0406178
1.0484581
1.0575876
1.0681114
1.0793952
1.0912744
1.1032306
1.1148738
1.1256595
1.1352724
1.1435126
1.1503523
1.1558456
1.1601441
1.1634465
1.1659165
1.1676415
1.1690003
1.1702239
1.1710496
1.1715074
1.1717065
1.1717719
1.1714001
1.1698434
1.1683324
1.1676862
1.1676767
0.93667431
0.93813127
0.94253859
0.95179133
0.9702856
0.99532831
0.99827882
1.0004633
0.9990252
1.0006768
1.0002355
1.0018479
1.0021836
1.0040581
1.0051947
1.007606
1.009713
1.0129787
1.0163644
1.0208692
1.0258624
1.0319554
1.0388771
1.047107
1.0567646
1.0677738
1.0793911
1.0915164
1.1037162
1.1154703
1.1262878
1.1358592
1.1440193
1.1507626
1.1561646
1.1603898
1.163636
1.1660561
1.1677481
1.1691216
1.1703396
1.1711129
1.1715439
1.1717563
1.171818
1.1713675
1.1696825
1.1683469
1.1676962
1.1676819
0.93324141
0.93509749
0.93990987
0.94977294
0.96984953
0.99380101
0.99531068
0.99750845
0.99606917
0.99776564
0.99733518
0.99899954
0.9993673
1.0013065
1.0025023
1.0050016
1.0072083
1.0105945
1.0141112
1.018745
1.0238801
1.0301663
1.0374374
1.0463043
1.056532
1.0677688
1.079608
1.092026
1.1044168
1.116265
1.1270811
1.1365785
1.1446274
1.1512477
1.1565367
1.160673
1.1638526
1.1662156
1.167874
1.1692753
1.1704868
1.1712274
1.1716216
1.1718198
1.1718993
1.171295
1.1694776
1.1682744
1.1677376
1.1676872
0.92994568
0.93224241
0.93748749
0.94793467
0.96961795
0.99212152
0.9924594
0.99470852
0.99327671
0.99502111
0.99461049
0.99633152
0.99673652
0.99874596
1.0000076
1.002603
1.004915
1.0084206
1.0120582
1.0168177
1.0221353
1.0287407
1.0366075
1.0460082
1.0564671
1.0679053
1.0801647
1.0928646
1.1054361
1.1173361
1.1281062
1.137487
1.145386
1.1518506
1.1569994
1.1610246
1.1641171
1.1664061
1.1680246
1.1694457
1.1706213
1.1713273
1.1716915
1.171874
1.1719497
1.1711618
1.169353
1.1682605
1.167745
1.1676952
0.92696866
0.92968763
0.93540337
0.94641893
0.96966041
0.99042689
0.98984367
0.99213467
0.99071011
0.99250246
0.9921105
0.99388851
0.99433271
0.99641523
0.99774695
1.000438
1.0028489
1.0064603
1.0102214
1.0151457
1.0207607
1.0279104
1.0362895
1.0459456
1.0566062
1.0684564
1.0810572
1.0940209
1.1067304
1.1186429
1.1293235
1.1385479
1.146262
1.1525422
1.157528
1.1614244
1.1644152
1.1666202
1.1681968
1.1696262
1.1707601
1.1714382
1.1717774
1.1719282
1.1719729
1.1709864
1.1692468
1.1682318
1.1677539
1.1677039
0.92404676
0.92734006
0.9335868
0.94520144
0.96987975
0.98873227
0.98744239
0.98978477
0.98837047
0.99021386
0.98984471
0.99168331
0.99217152
0.99433144
0.99573625
0.99851802
1.0010183
1.0047366
1.0086652
1.0138655
1.0199995
1.0275932
1.0362197
1.0460448
1.0571343
1.0693548
1.0823108
1.0955081
1.1083177
1.1201959
1.1307405
1.1397666
1.1472602
1.1533271
1.1581269
1.1618763
1.1647497
1.1668604
1.1683914
1.1698113
1.1708937
1.1715429
1.1718674
1.1719929
1.1719827
1.1707981
1.1691581
1.1682099
1.1677568
1.1677134
0.9216455
0.92538643
0.93216641
0.94440614
0.97027976
0.98712016
0.98530038
0.98768687
0.98628174
0.98817759
0.98783462
0.98973906
0.99027604
0.99251446
0.99399066
0.99685944
0.99945667
1.003325
1.0075256
1.0132082
1.0197098
1.027521
1.0363006
1.0465535
1.0580332
1.0706511
1.0839255
1.0973207
1.1101829
1.1219779
1.1323395
1.1411267
1.1483662
1.1541931
1.1587865
1.1623726
1.1651153
1.1671248
1.1686074
1.1699984
1.1710255
1.1716453
1.1719573
1.1720776
1.171984
1.1706094
1.1690702
1.1681839
1.1677599
1.167723
0.9193035
0.92362256
0.9310233
0.94398217
0.97074415
0.98559552
0.98339117
0.98583162
0.98444207
0.98640049
0.98609243
0.98806914
0.98865849
0.99097233
0.99251955
0.99549636
0.99824967
1.0024092
1.0070241
1.0129602
1.0196489
1.0276002
1.0367917
1.0474274
1.0593366
1.0723334
1.0859047
1.0994559
1.1123206
1.1239806
1.1341115
1.1426195
1.1495727
1.1551346
1.1595025
1.16291
1.1655096
1.1674134
1.168844
1.1701864
1.1711546
1.1717453
1.1720486
1.1721677
1.1719816
1.1704264
1.1689857
1.1681584
1.167762
1.1677324
0.91737965
0.9222021
0.93024862
0.94404739
0.97129335
0.98425927
0.98176933
0.98426909
0.98289289
0.98491549
0.98463359
0.98667769
0.98732674
0.98972669
0.99136747
0.99451933
0.99758579
1.0020384
1.0068425
1.0129153
1.0197595
1.0280824
1.0376457
1.0487145
1.0610435
1.0744104
1.0882427
1.1019026
1.1147152
1.1261867
1.1360398
1.1442304
1.1508674
1.1561417
1.1602672
1.1634825
1.1659284
1.1677241
1.169101
1.1703782
1.1712824
1.1718426
1.1721387
1.1722578
1.1719509
1.1702531
1.168904
1.1681328
1.1677639
1.1677412
0.91568996
0.92108201
0.92981804
0.94463082
0.97191681
0.98317114
0.98044271
0.98303381
0.98165114
0.98374436
0.98346003
0.98556597
0.98630895
0.98884326
0.99069201
0.99408728
0.9973303
1.0019255
1.0068274
1.0130679
1.0202532
1.0289202
1.0389095
1.0504082
1.0631608
1.0768765
1.0909324
1.1046489
1.1173519
1.1285807
1.1381097
1.1459461
1.1522393
1.1572059
1.1610741
1.1640851
1.1663683
1.1680542
1.1693759
1.1705779
1.1714121
1.1719359
1.1722233
1.172342
1.1718855
1.1700921
1.1688274
1.1681085
1.1677655
1.1677495
0.91448939
0.92037023
0.9297985
0.94579409
0.97261013
0.98237656
0.97945879
0.98213299
0.98072873
0.98288944
0.9826234
0.98486254
0.98573941
0.98844542
0.99042347
0.99392826
0.99727056
1.0019323
1.0070499
1.013583
1.0210983
1.0301604
1.0405778
1.0525193
1.0656858
1.0797253
1.0939595
1.1076759
1.1202099
1.1311419
1.1403024
1.1477509
1.1536758
1.1583171
1.1619155
1.164712
1.1668253
1.1683998
1.1696642
1.1707874
1.1715484
1.1720266
1.1722942
1.1724135
1.1717796
1.1699456
1.1687565
1.1680851
1.1677651
1.1677568
0.91349453
0.91989129
0.93003275
0.94741316
0.97328685
0.98179955
0.97880125
0.98149406
0.98012878
0.98235825
0.98226811
0.98461193
0.98550863
0.98829642
0.99035108
0.99390694
0.99735027
1.0022316
1.0076121
1.0144432
1.022332
1.0317964
1.0426609
1.055046
1.0686155
1.0829469
1.0973097
1.1109653
1.1232694
1.1338512
1.1426007
1.14963
1.1551647
1.1594659
1.1627842
1.1653579
1.1672958
1.1687574
1.1699595
1.1710043
1.1716944
1.1721202
1.1723519
1.1724585
1.171634
1.1698135
1.1686909
1.1680624
1.1677635
1.1677632
0.91277097
0.91966882
0.93051831
0.94945782
0.97396031
0.98141919
0.97837156
0.98110455
0.97985005
0.98214235
0.98211637
0.98451756
0.9854459
0.98826935
0.99038082
0.99408953
0.99774699
1.0028476
1.0085179
1.0156786
1.0239516
1.0338387
1.0451571
1.057986
1.0719402
1.0865255
1.1009611
1.1144925
1.1265055
1.1366854
1.1449846
1.1515667
1.1566927
1.1606422
1.1636725
1.1660171
1.1677763
1.1691235
1.1702562
1.1712219
1.1718482
1.1722232
1.172407
1.1724768
1.171455
1.1696943
1.1686292
1.1680401
1.1677609
1.1677685
0.91220319
0.91964008
0.93120934
0.95183451
0.97460681
0.9812595
0.97820373
0.98098738
0.9797626
0.98213867
0.98207279
0.98451867
0.98547822
0.9884214
0.99069626
0.99457981
0.99845265
1.0038071
1.0097846
1.0172877
1.0259644
1.0362858
1.0480665
1.0613349
1.0756504
1.0904457
1.1048937
1.1182349
1.1298956
1.1396236
1.1474355
1.1535458
1.1582478
1.1618367
1.1645735
1.1666845
1.1682635
1.1694947
1.1705493
1.1714319
1.1720036
1.1723379
1.1724749
1.1724825
1.1712644
1.1695784
1.1685702
1.1680183
1.1677573
1.1677725
0.91189172
0.91987778
0.93217996
0.95460084
0.97524556
0.98125882
0.97816076
0.98101695
0.97973277
0.98213433
0.98211049
0.98467182
0.98577569
0.98887219
0.99131137
0.99538717
0.99949833
1.0051129
1.0114131
1.019275
1.0283689
1.0391367
1.0513839
1.0650821
1.0797298
1.0946842
1.1090799
1.1221635
1.1334119
1.1426411
1.1499328
1.1555507
1.1598172
1.1630397
1.1654796
1.167355
1.1687543
1.1698682
1.170835
1.1716282
1.1721534
1.1724572
1.1725754
1.1724811
1.1710693
1.1694649
1.1685137
1.1679973
1.1677533
1.167775
0.91173566
0.92028549
0.93334849
0.95755376
0.97584604
0.98138591
0.9782595
0.98115053
0.97993898
0.98245258
0.98247018
0.98512188
0.98639539
0.98964154
0.9922534
0.99652333
1.0008782
1.0067666
1.0134037
1.0216382
1.031164
1.0423886
1.055105
1.0692197
1.0841643
1.0992212
1.1134957
1.1262529
1.13703
1.1457156
1.1524579
1.1575669
1.16139
1.1642427
1.1663844
1.1680239
1.1692455
1.1702416
1.1711119
1.1718098
1.1722957
1.1725824
1.1726935
1.1724739
1.1708753
1.1693551
1.1684607
1.1679777
1.1677491
1.167777
0.91187419
0.92101004
0.93488305
0.96081493
0.97659645
0.98174447
0.97868006
0.98170646
0.98048898
0.98313846
0.98316727
0.98596197
0.98733317
0.99071997
0.99350711
0.99797903
1.0025911
1.0087645
1.0157528
1.0243746
1.0343451
1.0460361
1.0592202
1.0737326
1.0889315
1.1040283
1.1181094
1.1304714
1.1407199
1.1488217
1.1549908
1.1595796
1.1629552
1.1654372
1.167281
1.1686865
1.1697343
1.1706125
1.1713797
1.1719808
1.1724285
1.1727047
1.1728169
1.1724366
1.1706868
1.1692511
1.1684122
1.1679603
1.1677449
1.1677775
0.91231525
0.92204481
0.93679012
0.96429356
0.97751148
0.98238031
0.97938658
0.98241841
0.9813383
0.98398552
0.98418538
0.98707415
0.98855249
0.99209112
0.99506641
0.99974967
1.0046309
1.0111022
1.0184562
1.0274803
1.0379091
1.0500754
1.0637235
1.0786095
1.0940133
1.109082
1.1228941
1.1347907
1.1444552
1.1519377
1.1575153
1.1615768
1.1645039
1.1666162
1.1681636
1.1693386
1.1702183
1.1709791
1.1716392
1.1721491
1.1725522
1.172813
1.1729269
1.1723701
1.1705091
1.1691554
1.168369
1.1679452
1.1677409
1.1677769
0.91297777
0.92331685
0.93902449
0.9678281
0.97857576
0.9833498
0.9803701
0.98347716
0.98242117
0.98517188
0.98543314
0.98843836
0.9900533
0.99375094
0.99692447
1.0018283
1.006992
1.013774
1.021509
1.0309504
1.0418511
1.0544988
1.0686026
1.0838305
1.0993829
1.1143488
1.1278139
1.1391755
1.1482057
1.155041
1.1600156
1.1635464
1.1660263
1.1677721
1.1690265
1.1699765
1.1706954
1.1713393
1.1718903
1.1723207
1.1726719
1.1728998
1.1730031
1.1722691
1.1703464
1.16907
1.1683313
1.1679315
1.1677367
1.1677749
0.91388563
0.92483625
0.94161945
0.97134193
0.97968685
0.98454719
0.98158304
0.98474508
0.98372944
0.98657109
0.98694525
0.9900771
0.99182871
0.99569129
0.99907413
1.0042084
1.0096679
1.0167748
1.0249072
1.0347826
1.0461688
1.0593032
1.07385
1.0893816
1.1050182
1.1198013
1.1328378
1.1435959
1.1519484
1.1581165
1.1624803
1.165478
1.1675126
1.1688976
1.1698649
1.1705977
1.1711636
1.1716906
1.1721321
1.1724955
1.1727942
1.1729717
1.1730351
1.1721302
1.1702029
1.1689962
1.1682993
1.1679193
1.1677324
1.1677714
0.91509148
0.92663927
0.94461893
0.97500139
0.98116986
0.98596663
0.98301659
0.98627667
0.98529104
0.98825887
0.98871226
0.99197109
0.99387018
0.99790456
1.0015081
1.0068832
1.0126527
1.0200999
1.0286471
1.0389734
1.0508574
1.0644801
1.0794504
1.0952385
1.1108869
1.1254016
1.1379265
1.1480189
1.1556624
1.1611512
1.1648973
1.167359
1.1689514
1.1699845
1.1706748
1.1712004
1.1716212
1.1720304
1.1723627
1.1726667
1.1729231
1.1730503
1.1730475
1.1719586
1.1700791
1.1689337
1.1682743
1.1679092
1.1677283
1.1677664
0.91653916
0.92866835
0.947969
0.97867334
0.98274865
0.98761812
0.98467617
0.98803176
0.98708496
0.99016837
0.99072131
0.99411441
0.9961699
1.0003833
1.0042193
1.0098465
1.0159419
1.0237466
1.0327278
1.0435229
1.0559169
1.0700259
1.0853945
1.1013828
1.1169626
1.1311172
1.143048
1.1524234
1.1593385
1.1641365
1.1672532
1.1691766
1.1703328
1.1710253
1.1714535
1.1717839
1.1720659
1.1723555
1.1725804
1.1728253
1.1730554
1.1731629
1.1730492
1.1717655
1.1699664
1.1688805
1.1682566
1.1679059
1.1677247
1.1677597
0.91828946
0.93097222
0.95169316
0.98238375
0.98457169
0.98948056
0.98654742
0.99000566
0.98911528
0.99231137
0.99296814
0.99649897
0.99872105
1.00312
1.0072018
1.0130939
1.0195326
1.027714
1.0371486
1.0484303
1.0613429
1.0759312
1.0916623
1.1077853
1.1232061
1.1369054
1.1481675
1.1567923
1.1629666
1.1670539
1.1695256
1.1709164
1.1716515
1.1720153
1.1721983
1.1723474
1.1724931
1.172662
1.1727864
1.1729698
1.1731933
1.1732973
1.1730473
1.1715606
1.1698576
1.1688342
1.168245
1.1679063
1.1677214
1.1677513
0.92025222
0.93346362
0.95569405
0.98609364
0.9864957
0.99153468
0.98861903
0.99219648
0.99136644
0.99467719
0.99544366
0.99911819
1.0015155
1.0061092
1.0104511
1.0166231
1.0234247
1.0320036
1.0419125
1.0536979
1.0671365
1.0821912
1.0982411
1.1144215
1.1295851
1.1427328
1.1532648
1.1611217
1.1665304
1.1698674
1.1716945
1.172569
1.1729098
1.1729592
1.172907
1.1728879
1.1728963
1.1729458
1.1729846
1.1731041
1.1733236
1.1734343
1.1730172
1.1713478
1.1697489
1.1687923
1.1682381
1.1679085
1.1677189
1.167741
0.92254627
0.93623345
0.96003306
0.98978991
0.98869413
0.9938089
0.990912
0.9945962
0.99383328
0.99725574
0.99814096
1.001963
1.0045484
1.009347
1.013966
1.0204351
1.0276205
1.0366185
1.0470218
1.0593264
1.0732928
1.0887927
1.1051049
1.1212542
1.136055
1.1485623
1.1583248
1.1653971
1.1699804
1.1725513
1.1737443
1.1741354
1.1741123
1.1738611
1.1735775
1.1733989
1.1732686
1.173204
1.1731779
1.1732369
1.1734326
1.1735373
1.1729517
1.171131
1.1696389
1.1687515
1.1682353
1.1679143
1.1677176
1.1677287
0.92511428
0.93923179
0.96462145
0.99343199
0.99104663
0.99626323
0.99340612
0.99718504
0.99649788
1.0000389
1.0010525
1.0050301
1.0078179
1.0128338
1.0177484
1.0245331
1.0321245
1.0415642
1.0524821
1.0653201
1.0798125
1.0957276
1.1122341
1.1282518
1.1425814
1.1543734
1.1633449
1.1695749
1.173283
1.1750829
1.1756805
1.1756442
1.1752471
1.1747103
1.1742132
1.1738765
1.1736099
1.173437
1.173361
1.173376
1.1735199
1.1735816
1.172845
1.1709179
1.1695303
1.1687089
1.1682313
1.1679319
1.1677168
1.1677145
0.92792707
0.9424639
0.9694234
0.99702907
0.99358868
0.99890317
0.99608697
0.99996672
0.99936049
1.003026
1.0041782
1.0083198
1.0113257
1.0165727
1.0218026
1.028923
1.0369428
1.0468464
1.0582977
1.0716792
1.0866883
1.1029762
1.1195942
1.1353693
1.1491238
1.1601485
1.1683035
1.173596
1.1763996
1.1774638
1.1775453
1.1770617
1.1763134
1.1755062
1.1748084
1.174322
1.173918
1.1736492
1.1735291
1.173521
1.1736053
1.1735976
1.1726918
1.1707175
1.1694286
1.1686686
1.1682241
1.1679408
1.1677143
1.1676986
0.93103743
0.94598316
0.97441511
1.0006074
0.99631116
1.0017292
0.99895735
1.0029357
1.002422
1.0062149
1.0075199
1.0118352
1.0150768
1.0205692
1.0261347
1.0336113
1.0420829
1.0524731
1.0644757
1.0784084
1.0939179
1.1105238
1.1271561
1.142571
1.1556584
1.1658846
1.1731403
1.1774239
1.1793176
1.1797459
1.1793038
1.178393
1.1773087
1.1762478
1.175364
1.1747334
1.1741929
1.1738431
1.1736845
1.1736602
1.173717
1.1736006
1.1724925
1.170538
1.1693378
1.1686318
1.1682156
1.1679473
1.1677121
1.1676814
0.93435276
0.94973607
0.97949743
1.0041597
0.99921075
1.0047244
1.0020081
1.0060941
1.0056801
1.0096129
1.0110831
1.0155834
1.0190772
1.0248302
1.030752
1.038607
1.0475532
1.0584517
1.0710205
1.0855065
1.1014881
1.1183411
1.1348761
1.1498134
1.1621624
1.1715578
1.1777853
1.1810201
1.1820757
1.181916
1.1809518
1.179632
1.178233
1.1769348
1.1758789
1.1751099
1.174436
1.1740185
1.1738301
1.1737975
1.1738452
1.1735994
1.1722519
1.170384
1.1692589
1.1685992
1.1682071
1.1679517
1.1677123
1.1676629
0.93798319
0.95380426
0.98465522
1.0077382
1.0022968
1.0079031
1.0052522
1.009451
1.0091477
1.0132261
1.0148769
1.0195695
1.0233338
1.0293626
1.0356626
1.043919
1.0533632
1.0647914
1.07794
1.0929764
1.10939
1.1264035
1.1427184
1.1570689
1.1686303
1.177099
1.1821961
1.184378
1.1847267
1.1839457
1.182486
1.1807805
1.1790864
1.1775681
1.1763534
1.1754494
1.174653
1.174179
1.1739641
1.1739244
1.1739714
1.1735584
1.171998
1.1702417
1.1691892
1.1685707
1.1681995
1.1679554
1.1677125
1.1676434
0.94188281
0.95820861
0.98986379
1.0113626
1.0055679
1.0112781
1.0086976
1.0130156
1.0128315
1.0170605
1.0189048
1.0237992
1.0278528
1.0341745
1.0408767
1.0495574
1.0595223
1.0714998
1.0852381
1.1008113
1.1176014
1.1346696
1.1506372
1.1643071
1.175041
1.1824257
1.1863305
1.1875595
1.1872267
1.1858373
1.1839057
1.1818379
1.1798695
1.1781483
1.1767867
1.1757493
1.1748508
1.1743305
1.1740882
1.1740315
1.1740435
1.1734828
1.1717443
1.1701075
1.1691258
1.1685458
1.1681934
1.1679588
1.1677113
1.1676235
0.94601064
0.96296459
0.99513119
1.0150737
1.009043
1.0148596
1.0123515
1.0167885
1.0167346
1.0211176
1.0231709
1.0282789
1.0326428
1.0392769
1.0464041
1.0555332
1.0660413
1.0785876
1.0929217
1.1090092
1.1261023
1.1431055
1.1586005
1.1715158
1.1813274
1.1874882
1.1901868
1.1906037
1.1895571
1.1875877
1.1852122
1.1828063
1.1805841
1.1786769
1.1771787
1.1760113
1.1750317
1.1744761
1.174209
1.1741217
1.1740743
1.1733724
1.1715006
1.1699802
1.1690662
1.1685235
1.1681897
1.1679622
1.1677078
1.1676035
0.95042252
0.96808017
1.0004141
1.0188915
1.0127113
1.0186343
1.016206
1.020766
1.0208561
1.0254024
1.0276832
1.0330186
1.0377147
1.0446811
1.0522566
1.0618581
1.0729307
1.0860627
1.100992
1.1175546
1.1348576
1.1516627
1.1665702
1.1786749
1.1873988
1.1922365
1.1938282
1.1934686
1.1917171
1.1891981
1.1864069
1.1836874
1.181232
1.1791554
1.1775291
1.1762379
1.1751958
1.1746134
1.1743257
1.1742039
1.1740855
1.1732296
1.171273
1.1698609
1.1690096
1.1685022
1.1681893
1.1679655
1.1677017
1.1675831
0.9550591
0.97352876
1.0056888
1.0228925
1.0165653
1.0225989
1.0202649
1.0249575
1.0252049
1.0299266
1.0324535
1.0380293
1.0430796
1.0503977
1.0584455
1.0685438
1.0802031
1.0939365
1.1094522
1.1264351
1.1438356
1.1603062
1.1745245
1.185739
1.193184
1.1966562
1.1973071
1.1961293
1.1937065
1.190671
1.1874927
1.1844842
1.1818161
1.1795854
1.177838
1.1764324
1.1753434
1.1747373
1.1744285
1.1742878
1.1740895
1.1730549
1.1710653
1.1697511
1.1689573
1.1684827
1.1681899
1.1679682
1.167693
1.1675627
0.9599314
0.97929798
1.0109418
1.0270441
1.0206229
1.0267749
1.0245481
1.0293779
1.029796
1.0346997
1.0374922
1.0433211
1.0487471
1.0564387
1.0649831
1.0756039
1.0878706
1.1022161
1.1182956
1.1356217
1.1529895
1.1689924
1.1824379
1.1926054
1.1986282
1.2008088
1.2005782
1.1985867
1.1955268
1.1920089
1.1884729
1.1852
1.1823389
1.1799677
1.1781057
1.1765991
1.1754764
1.1748484
1.174516
1.1743563
1.1740796
1.1728495
1.17088
1.1696517
1.1689097
1.1684651
1.1681909
1.1679677
1.1676821
1.1675423
0.96512834
0.98542296
1.0162327
1.0311917
1.0249107
1.0311782
1.0290642
1.0340328
1.0346376
1.0397297
1.0428081
1.0489036
1.0547281
1.0628165
1.0718834
1.0830535
1.0959483
1.110911
1.1275166
1.1450881
1.1622813
1.1776926
1.1902893
1.1991778
1.2036936
1.2047631
1.2036137
1.2008412
1.1971824
1.1932168
1.1893524
1.1858389
1.1828029
1.1803028
1.1783335
1.1767442
1.1755998
1.1749504
1.1745858
1.1743863
1.1740337
1.1726164
1.1707171
1.1695617
1.1688662
1.1684491
1.1681919
1.167964
1.1676691
1.1675219
0.97063971
0.99186731
1.0215453
1.0357779
1.0294127
1.0357968
1.0338098
1.0389254
1.0397348
1.0450249
1.0484103
1.0547863
1.061035
1.0695463
1.0791633
1.0909097
1.1044496
1.1200228
1.137095
1.1547904
1.1716628
1.1863695
1.1979781
1.2053923
1.2084291
1.2084859
1.2064082
1.2028953
1.1986772
1.1942994
1.1901356
1.1864041
1.183209
1.1805907
1.1785254
1.1768768
1.1757179
1.1750447
1.1746429
1.1744006
1.1739535
1.1723693
1.1705694
1.1694788
1.1688259
1.1684341
1.1681925
1.1679568
1.1676546
1.1675017
0.97645372
0.9985994
1.0268849
1.0404612
1.0341301
1.0406418
1.0387953
1.0440692
1.0450965
1.0505944
1.0543062
1.0609822
1.0676824
1.0766457
1.0868416
1.0991912
1.1133897
1.1295533
1.1470111
1.1646908
1.1810996
1.1950008
1.2054028
1.2111953
1.2129051
1.2119474
1.2089645
1.2047547
1.2000184
1.1952635
1.1908276
1.186898
1.1835581
1.1808338
1.1786898
1.1770072
1.1758323
1.1751298
1.1746902
1.1744064
1.1738417
1.1721234
1.170429
1.1694012
1.1687881
1.1684196
1.1681922
1.1679462
1.1676388
1.167482
0.98251004
1.0055876
1.0323114
1.0453845
1.0390935
1.0457314
1.0440363
1.0494675
1.05073
1.0564429
1.0605086
1.0675072
1.0746894
1.084137
1.0949396
1.1079173
1.1227774
1.1394918
1.1572263
1.1747381
1.1905448
1.2035252
1.2124578
1.2165891
1.2171353
1.2151252
1.211285
1.206425
1.2012122
1.1961142
1.1914314
1.1873216
1.1838522
1.1810395
1.1788395
1.1771392
1.1759353
1.1751963
1.1747191
1.1744095
1.173703
1.1718856
1.1702955
1.1693283
1.1687524
1.1684052
1.1681902
1.1679325
1.1676221
1.1674628
0.9888687
1.0128682
1.0378724
1.050519
1.0443018
1.0510627
1.0495272
1.0551196
1.0566417
1.0625848
1.0670365
1.0743841
1.08208
1.0920428
1.1034797
1.117107
1.1326219
1.1498245
1.1677054
1.1848923
1.1999673
1.2118296
1.2190873
1.2216444
1.2210795
1.2180267
1.2133773
1.2079152
1.2022669
1.1968572
1.1919496
1.1876781
1.1840994
1.1812211
1.1789835
1.1772573
1.1760012
1.1752274
1.1747347
1.1743956
1.1735423
1.1716601
1.1701704
1.1692607
1.1687185
1.1683904
1.1681861
1.1679161
1.1676047
1.1674444
0.99548054
1.0204087
1.0435832
1.0558765
1.0497387
1.0566268
1.0552687
1.0610406
1.062851
1.0690452
1.0739152
1.0816388
1.0898788
1.1003892
1.112486
1.1267772
1.1429209
1.160521
1.1783945
1.1951011
1.2093212
1.2197841
1.2252369
1.2264351
1.2246937
1.2206532
1.2152484
1.2092332
1.2031886
1.1974957
1.1923856
1.1879759
1.1843142
1.1813899
1.1791111
1.1773176
1.1760331
1.1752432
1.1747432
1.1743628
1.1733669
1.1714497
1.1700548
1.169199
1.1686869
1.1683751
1.1681794
1.1678972
1.167587
1.1674268
1.0023072
1.0281842
1.0494768
1.0614276
1.0554039
1.062441
1.0612927
1.067265
1.0693924
1.0758512
1.08117
1.0892976
1.0981125
1.1092021
1.1219822
1.1369432
1.1536691
1.1715497
1.1892499
1.2053203
1.2185183
1.2273043
1.2309717
1.2309098
1.2279903
1.2230145
1.2169095
1.2103889
1.2039838
1.1980346
1.192749
1.1882315
1.1845102
1.181538
1.1791766
1.1773463
1.1760476
1.1752506
1.1747491
1.1743099
1.1731809
1.1712555
1.1699487
1.169143
1.168658
1.16836
1.1681698
1.1678765
1.1675691
1.1674101
1.0093272
1.0361812
1.0552853
1.0672631
1.061371
1.0685584
1.0676372
1.0738202
1.0762889
1.0830256
1.0888252
1.0973878
1.1068094
1.1185104
1.1319918
1.1476118
1.1648449
1.1828603
1.2002151
1.2154961
1.2274143
1.2343116
1.2363642
1.2350301
1.2309677
1.2251182
1.21837
1.2113893
1.2046574
1.1984831
1.1930571
1.1884603
1.1846802
1.1816187
1.1792066
1.1773564
1.176055
1.1752556
1.1747518
1.1742371
1.1729874
1.171078
1.1698509
1.1690912
1.1686316
1.1683472
1.1681569
1.1678545
1.1675514
1.1673944
1.016669
1.0444835
1.06156
1.0734081
1.0676529
1.0749907
1.0743223
1.0807007
1.0835584
1.0905945
1.0969098
1.1059405
1.1159998
1.1283427
1.1425359
1.1587853
1.1764221
1.194406
1.2112426
1.2255812
1.2358782
1.2408112
1.2414296
1.2387783
1.2336383
1.2269778
1.2196413
1.2122425
1.2052191
1.1988595
1.1933284
1.1886569
1.1847751
1.181655
1.1792164
1.1773617
1.1760594
1.1752554
1.174743
1.1741439
1.1727887
1.1709163
1.1697606
1.1690427
1.1686067
1.1683369
1.1681397
1.1678316
1.167534
1.1673798
1.0241407
1.0530238
1.0680593
1.0798253
1.0742365
1.0817438
1.0813531
1.0879574
1.0912278
1.0985917
1.1054553
1.1149892
1.125718
1.1387282
1.1536298
1.170451
1.1883547
1.2061247
1.2222639
1.2354238
1.2438217
1.2468698
1.2461136
1.2421612
1.2360102
1.228604
1.2207319
1.2129566
1.2056853
1.1991844
1.1935597
1.1887692
1.184818
1.1816674
1.1792199
1.1773593
1.1760554
1.1752473
1.1747216
1.1740302
1.1725866
1.1707694
1.1696773
1.1689973
1.1685831
1.1683267
1.1681189
1.1678081
1.1675172
1.1673664
1.0319108
1.0619756
1.0747984
1.0865866
1.0811851
1.0888574
1.0887776
1.095609
1.099336
1.107049
1.1144993
1.1245725
1.1359968
1.149694
1.1652825
1.1825882
1.2005947
1.2179621
1.2332231
1.2448793
1.25118
1.2525824
1.2503697
1.2451889
1.2380992
1.2300108
1.2216532
1.2135479
1.2060799
1.1994621
1.1937007
1.1888202
1.184833
1.1816709
1.1792111
1.1773429
1.1760407
1.175233
1.1746852
1.1738973
1.1723836
1.170636
1.1696002
1.1689542
1.1685595
1.1683152
1.1680961
1.1677842
1.1675012
1.1673541
1.0398986
1.0712667
1.0818336
1.0936847
1.088498
1.0963541
1.0966187
1.1036996
1.1079171
1.1160085
1.1240812
1.1347296
1.1468727
1.1612629
1.1774909
1.1951563
1.2130762
1.2298417
1.244014
1.2538028
1.2580108
1.2578747
1.2542091
1.2478713
1.2399175
1.2312088
1.2224186
1.2140398
1.2064178
1.1996493
1.1937653
1.1888385
1.1848361
1.1816592
1.1791862
1.1773143
1.1760163
1.1752113
1.1746324
1.1737472
1.1721834
1.170514
1.1695279
1.1689121
1.1685349
1.1683014
1.1680711
1.1677605
1.1674861
1.167343
1.0481623
1.080989
1.0892112
1.10118
1.0962317
1.1042779
1.1049202
1.1122621
1.1170125
1.1255122
1.134244
1.1454999
1.1583768
1.1734504
1.1902396
1.2081087
1.2257377
1.2416936
1.2544686
1.2621105
1.2644038
1.2627087
1.2576394
1.2502259
1.2414817
1.2322133
1.2230504
1.2144571
1.2066773
1.1997375
1.1937897
1.1888411
1.18482
1.1816286
1.1791466
1.1772747
1.1759829
1.1751809
1.1745628
1.1735838
1.1719896
1.1704008
1.1694589
1.1688704
1.168509
1.168285
1.168044
1.167737
1.1674719
1.1673331
1.0567434
1.0911724
1.0969799
1.1090942
1.1044154
1.1126551
1.1137134
1.1213334
1.1266665
1.1356095
1.1450299
1.1569249
1.1705391
1.1862607
1.2034948
1.2213764
1.2384982
1.2534258
1.2644091
1.269788
1.270358
1.2670581
1.2606724
1.2522671
1.2428061
1.2330428
1.2235742
1.2147979
1.2068048
1.1997727
1.1937933
1.1888202
1.1847823
1.1815809
1.1790934
1.1772253
1.1759412
1.1751408
1.1744766
1.173411
1.1718051
1.1702943
1.1693925
1.1688289
1.1684819
1.1682658
1.1680159
1.1677141
1.1674588
1.1673245
1.0656331
1.1018223
1.1051578
1.1174571
1.1130908
1.1215307
1.123049
1.130968
1.1369331
1.1463516
1.1564855
1.1690408
1.1833808
1.1996847
1.2172107
1.2348901
1.2512724
1.2648831
1.2737167
1.2769198
1.2758155
1.2709413
1.2633269
1.2540151
1.2439108
1.2337254
1.2240092
1.2150028
1.2068582
1.1997808
1.1937695
1.1887742
1.1847249
1.1815173
1.1790279
1.177166
1.1758927
1.1750901
1.174375
1.173233
1.1716309
1.1701931
1.1693282
1.1687879
1.1684546
1.1682438
1.1679869
1.167692
1.1674469
1.1673172
1.0748794
1.1128954
1.1138088
1.1263183
1.1223153
1.1309512
1.1330041
1.1412265
1.1478634
1.1577838
1.1686521
1.1818832
1.1969134
1.2136946
1.2313178
1.2485601
1.2639532
1.2758596
1.2823047
1.2835842
1.2807188
1.2743662
1.2656196
1.2554873
1.2448184
1.2342885
1.2243366
1.2150993
1.2068767
1.1997581
1.193716
1.1887057
1.1846497
1.1814395
1.1789512
1.1770978
1.1758374
1.1750284
1.1742593
1.1730527
1.1714666
1.1700963
1.1692654
1.1687475
1.1684287
1.1682192
1.1679575
1.1676709
1.1674361
1.1673112
1.0846123
1.1245099
1.1230148
1.1357484
1.1321412
1.1409863
1.1436201
1.1521657
1.159497
1.1699563
1.1815724
1.1954772
1.2111335
1.228244
1.2457382
1.26229
1.2764161
1.2861826
1.2902482
1.2896983
1.2850918
1.2773551
1.2675746
1.2567092
1.24556
1.2347432
1.2245073
1.2151381
1.2068623
1.1996998
1.1936366
1.188617
1.1845585
1.1813489
1.1788644
1.1770219
1.1757747
1.1749552
1.1741317
1.172873
1.1713119
1.1700034
1.1692049
1.1687083
1.1684035
1.1681923
1.1679279
1.1676508
1.1674267
1.1673065
1.0948545
1.1366324
1.1328361
1.1457763
1.1426304
1.1516724
1.1549407
1.1638259
1.1718863
1.1829186
1.1952882
1.2098466
1.2260201
1.2432636
1.2603702
1.2759518
1.28842
1.295727
1.2976451
1.2951992
1.2889388
1.2799267
1.2692133
1.2577082
1.2461641
1.2350456
1.2245817
1.215137
1.2068041
1.1996113
1.1935339
1.1885106
1.1844533
1.1812469
1.1787686
1.1769391
1.1757045
1.1748707
1.1739942
1.1726956
1.1711663
1.1699152
1.1691467
1.1686701
1.1683783
1.1681633
1.1678986
1.1676321
1.1674184
1.1673031
1.1057207
1.149289
1.1433415
1.1564492
1.1538322
1.1630528
1.1670146
1.1762656
1.1850908
1.1967302
1.2098417
1.2249916
1.2415257
1.2586637
1.2751034
1.2894156
1.2997598
1.304528
1.3044398
1.3000903
1.2922858
1.2821097
1.2705668
1.2585191
1.2466409
1.2352006
1.2246062
1.2150892
1.2067109
1.1994957
1.1934113
1.1883887
1.1843357
1.1811348
1.178665
1.1768499
1.1756265
1.1747752
1.173849
1.1725221
1.1710284
1.169832
1.169091
1.1686325
1.1683525
1.1681326
1.1678696
1.1676148
1.1674115
1.167301
1.1173245
1.1624395
1.1545683
1.1677864
1.1657796
1.1751924
1.179908
1.1895626
1.1991813
1.2114485
1.2252608
1.2408949
1.2575761
1.2743269
1.2897874
1.3024359
1.3102707
1.3126722
1.3105556
1.3043812
1.2951534
1.283931
1.2716685
1.2591703
1.2469322
1.2352681
1.2245829
1.2149979
1.2065855
1.1993572
1.1932714
1.1882536
1.1842073
1.1810138
1.1785544
1.1767548
1.1755406
1.1746693
1.1736982
1.1723544
1.1708988
1.1697538
1.1690373
1.1685951
1.1683254
1.1681006
1.1678414
1.1675989
1.1674059
1.1673002
1.129798
1.1760134
1.166557
1.1798168
1.1785339
1.1881801
1.1937283
1.2038173
1.2142341
1.2271233
1.2415518
1.2574991
1.2740645
1.2901188
1.3042637
1.3147731
1.319934
1.3201555
1.3159737
1.3080985
1.2975763
1.2854286
1.2725584
1.2596712
1.2470782
1.2352783
1.2245048
1.2148696
1.2064338
1.1991994
1.1931172
1.1881073
1.1840697
1.1808851
1.1784378
1.1766539
1.1754467
1.1745539
1.1735439
1.1721933
1.1707779
1.1696803
1.1689854
1.1685574
1.1682968
1.1680677
1.1678139
1.1675846
1.1674016
1.1673008
1.1432176
1.1898357
1.1793811
1.1926739
1.1922581
1.2021124
1.2085606
1.2191306
1.2303101
1.243781
1.2586826
1.274717
1.2908512
1.3058629
1.3182856
1.3262138
1.3288303
1.326875
1.3207086
1.3112668
1.2995866
1.2866403
1.2732627
1.2599639
1.2471418
1.2352305
1.2243828
1.2147096
1.2062599
1.1990256
1.1929511
1.1879516
1.1839243
1.1807499
1.1783158
1.1765476
1.175345
1.17443
1.1733877
1.1720393
1.170665
1.1696107
1.1689349
1.1685195
1.1682664
1.1680344
1.1677873
1.1675719
1.1673986
1.1673027
1.1579853
1.2039042
1.1932906
1.2065434
1.2070894
1.2171319
1.2245069
1.2355608
1.247459
1.2614092
1.2765813
1.2924122
1.307768
1.3213606
1.3315686
1.3367032
1.3369813
1.3328005
1.3247878
1.3139273
1.3012296
1.2876109
1.2737784
1.2601083
1.2471401
1.2351272
1.2242232
1.2145243
1.2060682
1.1988392
1.1927757
1.1877884
1.1837724
1.1806091
1.178189
1.1764358
1.1752354
1.1742987
1.1732316
1.1718929
1.1705595
1.1695433
1.1688858
1.1684816
1.1682344
1.1680009
1.1677617
1.1675609
1.1673969
1.167306
1.1741366
1.2184513
1.2084061
1.2216043
1.2231386
1.2333678
1.2416073
1.2531467
1.265682
1.2799609
1.2951341
1.3104117
1.324603
1.3363422
1.3438594
1.3463183
1.3442605
1.3379493