/*--------------------------------*- C++ -*----------------------------------*\
  =========                 |
  \\      /  F ield         | OpenFOAM: The Open Source CFD Toolbox
   \\    /   O peration     | Website:  https://openfoam.org
    \\  /    A nd           | Version:  8
     \\/     M anipulation  |
\*---------------------------------------------------------------------------*/
FoamFile
{
    version     2.0;
    format      ascii;
    class       surfaceVectorField;
    location    "0.0800043";
    object      rhoUf;
}
// * * * * * * * * * * * * * * * * * * * * * * * * * * * * * * * * * * * * * //

dimensions      [1 -2 -1 0 0 0 0];

internalField   nonuniform List<vector> 
39600
(
(207.25376 -2.9794371e-20 1.8665439)
(191.74062 -2.0327912e-17 1.1311549)
(189.86711 -1.4107466e-16 1.8958496)
(238.37552 -2.4192276e-19 2.0316431)
(227.99464 1.5097939e-17 1.5959699)
(226.00589 -2.4177614e-19 2.4397906)
(262.4628 2.8377706e-19 2.0854725)
(253.02579 -1.1997461e-17 1.5632587)
(250.87526 -9.2841843e-21 2.5367741)
(285.68995 5.8673421e-19 2.0750064)
(276.09709 1.0303282e-17 1.6031575)
(273.79289 3.5974664e-17 2.6438605)
(308.15511 7.2158401e-19 1.97658)
(299.67972 5.4661107e-19 1.2802171)
(297.10098 -3.0856367e-17 2.4616796)
(320.3862 5.106449e-19 1.8834293)
(320.33294 -2.2502275e-20 1.5866985)
(318.89424 5.4495521e-17 2.7641628)
(322.22466 0 1.8694255)
(321.19018 1.6478686e-18 0.7569002)
(321.06455 -2.3124787e-17 2.0179771)
(322.64118 7.9607682e-21 1.8456209)
(323.55217 -2.3453634e-21 1.9147899)
(323.42138 -1.9427567e-17 3.1029894)
(322.14202 1.28285e-18 1.8103344)
(321.65609 8.6496067e-21 0.40839749)
(321.54698 -1.5415321e-20 1.6908848)
(322.30804 4.7167512e-19 1.7711505)
(322.84051 4.2987528e-19 1.9869852)
(322.70065 1.443844e-18 3.1826671)
(322.01298 -1.2479527e-18 1.7189347)
(321.79193 2.8246092e-18 0.31721679)
(321.66603 2.1738729e-17 1.5890614)
(322.04777 9.983822e-19 1.660294)
(322.40487 5.3088075e-18 1.7878007)
(322.26137 -9.6092806e-18 2.9997157)
(321.81602 1.1720742e-18 1.5836175)
(321.75511 -4.4463438e-18 0.35350918)
(321.61723 9.2037335e-18 1.6138555)
(321.76587 1.3135359e-18 1.4966886)
(322.02554 0 1.4372849)
(321.87772 -6.7864661e-18 2.6668301)
(321.56268 1.578241e-18 1.3853939)
(321.60107 9.0863428e-18 0.38021948)
(321.45359 1.5301189e-18 1.6330783)
(321.43943 0 1.2572096)
(321.66294 -1.0194359e-17 1.0132635)
(321.50915 0 2.2579128)
(321.21681 -3.1658542e-18 1.096476)
(321.32957 -8.5315342e-18 0.29383736)
(321.17248 4.0778468e-18 1.5471628)
(321.01772 3.8693594e-18 0.90817323)
(321.24069 7.1884887e-18 0.5353502)
(321.07809 -3.5064809e-18 1.7946927)
(320.74209 1.3511066e-17 0.67702141)
(320.92294 -4.9075069e-19 0.024500024)
(320.75563 5.7478605e-18 1.2883133)
(320.44759 -9.122207e-18 0.40723181)
(320.70072 1.9425127e-17 -0.028253537)
(320.53076 4.8186899e-18 1.2446092)
(320.07434 -1.7217711e-17 0.092664924)
(320.32794 -7.3491026e-18 -0.45571646)
(320.15871 -1.5699872e-17 0.81412812)
(319.63911 1.008453e-17 -0.25691295)
(319.94701 0 -0.70098075)
(319.78354 -1.8152557e-18 0.56662413)
(319.10333 1.2307011e-17 -0.63871208)
(319.43603 -1.1652435e-17 -1.1179683)
(319.28113 1.3331459e-17 0.13882668)
(318.48594 -1.3242618e-17 -1.0359884)
(318.84493 9.5873462e-18 -1.4790823)
(318.70424 -2.5737571e-18 -0.22429217)
(317.74497 -1.0583381e-17 -1.4662644)
(318.09503 -3.0285449e-17 -1.9275514)
(317.9607 -1.2382538e-17 -0.66756877)
(316.78947 6.8894671e-18 -1.9114886)
(317.20748 1.2634784e-17 -2.3712925)
(317.07821 6.5964156e-18 -1.1193565)
(315.61811 0 -2.2387008)
(316.17217 0 -2.7450951)
(316.08133 8.7503066e-19 -1.5429383)
(314.29389 -7.8431067e-19 -2.4051324)
(314.93482 0 -2.937411)
(314.88344 -3.8539026e-19 -1.819842)
(312.86506 -2.1908028e-17 -2.3930161)
(313.54229 -8.6593292e-19 -2.9519506)
(313.5265 9.7322289e-19 -1.9451059)
(311.3918 -4.2640428e-17 -2.2179301)
(312.06121 -1.1690535e-17 -2.7739295)
(312.07162 -1.5583724e-17 -1.8955718)
(309.94594 -2.1748649e-17 -1.9123698)
(310.57543 -8.3738699e-17 -2.4391594)
(310.6034 -1.2720441e-17 -1.7002103)
(308.60333 4.9704048e-17 -1.540991)
(309.16662 7.2734014e-17 -2.0064336)
(309.20155 1.0809453e-18 -1.4061074)
(307.42329 9.4753997e-17 -1.1708855)
(307.90339 -9.4101916e-17 -1.5537547)
(307.93742 3.6746567e-17 -1.0825312)
(306.43924 3.9411603e-17 -0.85795347)
(306.82924 -1.8852304e-17 -1.1476905)
(306.85726 2.1532775e-17 -0.7898581)
(305.66255 1.8743734e-17 -0.63455875)
(305.96253 2.7841058e-17 -0.83129595)
(305.98303 -1.3564389e-18 -0.56874885)
(305.0836 9.4105842e-18 -0.51185677)
(305.30221 -1.0974722e-17 -0.6270903)
(305.31585 1.1825651e-17 -0.44057057)
(304.68134 -1.7406242e-17 -0.48197463)
(304.82531 1.6640164e-17 -0.53245036)
(304.83431 -8.2217979e-18 -0.40483223)
(304.42659 -6.395861e-17 -0.52504735)
(304.51417 -1.2109885e-17 -0.52602139)
(304.51936 -4.885267e-20 -0.44385732)
(304.29885 -2.0867325e-17 -0.62212452)
(304.32846 1.4558205e-16 -0.58204907)
(304.33218 -2.5780901e-17 -0.53233317)
(304.27232 6.5437457e-17 -0.77169214)
(304.26717 -9.4893727e-17 -0.7073436)
(304.27203 2.3105371e-17 -0.67643054)
(304.31469 -5.0058338e-17 -0.89586742)
(304.26876 9.9610775e-18 -0.87986706)
(304.28003 -1.4947108e-18 -0.86126818)
(304.38642 1.8890575e-17 -0.98643236)
(304.30657 -1.4484953e-17 -1.0271547)
(304.31913 -1.0892004e-17 -1.0203981)
(304.47207 2.7499692e-17 -1.0564408)
(304.37913 -1.7304391e-16 -1.128994)
(304.38865 1.8577504e-17 -1.130895)
(304.55652 -7.0881398e-17 -1.1625536)
(304.4839 -1.2738208e-16 -1.1898497)
(304.48708 -1.2177959e-17 -1.1950975)
(304.65156 -6.9850582e-17 -1.1404207)
(304.60109 0 -1.1950328)
(304.61337 1.0785749e-24 -1.2016944)
(304.73908 -8.709573e-17 -0.95741204)
(304.68713 -1.4805559e-16 -1.0622587)
(304.69649 -1.3488169e-17 -1.0858698)
(304.80013 6.36841e-18 -0.87571143)
(304.81706 1.1517964e-20 -0.78268072)
(304.80242 -3.9404215e-21 -0.81603176)
(304.87876 5.4370512e-18 -0.88580129)
(304.96224 8.2333514e-17 -0.46881383)
(304.9461 -5.4594334e-19 -0.49130621)
(305.02763 0 -0.28587608)
(305.01771 5.9068628e-17 -0.26942272)
(305.04317 -2.0356003e-18 -0.27355998)
(304.99863 3.6025533e-19 -0.32349476)
(305.00057 0 -0.32712753)
(209.17284 -8.3306987e-18 1.0599043)
(193.57165 -1.4856429e-17 0.33611937)
(240.38212 5.7164562e-18 1.0973269)
(229.9396 1.2633611e-17 0.71594327)
(264.57394 -3.9404111e-18 1.0537695)
(255.1081 -1.3998876e-17 0.5485366)
(287.95011 1.1019595e-17 0.95355512)
(278.28863 1.0414548e-17 0.52226567)
(309.99082 -1.3566579e-19 0.77295488)
(302.0868 -1.437335e-18 0.0572383)
(321.07092 9.5844115e-19 0.6582706)
(321.47506 -4.736938e-19 0.37985774)
(322.31916 1.7735449e-18 0.63466496)
(321.2974 1.609121e-18 -0.53475992)
(322.74924 -2.5277126e-21 0.60615642)
(323.67921 -6.943753e-18 0.71078268)
(322.25491 -8.5712044e-19 0.56774513)
(321.76616 6.9363921e-18 -0.89685806)
(322.42486 2.5409863e-18 0.52560997)
(322.96902 8.6975313e-18 0.77249195)
(322.13256 9.0362241e-18 0.47126027)
(321.90504 7.0945462e-18 -0.98160217)
(322.17296 7.5147946e-19 0.41012198)
(322.53348 2.4959231e-18 0.55662331)
(321.94393 -5.9410858e-18 0.33134133)
(321.87658 -1.428934e-17 -0.93555289)
(321.89905 6.8778227e-18 0.24212774)
(322.15608 0 0.18684026)
(321.70015 -8.854355e-19 0.12775795)
(321.73184 -1.8320778e-18 -0.90153521)
(321.5826 -1.8666857e-17 -0.0035945896)
(321.79907 1.0730803e-17 -0.25551115)
(321.36587 3.2662081e-19 -0.1696599)
(321.47088 -1.6942146e-17 -0.98933187)
(321.17261 3.5426116e-18 -0.36322927)
(321.3856 3.1996193e-18 -0.75122384)
(320.90273 3.6757427e-18 -0.60036673)
(321.07277 -2.6956853e-18 -1.2674278)
(320.6113 2.3358288e-17 -0.8711803)
(320.8491 -5.5517187e-18 -1.324138)
(320.239 8.8998921e-18 -1.1832191)
(320.47371 1.6325364e-17 -1.7458812)
(319.80212 -2.0321354e-17 -1.5258862)
(320.08535 2.7648155e-17 -1.9887533)
(319.26249 -1.6122091e-17 -1.9058437)
(319.56865 -2.2187858e-17 -2.4052101)
(318.61266 -3.6830862e-18 -2.3028255)
(318.96486 1.8926324e-17 -2.7833169)
(317.81099 -1.1274699e-17 -2.7363448)
(318.21109 -5.4977183e-17 -3.2406568)
(316.82791 6.9938171e-18 -3.1492072)
(317.30705 5.8880087e-17 -3.6504686)
(315.65717 0 -3.4006644)
(316.22456 1.0913778e-17 -3.9549849)
(314.32521 0 -3.4695575)
(314.94603 5.3392667e-17 -4.0607992)
(312.87817 1.0230426e-17 -3.3446066)
(313.51963 -5.0838536e-17 -3.9639402)
(311.3827 -4.5287265e-17 -3.037548)
(312.01345 1.1321562e-17 -3.6547671)
(309.9252 -5.7758974e-18 -2.5939712)
(310.51329 -6.4261003e-17 -3.1781829)
(308.58039 -5.27693e-17 -2.0880968)
(309.10191 1.3212482e-17 -2.6055479)
(307.40437 -2.1414923e-16 -1.5954933)
(307.8447 -1.3735267e-16 -2.0234352)
(306.42722 -3.5095064e-17 -1.176177)
(306.78156 -2.271951e-16 -1.504013)
(305.65718 2.4148804e-18 -0.86468192)
(305.92699 4.1609622e-17 -1.0924544)
(305.08252 -6.7256681e-18 -0.67206824)
(305.27748 -3.1690733e-17 -0.81215421)
(304.68189 2.4968249e-17 -0.58835693)
(304.80849 3.2027747e-17 -0.65823792)
(304.42728 1.7911458e-16 -0.59092734)
(304.5037 -1.9514857e-16 -0.60609764)
(304.29811 9.8295471e-17 -0.65980814)
(304.32131 -8.4146484e-17 -0.62978587)
(304.2639 -1.6176832e-16 -0.79134653)
(304.25975 -6.6305833e-17 -0.73585957)
(304.29881 4.8735013e-17 -0.89079502)
(304.25578 9.8634065e-18 -0.89532412)
(304.35948 -1.8833037e-16 -0.99494617)
(304.29604 2.9307436e-17 -1.0310068)
(304.44299 -3.3298311e-16 -1.087735)
(304.37146 -6.4675818e-17 -1.1252035)
(304.54649 -7.0790305e-17 -1.1361058)
(304.4765 7.9248093e-17 -1.1829925)
(304.63196 -6.1710025e-17 -1.1255831)
(304.59061 1.7523549e-16 -1.1841866)
(304.74492 -7.71273e-17 -0.93604303)
(304.67969 6.8246818e-17 -1.0390839)
(304.81826 6.932885e-17 -0.92695969)
(304.83583 6.3813082e-18 -0.75287925)
(304.90678 1.3919521e-16 -0.71656263)
(304.96401 -3.0901907e-18 -0.45138198)
(304.99222 6.5886326e-17 -0.28094932)
(305.00081 1.2176413e-16 -0.26335529)
(304.99645 -3.8580833e-18 -0.31643497)
(211.00778 3.4663855e-18 0.22529331)
(195.32227 5.6783455e-18 -0.48641856)
(242.36795 -4.5550377e-18 0.13703696)
(231.83923 -9.8041755e-18 -0.18703334)
(266.703 -1.8727524e-18 -0.0051798427)
(257.1644 1.6345495e-17 -0.49407284)
(290.24165 -8.3052282e-19 -0.20214445)
(280.46198 -2.2018737e-17 -0.59147233)
(311.78973 -1.8421727e-18 -0.47010906)
(304.43195 -5.1314259e-19 -1.2059593)
(321.70429 0 -0.60808274)
(322.42533 7.9638628e-18 -0.85476174)
(322.43661 -6.239372e-18 -0.63617504)
(321.38254 -8.4395398e-18 -1.8620345)
(322.86497 -1.2469193e-18 -0.66680832)
(323.78765 1.0061179e-17 -0.51606224)
(322.36823 1.6131075e-17 -0.70398174)
(321.85428 -4.9314382e-18 -2.2287986)
(322.54199 1.3267273e-17 -0.74798621)
(323.08015 7.4534636e-18 -0.4651724)
(322.24835 1.0706465e-18 -0.80338306)
(322.0007 3.12856e-18 -2.305216)
(322.29303 -1.0887821e-17 -0.86681471)
(322.64562 -2.6091174e-18 -0.70014288)
(322.06478 -9.6097422e-18 -0.94838205)
(321.98209 -4.1818822e-18 -2.2491548)
(322.02365 -8.3676027e-18 -1.0409982)
(322.27044 -1.5050788e-17 -1.0919584)
(321.82768 8.5255831e-18 -1.1598109)
(321.84676 -2.8397815e-18 -2.2099608)
(321.7139 1.4617431e-17 -1.2964861)
(321.91929 -7.0302167e-19 -1.5560401)
(321.50123 -1.5757968e-17 -1.4691946)
(321.59627 9.0430813e-18 -2.3027255)
(321.31059 -2.4241928e-18 -1.6691515)
(321.51339 -1.4303645e-17 -2.0698579)
(321.04189 -1.1495561e-17 -1.9103812)
(321.20244 1.80115e-17 -2.5872057)
(320.74837 -1.4232591e-17 -2.1812186)
(320.97381 -2.966404e-17 -2.6467551)
(320.3727 3.374858e-17 -2.4909617)
(320.59455 2.4933493e-17 -3.0640148)
(319.9315 3.0010443e-17 -2.8359211)
(320.20093 6.0504948e-18 -3.3152091)
(319.3969 8.6586831e-18 -3.2169722)
(319.67718 5.8740537e-18 -3.7478964)
(318.74642 -2.4992808e-17 -3.637952)
(319.06852 9.3124858e-18 -4.149199)
(317.90706 3.8862298e-18 -4.0697214)
(318.30424 -6.7591068e-18 -4.599441)
(316.86862 6.7027816e-17 -4.4165606)
(317.36814 4.8914586e-18 -4.9583693)
(315.65876 5.9569734e-17 -4.5812224)
(316.23573 -3.5165274e-19 -5.1863541)
(314.29311 1.3017281e-17 -4.5523697)
(314.91803 -1.0687608e-17 -5.2003563)
(312.81419 -5.5653358e-17 -4.3040141)
(313.45713 -9.4273472e-17 -4.9839569)
(311.30042 -7.2184385e-20 -3.8569804)
(311.92737 -2.3774073e-17 -4.5354635)
(309.83636 -5.3171652e-17 -3.2697967)
(310.41665 -8.6204921e-17 -3.9115661)
(308.4961 -5.5283059e-17 -2.626932)
(309.00757 -4.3976883e-17 -3.1961696)
(307.33181 -1.411519e-16 -2.0116494)
(307.76173 1.0649867e-16 -2.4841997)
(306.3696 -1.7902266e-16 -1.4874151)
(306.71465 -5.8076175e-18 -1.852535)
(305.61435 1.5490242e-17 -1.089946)
(305.87678 -2.274815e-16 -1.3477556)
(305.05218 0 -0.82950409)
(305.24188 -2.1685701e-17 -0.99336268)
(304.66141 -1.6217821e-16 -0.69354833)
(304.78388 -5.3907349e-20 -0.78161032)
(304.41401 -4.6924368e-16 -0.6571536)
(304.48796 2.2312577e-16 -0.68489014)
(304.28787 -2.499294e-16 -0.69888321)
(304.31063 -1.5274846e-16 -0.67794698)
(304.26027 9.6126933e-17 -0.79445623)
(304.24737 9.4258409e-17 -0.76521168)
(304.29303 -1.1800451e-17 -0.89154287)
(304.2428 -9.9782924e-18 -0.91062978)
(304.34929 1.6229758e-16 -1.0081235)
(304.2863 -1.4741635e-17 -1.0340893)
(304.42921 3.3132775e-16 -1.1074709)
(304.36504 2.1614233e-16 -1.1209573)
(304.54234 3.1556428e-16 -1.1190094)
(304.46687 -1.2643082e-16 -1.176063)
(304.62669 3.1784206e-16 -1.1097409)
(304.58143 -2.2137067e-17 -1.1726835)
(304.74762 1.5924007e-16 -0.90913404)
(304.67475 1.4710431e-16 -1.0119818)
(304.82154 -6.8137351e-17 -0.89316875)
(304.85354 6.4270317e-18 -0.72222219)
(304.91795 -3.4912912e-17 -0.61235769)
(304.95943 -7.2657263e-17 -0.43588135)
(304.98987 6.4863772e-17 -0.27528555)
(304.98882 -5.861159e-17 -0.2576665)
(304.99427 -4.3126619e-18 -0.30869772)
(212.82463 -6.070209e-18 -0.63437365)
(197.05521 -2.1158211e-17 -1.3419365)
(244.32949 8.5800701e-18 -0.85174848)
(233.72518 6.9782459e-18 -1.1218118)
(268.80124 -3.5478612e-19 -1.0962984)
(259.21447 4.330199e-17 -1.5641402)
(292.46464 -2.3377688e-17 -1.3935118)
(282.63174 -4.2441685e-17 -1.7413691)
(313.4245 8.406412e-18 -1.7407531)
(306.67565 2.3039687e-18 -2.5089868)
(322.19531 9.9599533e-19 -1.8932239)
(323.18567 2.3937998e-17 -2.1087001)
(322.51839 6.0424289e-18 -1.9232665)
(321.45176 -6.5196382e-18 -3.2129126)
(322.95366 7.6293909e-18 -1.9576299)
(323.88361 5.0983661e-18 -1.7615308)
(322.45802 -1.4374051e-17 -1.9955972)
(321.92973 -1.1434946e-17 -3.5836687)
(322.63638 -2.115565e-18 -2.0427467)
(323.17795 1.7809567e-17 -1.7241571)
(322.34321 -1.311887e-20 -2.1007787)
(322.0827 -1.6446985e-17 -3.6526032)
(322.39297 4.0634571e-18 -2.167831)
(322.74341 5.497769e-18 -1.9807328)
(322.1665 -8.6426128e-18 -2.2533678)
(322.07311 -4.7077127e-18 -3.5874206)
(322.12956 -1.0607207e-17 -2.3506771)
(322.36982 -7.0788373e-18 -2.3974763)
(321.93713 -1.2038875e-17 -2.4753469)
(321.9469 -6.5604789e-18 -3.545414)
(321.82759 -6.9304495e-18 -2.6185144)
(322.02378 -9.8581203e-18 -2.8861011)
(321.61895 1.2350853e-17 -2.7977212)
(321.70449 1.7070611e-17 -3.6438764)
(321.43024 3.0756268e-18 -3.0022589)
(321.62072 7.6211548e-18 -3.414853)
(321.16217 4.1338401e-18 -3.2452315)
(321.30942 -4.1655478e-19 -3.9299199)
(320.86683 4.1843543e-18 -3.5168304)
(321.07521 3.4039663e-19 -3.9944427)
(320.49074 -6.2206215e-19 -3.8323215)
(320.69471 -6.0943703e-19 -4.417074)
(320.05814 -1.7594475e-17 -4.1841823)
(320.29463 -2.0613064e-17 -4.6937565)
(319.51943 6.1907459e-18 -4.5951904)
(319.77229 5.7061153e-18 -5.1529345)
(318.82121 2.8594898e-17 -5.0340599)
(319.15584 -1.2725822e-19 -5.5641446)
(317.9292 -6.8404788e-18 -5.4255187)
(318.36362 2.3305679e-17 -5.9842367)
(316.86832 -6.0853657e-17 -5.6910549)
(317.38422 -3.9233421e-17 -6.2850952)
(315.63409 -6.8548118e-17 -5.7800642)
(316.20812 -1.0904443e-17 -6.4364193)
(314.23195 -1.0853701e-16 -5.6440704)
(314.84883 2.038854e-17 -6.3503979)
(312.72481 -6.9568386e-17 -5.264286)
(313.3534 6.8502181e-17 -6.0050288)
(311.19442 -1.0271353e-16 -4.6713151)
(311.80228 -2.34568e-17 -5.4098881)
(309.72766 -8.1243512e-17 -3.9370269)
(310.28532 7.9161828e-17 -4.6342306)
(308.39627 1.0086748e-16 -3.1561544)
(308.8838 7.2472056e-18 -3.774388)
(307.24791 2.5204339e-16 -2.4188068)
(307.65485 2.7415517e-16 -2.9330741)
(306.30424 -3.0801297e-17 -1.7912473)
(306.62895 1.9250351e-16 -2.190945)
(305.56657 -2.8612048e-16 -1.3096307)
(305.8123 -2.6821401e-16 -1.5952859)
(305.01869 -2.4023719e-17 -0.9829647)
(305.19573 -3.2507093e-17 -1.1690063)
(304.63874 3.5884384e-16 -0.7959594)
(304.75175 2.9663256e-16 -0.90100833)
(304.39915 5.7934209e-16 -0.7217256)
(304.46713 3.7852281e-16 -0.7610772)
(304.27559 1.6263903e-16 -0.73712884)
(304.29651 1.5498961e-16 -0.72530349)
(304.25007 0 -0.80567989)
(304.23179 0 -0.79374728)
(304.28188 -1.3046217e-17 -0.89377176)
(304.22953 0 -0.92468459)
(304.33818 1.1792928e-17 -1.0080235)
(304.2767 2.2118907e-16 -1.0359914)
(304.41767 -2.0240604e-16 -1.1077911)
(304.35803 1.0821601e-17 -1.1158961)
(304.53016 -4.7600538e-16 -1.1136861)
(304.45723 1.4861493e-17 -1.1684501)
(304.61926 -2.1289748e-16 -1.0929121)
(304.57259 -1.9851706e-16 -1.1589605)
(304.74486 9.5521426e-18 -0.91367697)
(304.67623 9.6195117e-20 -0.9831962)
(304.8402 8.4437923e-18 -0.83401697)
(304.86447 0 -0.69244379)
(304.92046 -1.0176734e-16 -0.55810946)
(304.95438 2.1453997e-19 -0.42195672)
(304.98054 -1.3520515e-16 -0.26897796)
(304.97933 -1.1267436e-16 -0.25220274)
(304.99192 -4.0355008e-18 -0.30050156)
(214.59136 -1.0618242e-17 -1.5223182)
(198.74543 -6.5439232e-17 -2.1860458)
(246.2745 3.8072121e-17 -1.8716817)
(235.5783 4.5052199e-17 -2.1034283)
(270.89563 8.8482667e-18 -2.2214131)
(261.24886 2.457336e-17 -2.6598173)
(294.64019 -2.0833715e-17 -2.6225566)
(284.80882 -4.1873848e-17 -2.9246999)
(314.92288 1.579401e-17 -3.0423992)
(308.79053 -6.0798433e-20 -3.8491445)
(322.59249 1.896763e-17 -3.2033403)
(323.77956 3.2155129e-17 -3.3823887)
(322.5953 -8.3471814e-18 -3.233799)
(321.50705 -1.2153978e-17 -4.5893303)
(323.03498 -1.223579e-17 -3.2717585)
(323.96625 3.2630076e-18 -3.0271505)
(322.53805 1.7721482e-17 -3.3108073)
(321.99109 -2.3972721e-17 -4.9625138)
(322.72071 6.4811936e-18 -3.3615029)
(323.26228 4.3198525e-17 -3.0050006)
(322.427 -1.2783898e-17 -3.4224683)
(322.15083 -2.9357397e-17 -5.0235448)
(322.48092 -2.2795366e-18 -3.4935907)
(322.82701 1.0927113e-17 -3.2852415)
(322.2555 -2.991292e-18 -3.5838987)
(322.15021 -1.8181364e-17 -4.9497325)
(322.22205 -3.1588054e-18 -3.6870743)
(322.45498 2.2863401e-17 -3.7298733)
(322.03253 -4.1638883e-18 -3.818811)
(322.03286 -1.240849e-17 -4.9065833)
(321.9256 1.1463762e-17 -3.9688334)
(322.1119 4.255526e-17 -4.2433687)
(321.71887 1.3214371e-17 -4.1532638)
(321.79329 -2.6800603e-17 -5.008576)
(321.52972 4.854292e-18 -4.3598154)
(321.70492 6.941404e-18 -4.7834054)
(321.26085 -4.1891172e-18 -4.6057808)
(321.39354 -1.8268282e-17 -5.2974023)
(320.96519 -4.2748599e-18 -4.8866116)
(321.15663 -2.1177852e-17 -5.3773707)
(320.60025 -1.8514217e-17 -5.2124482)
(320.77319 -8.1265676e-18 -5.82177)
(320.16807 0 -5.6007704)
(320.37715 0 -6.13577)
(319.59163 0 -6.0389023)
(319.85285 0 -6.6097213)
(318.84719 -7.3724466e-18 -6.4571625)
(319.21212 0 -7.0073179)
(317.93552 -2.9697512e-18 -6.7871774)
(318.37901 5.8419396e-17 -7.3875666)
(316.84747 7.3231885e-18 -6.9926218)
(317.36095 1.1681515e-16 -7.6338052)
(315.56539 7.3770848e-17 -6.9942482)
(316.13909 9.093429e-17 -7.7038604)
(314.12424 1.9030511e-16 -6.7406168)
(314.73644 1.6346398e-17 -7.5063513)
(312.58875 1.2274866e-16 -6.2201053)
(313.20723 1.029566e-16 -7.0220226)
(311.04579 1.4614837e-16 -5.4749361)
(311.63783 0 -6.2726865)
(309.58168 1.7374486e-16 -4.5902761)
(310.11951 1.6226507e-16 -5.3411686)
(308.26509 1.516926e-16 -3.6709315)
(308.73122 -2.3096813e-17 -4.3358446)
(307.13849 2.2358869e-16 -2.8129314)
(307.5248 -1.9813397e-16 -3.3664567)
(306.21868 5.3228052e-18 -2.0844878)
(306.52519 3.291652e-16 -2.5164065)
(305.50324 -4.1547778e-17 -1.5213929)
(305.73413 2.171137e-16 -1.8329017)
(304.97365 2.5070923e-16 -1.1308261)
(305.13948 -3.7383497e-16 -1.3375165)
(304.60798 3.0717965e-16 -0.89457126)
(304.71241 -2.3583428e-16 -1.0153319)
(304.37892 -1.9197092e-17 -0.78410167)
(304.44138 -6.2056768e-16 -0.83398864)
(304.25966 1.0206116e-17 -0.77459626)
(304.27896 3.0463017e-16 -0.77139339)
(304.23568 0 -0.82511964)
(304.21413 0 -0.82102473)
(304.27084 2.0888507e-16 -0.90087253)
(304.2159 3.4193031e-16 -0.93744985)
(304.33381 2.4361204e-16 -0.99459585)
(304.26631 -4.7237776e-16 -1.0368332)
(304.41547 2.2764672e-16 -1.0838049)
(304.34962 -2.1618773e-17 -1.109916)
(304.51314 3.1791639e-16 -1.1260496)
(304.44979 2.7744825e-16 -1.1605854)
(304.61471 -7.6242322e-18 -1.0744477)
(304.56545 1.1535564e-17 -1.1422303)
(304.73192 -9.501282e-18 -0.95077979)
(304.68445 -1.7026925e-17 -0.95326234)
(304.84816 -8.3340152e-18 -0.78471907)
(304.86895 -3.9786861e-16 -0.66387206)
(304.91994 1.871658e-18 -0.52429187)
(304.94944 -3.135254e-16 -0.40904764)
(304.97716 8.1665037e-18 -0.26237474)
(304.97118 -2.0342805e-16 -0.24674552)
(304.98948 -4.1183526e-18 -0.2920318)
(216.37019 -1.9723205e-17 -2.4363184)
(200.41904 -4.1769313e-17 -3.0325503)
(248.21967 3.3456317e-17 -2.9204969)
(237.41896 3.1311973e-17 -3.1277479)
(273.01048 -1.9810981e-17 -3.3777304)
(263.282 0 -3.7910483)
(296.77152 -2.4834849e-17 -3.8857843)
(287.02285 8.6865557e-19 -4.1471407)
(316.27707 1.3418633e-17 -4.3700702)
(310.75898 -1.8175603e-17 -5.227609)
(322.89926 5.2048185e-18 -4.5354396)
(324.2413 1.5991941e-17 -4.6777229)
(322.65626 -2.013355e-18 -4.5653316)
(321.55315 -1.351789e-17 -5.992364)
(323.10064 -6.0781846e-18 -4.6077321)
(324.03824 3.4372632e-17 -4.3135708)
(322.60337 -4.3389165e-18 -4.6480902)
(322.03945 -4.2799694e-17 -6.3651555)
(322.79003 1.384986e-17 -4.7025454)
(323.33334 1.1269684e-17 -4.3074513)
(322.49569 -9.3512585e-18 -4.7669665)
(322.20536 4.6352999e-19 -6.4176335)
(322.55385 -2.3295073e-18 -4.8429725)
(322.8971 5.4286373e-18 -4.6134858)
(322.32979 3.837571e-18 -4.9390228)
(322.21418 9.6739569e-18 -6.3356167)
(322.29966 1.6621023e-17 -5.0487995)
(322.52607 1.5044149e-17 -5.0881302)
(322.11227 2.8879429e-17 -5.1876365)
(322.10377 1.3004362e-17 -6.2907668)
(322.00604 1.0681793e-17 -5.3436527)
(322.18171 2.0590318e-17 -5.6234697)
(321.79905 -3.5663027e-17 -5.5323096)
(321.86101 1.0033232e-17 -6.3933376)
(321.6089 -1.3640272e-17 -5.7422547)
(321.76576 -3.7526268e-17 -6.1773745)
(321.34267 -3.4673099e-17 -6.0010102)
(321.46078 6.5871485e-18 -6.7007493)
(321.06078 -2.6026673e-17 -6.2929387)
(321.21663 -1.9928517e-17 -6.8123509)
(320.69994 9.3354728e-18 -6.6632785)
(320.84678 -2.6686239e-17 -7.2895266)
(320.23336 0 -7.0823689)
(320.44753 5.8608477e-17 -7.629131)
(319.61166 0 -7.5134638)
(319.90632 -1.2285223e-17 -8.0953096)
(318.84748 5.9505081e-17 -7.883469)
(319.22536 1.0084271e-17 -8.4694222)
(317.91428 1.7094898e-16 -8.1765073)
(318.35833 -2.1475191e-18 -8.8145009)
(316.78087 2.0140726e-16 -8.3139113)
(317.29647 -3.4396347e-18 -9.0037752)
(315.45495 4.1249913e-17 -8.2178051)
(316.02623 -1.4357208e-17 -8.9825869)
(313.97456 -7.7900359e-17 -7.8358106)
(314.57899 -4.5204904e-17 -8.6620598)
(312.41344 -8.2406742e-18 -7.165591)
(313.01753 -1.5053028e-17 -8.0285388)
(310.86196 0 -6.2624206)
(311.43376 1.8666364e-16 -7.1179142)
(309.40591 -1.384281e-17 -5.2249335)
(309.91961 9.8604205e-18 -6.0271778)
(308.10975 -3.5159995e-16 -4.1675154)
(308.55057 -1.5407076e-17 -4.876247)
(307.01019 -1.4794203e-16 -3.1910864)
(307.37248 -1.7665409e-16 -3.7809265)
(306.11878 5.5098543e-16 -2.3648654)
(306.40421 -3.0962409e-16 -2.8262601)
(305.42931 -4.9812054e-17 -1.7234946)
(305.64299 2.4388141e-16 -2.0585613)
(304.92093 -8.7238532e-16 -1.2717609)
(305.07368 -6.276577e-18 -1.4973309)
(304.5718 -1.1167007e-15 -0.98836637)
(304.66627 -5.4482969e-16 -1.1234316)
(304.35496 -4.0046024e-16 -0.84347068)
(304.41094 2.3020205e-16 -0.90282997)
(304.24121 3.2851371e-16 -0.81069003)
(304.25808 2.667515e-16 -0.81542783)
(304.21855 3.0264815e-16 -0.84725534)
(304.19514 -4.3834347e-16 -0.84612544)
(304.25616 -2.4544053e-16 -0.91290428)
(304.20211 2.9264048e-17 -0.94882684)
(304.3259 -7.8841912e-16 -0.98408922)
(304.25525 -2.2099331e-16 -1.0368285)
(304.41528 -6.4173505e-18 -1.049617)
(304.33957 -1.0778779e-17 -1.1029456)
(304.49706 1.4358358e-18 -1.1383847)
(304.44338 -7.9101253e-18 -1.151258)
(304.61347 5.2813554e-18 -1.0535315)
(304.55781 9.7968899e-20 -1.1217335)
(304.73467 -3.636696e-16 -0.93748169)
(304.69494 -1.0591769e-19 -0.92247198)
(304.8546 -7.1573362e-16 -0.74214784)
(304.87104 -1.9236612e-17 -0.63689028)
(304.91874 -5.2888759e-16 -0.50088486)
(304.9453 -7.1715304e-18 -0.39689439)
(304.97354 -2.3913593e-16 -0.25563458)
(304.964 -1.7687366e-19 -0.24136865)
(304.98702 -1.6457176e-16 -0.2833743)
(218.08244 2.3500386e-18 -3.3824273)
(202.04389 1.3260848e-18 -3.9182178)
(250.11967 1.0628547e-18 -4.0067244)
(239.21484 -6.3024811e-17 -4.1753492)
(275.11777 2.0133143e-17 -4.5753461)
(265.28447 5.277474e-17 -4.9560389)
(298.83786 8.8544542e-18 -5.1923358)
(289.26328 -2.3638546e-17 -5.4062687)
(317.48279 -1.8317837e-17 -5.7298889)
(312.5358 1.7908413e-17 -6.6382418)
(323.13352 0 -5.8940711)
(324.58024 4.1995402e-18 -5.9908491)
(322.7073 1.8296332e-17 -5.9212231)
(321.57859 -3.5370055e-18 -7.4194336)
(323.15511 4.5187227e-18 -5.9668383)
(324.09228 4.3428293e-17 -5.6193601)
(322.65582 -3.1786567e-17 -6.007982)
(322.07029 -3.3643944e-17 -7.7913791)
(322.84663 -9.6240607e-19 -6.0662842)
(323.38939 -1.1842654e-17 -5.6323115)
(322.55184 1.4517598e-17 -6.1345632)
(322.24625 1.3154519e-17 -7.8359309)
(322.61405 1.6827674e-17 -6.2161653)
(322.95421 -1.1378985e-17 -5.9662626)
(322.3909 2.0204521e-17 -6.3184593)
(322.26501 1.8285007e-17 -7.7442764)
(322.36272 1.1670872e-17 -6.4343372)
(322.581 -4.7704992e-20 -6.4701445)
(322.17593 4.2769093e-18 -6.5786175)
(322.15599 -4.8172567e-19 -7.6948928)
(322.06861 2.0798279e-17 -6.7401004)
(322.23154 -2.1674548e-17 -7.0248393)
(321.86168 1.2053101e-17 -6.9355181)
(321.90905 2.624894e-17 -7.8016515)
(321.67383 -2.1326225e-17 -7.1607286)
(321.81315 8.7971043e-18 -7.6082757)
(321.42451 2.3206456e-17 -7.4315366)
(321.50645 -3.2398534e-17 -8.1562413)
(321.14529 -2.003462e-17 -7.775657)
(321.27848 2.1001551e-17 -8.3106921)
(320.75248 1.4450338e-17 -8.1741723)
(320.90683 -3.4401744e-17 -8.8061863)
(320.24546 5.2593082e-17 -8.5953882)
(320.49263 5.7481537e-17 -9.1498139)
(319.60914 -4.323662e-18 -8.9883076)
(319.91627 -7.4146227e-17 -9.5990455)
(318.82918 -4.9417054e-17 -9.34048)
(319.20531 1.0279413e-16 -9.9566203)
(317.85302 -1.7348242e-16 -9.5888665)
(318.29877 -1.3505784e-16 -10.266225)
(316.6731 -2.1475056e-16 -9.6504547)
(317.18863 3.9092399e-18 -10.390018)
(315.29845 -9.6609497e-17 -9.44491)
(315.86735 -8.2753259e-18 -10.266818)
(313.77912 1.388563e-17 -8.9233959)
(314.37515 1.8640743e-17 -9.8110813)
(312.19523 1.5787735e-16 -8.0945513)
(312.78389 2.4327825e-16 -9.0182179)
(310.64036 2.137933e-16 -7.0281447)
(311.1905 -1.7238606e-17 -7.939751)
(309.19842 1.0847602e-17 -5.8362232)
(309.68659 9.7498008e-18 -6.6872957)
(307.92879 1.7440465e-16 -4.6420251)
(308.34311 0 -5.3915813)
(306.86179 -3.2331451e-16 -3.550227)
(307.19913 2.0703669e-16 -4.1733426)
(306.00348 -6.7272418e-16 -2.630038)
(306.26714 -3.2546701e-16 -3.1181054)
(305.34384 3.1404802e-16 -1.9141716)
(305.53979 1.4658389e-17 -2.2704493)
(304.8598 3.7792431e-16 -1.4044689)
(304.99903 -4.8475093e-18 -1.647084)
(304.52968 7.1059589e-16 -1.0763837)
(304.61383 2.6862999e-16 -1.2243431)
(304.32688 8.906306e-16 -0.89908573)
(304.37606 3.9415624e-16 -0.96693516)
(304.22027 -4.1878673e-16 -0.84457366)
(304.23394 -2.9736667e-16 -0.85646108)
(304.20004 -7.644614e-16 -0.8699784)
(304.1751 -1.1884199e-17 -0.870913)
(304.24081 8.3201754e-17 -0.92608931)
(304.18817 -3.3207233e-16 -0.95867674)
(304.31352 5.3404146e-16 -0.98420538)
(304.244 4.8700377e-16 -1.0360483)
(304.40548 -1.2028331e-17 -1.0432012)
(304.32954 -2.9480087e-20 -1.0952887)
(304.48991 -1.0189016e-17 -1.124069)
(304.43559 1.5695906e-17 -1.1404083)
(304.61353 -5.2556199e-18 -1.0299765)
(304.55006 3.4309956e-16 -1.0974605)
(304.74159 3.4917675e-16 -0.90828592)
(304.70576 8.4572527e-18 -0.89079139)
(304.85799 6.9782859e-16 -0.70651297)
(304.87261 3.8510934e-16 -0.6116172)
(304.91729 5.3027305e-16 -0.48016209)
(304.94182 3.1271213e-16 -0.38543943)
(304.97051 9.5091198e-17 -0.2488669)
(304.95763 2.1397666e-16 -0.23608829)
(304.98456 -7.0119868e-18 -0.27456697)
(219.77275 -5.7490257e-17 -4.3517099)
(203.63553 8.9086501e-17 -4.8347732)
(251.99871 -2.1501029e-17 -5.1177667)
(240.97737 -1.2543408e-16 -5.2485022)
(277.23609 1.5953079e-17 -5.80098)
(267.2634 -2.097541e-18 -6.1528309)
(300.84043 -1.8029242e-17 -6.5274405)
(291.55515 1.7597814e-18 -6.7015985)
(318.53215 4.097538e-17 -7.1085699)
(314.11503 7.3804371e-17 -8.0782915)
(323.30188 1.3468678e-18 -7.2701535)
(324.83466 -3.4235578e-17 -7.322525)
(322.74067 1.735286e-17 -7.2957224)
(321.59325 2.8822257e-17 -8.8719703)
(323.1931 1.2155564e-17 -7.3468096)
(324.13767 -8.0074025e-19 -6.9468232)
(322.69356 -1.5861815e-17 -7.3904409)
(322.09004 -1.4375272e-17 -9.2439675)
(322.88927 0 -7.4541526)
(323.43474 -8.2966862e-18 -6.982545)
(322.59422 -1.022689e-17 -7.5268632)
(322.27347 -2.6982403e-20 -9.2799525)
(322.66046 -1.2286973e-17 -7.6133917)
(322.99498 3.7359922e-19 -7.3439845)
(322.43751 -5.3380439e-20 -7.7211663)
(322.29989 -1.9252842e-17 -9.1741281)
(322.40935 -1.1897668e-17 -7.8424356)
(322.61771 -7.7259184e-20 -7.8739538)
(322.22248 -2.4168958e-17 -7.990456)
(322.1861 -1.2916191e-17 -9.1195333)
(322.11574 -2.0187613e-17 -8.1629553)
(322.26647 -1.0792785e-17 -8.4556105)
(321.91774 2.4475216e-17 -8.3691382)
(321.93859 9.58766e-18 -9.2479862)
(321.74821 1.2966456e-18 -8.6195942)
(321.84849 3.756326e-17 -9.0937627)
(321.49564 -3.8959498e-17 -8.9437582)
(321.55997 -1.7885687e-17 -9.671057)
(321.18229 1.1518534e-17 -9.3101279)
(321.32484 1.0417627e-17 -9.8529469)
(320.75656 1.6828682e-20 -9.7133019)
(320.94271 4.5289778e-17 -10.346751)
(320.239 -5.5599868e-17 -10.107088)
(320.49616 -6.7873884e-17 -10.687604)
(319.59088 1.5680786e-17 -10.496185)
(319.89646 -1.0601924e-17 -11.128724)
(318.77115 3.9600547e-17 -10.823685)
(319.1496 9.1405213e-17 -11.471842)
(317.7505 2.695648e-17 -11.020678)
(318.1982 -1.4639275e-16 -11.738851)
(316.51853 2.0825207e-16 -10.996038)
(317.03506 1.050054e-16 -11.787481)