/*--------------------------------*- C++ -*----------------------------------*\
  =========                 |
  \\      /  F ield         | OpenFOAM: The Open Source CFD Toolbox
   \\    /   O peration     | Website:  https://openfoam.org
    \\  /    A nd           | Version:  8
     \\/     M anipulation  |
\*---------------------------------------------------------------------------*/
FoamFile
{
    version     2.0;
    format      ascii;
    class       volScalarField;
    location    "0.0800043";
    object      T;
}
// * * * * * * * * * * * * * * * * * * * * * * * * * * * * * * * * * * * * * //

dimensions      [0 0 0 1 0 0 0];

internalField   nonuniform List<scalar> 
20000
(
295.87889
295.60136
294.4032
291.81749
286.81762
279.52768
278.45693
278.0813
278.74541
278.62923
279.10558
279.16053
279.56207
279.75122
280.14739
280.45834
280.90349
281.34075
281.87841
282.45845
283.1294
283.87148
284.701
285.61237
286.60384
287.72629
288.95966
290.2336
291.4969
292.70785
293.82464
294.81577
295.66177
296.36151
296.92236
297.35994
297.69629
297.94564
298.12252
298.25578
298.37002
298.44868
298.49836
298.52523
298.52667
298.507
298.38875
298.23635
298.12066
298.10019
295.70177
295.29824
293.97888
291.2044
285.7799
278.72775
278.10993
277.72165
278.3893
278.27298
278.75243
278.80966
279.2148
279.40941
279.81021
280.1298
280.58236
281.03235
281.58303
282.18056
282.86856
283.62876
284.47854
285.4235
286.49787
287.68846
288.94012
290.22923
291.51035
292.73949
293.86509
294.85687
295.69879
296.39183
296.94595
297.37805
297.71121
297.95767
298.13229
298.26706
298.38935
298.46851
298.51292
298.53205
298.54149
298.5092
298.35282
298.20496
298.13957
298.09925
295.50021
294.97235
293.52408
290.56232
284.67983
277.96045
277.75156
277.36605
278.04079
277.92355
278.40872
278.46917
278.8788
279.08046
279.48671
279.81704
280.2787
280.74396
281.30885
281.92432
282.62916
283.41009
284.28953
285.28333
286.41438
287.65325
288.93965
290.25806
291.56527
292.80671
293.93554
294.92271
295.75576
296.43822
296.98223
297.40595
297.73283
297.97358
298.1443
298.28031
298.4019
298.47573
298.51751
298.53702
298.54648
298.50551
298.33638
298.20509
298.14009
298.09873
295.32396
294.65976
293.07363
289.9331
283.58897
277.30242
277.42759
277.03529
277.71559
277.59784
278.08729
278.15115
278.56485
278.77379
279.18551
279.52696
279.99797
280.4781
281.05591
281.68742
282.40901
283.2168
284.14017
285.20192
286.38756
287.65156
288.96606
290.31675
291.64468
292.896
294.02421
295.00307
295.82382
296.49278
297.02433
297.43799
297.75743
297.99163
298.15824
298.29661
298.41731
298.48767
298.52552
298.54294
298.55315
298.49676
298.3162
298.19804
298.1434
298.09821
295.1318
294.33834
292.60421
289.29048
282.50254
276.72963
277.11897
276.72309
277.40924
277.29186
277.78617
277.85437
278.27232
278.48944
278.90712
279.2606
279.74127
280.23608
280.82613
281.47474
282.21968
283.06903
284.05535
285.16895
286.37904
287.67079
289.02968
290.41076
291.75748
293.01388
294.13658
295.10252
295.90687
296.55894
297.07524
297.4766
297.78665
298.01267
298.17443
298.31431
298.43146
298.49824
298.53323
298.54817
298.55764
298.48239
298.30361
298.19576
298.14349
298.09803
295.01169
294.0339
292.13552
288.64203
281.45187
276.24192
276.83701
276.43655
277.12847
277.01177
277.51047
277.58347
278.00557
278.23159
278.65533
279.02097
279.51037
280.01907
280.62299
281.29508
282.07681
282.98474
284.02002
285.16022
286.39761
287.73436
289.13004
290.53897
291.89968
293.15663
294.26903
295.21772
296.00196
296.63412
297.1328
297.52004
297.81925
298.03608
298.19266
298.33295
298.44583
298.50945
298.54225
298.55394
298.56033
298.46477
298.29209
298.19221
298.14375
298.09791
294.8336
293.71314
291.64944
287.96946
280.45142
275.82872
276.57902
276.17561
276.87334
276.75805
277.26141
277.34011
277.76652
278.00215
278.43198
278.8096
279.3073
279.8315
280.45558
281.16377
281.99841
282.95001
284.00991
285.1749
286.45886
287.8364
289.26937
290.70245
292.07269
293.32494
294.42196
295.34893
296.1093
296.71856
297.19726
297.56856
297.85541
298.06205
298.21304
298.352
298.45966
298.52
298.55127
298.5614
298.56195
298.44584
298.28209
298.18912
298.1434
298.09786
294.73063
293.42642
291.1706
287.27779
279.52687
275.48345
276.34994
275.94307
276.64682
276.53335
277.04161
277.12697
277.5576
277.80336
278.239
278.62922
279.13737
279.6834
280.33884
281.09679
281.96593
282.94047
284.02249
285.23454
286.56123
287.98133
289.44744
290.90044
292.27482
293.51695
294.59352
295.49444
296.22744
296.81105
297.26768
297.6214
297.8946
298.09037
298.23551
298.37126
298.47323
298.53038
298.56044
298.57017
298.56287
298.42677
298.27217
298.18568
298.14308
298.0978
294.60787
293.14457
290.68999
286.55037
278.68917
275.19416
276.14976
275.73922
276.4502
276.33907
276.85354
276.94652
277.38033
277.63664
278.07868
278.48512
279.01129
279.5917
280.28588
281.06965
281.95758
282.95355
284.08023
285.33507
286.70771
288.16799
289.66442
291.13241
292.5053
293.73162
294.78263
295.65325
296.35555
296.91094
297.34358
297.6782
297.93654
298.121
298.26004
298.39071
298.48649
298.5405
298.56972
298.5793
298.56336
298.40807
298.26267
298.18228
298.14267
298.09772
294.53765
292.89487
290.22947
285.79376
277.95644
274.9598
275.99185
275.56954
276.29216
276.17949
276.70388
276.80446
277.23645
277.50566
277.9575
278.38729
278.94277
279.55351
280.26442
281.06513
281.97358
283.0112
284.17891
285.48081
286.89803
288.39689
289.91935
291.39688
292.76224
293.96698
294.98744
295.82378
296.49231
297.01721
297.42416
297.73835
297.98079
298.15368
298.28659
298.41068
298.49968
298.55026
298.57855
298.58818
298.56041
298.39022
298.25355
298.17892
298.14223
298.09757
294.45835
292.66201
289.78553
285.00502
277.3416
274.77723
275.86998
275.43681
276.17317
276.05936
276.59311
276.69439
277.13042
277.4177
277.88808
278.34418
278.91424
279.54107
280.26327
281.08693
282.0323
283.10911
284.3227
285.67108
287.13269
288.66729
290.21127
291.69243
293.04396
294.2213
295.20636
296.00463
296.63658
297.12896
297.50874
297.80133
298.02699
298.18809
298.31485
298.43151
298.51317
298.55962
298.58632
298.59561
298.55337
298.37347
298.245
298.17569
298.14173
298.09736
294.42268
292.46552
289.37398
284.19255
276.84207
274.6432
275.76642
275.34137
276.07958
275.97663
276.49234
276.61234
277.07198
277.37886
277.85868
278.32819
278.90639
279.54592
280.29191
281.1495
282.13093
283.25151
284.51101
285.90661
287.41102
288.97808
290.5383
292.01677
293.34804
294.49228
295.43734
296.19409
296.787
297.24513
297.59653
297.86655
298.07473
298.22384
298.34426
298.45323
298.5274
298.56895
298.59278
298.60179
298.5417
298.35811
298.23701
298.17256
298.14107
298.09706
294.40164
292.2876
288.98219
283.34967
276.43543
274.545
275.69411
275.2814
276.0101
275.92418
276.44303
276.58147
277.04681
277.36481
277.84929
278.32938
278.91872
279.5852
280.35913
281.25122
282.27276
283.43767
284.74463
286.18703
287.7325
289.32803
290.89876
292.36783
293.67232
294.77787
295.67856
296.39063
296.94232
297.36476
297.68679
297.93347
298.12364
298.26057
298.37419
298.47542
298.54251
298.57884
298.59827
298.60575
298.52678
298.34411
298.22952
298.16948
298.14025
298.09667
294.41122
292.12968
288.60929
282.49526
276.12316
274.47629
275.64198
275.23717
275.96943
275.88446
276.42196
276.5681
277.03888
277.36611
277.85573
278.3567
278.9674
279.66074
280.4653
281.39476
282.45744
283.66835
285.0231
286.51167
288.09561
289.71499
291.28992
292.74271
294.01399
295.07551
295.92784
296.59247
297.10115
297.48681
297.77875
298.00153
298.17337
298.29795
298.40403
298.49731
298.55811
298.58974
298.60427
298.60801
298.50917
298.33095
298.22237
298.16644
298.13932
298.09618
294.42626
291.97591
288.23884
281.61525
275.89223
274.43644
275.61916
275.2049
275.9569
275.8829
276.42119
276.57323
277.04592
277.39128
277.89561
278.41944
279.05157
279.77499
280.61185
281.57984
282.68545
283.94323
285.34615
286.87983
288.49915
290.13717
291.70957
293.13898
294.37063
295.38301
296.18329
296.79805
297.26228
297.61033
297.87169
298.07022
298.22359
298.33567
298.43335
298.51814
298.57352
298.60161
298.61252
298.60946
298.49027
298.31807
298.21546
298.16343
298.13828
298.09559
294.45691
291.833
287.87119
280.74625
275.73296
274.42188
275.6213
275.21728
275.9635
275.89241
276.44128
276.61574
277.08494
277.45122
277.96996
278.51816
279.17388
279.92796
280.79867
281.80665
282.95634
284.26181
285.71282
287.28994
288.94087
290.59166
292.15441
293.55332
294.73919
295.69768
296.4427
297.00565
297.42438
297.73435
297.96487
298.13899
298.27398
298.37349
298.46184
298.53745
298.58823
298.61392
298.6235
298.61052
298.47073
298.3055
298.20884
298.16053
298.13719
298.09488
294.4991
291.69719
287.49994
279.90014
275.63876
274.45117
275.64682
275.23136
275.99703
275.92497
276.49728
276.68123
277.16019
277.54699
278.08077
278.65358
279.33358
280.11959
281.02557
282.07471
283.26979
284.6236
286.12242
287.74091
289.41908
291.0762
292.62186
293.98306
295.11709
296.01727
296.70421
297.21384
297.58639
297.85801
298.05762
298.20739
298.32424
298.41119
298.48944
298.55534
298.60207
298.62641
298.63562
298.61018
298.45105
298.2934
298.20262
298.15782
298.13607
298.09411
294.56738
291.58578
287.13625
279.1138
275.61425
274.51927
275.70711
275.31521
276.05831
276.02377
276.57422
276.78026
277.27021
277.67714
278.22633
278.82462
279.5303
280.34925
281.29193
282.38344
283.62499
285.02756
286.57349
288.23058
289.93091
291.58735
293.10826
294.4246
295.50108
296.33906
296.96575
297.42109
297.74719
297.98047
298.14927
298.27493
298.37411
298.44859
298.51617
298.57233
298.6149
298.63807
298.6476
298.6068
298.43176
298.28204
298.1969
298.15535
298.13492
298.09323
294.66227
291.4975
286.77139
278.41276
275.6432
274.59299
275.78892
275.40355
276.15455
276.13078
276.68938
276.91459
277.4116
277.84004
278.40588
279.03058
279.7632
280.61628
281.59707
282.73226
284.02137
285.47315
287.06508
288.75758
290.47426
292.12258
293.61072
294.87507
295.88851
296.66096
297.22578
297.62625
297.90588
298.10102
298.23924
298.34123
298.42335
298.48548
298.54208
298.58918
298.62691
298.64781
298.65672
298.60001
298.41344
298.27162
298.19175
298.1531
298.13375
298.09225
294.77177
291.42525
286.39191
277.81379
275.74877
274.69505
275.89875
275.52941
276.28564
276.27892
276.83388
277.07769
277.58427
278.03508
278.61856
279.27056
280.03149
280.91984
281.94024
283.12036
284.45803
285.95904
287.59539
289.31923
291.04577
292.67795
294.12521
295.33062
296.27627
296.98069
297.48268
297.82804
298.06143
298.21887
298.32694
298.4059
298.47176
298.52165
298.56709
298.60627
298.63872
298.65555
298.66314
298.59013
298.39659
298.26234
298.18715
298.15089
298.13256
298.09116
294.89133
291.36902
285.99508
277.27765
275.84989
274.83518
276.04458
275.68015
276.44439
276.4463
277.00754
277.27132
277.78728
278.26118
278.86345
279.54363
280.33431
281.2592
282.32085
283.54725
284.93453
286.48467
288.16337
289.91384
291.64303
293.25051
294.64859
295.78834
296.66223
297.29691
297.73538
298.02542
298.21284
298.3333
298.41196
298.46873
298.51916
298.55685
298.59103
298.62342
298.65088
298.66295
298.66668
298.57664
298.3815
298.25425
298.18313
298.14871
298.13131
298.08995
295.02165
291.33119
285.5842
276.83022
276.01219
275.00025
276.21731
275.86029
276.62974
276.64525
277.20907
277.49336
278.01959
278.51736
279.13959
279.84892
280.67086
281.63368
282.73821
284.01227
285.44991
287.04861
288.76682
290.53827
292.26213
293.83596
295.17659
296.24489
297.04438
297.60824
297.98247
298.21702
298.35895
298.44349
298.49391
298.52956
298.56538
298.59077
298.61366
298.63979
298.66367
298.67234
298.66862
298.55981
298.36817
298.24723
298.17985
298.1471
298.13003
298.0886
295.15174
291.30258
285.15577
276.46246
276.19038
275.19138
276.41561
276.0655
276.83671
276.86933
277.43704
277.74307
278.28017
278.80272
279.44607
280.18561
281.0405
282.04281
283.19209
284.51518
286.00396
287.65023
289.40451
291.1904
292.90024
294.43102
295.70617
296.69847
297.42191
297.91367
298.2225
298.40159
298.49892
298.5488
298.57252
298.58831
298.6101
298.62308
298.63494
298.65474
298.67685
298.6847
298.66962
298.54083
298.35556
298.24105
298.17729
298.146
298.12875
298.08711
295.28097
291.28485
284.71903
276.17
276.41429
275.40579
276.63673
276.29559
277.0672
277.11926
277.69095
278.01929
278.56827
279.11621
279.78214
280.55313
281.44277
282.4863
283.68209
285.05553
286.59567
288.28792
290.07371
291.86658
293.55286
295.03109
296.23384
297.14741
297.79342
298.21082
298.45312
298.57778
298.63242
298.6489
298.64755
298.64484
298.65283
298.65332
298.65506
298.66827
298.69004
298.69842
298.67019
298.52025
298.34321
298.23546
298.17529
298.14519
298.12749
298.08546
295.39608
291.27144
284.27443
275.96948
276.6449
275.64242
276.87851
276.5499
277.3213
277.39395
277.96961
278.32123
278.88289
279.45713
280.14725
280.95107
281.87751
282.96411
284.20832
285.6333
287.22492
288.96085
290.77286
292.56412
294.2167
295.63299
296.75797
297.59121
298.15675
298.49632
298.67261
298.74501
298.75977
298.74431
298.71877
298.69883
298.69293
298.6811
298.67445
298.68094
298.70174
298.71104
298.66739
298.49849
298.33082
298.23014
298.17363
298.14454
298.12631
298.08365
295.50208
291.26521
283.83629
275.85942
276.90423
275.90318
277.13874
276.82716
277.59817
277.6922
278.27214
278.64789
279.2234
279.82504
280.54118
281.37943
282.34479
283.47631
284.77065
286.24808
287.89057
289.66697
291.49857
293.27864
294.88692
296.233
297.27692
298.02757
298.50694
298.76769
298.8799
298.90375
298.8812
298.83509
298.78601
298.74968
298.7298
298.70615
298.69328
298.69366
298.71085
298.7189
298.66109
298.47607
298.31835
298.22478
298.17235
298.14465
298.1252
298.08167
295.59667
291.25514
283.4087
275.83204
277.17913
276.18427
277.41963
277.12583
277.89608
278.01311
278.5978
278.99884
279.58961
280.21988
280.964
281.83838
282.84485
284.02328
285.3694
286.90003
288.59234
290.40518
292.24859
294.00689
295.56026
296.82945
297.79026
298.45202
298.84083
299.02342
299.07619
299.05605
298.99552
298.92042
298.84947
298.79713
298.76346
298.7287
298.71091
298.70699
298.71866
298.72327
298.65099
298.45391
298.30622
298.21933
298.17076
298.14522
298.12395
298.07954
295.6732
291.23343
283.00518
275.88253
277.47274
276.48577
277.72001
277.44608
278.21513
278.35649
278.94657
279.37404
279.98165
280.6419
281.41606
282.32835
283.37812
284.60526
286.00455
287.58861
289.32878
291.17264
293.01868
294.74388
296.23257
297.42047
298.29481
298.85885
299.15513
299.26449
299.26447
299.19884
299.10274
299.00021
298.90871
298.84129
298.79369
298.7491
298.72697
298.72071
298.72765
298.72554
298.63621
298.43311
298.29498
298.21421
298.16896
298.14498
298.12255
298.07728
295.74055
291.19942
282.64145
276.00532
277.78329
276.8082
278.04024
277.7871
278.55539
278.72206
279.31876
279.77372
280.40007
281.09147
281.89783
282.84983
283.94514
285.2228
286.67655
288.31394
290.09929
291.96757
293.80584
295.48627
296.90188
298.00554
298.78467
299.24477
299.44975
299.49517
299.44161
299.33271
299.20265
299.07441
298.96382
298.88203
298.82048
298.76752
298.74181
298.73393
298.73922
298.72649
298.61671
298.41438
298.28493
298.20953
298.16705
298.1445
298.12124
298.07491
295.78812
291.14339
282.32386
276.18766
278.11077
277.15026
278.37929
278.14921
278.91681
279.11074
279.71471
280.19858
280.84516
281.56915
282.40989
283.40349
284.54645
285.87625
287.38531
289.07517
290.90172
292.78616
294.60507
296.22949
297.56578
298.58115
299.25315
299.60665
299.72862
299.71373
299.60727
299.45707
299.29527
299.143
299.01471
298.91929
298.84403
298.7841
298.75557
298.74652
298.75138
298.72658
298.59342
298.39769
298.27601
298.2053
298.16508
298.14385
298.12002
298.07244
295.82634
291.06162
282.06659
276.42706
278.4578
277.51275
278.73891
278.53332
279.30061
279.52288
280.13523
280.6489
281.31753
282.07555
282.95283
283.99009
285.18274
286.56627
288.13124
289.87224
291.73475
293.62579
295.41294
296.97118
298.22363
299.14072
299.69658
299.94521
299.99566
299.91784
299.76124
299.57218
299.38064
299.20608
299.06143
298.95291
298.86492
298.79928
298.76816
298.75762
298.76119
298.72297
298.56865
298.38206
298.26793
298.20145
298.16315
298.14312
298.11869
298.06993
295.86401
290.94977
281.87317
276.71909
278.82441
277.89691
279.11974
278.94038
279.70704
279.95882
280.58066
281.12508
281.81777
282.61128
283.52755
284.61037
285.85465
287.29311
288.91412
290.70361
292.59525
294.48154
296.22459
297.70815
298.87224
299.67638
300.11155
300.26598
300.24677
300.10767
299.9035
299.678
299.45886
299.26372
299.10394
298.98266
298.88379
298.81359
298.77985
298.76675
298.76658
298.71643
298.54359
298.36728
298.26042
298.19791
298.16137
298.14234
298.11713
298.06742
295.89579
290.81205
281.75406
277.05736
279.21166
278.30389
279.52202
279.37022
280.1363
280.41873
281.05133
281.6277
282.34662
283.17723
284.13482
285.26515
286.56291
288.05753
289.73418
291.56867
293.48088
295.35015
297.0371
298.43936
299.50516
300.18388
300.49913
300.57184
300.48055
300.28312
300.03424
299.77478
299.53012
299.3161
299.1423
299.00861
298.90085
298.8272
298.79127
298.77465
298.769
298.70699
298.51917
298.35333
298.25326
298.19451
298.15986
298.14154
298.11527
298.06496
295.92799
290.64886
281.71084
277.41758
279.61786
278.73218
279.94492
279.82241
280.58844
280.90306
281.54798
282.15764
282.90495
283.77439
284.77553
285.95529
287.30814
288.85973
290.59072
292.46491
294.38728
296.22633
297.84648
299.1619
300.11359
300.65888
300.8651
300.85889
300.69684
300.44427
300.15361
299.8627
299.59462
299.36336
299.17652
299.03099
298.9161
298.83972
298.80187
298.78219
298.76949
298.69486
298.49605
298.34034
298.24648
298.19125
298.1585
298.1407
298.11311
298.06249
295.95599
290.46369
281.74477
277.8069
280.04284
279.18183
280.38899
280.29799
281.0644
281.41282
282.0717
282.71577
283.49377
284.40355
285.45057
286.68163
288.09127
289.70035
291.48359
293.39059
295.31125
297.10688
298.65086
299.87108
300.69153
301.10141
301.21355
301.1252
300.89584
300.59149
300.26199
299.94214
299.65266
299.40569
299.20665
299.05009
298.92965
298.85082
298.81096
298.78938
298.76947
298.67956
298.47467
298.32841
298.24018
298.1882
298.1572
298.13972
298.11067
298.06001
295.97351
290.26515
281.85337
278.28103
280.48841
279.65494
280.85593
280.79818
281.56549
281.94868
282.62334
283.3029
284.11383
285.06571
286.16087
287.44516
288.91296
290.57937
292.41111
294.34188
296.24748
297.98716
299.44718
300.55687
301.23401
301.51716
301.54035
301.37077
301.07768
300.72504
300.3597
300.01339
299.70448
299.44317
299.23275
299.06639
298.94185
298.86071
298.81826
298.79412
298.76763
298.661
298.45528
298.31749
298.23432
298.18532
298.15594
298.13838
298.10798
298.0575
295.98283
290.06262
282.03774
278.71779
280.95656
280.15266
281.34609
281.32333
282.09224
282.51146
283.20348
283.91992
284.76593
285.76185
286.90754
288.24706
289.77425
291.49718
293.37221
295.31592
297.19246
298.86462
300.23289
301.21115
301.73888
301.91194
301.84331
301.59586
301.24292
300.84552
300.4473
300.07691
299.75034
299.47587
299.25504
299.08059
298.95319
298.86969
298.82379
298.79575
298.76284
298.6395
298.43793
298.30741
298.2288
298.18257
298.1547
298.13667
298.10508
298.055
295.97777
289.85814
282.29072
279.20522
281.4459
280.67349
281.85972
281.87365
282.6452
283.10153
283.81317
284.56738
285.45118
286.49334
287.69194
289.08855
290.67575
292.453
294.36375
296.30761
298.14098
299.73517
300.99803
301.828
302.2107
302.28262
302.12187
301.8007
301.39197
300.95338
300.5252
300.13296
299.79033
299.5039
299.274
299.09364
298.96404
298.87783
298.82811
298.79598
298.75514
298.61669
298.42165
298.29792
298.22354
298.17985
298.15343
298.13456
298.10201
298.05251
295.98019
289.66504
282.60003
279.71254
281.95617
281.21913
282.39725
282.45087
283.22476
283.7198
284.45296
285.24648
286.17095
287.26159
288.5156
289.971
291.6184
293.44629
295.38343
297.3132
299.08997
300.59666
301.73381
302.4034
302.65604
302.62686
302.3765
301.98603
301.52563
301.04935
300.59393
300.18181
299.8246
299.52762
299.29049
299.10642
298.97423
298.88475
298.8313
298.79553
298.74488
298.59362
298.40611
298.28892
298.21849
298.1771
298.15205
298.13205
298.09879
298.05005
295.98651
289.48625
282.96304
280.25127
282.48957
281.79102
282.95955
283.05496
283.8317
284.36668
285.12398
285.95871
286.92689
288.06858
289.38017
290.89568
292.60208
294.47486
296.42638
298.32717
300.03434
301.44212
302.43082
302.93809
303.07565
302.94263
302.60744
302.15238
301.6445
301.13391
300.65375
300.22361
299.85352
299.54792
299.30559
299.11885
298.98258
298.88922
298.83239
298.7948
298.73291
298.5709
298.3914
298.28044
298.21361
298.17424
298.1505
298.12919
298.09546
298.04762
296.00726
289.3279
283.3721
280.81543
283.04607
282.38875
283.54641
283.6856
284.467
285.04349
285.8281
286.70617
287.72112
288.91611
290.28737
291.86381
293.62698
295.53672
297.48907
299.34578
300.97141
302.26168
303.08451
303.43909
303.46629
303.23075
302.81563
302.30077
301.74947
301.20767
300.70502
300.25885
299.87805
299.56602
299.31969
299.12902
298.98684
298.89072
298.83228
298.79261
298.71918
298.54895
298.37766
298.27254
298.20893
298.17123
298.1487
298.126
298.09205
298.04525
296.04466
289.18788
283.80795
281.40609
283.62397
283.01169
284.15784
284.34434
285.13242
285.75256
286.56769
287.49113
288.55575
289.80635
291.23896
292.87613
294.69167
296.62773
298.56549
300.36333
301.89574
303.04368
303.6908
303.91201
303.82416
303.4914
303.00173
302.43193
301.84109
301.27094
300.74821
300.28854
299.89956
299.58253
299.33118
299.1335
298.98827
298.89087
298.83149
298.78908
298.70418
298.52807
298.36497
298.26525
298.20449
298.16812
298.14663
298.12254
298.08858
298.04293
296.11016
289.07478
284.35246
282.0201
284.22373
283.66227
284.79717
285.0346
285.83098
286.49635
287.34506
288.31596
289.43299
290.74132
292.23652
293.93334
295.79479
297.7445
299.65157
301.37595
302.79942
303.78132
304.25589
304.35316
304.1505
303.72576
303.16698
302.54693
301.92008
301.32441
300.78448
300.31426
299.91888
299.59604
299.33662
299.13534
298.98821
298.89028
298.83044
298.78403
298.68814
298.50843
298.35327
298.25855
298.20037
298.165
298.14431
298.11884
298.08507
298.04068
296.20881
289.00608
284.88954
282.66635
284.85177
284.34528
285.46716
285.75958
286.56507
287.27678
288.1624
289.18305
290.35533
291.72327
293.28149
295.03484
296.93291
298.88115
300.74116
302.37784
303.66918
304.46774
304.78597
304.75906
304.44514
303.93455
303.31223
302.64641
301.98702
301.36915
300.81549
300.33701
299.93463
299.603
299.33904
299.13562
298.98757
298.88929
298.82894
298.77737
298.67122
298.49011
298.34244
298.2522
298.19644
298.16218
298.14173
298.11493
298.08155
298.03849
296.36248
288.97323
285.46201
283.34609
285.50914
285.06122
286.17083
286.51779
287.337
288.0961
289.02262
290.09516
291.32507
292.75434
294.37502
296.1799
298.10291
300.03317
301.82987
303.36438
304.49464
305.10427
305.28285
305.1285
304.70951
304.1192
303.43873
302.73132
302.04308
301.40703
300.8426
300.35553
299.94307
299.60614
299.33975
299.13541
298.98646
298.88754
298.82642
298.769
298.6535
298.47312
298.33239
298.2462
298.19267
298.15947
298.13877
298.1109
298.07803
298.03638
296.55478
288.95611
286.08819
284.05783
286.19373
285.81225
286.9086
287.31383
288.14886
288.95783
289.92828
291.05491
292.34507
293.83648
295.51739
297.36576
299.29919
301.19372
302.91045
304.32152
305.26768
305.69686
305.74182
305.46178
304.94436
304.28071
303.5473
302.80257
302.08993
301.43962
300.86473
300.36579
299.94695
299.60723
299.33975
299.13416
298.98431
298.88495
298.82281
298.75889
298.63509
298.45745
298.32305
298.24048
298.18894
298.15671
298.1353
298.10677
298.07452
298.03434
296.80205
288.97238
286.75313
284.80764
286.91253
286.60134
287.68483
288.14947
289.0043
289.86446
290.88247
292.06537
293.41766
294.97132
296.70822
298.58971
300.51682
302.35788
303.97803
305.23766
305.98393
306.25377
306.15938
305.76032
305.1514
304.4206
303.63924
302.86196
302.12974
301.46668
300.87789
300.3706
299.94843
299.60735
299.33834
299.13149
298.98111
298.88161
298.81794
298.74713
298.61623
298.44299
298.31429
298.2349
298.18512
298.15383
298.13155
298.10254
298.07106
298.03238
297.10332
289.01399
287.46021
285.5956
287.66608
287.43056
288.50189
289.02847
289.90646
290.8195
291.88833
293.12989
294.54546
296.1598
297.9457
299.8464
301.74863
303.51749
305.02186
306.10032
306.64783
306.76917
306.53606
306.02496
305.33176
304.53991
303.71596
302.91164
302.16332
301.48445
300.88411
300.37254
299.94861
299.60581
299.33535
299.12758
298.97689
298.87745
298.81175
298.73392
298.59735
298.42953
298.30599
298.22939
298.18113
298.15075
298.12759
298.09825
298.06764
298.03049
297.46596
289.09075
288.2099
286.42805
288.45849
288.30423
289.36382
289.95396
290.85916
291.82648
292.94985
294.25124
295.73033
297.40192
299.2272
301.13085
302.9888
304.66647
306.02846
306.90299
307.26785
307.24035
306.87295
306.25762
305.48722
304.64032
303.7797
302.95357
302.1883
301.49305
300.88678
300.37281
299.94677
299.60243
299.3309
299.12255
298.97173
298.87243
298.80422
298.71957
298.57895
298.41676
298.29801
298.22388
298.17693
298.14747
298.12334
298.09393
298.06427
298.02868
297.89339
289.20613
289.00315
287.30658
289.29202
289.22478
290.27359
290.92923
291.86633
292.88965
294.07026
295.43262
296.97375
298.69655
300.54787
302.43539
304.22869
305.79535
306.98262
307.644
307.84408
307.66466
307.17108
306.45955
305.61914
304.72364
303.8326
302.98704
302.20099
301.4969
300.88727
300.37061
299.9428
299.59737
299.32511
299.11649
298.96574
298.86651
298.7954
298.70439
298.56122
298.40459
298.29032
298.21842
298.17256
298.144
298.1189
298.0896
298.06098
298.02694
298.38163
289.38516
289.83836
288.23586
290.17101
290.19738
291.23485
291.95904
292.93245
294.01371
295.25293
296.67603
298.27616
300.04124
301.90258
303.7533
305.46064
306.89147
307.87493
308.33157
308.37264
308.04393
307.43253
306.63295
305.72971
304.79262
303.87624
303.00757
302.20694
301.49806
300.88494
300.36597
299.93693
299.5908
299.31811
299.10942
298.95903
298.85967
298.78537
298.68864
298.54422
298.39296
298.28285
298.21303
298.16819
298.14031
298.1143
298.08528
298.05775
298.02528
298.92478
289.62556
290.71844
289.21931
291.1029
291.22287
292.25701
293.04695
294.06288
295.20145
296.50066
297.98382
299.63704
301.43176
303.28332
305.07524
306.67404
307.93717
308.69799
308.97189
308.84815
308.37889
307.65875
306.77947
305.82098
304.84941
303.90878
303.01785
302.20938
301.49601
300.87967
300.3591
299.92932
299.58285
299.31
299.10146
298.95159
298.8519
298.77424
298.67257
298.52799
298.38181
298.2756
298.20777
298.1639
298.13639
298.10958
298.08099
298.0546
298.02369
299.53263
289.9536
291.64462
290.26573
292.09061
292.30876
293.34324
294.1985
295.26006
296.45667
297.81644
299.35641
301.05417
302.8624
304.68249
306.39225
307.85839
308.9193
309.45833
309.55988
309.27293
308.67195
307.85231
306.90174
305.8959
304.895
303.92676
303.02263
302.2084
301.49047
300.87187
300.35028
299.92019
299.57369
299.30092
299.09273
298.94344
298.84321
298.76217
298.65636
298.51251
298.37113
298.26862
298.20264
298.15968
298.13225
298.10477
298.07675
298.05152
298.02216
300.1897
290.38021
292.6165
291.378
293.13869
293.459
294.49646
295.41702
296.52765
297.78298
299.20258
300.79439
302.52374
304.32507
306.08953
307.69167
308.9934
309.82698
310.16394
310.08967
309.64719
308.9247
308.01517
307.00217
305.95679
304.92599
303.93547
303.02337
302.20316
301.48197
300.8618
300.33975
299.90972
299.56345
299.29097
299.08331
298.9346
298.83361
298.74929
298.64021
298.49776
298.36099
298.26192
298.19764
298.15547
298.12792
298.0999
298.07255
298.04852
298.0207
300.88551
290.93235
293.63932
292.55972
294.25255
294.67484
295.72162
296.70704
297.87051
299.18495
300.66109
302.29531
304.03929
305.81072
307.49397
308.96266
310.06356
310.66305
310.81237
310.56183
309.97379
309.14018
308.15051
307.08399
306.00503
304.94295
303.93909
303.01954
302.1945
301.47086
300.84982
300.32775
299.8981
299.55228
299.28027
299.07326
298.92508
298.82317
298.73576
298.62427
298.48381
298.35142
298.25548
298.19268
298.15124
298.12341
298.09501
298.0684
298.04559
298.0193
301.59903
291.63589
294.71356
293.81124
295.43575
295.96188
297.02384
298.07511
299.29428
300.66631
302.19213
303.85551
305.59215
307.3073
308.88112
310.18449
311.05463
311.43448
311.39692
310.97677
310.25438
309.32076
308.26126
307.14971
306.03589
304.95122
303.9379
303.0114
302.18274
301.45754
300.83619
300.3145
299.88547
299.54028
299.2689
299.06264
298.91492
298.81193
298.72171
298.60865
298.47066
298.34244
298.24926
298.18774
298.14693
298.11874
298.09011
298.06431
298.04274
298.01796
302.31542
292.53831
295.84854
295.13404
296.69387
297.32884
298.41474
299.52818
300.80538
302.22857
303.79378
305.46693
307.17129
308.80206
310.23782
311.33907
311.96515
312.14311
311.91629
311.33756
310.49266
309.47022
308.35106
307.2007
306.05242
304.95374
303.93145
302.99969
302.16845
301.44241
300.82122
300.30021
299.87201
299.52759
299.25697
299.05152
298.90414
298.79996
298.70728
298.59344
298.4583
298.33404
298.24323
298.18277
298.14254
298.11394
298.08522
298.06029
298.03997
298.01668
302.99188
293.68931
297.05073
296.54323
298.04209
298.78498
299.89949
301.0756
302.40486
303.87175
305.4604
307.11984
308.76255
310.278
311.54289
312.40846
312.80109
312.78051
312.37102
311.64606
310.69136
309.59176
308.42215
307.23238
306.06043
304.95051
303.92064
302.98491
302.15204
301.42577
300.80515
300.28508
299.85785
299.5143
299.24453
299.03994
298.89278
298.78733
298.69259
298.57872
298.44674
298.32616
298.23735
298.17777
298.13804
298.10905
298.08038
298.05633
298.03728
298.01543
303.65993
295.08139
298.35445
298.04991
299.49642
300.33684
301.48807
302.71928
304.09437
305.59202
307.18228
308.80051
310.35019
311.71868
312.77507
313.38833
313.5666
313.34438
312.76448
311.90657
310.85492
309.68956
308.4754
307.24939
306.0621
304.94189
303.90621
302.96772
302.13399
301.408
300.78826
300.2693
299.84314
299.50052
299.23168
299.02794
298.88089
298.77413
298.67775
298.56452
298.43592
298.31866
298.23159
298.17283
298.13342
298.1041
298.07562
298.0524
298.03465
298.01427
304.35529
296.66684
299.79043
299.66512
301.06556
301.99469
303.19014
304.45956
305.87095
307.38156
308.9472
310.49161
311.91418
313.10094
313.91348
314.28383