/*--------------------------------*- C++ -*----------------------------------*\
  =========                 |
  \\      /  F ield         | OpenFOAM: The Open Source CFD Toolbox
   \\    /   O peration     | Website:  https://openfoam.org
    \\  /    A nd           | Version:  8
     \\/     M anipulation  |
\*---------------------------------------------------------------------------*/
FoamFile
{
    version     2.0;
    format      ascii;
    class       volVectorField;
    location    "0.0800043";
    object      U;
}
// * * * * * * * * * * * * * * * * * * * * * * * * * * * * * * * * * * * * * //

dimensions      [0 1 -1 0 0 0 0];

internalField   nonuniform List<vector> 
20000
(
(202.89888 3.3429596e-19 1.624405)
(241.12449 -4.7137375e-19 2.1618164)
(266.50709 0 2.1885702)
(288.22315 6.5385017e-19 2.2446572)
(307.33739 5.5828405e-19 1.9437032)
(320.70069 9.3940646e-19 2.193289)
(320.66306 0 1.3944452)
(322.32477 0 2.5067484)
(320.90287 1.7468603e-20 1.05773)
(321.55937 2.7898529e-18 2.5845428)
(320.66736 -2.3139407e-18 0.96409302)
(320.7711 4.0242685e-20 2.3915704)
(320.03137 2.137094e-18 0.99410597)
(319.71945 0 2.0474976)
(318.9563 2.8682262e-18 1.0135568)
(318.27984 0 1.6292185)
(317.31601 0 0.92321074)
(316.24313 -6.8687171e-18 1.1585477)
(314.9209 1.6608671e-17 0.65707375)
(313.36128 9.1876545e-18 0.60476874)
(311.52412 -3.0610358e-17 0.18381243)
(309.37187 0 -0.057359983)
(306.89893 2.1417164e-17 -0.46175841)
(304.05301 1.9930011e-19 -0.79793308)
(300.79865 -2.7965581e-17 -1.210853)
(297.05021 1.1740339e-17 -1.626987)
(292.92847 0 -1.9846478)
(288.58164 0 -2.1774541)
(284.18719 -1.5819147e-18 -2.2161326)
(279.90203 -4.18651e-17 -2.0906329)
(275.90693 -3.3467189e-17 -1.8353403)
(272.33204 -1.8733366e-18 -1.4999676)
(269.2642 9.953118e-17 -1.150143)
(266.72697 6.1809807e-17 -0.84016426)
(264.70698 0 -0.60433981)
(263.1553 3.6289997e-17 -0.45958403)
(261.99843 -2.6925355e-17 -0.40293679)
(261.1772 0 -0.4165634)
(260.63365 -1.2335999e-16 -0.47826304)
(260.27959 1.1420934e-16 -0.59335287)
(260.01696 -1.7051393e-17 -0.7455271)
(259.87338 -7.4997349e-17 -0.87556646)
(259.83171 1.2900971e-16 -0.96546952)
(259.86704 -1.0880829e-16 -1.0189294)
(259.962 0 -1.0247352)
(260.11046 -1.3414983e-16 -0.9154715)
(260.54865 1.9626247e-20 -0.68110941)
(260.99315 8.4259278e-18 -0.40889517)
(261.24099 0 -0.23351211)
(261.20264 0 -0.2798722)
(205.68801 -4.3230303e-17 0.79319639)
(244.06028 3.22659e-17 1.243678)
(269.53903 -2.5155234e-17 1.1339357)
(291.20977 2.0753758e-17 1.1315005)
(310.07686 5.6788054e-19 0.70778095)
(322.43552 -9.6328561e-19 1.0051968)
(321.79273 3.2625057e-18 0.13222806)
(323.46323 -4.6334181e-21 1.326991)
(322.02636 0 -0.22834352)
(322.68581 -1.8838796e-18 1.3927285)
(321.77407 7.8490681e-18 -0.31774021)
(321.8756 1.0435681e-17 1.1843317)
(321.11657 -1.0864943e-17 -0.27681142)
(320.79113 0 0.82365628)
(320.00684 1.5062127e-17 -0.24549421)
(319.30539 -2.0006572e-17 0.39160386)
(318.31206 -1.671029e-17 -0.32955583)
(317.19998 2.0770796e-17 -0.090592802)
(315.8336 -1.7241909e-17 -0.59666534)
(314.22237 2.8638164e-17 -0.64790669)
(312.33169 1.5853987e-17 -1.0594813)
(310.12078 0 -1.288448)
(307.56891 -4.3235441e-17 -1.6778198)
(304.59308 1.7939742e-17 -2.0148813)
(301.11726 -2.9317482e-17 -2.4269225)
(297.17854 1.1920021e-17 -2.806198)
(292.96877 0 -3.0932116)
(288.55016 0 -3.1971302)
(284.08521 0 -3.1268278)
(279.75095 2.0441715e-17 -2.8782276)
(275.73714 -1.1471099e-16 -2.4924511)
(272.17057 1.2914075e-16 -2.0302593)
(269.12599 -2.6199361e-16 -1.5641738)
(266.61869 -9.3776316e-17 -1.1530391)
(264.62705 4.7943641e-17 -0.83266164)
(263.0977 -5.4831238e-17 -0.62056393)
(261.95588 5.5231925e-17 -0.51179672)
(261.14686 -2.0708003e-17 -0.48543472)
(260.61011 3.7144156e-16 -0.51851523)
(260.25039 -2.7574455e-16 -0.61666997)
(259.97636 3.3995014e-17 -0.75814967)
(259.83773 5.0107185e-17 -0.87873998)
(259.80541 -4.2417527e-16 -0.96201973)
(259.84871 -1.0861505e-16 -1.0119894)
(259.93122 0 -1.0149671)
(260.10614 -1.1859996e-16 -0.89816669)
(260.61149 0 -0.65699283)
(261.02621 1.3312729e-16 -0.39341112)
(261.18535 1.0189274e-16 -0.22790203)
(261.19977 6.2339359e-19 -0.27415328)
(208.35358 1.090432e-17 -0.065583392)
(246.90904 -4.9056253e-18 0.29507008)
(272.50423 -4.8050246e-18 0.043078016)
(294.14349 1.3641383e-18 -0.020232668)
(312.70143 -3.4840041e-18 -0.57453454)
(324.00817 0 -0.22739704)
(322.86319 0 -1.1913375)
(324.54815 -1.375477e-17 0.10876896)
(323.08573 1.3764973e-17 -1.5560252)
(323.75336 1.9076599e-17 0.16618477)
(322.81827 6.3726919e-18 -1.6343272)
(322.91734 -5.2848031e-18 -0.058789409)
(322.13813 -1.7623148e-17 -1.5795897)
(321.79746 0 -0.43816172)
(320.99108 -1.8374622e-17 -1.5376772)
(320.26181 4.0724328e-17 -0.88663502)
(319.23675 -1.6888417e-17 -1.6197235)
(318.08315 -1.4101357e-17 -1.3816187)
(316.67347 1.1648757e-17 -1.8875474)
(315.01331 -3.8873979e-17 -1.9365622)
(313.06996 1.6003293e-17 -2.3357294)
(310.78685 5.3134231e-17 -2.5581088)
(308.11912 7.4055638e-20 -2.9454533)
(304.96092 1.8221394e-17 -3.2943928)
(301.30239 -7.4331094e-17 -3.69894)
(297.23886 9.7607837e-17 -4.0231273)
(292.92314 2.0049192e-17 -4.2251757)
(288.4021 9.7013906e-17 -4.2334954)
(283.85673 -9.1380677e-17 -4.0467654)
(279.48321 0 -3.6666181)
(275.46432 -1.4299054e-19 -3.1448281)
(271.92061 -1.044238e-16 -2.5528768)
(268.91409 2.0333224e-17 -1.9700481)
(266.45036 -2.9995308e-16 -1.45884)
(264.49951 2.413081e-17 -1.0558577)
(263.00315 0 -0.77846988)
(261.88611 0 -0.61910279)
(261.09786 -3.1313398e-16 -0.55388306)
(260.57309 -5.1342277e-16 -0.55997968)
(260.20685 1.6149376e-16 -0.64198535)
(259.93468 -1.7069355e-17 -0.77174166)
(259.8065 -1.7591902e-20 -0.88189618)
(259.78521 3.1361012e-16 -0.95881698)
(259.82846 2.4405618e-16 -1.0071048)
(259.90762 2.9945451e-16 -1.0060014)
(260.12004 2.3596975e-16 -0.87594187)
(260.66588 1.0951296e-17 -0.63039761)
(261.03171 -1.398218e-16 -0.379203)
(261.17432 1.064922e-16 -0.22287355)
(261.19649 -7.3122688e-18 -0.26777342)
(210.95805 1.3828399e-18 -0.97066819)
(249.6891 -1.5981188e-17 -0.68544389)
(275.38991 3.9164685e-17 -1.0842662)
(296.99228 -4.7245477e-17 -1.2136167)
(315.1404 2.3569957e-18 -1.8973447)
(325.40722 1.5866461e-17 -1.480547)
(323.86051 -1.680869e-17 -2.5418989)
(325.56041 3.3465997e-17 -1.1321901)
(324.07375 -2.3297135e-17 -2.9116345)
(324.7486 -3.8781486e-18 -1.0870843)
(323.7902 -2.4180751e-20 -2.9810646)
(323.88602 0 -1.3318271)
(323.0859 8.9708751e-18 -2.9140381)
(322.72868 -2.9797821e-17 -1.7326602)
(321.89863 1.2390667e-17 -2.8634791)
(321.13955 -4.1299592e-17 -2.2005615)
(320.08137 3.4353909e-17 -2.9448467)
(318.88666 -1.4235517e-17 -2.7060169)
(317.43579 2.3790482e-17 -3.2072549)
(315.72692 -1.9604298e-17 -3.2522021)
(313.71978 3.2584716e-17 -3.6430892)
(311.33137 -4.0479227e-17 -3.8721132)
(308.49637 1.1117031e-17 -4.2743166)
(305.1479 -2.4562034e-19 -4.6312835)
(301.35769 6.0261537e-17 -5.0006343)
(297.20358 -8.6801815e-17 -5.254175)
(292.76602 -2.0355711e-17 -5.3706621)
(288.13812 -1.1484234e-16 -5.2785826)
(283.5238 -7.9353181e-17 -4.96733)
(279.12417 -4.2267337e-17 -4.44979)
(275.11607 -1.5173241e-16 -3.7885882)
(271.61039 2.6266997e-17 -3.0657741)
(268.65568 1.6489312e-16 -2.3668152)
(266.24695 2.8697134e-16 -1.7570488)
(264.34619 -4.1551776e-16 -1.2733249)
(262.88998 -3.722025e-17 -0.93232972)
(261.80351 -9.2324224e-20 -0.72350789)
(261.0404 6.9300129e-16 -0.6203738)
(260.52936 2.5015618e-16 -0.60084707)
(260.15714 0 -0.6666846)
(259.89267 0 -0.78415072)
(259.77421 -2.5138301e-17 -0.8838649)
(259.7622 5.5346925e-17 -0.95467076)
(259.80838 -4.6030759e-16 -1.0001165)
(259.88676 -3.3820769e-16 -0.99519972)
(260.14904 1.4671615e-17 -0.85216837)
(260.70728 0 -0.60458529)
(261.03511 1.6249436e-17 -0.36685103)
(261.15993 -2.0948489e-16 -0.21809627)
(261.19267 0 -0.26089282)
(213.4976 -4.6475477e-17 -1.9100788)
(252.39682 3.0486987e-17 -1.7130442)
(278.1943 5.3168894e-17 -2.243361)
(299.76564 -4.242622e-17 -2.4491877)
(317.38736 2.3947672e-18 -3.2615732)
(326.6457 3.22527e-17 -2.7597345)
(324.78294 3.441433e-18 -3.9269664)
(326.49702 -2.2616324e-17 -2.4009722)
(324.98383 0 -4.2992795)
(325.66579 3.9273241e-17 -2.3696509)
(324.68273 -3.2751481e-17 -4.3588959)
(324.77428 1.093687e-17 -2.635807)
(323.95225 -1.8150173e-17 -4.2792033)
(323.5767 1.514575e-17 -3.0605477)
(322.72161 -2.5144953e-17 -4.2217605)
(321.93138 2.0983548e-17 -3.549404)
(320.84067 0 -4.3012824)
(319.60615 2.8936962e-17 -4.0600238)
(318.11224 -2.4144214e-17 -4.5534392)
(316.34278 1.9891778e-17 -4.5993344)
(314.24067 -3.3136099e-17 -4.9950954)
(311.69889 0 -5.249048)
(308.68616 0 -5.6638799)
(305.20651 0 -6.001299)
(301.32596 -1.5459384e-17 -6.3172375)
(297.05265 1.2467306e-17 -6.5028948)
(292.47831 0 -6.5322018)
(287.74976 1.499689e-16 -6.3283074)
(283.07756 2.0104752e-16 -5.8837375)
(278.66702 0 -5.2224217)
(274.68633 2.8907801e-16 -4.4186282)
(271.23442 -1.3291921e-17 -3.5643805)
(268.34566 3.1283485e-16 -2.7506153)
(266.00382 4.8323437e-17 -2.0445917)
(264.16287 -4.9548393e-17 -1.4827593)
(262.75459 -1.8834162e-17 -1.0805172)
(261.70522 5.0808369e-16 -0.82394425)
(260.97222 -4.2137444e-17 -0.68434887)
(260.47722 1.5692024e-17 -0.64092582)
(260.10279 0 -0.69060795)
(259.85084 0 -0.79555336)
(259.74225 4.0259773e-16 -0.88493653)
(259.73699 -3.6890294e-17 -0.94998089)
(259.7889 4.8644408e-16 -0.99406947)
(259.87285 -8.8382156e-21 -0.9823519)
(260.19203 -1.4586315e-17 -0.82706835)
(260.73649 0 -0.57956264)
(261.03606 -1.6054869e-17 -0.35544065)
(261.15439 1.8182334e-17 -0.21339733)
(261.18868 -6.9828442e-18 -0.25373006)
(215.97235 -9.4443709e-17 -2.80492)
(255.01841 6.6176234e-17 -2.8072101)
(280.90939 0 -3.4364819)
(302.46651 -4.6080156e-17 -3.7213324)
(319.4249 -2.4624139e-18 -4.6604163)
(327.73074 3.2730517e-17 -4.0622543)
(325.62122 -2.7702201e-17 -5.3426712)
(327.34866 2.866414e-17 -3.6951662)
(325.80764 -4.795154e-17 -5.7160971)
(326.4963 4.778931e-17 -3.6792648)
(325.48762 -2.6563085e-17 -5.7653187)
(325.57371 1.1074783e-17 -3.9688696)
(324.72869 -1.8456914e-17 -5.6734642)
(324.33308 3.0634913e-17 -4.4201696)
(323.45207 -1.0730482e-20 -5.6095977)
(322.63069 6.3738447e-17 -4.9280226)
(321.50874 -5.2965624e-17 -5.6831208)
(320.23252 -1.4694355e-17 -5.4407306)
(318.68309 -1.216888e-17 -5.9304612)
(316.82359 -6.0852212e-17 -5.9910266)
(314.58205 1.6719151e-17 -6.409156)
(311.88032 0 -6.6870412)
(308.74408 0 -7.0876778)
(305.17645 0 -7.3866978)
(301.17531 1.2473586e-16 -7.651235)
(296.75863 2.044041e-16 -7.7696715)
(292.056 1.6670861e-16 -7.7020853)
(287.23622 -1.179186e-16 -7.3762406)
(282.52104 -1.347521e-17 -6.7896645)
(278.11641 0 -5.9789438)
(274.18052 0 -5.0302349)
(270.7983 -2.7176558e-17 -4.0449236)
(267.9892 -6.5330138e-16 -3.1185116)
(265.72545 5.2048597e-16 -2.319225)
(263.95326 4.2268225e-16 -1.6824538)
(262.59996 -6.2270027e-16 -1.2217236)
(261.59343 -9.089705e-16 -0.91942767)
(260.89448 -1.019301e-15 -0.74511427)
(260.4174 5.0489008e-16 -0.6795581)
(260.04609 0 -0.71313645)
(259.80932 5.8360056e-16 -0.80580018)
(259.70965 -1.2086205e-15 -0.88519165)
(259.70929 5.1662114e-21 -0.94433583)
(259.76772 -1.3481883e-17 -0.98652417)
(259.86407 1.973087e-17 -0.96638783)
(260.24153 -1.4497097e-17 -0.80122897)
(260.75991 -6.8332017e-16 -0.555837)
(261.03794 -5.2348144e-16 -0.3447614)
(261.14986 -3.6947608e-16 -0.20878277)
(261.18444 0 -0.24638252)
(218.34807 2.9119481e-18 -3.7570484)
(257.53471 2.1069639e-18 -3.9334259)
(283.51141 0 -4.6770517)
(305.08269 4.6870844e-17 -5.0419143)
(321.23555 -3.4627268e-17 -6.0997271)
(328.67001 0 -5.3926731)
(326.3693 0 -6.792334)
(328.11042 4.0737718e-17 -5.0163143)
(326.53996 -3.8843611e-17 -7.1625833)
(327.23478 -2.4246877e-17 -5.0159253)
(326.19885 2.6940695e-17 -7.2001293)
(326.27764 0 -5.330734)
(325.40832 3.7396193e-17 -7.0955518)
(324.99122 -2.9795113e-20 -5.8093651)
(324.08404 2.5887928e-17 -7.0227128)
(323.23068 -2.1590747e-17 -6.3312661)
(322.0742 7.176257e-17 -7.0877267)
(320.74351 -5.9607162e-17 -6.8530686)
(319.11202 2.4868217e-17 -7.3527989)
(317.1234 2.0680935e-17 -7.4461272)
(314.74255 -6.8210139e-17 -7.8830788)
(311.93102 1.1297271e-16 -8.1574453)
(308.71344 -2.3487632e-17 -8.5258147)
(305.02942 1.9097601e-17 -8.7900865)
(300.87945 -1.2649682e-16 -9.0060036)
(296.32031 -2.0717391e-16 -9.0485267)
(291.49529 -1.9016358e-16 -8.8744032)
(286.59671 3.4219793e-17 -8.4157921)
(281.85501 -1.3664094e-17 -7.6788282)
(277.47457 3.3066475e-16 -6.7137295)
(273.60141 1.7316694e-17 -5.618681)
(270.3048 0 -4.5036041)
(267.5887 3.404033e-16 -3.4675352)
(265.41379 -1.0501675e-15 -2.5786784)
(263.71877 0 -1.8706937)
(262.42712 6.0785557e-16 -1.3546631)
(261.46883 -2.8815884e-17 -1.009042)
(260.80724 1.4084877e-15 -0.8020435)
(260.34998 -4.7386643e-17 -0.71607558)
(259.98804 -7.4848547e-16 -0.73333368)
(259.76839 -5.3290123e-16 -0.81480923)
(259.67737 8.3120193e-16 -0.88476873)
(259.68053 -1.8410036e-17 -0.93797407)
(259.74317 0 -0.97791459)
(259.85808 -1.9643386e-17 -0.94730256)
(260.29234 1.440418e-17 -0.77466556)
(260.7811 6.5602445e-16 -0.53355076)
(261.04041 5.1704471e-16 -0.33467185)
(261.14618 3.750649e-16 -0.20425727)
(261.18018 -2.8475558e-16 -0.23889881)
(220.64021 0 -4.7455788)
(259.94817 -1.3695761e-16 -5.0866377)
(285.99792 1.1206219e-16 -5.948505)
(307.61636 -9.5314894e-17 -6.3944483)
(322.81486 7.0286053e-17 -7.5631398)
(329.47298 8.4239705e-18 -6.7407347)
(327.02326 -7.1110649e-18 -8.2676758)
(328.7781 4.7216562e-17 -6.359724)
(327.17599 -2.9543554e-17 -8.6368032)
(327.87572 0 -6.3799443)
(326.81039 0 -8.6637957)
(326.87981 -2.2774208e-17 -6.7213873)
(325.98528 -4.4615908e-20 -8.5431097)
(325.5455 -6.5104747e-20 -7.2244498)
(324.61096 -2.6316678e-17 -8.4576797)
(323.71922 -2.1921593e-17 -7.7593388)
(322.5131 -1.8276484e-17 -8.5223128)
(321.10014 7.5744997e-17 -8.3116331)
(319.35814 -8.8046755e-17 -8.8380141)
(317.25204 2.0778801e-17 -8.9582411)
(314.78018 3.2415608e-21 -9.3849999)
(311.89383 3.2301887e-20 -9.6404418)
(308.5673 -1.1866526e-16 -9.9821906)
(304.73559 1.7579243e-16 -10.216691)
(300.43452 -1.2862502e-16 -10.37597)
(295.73305 2.1074734e-16 -10.333626)
(290.79544 1.7180828e-16 -10.041874)
(285.83271 0 -9.4399687)
(281.08296 4.4800115e-16 -8.5447897)
(276.74607 -3.5658134e-16 -7.4212779)
(272.95387 0 -6.1795018)
(269.7585 0 -4.936944)
(267.14816 2.1569823e-17 -3.7950366)
(265.07208 4.798217e-16 -2.8209597)
(263.46193 2.5198451e-17 -2.0459826)
(262.23803 -6.1239776e-16 -1.4782147)
(261.3328 4.8854463e-16 -1.0920087)
(260.711 -7.2884123e-16 -0.85459121)
(260.2753 -4.6086438e-16 -0.74952311)
(259.92903 7.2670779e-16 -0.75533097)
(259.72784 -3.4437829e-17 -0.82246667)
(259.64531 -1.3774173e-20 -0.88368569)
(259.65131 1.8385898e-17 -0.93106445)
(259.71621 2.6819132e-17 -0.96788425)
(259.85407 6.0652567e-16 -0.92507902)
(260.342 0 -0.7473055)
(260.80146 0 -0.51269802)
(261.04348 1.5467974e-17 -0.32516477)
(261.14254 -1.1528693e-17 -0.19984442)
(261.17599 2.7843406e-16 -0.23129519)
(222.83192 1.9200418e-16 -5.7710978)
(262.24584 -1.3489396e-16 -6.2739206)
(288.35049 -1.1403967e-16 -7.2586256)
(310.05349 9.6808563e-17 -7.787751)
(324.15489 8.1595311e-17 -9.0580572)
(330.14374 -7.7013488e-17 -8.1143205)
(327.57399 6.5005689e-17 -9.7756441)
(329.34319 -4.7824591e-17 -7.7311242)
(327.70711 0 -10.142967)
(328.41141 -1.6657389e-17 -7.7742987)
(327.31561 -5.4191663e-20 -10.156581)
(327.37447 2.3045981e-17 -8.1399611)
(326.45444 -3.8524014e-17 -10.013456)
(325.98809 -8.7916299e-20 -8.6633186)
(325.01929 0 -9.9175473)
(324.07341 0 -9.2249526)
(322.79031 3.6918473e-17 -10.007403)
(321.28078 0 -9.8340333)
(319.447 5.1049184e-17 -10.369534)
(317.26993 0 -10.490656)
(314.73011 8.7939519e-17 -10.89721)
(311.74268 -1.3081698e-16 -11.141898)
(308.27511 9.615119e-17 -11.463116)
(304.29174 2.9434797e-19 -11.661339)
(299.8357 -1.4736611e-16 -11.756252)
(294.9963 -1.3093349e-17 -11.618186)
(289.95714 -1.5231101e-16 -11.197276)
(284.9471 -2.8251112e-16 -10.441639)
(280.20925 -4.2431604e-16 -9.3811648)
(275.9361 3.3974465e-16 -8.0962673)
(272.24311 0 -6.7084972)
(269.16416 4.4819612e-16 -5.3417456)
(266.67155 6.7369482e-16 -4.0986237)
(264.7035 5.848696e-16 -3.0442909)
(263.18518 -2.5393615e-17 -2.2069898)
(262.03453 -4.3218519e-19 -1.5913859)
(261.18663 8.6711564e-16 -1.1676638)
(260.60637 -6.461667e-16 -0.90237227)
(260.19369 -3.1913301e-17 -0.77827253)
(259.86862 2.34737e-17 -0.77261314)
(259.68737 3.4469509e-17 -0.82871191)
(259.61373 -2.5173464e-17 -0.88197326)
(259.62224 0 -0.92373896)
(259.6891 0 -0.95653244)
(259.85589 -6.0355374e-16 -0.90029193)
(260.38928 -1.420761e-17 -0.71908516)
(260.82089 -6.6435873e-16 -0.49318341)
(261.04663 0 -0.31621555)
(261.13891 0 -0.19555543)
(261.17193 0 -0.22357407)
(224.91298 1.9799016e-16 -6.8312846)
(264.41363 -1.4599954e-16 -7.4930488)
(290.5494 3.6220856e-18 -8.604494)
(312.37495 -9.8390692e-17 -9.215985)
(325.24954 8.2771089e-17 -10.578711)
(330.6801 0 -9.5102592)
(328.00632 6.589396e-17 -11.312128)
(329.7939 -4.8488855e-17 -9.1260228)
(328.12188 -3.0454982e-17 -11.674303)
(328.83349 1.6806534e-17 -9.1903644)
(327.70532 1.4052589e-17 -11.669466)
(327.75083 0 -9.5828443)
(326.80638 0 -11.508895)
(326.30302 0 -10.133952)
(325.28238 -2.6973557e-17 -11.415982)
(324.26653 -6.7480957e-17 -10.750126)
(322.90918 -1.3121177e-16 -11.551029)
(321.328 4.6795959e-17 -11.390721)
(319.4419 7.7809574e-17 -11.91397)
(317.20081 -2.1603199e-17 -12.031947)
(314.56688 1.7731447e-17 -12.428422)
(311.44834 1.0337016e-16 -12.668366)
(307.834 -1.2471521e-17 -12.964203)
(303.69223 -2.8194653e-16 -13.119947)
(299.08141 2.6480488e-16 -13.140614)
(294.11002 -2.2998466e-16 -12.895124)
(288.98284 0 -12.333023)
(283.94431 5.5420082e-16 -11.413637)
(279.2397 -1.4674721e-17 -10.181734)
(275.05094 -3.430007e-16 -8.7336921)
(271.47514 -1.8152856e-17 -7.2018435)
(268.52711 1.5028619e-17 -5.7151842)
(266.16335 -7.0092125e-16 -4.3762371)
(264.31158 -5.7228871e-16 -3.247169)
(262.89124 2.5581867e-17 -2.3525966)
(261.81869 6.1971325e-16 -1.6933459)
(261.03179 -9.5820642e-16 -1.2354631)
(260.49438 7.3485884e-16 -0.94524066)
(260.10581 -1.0716205e-15 -0.80306297)
(259.80579 2.351597e-17 -0.78763264)
(259.64619 1.1034329e-15 -0.83324161)
(259.58295 8.053635e-16 -0.87958596)
(259.59483 1.1726889e-15 -0.91613748)
(259.66378 -2.663701e-17 -0.94374258)
(259.86759 -1.2199832e-15 -0.87503279)
(260.43337 0 -0.69022845)
(260.83909 6.7846216e-16 -0.47487508)
(261.04958 -1.5086187e-17 -0.30779919)
(261.13533 -7.1318849e-16 -0.19139229)
(261.16809 4.1589379e-18 -0.21573522)
(226.85549 -3.0942125e-18 -7.9251414)
(266.43373 1.4395025e-16 -8.7468013)
(292.57981 -2.3970129e-16 -9.9902953)
(314.55941 -5.4892991e-20 -10.681266)
(326.10015 8.9284914e-17 -12.126048)
(331.08575 -7.0515089e-17 -10.926822)
(328.30544 1.2612338e-16 -12.873431)
(330.12696 -4.9159813e-17 -10.538096)
(328.41217 -1.0286866e-17 -13.221502)
(329.13786 0 -10.618024)
(327.96026 1.4239736e-17 -13.196012)
(327.9767 0 -11.051646)
(327.02147 -3.9634943e-17 -13.040971)
(326.471 3.2822216e-17 -11.659661)
(325.39745 2.7406074e-17 -12.971429)
(324.32454 4.5699765e-17 -12.317551)
(322.9224 5.6977634e-17 -13.113498)
(321.29573 4.7484137e-17 -12.956355)
(319.34984 -2.3641437e-16 -13.466158)
(317.01874 0 -13.594352)
(314.2646 0 -13.984702)
(311.00801 -2.3986402e-16 -14.216484)
(307.23836 2.4966324e-17 -14.482162)
(302.93529 -2.0744863e-17 -14.587006)
(298.171 -2.6941461e-16 -14.522611)
(293.07613 0 -14.157011)
(287.87654 2.2592597e-17 -13.441494)
(282.8302 -1.6824857e-17 -12.348911)
(278.18114 4.6677224e-16 -10.940568)
(274.09761 -3.4815904e-16 -9.3289342)
(270.6565 5.8602339e-16 -7.6561354)
(267.85301 -1.3862661e-15 -6.0548294)
(265.62819 2.2179167e-17 -4.6261589)
(263.89998 -1.6921953e-17 -3.4283653)
(262.5829 8.0098447e-16 -2.4818942)
(261.59261 -1.9565994e-17 -1.7834226)
(260.86973 9.6312766e-16 -1.2949727)
(260.37632 0 -0.9830795)
(260.01303 9.937787e-16 -0.82627437)
(259.73989 2.3549982e-17 -0.79927589)
(259.60318 -1.0690085e-15 -0.83565711)
(259.55274 -8.2960051e-16 -0.87630946)
(259.5713 -2.3397857e-15 -0.90840306)
(259.64272 8.4932974e-16 -0.92970954)
(259.89081 2.4457233e-15 -0.84843758)
(260.47373 1.3996853e-17 -0.66105803)
(260.85579 0 -0.45762994)
(261.05227 0 -0.29988056)
(261.13211 1.4024741e-15 -0.18735953)
(261.16451 -4.0687814e-18 -0.20777776)
(228.67724 -3.1368932e-18 -9.0464159)
(268.32694 -1.5085452e-16 -10.02221)
(294.46296 1.1248915e-16 -11.40568)
(316.60668 -1.0140932e-16 -12.170463)
(326.7313 8.5316415e-17 -13.689459)
(331.37705 8.9344839e-18 -12.353842)
(328.50108 -6.0223128e-17 -14.450252)
(330.35166 6.2307702e-17 -11.961118)
(328.58005 -6.2615429e-17 -14.784579)
(329.32535 -1.2771506e-19 -12.068338)
(328.10902 2.8853288e-17 -14.757631)
(328.10904 -4.8211547e-17 -12.566601)
(327.10495 4.0080769e-17 -14.6194)
(326.51676 -6.1267589e-21 -13.225544)
(325.40939 5.5684847e-17 -14.544514)
(324.3018 4.6360859e-17 -13.895234)
(322.86177 0 -14.678344)
(321.17482 0 -14.533921)
(319.1432 1.0661731e-16 -15.042873)
(316.70218 0 -15.182071)
(313.81999 0 -15.563747)
(310.41629 1.2159967e-16 -15.783565)
(306.48627 -2.2697533e-16 -16.012266)
(302.01957 2.0726743e-16 -16.056802)
(297.10536 5.1202982e-16 -15.895273)
(291.89775 1.3826818e-17 -15.396176)
(286.64368 3.6476265e-16 -14.51503)
(281.61185 -2.9366298e-16 -13.240622)
(277.04138 3.1510828e-17 -11.652126)
(273.08376 3.7506984e-16 -9.8778476)
(269.79413 -6.0911723e-16 -8.0684458)
(267.1478 9.2246734e-16 -6.3586852)
(265.0709 2.2371452e-17 -4.8470399)
(263.47246 1.0784884e-15 -3.5869458)
(262.26302 8.0711222e-16 -2.5941977)
(261.3584 1.3130594e-15 -1.8611109)
(260.70189 -9.9608252e-16 -1.3458627)
(260.25356 1.4150335e-15 -1.0152896)
(259.91723 -9.9627373e-16 -0.84638339)
(259.67136 1.4629146e-15 -0.80740177)
(259.55754 -1.0863193e-15 -0.83555815)
(259.52201 0 -0.87167437)
(259.55003 1.1849515e-15 -0.90045131)
(259.62697 -8.5896653e-16 -0.91437814)
(259.92584 -2.4504067e-15 -0.82115459)
(260.51029 0 -0.63199415)
(260.87105 0 -0.4413119)
(261.05481 0 -0.29241328)
(261.12945 -1.3789363e-15 -0.18346348)
(261.16123 0 -0.19971811)
(230.39347 2.0067951e-16 -10.204979)
(270.1129 4.6460034e-18 -11.336267)
(296.22769 1.2206857e-16 -12.86983)
(318.51276 -1.0285518e-16 -13.695811)
(327.17479 0 -15.27941)
(331.57492 -1.8133966e-17 -13.799647)
(328.63344 -1.5253307e-17 -16.052127)
(330.47251 -1.2644937e-17 -13.41212)
(328.68403 -4.2272707e-17 -16.390966)
(329.39995 -1.7573969e-17 -13.572124)
(328.17276 -5.873412e-17 -16.3701)
(328.15742 4.8762809e-17 -14.114837)
(327.10012 -8.149135e-17 -16.207642)
(326.48886 -3.3984833e-17 -14.801521)
(325.35494 0 -16.118932)
(324.20338 -9.4050893e-17 -15.477814)
(322.70612 0 -16.260765)
(320.93598 0 -16.138971)
(318.80602 0 -16.644435)
(316.24731 2.2591232e-17 -16.793644)
(313.22824 -1.8523712e-17 -17.163308)
(309.67136 -2.4753599e-16 -17.365654)
(305.57622 2.2979678e-16 -17.54968)
(300.94534 -3.5879418e-16 -17.523166)
(295.88667 -2.7663665e-16 -17.25139)
(290.57953 -4.5492254e-16 -16.604826)
(285.29103 -3.6843922e-16 -15.546101)
(280.29741 0 -14.082267)
(275.82897 -5.0740398e-16 -12.311342)
(272.01756 2.3579462e-17 -10.376809)
(268.8953 -5.989174e-16 -8.4363503)
(266.41759 -9.3361296e-16 -6.6252027)
(264.4964 0 -5.0379036)
(263.03282 -1.1020158e-15 -3.7222695)
(261.93447 -2.4842473e-15 -2.6890446)
(261.11815 -3.8005066e-15 -1.926069)
(260.52966 -9.7116375e-16 -1.3878961)
(260.12736 -2.7721245e-15 -1.0414224)
(259.82032 1.0620965e-15 -0.86159474)
(259.6019 -1.5343025e-15 -0.81195182)
(259.50948 1.0683452e-15 -0.83279383)
(259.48933 -1.5791588e-15 -0.86509258)
(259.5308 -1.817622e-17 -0.89173531)
(259.61727 1.3155397e-17 -0.89730813)
(259.97052 2.4351831e-15 -0.79351849)
(260.54357 1.3748648e-17 -0.60350223)
(260.88518 -9.9742321e-18 -0.42581987)
(261.05729 0 -0.28535886)
(261.12727 6.7788438e-16 -0.17970177)
(261.15824 7.7926103e-18 -0.19157659)
(232.01839 6.4670833e-18 -11.394034)
(271.80738 -3.0195705e-16 -12.664293)
(297.8919 2.4808326e-16 -14.363843)
(320.21952 -6.5225656e-18 -15.242299)
(327.45052 0 -16.896119)
(331.68979 9.1978703e-18 -15.274833)
(328.68562 0 -17.704732)
(330.53098 -1.2817731e-17 -14.915271)
(328.70735 2.1433022e-17 -18.045419)
(329.42868 1.7824206e-17 -15.108607)
(328.16696 5.9560237e-17 -17.997896)
(328.14121 -9.9036746e-17 -15.673938)
(327.03534 1.2378422e-16 -17.792986)
(326.39202 3.4383146e-17 -16.379336)
(325.21677 -2.8711038e-17 -17.706875)
(324.0018 7.1452212e-17 -17.090012)
(322.43079 0 -17.86975)
(320.57012 0 -17.76968)
(318.33406 0 -18.270333)
(315.65007 -1.8268352e-16 -18.426814)
(312.48765 0 -18.780017)
(308.77169 2.5050672e-16 -18.958549)
(304.50804 0 -19.089041)
(299.71374 3.416653e-16 -18.979577)
(294.51835 0 -18.583438)
(289.12728 4.595276e-16 -17.77509)
(283.8265 -2.3597108e-17 -16.52737)
(278.8959 1.8732221e-17 -14.86777)
(274.55306 0 -12.913701)
(270.90756 7.7026687e-16 -10.822778)
(267.96745 -1.8184731e-18 -8.7579733)
(265.66855 -3.1761744e-17 -6.8533025)
(263.90959 7.722324e-16 -5.1981552)
(262.58482 -1.7309165e-17 -3.8339909)
(261.60011 8.4136625e-16 -2.7661976)
(260.87394 2.5309968e-15 -1.9781229)
(260.35438 9.1498675e-16 -1.420932)
(259.99893 1.4438836e-15 -1.0614452)
(259.72391 -1.6106271e-17 -0.87275614)
(259.53388 0 -0.81482824)
(259.46044 -3.4443207e-17 -0.82760443)
(259.45369 2.4786688e-17 -0.85622785)
(259.50921 0 -0.88131051)
(259.61197 1.6758791e-15 -0.87729609)
(260.02098 -1.2286764e-15 -0.76549861)
(260.57498 1.3656448e-17 -0.57604357)
(260.89849 1.9715998e-17 -0.41109042)
(261.05972 -1.4303963e-17 -0.27868664)
(261.12546 1.3329594e-15 -0.17606593)
(261.15561 0 -0.18337391)
(233.54844 -4.1988595e-16 -12.622518)
(273.41585 0 -14.026284)
(299.47488 7.8807657e-18 -15.912566)
(321.73658 6.6136184e-18 -16.832511)
(327.58286 1.1172894e-17 -18.563469)
(331.72913 -1.3995297e-16 -16.78927)
(328.66389 2.507379e-16 -19.390625)
(330.54028 -2.0791101e-16 -16.437859)
(328.65716 1.0856094e-16 -19.710279)
(329.37946 0 -16.6525)
(328.08468 0 -19.623636)
(328.04588 5.0233442e-17 -17.241129)
(326.89048 9.0248451e-20 -19.396468)
(326.19702 3.4989306e-17 -17.990465)
(324.96604 5.8120831e-17 -19.32362)
(323.68047 -2.4258838e-17 -18.730549)
(322.03074 -2.03521e-17 -19.504273)
(320.07292 3.3355152e-17 -19.425514)
(317.72446 0 -19.9181)
(314.90916 -5.3107689e-19 -20.078626)
(311.59706 -1.9339376e-17 -20.410324)
(307.71706 -2.3949256e-16 -20.557744)
(303.28229 2.1123064e-16 -20.624782)
(298.32708 3.4863082e-16 -20.419259)
(293.00491 -3.0464992e-16 -19.883732)
(287.54808 -4.5449687e-16 -18.899157)
(282.25902 -4.0511187e-16 -17.45181)
(277.41714 -5.7662731e-16 -15.591567)
(273.22336 -5.3774989e-16 -13.455295)
(269.76261 -1.5557271e-15 -11.213328)
(267.01819 6.2866837e-16 -9.031989)
(264.90685 9.4863009e-16 -7.0423588)
(263.31526 -1.4408208e-15 -5.3275535)
(262.13211 1.1012165e-15 -3.9220376)
(261.26269 8.4686231e-16 -2.8256319)
(260.62775 1.9881493e-17 -2.0172617)
(260.17736 -1.4795625e-17 -1.4449257)
(259.86935 1.4037031e-15 -1.0752492)
(259.62923 1.0004783e-15 -0.87990556)
(259.4693 -1.927194e-20 -0.81551594)
(259.41228 5.1593174e-17 -0.82056445)
(259.41589 1.5719378e-15 -0.84531149)
(259.48163 1.1551413e-15 -0.8681621)
(259.60956 -1.6672828e-15 -0.85438049)
(260.07409 -1.8755994e-17 -0.73684295)
(260.60554 1.3537554e-17 -0.54989853)
(260.91105 0 -0.39711074)
(261.06196 -1.8054645e-15 -0.27235994)
(261.12389 -1.3105404e-15 -0.17253634)
(261.1534 9.5645092e-16 -0.17513143)
(234.99335 7.4128723e-20 -13.890721)
(274.9482 -3.0648737e-16 -15.422276)
(300.99433 8.0066153e-18 -17.504886)
(323.11326 0 -18.437848)
(327.59488 1.7022224e-16 -20.243561)
(331.69606 -1.7009527e-16 -18.303496)
(328.55224 0 -21.071662)
(330.40198 1.3169306e-17 -17.95323)
(328.50653 -2.2014736e-17 -21.373806)
(329.21031 -3.6649866e-17 -18.20581)
(327.88963 -6.1216833e-17 -21.27067)
(327.78752 -1.1803058e-19 -18.848752)
(326.63271 4.236719e-17 -21.037471)
(325.88425 -1.4146975e-16 -19.635737)
(324.59576 -8.8411622e-17 -20.966449)
(323.23584 4.9061877e-17 -20.398551)
(321.50282 -2.0348255e-17 -21.16232)
(319.44318 -1.3616065e-16 -21.103733)
(316.97652 0 -21.585214)
(314.02396 2.1128656e-16 -21.74591)
(310.55637 -3.8997409e-17 -22.050403)
(306.50775 5.3341392e-16 -22.158491)
(301.9003 -4.2803392e-16 -22.150994)
(296.78845 1.9582754e-18 -21.835105)
(291.35193 2.894149e-16 -21.144414)
(285.84996 5.0322044e-16 -19.969301)
(280.59837 3.6069375e-16 -18.312788)
(275.87156 6.2009675e-16 -16.248689)
(271.84998 4.956358e-16 -13.932907)
(268.59179 7.84999e-16 -11.546701)
(266.05508 -6.1765487e-16 -9.2576522)
(264.13842 9.592239e-16 -7.1922021)
(262.71795 7.3662171e-16 -5.4261945)
(261.67817 1.6258344e-18 -3.9865943)
(260.92491 -2.5259033e-15 -2.8675291)
(260.38148 1.2570219e-15 -2.0436345)
(259.99983 -2.9718382e-17 -1.4599281)
(259.73962 -1.3835548e-15 -1.0827622)
(259.53698 -1.0007902e-15 -0.88296004)
(259.40899 -2.3591709e-17 -0.81364531)
(259.36625 -3.4347127e-17 -0.81218501)
(259.37712 -1.5429752e-15 -0.83294932)
(259.44851 -1.1683305e-15 -0.85202266)
(259.61012 -1.6581855e-15 -0.82805051)
(260.12812 1.192745e-15 -0.70739011)
(260.63502 1.7153976e-15 -0.52513279)
(260.92268 0 -0.38384164)
(261.06386 3.5617379e-15 -0.26633259)
(261.12245 1.006571e-17 -0.16909744)
(261.15152 -7.3183165e-18 -0.16684782)
(236.33759 -4.3228554e-16 -15.188133)
(276.37898 2.637304e-21 -16.835622)
(302.42285 -2.6838462e-16 -19.131396)
(324.31438 2.1719738e-16 -20.058835)
(327.47904 1.8427164e-16 -21.944666)
(331.52854 -1.4368212e-16 -19.831372)
(328.32157 -1.6099951e-17 -22.780336)
(330.20963 -2.6713249e-17 -19.496371)
(328.23882 0 -23.071131)
(328.95775 3.7125438e-17 -19.790386)
(327.57253 0 -22.941639)
(327.44788 -1.0327846e-16 -20.486401)
(326.25567 -4.3125368e-17 -22.702397)
(325.45262 1.0744896e-16 -21.30905)
(324.1051 0 -22.631359)
(322.66781 0 -22.090417)
(320.84744 0 -22.841378)
(318.68097 3.4251826e-17 -22.801941)
(316.09038 -2.8530197e-17 -23.268978)
(312.99471 0 -23.425429)
(309.36596 0 -23.696369)
(305.14459 -2.9512609e-16 -23.755885)
(300.36402 2.7105178e-16 -23.66155)
(295.10174 2.5920739e-18 -23.219767)
(289.56598 -3.1387779e-16 -22.357551)
(284.04192 0 -20.978002)
(278.85513 0 -19.104148)
(274.27021 -6.514383e-16 -16.83483)
(270.44347 1.5601219e-17 -14.344054)