/*--------------------------------*- C++ -*----------------------------------*\
  =========                 |
  \\      /  F ield         | OpenFOAM: The Open Source CFD Toolbox
   \\    /   O peration     | Website:  https://openfoam.org
    \\  /    A nd           | Version:  8
     \\/     M anipulation  |
\*---------------------------------------------------------------------------*/
FoamFile
{
    version     2.0;
    format      ascii;
    class       volVectorField;
    location    "0.0800043";
    object      wallShearStress;
}
// * * * * * * * * * * * * * * * * * * * * * * * * * * * * * * * * * * * * * //

dimensions      [1 -1 -2 0 0 0 0];

internalField   uniform (0 0 0);

boundaryField
{
    aerofoil
    {
        type            calculated;
        value           nonuniform List<vector> 
300
(
(-129.72063 -2.1369901e-19 -1.4488053)
(-132.90874 2.7936307e-17 -0.92340873)
(-135.78972 -7.1116754e-18 -0.37007189)
(-138.62889 -9.0878389e-19 0.22693841)
(-141.44315 3.0828668e-17 0.85737891)
(-144.20943 6.3063054e-17 1.4498114)
(-146.93168 -1.9575911e-18 2.0955699)
(-149.57546 1.4545631e-20 2.7764371)
(-152.16398 -1.3110509e-16 3.4940192)
(-154.66222 -1.3613826e-16 4.2450213)
(-157.067 2.1470388e-18 5.0296043)
(-159.36313 2.1023202e-18 5.8436939)
(-161.57548 -1.4072202e-16 6.6931835)
(-163.70835 -4.4405705e-18 7.5754449)
(-165.76982 2.9798923e-16 8.4981854)
(-167.75448 -1.965601e-19 9.4589614)
(-169.66307 3.1020213e-16 10.452318)
(-171.45979 -2.4929344e-22 11.479398)
(-173.14376 1.9285255e-19 12.537984)
(-174.7496 4.8148249e-34 13.634933)
(-176.29378 -3.3617544e-16 14.771589)
(-177.7779 1.9963566e-19 15.947751)
(-179.22861 2.3692686e-19 17.169136)
(-180.64859 -1.697884e-34 18.433893)
(-182.07119 -5.4113416e-21 19.753707)
(-183.47374 6.4230065e-21 21.121667)
(-184.85399 -3.8518599e-34 22.542518)
(-186.21861 3.849734e-16 24.025021)
(-187.55312 -3.9236872e-16 25.575281)
(-188.87032 7.9931941e-16 27.21614)
(-190.1362 1.289712e-17 28.930897)
(-191.32734 -4.2751748e-16 30.709824)
(-192.46811 -8.57415e-16 32.569486)
(-193.54936 -4.1655588e-16 34.505111)
(-194.59601 4.377995e-16 36.531092)
(-195.62282 -1.2618436e-17 38.651297)
(-196.63174 4.5395745e-16 40.855819)
(-197.62756 1.4385371e-17 43.143436)
(-198.54162 -4.711243e-16 45.515306)
(-199.35247 -4.7629275e-16 47.971826)
(-200.01506 -1.7864937e-18 50.510793)
(-200.49931 5.2575457e-20 53.141697)
(-200.76795 -4.4194966e-18 55.872049)
(-200.76921 5.2474704e-16 58.676184)
(-200.42324 -5.4954987e-16 61.560627)
(-199.76328 5.4482351e-16 64.544961)
(-198.73898 -5.5640472e-16 67.620174)
(-197.33733 5.3791754e-16 70.796703)
(-195.52665 -5.3725837e-16 74.070223)
(-193.27437 -1.8484725e-17 77.439295)
(-190.56647 1.7608101e-17 80.916346)
(-187.38346 -1.3435213e-18 84.501221)
(-183.6867 4.4790455e-18 88.179268)
(-179.46913 3.0619828e-17 91.946633)
(-174.74805 -6.0777339e-16 95.778661)
(-169.56075 -6.3308909e-16 99.619712)
(-163.98691 -1.9632093e-17 103.37783)
(-158.18183 1.2490416e-17 106.94496)
(-152.04783 -6.6611951e-16 110.25193)
(-145.4031 6.533377e-16 113.18506)
(-138.01846 -1.3042155e-15 115.5516)
(-129.81656 6.7994373e-16 117.20854)
(-120.70196 -2.453035e-19 117.97176)
(-110.63218 1.1407269e-17 117.61074)
(-99.584479 -7.1880098e-16 115.75851)
(-87.467423 -7.268504e-16 112.1278)
(-74.476809 2.2454907e-17 106.39151)
(-60.889649 -1.1128013e-17 97.917652)
(-47.236183 1.0505051e-17 86.428534)
(-34.055039 -2.5573748e-19 71.755583)
(-21.422833 -7.1536433e-16 54.158425)
(-11.246246 6.1630387e-18 34.730911)
(-5.3642227 -4.6249255e-18 16.417015)
(-2.1289154 -1.1962166e-16 5.1657159)
(-0.81266423 -4.8148249e-35 -0.23416021)
(0.26158795 1.5568324e-16 -0.35984423)
(-0.72633161 -7.8157563e-22 -0.11447866)
(-0.766089 -2.0493155e-16 -0.12727702)
(-1.1783373 -2.2511185e-16 -0.18890496)
(-1.5790854 -2.2722619e-21 -0.24763792)
(-2.1337994 -2.6046597e-16 -0.32875087)
(-2.7571842 -2.7854433e-16 -0.41819908)
(-3.4656859 2.9656417e-16 -0.51834008)
(-4.244059 -9.8222427e-33 -0.62653406)
(-5.0941154 -3.3075654e-16 -0.74309411)
(-6.011476 -3.469941e-16 -0.86741326)
(-6.9948501 -1.0789324e-20 -0.99739918)
(-8.0502552 3.7790354e-16 -1.1322481)
(-9.1692867 -3.9307848e-16 -1.2741225)
(-10.329185 2.9978711e-21 -1.4206008)
(-11.527179 4.2108955e-16 -1.5691589)
(-12.762453 -4.3409841e-16 -1.7194481)
(-14.030321 1.0234558e-20 -1.8707281)
(-15.325627 4.5838383e-16 -2.0223886)
(-16.643857 -4.6968998e-16 -2.1736992)
(-17.977629 2.8698593e-42 -2.3237933)
(-19.325115 1.381735e-26 -2.4720753)
(-20.68827 -5.0048204e-16 -2.618868)
(-22.074326 -1.019885e-15 -2.7646208)
(-23.480911 5.190888e-16 -2.9093621)
(-24.908394 5.0438978e-22 -3.0526802)
(-26.354211 -2.0529079e-26 -3.1945874)
(-27.817356 2.6071338e-26 -3.3343784)
(-29.287995 5.5273274e-16 -3.471461)
(-30.765921 -1.8982647e-24 -3.605083)
(-32.253949 -3.2631734e-20 -3.7354991)
(-33.765091 5.4949011e-22 -3.8645187)
(-35.306851 -2.863152e-26 -3.9915423)
(-36.872037 -5.8922129e-16 -4.1165512)
(-38.457775 3.8372509e-20 -4.2389277)
(-40.060823 -1.2055071e-15 -4.3583718)
(-41.680318 0 -4.4740186)
(-43.31442 6.1565521e-16 -4.5858956)
(-44.966337 4.3287636e-26 -4.6935713)
(-46.64396 2.4693228e-20 -4.7982148)
(-48.352789 -1.2679473e-15 -4.8992571)
(-50.090975 6.3988376e-16 -4.9964161)
(-51.858933 -1.2395254e-20 -5.0892747)
(-53.655018 1.240463e-21 -5.1780469)
(-55.474604 4.0201656e-20 -5.2609897)
(-57.308636 -6.6285688e-16 -5.3377675)
(-59.163225 -1.3366346e-15 -5.4077058)
(-61.047945 3.3682259e-16 -5.4710975)
(-62.975607 -3.395659e-16 -5.5282029)
(-64.950925 3.421702e-16 -5.5801511)
(-66.968367 3.452677e-20 -5.6247344)
(-69.017512 3.4738848e-16 -5.6603846)
(-71.092813 -6.9998253e-16 -5.6868431)
(-73.19533 -7.050567e-16 -5.7030305)
(-75.327985 -3.5509444e-16 -5.707595)
(-77.502424 1.0962822e-20 -5.70144)
(-79.728335 1.4693679e-39 -5.6832383)
(-81.997761 6.8466046e-26 -5.6523169)
(-84.294789 -3.6594785e-16 -5.6067479)
(-86.605361 -7.3799362e-16 -5.5471329)
(-88.942383 -3.718661e-16 -5.471627)
(-91.315486 4.8921959e-26 -5.3804494)
(-93.728747 -3.7646392e-16 -5.2695113)
(-96.177465 -1.6493027e-21 -5.1383158)
(-98.67419 4.9253958e-21 -4.9848076)
(-101.22409 3.8235443e-16 -4.809156)
(-103.82807 1.9213896e-16 -4.6097385)
(-106.48855 1.9306463e-16 -4.3847026)
(-109.2104 -2.9529627e-21 -4.1324806)
(-112.01217 1.9498861e-16 -3.8509207)
(-114.90657 7.0296443e-33 -3.536769)
(-117.88747 -1.9685506e-16 -3.1922806)
(-120.9373 6.8397403e-21 -2.8143875)
(-124.01999 -5.0384698e-21 -2.4114648)
(-126.75754 1.998931e-16 -1.9544203)
(-160.81958 4.5541786e-17 -2.9980431)
(-160.03222 -9.3593676e-17 -3.6155487)
(-159.77445 3.6242358e-19 -4.2495258)
(-159.46337 1.9491226e-16 -4.8905574)
(-159.21078 9.8893531e-17 -5.5415065)
(-158.97009 -2.0291307e-16 -6.2033712)
(-158.75675 1.4141635e-21 -6.8799159)
(-158.56514 4.801454e-20 -7.5717693)
(-158.40337 6.7351124e-33 -8.2746043)
(-158.26826 1.7391647e-18 -8.9903983)
(-158.15111 -1.6973828e-18 -9.7179363)
(-158.04117 5.4115127e-21 -10.455028)
(-157.95035 -3.8265902e-18 -11.2075)
(-157.87183 7.534972e-18 -11.970852)
(-157.82359 -3.8278725e-18 -12.750227)
(-157.79466 2.5148858e-16 -13.546638)
(-157.77115 2.5657489e-16 -14.356337)
(-157.76403 -5.2756378e-16 -15.183957)
(-157.75966 8.248337e-18 -16.025942)
(-157.77156 -5.4461175e-16 -16.887699)
(-157.79788 2.7780729e-16 -17.770976)
(-157.83349 -2.878176e-16 -18.674648)
(-157.88107 2.9312738e-16 -19.600243)
(-157.91664 2.62725e-20 -20.542098)
(-157.96903 -4.6777142e-18 -21.513422)
(-158.02267 1.0802431e-19 -22.508059)
(-158.09347 9.6296497e-35 -23.530277)
(-158.17735 -3.1810958e-16 -24.583379)
(-158.25124 -3.2436778e-16 -25.662751)
(-158.32878 6.6203842e-35 -26.777718)
(-158.39861 -3.36772e-16 -27.927715)
(-158.43679 -3.5398889e-16 -29.109142)
(-158.42218 1.089606e-17 -30.320076)
(-158.37417 1.3842621e-34 -31.570929)
(-158.31376 6.1052887e-21 -32.87287)
(-158.24875 -6.2329768e-19 -34.230369)
(-158.19205 1.0498415e-20 -35.644504)
(-158.16094 -3.8518599e-34 -37.125158)
(-158.16962 -3.9260459e-16 -38.690273)
(-158.21799 4.004519e-16 -40.343107)
(-158.30068 7.0395568e-19 -42.087819)
(-158.42456 -4.1671634e-16 -43.943551)
(-158.54132 4.2761657e-16 -45.909994)
(-158.61998 4.5463888e-19 -47.978508)
(-158.58795 -3.3653139e-20 -50.138548)
(-158.45657 3.9391286e-33 -52.433031)
(-158.18831 2.3679072e-18 -54.863667)
(-157.77963 -1.4741905e-17 -57.449767)
(-157.19842 -4.6136978e-16 -60.190915)
(-156.43897 -4.8845912e-16 -63.073784)
(-155.4935 -1.5653959e-17 -66.113954)
(-154.16318 3.2809211e-17 -69.292356)
(-152.34153 -2.0346904e-17 -72.611018)
(-149.89923 5.304528e-16 -76.071895)
(-146.74478 6.52399e-18 -79.730101)
(-142.85263 -1.7061306e-17 -83.658139)
(-138.20357 5.5461748e-16 -87.952038)
(-132.93808 5.8996099e-16 -92.753582)
(-127.39499 -1.7474779e-17 -98.113685)
(-122.37959 -6.0330268e-16 -103.66664)
(-118.63375 -5.9746112e-20 -109.4404)
(-115.30141 -5.9313648e-16 -115.11935)
(-111.34747 -6.4653458e-16 -120.25766)
(-106.00931 -6.4123517e-16 -124.42529)
(-99.047808 -6.4754077e-16 -127.09851)
(-90.503604 3.6951176e-18 -127.97035)
(-80.056614 -6.7663749e-16 -126.28691)
(-67.947703 -1.0630454e-17 -121.357)
(-54.797154 -3.6141094e-16 -112.84217)
(-41.332654 -3.5341035e-16 -100.24345)
(-28.433914 1.082235e-17 -83.567827)
(-17.054383 6.9056677e-16 -63.512951)
(-8.7418758 5.548652e-18 -41.113428)
(-4.1320639 -1.5180963e-16 -19.753619)
(-1.8710264 -1.4865181e-17 -6.9167997)
(-187.51199 -1.2333603e-15 24.511218)
(-201.19664 -1.1660921e-15 25.7515)
(-204.05422 -1.1677007e-15 25.688735)
(-205.15437 -0 25.475775)
(-205.33004 -1.1619778e-15 25.15849)
(-205.04158 4.8048496e-19 24.787913)
(-204.28798 -1.15446e-15 24.370392)
(-203.319 -2.3004627e-15 23.934546)
(-202.17125 -4.0829715e-32 23.486838)
(-200.86655 1.1434789e-15 23.033491)
(-199.39706 -2.2829626e-15 22.571345)
(-197.71675 -1.140377e-15 22.095825)
(-195.77522 -1.1374453e-15 21.603386)
(-193.57035 -3.3152283e-19 21.092099)
(-191.20371 -1.1257884e-15 20.570827)
(-188.81135 2.6627382e-22 20.057075)
(-186.4106 -1.0773942e-19 19.550733)
(-184.01582 -5.2799169e-22 19.051159)
(-181.63728 -1.0096015e-25 18.561682)
(-179.2811 1.0274502e-19 18.081118)
(-176.9383 -9.6400682e-26 17.610683)
(-174.60566 -2.1539022e-15 17.14587)
(-172.29031 1.0699906e-15 16.687404)
(-169.99051 -4.8403527e-19 16.236577)
(-167.70158 -1.1797986e-20 15.794783)
(-165.42864 1.0493544e-15 15.359734)
(-163.16669 1.0421825e-15 14.933022)
(-160.91616 -2.0715066e-15 14.511197)
(-158.67446 2.4573005e-22 14.097402)
(-156.47471 3.5644e-19 13.69265)
(-154.28654 -1.0147096e-15 13.293402)
(-152.09518 3.6034674e-22 12.901186)
(-149.93799 -1.1928787e-22 12.514305)
(-147.86687 2.9133672e-19 12.137608)
(-145.83059 -3.2556334e-20 11.766314)
(-143.83362 4.8913276e-16 11.402253)
(-141.88444 4.8520945e-16 11.044761)
(-139.98635 -9.6288104e-16 10.694059)
(-138.13523 -4.7754455e-16 10.348695)
(-136.31721 4.7391032e-16 10.008608)
(-134.52095 4.6979073e-16 9.6714473)
(-132.72941 4.6601323e-16 9.3355396)
(-130.90825 9.2437615e-16 8.9993174)
(-129.03636 -4.5854663e-16 8.6625644)
(-127.07524 1.0892612e-19 8.3227593)
(-125.02151 -4.5114273e-16 7.981638)
(-122.88293 4.4725488e-16 7.6399046)
(-120.75236 4.435033e-16 7.301174)
(-118.74121 -4.3960655e-16 6.9696464)
(-116.93883 4.3554832e-16 6.648221)
(-115.27255 6.5664483e-21 6.3272374)
(-113.35842 9.9958461e-20 5.9968333)
(-110.75452 -4.2436933e-16 5.6450921)
(-107.38796 -4.1996241e-16 5.2564231)
(-103.01947 1.0525035e-19 4.838486)
(-96.925855 -1.5704797e-21 4.3800577)
(-88.779989 4.0128371e-16 3.8909887)
(-79.441175 1.4803141e-21 3.392251)
(-70.818188 -1.8862887e-16 2.891543)
(-64.113927 -1.8205674e-16 2.4936371)
(-62.299255 1.7840282e-16 2.137858)
(-70.582755 -1.313701e-21 2.0197623)
(-90.194799 -8.4101391e-20 2.0909295)
(-114.36802 9.4918851e-21 2.3183327)
(-135.45635 4.1356916e-20 2.5020064)
(-149.57211 -3.5231306e-16 2.4527154)
(-156.62421 4.674628e-23 2.2259137)
(-159.8463 4.2094908e-20 1.8307723)
(-161.07835 2.6434753e-21 1.3763214)
(-161.51162 -4.308045e-17 0.83851968)
(-161.55616 -4.2958225e-17 0.20946471)
(-161.49588 2.1451226e-17 -0.40258386)
(-161.35134 1.3257505e-20 -1.0494619)
(-161.11204 -4.2661664e-17 -1.7340813)
(-161.20869 4.2641401e-17 -2.3794551)
)
;
    }
    inlet
    {
        type            calculated;
        value           uniform (0 0 0);
    }
    outlet
    {
        type            calculated;
        value           uniform (0 0 0);
    }
    back
    {
        type            empty;
    }
    front
    {
        type            empty;
    }
}


// ************************************************************************* //
