/*--------------------------------*- C++ -*----------------------------------*\
  =========                 |
  \\      /  F ield         | OpenFOAM: The Open Source CFD Toolbox
   \\    /   O peration     | Website:  https://openfoam.org
    \\  /    A nd           | Version:  8
     \\/     M anipulation  |
\*---------------------------------------------------------------------------*/
FoamFile
{
    version     2.0;
    format      ascii;
    class       volScalarField;
    location    "0.0800043";
    object      yPlus;
}
// * * * * * * * * * * * * * * * * * * * * * * * * * * * * * * * * * * * * * //

dimensions      [0 0 0 0 0 0 0];

internalField   uniform 0;

boundaryField
{
    aerofoil
    {
        type            calculated;
        value           nonuniform List<scalar> 
300
(
128.30071
128.5884
128.85404
129.11023
129.37837
129.62811
129.90071
130.14927
130.41048
130.65895
130.91403
131.15015
131.38582
131.61313
131.84412
132.07258
132.30716
132.53662
132.75463
132.9772
133.21504
133.46376
133.73923
134.03246
134.36934
134.73325
135.12008
135.53882
135.97535
136.44367
136.92693
137.41505
137.91962
138.43144
138.96312
139.52762
140.12141
140.74518
141.37298
142.00306
142.61519
143.20059
143.74423
144.24822
144.66033
145.02202
145.30498
145.51965
145.6659
145.73363
145.73002
145.67376
145.55958
145.40231
145.22956
145.06831
144.942
144.94963
145.03159
145.17332
145.22553
145.15165
144.88741
144.33125
143.30403
141.55763
138.85913
134.61389
128.2066
118.68873
104.64516
84.914722
59.177392
33.591675
10.025079
7.6916272
10.986898
11.245698
13.933811
16.107392
18.701503
21.230456
23.770616
26.268755
28.738622
31.174371
33.578017
35.967784
38.327669
40.618221
42.843294
45.011322
47.121108
49.172036
51.163523
53.091969
54.960507
56.777406
58.557159
60.299942
62.008837
63.683398
65.325342
66.92608
68.487712
70.015712
71.523951
73.023518
74.505959
75.970317
77.413177
78.835964
80.237135
81.620812
82.992421
84.359155
85.717094
87.068303
88.410623
89.74285
91.055682
92.355645
93.647943
94.9437
96.244066
97.546083
98.840845
100.12601
101.40175
102.67013
103.93485
105.20535
106.47285
107.72975
108.9662
110.19522
111.41772
112.63803
113.84904
115.06235
116.27572
117.49201
118.71048
119.93484
121.17011
122.42691
123.69883
124.98789
126.26707
127.50226
128.73778
127.79031
127.01527
126.24386
125.54007
124.87633
124.26136
123.68808
123.16029
122.67748
122.23648
121.82855
121.46068
121.1227
120.82574
120.56617
120.33288
120.13424
119.95813
119.81097
119.693
119.59981
119.53915
119.48868
119.46956
119.46931
119.49218
119.54344
119.60568
119.68863
119.7871
119.89688
120.005
120.11447
120.23877
120.38508
120.55685
120.75905
121.0031
121.29885
121.631
122.01391
122.4288
122.88449
123.32631
123.7814
124.23016
124.68563
125.14517
125.60781
126.08127
126.50521
126.85026
127.08585
127.22194
127.29851
127.3417
127.51948
128.02245
129.12282
131.1319
133.75105
136.57013
139.23254
141.44724
143.18076
143.96777
143.28306
140.71199
135.39034
126.29137
112.27107
91.737013
64.197493
38.068136
178.64316
177.38575
177.69626
177.67454
177.18748
176.60894
175.85095
175.03865
174.1762
173.26907
172.31322
171.28863
170.1695
168.95115
167.67487
166.39185
165.10933
163.83373
162.56797
161.31644
160.07146
158.83162
157.59762
156.37217
155.14857
153.93226
152.71747
151.50866
150.30218
149.115
147.93029
146.73811
145.56032
144.41944
143.29334
142.1821
141.09119
140.02267
138.97421
137.93613
136.90451
135.87596
134.82952
133.7623
132.64849
131.49311
130.27659
129.03844
127.81749
126.6604
125.58482
124.44036
122.96869
121.09944
118.75568
115.51255
110.95722
105.22083
99.41809
94.429966
92.189464
95.667103
104.93664
114.17028
121.0446
125.53858
127.52038
128.43903
128.7403
128.89544
128.93913
128.97806
129.02307
129.08651
129.15895
)
;
    }
    inlet
    {
        type            calculated;
        value           uniform 0;
    }
    outlet
    {
        type            calculated;
        value           uniform 0;
    }
    back
    {
        type            empty;
    }
    front
    {
        type            empty;
    }
}


// ************************************************************************* //
