/*--------------------------------*- C++ -*----------------------------------*\
  =========                 |
  \\      /  F ield         | OpenFOAM: The Open Source CFD Toolbox
   \\    /   O peration     | Website:  https://openfoam.org
    \\  /    A nd           | Version:  8
     \\/     M anipulation  |
\*---------------------------------------------------------------------------*/
FoamFile
{
    version     2.0;
    format      ascii;
    class       volScalarField;
    location    "0.290003";
    object      alphat;
}
// * * * * * * * * * * * * * * * * * * * * * * * * * * * * * * * * * * * * * //

dimensions      [1 -1 -1 0 0 0 0];

internalField   nonuniform List<scalar> 
20000
(
0.00093985404
0.0024667401
0.0034473863
0.0039638798
0.0039045396
0.0030654418
0.0011139877
8.3788883e-06
2.0609888e-09
1.9497158e-09
1.8944959e-09
1.9172304e-09
1.8967233e-09
1.9245348e-09
1.930182e-09
1.9634569e-09
1.9892738e-09
2.0350901e-09
2.0841513e-09
2.1532024e-09
2.2340645e-09
2.3399414e-09
2.4685598e-09
2.6320559e-09
2.8327821e-09
3.0815897e-09
3.3828304e-09
3.7427098e-09
4.1604812e-09
4.6330327e-09
5.1477066e-09
5.6765333e-09
6.179573e-09
6.629363e-09
7.0120439e-09
7.3276493e-09
7.579271e-09
7.7806586e-09
7.9384505e-09
8.0633816e-09
8.1623207e-09
8.2429606e-09
8.3092603e-09
8.3678059e-09
8.4215947e-09
8.4655373e-09
8.505501e-09
8.5440531e-09
8.5706715e-09
8.641844e-09
0.0009456641
0.0024601786
0.0034199021
0.0039128133
0.0038216229
0.002945925
0.00098228697
3.2049138e-06
2.0276871e-09
1.9704043e-09
1.9139684e-09
1.9379746e-09
1.9176208e-09
1.9467471e-09
1.9530939e-09
1.9879764e-09
2.0152758e-09
2.0632293e-09
2.1146702e-09
2.186845e-09
2.2714907e-09
2.3820818e-09
2.5164331e-09
2.686752e-09
2.8954391e-09
3.1528852e-09
3.4625148e-09
3.8284653e-09
4.2473669e-09
4.713313e-09
5.2133526e-09
5.7235799e-09
6.2105547e-09
6.6484393e-09
7.0223366e-09
7.3330758e-09
7.581815e-09
7.7816337e-09
7.939067e-09
8.0639121e-09
8.1627981e-09
8.2435103e-09
8.3104195e-09
8.3695796e-09
8.4232741e-09
8.4668896e-09
8.5061911e-09
8.545748e-09
8.5732606e-09
8.6438331e-09
0.00094791423
0.0024514619
0.0033917339
0.0038596413
0.0037358832
0.0028165497
0.00084958191
1.132885e-06
2.0151925e-09
1.9910553e-09
1.9342357e-09
1.9593049e-09
1.9392679e-09
1.9696238e-09
1.9768184e-09
2.0133147e-09
2.0422107e-09
2.0924027e-09
2.1464302e-09
2.2219821e-09
2.3107471e-09
2.426482e-09
2.5671062e-09
2.7449425e-09
2.9624718e-09
3.2296155e-09
3.5487644e-09
3.9218849e-09
4.3427946e-09
4.802792e-09
5.2883164e-09
5.7791112e-09
6.2476952e-09
6.6713671e-09
7.0361795e-09
7.341174e-09
7.5862339e-09
7.7838553e-09
7.939953e-09
8.06418e-09
8.1630383e-09
8.2438757e-09
8.3111844e-09
8.3707422e-09
8.4242966e-09
8.4678112e-09
8.5089364e-09
8.5474134e-09
8.588426e-09
8.6430022e-09
0.00094970634
0.0024429506
0.0033633388
0.0038034988
0.0036487047
0.0026808293
0.00072814713
3.9890064e-07
2.0159105e-09
2.0126413e-09
1.9555483e-09
1.9817774e-09
1.9621529e-09
1.9937444e-09
2.0018139e-09
2.0399489e-09
2.0704988e-09
2.123017e-09
2.1797561e-09
2.2588327e-09
2.3518923e-09
2.4729638e-09
2.6200985e-09
2.8057606e-09
3.032463e-09
3.3096529e-09
3.6386238e-09
4.0192846e-09
4.4430029e-09
4.8987768e-09
5.3723948e-09
5.8459356e-09
6.2966336e-09
6.704974e-09
7.0581147e-09
7.3552825e-09
7.5950838e-09
7.7893299e-09
7.9434095e-09
8.0664872e-09
8.1648267e-09
8.2454524e-09
8.3129813e-09
8.3727853e-09
8.4260066e-09
8.469305e-09
8.5108101e-09
8.5500819e-09
8.5961757e-09
8.6430226e-09
0.0009515792
0.0024350026
0.0033361252
0.0037493126
0.0035605129
0.0025374834
0.00061826696
1.4460756e-07
2.0253621e-09
2.0353722e-09
1.9779962e-09
2.0053304e-09
1.9862116e-09
2.0189869e-09
2.0280131e-09
2.0678601e-09
2.1002107e-09
2.1552245e-09
2.2149088e-09
2.2977702e-09
2.3954475e-09
2.5222406e-09
2.676375e-09
2.8704485e-09
3.1069982e-09
3.3949152e-09
3.7342768e-09
4.1228214e-09
4.5495131e-09
5.001284e-09
5.4634278e-09
5.9200826e-09
6.3525409e-09
6.7446769e-09
7.0852719e-09
7.3734862e-09
7.6070258e-09
7.7970861e-09
7.9484773e-09
8.0699252e-09
8.1674395e-09
8.2476116e-09
8.3151488e-09
8.3749975e-09
8.427744e-09
8.4708357e-09
8.5130971e-09
8.5539099e-09
8.6047878e-09
8.6429136e-09
0.00095325812
0.0024273046
0.0033088504
0.0036956844
0.0034711056
0.002386776
0.00051543602
5.5709514e-08
2.0405002e-09
2.058968e-09
2.0014863e-09
2.0299367e-09
2.0113817e-09
2.0454227e-09
2.0555134e-09
2.0971729e-09
2.131479e-09
2.1891612e-09
2.2520034e-09
2.3388856e-09
2.441476e-09
2.5743508e-09
2.7359455e-09
2.9389751e-09
3.1859741e-09
3.485167e-09
3.8352795e-09
4.231836e-09
4.6615504e-09
5.1096055e-09
5.5609732e-09
6.0014621e-09
6.4158313e-09
6.7911997e-09
7.1180762e-09
7.3961511e-09
7.6223873e-09
7.8074213e-09
7.9555167e-09
8.074872e-09
8.1711738e-09
8.2506255e-09
8.3179688e-09
8.3776848e-09
8.4298054e-09
8.4725423e-09
8.5153542e-09
8.5595081e-09
8.6105408e-09
8.6433085e-09
0.00095506119
0.0024196155
0.0032810602
0.0036410371
0.0033805998
0.0022286126
0.00042110392
2.3881083e-08
2.0595273e-09
2.0832213e-09
2.0259837e-09
2.0555676e-09
2.037673e-09
2.0730506e-09
2.0843423e-09
2.1279375e-09
2.1643773e-09
2.2249133e-09
2.2911471e-09
2.3823154e-09
2.4901654e-09
2.6295577e-09
2.7991645e-09
3.011798e-09
3.2699393e-09
3.5810145e-09
3.942219e-09
4.3467771e-09
4.779245e-09
5.223334e-09
5.6639422e-09
6.0884664e-09
6.484735e-09
6.8429658e-09
7.1554728e-09
7.422569e-09
7.6406938e-09
7.8200115e-09
7.9642598e-09
8.0811036e-09
8.1758634e-09
8.2543566e-09
8.3213024e-09
8.3807033e-09
8.4320668e-09
8.4743481e-09
8.5178474e-09
8.5666233e-09
8.6152586e-09
8.6441274e-09
0.00095691713
0.0024118185
0.0032524761
0.0035852866
0.0032890208
0.0020633499
0.00033493973
1.1783444e-08
2.0812119e-09
2.1083482e-09
2.0515093e-09
2.0822628e-09
2.0651468e-09
2.1019515e-09
2.1145926e-09
2.1602482e-09
2.1989918e-09
2.2625594e-09
2.3324122e-09
2.4281375e-09
2.5416162e-09
2.6879913e-09
2.8661948e-09
3.0891015e-09
3.3590779e-09
3.6825847e-09
4.055101e-09
4.4674812e-09
4.9022602e-09
5.3419755e-09
5.7717085e-09
6.1803882e-09
6.5586036e-09
6.8994618e-09
7.1970339e-09
7.4524522e-09
7.6617706e-09
7.8347626e-09
7.9746733e-09
8.0886233e-09
8.1815241e-09
8.2588324e-09
8.3251879e-09
8.3840977e-09
8.4345514e-09
8.4762748e-09
8.5206584e-09
8.5741584e-09
8.6192604e-09
8.6451594e-09
0.00095882221
0.0024039096
0.0032228123
0.0035280755
0.0031961934
0.0018920434
0.00025636763
6.8105965e-09
2.1049618e-09
2.1344537e-09
2.0781165e-09
2.1100819e-09
2.0938764e-09
2.1322023e-09
2.1463369e-09
2.1941666e-09
2.2353806e-09
2.3021588e-09
2.375875e-09
2.4764595e-09
2.595983e-09
2.7498613e-09
2.9373019e-09
3.1712009e-09
3.4537308e-09
3.790185e-09
4.1741311e-09
4.5939858e-09
5.0304147e-09
5.4650835e-09
5.8835404e-09
6.2762805e-09
6.6364337e-09
6.9597878e-09
7.2420817e-09
7.4853176e-09
7.685288e-09
7.8514546e-09
7.9866047e-09
8.097321e-09
8.1880851e-09
8.2640014e-09
8.3295828e-09
8.3878251e-09
8.4371948e-09
8.4783269e-09
8.5241252e-09
8.5816439e-09
8.6230106e-09
8.6464089e-09
0.00096082701
0.0023961377
0.0031928433
0.0034690388
0.0031016161
0.0017166849
0.00018457759
4.5882336e-09
2.130392e-09
2.1615719e-09
2.1058752e-09
2.1391139e-09
2.123954e-09
2.1638786e-09
2.1796331e-09
2.2297417e-09
2.2735941e-09
2.3437721e-09
2.4216119e-09
2.5273924e-09
2.6534211e-09
2.8153693e-09
3.0127291e-09
3.2583737e-09
3.5541688e-09
3.9040167e-09
4.2993677e-09
4.726168e-09
5.1634005e-09
5.5921839e-09
5.998818e-09
6.3754173e-09
6.7174842e-09
7.0232766e-09
7.2900667e-09
7.5207579e-09
7.7109622e-09
7.869899e-09
7.9999333e-09
8.1071193e-09
8.1954997e-09
8.2698375e-09
8.3344764e-09
8.3918737e-09
8.4399541e-09
8.4805609e-09
8.5286618e-09
8.58861e-09
8.6264899e-09
8.6477903e-09
0.00096306703
0.0023884714
0.0031620802
0.0034075446
0.0030043562
0.0015419309
0.0001200859
3.5218981e-09
2.1572973e-09
2.1898211e-09
2.134908e-09
2.1694545e-09
2.1554336e-09
2.197007e-09
2.2145039e-09
2.2670058e-09
2.3136787e-09
2.3874611e-09
2.4697209e-09
2.5810796e-09
2.7141243e-09
2.8847554e-09
3.0927609e-09
3.3509371e-09
3.6606987e-09
4.0243019e-09
4.430879e-09
4.8639112e-09
5.3009154e-09
5.7228079e-09
6.1169276e-09
6.4770804e-09
6.8010094e-09
7.0892434e-09
7.3404299e-09
7.5583478e-09
7.7384868e-09
7.8898834e-09
8.0145141e-09
8.1179174e-09
8.2037019e-09
8.2762981e-09
8.3398427e-09
8.3962084e-09
8.4427898e-09
8.4830352e-09
8.5346379e-09
8.5947927e-09
8.6297374e-09
8.6492369e-09
0.00096560639
0.0023810964
0.0031309236
0.0033433277
0.0029033547
0.0013720388
6.6740352e-05
2.9858245e-09
2.1857737e-09
2.2193523e-09
2.1652772e-09
2.2010997e-09
2.1882959e-09
2.2315831e-09
2.2509728e-09
2.3060008e-09
2.3556902e-09
2.4333073e-09
2.5203199e-09
2.6376873e-09
2.7783056e-09
2.9582771e-09
3.1777014e-09
3.4492241e-09
3.773624e-09
4.1512309e-09
4.5686747e-09
5.0070231e-09
5.4425963e-09
5.8564621e-09
6.2372791e-09
6.580619e-09
6.8863484e-09
7.157079e-09
7.3926564e-09
7.5976853e-09
7.7675644e-09
7.9111977e-09
8.0302019e-09
8.1296155e-09
8.2126256e-09
8.2833425e-09
8.3456601e-09
8.4007947e-09
8.4456757e-09
8.4858045e-09
8.541971e-09
8.6002516e-09
8.6327665e-09
8.6506989e-09
0.00096852372
0.0023743852
0.0031001372
0.0032772246
0.0027981575
0.0012082634
3.0193739e-05
2.7114419e-09
2.2156452e-09
2.2500036e-09
2.1968454e-09
2.2339731e-09
2.222527e-09
2.2676368e-09
2.2890864e-09
2.34678e-09
2.3996984e-09
2.4814103e-09
2.5735614e-09
2.6974151e-09
2.8462074e-09
3.0362173e-09
3.2678798e-09
3.5535785e-09
3.8932439e-09
4.2849633e-09
4.712722e-09
5.1552707e-09
5.5880522e-09
5.9926475e-09
6.3593064e-09
6.6854259e-09
6.9728926e-09
7.2262215e-09
7.4462687e-09
7.6383894e-09
7.7979065e-09
7.9336327e-09
8.0468489e-09
8.1421083e-09
8.2222001e-09
8.2909261e-09
8.3519e-09
8.4055933e-09
8.448598e-09
8.4889481e-09
8.5499699e-09
8.6055188e-09
8.6356627e-09
8.6521542e-09
0.00097154361
0.0023677529
0.00306933
0.0032138024
0.0026869749
0.001052249
1.1120046e-05
2.5748087e-09
2.2465578e-09
2.2816525e-09
2.2296069e-09
2.2681272e-09
2.258198e-09
2.3052321e-09
2.3288961e-09
2.3894019e-09
2.4457823e-09
2.5319042e-09
2.6296219e-09
2.7604829e-09
2.9180856e-09
3.1188886e-09
3.3636518e-09
3.6643806e-09
4.019857e-09
4.4256388e-09
4.8629388e-09
5.3083665e-09
5.7368428e-09
6.1308412e-09
6.4824486e-09
6.7909253e-09
7.060078e-09
7.2961536e-09
7.5008215e-09
7.6800985e-09
7.8292337e-09
7.9569817e-09
8.0643065e-09
8.155289e-09
8.2323529e-09
8.2990029e-09
8.3585258e-09
8.4105614e-09
8.4515842e-09
8.4926442e-09
8.5583952e-09
8.6106976e-09
8.6384736e-09
8.65359e-09
0.00097461968
0.002361202
0.0030381015
0.0031455192
0.0025674967
0.00090437692
3.5193194e-06
2.5145219e-09
2.2787547e-09
2.3145195e-09
2.263706e-09
2.3036604e-09
2.2953732e-09
2.344407e-09
2.3704465e-09
2.4339285e-09
2.494067e-09
2.584955e-09
2.6887127e-09
2.8271317e-09
2.994225e-09
3.2066222e-09
3.4654007e-09
3.7819984e-09
4.1537353e-09
4.5733326e-09
5.0191718e-09
5.4659617e-09
5.8884941e-09
6.270515e-09
6.6061664e-09
6.896585e-09
7.1473956e-09
7.3664123e-09
7.555914e-09
7.722482e-09
7.8612855e-09
7.9810478e-09
8.0824302e-09
8.1690517e-09
8.243012e-09
8.3075262e-09
8.3654908e-09
8.4156523e-09
8.4547092e-09
8.4972317e-09
8.5669998e-09
8.6157948e-09
8.6411688e-09
8.6549679e-09
0.00097789134
0.002354751
0.0030076953
0.0030754141
0.0024394324
0.00076601465
1.0295172e-06
2.4969111e-09
2.3122675e-09
2.3486405e-09
2.2991742e-09
2.3405881e-09
2.3340588e-09
2.3851886e-09
2.4137865e-09
2.4804753e-09
2.5447057e-09
2.6407555e-09
2.7510538e-09
2.8976138e-09
3.0749302e-09
3.299789e-09
3.5735498e-09
3.906834e-09
4.2951483e-09
4.7280861e-09
5.1812149e-09
5.6276524e-09
6.0424928e-09
6.4111237e-09
6.729926e-09
7.0018963e-09
7.2343715e-09
7.4365712e-09
7.6111761e-09
7.7652305e-09
7.8938141e-09
8.0056403e-09
8.1010787e-09
8.1832913e-09
8.2541054e-09
8.3164475e-09
8.3727356e-09
8.4208125e-09
8.4581014e-09
8.5032116e-09
8.5755183e-09
8.6207074e-09
8.6436766e-09
8.6562469e-09
0.00098120315
0.0023474011
0.0029738313
0.0030020069
0.0023020128
0.00063924905
3.0251325e-07
2.503369e-09
2.3470827e-09
2.3840319e-09
2.336006e-09
2.3789067e-09
2.3742731e-09
2.427623e-09
2.4590283e-09
2.5291718e-09
2.597887e-09
2.6995187e-09
2.8168792e-09
2.9722036e-09
3.160534e-09
3.3987878e-09
3.6885309e-09
4.0392622e-09
4.4443011e-09
4.8898539e-09
5.3487772e-09
5.7929709e-09
6.1982944e-09
6.5521207e-09
6.8532177e-09
7.1063922e-09
7.3205828e-09
7.5062556e-09
7.6662816e-09
7.8080674e-09
7.9265946e-09
8.0305834e-09
8.1201181e-09
8.1979074e-09
8.2655638e-09
8.3257166e-09
8.3801909e-09
8.4259851e-09
8.4619453e-09
8.5111633e-09
8.583594e-09
8.6253255e-09
8.6459098e-09
8.6572441e-09
0.00098474322
0.0023399897
0.002939137
0.0029273408
0.0021551838
0.0005276732
9.7520294e-08
2.5235729e-09
2.3831567e-09
2.4206264e-09
2.3741773e-09
2.4186305e-09
2.416071e-09
2.4718274e-09
2.5063232e-09
2.5802327e-09
2.6538125e-09
2.7614536e-09
2.8864259e-09
3.0511972e-09
3.2514073e-09
3.5040717e-09
3.8108203e-09
4.1796834e-09
4.6013826e-09
5.0585507e-09
5.5215117e-09
5.9614057e-09
6.3553249e-09
6.6929507e-09
6.9755403e-09
7.209629e-09
7.4056382e-09
7.5751246e-09
7.7209338e-09
7.8507382e-09
7.9594171e-09
8.0557113e-09
8.1394203e-09
8.2128034e-09
8.2773192e-09
8.3352785e-09
8.3877858e-09
8.43114e-09
8.466471e-09
8.5213899e-09
8.5909389e-09
8.6295288e-09
8.647705e-09
8.657544e-09
0.00098837174
0.0023317662
0.0029028168
0.0028505337
0.0019992438
0.00042390206
3.5187292e-08
2.5515374e-09
2.4204263e-09
2.4584429e-09
2.413736e-09
2.4598591e-09
2.4595951e-09
2.517972e-09
2.5558672e-09
2.6338439e-09
2.712677e-09
2.8267727e-09
2.9599564e-09
3.1349255e-09
3.3479624e-09
3.6161134e-09
3.9408849e-09
4.3284372e-09
4.7664837e-09
5.2339764e-09
5.6989745e-09
6.1323813e-09
6.5129838e-09
6.8330617e-09
7.096419e-09
7.3112048e-09
7.489194e-09
7.6428853e-09
7.774877e-09
7.8930196e-09
7.9920949e-09
8.0808732e-09
8.158867e-09
8.2278896e-09
8.2893064e-09
8.34507e-09
8.3954496e-09
8.4363281e-09
8.4719701e-09
8.5330464e-09
8.5980362e-09
8.6331393e-09
8.6489499e-09
8.6576402e-09
0.00099202369
0.0023224017
0.0028641134
0.0027672086
0.0018352703
0.00032946175
1.5086425e-08
2.5844451e-09
2.4590557e-09
2.4976273e-09
2.4548282e-09
2.5027573e-09
2.5050227e-09
2.5662536e-09
2.6078387e-09
2.6901895e-09
2.7746633e-09
2.8956933e-09
3.0377583e-09
3.2237628e-09
3.4506658e-09
3.7354455e-09
4.0792386e-09
4.4858717e-09
4.9396675e-09
5.4158726e-09
5.8806689e-09
6.305283e-09
6.6706523e-09
6.9719027e-09
7.2153939e-09
7.4107439e-09
7.5709382e-09
7.709277e-09
7.8278832e-09
7.934709e-09
8.0244568e-09
8.10593e-09
8.1783474e-09
8.2430827e-09
8.3014624e-09
8.3550163e-09
8.4030986e-09
8.441659e-09
8.4788626e-09
8.545738e-09
8.6049169e-09
8.6361051e-09
8.6497001e-09
8.6575268e-09
0.00099563243
0.0023115923
0.0028229832
0.0026792696
0.0016657095
0.0002432855
7.9309181e-09
2.6206038e-09
2.4990872e-09
2.5383016e-09
2.4976176e-09
2.5475153e-09
2.5525484e-09
2.6168392e-09
2.6623968e-09
2.7494153e-09
2.8399547e-09
2.9684705e-09
3.1201689e-09
3.3181359e-09
3.5600184e-09
3.8626105e-09
4.2263457e-09
4.6522405e-09
5.1208595e-09
5.6038498e-09
6.0659976e-09
6.4794355e-09
6.8276926e-09
7.1089367e-09
7.3320388e-09
7.5079136e-09
7.6506064e-09
7.7740822e-09
7.8797611e-09
7.9756333e-09
8.0563524e-09
8.1307579e-09
8.1977611e-09
8.2583075e-09
8.3137268e-09
8.3650323e-09
8.4106353e-09
8.4472003e-09
8.4877534e-09
8.5588969e-09
8.6116079e-09
8.6386342e-09
8.6499669e-09
8.6573297e-09
0.00099906356
0.0022989252
0.0027772509
0.0025891678
0.0014930384
0.00016450064
5.0971503e-09
2.6591889e-09
2.5407072e-09
2.5806905e-09
2.5423141e-09
2.5943235e-09
2.6023083e-09
2.669856e-09
2.7196524e-09
2.8116798e-09
2.9087629e-09
3.0453932e-09
3.2075752e-09
3.4185157e-09
3.6765914e-09
3.9982e-09
4.3827198e-09
4.8277781e-09
5.3099492e-09
5.7974676e-09
6.2543126e-09
6.6541334e-09
6.9834599e-09
7.2436453e-09
7.4459589e-09
7.6024102e-09
7.7279682e-09
7.8371117e-09
7.9303432e-09
8.0156409e-09
8.0876466e-09
8.1552447e-09
8.2170162e-09
8.2734956e-09
8.3260401e-09
8.3750272e-09
8.4179845e-09
8.4533695e-09
8.499282e-09
8.5719069e-09
8.6180844e-09
8.6409798e-09
8.650012e-09
8.6566414e-09
0.0010025729
0.0022857087
0.0027262973
0.0024958298
0.0013194966
9.4699107e-05
3.8688245e-09
2.6998163e-09
2.5841947e-09
2.6249626e-09
2.5890409e-09
2.6432595e-09
2.6543886e-09
2.7253833e-09
2.7797355e-09
2.8771617e-09
2.9813513e-09
3.1268224e-09
3.300416e-09
3.5254359e-09
3.800967e-09
4.1428053e-09
4.5487659e-09
5.0125864e-09
5.5066439e-09
5.9961253e-09
6.444849e-09
6.8286066e-09
7.1373017e-09
7.375545e-09
7.5568127e-09
7.6939725e-09
7.802839e-09
7.8982126e-09
7.9794922e-09
8.0546087e-09
8.1182254e-09
8.1792927e-09
8.2360312e-09
8.2885862e-09
8.3383423e-09
8.3849117e-09
8.4250807e-09
8.4602416e-09
8.5137147e-09
8.5841158e-09
8.6242948e-09
8.6432683e-09
8.6499725e-09
8.6553983e-09
0.0010061216
0.002272546
0.0026785782
0.0023969803
0.001148264
4.2278027e-05
3.3125041e-09
2.7424132e-09
2.6295164e-09
2.6712142e-09
2.637804e-09
2.6943637e-09
2.7088352e-09
2.7835344e-09
2.8428027e-09
2.9461114e-09
3.0580379e-09
3.2131567e-09
3.3991794e-09
3.6394713e-09
3.9338087e-09
4.2970605e-09
4.7249269e-09
5.2067306e-09
5.7105982e-09
6.1991542e-09
6.636788e-09
7.0020644e-09
7.2885907e-09
7.5042008e-09
7.6643119e-09
7.7823715e-09
7.8750624e-09
7.9572548e-09
8.0270904e-09
8.0924335e-09
8.1479928e-09
8.2028152e-09
8.2547343e-09
8.3035239e-09
8.3505688e-09
8.3946045e-09
8.4319765e-09
8.4680104e-09
8.5304111e-09
8.5950471e-09
8.6300576e-09
8.645205e-09
8.6491445e-09
8.6533841e-09
0.0010097017
0.0022579592
0.0026268264
0.0022903546
0.00098238226
1.3945771e-05
3.0650842e-09
2.7866305e-09
2.6766549e-09
2.7193197e-09
2.6886167e-09
2.7476785e-09
2.7657624e-09
2.8444613e-09
2.9090772e-09
3.018798e-09
3.1392093e-09
3.3048577e-09
3.5044081e-09
3.7612467e-09
4.0757842e-09
4.4615417e-09
4.9114916e-09
5.410073e-09
5.9212537e-09
6.4057079e-09
6.829198e-09
7.1736963e-09
7.4367488e-09
7.6292385e-09
7.7682197e-09
7.8674262e-09
7.9445084e-09
8.0141418e-09
8.0730478e-09
8.1290304e-09
8.1768764e-09
8.2257382e-09
8.2730652e-09
8.3182584e-09
8.3626486e-09
8.4040302e-09
8.4388675e-09
8.4772272e-09
8.5472491e-09
8.6049331e-09
8.6348721e-09
8.6464683e-09
8.6478295e-09
8.6503327e-09
0.0010131747
0.0022422152
0.0025719609
0.0021752855
0.00082620522
3.6578309e-06
2.9677273e-09
2.8331034e-09
2.7252769e-09
2.7693003e-09
2.7416038e-09
2.8033621e-09
2.8253249e-09
2.9083731e-09
2.978833e-09
3.095591e-09
3.2252861e-09
3.4024206e-09
3.6166836e-09
3.8914559e-09
4.2276366e-09
4.6368789e-09
5.1087507e-09
5.6224343e-09
6.137985e-09
6.6148847e-09
7.0211442e-09
7.3427809e-09
7.5813079e-09
7.7503423e-09
7.8683021e-09
7.9489995e-09
8.0110506e-09
8.0688068e-09
8.1173016e-09
8.1643192e-09
8.2048194e-09
8.2479995e-09
8.2909749e-09
8.3327435e-09
8.3745043e-09
8.4131156e-09
8.4459833e-09
8.4882701e-09
8.5629499e-09
8.6133767e-09
8.6384172e-09
8.6469447e-09
8.6470548e-09
8.6456173e-09
0.0010166705
0.0022258251
0.0025142113
0.0020556977
0.00068234598
8.6598187e-07
2.9446978e-09
2.8812978e-09
2.7758829e-09
2.8213054e-09
2.7968492e-09
2.8615683e-09
2.887727e-09
2.9755384e-09
3.0524104e-09
3.1768841e-09
3.3167425e-09
3.5063905e-09
3.7366488e-09
4.0308288e-09
4.3900835e-09
4.8235709e-09
5.3167716e-09
5.8433645e-09
6.3599135e-09
6.8256187e-09
7.2116916e-09
7.508734e-09
7.7219163e-09
7.8672241e-09
7.9642692e-09
8.0270038e-09
8.0745762e-09
8.1212286e-09
8.1598314e-09
8.1982206e-09
8.2317693e-09
8.2695525e-09
8.3084259e-09
8.3469367e-09
8.386057e-09
8.4217965e-09
8.4535748e-09
8.5018652e-09
8.5763437e-09
8.6201586e-09
8.6409252e-09
8.6470901e-09
8.6466476e-09
8.6393685e-09
0.0010203669
0.0022094835
0.0024546501
0.0019263943
0.00055146806
2.1295799e-07
2.9591315e-09
2.931493e-09
2.8284076e-09
2.8755518e-09
2.8545369e-09
2.9224739e-09
2.9532373e-09
3.0462878e-09
3.1301957e-09
3.2631199e-09
3.4140739e-09
3.617352e-09
3.8650149e-09
4.1801888e-09
4.5639283e-09
5.0221545e-09
5.5355989e-09
6.0723479e-09
6.586102e-09
7.0368676e-09
7.4001076e-09
7.6712025e-09
7.8583017e-09
7.9795702e-09
8.0557443e-09
8.1013632e-09
8.1350148e-09
8.1714225e-09
8.200646e-09
8.2306644e-09
8.257655e-09
8.2903682e-09
8.3253901e-09
8.3607982e-09
8.3972357e-09
8.4300506e-09
8.4618116e-09
8.5181035e-09
8.5869371e-09
8.6251947e-09
8.6425262e-09
8.6470974e-09
8.6463844e-09
8.6321304e-09
0.0010243284
0.0021931249
0.0024001707
0.0017875662
0.00043851254
6.5056861e-08
2.9925546e-09
2.9836574e-09
2.8830822e-09
2.9322379e-09
2.9147975e-09
2.9863615e-09
3.022177e-09
3.1210044e-09
3.2126026e-09
3.3547495e-09
3.517823e-09
3.7359585e-09
4.0025603e-09
4.3403718e-09
4.7498805e-09
5.2329374e-09
5.7649688e-09
6.3085429e-09
6.815392e-09
7.2475952e-09
7.5858949e-09
7.8299216e-09
7.990055e-09
8.0869653e-09
8.1424023e-09
8.1719589e-09
8.1924294e-09
8.2194308e-09
8.239749e-09
8.2616387e-09
8.282382e-09
8.3104353e-09
8.3418474e-09
8.3742872e-09
8.4079855e-09
8.4379528e-09
8.4708579e-09
8.5348718e-09
8.5962299e-09
8.6289983e-09
8.6431723e-09
8.6470673e-09
8.6456952e-09
8.6249287e-09
0.0010283028
0.0021749441
0.0023402493
0.0016382368
0.00033735951
2.4757093e-08
3.03592e-09
3.0379113e-09
2.9400532e-09
2.9915895e-09
2.9780007e-09
3.0535875e-09
3.0949171e-09
3.2000646e-09
3.3000399e-09
3.4522697e-09
3.6285741e-09
3.8629464e-09
4.1501551e-09
4.5123398e-09
4.9487061e-09
5.4562534e-09
6.0045428e-09
6.5510555e-09
7.0466658e-09
7.4570388e-09
7.7688276e-09
7.9843676e-09
8.1163164e-09
8.1888449e-09
8.2243748e-09
8.2385747e-09
8.2470869e-09
8.2652758e-09
8.2770596e-09
8.2912297e-09
8.3058729e-09
8.3297498e-09
8.3577817e-09
8.3873578e-09
8.4182674e-09
8.445711e-09
8.481044e-09
8.5511088e-09
8.6046473e-09
8.6323041e-09
8.6433657e-09
8.6460028e-09
8.6442382e-09
8.6185593e-09
0.001032464
0.0021555764
0.0022784496
0.0014808546
0.00024634972
1.1838161e-08
3.0854559e-09
3.0944495e-09
2.9996347e-09
3.0538624e-09
3.0445724e-09
3.1245178e-09
3.1718086e-09
3.2837759e-09
3.3929778e-09
3.5562067e-09
3.7470103e-09
3.9991288e-09
4.3087558e-09
4.6969771e-09
5.1610075e-09
5.6920641e-09
6.2536135e-09
6.7986601e-09
7.2787376e-09
7.6646621e-09
7.9484703e-09
8.1331112e-09
8.2363305e-09
8.2849017e-09
8.3019454e-09
8.3010253e-09
8.2993993e-09
8.3089248e-09
8.3123732e-09
8.3195905e-09
8.328177e-09
8.3482963e-09
8.3731801e-09
8.3999545e-09
8.4280471e-09
8.4536302e-09
8.4929762e-09
8.56573e-09
8.6121022e-09
8.6352379e-09
8.6433561e-09
8.6444237e-09
8.6417404e-09
8.6129007e-09
0.0010368746
0.0021346914
0.0022134309
0.0013181322
0.00016417714
7.1373258e-09
3.13983e-09
3.1537634e-09
3.0621982e-09
3.1194274e-09
3.1146677e-09
3.1994241e-09
3.25317e-09
3.3726312e-09
3.4918909e-09
3.6671681e-09
3.8738832e-09
4.1454481e-09
4.4794155e-09
4.8953024e-09
5.3873941e-09
5.9403314e-09
6.5113914e-09
7.0501787e-09
7.5106965e-09
7.8701955e-09
8.1233146e-09
8.2751931e-09
8.3493166e-09
8.3751398e-09
8.3754449e-09
8.3594804e-09
8.3495282e-09
8.3502647e-09
8.3455047e-09
8.3467263e-09
8.3495767e-09
8.3660313e-09
8.3880316e-09
8.4120167e-09
8.4372901e-09
8.4619973e-09
8.5072766e-09
8.5779318e-09
8.6180723e-09
8.6372721e-09
8.6432686e-09
8.6432751e-09
8.6374725e-09
8.6080107e-09
0.0010414309
0.0021111867
0.0021449515
0.0011574003
9.2771984e-05
5.2231064e-09
3.1982898e-09
3.2160462e-09
3.1279151e-09
3.1883838e-09
3.1885057e-09
3.2786291e-09
3.3394168e-09
3.4670441e-09
3.5973352e-09
3.7858662e-09
4.0100745e-09
4.3029402e-09
4.663212e-09
5.1081688e-09
5.6281541e-09
6.2005378e-09
6.7766733e-09
7.3042644e-09
7.7417983e-09
8.0729265e-09
8.2916222e-09
8.4093557e-09
8.4551613e-09
8.460976e-09
8.4446323e-09
8.4148019e-09
8.3966615e-09
8.3893718e-09
8.3766174e-09
8.3721345e-09
8.3704936e-09
8.3829e-09
8.4023273e-09
8.4234893e-09
8.4459894e-09
8.4709755e-09
8.523635e-09
8.5876746e-09
8.6224077e-09
8.6381084e-09
8.642778e-09
8.6422566e-09
8.6318343e-09
8.603694e-09
0.0010457229
0.0020822592
0.0020713265
0.0010049046
4.0453922e-05
4.3888362e-09
3.2603064e-09
3.2813462e-09
3.1968495e-09
3.2610113e-09
3.2663272e-09
3.3625155e-09
3.4309508e-09
3.5675342e-09
3.7099665e-09
3.9131086e-09
4.1565827e-09
4.4727627e-09
4.8613431e-09
5.3365035e-09
5.883564e-09
6.4721116e-09
7.0482764e-09
7.5598499e-09
7.9716642e-09
8.2708517e-09
8.452002e-09
8.534937e-09
8.5553786e-09
8.54217e-09
8.5093893e-09
8.4672697e-09
8.4407387e-09
8.4262881e-09
8.4060119e-09
8.3956739e-09
8.390912e-09
8.3989047e-09
8.4160568e-09
8.4343422e-09
8.454239e-09
8.4806591e-09
8.5400743e-09
8.5962257e-09
8.6256823e-09
8.6383869e-09
8.6419901e-09
8.6410646e-09
8.6254666e-09
8.5999116e-09
0.0010496609
0.0020484012
0.0019907769
0.00085991087
1.3129386e-05
4.0255582e-09
3.3256349e-09
3.3497712e-09
3.2692789e-09
3.3376572e-09
3.3487837e-09
3.4512845e-09
3.528263e-09
3.6746851e-09
3.8305584e-09
4.0498604e-09
4.3145265e-09
4.6561443e-09
5.0749163e-09
5.5809293e-09
6.1533981e-09
6.7539409e-09
7.3247111e-09
7.8159061e-09
8.1995765e-09
8.4615748e-09
8.6029487e-09
8.6526998e-09
8.6508522e-09
8.6181584e-09
8.5699393e-09
8.5167258e-09
8.4819722e-09
8.4610828e-09
8.4334949e-09
8.4178067e-09
8.4105208e-09
8.4141971e-09
8.4291942e-09
8.4445791e-09
8.4623022e-09
8.491334e-09
8.5557018e-09
8.6039116e-09
8.6284979e-09
8.6383841e-09
8.640871e-09
8.6395713e-09
8.6192365e-09
8.5966863e-09
0.0010530673
0.0020085871
0.0018969167
0.00072363566
3.4294688e-06
3.8855018e-09
3.3943987e-09
3.421709e-09
3.3456631e-09
3.4186821e-09
3.4361332e-09
3.5455846e-09
3.6319219e-09
3.7892669e-09
3.9600239e-09
4.1971994e-09
4.4851532e-09
4.8544456e-09
5.3051496e-09
5.8420975e-09
6.4373898e-09
7.0449214e-09
7.6047317e-09
8.0718093e-09
8.4232105e-09
8.6434031e-09
8.7437549e-09
8.7649194e-09
8.74043e-09
8.6891502e-09
8.6264298e-09
8.563178e-09
8.5205269e-09
8.4938354e-09
8.45929e-09
8.4386613e-09
8.4288436e-09
8.4290883e-09
8.4416837e-09
8.4542284e-09
8.4705763e-09
8.5036348e-09
8.5695111e-09
8.6106197e-09
8.6309768e-09
8.6382802e-09
8.6394891e-09
8.6377199e-09
8.6137445e-09
8.5939233e-09
0.001056062
0.001963497
0.0017865597
0.00059846004
8.2502531e-07
3.8553136e-09
3.4669747e-09
3.4976631e-09
3.4264663e-09
3.5045811e-09
3.5288307e-09
3.6458514e-09
3.7426148e-09
3.9120956e-09
4.0994246e-09
4.3563487e-09
4.6698082e-09
5.0690159e-09
5.5530164e-09
6.12016e-09
6.7346245e-09
7.343474e-09
7.8869653e-09
8.3267333e-09
8.6397135e-09
8.8145641e-09
8.875973e-09
8.8712705e-09
8.8240993e-09
8.7551897e-09
8.6790478e-09
8.6066364e-09
8.5565878e-09
8.5246341e-09
8.4835598e-09
8.4584591e-09
8.4455777e-09
8.4437481e-09
8.4534408e-09
8.4633178e-09
8.4794133e-09
8.5181536e-09
8.5807633e-09
8.6157854e-09
8.6323e-09
8.6376925e-09
8.6380136e-09
8.634958e-09
8.6091012e-09
8.591551e-09
0.0010589037
0.001914702
0.0016616953
0.00048622741
2.1134422e-07
3.8812234e-09
3.5438836e-09
3.5780091e-09
3.5120092e-09
3.5956867e-09
3.62727e-09
3.7527684e-09
3.8612061e-09
4.044232e-09
4.2499387e-09
4.5286261e-09
4.869992e-09
5.3013192e-09
5.8195834e-09
6.4152141e-09
7.0442055e-09
7.6482071e-09
8.1704759e-09
8.5786704e-09
8.8466681e-09
8.974071e-09
9.0019566e-09
8.9708045e-09
8.901898e-09
8.8164746e-09
8.7279518e-09
8.6471499e-09
8.5903427e-09
8.5535711e-09
8.5063364e-09
8.4770002e-09
8.4612433e-09
8.4580085e-09
8.4644016e-09
8.4718737e-09
8.4890419e-09
8.5339717e-09
8.5897548e-09
8.619547e-09
8.6328471e-09
8.6368763e-09
8.636774e-09
8.6308671e-09
8.6051454e-09
8.5895482e-09
0.0010617974
0.0018628541
0.0015265497
0.00038643114
6.7082592e-08
3.9363753e-09
3.6251126e-09
3.6628324e-09
3.6023939e-09
3.6923389e-09
3.7321311e-09
3.8672456e-09
3.9887835e-09
4.1868164e-09
4.4128291e-09
4.7155101e-09
5.0872259e-09
5.5527204e-09
6.105388e-09
6.7267034e-09
7.3645163e-09
7.9574703e-09
8.454211e-09
8.8242476e-09
9.0420052e-09
9.1235482e-09
9.1212084e-09
9.0634167e-09
8.9739862e-09
8.8731812e-09
8.7733053e-09
8.6847706e-09
8.6220006e-09
8.580732e-09
8.5276283e-09
8.49432e-09
8.4760018e-09
8.4717309e-09
8.4746283e-09
8.4799887e-09
8.4988707e-09
8.5495132e-09
8.5974887e-09
8.6223866e-09
8.6329611e-09
8.6359464e-09
8.6355202e-09
8.6258769e-09
8.6017366e-09
8.5878706e-09
0.0010647883
0.0018060262
0.0013956396
0.00029790377
2.7306449e-08
4.0070366e-09
3.7106322e-09
3.7525445e-09
3.6980594e-09
3.7952567e-09
3.8443616e-09
3.990391e-09
4.126534e-09
4.3410549e-09
4.5894731e-09
4.9185886e-09
5.3232472e-09
5.8246331e-09
6.4110256e-09
7.0539777e-09
7.6941765e-09
8.269988e-09
8.7367795e-09
9.0601038e-09
9.2242092e-09
9.265514e-09
9.2327169e-09
9.1492151e-09
9.0405595e-09
8.9255252e-09
8.8152736e-09
8.7196855e-09
8.6516648e-09
8.6062042e-09
8.547511e-09
8.5105703e-09
8.489921e-09
8.4845205e-09
8.4843923e-09
8.487848e-09
8.5095254e-09
8.5639738e-09
8.6043113e-09
8.6247462e-09
8.6329095e-09
8.6349297e-09
8.6341624e-09
8.6205558e-09
8.5988265e-09
8.5864701e-09
0.0010682052
0.0017415538
0.0012587413
0.0002160445
1.3782495e-08
4.0877733e-09
3.801091e-09
3.8477391e-09
3.8002047e-09
3.9055361e-09
3.9652256e-09
4.1231789e-09
4.2755786e-09
4.5082679e-09
4.7814251e-09
5.1396377e-09
5.5797421e-09
6.1181173e-09
6.7363141e-09
7.3955965e-09
8.0312647e-09
8.5843172e-09
9.0143932e-09
9.2837673e-09
9.3942971e-09
9.4000517e-09
9.3361244e-09
9.228375e-09
9.1018477e-09
8.9737251e-09
8.8540333e-09
8.7520621e-09
8.6794599e-09
8.6300841e-09
8.5661243e-09
8.5259228e-09
8.5030293e-09
8.4959274e-09
8.4940288e-09
8.4957958e-09
8.5214034e-09
8.5765115e-09
8.6101954e-09
8.6267578e-09
8.6328234e-09
8.6337978e-09
8.6326485e-09
8.6156193e-09
8.5963092e-09
8.5853087e-09
0.0010738535
0.0016845673
0.0011206412
0.00014128207
8.649633e-09
4.1758915e-09
3.8972037e-09
3.9495486e-09
3.9100165e-09
4.024417e-09
4.0957534e-09
4.2666449e-09
4.4371062e-09
4.6899664e-09
4.9904387e-09
5.3806432e-09
5.8585374e-09
6.434242e-09
7.0810357e-09
7.7502101e-09
8.3742631e-09
8.899352e-09
9.2830724e-09
9.4930539e-09
9.554986e-09
9.5259509e-09
9.4316242e-09
9.3011428e-09
9.1581088e-09
9.0180121e-09
8.8897688e-09
8.7820778e-09
8.705495e-09
8.6524801e-09
8.5835973e-09
8.5403816e-09
8.5152889e-09
8.5063493e-09
8.503306e-09
8.5041639e-09
8.5350554e-09
8.5864605e-09
8.6148622e-09
8.6281663e-09
8.6324204e-09
8.6326176e-09
8.6307391e-09
8.611164e-09
8.5941388e-09
8.5843413e-09
0.0010806115
0.0016215394
0.00098246613
7.702797e-05
6.4850437e-09
4.2710793e-09
4.000613e-09
4.0592709e-09
4.0283513e-09
4.1526684e-09
4.2367357e-09
4.4219886e-09
4.6125441e-09
4.8879007e-09
5.218539e-09
5.6436663e-09
6.1611971e-09
6.7733497e-09
7.4439959e-09
8.1157203e-09
8.7211767e-09
9.2117304e-09
9.5392664e-09