/*--------------------------------*- C++ -*----------------------------------*\
  =========                 |
  \\      /  F ield         | OpenFOAM: The Open Source CFD Toolbox
   \\    /   O peration     | Website:  https://openfoam.org
    \\  /    A nd           | Version:  8
     \\/     M anipulation  |
\*---------------------------------------------------------------------------*/
FoamFile
{
    version     2.0;
    format      ascii;
    class       volVectorField;
    location    "0.290003";
    object      cellDisplacement;
}
// * * * * * * * * * * * * * * * * * * * * * * * * * * * * * * * * * * * * * //

dimensions      [0 1 0 0 0 0 0];

internalField   nonuniform List<vector> 
20000
(
(0.00062528883 0 0.00048213229)
(0.00062528261 0 0.00048208856)
(0.00062526799 0 0.00048200319)
(0.00062524128 0 0.00048190861)
(0.00062519732 0 0.00048180596)
(0.00062512903 0 0.00048169772)
(0.00062502645 0 0.00048158869)
(0.00062487627 0 0.00048148788)
(0.00062465992 0 0.00048140779)
(0.00062435285 0 0.00048137062)
(0.00062392137 0 0.00048140773)
(0.00062332119 0 0.00048156885)
(0.0006224929 0 0.00048192662)
(0.00062135879 0 0.00048258941)
(0.00061981777 0 0.00048371403)
(0.00061773947 0 0.0004855297)
(0.00061495873 0 0.00048835793)
(0.00061127207 0 0.00049265923)
(0.00060642713 0 0.00049907891)
(0.00060012923 0 0.00050848743)
(0.00059203446 0 0.00052205921)
(0.00058177389 0 0.00054129822)
(0.00056897895 0 0.00056807489)
(0.00055329966 0 0.00060456991)
(0.00053451815 0 0.00065309107)
(0.00051247987 0 0.00071592153)
(0.00048735929 0 0.00079448396)
(0.00045935335 0 0.00088979773)
(0.00042916399 0 0.00099946054)
(0.00039715773 0 0.0011221672)
(0.00036414637 0 0.0012519412)
(0.00033102739 0 0.0013833203)
(0.00029830199 0 0.0015087728)
(0.00026699618 0 0.0016217802)
(0.00023789694 0 0.0017130867)
(0.00021047604 0 0.0017851478)
(0.00018597903 0 0.001827988)
(0.00016273573 0 0.001849252)
(0.00014193542 0 0.0018415241)
(0.00012254996 0 0.0018114145)
(0.00010406354 0 0.001752164)
(8.7326067e-05 0 0.0016663923)
(7.3618574e-05 0 0.0015592231)
(5.9982235e-05 0 0.0014255392)
(4.7244686e-05 0 0.0012683238)
(3.4580602e-05 0 0.0010665742)
(2.2113314e-05 0 0.00083388963)
(1.0720087e-05 0 0.00054487928)
(8.4188941e-07 0 0.00025122093)
(-4.5627746e-06 0 -1.799948e-05)
(0.00062542549 0 0.00039444787)
(0.00062541898 0 0.00039431846)
(0.0006254038 0 0.0003941704)
(0.00062537631 0 0.00039400103)
(0.00062533121 0 0.000393809)
(0.0006252613 0 0.00039359442)
(0.00062515641 0 0.00039335859)
(0.00062500297 0 0.00039310662)
(0.00062478207 0 0.00039284779)
(0.00062446876 0 0.00039259973)
(0.00062402871 0 0.00039238987)
(0.00062341707 0 0.00039226275)
(0.00062257345 0 0.00039228529)
(0.00062141912 0 0.0003925605)
(0.00061985195 0 0.0003932402)
(0.00061773931 0 0.00039454829)
(0.00061491611 0 0.00039680501)
(0.0006111749 0 0.00040047446)
(0.00060626459 0 0.00040619564)
(0.00059988713 0 0.00041486414)
(0.00059170151 0 0.00042768332)
(0.0005813413 0 0.00044620882)
(0.00056844288 0 0.00047237583)
(0.00055267202 0 0.00050844587)
(0.00053381585 0 0.00055682953)
(0.00051175519 0 0.00061988427)
(0.0004866544 0 0.00069919048)
(0.00045876111 0 0.0007956884)
(0.00042873263 0 0.0009073466)
(0.00039695546 0 0.0010327102)
(0.00036422517 0 0.0011660073)
(0.00033134785 0 0.0013018231)
(0.00029889719 0 0.0014324189)
(0.00026776096 0 0.0015513438)
(0.00023874407 0 0.0016494377)
(0.00021140636 0 0.0017280718)
(0.00018685122 0 0.0017781453)
(0.00016364253 0 0.0018058373)
(0.00014278405 0 0.001804707)
(0.00012336067 0 0.0017803331)
(0.00010492194 0 0.0017268933)
(8.8166728e-05 0 0.0016465543)
(7.4275867e-05 0 0.0015438846)
(6.062455e-05 0 0.0014144485)
(4.7840806e-05 0 0.0012605748)
(3.5181529e-05 0 0.0010631913)
(2.2746147e-05 0 0.00083375798)
(1.1331675e-05 0 0.00054964631)
(1.4479866e-06 0 0.00025869462)
(-4.0427028e-06 0 -8.3786567e-06)
(0.00062521886 0 0.00030864925)
(0.00062521145 0 0.0003084659)
(0.00062519511 0 0.00030825299)
(0.00062516607 0 0.00030800709)
(0.00062511892 0 0.00030772446)
(0.00062504632 0 0.00030740357)
(0.00062493786 0 0.00030704243)
(0.00062477975 0 0.00030664338)
(0.0006245526 0 0.00030621043)
(0.00062423118 0 0.00030575564)
(0.00062378023 0 0.00030530083)
(0.00062315458 0 0.00030488378)
(0.00062229208 0 0.00030456729)
(0.00062111405 0 0.0003044496)
(0.00061951505 0 0.00030467673)
(0.00061736321 0 0.00030547595)
(0.00061448955 0 0.0003071544)
(0.00061068662 0 0.0003101841)
(0.00060570107 0 0.00031521227)
(0.00059923407 0 0.00032315721)
(0.00059094607 0 0.00033525257)
(0.0005804749 0 0.0003531025)
(0.00056746201 0 0.00037870656)
(0.00055159053 0 0.00041440071)
(0.00053265338 0 0.00046269683)
(0.00051057003 0 0.00052601003)
(0.00048549335 0 0.00060607572)
(0.00045772747 0 0.00070372556)
(0.000427878 0 0.00081730018)
(0.00039635992 0 0.00094516968)
(0.0003639357 0 0.0010818066)
(0.00033134587 0 0.0012217637)
(0.00029919718 0 0.0013572433)
(0.00026827813 0 0.0014817486)
(0.00023938014 0 0.0015863077)
(0.00021215918 0 0.0016712607)
(0.00018758198 0 0.0017282981)
(0.00016442731 0 0.0017622701)
(0.00014353344 0 0.0017675734)
(0.00012409095 0 0.0017488699)
(0.00010570303 0 0.0017011447)
(8.8945955e-05 0 0.0016261837)
(7.489607e-05 0 0.0015280253)
(6.1230113e-05 0 0.0014028389)
(4.8408284e-05 0 0.0012523663)
(3.5756807e-05 0 0.0010592943)
(2.335604e-05 0 0.00083321193)
(1.1927407e-05 0 0.00055391096)
(2.0394148e-06 0 0.00026578906)
(-3.5471e-06 0 6.3732936e-07)
(0.00062467835 0 0.00022471132)
(0.00062466973 0 0.00022449935)
(0.00062465185 0 0.00022425195)
(0.00062462071 0 0.00022395511)
(0.00062457087 0 0.00022359879)
(0.00062449458 0 0.00022317805)
(0.00062438151 0 0.00022268783)
(0.00062421709 0 0.00022212866)
(0.00062398218 0 0.00022150101)
(0.00062365013 0 0.00022081777)
(0.00062318619 0 0.0002200963)
(0.0006225429 0 0.00021937427)
(0.0006216587 0 0.00021870887)
(0.00062045178 0 0.00021819165)
(0.00061881696 0 0.0002179694)
(0.00061661897 0 0.00021824556)
(0.00061368851 0 0.00021935665)
(0.00060981535 0 0.00022174713)
(0.00060474502 0 0.0002260924)
(0.00059817787 0 0.0002333232)
(0.00058977638 0 0.00024470838)
(0.00057918213 0 0.00026190429)
(0.00056604493 0 0.00028697681)
(0.00055006204 0 0.00032233745)
(0.00053104084 0 0.00037058346)
(0.00050893034 0 0.00043419873)
(0.00048388864 0 0.00051501873)
(0.00045625862 0 0.00061381972)
(0.00042661215 0 0.00072922131)
(0.00039537709 0 0.00085948692)
(0.00036328793 0 0.00099927634)
(0.00033102301 0 0.0011431324)
(0.00029920761 0 0.001283226)
(0.00026854481 0 0.001413019)
(0.00023980757 0 0.0015237078)
(0.00021273141 0 0.0016147486)
(0.0001881718 0 0.0016784708)
(0.00016508748 0 0.0017185808)
(0.00014418398 0 0.0017301466)
(0.00012473888 0 0.0017170451)
(0.00010640733 0 0.0016749414)
(8.9661029e-05 0 0.0016052946)
(7.5477573e-05 0 0.0015116632)
(6.1797687e-05 0 0.0013907143)
(4.8946646e-05 0 0.0012437191)
(3.6305684e-05 0 0.001054891)
(2.3942443e-05 0 0.00083224536)
(1.250724e-05 0 0.00055770626)
(2.6151457e-06 0 0.00027249722)
(-3.0756556e-06 0 9.1321208e-06)
(0.00062381437 0 0.00014254477)
(0.00062380372 0 0.00014223129)
(0.00062378331 0 0.0001418674)
(0.00062374907 0 0.00014144991)
(0.00062369548 0 0.00014097943)
(0.0006236145 0 0.00014044283)
(0.00062349557 0 0.00013983609)
(0.00062332368 0 0.00013914644)
(0.00062307923 0 0.00013837315)
(0.00062273494 0 0.00013751275)
(0.00062225525 0 0.00013657827)
(0.00062159183 0 0.00013559432)
(0.00062068182 0 0.00013461221)
(0.00061944219 0 0.00013371935)
(0.00061776575 0 0.0001330512)
(0.00061551594 0 0.00013283219)
(0.00061252084 0 0.00013336032)
(0.00060856892 0 0.0001351236)
(0.00060340393 0 0.00013879033)
(0.00059672621 0 0.00014532403)
(0.00058820015 0 0.00015603003)
(0.00057747178 0 0.00017261487)
(0.00056420024 0 0.00019721069)
(0.00054809728 0 0.00023229816)
(0.00052898808 0 0.00028055397)
(0.00050684979 0 0.00034452385)
(0.00048185131 0 0.00042612545)
(0.00045437059 0 0.00052607009)
(0.00042494681 0 0.00064323778)
(0.00039402117 0 0.00077578821)
(0.00036229272 0 0.00091856177)
(0.00033039005 0 0.0010660734)
(0.00029893597 0 0.0012105235)
(0.00026856799 0 0.001345304)
(0.0002400275 0 0.0014617968)
(0.00021312572 0 0.0015586768)
(0.00018861838 0 0.0016288033)
(0.00016562329 0 0.001674887)
(0.000144733 0 0.0016925346)
(0.00012530348 0 0.0016849488)
(0.00010703466 0 0.0016483575)
(9.0312128e-05 0 0.0015839531)
(7.6017938e-05 0 0.0014948391)
(6.2327402e-05 0 0.0013781178)
(4.9455091e-05 0 0.0012346417)
(3.6828794e-05 0 0.0010500115)
(2.4505851e-05 0 0.00083087197)
(1.3070913e-05 0 0.00056103316)
(3.1758712e-06 0 0.00027882299)
(-2.6262807e-06 0 1.7088226e-05)
(0.00062263659 0 6.2198598e-05)
(0.00062262412 0 6.1878898e-05)
(0.00062260136 0 6.1502085e-05)
(0.00062256395 0 6.1050817e-05)
(0.00062250605 0 6.0509327e-05)
(0.00062241943 0 5.9868973e-05)
(0.00062229317 0 5.9118521e-05)
(0.00062211195 0 5.8253063e-05)
(0.00062185565 0 5.7266153e-05)
(0.00062149643 0 5.6162035e-05)
(0.00062099793 0 5.4949354e-05)
(0.00062031083 0 5.3653863e-05)
(0.00061937102 0 5.2321426e-05)
(0.00061809389 0 5.1031218e-05)
(0.00061637046 0 4.9917537e-05)
(0.00061406183 0 4.9176402e-05)
(0.00061099469 0 4.9143905e-05)
(0.00060695484 0 5.0273441e-05)
(0.00060168518 0 5.3266894e-05)
(0.00059488622 0 5.9112832e-05)
(0.00058622409 0 6.9157509e-05)
(0.0005753503 0 8.5159224e-05)
(0.00056193396 0 0.00010932339)
(0.0005457023 0 0.00014418984)
(0.00052650123 0 0.00019251045)
(0.00050433456 0 0.00025688811)
(0.00047938932 0 0.00033928901)
(0.00045206882 0 0.00044039374)
(0.0004228905 0 0.00055926791)
(0.00039229747 0 0.00069401649)
(0.00036095739 0 0.00083961212)
(0.00032944891 0 0.00099056923)
(0.00029838602 0 0.0011391204)
(0.00026834615 0 0.0012786156)
(0.00024004081 0 0.0014005885)
(0.00021333994 0 0.0015030686)
(0.00018892114 0 0.0015793202)
(0.00016603275 0 0.0016312116)
(0.00014518009 0 0.0016547601)
(0.00012578273 0 0.0016525965)
(0.00010758456 0 0.0016214125)
(9.0897013e-05 0 0.0015621715)
(7.6515301e-05 0 0.0014775675)
(6.2817883e-05 0 0.0013650521)
(4.9932854e-05 0 0.001225149)
(3.732511e-05 0 0.0010446611)
(2.5045744e-05 0 0.00082909214)
(1.3618094e-05 0 0.00056391627)
(3.7208265e-06 0 0.00028477046)
(-2.1990576e-06 0 2.4571975e-05)
(0.00062115253 0 -1.6460289e-05)
(0.00062113673 0 -1.6877898e-05)
(0.00062110991 0 -1.7366373e-05)
(0.0006210677 0 -1.7933395e-05)
(0.0006210042 0 -1.8584823e-05)
(0.00062091082 0 -1.9337923e-05)
(0.00062077632 0 -2.0203845e-05)
(0.00062058481 0 -2.1200296e-05)
(0.00062031561 0 -2.2335771e-05)
(0.00061994002 0 -2.3621012e-05)
(0.00061942075 0 -2.5051965e-05)
(0.00061870731 0 -2.6613962e-05)
(0.00061773413 0 -2.8266832e-05)
(0.000616415 0 -2.9935068e-05)
(0.00061463881 0 -3.1495363e-05)
(0.00061226494 0 -3.2733134e-05)
(0.00060911707 0 -3.3351679e-05)
(0.00060498016 0 -3.2848823e-05)
(0.00059959555 0 -3.0532355e-05)
(0.00059266506 0 -2.5352927e-05)
(0.00058385615 0 -1.5929845e-05)
(0.00057282634 0 -4.609397e-07)
(0.00055925593 0 2.334201e-05)
(0.000542888 0 5.8058822e-05)
(0.00052359248 0 0.00010651672)
(0.0005013984 0 0.00017136955)
(0.00047651643 0 0.00025460841)
(0.00044937099 0 0.00035688259)
(0.00042045802 0 0.00047742437)
(0.0003902223 0 0.00061428345)
(0.00035929552 0 0.00076255337)
(0.00032821281 0 0.00091674505)
(0.00029756772 0 0.0010691537)
(0.00026788841 0 0.0012130855)
(0.00023985103 0 0.0013402257)
(0.00021337827 0 0.0014480531)
(0.00018907951 0 0.0015301513)
(0.00016631699 0 0.0015876667)
(0.0001455237 0 0.0016169254)
(0.00012617631 0 0.0016200754)
(0.0001080572 0 0.0015941791)
(9.141635e-05 0 0.0015400151)
(7.6967858e-05 0 0.0014598908)
(6.3269254e-05 0 0.0013515602)
(5.0379407e-05 0 0.0012152539)
(3.7795241e-05 0 0.0010388693)
(2.5562491e-05 0 0.00082691707)
(1.4148651e-05 0 0.00056635731)
(4.2505453e-06 0 0.00029033856)
(-1.791928e-06 0 3.1569138e-05)
(0.0006193727 0 -9.3376117e-05)
(0.00061935438 0 -9.3807097e-05)
(0.00061932427 0 -9.4319482e-05)
(0.00061927762 0 -9.4931697e-05)
(0.00061920811 0 -9.5662872e-05)
(0.00061910696 0 -9.6525272e-05)
(0.00061896251 0 -9.7535079e-05)
(0.00061875852 0 -9.8704013e-05)
(0.00061847366 0 -0.00010004561)
(0.0006180786 0 -0.00010156566)
(0.00061753505 0 -0.00010326508)
(0.00061679133 0 -0.00010513042)
(0.00061578033 0 -0.00010712782)
(0.00061441393 0 -0.00010919088)
(0.00061257896 0 -0.00011119832)
(0.00061013188 0 -0.0001129638)
(0.00060689526 0 -0.00011415395)
(0.00060265134 0 -0.00011428798)
(0.00059714126 0 -0.00011266421)
(0.00059006928 0 -0.00010812732)
(0.00058110256 0 -9.9294006e-05)
(0.00056990544 0 -8.4323539e-05)
(0.0005561716 0 -6.0814925e-05)
(0.00053965973 0 -2.6185953e-05)
(0.00052026701 0 2.2479424e-05)
(0.00049804812 0 8.786933e-05)
(0.00047324009 0 0.00017198396)
(0.00044628296 0 0.00027545351)
(0.00041765764 0 0.00039762778)
(0.00038780201 0 0.00053652485)
(0.00035731442 0 0.0006873302)
(0.00032668526 0 0.00084457)
(0.00029648523 0 0.0010006022)
(0.00026719514 0 0.0011487113)
(0.00023945949 0 0.0012807143)
(0.00021323987 0 0.0013936428)
(0.00018909334 0 0.0014813156)
(0.00016647491 0 0.0015442684)
(0.00014576362 0 0.0015790505)
(0.00012648264 0 0.0015873984)
(0.00010845191 0 0.0015666742)
(9.1868445e-05 0 0.0015174956)
(7.7373955e-05 0 0.0014418224)
(6.3680244e-05 0 0.0013376457)
(5.079396e-05 0 0.0012049693)
(3.8238122e-05 0 0.001032641)
(2.6055691e-05 0 0.00082435402)
(1.4662099e-05 0 0.00056837668)
(4.7644295e-06 0 0.00029553936)
(-1.4052079e-06 0 3.8133824e-05)
(0.00061730493 0 -0.0001686713)
(0.00061728197 0 -0.00016919651)
(0.0006172463 0 -0.00016981518)
(0.00061719316 0 -0.00017053729)
(0.00061711623 0 -0.00017137257)
(0.00061700622 0 -0.00017234287)
(0.0006168511 0 -0.00017346456)
(0.00061663385 0 -0.00017476278)
(0.00061633249 0 -0.00017625308)
(0.00061591658 0 -0.00017795614)
(0.00061534672 0 -0.00017987716)
(0.0006145698 0 -0.0001820136)
(0.000613517 0 -0.00018433659)
(0.00061209825 0 -0.00018678443)
(0.00061019777 0 -0.00018924738)
(0.00060767006 0 -0.0001915276)
(0.00060433444 0 -0.00019333998)
(0.00059997452 0 -0.00019407575)
(0.0005943342 0 -0.00019298642)
(0.00058711415 0 -0.00018901548)
(0.00057797915 0 -0.00018071923)
(0.00056660439 0 -0.00016621647)
(0.00055269155 0 -0.0001431115)
(0.00053602888 0 -0.00010849389)
(0.00051653867 0 -5.9536297e-05)
(0.00049429808 0 6.4679818e-06)
(0.00046957676 0 9.1509296e-05)
(0.00044282403 0 0.0001961941)
(0.00041450692 0 0.00031997628)
(0.000385055 0 0.00046083936)
(0.00035503027 0 0.00061405123)
(0.00032488163 0 0.00077415212)
(0.00029515075 0 0.00093358227)
(0.00026627729 0 0.0010856087)
(0.00023887205 0 0.0012221802)
(0.00021293038 0 0.0013399556)
(0.00018896391 0 0.001432932)
(0.00016650857 0 0.0015011228)
(0.00014589948 0 0.0015412322)
(0.0001267021 0 0.0015546497)
(0.00010876936 0 0.0015389691)
(9.2254359e-05 0 0.0014946773)
(7.7732435e-05 0 0.0014234066)
(6.4051038e-05 0 0.0013233519)
(5.117624e-05 0 0.0011943125)
(3.8654345e-05 0 0.0010260056)
(2.6525582e-05 0 0.00082141123)
(1.5158399e-05 0 0.00056997653)
(5.2628889e-06 0 0.00030036744)
(-1.036901e-06 0 4.4255153e-05)
(0.00061495958 0 -0.00024229336)
(0.00061493354 0 -0.00024282828)
(0.00061489388 0 -0.00024346281)
(0.00061483529 0 -0.0002442209)
(0.0006147508 0 -0.00024512704)
(0.00061463092 0 -0.00024619944)
(0.00061446303 0 -0.00024746127)
(0.00061422978 0 -0.00024893074)
(0.00061390838 0 -0.00025062964)
(0.00061346774 0 -0.00025257152)
(0.00061286728 0 -0.00025476705)
(0.00061205252 0 -0.00025721286)
(0.00061095279 0 -0.00025988664)
(0.00060947568 0 -0.00026273496)
(0.00060750276 0 -0.0002656524)
(0.00060488446 0 -0.0002684771)
(0.00060144658 0 -0.00027079729)
(0.000596971 0 -0.00027207293)
(0.00059119361 0 -0.00027146281)
(0.0005838092 0 -0.00026801421)
(0.00057449176 0 -0.00026022647)
(0.00056292279 0 -0.00024615796)
(0.00054882162 0 -0.00022343233)
(0.00053200034 0 -0.00018895494)
(0.00051241188 0 -0.00013961718)
(0.00049015584 0 -7.2928991e-05)
(0.0004655331 0 1.3090173e-05)
(0.00043900065 0 0.00011902322)
(0.00041101398 0 0.00024439221)
(0.00038198837 0 0.0003871607)
(0.00035245056 0 0.00054266056)
(0.0003228065 0 0.00070545263)
(0.00029356886 0 0.00086806886)
(0.00026513645 0 0.0010237655)
(0.00023809052 0 0.0011646219)
(0.0002124498 0 0.0012869957)
(0.00018869151 0 0.0013850131)
(0.00016641742 0 0.001458241)
(0.00014593123 0 0.0015034869)
(0.00012683343 0 0.0015218399)
(0.00010900877 0 0.0015110783)
(9.2572695e-05 0 0.0014715709)
(7.8041863e-05 0 0.0014046557)
(6.4380426e-05 0 0.0013086824)
(5.1525426e-05 0 0.0011832948)
(3.9042851e-05 0 0.0010189672)
(2.6971821e-05 0 0.00081810017)
(1.5636992e-05 0 0.00057117521)
(5.7453942e-06 0 0.00030483918)
(-6.8745812e-07 0 4.9980031e-05)
(0.00061234176 0 -0.00031436326)
(0.00061230975 0 -0.00031499073)
(0.00061226295 0 -0.00031573002)
(0.00061219608 0 -0.00031659691)
(0.0006121022 0 -0.00031760692)
(0.00061197117 0 -0.00031878762)
(0.00061178994 0 -0.00032016222)
(0.00061154023 0 -0.00032176193)
(0.00061119846 0 -0.00032361077)
(0.00061073219 0 -0.00032573649)
(0.00061009957 0 -0.00032815407)
(0.00060924436 0 -0.00033086997)
(0.00060809389 0 -0.00033386683)
(0.00060655335 0 -0.00033709395)
(0.00060450119 0 -0.0003404515)
(0.00060179087 0 -0.00034374752)
(0.00059824818 0 -0.00034653022)
(0.00059364549 0 -0.0003482896)
(0.00058771525 0 -0.00034824133)
(0.00058015442 0 -0.00034531523)
(0.00057064197 0 -0.00033800125)
(0.00055886842 0 -0.00032430553)
(0.00054457364 0 -0.00030173627)
(0.00052758972 0 -0.00026732713)
(0.00050790273 0 -0.00021769733)
(0.0004856367 0 -0.00015024109)
(0.00046112804 0 -6.31891e-05)
(0.00043483382 0 4.4019341e-05)
(0.00040719867 0 0.00017096199)
(0.00037862217 0 0.00031557437)
(0.00034959331 0 0.000473249)
(0.00032047683 0 0.00063856302)
(0.00029175341 0 0.00080415791)
(0.00026378496 0 0.00096328193)
(0.00023712264 0 0.0011081492)
(0.000211805 0 0.0012348696)
(0.00018827897 0 0.001337667)
(0.00016620433 0 0.0014157226)
(0.00014585956 0 0.0014659059)
(0.00012687766 0 0.0014890505)
(0.00010917128 0 0.0014830716)
(9.2824813e-05 0 0.0014482398)
(7.8301621e-05 0 0.0013856152)
(6.4668676e-05 0 0.0012936807)
(5.1841439e-05 0 0.0011719369)
(3.9404211e-05 0 0.0010115549)
(2.7394565e-05 0 0.00081442721)
(1.6097902e-05 0 0.00057197491)
(6.2122826e-06 0 0.00030894638)
(-3.549593e-07 0 5.529932e-05)
(0.00060946277 0 -0.00038483086)
(0.00060942673 0 -0.00038547593)
(0.00060937461 0 -0.00038624423)
(0.00060930059 0 -0.00038716125)
(0.00060919697 0 -0.0003882548)
(0.00060905346 0 -0.00038954724)
(0.00060885638 0 -0.00039106658)
(0.00060858707 0 -0.00039283799)
(0.00060822102 0 -0.00039488985)
(0.00060772501 0 -0.0003972457)
(0.00060705573 0 -0.00039992571)
(0.0006061554 0 -0.00040293806)
(0.00060494891 0 -0.00040627409)
(0.00060333925 0 -0.00040989155)
(0.00060120186 0 -0.00041369797)
(0.00059839649 0 -0.00041739686)
(0.00059474019 0 -0.00042063973)
(0.00058999944 0 -0.00042289761)
(0.00058390492 0 -0.00042337723)
(0.00057615482 0 -0.00042096161)
(0.00056643394 0 -0.00041410032)
(0.00055444461 0 -0.00040073844)
(0.00053994793 0 -0.00037827808)
(0.0005228028 0 -0.00034370027)
(0.00050300907 0 -0.00029386103)
(0.00048074836 0 -0.00022555924)
(0.00045636817 0 -0.00013741199)
(0.00043033018 0 -2.8894768e-05)
(0.00040306937 0 9.9610178e-05)
(0.00037496408 0 0.00024601198)
(0.00034646625 0 0.0004057598)
(0.00031789783 0 0.00057343731)
(0.00028970918 0 0.00074181599)
(0.00026222516 0 0.00090413607)
(0.00023597067 0 0.0010527514)
(0.0002109966 0 0.0011835733)
(0.00018772708 0 0.0012908987)
(0.00016586923 0 0.001373573)
(0.00014568459 0 0.0014284998)
(0.00012683383 0 0.0014562891)
(0.00010925615 0 0.0014549604)
(9.3009511e-05 0 0.0014246928)
(7.8510508e-05 0 0.0013662961)
(6.4914652e-05 0 0.0012783503)
(5.2123461e-05 0 0.0011602486)
(3.9737393e-05 0 0.0010037721)
(2.7793518e-05 0 0.00081040696)
(1.6540529e-05 0 0.00057239309)
(6.6630556e-06 0 0.00031270836)
(-3.9907869e-08 0 6.0254696e-05)
(0.00060632736 0 -0.00045380731)
(0.00060628395 0 -0.00045454335)
(0.00060622301 0 -0.00045541531)
(0.00060613878 0 -0.00045644057)
(0.00060602361 0 -0.00045763895)
(0.00060586647 0 -0.00045904091)
(0.00060565324 0 -0.00046067451)
(0.00060536405 0 -0.00046257705)
(0.00060497364 0 -0.0004647789)
(0.00060444693 0 -0.00046731782)
(0.00060373952 0 -0.00047021667)
(0.00060279068 0 -0.00047349793)
(0.00060152404 0 -0.00047715456)
(0.00059983772 0 -0.00048116144)
(0.000597615 0 -0.00048536619)
(0.00059471013 0 -0.00048947415)
(0.00059092932 0 -0.00049317475)
(0.00058603909 0 -0.00049592372)
(0.00057976811 0 -0.00049690879)
(0.00057181622 0 -0.00049497576)
(0.00056187464 0 -0.00048852767)
(0.00054965959 0 -0.00047544736)
(0.00053495538 0 -0.00045302235)
(0.00051764455 0 -0.00041817204)
(0.00049775906 0 -0.00036788006)
(0.0004755086 0 -0.00029880461)
(0.00045127439 0 -0.00020950134)
(0.00042551224 0 -9.9647499e-05)
(0.00039864782 0 3.041003e-05)
(0.00037103559 0 0.00017854514)
(0.00034308893 0 0.00034026556)
(0.00031508785 0 0.00051015109)
(0.00028745159 0 0.00068112329)
(0.00026047609 0 0.0008465632)
(0.00023464844 0 0.00099866663)
(0.00021003589 0 0.0011333287)
(0.00018704013 0 0.0012448066)
(0.00016541584 0 0.0013318845)
(0.00014540805 0 0.0013913549)
(0.00012670361 0 0.0014236335)
(0.00010926496 0 0.0014268123)
(9.3128446e-05 0 0.0014009919)
(7.8668412e-05 0 0.0013467448)
(6.511875e-05 0 0.0012627348)
(5.2371587e-05 0 0.0011482537)
(4.004295e-05 0 0.00099564786)
(2.8168751e-05 0 0.00080604394)
(1.6964937e-05 0 0.00057243161)
(7.0980042e-06 0 0.00031611494)
(2.5951169e-07 0 6.4838261e-05)
(0.00060294558 0 -0.00052125479)
(0.0006028966 0 -0.00052202396)
(0.00060282868 0 -0.00052293703)
(0.00060273557 0 -0.00052401916)
(0.00060260885 0 -0.00052529735)
(0.00060243731 0 -0.00052680224)
(0.00060220568 0 -0.00052856694)
(0.00060189406 0 -0.00053062555)
(0.00060147527 0 -0.00053301584)
(0.00060091412 0 -0.00053577145)
(0.00060016317 0 -0.00053892544)
(0.00059916129 0 -0.00054249616)
(0.00059782763 0 -0.00054648914)
(0.00059606297 0 -0.00055087234)
(0.00059375054 0 -0.00055545045)
(0.00059073567 0 -0.00055999208)
(0.00058682065 0 -0.00056415935)
(0.00058176973 0 -0.00056739268)
(0.00057530971 0 -0.0005688702)
(0.00056714242 0 -0.00056740398)
(0.00055696696 0 -0.00056134368)
(0.00054451561 0 -0.00054851134)
(0.00052959886 0 -0.00052604986)
(0.00051212416 0 -0.00049082378)
(0.00049215794 0 -0.00043983249)
(0.00046992009 0 -0.00037006074)
(0.00044585359 0 -0.00027953187)
(0.00042038751 0 -0.00016831121)
(0.0003939427 0 -3.6710466e-05)
(0.00036684481 0 0.00011310489)
(0.00033946905 0 0.00027670644)
(0.00031206219 0 0.00044883834)
(0.00028499591 0 0.0006222311)
(0.00025854398 0 0.00079057273)
(0.0002331596 0 0.00094590873)
(0.00020892384 0 0.0010841526)
(0.00018622125 0 0.0011995122)
(0.00016484441 0 0.0012906582)
(0.00014503022 0 0.0013544759)
(0.00012648631 0 0.0013910885)
(0.00010919703 0 0.001398636)
(9.3180565e-05 0 0.001377144)
(7.8774328e-05 0 0.0013269706)
(6.5279916e-05 0 0.0012468371)
(5.2585014e-05 0 0.0011359607)
(4.0319898e-05 0 0.00098718486)
(2.8519994e-05 0 0.00080135474)
(1.7370509e-05 0 0.00057210769)
(7.5166284e-06 0 0.00031918697)
(5.4276344e-07 0 6.9088624e-05)
(0.00059932448 0 -0.00058724445)
(0.00059926862 0 -0.00058806465)
(0.00059919227 0 -0.00058903768)
(0.00059908884 0 -0.00059019007)
(0.00059894937 0 -0.00059155231)
(0.00059876213 0 -0.00059315685)
(0.00059851106 0 -0.00059504116)
(0.00059817531 0 -0.00059724393)
(0.00059772656 0 -0.00059980666)
(0.00059712815 0 -0.00060276817)
(0.00059633095 0 -0.00060616517)
(0.00059527144 0 -0.00061002362)
(0.00059386655 0 -0.00061435281)
(0.00059201969 0 -0.00061908029)
(0.00058961141 0 -0.00062403522)
(0.00058647765 0 -0.00062901097)
(0.00058241907 0 -0.00063363134)
(0.00057719594 0 -0.00063734003)
(0.00057053403 0 -0.00063929301)
(0.00056213853 0 -0.0006382647)
(0.00055171762 0 -0.00063254327)
(0.00053903364 0 -0.00061973568)
(0.00052390317 0 -0.00059714565)
(0.00050625631 0 -0.00056160017)
(0.00048621316 0 -0.00050980677)
(0.00046401526 0 -0.00043909524)
(0.00044012865 0 -0.00034743296)
(0.0004149795 0 -0.0002348262)
(0.000388977 0 -0.00010169042)
(0.00036242538 0 4.99122e-05)
(0.00033564393 0 0.00021536315)
(0.00030884698 0 0.00038962489)
(0.00028236026 0 0.00056526489)
(0.00025643803 0 0.00073613815)
(0.00023151115 0 0.00089444563)
(0.00020766727 0 0.0010360222)
(0.00018527625 0 0.0011551152)
(0.00016416091 0 0.0012500862)
(0.00014455366 0 0.0013179458)
(0.00012618414 0 0.0013587278)
(0.00010905437 0 0.0013704966)
(9.3167771e-05 0 0.0013532096)
(7.8828546e-05 0 0.0013070204)
(6.5398672e-05 0 0.0012307009)
(5.2763969e-05 0 0.0011233958)
(4.0568768e-05 0 0.00097841212)
(2.8847261e-05 0 0.00079634265)
(1.7757339e-05 0 0.00057142277)
(7.9192059e-06 0 0.00032191336)
(8.1156122e-07 0 7.2997967e-05)
(0.00059547057 0 -0.00065179713)
(0.00059540716 0 -0.0006526702)
(0.00059532154 0 -0.00065370608)
(0.00059520675 0 -0.00065493267)
(0.00059505333 0 -0.00065638268)
(0.00059484893 0 -0.00065809094)
(0.0005945767 0 -0.00066009818)
(0.00059421487 0 -0.00066244525)
(0.00059373383 0 -0.00066517862)
(0.00059309538 0 -0.00066834147)
(0.00059224838 0 -0.00067197594)
(0.00059112684 0 -0.00067611276)
(0.00058964741 0 -0.00068077121)
(0.00058771564 0 -0.00068582965)
(0.00058520279 0 -0.00069117073)
(0.00058194255 0 -0.00069655339)
(0.00057772974 0 -0.0007016216)
(0.00057232238 0 -0.00070579206)
(0.00056544479 0 -0.00070821184)
(0.00055680749 0 -0.00070760226)
(0.00054614655 0 -0.00070203073)
(0.00053322502 0 -0.00068915879)
(0.00051786865 0 -0.00066634244)
(0.00050005193 0 -0.00063039825)
(0.00047993413 0 -0.00057788505)
(0.00045780241 0 -0.00050599135)
(0.00043410346 0 -0.00041326518)
(0.00040929613 0 -0.00029926218)
(0.00038377628 0 -0.00016443056)
(0.00035779821 0 -1.0996297e-05)
(0.00033162612 0 0.00015625684)
(0.00030543985 0 0.00033234524)
(0.00027954207 0 0.00051002155)
(0.0002541606 0 0.00068320799)
(0.00022970537 0 0.00084424017)
(0.00020626728 0 0.00098891082)
(0.00018420443 0 0.0011114947)
(0.00016336618 0 0.0012101695)
(0.00014397819 0 0.0012817659)
(0.00012579668 0 0.0013265528)
(0.0001088364 0 0.0013423996)
(9.3089148e-05 0 0.0013291932)
(7.8830252e-05 0 0.0012869015)
(6.5474064e-05 0 0.0012143283)
(5.2907691e-05 0 0.001110566)
(4.0788639e-05 0 0.00096933162)
(2.9150315e-05 0 0.00079102596)
(1.81248e-05 0 0.0005703942)
(8.3052215e-06 0 0.00032431591)
(1.0653728e-06 0 7.6602432e-05)
(0.00059139052 0 -0.00071494159)
(0.00059131898 0 -0.00071586707)
(0.0005912234 0 -0.00071696524)
(0.00059109639 0 -0.00071826579)
(0.00059092793 0 -0.00071980376)
(0.00059070506 0 -0.00072161596)
(0.00059041007 0 -0.00072374623)
(0.0005900201 0 -0.00072623927)
(0.00058950428 0 -0.00072914481)
(0.00058882279 0 -0.00073250983)
(0.00058792249 0 -0.00073638024)
(0.00058673493 0 -0.0007407904)
(0.00058517756 0 -0.00074575605)
(0.00058315485 0 -0.00075115668)
(0.00058053132 0 -0.00075686305)
(0.00057713453 0 -0.00076266146)
(0.00057275738 0 -0.00076815914)
(0.00056715315 0 -0.00077277713)
(0.00056004594 0 -0.00077565147)
(0.00055117215 0 -0.00077528486)
(0.00054026594 0 -0.00076977038)
(0.00052708625 0 -0.00075687185)
(0.00051150187 0 -0.00073375458)
(0.00049352888 0 -0.00069715938)
(0.00047334912 0 -0.00064382682)
(0.00045129116 0 -0.00057082967)
(0.00042780073 0 -0.00047698619)
(0.00040338245 0 -0.00036138685)
(0.00037837983 0 -0.00022474681)
(0.00035298302 0 -6.9616698e-05)
(0.00032742726 0 9.9282449e-05)
(0.00030185944 0 0.00027702983)
(0.00027655781 0 0.00045654318)
(0.00025172625 0 0.00063183122)
(0.0002277534 0 0.00079535186)
(0.00020473326 0 0.00094288426)
(0.00018301197 0 0.001068722)
(0.00016246314 0 0.0011708868)
(0.00014330901 0 0.0012460977)
(0.00012532668 0 0.001294633)
(0.0001085455 0 0.0013144069)
(9.294686e-05 0 0.0013051531)
(7.87801e-05 0 0.0012666609)
(6.5506768e-05 0 0.0011977628)
(5.3016529e-05 0 0.0010974995)
(4.0980021e-05 0 0.00095997264)
(2.9429111e-05 0 0.00078540681)
(1.8473006e-05 0 0.00056902287)
(8.6749541e-06 0 0.00032638315)
(1.3057947e-06 0 7.9894198e-05)
(0.00058709097 0 -0.00077670706)
(0.00058701065 0 -0.00077768562)
(0.00058690429 0 -0.00077884699)
(0.00058676407 0 -0.0007802225)
(0.0005865794 0 -0.00078184933)
(0.0005863366 0 -0.00078376689)
(0.00058601707 0 -0.00078602193)
(0.00058559688 0 -0.00078866176)
(0.00058504369 0 -0.00079174071)
(0.0005843159 0 -0.00079531056)
(0.00058335809 0 -0.00079942392)
(0.00058209917 0 -0.00080412419)
(0.00058046126 0 -0.00080936908)
(0.00057834308 0 -0.00081509016)
(0.00057560061 0 -0.00082116591)
(0.00057205969 0 -0.00082734902)
(0.00056750669 0 -0.00083326689)
(0.00056169302 0 -0.00083830547)
(0.00055435559 0 -0.00084152976)
(0.00054523946 0 -0.00084133001)
(0.00053406339 0 -0.00083593269)
(0.00052061763 0 -0.00082294565)
(0.00050480426 0 -0.00079945445)
(0.00048668194 0 -0.0007621179)
(0.00046646524 0 -0.00070771078)
(0.00044448627 0 -0.00063366203)
(0.00042125018 0 -0.00053848772)
(0.00039726657 0 -0.00042110933)
(0.00037279176 0 -0.00028276104)
(0.00034798432 0 -0.00012605672)
(0.00032305196 0 4.4345378e-05)
(0.00029810939 0 0.00022359518)
(0.00027341085 0 0.00040475982)
(0.00024913714 0 0.00058195004)
(0.00022565739 0 0.00074773684)
(0.00020306636 0 0.00089791035)
(0.00018170021 0 0.0010267756)
(0.00016145284 0 0.0011322227)
(0.00014254701 0 0.0012109403)
(0.00012477336 0 0.0012629669)
(0.00010818121 0 0.001286521)
(9.2740105e-05 0 0.0012810918)
(7.8677443e-05 0 0.0012463039)
(6.549593e-05 0 0.0011810056)
(5.3089776e-05 0 0.001084202)
(4.1142065e-05 0 0.00095033643)
(2.968344e-05 0 0.00077950478)
(1.8801335e-05 0 0.00056732664)
(9.0278701e-06 0 0.00032813757)
(1.5322858e-06 0 8.2907753e-05)
(0.00058257821 0 -0.00083712138)
(0.00058248851 0 -0.00083815248)
(0.00058237066 0 -0.00083937643)
(0.00058221634 0 -0.00084082631)
(0.00058201434 0 -0.00084254162)
(0.00058175024 0 -0.00084456398)
(0.00058140445 0 -0.00084694306)
(0.00058095181 0 -0.00084973012)
(0.00058035846 0 -0.00085298263)
(0.00057958085 0 -0.00085675646)
(0.00057856107 0 -0.00086110805)
(0.00057722908 0 -0.00086608875)
(0.00057550847 0 -0.00087161499)
(0.00057328665 0 -0.00087765667)
(0.00057041802 0 -0.0008840783)
(0.00056672157 0 -0.00089065503)
(0.00056198211 0 -0.00089697557)