/*--------------------------------*- C++ -*----------------------------------*\
  =========                 |
  \\      /  F ield         | OpenFOAM: The Open Source CFD Toolbox
   \\    /   O peration     | Website:  https://openfoam.org
    \\  /    A nd           | Version:  8
     \\/     M anipulation  |
\*---------------------------------------------------------------------------*/
FoamFile
{
    version     2.0;
    format      ascii;
    class       volScalarField;
    location    "0.290003";
    object      Ma;
}
// * * * * * * * * * * * * * * * * * * * * * * * * * * * * * * * * * * * * * //

dimensions      [0 0 0 0 0 0 0];

internalField   nonuniform List<scalar> 
20000
(
0.77203417
0.89313377
0.97064652
1.0375443
1.1012519
1.1639031
1.2198515
1.2372625
1.2326246
1.2339885
1.2297767
1.2294198
1.2253827
1.2233264
1.2188225
1.2149292
1.2092006
1.2030679
1.1952543
1.1862025
1.1752607
1.1623101
1.1469853
1.1289522
1.1080206
1.0839693
1.0569087
1.0270945
0.99511574
0.9617145
0.92814861
0.89635928
0.86827781
0.84470148
0.82567372
0.81059149
0.79865506
0.78931449
0.78200049
0.77624666
0.77168376
0.76799824
0.76497607
0.76238776
0.7601158
0.75826019
0.75676328
0.75509628
0.75469472
0.75148187
0.76931283
0.89138036
0.96949492
1.0369966
1.1013536
1.1646267
1.2192385
1.2347789
1.2298844
1.2313052
1.2269583
1.2265903
1.2224269
1.2202882
1.2156486
1.2116057
1.2057075
1.1993578
1.1913119
1.1819632
1.1706938
1.1573525
1.1416018
1.1231128
1.1017304
1.0772953
1.0500156
1.0202995
0.9888875
0.95660675
0.92454689
0.89420517
0.8671528
0.84417736
0.82541818
0.81048934
0.79863914
0.78934425
0.78204803
0.77630032
0.77173866
0.76804963
0.76501586
0.7624138
0.76013598
0.75827735
0.75666774
0.75509701
0.75396713
0.75163381
0.76661186
0.88958862
0.96842501
1.0366268
1.1017144
1.1657567
1.2186437
1.2321835
1.2270832
1.2285353
1.224057
1.2236613
1.2193802
1.2171517
1.2123865
1.2081936
1.2021361
1.195572
1.1873012
1.177656
1.1660642
1.1523329
1.1361614
1.1172137
1.095376
1.0705391
1.043008
1.01332
0.9823386
0.9509564
0.92016088
0.89114527
0.86516947
0.8429532
0.82468628
0.81005908
0.79839492
0.78921222
0.78197716
0.77626339
0.77171988
0.76803769
0.76499583
0.76238117
0.76010594
0.75825425
0.75662456
0.75504871
0.75366183
0.75163821
0.76397866
0.8878298
0.96735144
1.0362229
1.1020066
1.1668621
1.2177077
1.2294147
1.2241658
1.2256533
1.2210487
1.2206253
1.2162276
1.2139069
1.209016
1.2046702
1.1984505
1.1916645
1.1831591
1.173205
1.1612775
1.1471418
1.1305338
1.1111091
1.0887971
1.0635393
1.0357412
1.006063
0.97547933
0.94493343
0.91532939
0.88761086
0.86276346
0.84139283
0.8236917
0.80943776
0.79801482
0.78898518
0.78184637
0.77618881
0.77167379
0.76800553
0.76496395
0.76234424
0.76007581
0.75822891
0.75656896
0.75498511
0.75327233
0.75167461
0.7614451
0.88616204
0.96636124
1.0358909
1.1023502
1.1680803
1.2165293
1.2265171
1.2211411
1.2226521
1.2179216
1.2174627
1.2129515
1.2105336
1.2055192
1.2010137
1.194628
1.1876092
1.1788592
1.1685837
1.156309
1.1417571
1.1246992
1.1047839
1.0819841
1.0562966
1.0282286
0.99855578
0.96834588
0.93857551
0.91007808
0.88360151
0.85989637
0.83943591
0.82239012
0.80858751
0.79746705
0.788636
0.78162486
0.77604648
0.77157772
0.76793593
0.76490309
0.76228561
0.7600301
0.75819187
0.75651563
0.754882
0.75299322
0.75170493
0.7589766
0.8845241
0.96540243
1.0355859
1.1026913
1.1693274
1.2150437
1.2235092
1.2179947
1.219527
1.2146778
1.2141803
1.2095591
1.2070378
1.2018975
1.1972219
1.1906607
1.1833948
1.1743861
1.1637744
1.1511365
1.1361512
1.1186233
1.0981972
1.0748919
1.0487662
1.0204327
0.99077813
0.96094858
0.93193747
0.90450802
0.8792416
0.85668579
0.83717524
0.82083833
0.8075438
0.79677426
0.78817987
0.78132517
0.77584685
0.77143977
0.76783553
0.76482024
0.76221276
0.75997561
0.75814901
0.75645525
0.75472412
0.75275766
0.75172982
0.75656534
0.8829374
0.96449522
1.0353368
1.1030609
1.1706059
1.2132643
1.2204111
1.2147478
1.2162945
1.2113294
1.2107851
1.2060535
1.2034189
1.1981475
1.1932888
1.1865421
1.179015
1.1697351
1.1587732
1.1457564
1.1303201
1.1123015
1.091345
1.0675186
1.0409514
1.0123649
0.98275164
0.95331989
0.92506335
0.89867292
0.87458626
0.85317567
0.83464012
0.81905668
0.80631816
0.79594232
0.78761909
0.78094696
0.77558822
0.77125831
0.76770251
0.76471328
0.7621234
0.75991057
0.7581002
0.75638912
0.75450792
0.75258743
0.75174
0.75423272
0.88142039
0.96366043
1.0351629
1.1034798
1.171889
1.2111968
1.2172033
1.2114081
1.2129597
1.2078803
1.2072795
1.2024356
1.1996758
1.1942666
1.1892114
1.1822692
1.1744676
1.1649038
1.1535777
1.1401641
1.1242562
1.1057233
1.084215
1.0598526
1.0328442
1.0040246
0.97448592
0.94548312
0.91799383
0.89263126
0.8697035
0.84943023
0.8318822
0.81708057
0.80493373
0.79498592
0.78696294
0.78049646
0.77527495
0.77103614
0.76753886
0.76458383
0.7620191
0.75983686
0.75804651
0.75631144
0.75425686
0.75245009
0.75173728
0.75198819
0.87998061
0.96289873
1.0350726
1.1039681
1.1731356
1.208842
1.213898
1.2079755
1.2095221
1.2043292
1.2036606
1.1987011
1.1958034
1.1902502
1.1849864
1.17784
1.1697523
1.1598925
1.1481872
1.1343572
1.1179557
1.0988842
1.0768034
1.0518926
1.0244493
0.99542447
0.96600236
0.93746804
0.9107674
0.8864299
0.8646445
0.84549723
0.82894037
0.81493897
0.80341017
0.79391777
0.78621933
0.77997843
0.77490989
0.77077487
0.76734542
0.76443222
0.76189999
0.75975527
0.75798718
0.75621348
0.75399971
0.75233032
0.75172493
0.74983247
0.87861817
0.96220559
1.0350628
1.1045406
1.1742919
1.206189
1.2104883
1.2044464
1.2059777
1.2006721
1.1999231
1.1948451
1.1917981
1.1860964
1.1806136
1.1732552
1.1648698
1.1547011
1.1426001
1.1283314
1.1114122
1.091777
1.0691034
1.0436348
1.0157693
0.9865752
0.95732001
0.92930176
0.90341944
0.88011226
0.85945751
0.8414234
0.82585438
0.81266191
0.8017687
0.7927522
0.7853977
0.779399
0.77449711
0.77047705
0.76712385
0.76425947
0.76176701
0.75966737
0.75792095
0.75608141
0.75375402
0.75222033
0.75170535
0.74773307
0.87731753
0.96156385
1.0351209
1.1052054
1.1753189
1.2031987
1.206977
1.2008185
1.202321
1.1969024
1.1960617
1.1908645
1.1876592
1.1818061
1.1760947
1.1685161
1.1598214
1.1493288
1.1368131
1.122081
1.1046194
1.0843951
1.0611101
1.0350791
1.0068113
0.97749263
0.94846219
0.92101358
0.89598424
0.87371724
0.8541842
0.8372491
0.82265925
0.81027702
0.80002952
0.79150329
0.78450749
0.77876438
0.77404071
0.7701453
0.76687578
0.76406652
0.76162102
0.75957452
0.75784622
0.7559027
0.75353196
0.75212
0.75168092
0.74567729
0.87608038
0.96096881
1.0352385
1.1059732
1.1761664
1.1996912
1.2033551
1.1970831
1.1985441
1.1930161
1.1920764
1.1867623
1.1833907
1.1773824
1.1714319
1.163624
1.1546069
1.143773
1.130821
1.1155992
1.0975694
1.0767311
1.0528177
1.0262245
0.99758255
0.96819273
0.93945198
0.91263158
0.88849372
0.86728008
0.8488619
0.83301081
0.81938722
0.80781025
0.79821215
0.79018504
0.78355841
0.77808112
0.77354512
0.76978258
0.76660308
0.76385458
0.76146326
0.7594779
0.75776157
0.7556748
0.75333552
0.75202762
0.75165352
0.74366025
0.8748815
0.96041329
1.0354037
1.1068547
1.1767707
1.1960224
1.1996082
1.1932366
1.1946505
1.1890207
1.187975
1.1825446
1.178996
1.172827
1.1666262
1.1585789
1.1492245
1.1380288
1.1246166
1.1088776
1.090254
1.0687774
1.0442214
1.0170728
0.98809385
0.95869503
0.93031517
0.90418508
0.88097914
0.86083347
0.84352412
0.82874099
0.81606732
0.80528551
0.79633505
0.78881106
0.7825601
0.77735591
0.77301492
0.76939195
0.76630772
0.76362505
0.76129525
0.75937796
0.75766466
0.75541059
0.75315488
0.75194091
0.7516245
0.74168169
0.87372554
0.95990922
1.0356197
1.1078647
1.1770775
1.1924396
1.1957592
1.189299
1.1906577
1.1849275
1.1837634
1.1782133
1.1744759
1.1681402
1.1616783
1.1533795
1.1436701
1.132089
1.1181915
1.1019075
1.0826644
1.0605255
1.035316
1.007626
0.97835685
0.94901983
0.92107762
0.89570248
0.87346973
0.85440704
0.83820062
0.82446841
0.81272545
0.80272448
0.79441541
0.78739432
0.78152197
0.77659542
0.77245476
0.76897657
0.76599172
0.76337959
0.76111888
0.75927402
0.75754994
0.75512507
0.75297986
0.75185831
0.75159492
0.73980117
0.87266095
0.95949299
1.0359242
1.109038
1.1770851
1.1886482
1.1918274
1.1852785
1.1865663
1.1807346
1.1794385
1.1737665
1.1698301
1.1633228
1.1565875
1.148022
1.1379369
1.1259448
1.1115366
1.0946795
1.0747911
1.0519672
1.0260979
0.99788925
0.96838692
0.93919073
0.91176736
0.887213
0.86599414
0.84802855
0.83291841
0.82021875
0.80938478
0.80014687
0.79246911
0.7859471
0.78045311
0.77580621
0.77186933
0.76853965
0.76565717
0.76312012
0.76093626
0.75916397
0.75740646
0.75482675
0.75280863
0.75177968
0.75156592
0.73798419
0.8716569
0.95914854
1.0362975
1.1103416
1.1767383
1.1847207
1.1877955
1.1811613
1.1823666
1.1764369
1.1749991
1.1692053
1.1650604
1.1583746
1.1513506
1.1424995
1.132016
1.1195867
1.1046424
1.087184
1.066624
1.0430937
1.0165636
0.98786893
0.95820074
0.92923215
0.90241235
0.87874481
0.85857908
0.84172307
0.82770136
0.81601449
0.80606564
0.79757014
0.79051057
0.78448077
0.77936213
0.77499465
0.77126326
0.76808436
0.7653062
0.7628488
0.76074956
0.75904407
0.75721784
0.75452498
0.75264306
0.75170609
0.75153847
0.73619419
0.87068898
0.95886625
1.0367305
1.1117425
1.1759652
1.1806165
1.1836641
1.1769489
1.1780611
1.1720376
1.1704494
1.1645328
1.1601676
1.1532925
1.145961
1.1368025
1.1258976
1.1130051
1.0974995
1.0794108
1.0581525
1.0338967
1.0067122
0.97757501
0.94781909
0.91917163
0.89304232
0.87032646
0.85125052
0.83551406
0.82257106
0.81187559
0.80278595
0.79500988
0.78855283
0.78300585
0.77825714
0.77416682
0.77064103
0.76761379
0.76494099
0.76256801
0.76056078
0.7589089
0.7569653
0.7542315
0.75248704
0.75163889
0.7515142
0.73444519
0.86977779
0.95866944
1.0372435
1.1132253
1.1746605
1.1764302
1.1794376
1.1726483
1.1736564
1.1675421
1.1657926
1.1597491
1.1551477
1.1480686
1.1404085
1.1309205
1.1195724
1.1061911
1.0900982
1.0713486
1.0493648
1.0243677
0.99654389
0.96701938
0.9372642
0.90903736
0.88368655
0.86198523
0.84403253
0.82942258
0.81754642
0.80781925
0.79956113
0.79247959
0.78660749
0.78153185
0.77714564
0.77332846
0.77000693
0.76713098
0.7645639
0.76228022
0.76037102
0.75875164
0.7566369
0.75395731
0.75234489
0.75158093
0.75150099
0.73271601
0.86892008
0.95856198
1.0378539
1.1147486
1.1729109
1.1721838
1.1751224
1.1682656
1.1691582
1.1629521
1.1610267
1.1548479
1.1499915
1.1426916
1.1346825
1.1248442
1.1130321
1.0991356
1.0824274
1.0629849
1.0402488
1.0145001
0.98606235
0.95621847
0.92656232
0.89886015
0.87437548
0.8537484
0.83694832
0.82346818
0.81264431
0.80386053
0.7964045
0.78999105
0.78468485
0.78006739
0.77603451
0.77248493
0.76936498
0.76663881
0.7641775
0.76198798
0.76017901
0.75856367
0.75624297
0.75370144
0.7522216
0.75153723
0.75150351
0.73104797
0.86815354
0.95858454
1.0386167
1.1162883
1.1707146
1.1678345
1.1707246
1.1637993
1.1645622
1.1582612
1.1561421
1.149818
1.1446868
1.1371505
1.1287741
1.1185663
1.1062694
1.0918288
1.0744749
1.0543057
1.0307918
1.0042877
0.97527324
0.945191
0.91574111
0.88867097
0.86513872
0.84564178
0.83001913
0.81766816
0.80787918
0.80001207
0.79332715
0.78755423
0.78279385
0.77862009
0.77492996
0.77164116
0.7687189
0.76614006
0.76378473
0.76169425
0.75998034
0.75833229
0.75580697
0.75345609
0.75212071
0.75150986
0.75151443
0.7294232
0.86745396
0.95872819
1.0395405
1.1177572
1.1680472
1.1633959
1.1662359
1.1592386
1.159857
1.1534569
1.151126
1.1446468
1.1392232
1.131437
1.1226776
1.1120804
1.0992755
1.0842588
1.0662263
1.0452963
1.0209819
0.99372765
0.96418704
0.9339605
0.9048322
0.87850311
0.85600684
0.83769094
0.82326512
0.81203821
0.80326364
0.79628453
0.79033839
0.78517755
0.78094224
0.77719673
0.77383758
0.77080163
0.76807207
0.76563736
0.76338882
0.76140259
0.75976935
0.75803831
0.75534778
0.75322049
0.75203888
0.75149833
0.75152941
0.72783595
0.86680562
0.95898058
1.0406454
1.1190686
1.1648576
1.1588529
1.161651
1.1545725
1.1550305
1.1485265
1.1459665
1.1393251
1.1335948
1.1255472
1.1163888
1.1053797
1.09204
1.0764116
1.0576656
1.0359406
1.0108074
0.98281871
0.95281686
0.92255287
0.89386827
0.86838981
0.84700952
0.82991978
0.81670415
0.80659156
0.79880808
0.79268636
0.78744567
0.78286792
0.77913651
0.77580321
0.77276225
0.76997034
0.76742756
0.76513325
0.76299309
0.76111635
0.75954076
0.75766028
0.75488788
0.75299453
0.75196837
0.75149672
0.75155209
0.72628988
0.86619593
0.95932051
1.0419542
1.1201438
1.1611198
1.1541927
1.1569492
1.1497868
1.1500699
1.1434604
1.1406578
1.13385
1.1278001
1.1194783
1.1099027
1.0984546
1.0845492
1.0682709
1.0487755
1.026223
1.0002586
0.97156422
0.94118159
0.91099914
0.88288562
0.85836647
0.83817713
0.82235152
0.81035236
0.80133931
0.79452122
0.78922425
0.784655
0.780631
0.77738205
0.77444457
0.77170825
0.76915082
0.76678807
0.76463018
0.76260079
0.76083725
0.75928873
0.75718656
0.75444948
0.75278066
0.75190426
0.75150263
0.75159073
0.7247445
0.86559863
0.95970372
1.0434595
1.1208707
1.1568573
1.1493983
1.1521151
1.144871
1.1449708
1.138259
1.1352014
1.1282224
1.1218383
1.1132262
1.1032109
1.0912921
1.076787
1.0598187
1.0395379
1.0161271
0.98932754
0.9599702
0.9293034
0.89933254
0.8719216
0.84846853
0.82953879
0.81500683
0.80422285
0.79628966
0.79040974
0.78590311
0.7819709
0.77847123
0.77568309
0.77312494
0.77067925
0.76834609
0.76615606
0.76413069
0.76221491
0.76056423
0.75900656
0.75663076
0.75404975
0.75258538
0.75184958
0.75153498
0.7516485
0.72321098
0.86501356
0.9601467
1.0452236
1.1212003
1.1524841
1.1444679
1.1471595
1.1398292
1.139739
1.1329267
1.1296002
1.122442
1.1157056
1.1067825
1.0963011
1.0838758
1.068735
1.0510362
1.0299339
1.0056382
0.97800955
0.94804895
0.91721059
0.88759168
0.86101732
0.83873315
0.82112277
0.80790386
0.79832631
0.79144896
0.7864787
0.78272685
0.77939667
0.77639191
0.77404309
0.77184759
0.76967843
0.7675587
0.7655337
0.76363747
0.76183811
0.76029234
0.75868411
0.75604079
0.75369404
0.75241988
0.75181262
0.75158095
0.75173494
0.72166936
0.86443171
0.96061737
1.0472331
1.1210479
1.1481183
1.1394363
1.1421046
1.1346807
1.134382
1.1274638
1.123852
1.1165036
1.109394
1.1001348
1.089157
1.0761871
1.0603738
1.0419037
1.0199443
0.99474183
0.96630278
0.93581621
0.90493495
0.87581723
0.85021442
0.82919554
0.81295257
0.80105574
0.79267047
0.78682254
0.78273095
0.77969856
0.77693403
0.77439502
0.77246502
0.77061501
0.76870837
0.76679074
0.76492294
0.76315335
0.76147288
0.76001404
0.75830413
0.7554722
0.75338617
0.7522935
0.7518002
0.75162485
0.75186662
0.72019712
0.86391949
0.9611605
1.0495338
1.1203703
1.1433912
1.1343223
1.1369505
1.1294214
1.1288972
1.121866
1.1179494
1.1103981
1.1028911
1.0932668
1.0817603
1.0682062
1.0516834
1.0324009
1.0095501
0.98342616
0.95421082
0.92329517
0.89251506
0.86405496
0.83955647
0.81988815
0.80504558
0.79447119
0.78726198
0.78241738
0.77916775
0.77682086
0.77458314
0.7724811
0.77095169
0.76942935
0.76777112
0.76604383
0.76432548
0.76268115
0.76112136
0.75972218
0.75784636
0.75496445
0.75313391
0.75220464
0.7518067
0.75165329
0.75205575
0.71877594
0.86345427
0.96173568
1.0520767
1.1191064
1.1384812
1.1290949
1.1316726
1.1240308
1.1232764
1.1161274
1.1118841
1.1041122
1.0961804
1.0861594
1.0740914
1.0599132
1.0426437
1.0225069
0.99873143
0.97168105
0.94174128
0.91051341
0.87999306
0.85235179
0.82908411
0.81083478
0.79741042
0.78815566
0.78210769
0.77824253
0.7757892
0.77409457
0.77234251
0.77064941
0.76950534
0.76829311
0.766868
0.76531926
0.76374291
0.76222346
0.76078438
0.75941146
0.75730252
0.75453961
0.75293925
0.75214959
0.75182359
0.75168439
0.75228091
0.71734829
0.86301606
0.96232439
1.0547894
1.1171924
1.1333402
1.1237513
1.1262672
1.1185101
1.1175079
1.1102383
1.1056432
1.0976288
1.0892429
1.0787931
1.0661311
1.051288
1.0332332
1.0121992
0.98746971
0.9595008
0.92890934
0.89750682
0.86741771
0.8407573
0.81883381
0.80204936
0.79005206
0.78211831
0.77721755
0.77430603
0.77259637
0.77151639
0.7702097
0.76889923
0.76812655
0.76720934
0.76599965
0.76461797
0.76317672
0.76178231
0.7604599
0.75907722
0.75670524
0.75418308
0.75279302
0.75212686
0.75184783
0.75172535
0.752499
0.71593727
0.86263324
0.96298151
1.0576409
1.1146267
1.1281623
1.1182919
1.1207316
1.1128492
1.1115811
1.1041817
1.0992082
1.0909286
1.0820596
1.0711489
1.0578607
1.0423103
1.023429
1.0014543
0.97574695
0.94688337
0.91573583
0.88431639
0.85484033
0.82931817
0.80883135
0.79353647
0.78298193
0.77637856
0.77260425
0.77060571
0.76959256
0.76907629
0.7681826
0.76723202
0.76681269
0.76618064
0.76516622
0.76394071
0.76262855
0.76135919
0.76014203
0.75871
0.75610936
0.75386631
0.75267602
0.75212516
0.75188942
0.75178725
0.75269663
0.71453235
0.86231028
0.96372007
1.0605112
1.1113581
1.1227848
1.1127123
1.1150532
1.1070361
1.1054817
1.097933
1.0925587
1.0839936
1.074614
1.0632088
1.0492609
1.0329574
1.0132058
0.99024786
0.96354808
0.93383411
0.90225084
0.87099162
0.84231633
0.81807732
0.79909171
0.78530517
0.7762322
0.77096202
0.76827646
0.76712771
0.76678147
0.76675923
0.76626093
0.76565305
0.7655587
0.76520607
0.76436808
0.763288
0.76210018
0.76095525
0.75982199
0.75829105
0.75555218
0.75358769
0.75257761
0.75213476
0.75195335
0.75187944
0.75286849
0.71310669
0.86203893
0.96457961
1.0632722
1.1073386
1.1172602
1.1069934
1.1092107
1.1010513
1.0991914
1.0914774
1.085679
1.0768091
1.0668909
1.0549547
1.0403104
1.0232045
1.0025358
0.97855518
0.95086087
0.92036454
0.88849086
0.85758622
0.82989909
0.80706714
0.78962158
0.77738822
0.7698429
0.76588719
0.76422797
0.76385588
0.7641586
0.76455499
0.76444622
0.76416855
0.76436232
0.76427778
0.76360647
0.7626602
0.7615935
0.76057148
0.75949128
0.75779997
0.75506489
0.7533578
0.75250498
0.7521506
0.7520188
0.75201886
0.75301898
0.711598
0.86178877
0.9655743
1.0657902
1.1025981
1.1115448
1.1011093
1.1031847
1.094881
1.0926986
1.0848094
1.0785574
1.0693595
1.0588745
1.0463659
1.0309846
1.013023
0.99138958
0.9663528
0.93767989
0.90649595
0.87450308
0.84415998
0.81763975
0.79630993
0.78043751
0.76984132
0.76384602
0.76115512
0.76042878
0.76078323
0.7617037
0.7624728
0.76273784
0.76277815
0.76323178
0.76338232
0.76288345
0.76205746
0.76111011
0.7602079
0.75914507
0.75723556
0.75465936
0.753183
0.75246788
0.75217588
0.75207553
0.75220407
0.75315168
0.7099877
0.86155911
0.96673027
1.0679364
1.0976274
1.1056458
1.0950547
1.0969728
1.0885229
1.0859983
1.0779183
1.0711804
1.0616284
1.0505462
1.0374187
1.0212553
1.0023814
0.97973611
0.95361973
0.92400551
0.89225793
0.86034081
0.83077293
0.80557983
0.78581821
0.77158703
0.7627155
0.75825952
0.75672961
0.75685311
0.757912
0.75939434
0.760527
0.7611313
0.76147358
0.76217774
0.76251158
0.76219998
0.76147994
0.76065089
0.75986171
0.75878086
0.75663519
0.75431785
0.75305199
0.75245851
0.75221525
0.75213293
0.75242278
0.75326841
0.70832191
0.86136484
0.96806946
1.0696216
1.0924122
1.0995792
1.088833
1.0905729
1.08197
1.0790764
1.0707836
1.0635368
1.0535975
1.0418844
1.0280847
1.0110894
0.99124588
0.96754489
0.94033993
0.90984841
0.87769191
0.84606649
0.81748497
0.79375192
0.77561138
0.76314501
0.75605025
0.75306246
0.75256433
0.75350947
0.75523808
0.7572245
0.75871413
0.7596225
0.76025002
0.76119596
0.76167118
0.76155259
0.76092823
0.76021559
0.75952536
0.75839099
0.75604704
0.75401735
0.75294671
0.75246238
0.75226587
0.75219242
0.75262958
0.75336958
0.70663485
0.86121319
0.96960328
1.0707485
1.0867329
1.0933531
1.0824412
1.0839721
1.0752081
1.0719111
1.0633853
1.0556101
1.0452446
1.0328614
1.01833
1.0004508
0.97958079
0.95478663
0.92650273
0.89522794
0.86284788
0.83174514
0.80434852
0.78217799
0.76574252
0.75517655
0.74986191
0.74819296
0.74865579
0.75040114
0.75275182
0.75519396
0.75702558
0.75820714
0.75910488
0.76027567
0.76087531
0.7609321
0.760404
0.75980308
0.75918747
0.75795685
0.75550587
0.75375575
0.75285829
0.75247286
0.75232598
0.75226505
0.75281897
0.75345659
0.70496742
0.86113036
0.97130894
1.071191
1.0807202
1.0869507
1.0758606
1.0771462
1.068215
1.0644837
1.0557103
1.0473774
1.0365416
1.0234436
1.0081165
0.98930034
0.96735042
0.94143546
0.91210652
0.88017638
0.84778738
0.81744495
0.79140938
0.77088259
0.75629972
0.74772783
0.74411491
0.74360961
0.74502052
0.74751886
0.75044451
0.75329974
0.75545345
0.75688043
0.75803036
0.75941099
0.76013664
0.76032897
0.75991011
0.75941197
0.75883884
0.75745851
0.75504075
0.75354266
0.75279767
0.75249311
0.75239128
0.75236084
0.7529839
0.7535314
0.70338624
0.86117746
0.97314999
1.0705592
1.0743518
1.0803423
1.0690666
1.070073
1.0609734
1.0567808
1.0477416
1.0388134
1.027454
1.0135912
0.99740361
0.97759824
0.95451979
0.92746976
0.89715865
0.86473648
0.8325778
0.80322927
0.77870293
0.759916
0.74736597
0.74082039
0.73873226
0.73932567
0.74165363
0.74485374
0.74830716
0.75153823
0.75398931
0.75563769
0.75702206
0.75859987
0.75945287
0.75974151
0.75944907
0.75904094
0.75848001
0.75690241
0.75465854
0.75338231
0.75277191
0.75252579
0.75245345
0.75249041
0.75312771
0.75359528
0.70191633
0.86140378
0.97504963
1.0690556
1.0677293
1.0735016
1.0620439
1.0627451
1.053478
1.0487894
1.0394539
1.0298813
1.0179382
1.003262
0.98615039
0.9653046
0.94105576
0.91287548
0.88167972
0.84896527
0.81729348
0.78915734
0.76626134
0.74937043
0.73900376
0.73441975
0.73367226
0.73535492
0.7385459
0.74239524
0.74633129
0.74990513
0.75262458
0.75447462
0.75607847
0.75784313
0.75881285
0.75917525
0.75901982
0.75868808
0.75810623
0.75632851
0.75433931
0.75326193
0.75276513
0.75256523
0.75251126
0.75265368
0.75325318
0.75364964
0.70053198
0.86183836
0.97683062
1.0666038
1.0607677
1.0664396
1.0547972
1.0551557
1.045716
1.0404828
1.0308063
1.020536
1.0079476
0.99241382
0.97431632
0.95237932
0.92692723
0.89764679
0.865702
0.83292911
0.80200717
0.77527895
0.75412832
0.73935104
0.73124603
0.72844225
0.72895048
0.73169157
0.73568581
0.74013252
0.7445082
0.74839416
0.75135199
0.753387
0.75519682
0.75713626
0.75821291
0.75863991
0.75861484
0.75834775
0.75771792
0.75577574
0.75406369
0.75316715
0.75276824
0.75261172
0.75256851
0.75281987
0.75336263
0.75369602
0.69922927
0.86251799
0.97852568
1.0632219
1.0535415
1.0591498
1.047312
1.0472742
1.0376458
1.031813
1.0217466
1.0107343
0.99744021
0.98100561
0.96186008
0.93878128
0.91210814
0.88178993
0.84927431
0.81670487
0.78679052
0.76163852
0.74239285
0.72994257
0.72407302
0.72283289
0.72458378
0.72832428
0.73306105
0.73805447
0.74282907
0.74699725
0.75016593
0.75237038
0.75437215
0.75647295
0.75765176
0.7581488
0.75822265
0.75801086
0.75729585
0.75527454
0.75382784
0.75309081
0.75277627
0.7526609
0.75262588
0.75298285
0.75345771
0.75373581
0.69817477
0.86355407
0.97994256
1.0587751
1.0460202
1.0515907
1.0395447
1.039049
1.0292071
1.022725
1.012227
1.0004409
0.98637856
0.96899434
0.94873704
0.9244693
0.89657855
0.86532426
0.83245775
0.80037302
0.77170767
0.74828076
0.7311772
0.72119556
0.71740316
0.71759841
0.72056863
0.72523938
0.73065844
0.73614982
0.74128491
0.74570652
0.7490607
0.75142
0.75359896
0.75584993
0.75712896
0.75770356
0.75783873
0.75766773
0.75682019
0.75485084
0.7536359
0.75303555
0.75279102
0.75271201
0.75269058
0.7531325
0.75354047
0.75377018
0.69719926
0.86497909
0.98094348
1.053174
1.0381787
1.0437004
1.031436
1.0304215
1.0203499
1.0131796
1.0022146
0.98962212
0.97472177
0.95633167
0.93489847
0.90940435
0.88032964
0.84828656
0.81532851
0.78401691
0.75682015
0.73528425
0.72059281
0.71311863
0.71115763
0.71276329
0.71689176
0.72242226
0.72846469
0.73440739
0.7398668
0.74451426
0.74803084
0.75053103
0.75287331
0.75526835
0.75664513
0.75729289
0.75746561
0.75731348
0.75630227
0.7545072
0.75348991
0.75300649
0.75281411
0.75275974
0.7527785
0.7532664
0.75361221
0.75379992
0.69623615
0.86678626
0.98129616
1.0463597
1.0299525
1.0354071
1.0229341
1.0213511
1.0110489
1.0031553
0.99168064
0.97823539
0.96241988
0.94296237
0.92029333
0.89355233
0.8633656
0.83072924
0.79797044
0.7677147
0.74218445
0.72277532
0.7107162
0.70564465
0.705324
0.70832972
0.71353744
0.71985725
0.72646618
0.73281603
0.73856583
0.74341304
0.74707087
0.74969898
0.75219356
0.75472997
0.75619928
0.75690856
0.7571025
0.75694963
0.75578669
0.75422308
0.75338177
0.75299607
0.75284201
0.75280342
0.75289205
0.75338372
0.75367385
0.7538255
0.69511351
0.86895438
0.98074992
1.0389613
1.0213262
1.0266902
1.0140392
1.0118315
1.0012858
0.99262371
0.98058182
0.96622718
0.94941397
0.92882604
0.90487102
0.87688894
0.84570903
0.81272347
0.78047541
0.75154297
0.727871
0.71089954
0.70158666
0.69866869
0.69993683
0.70428253
0.71048858
0.71752849
0.7246495
0.73136489
0.73737332
0.74239566
0.74617549
0.74891999
0.75156005
0.75423472
0.75578688
0.75654487
0.75674744
0.75657772
0.75530058
0.75398356
0.75329876
0.75299431
0.7528749
0.7528467
0.75302245
0.75348487
0.75372618
0.75384719
0.69384124
0.87156997
0.97918218
1.0316741
1.0123418
1.0175711
1.0047514
1.0018555
0.99102281
0.98153642
0.96885571
0.95353076
0.93563971
0.91386031
0.888585
0.85940286
0.82740126
0.79435382
0.76293478
0.73557439
0.71399968
0.6997684
0.69316347
0.69215091
0.69500677
0.70060396
0.70772663
0.71541968
0.72300119
0.73004323
0.7362807
0.74145516
0.74533955
0.74819099
0.75097401
0.75378102
0.7554029
0.75619608
0.75639601
0.75619209
0.75486495
0.75378175
0.75323308
0.75299714
0.75290986
0.75288987
0.7531559
0.75357056
0.75377003
0.7538652
0.69229667
0.87462407
0.97651153
1.0234231
1.0030376
1.0080159
0.99503362
0.99136535
0.98019711
0.96982968
0.95642308
0.94007719
0.92102945
0.89800287
0.87139587
0.84110101
0.8085052
0.77571886
0.74544143
0.71988785
0.70073553
0.68944589
0.68533954
0.6861254
0.69051774
0.69727407
0.70523273
0.71351471
0.72150818
0.72884067
0.73527972
0.74058488
0.74455832
0.74750983
0.7504369
0.75336604
0.7550417
0.75585572
0.75604336
0.75578302
0.75449554
0.75361616
0.75318267
0.75300378
0.75294486
0.75293653
0.75328284
0.75364306
0.75380664
0.75387989
0.69057752
0.87806003
0.97266089
1.0144691
0.99333534
0.99794179
0.98479627
0.9802824
0.9687362
0.95743387
0.94321287
0.92579214
0.90551402
0.88119381
0.85327634
0.82201063
0.78910243
0.75692189
0.72808726
0.70459268
0.68822632
0.67993107
0.67804491
0.68061062
0.68645066
0.69427135
0.70298751
0.71179753
0.72015769
0.72774717
0.73436237
0.73977847
0.7438276
0.74687525
0.74994972
0.7529857
0.75469724
0.75551764
0.7556873
0.75535596
0.75419565
0.75348528
0.75314796
0.75301298
0.7529743
0.75299654
0.75339695
0.75370464
0.75383687
0.75389133
0.688593
0.88157542
0.96751023
1.0048488
0.9831513
0.98726794
0.97396381
0.96854138
0.95657253
0.94427624
0.92915548
0.91059977
0.88902044
0.86337763
0.83421634
0.80218391
0.76929338
0.73807022
0.71096733
0.68985731
0.67657807
0.67113672
0.67128793
0.67560093
0.68278258
0.69157374
0.7009719
0.71025267
0.71893749
0.72675313
0.73352102
0.73903005
0.74314381
0.74628651
0.74951217
0.75263452
0.75436363
0.75517786
0.75533017
0.75493844
0.75395008
0.75338373
0.75312607
0.75302319
0.75299847
0.75308585
0.7534961
0.7537559
0.75386091
0.75389984
0.68633269
0.88490253
0.96116008
0.99464141
0.97244622
0.9759363
0.96248454
0.95609097
0.94364079
0.93028185
0.91416932
0.8944153
0.87147364
0.84450907
0.81422779
0.78169637
0.74918961
0.71927038
0.69418691
0.67587131
0.66583346
0.66295863
0.66510136
0.67107419
0.67948863
0.68915829
0.69916674
0.70886486
0.71783568
0.72584926
0.73274831
0.73833397
0.74250362
0.74574275
0.74912222
0.75230595
0.75403601
0.75483572
0.7549767
0.75455273
0.75374348
0.7533034
0.75311307
0.7530397
0.75302204
0.75317879
0.75358051
0.75379794
0.75388178
0.75390652
0.6838
0.88793198
0.953686
0.98366888
0.96117261
0.96390326
0.9502988
0.94286774
0.92985866
0.91536855
0.89816042
0.87714549
0.85280131
0.82456061
0.79335102
0.76064938
0.72891358
0.70063857
0.67791507
0.66278503
0.65593774
0.65537257
0.65949096
0.66700485
0.67654278
0.68700231
0.69755352
0.70761955
0.71684096
0.72502672
0.73203723
0.73768498
0.74190384
0.74524226
0.74877595
0.75199322
0.75371132
0.75449315
0.75463201
0.75420706
0.75356881
0.75323756
0.75310235
0.75305414
0.75304711
0.75328117
0.75365044
0.75383318
0.75389989
0.75391247
0.68074353
0.89065506
0.94509884
0.97193275
0.94927487
0.95110642
0.93733368
0.92877967
0.91511581
0.8994431
0.88102524
0.85869305
0.8329415
0.80353023
0.77165591
0.73916359
0.70859257
0.68230173
0.6623708
0.65068087
0.6467635
0.64842262
0.65443237
0.66336396
0.67391792
0.685083
0.69611407
0.70650263
0.71594248
0.72427705
0.73138109
0.73707809
0.74134137
0.74478265
0.74846752
0.7516901
0.75338839
0.75415343
0.75430048
0.75390386
0.75342214
0.75318359
0.75309218
0.75306386
0.75307919
0.75337978
0.75370902
0.75386284
0.75391517
0.7539182
0.67684075
0.89297003
0.93544272
0.95937319
0.93668528
0.93745662
0.92348024
0.91371196
0.8992885
0.88238001
0.86265086
0.83896432
0.81185221
0.78144791
0.74924423
0.71737714
0.68836635
0.66442982
0.64774919
0.63954346
0.63825603
0.64212583
0.64989786
0.66012116
0.67158716
0.68337841
0.69483114
0.70550084
0.71513003
0.72359227
0.73077358
0.73650875
0.74081409
0.74436268
0.7481884
0.75139145
0.75306739
0.75381988
0.753985
0.7536424
0.75330024
0.75314048
0.75308299
0.75306837
0.7531327
0.75346933
0.75375825
0.75388687
0.75392734
0.75392318
0.67192254
0.89473611
0.92474494
0.94592426
0.92329686
0.92283135
0.90859541
0.89752818
0.8822396
0.86403276
0.84292221
0.81788357
0.78952121
0.75837928
0.72624381
0.69543782
0.66838502
0.64725267
0.63417858
0.62925436
0.63045646
0.6364602
0.64585409
0.65724457
0.6695235
0.68186696
0.69368803
0.70460145
0.71439388
0.72296472
0.73020866
0.73597302
0.74032159
0.74398471
0.74792647
0.75109381
0.75274956
0.75349506
0.75368618
0.75342082
0.75319907
0.75310122
0.75307388
0.75307781
0.75319228
0.75354859
0.75379905
0.75390587
0.75393636
0.7539273
0.66579269
0.89533302
0.91288582
0.93144101
0.90895893
0.90707254
0.89250864
0.88007507
0.86380587
0.84427119
0.82174197
0.79539948
0.76597075
0.73442644
0.7028068
0.673508
0.64882837
0.63101484
0.62168412
0.61973584
0.62339079
0.63139536
0.64226585
0.65470217
0.66770068
0.68052808
0.69266898
0.70379246
0.71372479
0.72238712
0.72968068
0.73546764
0.73986454
0.7436519
0.74766853
0.75079609
0.75243713
0.75318101
0.75340267
0.75323599
0.75311389
0.75306833
0.75306633
0.75309114
0.75325997
0.75361635
0.75383289
0.75392176
0.75394372
0.75393056
0.65843637
0.89518596
0.89951912
0.9157364
0.89348504
0.89001101
0.87504793
0.86120274
0.84384003
0.82297516
0.79903317
0.77149108
0.74126102
0.70972416
0.67910176
0.65176653
0.62994347