/*--------------------------------*- C++ -*----------------------------------*\
  =========                 |
  \\      /  F ield         | OpenFOAM: The Open Source CFD Toolbox
   \\    /   O peration     | Website:  https://openfoam.org
    \\  /    A nd           | Version:  8
     \\/     M anipulation  |
\*---------------------------------------------------------------------------*/
FoamFile
{
    version     2.0;
    format      ascii;
    class       surfaceScalarField;
    location    "0.290003";
    object      meshPhi;
}
// * * * * * * * * * * * * * * * * * * * * * * * * * * * * * * * * * * * * * //

dimensions      [0 3 -1 0 0 0 0];

internalField   nonuniform List<scalar> 
39600
(
7.0487603e-05
4.4737332e-06
-4.5285366e-06
7.0565534e-05
5.3665248e-06
-5.4565422e-06
7.0657858e-05
6.4291491e-06
-6.5368997e-06
7.0770377e-05
7.70189e-06
-7.831084e-06
7.0904096e-05
9.2262123e-06
-9.3812415e-06
7.1065103e-05
1.1051951e-05
-1.1237847e-05
7.1254193e-05
1.323843e-05
-1.3461202e-05
7.1481715e-05
1.5856418e-05
-1.6123321e-05
7.1747438e-05
1.8990485e-05
-1.9310051e-05
7.2064832e-05
2.2741252e-05
-2.3123548e-05
7.2449579e-05
2.7227802e-05
-2.7684944e-05
7.2928578e-05
3.2591037e-05
-3.3137538e-05
7.3542801e-05
3.8996621e-05
-3.9649925e-05
7.431927e-05
4.6638826e-05
-4.742e-05
7.5267415e-05
5.574408e-05
-5.6677453e-05
7.6452523e-05
6.6575371e-05
-6.7691519e-05
7.7391997e-05
7.9445976e-05
-8.0784881e-05
7.7793987e-05
9.4747348e-05
-9.6349064e-05
7.8178438e-05
0.00011289344
-0.00011479477
7.8875646e-05
0.00013423617
-0.00013648711
8.0417396e-05
0.00015909817
-0.00016177718
8.3814291e-05
0.00018760515
-0.00019082568
8.9287044e-05
0.00022000169
-0.00022394812
9.9273309e-05
0.00025597067
-0.00026086523
0.00011307641
0.0002953625
-0.00030161802
0.00013705373
0.00033701822
-0.00034516583
0.00017082184
0.00037962528
-0.00039020205
0.00022046622
0.00042084098
-0.00043491053
0.00027727691
0.00045995619
-0.00047910005
0.00034368061
0.00050265524
-0.00052855904
0.00042228664
0.00054815177
-0.00058274151
0.00051427249
0.00059465914
-0.0006400056
0.00062832337
0.00063525632
-0.00069451528
0.00076114326
0.00065955442
-0.0007354104
0.00093095293
0.00065541868
-0.00075160152
0.0011125723
0.00062791178
-0.00074891862
0.0013271924
0.00057616533
-0.00072585601
0.0015658482
0.00049963556
-0.00068205516
0.0018424772
0.00041039256
-0.00063093332
0.0021192606
0.00033616268
-0.0006011933
0.0024074824
0.00028159735
-0.00059103005
0.002679275
0.0001643961
-0.00051078105
0.002953351
-3.5745639e-05
-0.00034226042
0.0031219005
-0.00024961433
-0.00015217086
0.0031971338
-0.00044185165
3.7078569e-05
0.0032392428
-0.00064071896
0.00024945647
0.0030694857
-0.0008585019
0.00050770164
0.0029591558
-0.0010776271
0.00078806011
0.0026032574
-0.001282159
0.0010853733
-0.00074981515
0.00070450559
5.6653738e-05
4.4161289e-06
5.6732513e-05
5.2976072e-06
5.6829646e-05
6.3465737e-06
5.6945315e-05
7.6030827e-06
5.7074154e-05
9.1082307e-06
5.7219431e-05
1.0910764e-05
5.7376741e-05
1.3069569e-05
5.7554468e-05
1.5654284e-05
5.7752556e-05
1.8748478e-05
5.7986054e-05
2.2451153e-05
5.82687e-05
2.6879995e-05
5.8630314e-05
3.2174157e-05
5.9095468e-05
3.8497877e-05
5.9684863e-05
4.6043672e-05
6.0383984e-05
5.5037173e-05
6.1228327e-05
6.573726e-05
6.192631e-05
7.8451404e-05
6.2247713e-05
9.3556107e-05
6.2557269e-05
0.00011145726
6.3190672e-05
0.00013252199
6.4663193e-05
0.00015704171
6.7833828e-05
0.00018514093
7.3079953e-05
0.00021696148
8.2469595e-05
0.00025216936
9.5919217e-05
0.0002904122
0.00011875026
0.00033039124
0.00015047648
0.00037095227
0.000197911
0.00040900776
0.00025325864
0.00044350106
0.00031864595
0.00047980964
0.00039631919
0.00051703534
0.00048737448
0.00055288197
0.00060072075
0.00057999815
0.00073333704
0.00058758571
0.00090186492
0.00056301659
0.0010828253
0.00051108453
0.0012978221
0.00043019808
0.0015349036
0.00032101133
0.0018116531
0.00019412157
0.0020894252
7.6783843e-05
0.0023817136
-2.2575228e-05
0.0026588822
-0.00018007252
0.0029360164
-0.00041566394
0.0031170871
-0.00065467238
0.0032018998
-0.00085284688
0.0032631425
-0.0010411174
0.0030928822
-0.0012195612
0.0029903256
-0.0013759591
0.0026192023
-0.0014873541
-0.00079969572
4.3554856e-05
4.3753108e-06
4.3407867e-05
5.2496669e-06
4.3274189e-05
6.2902949e-06
4.3189182e-05
7.5368711e-06
4.3161321e-05
9.0299414e-06
4.318615e-05
1.0817828e-05
4.3262641e-05
1.2958665e-05
4.3394637e-05
1.5521455e-05
4.3589212e-05
1.8588677e-05
4.385297e-05
2.225838e-05
4.4190078e-05
2.6646885e-05
4.4608368e-05
3.1892543e-05
4.5099427e-05
3.815824e-05
4.5651029e-05
4.5636488e-05
4.6245532e-05
5.4552159e-05
4.6870464e-05
6.5159995e-05
4.7384899e-05
7.7762519e-05
4.7691033e-05
9.272487e-05
4.7969104e-05
0.00011045108
4.8536017e-05
0.00013131426
4.9925631e-05
0.00015558174
5.2835999e-05
0.00018337313
5.7844337e-05
0.00021473893
6.6568984e-05
0.00024933556
7.9640518e-05
0.00028659336
0.0001011628
0.0003251307
0.00013080861
0.00036392586
0.00017602244
0.0003991569
0.00022987193
0.00042939985
0.0002942423
0.00045971111
0.00037074541
0.00048902828
0.00046109385
0.00051455456
0.00057304822
0.00052860547
0.00070579753
0.00051979973
0.00087267537
0.00047511917
0.0010533233
0.00039907443
0.0012683411
0.00028924295
0.0015044433
0.00014723782
0.0017809528
-1.7355912e-05
0.002059993
-0.00017750842
0.0023562708
-0.00032208003
0.0026376724
-0.00052169268
0.0029194183
-0.00079460805
0.0031104654
-0.0010608966
0.0032076796
-0.0012684792
0.0032825567
-0.001449368
0.003117386
-0.0015910276
0.003019681
-0.0016865352
0.0026337768
-0.0017066616
-0.00085910769
3.1432052e-05
4.3498747e-06
3.1246982e-05
5.2184823e-06
3.1056789e-05
6.2521326e-06
3.0890663e-05
7.4905318e-06
3.0761782e-05
8.9742839e-06
3.0672632e-05
1.0751662e-05
3.063117e-05
1.2880435e-05
3.0653001e-05
1.5429471e-05
3.0752444e-05
1.8480786e-05
3.094378e-05
2.2131848e-05
3.1228707e-05
2.6498406e-05
3.1604939e-05
3.1718103e-05
3.2053918e-05
3.7952734e-05
3.2536508e-05
4.5394706e-05
3.3039428e-05
5.4267625e-05
3.352856e-05
6.4823837e-05
3.3923247e-05
7.7359941e-05
3.4170459e-05
9.2235826e-05
3.4368154e-05
0.00010985712
3.4844226e-05
0.00013059385
3.6099331e-05
0.00015469718
3.8746316e-05
0.00018227738
4.3454672e-05
0.00021331377
5.1546335e-05
0.00024744531
6.4165957e-05
0.00028389855
8.4387414e-05
0.00032124829
0.000112227
0.00035850459
0.00015547222
0.00039116372
0.00020792377
0.00041745412
0.00027124809
0.00044210753
0.00034664358
0.0004638238
0.00043621838
0.00047934099
0.00054679556
0.00048066735
0.00067943902
0.00045579608
0.0008447645
0.00039133524
0.0010251274
0.00029147602
0.0012399667
0.00015299321
0.0014756039
-2.1891366e-05
0.0017519085
-0.00022429607
0.0020325748
-0.00042737074
0.0023323015
-0.00061780144
0.0026177881
-0.00086099137
0.0029042561
-0.0011726273
0.0031049144
-0.0014683385
0.003213739
-0.0016886748
0.0033002451
-0.0018651735
0.0031418381
-0.0019724979
0.0030477982
-0.0020091419
0.0026485307
-0.0019396109
-0.00092774069
2.0236215e-05
4.3401707e-06
2.0196367e-05
5.2067082e-06
2.0129343e-05
6.2378644e-06
2.0031158e-05
7.473336e-06
1.9913201e-05
8.9534911e-06
1.9789534e-05
1.0726604e-05
1.9677654e-05
1.2850336e-05
1.960056e-05
1.5393447e-05
1.9574061e-05
1.8437943e-05
1.9620677e-05
2.2081487e-05
1.9740618e-05
2.6439872e-05
1.99417e-05
3.1651046e-05
2.0208695e-05
3.7877021e-05
2.0516664e-05
4.530995e-05
2.0844306e-05
5.4173141e-05
2.1165074e-05
6.4716633e-05
2.1411302e-05
7.7233182e-05
2.1522543e-05
9.2080853e-05
2.159781e-05
0.00010966377
2.1949689e-05
0.00013034646
2.3033444e-05
0.00015437111
2.5407441e-05
0.00018183601
2.9772544e-05
0.00021266276
3.7255957e-05
0.00024646919
4.9346741e-05
0.00028229294
6.828101e-05
0.0003186796
9.456812e-05
0.00035461587
0.0001361482
0.00038493655
0.00018729993
0.00040753912
0.00024956892
0.00042683562
0.00032391352
0.00044123691
0.00041264869
0.00044703736
0.00052190986
0.00043595691
0.00065423951
0.00039532747
0.00081810512
0.00031140639
0.00099814071
0.00018800071
0.0012126815
2.1122981e-05
0.001448173
-0.0001866224
0.0017243847
-0.00042695772
0.0020067888
-0.00067316295
0.0023096342
-0.00091014343
0.0025991805
-0.0011981285
0.0028904098
-0.0015498723
0.0031003051
-0.0018770493
0.0032201472
-0.0021132471
0.0033166467
-0.0022882024
0.0031661839
-0.0023635313
0.0030749228
-0.0023430656
0.0026633886
-0.0021852191
-0.0010049024
9.5713269e-06
4.3456168e-06
9.508602e-06
5.2136042e-06
9.4224525e-06
6.2465941e-06
9.3194983e-06
7.4842135e-06
9.2143672e-06
8.9667946e-06
9.1164034e-06
1.0742545e-05
9.0372694e-06
1.2869146e-05
8.9863147e-06
1.5415388e-05
8.9664007e-06
1.8463493e-05
8.9869659e-06
2.2111491e-05
9.0386447e-06
2.6475757e-05
9.1271209e-06
3.1695158e-05
9.2399109e-06
3.793264e-05
9.3698687e-06
4.5381426e-05
9.5136616e-06
5.4265286e-05
9.6454958e-06
6.4833297e-05
9.703499e-06
7.7376349e-05
9.639643e-06
9.2250186e-05
9.5567458e-06
0.00010985759
9.7504619e-06
0.00013055972
1.0633464e-05
0.00015459195
1.2721091e-05
0.00018203923
1.671461e-05
0.00021278045
2.360865e-05
0.00024640311
3.5090956e-05
0.00028179297
5.2776357e-05
0.00031747383
7.7745866e-05
0.00035227715
0.00011792449
0.00038041139
0.00016785637
0.00039954459
0.00022906832
0.00041377639
0.00030239935
0.00042114048
0.00039024866
0.00041752233
0.00049824824
0.00039434564
0.00063010784
0.00033828136
0.00079258511
0.00023520673
0.00097223446
8.8540816e-05
0.0011863968
-0.00010642242
0.0014219434
-0.00034697925
0.0016981916
-0.00062539045
0.0019823087
-0.00091502836
0.0022880867
-0.0011991744
0.0025816916
-0.0015330382
0.0028777073
-0.0019261279
0.0030964659
-0.0022867863
0.0032269136
-0.0025417938
0.0033320757
-0.0027179175
0.0031903658
-0.0027636836
0.0031012637
-0.0026881666
0.0026783257
-0.0024432153
-0.0010903981
-4.0282651e-07
4.365287e-06
-4.6788185e-07
5.2368742e-06
-5.4674924e-07
6.2740645e-06
-6.3341347e-07
7.5165919e-06
-7.1291308e-07
9.0050555e-06
-7.8230424e-07
1.0787894e-05
-8.3636558e-07
1.2923164e-05
-8.7486191e-07
1.5480148e-05
-9.0422733e-07
1.8541704e-05
-9.2238632e-07
2.2206689e-05
-9.4492744e-07
2.6592413e-05
-9.6720899e-07
3.1838958e-05
-1.0012196e-06
3.8110576e-05
-1.044144e-06
4.5601785e-05
-1.0878661e-06
5.4537656e-05
-1.1519593e-06
6.5167421e-05
-1.2952712e-06
7.7780865e-05
-1.5561394e-06
9.2733522e-05
-1.8232626e-06
0.00011042767
-1.8161507e-06
0.0001312222
-1.1604816e-06
0.0001553466
6.260351e-07
0.00018287407
4.2270796e-06
0.00021364735
1.054142e-05
0.00024722439
2.1343389e-05
0.00028236832
3.7829829e-05
0.00031757725
6.171007e-05
0.00035143101
0.00010072209
0.00037752355
0.0001495032
0.00039338834
0.00020966572
0.00040282312
0.00028201313
0.0004034165
0.00036891936
0.00039066778
0.00047570097
0.00035570593
0.00060699099
0.00028449821
0.00076814441
0.00016254721
0.00094733253
-7.1155905e-06
0.0011610708
-0.00022990139
0.0013968013
-0.00050319851
0.0016732251
-0.000819837
0.0019589533
-0.0011531828
0.002267554
-0.0014850707
0.0025652226
-0.001865818
0.0028660234
-0.0023015616
0.0030933159
-0.0026976122
0.003234015
-0.0029742065
0.0033468708
-0.0031540515
0.0032143957
-0.0031725133
0.0031269981
-0.0030438125
0.0026933074
-0.0027129074
-0.0011837796
-9.707347e-06
4.3990579e-06
-9.7347813e-06
5.2773163e-06
-9.7584247e-06
6.3222719e-06
-9.7904218e-06
7.5738861e-06
-9.8258403e-06
9.0731627e-06
-9.8719556e-06
1.0869079e-05
-9.9277742e-06
1.3020297e-05
-9.9955204e-06
1.5596862e-05
-1.0081411e-05
1.8682498e-05
-1.0181709e-05
2.2377052e-05
-1.031096e-05
2.679911e-05
-1.0460725e-05
3.2090192e-05
-1.0642238e-05
3.8416268e-05
-1.0847683e-05
4.5973943e-05
-1.1066673e-05
5.4990058e-05
-1.1320447e-05
6.5715747e-05
-1.1663433e-05
7.8441485e-05
-1.2123909e-05
9.3523034e-05
-1.2586365e-05
0.00011136421
-1.2784317e-05
0.00013232394
-1.2377739e-05
0.00015662635
-1.0910029e-05
0.00018433425
-7.7186712e-06
0.00021526209
-1.9718828e-06
0.00024893154
8.1135768e-06
0.00028402014
2.3463428e-05
0.00031898643
4.6448151e-05
0.0003520289
8.4496933e-05
0.0003761739
0.00013219308
0.00038892833
0.00019132199
0.00039379693
0.00026270407
0.00038786355
0.00034860288
0.0003662726
0.00045418569
0.00031984215
0.00058486888
0.00023378332
0.00074474815
9.3200972e-05
0.00092341231
-9.9188983e-05
0.0011366931
-0.00034951038
0.0013726745
-0.00065546486
0.001649388
-0.0010104706
0.0019366155
-0.0013877958
0.0022479649
-0.0017678874
0.0025496809
-0.0021964231
0.0028552574
-0.0026760174
0.0030907491
-0.0031093042
0.0032413916
-0.0034100623
0.0033611566
-0.0035960636
0.0032382465
-0.0035896749
0.0031522321
-0.003409933
0.0027082886
-0.0029941238
-0.0012849057
-1.8432616e-05
4.4463752e-06
-1.8467384e-05
5.3342231e-06
-1.8498344e-05
6.3907214e-06
-1.8540624e-05
7.6564306e-06
-1.8592742e-05
9.1727752e-06
-1.8662925e-05
1.0989228e-05
-1.8749218e-05
1.3165069e-05
-1.8855058e-05
1.5771072e-05
-1.8985677e-05
1.8891784e-05
-1.9139512e-05
2.2628368e-05
-1.9332621e-05
2.7100779e-05
-1.9558863e-05
3.2452442e-05
-1.983439e-05
3.8851598e-05
-2.0153465e-05
4.6497497e-05
-2.051233e-05
5.5620773e-05
-2.0933157e-05
6.6475513e-05
-2.1461524e-05
7.9353949e-05
-2.2109148e-05
9.4613369e-05
-2.2760347e-05
0.00011266041
-2.3170778e-05
0.00013385391
-2.302696e-05
0.00015841586
-2.1898005e-05
0.00018640066
-1.9136431e-05
0.00021759945
-1.3940111e-05
0.00025149303
-4.590632e-06
0.00028670187
9.6815143e-06
0.00032163052
3.1927383e-05
0.00035400457
6.9187334e-05
0.00037629874
0.0001158675
0.00038608201
0.00017395372
0.00038660187
0.00024438616
0.00037438612
0.00032937961
0.0003441387
0.00043382172
0.00028641123
0.00056372978
0.00018581864
0.00072237147
2.6945564e-05
0.0009004434
-0.00018791319
0.001113237
-0.00046550521
0.001349492
-0.00080401276
0.0016265854
-0.0011975152
0.0019152114
-0.0016190504
0.0022292455
-0.0020477829
0.0025349798
-0.0025249766
0.0028453005
-0.0030496661
0.0030886786
-0.0035219272
0.00324894
-0.0038492891
0.003375131
-0.0040437636
0.0032619916
-0.0040147694
0.0031771264
-0.0037859121
0.0027232538
-0.003286127
-0.0013932514
-2.6610272e-05
4.5070612e-06
-2.6702508e-05
5.4076233e-06
-2.6806772e-05
6.4795282e-06
-2.6922422e-05
7.7639374e-06
-2.7039935e-05
9.3026928e-06
-2.7161909e-05
1.1145792e-05
-2.7285625e-05
1.3353319e-05
-2.7417293e-05
1.5996916e-05
-2.7565406e-05
1.9162375e-05
-2.773547e-05
2.2951992e-05
-2.7949671e-05
2.748784e-05
-2.8210631e-05
3.291534e-05
-2.854361e-05
3.9406098e-05
-2.8953131e-05
4.7163224e-05
-2.9440254e-05
5.6421987e-05
-3.0027787e-05
6.7441345e-05
-3.0735311e-05
8.0515613e-05
-3.1550988e-05
9.6002567e-05
-3.2379008e-05
0.0001143131
-3.3001756e-05
0.00013580934
-3.3127452e-05
0.0001607122
-3.2342204e-05
0.00018906687
-3.001848e-05
0.00022064948
-2.5352319e-05
0.00025489513
-1.6731714e-05
0.0002903791
-3.4590518e-06
0.00032545606
1.8160242e-05
0.00035727866
5.4726519e-05
0.00037781235
0.00010043157
0.00038479719
0.00015743188
0.00038121279
0.00022693008
0.00036297427
0.00031128823
0.00032422613
0.00041468481
0.00025532278
0.0005435059
0.00014056933
0.00070092147
-3.6185478e-05
0.00087833583
-0.00027321076
0.0010906108
-0.00057776488
0.0013271304
-0.00094868582
0.0016046688
-0.0013807541
0.0018946148
-0.0018466855
0.0022112788
-0.0023244099
0.002520984
-0.0028510535
0.0028360253
-0.0034219795
0.0030869999
-0.0039349127
0.0032566207
-0.0042911947
0.0033889295
-0.004496491
0.0032856628
-0.0044475008
0.0032017811
-0.0041717597
0.0027381778
-0.0035887876
-0.0015086594
-3.4203502e-05
4.5800713e-06
-3.4304432e-05
5.4946595e-06
-3.4417018e-05
6.5831417e-06
-3.4541662e-05
7.8872175e-06
-3.4670397e-05
9.4494626e-06
-3.4808698e-05
1.1321194e-05
-3.4955846e-05
1.3563339e-05
-3.5120684e-05
1.6249233e-05
-3.5313286e-05
1.9466338e-05
-3.5540249e-05
2.3319193e-05
-3.5826879e-05
2.7931941e-05
-3.6176901e-05
3.345351e-05
-3.6625522e-05
4.0058769e-05
-3.7178394e-05
4.7955669e-05
-3.7849073e-05
5.7385697e-05
-3.862577e-05
6.8610047e-05
-3.9500609e-05
8.1922165e-05
-4.0480332e-05
9.7685471e-05
-4.1478073e-05
0.00011631762
-4.2310788e-05
0.00013818303
-4.2709867e-05
0.00016350614
-4.2260938e-05
0.00019231843
-4.0365268e-05
0.00022438607
-3.6197957e-05
0.00025909445
-2.8272219e-05
0.00029498869
-1.5906534e-05
0.00033038277
5.1652161e-06
0.00036177675
4.1070139e-05
0.00038065247
8.5839592e-05
0.00038500489
0.00014185854
0.00037746406
0.00021048469
0.00035330517
0.00029433193
0.00030617289
0.00039673326
0.00022624562
0.00052417194
9.7706294e-05
0.00068035142
-9.6471638e-05
0.00085704101
-0.00035534383
0.0010687698
-0.00068656641
0.0013055415
-0.0010897738
0.001583579
-0.001560507
0.0018747612
-0.0020709763
0.0021940025
-0.0025980049
0.0025076216
-0.0031748767
0.002827356
-0.0037932102
0.003085679
-0.0043484251
0.0032644219
-0.0047358535
0.003402705
-0.0049542203
0.0033092845
-0.0048875821
0.003226267
-0.0045669461
0.0027530147
-0.0039015398
-0.0016307526
-4.1246403e-05
4.6656147e-06
-4.131115e-05
5.5971737e-06
-4.1371068e-05
6.7055575e-06
-4.1442224e-05
8.0331625e-06
-4.1526802e-05
9.6234011e-06
-4.1640723e-05
1.1528372e-05
-4.178801e-05
1.381067e-05
-4.1982345e-05
1.6545077e-05
-4.2234196e-05
1.9821094e-05
-4.2553447e-05
2.3746059e-05
-4.2963049e-05
2.8447316e-05
-4.3467144e-05
3.407795e-05
-4.4098023e-05
4.0817854e-05
-4.4862798e-05
4.8881546e-05
-4.5741401e-05
5.8512451e-05
-4.668562e-05
6.99712e-05
-4.7699411e-05
8.3556504e-05
-4.8835838e-05
9.9640566e-05
-5.0037836e-05
0.00011865253
-5.110774e-05
0.00014096146
-5.1790461e-05
0.000166786
-5.1675133e-05
0.00019614528
-5.0191131e-05
0.00022879881
-4.6475342e-05
0.0002640724
-3.9199946e-05
0.00030049699
-2.7649155e-05
0.00033633595
-7.0644078e-06
0.00036739041
2.818036e-05
0.00038472228
7.2085024e-05
0.00038659202
0.00012737038
0.00037518308
0.0001952042
0.0003451672
0.0002784841
0.00028980064
0.00037990412
0.00019904517
0.00050574679
5.7089929e-05
0.00066066897
-0.00015407089
0.00083656961
-0.0004344511
0.0010477193
-0.00079201843
0.0012847541
-0.0012273785
0.0015633469
-0.0017368651
0.0018556411
-0.0022919458
0.0021774034
-0.002868454
0.0024948654
-0.0034962259
0.0028192596
-0.0041630157
0.0030846865
-0.0047620476
0.0032723297
-0.0051826829
0.0034164818
-0.005416358
0.0033328364
-0.00533474
0.0032505928
-0.0049714527
0.002767699
-0.0042242255
-0.0017593627
-4.7703336e-05
4.762175e-06
-4.7662926e-05
5.7104277e-06
-4.7626289e-05
6.8387401e-06
-4.7634924e-05
8.1906035e-06
-4.7696655e-05
9.8109297e-06
-4.7821864e-05
1.1753512e-05
-4.801524e-05
1.4082391e-05
-4.8285095e-05
1.6874178e-05
-4.863973e-05
2.0221008e-05
-4.9086378e-05
2.4232382e-05
-4.9642621e-05
2.9039281e-05
-5.031314e-05
3.4798103e-05
-5.1121535e-05
4.1693854e-05
-5.2059503e-05
4.9943498e-05
-5.3064976e-05
5.9791827e-05
-5.4095851e-05
7.1504186e-05
-5.5220287e-05
8.5391461e-05
-5.6537612e-05
0.00010184494
-5.8004925e-05
0.0001213022
-5.9375032e-05
0.00014412679
-6.0368279e-05
0.00017053272
-6.0591673e-05
0.00020052449
-5.9510065e-05
0.0002338596
-5.6186942e-05
0.00026978876
-4.9517186e-05
0.00030684282
-3.8706609e-05
0.00034324615
-1.8531759e-05
0.00037405413
1.6102901e-05
0.00038991374
5.9231187e-05
0.00038938909
0.0001139711
0.00037415298
0.00018104918
0.00033830185
0.00026352741
0.00027497034
0.00036394017
0.00017378312
0.00048821451
1.8633949e-05
0.00064185191
-0.00020926163
0.0008169058
-0.00051079972
0.0010274378
-0.00089439839
0.001264591
-0.0013615351
0.0015437354
-0.0019095225
0.0018372243
-0.0025095032
0.0021614484
-0.0031360394
0.0024826701
-0.0038153775
0.002811676
-0.0045316809
0.0030839733
-0.0051759763
0.003280281
-0.0056317931
0.0034302966
-0.005882926
0.0033563215
-0.005788701
0.0032747807
-0.0053847073
0.0027821842
-0.0045561825
-0.0018940122
-5.382835e-05
4.8725977e-06
-5.3827232e-05
5.8459633e-06
-5.3840772e-05
7.0047482e-06
-5.3902744e-05
8.3930924e-06
-5.4018545e-05
1.0056567e-05
-5.4191502e-05
1.2049353e-05
-5.4430612e-05
1.4436793e-05
-5.4741569e-05
1.729743e-05
-5.5139655e-05
2.0724541e-05
-5.5631584e-05
2.4831307e-05
-5.6238973e-05
2.9751318e-05
-5.6966392e-05
3.5645529e-05
-5.7831932e-05
4.2703168e-05
-5.8800547e-05
5.1144371e-05
-5.9817782e-05
6.1218443e-05
-6.0882963e-05
7.320395e-05
-6.2109065e-05
8.7430322e-05
-6.3653046e-05
0.00010430573
-6.5429576e-05
0.00012427047
-6.7132176e-05
0.0001476766
-6.8452181e-05
0.00017473011
-6.9018825e-05
0.00020543416
-6.8327991e-05
0.00023954292
-6.5364465e-05
0.00027622779
-5.9264496e-05
0.00031402405
-4.9126267e-05
0.00035108454
-2.9274979e-05
0.00038171405
4.8588747e-06
0.00039617097
4.7287526e-05
0.00039333711
0.00010158349
0.00037434438
0.00016790308
0.00033272868
0.00024922056
0.00026179153
0.00034854295
0.00015068337
0.00047146263
-1.7409531e-05
0.0006237817
-0.00026181681
0.00079795544
-0.00058413837
0.0010078472
-0.00099345229
0.0012448031
-0.0014919067
0.0015244261
-0.0020779689
0.001819427
-0.0027231259
0.0021460561
-0.0034002473
0.0024709496
-0.0041317194
0.0028045203
-0.0048984978
0.0030834772
-0.0055894778
0.00328826
-0.0060824075
0.0034441783
-0.0063532726
0.0033797349
-0.0062492013
0.0032988443
-0.0058067196
0.0027964227
-0.0048972465
-0.0020345061
-5.9613158e-05
4.993212e-06
-5.97527e-05
5.9908201e-06
-5.990862e-05
7.1788197e-06
-6.0088043e-05
8.6027914e-06
-6.0292093e-05
1.0309132e-05
-6.0529174e-05
1.2354126e-05
-6.0809735e-05
1.4804833e-05
-6.114344e-05
1.7741433e-05
-6.1549903e-05
2.1260581e-05
-6.2041167e-05
2.5476882e-05
-6.2639379e-05
3.0527795e-05
-6.3354383e-05
3.6576676e-05
-6.4191571e-05
4.3815679e-05
-6.5127753e-05
5.2469223e-05
-6.6127381e-05
6.279569e-05
-6.72276e-05
7.5088019e-05
-6.8585338e-05
8.969845e-05
-7.0352636e-05
0.00010704957
-7.2408043e-05
0.00012756753
-7.4414358e-05
0.00015159829
-7.6047182e-05
0.00017935707
-7.6950914e-05
0.00021084339
-7.6642159e-05
0.0002458097
-7.4036931e-05
0.00028334773
-6.8491291e-05
0.00032199877
-5.8884703e-05
0.00035979257
-3.9206767e-05
0.00039023582
-5.5003728e-06
0.0004032801
3.6231865e-05
0.00039821655
8.9993563e-05
0.00037566483
0.00015547691
0.00032855214
0.00023545072
0.00025031535
0.00033360893
0.00012963686
0.00045533633
-5.1133686e-05
0.00060632564
-0.00031181003
0.00077960732
-0.0006545897
0.00098887859
-0.0010893725
0.0012253292
-0.0016187122
0.0015053573
-0.0022423801
0.0018022047
-0.0029330588
0.002131178
-0.0036614533
0.0024596529
-0.0044456445
0.0027977389
-0.0052638634
0.0030831731
-0.006002876
0.0032962731
-0.0065347834
0.0034581658
-0.0068275503
0.0034030532
-0.0067160322
0.0033227503
-0.0062369457
0.0028103495
-0.0052468655
-0.0021804881
-6.4849379e-05
5.1246764e-06
-6.5009795e-05
6.1486237e-06
-6.5197342e-05
7.3682961e-06
-6.5418112e-05
8.8301051e-06
-6.5675146e-05
1.0582167e-05
-6.5976536e-05
1.2682422e-05
-6.6328613e-05
1.5199673e-05
-6.6741589e-05
1.8216988e-05
-6.7226327e-05
2.1833639e-05
-6.779433e-05
2.6167589e-05
-6.8457858e-05
3.1360461e-05
-6.9224696e-05
3.757888e-05
-7.0095709e-05
4.5019867e-05
-7.1056357e-05
5.3912365e-05
-7.2099437e-05
6.4523255e-05
-7.3288028e-05
7.7164261e-05
-7.4795835e-05
9.2205844e-05
-7.6739657e-05
0.0001100696
-7.8995432e-05
0.00013117589
-8.1250869e-05
0.00015587598
-8.316953e-05
0.00018439454
-8.4396719e-05
0.00021673336
-8.4455956e-05
0.0002526358
-8.222332e-05
0.00029113236
-7.7243994e-05
0.00033077602
-6.798276e-05
0.00036936702
-4.8248704e-05
0.00039955569
-1.4918946e-05
0.00041112545
2.6043793e-05
0.00040390653
7.9014158e-05
0.00037805481
0.00014352942
0.00032580226
0.00022216874
0.00024058586
0.00031913262
0.00011065515
0.00043976454
-8.2528267e-05
0.0005894638
-0.00035927886
0.00076185507
-0.00072225304
0.00097052924
-0.0011822447
0.0012062555
-0.0017420803
0.0014866178
-0.0024029224
0.0017855726
-0.0031393194
0.002116821
-0.0039194891
0.0024487824
-0.0047568683
0.0027913248
-0.005627378
0.0030830519
-0.0064156951
0.003304312
-0.0069883394
0.0034722095
-0.0073051848
0.0034262059
-0.0071889041
0.0033464433
-0.0066753302
0.0028238925
-0.0056048233
-0.002331742
-6.968093e-05
5.2667956e-06
-6.9855062e-05
6.3193205e-06
-7.0060531e-05
7.5730294e-06
-7.030418e-05
9.0758672e-06
-7.0590843e-05
1.0877239e-05
-7.0929229e-05
1.3036821e-05
-7.132656e-05
1.562538e-05
-7.1794287e-05
1.8729046e-05
-7.234164e-05
2.2449179e-05
-7.2980146e-05
2.6908548e-05
-7.3718617e-05
3.2252089e-05
-7.4561265e-05
3.8651903e-05
-7.5514375e-05
4.6310103e-05
-7.65651e-05
5.5463654e-05
-7.7722098e-05
6.6390137e-05
-7.9062164e-05
7.9416599e-05
-8.0723414e-05
9.492478e-05
-8.2805746e-05
0.00011333921
-8.5213641e-05
0.00013507575
-8.7669378e-05
0.00016049099
-8.9851059e-05
0.00018982637
-9.1385572e-05
0.00022308337
-9.1803912e-05
0.00025999876
-8.9981365e-05
0.00029957107
-8.5498636e-05
0.00034031373
-7.6334611e-05
0.00037965925
-5.6412477e-05
0.00040947262
-2.3518028e-05
0.00041958987
1.6549467e-05
0.00041040153
6.8527362e-05
0.0003815236
0.00013196977
0.00032444729
0.00020929563
0.00023257219
0.00030508436
9.3677825e-05
0.00042470419
-0.00011171455
0.0005731809
-0.00040436546
0.0007446966
-0.00078730279
0.00095279071
-0.0012723058
0.0011878639
-0.0018627078
0.00146857
-0.0025609377
0.0017695096
-0.0033428706
0.0021029717
-0.0041747215
0.0024383162
-0.0050658073
0.0027852398
-0.0059894467
0.0030830853
-0.0068282647
0.0033123354
-0.0074433111
0.0034862792
-0.0077862918
0.0034491554
-0.007667547
0.0033698697
-0.0071212421
0.0028369776
-0.0059704304
-0.0024878105
-7.4128159e-05
5.4193712e-06
-7.4314924e-05
6.5024998e-06
-7.4536012e-05
7.7927197e-06
-7.4798471e-05
9.3392659e-06
-7.5108331e-05
1.1193564e-05
-7.547458e-05
1.3416246e-05
-7.5905565e-05
1.6081297e-05
-7.6412695e-05
1.9276538e-05
-7.7006152e-05
2.3107314e-05
-7.7697207e-05
2.7699477e-05
-7.8498056e-05
3.3202865e-05
-7.9412285e-05
3.9795066e-05
-8.0452598e-05
4.7684585e-05
-8.1624476e-05
5.7117567e-05
-8.2943004e-05
6.8384447e-05
-8.4465487e-05
8.1826296e-05
-8.6300516e-05
9.783711e-05
-8.8523017e-05
0.00011684054
-9.1060795e-05
0.00013924975
-9.3693599e-05
0.00016543115
-9.6114973e-05
0.00019563932
-9.793947e-05
0.00022987998
-9.8727643e-05
0.00026789472
-9.7357056e-05
0.00030866597
-9.3204457e-05
0.0003506127
-8.3832706e-05
0.00039061431
-6.3732953e-05
0.00041990411
-3.1486452e-05
0.00042868106
7.5427401e-06
0.00041779932
5.8437762e-05
0.0003861885
0.00012073827
0.00032460858
0.00019674159
0.00022644444
0.00029140213
7.8920189e-05
0.00041008531
-0.00013845891
0.00055741359
-0.00044684522
0.00072807255
-0.00084952565
0.00093560779
-0.0013593055
0.0011703462
-0.0019804147
0.0014514908
-0.0027163627
0.0017539513
-0.0035434576
0.0020895563
-0.0044265642
0.002428182
-0.0053717273
0.0027794097
-0.0063492521
0.0030832032
-0.0072397495
0.0033203058
-0.0078988912
0.0035003435
-0.0082702112
0.0034718629
-0.0081516616
0.0033929909
-0.0075746359
0.002849559
-0.0063434762
-0.0026484594
-7.8214418e-05
5.5821526e-06
-7.841309e-05
6.697694e-06
-7.8648492e-05
8.0269631e-06
-7.892824e-05
9.6202991e-06
-7.9258124e-05
1.1530773e-05
-7.9648383e-05
1.3821016e-05
-8.0106782e-05
1.6567324e-05
-8.0645546e-05
1.9859891e-05
-8.1275233e-05
2.3807759e-05
-8.2009129e-05
2.8540653e-05
-8.2863985e-05
3.421329e-05
-8.3846301e-05
4.1008957e-05
-8.4977518e-05
4.9144996e-05
-8.6279372e-05
5.8876678e-05
-8.7770854e-05
7.0507213e-05
-8.9491917e-05
8.4392364e-05
-9.151507e-05
0.00010093652
-9.3884471e-05
0.00012056454
-9.6551976e-05
0.00014368961
-9.935112e-05
0.00017068748
-0.00010198654
0.00020182113
-0.00010408052
0.00023710241
-0.00010520938
0.00027627034
-0.0001042371
0.00031830507
-0.00010025063
0.0003614881
-9.0543122e-05
0.00040207938
-7.0421182e-05
0.00043085384
-3.9050749e-05
0.00043851355
-1.1421639e-06
0.00042623127
4.8685908e-05
0.00039210393
0.00010990501
0.00032610744
0.00018467217
0.00022167382
0.00027815527
6.5768348e-05
0.00039581634
-0.00016302081
0.00054206667
-0.00048669964
0.00071191006
-0.00090893979
0.00091891318
-0.001443356
0.0011536619
-0.002095426
0.0014354114
-0.0028697241
0.001738903
-0.0037418166
0.0020765267
-0.0046756456
0.00241833
-0.0056751613
0.0027737841
-0.0067073142
0.0030833832
-0.0076506012
0.0033282157
-0.0083554504
0.0035143694
-0.0087571515
0.0034942633
-0.0086410431
0.003415747
-0.0080349441
0.0028615585
-0.0067233745
-0.0028133383
-8.1957132e-05
5.7546916e-06
-8.216727e-05
6.9046218e-06
-8.2415886e-05
8.2751494e-06
-8.2711428e-05
9.9182264e-06
-8.3059325e-05
1.1887988e-05
-8.3470716e-05
1.4249763e-05
-8.3953106e-05
1.7081783e-05
-8.4519781e-05
2.0477314e-05
-8.5184132e-05
2.4549166e-05
-8.5961788e-05
2.9431327e-05
-8.6872961e-05
3.5283544e-05
-8.7930685e-05
4.2296631e-05
-8.9164862e-05
5.0695771e-05
-9.0602504e-05
6.0747056e-05
-9.2270745e-05
7.2766307e-05
-9.4189259e-05
8.7122749e-05
-9.6387578e-05
0.00010422759
-9.8900824e-05
0.00012451027
-0.00010170245
0.00014839075
-0.0001046554
0.00017625161
-0.00010747847
0.00020835784
-0.00010980638
0.00024472876
-0.00011119288
0.00028508834
-0.00011048446
0.0003284209
-0.00010650779
0.00037282594
-9.6561323e-05
0.00041394574
-7.6721727e-05
0.00044233499
-4.6371524e-05
0.00044917083
-9.5837666e-06
0.00043572383
3.9272851e-05
0.00039923023
9.9595401e-05
0.00032883715
0.00017332035
0.00021807979
0.00026548116
5.4028901e-05
0.00038187792
-0.00018551276
0.00052710664
-0.00052399393
0.00069620048
-0.00096564816
0.00090270534
-0.0015245774
0.0011377631
-0.0022077993
0.001420316
-0.0030209735
0.0017244147
-0.0039378651
0.0020639006
-0.0049218203
0.0024087699
-0.0059758223
0.0027683567
-0.0070632317
0.0030836118
-0.0080603505
0.0033360366
-0.0088124381
0.003528305
-0.0092465647
0.0035162893
-0.0091353685
0.0034380447
-0.0085020469
0.0028728961
-0.0071098434
-0.0029821874
-8.5372463e-05
5.936501e-06
-8.5593762e-05
7.1231809e-06
-8.585525e-05
8.537342e-06
-8.6165422e-05
1.0232525e-05
-8.6530528e-05
1.2265251e-05
-8.6962176e-05
1.4702658e-05
-8.7469115e-05
1.7625085e-05
-8.8066784e-05
2.1130057e-05
-8.8771164e-05
2.5333057e-05
-8.9601981e-05
3.0373727e-05
-9.0580857e-05
3.6417627e-05
-9.1728957e-05
4.3662392e-05
-9.3076791e-05
5.2343222e-05
-9.4664593e-05
6.2737229e-05
-9.6508974e-05
7.517177e-05
-9.8605138e-05
9.002338e-05
-0.00010096075
0.00010771443
-0.00010360017
0.00012868201
-0.00010652791
0.00015335221
-0.000109617
0.00018211541
-0.00011258786
0.00021523182
-0.00011508104
0.00025271845
-0.00011660634
0.0002942743
-0.00011602863
0.00033887867
-0.00011206905
0.00038451205
-0.0001021482
0.00042630362
-8.2776334e-05
0.00045449854
-5.3386453e-05
0.00046058592
-1.7669494e-05
0.00044602091
3.0273159e-05
0.00040728291