/*--------------------------------*- C++ -*----------------------------------*\
  =========                 |
  \\      /  F ield         | OpenFOAM: The Open Source CFD Toolbox
   \\    /   O peration     | Website:  https://openfoam.org
    \\  /    A nd           | Version:  8
     \\/     M anipulation  |
\*---------------------------------------------------------------------------*/
FoamFile
{
    version     2.0;
    format      ascii;
    class       volScalarField;
    location    "0.290003";
    object      nut;
}
// * * * * * * * * * * * * * * * * * * * * * * * * * * * * * * * * * * * * * //

dimensions      [0 2 -1 0 0 0 0];

internalField   nonuniform List<scalar> 
20000
(
0.0012784324
0.003349572
0.0046719585
0.0053505718
0.0052279809
0.0040388745
0.0014233173
1.0560978e-05
2.5999231e-09
2.4544635e-09
2.3846331e-09
2.4074706e-09
2.3787533e-09
2.4062017e-09
2.4072035e-09
2.4384114e-09
2.4603024e-09
2.5021991e-09
2.5463734e-09
2.6090292e-09
2.6817878e-09
2.7763537e-09
2.8898879e-09
3.0322268e-09
3.204033e-09
3.4127937e-09
3.659989e-09
3.9482228e-09
4.2743063e-09
4.6334481e-09
5.0143446e-09
5.3959131e-09
5.7506817e-09
6.0617528e-09
6.3222595e-09
6.5344765e-09
6.7019661e-09
6.8351242e-09
6.9388711e-09
7.0206551e-09
7.0852503e-09
7.1378783e-09
7.1810998e-09
7.2190993e-09
7.2539658e-09
7.2824368e-09
7.3082105e-09
7.3329265e-09
7.3496344e-09
7.3949076e-09
0.001282542
0.0033319146
0.0046227314
0.0052675733
0.0051018782
0.0038677427
0.0012503668
4.0294515e-06
2.5516057e-09
2.4741422e-09
2.402872e-09
2.4269414e-09
2.3983202e-09
2.4269737e-09
2.4285459e-09
2.4611769e-09
2.4843553e-09
2.5280819e-09
2.5742706e-09
2.6395264e-09
2.7153979e-09
2.813756e-09
2.9318041e-09
3.0793467e-09
3.2570194e-09
3.4718249e-09
3.7244446e-09
4.0158677e-09
4.3410653e-09
4.6935061e-09
5.0621896e-09
5.4293818e-09
5.7722639e-09
6.0748118e-09
6.329207e-09
6.5380966e-09
6.703646e-09
6.8357592e-09
6.9392701e-09
7.0209971e-09
7.0855532e-09
7.1382282e-09
7.181855e-09
7.2202538e-09
7.2550479e-09
7.2833068e-09
7.308643e-09
7.3339564e-09
7.3512418e-09
7.3961752e-09
0.0012815773
0.0033104631
0.0045717366
0.0051808599
0.0049710875
0.0036829437
0.0010770799
1.4205905e-06
2.5293168e-09
2.493436e-09
2.4218093e-09
2.4468743e-09
2.4185418e-09
2.4482871e-09
2.4505832e-09
2.484625e-09
2.5091879e-09
2.5548213e-09
2.6031978e-09
2.6712597e-09
2.7505124e-09
2.8529987e-09
2.9759724e-09
3.1292288e-09
3.3134065e-09
3.5349989e-09
3.7938067e-09
4.0891343e-09
4.4140011e-09
4.7601638e-09
5.1166753e-09
5.468836e-09
5.7981341e-09
6.09052e-09
6.3385586e-09
6.5435124e-09
6.7065753e-09
6.8372234e-09
6.939852e-09
7.0211706e-09
7.0857032e-09
7.1384523e-09
7.1823473e-09
7.2210073e-09
7.2557038e-09
7.2838868e-09
7.3103949e-09
7.3349743e-09
7.3609575e-09
7.3956368e-09
0.0012800275
0.0032893128
0.0045205124
0.0050905228
0.0048390354
0.0034908523
0.0009194998
4.9889244e-07
2.5234736e-09
2.5135357e-09
2.4416639e-09
2.4678021e-09
2.4398675e-09
2.4706872e-09
2.4737339e-09
2.5091902e-09
2.5351809e-09
2.5827791e-09
2.6334349e-09
2.7044019e-09
2.7871522e-09
2.8938826e-09
3.0219225e-09
3.1810808e-09
3.3719428e-09
3.600498e-09
3.8656238e-09
4.1650574e-09
4.4901622e-09
4.8313278e-09
5.1775584e-09
5.516186e-09
5.8321568e-09
6.1135139e-09
6.3533717e-09
6.5529439e-09
6.7124434e-09
6.8408284e-09
6.9421171e-09
7.0226755e-09
7.0868622e-09
7.1394674e-09
7.1835087e-09
7.2223291e-09
7.2568001e-09
7.2848404e-09
7.3115882e-09
7.3366519e-09
7.3659019e-09
7.3956401e-09
0.0012783046
0.0032687557
0.0044704872
0.0050024764
0.0047055971
0.0032893309
0.0007776185
1.8036113e-07
2.5282105e-09
2.534622e-09
2.4625137e-09
2.4896588e-09
2.4622373e-09
2.494052e-09
2.4979256e-09
2.5348466e-09
2.562388e-09
2.6120836e-09
2.6652055e-09
2.7392757e-09
2.8257656e-09
2.937018e-09
3.0704693e-09
3.2359258e-09
3.4339085e-09
3.6698371e-09
3.9415863e-09
4.2452624e-09
4.5706429e-09
4.906942e-09
5.2432081e-09
5.568569e-09
5.8709453e-09
6.1406428e-09
6.3716943e-09
6.5651045e-09
6.7203576e-09
6.8459356e-09
6.9454387e-09
7.0249194e-09
7.0885581e-09
7.1408588e-09
7.1849071e-09
7.2237567e-09
7.2579057e-09
7.2858085e-09
7.3130421e-09
7.3390804e-09
7.3713973e-09
7.3955446e-09
0.0012762804
0.0032481399
0.0044202625
0.0049151774
0.0045708879
0.0030792592
0.00064569925
6.9283736e-08
2.539727e-09
2.5563892e-09
2.4842644e-09
2.5124091e-09
2.4855576e-09
2.5184379e-09
2.5232386e-09
2.561697e-09
2.5909175e-09
2.6428426e-09
2.6985948e-09
2.7759396e-09
2.8663809e-09
2.9824041e-09
3.1215795e-09
3.293689e-09
3.4991618e-09
3.7427614e-09
4.0212706e-09
4.3291683e-09
4.6547934e-09
4.9864259e-09
5.3132524e-09
5.6258718e-09
5.9147528e-09
6.1723798e-09
6.3938037e-09
6.5802344e-09
6.7305335e-09
6.8527387e-09
6.9500514e-09
7.0281486e-09
7.0909847e-09
7.1428058e-09
7.1867268e-09
7.2254908e-09
7.2592195e-09
7.2868843e-09
7.3144761e-09
7.3426517e-09
7.3750533e-09
7.3957674e-09
0.0012742762
0.0032273228
0.0043691356
0.0048264915
0.0044351277
0.0028608103
0.00052544139
2.9611137e-08
2.5557528e-09
2.5785883e-09
2.5068761e-09
2.5360197e-09
2.5098372e-09
2.5438346e-09
2.5496875e-09
2.5897754e-09
2.6208228e-09
2.6751179e-09
2.7336802e-09
2.8144928e-09
2.9091366e-09
3.0302376e-09
3.1755169e-09
3.3547059e-09
3.5680952e-09
3.8196915e-09
4.1050686e-09
4.4170524e-09
4.7426503e-09
5.0694251e-09
5.3868587e-09
5.6869211e-09
5.9623227e-09
6.2076296e-09
6.418977e-09
6.5978543e-09
6.7426532e-09
6.8610233e-09
6.9557787e-09
7.0322163e-09
7.0940331e-09
7.1452182e-09
7.1888773e-09
7.227438e-09
7.2606639e-09
7.2880253e-09
7.3160607e-09
7.3471981e-09
7.3780424e-09
7.3962593e-09
0.001272276
0.0032062448
0.0043168409
0.004736442
0.0042984721
0.0026348079
0.00041629794
1.4566204e-08
2.5747351e-09
2.6014844e-09
2.5303613e-09
2.5605197e-09
2.5351241e-09
2.5703063e-09
2.5773461e-09
2.6191548e-09
2.6521668e-09
2.7089628e-09
2.7705053e-09
2.8549795e-09
2.9540906e-09
3.080594e-09
3.2323745e-09
3.4190747e-09
3.640793e-09
3.9006547e-09
4.1929083e-09
4.5087197e-09
4.8339027e-09
5.1555299e-09
5.4635368e-09
5.7511841e-09
6.01318e-09
6.2460238e-09
6.446915e-09
6.617766e-09
6.7565978e-09
6.8707256e-09
6.9625978e-09
7.0371236e-09
7.0977133e-09
7.1481138e-09
7.1913834e-09
7.2296273e-09
7.2622538e-09
7.2892464e-09
7.3178491e-09
7.3520126e-09
7.3805703e-09
7.3968843e-09
0.0012702497
0.0031849158
0.0042630936
0.0046445733
0.0041607143
0.0024029133
0.00031741264
8.3925683e-09
2.5958919e-09
2.6251808e-09
2.5547617e-09
2.5859554e-09
2.5614763e-09
2.5979127e-09
2.6062682e-09
2.649877e-09
2.684986e-09
2.7444121e-09
2.8091163e-09
2.8974686e-09
3.001346e-09
3.1336143e-09
3.2923278e-09
3.4869974e-09
3.7174616e-09
3.9858177e-09
4.2848721e-09
4.6041297e-09
4.9283605e-09
5.2443722e-09
5.5427302e-09
5.8179685e-09
6.0666098e-09
6.2869338e-09
6.4771511e-09
6.6396414e-09
6.7721455e-09
6.8816989e-09
6.9704079e-09
7.0427981e-09
7.1019786e-09
7.1514589e-09
7.1942173e-09
7.232031e-09
7.2639455e-09
7.2905481e-09
7.3200586e-09
7.3567934e-09
7.3829358e-09
7.3976546e-09
0.0012682756
0.003163623
0.0042088694
0.0045503628
0.0040211486
0.0021679302
0.00022765763
5.6357962e-09
2.6187242e-09
2.6497004e-09
2.5801336e-09
2.6123995e-09
2.5889678e-09
2.6267108e-09
2.6364932e-09
2.6819716e-09
2.7193085e-09
2.7814999e-09
2.8495576e-09
2.9420297e-09
3.0510031e-09
3.1894282e-09
3.3555283e-09
3.5586379e-09
3.7982437e-09
4.0752568e-09
4.3809255e-09
4.7031225e-09
5.0257454e-09
5.3355722e-09
5.6239706e-09
5.8867447e-09
6.122084e-09
6.3298927e-09
6.5093071e-09
6.6632033e-09
6.7891054e-09
6.8938176e-09
6.9791286e-09
7.0491883e-09
7.1067982e-09
7.1552362e-09
7.197372e-09
7.234641e-09
7.2657095e-09
7.2919673e-09
7.3229559e-09
7.3612393e-09
7.385127e-09
7.3985116e-09
0.0012664648
0.0031422994
0.0041535194
0.0044530249
0.0038785963
0.0019359951
0.00014755824
4.3117633e-09
2.6429519e-09
2.6751459e-09
2.6065805e-09
2.6399297e-09
2.6176364e-09
2.6567124e-09
2.6680274e-09
2.715452e-09
2.7551579e-09
2.8202609e-09
2.891891e-09
2.9887581e-09
3.1031918e-09
3.2481932e-09
3.4221558e-09
3.6341858e-09
3.8833039e-09
4.1690605e-09
4.481041e-09
4.805546e-09
5.1257895e-09
5.4287622e-09
5.7068029e-09
5.956996e-09
6.179077e-09
6.3744253e-09
6.5429996e-09
6.6881638e-09
6.8072717e-09
6.9069402e-09
6.988664e-09
7.0562278e-09
7.1121286e-09
7.1594181e-09
7.2008309e-09
7.237434e-09
7.2675219e-09
7.2935426e-09
7.3267796e-09
7.3651818e-09
7.3871703e-09
7.3994118e-09
0.0012649539
0.0031212315
0.0040976296
0.00435226
0.0037316513
0.0017125222
8.1704432e-05
3.643034e-09
2.6686038e-09
2.7016468e-09
2.6341491e-09
2.6685316e-09
2.6474528e-09
2.6879006e-09
2.7008774e-09
2.7503397e-09
2.7925654e-09
2.8607453e-09
2.9361939e-09
3.037766e-09
3.1580544e-09
3.3100764e-09
3.4924e-09
3.7138362e-09
3.9727973e-09
4.2672879e-09
4.5851461e-09
4.9111958e-09
5.228188e-09
5.5235651e-09
5.7907967e-09
6.0282603e-09
6.2371271e-09
6.4201112e-09
6.5778776e-09
6.7142511e-09
6.8264453e-09
6.9209269e-09
6.9989184e-09
7.0638508e-09
7.1179265e-09
7.1639779e-09
7.2045809e-09
7.240387e-09
7.269367e-09
7.2953095e-09
7.3314764e-09
7.3686604e-09
7.389077e-09
7.4003224e-09
0.0012637412
0.0031006728
0.0040420017
0.0042490539
0.0035796783
0.0014990445
3.6824392e-05
3.2966389e-09
2.6954776e-09
2.7290436e-09
2.6627038e-09
2.6981246e-09
2.6783922e-09
2.7202892e-09
2.7350701e-09
2.7866654e-09
2.8315733e-09
2.903018e-09
2.9825712e-09
3.089191e-09
3.2157537e-09
3.3752602e-09
3.5664639e-09
3.7977846e-09
4.0668686e-09
4.3699709e-09
4.6931379e-09
5.019843e-09
5.3326238e-09
5.6196082e-09
5.875547e-09
6.1001122e-09
6.2958133e-09
6.4665658e-09
6.613617e-09
6.7412089e-09
6.8464334e-09
6.935639e-09
7.0097939e-09
7.0719883e-09
7.1241456e-09
7.1688867e-09
7.2086043e-09
7.2434755e-09
7.2712349e-09
7.2973184e-09
7.3366009e-09
7.3720175e-09
7.3909038e-09
7.4012288e-09
0.0012626704
0.0030803376
0.003986614
0.0041498494
0.0034208385
0.0012976922
1.3511026e-05
3.1193737e-09
2.7232228e-09
2.7572207e-09
2.6922296e-09
2.7287472e-09
2.7105067e-09
2.7539226e-09
2.7706356e-09
2.8244637e-09
2.8722306e-09
2.9471721e-09
3.0311458e-09
3.1431838e-09
3.2764581e-09
3.4439451e-09
3.6445643e-09
3.8862475e-09
4.1656552e-09
4.4771235e-09
4.8048789e-09
5.1312259e-09
5.4387521e-09
5.7165109e-09
5.9606599e-09
6.1721548e-09
6.3547504e-09
6.5134379e-09
6.6499172e-09
6.7687949e-09
6.86705e-09
6.9509396e-09
7.0211928e-09
7.0805704e-09
7.1307385e-09
7.1741146e-09
7.2128782e-09
7.2466736e-09
7.273143e-09
7.2996825e-09
7.3419981e-09
7.3753197e-09
7.3926812e-09
7.4021227e-09
0.0012615862
0.0030600012
0.0039308102
0.0040447646
0.0032521511
0.0011087334
4.2604202e-06
3.0352542e-09
2.7520416e-09
2.7863683e-09
2.7228473e-09
2.7604764e-09
2.7438412e-09
2.7888202e-09
2.8075971e-09
2.863771e-09
2.9146255e-09
2.9933255e-09
3.082067e-09
3.1999084e-09
3.3403552e-09
3.5163399e-09
3.7269321e-09
3.9794231e-09
4.2692674e-09
4.5887089e-09
4.9201825e-09
5.2450457e-09
5.5462144e-09
5.8138975e-09
6.0457643e-09
6.2440266e-09
6.4135943e-09
6.5604156e-09
6.6865096e-09
6.7967883e-09
6.8881219e-09
6.9666984e-09
7.0330201e-09
7.0895275e-09
7.1376583e-09
7.179631e-09
7.2173722e-09
7.2499538e-09
7.2751399e-09
7.3026191e-09
7.3475075e-09
7.3785704e-09
7.3943893e-09
7.4029784e-09
0.0012606094
0.003039582
0.0038760052
0.0039376613
0.0030733805
0.00093360943
1.2417092e-06
3.0027819e-09
2.7819468e-09
2.8165095e-09
2.7545736e-09
2.7933141e-09
2.7783875e-09
2.8249914e-09
2.8459804e-09
2.9046694e-09
2.9588681e-09
3.0416167e-09
3.1354868e-09
3.2595331e-09
3.4076422e-09
3.5926778e-09
3.8138207e-09
4.077527e-09
4.3778077e-09
4.7046651e-09
5.0388292e-09
5.3609731e-09
5.6546336e-09
5.9113891e-09
6.1304992e-09
6.3153878e-09
6.4720292e-09
6.6072148e-09
6.7231476e-09
6.8249836e-09
6.9094853e-09
6.9827895e-09
7.0451831e-09
7.0987909e-09
7.1448581e-09
7.1854043e-09
7.2220469e-09
7.2532827e-09
7.2773089e-09
7.3064502e-09
7.3529581e-09
7.3817029e-09
7.3959806e-09
7.4037691e-09
0.0012596167
0.0030179592
0.0038168915
0.0038268725
0.0028839156
0.00077461318
3.6352779e-07
2.9991148e-09
2.8129117e-09
2.8476516e-09
2.7873923e-09
2.8272463e-09
2.8141483e-09
2.8624616e-09
2.8858672e-09
2.9472464e-09
3.0050966e-09
3.0921971e-09
3.1915652e-09
3.3222393e-09
3.4785326e-09
3.6732061e-09
3.9054801e-09
4.1807444e-09
4.4913243e-09
4.8248665e-09
5.1605446e-09
5.4786428e-09
5.7636206e-09
6.008614e-09
6.2145268e-09
6.3859315e-09
6.5297771e-09
6.6535881e-09
6.7596156e-09
6.8531983e-09
6.9309918e-09
6.9990977e-09
7.0575942e-09
7.108295e-09
7.1522927e-09
7.1914016e-09
7.2268558e-09
7.256623e-09
7.2797695e-09
7.311549e-09
7.3581223e-09
7.3846456e-09
7.3973975e-09
7.4043778e-09
0.0012587721
0.0029960358
0.0037566831
0.0037149266
0.0026839291
0.00063576641
1.1674302e-07
3.0115949e-09
2.8448846e-09
2.8797234e-09
2.8212701e-09
2.8622734e-09
2.8511578e-09
2.9013185e-09
2.9273706e-09
2.9916726e-09
3.0534567e-09
3.1452111e-09
3.2504592e-09
3.3882207e-09
3.5532636e-09
3.7582059e-09
4.0021847e-09
4.2892713e-09
4.6098497e-09
4.9491615e-09
5.2850224e-09
5.5976694e-09
5.8727757e-09
6.1052024e-09
6.2975209e-09
6.4553709e-09
6.586584e-09
6.6993129e-09
6.7957188e-09
6.8812649e-09
6.9525036e-09
7.0155142e-09
7.0701698e-09
7.1179767e-09
7.1599177e-09
7.1975873e-09
7.2317517e-09
7.2599531e-09
7.2826708e-09
7.3181106e-09
7.3628157e-09
7.3873206e-09
7.3985337e-09
7.4045378e-09
0.0012580109
0.0029731217
0.0036946714
0.0036010272
0.0024743484
0.00050790319
4.1958107e-08
3.032982e-09
2.8777964e-09
2.9127353e-09
2.8562379e-09
2.8984721e-09
2.8895271e-09
2.9416944e-09
2.9706399e-09
3.0380828e-09
3.1040844e-09
3.2008011e-09
3.3123426e-09
3.4576925e-09
3.6320973e-09
3.8479631e-09
4.1041901e-09
4.4032479e-09
4.7333402e-09
5.077319e-09
5.4118966e-09
5.7176338e-09
5.9816905e-09
6.2007942e-09
6.3791782e-09
6.5234505e-09
6.6422304e-09
6.7442004e-09
6.831291e-09
6.9090375e-09
6.9738986e-09
7.0319405e-09
7.0828329e-09
7.1277777e-09
7.1676909e-09
7.2039204e-09
7.2366884e-09
7.2633028e-09
7.2862025e-09
7.3255905e-09
7.3673489e-09
7.3896135e-09
7.3993161e-09
7.4045666e-09
0.0012572099
0.0029487011
0.0036297801
0.0034795503
0.002256797
0.00039261399
1.7918492e-08
3.0597881e-09
2.9117813e-09
2.9468062e-09
2.892413e-09
2.9359741e-09
2.9293952e-09
2.9837419e-09
3.0158061e-09
3.0866081e-09
3.1571018e-09
3.2591098e-09
3.377404e-09
3.5308984e-09
3.7153296e-09
3.9427993e-09
4.2117764e-09
4.5228136e-09
4.8617319e-09
5.2090738e-09
5.540776e-09
5.8381012e-09
6.0899539e-09
6.2950368e-09
6.4592102e-09
6.589936e-09
6.6965201e-09
6.7880843e-09
6.8661853e-09
6.9363847e-09
6.9950652e-09
7.0482859e-09
7.0955114e-09
7.1376439e-09
7.1755711e-09
7.2103526e-09
7.2416131e-09
7.2667317e-09
7.2906329e-09
7.3337345e-09
7.3717408e-09
7.3914908e-09
7.3997771e-09
7.4044625e-09
0.0012562706
0.0029223839
0.0035619411
0.0033529564
0.0020346607
0.00028839491
9.3819359e-09
3.0899464e-09
2.9468631e-09
2.9820331e-09
2.9299253e-09
2.9749309e-09
2.9709132e-09
3.027584e-09
3.0629799e-09
3.1373428e-09
3.2126273e-09
3.3203066e-09
3.4458669e-09
3.6081161e-09
3.8032726e-09
4.0430305e-09
4.3251732e-09
4.6480294e-09
4.9948606e-09
5.3440749e-09
5.6712107e-09
5.9586072e-09
6.1971511e-09
6.3875934e-09
6.5373549e-09
6.6546237e-09
6.74929e-09
6.8308284e-09
6.9002796e-09
6.9631949e-09
7.0159059e-09
7.0644699e-09
7.10814e-09
7.1475267e-09
7.183519e-09
7.2168288e-09
7.2464649e-09
7.270266e-09
7.296348e-09
7.3421769e-09
7.3760056e-09
7.3930867e-09
7.3999263e-09
7.4043061e-09
0.0012550762
0.0028937702
0.0034885243
0.0032243527
0.001811283
0.00019401363
6.0051462e-09
3.1223968e-09
2.9831925e-09
3.0186021e-09
2.9689433e-09
3.0154913e-09
3.0141784e-09
3.0733071e-09
3.1122279e-09
3.1903893e-09
3.2707991e-09
3.3845837e-09
3.5179881e-09
3.6896489e-09
3.896282e-09
4.1489971e-09
4.4446363e-09
4.7789374e-09
5.1325414e-09
5.4819475e-09
5.8027295e-09
6.0786786e-09
6.3028715e-09
6.478145e-09
6.6133743e-09
6.7173313e-09
6.8004007e-09
6.8723156e-09
6.9334684e-09
6.9893711e-09
7.0363337e-09
7.0804197e-09
7.1206587e-09
7.1573817e-09
7.1914958e-09
7.22329e-09
7.2511973e-09
7.2742245e-09
7.3037614e-09
7.3505207e-09
7.3801236e-09
7.3945646e-09
7.3999348e-09
7.4038374e-09
0.0012538155
0.0028642761
0.0034085742
0.0030922345
0.0015895363
0.00011113734
4.5390063e-09
3.1565785e-09
3.0209972e-09
3.0566427e-09
3.0095557e-09
3.0577022e-09
3.0592421e-09
3.1209535e-09
3.1636306e-09
3.2458647e-09
3.3317954e-09
3.4521868e-09
3.5940576e-09
3.7758389e-09
3.9947075e-09
4.2610242e-09
4.5703272e-09
4.9154788e-09
5.274464e-09
5.6222165e-09
5.9347947e-09
6.1978106e-09
6.4067071e-09
6.5664009e-09
6.6870686e-09
6.7779059e-09
6.8497438e-09
6.9124536e-09
6.9656663e-09
7.0148353e-09
7.0562752e-09
7.096072e-09
7.1330144e-09
7.1671697e-09
7.1994624e-09
7.2296786e-09
7.2557653e-09
7.2786238e-09
7.3130421e-09
7.358345e-09
7.3840675e-09
7.3960055e-09
7.399892e-09
7.4030175e-09
0.0012525828
0.0028349398
0.0033330108
0.0029539361
0.0013734568
4.9377189e-05
3.8696831e-09
3.1922832e-09
3.0602272e-09
3.0962222e-09
3.0517483e-09
3.1015785e-09
3.1061197e-09
3.1705935e-09
3.2172889e-09
3.3039445e-09
3.3958334e-09
3.523384e-09
3.6743951e-09
3.8670478e-09
4.0989474e-09
4.3794546e-09
4.7024264e-09
5.0575682e-09
5.4202916e-09
5.7643754e-09
6.0668478e-09
6.3154963e-09
6.5082747e-09
6.6521064e-09
6.7582747e-09
6.836217e-09
6.8972297e-09
6.9511653e-09
6.9968012e-09
7.039523e-09
7.0756696e-09
7.111371e-09
7.1451602e-09
7.1768547e-09
7.2073767e-09
7.2359421e-09
7.2602047e-09
7.2835957e-09
7.3237757e-09
7.3653429e-09
7.3877336e-09
7.3972195e-09
7.399344e-09
7.4017093e-09
0.001251175
0.0028036281
0.0032524012
0.0028065187
0.0011665899
1.6208043e-05
3.5649256e-09
3.2292062e-09
3.1008437e-09
3.1372088e-09
3.095512e-09
3.1471341e-09
3.154884e-09
3.2223278e-09
3.2733568e-09
3.3648063e-09
3.4631808e-09
3.5984865e-09
3.7593525e-09
3.9636626e-09
4.2093862e-09
4.5045706e-09
4.8409909e-09
5.2049755e-09
5.5695489e-09
5.9078115e-09
6.1982689e-09
6.431227e-09
6.6072302e-09
6.73505e-09
6.8268648e-09
6.8921659e-09
6.9427869e-09
6.9883957e-09
7.026819e-09
7.0633814e-09
7.0944711e-09
7.1262692e-09
7.1570568e-09
7.1864038e-09
7.2151928e-09
7.2420313e-09
7.2646424e-09
7.2895322e-09
7.3345947e-09
7.3716657e-09
7.3907959e-09
7.398e-09
7.3984716e-09
7.3997424e-09
0.0012496665
0.0027711309
0.0031685312
0.0026497027
0.00097417653
4.2307645e-06
3.4364189e-09
3.2681513e-09
3.1425361e-09
3.1795867e-09
3.1409336e-09
3.1944836e-09
3.2056403e-09
3.2763029e-09
3.3320262e-09
3.4287125e-09
3.5341243e-09
3.6778214e-09
3.8492991e-09
4.0661079e-09
4.3264486e-09
4.6366808e-09
4.9860737e-09
5.3574487e-09
5.7217306e-09
6.0518944e-09
6.3284528e-09
6.544564e-09
6.7033071e-09
6.8150602e-09
6.8927128e-09
6.9456828e-09
6.9863456e-09
7.0241094e-09
7.0556835e-09
7.0863612e-09
7.1126443e-09
7.1407269e-09
7.1686726e-09
7.1957871e-09
7.2228607e-09
7.2478989e-09
7.269224e-09
7.2966323e-09
7.3446774e-09
7.3770648e-09
7.3930423e-09
7.398274e-09
7.3979479e-09
7.3967155e-09
0.0012480741
0.0027379326
0.003081577
0.0024882991
0.00079894336
9.9701769e-07
3.3943764e-09
3.3083279e-09
3.1856971e-09
3.2234776e-09
3.1880625e-09
3.2437336e-09
3.2585327e-09
3.3327109e-09
3.3935388e-09
3.4959359e-09
3.6089851e-09
3.761744e-09
3.9446384e-09
4.1748183e-09
4.4505201e-09
4.7759802e-09
5.1375618e-09
5.5145526e-09
5.8761747e-09
6.1959013e-09
6.4568097e-09
6.6551683e-09
6.7963194e-09
6.8919847e-09
6.9556567e-09
6.9967299e-09
7.0278451e-09
7.0583004e-09
7.0833862e-09
7.1084141e-09
7.1301569e-09
7.1547151e-09
7.1799841e-09
7.2049771e-09
7.2303297e-09
7.2535031e-09
7.2741129e-09
7.3053825e-09
7.3532727e-09
7.3814015e-09
7.3946213e-09
7.3983341e-09
7.397659e-09
7.3926977e-09
0.0012466148
0.002704818
0.0029928667
0.0023161791
0.00064126936
2.4404487e-07
3.3953083e-09
3.3500094e-09
3.2302592e-09
3.2690575e-09
3.2370315e-09
3.2950072e-09
3.313756e-09
3.3917904e-09
3.4581673e-09
3.5667811e-09
3.6880902e-09
3.8506282e-09
4.0458108e-09
4.290281e-09
4.5820319e-09
4.9226804e-09
5.2953277e-09
5.6758226e-09
6.0322018e-09
6.3391473e-09
6.5828986e-09
6.7628588e-09
6.8861339e-09
6.965655e-09
7.0154779e-09
7.0452765e-09
7.067252e-09
7.0909863e-09
7.1099373e-09
7.1294971e-09
7.1469642e-09
7.1682157e-09
7.1909738e-09
7.2139479e-09
7.2375545e-09
7.2588298e-09
7.2794164e-09
7.3158231e-09
7.3600657e-09
7.3846173e-09
7.3956179e-09
7.3983041e-09
7.3974594e-09
7.3880304e-09
0.0012453532
0.0026717709
0.0029109534
0.0021340337
0.00050651583
7.4210385e-08
3.4175336e-09
3.3931286e-09
3.2764081e-09
3.3164748e-09
3.2879241e-09
3.3485141e-09
3.3715434e-09
3.453817e-09
3.5261985e-09
3.6415497e-09
3.771793e-09
3.9448875e-09
4.1532901e-09
4.4129703e-09
4.7213235e-09
5.0768138e-09
5.4590286e-09
5.8405852e-09
6.1890055e-09
6.4809712e-09
6.7064434e-09
6.867514e-09
6.9725282e-09
7.0358365e-09
7.0719921e-09
7.0912629e-09
7.1046191e-09
7.1222016e-09
7.1353439e-09
7.1496056e-09
7.1630067e-09
7.1812227e-09
7.2016295e-09
7.2226737e-09
7.2445001e-09
7.2639275e-09
7.2852417e-09
7.326602e-09
7.366021e-09
7.3870405e-09
7.3960025e-09
7.3982488e-09
7.3969827e-09
7.3833729e-09
0.0012440564
0.0026366669
0.0028230821
0.0019411395
0.00038714425
2.8102694e-08
3.4504465e-09
3.4377684e-09
3.3242489e-09
3.3658972e-09
3.3410219e-09
3.4045193e-09
3.4321622e-09
3.5190497e-09
3.5979067e-09
3.7205697e-09
3.8604668e-09
4.0449837e-09
4.2676004e-09
4.543433e-09
4.8687577e-09
5.238427e-09
5.6282815e-09
6.0081566e-09
6.345834e-09
6.6209115e-09
6.8273521e-09
6.9688431e-09
7.0549876e-09
7.1021984e-09
7.1253121e-09
7.1345655e-09
7.1401307e-09
7.1519673e-09
7.1595574e-09
7.1687982e-09
7.1782361e-09
7.1937344e-09
7.2119417e-09
7.2311251e-09
7.2511417e-09
7.2689311e-09
7.2918002e-09
7.3370328e-09
7.3714121e-09
7.3891414e-09
7.3960974e-09
7.3975307e-09
7.3960142e-09
7.3792462e-09
0.0012428657
0.0026002335
0.0027336176
0.0017409032
0.00028093041
1.3372714e-08
3.4896031e-09
3.4840718e-09
3.3740257e-09
3.4175098e-09
3.3966495e-09
3.4632888e-09
3.4958585e-09
3.5876758e-09
3.6736066e-09
3.8041809e-09
3.9545484e-09
4.151419e-09
4.3893078e-09
4.6821309e-09
5.0245581e-09
5.4072965e-09
5.8024616e-09
6.1776525e-09
6.5019137e-09
6.7586676e-09
6.9453947e-09
7.0659687e-09
7.1330701e-09
7.1645786e-09
7.1756463e-09
7.1750809e-09
7.1740633e-09
7.1802684e-09
7.1824495e-09
7.1871764e-09
7.192686e-09
7.2057417e-09
7.2219024e-09
7.2392666e-09
7.2574575e-09
7.2740379e-09
7.2994828e-09
7.346418e-09
7.3761829e-09
7.3909982e-09
7.3960628e-09
7.396486e-09
7.3943819e-09
7.375578e-09
0.0012418268
0.0025619992
0.0026408559
0.0015369165
0.00018608357
8.0223629e-09
3.5332642e-09
3.5324291e-09
3.4260241e-09
3.4715896e-09
3.4548974e-09
3.5250041e-09
3.5628426e-09
3.6600529e-09
3.7536057e-09
3.8927751e-09
4.0545111e-09
4.2647737e-09
4.5190247e-09
4.8296012e-09
5.188939e-09
5.5832056e-09
5.9809125e-09
6.3482532e-09
6.6566775e-09
6.8941199e-09
7.0596451e-09
7.1583303e-09
7.2063203e-09
7.2230151e-09
7.2232301e-09
7.2129351e-09
7.2065293e-09
7.2070375e-09
7.2039046e-09
7.2047457e-09
7.206541e-09
7.2172173e-09
7.231505e-09
7.2470593e-09
7.2634251e-09
7.2794333e-09
7.3086893e-09
7.3542385e-09
7.3799979e-09
7.3922739e-09
7.3959798e-09
7.3957216e-09
7.3916175e-09
7.3724063e-09
0.0012407708
0.0025206099
0.0025444678
0.001337984
0.00010452516
5.8408428e-09
3.5804507e-09
3.5829727e-09
3.4803557e-09
3.528182e-09
3.5159051e-09
3.5898824e-09
3.6333975e-09
3.7364467e-09
3.8382644e-09
3.9868117e-09
4.1609093e-09
4.3856737e-09
4.6573525e-09
4.9862312e-09
5.3618715e-09
5.765611e-09
6.1627219e-09
6.5190555e-09
6.8096838e-09
7.0268607e-09
7.1690449e-09
7.2451804e-09
7.2747156e-09
7.2784544e-09
7.2679268e-09
7.2486993e-09
7.2370107e-09
7.2323297e-09
7.2240327e-09
7.221183e-09
7.220075e-09
7.2281269e-09
7.2407442e-09
7.2544681e-09
7.2690399e-09
7.2852222e-09
7.3192172e-09
7.3604721e-09
7.3827611e-09
7.3927843e-09
7.3956399e-09
7.3950422e-09
7.387977e-09
7.3696061e-09
0.0012392725
0.0024728795
0.0024425721
0.001151527
4.5307768e-05
4.8822417e-09
3.6305158e-09
3.6357108e-09
3.5370393e-09
3.5874792e-09
3.5798258e-09
3.658176e-09
3.7077856e-09
3.8172e-09
3.9280097e-09
4.0868067e-09
4.2743641e-09
4.5148078e-09
4.8049506e-09
5.1524393e-09
5.5433154e-09
5.9539536e-09
6.3470278e-09
6.689372e-09
6.9607418e-09
7.1556532e-09
7.2727761e-09
7.3261615e-09
7.3392766e-09
7.3307658e-09
7.3096781e-09
7.2825644e-09
7.2654768e-09
7.2561776e-09
7.2430314e-09
7.2363998e-09
7.2332782e-09
7.2384727e-09
7.2496139e-09
7.2614738e-09
7.2743626e-09
7.2914646e-09
7.3297917e-09
7.365941e-09
7.384842e-09
7.392938e-09
7.3951091e-09
7.3942553e-09
7.3838733e-09
7.3671525e-09
0.0012372047
0.0024195047
0.0023331176
0.0009766103
1.46186e-05
4.4541868e-09
3.6831322e-09
3.6906993e-09
3.5962676e-09
3.6497234e-09
3.6471464e-09
3.7299868e-09
3.7863324e-09
3.9026956e-09
4.0233449e-09
4.1933771e-09
4.3955608e-09
4.6528848e-09
4.9623775e-09
5.3284009e-09
5.7328781e-09
6.1473292e-09
6.5327965e-09
6.8585628e-09
7.1094436e-09
7.2790321e-09
7.3699572e-09
7.4018294e-09
7.4006051e-09
7.3796105e-09
7.348645e-09
7.3144373e-09
7.2920726e-09
7.2786304e-09
7.2607792e-09
7.2506972e-09
7.2459502e-09
7.2483538e-09
7.2580982e-09
7.2680798e-09
7.279563e-09
7.2983437e-09
7.3398377e-09
7.3708584e-09
7.3866278e-09
7.3929089e-09
7.3943645e-09
7.3932768e-09
7.3798596e-09
7.365067e-09
0.0012343385
0.0023593576
0.0022087544
0.00081449815
3.7967965e-06
4.2757055e-09
3.7383266e-09
3.7482235e-09
3.6583793e-09
3.7151609e-09
3.7180192e-09
3.8057867e-09
3.8694137e-09
3.9934537e-09
4.1248627e-09
4.3072006e-09
4.5252503e-09
4.8006757e-09
5.1302402e-09
5.5142982e-09
5.9301533e-09
6.3448765e-09
6.7191949e-09
7.0262719e-09
7.2543526e-09
7.3960112e-09
7.4602252e-09
7.473695e-09
7.4579923e-09
7.4251458e-09
7.3849373e-09
7.3443319e-09
7.3169111e-09
7.2997439e-09
7.2774233e-09
7.2641602e-09
7.2577841e-09
7.2579716e-09
7.2661614e-09
7.2743048e-09
7.2848977e-09
7.3062669e-09
7.3487083e-09
7.3751488e-09
7.3881998e-09
7.3928145e-09
7.3934521e-09
7.3920745e-09
7.3763232e-09
7.3632855e-09
0.0012308011
0.002293377
0.0020660875
0.00066765818
9.0826142e-07
4.2187179e-09
3.796353e-09
3.8086556e-09
3.723708e-09
3.7841396e-09
3.7927497e-09
3.8858503e-09
3.9574865e-09
4.0899929e-09
4.2332465e-09
4.4290359e-09
4.6642208e-09
4.9589027e-09
5.3089354e-09
5.7099498e-09
6.1343088e-09
6.5454535e-09
6.9053369e-09
7.1920216e-09
7.3937275e-09
7.5055663e-09
7.5446557e-09
7.5415896e-09
7.5114612e-09
7.4674209e-09
7.4186881e-09
7.372263e-09
7.3401175e-09
7.3195787e-09
7.293071e-09
7.2769329e-09
7.2685863e-09
7.267436e-09
7.2737491e-09
7.2801671e-09
7.2905937e-09
7.3156141e-09
7.3559303e-09
7.3784476e-09
7.38903e-09
7.3924134e-09
7.3924821e-09
7.3902881e-09
7.3733379e-09
7.3617566e-09
0.0012268968
0.0022235162
0.0019078002
0.00053776301
2.313561e-07
4.2224769e-09
3.8575763e-09
3.8722537e-09
3.7924603e-09
3.8568676e-09
3.8715835e-09
3.97064e-09
4.0511304e-09
4.1930165e-09
4.3492407e-09
4.5596783e-09
4.8133355e-09
5.128331e-09
5.4988996e-09
5.9151401e-09
6.3445609e-09
6.7480889e-09
7.0906505e-09
7.3545869e-09
7.5261417e-09
7.6071832e-09
7.6248112e-09
7.6049474e-09
7.5610644e-09
7.5065807e-09
7.4500107e-09
7.3982694e-09
7.3618175e-09
7.3381977e-09
7.3077452e-09
7.2888877e-09
7.2786937e-09
7.2766385e-09
7.2808202e-09
7.2856838e-09
7.2967975e-09
7.3257923e-09
7.3616973e-09
7.3808436e-09
7.3893574e-09
7.39187e-09
7.3916645e-09
7.3876449e-09
7.3707958e-09
7.3604673e-09
0.0012227863
0.0021504922
0.0017390915
0.00042370028
7.2995954e-08
4.2569e-09
3.9219138e-09
3.9390342e-09
3.8646596e-09
3.9335556e-09
3.9549851e-09
4.0607802e-09
4.1510774e-09
4.3032575e-09
4.4736207e-09
4.7000047e-09
4.9734277e-09
5.3096105e-09
5.7001707e-09
6.1292135e-09
6.5596796e-09
6.951681e-09
7.2745066e-09
7.5119039e-09
7.6504141e-09
7.7019993e-09
7.7004247e-09
7.6637411e-09
7.6069296e-09
7.5427541e-09
7.4790199e-09
7.4223913e-09
7.3821499e-09
7.3556591e-09
7.3214534e-09
7.3000486e-09
7.2882114e-09
7.2854899e-09
7.2874149e-09
7.2909154e-09
7.3031287e-09
7.3357865e-09
7.3666539e-09
7.3826478e-09
7.3894071e-09
7.3912539e-09
7.3908365e-09
7.384429e-09
7.3686064e-09
7.3593892e-09
0.0012184529
0.0020720398
0.0015769304
0.0003238839
2.9535136e-08
4.3067853e-09
3.9892716e-09
4.0092731e-09
3.9405978e-09
4.0147087e-09
4.0436146e-09
4.1570285e-09
4.2581084e-09
4.4214686e-09
4.6072116e-09
4.8509284e-09
5.1454405e-09
5.5033857e-09
5.9128175e-09
6.3514796e-09
6.7786457e-09
7.1554136e-09
7.4560777e-09
7.6619669e-09
7.7657266e-09
7.7916895e-09
7.7709044e-09
7.7180747e-09
7.6492038e-09
7.576093e-09
7.5058302e-09
7.4447547e-09
7.4011848e-09
7.3720217e-09
7.334246e-09
7.310515e-09
7.2971841e-09
7.2937362e-09
7.2937083e-09
7.2959816e-09
7.3099911e-09
7.3450801e-09
7.371025e-09
7.3841456e-09
7.3893531e-09
7.3905817e-09
7.3899416e-09
7.3809952e-09
7.3667382e-09
7.3584914e-09
0.0012143342
0.0019852765
0.0014099616
0.00023293971
1.4815337e-08
4.365857e-09
4.0601039e-09
4.083383e-09
4.0211605e-09
4.1010911e-09
4.138357e-09
4.260012e-09
4.3729215e-09
4.5484549e-09
4.75093e-09
5.0134515e-09
5.3302264e-09
5.7100124e-09
6.1363682e-09
6.5807515e-09
7.0001305e-09
7.3583921e-09
7.6330372e-09
7.8033704e-09
7.8728561e-09
7.8763687e-09
7.8360732e-09
7.768091e-09
7.6880529e-09
7.6067488e-09
7.5305623e-09
7.4654722e-09
7.4190054e-09
7.3873501e-09
7.3462144e-09
7.3203982e-09
7.3056306e-09
7.3010879e-09
7.2999172e-09
7.3011042e-09
7.3176397e-09
7.3531336e-09
7.3747929e-09
7.3854222e-09
7.3892804e-09
7.3898335e-09
7.3889508e-09
7.3778104e-09
7.3651169e-09
7.3577492e-09
0.0012125172
0.0019077813
0.0012439739
0.00015110805
9.2392352e-09
4.4309733e-09
4.1349058e-09
4.1621893e-09
4.1071962e-09
4.1935728e-09
4.2398843e-09
4.3703853e-09
4.4962337e-09
4.6851257e-09
4.9057917e-09
5.1886726e-09
5.5286854e-09
5.9298249e-09
6.3703454e-09
6.8159579e-09
7.2231225e-09
7.5599672e-09
7.8030052e-09
7.9349152e-09
7.9736179e-09
7.9553359e-09
7.8960978e-09
7.8139736e-09
7.7236576e-09
7.6348795e-09
7.5533405e-09
7.4846614e-09
7.4356846e-09
7.4017159e-09
7.357443e-09
7.3297015e-09
7.3135272e-09
7.3078026e-09
7.3058925e-09
7.3064953e-09
7.3264266e-09
7.3595198e-09
7.3777784e-09
7.3863128e-09
7.3890079e-09
7.389054e-09
7.3877085e-09
7.3749342e-09
7.3637185e-09
7.3571317e-09
0.0012115723
0.0018238788
0.0010803451
8.1737388e-05
6.8819029e-09
4.5012375e-09
4.2148933e-09
4.246622e-09
4.1992672e-09
4.2926236e-09
4.3486564e-09
4.4888816e-09
4.6289032e-09
4.8325223e-09
5.0729561e-09
5.3776803e-09
5.7414769e-09
6.162636e-09
6.6136414e-09
7.0555892e-09
7.4463459e-09
7.7580845e-09
7.9639299e-09