/*--------------------------------*- C++ -*----------------------------------*\
  =========                 |
  \\      /  F ield         | OpenFOAM: The Open Source CFD Toolbox
   \\    /   O peration     | Website:  https://openfoam.org
    \\  /    A nd           | Version:  8
     \\/     M anipulation  |
\*---------------------------------------------------------------------------*/
FoamFile
{
    version     2.0;
    format      ascii;
    class       volScalarField;
    location    "0.290003";
    object      nuTilda;
}
// * * * * * * * * * * * * * * * * * * * * * * * * * * * * * * * * * * * * * //

dimensions      [0 2 -1 0 0 0 0];

internalField   nonuniform List<scalar> 
20000
(
0.0012816547
0.0033500523
0.0046722044
0.0053507572
0.0052281703
0.0040391769
0.0014255284
8.4964107e-05
1.0302176e-05
1.013915e-05
1.0065243e-05
1.0071131e-05
1.0031577e-05
1.0037157e-05
1.0019299e-05
1.0019925e-05
1.0011322e-05
1.0009411e-05
1.000576e-05
1.0004397e-05
1.0002973e-05
1.0002269e-05
1.0001773e-05
1.0001627e-05
1.0001595e-05
1.0001459e-05
1.0001306e-05
1.0001203e-05
1.0001191e-05
1.0001219e-05
1.0001281e-05
1.0001347e-05
1.0001388e-05
1.0001325e-05
1.0001263e-05
1.000128e-05
1.0001192e-05
1.0001282e-05
1.0001374e-05
1.0001457e-05
1.0001594e-05
1.0001878e-05
1.0002177e-05
1.0002304e-05
1.0002437e-05
1.0002584e-05
1.0002597e-05
1.0002446e-05
1.0001881e-05
1.0001279e-05
0.0012857632
0.0033323968
0.0046229807
0.0052677629
0.0051020754
0.003868069
0.0012531941
6.550703e-05
1.0234992e-05
1.0139856e-05
1.0064743e-05
1.0070973e-05
1.0031321e-05
1.0037052e-05
1.001907e-05
1.001978e-05
1.001122e-05
1.0009333e-05
1.0005699e-05
1.0004341e-05
1.0002927e-05
1.000223e-05
1.0001729e-05
1.0001582e-05
1.0001548e-05
1.0001422e-05
1.000128e-05
1.0001193e-05
1.0001173e-05
1.0001174e-05
1.0001218e-05
1.0001286e-05
1.0001345e-05
1.0001298e-05
1.0001247e-05
1.0001267e-05
1.0001182e-05
1.0001272e-05
1.0001367e-05
1.0001451e-05
1.0001583e-05
1.0001868e-05
1.0002182e-05
1.0002314e-05
1.0002434e-05
1.0002581e-05
1.0002581e-05
1.0002363e-05
1.0001803e-05
1.0001267e-05
0.0012847899
0.0033109476
0.0045719893
0.0051810542
0.0049712931
0.0036832992
0.0010808306
4.9943443e-05
1.0192722e-05
1.0139339e-05
1.0064245e-05
1.0070675e-05
1.0031098e-05
1.0036872e-05
1.0018855e-05
1.0019617e-05
1.0011109e-05
1.0009249e-05
1.0005646e-05
1.0004307e-05
1.0002913e-05
1.0002236e-05
1.0001743e-05
1.0001582e-05
1.0001552e-05
1.0001426e-05
1.0001287e-05
1.0001197e-05
1.0001168e-05
1.0001165e-05
1.0001213e-05
1.0001286e-05
1.0001351e-05
1.0001306e-05
1.0001243e-05
1.0001271e-05
1.0001181e-05
1.0001273e-05
1.0001369e-05
1.0001449e-05
1.0001574e-05
1.0001849e-05
1.0002177e-05
1.0002316e-05
1.0002428e-05
1.0002561e-05
1.0002557e-05
1.000229e-05
1.0001758e-05
1.000126e-05
0.0012832242
0.0032897993
0.0045207687
0.0050907224
0.0048392503
0.0034912431
0.00092455586
3.8221778e-05
1.0166456e-05
1.013875e-05
1.0063707e-05
1.007031e-05
1.0030904e-05
1.0036664e-05
1.0018649e-05
1.0019439e-05
1.0010999e-05
1.0009155e-05
1.0005586e-05
1.0004257e-05
1.0002884e-05
1.0002219e-05
1.0001733e-05
1.0001581e-05
1.0001555e-05
1.0001432e-05
1.0001291e-05
1.0001197e-05
1.0001167e-05
1.0001164e-05
1.0001211e-05
1.0001281e-05
1.0001348e-05
1.0001308e-05
1.0001245e-05
1.0001276e-05
1.0001184e-05
1.0001272e-05
1.0001369e-05
1.0001447e-05
1.0001567e-05
1.0001837e-05
1.0002173e-05
1.0002316e-05
1.0002416e-05
1.0002547e-05
1.0002538e-05
1.0002237e-05
1.0001709e-05
1.0001247e-05
0.0012814818
0.003269244
0.0044707469
0.0050026812
0.004705822
0.0032897651
0.00078453274
2.9524694e-05
1.014987e-05
1.0138055e-05
1.0063135e-05
1.0069879e-05
1.0030776e-05
1.0036432e-05
1.0018452e-05
1.0019254e-05
1.0010891e-05
1.0009059e-05
1.0005529e-05
1.0004211e-05
1.0002859e-05
1.000221e-05
1.0001732e-05
1.0001583e-05
1.0001557e-05
1.0001435e-05
1.0001297e-05
1.00012e-05
1.0001164e-05
1.0001161e-05
1.0001208e-05
1.000128e-05
1.0001348e-05
1.0001312e-05
1.0001245e-05
1.0001281e-05
1.0001187e-05
1.0001272e-05
1.000137e-05
1.0001447e-05
1.000156e-05
1.0001823e-05
1.0002164e-05
1.0002311e-05
1.0002393e-05
1.000252e-05
1.0002512e-05
1.000219e-05
1.0001658e-05
1.0001212e-05
0.001279437
0.0032486297
0.0044205257
0.0049153875
0.0045711237
0.0030797476
0.00065542791
2.3175334e-05
1.0139322e-05
1.0137114e-05
1.0062533e-05
1.0069377e-05
1.0030601e-05
1.0036174e-05
1.0018266e-05
1.0019059e-05
1.0010784e-05
1.0008958e-05
1.000547e-05
1.0004162e-05
1.0002833e-05
1.0002197e-05
1.0001729e-05
1.0001584e-05
1.0001559e-05
1.0001438e-05
1.0001303e-05
1.0001202e-05
1.0001163e-05
1.0001159e-05
1.0001206e-05
1.0001277e-05
1.0001346e-05
1.0001316e-05
1.0001246e-05
1.0001285e-05
1.0001189e-05
1.0001271e-05
1.0001371e-05
1.0001447e-05
1.0001555e-05
1.0001809e-05
1.0002154e-05
1.0002306e-05
1.0002369e-05
1.0002486e-05
1.0002485e-05
1.0002149e-05
1.0001605e-05
1.0001171e-05
0.0012774103
0.0032278141
0.0043694024
0.0048267072
0.0044353754
0.0028613676
0.00053947135
1.8689606e-05
1.0132525e-05
1.0135734e-05
1.0061903e-05
1.0068811e-05
1.0030416e-05
1.0035891e-05
1.0018091e-05
1.0018856e-05
1.0010679e-05
1.0008854e-05
1.0005411e-05
1.0004113e-05
1.0002807e-05
1.0002186e-05
1.0001726e-05
1.0001586e-05
1.000156e-05
1.0001441e-05
1.0001308e-05
1.0001205e-05
1.0001162e-05
1.0001157e-05
1.0001204e-05
1.0001275e-05
1.0001345e-05
1.0001319e-05
1.0001246e-05
1.000129e-05
1.0001192e-05
1.0001271e-05
1.0001371e-05
1.0001449e-05
1.0001551e-05
1.0001796e-05
1.0002141e-05
1.0002299e-05
1.0002348e-05
1.0002454e-05
1.0002456e-05
1.0002108e-05
1.000155e-05
1.0001126e-05
0.0012753873
0.0032067377
0.0043171115
0.0047366637
0.0042987327
0.0026354545
0.00043696993
1.5613567e-05
1.0127915e-05
1.01342e-05
1.0061249e-05
1.0068183e-05
1.0030223e-05
1.0035584e-05
1.0017926e-05
1.0018643e-05
1.0010577e-05
1.0008746e-05
1.0005352e-05
1.0004062e-05
1.0002781e-05
1.0002173e-05
1.0001723e-05
1.0001587e-05
1.0001562e-05
1.0001443e-05
1.0001313e-05
1.0001209e-05
1.0001162e-05
1.0001156e-05
1.0001203e-05
1.0001272e-05
1.0001343e-05
1.0001322e-05
1.0001246e-05
1.0001294e-05
1.0001195e-05
1.000127e-05
1.0001372e-05
1.000145e-05
1.0001547e-05
1.0001782e-05
1.0002126e-05
1.0002291e-05
1.0002328e-05
1.0002425e-05
1.0002426e-05
1.0002066e-05
1.0001493e-05
1.0001076e-05
0.0012733375
0.0031854102
0.0042633684
0.0046448015
0.0041609892
0.002403678
0.00034820327
1.3569934e-05
1.0124612e-05
1.0132565e-05
1.0060573e-05
1.0067495e-05
1.0030022e-05
1.0035254e-05
1.0017771e-05
1.0018423e-05
1.0010476e-05
1.0008635e-05
1.0005293e-05
1.000401e-05
1.0002755e-05
1.0002161e-05
1.0001721e-05
1.000159e-05
1.0001563e-05
1.0001445e-05
1.0001317e-05
1.0001213e-05
1.0001163e-05
1.0001156e-05
1.0001202e-05
1.0001269e-05
1.000134e-05
1.0001324e-05
1.0001247e-05
1.0001298e-05
1.0001198e-05
1.000127e-05
1.0001372e-05
1.0001451e-05
1.0001544e-05
1.0001769e-05
1.0002108e-05
1.0002282e-05
1.0002307e-05
1.0002395e-05
1.0002394e-05
1.0002023e-05
1.0001435e-05
1.0001033e-05
0.0012713392
0.0031641189
0.0042091484
0.0045505979
0.0040214393
0.0021688536
0.00027297376
1.2253875e-05
1.0122092e-05
1.0130829e-05
1.0059878e-05
1.0066751e-05
1.0029816e-05
1.0034899e-05
1.0017627e-05
1.0018194e-05
1.0010378e-05
1.0008522e-05
1.0005234e-05
1.0003957e-05
1.0002729e-05
1.0002148e-05
1.0001718e-05
1.0001592e-05
1.0001563e-05
1.0001447e-05
1.0001321e-05
1.0001217e-05
1.0001164e-05
1.0001156e-05
1.0001201e-05
1.0001266e-05
1.0001338e-05
1.0001326e-05
1.0001247e-05
1.0001302e-05
1.0001202e-05
1.0001269e-05
1.0001371e-05
1.0001452e-05
1.0001541e-05
1.0001756e-05
1.0002088e-05
1.0002272e-05
1.0002283e-05
1.0002366e-05
1.0002362e-05
1.000198e-05
1.0001378e-05
1.0000994e-05
0.0012695028
0.0031427967
0.0041538028
0.0044532677
0.0038789048
0.0019371326
0.00021070801
1.143178e-05
1.0120039e-05
1.0129004e-05
1.0059168e-05
1.0065953e-05
1.0029604e-05
1.0034522e-05
1.0017492e-05
1.0017958e-05
1.0010282e-05
1.0008405e-05
1.0005175e-05
1.0003903e-05
1.0002703e-05
1.0002135e-05
1.0001716e-05
1.0001595e-05
1.0001564e-05
1.0001449e-05
1.0001324e-05
1.0001222e-05
1.0001166e-05
1.0001157e-05
1.0001201e-05
1.0001263e-05
1.0001336e-05
1.0001328e-05
1.0001247e-05
1.0001306e-05
1.0001205e-05
1.0001268e-05
1.000137e-05
1.0001452e-05
1.0001537e-05
1.0001743e-05
1.0002066e-05
1.0002259e-05
1.0002258e-05
1.0002339e-05
1.0002329e-05
1.0001938e-05
1.0001322e-05
1.0000956e-05
0.0012679645
0.0031217301
0.0040979176
0.0043525112
0.0037319802
0.0017139492
0.00016027293
1.0932006e-05
1.0118262e-05
1.0127096e-05
1.0058444e-05
1.0065105e-05
1.0029389e-05
1.0034125e-05
1.0017368e-05
1.0017715e-05
1.0010188e-05
1.0008287e-05
1.0005116e-05
1.0003849e-05
1.0002677e-05
1.0002123e-05
1.0001714e-05
1.0001598e-05
1.0001564e-05
1.000145e-05
1.0001328e-05
1.0001226e-05
1.0001168e-05
1.0001158e-05
1.0001201e-05
1.000126e-05
1.0001334e-05
1.000133e-05
1.0001247e-05
1.0001309e-05
1.0001207e-05
1.0001268e-05
1.0001368e-05
1.0001452e-05
1.0001534e-05
1.000173e-05
1.0002043e-05
1.0002243e-05
1.0002234e-05
1.0002314e-05
1.0002297e-05
1.0001899e-05
1.0001271e-05
1.0000919e-05
0.001266722
0.0031011723
0.0040422944
0.0042493143
0.0035800307
0.0015008713
0.00012007516
1.0634136e-05
1.0116646e-05
1.0125101e-05
1.005771e-05
1.0064208e-05
1.002917e-05
1.0033707e-05
1.0017253e-05
1.0017466e-05
1.0010096e-05
1.0008167e-05
1.0005057e-05
1.0003795e-05
1.0002651e-05
1.000211e-05
1.0001712e-05
1.00016e-05
1.0001565e-05
1.0001451e-05
1.000133e-05
1.000123e-05
1.0001171e-05
1.0001159e-05
1.00012e-05
1.0001257e-05
1.0001331e-05
1.0001331e-05
1.0001247e-05
1.0001312e-05
1.000121e-05
1.0001268e-05
1.0001365e-05
1.0001451e-05
1.000153e-05
1.0001718e-05
1.0002022e-05
1.0002226e-05
1.0002209e-05
1.0002289e-05
1.0002266e-05
1.0001863e-05
1.0001228e-05
1.0000883e-05
0.0012656211
0.003080838
0.0039869114
0.0041501191
0.0034212188
0.0013000819
8.862128e-05
1.0460142e-05
1.0115125e-05
1.0123041e-05
1.0056968e-05
1.0063271e-05
1.0028949e-05
1.0033271e-05
1.0017147e-05
1.0017211e-05
1.0010006e-05
1.0008045e-05
1.0004999e-05
1.0003741e-05
1.0002626e-05
1.0002097e-05
1.0001711e-05
1.0001603e-05
1.0001565e-05
1.0001452e-05
1.0001333e-05
1.0001233e-05
1.0001174e-05
1.0001161e-05
1.00012e-05
1.0001254e-05
1.0001329e-05
1.0001333e-05
1.0001247e-05
1.0001315e-05
1.0001213e-05
1.0001268e-05
1.0001363e-05
1.0001449e-05
1.0001526e-05
1.0001706e-05
1.0002002e-05
1.0002209e-05
1.0002183e-05
1.0002264e-05
1.0002234e-05
1.000183e-05
1.0001192e-05
1.0000846e-05
0.001264506
0.0030605025
0.0039311125
0.0040450449
0.0032525655
0.0011119396
6.4642434e-05
1.0360527e-05
1.0113662e-05
1.0120916e-05
1.005622e-05
1.0062293e-05
1.0028727e-05
1.0032818e-05
1.0017048e-05
1.0016952e-05
1.0009918e-05
1.0007923e-05
1.0004941e-05
1.0003687e-05
1.0002601e-05
1.0002085e-05
1.0001709e-05
1.0001605e-05
1.0001565e-05
1.0001453e-05
1.0001334e-05
1.0001236e-05
1.0001176e-05
1.0001161e-05
1.0001199e-05
1.0001251e-05
1.0001326e-05
1.0001334e-05
1.0001247e-05
1.0001317e-05
1.0001216e-05
1.0001268e-05
1.000136e-05
1.0001447e-05
1.0001523e-05
1.0001695e-05
1.0001985e-05
1.0002198e-05
1.0002156e-05
1.0002237e-05
1.00022e-05
1.0001799e-05
1.0001163e-05
1.0000808e-05
0.0012634977
0.003040084
0.0038763125
0.0039379532
0.003073837
0.00093802819
4.687882e-05
1.0303851e-05
1.0112235e-05
1.0118732e-05
1.0055469e-05
1.0061278e-05
1.0028504e-05
1.003235e-05
1.0016956e-05
1.0016688e-05
1.0009831e-05
1.0007799e-05
1.0004883e-05
1.0003633e-05
1.0002577e-05
1.0002073e-05
1.0001708e-05
1.0001606e-05
1.0001565e-05
1.0001454e-05
1.0001336e-05
1.0001238e-05
1.0001177e-05
1.0001162e-05
1.0001198e-05
1.0001248e-05
1.0001324e-05
1.0001335e-05
1.0001247e-05
1.000132e-05
1.0001218e-05
1.0001268e-05
1.0001358e-05
1.0001446e-05
1.000152e-05
1.0001685e-05
1.0001969e-05
1.0002192e-05
1.0002129e-05
1.0002206e-05
1.0002163e-05
1.0001769e-05
1.0001139e-05
1.0000768e-05
0.0012624738
0.0030184623
0.0038172046
0.0038271776
0.0028844254
0.00078085947
3.4249754e-05
1.027135e-05
1.0110835e-05
1.0116503e-05
1.0054717e-05
1.0060234e-05
1.0028282e-05
1.0031866e-05
1.0016873e-05
1.0016403e-05
1.0009746e-05
1.0007676e-05
1.0004825e-05
1.0003579e-05
1.0002553e-05
1.0002061e-05
1.0001707e-05
1.0001608e-05
1.0001564e-05
1.0001454e-05
1.0001337e-05
1.0001239e-05
1.0001178e-05
1.0001162e-05
1.0001197e-05
1.0001245e-05
1.0001321e-05
1.0001335e-05
1.0001247e-05
1.0001322e-05
1.0001221e-05
1.0001268e-05
1.0001356e-05
1.0001444e-05
1.0001518e-05
1.0001675e-05
1.0001951e-05
1.0002192e-05
1.0002102e-05
1.0002173e-05
1.0002126e-05
1.0001739e-05
1.0001118e-05
1.0000726e-05
0.0012615968
0.00299654
0.0037570022
0.003715246
0.0026845072
0.00064471997
2.5669737e-05
1.0252102e-05
1.0109456e-05
1.0114232e-05
1.0053965e-05
1.0059163e-05
1.0028061e-05
1.0031369e-05
1.0016796e-05
1.0016119e-05
1.0009663e-05
1.0007552e-05
1.0004768e-05
1.0003526e-05
1.0002529e-05
1.0002049e-05
1.0001706e-05
1.000161e-05
1.0001564e-05
1.0001454e-05
1.0001337e-05
1.0001241e-05
1.0001179e-05
1.0001163e-05
1.0001196e-05
1.0001242e-05
1.0001318e-05
1.0001336e-05
1.0001247e-05
1.0001323e-05
1.0001223e-05
1.0001269e-05
1.0001355e-05
1.0001441e-05
1.0001516e-05
1.0001666e-05
1.0001931e-05
1.0002193e-05
1.0002078e-05
1.0002139e-05
1.0002088e-05
1.0001707e-05
1.0001097e-05
1.0000683e-05
0.0012608031
0.0029736274
0.0036949972
0.0036013625
0.002475016
0.00052121675
1.9804834e-05
1.0239927e-05
1.010809e-05
1.0111934e-05
1.0053215e-05
1.0058071e-05
1.0027841e-05
1.0030862e-05
1.0016724e-05
1.0015835e-05
1.000958e-05
1.0007429e-05
1.0004711e-05
1.0003473e-05
1.0002506e-05
1.0002038e-05
1.0001706e-05
1.0001611e-05
1.0001563e-05
1.0001454e-05
1.0001337e-05
1.0001242e-05
1.000118e-05
1.0001163e-05
1.0001195e-05
1.000124e-05
1.0001315e-05
1.0001336e-05
1.0001247e-05
1.0001325e-05
1.0001226e-05
1.000127e-05
1.0001355e-05
1.000144e-05
1.0001515e-05
1.0001657e-05
1.0001906e-05
1.0002193e-05
1.0002057e-05
1.0002104e-05
1.0002051e-05
1.0001674e-05
1.0001075e-05
1.0000638e-05
0.0012599698
0.0029492087
0.0036301133
0.0034799044
0.0022575839
0.00041297119
1.5958589e-05
1.0231627e-05
1.0106732e-05
1.0109613e-05
1.005247e-05
1.0056963e-05
1.0027624e-05
1.0030346e-05
1.0016656e-05
1.0015554e-05
1.0009499e-05
1.0007306e-05
1.0004654e-05
1.0003422e-05
1.0002484e-05
1.0002027e-05
1.0001705e-05
1.0001613e-05
1.0001563e-05
1.0001453e-05
1.0001337e-05
1.0001242e-05
1.000118e-05
1.0001163e-05
1.0001194e-05
1.0001237e-05
1.0001312e-05
1.0001337e-05
1.0001247e-05
1.0001326e-05
1.0001228e-05
1.0001272e-05
1.0001357e-05
1.0001438e-05
1.0001514e-05
1.000165e-05
1.000188e-05
1.0002175e-05
1.0002038e-05
1.0002071e-05
1.0002012e-05
1.0001638e-05
1.0001048e-05
1.0000596e-05
0.0012589988
0.0029228941
0.0035622826
0.0033533324
0.0020356093
0.00032002434
1.3532626e-05
1.0225371e-05
1.0105378e-05
1.0107276e-05
1.0051729e-05
1.005584e-05
1.0027409e-05
1.0029822e-05
1.0016591e-05
1.0015275e-05
1.0009419e-05
1.0007185e-05
1.0004598e-05
1.0003371e-05
1.0002463e-05
1.0002017e-05
1.0001705e-05
1.0001614e-05
1.0001562e-05
1.0001452e-05
1.0001337e-05
1.0001242e-05
1.0001181e-05
1.0001163e-05
1.0001193e-05
1.0001235e-05
1.0001308e-05
1.0001337e-05
1.0001247e-05
1.0001327e-05
1.0001231e-05
1.0001275e-05
1.000136e-05
1.0001438e-05
1.0001514e-05
1.0001644e-05
1.0001856e-05
1.0002117e-05
1.0002015e-05
1.0002038e-05
1.0001967e-05
1.0001602e-05
1.0001018e-05
1.0000555e-05
0.0012577739
0.0028942837
0.0034888755
0.0032247533
0.001812455
0.00024229923
1.2066609e-05
1.0220114e-05
1.0104024e-05
1.0104932e-05
1.0050996e-05
1.0054709e-05
1.0027199e-05
1.0029295e-05
1.0016529e-05
1.0015002e-05
1.0009338e-05
1.0007065e-05
1.0004542e-05
1.0003322e-05
1.0002442e-05
1.0002007e-05
1.0001706e-05
1.0001615e-05
1.0001561e-05
1.0001451e-05
1.0001336e-05
1.0001242e-05
1.000118e-05
1.0001162e-05
1.0001192e-05
1.0001234e-05
1.0001305e-05
1.0001336e-05
1.0001248e-05
1.0001327e-05
1.0001233e-05
1.0001278e-05
1.0001364e-05
1.0001438e-05
1.0001515e-05
1.0001638e-05
1.0001835e-05
1.0002087e-05
1.0001992e-05
1.0002006e-05
1.0001911e-05
1.0001565e-05
1.000099e-05
1.0000518e-05
0.0012564824
0.0028647932
0.003408937
0.0030926634
0.0015910251
0.0001788738
1.121555e-05
1.0215177e-05
1.0102662e-05
1.0102578e-05
1.0050271e-05
1.005357e-05
1.0026993e-05
1.0028765e-05
1.0016469e-05
1.0014738e-05
1.0009257e-05
1.0006947e-05
1.0004487e-05
1.0003274e-05
1.0002421e-05
1.0001998e-05
1.0001706e-05
1.0001616e-05
1.000156e-05
1.0001449e-05
1.0001334e-05
1.0001241e-05
1.000118e-05
1.0001162e-05
1.0001191e-05
1.0001232e-05
1.0001302e-05
1.0001336e-05
1.0001248e-05
1.0001328e-05
1.0001235e-05
1.000128e-05
1.0001368e-05
1.0001439e-05
1.0001515e-05
1.0001634e-05
1.0001814e-05
1.0002038e-05
1.0001968e-05
1.0001972e-05
1.0001852e-05
1.0001527e-05
1.0000967e-05
1.0000488e-05
0.0012552192
0.0028354606
0.0033333849
0.0029543987
0.0013754061
0.00012881598
1.074233e-05
1.0210151e-05
1.0101284e-05
1.0100221e-05
1.0049554e-05
1.0052431e-05
1.0026792e-05
1.0028235e-05
1.001641e-05
1.0014491e-05
1.0009176e-05
1.0006831e-05
1.0004433e-05
1.0003227e-05
1.0002401e-05
1.0001988e-05
1.0001707e-05
1.0001617e-05
1.0001558e-05
1.0001448e-05
1.0001333e-05
1.000124e-05
1.000118e-05
1.0001162e-05
1.000119e-05
1.0001231e-05
1.0001299e-05
1.0001335e-05
1.0001249e-05
1.0001328e-05
1.0001238e-05
1.0001283e-05
1.0001372e-05
1.0001441e-05
1.0001514e-05
1.0001631e-05
1.0001795e-05
1.0001984e-05
1.0001943e-05
1.0001935e-05
1.0001807e-05
1.0001488e-05
1.0000944e-05
1.0000466e-05
0.0012537809
0.0028041532
0.0032527882
0.0028070224
0.0011692272
9.0441448e-05
1.0489478e-05
1.0205095e-05
1.0099872e-05
1.0097852e-05
1.0048848e-05
1.005129e-05
1.0026596e-05
1.0027707e-05
1.0016352e-05
1.0014245e-05
1.0009095e-05
1.0006717e-05
1.000438e-05
1.0003182e-05
1.0002382e-05
1.000198e-05
1.0001707e-05
1.0001617e-05
1.0001557e-05
1.0001446e-05
1.0001331e-05
1.0001239e-05
1.0001179e-05
1.0001161e-05
1.0001189e-05
1.0001229e-05
1.0001296e-05
1.0001334e-05
1.000125e-05
1.0001327e-05
1.0001239e-05
1.0001284e-05
1.0001374e-05
1.0001443e-05
1.0001514e-05
1.0001627e-05
1.000178e-05
1.0001974e-05
1.0001918e-05
1.0001896e-05
1.0001769e-05
1.0001448e-05
1.0000905e-05
1.0000453e-05
0.0012522429
0.0027716609
0.0031689329
0.0026502578
0.00097786176
6.2394449e-05
1.0359082e-05
1.0200854e-05
1.009841e-05
1.0095419e-05
1.0048151e-05
1.0050155e-05
1.0026406e-05
1.0027184e-05
1.0016295e-05
1.0014004e-05
1.0009013e-05
1.0006607e-05
1.0004327e-05
1.0003139e-05
1.0002364e-05
1.0001971e-05
1.0001708e-05
1.0001618e-05
1.0001555e-05
1.0001444e-05
1.0001329e-05
1.0001237e-05
1.0001178e-05
1.000116e-05
1.0001188e-05
1.0001228e-05
1.0001293e-05
1.0001333e-05
1.000125e-05
1.0001326e-05
1.0001241e-05
1.0001286e-05
1.0001375e-05
1.0001445e-05
1.0001512e-05
1.0001624e-05
1.0001765e-05
1.0001948e-05
1.0001893e-05
1.0001863e-05
1.000173e-05
1.0001405e-05
1.0000869e-05
1.000045e-05
0.0012506209
0.002738468
0.0030819952
0.0024889166
0.00080426289
4.2820805e-05
1.0292294e-05
1.0196452e-05
1.0096824e-05
1.0092965e-05
1.0047464e-05
1.0049029e-05
1.0026223e-05
1.0026668e-05
1.0016237e-05
1.0013768e-05
1.0008931e-05
1.0006499e-05
1.0004275e-05
1.0003097e-05
1.0002346e-05
1.0001963e-05
1.0001709e-05
1.0001619e-05
1.0001554e-05
1.0001442e-05
1.0001326e-05
1.0001235e-05
1.0001177e-05
1.000116e-05
1.0001187e-05
1.0001228e-05
1.000129e-05
1.0001331e-05
1.000125e-05
1.0001325e-05
1.0001242e-05
1.0001286e-05
1.0001375e-05
1.0001447e-05
1.000151e-05
1.000162e-05
1.0001751e-05
1.0001932e-05
1.000187e-05
1.0001839e-05
1.0001689e-05
1.000136e-05
1.0000832e-05
1.0000439e-05
0.0012491314
0.0027053587
0.0029933031
0.0023168775
0.00064922041
2.989896e-05
1.0257427e-05
1.0192048e-05
1.0095143e-05
1.0090527e-05
1.0046786e-05
1.0047915e-05
1.0026047e-05
1.002616e-05
1.0016179e-05
1.0013538e-05
1.0008849e-05
1.0006394e-05
1.0004225e-05
1.0003057e-05
1.0002329e-05
1.0001955e-05
1.000171e-05
1.0001619e-05
1.0001552e-05
1.0001439e-05
1.0001323e-05
1.0001233e-05
1.0001176e-05
1.0001159e-05
1.0001187e-05
1.0001227e-05
1.0001287e-05
1.000133e-05
1.000125e-05
1.0001324e-05
1.0001244e-05
1.0001287e-05
1.0001374e-05
1.0001447e-05
1.0001508e-05
1.0001615e-05
1.0001737e-05
1.0001905e-05
1.0001847e-05
1.0001815e-05
1.0001647e-05
1.0001313e-05
1.000079e-05
1.0000408e-05
0.0012478384
0.002672317
0.0029114074
0.0021348389
0.00051859189
2.2098819e-05
1.0237968e-05
1.0187582e-05
1.0093396e-05
1.0088114e-05
1.0046111e-05
1.0046818e-05
1.0025879e-05
1.0025661e-05
1.0016118e-05
1.0013315e-05
1.0008766e-05
1.0006292e-05
1.0004175e-05
1.0003018e-05
1.0002311e-05
1.0001948e-05
1.0001711e-05
1.000162e-05
1.000155e-05
1.0001436e-05
1.000132e-05
1.000123e-05
1.0001175e-05
1.0001158e-05
1.0001186e-05
1.0001227e-05
1.0001284e-05
1.0001327e-05
1.0001249e-05
1.0001322e-05
1.0001244e-05
1.0001287e-05
1.0001373e-05
1.0001448e-05
1.0001507e-05
1.0001609e-05
1.0001723e-05
1.0001881e-05
1.0001824e-05
1.0001789e-05
1.0001606e-05
1.0001264e-05
1.0000743e-05
1.0000361e-05
0.0012465105
0.0026372194
0.0028235571
0.0019420907
0.00040600409
1.7264247e-05
1.0225634e-05
1.018306e-05
1.0091593e-05
1.0085735e-05
1.0045436e-05
1.0045737e-05
1.0025714e-05
1.0025165e-05
1.0016055e-05
1.0013098e-05
1.0008684e-05
1.0006195e-05
1.0004126e-05
1.0002981e-05
1.0002295e-05
1.000194e-05
1.0001712e-05
1.0001621e-05
1.0001548e-05
1.0001433e-05
1.0001317e-05
1.0001228e-05
1.0001174e-05
1.0001158e-05
1.0001185e-05
1.0001227e-05
1.000128e-05
1.0001324e-05
1.0001248e-05
1.000132e-05
1.0001245e-05
1.0001287e-05
1.0001372e-05
1.0001447e-05
1.0001506e-05
1.0001604e-05
1.000171e-05
1.0001856e-05
1.0001801e-05
1.0001761e-05
1.0001567e-05
1.0001217e-05
1.0000698e-05
1.000031e-05
0.0012452879
0.0026007932
0.0027341159
0.0017420575
0.0003108564
1.4284262e-05
1.0216913e-05
1.0178483e-05
1.0089746e-05
1.0083387e-05
1.0044762e-05
1.0044675e-05
1.0025558e-05
1.0024645e-05
1.0015991e-05
1.0012889e-05
1.0008602e-05
1.0006101e-05
1.0004079e-05
1.0002946e-05
1.0002278e-05
1.0001933e-05
1.0001713e-05
1.0001622e-05
1.0001546e-05
1.0001429e-05
1.0001313e-05
1.0001226e-05
1.0001174e-05
1.0001158e-05
1.0001183e-05
1.0001226e-05
1.0001277e-05
1.0001321e-05
1.0001247e-05
1.0001318e-05
1.0001245e-05
1.0001287e-05
1.0001371e-05
1.0001446e-05
1.0001506e-05
1.0001599e-05
1.0001698e-05
1.0001829e-05
1.0001778e-05
1.0001725e-05
1.0001529e-05
1.0001175e-05
1.0000658e-05
1.0000263e-05
0.0012442163
0.002562567
0.002641381
0.0015383603
0.00023256411
1.2523282e-05
1.0210103e-05
1.0173857e-05
1.0087862e-05
1.0081069e-05
1.0044092e-05
1.0043633e-05
1.0025412e-05
1.0024148e-05
1.0015925e-05
1.0012687e-05
1.000852e-05
1.0006011e-05
1.0004033e-05
1.0002911e-05
1.0002262e-05
1.0001925e-05
1.0001713e-05
1.0001622e-05
1.0001543e-05
1.0001426e-05
1.0001311e-05
1.0001225e-05
1.0001174e-05
1.0001157e-05
1.0001182e-05
1.0001226e-05
1.0001273e-05
1.0001317e-05
1.0001245e-05
1.0001315e-05
1.0001246e-05
1.0001287e-05
1.000137e-05
1.0001445e-05
1.0001507e-05
1.0001595e-05
1.0001687e-05
1.0001794e-05
1.0001752e-05
1.0001684e-05
1.0001492e-05
1.0001137e-05
1.0000622e-05
1.000022e-05
0.0012431273
0.0025211875
0.0025450237
0.0013398383
0.00017008498
1.1523377e-05
1.0204304e-05
1.016919e-05
1.0085947e-05
1.0078781e-05
1.0043422e-05
1.0042614e-05
1.0025277e-05
1.0023672e-05
1.0015855e-05
1.0012494e-05
1.0008439e-05
1.0005925e-05
1.0003988e-05
1.0002878e-05
1.0002245e-05
1.0001918e-05
1.0001714e-05
1.0001623e-05
1.000154e-05
1.0001422e-05
1.000131e-05
1.0001225e-05
1.0001173e-05
1.0001156e-05
1.000118e-05
1.0001225e-05
1.000127e-05
1.0001313e-05
1.0001243e-05
1.0001312e-05
1.0001247e-05
1.0001287e-05
1.0001369e-05
1.0001442e-05
1.0001506e-05
1.0001593e-05
1.0001676e-05
1.0001755e-05
1.0001724e-05
1.0001649e-05
1.0001458e-05
1.0001103e-05
1.0000593e-05
1.0000182e-05
0.0012415974
0.00247347
0.0024431646
0.0011539599
0.00012163195
1.0974889e-05
1.0199034e-05
1.0164486e-05
1.0084007e-05
1.0076525e-05
1.0042753e-05
1.00416e-05
1.0025153e-05
1.002322e-05
1.0015782e-05
1.0012309e-05
1.0008359e-05
1.0005843e-05
1.0003943e-05
1.0002846e-05
1.0002229e-05
1.0001911e-05
1.0001715e-05
1.0001623e-05
1.0001537e-05
1.000142e-05
1.0001309e-05
1.0001224e-05
1.0001172e-05
1.0001155e-05
1.0001179e-05
1.0001225e-05
1.0001267e-05
1.0001308e-05
1.000124e-05
1.0001308e-05
1.0001248e-05
1.0001287e-05
1.0001369e-05
1.000144e-05
1.0001505e-05
1.000159e-05
1.0001665e-05
1.0001719e-05
1.0001695e-05
1.0001615e-05
1.0001424e-05
1.0001073e-05
1.000057e-05
1.000015e-05
0.0012394998
0.0024201116
0.0023337551
0.00097989097
8.5147433e-05
1.0682876e-05
1.0194042e-05
1.015975e-05
1.0082043e-05
1.0074301e-05
1.0042093e-05
1.0040586e-05
1.002504e-05
1.0022798e-05
1.0015705e-05
1.0012133e-05
1.0008279e-05
1.0005765e-05
1.00039e-05
1.0002815e-05
1.0002212e-05
1.0001903e-05
1.0001717e-05
1.0001623e-05
1.0001534e-05
1.0001419e-05
1.0001309e-05
1.0001222e-05
1.0001169e-05
1.0001153e-05
1.0001177e-05
1.0001225e-05
1.0001263e-05
1.0001303e-05
1.0001237e-05
1.0001304e-05
1.0001248e-05
1.0001288e-05
1.0001369e-05
1.0001437e-05
1.0001503e-05
1.0001587e-05
1.0001652e-05
1.0001691e-05
1.0001665e-05
1.0001578e-05
1.0001388e-05
1.0001045e-05
1.0000551e-05
1.0000131e-05
0.0012366063
0.0023599852
0.0022094519
0.0008190588
5.8715021e-05
1.0530772e-05
1.0189213e-05
1.015499e-05
1.0080063e-05
1.0072113e-05
1.0041446e-05
1.0039607e-05
1.0024941e-05
1.0022421e-05
1.0015626e-05
1.0011966e-05
1.0008202e-05
1.0005691e-05
1.0003858e-05
1.0002784e-05
1.0002195e-05
1.0001896e-05
1.0001719e-05
1.0001622e-05
1.0001533e-05
1.000142e-05
1.0001309e-05
1.0001219e-05
1.0001167e-05
1.0001151e-05
1.0001175e-05
1.0001224e-05
1.000126e-05
1.0001297e-05
1.0001233e-05
1.00013e-05
1.0001248e-05
1.0001289e-05
1.0001369e-05
1.0001435e-05
1.00015e-05
1.0001583e-05
1.0001637e-05
1.0001666e-05
1.0001639e-05
1.0001541e-05
1.0001354e-05
1.0001026e-05
1.0000538e-05
1.0000122e-05
0.0012330433
0.00229403
0.0020668683
0.00067418566
4.0440568e-05
1.0451366e-05
1.01845e-05
1.0150215e-05
1.0078077e-05
1.0069961e-05
1.0040816e-05
1.0038663e-05
1.0024854e-05
1.0022058e-05
1.0015543e-05
1.0011808e-05
1.0008125e-05
1.000562e-05
1.0003816e-05
1.0002753e-05
1.0002178e-05
1.0001889e-05
1.0001722e-05
1.0001623e-05
1.0001533e-05
1.0001421e-05
1.0001306e-05
1.0001215e-05
1.0001164e-05
1.0001149e-05
1.0001174e-05
1.0001223e-05
1.0001257e-05
1.0001292e-05
1.0001229e-05
1.0001296e-05
1.0001248e-05
1.000129e-05
1.000137e-05
1.0001433e-05
1.0001497e-05
1.0001576e-05
1.000162e-05
1.0001641e-05
1.0001613e-05
1.0001508e-05
1.0001323e-05
1.0001007e-05
1.0000533e-05
1.0000116e-05
0.0012291139
0.002224199
0.001908696
0.00054733727
2.8505305e-05
1.0408282e-05
1.0179857e-05
1.0145429e-05
1.0076088e-05
1.0067853e-05
1.0040203e-05
1.0037756e-05
1.0024783e-05
1.0021716e-05
1.0015458e-05
1.001166e-05
1.000805e-05
1.0005552e-05
1.0003775e-05
1.0002723e-05
1.0002161e-05
1.0001882e-05
1.0001726e-05
1.0001624e-05
1.0001536e-05
1.0001421e-05
1.0001303e-05
1.0001211e-05
1.0001161e-05
1.0001147e-05
1.0001172e-05
1.0001222e-05
1.0001254e-05
1.0001286e-05
1.0001224e-05
1.0001292e-05
1.0001248e-05
1.0001291e-05
1.000137e-05
1.0001431e-05
1.0001493e-05
1.0001567e-05
1.0001603e-05
1.0001615e-05
1.0001581e-05
1.0001482e-05
1.0001293e-05
1.0000983e-05
1.0000531e-05
1.0000113e-05
0.0012249782
0.0021512092
0.0017401443
0.00043803806
2.1242774e-05
1.0382682e-05
1.0175231e-05
1.0140641e-05
1.00741e-05
1.0065803e-05
1.0039611e-05
1.0036888e-05
1.0024727e-05
1.0021395e-05
1.0015371e-05
1.001152e-05
1.0007977e-05
1.0005488e-05
1.0003734e-05
1.0002694e-05
1.0002143e-05
1.0001875e-05
1.0001729e-05
1.0001628e-05
1.0001539e-05
1.000142e-05
1.0001298e-05
1.0001207e-05
1.0001158e-05
1.0001144e-05
1.000117e-05
1.0001221e-05
1.0001251e-05
1.0001279e-05
1.0001219e-05
1.0001287e-05
1.0001247e-05
1.0001292e-05
1.0001369e-05
1.000143e-05
1.0001489e-05
1.0001557e-05
1.0001586e-05
1.0001589e-05
1.0001549e-05
1.0001455e-05
1.0001261e-05
1.0000966e-05
1.0000531e-05
1.0000112e-05
0.0012206187
0.0020727978
0.001578179
0.0003456335
1.6858651e-05
1.0365128e-05
1.0170579e-05
1.0135857e-05
1.007212e-05
1.0063832e-05
1.0039041e-05
1.0036063e-05
1.0024688e-05
1.0021094e-05
1.0015283e-05
1.001139e-05
1.0007906e-05
1.0005426e-05
1.0003694e-05
1.0002664e-05
1.0002126e-05
1.0001869e-05
1.0001732e-05
1.0001634e-05
1.0001541e-05
1.0001416e-05
1.0001294e-05
1.0001204e-05
1.0001155e-05
1.0001142e-05
1.0001168e-05
1.000122e-05
1.0001248e-05
1.0001273e-05
1.0001214e-05
1.0001283e-05
1.0001247e-05
1.0001292e-05
1.0001367e-05
1.000143e-05
1.0001486e-05
1.0001546e-05
1.0001569e-05
1.0001566e-05
1.0001521e-05
1.0001429e-05
1.0001229e-05
1.0000942e-05
1.0000533e-05
1.0000115e-05
0.0012164723
0.0019860863
0.0014114819
0.00026629693
1.4119535e-05
1.0351278e-05
1.0165872e-05
1.0131084e-05
1.0070157e-05
1.0061901e-05
1.0038497e-05
1.0035286e-05
1.0024668e-05
1.0020815e-05
1.0015194e-05
1.0011268e-05
1.0007837e-05
1.0005367e-05
1.0003654e-05
1.0002635e-05
1.0002109e-05
1.0001863e-05
1.0001733e-05
1.0001638e-05
1.0001542e-05
1.0001411e-05
1.0001289e-05
1.0001199e-05
1.0001152e-05
1.0001139e-05
1.0001167e-05
1.0001218e-05
1.0001245e-05
1.0001266e-05
1.0001207e-05
1.0001278e-05
1.0001246e-05
1.0001292e-05
1.0001364e-05
1.000143e-05
1.0001484e-05
1.0001534e-05
1.0001554e-05
1.0001546e-05
1.0001498e-05
1.00014e-05
1.0001203e-05
1.0000922e-05
1.0000528e-05
1.0000121e-05
0.0012146187
0.0019086411
0.0012458722
0.00020055401
1.2487053e-05
1.0338977e-05
1.0161089e-05
1.0126331e-05
1.0068216e-05
1.0060025e-05
1.0037983e-05
1.0034578e-05
1.0024664e-05
1.0020557e-05
1.0015105e-05
1.0011155e-05
1.0007769e-05
1.000531e-05
1.0003614e-05
1.0002606e-05
1.0002092e-05
1.0001856e-05
1.0001732e-05
1.0001644e-05
1.0001539e-05
1.0001405e-05
1.0001284e-05
1.0001195e-05
1.0001149e-05
1.0001136e-05
1.0001165e-05
1.0001216e-05
1.0001242e-05
1.0001259e-05
1.0001201e-05
1.0001272e-05
1.0001246e-05
1.0001291e-05
1.000136e-05
1.0001429e-05
1.0001481e-05
1.0001522e-05
1.0001538e-05
1.0001527e-05
1.0001479e-05
1.000137e-05
1.0001181e-05
1.0000901e-05
1.0000522e-05
1.0000127e-05
0.0012136333
0.0018248003
0.0010827863
0.00014745567
1.1543371e-05
1.0326898e-05
1.0156216e-05
1.0121605e-05
1.0066303e-05
1.0058207e-05
1.0037499e-05
1.0033917e-05
1.0024667e-05
1.0020321e-05
1.0015016e-05
1.0011049e-05
1.0007703e-05
1.0005255e-05
1.0003575e-05
1.0002579e-05
1.0002076e-05
1.0001847e-05