/*--------------------------------*- C++ -*----------------------------------*\
  =========                 |
  \\      /  F ield         | OpenFOAM: The Open Source CFD Toolbox
   \\    /   O peration     | Website:  https://openfoam.org
    \\  /    A nd           | Version:  8
     \\/     M anipulation  |
\*---------------------------------------------------------------------------*/
FoamFile
{
    version     2.0;
    format      ascii;
    class       volScalarField;
    location    "0.290003";
    object      p;
}
// * * * * * * * * * * * * * * * * * * * * * * * * * * * * * * * * * * * * * //

dimensions      [1 -1 -2 0 0 0 0];

internalField   nonuniform List<scalar> 
20000
(
57329.056
57344.949
57363.456
57388.947
57423.572
57469.379
57532.6
57607.937
57702.653
57814.962
57948.915
58114.684
58304.956
58547.263
58820.652
59171.721
59568.779
60074.339
60654.12
61380.127
62226.871
63268.388
64495.635
65975.091
67710.07
69744.562
72070.55
74680.096
77521.557
80531.53
83597.488
86541.367
89169.601
91393.558
93197.34
94629.604
95751.87
96626.764
97303.67
97832.062
98247.572
98581.892
98856.021
99099.235
99323.738
99510.924
99673.466
99850.079
99944.369
100268.6
57511.622
57528.53
57547.354
57573.776
57609.692
57657.439
57723.968
57803.582
57902.641
58019.806
58158.82
58331.323
58528.23
58780.074
59062.871
59427.313
59838.025
60361.851
60961.575
61712.851
62588.72
63664.83
64931.495
66454.058
68234.217
70310.335
72666.355
75280.15
78086.093
81010.72
83951.998
86767.66
89299.953
91463.008
93232.148
94645.854
95757.807
96627.476
97303.319
97831.654
98247.395
98582.316
98858.515
99103.921
99328.519
99514.847
99683.067
99856.709
99987.261
100266.89
57706.512
57724.534
57743.637
57771.118
57808.497
57858.186
57927.237
58009.377
58111.682
58232.927
58376.487
58555.401
58758.949
59020.317
59312.662
59690.397
60114.868
60657.081
61277.207
62054.473
62960.304
64072.129
65379.316
66946.672
68773.876
70894.128
73282.929
75905.001
78681.869
81531.716
84359.819
87051.824
89481.258
91571.556
93295.318
94681.696
95777.148
96637.293
97307.956
97833.968
98249.4
98584.835
98862.55
99109.612
99333.821
99519.533
99692.503
99865.083
100035.96
100265.77
57907.811
57927.344
57946.718
57975.144
58013.986
58065.727
58137.508
58222.591
58328.683
58454.687
58603.371
58789.212
58999.626
59270.728
59572.619
59963.819
60402.296
60963.472
61604.815
62409.054
63345.9
64494.52
65843.435
67456.992
69332.764
71498.694
73921.631
76553.912
79305.849
82089.113
84814.568
87389.154
89713.076
91722.283
93390.276
94740.634
95813.081
96658.986
97321.187
97842.562
98256.086
98590.898
98869.39
99117.421
99340.608
99525.525
99701.431
99876.191
100074.89
100265.31
58117.824
58138.954
58159.217
58188.808
58229.338
58283.439
58358.229
58446.445
58556.295
58686.996
58840.675
59033.364
59250.541
59531.475
59843.119
60248.296
60701.556
61282.767
61946.639
62779.234
63748.634
64935.671
66328.231
67990.057
69916.463
72129.638
74587.367
77229.93
79957.758
82677.727
85306.021
87767.092
89984.029
91906.767
93512.236
94819.94
95864.004
96691.57
97342.298
97856.879
98266.971
98600.058
98878.504
99126.735
99348.325
99532.283
99710.859
99891.603
100109.07
100265.17
58338.709
58359.853
58381.29
58412.164
58454.406
58510.888
58588.726
58680.113
58793.62
58928.927
59087.569
59287.252
59511.359
59802.535
60124.446
60544.421
61013.472
61615.929
62303.684
63166.002
64169.511
65396.679
66834.942
68547.176
70526.199
72787.786
75280.174
77931.927
80634.993
83293.184
85828.192
88179.235
90289.052
92121.758
93659.161
94918.57
95929.447
96734.908
97371.404
97877.15
98282.228
98612.477
98890.052
99137.717
99357.115
99539.728
99720.662
99913.506
100135.54
100266.49
58567.558
58589.162
58611.653
58643.803
58687.791
58746.681
58827.589
58922.119
59039.426
59179.525
59343.327
59550.362
59781.773
60083.83
60416.769
60852.563
61338.543
61963.487
62676.468
63569.903
64609.236
65878.523
67364.86
69129.909
71163.625
73474.56
76000.834
78659.61
81335.726
83931.632
86375.139
88618.545
90621.64
92362.218
93827.727
95034.456
96008.156
96788.248
97408.008
97903.048
98301.634
98628.011
98903.9
99150.235
99366.837
99547.651
99731.173
99941.728
100156.1
100269.6
58803.495
58825.731
58849.287
58882.717
58928.51
58989.902
59074.032
59171.818
59293.221
59438.487
59607.803
59822.704
60061.967
60375.717
60720.56
61173.204
61677.179
62325.742
63065.23
63991.188
65068.186
66381.756
67918.671
69738.983
71829.308
74190.076
76748.72
79411.429
82057.378
84589.338
86941.982
89079.538
90976.72
92624.125
94015.054
95165.724
96098.968
96850.894
97451.702
97934.337
98325.063
98646.597
98920.016
99164.27
99377.419
99556.007
99742.888
99972.629
100173.55
100273.83
59045.421
59068.508
59093.312
59128.252
59176.203
59240.505
59328.329
59429.67
59555.39
59706.092
59881.25
60104.614
60352.393
60678.695
61036.26
61506.656
62029.586
62702.822
63470.097
64430.09
65546.821
66907.059
68497.238
70375.306
72524.013
74934.608
77523.344
80185.994
82797.608
85262.928
87524.32
89557.19
91349.446
92903.433
94218.16
95310.334
96200.549
96921.998
97501.946
97970.664
98352.307
98668.102
98938.31
99179.737
99388.707
99564.863
99756.938
100003.76
100189.49
100278.92
59295.07
59319.087
59345.216
59381.752
59432.036
59499.35
59590.929
59695.89
59826.087
59982.573
60164.07
60396.659
60653.637
60993.204
61364.115
61853.022
62395.813
63094.769
63891.21
64886.941
66045.697
67455.159
69101.343
71039.607
73248.14
75707.925
78323.63
80981.389
83553.752
85949.048
88118.154
90047.104
91735.555
93196.493
94434.234
95466.287
96311.55
97000.676
97558.176
98011.658
98383.137
98692.386
98958.703
99196.557
99400.534
99574.397
99774.969
100033.21
100204.4
100284.61
59552.925
59577.799
59605.127
59643.157
59695.74
59765.788
59860.806
59969.913
60105.468
60268.639
60457.106
60699.48
60966
61319.272
61704.047
62212.238
62775.846
63501.645
64328.788
65362.202
66565.512
68026.9
69731.902
71732.737
74002.191
76509.836
79148.521
81795.747
84323.273
86644.612
88719.909
90545.388
92131.222
93499.948
94660.619
95631.631
96430.604
97086.008
97619.78
98056.913
98417.293
98719.284
98981.094
99214.619
99412.717
99584.809
99798.544
100059.68
100218.33
100290.61
59818.352
59844.357
59873.182
59913.101
59968.387
60041.314
60140.364
60253.955
60395.235
60565.382
60760.772
61012.948
61289.117
61656.58
62055.9
62584.256
63169.714
63923.596
64783.238
65856.541
67107.115
68623.202
70389.826
72455.443
74786.408
77339.756
79996.513
82626.809
85103.407
87346.516
89326.213
91048.505
92532.997
93810.733
94894.827
95804.485
96556.357
97177.056
97686.126
98105.996
98454.49
98748.62
99005.371
99233.793
99425.111
99596.288
99827.724
100083.13
100231.3
100296.75
60095.501
60122.633
60152.667
60194.244
60252.111
60327.933
60431.75
60548.977
60695.016
60871.702
61073.903
61336.191
61622.527
62004.99
62419.688
62969.123
63577.539
64360.943
65255.149
66370.773
67671.444
69245.066
71076.144
73208.569
75601.079
78197.081
80866.078
83472.333
85891.493
88051.874
89934.031
91553.334
92937.836
94126.112
95134.591
95983.087
96687.509
97272.894
97756.569
98158.464
98494.429
98780.203
99031.397
99253.906
99437.661
99609.118
99860.19
100105.31
100243.58
100302.92
60377.464
60405.927
60437.252
60480.641
60541.502
60620.703
60729.473
60850.972
61002.193
61186.073
61395.826
61669.126
61966.392
62364.671
62795.494
63366.905
63999.559
64814.194
65745.331
66905.858
68259.52
69893.536
71791.868
73992.803
76446.174
79080.776
81755.251
84329.743
86684.683
88757.78
90540.468
92057.003
93342.986
94443.604
95377.823
96165.782
96822.804
97372.611
97830.463
98213.859
98536.8
98813.839
99059.01
99274.75
99450.455
99623.956
99894.65
100126.96
100255.38
100309.09
60664.753
60694.808
60727.731
60773.257
60837.54
60919.907
61033.988
61160.752
61317.838
61509.503
61727.33
62012.283
62320.985
62735.684
63183.321
63777.758
64436.219
65284.124
66254.727
67462.801
68872.378
70569.757
72538.096
74808.929
77321.619
79989.753
82662.026
85196.493
87480.243
89461.536
91142.915
92556.982
93746.039
94761.031
95622.663
96351.058
96961.073
97475.339
97907.177
98271.727
98581.294
98849.328
99088.02
99296.088
99463.759
99642.095
99930.13
100148.18
100266.64
100315.14
60961.299
60992.847
61027.232
61074.732
61142.554
61228.468
61347.065
61479.38
61642.733
61842.536
62068.657
62365.655
62686.169
63117.898
63583.244
64202.07
64888.3
65771.705
66784.38
68042.65
69511.134
71274.905
73315.911
75657.463
78226.951
80922.419
83583.957
86069.726
88275.294
90160.441
91738.881
93050.939
94144.825
95076.439
95867.429
96537.527
97101.218
97580.243
97986.093
98331.618
98627.601
98886.469
99118.209
99317.675
99478.042
99665.507
99965.563
100168.66
100277.16
100320.89
61264.478
61297.783
61333.89
61383.723
61455.615
61545.277
61668.63
61806.581
61976.598
62184.95
62419.511
62728.904
63061.691
63511.346
63995.665
64640.634
65356.79
66277.943
67335.277
68646.43
70176.965
72010.277
74126.485
76538.931
79161.628
81877.081
84518.56
86946.639
89067.103
90852.011
92326.139
93536.839
94537.472
95388.146
96110.652
96723.951
97242.238
97686.549
98066.626
98393.097
98675.423
98925.051
99149.33
99339.294
99493.983
99696.523
99999.547
100187.97
100286.58
100325.6
61577.614
61612.574
61650.312
61702.302
61778.173
61871.566
61999.931
62142.684
62318.93
62536.066
62779.386
63101.787
63447.672
63916.534
64421.455
65094.483
65842.745
66803.821
67908.406
69275.262
70871.164
72777.229
74970.846
77453.489
80124.574
82851.524
85462.935
87824.189
89852.842
91533.781
92902.573
94012.818
94922.308
95694.669
96351.03
96909.214
97383.216
97793.535
98148.22
98455.748
98724.468
98964.845
99181.122
99360.842
99512.438
99736.581
100030.88
100205.67
100294.45
100328.14
61895.752
61932.504
61972.049
62026.276
62106.724
62204.43
62337.791
62486.243
62668.943
62895.484
63148.285
63484.704
63844.824
64334.46
64861.731
65564.697
66347.099
67350.196
68504.733
69930.358
71595.155
73577.252
75850.051
78401.233
81114.565
83843.45
86414.197
88699.448
90629.863
92203.51
93466.314
94477.279
95297.921
95994.761
96587.455
97092.341
97523.337
97900.543
98230.358
98519.181
98774.455
99005.591
99213.3
99382.508
99534.494
99783.324
100060.78
100221.13
100300.28
100329.53
62219.331
62258.114
62299.725
62356.624
62441.74
62544.044
62682.427
62837.88
63027.522
63264.015
63527.019
63878.635
64254.301
64766.314
65317.576
66052.129
66870.613
67917.918
69125.382
70613.112
72350.51
74411.788
76764.899
79381.729
82129.78
84850.005
87369.093
89569.293
91395.466
92859.002
94015.605
94928.785
95663.078
96287.354
96818.968
97272.469
97661.865
98006.973
98312.564
98583.036
98825.119
99046.984
99245.521
99404.841
99561.752
99834.702
100089.76
100233.99
100304.3
100329.97
62550.189
62591.003
62634.62
62694.29
62784.244
62891.187
63034.879
63197.823
63395.101
63642.476
63916.688
64284.831
64677.299
65213.097
65789.744
66557.397
67413.965
68507.916
69771.633
71325.096
73138.937
75282.369
77716.126
80394.396
83168.233
85868.248
88324.413
90430.729
92147.142
93498.294
94548.936
95366.143
96016.782
96571.583
97044.776
97448.865
97798.156
98112.295
98394.407
98646.985
98876.203
99088.682
99277.362
99428.467
99596.576
99888.603
100117.96
100244.91
100306.08
100330.02
62886.722
62929.938
62975.984
63039.068
63134.24
63246.118
63395.662
63567.047
63772.781
64032.269
64318.653
64704.461
65114.651
65675.353
66278.655
67080.961
67977.926
69121.38
70445.025
72068.071
73962.189
76190.366
78704.017
81438.012
84227.276
86894.744
89276.624
91280.606
92882.368
94119.524
95064.949
95788.313
96358.209
96846.73
97264.214
97620.902
97931.643
98216.036
98475.5
98710.736
98927.462
99130.321
99308.444
99454.112
99641.58
99942.515
100145.39
100254.93
100306.8
100328.55
63234.614
63280.023
63328.116
63394.187
63494.272
63610.999
63767.07
63947.88
64162.113
64434.496
64733.692
65137.972
65566.585
66153.259
66784.618
67623.449
68563.55
69759.75
71147.305
72843.917
74822.146
77137.11
79728.737
82511.091
85304.104
87926.018
90222.249
92115.912
93598.849
94721.122
95562.591
96194.471
96686.746
97112.242
97476.748
97788.076
98061.848
98317.787
98555.505
98774.028
98978.654
99171.541
99338.507
99482.53
99698.287
99993.703
100171.79
100264.53
100306.95
100324.85
63589.392
63637.604
63688.471
63758.449
63864.325
63987.468
64150.9
64341.552
64564.133
64849.641
65161.626
65585.166
66033.031
66647.002
67308.163
68185.783
69172.224
70424.764
71880.381
73654.625
75720.594
78123.63
80789.788
83611.429
86395.221
88958.075
91157.48
92933.517
94294.376
95301.716
96041.025
96583.938
97001.918
97367.679
97681.945
97949.981
98188.375
98417.191
98634.128
98836.629
99029.524
99212.015
99367.657
99514.335
99764.845
100040.04
100196.29
100272.89
100304.63
100318.2
63957.344
64008.318
64061.961
64135.993
64247.958
64377.706
64547.282
64746.681
64977.687
65276.863
65602.084
66045.897
66514.204
67157.093
67850.208
68769.305
69805.647
71118.324
72646.271
74502.272
76659.378
79150.823
81886.436
84736.532
87496.949
89986.852
92078.586
93730.566
94967.151
95860.293
96499.693
96956.25
97303.376
97612.74
97879.488
98106.295
98310.924
98513.945
98711.126
98898.332
99079.792
99251.444
99396.546
99550.851
99833.698
100081.94
100217.18
100278.82
100299.39
100307.47
64332.387
64386.112
64442.397
64520.593
64638.722
64774.907
64951.163
65160.243
65400.444
65715.895
66055.376
66520.701
67010.7
67684.421
68412.043
69375.655
70465.74
71842.465
73447.082
75388.978
77640.142
80219.067
83017.14
85883.098
88604.932
91007.849
92981.728
94504.501
95615.777
96396.057
96938.061
97311.115
97590.796
97847.255
98069.182
98256.726
98429.268
98607.795
98786.296
98958.953
99129.154
99289.538
99426.11
99594.322
99899.024
100118.04
100232.94
100281.66
100296.25
100290.44
64712.897
64769.901
64829.411
64912.491
65037.253
65180.383
65364.461
65584.6
65835.155
66167.134
66521.848
67010.263
67523.443
68230.257
68995.317
70006.734
71154.509
72599.259
74284.998
76316.938
78664.492
81328.485
84180.004
87047.5
89714.667
92016.673
93863.602
95253.634
96239.508
96908.43
97355.441
97648.46
97863.91
98071.231
98250.993
98400.989
98543.212
98698.547
98859.482
99018.324
99177.295
99326.028
99457.293
99647.371
99955.929
100147.38
100244.34
100282.89
100294.74
100266.62
65105.611
65165.828
65228.388
65316.227
65447.468
65597.493
65789.317
66021.054
66282.104
66631.569
67002.191
67515.381
68053.783
68796.274
69601.931
70664.501
71874.014
73390.872
75162.325
77288.334
79733.659
82478.43
85372.183
88225.234
90821.055
93008.851
94721.591
95977.119
96837.871
97396.706
97750.771
97968.273
98122.584
98284.832
98425.02
98538.833
98652.503
98786.076
98930.565
99076.293
99223.927
99360.781
99490.775
99711.067
100001.98
100169.69
100252.23
100283.41
100294.05
100238.31
65506.47
65570.22
65636.242
65729.483
65867.985
66025.778
66225.621
66469.611
66741.92
67110.213
67497.074
68037.368
68603.422
69384.401
70233.833
71350.913
72626.313
74219.566
76081.523
78305.4
80848.698
83667.845
86590.394
89411.514
91919.077
93980.656
95554.468
96674.782
97410.094
97859.877
98123.115
98270.428
98367.163
98488.339
98591.367
98670.201
98756.799
98870.335
98999.456
99132.706
99268.823
99394.006
99527.085
99778.883
100041.46
100186.58
100255.98
100283.53
100292.13
100209.45
65916.26
65983.836
66053.761
66152.959
66299.294
66465.39
66673.606
66930.704
67215.272
67604.041
68008.595
68578.204
69174.285
69996.482
70892.906
72067.881
73413.583
75087.818
77045.188
79370.172
82009.995
84894.632
87830.285
90600.753
93003.572
94929.235
96361.953
97345.476
97953.714
98296.325
98473.024
98554.427
98598.756
98681.973
98749.854
98795.409
98855.783
98951.317
99066.086
99187.388
99311.817
99426.419
99567.351
99845.603
100077.08
100200.93
100257.63
100280.22
100287.41
100183.55
66334.584
66406.299
66480.562
66586.076
66740.63
66915.731
67133.493
67405.384
67703.618
68114.534
68539.188
69139.904
69768.021
70634.149
71580.924
72817.434
74238.185
75998.362
78056.046
80484.622
83217.475
86156.171
89087.003
91787.348
94070.153
95853.321
97143.545
97985.086
98466.313
98705.198
98801.994
98819.755
98819.124
98865.744
98899.819
98915.089
98949.556
99028.987
99130.404
99240.131
99352.768
99459.141
99613.872
99906.941
100108.88
100213.84
100258.2
100274.39
100278.45
100161.08
66764.902
66841.023
66919.981
67031.839
67194.843
67380.05
67608.25
67896.329
68209.224
68643.723
69089.757
69723.735
70386.096
71298.92
72299.806
73601.816
75102.811
76954.178
79116.851
81650.163
84470.095
87448.582
90354.732
92965.373
95115.202
96752.467
97894.85
98590.08
98945.537
99086.867
99111.745
99066.992
99029.337
99039.342
99040.535
99029.471
99039.08
99103.204
99192.373
99290.701
99391.526
99493.292
99669.325
99959.389
100135.03
100223.54
100258.29
100269.4
100262.74
100141.64
67208.987
67289.749
67373.721
67492.074
67664.453
67860.674
68099.685
68404.78
68732.911
69192.086
69660.882
70331.019
71030.09
71992.522
73051.668
74423.593
76010.463
77958.489
80230.316
82867.849
85766.113
88767.348
91627.399
94129.574
96136.648
97625.351
98610.139
99156.764
99391.247
99446.342
99402.251
99299.159
99227.179
99202.988
99172.38
99137.046
99125.987
99173.744
99251.969
99338.883
99428.024
99529.53
99733.454
100002.04
100154.52
100228.37
100257.07
100265.41
100241.02
100124.46
67665.798
67751.689
67841.487
67967.341
68150.309
68358.085
68608.007
68930.838
69274.978
69760.174
70253.72
70963.193
71701.689
72716.851
73838.972
75285.77
76964.5
79014.634
81398.82
84137.777
87102.469
90106.66
92898.366
95275.297
97133.427
98465.849
99284.573
99683.038
99808.844
99784.673
99673.206
99518.113
99411.789
99357.021
99296.494
99236.906
99210.714
99240.529
99309.17
99384.548
99462.541
99568.149
99799.77
100038.81
100169.35
100230.51
100254.38
100260.83
100215.68
100109.33
68134.882
68226.391
68323.098
68457.278
68650.964
68871.18
69132.644
69474.628
69836.089
70349.909
70870.87
71621.188
72402.689
73474.188
74664.684
76191.764
77968.54
80125.992
82624.415
85459.325
88475.238
91460.203
94161.434
96399.366
98104.264
99266.087
99913.748
100171.89
100203.15
100100.28
99925.447
99723.841
99583.887
99501.816
99412.643
99330.322
99292.36
99304.018
99363.901
99427.7
99495.987
99610.081
99863.971
100071.62
100181.75
100231.25
100250.38
100255.32
100189.69
100096.26
68618.718
68716.026
68820.139
68962.73
69166.825
69400.539
69674.529
70037.679
70418.013
70963.354
71513.813
72307.187
73135.483
74267.342
75532.288
77145.41
79026.376
81295.77
83908.385
86830.528
89879.004
92820.753
95410.725
97499.571
99042.143
100020.07
100495.61
100631.88
100571.97
100393.6
100159.87
99916.408
99744.28
99637.772
99521.413
99418.123
99369.195
99365.34
99415.965
99468.441
99529.817
99657.69
99922.062
100100.43
100192.56
100231.38
100245.13
100248.6
100166.8
100084.94
69116.707
69220.068
69332.072
69483.262
69698.231
69947.292
70235.709
70622.58
71023.442
71602.21
72184.059
73023.155
73902.714
75099.833
76445.735
78150.785
80141.863
82526.966
85251.346
88248.437
91307.559
94181.229
96641.576
98574.176
99937.862
100722.81
101035.74
101064.93
100914.65
100665.38
100377.39
100096.05
99893.772
99765.335
99623.587
99501.106
99439.845
99425.383
99465.033
99506.887
99565.3
99713.61
99970.67
100123.41
100199.56
100229.86
100239.18
100238.74
100147.06
100075.17
69628.96
69739.19
69860.695
70022.834
70250.365
70515.948
70819.365
71231.398
71653.747
72267.668
72883.15
73771.658
74707.985
75975.767
77409.249
79212.083
81318.78
83822.007
86652.627
89708.44
92753.394
95534.509
97850.157
99617.094
100783.11
101371.56
101543.65
101468.49
101231.74
100916.55
100578.86
100263.07
100033.19
99884.943
99719.457
99578.915
99505.588
99483.884
99510.806
99543.12
99602.658
99775.726
100009.89
100140.52
100202.91
100227.03
100234.04
100223.48
100130.04
100066.85
70158.011
70276.331
70409.04
70584.298
70825.264
71107.916
71425.703
71864.073
72308.904
72960.865
73613.686
74556.554
75555.819
76899.504
78427.064
80333.503
82560.826
85182.715
88110.507
91204.761
94208.758
96874.419
99033.885
100618.18
101571.9
101972.15
102021.03
101842
101524.24
101148.13
100765.11
100417.82
100163.44
99997.005
99809.104
99651.529
99567.382
99540.319
99553.411
99577.335
99641.818
99838.291
100043.21
100153.49
100204.32
100223.71
100229.09
100204.05
100115.23
100059.79
70713.359
70840.133
70980.791
71164.537
71418.634
71720.794
72054.085
72521.456
72990.405
73684.682
74379.989
75382.64
76450.943
77875.319
79503.372
81519.348
83871.388
86609.859
89621.456
92730.036
95665.391
98195.435
100188.38
101566.12
102300.13
102534.73
102465.2
102186.21
101793.23
101361.16
100936.94
100561.03
100285.11
100101.92
99892.819
99719.493
99625.54
99593.389
99593.786
99610.188
99683.27
99897.711
100072.43
100164.09
100204.78
100219.92
100223.87
100183.19
100102.45
100053.82
71284.12
71419.606
71571.275
71767.006
72033.305
72356.644
72707.027
73206.908
73703.004
74444.273
75187.398
76254.253
77397.437
78907.412
80642.529
82774.038
85253.51
88103.104
91180.592
94276.124
97115.788
99493.393
101303.08
102453.51
102971.78
103063.08
102875
102502.32
102039.95
101556.74
101095.2
100693.46
100398.73
100200.11
99971.147
99783.514
99680.192
99641.34
99633.277
99642.896
99729.244
99950.603
100097.78
100173.07
100204.83
100215.6
100218.26
100163.01
100091.41
100048.77
71873.06
72018.25
72181.792
72390.869
72670.237
73018.046
73388.453
73925.376
74453.303
75245.371
76040.82
77174.43
78399.049
80000.279
81849.32
84102.032
86709.396
89660.345
92781.023
95833.863
98552.688
100764.25
102364.7
103274.38
103597.19
103554.72
103251.31
102791.63
102265.64
101735.93
101240.74
100815.9
100504.83
100292.05
100044.65
99843.788
99731.271
99684.918
99671.579
99676.826
99782.364
99993.937
100118.32
100179.75
100203.76
100210.97
100211.63
100144.65
100081.82
100044.5
72481.454
72638.354
72815.667
73041.141
73336.209
73712.689
74106.125
74683.44
75245.478
76091.159
76942.675
78147.118
79460.085
81159.044
83128.929
85507.608
88240.225
91277.86
94414.634
97394.322
99969.813
101999.23
103362.72
104028.82
104184.31
104007.25
103595.47
103055.62
102471.62
101899.81
101374.4
100929.09
100603.92
100378.22
100113.69
99900.081
99778.45
99725.335
99708.516
99712.741
99839.605
100028.74
100133.52
100183.04
100201.79
100207.17
100201.57
100128.47
100073.55
100040.89
73123.969
73292.766
73483.717
73728.308
74040.589
74447.484
74863.708
75484.139
76081.539
76983.713
77896.355
79176.344
80585.83
82389.532
84486.796
86994.405
89845.469
92949.663
96071.752
98948.613
101361.52
103183.96
104289.46
104726.45
104731.18
104421.52
103909.02
103295.78
102659.17
102049.44
101497.03
101033.74
100696.51
100459.06
100178.35
99952.216
99821.972
99763.316
99744.088
99750.585
99895.532
100057.72
100144.75
100184.51
100199.41
100203.52
100187.97
100114.49
100066.46
100037.84
73795.841
73978.674
74185.945
74454.466
74783.851
75221.664
75660.488
76326.908
76963.087
77926.033
78905.961
80268.425
81782.411
83698.065
85928.298
88565.099
91522.805
94668.051
97742.372
100488.7
102721.54
104303.03
105140.41
105380.27
105233.78
104799.04
104193.7
103513.68
102829.61
102185.87
101609.46
101130.54
100783.11
100534.97
100238.56
100000.21
99862.263
99799.391
99778.575
99790.166
99947.206
100082.4
100153.49
100185.04
100196.66
100199.67
100171.69
100102.58
100060.49
100035.31
74502.229
74700.358
74923.783
75215.406
75560.381
76032.955
76495.673
77213.401
77894.631
78923.939
79978.517
81429.696
83056.548
85091.132
87458.323
90220.715
93267.346
96423.108
99415.953
102006.69
104035.02
105346.64
105923.69
105989.32
105692.73
105141.61
104451.29
103710.86
102984.19
102310.1
101712.5
101220.17
100864.2
100606.23
100294.13
100044.22
99899.819
99834.137
99812.581
99832.212
99992.616
100103.39
100160.64
100185.14
100193.51
100195.49
100154.46
100092.57
100055.54
100033.3
75234.515
75450.212
75690.419
76007.883
76372.18
76885.906
77375.724
78150.229
78883.008
79983.515
81122.005
82667.695
84415.098
86575.153
89080.96
91960.436
95072.028
98203.835
101082.47
103495.52
105284.64
106307.53
106652.49
106550.06
106109.68
105451.25
104683.66
103888.89
103124.17
102423.14
101806.94
101303.26
100940.26
100672.99
100344.89
100084.54
99935.19
99868.221
99846.897
99878.02
100029.89
100120.6
100166.23
100184.8
100190.29
100190.63
100138.36
100083.99
100051.45
100031.8
76002.212
76238.532
76497.306
76844.762
77229.292
77789.03
78310.305
79145.702
79935.407
81112.063
82343.129
83989.67
85865.189
88156.315
90798.886
93780.741
96927.117
99998.044
102731.56
104942.9
106455.72
107188.61
107331.57
107061.12
106486.67
105730.04
104892.64
104049.29
103250.77
102525.91
101893.54
101380.44
101011.67
100735.3
100390.75
100121.56
99968.987
99902.228
99882.06
99925.919
100059.37
100133.99
100170.1
100184.19
100188.18
100183.47
100124.17
100076.69
100048.22
100030.95
76813.748
77073.115
77351.668
77733.384
78138.308
78749.605
79305.22
80205.484
81058.04
82316.71
83648.947
85403.445
87414.303
89840.234
92612.808
95675.464
98821.047
101793.93
104353.86
106330.1
107538.31
108002.12
107958
107524.18
106826.01
105980.17
105080.11
104193.55
103365.16
102619.34
101973.02
101452.27
101078.77
100793.12
100431.78
100155.85
100001.83
99936.481
99918.033
99971.595
100083.73
100144.29
100172.64
100183.42
100186.41
100173.39
100112.05
100070.68
100045.77
100030.54
77672.159
77956.902
78256.41
78676.803
79103.174
79772.773
80365.991
81334.685
82257.26
83605.384
85047.784
86917.708
89070.106
91631.3
94520.677
97635.194
100740.41
103579.33
105939.42
107636.5
108528.66
108759.74
108528.11
107941.45
107130.14
106203.83
105247.87
104323.11
103468.44
102704.31
102046.1
101519.29
101141.86
100846.41
100468.29
100188.08
100034.23
99970.978
99954.349
100013.13
100104.31
100152.45
100174.21
100182.12
100184.47
100160.81
100101.98
100065.79
100043.87
100030.36
78581.645
78895.293
79217.801
79681.795
80130.035
80862.166
81497.841
82539.727
83541.177
84986.548
86549.165
88541.893
90839.802
93531.728
96517.171
99647.805
102671.22
105341.95
107468.04
108849.61
109437.45
109459.34
109043.51
108315.65
107401.68
106403.24
105397.71
104439.36
103561.7
102781.65
102113.44
101582.02
101201.25
100895.23
100500.76
100218.91
100066.48
100005.47
99990.387
100049.74
100121.78
100159.25
100175.66
100181.16
100182.28
100147.09
100093.89
100061.73
100042.29
100030.29
79549.328
79895.71
80242.254
80754.841
81224.202
82023.923
82708.604
83830.551
84922.149
86468.826
88163.242
90285.86
92729.271
95540.582
98593.021
101698.36
104598.61
107069.08
108916.27
109959.79
110281.5
110095.73
109506.6
108649.63
107643.22
106580.56
105531.33
104543.62
103645.94
102852.15
102175.69
101640.96
101257.25
100939.77
100529.92
100248.93
100098.71
100039.6
100025.55
100081.39
100136.47
100164.79
100176.93
100180.76
100179.14
100134.2
100086.95
100058.39
100041.06
100030.29
80576.248
80960.019
81330.508
81899.536
82392.817
83266.556
84008.845
85218.531
86410.903
88066.775
89901.812
92158.563
94741.792
97652.987
100735.43
103770.46
106507.28
108742.44
110265.67
110975.41
111060.47
110669.77
109920.49
108946.46
107857.37
106737.9
105650.39
104637.15
103722.15
102916.59
102233.45
101696.52
101310.02
100980.01
100556.79
100278.61
100130.9
100073.02
100059.39
100108.27
100148.65
100169.21
100177.95
100180.68
100173.68
100122.83
100081.23
100055.89
100040.29
100030.51
81666.848
82093.981
82487.097
83125.25
83647.243
84602.996
85413.455
86718.399
88021.891
89794.248
91775.851
94166.761
96876.939
99859.529
102928
105846.47
108381.35
110336.11
111503.84
111912.46
111769.57
111184.06
110288.46
109209.19
108046.7
106877.28
105756.44
104721.15
103791.22
102975.67
102287.31
101749.1
101359.48
101015.46
100582.87
100308.28
100162.94
100105.54
100091.71
100130.69
100158.78
100172.94
100178.89
100180.69
100165.95
100113.21
100076.45
100053.91
100039.96
100030.97
82832.204
83313.331
83731.091
84446.239
85002.425
86049.25
86939.649
88345.894
89771.143
91664.111
93794.174
96313.842
99129.814
102146.38
105151.9
107908.15
110203.19
111825.37
112633.44
112776.27
112407.72
111642.13
110614.12
109440.97
108213.73
107000.67
105850.99
104796.73
103854.02
103030.1
102337.84
101798.99
101405.34
101045.67
100609.61
100337.97
100194.54
100137.04
100122.54
100149.09
100167.3
100176.29
100179.79
100180.5
100156.7
100105.25
100072.54
100052.38
100039.85
100031.63
84086.538
84635.345
85076.185
85881.442
86477.577
87622.955
88604.195
90114.989
91673.237
93687.373
95962.668
98599.389
101490.7
104495.4
107386.38
109935.75
111943.85
113194.53
113669.81
113562.31
112977.74
112047.81
110901.11
109644.86
108360.86
107109.92
105935.44
104864.98
103911.39
103080.53
102385.54
101846.4
101447.43
101072.46
100636.71
100367.64
100225.39
100167.17
100151.62
100164.18
100174.37
100179.22
100180.99
100178.73
100146.67
100098.92
100069.39
100051.16
100039.85
100032.48
85436.453
86075.095
86541.502
87453.919
88094.753
89339.728
90420.761
92039.854
93736.297
95871.785
98284.59
101018.42
103944.59
106884.75
109609.48
111908.84
113573.6
114441.15
114623.03
114267.9
113483.59
112405.36
111153.14
109823.85
108490.44
107206.8
106011.12
104926.9
103964.11
103127.62
102430.87
101891.48
101485.79
101097.13
100664.33
100397.76
100255.77
100195.36
100177.39
100177.22
100180.6
100181.74
100181.57
100174.93
100136.8
100093.66
100067.03
100050.55
100040.21
100033.52
86916.925
87663.841
88147.369
89179.995
89868.984
91208.782
92397.564
94129.048
95969.104
98224.958
100760.6
103560.68
106470.83
109289.41
111796.7
113795.64
115072.37
115580.03
115488.51
114896.08
113929.81
112719.11
111373.86
109980.81
108604.65
107292.98
106079.28
104983.42
104012.91
103171.95
102474.23
101934.34
101520.75
101120.67
100692.92
100429.1
100286.59
100221.97
100197.38
100189.31
100186.51
100184.96
100181.73
100169.67
100127.84
100089.11
100065.2
100050.32
100040.87
100034.72
88574.257
89435.525
89891.747
91049.194
91803.333
93239.985
94549.838
96391.302
98382.096
100754.27
103386.7
106208.76
109043.44
111682.26
113922.58
115562.09
116434.49
116623.98
116262.74
115451.37
114321.42
112993.5
111566.86
110118.53
108705.6
107370.04
106141.1
105035.46
104058.52
103214.09
102515.96
101975.12
101552.89
101144.18
100723.02
100461.82
100317.34
100246.84
100214.57
100199.47
100191.56
100186.72
100181.49
100163.51
100119.92
100085.14
100063.64
100050.3
100041.7
100036.07
90376.336
91371.211
91803.255
93073.937
93911.241
95450.441
96893.397
98850.989
100990.27
103462.4
106150.12
108936.7