/*--------------------------------*- C++ -*----------------------------------*\
  =========                 |
  \\      /  F ield         | OpenFOAM: The Open Source CFD Toolbox
   \\    /   O peration     | Website:  https://openfoam.org
    \\  /    A nd           | Version:  8
     \\/     M anipulation  |
\*---------------------------------------------------------------------------*/
FoamFile
{
    version     2.0;
    format      ascii;
    class       surfaceScalarField;
    location    "0.290003";
    object      phi;
}
// * * * * * * * * * * * * * * * * * * * * * * * * * * * * * * * * * * * * * //

dimensions      [1 0 -1 0 0 0 0];

internalField   nonuniform List<scalar> 
39600
(
-7.8688787e-05
-0.0078842282
0.0079109711
-0.00014937089
-0.010958222
0.011027002
-0.00022662148
-0.014289726
0.014365587
-0.00030993002
-0.018346147
0.018427887
-0.00039524327
-0.023439197
0.023522569
-0.00047486992
-0.029942567
0.030019957
-0.00061339113
-0.038180849
0.03831673
-0.00091096329
-0.046691459
0.046985963
-0.0012751921
-0.055745692
0.056106241
-0.001706205
-0.066994869
0.067421496
-0.0022226817
-0.080084696
0.080595884
-0.0028376008
-0.096166366
0.096774924
-0.0035719151
-0.11508981
0.11581643
-0.0044487589
-0.13814098
0.13900854
-0.0054934107
-0.16547586
0.16650932
-0.006741425
-0.19860367
0.19983819
-0.0082260748
-0.23808304
0.23955182
-0.0099980237
-0.28579807
0.28755156
-0.012104254
-0.3428621
0.34494609
-0.014619061
-0.41173284
0.41422066
-0.017611141
-0.49432659
0.49728555
-0.021187615
-0.59393424
0.59746966
-0.025462857
-0.71361283
0.71783774
-0.030609999
-0.85779508
0.86287926
-0.036839663
-1.0310406
1.0371942
-0.044464463
-1.2392024
1.246731
-0.053884918
-1.4885316
1.4978348
-0.065625958
-1.7863984
1.7979932
-0.080233831
-2.1407973
2.1552345
-0.098167561
-2.5609963
2.5787267
-0.11969935
-3.0579384
3.0792259
-0.14504815
-3.6455412
3.670605
-0.1746098
-4.3419606
4.3711993
-0.20895228
-5.1702649
5.2042603
-0.24880295
-6.1586006
6.1980677
-0.29483131
-7.3411813
7.3868394
-0.34776202
-8.7561425
8.8087044
-0.40819801
-10.452057
10.512159
-0.47651244
-12.484733
12.552774
-0.55259869
-14.922168
14.998129
-0.63566542
-17.845171
17.928311
-0.72368927
-21.350407
21.438783
-0.81293098
-25.554423
25.644386
-0.89670817
-30.598504
30.683593
-0.96441955
-36.651858
36.721309
-0.99916909
-43.918858
43.955422
-0.97618593
-52.647546
52.62757
-0.84662011
-63.129048
63.003856
-0.57041348
-75.753991
75.483956
-90.840906
90.293064
-9.9127134e-05
-0.0078274627
-0.00016383354
-0.010894718
-0.00023649516
-0.014218253
-0.00031609289
-0.018268108
-0.00039823468
-0.023358945
-0.00047479441
-0.029868196
-0.0006182369
-0.038039978
-0.00089656058
-0.046416135
-0.0012387841
-0.055407049
-0.0016443455
-0.066593581
-0.0021324508
-0.079601751
-0.0027136812
-0.095591354
-0.0034089219
-0.11440208
-0.0042390237
-0.13731993
-0.0052279248
-0.16449784
-0.0064097359
-0.19743499
-0.0078142136
-0.23669409
-0.0094918874
-0.28413868
-0.011484209
-0.34089176
-0.013862449
-0.40938124
-0.01668911
-0.49153262
-0.020069912
-0.59059384
-0.024111196
-0.70962122
-0.028984383
-0.85298371
-0.034892893
-1.0252073
-0.042148119
-1.2320413
-0.051146335
-1.4796476
-0.062418304
-1.7752685
-0.076521188
-2.1268594
-0.093952582
-2.5437593
-0.11503865
-3.0370833
-0.14001282
-3.620835
-0.16921302
-4.3130667
-0.20313177
-5.1366719
-0.24245203
-6.1196409
-0.28782332
-7.2961605
-0.33995959
-8.7043553
-0.39945354
-10.392875
-0.46670346
-12.417758
-0.54163166
-14.84737
-0.62350962
-17.763228
-0.71042995
-21.263105
-0.79879211
-25.465298
-0.88222034
-30.513737
-0.95053064
-36.5818
-0.9874378
-43.880113
-0.96651152
-52.665349
-0.84809655
-63.242999
-0.58548359
-76.009943
-91.363388
-8.7405056e-05
-0.0077730131
-0.00014915191
-0.010834118
-0.00021689131
-0.014151474
-0.00028959117
-0.018196791
-0.00036220347
-0.023288124
-0.00042208734
-0.029810411
-0.00055919326
-0.037905373
-0.00082859735
-0.046149665
-0.0011556322
-0.055083573
-0.0015433257
-0.066210152
-0.0020086577
-0.079141585
-0.0025630444
-0.09504317
-0.0032248805
-0.11374772
-0.0040158361
-0.13653791
-0.0049569524
-0.16356745
-0.0060823356
-0.19632243
-0.0074188223
-0.23537285
-0.0090151423
-0.28256045
-0.010908967
-0.3390197
-0.013169315
-0.40714725
-0.015854699
-0.48887957
-0.019066055
-0.58742226
-0.022908095
-0.70582805
-0.027546039
-0.84840607
-0.033181903
-1.0196448
-0.040124917
-1.225189
-0.048772279
-1.4711089
-0.059655036
-1.7645202
-0.073331719
-2.1133378
-0.090317191
-2.5269544
-0.11097078
-3.0166415
-0.13554923
-3.5965015
-0.16436054
-4.2845359
-0.19785725
-5.1034836
-0.23667045
-6.081169
-0.28140969
-7.2517552
-0.33278582
-8.6533125
-0.39138745
-10.334568
-0.4576311
-12.351765
-0.53147566
-14.773631
-0.61225977
-17.682354
-0.6981705
-21.17679
-0.78579339
-25.376886
-0.86902651
-30.42915
-0.93812434
-36.510958
-0.9774501
-43.838928
-0.96137409
-52.678282
-0.85201981
-63.347824
-0.60280864
-76.252963
-91.859831
-7.395008e-05
-0.0077226897
-0.00013048146
-0.010778738
-0.00019209097
-0.014090913
-0.000257334
-0.018132749
-0.00032114894
-0.02322587
-0.00036711816
-0.029766351
-0.00050139103
-0.037773398
-0.00076030347
-0.045893568
-0.001071507
-0.054775786
-0.0014407622
-0.065845066
-0.0018835248
-0.078703883
-0.0024116694
-0.09452115
-0.0030415722
-0.11312518
-0.003795023
-0.13579328
-0.0046905854
-0.16268244
-0.0057619224
-0.1952637
-0.0070325915
-0.23411721
-0.0085497353
-0.2810612
-0.010348223
-0.33724268
-0.012493496
-0.40502798
-0.015041579
-0.48636335
-0.018090937
-0.58441205
-0.021740567
-0.70222654
-0.026154418
-0.84405147
-0.031533087
-1.0143385
-0.038185279
-1.2186256
-0.046512683
-1.4628874
-0.057045942
-1.7541174
-0.070346196
-2.1001878
-0.086932911
-2.5105413
-0.10718866
-2.996587
-0.1313863
-3.5725353
-0.15981704
-4.2563697
-0.19289651
-5.0706962
-0.23122146
-6.0431663
-0.27536945
-7.2079238
-0.32604151
-8.6029559
-0.38382036
-10.277065
-0.44914664
-12.286672
-0.52201447
-14.70085
-0.60182285
-17.602434
-0.68688185
-21.0913
-0.77392872
-25.289021
-0.85717089
-30.344542
-0.92727522
-36.439117
-0.96922834
-43.795092
-0.9583234
-52.685971
-0.85810507
-63.443349
-0.62287505
-76.48208
-92.330303
-6.2917216e-05
-0.0076760143
-0.00011448901
-0.010727762
-0.00017061706
-0.014036081
-0.00022874956
-0.018076022
-0.00028362198
-0.023172646
-0.00031472998
-0.029737163
-0.00044556195
-0.037644844
-0.00069143258
-0.045650413
-0.00098706837
-0.054483453
-0.0013385587
-0.065497598
-0.0017596886
-0.078287636
-0.0022628757
-0.094023892
-0.002862116
-0.1125331
-0.003579651
-0.13508434
-0.0044310004
-0.16184141
-0.0054497189
-0.19425734
-0.006655948
-0.23292576
-0.0080963379
-0.27963841
-0.0098009404
-0.33555929
-0.011835468
-0.40301917
-0.014251171
-0.48397912
-0.017143708
-0.58155809
-0.020609619
-0.69880791
-0.024809835
-0.83990909
-0.029946804
-1.009272
-0.036330896
-1.212327
-0.04436955
-1.45495
-0.054594755
-1.7440165
-0.067562826
-2.0873621
-0.083793841
-2.4944735
-0.10367996
-2.9768883
-0.12751033
-3.5489197
-0.15556679
-4.228559
-0.1882443
-5.0382932
-0.2261
-6.0056132
-0.26969617
-7.1646259
-0.31971427
-8.553235
-0.37674556
-10.220291
-0.4412407
-12.222386
-0.51324208
-14.628911
-0.59220464
-17.523334
-0.67655454
-21.006493
-0.76320883
-25.201523
-0.84664774
-30.259731
-0.91799207
-36.366048
-0.96281966
-43.748366
-0.957307
-52.68821
-0.86650402
-63.529219
-0.64572017
-76.697071
-92.774549
-5.152695e-05
-0.0076324155
-9.9032555e-05
-0.010680895
-0.00014968426
-0.01398654
-0.00020092266
-0.018026083
-0.00024760747
-0.023127569
-0.00026593045
-0.029720746
-0.0003955753
-0.037517473
-0.00062875342
-0.045419949
-0.0009102785
-0.054205203
-0.0012453117
-0.065166531
-0.0016459515
-0.07789179
-0.0021250465
-0.093550593
-0.0026945997
-0.11197052
-0.0033770301
-0.1344103
-0.0041852281
-0.1610433
-0.0051523932
-0.19330229
-0.006295559
-0.2317971
-0.0076607622
-0.27829054
-0.0092749708
-0.33396596
-0.011202061
-0.40111739
-0.013489689
-0.48172249
-0.016231682
-0.57885404
-0.019521637
-0.69556452
-0.023519903
-0.83596772
-0.028430024
-1.0044314
-0.03456844
-1.2062724
-0.042348794
-1.4472688
-0.052304329
-1.7341826
-0.064985411
-2.0748197
-0.080904431
-2.4787123
-0.10045762
-2.9575147
-0.12394312
-3.5256385
-0.15164073
-4.2010943
-0.18392918
-5.0062653
-0.22134183
-5.9684865
-0.2644295
-7.1218201
-0.31385079
-8.504094
-0.37020223
-10.164179
-0.43395544
-12.158823
-0.50519026
-14.557717
-0.58344238
-17.444922
-0.66723827
-20.922216
-0.75367528
-25.114219
-0.83752349
-30.174508
-0.91033259
-36.291534
-0.95828592
-43.698503
-0.95850785
-52.68464
-0.87823197
-63.604286
-0.67170085
-76.898041
-93.19243
-4.0945499e-05
-0.0075921054
-8.4378651e-05
-0.010638259
-0.00012953026
-0.013942561
-0.00017375698
-0.017983204
-0.00021206657
-0.023090889
-0.00021841145
-0.029716305
-0.00034757097
-0.037390592
-0.00056968179
-0.04520053
-0.00083760322
-0.053940526
-0.0011568174
-0.064851223
-0.0015375719
-0.077515724
-0.0019934859
-0.093100336
-0.0025341115
-0.11143669
-0.0031822601
-0.13377033
-0.0039481433
-0.16028727
-0.0048647414
-0.19239755
-0.0059463108
-0.23072975
-0.0072379514
-0.27701593
-0.0087648425
-0.33245967
-0.010588263
-0.399319
-0.012753697
-0.47958766
-0.015350709
-0.57629445
-0.018472885
-0.69248805
-0.022279545
-0.83221664
-0.026979766
-0.99979873
-0.032895211
-1.2004377
-0.040448489
-1.4398107
-0.050172728
-1.7245748
-0.062608706
-2.0625157
-0.07825873
-2.4632118
-0.097514154
-2.9384282
-0.1206803
-3.5026637
-0.14803897
-4.1739536
-0.17995918
-4.97459
-0.21696072
-5.9317532
-0.25957126
-7.0794739
-0.30844634
-8.4554816
-0.36419671
-10.108651
-0.42729883
-12.09589
-0.49788439
-14.487149
-0.57555152
-17.367073
-0.65894736
-20.838315
-0.74535334
-25.026923
-0.82982255
-30.088664
-0.90433937
-36.215335
-0.95567932
-43.645252
-0.96195371
-52.67493
-0.89395912
-63.666955
-0.70092274
-77.085647
-93.584254
-3.0892301e-05
-0.0075547499
-7.034766e-05
-0.010599584
-0.00011038452
-0.013903711
-0.00014782224
-0.017947096
-0.00017784448
-0.023062518
-0.0001738035
-0.029722248
-0.00030258075
-0.037264082
-0.00051426477
-0.044991501
-0.00076847467
-0.053689491
-0.0010719372
-0.064551571
-0.0014330753
-0.077159163
-0.001866063
-0.092672867
-0.0023781715
-0.11093122
-0.0029925719
-0.13316393
-0.0037168801
-0.15957261
-0.0045839409
-0.19154211
-0.0056064637
-0.22972119
-0.0068284056
-0.27581073
-0.0082722458
-0.33103609
-0.0099963508
-0.39761949
-0.012043082
-0.47757107
-0.014500267
-0.57387404
-0.017461459
-0.68957195
-0.021087944
-0.82864481
-0.025594662
-0.99535871
-0.031310664
-1.1948009
-0.038668363
-1.4325468
-0.048198914
-1.7151585
-0.060432153
-2.0504113
-0.075853489
-2.4479356
-0.094849007
-2.9195955
-0.11772592
-3.4799698
-0.14476839
-4.1471186
-0.17634091
-4.9432503
-0.21295822
-5.8953896
-0.25513887
-7.0375427
-0.30353336
-8.4073339
-0.35874829
-10.053641
-0.42128946
-12.0335
-0.49133923
-14.417098
-0.56855833
-17.289653
-0.65171984
-20.754626
-0.73828074
-24.93945
-0.82360061
-30.001969
-0.90007293
-36.137209
-0.95507032
-43.588345
-0.96765744
-52.65879
-0.91100073
-63.71827
-0.7333942
-77.257904
-93.949872
-2.1156565e-05
-0.0075206297
-5.6495921e-05
-0.01056506
-9.1336368e-05
-0.01387009
-0.00012180045
-0.017917985
-0.0001427647
-0.023043219
-0.00012960829
-0.029737299
-0.00025810069
-0.037137835
-0.00045918305
-0.04479302
-0.00070019082
-0.05345161
-0.00098844861
-0.064267062
-0.0013304681
-0.076821638
-0.0017410117
-0.092267747
-0.0022251299
-0.11045361
-0.0028066025
-0.13259031
-0.0034905569
-0.15889813
-0.0043105972
-0.19073348
-0.0052765931
-0.22876891
-0.0064333543
-0.27467044
-0.0077979794
-0.32969147
-0.0094268367
-0.39601495
-0.011359823
-0.47566784
-0.013681959
-0.57158813
-0.016487978
-0.68681015
-0.01994561
-0.82524052
-0.024275958
-0.99109301
-0.029817465
-1.1893356
-0.037012163
-1.4254422
-0.046386225
-1.7058941
-0.058456445
-2.0384641
-0.073689995
-2.43284
-0.092461586
-2.9009781
-0.11508057
-3.4575233
-0.14183447
-4.1205596
-0.17309136
-4.9122125
-0.209357
-5.8593619
-0.25115273
-6.9959805
-0.29911681
-8.3596002
-0.35387385
-9.9990726
-0.41595584
-11.971551
-0.48557657
-14.347456
-0.56249315
-17.212516
-0.64558537
-20.670985
-0.7325018
-24.851601
-0.81888586
-29.91421
-0.89757567
-36.056898
-0.95652357
-43.527484
-0.9757372
-52.635853
-0.93021589
-63.758579
-0.76916403
-77.413702
-94.288977
-1.1629506e-05
-0.0074895731
-4.2820553e-05
-0.010534552
-7.2458391e-05
-0.013841514
-9.5928709e-05
-0.017895748
-0.00010742039
-0.023033277
-8.7072726e-05
-0.029759478
-0.00021685682
-0.037010231
-0.00040849097
-0.044603959
-0.00063689755
-0.053226288
-0.00091031961
-0.063997353
-0.0012334438
-0.076502969
-0.001621978
-0.09188458
-0.00207897
-0.11000305
-0.0026288813
-0.13204813
-0.0032748158
-0.1582615
-0.0040507501
-0.18996875
-0.00496402
-0.22786914
-0.0060555028
-0.27359521
-0.007341962
-0.3284247
-0.0088778341
-0.39450302
-0.010701652
-0.47387329
-0.012897736
-0.56942773
-0.015560155
-0.68419131
-0.018859478
-0.82199384
-0.023031511
-0.98698476
-0.028424627
-1.1840175
-0.035487698
-1.4184682
-0.044743168
-1.6967467
-0.056689202
-2.0266385
-0.071773729
-2.4178899
-0.090358362
-2.8825428
-0.11275216
-3.4352958
-0.13924726
-4.0942507
-0.1702145
-4.8814536
-0.20616935
-5.8236327
-0.24761992
-6.9547502
-0.29521966
-8.3122167
-0.34959927
-9.944867
-0.41131423
-11.909951
-0.48063378
-14.278098
-0.55738052
-17.135531
-0.64057728
-20.58722
-0.72804638
-24.763179
-0.81574391
-29.825138
-0.89691739
-35.974136
-0.96011371
-43.462359
-0.98630803
-52.605687
-0.95215509
-63.787797
-0.80828299
-77.55245
-94.601156
-3.2872028e-06
-0.0074611317
-3.0725314e-05
-0.010507843
-5.5462118e-05
-0.013817879
-7.2094666e-05
-0.017880383
-7.352589e-05
-0.023033386
-4.7386909e-05
-0.029787398
-0.00018115633
-0.036878619
-0.00036243584
-0.044425199
-0.00057765281
-0.053014095
-0.00083601167
-0.063742629
-0.0011406236
-0.076202705
-0.0015081352
-0.091522319
-0.0019394839
-0.10957799
-0.0024593803
-0.1315358
-0.0030694976
-0.15766049
-0.0038029793
-0.18924625
-0.004663782
-0.22702161
-0.0056919119
-0.27258308
-0.0069024908
-0.32723361
-0.0083485523
-0.39308065
-0.010067256
-0.4721835
-0.012143779
-0.56738633
-0.014674996
-0.68170278
-0.017831829
-0.81888828
-0.021863058
-0.98301516
-0.027134902
-1.1788176
-0.034100097
-1.4115886
-0.043273349
-1.6876774
-0.055133636
-2.0148934
-0.070106437
-2.4030453
-0.088540034
-2.8642513
-0.1107422
-3.4132515
-0.13701075
-4.0681578
-0.16772336
-4.8509371
-0.20340592
-5.7881623
-0.24456786
-6.9137947
-0.29186366
-8.2651225
-0.34594638
-9.8909433
-0.40738934
-11.848607
-0.47652916
-14.208903
-0.55326292
-17.058543
-0.63673156
-20.503165
-0.72496838
-24.673971
-0.81421536
-29.734517
-0.89814525
-35.888649
-0.96592416
-43.392617
-0.99991052
-52.567448
-0.9771201
-63.806022
-0.85098433
-77.673631
-94.886115
5.4702411e-06
-0.007435972
-1.7654506e-05
-0.010485482
-3.6973956e-05
-0.013799691
-4.6364485e-05
-0.017872292
-3.6489964e-05
-0.023044847
-5.6736442e-06
-0.029820001
-0.00013886197
-0.036747571
-0.0003094637
-0.04425708
-0.00051204012
-0.05281448
-0.00075659157
-0.063501614
-0.0010442022
-0.075919324
-0.0013921539
-0.091179457
-0.0017988919
-0.10917735
-0.0022899608
-0.13105208
-0.0028652001
-0.15709414
-0.003556758
-0.18856547
-0.0043666079
-0.22622485
-0.0053340554
-0.27163143
-0.0064725118
-0.32611432
-0.0078322064
-0.39174424
-0.0094508611
-0.4705933
-0.01141297
-0.56545884
-0.013821816
-0.67933609
-0.01685276
-0.81590807
-0.020766757
-0.9791621
-0.025943997
-1.1737114
-0.032845242
-1.4047722
-0.041972467
-1.6786525
-0.053784107
-2.0031948
-0.068681917
-2.3882728
-0.086999128
-2.846072
-0.10904425
-3.3913589
-0.13512111
-4.0422492
-0.16561638
-4.8206282
-0.20106571
-5.7529143
-0.24199274
-6.8730624
-0.28905097
-8.2182533
-0.34291471
-9.8372255
-0.40419928
-11.787406
-0.47328065
-14.13975
-0.55015192
-16.981403
-0.63408109
-20.418633
-0.72330038
-24.583763
-0.81435022
-29.642095
-0.90132511
-35.800142
-0.97401867
-43.317904
-1.0170675
-52.520069
-1.0052563
-63.813442
-0.89728524
-77.77682
-95.143365
1.2634176e-05
-0.0074129888
-7.5899582e-06
-0.010466223
-2.2746012e-05
-0.013785728
-2.6637216e-05
-0.017869744
-6.9656795e-06
-0.023066131
2.3906837e-05
-0.029852658
-0.00010171335
-0.036624046
-0.00026479324
-0.044096402
-0.00045707734
-0.052625054
-0.00068951888
-0.063272592
-0.00096118862
-0.075651723
-0.001290183
-0.090855401
-0.0016731287
-0.10880032
-0.0021366454
-0.13059574
-0.0026778288
-0.15656167
-0.0033284762
-0.18792546
-0.004089407
-0.22547686
-0.0049986398
-0.27073772
-0.0060666663
-0.32506518
-0.0073436167
-0.39049025
-0.008866484
-0.46909854
-0.010722161
-0.56363717
-0.013017643
-0.67708192
-0.015941288
-0.81303367
-0.019761243
-0.97540094
-0.024872514
-1.168668
-0.031743715
-1.3979823
-0.040860783
-1.6696337
-0.052658752
-1.9915049
-0.067516416
-2.3735351
-0.085753664
-2.8279661
-0.10767711
-3.3695805
-0.13359791
-4.0164881
-0.1639151
-4.7904867
-0.19917943
-5.7178397
-0.23992406
-6.8325001
-0.2868149
-8.1715384
-0.3405522
-9.783621
-0.40177664
-11.726251
-0.47093642
-14.070503
-0.54809862
-16.903958
-0.63267687
-20.333436
-0.72309916
-24.492338
-0.81621374
-29.547613
-0.90652412
-35.708314
-0.98447685
-43.237837
-1.0362885
-52.463875
-1.0366138
-63.808853
-0.94737166
-77.861456
-95.372455
1.9723674e-05
-0.007392099
2.5349064e-06
-0.010449861
-8.7218829e-06
-0.013775636
-7.0242373e-06
-0.017872762
2.332064e-05
-0.023098054
5.2762063e-05
-0.029883894
-6.7001294e-05
-0.036506343
-0.00022118437
-0.043944599
-0.0004020002
-0.052447074
-0.0006211098
-0.063056855
-0.00087617245
-0.075400708
-0.0011860702
-0.090550384
-0.0015460343
-0.10844621
-0.0019829952
-0.13016591
-0.002491474
-0.15606185
-0.0031030239
-0.18732449
-0.0038169659
-0.22477563
-0.0046695556
-0.2699004
-0.0056703868
-0.32408282
-0.0068676617
-0.38931552
-0.0083016284
-0.46769213
-0.010059525
-0.56191289
-0.01225304
-0.67492911
-0.015082613
-0.81025313
-0.018834516
-0.97170711
-0.023911872
-1.1636579
-0.030786277
-1.3911886
-0.039928862
-1.6605882
-0.0517487
-1.9797913
-0.066601085
-2.3588003
-0.084792499
-2.8099025
-0.10662934
-3.3478838
-0.13242871
-3.9908426
-0.16260607
-4.7604777
-0.19773484
-5.6828915
-0.23835909
-6.7920483
-0.28515969
-8.1249028
-0.33885124
-9.7300509
-0.4001348
-11.665025
-0.46950106
-14.001036
-0.547123
-16.826041
-0.63254215
-20.247384
-0.72440313
-24.399463
-0.81984987
-29.450806
-0.91380785
-35.612832
-0.99736841
-43.152003
-1.0581384
-52.398692
-1.0712672
-63.791519
-1.0014037
-77.926874
-95.572924
2.7642845e-05
-0.0073744609
1.4725326e-05
-0.010437653
8.9921673e-06
-0.01377088
1.7590901e-05
-0.017882512
5.9906884e-05
-0.023141816
8.7461908e-05
-0.02991312
-2.9411625e-05
-0.036391444
-0.00017516908
-0.043801158
-0.00034505758
-0.052279987
-0.0005520557
-0.062853214
-0.00079173273
-0.075165057
-0.0010839259
-0.090263056
-0.0014224159
-0.10811358
-0.0018340896
-0.12976135
-0.0023115106
-0.15559309
-0.002885872
-0.18676057
-0.0035545404
-0.22411957
-0.0043520395
-0.26911798
-0.0052878167
-0.32316527
-0.0064116727
-0.38821389
-0.0077642975
-0.46636666
-0.0094332084
-0.56027697
-0.011536077
-0.67286591
-0.014288287
-0.80754844
-0.017997648
-0.96805348
-0.023074096
-1.1586458
-0.029985573
-1.3843547
-0.039188189
-1.6514788
-0.051065494
-1.9680156
-0.06594564
-2.3440331
-0.084121488
-2.7918489
-0.10590258
-3.3262362
-0.13161849
-3.9652734
-0.16170005
-4.7305562
-0.19674411
-5.6480185
-0.23731611
-6.7516385
-0.2840984
-8.0782746
-0.3378462
-9.6764129
-0.39929614
-11.603621
-0.46901562
-13.931205
-0.54726317
-16.747488
-0.63373061
-20.160273
-0.72726594
-24.304905
-0.82532378
-29.351399
-0.92324992
-35.513347
-1.0127863
-43.05991
-1.0828258
-52.324222
-1.1093727
-63.760795
-1.0594631
-77.972461
-95.744136
3.389556e-05
-0.007358858
2.3985152e-05
-0.010428467
2.267102e-05
-0.013770551
3.704754e-05
-0.017898032
9.0251089e-05
-0.023196439
0.00011340074
-0.029937837
1.394448e-07
-0.036280122
-0.00013758917
-0.043665667
-0.00029721302
-0.052123071
-0.00049255122
-0.062661141
-0.0007177205
-0.074943837
-0.00099353389
-0.089992045
-0.0013115716
-0.10780133
-0.0016989981
-0.129381
-0.0021466768
-0.15515397
-0.0026850205
-0.1862326
-0.0033097977
-0.22350725
-0.0040544912
-0.26838813
-0.004929784
-0.32230793
-0.00598493
-0.38718057
-0.0072605354
-0.46511781
-0.0088474824
-0.55872256
-0.010875559
-0.67087714
-0.013572069
-0.80489913
-0.017263876
-0.96441699
-0.022371535
-1.1536021
-0.029356104
-1.3774474
-0.038655644
-1.6422713
-0.050619508
-1.9561513
-0.065555311
-2.3292078
-0.083745304
-2.7737782
-0.10550529
-3.3046056
-0.1311782
-3.9397424
-0.16121194
-4.7006768
-0.19623024
-5.6131637
-0.23680611
-6.7112164
-0.28365617
-8.0315691
-0.33756039
-9.622608
-0.39929869
-11.541919
-0.46951462
-13.860868
-0.5485631
-16.668124
-0.63628045
-20.071902
-0.73174428
-24.208416
-0.83270621
-29.249098
-0.93494478
-35.409481
-1.0308121
-42.961054
-1.1105988
-52.240046
-1.1510597
-63.716202
-1.1218267
-77.99752
-95.885417
4.0500133e-05
-0.0073459059
3.4270946e-05
-0.010422957
3.8075322e-05
-0.013775343
5.9017801e-05
-0.017920102
0.00012342012
-0.023262231
0.00014027573
-0.029956241
3.2880964e-05
-0.036174604
-9.6794553e-05
-0.043538195
-0.00024660744
-0.051975911
-0.00043105809
-0.062479889
-0.00064243262
-0.074736321
-0.00090273561
-0.089736451
-0.001201592
-0.10750818
-0.0015655749
-0.12902398
-0.0019843711
-0.15474361
-0.0024874461
-0.1857397
-0.0030699584
-0.22293703
-0.0037648235
-0.26770798
-0.004584348
-0.32150621
-0.0055739598
-0.38621253
-0.0067767712
-0.46394137
-0.0082905225
-0.55724062
-0.010258977
-0.66894691
-0.012924928
-0.80227862
-0.016628096
-0.96076679
-0.021799655
-1.1484917
-0.028896456
-1.3704249
-0.038322985
-1.6329328
-0.050400424
-1.9441688
-0.065417834
-2.3142961
-0.083654493
-2.7556558
-0.10543019
-3.2829536
-0.13110096
-3.9142076
-0.16113492
-4.6707904
-0.19618321
-5.5782707
-0.23683956
-6.670705
-0.28384151
-7.9847023
-0.33799942
-9.5685386
-0.40015505
-11.47979
-0.47101673
-13.789877
-0.55104492
-16.587773
-0.64023862
-19.982048
-0.73788514
-24.109746
-0.84204861
-29.1436
-0.94896392
-35.300829
-1.0516131
-42.854907
-1.1417201
-52.145659
-1.1965615
-63.657362
-1.1884846
-78.001515
-95.995456
4.589279e-05
-0.0073345965
4.2528012e-05
-0.010420277
5.0688583e-05
-0.013784445
7.7233356e-05
-0.017947742
0.00015092883
-0.023337289
0.00015940699
-0.029966227
5.9266152e-05
-0.036076308
-6.3756965e-05
-0.04341731
-0.00020476826
-0.051837494
-0.00037912795
-0.062308659
-0.00057744577
-0.074541792
-0.00082272139
-0.089495807
-0.00110273
-0.10723375
-0.0014439526
-0.12868958
-0.0018344447
-0.15436137
-0.0023033706
-0.1852808
-0.0028452885
-0.2224072
-0.0034942277
-0.26707356
-0.0042603251
-0.32075765
-0.0051881247
-0.38530604
-0.0063256394
-0.4628298
-0.0077778014
-0.55582003
-0.0097009859
-0.6670615
-0.01235939
-0.79966554
-0.016107447
-0.95707141
-0.02138132
-1.1432794
-0.028621913
-1.3632584
-0.038202201
-1.6234392
-0.050418983
-1.932045
-0.065546961
-2.2992716
-0.083861049
-2.7374533
-0.10568862
-3.2612465
-0.13139957
-3.888629
-0.16148509
-4.6408481
-0.19662346
-5.5432817
-0.237438
-6.6300284
-0.28467443
-7.9375934
-0.33920183
-9.514091
-0.40189774
-11.417111
-0.47356237
-13.718076
-0.55476103
-16.506245
-0.64565767
-19.890487
-0.74575322
-24.008637
-0.85342634
-29.034588
-0.96539905
-35.186958
-1.0765048
-42.739799
-1.1763271
-52.041758
-1.2463398
-63.583573
-1.2596334
-77.984092
-96.074599
5.1294196e-05
-0.0073252284
5.0974625e-05
-0.010420629
6.3869615e-05
-0.013798273
9.6845118e-05
-0.017981801
0.00017903635
-0.023420804
0.00017972509
-0.029968387
8.5316015e-05
-0.035983704
-3.0999702e-05
-0.043303108
-0.00016313436
-0.051707929
-0.00032758702
-0.0621473
-0.00051360931
-0.074359487
-0.00074429394
-0.089269667
-0.0010054012
-0.10697813
-0.0013239303
-0.12837773
-0.0016870505
-0.15400634
-0.0021232279
-0.18485439
-0.0026272022
-0.22191512
-0.0032322354
-0.26648288
-0.0039477915
-0.3200595
-0.0048185256
-0.38445639
-0.0058996468
-0.46177422
-0.0073027389
-0.55444774
-0.0092013264
-0.66519939
-0.011875024
-0.79703523
-0.015698805
-0.953298
-0.021111431
-1.137926
-0.028526317
-1.3559145
-0.038286478
-1.6137619
-0.050669512
-1.9197508
-0.065935547
-2.2841049
-0.084357959
-2.719138
-0.10627427
-3.2394456
-0.13206944
-3.8629607
-0.16225911
-4.6107961
-0.19755572
-5.5081282
-0.23860099
-6.5891141
-0.28617395
-7.8901404
-0.34116896
-9.4591676
-0.40455036
-11.353739
-0.47718179
-13.645301
-0.55974509
-16.423348
-0.65257118
-19.796997
-0.75540153
-23.904809
-0.8669064
-28.921738
-0.98431647
-35.067407
-1.103771
-42.616014
-1.2142985
-51.927293
-1.3000227
-63.494425
-1.3356365
-77.944804
-96.121772
5.6695441e-05
-0.0073180768
5.9688126e-05
-0.010424311
7.7700081e-05
-0.013817232
0.00011793549
-0.018023114
0.00020744117
-0.023511651
0.0001996436
-0.029962038
0.00011006969
-0.035895923
2.0358759e-07
-0.043195305
-0.00012368343
-0.051586564
-0.00027862428
-0.061995401
-0.00045258021
-0.074189187
-0.00066886388
-0.089057853
-0.00091162021
-0.10674074
-0.0012083583
-0.12808756
-0.0015453939
-0.15367721
-0.001950514
-0.18445889
-0.0024200572
-0.22145728
-0.0029837066
-0.26593336
-0.0036517002
-0.31940868
-0.0044718071
-0.38365708
-0.0055052462
-0.46076607
-0.0068747748
-0.55310877
-0.0087681105
-0.66334236
-0.01148431
-0.79436227
-0.015416332
-0.94941637
-0.020998452
-1.132403
-0.028616163
-1.3483673
-0.038583714
-1.6038756
-0.051158409
-1.9072633
-0.066589203
-2.2687716
-0.085151029
-2.700681
-0.10719369
-3.2175152
-0.1331182
-3.837159
-0.16346704
-4.5805806
-0.19898747
-5.4727459
-0.24034632
-6.5478806
-0.28834639
-7.8422539
-0.34393924
-9.4036398
-0.40813879
-11.289541
-0.48190363
-13.571387
-0.56603664
-16.338877
-0.6610363
-19.701336
-0.76688859
-23.797982
-0.88257427
-28.804679
-1.0057999
-34.941708
-1.1337817
-42.483454
-1.255639
-51.801551
-1.3574479
-63.389655
-1.4169293
-77.883245
-96.135582
6.1152343e-05
-0.0073124231
6.67937e-05
-0.010430647
8.9481054e-05
-0.013840876
0.00013708862
-0.018071778
0.00023128469
-0.02360717
0.00021334047
-0.029945532
0.00012850507
-0.035812866
2.485059e-05
-0.043093693
-9.104031e-05
-0.051473139
-0.00023661189
-0.061852815
-0.00039820716
-0.07403118
-0.00060026224
-0.088860183
-0.0008255803
-0.10652071
-0.0011018217
-0.12781774
-0.0014145232
-0.15337228
-0.0017910965
-0.18409172
-0.0022280556
-0.22103187
-0.0027528972
-0.26542255
-0.0033774123
-0.3188012
-0.0041532976
-0.3829018
-0.0051502533
-0.45979391
-0.0064981642
-0.55179069
-0.0084065951
-0.66146879
-0.011197152
-0.79161308
-0.015274059
-0.94538735
-0.021055424
-1.126678
-0.028902035
-1.3405878
-0.039102043
-1.593753
-0.051891942
-1.8945564
-0.067513413
-2.2532437
-0.086246233
-2.6820491
-0.10845328
-3.1954157
-0.13455458
-3.8111748
-0.16512014
-4.5501419
-0.20093906
-5.4370583
-0.24269188
-6.506246
-0.29122265
-7.7938298
-0.34753187
-9.3473893
-0.41269806
-11.224372
-0.48777335
-13.496157
-0.57368166
-16.252629
-0.67110916
-19.603256
-0.78026955
-23.687874
-0.90048634
-28.683013
-1.0299416
-34.80931
-1.1668313
-42.341833
-1.3005035
-51.663963
-1.4188401
-63.268537
-1.503559
-77.79625
-96.115431
6.658648e-05
-0.0073093994
7.5676347e-05
-0.010440392
0.00010376763
-0.013869886
0.00016025317
-0.018129293
0.00025763918
-0.02370585
0.00022899518
-0.02991829
0.00014927384
-0.035734904
5.2358453e-05
-0.04299879
-5.5506326e-05
-0.051367685
-0.00019192456
-0.061719299
-0.00034180389
-0.073884828
-0.00053026585
-0.088676046
-0.00073927804
-0.10631685
-0.00099636938
-0.12756696
-0.0012866201
-0.1530896
-0.0016374015
-0.18375021
-0.0020437884
-0.22063689
-0.002532062
-0.26494811
-0.0031186691
-0.31823147
-0.0038582827
-0.38218251
-0.0048268682
-0.4588501
-0.0061675761
-0.55047958
-0.0081147914
-0.65955668
-0.011012319
-0.78875675
-0.015267516
-0.94117996
-0.021279227
-1.1207225
-0.02938035
-1.3325535
-0.039836599
-1.5833732
-0.052865383
-1.8816091
-0.068702276
-2.2374986
-0.087637099
-2.6632133
-0.11004846
-3.1731095
-0.13637548
-3.7849611
-0.16721876
-4.5194207
-0.20340267
-5.401
-0.24564903
-6.4641115
-0.29481474
-7.744765
-0.35195976
-9.2902983
-0.41824523
-11.158078
-0.49481487
-13.419428
-0.58272523
-16.164379
-0.68283144
-19.502511
-0.79561243
-23.57418
-0.92075649
-28.556339
-1.0568315
-34.669661
-1.2032034
-42.19078
-1.3493117
-51.513878
-1.4849198
-63.130097
-1.5953183
-77.683711
-96.060888
7.0157463e-05
-0.0073073351
8.123365e-05
-0.010452083
0.00011323545
-0.013902792
0.00017836161
-0.0181954
0.00027583235
-0.023804635
0.00023714783
-0.029881004
0.00016308433
-0.035662589
7.3138738e-05
-0.042910667
-2.6572226e-05
-0.051270601
-0.00015422177
-0.061594561
-0.0002936754
-0.073748883
-0.000470057
-0.08850391
-0.0006644579
-0.10612754
-0.00090409946
-0.12733347
-0.0011737169
-0.15282742
-0.001500016
-0.18343301
-0.0018778906
-0.22027029
-0.0023327483
-0.26450699
-0.0028867117
-0.31769424
-0.0035971641
-0.3814922
-0.0045471957
-0.45792436
-0.0059004319
-0.54915521
-0.0079141946
-0.65757676
-0.010951649
-0.7857586
-0.015415885
-0.93676086
-0.021684196
-1.1145077
-0.030067239
-1.3242345
-0.040801706
-1.572712
-0.054090767
-1.8683975
-0.070170088
-2.2215071
-0.089339252
-2.6441396
-0.11199554
-3.1505548
-0.13859761
-3.758468
-0.16978015
-4.4883547
-0.20641378
-5.3644851
-0.2492387
-6.4213902
-0.29914714
-7.6949496
-0.35726612
-9.2322279
-0.42482722
-11.090505
-0.50307491
-13.341019
-0.59321112
-16.073904
-0.69626151
-19.398836
-0.8129803
-23.456576
-0.94346266
-28.424233
-1.0871331
-34.52176
-1.2432648
-42.030255
-1.4024216
-51.350734
-1.5563513
-62.973249
-1.6921745
-77.545774
-95.970456
7.5302304e-05
-0.0073079848
8.988727e-05
-0.010467259
0.00012748869
-0.013941167
0.0002037684
-0.018272656
0.0003006474
-0.023902638
0.00025963858
-0.029841349
0.00019086734
-0.035595441
0.00010600645
-0.042827735
1.2856362e-05
-0.051179817
-0.00010756479
-0.061477014
-0.00023791811
-0.073621943
-0.00040361078
-0.088342386
-0.00058451749
-0.1059516
-0.00080808346
-0.12711593
-0.0010591054
-0.15258369
-0.0013620733
-0.183139
-0.0017129965
-0.21993042
-0.0021384689
-0.26409503
-0.0026649774
-0.31718427
-0.0033521918
-0.38082491
-0.0042983607
-0.45700245
-0.0056865874
-0.54779588
-0.0077975637
-0.65550019
-0.011005596
-0.78258993
-0.015707959
-0.9321036
-0.022261457
-1.1080076