/*--------------------------------*- C++ -*----------------------------------*\
  =========                 |
  \\      /  F ield         | OpenFOAM: The Open Source CFD Toolbox
   \\    /   O peration     | Website:  https://openfoam.org
    \\  /    A nd           | Version:  8
     \\/     M anipulation  |
\*---------------------------------------------------------------------------*/
FoamFile
{
    version     2.0;
    format      ascii;
    class       pointVectorField;
    location    "0.290003";
    object      pointDisplacement;
}
// * * * * * * * * * * * * * * * * * * * * * * * * * * * * * * * * * * * * * //

dimensions      [0 1 0 0 0 0 0];

internalField   nonuniform List<vector> 
40800
(
(0.0006251363 0 0.00052645141)
(0.00062544657 0 0.00043781312)
(0.00062535398 0 0.00043824319)
(0.00062502418 0 0.00052875705)
(0.00062534335 0 0.00043814149)
(0.00062501426 0 0.00052868097)
(0.00062532235 0 0.00043801714)
(0.00062499423 0 0.00052859961)
(0.00062528654 0 0.00043787748)
(0.00062495981 0 0.00052851053)
(0.00062522972 0 0.0004377231)
(0.00062490498 0 0.00052841593)
(0.0006251433 0 0.00043755617)
(0.00062482129 0 0.00052831989)
(0.00062501553 0 0.00043738175)
(0.00062469724 0 0.00052822936)
(0.00062483031 0 0.00043720881)
(0.00062451703 0 0.00052815544)
(0.00062456591 0 0.00043705274)
(0.00062425932 0 0.00052811551)
(0.00062419294 0 0.0004369382)
(0.00062389525 0 0.00052813648)
(0.00062367211 0 0.00043690345)
(0.0006233862 0 0.00052825885)
(0.00062295121 0 0.00043700692)
(0.00062268077 0 0.00052854348)
(0.00062196116 0 0.00043733634)
(0.00062171105 0 0.00052907999)
(0.00062061209 0 0.00043802165)
(0.00062038843 0 0.00052999932)
(0.00061878747 0 0.00043925323)
(0.00061859809 0 0.00053149056)
(0.00061633907 0 0.00044130464)
(0.00061619358 0 0.00053382449)
(0.0006130817 0 0.00044456721)
(0.00061299151 0 0.0005373855)
(0.00060878701 0 0.00044959264)
(0.00060876517 0 0.00054271375)
(0.00060318134 0 0.00045714255)
(0.00060324204 0 0.00055055114)
(0.00059594599 0 0.00046825101)
(0.00059610354 0 0.00056189662)
(0.00058672705 0 0.00048427393)
(0.00058699378 0 0.00057805692)
(0.00057515952 0 0.0005069214)
(0.00057554248 0 0.0006006789)
(0.00056089218 0 0.00053824472)
(0.00056138874 0 0.00063173856)
(0.00054365026 0 0.00058051696)
(0.00054424431 0 0.00067342643)
(0.00052326314 0 0.00063605227)
(0.00052391905 0 0.00072797819)
(0.00049975225 0 0.00070673085)
(0.00050041891 0 0.00079719676)
(0.00047331963 0 0.00079375549)
(0.00047392733 0 0.00088226032)
(0.00044441528 0 0.00089650774)
(0.00044488907 0 0.00098248329)
(0.00041356989 0 0.0010131701)
(0.00041384701 0 0.001095991)
(0.00038135895 0 0.0011402256)
(0.00038138347 0 0.001219264)
(0.00034859138 0 0.0012721056)
(0.00034835593 0 0.0013466665)
(0.0003159505 0 0.0014024584)
(0.0003154622 0 0.0014719172)
(0.00028414933 0 0.0015243274)
(0.0002834474 0 0.0015881566)
(0.00025405238 0 0.0016300801)
(0.0002532321 0 0.001687653)
(0.00022586352 0 0.0017156508)
(0.0002249651 0 0.0017668491)
(0.00019985422 0 0.0017777335)
(0.00019895556 0 0.001822432)
(0.00017597117 0 0.0018141976)
(0.00017508479 0 0.0018526666)
(0.00015385981 0 0.0018256868)
(0.00015300066 0 0.0018582535)
(0.00013369505 0 0.001811067)
(0.00013288598 0 0.0018382054)
(0.00011472978 0 0.0017708794)
(0.00011392846 0 0.0017929661)
(9.7042226e-05 0 0.001702677)
(9.6244929e-05 0 0.0017199553)
(8.1611223e-05 0 0.0016099198)
(8.0923493e-05 0 0.0016230348)
(6.7884667e-05 0 0.0014931692)
(6.728208e-05 0 0.0015026324)
(5.46322e-05 0 0.0013509274)
(5.406807e-05 0 0.0013573125)
(4.1912047e-05 0 0.0011757578)
(4.1373227e-05 0 0.0011789454)
(2.9336844e-05 0 0.00096203938)
(2.879458e-05 0 0.00096226135)
(1.7341153e-05 0 0.00070600392)
(1.6810198e-05 0 0.00070300951)
(6.6030583e-06 0 0.00041645454)
(6.0986102e-06 0 0.00041077078)
(-1.3055516e-06 0 0.0001343836)
(-1.758554e-06 0 0.00012712598)
(0 0 0)
(0 0 0)
(0.00062540972 0 0.00035108127)
(0.00062531869 0 0.00035146696)
(0.00062530733 0 0.00035129854)
(0.00062528531 0 0.00035110448)
(0.00062524812 0 0.000350882)
(0.00062518943 0 0.00035062946)
(0.00062510046 0 0.00035034635)
(0.00062496924 0 0.00035003436)
(0.00062477934 0 0.00034969865)
(0.00062450865 0 0.00034934998)
(0.00062412722 0 0.00034900808)
(0.00062359516 0 0.00034870583)
(0.00062285933 0 0.00034849624)
(0.00062184976 0 0.00034846202)
(0.00062047521 0 0.00034872791)
(0.00061861771 0 0.0003494811)
(0.00061612769 0 0.00035099109)
(0.00061281803 0 0.00035364851)
(0.00060845911 0 0.00035800844)
(0.00060277601 0 0.00036484497)
(0.00059545006 0 0.00037521898)
(0.00058613012 0 0.00039052625)
(0.00057445537 0 0.0004125342)
(0.00056008532 0 0.00044336515)
(0.00054275613 0 0.00048538177)
(0.00052231816 0 0.00054098187)
(0.00049880606 0 0.00061215533)
(0.00047244262 0 0.00070013665)
(0.00044368147 0 0.00080443887)
(0.00041304058 0 0.00092335247)
(0.00038109605 0 0.0010533826)
(0.00034860734 0 0.0011890784)
(0.00031624154 0 0.0013240318)
(0.00028468466 0 0.0014512234)
(0.00025473891 0 0.0015630964)
(0.00022665103 0 0.0016551837)
(0.000200679 0 0.0017239859)
(0.00017679439 0 0.0017671987)
(0.00015468694 0 0.001785105)
(0.00013448393 0 0.0017766338)
(0.00011552502 0 0.0017421755)
(9.7860768e-05 0 0.0016795805)
(8.2348305e-05 0 0.0015918353)
(6.8520275e-05 0 0.0014794866)
(5.5241328e-05 0 0.0013411188)
(4.2501263e-05 0 0.0011697764)
(2.9945301e-05 0 0.00095996929)
(1.7961018e-05 0 0.00070798565)
(7.2115757e-06 0 0.00042241468)
(-7.4242192e-07 0 0.00014283265)
(0 0 0)
(0.00062503343 0 0.00026621624)
(0.00062494458 0 0.00026657829)
(0.00062493202 0 0.00026636439)
(0.00062490842 0 0.00026611363)
(0.00062486912 0 0.00026581822)
(0.00062480765 0 0.00026547308)
(0.00062471505 0 0.00026507484)
(0.00062457903 0 0.00026462245)
(0.00062438289 0 0.00026411775)
(0.00062410401 0 0.0002635681)
(0.00062371192 0 0.00026298952)
(0.00062316598 0 0.00026241067)
(0.00062241209 0 0.0002618804)
(0.00062137923 0 0.00026147613)
(0.00061997462 0 0.00026131849)
(0.00061807887 0 0.0002615883)
(0.00061554069 0 0.00026255403)
(0.00061217123 0 0.00026460548)
(0.00060773932 0 0.00026830195)
(0.00060196879 0 0.00027443544)
(0.00059454144 0 0.00028409203)
(0.00058510901 0 0.00029870905)
(0.000573316 0 0.00032011176)
(0.00055883311 0 0.00035049259)
(0.00054140938 0 0.00039229809)
(0.00052091708 0 0.00044800403)
(0.0004974064 0 0.00051969431)
(0.0004711218 0 0.00060862664)
(0.00044252015 0 0.00071442918)
(0.00041210765 0 0.00083548779)
(0.00038045649 0 0.0009683365)
(0.00034828033 0 0.0011076247)
(0.00031622525 0 0.0012469131)
(0.0002849481 0 0.0013791416)
(0.00025519474 0 0.0014968149)
(0.00022724291 0 0.0015951305)
(0.000201342 0 0.0016703959)
(0.00017748449 0 0.0017201417)
(0.00015540167 0 0.0017443099)
(0.00013518161 0 0.0017418646)
(0.00011624075 0 0.0017130562)
(9.8608493e-05 0 0.0016559891)
(8.303362e-05 0 0.0015732289)
(6.9118123e-05 0 0.0014652867)
(5.5816749e-05 0 0.0013308198)
(4.3062698e-05 0 0.0011633131)
(3.0528752e-05 0 0.00095742358)
(1.8560707e-05 0 0.00070950833)
(7.8042524e-06 0 0.00042792284)
(-1.9862485e-07 0 0.00015080362)
(0 0 0)
(0.00062432868 0 0.00018317925)
(0.00062424151 0 0.00018349373)
(0.00062422712 0 0.00018320956)
(0.0006242012 0 0.00018287816)
(0.000624159 0 0.00018249289)
(0.00062409383 0 0.00018204686)
(0.00062399651 0 0.0001815333)
(0.00062385443 0 0.00018094688)
(0.00062365052 0 0.00018028445)
(0.0006233616 0 0.00017954833)
(0.00062295661 0 0.00017874845)
(0.00062239404 0 0.00017790798)
(0.00062161883 0 0.00017706961)
(0.00062055869 0 0.00017630519)
(0.00061911932 0 0.00017573)
(0.00061717972 0 0.00017552152)
(0.00061458669 0 0.00017594524)
(0.00061114962 0 0.00017739267)
(0.00060663561 0 0.00018043243)
(0.00060076754 0 0.00018587309)
(0.000593228 0 0.00019482999)
(0.00058367175 0 0.00020878399)
(0.00057174974 0 0.00022961908)
(0.00055714419 0 0.00025959692)
(0.00053961932 0 0.00030124121)
(0.0005190697 0 0.00035710121)
(0.0004955639 0 0.00042933803)
(0.00046936842 0 0.00051922483)
(0.00044094251 0 0.00062648913)
(0.00041078182 0 0.00074960086)
(0.00037945008 0 0.00088512628)
(0.00034761839 0 0.0010277994)
(0.00031590755 0 0.0011711718)
(0.00028494381 0 0.0013081593)
(0.00025542143 0 0.0014313222)
(0.00022763983 0 0.0015355775)
(0.00020184246 0 0.0016170488)
(0.00017804038 0 0.0016731047)
(0.00015600267 0 0.0017033715)
(0.00013578675 0 0.0017068202)
(0.00011687618 0 0.0016835733)
(9.9284911e-05 0 0.0016319476)
(8.3665502e-05 0 0.0015541357)
(6.9676833e-05 0 0.0014505964)
(5.6357842e-05 0 0.0013200498)
(4.3595971e-05 0 0.0011563849)
(3.1087146e-05 0 0.00095441448)
(1.9140133e-05 0 0.00071058222)
(8.3809392e-06 0 0.00043298817)
(3.2629801e-07 0 0.00015831132)
(0 0 0)
(0.00062330584 0 0.00010193219)
(0.00062321966 0 0.00010221065)
(0.00062320309 0 0.0001018672)
(0.00062317438 0 0.00010146484)
(0.00062312859 0 0.00010099468)
(0.00062305882 0 0.00010044746)
(0.00062295563 0 9.9813949e-05)
(0.00062280606 0 9.9085898e-05)
(0.00062259259 0 9.8257097e-05)
(0.00062229153 0 9.7325947e-05)
(0.00062187111 0 9.6298063e-05)
(0.00062128895 0 9.5191447e-05)
(0.00062048889 0 9.404298e-05)
(0.00061939729 0 9.2918594e-05)
(0.00061791822 0 9.1927358e-05)
(0.00061592881 0 9.1241776e-05)
(0.00061327396 0 9.1125383e-05)
(0.00060976105 0 9.1971854e-05)
(0.00060515554 0 9.4358654e-05)
(0.0005991797 0 9.9115465e-05)
(0.00059151705 0 0.00010739145)
(0.00058182575 0 0.00012071232)
(0.00056976404 0 0.00014102239)
(0.00055502642 0 0.00017065022)
(0.00053739414 0 0.00021219001)
(0.00051678496 0 0.00026825906)
(0.00049328828 0 0.00034108011)
(0.00046719256 0 0.00043193494)
(0.00043895899 0 0.00054063394)
(0.000409073 0 0.00066572018)
(0.00037808628 0 0.00080379227)
(0.00034662929 0 0.00094965715)
(0.00031529446 0 0.0010968741)
(0.00028467606 0 0.0012383519)
(0.00025542097 0 0.0013667015)
(0.00022784242 0 0.0014766095)
(0.00020217988 0 0.0015640269)
(0.0001784608 0 0.0016261651)
(0.00015648881 0 0.0016623583)
(0.00013629781 0 0.0016715605)
(0.00011743034 0 0.0016537774)
(9.9889369e-05 0 0.0016074996)
(8.4242423e-05 0 0.0015345901)
(7.0194917e-05 0 0.0014354413)
(5.6863915e-05 0 0.0013088269)
(4.410055e-05 0 0.0011490062)
(3.1620373e-05 0 0.0009509551)
(1.9699144e-05 0 0.0007112172)
(8.9414471e-06 0 0.0004376194)
(8.3279094e-07 0 0.00016536983)
(0 0 0)
(0.00062197277 0 2.2437932e-05)
(0.00062188744 0 2.2682279e-05)
(0.00062186798 0 2.2281644e-05)
(0.00062183568 0 2.1810765e-05)
(0.00062178543 0 2.1257981e-05)
(0.00062171008 0 2.061141e-05)
(0.00062159989 0 1.9858979e-05)
(0.00062144152 0 1.898944e-05)
(0.00062121696 0 1.7993403e-05)
(0.00062090189 0 1.6865511e-05)
(0.00062046375 0 1.5607313e-05)
(0.00061985919 0 1.4232089e-05)
(0.00061903083 0 1.2771451e-05)
(0.00061790356 0 1.1285574e-05)
(0.00061637969 0 9.8775129e-06)
(0.00061433433 0 8.7142805e-06)
(0.00061161028 0 8.0566425e-06)
(0.00060801294 0 8.3014934e-06)
(0.00060330628 0 1.0035843e-05)
(0.00059721235 0 1.4116813e-05)
(0.00058941582 0 2.1733884e-05)
(0.00057957846 0 3.4455529e-05)
(0.00056736665 0 5.4288925e-05)
(0.00055248799 0 8.3626393e-05)
(0.00053474266 0 0.0001251243)
(0.00051407242 0 0.00018146427)
(0.00049058993 0 0.00025491381)
(0.00046460544 0 0.00034675715)
(0.00043658121 0 0.00045687345)
(0.00040699247 0 0.00058386684)
(0.00037637573 0 0.00072436664)
(0.00034532217 0 0.00087324302)
(0.00031439322 0 0.0010240771)
(0.00028415032 0 0.001169785)
(0.00025519641 0 0.0013030274)
(0.00022785237 0 0.0014183036)
(0.00020235455 0 0.0015114069)
(0.00017874529 0 0.0015793954)
(0.00015685939 0 0.0016213354)
(0.00013671373 0 0.0016361431)
(0.00011790249 0 0.0016237174)
(0.00010042144 0 0.0015826881)
(8.4763102e-05 0 0.001514626)
(7.067108e-05 0 0.0014198474)
(5.7334319e-05 0 0.00129717)
(4.4575982e-05 0 0.0011411928)
(3.2128276e-05 0 0.00094705773)
(2.0237592e-05 0 0.00071142281)
(9.4856096e-06 0 0.0004418251)
(1.3212391e-06 0 0.00017199236)
(0 0 0)
(0.00062033849 0 -5.5339668e-05)
(0.00062025403 0 -5.5132716e-05)
(0.00062023127 0 -5.5595059e-05)
(0.00062019482 0 -5.6140063e-05)
(0.00062013935 0 -5.67805e-05)
(0.00062005747 0 -5.7529999e-05)
(0.0006199391 0 -5.8402774e-05)
(0.00061977049 0 -5.9413016e-05)
(0.0006195331 0 -6.0573585e-05)
(0.00061920193 0 -6.1894123e-05)
(0.00061874357 0 -6.3377976e-05)
(0.00061811359 0 -6.501733e-05)
(0.00061725328 0 -6.6786644e-05)
(0.0006160859 0 -6.863194e-05)
(0.00061451182 0 -7.0456604e-05)
(0.00061240397 0 -7.2099286e-05)
(0.00060960294 0 -7.3302321e-05)
(0.00060591223 0 -7.3662626e-05)
(0.00060109446 0 -7.2586374e-05)
(0.00059487219 0 -6.9174829e-05)
(0.00058693128 0 -6.2187509e-05)
(0.00057693696 0 -5.0026077e-05)
(0.00056456494 0 -3.0613972e-05)
(0.00054953678 0 -1.4993436e-06)
(0.00053167327 0 4.0025485e-05)
(0.00051094155 0 9.670419e-05)
(0.0004874793 0 0.0001708336)
(0.00046161822 0 0.00026369338)
(0.00043382081 0 0.00037521789)
(0.00040455166 0 0.00050406077)
(0.00037432935 0 0.00064687842)
(0.00034370647 0 0.00079859776)
(0.00031321161 0 0.00095283283)
(0.0002833726 0 0.0011025196)
(0.00025475147 0 0.001240369)
(0.00022767177 0 0.0013607328)
(0.00020236725 0 0.0014592615)
(0.00017889363 0 0.0015328659)
(0.00015711402 0 0.0015803659)
(0.00013703359 0 0.0016006245)
(0.00011829201 0 0.0015934415)
(0.00010088076 0 0.0015575552)
(8.5226487e-05 0 0.0014942778)
(7.1104092e-05 0 0.0014038409)
(5.7768442e-05 0 0.001285098)
(4.5021792e-05 0 0.0011329595)
(3.2610725e-05 0 0.00094273627)
(2.0755328e-05 0 0.00071120957)
(1.0013236e-05 0 0.00044561389)
(1.792018e-06 0 0.00017819147)
(0 0 0)
(0.00061841246 0 -0.00013143645)
(0.00061832843 0 -0.00013126495)
(0.00061830167 0 -0.00013178675)
(0.00061826028 0 -0.00013240307)
(0.00061819872 0 -0.00013312824)
(0.00061810932 0 -0.000133978)
(0.00061798164 0 -0.00013496902)
(0.00061780144 0 -0.00013611863)
(0.00061754958 0 -0.00013744334)
(0.00061720029 0 -0.00013895703)
(0.0006167192 0 -0.00014066784)
(0.0006160607 0 -0.0001425733)
(0.00061516462 0 -0.00014465373)
(0.00061395244 0 -0.00014686142)
(0.00061232238 0 -0.0001491066)
(0.000610145 0 -0.00015123549)
(0.00060725859 0 -0.00015299749)
(0.00060346519 0 -0.00015396578)
(0.00059852776 0 -0.00015350581)
(0.00059216919 0 -0.00015070291)
(0.0005840744 0 -0.00014429908)
(0.00057391234 0 -0.00013266048)
(0.0005613685 0 -0.00011366393)
(0.00054618099 0 -8.474847e-05)
(0.00052819491 0 -4.3123596e-05)
(0.00050740239 0 1.3967214e-05)
(0.00048396764 0 8.8833423e-05)
(0.00045824317 0 0.00018274323)
(0.00043069055 0 0.000295673)
(0.00040176321 0 0.00042631512)
(0.00037195919 0 0.00057134932)
(0.00034179285 0 0.00072575353)
(0.00031175846 0 0.00088318389)
(0.0002823499 0 0.0010366072)
(0.00025409082 0 0.0011787871)
(0.00022730365 0 0.0013039624)
(0.00020221951 0 0.0014076573)
(0.00017890635 0 0.0014866418)
(0.00015725283 0 0.0015395098)
(0.00013725696 0 0.0015650586)
(0.00011859854 0 0.001562996)
(0.00010126717 0 0.0015321426)
(8.5631756e-05 0 0.0014735793)
(7.1492926e-05 0 0.0013874482)
(5.8165735e-05 0 0.0012726306)
(4.5437579e-05 0 0.0011243227)
(3.3067549e-05 0 0.00093800379)
(2.1252176e-05 0 0.00071058698)
(1.0524146e-05 0 0.000448994)
(2.2454521e-06 0 0.00018397925)
(0 0 0)
(0.00061620404 0 -0.00020588722)
(0.00061611994 0 -0.0002057494)
(0.00061608886 0 -0.00020632771)
(0.00061604209 0 -0.00020701104)
(0.00061597381 0 -0.00020781642)
(0.00061587598 0 -0.00020876241)
(0.00061573776 0 -0.00020986893)
(0.00061554438 0 -0.00021115668)
(0.00061527607 0 -0.00021264584)
(0.00061490625 0 -0.0002143543)
(0.00061439954 0 -0.00021629459)
(0.00061370906 0 -0.00021846918)
(0.00061277304 0 -0.0002208638)
(0.00061151099 0 -0.00022343687)
(0.00060981878 0 -0.00022610581)
(0.00060756411 0 -0.00022872694)
(0.00060458458 0 -0.00023103618)
(0.00060068296 0 -0.00023257226)
(0.00059562081 0 -0.00023265096)
(0.00058911734 0 -0.0002303733)
(0.00058085679 0 -0.00022450263)
(0.00057051414 0 -0.00021335052)
(0.00055778552 0 -0.00019477465)
(0.00054242879 0 -0.00016609272)
(0.00052431621 0 -0.00012433821)
(0.00050346498 0 -6.6755575e-05)
(0.00048006621 0 8.9095473e-06)
(0.00045449248 0 0.00010390807)
(0.00042720325 0 0.00021824534)
(0.00039863992 0 0.00035064289)
(0.00036927756 0 0.00049780024)
(0.00033959227 0 0.00065474048)
(0.00031004301 0 0.00081516995)
(0.00028108964 0 0.00097209622)
(0.00025321966 0 0.0011183382)
(0.00022675141 0 0.0012480542)
(0.00020191328 0 0.0013566578)
(0.00017878422 0 0.001440786)
(0.00015727615 0 0.0014988249)
(0.00013738352 0 0.0015294983)
(0.00011882183 0 0.0015324268)
(0.00010158058 0 0.0015064908)
(8.5978244e-05 0 0.0014525643)
(7.1836627e-05 0 0.0013706957)
(5.8525668e-05 0 0.0012597875)
(4.5822926e-05 0 0.0011152979)
(3.3498598e-05 0 0.00093287427)
(2.1727974e-05 0 0.00070956545)
(1.1018146e-05 0 0.00045197371)
(2.681852e-06 0 0.0001893673)
(0 0 0)
(0.00061372071 0 -0.00027872594)
(0.00061363609 0 -0.0002786208)
(0.00061359996 0 -0.00027925483)
(0.00061354698 0 -0.00028000451)
(0.00061347103 0 -0.00028088976)
(0.00061336371 0 -0.00028193204)
(0.0006132137 0 -0.00028315438)
(0.00061300569 0 -0.00028458072)
(0.00061271916 0 -0.00028623488)
(0.00061232664 0 -0.00028813864)
(0.00061179166 0 -0.00029030871)
(0.00061106591 0 -0.00029275229)
(0.0006100859 0 -0.00029546022)
(0.000608769 0 -0.00029839655)
(0.00060700842 0 -0.00030148392)
(0.00060467019 0 -0.00030458259)
(0.00060159324 0 -0.00030738829)
(0.00059757918 0 -0.00030942274)
(0.00059238388 0 -0.00031001744)
(0.00058572277 0 -0.00030826105)
(0.00057728271 0 -0.00030289687)
(0.00056674604 0 -0.00029219178)
(0.00055382228 0 -0.00027395127)
(0.00053828973 0 -0.00024545499)
(0.00052004743 0 -0.0002035852)
(0.00049914015 0 -0.00014547288)
(0.0004757871 0 -6.8944004e-05)
(0.0004503794 0 2.718474e-05)
(0.00042337279 0 0.00014293637)
(0.00039519557 0 0.00027705097)
(0.00036629765 0 0.00042624447)
(0.00033711653 0 0.00058558015)
(0.0003080753 0 0.00074882149)
(0.00027959999 0 0.000909026)
(0.00025214392 0 0.0010590708)
(0.00022601922 0 0.0011930629)
(0.00020145111 0 0.0013063206)
(0.00017852862 0 0.0013953564)
(0.00015718475 0 0.0014583659)
(0.00013741339 0 0.0014939938)
(0.00011896189 0 0.0015017782)
(0.00010182106 0 0.0014806399)
(8.6265466e-05 0 0.0014312661)
(7.2134408e-05 0 0.0013536101)
(5.8847772e-05 0 0.0012465889)
(4.6177478e-05 0 0.0011059016)
(3.3903689e-05 0 0.00092736094)
(2.2182551e-05 0 0.00070815498)
(1.1495045e-05 0 0.0004545609)
(3.1014853e-06 0 0.00019436661)
(0 0 0)
(0.00061096982 0 -0.00034998584)
(0.00061088518 0 -0.00034991695)
(0.00061084344 0 -0.00035061196)
(0.00061078349 0 -0.0003514348)
(0.00061069889 0 -0.00035240664)
(0.00061058088 0 -0.00035355078)
(0.00061041768 0 -0.0003548925)
(0.00061019335 0 -0.0003564587)
(0.00060988664 0 -0.00035827659)
(0.00060946912 0 -0.00036037207)
(0.00060890309 0 -0.00036276674)
(0.00060813875 0 -0.00036547307)
(0.00060711066 0 -0.00036848817)
(0.00060573393 0 -0.00037178232)
(0.0006038991 0 -0.00037528418)
(0.00060147299 0 -0.00037882361)
(0.00059829468 0 -0.00038207844)
(0.00059415974 0 -0.00038458901)
(0.00058881888 0 -0.00038570155)
(0.00058198711 0 -0.00038447564)
(0.00057335482 0 -0.00037960108)
(0.00056261226 0 -0.000369304)
(0.00054948457 0 -0.00035130634)
(0.00053377215 0 -0.00032285117)
(0.00051539742 0 -0.00028083084)
(0.00049443711 0 -0.00022219195)
(0.00047114245 0 -0.00014472971)
(0.00044591721 0 -4.7426312e-05)
(0.00041921312 0 6.9748943e-05)
(0.00039144416 0 0.00020554616)
(0.00036303284 0 0.00035669444)
(0.00033437767 0 0.00051829209)
(0.00030586559 0 0.00068416507)
(0.00027788936 0 0.00084743131)
(0.0002508699 0 0.0010010288)
(0.0002251115 0 0.0011390387)
(0.0002008359 0 0.0012566992)
(0.00017814117 0 0.0013504081)
(0.00015697961 0 0.0014181848)
(0.0001373468 0 0.0014585936)
(0.00011901881 0 0.0014710931)
(0.00010198876 0 0.0014546287)
(8.6493069e-05 0 0.0014097178)
(7.2385567e-05 0 0.0013362177)
(5.9131607e-05 0 0.0012330548)
(4.6500874e-05 0 0.0010961495)
(3.428267e-05 0 0.00092147783)
(2.2615734e-05 0 0.00070636599)
(1.1954648e-05 0 0.00045676375)
(3.5046207e-06 0 0.0001989881)
(0 0 0)
(0.00060796152 0 -0.00041969973)
(0.00060787512 0 -0.00041966599)
(0.000607827 0 -0.00042042131)
(0.00060775917 0 -0.00042131692)
(0.00060766492 0 -0.00042237544)
(0.00060753506 0 -0.00042362198)
(0.00060735732 0 -0.00042508376)
(0.00060711512 0 -0.00042679042)
(0.00060678639 0 -0.00042877226)
(0.0006063416 0 -0.00043105928)
(0.00060574176 0 -0.00043367757)
(0.00060493532 0 -0.00043664553)
(0.00060385478 0 -0.0004399669)
(0.00060241257 0 -0.0004436209)
(0.00060049866 0 -0.00044752947)
(0.00059798128 0 -0.00045148363)
(0.00059469482 0 -0.00045517085)
(0.00059042848 0 -0.0004581582)
(0.00058493058 0 -0.00045977633)
(0.00057791589 0 -0.00045905684)
(0.00056907861 0 -0.00045464681)
(0.00055811847 0 -0.00044471983)
(0.00054477809 0 -0.00042691205)
(0.00052888157 0 -0.00039838289)
(0.00051037531 0 -0.00035608669)
(0.00048936873 0 -0.00029687932)
(0.00046614545 0 -0.00021845211)
(0.00044112004 0 -0.00011992798)
(0.00041473903 0 -1.3187834e-06)
(0.00038740048 0 0.0001361288)
(0.00035949724 0 0.00028915487)
(0.00033138843 0 0.00045288757)
(0.00030342484 0 0.00062121958)
(0.0002759681 0 0.0007873744)
(0.00024940705 0 0.00094432217)
(0.00022403532 0 0.0010860933)
(0.00020007203 0 0.0012078765)
(0.00017762408 0 0.0013059913)
(0.0001566621 0 0.0013783303)
(0.00013718444 0 0.0014233435)
(0.00011899297 0 0.0014404129)
(0.00010208402 0 0.0014284949)
(8.6660871e-05 0 0.0013879516)
(7.2589568e-05 0 0.0013185449)
(5.9376797e-05 0 0.001219206)
(4.6792808e-05 0 0.0010860586)
(3.4635349e-05 0 0.00091523827)
(2.3027346e-05 0 0.00070420857)
(1.239676e-05 0 0.00045858995)
(3.891482e-06 0 0.00020324201)
(0 0 0)
(0.00060470076 0 -0.00048789928)
(0.0006046133 0 -0.00048790886)
(0.00060455798 0 -0.0004887314)
(0.00060448143 0 -0.00048970447)
(0.00060437663 0 -0.00049085043)
(0.00060423399 0 -0.00049219623)
(0.00060404061 0 -0.00049377247)
(0.0006037792 0 -0.00049561226)
(0.0006034267 0 -0.0004977505)
(0.00060295244 0 -0.00050022207)
(0.0006023159 0 -0.00050305878)
(0.00060146366 0 -0.00050628482)
(0.00060032594 0 -0.00050991001)
(0.00059881319 0 -0.00051391965)
(0.00059681678 0 -0.00051821256)
(0.00059420327 0 -0.00052257027)
(0.00059079976 0 -0.0005266992)
(0.00058639122 0 -0.00053016142)
(0.00058072444 0 -0.00053227276)
(0.00057351413 0 -0.00053203993)
(0.00056445897 0 -0.00052806731)
(0.00055326974 0 -0.0005184728)
(0.0005397089 0 -0.00050079718)
(0.00052362495 0 -0.00047210611)
(0.00050499298 0 -0.00042936053)
(0.00048394851 0 -0.00036949833)
(0.00046080817 0 -0.00029011189)
(0.00043600234 0 -0.00019031995)
(0.00040996563 0 -7.0266888e-05)
(0.00038307956 0 6.8799623e-05)
(0.0003557051 0 0.00022362925)
(0.00032816396 0 0.00038941937)
(0.00030076922 0 0.00056009468)
(0.00027385032 0 0.00072897328)
(0.00024776625 0 0.00088907461)
(0.00022279828 0 0.0010343495)
(0.00019916458 0 0.0011599683)
(0.0001769803 0 0.0012621875)
(0.00015623382 0 0.0013388487)
(0.00013692707 0 0.0013882874)
(0.00011888487 0 0.0014097777)
(0.00010210722 0 0.0014022753)
(8.6768803e-05 0 0.0013659994)
(7.2745952e-05 0 0.0013006178)
(5.9583004e-05 0 0.0012050627)
(4.7052984e-05 0 0.001075645)
(3.496157e-05 0 0.00090865612)
(2.3417203e-05 0 0.00070169298)
(1.2821184e-05 0 0.0004600476)
(4.2622855e-06 0 0.00020713843)
(0 0 0)
(0.00060119728 0 -0.00055461594)
(0.00060110874 0 -0.00055464837)
(0.00060104647 0 -0.00055551721)
(0.00060096126 0 -0.00055654733)
(0.00060084559 0 -0.00055776603)
(0.00060068934 0 -0.00055920344)
(0.00060047898 0 -0.000560893)
(0.00060019647 0 -0.00056287052)
(0.00059981774 0 -0.00056517404)
(0.00059931098 0 -0.00056784146)
(0.00059863407 0 -0.00057090835)
(0.00059773171 0 -0.00057440321)
(0.00059653177 0 -0.00057834082)
(0.00059494432 0 -0.00058269874)
(0.00059286139 0 -0.00058735931)
(0.00059014428 0 -0.00059212146)
(0.00058661412 0 -0.00059669723)
(0.00058205293 0 -0.00060062923)
(0.00057620523 0 -0.00060322235)
(0.00056878633 0 -0.00060345754)
(0.00055950051 0 -0.0005998926)
(0.00054807428 0 -0.00059054798)
(0.0005342897 0 -0.00057289931)
(0.00051801519 0 -0.00054399349)
(0.00049925959 0 -0.00050070013)
(0.00047818832 0 -0.00044005431)
(0.00045514683 0 -0.00035967218)
(0.0004305793 0 -0.00025860629)
(0.00040490858 0 -0.00013710123)
(0.00037849965 0 3.5925544e-06)
(0.00035167806 0 0.0001602102)
(0.00032472588 0 0.000328007)
(0.00029791754 0 0.00050092423)
(0.00027154854 0 0.00067229845)
(0.00024595409 0 0.00083527744)
(0.00022140502 0 0.00098380102)
(0.00019811768 0 0.0011130228)
(0.00017621369 0 0.0012191016)
(0.0001556971 0 0.0012998129)
(0.00013657583 0 0.001353467)
(0.00011869521 0 0.0013792259)
(0.00010205892 0 0.0013760054)
(8.6816929e-05 0 0.0013438926)
(7.2854399e-05 0 0.0012824626)
(5.9749947e-05 0 0.0011906457)
(4.7281141e-05 0 0.0010649256)
(3.5261145e-05 0 0.00090174467)
(2.3785122e-05 0 0.00069882939)
(1.3227723e-05 0 0.00046114425)
(4.6172241e-06 0 0.00021068728)
(0 0 0)
(0.00059745866 0 -0.00061988013)
(0.00059736763 0 -0.00061994541)
(0.00059729732 0 -0.00062087092)
(0.00059720228 0 -0.00062196786)
(0.0005970745 0 -0.00062326563)
(0.00059690337 0 -0.00062479684)
(0.00059667464 0 -0.00062659787)
(0.00059636943 0 -0.00062870814)
(0.00059596259 0 -0.00063116954)
(0.00059542094 0 -0.00063402454)
(0.00059470069 0 -0.00063731335)
(0.00059374441 0 -0.00064106985)
(0.00059247811 0 -0.00064531533)
(0.00059081245 0 -0.00065000841)
(0.00058863764 0 -0.0006550285)
(0.00058580909 0 -0.00066019162)
(0.00058214316 0 -0.00066520281)
(0.00057741844 0 -0.00066959425)
(0.00057137727 0 -0.0006726571)
(0.00056373654 0 -0.00067334188)
(0.00055421189 0 -0.0006701133)
(0.00054254683 0 -0.00066088103)
(0.00052853488 0 -0.00064313381)
(0.00051206497 0 -0.00061396)
(0.00049318576 0 -0.00057010792)
(0.00047210252 0 -0.00050855331)
(0.00044917835 0 -0.00042709278)
(0.00042486543 0 -0.0003247869)
(0.00039958773 0 -0.00020178546)
(0.00037368645 0 -5.9388843e-05)
(0.00034744224 0 9.9036935e-05)
(0.00032109296 0 0.00026872052)
(0.00029487972 0 0.00044367939)
(0.0002690696 0 0.00061731127)
(0.00024397583 0 0.00078289368)
(0.00021985989 0 0.00093441787)
(0.00019693467 0 0.0010670213)
(0.00017532719 0 0.0011767712)
(0.00015505435 0 0.0012612955)
(0.00013613176 0 0.0013189228)
(0.0001184248 0 0.001348794)
(0.00010193973 0 0.0013497194)
(8.6805416e-05 0 0.0013216613)
(7.2914664e-05 0 0.0012641046)
(5.9877388e-05 0 0.0011759752)
(4.7477041e-05 0 0.0010539165)
(3.5533922e-05 0 0.00089451768)
(2.413092e-05 0 0.00069562816)
(1.361618e-05 0 0.0004618879)
(4.9564786e-06 0 0.00021389793)
(0 0 0)
(0.00059348961 0 -0.00068372173)
(0.00059339673 0 -0.0006838202)
(0.0005933177 0 -0.00068480332)
(0.00059321195 0 -0.00068596858)
(0.00059307103 0 -0.00068734732)
(0.00059288375 0 -0.00068897438)
(0.00059263513 0 -0.00069088881)
(0.00059230538 0 -0.00069313314)
(0.00059186822 0 -0.0006957528)
(0.00059128903 0 -0.00069879438)
(0.00059052224 0 -0.00070230241)
(0.00058950817 0 -0.00070631518)
(0.00058817174 0 -0.00071085769)
(0.000586424 0 -0.00071587816)
(0.00058415143 0 -0.00072125436)
(0.00058120332 0 -0.00072681097)
(0.00057739201 0 -0.00073224711)
(0.0005724924 0 -0.00073708511)
(0.00056624467 0 -0.00074060552)
(0.00055837308 0 -0.00074168604)
(0.00054860761 0 -0.00073867463)
(0.0005366974 0 -0.00072947132)
(0.00052244812 0 -0.00071156982)
(0.00050578319 0 -0.00068200245)
(0.0004867881 0 -0.00063750412)
(0.00046570506 0 -0.00057499572)
(0.00044291383 0 -0.00049241984)
(0.00041888046 0 -0.00038882674)
(0.00039403249 0 -0.00026420892)
(0.00036866655 0 -0.00012006158)
(0.00034301405 0 4.0099844e-05)
(0.0003172754 0 0.0002115058)
(0.00029166337 0 0.0003882865)
(0.00026642117 0 0.00056396766)
(0.00024183914 0 0.00073192761)
(0.00021816894 0 0.00088621482)
(0.00019561967 0 0.0010219634)
(0.00017432315 0 0.0011351776)
(0.00015430776 0 0.0012233276)
(0.00013559679 0 0.0012847154)
(0.00011807471 0 0.0013185168)
(0.00010175044 0 0.0013234502)
(8.6734567e-05 0 0.0012993353)
(7.2926643e-05 0 0.0012455691)
(5.9965156e-05 0 0.001161072)
(4.764048e-05 0 0.0010426349)
(3.5779722e-05 0 0.00088698848)
(2.4454405e-05 0 0.00069209934)
(1.3986357e-05 0 0.00046228616)
(5.2802129e-06 0 0.00021677993)
(0 0 0)
(0.00058929868 0 -0.00074616991)
(0.0005892027 0 -0.00074630145)
(0.00058911425 0 -0.00074734231)
(0.00058899696 0 -0.00074857618)
(0.00058884188 0 -0.00075003635)
(0.00058863718 0 -0.00075175994)
(0.00058836714 0 -0.00075378864)
(0.00058801097 0 -0.00075616811)
(0.00058754119 0 -0.00075894735)
(0.00058692163 0 -0.00076217707)
(0.0005861048 0 -0.00076590657)
(0.00058502869 0 -0.00077017991)
(0.0005836183 0 -0.00077500989)
(0.00058178434 0 -0.0007803426)
(0.00057940776 0 -0.00078606811)
(0.00057633209 0 -0.00079200846)
(0.00057236558 0 -0.00079785707)
(0.00056727938 0 -0.00080312446)
(0.00056081515 0 -0.00080706296)
(0.00055270894 0 -0.00080844705)
(0.00054269507 0 -0.00080558156)
(0.00053052512 0 -0.0007963931)
(0.00051603062 0 -0.00077829449)
(0.000499175 0 -0.00074821126)
(0.00048007855 0 -0.00070289279)
(0.00045900841 0 -0.00063937358)
(0.00043636979 0 -0.00055564979)
(0.00041265571 0 -0.00045060806)
(0.00038827216 0 -0.00032427337)
(0.00036345699 0 -0.00017843466)
(0.00033840364 0 -1.6675794e-05)
(0.00031328272 0 0.00015629777)
(0.00028827902 0 0.00033472497)
(0.00026361241 0 0.00051225814)
(0.00023955158 0 0.00068238052)
(0.00021633817 0 0.0008392039)
(0.00019417724 0 0.00097786974)
(0.00017320453 0 0.0010943265)
(0.00015345977 0 0.0011859347)
(0.00013497303 0 0.0012509049)
(0.00011764589 0 0.0012884277)
(0.00010149188 0 0.0012972293)
(8.660477e-05 0 0.0012769432)
(7.2890295e-05 0 0.0012268808)
(6.0013122e-05 0 0.0011459561)
(4.7771284e-05 0 0.001031097)
(3.5998399e-05 0 0.0008791707)
(2.47554e-05 0 0.00068825353)
(1.4338057e-05 0 0.00046234701)
(5.5885695e-06 0 0.0002193422)
(0 0 0)
(0.00058489068 0 -0.00080725309)
(0.00058479201 0 -0.00080741767)
(0.00058469345 0 -0.00080851638)
(0.00058456377 0 -0.00080981902)
(0.00058439347 0 -0.00081136086)
(0.00058417008 0 -0.00081318132)
(0.00058387703 0 -0.00081532477)
(0.0005834925 0 -0.00081783994)
(0.00058298767 0 -0.00082077943)
(0.0005823247 0 -0.00082419808)
(0.00058145397 0 -0.00082815008)
(0.00058031188 0 -0.00083268634)
(0.00057882458 0 -0.00083779909)
(0.00057690003 0 -0.00084343219)