/*--------------------------------*- C++ -*----------------------------------*\
  =========                 |
  \\      /  F ield         | OpenFOAM: The Open Source CFD Toolbox
   \\    /   O peration     | Website:  https://openfoam.org
    \\  /    A nd           | Version:  8
     \\/     M anipulation  |
\*---------------------------------------------------------------------------*/
FoamFile
{
    version     2.0;
    format      ascii;
    class       volScalarField;
    location    "0.290003";
    object      rho;
}
// * * * * * * * * * * * * * * * * * * * * * * * * * * * * * * * * * * * * * //

dimensions      [1 -3 0 0 0 0 0];

internalField   nonuniform List<scalar> 
20000
(
0.7352083
0.73639284
0.737887
0.74083314
0.74685216
0.75898354
0.78266865
0.79338199
0.79271141
0.79435544
0.79446014
0.79636725
0.79736021
0.79982274
0.80183576
0.80521968
0.80854846
0.81332069
0.81847825
0.82528868
0.83305039
0.84281094
0.85420611
0.8680274
0.88413031
0.9029524
0.92427369
0.94794834
0.97337032
0.99991073
1.0265964
1.0520063
1.0745811
1.093638
1.1091041
1.1213828
1.1309026
1.1383346
1.1440551
1.1485227
1.1520159
1.1548194
1.1571014
1.1591205
1.1609642
1.1624594
1.1638281
1.1651628
1.1661358
1.168621
0.73735241
0.73836366
0.73980773
0.74281127
0.74906037
0.76166446
0.7855979
0.79537225
0.7946711
0.79639934
0.7965337
0.79852558
0.79956833
0.80212939
0.80422364
0.80773397
0.81118663
0.81612441
0.82146385
0.82849906
0.83652219
0.84658438
0.85832232
0.87250713
0.88898412
0.90813473
0.92967256
0.95333429
0.97841557
1.0042198
1.029861
1.0541861
1.0759304
1.0944271
1.1095128
1.1215918
1.1309987
1.1383715
1.1440781
1.1485423
1.152034
1.1548398
1.1571411
1.1591808
1.1610225
1.1625062
1.1638537
1.1652303
1.166233
1.1686896
0.73965401
0.74050704
0.74190088
0.7449819
0.75152002
0.76475402
0.78878126
0.79747498
0.79673384
0.79851904
0.79867379
0.80073804
0.80183348
0.80449055
0.80667257
0.81030927
0.81389307
0.81900165
0.8245359
0.83181057
0.84011503
0.85050231
0.86261087
0.87719466
0.89408649
0.91361169
0.93541014
0.95909933
0.98386832
1.0089555
1.0335457
1.0567353
1.0775356
1.0953691
1.1100599
1.1219012
1.1311636
1.1384527
1.1441099
1.1485521
1.1520435
1.1548548
1.1571683
1.1592208
1.1610585
1.1625402
1.1639503
1.1652956
1.1667539
1.1686623
0.74198208
0.74267743
0.74401817
0.74717688
0.75401573
0.76795782
0.79189438
0.79957212
0.7988634
0.80072126
0.80090809
0.8030536
0.80420468
0.80695941
0.80922766
0.81299089
0.8167065
0.82198937
0.82772358
0.83524302
0.84383348
0.85454875
0.86703028
0.8820148
0.899322
0.91922069
0.94127705
0.96500079
0.98949697
1.0139606
1.0376308
1.0597784
1.0796406
1.0967463
1.1109242
1.1224394
1.1314932
1.138653
1.1442344
1.1486345
1.1521074
1.1549114
1.1572313
1.1592916
1.1611188
1.1625931
1.1640166
1.1653929
1.1670228
1.1686646
0.74438105
0.74495609
0.74624728
0.74948851
0.75665252
0.77142664
0.79507607
0.80176664
0.80110499
0.803028
0.80324281
0.80546396
0.80666943
0.80952071
0.81187889
0.81577321
0.81963023
0.82509791
0.8310461
0.83882393
0.8477162
0.85877598
0.87165014
0.88705641
0.90479948
0.92508632
0.94740482
0.97115849
0.99537733
1.0192265
1.0420011
1.0631247
1.0820304
1.0983667
1.1119918
1.1231331
1.1319377
1.1389365
1.1444169
1.148757
1.1522004
1.1549888
1.1573078
1.1593687
1.1611812
1.1626487
1.1640979
1.1655289
1.1673211
1.1686649
0.74690805
0.74731123
0.74856508
0.75189384
0.75939333
0.7751126
0.79825925
0.80407774
0.80343303
0.8054206
0.80566564
0.80796424
0.80922757
0.81217908
0.81463296
0.81866542
0.8226734
0.8283359
0.83450965
0.84255642
0.85176259
0.86317974
0.8764618
0.89230489
0.91049613
0.93117512
0.9537479
0.97751684
1.0014514
1.0247028
1.046623
1.0667611
1.0847166
1.1002562
1.1132772
1.1239951
1.1325086
1.139314
1.1446702
1.148933
1.1523327
1.1550959
1.1574071
1.1594624
1.1612551
1.1627112
1.1641783
1.1657244
1.1675225
1.1686831
0.74948351
0.74973746
0.75095987
0.75438478
0.762231
0.77901335
0.80142771
0.80648998
0.80583982
0.80789228
0.80817076
0.81054875
0.81187458
0.81493131
0.81748926
0.82166869
0.82583884
0.83170673
0.83811814
0.84644564
0.85598083
0.8677727
0.88148308
0.89778311
0.91643852
0.93751434
0.96032989
0.98409024
1.0077163
1.0303604
1.0514371
1.0706087
1.087619
1.1023477
1.1147373
1.1249974
1.133188
1.1397733
1.1449846
1.1491546
1.1524986
1.1552281
1.1575246
1.1595677
1.1613355
1.162777
1.1642669
1.1659715
1.1676889
1.1687161
0.75212848
0.75223743
0.75343642
0.75695879
0.76515847
0.78311118
0.80456608
0.80895783
0.80832092
0.81044065
0.81075754
0.8132188
0.81461369
0.81778243
0.82045344
0.82478822
0.82913022
0.83521245
0.84187249
0.85049215
0.86037176
0.87255617
0.88671483
0.90349039
0.92262232
0.94409377
0.96713296
0.99085338
1.014141
1.036164
1.056405
1.0746287
1.0907046
1.1046166
1.1163531
1.1261281
1.1339687
1.1403108
1.1453589
1.1494218
1.1526986
1.1553863
1.1576615
1.159686
1.1614234
1.1628465
1.1643665
1.1662328
1.1678312
1.1687569
0.75481699
0.75478807
0.75597419
0.75961152
0.76818046
0.78739421
0.80767771
0.81150362
0.81088205
0.81306942
0.81342889
0.81597768
0.81744908
0.82073662
0.82352873
0.82802573
0.83254831
0.83885329
0.84577301
0.85469752
0.86493946
0.87753657
0.89216568
0.90943613
0.92905635
0.95091813
0.97415567
0.99779708
1.0207078
1.0420856
1.0614879
1.0787754
1.093928
1.1070242
1.1180968
1.1273678
1.134838
1.1409181
1.1457873
1.1497307
1.1529301
1.1555686
1.1578164
1.159816
1.1615168
1.1629204
1.1644887
1.1664924
1.167965
1.1688041
0.75759129
0.75741763
0.75859862
0.76236695
0.77132463
0.79185304
0.81076708
0.81412339
0.81352309
0.81577986
0.8161885
0.81883101
0.82038641
0.82379771
0.82671671
0.83138144
0.8360927
0.84262888
0.84982035
0.85906424
0.86968809
0.88271911
0.89784031
0.91562367
0.93573971
0.95798028
0.98138309
1.0048998
1.0273898
1.0480943
1.0666516
1.0830123
1.0972544
1.1095411
1.1199451
1.1287
1.1357847
1.1415879
1.1462654
1.1500784
1.1531916
1.1557742
1.1579888
1.1599572
1.1616146
1.1630004
1.1646474
1.1667343
1.1680896
1.1688554
0.76043131
0.76011327
0.7612975
0.7652188
0.7745965
0.79645284
0.81381855
0.81681148
0.81624534
0.81858006
0.81904562
0.82178485
0.8234274
0.8269644
0.83001535
0.83485382
0.8397626
0.84653923
0.85401582
0.86359591
0.87462332
0.88811076
0.90374638
0.92206012
0.94267652
0.96527825
0.98880602
1.0121456
1.0341659
1.0541646
1.071866
1.0873066
1.1006514
1.1121385
1.1218754
1.1301081
1.1367971
1.1423124
1.1467877
1.1504614
1.1534805
1.1560015
1.1581778
1.1601085
1.1617151
1.1630885
1.1648553
1.1669492
1.1682061
1.1689087
0.76334672
0.76288035
0.76407803
0.76818081
0.77803174
0.80117908
0.8168496
0.81959818
0.81907011
0.8214813
0.82200249
0.82483542
0.82656649
0.83023262
0.83342267
0.83844209
0.84355768
0.85058515
0.85836294
0.86829839
0.87975222
0.89371862
0.90989019
0.92874941
0.9498653
0.97280278
0.99640732
1.0195117
1.0410098
1.0602684
1.077102
1.0916281
1.1040898
1.1147905
1.1238665
1.131576
1.1378637
1.1430835
1.147349
1.1508759
1.1537947
1.156249
1.1583825
1.1602687
1.1618172
1.1631863
1.1651093
1.1671391
1.1683146
1.1689624
0.76637866
0.76576428
0.766976
0.77128088
0.78167375
0.80602022
0.81993662
0.82248671
0.8219861
0.82446581
0.82504337
0.82797232
0.829799
0.83360114
0.83693874
0.84214623
0.84747865
0.85476935
0.86286659
0.87317836
0.88508232
0.89955064
0.91627997
0.9356981
0.95730768
0.98054778
1.0041733
1.0269788
1.0478994
1.0663819
1.0823345
1.0959514
1.1075444
1.1174744
1.1258996
1.133089
1.1389735
1.1438935
1.1479437
1.1513181
1.1541314
1.1565151
1.1586015
1.1604365
1.1619207
1.1632969
1.1653857
1.1673221
1.1684177
1.1690159
0.76943308
0.76867487
0.7699051
0.77443622
0.78546877
0.81085951
0.82303345
0.82542512
0.82496305
0.82751933
0.82816382
0.83119714
0.83312768
0.83707191
0.8405638
0.84596632
0.85152732
0.85909622
0.86753401
0.8782441
0.89062197
0.9056148
0.92292268
0.94290925
0.9649996
0.98850008
1.0120832
1.0345218
1.0548084
1.0724794
1.0875386
1.1002519
1.1109921
1.1201693
1.1279571
1.1346331
1.140116
1.1447347
1.1485664
1.1517842
1.1544881
1.1567982
1.1588336
1.1606099
1.1620264
1.1634265
1.1656766
1.1675016
1.168517
1.1690687
0.77253482
0.77164216
0.7728945
0.77767761
0.78947353
0.81568323
0.82604866
0.82843901
0.82802315
0.83065804
0.83137462
0.83451536
0.83655453
0.84064451
0.84429705
0.84990357
0.8557075
0.86357284
0.87237306
0.88350372
0.89637914
0.91192029
0.92982683
0.95038877
0.97293914
0.99664944
1.0201194
1.0421192
1.0617143
1.0785391
1.0926935
1.1045093
1.1144135
1.1228576
1.1300237
1.1361958
1.1412814
1.1455997
1.1492119
1.1522703
1.1548622
1.1570965
1.1590771
1.160787
1.162137
1.1635869
1.1659736
1.1676781
1.1686116
1.1691197
0.77572491
0.77470097
0.77597506
0.78102429
0.79372493
0.82048675
0.82911048
0.83153288
0.83116883
0.83388334
0.83467506
0.83792475
0.84007678
0.84431673
0.84813892
0.85396132
0.8600266
0.86820789
0.87739278
0.88896589
0.90236287
0.9184759
0.93699964
0.95813755
0.98111815
1.0049778
1.0282573
1.0497443
1.0685912
1.0845375
1.0977777
1.108704
1.1177903
1.1255228
1.1320852
1.1377654
1.1424605
1.1464817
1.1498748
1.1527726
1.1552511
1.1574084
1.15933
1.1609657
1.1622567
1.1637952
1.1662678
1.1678481
1.1686992
1.1691676
0.7789629
0.77781519
0.77911911
0.78445247
0.79821993
0.82524801
0.8321579
0.83470229
0.8343958
0.83719199
0.83806139
0.84142144
0.84369138
0.84808897
0.85209328
0.85814753
0.86449352
0.87300975
0.88260088
0.89463847
0.90858237
0.92529192
0.94445023
0.96615892
0.98953069
1.0134698
1.0364757
1.0573737
1.075417
1.0904547
1.102774
1.11282
1.1211077
1.1281516
1.1341298
1.1393319
1.1436451
1.1473741
1.1505504
1.1532875
1.1556523
1.1577321
1.1595902
1.1611441
1.1623919
1.1640712
1.1665468
1.168008
1.1687772
1.1692062
0.78230173
0.78103522
0.78237308
0.78799315
0.80299108
0.82997875
0.83533938
0.83795256
0.83769871
0.84057591
0.84152773
0.84500281
0.84740003
0.85196654
0.85616885
0.86247152
0.86911736
0.87798668
0.8880055
0.90053072
0.915048
0.93237842
0.95218464
0.97445003
0.99816286
1.0221021
1.0447467
1.0649797
1.082167
1.0962699
1.1076644
1.1168419
1.1243519
1.1307315
1.1361467
1.1408859
1.1448275
1.148271
1.1512341
1.1538115
1.1560634
1.1580656
1.1598553
1.1613215
1.1625503
1.1644249
1.1668007
1.1681541
1.1688404
1.1692214
0.78565891
0.78428865
0.78567312
0.7915872
0.80798361
0.83461133
0.83862704
0.84126343
0.84106858
0.84403193
0.84507523
0.84867397
0.85121019
0.85595941
0.86037581
0.86694293
0.87390553
0.88314516
0.89361391
0.90665228
0.92177105
0.93974741
0.9602105
0.98301042
1.0070028
1.0308547
1.0530461
1.0725386
1.0888201
1.1019657
1.1124348
1.1207574
1.127512
1.133253
1.1381271
1.1424196
1.146001
1.1491669
1.1519214
1.1543415
1.1564821
1.1584067
1.1601231
1.1615003
1.1627415
1.1648271
1.1670461
1.1682802
1.168885
1.1692298
0.78906017
0.78760569
0.78905414
0.79527523
0.81321233
0.83914865
0.84194449
0.84464874
0.84451876
0.8475705
0.84871287
0.85244474
0.85513316
0.86007842
0.86472362
0.87156813
0.87886385
0.88849206
0.89943568
0.9130147
0.92876409
0.94740891
0.96853112
0.99183133
1.01603
1.0396992
1.0613435
1.0800226
1.0953533
1.1075236
1.1170705
1.1245547
1.1305779
1.1357073
1.1400629
1.1439257
1.1471597
1.1500569
1.1526086
1.1548745
1.1569062
1.1587528
1.1603904
1.1616858
1.1629803
1.1652642
1.1672843
1.1683848
1.1689136
1.169231
0.79251866
0.79099785
0.79253295
0.79907439
0.81865979
0.84358331
0.84533585
0.84810655
0.84804969
0.85119794
0.85245091
0.856327
0.85917954
0.86433198
0.86921764
0.87635178
0.88399734
0.89403475
0.90548122
0.91963078
0.93604085
0.95537491
0.97715124
1.0009063
1.0252265
1.0486105
1.0696129
1.0874081
1.1017472
1.1129289
1.1215606
1.1282252
1.1335424
1.1380878
1.1419481
1.1453985
1.1482982
1.1509367
1.153292
1.1554077
1.1573334
1.1591008
1.1606536
1.1618832
1.1632879
1.1657165
1.1675165
1.1684746
1.1689261
1.169229
0.79600995
0.79444439
0.79610415
0.8030019
0.82429137
0.84788094
0.84879329
0.85165017
0.85167356
0.85492923
0.85630264
0.86033103
0.86335582
0.8687234
0.87386042
0.88129672
0.8893123
0.89978366
0.91176365
0.92651508
0.94361462
0.96365409
0.98606849
1.0102194
1.0345647
1.0575557
1.0778221
1.0946675
1.1079805
1.1181665
1.125894
1.1317604
1.1363989
1.1403888
1.1437772
1.1468329
1.149412
1.1518024
1.1539685
1.1559388
1.1577619
1.1594477
1.1609096
1.1620991
1.1636856
1.1661632
1.1677426
1.1685583
1.1689308
1.1692101
0.7996072
0.79800876
0.79982593
0.8071264
0.8301052
0.85208967
0.85234698
0.85530333
0.85540604
0.85877285
0.86027305
0.86445878
0.86766191
0.87325299
0.87865359
0.88640843
0.89481784
0.90575088
0.91829751
0.93368264
0.95150052
0.97225604
0.99528273
1.0197562
1.0440202
1.066506
1.0859434
1.1017775
1.1140361
1.123225
1.1300637
1.1351548
1.1391432
1.1426062
1.1455462
1.1482249
1.1504973
1.1526507
1.1546354
1.1564657
1.1581896
1.1597904
1.1611567
1.1623408
1.1641824
1.1665824
1.1679599
1.1686401
1.1689323
1.1691717
0.80323243
0.80162258
0.80364871
0.81144725
0.83603608
0.85622294
0.85601225
0.85907456
0.85925475
0.86273199
0.86435801
0.86870631
0.87209615
0.87792171
0.88360178
0.89169493
0.90052619
0.91195164
0.92509863
0.94114948
0.95971107
0.98118561
1.0047838
1.0294923
1.0535586
1.0754246
1.093943
1.1087114
1.1198958
1.1280938
1.1340633
1.1384032
1.1417718
1.1447368
1.1472515
1.1495713
1.1515508
1.1534787
1.1552903
1.1569865
1.1586142
1.160126
1.1613965
1.162614
1.1647559
1.1669582
1.1681604
1.1687101
1.1689069
1.1691062
0.80697998
0.80536607
0.80764642
0.81607565
0.84209045
0.8604197
0.85978633
0.86294508
0.863201
0.86679498
0.86855315
0.87307202
0.87666042
0.88273425
0.88871345
0.89716846
0.90645211
0.91840172
0.93218342
0.94893195
0.96826076
0.99044822
1.0145637
1.039405
1.0631486
1.0842783
1.1017916
1.1154478
1.1255473
1.1327665
1.1378899
1.1415028
1.1442824
1.1467785
1.1488908
1.1508695
1.1525703
1.154284
1.1559312
1.1574994
1.1590333
1.1604521
1.1616356
1.1629316
1.1653335
1.1672983
1.1683278
1.1687576
1.168867
1.1690046
0.81075762
0.8091378
0.81171624
0.82094916
0.8480989
0.86457553
0.86360748
0.86688127
0.8672211
0.87096114
0.87286262
0.87756216
0.8813603
0.8876989
0.89400012
0.90284335
0.9126122
0.92511822
0.93956889
0.95704634
0.97715993
1.0000419
1.0246027
1.0494605
1.072749
1.0930266
1.1094563
1.1219662
1.1309801
1.1372374
1.1415392
1.1444518
1.1466725
1.1487302
1.1504628
1.1521173
1.153554
1.1550644
1.1565565
1.1580031
1.1594443
1.1607661
1.1618824
1.1633134
1.1658715
1.1675886
1.1684523
1.1687786
1.168845
1.1688454
0.8145645
0.81294745
0.81587026
0.8261337
0.85405235
0.86856741
0.86751841
0.87092146
0.87135577
0.87523472
0.87728843
0.8821821
0.88620419
0.89282723
0.89947666
0.90873643
0.9190231
0.93211787
0.94727232
0.96550988
0.98642032
1.0099653
1.0348828
1.0596272
1.0823227
1.101635
1.1169129
1.1282563
1.1361911
1.1415035
1.1450061
1.1472508
1.1489406
1.1505927
1.1519676
1.1533122
1.1545005
1.1558186
1.1571649
1.1584959
1.1598443
1.1610661
1.1621451
1.163781
1.1663301
1.1678214
1.1685419
1.1687888
1.1688356
1.1686354
0.81849934
0.81686976
0.82015721
0.83170506
0.85995409
0.87261383
0.87153142
0.87506896
0.87559503
0.87962588
0.88183737
0.88693887
0.89120471
0.89813468
0.90515976
0.91486402
0.92570198
0.93941833
0.95531204
0.97433842
0.99604764
1.0202064
1.0453729
1.0698615
1.0918232
1.1100649
1.1241409
1.1343134
1.1411774
1.1455591
1.1482816
1.1498999
1.151086
1.1523675
1.1534062
1.1544523
1.1554074
1.1565456
1.1577556
1.1589768
1.1602311
1.1613512
1.1624299
1.1643397
1.166693
1.1679948
1.168601
1.1687945
1.1688316
1.168394
0.82247891
0.82083464
0.82450836
0.83763216
0.86573168
0.87664944
0.87564348
0.87932188
0.87995031
0.88414245
0.88651456
0.89184489
0.89637742
0.90363822
0.911066
0.92124244
0.93266533
0.94703763
0.96370756
0.98354901
1.0060483
1.0307534
1.0560435
1.0801229
1.1012103
1.118289
1.1311357
1.1401394
1.1459339
1.1493965
1.1513591
1.1523983
1.1531131
1.1540576
1.1547795
1.1555377
1.1562717
1.1572452
1.1583278
1.1594442
1.1606026
1.161624
1.1627422
1.1649155
1.1670113
1.1681266
1.1686275
1.1687992
1.1688138
1.1681556
0.82654722
0.82487734
0.82895157
0.84394775
0.87139335
0.88094792
0.87985868
0.88368543
0.88442462
0.88879271
0.89134301
0.89691948
0.90173931
0.90935333
0.91721102
0.92788712
0.93993105
0.95499589
0.97247903
0.99315494
1.0164195
1.0415809
1.0668509
1.0903595
1.1104391
1.1262854
1.1378973
1.1457233
1.1504365
1.1530014
1.1542476
1.1547409
1.155033
1.1556646
1.1560854
1.1565718
1.1570911
1.1579173
1.1588809
1.1598966
1.1609575
1.1618917
1.1630933
1.1654723
1.1672997
1.1682418
1.1686387
1.1687688
1.1687698
1.1679458
0.8306824
0.82898519
0.83347185
0.85061292
0.87689442
0.88524325
0.88417989
0.88816915
0.88903444
0.89359146
0.89634382
0.90218008
0.90730348
0.91529341
0.92360871
0.93481484
0.94751813
0.96331529
0.98164761
1.0031706
1.027157
1.0526644
1.0777529
1.1005258
1.1194768
1.1340497
1.1444234
1.1510259
1.1546685
1.1563698
1.1569614
1.1569243
1.1568618
1.1571886
1.1573173
1.1575604
1.1578674
1.1585617
1.1594147
1.1603322
1.1612947
1.1621647
1.1635038
1.1659737
1.1675554
1.1683453
1.1686429
1.1687203
1.16869
1.1677594
0.83493433
0.83320953
0.83813113
0.85764046
0.88226538
0.88967581
0.88864286
0.89280151
0.89380195
0.8985577
0.90152052
0.9076351
0.91308219
0.92147004
0.93027537
0.9420442
0.95544907
0.97201956
0.99123381
1.013602
1.0382445
1.0639626
1.0886945
1.1105691
1.1282945
1.1415804
1.1506686
1.1560226
1.1586102
1.1595074
1.1595151
1.1589568
1.158606
1.1586265
1.1584696
1.1585039
1.1586109
1.1591769
1.1599289
1.160749
1.1616132
1.1624528
1.1639948
1.1663929
1.1677608
1.1684188
1.1686442
1.1686858
1.1685497
1.1675985
0.8393058
0.83755994
0.84296133
0.86501976
0.88754224
0.89423416
0.89325764
0.89758827
0.89872936
0.9036899
0.90687755
0.91329626
0.91908842
0.92789834
0.93722844
0.94959648
0.96374821
0.98113454
1.0012577
1.0244547
1.0496632
1.0754354
1.0996247
1.1204493
1.1368815
1.1488673
1.1565871
1.1606829
1.1622671
1.1624688
1.1619039
1.1608706
1.160239
1.1599819
1.1595487
1.1593854
1.1593361
1.1597611
1.1604232
1.161145
1.1619126
1.1627614
1.1645556
1.1667288
1.167911
1.1684513
1.1686315
1.1686555
1.1683624
1.1674564
0.84378254
0.84202599
0.84798582
0.87266007
0.89285538
0.89893444
0.89802309
0.90252817
0.90381917
0.90899296
0.9124261
0.91917505
0.92533632
0.93459377
0.94448862
0.95749708
0.97244309
0.99068595
1.0117347
1.0357216
1.0613785
1.0870258
1.1104839
1.1301278
1.1452314
1.1558481
1.1621422
1.1649943
1.1656977
1.1652493
1.1641264
1.1626769
1.1617598
1.1612571
1.1605654
1.1602004
1.1600428
1.1603145
1.1608972
1.1615193
1.1621965
1.163094
1.1651183
1.1670234
1.1680253
1.1684647
1.1686089
1.1686186
1.1681493
1.1673318
0.84836752
0.8466031
0.85323883
0.880489
0.898113
0.9037634
0.90293062
0.90762148
0.90907577
0.91448843
0.91819148
0.92527778
0.93184044
0.94157605
0.95208127
0.9657742
0.98156284
1.0006997
1.0226782
1.0473931
1.0733537
1.0986799
1.1212229
1.1395845
1.1533365
1.1624592
1.1672999
1.168995
1.1689386
1.1678338
1.1661932
1.164372
1.1631772
1.1624554
1.1615138
1.1609651
1.1607202
1.1608425
1.1613503
1.1618721
1.1624739
1.1634604
1.1656527
1.1672876
1.1681241
1.1684689
1.1685752
1.1685713
1.1679404
1.1672245
0.85310006
0.85131281
0.85878794
0.88843024
0.90323722
0.90873326
0.90799271
0.91288421
0.91451753
0.92019326
0.92418223
0.93162632
0.93862239
0.94886907
0.96003585
0.97445982
0.99113729
1.0111985
1.0340919
1.0594429
1.0855337
1.1103307
1.1317915
1.1488033
1.1611243
1.168657
1.1720496
1.1727691
1.1719547
1.1702329
1.1681114
1.1659574
1.1644978
1.1635799
1.1624018
1.1616844
1.1613522
1.1613559
1.1617804
1.1622043
1.1627584
1.1638823
1.1661248
1.1675181
1.1682111
1.1684698
1.1685325
1.1685109
1.1677558
1.1671316
0.85797553
0.85613774
0.86467032
0.89633828
0.9083371
0.91385183
0.91322919
0.91834107
0.92017122
0.92611948
0.93041228
0.93823495
0.94570349
0.95650384
0.96838552
0.98358681
1.0011962
1.022204
1.0459759
1.0718414
1.0978639
1.1219207
1.1421567
1.1577747
1.1685201
1.174404
1.1764587
1.1763132
1.1747515
1.1724517
1.1698899
1.1674348
1.165729
1.1646345
1.1632356
1.162366
1.1619285
1.1618607
1.1621848
1.162517
1.1630621
1.1643799
1.1665096
1.1676962
1.1682589
1.1684537
1.1684862
1.1684197
1.1675989
1.1670518
0.86301645
0.86108878
0.87096503
0.90414831
0.91348529
0.9191712
0.91867262
0.92400692
0.92604453
0.93227528
0.93689353
0.94512656
0.95311652
0.96451546
0.97716501
0.99318847
1.0117676
1.03373
1.0583149
1.0845394
1.1102729
1.1333875
1.1522879
1.1664372
1.1754581
1.1796837
1.1806135
1.179601
1.1773339
1.1744994
1.1715354
1.1688071
1.166878
1.1656229
1.1640166
1.1630033
1.1624673
1.1623511
1.1625615
1.162811
1.1633928
1.1649213
1.1668172
1.1678268
1.1682812
1.1684291
1.1684478
1.168284
1.1674649
1.1669841
0.86826856
0.86620777
0.87773952
0.91201421
0.91897365
0.92469409
0.92431291
0.92987501
0.93213233
0.93866992
0.94365014
0.95233636
0.96090129
0.97294018
0.98640793
1.003297
1.022879
1.0457861
1.0710887
1.0974834
1.1226961
1.1446844
1.162171
1.1747027
1.1818979
1.1845693
1.1845074
1.1826362
1.1797121
1.1763848
1.1730555
1.1700772
1.1679525
1.1665484
1.1647453
1.1635977
1.1629742
1.1628224
1.1629128
1.1630897
1.1637301
1.1654529
1.1670819
1.167926
1.1682887
1.1684007
1.168409
1.168117
1.1673492
1.1669271
0.87384914
0.87162086
0.88500059
0.91975811
0.92452214
0.9303924
0.93014333
0.93595541
0.93845055
0.94533218
0.95072286
0.95990738
0.96909699
0.98181231
0.9961468
1.0139456
1.0345527
1.0583701
1.0842558
1.1106021
1.135059
1.1557657
1.1717651
1.1824769
1.1878101
1.1891532
1.1881134
1.185427
1.1818954
1.1781171
1.1744568
1.1712522
1.1689567
1.1674144
1.1654246
1.1641547
1.1634517
1.1632612
1.1632481
1.1633593
1.1640952
1.1659469
1.1673154
1.1680087
1.1682903
1.1683694
1.1683668
1.1679395
1.1672502
1.1668791
0.87958897
0.87720348
0.89269912
0.9274474
0.93026084
0.93629628
0.93619468
0.94228315
0.94504702
0.95231069
0.95815837
0.96787532
0.97773502
0.99116456
1.0064154
1.0251673
1.0468091
1.0714717
1.0977692
1.1238246
1.1473035
1.1666043
1.1809719
1.1897133
1.1932523
1.1934503
1.1914292
1.1879851
1.1838951
1.1797058
1.1757467
1.1723387
1.1698954
1.1682246
1.1660597
1.1646802
1.1639008
1.1636522
1.1635788
1.1636316
1.1645016
1.166375
1.1675169
1.1680792
1.1682901
1.1683346
1.1683186
1.1677746
1.1671653
1.166839
0.8855927
0.8829831
0.90081336
0.93495755
0.93615912
0.94242228
0.9425023
0.94890174
0.95198488
0.95965563
0.96599817
0.97625938
0.98684415
1.0010328
1.0172512
1.0369947
1.059658
1.0850613
1.1115592
1.1370669
1.1593669
1.177167
1.1896783
1.1963648
1.1983247
1.1974289
1.1944663
1.1903217
1.1857217
1.1811597
1.1769321
1.1733433
1.1707725
1.168983
1.1666549
1.1651746
1.1643204
1.1640092
1.163897
1.1639183
1.1649684
1.1667148
1.167677
1.168129
1.1682787
1.1682981
1.1682566
1.1676259
1.1670922
1.1668054
0.89182442
0.8890199
0.90934339
0.94236374
0.94230197
0.94885405
0.94914718
0.9558727
0.95929234
0.96738624
0.97425413
0.98509414
0.99645922
1.0114582
1.0286941
1.0494583
1.0731014
1.0990998
1.125553
1.1502565
1.1712038
1.1873735
1.1978101
1.202453
1.2030872
1.2010743
1.1972377
1.1924503
1.1873867
1.1824883
1.1780204
1.1742724
1.1715925
1.1696938
1.1672132
1.1656352
1.1647067
1.1643417
1.1642027
1.1642251
1.1654576
1.1669872
1.1677924
1.1681505
1.1682618
1.1682705
1.168165
1.1674971
1.16703
1.1667776
0.89846612
0.89550608
0.91833706
0.94977648
0.94878773
0.95564669
0.95614542
0.96321055
0.96697957
0.97551752
0.98295641
0.99441035
1.0066239
1.0224877
1.0407853
1.0625803
1.0871227
1.1135233
1.1396597
1.1633162
1.1827685
1.1970937
1.2053107
1.2080828
1.2074995
1.2044029
1.1997569
1.1943834
1.1889009
1.1837003
1.1790186
1.1751318
1.1723596
1.1703607
1.1677345
1.1660609
1.1650633
1.1646554
1.1644958
1.1645522
1.1659338
1.1672149
1.1678773
1.1681588
1.168241
1.1682426
1.1680433
1.1673878
1.1669773
1.1667547
0.90538257
0.90242741
0.92765713
0.95734964
0.95559799
0.96276989
0.96348217
0.97089895
0.97505691
0.98407495
0.99213745
1.0042666
1.017387
1.0341705
1.0535638
1.0763741
1.1016925
1.1282601
1.1537955
1.1761847
1.1940133
1.206205
1.2121554
1.2133699
1.2115314
1.2074279
1.2020397
1.196135
1.1902754
1.1848046
1.1799337
1.1759276
1.1730781
1.1709869
1.1682177
1.1664523
1.1653936
1.1649547
1.1647796
1.1648994
1.1663611
1.16741
1.167944
1.1681608
1.1682176
1.1682127
1.1679003
1.167296
1.1669338
1.1667364
0.91263424
0.9099188
0.93724679
0.96531637
0.96266963
0.97020203
0.97114289
0.97896208
0.9835684
0.99311353
1.0018615
1.0147102
1.0288027
1.0465563
1.0670627
1.0908361
1.1167553
1.1432145
1.1678671
1.188796
1.2047927
1.2146435
1.2184481
1.218268
1.2152019
1.2101658
1.204101
1.1977176
1.1915209
1.1858096
1.1807724
1.1766652
1.1737518
1.1715746
1.1686614
1.1668109
1.1657021
1.1652444
1.1650598
1.1652733
1.1667273
1.1675756
1.167999
1.1681604
1.1681919
1.1681773
1.1677564
1.16722
1.1668987
1.1667228
0.92003092
0.91792991
0.94693454
0.97306756
0.97005395
0.97799546
0.97920659
0.98746113
0.9925765
1.0026819
1.0121921
1.0258053
1.0409231
1.0596921
1.0813066
1.1059481
1.1322413
1.1582914
1.1817949
1.2011001
1.2149688
1.2223576
1.2243094
1.2227539
1.218526
1.2126348
1.2059575
1.199145
1.192648
1.1867237
1.1815414
1.1773501
1.1743847
1.1721247
1.1690641
1.1671394
1.1659934
1.1655304
1.1653441
1.1656833
1.1670184
1.16771
1.1680413
1.1681563
1.1681669
1.1681302
1.167624
1.1671551
1.1668705
1.1667136
0.92769679
0.92667861
0.95682956
0.98091356
0.97785189
0.98622452
0.98776183
0.9964669
1.0021405
1.0128394
1.0231804
1.0376061
1.0538025
1.0736215
1.0963056
1.1216642
1.1480547
1.1733807
1.1954906
1.2129812
1.2244283
1.2294038
1.2297558
1.2268217
1.2215226
1.2148525
1.2076241
1.2004294
1.1936664
1.1875545
1.1822469
1.1779873
1.1749798
1.1726373
1.1694256
1.1674415
1.1662728
1.1658171
1.1656377
1.1661049
1.1672451
1.1678129
1.1680697
1.1681513
1.168154
1.1680624
1.1675104
1.1671006
1.1668494
1.1667101
0.93564705
0.93623923
0.9669188
0.98917934
0.98610852
0.99494554
0.9968421
1.0060191
1.0123056
1.0236422
1.0348824
1.0501745
1.0674968
1.0883812
1.1120523
1.1379201
1.1640919
1.1883875
1.2088858
1.2242778
1.2331077
1.2359094
1.2347512
1.2304959
1.2242129
1.2168383
1.2091171
1.2015837
1.1945862
1.1883098
1.1828951
1.1785817
1.1755399
1.1731114
1.1697474
1.1677222
1.1665454
1.1661062
1.1659407
1.1664964
1.1674338
1.1678913
1.1680878
1.1681449
1.1681425
1.1679709
1.1674154
1.1670568
1.1668347
1.1667105
0.94388166
0.94662272
0.97723413
0.99804734
0.99485717
1.0041965
1.0064933
1.0161578
1.0231225
1.0351559
1.0473636
1.0635782
1.0820616
1.1039951
1.1285121
1.1546196
1.1802302
1.2032069
1.2218963
1.2348189
1.2409949
1.2419676
1.2392675
1.2337951
1.2266175
1.2186102
1.2104511
1.2026193
1.1954163
1.1889966
1.1834918
1.1791376
1.1760672
1.1735465
1.1700331
1.1679871
1.1668153
1.1663971
1.1662491
1.1668458
1.1675937
1.1679539
1.1680987
1.1681332
1.168127
1.1678577
1.1673383
1.1670221
1.1668245
1.1667126
0.95244867
0.95793478
0.98784167
1.0072959
1.0041589
1.014002
1.0167523
1.0269368
1.0346579
1.0474492
1.0606982
1.0778887
1.097546
1.1204656
1.1456245
1.1716508
1.1963532
1.2177431
1.2343368
1.2445321
1.2482235
1.2475269
1.2433371
1.236745
1.2287594
1.2201875
1.2116415
1.2035482
1.1961658
1.1896221
1.1840426
1.1796594
1.1765644
1.1739429
1.1702882
1.1682416
1.1670848
1.1666868
1.1665571
1.1671482
1.1677292
1.1680066
1.1681109
1.1681273
1.1681065
1.1677417
1.1672777
1.1669938
1.1668167
1.1667158
0.96134672
0.97039503
0.99874014
1.017086
1.014058
1.0244087
1.0276915
1.0384422
1.0470219
1.0605859
1.0749635
1.0931799
1.1139844
1.1377658
1.1632916
1.1888749
1.2123316
1.2318915
1.2460128
1.2533443
1.2549449
1.2525468
1.2469786
1.2393696
1.23066
1.2215874
1.2127019
1.2043809
1.1968428
1.1901926
1.1845528
1.1801509
1.1770335
1.1743017
1.17052
1.1684904
1.1673545
1.1669721
1.1668589
1.1674049
1.1678429
1.1680489
1.1681204
1.1681271
1.1680741
1.1676349
1.1672256
1.1669715
1.1668119
1.1667195
0.9704745
0.98394596
1.009907
1.0274123
1.0246148
1.0354909
1.0393962
1.0507699
1.0602901
1.0746942
1.090253
1.109511
1.1313853
1.1558342
1.1813925
1.2061517
1.2280442
1.2454948
1.2567952
1.261385
1.2611111
1.2570559
1.2502227
1.241696
1.2323418
1.2228279
1.2136462
1.2051279
1.1974554
1.1907145
1.1850275
1.1806158
1.1774757
1.1746222
1.1707389
1.1687369
1.1676241
1.16725
1.1671503
1.167619
1.1679367
1.1680828
1.1681286
1.1681295
1.1680227
1.1675431
1.1671838
1.1669568
1.1668115
1.1667257
0.97982237
0.99853231
1.0214171
1.0383953
1.0359313
1.047366
1.0519956
1.064047
1.0745837
1.0898749
1.1066416
1.1269207
1.1497233
1.1745698
1.1997733
1.2233283
1.2433596
1.2583246
1.2665995
1.2688014
1.2666839
1.2610774
1.2530965
1.2437495
1.2338255
1.2239254
1.2144868
1.2057988
1.1980109
1.1911938
1.1854714
1.181057
1.1778895
1.1748991
1.1709589
1.1689831
1.1678925
1.1675192
1.1674289
1.1677944
1.1680149
1.1681122
1.1681368
1.1681317
1.1679496
1.1674676
1.1671492
1.1669455
1.1668144
1.1667341
0.98946091
1.0141838
1.0334882
1.0501566
1.0481357
1.0601661
1.0656332
1.0784011
1.0900218
1.106224
1.1241843
1.1454132
1.1689328
1.1938386
1.2182704
1.2402578
1.2581383
1.2701943
1.275499
1.2756128
1.2716696
1.2646462
1.2556325
1.2455571
1.2351325
1.2248962
1.2152363
1.206403
1.1985166
1.1916361
1.1858894
1.1814766
1.1782717
1.1751301
1.1711914
1.1692292
1.1681569
1.1677788
1.1676943
1.1679364
1.1680806
1.168139
1.1681447
1.1681296
1.1678656
1.1674071
1.1671218
1.166938
1.1668191
1.1667445
0.99961965
1.0312363
1.046139
1.0628643
1.061393
1.0740357
1.0804364
1.0939248
1.1067164
1.1238129
1.142906
1.1649608
1.1889086
1.2134697
1.2367031
1.2567755
1.272115
1.2810039
1.2836535
1.2817622
1.2761021
1.2677943
1.2578604
1.2471434
1.236282
1.2257552
1.2159058
1.2069489
1.198979
1.192047
1.1862856
1.1818761
1.1786201
1.1753382
1.1714283
1.169475
1.1684151
1.1680255
1.1679416
1.1680528
1.168134
1.1681615
1.1681568
1.1681093
1.167781
1.1673611
1.1671011
1.1669333
1.1668243
1.1667568
1.010391
1.0495872
1.0596286
1.0767236
1.0758866
1.0890863
1.0965013
1.1107238
1.1247009
1.1426787
1.1628102
1.185493
1.2095026
1.2332702
1.2548927
1.2727239
1.2850629
1.2907774
1.2911354
1.2872437
1.2800193
1.2705603
1.2598124
1.2485338
1.2372935
1.226517
1.2165065
1.2074449
1.1994047
1.1924317
1.1866636
1.1822564
1.1789346
1.1755326
1.171673
1.1697252
1.1686706
1.1682553
1.1681535
1.1681563
1.1681822
1.168181
1.1681628
1.1680725
1.1676978
1.1673223
1.1670863
1.1669338
1.1668335
1.1667707
1.0221747
1.069506
1.0743009
1.0918557
1.0916953
1.105377
1.1138566