/*--------------------------------*- C++ -*----------------------------------*\
  =========                 |
  \\      /  F ield         | OpenFOAM: The Open Source CFD Toolbox
   \\    /   O peration     | Website:  https://openfoam.org
    \\  /    A nd           | Version:  8
     \\/     M anipulation  |
\*---------------------------------------------------------------------------*/
FoamFile
{
    version     2.0;
    format      ascii;
    class       surfaceVectorField;
    location    "0.290003";
    object      rhoUf;
}
// * * * * * * * * * * * * * * * * * * * * * * * * * * * * * * * * * * * * * //

dimensions      [1 -2 -1 0 0 0 0];

internalField   nonuniform List<vector> 
39600
(
(201.05798 -1.2135915e-22 1.7585247)
(187.55285 0 1.0150103)
(187.65524 0 1.7962818)
(225.94646 -1.2860465e-17 1.9574472)
(217.338 -1.3204113e-22 1.5086623)
(217.12261 -3.0968118e-17 2.3329357)
(244.03376 6.4732501e-18 2.0693878)
(236.5683 -1.4195749e-17 1.5493548)
(236.11255 1.0211527e-17 2.476575)
(260.82512 1.6893127e-17 2.1337585)
(253.52345 2.3769833e-17 1.5984759)
(252.82128 2.5249432e-17 2.5908263)
(278.02747 -1.1193141e-17 2.1481645)
(270.36865 -1.3013914e-17 1.6018594)
(269.3799 -1.0766405e-17 2.6626646)
(296.21195 -2.2220545e-19 2.0923469)
(288.29799 2.3530176e-18 1.5834123)
(286.96726 0 2.7204445)
(309.4369 -2.6936427e-19 1.9976909)
(306.85281 -4.9702523e-19 1.2866559)
(305.73982 1.3949092e-17 2.5144474)
(312.61171 -3.5528803e-21 1.9642448)
(313.23216 8.6151499e-19 1.5159573)
(312.94755 -2.4268013e-17 2.7435679)
(312.48223 -6.6411969e-20 1.9172734)
(312.15544 -1.4488339e-18 1.0747892)
(311.92816 1.0222268e-17 2.3472351)
(312.70101 -9.118124e-19 1.8555408)
(313.15097 -7.2168566e-20 1.5326668)
(312.88485 -7.1963705e-20 2.7732755)
(312.65945 1.2094572e-18 1.7820208)
(312.4585 -9.0443507e-19 0.85544821)
(312.20784 -9.5231412e-19 2.1441618)
(312.91123 3.8917983e-18 1.6891151)
(313.2032 2.4002842e-18 1.4161912)
(312.92632 2.5330927e-18 2.6749825)
(313.01202 -5.6672463e-19 1.5762902)
(312.87808 -1.466909e-18 0.64913776)
(312.6085 -3.6674092e-18 1.9572853)
(313.32758 -2.4732291e-18 1.4366482)
(313.49265 2.4591395e-18 1.1477655)
(313.20458 1.9481273e-18 2.4387262)
(313.58041 0 1.264536)
(313.46147 -5.9091449e-18 0.40055924)
(313.17376 3.6177392e-18 1.7365896)
(313.99847 1.2473309e-18 1.0532821)
(314.05793 3.2761717e-18 0.71326185)
(313.7557 1.8577404e-20 2.050159)
(314.41524 3.5345647e-18 0.79144565)
(314.27427 -5.5384437e-18 0.025309553)
(313.96724 -1.2157217e-18 1.4031959)
(314.97836 -9.2308238e-19 0.47160909)
(314.93422 9.1032034e-18 0.080339501)
(314.61545 2.1949065e-18 1.4781474)
(315.5864 -4.1474091e-18 0.076673763)
(315.39274 -3.6721188e-18 -0.58154557)
(315.06632 -3.7197118e-18 0.85828126)
(316.33837 -2.5529418e-19 -0.40241871)
(316.18152 -9.6559225e-20 -0.82057512)
(315.84602 1.0266061e-19 0.65828469)
(317.16789 3.8391442e-18 -0.9859484)
(316.89764 -5.6504944e-18 -1.5425855)
(316.55511 -1.5983867e-19 -0.013012269)
(318.13064 4.6489459e-18 -1.6786638)
(317.85959 4.3626687e-18 -2.0971671)
(317.51454 4.2951764e-18 -0.51047079)
(319.16589 -3.0073161e-19 -2.4882106)
(318.81952 7.5640722e-18 -2.9710628)
(318.47789 3.6250328e-20 -1.3220728)
(320.27236 4.6528505e-18 -3.3909072)
(319.9239 -2.6000139e-17 -3.8220186)
(319.59862 -4.8202165e-20 -2.1050309)
(321.36106 -2.2052644e-18 -4.3433703)
(320.99987 5.1714288e-18 -4.8426699)
(320.70594 4.3846412e-18 -3.0603335)
(322.35182 1.0640905e-17 -5.2461289)
(322.04594 -8.7162125e-18 -5.8115637)
(321.8059 -8.2017273e-18 -3.969418)
(323.0996 3.6799077e-17 -5.954296)
(322.89147 3.8170155e-17 -6.6891928)
(322.72852 1.9522327e-17 -4.8063592)
(323.45627 5.3193021e-18 -6.2835484)
(323.42298 1.3210862e-17 -7.2329926)
(323.35664 1.1414998e-17 -5.336227)
(323.27068 -1.1520129e-17 -6.0934317)
(323.47397 -1.0369629e-17 -7.28876)
(323.50426 -8.1482089e-18 -5.4141334)
(322.4598 0 -5.3861413)
(322.94135 0 -6.7495967)
(323.03964 -2.2347153e-19 -4.9432259)
(321.0563 -1.0958487e-17 -4.3455256)
(321.79206 -7.5976417e-17 -5.7283592)
(321.90962 0 -4.0576772)
(319.22966 -4.9775818e-18 -3.2105289)
(320.13022 -4.525447e-20 -4.4625066)
(320.22868 -8.4370902e-18 -3.0031384)
(317.22282 1.1068016e-17 -2.1372329)
(318.16931 9.9270839e-17 -3.1916988)
(318.23714 6.2005671e-18 -1.9873982)
(315.2562 5.3860713e-19 -1.202378)
(316.14411 -2.3261207e-17 -2.0566773)
(316.18422 4.4458775e-19 -1.1040059)
(313.47136 -3.395329e-17 -0.4156144)
(314.23741 -7.4397151e-17 -1.0850318)
(314.25859 -1.2030875e-18 -0.35281784)
(311.89581 -4.2345453e-17 0.21583686)
(312.56862 -9.1656061e-18 -0.29920457)
(312.57537 -1.8523324e-17 0.25600376)
(310.53599 1.9752437e-17 0.70868139)
(311.09539 -1.4715851e-17 0.31904184)
(311.09291 5.1224179e-20 0.73722882)
(309.40037 -4.8723579e-17 1.0725675)
(309.86979 3.3203119e-17 0.79029334)
(309.86158 8.6030057e-18 1.1039683)
(308.45704 -3.7059495e-17 1.3241499)
(308.84359 -1.5721598e-17 1.1239891)
(308.83231 -3.2408503e-17 1.3595492)
(307.68064 7.706679e-17 1.4749234)
(308.00169 1.1926875e-17 1.3475079)
(307.98866 1.9753423e-17 1.5252087)
(307.03936 -6.1971415e-17 1.5341708)
(307.30846 2.7845172e-17 1.4636802)
(307.29467 1.9281223e-18 1.5985314)
(306.50641 -8.187665e-17 1.5141189)
(306.73461 -1.4970533e-16 1.4925717)
(306.72071 -2.1807e-17 1.5963963)
(306.06532 1.1164522e-17 1.4270806)
(306.25606 1.7102033e-16 1.4433287)
(306.24351 2.3873706e-18 1.523991)
(305.7036 -3.9108367e-17 1.2857985)
(305.86362 0 1.3264335)
(305.85331 0 1.3915211)
(305.40677 -1.0713739e-16 1.1181411)
(305.53929 -2.7903109e-19 1.1674257)
(305.53092 -8.6966602e-18 1.2182419)
(305.18381 -7.2655161e-17 0.93888694)
(305.2745 -6.8571926e-19 1.0112374)
(305.26675 -1.0887141e-17 1.0486448)
(305.0406 0 0.91011956)
(305.06802 6.0603562e-18 0.81660893)
(305.07817 0 0.84719976)
(304.90663 2.5589616e-17 0.35949795)
(304.87554 -4.5589115e-18 0.52992263)
(304.85878 -1.1419661e-21 0.55026278)
(304.88289 3.1435403e-17 0.86447301)
(304.82682 1.1594171e-16 0.16040098)
(304.87911 4.558323e-18 0.18709571)
(304.47054 4.1361693e-17 -0.5932129)
(304.42735 1.0286405e-19 -0.59364144)
(201.12471 0 0.96421915)
(187.4997 0 0.23311009)
(226.24435 -2.0593388e-19 1.057677)
(217.58314 2.9111465e-19 0.66156564)
(244.53783 -2.468063e-19 1.0939643)
(237.02514 1.0138593e-20 0.59509473)
(261.5569 -2.5810065e-18 1.0896804)
(254.20381 1.9957686e-18 0.57818664)
(279.03029 -9.7857693e-19 1.0351224)
(271.31812 -4.187057e-18 0.51138669)
(297.2717 2.3056592e-18 0.9066169)
(289.58168 2.2975798e-18 0.41527228)
(310.08224 5.0165434e-19 0.77137467)
(307.84029 2.7023328e-19 0.026398678)
(312.88222 -3.7011761e-19 0.71538588)
(313.54807 -2.6927589e-18 0.27007468)
(312.73793 -1.561663e-18 0.65888331)
(312.4063 -2.1648494e-18 -0.22019074)
(312.97161 0 0.5853013)
(313.43751 3.7012247e-18 0.27732281)
(312.93282 0 0.50139356)
(312.71958 -2.0653271e-18 -0.46057701)
(313.19584 -2.5316067e-18 0.39515943)
(313.49099 1.7223453e-18 0.13994878)
(313.29944 1.1804994e-18 0.26877597)
(313.15338 -8.503974e-18 -0.68754094)
(313.62418 -2.376669e-19 0.11228504)
(313.78732 2.1935287e-18 -0.16226481)
(313.8818 -3.4382991e-18 -0.079097878)
(313.75392 -7.797314e-18 -0.96279712)
(314.30849 -2.6547504e-18 -0.31297185)
(314.36445 -3.5438583e-18 -0.64357282)
(314.73141 -1.2719579e-18 -0.60186425)
(314.58518 -1.1359139e-18 -1.3773277)
(315.30211 7.4432621e-18 -0.95248661)
(315.25553 6.7359291e-18 -1.3374525)
(315.91597 0 -1.3851308)
(315.72227 -7.9543106e-18 -2.0437609)
(316.67263 -4.9214096e-18 -1.9069895)
(316.51861 6.594212e-18 -2.3191449)
(317.50312 -5.9739385e-18 -2.5416914)
(317.24196 5.8163227e-18 -3.0921445)
(318.46032 6.9512139e-18 -3.2902237)
(318.20406 1.880823e-17 -3.7009313)
(319.48007 -1.4765897e-17 -4.1614032)
(319.15908 -2.3683398e-19 -4.6344995)
(320.55611 -2.8187863e-17 -5.1258446)
(320.24356 -4.5518764e-17 -5.5483553)
(321.59578 0 -6.1371923)
(321.28477 -2.8300131e-17 -6.6279608)
(322.51559 1.4122223e-17 -7.0870241)
(322.27196 4.6707315e-18 -7.647053)
(323.17439 1.7243407e-17 -7.8226855)
(323.03505 -8.2109474e-18 -8.5526777)
(323.43948 0 -8.1510199)
(323.46378 4.7483161e-17 -9.0946888)
(323.18756 0 -7.9239799)
(323.41106 0 -9.1123432)
(322.35969 -6.7629023e-17 -7.126496)
(322.80069 7.5105852e-17 -8.4939272)
(320.98625 -7.2669694e-17 -5.9230958)
(321.62121 6.3876094e-17 -7.3387319)
(319.20891 9.3055754e-17 -4.5605419)
(319.97247 -3.4911143e-19 -5.8772657)
(317.24035 7.7739699e-17 -3.2381485)
(318.04568 -7.260247e-17 -4.3712899)
(315.28088 -9.2154441e-17 -2.0676996)
(316.05695 -1.3541759e-16 -3.000151)
(313.48761 -5.6681901e-17 -1.0796683)
(314.17943 1.3932483e-17 -1.8169027)
(311.91218 1.8844306e-17 -0.28764619)
(312.53388 9.1668776e-18 -0.85744091)
(310.5537 -6.473524e-18 0.32955579)
(311.077 1.4881177e-17 -0.10329905)
(309.42065 7.1308632e-17 0.78836042)
(309.86253 -1.6766955e-16 0.4725311)
(308.48008 2.9969755e-17 1.1107873)
(308.84408 4.1222172e-17 0.88497274)
(307.70497 -3.8891093e-17 1.3145225)
(308.00692 -4.9617029e-17 1.1676924)
(307.0639 -3.9888811e-17 1.4136737)
(307.31658 1.5719562e-16 1.3278093)
(306.53134 6.6885945e-17 1.4230184)
(306.74388 2.7350391e-16 1.3897276)
(306.09104 1.7910702e-16 1.3561196)
(306.26526 -1.0199554e-17 1.3638156)
(305.72833 3.8940591e-17 1.2302141)
(305.8715 2.2229594e-17 1.2635392)
(305.42817 1.0659454e-16 1.0762012)
(305.54605 -1.5264971e-16 1.1192206)
(305.18575 7.7680339e-17 0.90918156)
(305.28123 7.3303544e-17 0.9758583)
(304.98485 2.6965921e-18 0.68243152)
(305.0722 -1.8611149e-16 0.78864766)
(304.82202 7.3535112e-17 0.34818801)
(304.87935 -9.1180553e-18 0.51087953)
(304.78522 1.4137886e-16 0.76369215)
(304.77748 -1.3105244e-16 0.13830633)
(304.50805 5.4493116e-19 -0.58999351)
(201.21414 2.6153243e-19 0.1569569)
(187.45655 -6.3173476e-18 -0.56834072)
(226.59945 5.2386253e-19 0.14828255)
(217.839 -1.2839561e-20 -0.19645198)
(245.12468 2.0460906e-18 0.1077952)
(237.50608 2.283303e-19 -0.37167362)
(262.40408 9.0668855e-19 0.029730825)
(254.91984 -5.0004855e-18 -0.45962239)
(280.20113 -1.4908474e-18 -0.10355923)
(272.31699 4.3192383e-18 -0.60117436)
(298.48076 4.6739212e-19 -0.32168473)
(290.96334 0 -0.78339447)
(310.77683 -2.619024e-18 -0.50779538)
(308.80413 5.0779531e-19 -1.2663582)
(313.16844 -4.4867481e-18 -0.57332298)
(313.83935 -3.4545964e-18 -1.0045378)
(313.00703 2.5180895e-18 -0.63437135)
(312.65587 -7.381627e-19 -1.5428038)
(313.2466 2.1342765e-18 -0.7149753)
(313.72344 2.3565833e-18 -1.0034994)
(313.2054 -6.7935165e-19 -0.8075415)
(312.98362 8.5280226e-20 -1.8014625)
(313.47635 -3.3108571e-18 -0.92501804)
(313.78197 6.9624691e-18 -1.1616907)
(313.58254 -8.3581936e-18 -1.0653828)
(313.43364 -2.6860167e-18 -2.0485112)
(313.91633 -4.4039368e-18 -1.2384298)
(314.08608 -2.3434031e-18 -1.4983052)
(314.17997 -8.2414981e-18 -1.4498297)
(314.05055 -1.9978709e-18 -2.350279)
(314.61599 -2.2452332e-18 -1.7067825)
(314.67397 3.7251124e-18 -2.0268949)
(315.04696 6.0576703e-18 -2.0233885)
(314.89892 -2.988827e-19 -2.8048212)
(315.6272 -7.1379801e-18 -2.406456)
(315.57902 4.8020683e-18 -2.78305)
(316.25007 -2.6944861e-18 -2.8780653)
(316.05397 -7.783568e-18 -3.5333636)
(317.01465 1.7171516e-17 -3.4452266)
(316.85702 1.3299058e-17 -3.8479394)
(317.85014 2.9003956e-17 -4.1320895)
(317.58656 -3.3805993e-19 -4.67189)
(318.80584 1.3365949e-17 -4.937887)
(318.54654 -5.4767548e-18 -5.3361262)
(319.81465 -2.6503685e-17 -5.8696339)
(319.49385 2.3369922e-19 -6.3282447)
(320.86457 -4.7124102e-17 -6.8934216)
(320.5545 1.4301498e-17 -7.3031206)
(321.85858 -2.6627042e-17 -7.9564895)
(321.55612 -2.7977415e-17 -8.4364433)
(322.70787 -1.6135548e-17 -8.9405096)
(322.47844 1.4481983e-17 -9.4960598)
(323.27231 1.6480271e-17 -9.6822443)
(323.15265 -9.7438088e-17 -10.413338)
(323.4283 5.1894165e-17 -9.9812459)
(323.47267 -8.222755e-18 -10.930664)
(323.0732 6.6911924e-17 -9.6870821)
(323.31124 -9.2624483e-17 -10.883898)
(322.17253 2.0596794e-16 -8.779884)
(322.61775 7.5874292e-18 -10.164341)
(320.77193 1.4159235e-16 -7.4151663)
(321.40178 6.6803754e-17 -8.8680129)
(319.00746 -1.5691644e-16 -5.8441707)
(319.76214 -1.2185379e-17 -7.2218304)
(317.07314 -2.7714885e-16 -4.2945896)
(317.87138 -6.7665498e-17 -5.5007932)
(315.1566 -4.5793892e-17 -2.9058692)
(315.9257 1.0467614e-17 -3.912218)
(313.40348 7.9668708e-17 -1.728326)
(314.0856 8.6921216e-17 -2.5306062)
(311.85757 4.7000847e-18 -0.78252572)
(312.47162 -3.8876732e-17 -1.4056212)
(310.51988 -1.2559117e-16 -0.045018085)
(311.03797 4.4086541e-17 -0.5202981)
(309.40007 -2.2047545e-16 0.50583237)
(309.84005 1.8194129e-16 0.15721158)
(308.46741 -2.7935373e-17 0.89771182)
(308.83326 -2.5033912e-17 0.64663461)
(307.69892 1.2283284e-16 1.1535815)
(308.00373 -1.2617792e-17 0.98754506)
(307.06327 4.5688883e-16 1.2911033)
(307.31847 -7.5432643e-19 1.1910988)
(306.5333 2.2841448e-16 1.328929)
(306.74869 1.2221256e-16 1.2851075)
(306.09291 -1.7073155e-16 1.2827547)
(306.27126 1.6102675e-16 1.2828131)
(305.72945 -1.4983551e-16 1.1724319)
(305.87711 -2.2181058e-16 1.1993336)
(305.42978 -2.117284e-16 1.0321959)
(305.55115 -1.2127049e-17 1.0701248)
(305.19175 -1.6247591e-16 0.87664035)
(305.2865 8.4325206e-20 0.93897258)
(304.99057 -2.1804092e-16 0.65402896)
(305.07586 -2.9857187e-18 0.75943329)
(304.83308 -2.0268697e-16 0.33344898)
(304.88194 -9.9440275e-20 0.48701243)
(304.78177 -2.8788582e-16 0.64126667)
(304.7365 -1.1481495e-16 0.11602047)
(304.5388 -4.4871188e-17 -0.58177035)
(201.31816 -7.0773131e-18 -0.66201702)
(187.45006 -2.040529e-17 -1.3745755)
(226.97061 -3.2005711e-19 -0.77782447)
(218.13305 8.8456811e-18 -1.0759979)
(245.72184 -6.2475421e-18 -0.89835271)
(238.02382 -1.5236524e-17 -1.3523033)
(263.25393 -2.3907706e-18 -1.0530495)
(255.67151 2.0847664e-17 -1.5182282)
(281.38535 6.1103867e-18 -1.2672694)
(273.35183 -1.8436827e-17 -1.7387564)
(299.66553 0 -1.5730245)
(292.41802 1.0111965e-17 -2.0113183)
(311.40732 0 -1.8021125)
(309.71745 0 -2.5826457)
(313.43337 -5.1838255e-21 -1.8773664)
(314.122 -9.2448374e-18 -2.2984939)
(313.2736 -1.1375201e-18 -1.9453821)
(312.91335 7.7151331e-18 -2.8885201)
(313.52435 5.3270643e-19 -2.0354853)
(314.01642 -1.2296468e-18 -2.3061993)
(313.48446 7.01216e-18 -2.138364)
(313.25401 -6.5716859e-18 -3.1663683)
(313.76517 8.3305308e-18 -2.2683929)
(314.07786 8.7486577e-18 -2.4859511)
(313.8741 3.1648235e-18 -2.4231239)
(313.71776 2.8667376e-18 -3.4331869)
(314.21614 -1.8967669e-20 -2.6128457)
(314.38736 0 -2.8573481)
(314.48441 9.2429345e-18 -2.8441477)
(314.34934 -2.0643007e-20 -3.7608917)
(314.92838 5.9542473e-18 -3.1242767)
(314.98487 3.0748699e-18 -3.4339303)
(315.36592 -1.9421009e-18 -3.4691372)
(315.21432 2.5961621e-19 -4.2562347)
(315.95409 5.191274e-18 -3.8854895)
(315.90372 4.7479923e-18 -4.2543296)
(316.58379 6.1394037e-18 -4.3971023)
(316.38684 -1.2451488e-17 -5.0491653)
(317.35319 -2.7257336e-18 -5.0103)
(317.19547 1.3609453e-17 -5.4045586)
(318.18938 -3.3686732e-17 -5.7493947)
(317.92976 -1.1066882e-17 -6.2794363)
(319.13791 -1.8827182e-17 -6.6117202)
(318.88516 -1.8482969e-17 -6.9993894)
(320.12878 3.9057575e-17 -7.6019249)
(319.82167 1.2097674e-17 -8.0487301)
(321.14414 3.6772592e-17 -8.6811038)
(320.85433 1.9338765e-17 -9.0821777)
(322.08308 8.6369251e-18 -9.7885682)
(321.81107 2.321797e-17 -10.26379)
(322.85251 -5.5360587e-17 -10.79497)
(322.66214 1.4637513e-17 -11.354238)
(323.31573 -1.2991451e-16 -11.525604)
(323.24069 -5.7765489e-18 -12.26782)
(323.36188 -1.4269185e-16 -11.774272)
(323.44623 -1.1098242e-16 -12.740102)
(322.91139 -1.6068391e-16 -11.39209)
(323.17209 2.7302631e-18 -12.606587)
(321.95259 -1.3555811e-16 -10.36164)
(322.39224 -5.5718875e-17 -11.76719)
(320.54052 -7.7287994e-17 -8.8361074)
(321.13627 -7.7336511e-17 -10.321825)
(318.80146 8.1733571e-17 -7.0698803)
(319.50356 -1.3105397e-17 -8.4971885)
(316.90945 2.0910662e-16 -5.3102794)
(317.65073 1.0128906e-16 -6.5766163)
(315.03395 1.3397084e-16 -3.7187106)
(315.7535 1.2022818e-16 -4.7875934)
(313.31521 -1.7368232e-17 -2.3621471)
(313.95803 0 -3.2214126)
(311.79854 -8.5265268e-18 -1.2691834)
(312.3829 -3.9210696e-17 -1.9400775)
(310.4828 3.348675e-16 -0.41534411)
(310.9788 2.9578763e-17 -0.92935298)
(309.37918 3.9908827e-16 0.22526806)
(309.8025 1.7695835e-16 -0.15370632)
(308.45806 -1.1116715e-17 0.68524355)
(308.81127 -2.707494e-16 0.41057571)
(307.69705 -1.3715667e-16 0.9925741)
(307.99225 -1.2517808e-17 0.80836264)
(307.06598 -3.4869429e-16 1.1684073)
(307.31424 -4.1782584e-16 1.0546567)
(306.53881 5.0591667e-17 1.2347445)
(306.74894 -2.1862053e-16 1.1805295)
(306.09964 1.5342562e-16 1.2092009)
(306.27395 3.221388e-16 1.2015608)
(305.73606 -1.0766458e-16 1.114762)
(305.88042 6.5221533e-18 1.1350861)
(305.43605 1.9902934e-16 0.98836364)
(305.55466 1.8561641e-16 1.021163)
(305.19528 1.6095259e-16 0.84347242)
(305.29052 -1.6033846e-17 0.90172498)
(304.99216 2.1638522e-16 0.62538701)
(305.07869 1.9200906e-16 0.72970557)
(304.8083 1.0211058e-16 0.31502688)
(304.88344 4.5077718e-18 0.46025693)
(304.74331 1.2330171e-16 0.54082404)
(304.70074 1.1302374e-16 0.09418082)
(304.56378 -1.697485e-16 -0.56988762)
(201.47387 -7.1437236e-18 -1.4908182)
(187.48851 -4.3062863e-17 -2.1577755)
(227.38502 -3.8550786e-18 -1.7184393)
(218.46578 2.8875097e-17 -1.9908991)
(246.37358 8.4263049e-18 -1.922716)
(238.58485 -1.4374681e-17 -2.3500533)
(264.16214 8.22525e-18 -2.1580718)
(256.46877 3.9001812e-17 -2.5991619)
(282.64828 -1.6745892e-17 -2.4584674)
(274.43248 -3.3085104e-17 -2.903643)
(300.89331 1.0898271e-17 -2.8545517)
(293.95659 8.5792983e-18 -3.2723616)
(312.02487 -8.3103995e-18 -3.122936)
(310.58424 8.9380522e-18 -3.9260703)
(313.70617 -3.0261727e-18 -3.2082597)
(314.41007 -1.4691561e-17 -3.615688)
(313.55013 8.3238668e-18 -3.2827982)
(313.17478 -5.1078575e-18 -4.2588464)
(313.80861 -7.7526349e-18 -3.38156)
(314.31117 1.0521903e-17 -3.6318503)
(313.76744 -6.0795027e-18 -3.4938037)
(313.52599 -8.4287808e-18 -4.5548612)
(314.05568 3.8720705e-18 -3.6354511)
(314.37424 1.0868567e-17 -3.8325568)
(314.1662 0 -3.8039691)
(314.00272 -6.129254e-18 -4.8403546)
(314.51577 0 -4.0101324)
(314.68888 0 -4.2392019)
(314.78879 -6.3020286e-18 -4.2616402)
(314.64894 0 -5.1941669)
(315.24092 -2.2679435e-18 -4.565695)
(315.29622 -1.4072852e-17 -4.8654168)
(315.68573 6.4420797e-18 -4.9399841)
(315.53075 -6.2929619e-18 -5.7322205)
(316.28224 -1.1123958e-17 -5.3910187)
(316.2289 4.8770913e-20 -5.7526172)
(316.91911 -7.2815074e-18 -5.9438716)
(316.71997 -1.2188525e-17 -6.5921592)
(317.69301 7.4799608e-18 -6.6040016)
(317.53263 6.7655586e-18 -6.9900872)
(318.52919 4.4587368e-18 -7.3955828)
(318.26988 6.0435775e-18 -7.9156222)
(319.46919 9.2437082e-18 -8.3140421)
(319.2179 4.9787544e-18 -8.6916607)
(320.44011 -7.8741159e-18 -9.3610556)
(320.1401 5.8678886e-21 -9.7968773)
(321.41786 5.6948741e-18 -10.491934)
(321.14007 4.4004595e-17 -10.886379)
(322.29738 2.9862014e-17 -11.6365)
(322.04589 2.2994932e-17 -12.110467)
(322.98135 6.5299525e-17 -12.653011)
(322.81859 -8.8038252e-17 -13.221357)
(323.33707 2.2536469e-17 -13.354713)
(323.29429 5.0400349e-18 -14.115128)
(323.26642 2.1682031e-17 -13.531339)
(323.37999 1.1831275e-16 -14.521727)
(322.71193 1.1185704e-16 -13.039528)
(322.99048 -4.3653948e-18 -14.27961)
(321.68406 3.8651077e-18 -11.870608)
(322.12337 1.9892155e-17 -13.302357)
(320.24984 -2.0296825e-17 -10.181416)
(320.82662 -1.4668736e-16 -11.699544)
(318.53042 -5.3161406e-18 -8.2296926)
(319.20052 -1.2962785e-17 -9.7005501)
(316.68251 1.1276651e-17 -6.275654)
(317.38768 1.0124446e-17 -7.5937832)
(314.85805 0 -4.4968476)
(315.54352 -1.6688728e-17 -5.6203805)
(313.18661 -1.7511522e-17 -2.9736822)
(313.79879 2.5739198e-17 -3.8836153)
(311.70895 -8.6183204e-18 -1.7420151)
(312.26903 -2.9462952e-17 -2.4561807)
(310.42267 -1.4361311e-16 -0.77738968)
(310.90026 -3.3531374e-19 -1.3269894)
(309.34046 -4.4044442e-16 -0.05054889)
(309.7503 -5.3247953e-16 -0.45775623)
(308.43437 -3.0088671e-16 0.47530433)
(308.77824 2.1107948e-18 0.17846281)
(307.68393 -2.4692855e-16 0.83272052)
(307.9725 0 0.63125758)
(307.06009 -3.1048191e-16 1.0459948)
(307.30385 -2.7851058e-16 0.91917794)
(306.53738 -8.8382396e-18 1.1403548)
(306.74467 -1.3676653e-17 1.0761719)
(306.10039 2.1135135e-16 1.1353367)
(306.27338 -3.3164501e-16 1.1202032)
(305.73757 2.7982721e-16 1.0568674)
(305.88146 7.3014465e-16 1.0707587)
(305.43839 -7.0837877e-18 0.94424376)
(305.5566 2.2445082e-20 0.97211642)
(305.1986 -8.8929369e-18 0.80942315)
(305.29331 -2.6180139e-16 0.86401915)
(304.9941 0 0.59611361)
(305.08072 -3.7454051e-16 0.6990516)
(304.79919 2.9837866e-18 0.29368059)
(304.88342 -2.697237e-16 0.43123245)
(304.72707 -1.4245516e-16 0.44682015)
(304.67069 -3.1548001e-18 0.073280511)
(304.58338 -1.0895455e-17 -0.55617147)
(201.65812 -1.3519047e-17 -2.3378195)
(187.55549 1.3718611e-18 -2.9367597)
(227.83568 2.1955757e-17 -2.6801492)
(218.82842 -2.1376123e-17 -2.9309504)
(247.05736 1.13454e-17 -2.9715197)
(239.1807 1.5951995e-17 -3.3694107)
(265.10515 4.2521643e-18 -3.2910328)
(257.30505 1.2609815e-17 -3.7045797)
(283.96169 -1.1587124e-17 -3.6817094)
(275.55022 -1.0966562e-17 -4.0972331)
(302.13097 6.636716e-18 -4.1671595)
(295.56255 5.5792419e-20 -4.5673)
(312.6136 4.5453343e-18 -4.4675625)
(311.38699 -1.1846564e-17 -5.2948439)
(313.98441 -1.7474029e-17 -4.5615809)
(314.7059 7.9556312e-18 -4.9538809)
(313.8263 -4.1824182e-18 -4.6418854)
(313.43532 -2.6705918e-18 -5.6506474)
(314.09271 1.1346319e-17 -4.7489766)
(314.60455 2.2288237e-18 -4.9778035)
(314.0509 6.6149044e-18 -4.8705007)
(313.79759 1.3513745e-17 -5.9651029)
(314.34694 2.4296916e-18 -5.0240241)
(314.66993 7.2256292e-18 -5.2003924)
(314.45946 -6.6138423e-18 -5.206759)
(314.28764 -5.9913507e-18 -6.2695151)
(314.81658 0 -5.4300738)
(314.99003 1.0522497e-17 -5.6440525)
(315.09451 -6.4759414e-18 -5.7027227)
(314.94888 -8.7545119e-18 -6.6507766)
(315.55464 -1.8635117e-17 -6.0319589)
(315.60765 2.8218503e-19 -6.3224349)
(316.00649 -1.305462e-17 -6.4370166)
(315.84767 -1.1885033e-17 -7.2339672)
(316.61046 0 -6.9240142)
(316.55374 0 -7.2790183)
(317.2531 0 -7.5190506)
(317.05206 0 -8.1632017)
(318.0292 5.4193106e-18 -8.2266516)
(317.86687 0 -8.6051264)
(318.86242 6.6476986e-18 -9.0707223)
(318.60505 3.0556011e-17 -9.580962)
(319.78994 -3.656846e-18 -10.04469)
(319.54272 -4.1438477e-17 -10.41339)
(320.73589 4.7142518e-17 -11.14657)
(320.44688 -1.2958811e-17 -11.573056)
(321.6696 6.2814345e-17 -12.324883)
(321.4091 7.1973785e-17 -12.715736)
(322.48205 -8.3018435e-17 -13.498462)
(322.25748 -6.1336204e-18 -13.975828)
(323.07258 -1.5578167e-16 -14.511943)
(322.94429 3.1567943e-18 -15.095784)
(323.31436 8.8943017e-17 -15.166518)
(323.30991 1.8401714e-18 -15.952789)
(323.12414 1.0415121e-16 -15.250047)
(323.27096 5.3408116e-17 -16.272958)
(322.4671 -9.7399555e-17 -14.628636)
(322.76461 1.5287893e-17 -15.901261)
(321.37425 -1.12528e-16 -13.307402)
(321.81123 -1.0362582e-17 -14.769349)
(319.92213 -1.5276298e-16 -11.451314)
(320.47511 3.4099408e-18 -13.000879)
(318.22598 0 -9.3218094)
(318.85693 0 -10.830199)
(316.42594 -1.4811699e-17 -7.1872507)
(317.08651 0 -8.5486773)
(314.65561 4.453607e-18 -5.2362101)
(315.29941 -3.3429107e-17 -6.4059484)
(313.03476 1.9710834e-17 -3.5589139)
(313.61058 2.5362924e-17 -4.5126637)
(311.60057 -2.4312624e-17 -2.197691)
(312.13174 -9.8927978e-18 -2.9500214)
(310.34797 -3.2887948e-16 -1.1285968)
(310.80342 -2.2746762e-17 -1.7101487)
(309.29092 -1.5088819e-16 -0.31971526)
(309.6841 -3.2836945e-16 -0.7526478)
(308.40294 3.0223583e-16 0.26927505)
(308.73462 2.7953078e-16 -0.048007764)
(307.66521 -4.653021e-20 0.67500419)
(307.94471 -4.0488118e-16 0.457484)
(307.05013 -1.2204809e-17 0.92468571)
(307.28748 2.8920538e-16 0.7855751)
(306.53321 -3.0014464e-16 1.0464191)
(306.73594 7.9215541e-21 0.97276056)
(306.09957 6.5675441e-17 1.0616334)
(306.26957 -3.3195685e-16 1.039261)
(305.73835 5.3400449e-16 0.9990832)
(305.88027 2.4443531e-17 1.0067606)
(305.44033 -2.2550241e-16 0.9000045)
(305.55704 -3.4395044e-16 0.92323667)
(305.20055 -6.1676971e-16 0.77436297)
(305.29501 -1.1019389e-17 0.82601997)
(304.99312 -6.5899925e-16 0.56705659)
(305.08174 3.5304208e-16 0.66695352)
(304.79544 -3.0605069e-16 0.32579313)
(304.87794 1.0707914e-17 0.40093978)
(304.71086 1.3644095e-16 0.37686692)
(304.64767 -6.6289644e-18 0.053545315)
(304.59797 6.8368846e-18 -0.54018198)
(201.87788 -4.5209602e-18 -3.1990678)
(187.65235 -3.1030139e-17 -3.7385046)
(228.32327 -3.013656e-17 -3.6601251)
(219.22409 2.567713e-18 -3.8827521)
(247.78277 1.7446626e-17 -4.0419278)
(239.81432 1.5116052e-17 -4.4090595)
(266.09027 -4.2342692e-19 -4.4492583)
(258.18362 -2.6119642e-17 -4.8333733)
(285.32751 -4.5041127e-19 -4.9352418)
(276.70803 -1.4867325e-18 -5.3188764)
(303.37542 -1.7074409e-17 -5.5092154)
(297.22852 2.3028577e-17 -5.8953901)
(313.1701 -1.005816e-17 -5.8354404)
(312.12152 -3.8795221e-17 -6.6870777)
(314.26662 2.3249862e-17 -5.9350549)
(315.00066 3.3122728e-18 -6.3124316)
(314.10189 3.2102003e-18 -6.0213656)
(313.69492 1.2728744e-17 -7.0637621)
(314.37594 3.4621071e-18 -6.1372446)
(314.8964 -1.0640881e-17 -6.3441146)
(314.33357 1.460775e-17 -6.2685741)
(314.0686 1.3193068e-17 -7.3974301)
(314.6372 3.4097148e-20 -6.4345704)
(314.9645 -7.6186318e-18 -6.5902705)
(314.7519 9.4542228e-18 -6.6322643)
(314.57216 1.925604e-17 -7.7215918)
(315.11665 3.4864676e-18 -6.8737026)
(315.29051 -1.1161316e-17 -7.0733505)
(315.39987 -2.8660422e-18 -7.168723)
(315.24896 9.4422908e-18 -8.1321657)
(315.86803 7.8646679e-18 -7.5244842)
(315.91872 -3.1210197e-19 -7.806604)
(316.32684 -7.2057812e-20 -7.9615559)
(316.16431 1.2498335e-17 -8.7627644)
(316.93752 0 -8.4855699)
(316.87705 0 -8.8346587)
(317.58484 0 -9.1234614)
(317.38165 0 -9.7630876)
(318.36138 2.2088955e-17 -9.8789309)
(318.19653 2.9967271e-17 -10.25038)
(319.18939 -1.0525589e-17 -10.775486)
(318.93344 5.4387651e-18 -11.27616)
(320.10134 -5.2986172e-17 -11.804346)
(319.8576 1.6099399e-18 -12.16527)
(321.01811 4.0458544e-18 -12.958954)
(320.73947 -5.8086843e-17 -13.377774)
(321.90216 1.1111849e-17 -14.179936)
(321.65828 -9.0920464e-17 -14.570233)
(322.6406 7.7798399e-17 -15.373579)
(322.44195 -1.880906e-17 -15.858922)
(323.13034 1.5840592e-16 -16.369872)
(323.03478 8.7307952e-17 -16.975285)
(323.25214 -3.8011334e-17 -16.958437)
(323.28305 6.9881476e-17 -17.777445)
(322.93904 -3.053771e-17 -16.927922)
(323.11537 -2.4694138e-16 -17.990124)
(322.17876 1.0364976e-16 -16.157792)
(322.49214 1.2865993e-16 -17.468642)
(321.02144 1.0291674e-16 -14.671172)
(321.45534 -3.0342602e-17 -16.166632)
(319.55208 1.5484269e-16 -12.644588)
(320.08327 1.3917392e-16 -14.22514)
(317.88052 0 -10.343604)
(318.47584 0 -11.885001)
(316.1313 -1.4980626e-17 -8.0411735)
(316.75082 0 -9.4389878)
(314.42009 -1.875432e-17 -5.9323639)
(315.02449 -2.8849788e-16 -7.1410575)
(312.85581 -2.5566722e-19 -4.1137362)
(313.39597 -4.2125036e-16 -5.105014)
(311.47061 -6.8987018e-18 -2.6327982)
(311.97283 -1.1526551e-19 -3.4183871)
(310.25648 1.1544186e-17 -1.4663197)
(310.6895 -2.2985541e-17 -2.0762131)
(309.22842 3.2704848e-17 -0.58027663)
(309.60465 4.0136731e-16 -1.0363823)
(308.36152 -3.488016e-16 0.068594865)
(308.68085 -5.3963512e-16 -0.26737084)
(307.63884 -1.9476813e-16 0.52047176)
(307.90919 4.077521e-16 0.28811884)
(307.03441 3.3441867e-16 0.80520229)
(307.26531 -3.0907887e-16 0.65461938)
(306.52465 6.4052277e-18 0.95342942)
(306.72283 1.3725556e-17 0.87083043)
(306.09545 -4.1467476e-16 0.98844802)
(306.26256 6.2166151e-16 0.95911577)
(305.73675 -8.1332747e-16 0.94165366)
(305.8769 -4.4924441e-16 0.94335774)
(305.44063 -1.6722047e-16 0.85575249)
(305.55604 3.2854388e-16 0.87470051)
(305.20169 9.2291517e-16 0.73818753)
(305.29573 2.6137044e-16 0.78778273)
(304.98919 1.0693655e-15 0.53804637)
(305.08158 3.6336347e-16 0.63290076)
(304.81305 3.1699813e-16 0.45498816)
(304.86071 2.8676624e-16 0.37025452)
(304.70391 -1.4029352e-16 0.32955482)
(304.63566 4.0792994e-16 0.035496652)
(304.60993 2.9609202e-16 -0.52310732)
(202.12559 -2.6733462e-17 -4.0741765)
(187.77702 -5.78431e-17 -4.5562396)
(228.84462 4.579832e-17 -4.6581967)
(219.65103 -1.2922538e-18 -4.8499496)
(248.54782 -2.4238726e-17 -5.133889)
(240.48379 1.5722775e-20 -5.4687243)
(267.1166 -2.9074976e-17 -5.6327987)
(259.10451 1.2962625e-18 -5.9856084)
(286.74004 1.9543136e-17 -6.2193474)
(277.90868 2.3957365e-20 -6.5699959)
(304.6173 6.6305469e-18 -6.8796825)
(298.94188 -3.7719317e-18 -7.2574173)
(313.68411 -2.9017394e-17 -7.2253937)
(312.7864 3.2573637e-18 -8.1023405)
(314.54329 -7.7059003e-18 -7.32898)
(315.29118 -4.5871034e-17 -7.6920014)
(314.37581 1.0238221e-18 -7.4220187)
(313.95449 6.530026e-18 -8.4996439)
(314.65768 -3.0004686e-18 -7.5473412)
(315.18689 -2.7393124e-18 -7.7321722)
(314.61525 -6.8911345e-18 -7.6890754)
(314.33884 4.6358959e-18 -8.8530855)
(314.92658 9.0543134e-18 -7.8682945)
(315.25771 -1.5332116e-17 -8.0037668)
(315.0439 1.518277e-18 -8.0819349)
(314.85626 1.882787e-17 -9.1981297)
(315.41639 -6.9839741e-18 -8.3427293)
(315.59027 9.4715627e-19 -8.5289483)
(315.70507 1.2728531e-17 -8.6613796)
(315.54885 1.7666893e-17 -9.6398854)
(316.1808 3.1915841e-18 -9.0448137)
(316.22865 -1.4979651e-17 -9.3193778)
(316.64587 1.3582468e-17 -9.5148052)
(316.4795 5.8235073e-18 -10.319651)
(317.26192 0 -10.076582)
(317.19737 -5.4990872e-18 -10.420408)
(317.91222 2.6883314e-17 -10.757816)
(317.707 9.0227469e-18 -11.392509)
(318.68687 1.5687661e-17 -11.561534)
(318.51974 -3.1782397e-17 -11.926591)
(319.50683 1.7680609e-17 -12.510604)
(319.2531 -7.0031091e-17 -13.002093)
(320.39927 1.7030797e-18 -13.593661)
(320.16034 4.1547418e-17 -13.948154)
(321.28161 -1.4852203e-16 -14.798457)
(321.01541 -2.1262316e-17 -15.211642)
(322.10921 -1.2665319e-16 -16.056554)
(321.8846 -3.4616672e-17 -16.449818)
(322.76563 -1.9002268e-17 -17.260124)
(322.5959 8.6286806e-17 -17.758592)
(323.14668 1.7722243e-18 -18.223751)
(323.0864 -1.2759034e-19 -18.857213)
(323.14289 -1.06458e-16 -18.726554)
(323.2104 8.7963797e-18 -19.585219)
(322.70543 -1.2561498e-16 -18.561178)
(322.91082 -4.099639e-18 -19.669)
(321.84453 1.1756479e-17 -17.624341)
(322.17213 2.2709693e-16 -18.978292)
(320.62751 -1.1253336e-17 -15.960654)
(321.05642 -1.7024694e-16 -17.492155)
(319.14558 0 -13.760538)
(319.65343 2.1280279e-19 -15.371358)
(317.50237 0 -11.2938)