/*--------------------------------*- C++ -*----------------------------------*\
  =========                 |
  \\      /  F ield         | OpenFOAM: The Open Source CFD Toolbox
   \\    /   O peration     | Website:  https://openfoam.org
    \\  /    A nd           | Version:  8
     \\/     M anipulation  |
\*---------------------------------------------------------------------------*/
FoamFile
{
    version     2.0;
    format      ascii;
    class       volScalarField;
    location    "0.290003";
    object      T;
}
// * * * * * * * * * * * * * * * * * * * * * * * * * * * * * * * * * * * * * //

dimensions      [0 0 0 1 0 0 0];

internalField   nonuniform List<scalar> 
20000
(
271.03642
270.67546
270.21454
269.25955
267.25069
263.1888
255.50496
252.38483
253.01364
252.98143
253.53415
253.65052
254.16408
254.43457
254.98092
255.42482
256.08015
256.73817
257.58255
258.51465
259.63902
260.92751
262.44054
264.18602
266.19522
268.47804
271.03196
273.83154
276.82649
279.94196
283.04582
285.93589
288.43031
290.47266
292.07506
293.31645
294.29665
295.0467
295.628
296.07715
296.43306
296.71967
296.95797
297.17002
297.37023
297.54744
297.68296
297.86884
297.90136
298.23222
271.10891
270.81719
270.37701
269.40739
267.3265
263.12064
255.39896
252.60828
253.26444
253.22621
253.79012
253.90793
254.43279
254.71174
255.27071
255.72961
256.40101
257.08068
257.9473
258.90883
260.06498
261.39219
262.94703
264.7377
266.79119
269.11144
271.68561
274.47231
277.40457
280.39933
283.3451
286.09078
288.48971
290.48379
292.07651
293.31214
294.2899
295.03931
295.62098
296.07087
296.42786
296.7157
296.95527
297.16861
297.36961
297.54719
297.7051
297.87136
298.00436
298.20961
271.18113
270.95334
270.53379
269.54316
267.37106
262.97006
255.26396
252.8392
253.52071
253.4817
254.05736
254.17906
254.71417
255.00216
255.57207
256.04537
256.73071
257.4305
258.31681
259.30562
260.49017
261.85262
263.44424
265.27497
267.36665
269.71921
272.31027
275.087
277.97194
280.87809
283.70647
286.33532
288.6448
290.57843
292.13037
293.34231
294.30642
295.04825
295.62686
296.07535
296.43146
296.71944
296.96041
297.1754
297.37627
297.55251
297.70856
297.87965
298.01638
298.21324
271.27327
271.1107
270.71267
269.70046
267.43335
262.81235
255.1834
253.10292
253.78907
253.74719
254.33327
254.45816
255.00338
255.3006
255.88171
256.3698
257.06959
257.79041
258.69772
259.71558
260.93061
262.33077
263.96204
265.83635
267.97024
270.35947
272.97152
275.74204
278.58262
281.40238
284.11285
286.6195
288.82835
290.69124
292.20019
293.38416
294.33109
295.06256
295.63487
296.08011
296.43518
296.72314
296.96478
297.18069
297.38115
297.55689
297.71827
297.88791
298.06368
298.21129
271.37967
271.26877
270.89379
269.85952
267.49067
262.61154
255.12716
253.38062
254.06651
254.02383
254.62091
254.75029
255.30539
255.61242
256.2042
256.70752
257.42168
258.16427
259.09313
260.1408
261.38681
262.82502
264.49623
266.41424
268.59033
271.0159
273.64842
276.41321
279.21332
281.95584
284.5606
286.95299
289.06082
290.84622
292.30087
293.44838
294.37188
295.08855
295.65186
296.09186
296.4441
296.73084
296.97254
297.18884
297.38825
297.56286
297.72562
297.89912
298.08927
298.21078
271.48944
271.44131
271.08619
270.02877
267.55541
262.38268
255.11346
253.66245
254.35706
254.3133
254.92037
255.05418
255.61861
255.93582
256.5384
257.0579
257.78732
258.55312
259.50494
260.58395
261.86258
263.34054
265.05369
267.0174
269.23756
271.70048
274.35336
277.11143
279.87039
282.53666
285.03812
287.31772
289.3224
291.0259
292.42211
293.52835
294.42433
295.123
295.67481
296.10782
296.45608
296.74069
296.98172
297.19775
297.39566
297.56911
297.73434
297.91446
298.11666
298.21006
271.61785
271.626
271.28795
270.20444
267.62361
262.12093
255.14083
253.94675
254.65762
254.61342
255.23018
255.36921
255.94292
256.27124
256.88498
257.42185
258.16741
258.95774
259.93367
261.04522
262.35771
263.87676
265.63341
267.64419
269.90939
272.40956
275.08137
277.83064
280.54745
283.13905
285.54117
287.71144
289.61323
291.23196
292.56471
293.62487
294.48923
295.16673
295.70473
296.12906
296.47194
296.75347
296.99316
297.20829
297.40416
297.57597
297.74306
297.93546
298.13538
298.21091
271.75302
271.8164
271.49252
270.38268
267.6932
261.82886
255.21028
254.24493
254.9673
254.92345
255.54971
255.6948
256.27787
256.6184
257.24391
257.79949
258.5622
259.37837
260.37959
261.52495
262.8729
264.4348
266.23704
268.2967
270.60823
273.14544
275.83427
278.57163
281.24353
283.75948
286.06343
288.12622
289.92548
291.45789
292.7245
293.73523
294.56485
295.21856
295.74071
296.15484
296.49116
296.76876
297.00642
297.22003
297.41332
297.58315
297.75256
297.96079
298.15099
298.21309
271.89913
272.01587
271.70312
270.56198
267.76087
261.5109
255.32144
254.55177
255.2858
255.24326
255.87894
256.03115
256.62387
256.97785
257.61576
258.19127
258.97194
259.81507
260.84265
262.02309
263.40814
265.01471
266.86451
268.97466
271.33326
273.90665
276.6097
279.33127
281.9549
284.39381
286.6005
288.55773
290.2555
291.70099
292.89941
293.85808
294.65034
295.27805
295.78255
296.1851
296.51375
296.78661
297.02162
297.23307
297.42318
297.59073
297.76326
297.98724
298.16427
298.21619
272.04884
272.22143
271.91736
270.73987
267.82226
261.17458
255.47436
254.86926
255.61362
255.57324
256.21821
256.37868
256.98138
257.34998
258.00079
258.59723
259.3966
260.2677
261.32277
262.53967
263.96374
265.61703
267.51655
269.6788
272.08513
274.69329
277.40706
280.10816
282.67929
285.03879
287.14818
289.00119
290.59866
291.95736
293.08662
293.99149
294.74444
295.34435
295.8297
296.21944
296.53945
296.80685
297.0386
297.2473
297.43353
297.59874
297.77648
298.01321
298.17684
298.21999
272.21144
272.43908
272.14006
270.91825
267.87432
260.82899
255.6691
255.19658
255.95082
255.91367
256.56802
256.73797
257.35088
257.73502
258.39898
259.01723
259.83599
260.7361
261.81994
263.07487
264.54009
266.24215
268.19348
270.40918
272.86332
275.50407
278.22424
280.89951
283.4135
285.6909
287.70264
289.45269
290.9513
292.22392
293.28375
294.13374
294.84597
295.41668
295.88167
296.25756
296.56809
296.82937
297.05733
297.26265
297.44426
297.60732
297.7937
298.03719
298.18854
298.22426
272.38041
272.66541
272.36914
271.09507
267.90963
260.48568
255.90998
255.5335
256.29779
256.26544
256.92917
257.10941
257.73229
258.13263
258.80999
259.45097
260.28995
261.22015
262.33423
263.629
265.13769
266.8907
268.8959
271.16631
273.66794
276.33841
279.05989
281.70335
284.15505
286.34727
288.26066
289.90878
291.31008
292.49777
293.4885
294.28315
294.95373
295.49425
295.93792
296.2991
296.5994
296.85401
297.0777
297.27902
297.45519
297.61658
297.81583
298.05851
298.19945
298.2288
272.55981
272.90164
272.60661
271.27243
267.92301
260.15716
256.18173
255.88286
256.65624
256.62919
257.30141
257.4923
258.12488
258.5423
259.23354
259.89828
260.75834
261.71989
262.86599
264.20266
265.7572
267.56327
269.62424
271.95023
274.49834
277.19478
279.91166
282.51684
284.90089
287.00476
288.81905
290.36626
291.67195
292.77623
293.69872
294.43808
295.06657
295.57622
295.99789
296.34369
296.63315
296.88063
297.09961
297.29629
297.46625
297.62663
297.84202
298.07784
298.20967
298.23351
272.75158
273.14933
272.85429
271.4526
267.90914
259.85951
256.47515
256.24364
257.02432
257.00271
257.68305
257.88556
258.52819
258.96384
259.66957
260.35906
261.24119
262.23556
263.41571
264.79646
266.39931
268.26052
270.37915
272.76136
275.35432
278.07214
280.77777
283.33773
285.64856
287.66083
289.3752
290.82249
292.03437
293.05703
293.91252
294.59706
295.18336
295.66182
296.06103
296.39095
296.66906
296.90905
297.12292
297.31429
297.47745
297.63781
297.87046
298.09646
298.21942
298.23837
272.94908
273.40022
273.10529
271.62903
267.85351
259.59778
256.82032
256.61116
257.39946
257.38499
258.07385
258.28944
258.94249
259.39734
260.11802
260.8332
261.73872
262.76764
263.98418
265.41121
267.06477
268.98311
271.16107
273.59957
276.23489
278.96852
281.65556
284.16303
286.3951
288.31266
289.92645
291.27491
292.39493
293.33802
294.12813
294.75867
295.30305
295.75025
296.12678
296.44048
296.70687
296.93911
297.14751
297.33283
297.48893
297.65097
297.90034
298.11458
298.22879
298.24336
273.15537
273.65795
273.36265
271.80679
267.75453
259.38514
257.18442
256.98828
257.78397
257.77765
258.47478
258.70435
259.36778
259.84263
260.57873
261.32087
262.25138
263.31684
264.57214
266.04763
267.75428
269.7318
271.97068
274.46513
277.13946
279.88244
282.54289
284.99036
287.13812
288.95801
290.47067
291.72148
292.75168
293.61745
294.34403
294.92169
295.42466
295.84079
296.1946
296.4919
296.74632
296.97063
297.1732
297.3517
297.50099
297.66762
297.9308
298.13212
298.23769
298.24823
273.37275
273.92497
273.62762
271.98807
267.60996
259.22299
257.58574
257.37501
258.1778
258.18053
258.88554
259.12982
259.80366
260.2994
261.0518
261.82247
262.77996
263.88408
265.18049
266.70653
268.46863
270.50729
272.80831
275.35762
278.06653
280.81145
283.43679
285.81668
287.87483
289.59441
291.00566
292.16018
293.10278
293.89367
294.55881
295.08494
295.54727
295.93273
296.26397
296.54481
296.78713
297.00343
297.19981
297.37072
297.51406
297.68966
297.9608
298.14877
298.24582
298.25241
273.59732
274.19656
273.89534
272.17122
267.41614
259.11193
257.98326
257.77088
258.58028
258.59307
259.3056
259.56538
260.24985
260.76779
261.53775
262.3389
263.32541
264.47014
265.8099
267.38862
269.20862
271.31048
273.67461
276.27697
279.01503
281.75361
284.33483
286.63954
288.60298
290.21989
291.5297
292.58944
293.44676
294.16534
294.77131
295.24743
295.67006
296.02544
296.3344
296.59886
296.82905
297.03734
297.22714
297.38979
297.52872
297.71881
297.9893
298.16416
298.25308
298.25605
273.83571
274.47701
274.16829
272.35805
267.17717
259.05997
258.37222
258.17588
258.99074
259.01437
259.73439
260.01086
260.70668
261.24847
262.0376
262.87109
263.88865
265.07578
266.46117
268.09472
269.97518
272.14208
274.56976
277.22222
279.98286
282.70594
285.23381
287.45592
289.32
290.83231
292.04101
293.00771
293.78224
294.43126
294.98046
295.40824
295.79227
296.11831
296.40542
296.65369
296.87183
297.07213
297.25494
297.40886
297.54572
297.75548
298.01567
298.17795
298.25904
298.25804
274.08072
274.75803
274.43696
272.53884
266.89124
259.06595
258.77696
258.58817
259.4085
259.44433
260.17224
260.46697
261.17507
261.74259
262.55241
263.42
264.47034
265.70155
267.13494
268.82574
270.76932
273.00308
275.49414
278.19287
280.96836
283.66608
286.13114
288.26344
290.02384
291.43002
292.53822
293.41385
294.10818
294.69048
295.18542
295.56662
295.91324
296.21081
296.47661
296.70897
296.91524
297.10758
297.28298
297.42819
297.56609
297.79706
298.0412
298.18954
298.26369
298.25906
274.33574
275.04255
274.70109
272.71187
266.56951
259.13441
259.18801
259.00907
259.83501
259.88414
260.62025
260.93488
261.65631
262.25121
263.08309
263.98614
265.07098
266.34811
267.83215
269.58277
271.59209
273.89412
276.44748
279.18729
281.96872
284.63066
287.02346
289.05917
290.71215
292.01121
293.01995
293.80671
294.42361
294.94216
295.38543
295.72186
296.03239
296.30246
296.54759
296.76441
296.95904
297.14341
297.31094
297.44832
297.59146
297.84222
298.06586
298.1991
298.2658
298.2597
274.60202
275.33224
274.95926
272.87043
266.22417
259.27597
259.60967
259.43829
260.27081
260.33466
261.07959
261.41584
262.15139
262.77507
263.63003
264.56987
265.69102
267.01617
268.55381
270.367
272.4447
274.81609
277.42978
280.20427
282.98172
285.59693
287.90813
289.84084
291.38315
292.57453
293.48519
294.18551
294.72785
295.18569
295.57991
295.87341
296.14921
296.39282
296.61799
296.81975
297.00302
297.17933
297.33843
297.46979
297.62418
297.88882
298.08981
298.20753
298.26675
298.26015
274.87893
275.6273
275.21009
273.00535
265.86715
259.48376
260.04189
259.87784
260.71716
260.79749
261.55157
261.91068
262.66082
263.31429
264.19344
265.17142
266.33113
267.70681
269.30122
271.17976
273.32817
275.76934
278.44004
281.24141
284.00389
286.56118
288.78174
290.60564
292.03474
293.11857
293.93295
294.54949
295.02029
295.42052
295.76836
296.02078
296.26323
296.48152
296.68752
296.87475
297.04699
297.21507
297.36514
297.4929
297.66649
297.9343
298.1129
298.21525
298.26681
298.25897
275.17356
275.93523
275.45956
273.11196
265.5196
259.75944
260.48699
260.32984
261.17563
261.27325
262.03634
262.41939
263.1844
263.86884
264.77344
265.79133
266.99225
268.42123
270.07576
272.02241
274.24377
276.75439
279.47767
282.29671
285.03245
287.5204
289.64156
291.35141
292.66544
293.6424
294.36268
294.89817
295.30057
295.6463
295.95041
296.16363
296.3741
296.56824
296.75589
296.9292
297.09074
297.25036
297.39098
297.51808
297.71854
297.97637
298.13463
298.22222
298.26638
298.25589
275.48054
276.25259
275.70346
273.17105
265.1941
260.0689
260.94603
260.79401
261.64689
261.76173
262.53337
262.94144
263.72194
264.4388
265.37053
266.43048
267.67571
269.16097
270.87892
272.89634
275.19227
277.77102
280.54073
283.36693
286.06335
288.47062
290.48416
292.07558
293.27357
294.14509
294.77386
295.2311
295.56838
295.86271
296.12577
296.30164
296.48152
296.65271
296.82289
296.9829
297.13407
297.28493
297.41621
297.54598
297.77634
298.01431
298.15406
298.22776
298.26098
298.24992
275.80485
276.58777
275.9502
273.17777
264.91682
260.41568
261.41699
261.26808
262.12843
262.26173
263.04227
263.47669
264.2737
265.02467
265.98568
267.0902
268.38301
269.92758
271.71223
273.80297
276.17473
278.8192
281.6278
284.4493
287.09328
289.40857
291.30683
292.77636
293.85824
294.62621
295.16631
295.54812
295.82354
296.06963
296.29426
296.43459
296.58528
296.73469
296.88832
297.0357
297.17673
297.31856
297.44149
297.5782
297.8337
298.04771
298.16918
298.23081
298.25726
298.23987
276.13956
276.93256
276.194
273.11227
264.69209
260.84147
261.89443
261.74968
262.61868
262.77319
263.56344
264.02579
264.84029
265.62739
266.62016
267.77199
269.11584
270.72267
272.57721
274.74354
277.19156
279.89781
282.73595
285.53967
288.1177
290.33011
292.10648
293.45199
294.41863
295.0853
295.5396
295.84913
296.06581
296.26701
296.4558
296.56224
296.68519
296.81398
296.95205
297.08746
297.21849
297.351
297.46751
297.61709
297.88616
298.0756
298.1802
298.23189
298.25518
298.22264
276.47977
277.28755
276.44123
272.97006
264.53361
261.29339
262.38294
262.24272
263.12145
263.29664
264.09719
264.58932
265.4227
266.24823
267.2756
268.47758
269.87582
271.5478
273.47537
275.71944
278.24339
281.00602
283.86276
286.63453
289.13288
291.23206
292.8812
294.10197
294.9547
295.52215
295.89326
296.13427
296.29511
296.45498
296.61048
296.68438
296.78111
296.89047
297.01397
297.13806
297.25912
297.38201
297.49474
297.66441
297.9307
298.09774
298.18861
298.23197
298.25415
298.20003
276.83608
277.66058
276.70175
272.75338
264.45655
261.78866
262.88269
262.74746
263.63545
263.83332
264.64418
265.1682
266.02236
266.8889
267.95372
269.20856
270.66458
272.4046
274.40827
276.73174
279.32991
282.14157
285.00416
287.72894
290.13401
292.11084
293.62942
294.72604
295.46611
295.93617
296.22642
296.40363
296.51147
296.63377
296.75844
296.80087
296.87278
296.96407
297.07398
297.18739
297.29842
297.41158
297.52339
297.71965
297.96704
298.11439
298.193
298.23113
298.25299
298.17502
277.19676
278.04267
276.96932
272.45638
264.45875
262.24583
263.39304
263.26369
264.16204
264.38417
265.20531
265.76386
266.64101
267.55115
268.65615
269.9665
271.48366
273.29472
275.37755
277.78167
280.45104
283.30254
286.15665
288.81872
291.1174
292.96437
294.35119
295.32438
295.95216
296.32666
296.53882
296.65718
296.71554
296.80367
296.89975
296.91179
296.9599
297.03477
297.13202
297.23533
297.33626
297.44002
297.55391
297.77638
297.99949
298.12766
298.19505
298.22907
298.25018
298.15151
277.56728
278.43625
277.2471
272.09134
264.54909
262.74162
263.91367
263.79233
264.7016
264.95008
265.78324
266.37828
267.28039
268.23636
269.38447
270.75285
272.33477
274.21995
276.38483
278.86973
281.60539
284.48523
287.31509
289.89842
292.07879
293.7909
295.0465
295.89536
296.41053
296.69249
296.83158
296.89446
296.90862
296.96479
297.0341
297.01759
297.04229
297.10259
297.18804
297.28174
297.37249
297.46802
297.58791
297.83119
298.02891
298.13968
298.19569
298.22408
298.24389
298.13221
277.94519
278.83811
277.52819
271.66841
264.72806
263.24663
264.44521
264.33499
265.25592
265.53277
266.37982
267.01314
267.94168
268.94594
270.13999
271.5692
273.21964
275.18228
277.43174
279.99668
282.79166
285.68648
288.47498
290.96376
293.01558
294.59054
295.71465
296.43546
296.83981
297.03377
297.10638
297.11528
297.09228
297.11704
297.16085
297.11886
297.12026
297.16747
297.242
297.32644
297.40695
297.49643
297.62796
297.88043
298.05431
298.14976
298.19564
298.21803
298.23298
298.11542
278.33665
279.25199
277.8089
271.20021
264.99325
263.77291
264.99131
264.89426
265.82699
266.13394
266.99528
267.66926
268.62618
269.68094
270.92429
272.41738
274.14041
276.18375
278.51968
281.16197
284.00698
286.90108
289.63039
292.0096
293.92535
295.36295
296.35107
296.94227
297.23877
297.35193
297.3646
297.32062
297.26684
297.26022
297.27955
297.21546
297.19495
297.22919
297.29391
297.36927
297.43947
297.52578
297.67607
297.92176
298.074
298.15584
298.19523
298.2139
298.21616
298.10055
278.7417
279.67774
278.08018
270.71882
265.30777
264.31702
265.55261
265.47037
266.41466
266.75361
267.63006
268.34789
269.33516
270.44281
271.73913
273.29942
275.09932
277.22654
279.64995
282.36525
285.24854
288.12457
290.77635
293.03266
294.80765
296.10663
296.95166
297.41354
297.6092
297.65163
297.60592
297.51328
297.43004
297.39484
297.39082
297.30586
297.26778
297.28749
297.34377
297.41009
297.47005
297.55611
297.73013
297.95605
298.08893
298.15878
298.19301
298.20968
298.19515
298.08733
279.15714
280.11464
278.33012
270.24581
265.69227
264.87809
266.12891
266.06315
267.01957
267.39211
268.28586
269.04979
270.07004
271.23308
272.58658
274.21784
276.09883
278.31264
280.823
283.60444
286.51157
289.35052
291.90691
294.0295
295.66173
296.81541
297.51309
297.84923
297.95656
297.93224
297.8303
297.6943
297.58187
297.52125
297.49559
297.3897
297.33878
297.34237
297.39159
297.44888
297.49907
297.58768
297.78507
297.98632
298.10065
298.15992
298.18971
298.20539
298.17114
298.0758
279.57987
280.56412
278.5434
269.80773
266.17011
265.45425
266.71961
266.67317
267.64245
268.05157
268.96489
269.7758
270.83232
272.05384
273.46922
275.17528
277.14147
279.444
282.03922
284.8775
287.79166
290.57351
293.01782
294.99884
296.48626
297.48381
298.03299
298.25404
298.28361
298.19269
298.03876
297.86358
297.72315
297.63984
297.59356
297.46829
297.40694
297.39445
297.43726
297.4857
297.5274
297.62199
297.83767
298.01325
298.11061
298.16008
298.18499
298.20081
298.15013
298.06582
280.00862
281.02933
278.70637
269.44587
266.70919
266.04701
267.32616
267.30239
268.28497
268.73404
269.66783
270.52802
271.62433
272.90753
274.38998
276.17472
278.2297
280.62191
283.29756
286.18031
289.0823
291.78669
294.10444
295.93911
297.27415
298.10797
298.51186
298.63503
298.5874
298.4341
298.23197
298.02146
297.85444
297.75103
297.68555
297.54201
297.47077
297.44487
297.4805
297.52065
297.55576
297.66175
297.88426
298.03621
298.11922
298.15968
298.17907
298.19476
298.13146
298.05712
280.43622
281.50897
278.80172
269.1927
267.30698
266.65775
267.95047
267.95355
268.94923
269.44066
270.39594
271.30815
272.44842
273.7973
275.35199
277.21903
279.36587
281.84752
284.59686
287.50887
290.37776
292.98483
295.16428
296.84913
298.01893
298.68527
298.9567
298.99183
298.86863
298.65711
298.41082
298.16826
297.97647
297.85523
297.77211
297.61151
297.52948
297.49432
297.52096
297.55371
297.58279
297.70873
297.92257
298.05381
298.12351
298.1575
298.17362
298.18401
298.11501
298.04961
280.85778
282.00076
278.82136
269.01083
267.88501
267.29026
268.59553
268.62753
269.63575
270.172
271.15076
272.11891
273.30804
274.72657
276.3584
278.31106
280.55179
283.12086
285.93383
288.85694
291.67039
294.16204
296.19454
297.72256
298.71489
299.21568
299.37478
299.32225
299.12794
298.86268
298.576
298.30432
298.08994
297.95283
297.85334
297.67638
297.58448
297.54243
297.55842
297.58467
297.61351
297.75955
297.95422
298.06709
298.12577
298.15488
298.16876
298.16881
298.10047
298.04316
281.27315
282.49777
278.77931
268.93868
268.50816
267.94287
269.2601
269.32373
270.34457
270.92934
271.93521
272.96394
274.20721
275.69864
277.41215
279.45335
281.78929
284.44155
287.30523
290.21857
292.95416
295.31448
297.19401
298.55163
299.3591
299.70672
299.76557
299.62685
299.36644
299.05177
298.7283
298.43004
298.19563
298.04417
297.92939
297.73688
297.6361
297.58876
297.59331
297.61387
297.64394
297.81051
297.98162
298.07754
298.12675
298.1516
298.164
298.15203
298.08767
298.03761
281.69315
282.99605
278.6743
268.96688
269.14844
268.61384
269.94388
270.04361
271.07848
271.71643
272.75394
273.84696
275.14947
276.71666
278.516
280.64847
283.07925
285.80761
288.70521
291.58586
294.22176
296.43803
298.15793
299.32829
299.95024
300.1664
300.12689
299.90656
299.58514
299.2253
298.86845
298.54612
298.29396
298.12962
298.00062
297.79361
297.68446
297.63199
297.6267
297.64191
297.67728
297.85882
298.00567
298.08627
298.12694
298.14764
298.15963
298.13408
298.07646
298.03283
282.09499
283.50025
278.51982
269.1257
269.81754
269.30718
270.65034
270.79184
271.84239
272.53836
273.61113
274.77137
276.13757
277.78353
279.67273
281.89878
284.42233
287.2165
290.12813
292.95186
295.46826
297.53061
299.07764
300.04905
300.49464
300.59617
300.45879
300.16267
299.78524
299.38428
298.99723
298.65322
298.38547
298.20957
298.06755
297.84707
297.72967
297.67086
297.65972
297.66992
297.71651
297.90119
298.02595
298.09343
298.12667
298.14316
298.15572
298.1174
298.06657
298.02867
282.49502
283.99963
278.33011
269.40909
270.51517
270.02633
271.38373
271.57359
272.64196
273.3994
274.51008
275.73919
277.17417
278.90239
280.88543
283.20624
285.8177
288.66332
291.56585
294.3081
296.6878
298.5883
299.94334
300.71067
301.00138
300.99341
300.76245
300.39636
299.96784
299.52963
299.11539
298.75197
298.4706
298.28441
298.13059
297.89723
297.77172
297.7065
297.69183
297.69871
297.76225
297.93531
298.04176
298.09775
298.12512
298.13892
298.14917
298.10209
298.05784
298.02502
282.89242
284.48269
278.13284
269.82124
271.24646
270.7796
272.15145
272.39413
273.4798
274.30078
275.45214
276.75347
278.26252
280.07686
282.15709
284.57245
287.26379
290.1428
293.01091
295.64818
297.87675
299.60379
300.74932
301.31654
301.47572
301.35715
301.03934
300.60907
300.13414
299.66233
299.22368
298.843
298.54982
298.35455
298.18999
297.94387
297.81044
297.73966
297.72309
297.72805
297.80737
297.96349
298.05351
298.09999
298.12336
298.13515
298.13976
298.08838
298.05019
298.02179
283.31073
284.9427
277.96967
270.32328
272.01689
271.5712
272.95354
273.25424
274.35683
275.24387
276.44023
277.81712
279.4068
281.31089
283.49059
285.99775
288.75677
291.64697
294.45389
296.9648
299.03061
300.56546
301.49118
301.87652
301.91436
301.68892
301.29084
300.80208
300.28523
299.78325
299.32281
298.92691
298.62358
298.42032
298.24576
297.98692
297.84618
297.77082
297.75346
297.75742
297.85226
297.98718
298.06252
298.10105
298.12114
298.13133
298.12781
298.07635
298.04351
298.01893
283.74994
285.35357
277.8619
270.83226
272.82247
272.3974
273.78964
274.15115
275.27465
276.23145
277.47823
278.93568
280.61123
282.60834
284.8882
287.48159
290.29187
293.16808
295.88702
298.25285
300.14455
301.46378
302.16858
302.40053
302.31518
301.99033
301.51863
300.97684
300.42229
299.89333
299.41352
299.00429
298.69232
298.48204
298.29782
298.02645
297.87934
297.80041
297.78329
297.78731
297.89406
298.0074
298.06976
298.10144
298.11832
298.12794
298.11327
298.06596
298.03772
298.0164
284.23527
285.70261
277.83325
271.50567
273.65448
273.25818
274.65889
275.08918
276.23757
277.26852
278.57299
280.11357
281.88033
283.97288
286.3514
289.02109
291.86165
294.69575
297.30143
299.50606
301.20568
302.29364
302.79108
302.88511
302.67983
302.26299
301.72422
301.13462
300.54637
299.99341
299.49647
299.07567
298.75646
298.53992
298.34599
298.06262
297.91036
297.82899
297.813
297.81915
297.93078
298.02432
298.0756
298.10149
298.11513
298.12551
298.09914
298.057
298.03275
298.0143
284.76293
285.96222
277.89122
272.29947
274.5189
274.16109
275.56873
276.07541
277.25145
278.36082
279.7296
281.35628
283.21821
285.40758
287.88044
290.61235
293.45803
296.22099
298.69019
300.71996
302.20309
303.05212
303.36947
303.32877
303.01001
302.50885
301.90933
301.27686
300.65858
300.08436
299.57234
299.14161
298.81639
298.59413
298.39006
298.09572
297.93973
297.85715
297.84286
297.85425
297.96071
298.03794
298.07986
298.10095
298.11214
298.12151
298.0859
298.04916
298.02852
298.01265
285.35808
286.14051
278.06284
273.1466
275.42449
275.11378
276.52772
277.11569
278.32211
279.5137
280.95239
282.66836
284.62902
286.91489
289.4737
292.24835
295.07026
297.73308
300.04511
301.88359
303.12757
303.74484
303.90556
303.73106
303.30761
302.72966
302.07545
301.40476
300.75991
300.16693
299.64174
299.20258
298.87242
298.64475
298.42991
298.12615
297.96796
297.88539
297.87268
297.89039
297.98506
298.04857
298.08279
298.10028
298.1098
298.11485
298.07407
298.04245
298.02496
298.01134
286.02968
286.24698
278.34573
274.00522
276.37353
276.12089
277.53941
278.21331
279.4537
280.73188
282.24665
284.05477
286.11672
288.49611
291.12792
293.92107
296.68818
299.22374
301.36063
302.98392
303.97491
304.38354
304.39703
304.09444
303.57487
302.92744
302.22425
301.51964
300.85136
300.24192
299.7053
299.25909
298.92487
298.69186
298.46549
298.15444
297.99554
297.91392
297.90215
297.92491
298.00552
298.05688
298.08466
298.0994
298.10797
298.1063
298.06376
298.03675
298.02192
298.01025
286.776
286.2717
278.73962
274.95735
277.36788
277.18507
278.60841
279.37181
280.65133
282.02039
283.61834
285.52106
287.68468
290.15076
292.83673
295.61933
298.29953
300.68303
302.62788
304.00733
304.7452
304.97635
304.84157
304.42079
303.8138
303.10393
302.35718
301.62266
300.93385
300.31003
299.76357
299.31158
298.97403
298.73558
298.49689
298.1812
298.0228
297.94269
297.93088
297.95677
298.02293
298.06365
298.08586
298.09804
298.1067
298.09507
298.05516
298.03187
298.01922
298.00924
287.62043
286.17926
279.26331
275.97782
278.41071
278.31111
279.73783
280.59716
281.92169
283.38508
285.07366
287.07235
289.33502
291.87593
294.59194
297.33159
299.89398
302.10287
303.83201
304.94871
305.45082
305.52009
305.24221
304.71281
304.0268
303.26112
302.4758
301.71502
301.00829
300.37198
299.81712
299.36048
299.02022
298.77611
298.52436
298.20702
298.04992
297.9715
297.95856
297.98546
298.03763
298.06938
298.08725
298.09692
298.10563
298.08396
298.0478
298.02763
298.01679
298.00828
288.59326
285.99775
279.92092
277.07666
279.50655
279.50371
280.93584
281.89651
283.27425
284.83309
286.61865
288.71367
291.06792
293.66572
296.38166
299.04398
301.45921
303.47324
304.95733
305.80343
306.10432
306.01145
305.60086
304.97279
304.21591
303.40069
302.58145
301.79777
301.0755
300.4284
299.86646
299.40619
299.0637
298.81367
298.54831
298.23242
298.07692
298.00007
297.98496
298.01084
298.04994
298.07387
298.08817
298.09606
298.10252
298.07357
298.04142
298.02393
298.01458
298.00736
289.70881
285.76725
280.70243
278.24895
280.66222
280.76991
282.21211
283.27855
284.71722
286.37501
288.26021
290.44744
292.88042
295.51121
298.19311
300.74377
302.98497
304.78126
305.99461
306.58297
306.70339
306.45315
305.92069
305.20353
304.38345
303.52447
302.67553
301.87198
301.13629
300.47993
299.91208
299.44909
299.1046
298.84812
298.56963
298.2578
298.10376
298.02819
298.01006
298.03283
298.06014
298.07746
298.08886
298.09554
298.09814
298.06418
298.03606
298.02094
298.01284
298.00657
290.98047
285.53616
281.60767
279.50497
281.88831
282.12168
283.57858
284.75367
286.26275
288.01793
290.0024
292.27375
294.76641
297.39978
300.01067
302.41653
304.45918
306.00847
306.93789
307.29969
307.2452
306.84731
306.2043
305.40741
304.53139
303.63404
302.75928
301.93859
301.19139
300.52715
299.95445
299.4895
299.14289
298.87873
298.58971
298.28329
298.13029
298.05572
298.03412
298.05135
298.06875
298.08058
298.08955
298.0955
298.09208
298.05596
298.0314
298.01827
298.01133
298.00589
292.38491
285.2705
282.6714
280.85668
283.19825
283.57141
285.04824
286.33394
287.91844
289.76794
291.8469
294.18883
296.71607
299.31709
301.81932
304.04963
305.87016
307.14132
307.79432
307.95696
307.73063
307.19761
306.455
305.58719
304.66192
303.73106
302.83397
301.99857
301.24154
300.57063
299.99404
299.52769
299.17858
298.90507
298.60975
298.3088
298.15621
298.08242
298.05754
298.06653
298.07616
298.08355
298.09002
298.09543
298.08381
298.04885
298.02731
298.01586
298.00997
298.00531
293.91178
285.0508
283.8795
282.31783
284.60781
285.13175
286.63043
288.02694
289.69034
291.6285
293.79192
296.18621
298.71592
301.24564
303.6021
305.62823
307.1965
308.17267
308.57688
308.55085
308.16254
307.50701
306.67554
305.74519
304.77686
303.81697
302.90069
302.05274
301.28739
300.6109
300.03125
299.56388
299.21187
298.92856
298.62933
298.33449
298.18139
298.10767
298.08014
298.07894
298.08239
298.08606
298.09021
298.09352
298.07566
298.04306
298.02405
298.01392
298.0087
298.00482
295.55786
284.90532
285.19813
283.90006
286.13544
286.80683
288.3331
289.83586
291.58112
293.59934
295.83325
298.25479
300.74967
303.1674
305.3434
307.139
308.42178
309.10576
309.2935
309.08116
308.54492
307.7794
306.8692
305.88399
304.8782
303.89326
302.96056
302.10197
301.32959
300.64849
300.06648
299.59826
299.24285
298.94988
298.64887
298.36108
298.20649
298.13093
298.10023
298.08968
298.08807
298.08876
298.08983
298.0906
298.06761
298.0379
298.02122
298.01237
298.00778
298.00441
297.2521
284.98473
286.64893
285.61587
287.78524
288.60128
290.15679
291.76221
293.59235
295.68061
297.9648
300.38006
302.79746
305.06218
307.02506
308.55898
309.53657
309.95415
309.93924
309.55137
308.88131
308.01802
307.03867
306.0057
304.96758
303.96118
303.01454
302.14698
301.36871
300.68385
300.10006
299.63102
299.27183
298.96988
298.66861
298.38919
298.23244
298.15293
298.11598
298.09964
298.09313
298.09124
298.08936
298.08657
298.06005
298.03333
298.01874
298.01106
298.00701
298.00406
298.91141
285.28432
288.20924
287.4479
289.55582
290.51804
292.11271
293.81131
295.72606
297.87056
300.1742
302.5424