/*--------------------------------*- C++ -*----------------------------------*\
  =========                 |
  \\      /  F ield         | OpenFOAM: The Open Source CFD Toolbox
   \\    /   O peration     | Website:  https://openfoam.org
    \\  /    A nd           | Version:  8
     \\/     M anipulation  |
\*---------------------------------------------------------------------------*/
FoamFile
{
    version     2.0;
    format      ascii;
    class       volVectorField;
    location    "0.290003";
    object      U;
}
// * * * * * * * * * * * * * * * * * * * * * * * * * * * * * * * * * * * * * //

dimensions      [0 1 -1 0 0 0 0];

internalField   nonuniform List<vector> 
20000
(
(255.17524 0 1.9105203)
(295.0014 -3.6295363e-22 2.6274764)
(320.33162 -3.8315367e-17 2.7503471)
(341.80425 6.4948819e-17 2.8495265)
(361.43707 -2.7489831e-17 2.876264)
(379.08674 0 2.8525103)
(391.47004 -6.2426218e-19 2.4426273)
(394.62423 -8.2125353e-21 2.6903396)
(393.63759 0 2.1701256)
(394.04465 -1.8387912e-19 2.7181984)
(393.13322 -2.304013e-18 1.9059559)
(393.10548 6.0996617e-18 2.5796194)
(392.21602 3.4283149e-18 1.654348)
(391.76315 -5.666355e-18 2.2542629)
(390.74377 0 1.351784)
(389.83299 0 1.7286156)
(388.49505 3.3978799e-18 0.900362)
(387.02083 5.5106332e-18 0.97048028)
(385.14018 -9.0727054e-18 0.18344263)
(382.91446 -2.365551e-19 -0.086995175)
(380.20539 -3.934766e-19 -0.92215311)
(376.9456 1.0529268e-17 -1.5380324)
(373.04726 -5.4297341e-19 -2.5053814)
(368.39373 -1.1875098e-19 -3.4092942)
(362.92377 1.1809175e-17 -4.4669309)
(356.55096 -1.9481344e-17 -5.4164708)
(349.2844 4.8809256e-17 -6.2213443)
(341.16967 2.8100912e-17 -6.6340229)
(332.34868 -2.1470871e-17 -6.5300024)
(323.00502 0 -5.8509129)
(313.47002 0 -4.7677681)
(304.28975 -2.3278053e-17 -3.5462633)
(296.05007 1.7872115e-17 -2.404936)
(289.03528 8.8851952e-19 -1.4387662)
(283.30545 0 -0.64220273)
(278.72158 -6.8008946e-17 -0.014350559)
(275.07532 0 0.47089208)
(272.20354 3.9049478e-17 0.83489867)
(269.94584 -1.4444373e-16 1.0873716)
(268.16236 1.0762212e-16 1.2516277)
(266.74583 1.627736e-17 1.3293839)
(265.60011 -1.4130782e-16 1.3363567)
(264.6614 1.7345631e-17 1.281271)
(263.86056 0 1.1710174)
(263.16344 -7.5864088e-17 1.0259572)
(262.59972 -1.1265685e-16 0.88458141)
(262.1415 0 0.71298696)
(261.64627 0 0.46162079)
(261.52177 4.9013605e-17 0.14622128)
(260.55254 -9.4566005e-21 -0.50813693)
(254.31545 0 0.86038226)
(294.50729 0 1.4789673)
(320.0562 -6.1196652e-19 1.4604064)
(341.72629 0 1.4778845)
(361.53036 -7.5756207e-18 1.4259856)
(379.28169 6.1056585e-18 1.3328462)
(391.19881 -6.4334354e-19 0.86040564)
(394.01385 2.1488424e-18 1.1463501)
(392.96268 -3.6036043e-18 0.55910234)
(393.38566 0 1.1560789)
(392.43471 0 0.26616238)
(392.4069 0 0.99290226)
(391.48019 -6.9668791e-18 -0.0067180081)
(391.00893 1.158173e-17 0.6327662)
(389.94984 -1.4528042e-17 -0.33228531)
(389.0023 8.0205028e-18 0.061814731)
(387.61558 -1.6813923e-17 -0.81570539)
(386.08508 1.6691758e-17 -0.75112026)
(384.13834 0 -1.5793468)
(381.83216 0 -1.8749642)
(379.02963 -1.2984415e-17 -2.7504798)
(375.6596 -6.6063358e-20 -3.4039968)
(371.63667 1.7979454e-17 -4.4104537)
(366.84739 -5.8906705e-17 -5.3502863)
(361.23726 0 -6.4337648)
(354.73729 0 -7.3953866)
(347.38318 3.3718484e-17 -8.1881152)
(339.265 0 -8.5615565)
(330.57064 0 -8.3880813)
(321.51473 0 -7.6034141)
(312.39002 -1.4657476e-16 -6.3603458)
(303.62148 2.2862534e-17 -4.917883)
(295.68569 1.658547e-16 -3.5237496)
(288.85577 -4.3173651e-17 -2.3155373)
(283.21617 -1.3350239e-16 -1.3105163)
(278.68393 5.1187114e-17 -0.51698855)
(275.06707 -2.5931427e-17 0.094733877)
(272.21111 1.9345831e-17 0.55448113)
(269.95981 1.1629506e-16 0.87805173)
(268.17874 -8.6453679e-17 1.0951571)
(266.76303 3.2039924e-17 1.2118665)
(265.61653 -1.1797102e-16 1.2486961)
(264.67428 2.7815266e-16 1.2135079)
(263.86918 0 1.1176792)
(263.17031 7.557729e-17 0.98515121)
(262.60565 1.1197986e-16 0.85519784)
(262.11822 1.0449004e-17 0.69011539)
(261.64766 -7.8635539e-18 0.44795368)
(261.31481 1.5075667e-16 0.12848203)
(260.59535 7.1521158e-17 -0.50723832)
(253.45769 0 -0.21391956)
(293.99271 7.76957e-19 0.32587532)
(319.79897 6.2294201e-19 0.16383414)
(341.69366 5.2947403e-18 0.095312041)
(361.68172 -3.6386545e-18 -0.042786711)
(379.54332 0 -0.22284873)
(390.9048 1.3029378e-18 -0.77051689)
(393.36678 -8.7671845e-18 -0.44699007)
(392.26486 -1.8604459e-18 -1.0908108)
(392.7001 9.1623754e-18 -0.43961889)
(391.71042 -5.111954e-18 -1.3992923)
(391.67956 4.2522702e-18 -0.62183264)
(390.71671 -1.4180178e-17 -1.6887524)
(390.22538 -5.8933596e-18 -1.0153696)
(389.12773 -4.957146e-18 -2.0363428)
(388.1428 -1.6464747e-17 -1.6309246)
(386.70827 1.3626166e-17 -2.5520913)
(385.12079 0 -2.4982365)
(383.10766 -1.9086118e-17 -3.3644205)
(380.71886 1.5687258e-17 -3.6891475)
(377.82114 2.6363844e-17 -4.6029849)
(374.33751 4.3845612e-17 -5.2950558)
(370.18694 -1.8082024e-17 -6.3372877)
(365.25636 -4.5315953e-17 -7.3092252)
(359.49958 -6.2725252e-17 -8.4102498)
(352.86269 1.0135074e-17 -9.3709004)
(345.40868 -5.0374903e-17 -10.131227)
(337.26718 9.8233961e-17 -10.438924)
(328.66566 0 -10.167531)
(319.8439 1.4784759e-16 -9.2568854)
(311.07162 2.6701883e-16 -7.8530874)
(302.68783 -2.3195596e-17 -6.2093699)
(295.07396 -2.9786861e-16 -4.5891532)
(288.47584 -2.0333842e-16 -3.1603337)
(282.98737 1.5726093e-16 -1.9609666)
(278.54896 -3.4502594e-17 -1.0099642)
(274.99055 5.1979082e-17 -0.27626472)
(272.17012 -3.1295754e-16 0.27635498)
(269.93862 -4.385617e-17 0.66932029)
(268.1686 -1.0579572e-19 0.93832683)
(266.75867 2.4058193e-16 1.0933398)
(265.61449 5.9106117e-16 1.1580861)
(264.66996 -2.9565083e-16 1.1436407)
(263.86114 3.8372201e-17 1.0622665)
(263.16301 -3.3906721e-16 0.94271755)
(262.60009 1.3909312e-17 0.82357171)
(262.10485 -3.3143365e-16 0.66497902)
(261.63459 -7.7858391e-18 0.42877023)
(261.21427 -3.7947771e-16 0.1087241)
(260.59846 -7.159946e-17 -0.50274331)
(252.62672 -1.6828664e-17 -1.3051434)
(293.49561 -7.9052165e-19 -0.84067496)
(319.54802 0 -1.1468352)
(341.65768 -1.8383266e-17 -1.3087422)
(361.81653 1.4863983e-17 -1.5345528)
(379.78509 0 -1.7999991)
(390.53623 0 -2.4116832)
(392.6824 0 -2.0481361)
(391.53114 -1.4270991e-20 -2.7551003)
(391.97888 -3.1075661e-18 -2.0492481)
(390.95018 5.1906447e-18 -3.0834617)
(390.91623 1.2998368e-17 -2.2541063)
(389.91662 7.2121449e-18 -3.3909406)
(389.40485 0 -2.6819339)
(388.26808 -5.1602063e-20 -3.7590252)
(387.24497 2.5106956e-17 -3.3412861)
(385.76138 -1.4004122e-17 -4.3056241)
(384.11475 1.1557116e-17 -4.2627719)
(382.03231 0 -5.1664033)
(379.55727 1.6215685e-17 -5.5202658)
(376.5605 -2.6502283e-17 -6.4706171)
(372.95909 -5.5455441e-17 -7.1991028)
(368.67639 1.8175556e-17 -8.2730223)
(363.59936 7.6349899e-17 -9.2715458)
(357.69076 -4.1923727e-19 -10.381722)
(350.9122 2.13379e-17 -11.329328)
(343.35503 -1.560955e-16 -12.040914)
(335.18652 -1.1305268e-16 -12.263549)
(326.66955 -1.8585562e-16 -11.875267)
(318.06365 -1.3030647e-16 -10.825514)
(309.62002 -1.3472744e-16 -9.2604367)
(301.60888 0 -7.4291936)
(294.32917 1.69546e-16 -5.6036311)
(287.98761 2.2023543e-16 -3.9734269)
(282.67475 0 -2.5934463)
(278.35299 -3.478472e-17 -1.4931569)
(274.87054 2.6043995e-17 -0.6422306)
(272.09856 6.2998108e-16 0.00061676994)
(269.89757 0 0.46148588)
(268.14549 -2.1828185e-17 0.78153667)
(266.74487 -2.4133044e-16 0.97456364)
(265.6054 -3.7882189e-16 1.0675056)
(264.66117 5.7393939e-16 1.0734785)
(263.85092 -4.2135373e-16 1.0068614)
(263.15489 3.1914884e-16 0.9005487)
(262.59335 -1.3831636e-17 0.7917096)
(262.08992 3.2865502e-16 0.63977047)
(261.61621 7.6950079e-18 0.40688832)
(261.1 1.8662244e-16 0.089881518)
(260.61025 -4.5084511e-18 -0.49302265)
(251.83044 -3.7800543e-17 -2.3793777)
(293.02381 2.4240562e-17 -2.0363158)
(319.32023 -4.0356954e-17 -2.4653978)
(341.64053 7.2879662e-17 -2.7298191)
(361.95856 -6.2630335e-17 -3.0488964)
(380.02533 2.5910863e-17 -3.4038839)
(390.10147 0 -4.0749)
(391.95988 -2.2793772e-17 -3.6717545)
(390.76156 1.9052585e-17 -4.4438956)
(391.22018 0 -3.6810874)
(390.15215 -2.1231959e-17 -4.7893435)
(390.11406 8.8113957e-18 -3.9059904)
(389.07768 0 -5.1113755)
(388.54448 0 -4.3664241)
(387.36811 0 -5.4979719)
(386.30492 -1.7013135e-17 -5.0693089)
(384.77022 1.4275663e-17 -6.0755953)
(383.06097 1.1951068e-19 -6.0457689)
(380.90546 -2.9648035e-17 -6.985658)
(378.33981 1.6300807e-17 -7.3693353)
(375.23944 0 -8.3539462)
(371.5153 1.1470791e-17 -9.1171528)
(367.09485 9.7595637e-18 -10.21874)
(361.86539 -3.1310362e-17 -11.238604)
(355.79919 5.1282365e-17 -12.349384)
(348.8748 1.053454e-17 -13.27148)
(341.21299 1.4052436e-16 -13.917416)
(333.01723 -1.1619142e-16 -14.035403)
(324.58091 1.8763623e-16 -13.511346)
(316.17772 1.9309873e-17 -12.309127)
(308.04231 -1.500305e-17 -10.580348)
(300.38997 -2.4518068e-17 -8.5719906)
(293.44899 1.8804785e-17 -6.5592723)
(287.38255 0 -4.7462121)
(282.27043 0 -3.2003624)
(278.08813 -3.5059512e-17 -1.9608093)
(274.69983 2.6227835e-17 -0.99899132)
(271.98999 -3.1674577e-16 -0.26986462)
(269.82913 -4.7223334e-16 0.25649639)
(268.10205 0 0.62611156)
(266.71608 -4.8372257e-16 0.85628268)
(265.58513 7.4249998e-20 0.97680188)
(264.64384 -1.7299952e-17 1.0030277)
(263.83445 4.3331348e-16 0.95124086)
(263.14234 3.8587736e-20 0.85823962)
(262.58325 -1.3750397e-17 0.75939277)
(262.07475 0 0.61385176)
(261.58544 0 0.38272178)
(261.01446 5.7409321e-18 0.071431043)
(260.62056 -2.8888274e-16 -0.48229428)
(251.05306 -7.7169613e-17 -3.3944456)
(292.56385 5.2778148e-17 -3.2821761)
(319.10349 1.3366682e-18 -3.8052602)
(341.63242 3.1579426e-17 -4.1753822)
(362.09812 -2.516867e-17 -4.5911967)
(380.24715 -3.3094974e-18 -5.0367598)
(389.59334 2.2134763e-17 -5.7579356)
(391.1971 -1.3917039e-17 -5.3125694)
(389.95425 -3.1129115e-17 -6.1502653)
(390.42344 2.582827e-17 -5.3288277)
(389.31666 0 -6.5118066)
(389.27387 1.8013479e-17 -5.5734791)
(388.20052 -1.4977486e-17 -6.8474428)
(387.64445 0 -6.067256)
(386.42703 0 -7.2526518)
(385.32088 -1.7421744e-17 -6.8149529)
(383.73198 -2.9046928e-17 -7.8623755)
(381.95594 0 -7.8473576)
(379.72301 0 -8.8220307)
(377.06198 0 -9.2356159)
(373.85281 1.4047892e-17 -10.251946)
(370.0001 2.3415447e-19 -11.047828)
(365.43517 -9.5085268e-18 -12.172825)
(360.04638 1.2828606e-16 -13.208296)
(353.81646 0 -14.31054)
(346.74299 -1.9780189e-16 -15.194002)
(338.97773 -1.268969e-16 -15.757235)
(330.7593 3.5402131e-16 -15.751827)
(322.40722 -1.9257027e-16 -15.074904)
(314.2039 1.9615902e-17 -13.708591)
(306.36673 -2.6389553e-16 -11.81379)
(299.0642 0 -9.6368076)
(292.46371 0 -7.4529003)
(286.68395 -3.0206011e-17 -5.4745366)
(281.78902 4.606616e-17 -3.7776126)
(277.76347 -1.7450289e-17 -2.4094314)
(274.48416 -2.6660355e-17 -1.3438824)
(271.84815 -6.1741188e-16 -0.53312912)
(269.73626 4.7413356e-16 0.055763249)
(268.04062 0 0.47305159)
(266.67413 -9.1169294e-20 0.73923983)
(265.55513 -2.3749513e-17 0.88664882)
(264.61953 -5.5598597e-16 0.93273623)
(263.81338 8.2659139e-16 0.89576069)
(263.12689 0 0.81598041)
(262.57126 -4.3776541e-16 0.72677159)
(262.05773 -6.4600682e-16 0.58698133)
(261.5375 -4.653014e-16 0.35707756)
(260.9448 -1.1270828e-17 0.053870868)
(260.6289 2.7589507e-16 -0.46941944)
(250.29812 7.8733377e-17 -4.4413751)
(292.12162 -1.0774692e-16 -4.5311252)
(318.9031 4.0690026e-17 -5.1643552)
(341.64025 2.2974368e-18 -5.6424352)
(362.24243 -3.9469419e-18 -6.1581225)
(380.44743 3.3583966e-18 -6.6949934)
(389.01464 -5.0762807e-17 -7.4582045)
(390.39896 3.3059243e-17 -6.9686378)
(389.1132 2.3773404e-17 -7.8718939)
(389.59181 -1.9707305e-17 -6.9907639)
(388.44603 3.306317e-17 -8.249907)
(388.39704 7.7101741e-20 -7.2563785)
(387.28569 0 -8.5990609)
(386.7044 2.5536813e-17 -7.7849976)
(385.44376 -2.1181818e-17 -9.0236446)
(384.29118 1.765923e-17 -8.5791434)
(382.64469 -1.597071e-19 -9.666528)
(380.79762 0 -9.6679067)
(378.48306 0 -10.675349)
(375.72196 0 -11.118661)
(372.39857 5.6982679e-17 -12.163998)
(368.41097 -9.4808835e-17 -12.990407)
(363.69429 -1.9849604e-17 -14.134332)
(358.13898 3.3667626e-17 -15.179183)
(351.73947 -1.3270246e-17 -16.263011)
(344.51492 1.9996006e-16 -17.093868)
(336.64971 1.2791635e-16 -17.556924)
(328.41639 -2.3886378e-16 -17.409861)
(320.15602 2.1898278e-16 -16.564359)
(312.15427 -3.9253851e-17 -15.023817)
(304.6096 2.6620766e-16 -12.961055)
(297.64951 0 -10.622728)
(291.38868 0 -8.2818366)
(285.90287 -3.0500601e-17 -6.1545971)
(281.23801 -3.347606e-19 -4.3212553)
(277.38343 -2.0550883e-19 -2.8356197)
(274.22596 -1.3535894e-17 -1.6742256)
(271.67424 3.9603505e-17 -0.78718802)
(269.61929 1.4997804e-17 -0.13927206)
(267.9611 -7.0388751e-16 0.32341409)
(266.61883 5.0167211e-16 0.62417653)
(265.51512 2.3758845e-17 0.79753886)
(264.58785 -1.7330195e-17 0.86295943)
(263.78732 -7.8634371e-16 0.84067128)
(263.10826 -5.9353788e-16 0.77393141)
(262.55747 4.2132793e-16 0.69392841)
(262.03872 1.2602326e-15 0.55859319)
(261.47183 4.8909448e-16 0.33080662)
(260.89398 0 0.037555703)
(260.63283 -2.6972123e-16 -0.45488397)
(249.56712 -1.5819938e-16 -5.5027376)
(291.69951 1.1165572e-16 -5.7912558)
(318.72189 4.2226862e-20 -6.5403184)
(341.66772 -7.045354e-17 -7.1296737)
(362.39663 0 -7.749608)
(380.61896 5.4873428e-17 -8.3769607)
(388.36763 -4.5926483e-17 -9.173537)
(389.56763 -2.4109667e-17 -8.6392113)
(388.23982 7.9751579e-18 -9.6093734)
(388.72611 -6.7621348e-18 -8.6674352)
(387.54067 -3.6134434e-20 -10.004017)
(387.48346 -1.8602211e-17 -8.9554682)
(386.33266 4.6749284e-17 -10.36702)
(385.7233 -5.1879266e-17 -9.5209614)
(384.41691 4.3407732e-17 -10.812065)
(383.21429 -1.7959806e-17 -10.362926)
(381.50691 2.9982581e-17 -11.488529)
(379.5848 0 -11.507514)
(377.18448 0 -12.545313)
(374.31849 6.9757822e-17 -13.018032)
(370.8749 -4.3060656e-17 -14.089655)
(366.74542 9.6149134e-17 -14.944289)
(361.86912 -1.1043677e-16 -16.102322)
(356.1398 -2.3235732e-16 -17.149635)
(349.56521 -2.746938e-17 -18.204207)
(342.18895 -1.1900434e-17 -18.967438)
(334.22969 1.8327879e-17 -19.312323)
(325.99244 -2.6103812e-16 -19.005804)
(317.83506 3.7331851e-17 -17.97741)
(310.04112 -1.9651316e-17 -16.254172)
(302.78782 0 -14.022419)
(296.16526 0 -11.529584)
(290.24216 0 -9.0447056)
(285.054 -4.9011105e-16 -6.7840257)
(280.62767 -7.518068e-16 -4.8285195)
(276.95476 0 -3.236748)
(273.92951 -2.6981396e-17 -1.9878326)
(271.47093 6.6321245e-16 -1.0303414)
(269.47999 -9.5593328e-16 -0.327342)
(267.86466 1.4113063e-15 0.17813692)
(266.5509 -1.0372534e-15 0.5117752)
(265.46561 0 0.70997152)
(264.54919 1.0921558e-15 0.79406158)
(263.75659 1.2630695e-17 0.78623758)
(263.08691 1.1631181e-15 0.73228142)
(262.54213 2.6997264e-17 0.66090176)
(262.01605 -6.440407e-16 0.52831624)
(261.39597 0 0.30423705)
(260.8532 7.0396031e-16 0.02299873)
(260.63286 7.8704881e-16 -0.44017743)
(248.86491 2.5054963e-18 -6.5772908)
(291.30164 -1.1210242e-16 -7.0638383)
(318.56176 0 -7.9338136)
(341.71644 7.1970135e-17 -8.6374276)
(362.56469 6.1659595e-20 -9.3678333)
(380.75115 -6.2798448e-17 -10.083197)
(387.65178 5.2680079e-17 -10.904803)
(388.70259 -8.8279285e-17 -10.325312)
(387.3334 8.1536812e-18 -11.364152)
(387.82554 -7.4014073e-20 -10.360336)
(386.59968 1.1305867e-17 -11.77539)
(386.53187 -1.9035253e-17 -10.672404)
(385.33986 0 -12.152719)
(384.69938 5.2839513e-17 -11.27666)
(383.34489 1.334526e-19 -12.618744)
(382.0889 -1.8287692e-17 -12.166826)
(380.31765 -1.5384701e-17 -13.328329)
(378.31672 -1.2974104e-17 -13.36592)
(375.82654 2.1117619e-17 -14.431488)
(372.85054 -1.4165685e-16 -14.93332)
(369.28023 -1.1835611e-16 -16.028549)
(365.00131 0 -16.908885)
(359.95716 6.0540593e-17 -18.075748)
(354.04644 1.513585e-16 -19.117788)
(347.29206 2.1102475e-16 -20.131174)
(339.76528 1.1361988e-17 -20.810654)
(331.72048 0 -21.018902)
(323.49309 2.4754921e-16 -20.535688)
(315.45278 4.0551084e-16 -19.311553)
(307.87576 -3.0551376e-16 -17.398877)
(300.91543 3.9881604e-19 -14.998197)
(294.62705 -4.2229756e-16 -12.357626)
(289.0389 0 -9.7408734)
(284.14951 4.9332678e-16 -7.3612509)
(279.96707 7.5633339e-16 -5.2973233)
(276.48366 0 -3.6107061)
(273.59883 -8.657854e-16 -2.2828532)
(271.24077 6.2629459e-16 -1.2610982)
(269.3199 9.7355007e-16 -0.50729884)
(267.75226 -7.0704409e-16 0.038090796)
(266.47092 1.0379832e-15 0.40267962)
(265.4069 -7.5927464e-16 0.6244184)
(264.50369 -1.1074839e-15 0.72639615)
(263.7213 0 0.73271546)
(263.06313 -6.0623359e-16 0.69118772)
(262.525 1.3391832e-17 0.62767799)
(261.98688 0 0.49626222)
(261.31848 -1.4466621e-17 0.27738132)
(260.8175 -6.6528612e-16 0.010355034)
(260.62996 -5.2384771e-16 -0.42382735)
(248.18806 -1.6203061e-16 -7.6673634)
(290.92604 2.2871062e-16 -8.35664)
(318.41935 -8.9343484e-17 -9.3522242)
(341.78333 -4.9038768e-18 -10.172604)
(362.74801 -6.3025871e-17 -11.021153)
(380.83152 7.0145351e-18 -11.816852)
(386.86295 4.7644983e-17 -12.655447)
(387.80275 0 -12.028225)
(386.39278 -8.3384715e-18 -13.136402)
(386.88872 -4.1770309e-17 -12.070107)
(385.62148 1.1544172e-17 -13.565169)
(385.54039 1.9289137e-17 -12.409026)
(384.30547 0 -13.957388)
(383.63114 1.4284721e-19 -13.052991)
(382.22668 -2.2359339e-17 -14.443783)
(380.91434 -3.750673e-17 -13.990788)
(379.07643 0 -15.185565)
(376.99292 5.2137433e-17 -15.242723)
(374.40851 0 -16.333501)
(371.31681 -5.1820773e-19 -16.86429)
(367.61251 2.2508848e-16 -17.980449)
(363.17605 2.4978335e-17 -18.883596)
(357.9556 -1.5610461e-16 -20.053416)
(351.85631 -3.4454871e-17 -21.081481)
(344.91847 -2.1324005e-16 -22.040518)
(337.24447 1.6564046e-16 -22.61896)
(329.12536 -2.9258202e-16 -22.671711)
(320.9244 -2.7050152e-16 -21.995253)
(313.01772 -3.9596976e-16 -20.56409)
(305.66906 -2.6503673e-18 -18.457032)
(299.00549 5.2667612e-16 -15.888775)
(293.04924 2.3798556e-17 -13.107508)
(287.79283 -1.9964803e-17 -10.370428)
(283.20131 0 -7.8855559)
(279.2653 7.880016e-16 -5.7263526)
(275.97658 5.6107915e-16 -3.9559633)
(273.23831 8.4212594e-16 -2.5578361)
(270.98662 2.0748369e-17 -1.4782263)
(269.1409 -9.6203011e-16 -0.67815724)
(267.62514 0 -0.095958978)
(266.37964 -3.2507317e-17 0.29746784)
(265.33949 1.5411092e-15 0.54131366)
(264.45165 0 0.66029839)
(263.68172 0 0.68034825)
(263.03738 1.1696771e-15 0.65075745)
(262.50567 0 0.59411555)
(261.947 0 0.46291672)
(261.24474 0 0.25030367)
(260.78486 -6.7536326e-16 -0.00042152207)
(260.62486 5.0846989e-16 -0.40639497)
(247.52989 2.5863613e-18 -8.7709846)
(290.5706 3.6521687e-18 -9.6665148)
(318.29158 -2.9346902e-18 -10.793575)
(341.86525 8.4876191e-17 -11.732551)
(362.9467 -7.2768228e-17 -12.707843)
(380.85394 0 -13.57118)
(385.98805 -1.2172302e-17 -14.422828)
(386.86792 -1.0190825e-17 -13.748118)
(385.41668 -6.8119295e-17 -14.927717)
(385.91359 1.3947755e-17 -13.798841)
(384.60382 3.528028e-17 -15.375276)
(384.50715 3.9435847e-17 -14.166847)
(383.22835 -6.5708214e-17 -15.781286)
(382.51803 -1.6407989e-19 -14.849734)
(381.06204 -2.3043897e-17 -16.286612)
(379.69042 3.7961326e-17 -15.834407)
(377.78295 0 -17.059779)
(375.61289 3.4536052e-19 -17.137574)
(372.92933 -2.2206515e-17 -18.251168)
(369.71552 1.0992995e-16 -18.810862)
(365.86929 -1.3700791e-16 -19.945148)
(361.26685 1.0225658e-16 -20.867677)
(355.86161 1.4706776e-16 -22.033845)
(349.56698 1.4069758e-16 -23.03812)
(342.44341 1.4301159e-17 -23.928305)
(334.6279 -1.9112201e-16 -24.387291)
(326.44863 -3.3357738e-18 -24.265474)
(318.29322 5.1528771e-16 -23.380126)
(310.53871 0 -21.732347)
(303.43143 3.5456415e-16 -19.427826)
(297.06977 3.9897475e-18 -16.694701)
(291.44443 3.7817459e-16 -13.780227)
(286.51621 2.0187806e-17 -10.934003)
(282.22008 3.1619941e-17 -8.3568645)
(278.53081 2.1436077e-18 -6.1149046)
(275.43972 5.8388626e-16 -4.2714848)
(272.8523 9.1601924e-16 -2.8116907)
(270.71143 -6.9170104e-16 -1.6807393)
(268.94492 9.3376782e-16 -0.83908921)
(267.48457 -1.3750632e-15 -0.2233463)
(266.27789 -1.6202718e-17 0.19665476)
(265.2639 -2.2978142e-15 0.46105314)
(264.39337 1.7206722e-17 0.59608672)
(263.63812 0 0.62936568)
(263.01006 -2.3262609e-15 0.61106737)
(262.48365 0 0.55991235)
(261.89271 1.9267209e-17 0.42901345)
(261.17831 8.8754681e-16 0.22324374)
(260.75519 6.639601e-16 -0.0095635752)
(260.61829 -9.9098167e-16 -0.3879852)
(246.88307 -2.6569572e-18 -9.8857284)
(290.2341 1.1512162e-16 -10.985786)
(318.17553 0 -12.253243)
(341.95795 0 -13.31254)
(363.15907 0 -14.422479)
(380.81057 -5.8881239e-17 -15.339668)
(384.97181 1.6081827e-16 -16.206849)
(385.89436 -6.1989522e-17 -15.491356)
(384.40183 8.6664798e-17 -16.744552)
(384.89763 -5.7483446e-17 -15.550005)
(383.54542 -2.4197274e-17 -17.2059)
(383.4319 3.9959728e-17 -15.944969)
(382.10888 0 -17.623005)
(381.36044 -2.794163e-17 -16.666096)
(379.85109 6.9505124e-17 -18.14668)
(378.41698 0 -17.697433)
(376.43681 0 -18.950646)
(374.1758 -1.0774298e-16 -19.050307)
(371.38745 0 -20.184535)
(368.04433 0 -20.773088)
(364.04769 -1.2512446e-16 -21.92239)
(359.27059 -1.1636905e-16 -22.860204)
(353.6721 1.062899e-17 -24.015277)
(347.17599 -1.4244968e-16 -24.984684)
(339.86614 2.3843665e-16 -25.790062)
(331.91757 4.1844874e-16 -26.110105)
(323.69524 -2.3169367e-17 -25.794642)
(315.60691 -2.6078027e-16 -24.685891)
(308.02475 0 -22.813745)
(301.17292 -6.6074917e-16 -20.310592)
(295.11918 -1.1119085e-15 -17.416717)
(289.82402 8.6253186e-16 -14.377091)
(285.2201 0 -11.432705)
(281.21563 1.0485838e-15 -8.7756736)
(277.77153 -1.5730013e-15 -6.4628332)
(274.8791 -2.3240634e-15 -4.5567006)
(272.4451 -9.1892413e-16 -3.0436775)
(270.41818 2.0354701e-17 -1.8678979)
(268.73399 0 -0.98943348)
(267.33192 -7.3519004e-19 -0.34351438)
(266.16659 -3.2512917e-17 0.10068375)
(265.1807 1.5374147e-15 0.38398893)
(264.32922 -1.082893e-15 0.53406224)
(263.59089 -1.6080655e-15 0.57997489)
(262.98153 1.1381878e-15 0.57218124)
(262.45849 8.517708e-16 0.52464668)
(261.82354 0 0.39518106)
(261.11958 -1.779445e-15 0.19673148)
(260.72793 1.0204004e-17 -0.017352457)
(260.61079 4.753761e-16 -0.36868318)
(246.24687 1.7141687e-16 -11.02836)
(289.90825 0 -12.324455)
(318.06926 -9.7925857e-17 -13.742977)
(342.05827 8.3042121e-17 -14.920999)
(363.38453 1.5138904e-16 -16.170039)
(380.68949 -1.1952218e-16 -17.129509)
(383.91609 -1.0081151e-16 -18.011589)
(384.87917 7.3614946e-17 -17.254452)
(383.34798 -8.8073128e-17 -18.582899)
(383.84207 5.8472281e-17 -17.320053)
(382.44817 2.4527269e-17 -19.053156)
(382.31618 -4.0830676e-17 -17.741184)
(380.94799 -1.8214564e-19 -19.481457)
(380.15854 -5.68609e-17 -18.502121)
(378.59362 -1.8023269e-19 -20.023928)
(377.0936 5.917923e-17 -19.579806)
(375.03729 0 -20.85802)
(372.68031 -3.7938236e-19 -20.981073)
(369.78064 -1.1476532e-16 -22.133922)
(366.30036 -1.3408479e-16 -22.751053)
(362.14447 -1.0804511e-18 -23.911758)
(357.18395 -1.3360241e-17 -24.859973)
(351.38388 -1.6572524e-16 -25.995571)
(344.681 0 -26.917626)
(337.18639 -2.5562902e-16 -27.620709)
(329.11623 -3.8427631e-16 -27.78139)
(320.87096 3.461574e-16 -27.253482)
(312.87346 -1.637371e-17 -25.908215)
(305.485 0 -23.805933)
(298.90325 6.8653759e-16 -21.10492)
(293.16375 1.1094388e-15 -18.055818)
(288.19823 -8.6761368e-16 -14.89971)
(283.91439 -2.0909463e-17 -11.868037)
(280.19679 -1.0379601e-15 -9.1429451)
(276.99477 1.5593686e-15 -6.7704583)
(274.30036 1.1949143e-15 -4.8114455)
(272.02091 2.7638889e-17 -3.2533751)
(270.10985 -1.332496e-15 -2.0391955)
(268.51017 -9.6870759e-16 -1.1286917)
(267.16861 2.8435075e-15 -0.45601522)
(266.04667 1.0388462e-15 0.0099264951)
(265.09051 1.5118003e-15 0.31043)
(264.25965 1.0965451e-15 0.47451595)
(263.54048 1.588203e-15 0.53236439)
(262.95189 0 0.53416365)
(262.42942 -8.1878344e-16 0.48799246)
(261.74355 -1.2350645e-15 0.3615819)
(261.06545 8.9157225e-16 0.17152719)
(260.70234 1.0032325e-17 -0.023975356)
(260.60282 9.4524862e-16 -0.34858974)
(245.62242 0 -12.182744)
(289.59557 3.8645611e-18 -13.673228)
(317.97795 0 -15.250241)
(342.16875 -1.6946353e-16 -16.548403)
(363.62398 1.2676417e-16 -17.9468)
(380.48465 -1.2917933e-16 -18.943117)
(382.89298 8.9527041e-17 -19.835621)
(383.82903 1.0732768e-17 -19.024591)
(382.26007 0 -20.43345)
(382.75049 1.4931026e-17 -19.105266)
(381.31391 4.9992703e-17 -20.916615)
(381.16049 -8.2878095e-17 -19.556288)
(379.74533 3.4305144e-17 -21.357572)
(378.91174 2.8566537e-17 -20.358352)
(377.28909 0 -21.91833)
(375.71964 -3.9995024e-17 -21.481393)
(373.58323 -3.3648149e-17 -22.781978)
(371.12442 8.330841e-17 -22.930227)
(368.10609 1.8606188e-16 -24.099718)
(364.48033 1.3489702e-16 -24.744681)
(360.15617 1.6092791e-16 -25.912561)
(355.00342 -1.3273274e-17 -26.865456)
(348.99365 3.3522352e-16 -27.972152)
(342.07984 1.8268956e-17 -28.832817)
(334.40443 -1.5619816e-17 -29.414557)
(326.22745 -3.9590303e-16 -29.394704)
(317.98236 0 -28.63615)
(310.10133 -1.7152548e-17 -27.042933)
(302.92873 1.3463706e-17 -24.706867)
(296.63184 0 -21.810716)
(291.21284 -5.5113995e-16 -18.613283)
(286.57626 0 -15.349984)
(282.60789 0 -12.241846)
(279.1715 0 -9.4600378)
(276.20717 -1.5697783e-15 -7.0385011)
(273.70877 -1.1849561e-15 -5.0359127)
(271.58371 8.8618457e-16 -3.4406537)
(269.78935 1.3143203e-15 -2.1943458)
(268.27552 9.391408e-16 -1.2565235)
(266.9961 -2.8225284e-15 -0.56051055)
(265.91912 -2.1081647e-15 -0.075318263)
(264.99395 -2.9699834e-15 0.24064208)
(264.18517 -1.7055652e-17 0.41773234)
(263.48749 0 0.48671777)
(262.92092 0 0.49706682)
(262.39468 0 0.449998)
(261.65716 1.2123188e-15 0.32813468)
(261.01295 8.5282678e-16 0.14820428)
(260.67796 1.2721506e-15 -0.029436529)
(260.59472 -1.8576031e-15 -0.32771353)
(245.02602 3.5555167e-16 -13.353486)
(289.30703 -2.589784e-16 -15.043582)
(317.90894 -6.3703132e-18 -16.784703)
(342.29699 1.7265516e-16 -18.204928)
(363.87804 -2.8572262e-16 -19.763111)
(380.19889 1.2318063e-16 -20.782592)
(381.82918 -7.8258266e-17 -21.685315)
(382.74576 7.612968e-17 -20.812325)
(381.13806 1.8254609e-17 -22.302558)
(381.62163 -6.0588463e-17 -20.910825)
(380.14118 -1.009304e-19 -22.799653)
(379.96337 0 -21.392527)
(378.49992 3.5285564e-17 -23.251826)
(377.61944 5.8859596e-17 -22.234822)
(375.937 -2.4571524e-17 -23.829539)
(374.29416 2.0302433e-17 -23.402347)
(372.07278 1.0255076e-16 -24.723042)
(369.50538 1.1436663e-16 -24.898476)
(366.36046 -1.4164175e-16 -26.082354)
(362.58071 1.9537298e-17 -26.753712)
(358.0792 0 -27.923865)
(352.72527 1.3864171e-17 -28.874815)
(346.49802 -1.9252456e-16 -29.94198)
(339.37057 -1.920444e-17 -30.725479)
(331.52127 -2.5267336e-16 -31.165304)
(323.2557 4.2376255e-16 -30.943256)
(315.03679 -3.4072243e-16 -29.93681)
(307.29947 5.3647397e-16 -28.086154)
(300.3653 -4.3241322e-16 -25.514888)
(294.36776 0 -22.428258)
(289.2751 0 -19.090694)
(284.96644 -8.7766216e-16 -15.730079)
(281.30845 0 -12.556265)
(278.14681 0 -9.7286293)
(275.41474 1.5546697e-15 -7.2680095)
(273.10922 1.1882547e-15 -5.2305976)
(271.13728 -8.4640493e-16 -3.6056403)
(269.45947 1.2982879e-15 -2.3332614)
(268.03207 -9.7143538e-16 -1.372737)
(266.81582 -8.5215253e-19 -0.65676887)
(265.78494 2.0733938e-15 -0.15482326)
(264.89168 1.5047746e-15 0.17484874)
(264.10638 -1.7033048e-17 0.36398326)
(263.43256 1.5852236e-15 0.44322873)
(262.88795 1.7735809e-17 0.4608869)
(262.35085 -1.6742255e-15 0.41110529)
(261.56695 1.8423896e-17 0.29491205)
(260.96153 -8.6785216e-16 0.12707068)
(260.65479 -1.2312244e-15 -0.033704062)
(260.58687 1.8114665e-15 -0.30613469)
(244.44708 3.6760767e-16 -14.544866)
(289.03369 -2.5565314e-16 -16.441193)
(317.85799 6.4554872e-18 -18.352305)
(342.43908 5.5058257e-18 -19.893896)
(364.13425 9.3946683e-18 -21.615508)
(379.82419 7.8045168e-18 -22.640519)
(380.72242 -2.6494157e-17 -23.563585)
(381.62509 0 -22.623213)
(379.97855 5.567964e-17 -24.192147)
(380.45296 -7.6825772e-17 -22.736937)
(378.92848 7.7205253e-17 -24.701821)
(378.72411 2.1139765e-19 -23.249421)
(377.21153 2.0808431e-19 -25.163394)
(376.2814 -5.9471165e-17 -24.131025)
(374.53661 0 -25.757539)
(372.81543 0 -25.343329)
(370.50321 -3.4342331e-17 -26.682145)
(367.81979 -2.314707e-16 -26.886514)
(364.54014 2.3881106e-17 -28.081983)
(360.59788 1.4109e-16 -28.777555)
(355.90978 1.5107542e-16 -29.944449)
(350.34561 -2.2422075e-16 -30.885869)
(343.89357 0 -31.901475)
(336.55169 0 -32.590152)
(328.53874 2.5383411e-16 -32.866045)
(320.20642 0 -32.419996)
(312.04239 3.2096846e-16 -31.149743)
(304.47724 -5.2225585e-16 -29.034369)
(297.80407 4.3476013e-16 -26.228804)
(292.11974 2.2616541e-17 -22.958235)
(287.35854 -5.6786088e-16 -19.489952)
(283.37622 9.4138424e-18 -16.042422)
(280.023 2.3167437e-19 -12.813679)
(277.12896 1.4943552e-19 -9.9506674)
(274.62285 -7.8071389e-16 -7.4603071)
(272.50612 -1.8596907e-17 -5.3962551)
(270.68512 0 -3.7486869)
(269.12286 -1.3200413e-15 -2.4560362)
(267.78178 -9.4263578e-16 -1.4772769)
(266.6292 1.3993969e-15 -0.74466185)
(265.64508 -1.0349332e-15 -0.2284311)
(264.78434 2.3477818e-17 0.11323203)
(264.02396 -3.389267e-17 0.31350702)
(263.37635 -1.5519255e-15 0.40209205)
(262.85182 0 0.42550928)
(262.29291 1.6210681e-15 0.37224666)
(261.47577 -1.8268259e-17 0.26206026)
(260.91182 2.6334083e-17 0.10823105)
(260.63317 -1.9060093e-17 -0.036765569)
(260.5795 -1.7667488e-15 -0.28391369)
(243.87464 -5.7403904e-18 -15.749123)
(288.76902 4.0566854e-18 -17.855244)
(317.82274 6.6065663e-18 -19.943749)
(342.59329 -1.7339701e-16 -21.610623)
(364.37948 1.4277637e-16 -23.506112)
(379.33845 0 -24.510678)
(379.57297 1.3470866e-16 -25.46055)
(380.46674 -2.2325872e-17 -24.455863)
(378.78141 -9.3997417e-17 -26.102374)
(379.24466 -6.2704339e-17 -24.582501)
(377.67614 5.218317e-17 -26.621704)
(377.44315 0 -25.12596)
(375.8803 -7.2729746e-17 -27.091754)
(374.897 -3.0428983e-17 -26.047148)
(373.08619 2.5193756e-17 -27.703174)
(371.28066 -8.4723992e-17 -27.305586)
(368.87101 -7.016958e-17 -28.660361)
(366.06406 2.3504046e-16 -28.894764)
(362.64156 0 -30.098417)
(358.52816 -1.6277339e-16 -30.815311)
(353.64389 -1.3564393e-16 -31.972795)
(347.86027 -2.3693291e-18 -32.89601)
(341.17693 0 -33.846381)
(333.62227 -1.9928096e-17 -34.420591)
(325.45958 1.5953347e-17 -34.509274)
(317.0861 2.7163985e-17 -33.817701)
(309.00806 -2.1533481e-17 -32.269471)
(301.64436 1.7972646e-17 -29.884553)
(295.25433 -4.2931215e-17 -26.847944)
(289.89611 -7.3057931e-16 -23.401785)
(285.47055 5.8868756e-16 -19.813289)
(281.81231 2.3445401e-17 -16.289685)
(278.75768 1.3813322e-15 -13.016692)
(276.12343 -1.6384894e-17 -10.12832)
(273.83625 0 -7.6169404)
(271.90346 1.200821e-15 -5.5338532)