/*--------------------------------*- C++ -*----------------------------------*\
  =========                 |
  \\      /  F ield         | OpenFOAM: The Open Source CFD Toolbox
   \\    /   O peration     | Website:  https://openfoam.org
    \\  /    A nd           | Version:  8
     \\/     M anipulation  |
\*---------------------------------------------------------------------------*/
FoamFile
{
    version     2.0;
    format      ascii;
    class       volVectorField;
    location    "0.290003";
    object      wallShearStress;
}
// * * * * * * * * * * * * * * * * * * * * * * * * * * * * * * * * * * * * * //

dimensions      [1 -1 -2 0 0 0 0];

internalField   uniform (0 0 0);

boundaryField
{
    aerofoil
    {
        type            calculated;
        value           nonuniform List<vector> 
300
(
(-161.14446 5.8099379e-23 -1.7040827)
(-161.10057 -7.1272458e-23 -1.0328763)
(-160.812 -7.0446362e-21 -0.33953293)
(-160.54749 1.0695605e-17 0.36943364)
(-160.32633 2.4109249e-17 1.0651279)
(-160.13732 4.922423e-17 1.7102876)
(-159.96814 -5.0316717e-17 2.383077)
(-159.82586 1.0132172e-16 3.0693376)
(-159.71186 -1.6078359e-18 3.7681357)
(-159.62938 1.0420688e-16 4.4805565)
(-159.56899 -1.6748019e-18 5.2049566)
(-159.52433 1.6193381e-18 5.9416738)
(-159.50134 -1.1102127e-16 6.7017776)
(-159.48483 1.1452324e-19 7.4747196)
(-159.49768 -2.3141175e-16 8.2633459)
(-159.53764 -2.4001029e-16 9.0696408)
(-159.5852 3.6823039e-18 9.8898091)
(-159.65095 2.4208824e-16 10.727708)
(-159.7183 5.0189491e-16 11.579945)
(-159.8027 -2.5197934e-16 12.451808)
(-159.90094 2.6519554e-16 13.34503)
(-160.00796 2.5809527e-16 14.259192)
(-160.13383 4.3453922e-18 15.197283)
(-160.2589 2.7699135e-16 16.154044)
(-160.39629 -2.8238163e-16 17.138563)
(-160.52576 5.7598899e-16 18.145896)
(-160.67491 2.8435698e-16 19.182349)
(-160.84727 -2.9009899e-16 20.2518)
(-161.01516 -3.0521123e-16 21.347915)
(-161.18426 -1.2092449e-21 22.478672)
(-161.34965 -3.0705505e-16 23.646875)
(-161.50772 -1.0064062e-17 24.854025)
(-161.63602 -3.3981563e-16 26.096877)
(-161.72364 1.0455311e-17 27.37804)
(-161.78415 -1.1572063e-20 28.708473)
(-161.83262 4.9947401e-19 30.094741)
(-161.88254 -3.5602039e-16 31.539844)
(-161.95957 -1.540744e-33 33.053622)
(-162.07397 3.6923016e-16 34.650142)
(-162.22667 -3.8871605e-16 36.334482)
(-162.39661 1.1043429e-17 38.107745)
(-162.64889 -1.1932864e-17 39.996582)
(-162.91337 1.0032438e-17 42.003543)
(-163.17909 1.2788752e-17 44.132817)
(-163.36903 1.6272826e-19 46.366977)
(-163.47669 -4.3680948e-16 48.731174)
(-163.42639 -4.2119789e-18 51.233172)
(-163.25667 -1.6192169e-17 53.908584)
(-162.92832 -3.1577618e-18 56.75952)
(-162.43108 6.0219647e-19 59.779248)
(-161.75387 4.8422971e-16 62.972497)
(-160.773 -4.7930704e-16 66.33155)
(-159.31577 4.9230075e-16 69.846161)
(-157.26377 -5.0011966e-16 73.532663)
(-154.48628 1.0206841e-15 77.401292)
(-150.89308 -1.5988838e-17 81.541633)
(-146.47273 5.3828382e-16 86.067854)
(-141.28413 -1.0795782e-17 91.118023)
(-135.526 -5.5919606e-16 96.831698)
(-129.6022 5.5226888e-16 102.86191)
(-125.01693 3.5104639e-17 109.33806)
(-121.53604 -5.783613e-16 116.06762)
(-118.10095 -3.743745e-19 122.52911)
(-113.49087 5.9722156e-19 128.1768)
(-107.16466 -2.0928958e-19 132.5551)
(-99.073954 -3.0814879e-33 135.12202)
(-89.013061 6.6263201e-16 135.27052)
(-76.957283 -1.015954e-17 132.25267)
(-63.331663 -1.7773953e-18 125.3434)
(-48.95737 -3.3056521e-16 114.18905)
(-34.787054 -1.0498686e-17 98.502553)
(-21.854463 3.5129777e-16 78.824888)
(-11.822027 -1.7412171e-16 56.43707)
(-5.7902691 -4.7625321e-16 32.898688)
(-2.5790393 -4.3340177e-21 14.716693)
(-192.02658 1.0911625e-15 -29.069681)
(-187.13932 1.1168429e-15 -29.411226)
(-189.00093 -1.1122374e-15 -29.418221)
(-190.63771 -1.1105033e-15 -29.342228)
(-191.09971 1.1079907e-15 -29.098466)
(-191.14229 2.2109068e-15 -28.790061)
(-190.66796 1.256545e-19 -28.409049)
(-189.94271 6.8850512e-26 -27.996795)
(-189.02594 1.0941802e-15 -27.564878)
(-187.94169 -1.7099516e-19 -27.121013)
(-186.6704 1.0894342e-15 -26.660228)
(-185.16641 1.0873221e-15 -26.176177)
(-183.37641 -1.8182845e-25 -25.663108)
(-181.31449 -2.8611769e-19 -25.120461)
(-179.10095 1.0728363e-15 -24.562782)
(-176.85343 1.2676058e-22 -24.012377)
(-174.58124 -1.0591292e-15 -23.467227)
(-172.30021 1.1094589e-19 -22.926733)
(-170.01733 1.092174e-19 -22.393398)
(-167.73731 -1.0387514e-15 -21.866581)
(-165.46037 5.0375285e-21 -21.34802)
(-163.18294 -1.0243865e-15 -20.835996)
(-160.91235 -1.9821896e-25 -20.332944)
(-158.64623 -5.172315e-20 -19.83293)
(-156.37129 9.9461749e-20 -19.338568)
(-154.09265 -9.9624227e-16 -18.849558)
(-151.8057 -6.6730664e-21 -18.366886)
(-149.51334 -9.3504792e-22 -17.887516)
(-147.21173 9.7529374e-16 -17.413795)
(-144.92788 8.8900082e-26 -16.947758)
(-142.66196 -9.6114653e-16 -16.489859)
(-140.39595 -9.5380435e-16 -16.039038)
(-138.1049 -8.5446754e-26 -15.588493)
(-135.79756 1.3129853e-19 -15.140357)
(-133.54811 5.4755265e-20 -14.703203)
(-131.29832 -8.8155693e-22 -14.269842)
(-129.0509 7.3468397e-40 -13.840764)
(-126.80453 -9.0751284e-16 -13.415468)
(-124.55476 5.7055164e-26 -12.992875)
(-122.28894 -1.7829083e-15 -12.572951)
(-119.98141 -8.8296204e-16 -12.15267)
(-117.58819 -3.4927099e-20 -11.728972)
(-115.07115 -5.6487627e-20 -11.300042)
(-112.40801 6.3869764e-26 -10.866504)
(-109.63344 -8.4428559e-16 -10.431299)
(-106.85016 -8.3359433e-16 -10.002573)
(-104.22455 -5.3636805e-20 -9.5862305)
(-101.81298 -3.5096742e-20 -9.1787407)
(-99.323323 -4.0071641e-16 -8.7624805)
(-96.078173 -2.694715e-20 -8.3019573)
(-91.703656 5.800753e-20 -7.7554136)
(-85.981206 7.6292353e-16 -7.1233384)
(-78.17535 7.7992269e-21 -6.3849257)
(-68.50553 -3.5804658e-16 -5.5675381)
(-58.795706 1.3030903e-21 -4.7343491)
(-50.633709 3.6546134e-20 -4.0262435)
(-45.951476 3.0885207e-16 -3.5650781)
(-50.893046 1.4531149e-20 -3.6845178)
(-70.109046 5.9759203e-20 -4.5394771)
(-98.765184 3.2899011e-16 -6.0355267)
(-127.4327 6.5596472e-16 -7.472555)
(-147.84747 -3.2503237e-16 -8.4279809)
(-158.67237 -1.2566147e-21 -8.7159332)
(-163.30681 3.1886705e-16 -8.5896519)
(-165.18625 1.6701945e-20 -8.2319206)
(-165.70268 -3.1651869e-16 -7.7712726)
(-165.67029 -1.5796418e-16 -7.259905)
(-165.42558 1.5766993e-16 -6.7168599)
(-165.12645 1.5767126e-16 -6.1574628)
(-164.69697 -1.5770962e-16 -5.5757076)
(-164.20654 -1.5785482e-16 -4.974253)
(-163.66804 1.2383183e-21 -4.3591063)
(-163.13396 1.2302912e-20 -3.7379363)
(-162.61502 -3.289685e-21 -3.1133151)
(-161.692 -9.4944054e-34 -2.4404721)
(-130.40129 5.368078e-17 -2.389807)
(-132.68259 1.1017653e-16 -2.945482)
(-135.3879 -1.1402798e-16 -3.5443101)
(-137.99284 9.0816444e-19 -4.1700341)
(-140.58005 2.7644518e-20 -4.8273256)
(-143.11356 1.9058441e-18 -5.5152976)
(-145.59182 -1.9538257e-18 -6.2385535)
(-147.99266 2.5849567e-16 -6.9921427)
(-150.3175 2.606069e-16 -7.7741472)
(-152.56115 -2.6882991e-16 -8.5850259)
(-154.74691 -2.7490904e-16 -9.4271693)
(-156.87172 -5.6243436e-16 -10.296248)
(-158.93659 -1.2905689e-19 -11.200219)
(-160.95139 2.9376377e-16 -12.131492)
(-162.9044 4.721842e-18 -13.095145)
(-164.75075 -3.1131424e-16 -14.088596)
(-166.48772 3.1301778e-16 -15.108883)
(-168.13727 3.1961201e-16 -16.162239)
(-169.70663 -5.1864025e-18 -17.246176)
(-171.21722 5.2004879e-18 -18.365943)
(-172.67604 1.5503464e-21 -19.523985)
(-174.09076 -3.473526e-16 -20.721059)
(-175.4834 3.538543e-16 -21.962822)
(-176.85743 3.614003e-16 -23.246606)
(-178.22336 3.4405483e-21 -24.583164)
(-179.55258 3.7589777e-16 -25.965333)
(-180.85574 2.1064859e-34 -27.39931)
(-182.12889 3.907115e-16 -28.889992)
(-183.3576 1.2449785e-17 -30.435652)
(-184.53505 -2.5349853e-17 -32.043261)
(-185.64265 1.2886898e-17 -33.715904)
(-186.68537 -4.0784353e-16 -35.463097)
(-187.66774 -4.5596002e-16 -37.301672)
(-188.60054 -4.3724485e-16 -39.227767)
(-189.50253 1.3905957e-17 -41.224627)
(-190.38697 -4.4101199e-16 -43.304088)
(-191.2633 -1.4351362e-17 -45.461327)
(-192.05842 1.472687e-17 -47.690742)
(-192.75249 4.7982927e-16 -49.996825)
(-193.31057 -1.6697743e-17 -52.37631)
(-193.69108 -1.3780494e-17 -54.82287)
(-193.85773 1.5591053e-17 -57.335591)
(-193.76824 4.6916125e-18 -59.915691)
(-193.39972 1.0210852e-15 -62.567776)
(-192.71044 1.6331653e-17 -65.295332)
(-191.71005 -4.5138983e-36 -68.100733)
(-190.35853 2.082733e-17 -70.977658)
(-188.64457 -1.7173974e-17 -73.934174)
(-186.54138 -1.2311758e-17 -76.965483)
(-184.02352 1.77085e-17 -80.067021)
(-181.08197 5.7926996e-16 -83.245536)
(-177.69597 5.9024835e-16 -86.492816)
(-173.84754 5.9238574e-16 -89.790488)
(-169.55018 7.3492316e-18 -93.112957)
(-164.82777 6.0401591e-16 -96.408787)
(-159.73578 -1.537021e-19 -99.596756)
(-154.36595 -6.3812124e-16 -102.61323)
(-148.6851 -1.2933669e-15 -105.40619)
(-142.47259 -6.7980063e-16 -107.86644)
(-135.59641 2.4628965e-18 -109.83799)
(-127.97149 2.1245032e-17 -111.20394)
(-119.53726 7.0236476e-16 -111.81163)
(-110.25544 -2.1565182e-17 -111.4403)
(-100.11869 -1.4329973e-17 -109.82781)
(-89.032571 -6.9253699e-16 -106.75333)
(-77.111981 7.1615864e-16 -101.98727)
(-64.535477 -7.2044301e-16 -94.979325)
(-51.673866 6.1629758e-33 -85.377372)
(-39.016345 3.7129757e-16 -73.00022)
(-26.631266 -7.0243781e-16 -57.807941)
(-15.391145 -3.4686797e-16 -40.367012)
(-7.6308239 4.5066141e-18 -21.505255)
(-3.2666608 -1.8581803e-18 -8.3735967)
(-1.0370933 7.0137931e-17 -0.7198707)
(-1.2766336 2.6690741e-17 3.8274801)
(0.25002303 -2.9010758e-20 0.36619127)
(-1.1681501 -2.1663646e-16 0.1392888)
(-1.1460323 -2.129291e-16 0.15065499)
(-1.7375031 -2.3700315e-16 0.22083513)
(-2.2574519 5.0942614e-16 0.28099049)
(-2.9428522 -6.1533948e-21 0.36020388)
(-3.6786014 5.8828032e-16 0.44329112)
(-4.5016275 3.8262481e-27 0.53461736)
(-5.38958 -3.3026944e-16 0.63144248)
(-6.3443865 1.6306788e-20 0.73442451)
(-7.3650116 -6.9070717e-20 0.83922583)
(-8.4526277 3.301928e-20 0.94725556)
(-9.5910161 -3.9457994e-16 1.0606442)
(-10.767322 -1.9429749e-20 1.1758359)
(-11.977701 3.7099678e-26 1.2913575)
(-13.216544 4.3575306e-16 1.4067979)
(-14.48248 6.0675053e-20 1.521783)
(-15.769447 -2.1973918e-22 1.6355943)
(-17.07087 4.9655356e-26 1.7477595)
(-18.383065 -4.8186763e-16 1.8576637)
(-19.705853 -4.9194691e-16 1.9652899)
(-21.045501 -2.3965413e-22 2.070756)
(-22.403227 -1.0507433e-25 2.1746923)
(-23.778942 9.7618203e-20 2.2765348)
(-25.17081 -5.288659e-16 2.3764683)
(-26.578671 -8.967016e-25 2.4739335)
(-27.996913 2.3177336e-20 2.5689844)
(-29.424798 2.643818e-22 2.6607945)
(-30.859802 1.33521e-22 2.7496136)
(-32.309551 5.6833165e-16 2.8351185)
(-33.777463 -1.1511566e-15 2.9179333)
(-35.269917 5.8256834e-16 2.9990731)
(-36.789523 -6.8416763e-26 3.0774821)
(-38.327984 -2.9811906e-16 3.1527136)
(-39.884602 -3.0131702e-16 3.2247272)
(-41.455677 -1.014391e-20 3.2931193)
(-43.0416 2.9299532e-22 3.357533)
(-44.644742 -3.1079237e-16 3.4177184)
(-46.275131 3.7408278e-23 3.4736704)
(-47.936052 -2.7119163e-21 3.5263632)
(-49.62657 3.1966462e-16 3.5747314)
(-51.346436 -4.4211514e-20 3.618314)
(-53.094309 -4.5947607e-21 3.6568876)
(-54.865771 -3.2801985e-16 3.6902829)
(-56.658047 3.3074984e-16 3.7171298)
(-58.470445 3.3327554e-16 3.7374858)
(-60.314813 3.3587836e-16 3.7509904)
(-62.201438 -3.3844812e-16 3.7575465)
(-64.134562 6.817213e-16 3.7576244)
(-66.111436 -3.4331319e-16 3.7509345)
(-68.131046 -3.4559572e-16 3.735899)
(-70.1899 -3.3603577e-20 3.7116355)
(-72.289547 3.2076302e-20 3.6791035)
(-74.43461 -3.5165234e-16 3.6361628)
(-76.614145 1.9594841e-20 3.5800766)
(-78.814488 -3.5484723e-16 3.5090299)
(-81.033928 -2.8373344e-20 3.4230543)
(-83.281365 -7.4972809e-21 3.3228578)
(-85.55929 1.8059838e-16 3.2082841)
(-87.865003 -3.3502621e-20 3.0786746)
(-90.194322 3.6556685e-16 2.9310738)
(-92.539364 1.4002036e-21 2.7654746)
(-94.907875 -1.8498118e-16 2.5795239)
(-97.310525 3.7212802e-16 2.372372)
(-99.76507 2.5370261e-20 2.1434099)
(-102.26794 1.8816949e-16 1.8907161)
(-104.8121 -9.4625269e-17 1.6142646)
(-107.40042 1.0560838e-20 1.3137946)
(-110.04081 -2.9261166e-21 0.99677314)
(-112.74708 -4.810753e-17 0.64538787)
(-115.52112 4.8372591e-17 0.21259997)
(-118.35494 -2.4302626e-17 -0.23412641)
(-121.22147 -7.5506044e-19 -0.73222793)
(-124.11454 -1.3597285e-20 -1.2817088)
(-127.38407 -4.9407616e-17 -1.8430886)
)
;
    }
    inlet
    {
        type            calculated;
        value           uniform (0 0 0);
    }
    outlet
    {
        type            calculated;
        value           uniform (0 0 0);
    }
    back
    {
        type            empty;
    }
    front
    {
        type            empty;
    }
}


// ************************************************************************* //
