/*--------------------------------*- C++ -*----------------------------------*\
  =========                 |
  \\      /  F ield         | OpenFOAM: The Open Source CFD Toolbox
   \\    /   O peration     | Website:  https://openfoam.org
    \\  /    A nd           | Version:  8
     \\/     M anipulation  |
\*---------------------------------------------------------------------------*/
FoamFile
{
    version     2.0;
    format      ascii;
    class       volScalarField;
    location    "0.290003";
    object      yPlus;
}
// * * * * * * * * * * * * * * * * * * * * * * * * * * * * * * * * * * * * * //

dimensions      [0 0 0 0 0 0 0];

internalField   uniform 0;

boundaryField
{
    aerofoil
    {
        type            calculated;
        value           nonuniform List<scalar> 
300
(
126.42538
125.60377
124.83379
124.10645
123.43041
122.80614
122.22337
121.6845
121.18677
120.73456
120.32151
119.94428
119.60892
119.301
119.03043
118.79865
118.59346
118.42334
118.27423
118.15345
118.06043
117.98998
117.95264
117.93013
117.93799
117.96005
118.00396
118.08
118.16899
118.27787
118.40217
118.54367
118.693
118.8438
119.00342
119.1812
119.37979
119.60915
119.87806
120.19736
120.5462
120.95917
121.40731
121.90953
122.41709
122.94904
123.46298
123.99176
124.53109
125.07905
125.64324
126.19536
126.6779
127.06569
127.34149
127.5246
127.65657
127.86774
128.32241
129.14777
130.95347
133.7154
137.03061
140.37817
143.45502
146.08727
147.9781
148.59923
147.36639
143.64566
136.36093
124.4854
107.08283
82.538733
55.286001
167.8767
171.94663
171.9235
172.19096
171.83114
171.40335
170.75458
170.03576
169.25502
168.42394
167.53077
166.55579
165.46871
164.27269
163.01874
161.75537
160.48415
159.21331
157.94465
156.68137
155.41901
154.15705
152.89589
151.63887
150.37419
149.10727
147.83137
146.55182
145.26312
143.9823
142.70722
141.42618
140.12822
138.81666
137.52888
136.2347
134.9341
133.6275
132.31311
130.98465
129.6324
128.23215
126.76387
125.20691
123.56785
121.87765
120.21433
118.61622
116.99702
115.01285
112.34945
108.92874
104.16047
97.792704
90.653241
84.097737
79.624232
82.334909
93.298222
106.1039
116.08556
122.25249
125.37929
126.55426
127.06962
127.20563
127.20262
127.14557
127.12731
127.07957
127.0305
126.96783
126.92047
126.88937
126.85113
130.02182
130.14671
130.41563
130.6395
130.88709
131.12278
131.36758
131.60089
131.83336
132.05533
132.28375
132.51146
132.74346
132.97496
133.21535
133.44881
133.66685
133.88324
134.09908
134.32529
134.56684
134.82333
135.1095
135.41704
135.76256
136.1255
136.50996
136.91884
137.34015
137.77447
138.21687
138.66736
139.12856
139.60239
140.09918
140.62773
141.18828
141.75054
142.31071
142.85845
143.37531
143.85092
144.26613
144.63202
144.91606
145.14632
145.29821
145.3821
145.39957
145.34207
145.2184
145.04234
144.81731
144.55883
144.28808
144.02677
143.80438
143.66545
143.49018
143.23841
142.83214
142.23403
141.36487
140.09961
138.23467
135.6161
131.81181
126.29989
118.40327
106.92172
90.571569
67.202906
42.627501
14.296096
28.191033
7.7624256
13.917711
13.741597
16.905727
19.240717
21.940112
24.495726
27.059685
29.566328
32.031524
34.460582
36.861771
39.207146
41.479168
43.682866
45.817212
47.889183
49.896782
51.837461
53.713211
55.529494
57.301149
59.033058
60.729087
62.388869
64.016211
65.605972
67.161093
68.679625
70.17287
71.645179
73.103614
74.552405
75.983788
77.397826
78.791903
80.167084
81.526385
82.878152
84.225324
85.567052
86.903869
88.234242
89.555087
90.864602
92.162307
93.456437
94.754659
96.05962
97.369466
98.682154
99.996833
101.31301
102.63493
103.95216
105.25389
106.53873
107.81587
109.08673
110.35037
111.60384
112.84254
114.07049
115.29385
116.52227
117.75713
118.99072
120.22831
121.47077
122.72667
123.997
125.27772
126.55571
127.83161
129.15358
)
;
    }
    inlet
    {
        type            calculated;
        value           uniform 0;
    }
    outlet
    {
        type            calculated;
        value           uniform 0;
    }
    back
    {
        type            empty;
    }
    front
    {
        type            empty;
    }
}


// ************************************************************************* //
