/*--------------------------------*- C++ -*----------------------------------*\
  =========                 |
  \\      /  F ield         | OpenFOAM: The Open Source CFD Toolbox
   \\    /   O peration     | Website:  https://openfoam.org
    \\  /    A nd           | Version:  8
     \\/     M anipulation  |
\*---------------------------------------------------------------------------*/
FoamFile
{
    version     2.0;
    format      ascii;
    class       volScalarField;
    location    "0.299999";
    object      alphat;
}
// * * * * * * * * * * * * * * * * * * * * * * * * * * * * * * * * * * * * * //

dimensions      [1 -1 -1 0 0 0 0];

internalField   nonuniform List<scalar> 
20000
(
0.00097651677
0.0025128954
0.0034907656
0.0039940692
0.0039054872
0.0030126879
0.001023207
4.4617778e-06
2.3622215e-09
2.2749192e-09
2.2076805e-09
2.2294806e-09
2.2055755e-09
2.2354409e-09
2.2419916e-09
2.2771891e-09
2.3050435e-09
2.3537661e-09
2.4062192e-09
2.4794338e-09
2.5653567e-09
2.6771729e-09
2.8131258e-09
2.9849238e-09
3.1957226e-09
3.4569673e-09
3.7752374e-09
4.1585705e-09
4.6066502e-09
5.1074139e-09
5.6281774e-09
6.1304069e-09
6.5788193e-09
6.962901e-09
7.2797986e-09
7.5380624e-09
7.7409479e-09
7.9012076e-09
8.0253064e-09
8.1221972e-09
8.1971121e-09
8.2564873e-09
8.3064374e-09
8.3508337e-09
8.3943077e-09
8.437089e-09
8.4728486e-09
8.5024206e-09
8.5237246e-09
8.6114663e-09
0.00096801713
0.002495815
0.0034566174
0.003938424
0.003818625
0.0028916736
0.00090063247
1.7010079e-06
2.3397912e-09
2.2966163e-09
2.2282129e-09
2.2515592e-09
2.227811e-09
2.2590919e-09
2.2663788e-09
2.3032203e-09
2.3326049e-09
2.3834853e-09
2.4383387e-09
2.5146135e-09
2.6041738e-09
2.7203427e-09
2.8613981e-09
3.0388725e-09
3.255714e-09
3.5223496e-09
3.8436579e-09
4.2253506e-09
4.6651412e-09
5.1513696e-09
5.6566489e-09
6.1443404e-09
6.5845631e-09
6.9642143e-09
7.2803562e-09
7.5383328e-09
7.7403625e-09
7.9000933e-09
8.0231714e-09
8.1192161e-09
8.1941358e-09
8.2542116e-09
8.3054802e-09
8.3509981e-09
8.3953272e-09
8.438302e-09
8.4721858e-09
8.503686e-09
8.5237422e-09
8.6138526e-09
0.00096722777
0.0024862724
0.0034272618
0.0038816119
0.0037300269
0.0027553643
0.00077317624
6.053198e-07
2.3347931e-09
2.3188818e-09
2.2500177e-09
2.2744319e-09
2.2510099e-09
2.2835606e-09
2.2917504e-09
2.3302407e-09
2.3612815e-09
2.4144258e-09
2.471884e-09
2.5514715e-09
2.6450128e-09
2.765992e-09
2.9127357e-09
3.0966695e-09
3.3204763e-09
3.5936711e-09
3.9196124e-09
4.3013152e-09
4.7341481e-09
5.206501e-09
5.6947116e-09
6.1687969e-09
6.5991238e-09
6.9721614e-09
7.2835156e-09
7.5386457e-09
7.73978e-09
7.8994341e-09
8.0222492e-09
8.1180394e-09
8.193004e-09
8.2532499e-09
8.3048535e-09
8.3507481e-09
8.3958476e-09
8.4391706e-09
8.4749474e-09
8.5049156e-09
8.5416398e-09
8.6125057e-09
0.00096770715
0.0024765293
0.003397689
0.0038241154
0.0036399895
0.0026129759
0.00066068143
2.2073381e-07
2.3403496e-09
2.3421512e-09
2.2730074e-09
2.298705e-09
2.2757345e-09
2.3095832e-09
2.3187043e-09
2.3588814e-09
2.3916508e-09
2.447166e-09
2.507377e-09
2.5904466e-09
2.6881797e-09
2.8142149e-09
2.9669718e-09
3.1578132e-09
3.3892353e-09
3.6699356e-09
4.0018201e-09
4.3856186e-09
4.8144727e-09
5.2759245e-09
5.7489375e-09
6.206928e-09
6.6245273e-09
6.9883471e-09
7.2934114e-09
7.5443564e-09
7.7422066e-09
7.8995791e-09
8.0220077e-09
8.1175555e-09
8.1924952e-09
8.2528261e-09
8.3046627e-09
8.3508508e-09
8.3970615e-09
8.4405697e-09
8.4760606e-09
8.5067688e-09
8.5506038e-09
8.6125122e-09
0.00096898776
0.0024675553
0.0033690826
0.0037692543
0.0035492443
0.0024635665
0.00055532355
8.4345829e-08
2.3537784e-09
2.3669593e-09
2.2974746e-09
2.3243365e-09
2.3018714e-09
2.3369808e-09
2.3471309e-09
2.3890809e-09
2.4237428e-09
2.4818003e-09
2.5449947e-09
2.6318057e-09
2.7340597e-09
2.8655463e-09
3.0248182e-09
3.2231796e-09
3.4629321e-09
3.751936e-09
4.0906441e-09
4.477468e-09
4.9033411e-09
5.3549731e-09
5.8131519e-09
6.255227e-09
6.6587696e-09
7.0115708e-09
7.308299e-09
7.5534772e-09
7.7473484e-09
7.9020647e-09
8.0225994e-09
8.1173862e-09
8.1923386e-09
8.2526598e-09
8.3045338e-09
8.3513861e-09
8.3984342e-09
8.4420927e-09
8.4779333e-09
8.5092409e-09
8.5616215e-09
8.6123621e-09
0.00097055986
0.0024586056
0.0033398716
0.0037131496
0.003457267
0.0023066511
0.00045806738
3.524377e-08
2.3721124e-09
2.3926665e-09
2.3231558e-09
2.3512488e-09
2.3294266e-09
2.3658687e-09
2.377178e-09
2.4210188e-09
2.4577333e-09
2.5185065e-09
2.5849042e-09
2.6757029e-09
2.7827894e-09
2.9201037e-09
3.086369e-09
3.2928246e-09
3.5415791e-09
3.8396114e-09
4.1858763e-09
4.5765522e-09
5.0004904e-09
5.4434266e-09
5.8875394e-09
6.3131327e-09
6.7013489e-09
7.041562e-09
7.3285904e-09
7.5667563e-09
7.7554497e-09
7.9065454e-09
8.0248746e-09
8.1182312e-09
8.1924997e-09
8.2526095e-09
8.3047625e-09
8.3524373e-09
8.4002166e-09
8.4438651e-09
8.4797082e-09
8.5130412e-09
8.569599e-09
8.6124955e-09
0.00097230351
0.002449715
0.0033101567
0.0036563171
0.0033645047
0.0021427105
0.00036905022
1.6727435e-08
2.3941468e-09
2.419334e-09
2.3501408e-09
2.3794792e-09
2.3584048e-09
2.396263e-09
2.4088801e-09
2.454733e-09
2.4936766e-09
2.5573461e-09
2.6271834e-09
2.7222425e-09
2.8345153e-09
2.9780944e-09
3.1518965e-09
3.3670812e-09
3.6255178e-09
3.9332234e-09
4.2875586e-09
4.6824639e-09
5.1048144e-09
5.5394964e-09
5.9698203e-09
6.3789226e-09
6.7510407e-09
7.0775038e-09
7.3535575e-09
7.5835808e-09
7.7662846e-09
7.9131482e-09
8.0286253e-09
8.1202229e-09
8.1936495e-09
8.2533576e-09
8.305592e-09
8.3539673e-09
8.4022955e-09
8.4458011e-09
8.481824e-09
8.5187493e-09
8.5764166e-09
8.6136136e-09
0.00097417408
0.0024407449
0.0032794621
0.00359819
0.0032706887
0.0019723089
0.000287825
9.2302757e-09
2.4187318e-09
2.4471036e-09
2.3784068e-09
2.4090628e-09
2.3888821e-09
2.42826e-09
2.4423298e-09
2.4903099e-09
2.5316454e-09
2.5983903e-09
2.6719098e-09
2.7715108e-09
2.8893478e-09
3.0396522e-09
3.2215658e-09
3.4461191e-09
3.7149101e-09
4.0328577e-09
4.3956342e-09
4.7949335e-09
5.2158105e-09
5.6424107e-09
6.059115e-09
6.4515301e-09
6.8069359e-09
7.1187482e-09
7.3828664e-09
7.6038201e-09
7.779721e-09
7.9217041e-09
8.0339094e-09
8.1233859e-09
8.1956532e-09
8.2547799e-09
8.3070395e-09
8.3559793e-09
8.4046973e-09
8.4478903e-09
8.4841207e-09
8.5260923e-09
8.5816288e-09
8.6152323e-09
0.00097612584
0.0024317079
0.003248086
0.0035384005
0.0031755688
0.0017971362
0.00021362964
5.9399436e-09
2.4454903e-09
2.4761551e-09
2.4080819e-09
2.4401072e-09
2.4209475e-09
2.4619195e-09
2.4775689e-09
2.527777e-09
2.5716765e-09
2.6416875e-09
2.719146e-09
2.823599e-09
2.9474139e-09
3.1049529e-09
3.295589e-09
3.5301817e-09
3.8099821e-09
4.1386649e-09
4.5100806e-09
4.9136733e-09
5.3328402e-09
5.7511877e-09
6.1541925e-09
6.5297981e-09
6.8680668e-09
7.1645683e-09
7.4159727e-09
7.6270896e-09
7.7955398e-09
7.9321219e-09
8.04062e-09
8.1276759e-09
8.1985753e-09
8.25695e-09
8.3091077e-09
8.3584491e-09
8.4073766e-09
8.4501051e-09
8.4866355e-09
8.5341283e-09
8.5865249e-09
8.6171216e-09
0.00097822814
0.0024227829
0.0032161248
0.0034764536
0.0030783617
0.0016205574
0.00014611976
4.3832184e-09
2.4741282e-09
2.5065433e-09
2.4392339e-09
2.4726725e-09
2.4546453e-09
2.4972673e-09
2.514616e-09
2.5671653e-09
2.6138136e-09
2.6872956e-09
2.7689687e-09
2.8786148e-09
3.008862e-09
3.1741861e-09
3.3741874e-09
3.6195078e-09
3.9109476e-09
4.25077e-09
4.6308573e-09
5.0384255e-09
5.4553965e-09
5.8650817e-09
6.2541504e-09
6.6127426e-09
6.9335503e-09
7.2142686e-09
7.4523878e-09
7.653067e-09
7.8135174e-09
7.9442455e-09
8.0486885e-09
8.1330518e-09
8.2023641e-09
8.2598318e-09
8.3117873e-09
8.3613817e-09
8.410331e-09
8.4524165e-09
8.4894077e-09
8.5425034e-09
8.5912106e-09
8.6192449e-09
0.00098059346
0.002414134
0.0031835912
0.0034118724
0.0029779667
0.0014486087
8.7553558e-05
3.6052276e-09
2.5045272e-09
2.5383652e-09
2.4719224e-09
2.5067737e-09
2.4899616e-09
2.5342882e-09
2.5534794e-09
2.6085063e-09
2.6581081e-09
2.7352777e-09
2.8214688e-09
2.936686e-09
3.0738656e-09
3.2475609e-09
3.4576017e-09
3.7143465e-09
4.018024e-09
4.3692846e-09
4.7579071e-09
5.1689122e-09
5.5829663e-09
5.983366e-09
6.3581098e-09
6.6994646e-09
7.0025721e-09
7.2671876e-09
7.4916081e-09
7.6813923e-09
7.8334147e-09
7.9579272e-09
8.0580142e-09
8.1394508e-09
8.2069954e-09
8.2634136e-09
8.3150555e-09
8.3647691e-09
8.4135344e-09
8.4548079e-09
8.4927255e-09
8.5508876e-09
8.595862e-09
8.6215794e-09
0.00098328701
0.0024058642
0.0031509002
0.0033447131
0.0028734699
0.0012820746
4.3435568e-05
3.205912e-09
2.5366235e-09
2.5715873e-09
2.5060737e-09
2.5423317e-09
2.5268563e-09
2.5729857e-09
2.5942019e-09
2.6518545e-09
2.7046209e-09
2.7857113e-09
2.8767599e-09
2.9979747e-09
3.1426298e-09
3.3253211e-09
3.5461075e-09
3.8149841e-09
4.1314525e-09
4.4943275e-09
4.8911549e-09
5.3048396e-09
5.715052e-09
6.1053636e-09
6.465277e-09
6.7891277e-09
7.0743571e-09
7.3226797e-09
7.5331391e-09
7.711708e-09
7.8549806e-09
7.9729968e-09
8.068493e-09
8.146806e-09
8.2124195e-09
8.2676634e-09
8.3188889e-09
8.3685858e-09
8.4169569e-09
8.4573337e-09
8.4969819e-09
8.5589704e-09
8.6004445e-09
8.6240701e-09
0.00098629726
0.0023981569
0.0031186212
0.0032775314
0.002764354
0.0011224543
1.7488871e-05
3.0024794e-09
2.5700684e-09
2.6060063e-09
2.5415732e-09
2.5793283e-09
2.56536e-09
2.6134333e-09
2.6368436e-09
2.6972724e-09
2.7534185e-09
2.8386941e-09
2.9349872e-09
3.0626692e-09
3.2153787e-09
3.4077197e-09
3.6399844e-09
3.9216944e-09
4.2514448e-09
4.6259672e-09
5.0304747e-09
5.4458789e-09
5.8511459e-09
6.2304334e-09
6.5749272e-09
6.8809904e-09
7.1482169e-09
7.3801614e-09
7.5765194e-09
7.7436692e-09
7.8779705e-09
7.9892882e-09
8.0800145e-09
8.1550445e-09
8.2185876e-09
8.2725491e-09
8.3232596e-09
8.3727949e-09
8.4205512e-09
8.4601355e-09
8.5026973e-09
8.5663688e-09
8.6048634e-09
8.6266616e-09
0.00098939109
0.0023904828
0.0030861238
0.0032111575
0.0026474389
0.00097078523
5.9744414e-06
2.9061951e-09
2.604814e-09
2.6416757e-09
2.5785404e-09
2.6178717e-09
2.6055918e-09
2.6556986e-09
2.681466e-09
2.7447984e-09
2.8045771e-09
2.8943566e-09
2.9963286e-09
3.1309882e-09
3.2923635e-09
3.4950511e-09
3.7395563e-09
4.0348026e-09
4.3782415e-09
4.7642809e-09
5.1757299e-09
5.5916825e-09
5.9907285e-09
6.3579443e-09
6.6863666e-09
6.974347e-09
7.2234941e-09
7.4390695e-09
7.6212984e-09
7.7769335e-09
7.9021339e-09
8.0066252e-09
8.0924607e-09
8.1640875e-09
8.2254423e-09
8.2780312e-09
8.3281373e-09
8.3773539e-09
8.4242516e-09
8.4632745e-09
8.5101505e-09
8.5728704e-09
8.6090725e-09
8.6292987e-09
0.00099257888
0.0023828945
0.0030536858
0.0031393062
0.0025215759
0.00082849428
1.8431661e-06
2.8695985e-09
2.6410596e-09
2.6788162e-09
2.6171118e-09
2.6580765e-09
2.6476013e-09
2.6998109e-09
2.7280921e-09
2.794497e-09
2.8582201e-09
2.95287e-09
3.0609928e-09
3.203164e-09
3.3738463e-09
3.5876121e-09
3.8451422e-09
4.1546006e-09
4.5120222e-09
4.9092658e-09
5.3267022e-09
5.7418426e-09
6.1332632e-09
6.4872884e-09
6.7989607e-09
7.0685727e-09
7.2996106e-09
7.4989083e-09
7.6670724e-09
7.8111875e-09
7.9272377e-09
8.0248409e-09
8.1057154e-09
8.1738562e-09
8.2329272e-09
8.2840694e-09
8.3334883e-09
8.3822149e-09
8.4279826e-09
8.4667241e-09
8.5185144e-09
8.5791051e-09
8.6131237e-09
8.6319606e-09
0.00099587555
0.0023750838
0.0030204834
0.0030660471
0.0023868075
0.00069691611
5.4983487e-07
2.8668116e-09
2.6788784e-09
2.71748e-09
2.6573249e-09
2.6999374e-09
2.6913706e-09
2.7457687e-09
2.7767669e-09
2.8464904e-09
2.9145156e-09
3.0144361e-09
3.1292033e-09
3.2794472e-09
3.4601244e-09
3.6857492e-09
3.9571246e-09
4.2814325e-09
4.653002e-09
5.0609176e-09
5.4831491e-09
5.8959235e-09
6.2781967e-09
6.6178553e-09
6.9120897e-09
7.1630676e-09
7.3760177e-09
7.5592046e-09
7.713453e-09
7.8461248e-09
7.9530506e-09
8.0437651e-09
8.119657e-09
8.1842659e-09
8.2409824e-09
8.2906194e-09
8.3392741e-09
8.3873242e-09
8.4316839e-09
8.4704348e-09
8.5274987e-09
8.5852327e-09
8.6170577e-09
8.6346027e-09
0.00099923616
0.0023665985
0.0029844967
0.0029900047
0.0022425965
0.00057899187
1.7181167e-07
2.8835567e-09
2.7182901e-09
2.7576417e-09
2.6991106e-09
2.7433961e-09
2.7368834e-09
2.7936212e-09
2.8276134e-09
2.9009556e-09
2.9736698e-09
3.0792701e-09
3.2011888e-09
3.3600978e-09
3.5515047e-09
3.7898106e-09
4.0758628e-09
4.4155813e-09
4.8013012e-09
5.2191171e-09
5.6447311e-09
6.0534251e-09
6.4249497e-09
6.7490524e-09
7.0251834e-09
7.2573011e-09
7.4522387e-09
7.6195505e-09
7.7601024e-09
7.881474e-09
7.9793628e-09
8.0632406e-09
8.1341705e-09
8.1952338e-09
8.2495496e-09
8.297637e-09
8.3454523e-09
8.3926253e-09
8.4353392e-09
8.474434e-09
8.5368423e-09
8.5913528e-09
8.6208446e-09
8.6372073e-09
0.0010028017
0.0023579544
0.002947907
0.0029128213
0.0020891533
0.00047126266
5.9382564e-08
2.9113666e-09
2.7590997e-09
2.7991518e-09
2.7423972e-09
2.7884544e-09
2.7842198e-09
2.8435239e-09
2.8808315e-09
2.9581086e-09
3.0358888e-09
3.1475804e-09
3.2771809e-09
3.4454112e-09
3.648338e-09
3.900221e-09
4.2017735e-09
4.5573971e-09
4.9570535e-09
5.3837564e-09
5.811091e-09
6.2138326e-09
6.572932e-09
6.88029e-09
7.1376866e-09
7.3507668e-09
7.5278242e-09
7.6795635e-09
7.8067017e-09
7.9169741e-09
8.0059703e-09
8.0831122e-09
8.1491392e-09
8.206673e-09
8.2585683e-09
8.3050756e-09
8.3519736e-09
8.3980524e-09
8.4389954e-09
8.4789413e-09
8.5463562e-09
8.597392e-09
8.6245459e-09
8.63975e-09
0.0010064117
0.0023482832
0.0029092653
0.0028325239
0.0019270868
0.00037255364
2.3786468e-08
2.9457699e-09
2.8012585e-09
2.8420649e-09
2.7872818e-09
2.8352756e-09
2.8335878e-09
2.8957073e-09
2.9366427e-09
3.0181433e-09
3.1013581e-09
3.2195687e-09
3.357438e-09
3.5356972e-09
3.7510052e-09
4.0173812e-09
4.335244e-09
4.7071148e-09
5.1202741e-09
5.5545763e-09
5.9817573e-09
6.3765555e-09
6.7215292e-09
7.0109917e-09
7.249087e-09
7.44302e-09
7.6023923e-09
7.7389224e-09
7.8529809e-09
7.9523999e-09
8.0326929e-09
8.1032412e-09
8.1644562e-09
8.2185008e-09
8.2679796e-09
8.3128901e-09
8.3587829e-09
8.4035271e-09
8.4427675e-09
8.4844237e-09
8.5557373e-09
8.6032225e-09
8.628068e-09
8.6422047e-09
0.0010099887
0.0023372937
0.0028678684
0.002743722
0.0017581121
0.00028274962
1.1548693e-08
2.9845787e-09
2.8449378e-09
2.8865718e-09
2.833996e-09
2.8841171e-09
2.8852351e-09
2.9503905e-09
2.9952212e-09
3.0812193e-09
3.1702458e-09
3.2954513e-09
3.4422477e-09
3.6313227e-09
3.8599462e-09
4.1417783e-09
4.4767212e-09
4.8650295e-09
5.2909909e-09
5.7313117e-09
6.1562466e-09
6.5409865e-09
6.8701218e-09
7.1405883e-09
7.3588908e-09
7.5336402e-09
7.6755887e-09
7.7973303e-09
7.8986884e-09
7.9875392e-09
8.0593572e-09
8.1234936e-09
8.1800163e-09
8.2306333e-09
8.2777232e-09
8.3210341e-09
8.3658178e-09
8.4089708e-09
8.4467814e-09
8.4915094e-09
8.5646279e-09
8.6086833e-09
8.6313189e-09
8.6445247e-09
0.0010134715
0.0023248151
0.0028237549
0.0026534687
0.0015851921
0.00020067817
6.8727062e-09
3.0265562e-09
2.8903849e-09
2.9329491e-09
2.8828117e-09
2.9352251e-09
2.9393555e-09
3.0077083e-09
3.0566825e-09
3.1474647e-09
3.2427324e-09
3.3754904e-09
3.5319399e-09
3.7326924e-09
3.9756054e-09
4.2738736e-09
4.6265678e-09
5.0312959e-09
5.4690537e-09
5.9135332e-09
6.3339374e-09
6.706439e-09
7.0180611e-09
7.2685324e-09
7.4666551e-09
7.6222651e-09
7.7471231e-09
7.8545445e-09
7.9436159e-09
8.0222162e-09
8.0858148e-09
8.1437532e-09
8.1957259e-09
8.2429938e-09
8.287743e-09
8.3294623e-09
8.3730103e-09
8.4143001e-09
8.4511455e-09
8.5006648e-09
8.5727773e-09
8.6136778e-09
8.6341743e-09
8.6465977e-09
0.0010168138
0.0023107944
0.0027735806
0.0025604937
0.0014104023
0.00012627093
4.9016809e-09
3.0710987e-09
2.937911e-09
2.9815052e-09
2.9339304e-09
2.9887294e-09
2.9960081e-09
3.0677236e-09
3.1211062e-09
3.2170431e-09
3.3190485e-09
3.4599872e-09
3.6269017e-09
3.8402598e-09
4.0985143e-09
4.4142032e-09
4.7852309e-09
5.2061052e-09
5.6543317e-09
6.1007986e-09
6.5141907e-09
6.8722177e-09
7.1647079e-09
7.3943087e-09
7.5719792e-09
7.7085624e-09
7.8167332e-09
7.9103426e-09
7.9875706e-09
8.0562701e-09
8.1119283e-09
8.1639098e-09
8.2114955e-09
8.2555075e-09
8.2979836e-09
8.3381266e-09
8.3802877e-09
8.4194574e-09
8.4559422e-09
8.5115759e-09
8.5804079e-09
8.6182563e-09
8.6365362e-09
8.6480174e-09
0.0010203711
0.0022972713
0.0027238918
0.0024632624
0.0012364123
6.4392452e-05
4.0139685e-09
3.1179251e-09
2.9877065e-09
3.0322779e-09
2.987354e-09
3.0445737e-09
3.0552082e-09
3.130477e-09
3.1886403e-09
3.2901435e-09
3.399484e-09
3.5493075e-09
3.7275568e-09
3.9545094e-09
4.229187e-09
4.5632453e-09
4.9530111e-09
5.3894523e-09
5.8464714e-09
6.2924709e-09
6.6962201e-09
7.0375441e-09
7.3094206e-09
7.5174457e-09
7.6745288e-09
7.7922591e-09
7.8842064e-09
7.9645474e-09
8.0303993e-09
8.0895717e-09
8.1375902e-09
8.1838697e-09
8.2272478e-09
8.2681093e-09
8.3083948e-09
8.3469752e-09
8.3875757e-09
8.424443e-09
8.4612726e-09
8.5234753e-09
8.5879146e-09
8.6225196e-09
8.6384193e-09
8.6485209e-09
0.0010238222
0.0022826018
0.0026731314
0.0023593102
0.001066612
2.4651385e-05
3.6109073e-09
3.166602e-09
3.0394797e-09
3.085117e-09
3.0429342e-09
3.1027757e-09
3.116994e-09
3.1961283e-09
3.259485e-09
3.3670492e-09
3.4843766e-09
3.6438533e-09
3.8343729e-09
4.0759916e-09
4.3682277e-09
4.7215755e-09
5.1302836e-09
5.5813753e-09
6.045119e-09
6.4878964e-09
6.8792254e-09
7.2016641e-09
7.4516217e-09
7.6375312e-09
7.7740119e-09
7.8731192e-09
7.9493395e-09
8.0170006e-09
8.0719709e-09
8.1219966e-09
8.1627074e-09
8.2035445e-09
8.2429111e-09
8.2807391e-09
8.3189281e-09
8.3559478e-09
8.3947963e-09
8.4293468e-09
8.4674226e-09
8.5359313e-09
8.5951896e-09
8.6263286e-09
8.6399987e-09
8.6486908e-09
0.0010272415
0.0022667808
0.0026189744
0.0022471599
0.00090398632
7.1709225e-06
3.4391935e-09
3.2175746e-09
3.0931028e-09
3.1399165e-09
3.100761e-09
3.1634331e-09
3.18156e-09
3.2648907e-09
3.3339185e-09
3.4480854e-09
3.5741172e-09
3.7440686e-09
3.9478551e-09
4.2052698e-09
4.516204e-09
4.8896527e-09
5.3172128e-09
5.781648e-09
6.2496486e-09
6.686191e-09
7.0622761e-09
7.363834e-09
7.5908054e-09
7.754211e-09
7.8701547e-09
7.9509633e-09
8.0119564e-09
8.0675948e-09
8.1122063e-09
8.1534365e-09
8.1872051e-09
8.2228626e-09
8.2584263e-09
8.2933486e-09
8.3295389e-09
8.3649752e-09
8.4018713e-09
8.4343655e-09
8.4750011e-09
8.5484367e-09
8.6020318e-09
8.6294567e-09
8.6408862e-09
8.6485944e-09
0.0010306058
0.002250052
0.0025617917
0.0021282809
0.00075272354
1.778428e-06
3.381646e-09
3.2707909e-09
3.1486372e-09
3.1968895e-09
3.1610249e-09
3.2267671e-09
3.2491333e-09
3.33704e-09
3.4122613e-09
3.5336172e-09
3.6691175e-09
3.8504204e-09
4.0685701e-09
4.3429809e-09
4.673812e-09
5.0680169e-09
5.5140573e-09
5.9900543e-09
6.4594525e-09
6.8864842e-09
7.2445407e-09
7.5234936e-09
7.7266057e-09
7.8671764e-09
7.9626333e-09
8.0256294e-09
8.0718973e-09
8.1162619e-09
8.1510541e-09
8.1837858e-09
8.2109942e-09
8.2417626e-09
8.2737407e-09
8.3058969e-09
8.3401836e-09
8.3739798e-09
8.4087334e-09
8.4397912e-09
8.4848296e-09
8.5603299e-09
8.6082597e-09
8.6320141e-09
8.6412403e-09
8.6483803e-09
0.0010340813
0.0022330616
0.0025020443
0.0020025991
0.00061450604
4.2981591e-07
3.3817265e-09
3.326016e-09
3.2064324e-09
3.2562263e-09
3.2239093e-09
3.2929939e-09
3.3199846e-09
3.4128925e-09
3.4948573e-09
3.6240338e-09
3.7698172e-09
3.9634374e-09
4.1971011e-09
4.4897902e-09
4.8416325e-09
5.2570498e-09
5.7207436e-09
6.2060637e-09
6.6735973e-09
7.08774e-09
7.4252579e-09
7.6802337e-09
7.8587075e-09
7.9760925e-09
8.0510527e-09
8.0969469e-09
8.1290887e-09
8.1630044e-09
8.1884764e-09
8.2129825e-09
8.233967e-09
8.260204e-09
8.2888139e-09
8.3183537e-09
8.3508206e-09
8.3828822e-09
8.4153555e-09
8.4459665e-09
8.497625e-09
8.5709945e-09
8.6136132e-09
8.6342047e-09
8.6413507e-09
8.6481364e-09
0.001037823
0.0022163532
0.0024427677
0.0018669346
0.00049169249
1.1777943e-07
3.4108679e-09
3.3833734e-09
3.2664366e-09
3.3180851e-09
3.2896394e-09
3.3623943e-09
3.3944349e-09
3.4927778e-09
3.5820726e-09
3.7197386e-09
3.8766889e-09
4.0836854e-09
4.3341299e-09
4.646459e-09
5.020394e-09
5.4572094e-09
5.9372781e-09
6.4291489e-09
6.891183e-09
7.289083e-09
7.603994e-09
7.8338096e-09
7.9867063e-09
8.0805208e-09
8.1350489e-09
8.1646792e-09
8.1835928e-09
8.2078551e-09
8.224369e-09
8.2410269e-09
8.2560069e-09
8.2781557e-09
8.3036111e-09
8.3306914e-09
8.3614047e-09
8.3916053e-09
8.4217932e-09
8.4532318e-09
8.5132547e-09
8.5804023e-09
8.6177791e-09
8.6350704e-09
8.6413574e-09
8.6473664e-09
0.0010417417
0.0021991119
0.0023878837
0.0017213229
0.00038546509
4.1410631e-08
3.4547952e-09
3.4428151e-09
3.328827e-09
3.3828236e-09
3.3585431e-09
3.4353235e-09
3.4728008e-09
3.5770193e-09
3.6742758e-09
3.8211581e-09
3.9902697e-09
4.2117883e-09
4.4803825e-09
4.8137097e-09
5.2106666e-09
5.6686522e-09
6.1632676e-09
6.6583846e-09
7.1110708e-09
7.4896857e-09
7.780451e-09
7.9837119e-09
8.1097463e-09
8.1798277e-09
8.2146449e-09
8.2285893e-09
8.2356495e-09
8.2508171e-09
8.2585504e-09
8.26799e-09
8.2770878e-09
8.2955896e-09
8.3181072e-09
8.3428864e-09
8.3718851e-09
8.4000764e-09
8.4282244e-09
8.4619754e-09
8.5299384e-09
8.5894969e-09
8.6214148e-09
8.6354882e-09
8.6405954e-09
8.6458355e-09
0.0010456105
0.0021797741
0.0023251472
0.0015655293
0.00028915708
1.7907578e-08
3.5071655e-09
3.5048473e-09
3.3940842e-09
3.450764e-09
3.4309218e-09
3.5120269e-09
3.5553615e-09
3.6659303e-09
3.7718532e-09
3.9287917e-09
4.1111397e-09
4.348473e-09
4.6366811e-09
4.9924244e-09
5.4131302e-09
5.8916378e-09
6.3983493e-09
6.8929098e-09
7.3323354e-09
7.6891177e-09
7.9542807e-09
8.1285974e-09
8.2269734e-09
8.273624e-09
8.2899857e-09
8.2886898e-09
8.285514e-09
8.291699e-09
8.2908689e-09
8.2938924e-09
8.2973823e-09
8.3124546e-09
8.33228e-09
8.3549135e-09
8.3822058e-09
8.4082357e-09
8.4349417e-09
8.4728202e-09
8.5465405e-09
8.5982577e-09
8.6249062e-09
8.6356069e-09
8.6390773e-09
8.6435701e-09
0.0010498067
0.0021595717
0.0022618855
0.0014030483
0.00020251605
9.8110435e-09
3.5657806e-09
3.5699376e-09
3.4625806e-09
3.5221414e-09
3.5069552e-09
3.5927431e-09
3.6423971e-09
3.7598093e-09
3.8752791e-09
4.0431916e-09
4.239981e-09
4.4945183e-09
4.8038868e-09
5.1833483e-09
5.6282096e-09
6.1259676e-09
6.6416889e-09
7.131506e-09
7.5540091e-09
7.8870345e-09
8.1240329e-09
8.2673144e-09
8.3375937e-09
8.3618875e-09
8.3615067e-09
8.3452809e-09
8.3330512e-09
8.3301778e-09
8.3214428e-09
8.318515e-09
8.3172517e-09
8.3286845e-09
8.3461135e-09
8.3667435e-09
8.3923017e-09
8.4160344e-09
8.442276e-09
8.4865899e-09
8.561523e-09
8.6061259e-09
8.6280895e-09
8.6356106e-09
8.6370131e-09
8.64041e-09
0.0010542366
0.0021376679
0.0021947783
0.0012377136
0.00012504855
6.6509588e-09
3.6293624e-09
3.6380527e-09
3.5343504e-09
3.596989e-09
3.5868374e-09
3.6776938e-09
3.7342761e-09
3.8591882e-09
3.9850661e-09
4.1649889e-09
4.37754e-09
4.6508366e-09
4.9829692e-09
5.3874134e-09
5.8564054e-09
6.3715585e-09
6.8925051e-09
7.3731966e-09
7.7755519e-09
8.0829653e-09
8.2879229e-09
8.3986342e-09
8.4415049e-09
8.446042e-09
8.4288971e-09
8.3991458e-09
8.3774396e-09
8.3666943e-09
8.3504154e-09
8.3413685e-09
8.3368101e-09
8.3442421e-09
8.3595941e-09
8.3783314e-09
8.4020783e-09
8.4234787e-09
8.4504951e-09
8.503526e-09
8.5737096e-09
8.6123144e-09
8.6303568e-09
8.6355842e-09
8.6355363e-09
8.6358127e-09
0.001058609
0.0021112313
0.0021234908
0.0010811955
6.2331824e-05
5.3032023e-09
3.6966213e-09
3.7091598e-09
3.6093479e-09
3.6755246e-09
3.6708242e-09
3.7672756e-09
3.8314556e-09
3.9645409e-09
4.1018136e-09
4.2949076e-09
4.524685e-09
4.818375e-09
5.1748906e-09
5.6052659e-09
6.0978295e-09
6.6277032e-09
7.1495731e-09
7.6168127e-09
7.9964466e-09
8.2748168e-09
8.4445121e-09
8.5218568e-09
8.5402168e-09
8.5255976e-09
8.4920859e-09
8.4499461e-09
8.4190766e-09
8.4011551e-09
8.3775951e-09
8.3629901e-09
8.3557671e-09
8.3592152e-09
8.3727146e-09
8.3896186e-09
8.4114422e-09
8.4306805e-09
8.459829e-09
8.5215938e-09
8.5838227e-09
8.6166955e-09
8.6313523e-09
8.6354006e-09
8.6347844e-09
8.6297128e-09
0.0010626273
0.002079682
0.0020458576
0.00093156767
2.3252067e-05
4.7094095e-09
3.7673629e-09
3.7834856e-09
3.6879528e-09
3.7581424e-09
3.7593211e-09
3.8619305e-09
3.9344163e-09
4.0764453e-09
4.2261948e-09
4.4337594e-09
4.6823787e-09
4.9982267e-09
5.3807372e-09
5.8377198e-09
6.3526536e-09
6.8938208e-09
7.4118679e-09
7.8616373e-09
8.2161978e-09
8.4603665e-09
8.5923354e-09
8.6379044e-09
8.6342172e-09
8.6001464e-09
8.5512071e-09
8.4977088e-09
8.4580027e-09
8.4336699e-09
8.4031441e-09
8.3834478e-09
8.373696e-09
8.3738405e-09
8.3854671e-09
8.4005369e-09
8.4203202e-09
8.4378977e-09
8.4706672e-09
8.5390639e-09
8.5924566e-09
8.6199196e-09
8.6317542e-09
8.6350639e-09
8.6341563e-09
8.6229517e-09
0.001066085
0.0020425771
0.0019599966
0.00079023903
6.6708138e-06
4.4621753e-09
3.8417849e-09
3.8614442e-09
3.7705653e-09
3.845257e-09
3.8528217e-09
3.9620488e-09
4.0436973e-09
4.1955357e-09
4.358983e-09
4.5825058e-09
4.8516806e-09
5.191508e-09
5.6014291e-09
6.085167e-09
6.6204316e-09
7.1686853e-09
7.6780279e-09
8.1068874e-09
8.4324799e-09
8.6377352e-09
8.7306321e-09
8.7488093e-09
8.7224144e-09
8.6698036e-09
8.6063574e-09
8.5423877e-09
8.4944258e-09
8.4642811e-09
8.4272328e-09
8.4029631e-09
8.3902153e-09
8.3882744e-09
8.3978361e-09
8.4110229e-09
8.4286901e-09
8.445507e-09
8.4836439e-09
8.5546853e-09
8.6000462e-09
8.6226713e-09
8.631861e-09
8.6342313e-09
8.6330346e-09
8.6166402e-09
0.0010689494
0.0019991354
0.0018549594
0.00065856885
1.6516691e-06
4.3831565e-09
3.9201135e-09
3.9434464e-09
3.8576078e-09
3.9373004e-09
3.9517618e-09
4.068132e-09
4.1598572e-09
4.3225545e-09
4.5011015e-09
4.7421976e-09
5.0337859e-09
5.3994734e-09
5.8380496e-09
6.3481292e-09
6.9008313e-09
7.4513143e-09
7.9471257e-09
8.3520538e-09
8.6426781e-09
8.8052868e-09
8.8611242e-09
8.8538849e-09
8.8048563e-09
8.7346115e-09
8.6576698e-09
8.5840089e-09
8.5285018e-09
8.4930785e-09
8.4499231e-09
8.4213737e-09
8.4057299e-09
8.4023497e-09
8.4097778e-09
8.4210347e-09
8.4366136e-09
8.4538569e-09
8.4992778e-09
8.5676758e-09
8.6065267e-09
8.625132e-09
8.6318319e-09
8.6329313e-09
8.6312653e-09
8.6113635e-09
0.0010715934
0.0019515724
0.00173549
0.00053935763
4.0715074e-07
4.3885923e-09
4.0028371e-09
4.0298725e-09
3.949503e-09
4.0345792e-09
4.0565662e-09
4.180693e-09
4.2836769e-09
4.4583876e-09
4.6536027e-09
4.9140287e-09
5.2299466e-09
5.623301e-09
6.0913197e-09
6.6264906e-09
7.1927564e-09
7.7401939e-09
8.2180055e-09
8.5950484e-09
8.8441825e-09
8.9619218e-09
8.9858577e-09
8.9522056e-09
8.8815154e-09
8.7947218e-09
8.7052687e-09
8.6226371e-09
8.560404e-09
8.5201374e-09
8.4711994e-09
8.4386502e-09
8.4204445e-09
8.4160663e-09
8.4212276e-09
8.4305624e-09
8.4442488e-09
8.4631367e-09
8.5167388e-09
8.578139e-09
8.6115394e-09
8.6266464e-09
8.6314651e-09
8.6315464e-09
8.6285494e-09
8.6069675e-09
0.0010740553
0.0019005231
0.0016024589
0.0004316032
1.1571632e-07
4.4376144e-09
4.0899838e-09
4.1211429e-09
4.0463785e-09
4.1375154e-09
4.1677265e-09
4.3005531e-09
4.416055e-09
4.6040962e-09
4.8176494e-09
5.099268e-09
5.4415715e-09
5.864307e-09
6.3621398e-09
6.9202408e-09
7.4953698e-09
8.0342581e-09
8.490076e-09
8.8328822e-09
9.0351338e-09
9.1095075e-09
9.1039113e-09
9.0437712e-09
8.9525392e-09
8.8502895e-09
8.749299e-09
8.6584339e-09
8.5902308e-09
8.5455237e-09
8.4910339e-09
8.454855e-09
8.4345113e-09
8.4293789e-09
8.4321653e-09
8.4396214e-09
8.4518446e-09
8.473412e-09
8.5338987e-09
8.5870805e-09
8.6151908e-09
8.6272816e-09
8.6308597e-09
8.630604e-09
8.6245595e-09
8.6032694e-09
0.0010764151
0.0018456139
0.0014670592
0.00033821115
4.3514335e-08
4.5092792e-09
4.1817015e-09
4.2172511e-09
4.1487774e-09
4.2466464e-09
4.2861362e-09
4.4286551e-09
4.5580578e-09
4.7608445e-09
4.9944989e-09
5.2993252e-09
5.6700278e-09
6.1235837e-09
6.6507344e-09
7.2285494e-09
7.8070422e-09
8.3320279e-09
8.7617543e-09
9.0619913e-09
9.213857e-09
9.2501775e-09
9.2142776e-09
9.1285918e-09
9.0180744e-09
8.9014976e-09
8.7899162e-09
8.6915528e-09
8.6181047e-09
8.5692963e-09
8.5094551e-09
8.4700926e-09
8.4479689e-09
8.4421822e-09
8.4427009e-09
8.4482398e-09
8.4596916e-09
8.484953e-09
8.5497497e-09
8.5946549e-09
8.6178937e-09
8.6275007e-09
8.6301729e-09
8.6296285e-09
8.6197099e-09
8.6000838e-09
0.0010789189
0.0017825224
0.0013304587
0.00025237336
2.0026281e-08
4.5934252e-09
4.278162e-09
4.318671e-09
4.2574456e-09
4.3629684e-09
4.4128567e-09
4.5660737e-09
4.7107989e-09
4.929846e-09
5.1855119e-09
5.5156959e-09
5.9169057e-09
6.4023283e-09
6.9575451e-09
7.5507314e-09
8.1267012e-09
8.6326008e-09
9.0298577e-09
9.2802331e-09
9.3817074e-09
9.3835047e-09
9.3167477e-09
9.2068391e-09
9.0783343e-09
8.9485463e-09
8.8272911e-09
8.7221593e-09
8.6441308e-09
8.5915128e-09
8.5265569e-09
8.4845063e-09
8.4608259e-09
8.4542071e-09
8.4530483e-09
8.4564419e-09
8.4679254e-09
8.4984758e-09
8.5632651e-09
8.6010219e-09
8.6200404e-09
8.6275396e-09
8.6294076e-09
8.6285862e-09
8.6149302e-09
8.5973666e-09
0.0010831879
0.0017233288
0.0011911749
0.00017384766
1.1547208e-08
4.6867919e-09
4.3802521e-09
4.4265576e-09
4.3734876e-09
4.4876449e-09
4.548919e-09
4.7138937e-09
4.8753907e-09
5.1124507e-09
5.3921952e-09
5.7500329e-09
6.1835999e-09
6.7012783e-09
7.2820078e-09
7.8852315e-09
8.452483e-09
8.9345364e-09
9.2901989e-09
9.4851739e-09
9.540928e-09
9.5082464e-09
9.4113744e-09
9.2786891e-09
9.1335377e-09
8.9916455e-09
8.8616032e-09
8.7504188e-09
8.6684195e-09
8.6122464e-09
8.5424862e-09
8.4982243e-09
8.4731502e-09
8.4653282e-09
8.4631665e-09
8.4642664e-09
8.476679e-09
8.5143799e-09
8.5738243e-09
8.6062536e-09
8.6218103e-09
8.6275013e-09
8.6284993e-09
8.6273416e-09
8.6105666e-09
8.5950677e-09
0.0010887278
0.0016626117
0.0010506544
0.00010348715
8.1016957e-09
4.7874926e-09
4.4891594e-09
4.5422345e-09
4.4980962e-09
4.6215983e-09
4.6953132e-09
4.873176e-09
5.0531275e-09
5.3101345e-09
5.6162139e-09
6.0041261e-09
6.4717131e-09
7.0212589e-09
7.6238325e-09
8.2309114e-09
8.7832021e-09
9.2353354e-09
9.5396676e-09
9.6769596e-09
9.6923054e-09
9.6237808e-09
9.4983336e-09
9.3444089e-09
9.183943e-09
9.0310187e-09
8.8930387e-09
8.7764923e-09
8.6910727e-09
8.6315847e-09
8.5574094e-09
8.5112827e-09
8.4848265e-09
8.4757293e-09
8.4727772e-09
8.471858e-09
8.4857898e-09
8.5304434e-09
8.5827813e-09
8.6104841e-09
8.6231328e-09
8.6271963e-09
8.6274427e-09
8.6257505e-09
8.6068862e-09
8.5930906e-09
0.001095744
0.0015968453
0.00091220841
4.8674522e-05
6.6028882e-09
4.8959721e-09
4.6061194e-09
4.6664621e-09
4.6319053e-09
4.7656359e-09
4.8530487e-09
5.0451594e-09
5.2454885e-09
5.5246008e-09
5.8594519e-09
6.2797522e-09
6.7824413e-09
7.3621948e-09
7.9815796e-09
8.5857662e-09
9.1170472e-09