/*--------------------------------*- C++ -*----------------------------------*\
  =========                 |
  \\      /  F ield         | OpenFOAM: The Open Source CFD Toolbox
   \\    /   O peration     | Website:  https://openfoam.org
    \\  /    A nd           | Version:  8
     \\/     M anipulation  |
\*---------------------------------------------------------------------------*/
FoamFile
{
    version     2.0;
    format      ascii;
    class       volVectorField;
    location    "0.299999";
    object      cellDisplacement;
}
// * * * * * * * * * * * * * * * * * * * * * * * * * * * * * * * * * * * * * //

dimensions      [0 1 0 0 0 0 0];

internalField   nonuniform List<vector> 
20000
(
(-0.00048125211 0 -0.00036404056)
(-0.00048124717 0 -0.00036403831)
(-0.00048123587 0 -0.00036406361)
(-0.00048121532 0 -0.00036410164)
(-0.00048118165 0 -0.00036415445)
(-0.00048112932 0 -0.00036422793)
(-0.00048105094 0 -0.00036432997)
(-0.00048093601 0 -0.00036447243)
(-0.00048077083 0 -0.00036467549)
(-0.00048053612 0 -0.00036496551)
(-0.00048020692 0 -0.00036538504)
(-0.00047974896 0 -0.00036599102)
(-0.00047911768 0 -0.0003668659)
(-0.0004782542 0 -0.00036812304)
(-0.00047708166 0 -0.00036992226)
(-0.00047550249 0 -0.00037248908)
(-0.0004733913 0 -0.00037611487)
(-0.00047059231 0 -0.00038126371)
(-0.00046691746 0 -0.00038847946)
(-0.00046214444 0 -0.0003985487)
(-0.00045602773 0 -0.00041246793)
(-0.00044829938 0 -0.00043150761)
(-0.00043868816 0 -0.00045721023)
(-0.00042697143 0 -0.00049132341)
(-0.00041294666 0 -0.00053579102)
(-0.0003966126 0 -0.00059222839)
(-0.0003779362 0 -0.00066227472)
(-0.00035728789 0 -0.00074568744)
(-0.00033483791 0 -0.00084260828)
(-0.00031134885 0 -0.0009496583)
(-0.00028731846 0 -0.0010646565)
(-0.00026372662 0 -0.0011814638)
(-0.0002407399 0 -0.0012971815)
(-0.00021930179 0 -0.0014053323)
(-0.00019920686 0 -0.0015045435)
(-0.00018132338 0 -0.0015892834)
(-0.00016532112 0 -0.0016587102)
(-0.00015170431 0 -0.001711562)
(-0.00013972769 0 -0.0017472694)
(-0.00013047906 0 -0.0017677426)
(-0.00012219933 0 -0.0017739402)
(-0.000115675 0 -0.0017674816)
(-0.00010726871 0 -0.001727882)
(-0.00010142953 0 -0.0016807641)
(-9.4093924e-05 0 -0.001593297)
(-8.85001e-05 0 -0.0015094846)
(-8.0577369e-05 0 -0.0013769394)
(-6.5674325e-05 0 -0.0011289224)
(-4.9520636e-05 0 -0.00083913643)
(-2.5458623e-05 0 -0.0004164365)
(-0.00048073809 0 -0.00029702749)
(-0.00048073281 0 -0.00029699502)
(-0.00048072086 0 -0.00029695917)
(-0.00048069943 0 -0.0002969222)
(-0.00048066458 0 -0.00029688822)
(-0.00048061065 0 -0.00029686236)
(-0.00048053013 0 -0.00029685217)
(-0.00048041232 0 -0.00029686966)
(-0.00048024325 0 -0.00029693008)
(-0.00048000329 0 -0.00029705891)
(-0.00047966713 0 -0.00029729057)
(-0.00047919979 0 -0.00029767849)
(-0.00047855644 0 -0.00029829778)
(-0.00047767701 0 -0.00029925811)
(-0.00047648435 0 -0.00030071507)
(-0.00047487933 0 -0.00030288553)
(-0.0004727361 0 -0.00030608542)
(-0.0004698972 0 -0.00031072458)
(-0.00046617383 0 -0.00031740999)
(-0.00046134467 0 -0.00032690819)
(-0.00045516396 0 -0.00034024303)
(-0.00044736718 0 -0.00035871479)
(-0.00043769075 0 -0.00038390928)
(-0.00042591398 0 -0.00041764133)
(-0.00041185978 0 -0.00046189199)
(-0.00039551683 0 -0.00051840151)
(-0.00037690107 0 -0.00058877388)
(-0.00035633438 0 -0.00067310498)
(-0.00033405069 0 -0.00077133763)
(-0.000310749 0 -0.00088042112)
(-0.00028694036 0 -0.00099789321)
(-0.00026352525 0 -0.0011179261)
(-0.0002407221 0 -0.0012372514)
(-0.0002193837 0 -0.0013496175)
(-0.00019938949 0 -0.0014531448)
(-0.00018151577 0 -0.0015425234)
(-0.00016550815 0 -0.0016166062)
(-0.00015181761 0 -0.0016739995)
(-0.00013979858 0 -0.0017141963)
(-0.00013037889 0 -0.0017386893)
(-0.00012202405 0 -0.0017483702)
(-0.00011531502 0 -0.0017445295)
(-0.00010706426 0 -0.0017091535)
(-0.00010103524 0 -0.0016638263)
(-9.3766034e-05 0 -0.0015801678)
(-8.7964982e-05 0 -0.0014960291)
(-7.9921048e-05 0 -0.0013635293)
(-6.5323551e-05 0 -0.001121192)
(-4.897629e-05 0 -0.00082982897)
(-2.4636591e-05 0 -0.00040366705)
(-0.00047997502 0 -0.00023146231)
(-0.00047996903 0 -0.00023139324)
(-0.00047995613 0 -0.00023131448)
(-0.00047993342 0 -0.00023122585)
(-0.00047989685 0 -0.00023112724)
(-0.00047984061 0 -0.0002310206)
(-0.000479757 0 -0.00023091084)
(-0.00047963513 0 -0.00023080595)
(-0.00047946076 0 -0.00023072118)
(-0.00047921396 0 -0.00023067884)
(-0.00047886893 0 -0.00023071229)
(-0.00047839027 0 -0.00023087203)
(-0.00047773227 0 -0.00023122824)
(-0.00047683422 0 -0.00023188756)
(-0.00047561779 0 -0.00023299893)
(-0.00047398296 0 -0.00023478265)
(-0.00047180226 0 -0.00023753341)
(-0.00046891803 0 -0.00024170239)
(-0.00046513932 0 -0.00024785186)
(-0.00046024597 0 -0.00025678629)
(-0.000453993 0 -0.00026954277)
(-0.00044611926 0 -0.00028745572)
(-0.00043636873 0 -0.0003121578)
(-0.00042452647 0 -0.00034552642)
(-0.00041043633 0 -0.00038958846)
(-0.00039408728 0 -0.0004461792)
(-0.00037553125 0 -0.00051689895)
(-0.00035505826 0 -0.00060211845)
(-0.00033295292 0 -0.00070161093)
(-0.00030985899 0 -0.00081260633)
(-0.00028629532 0 -0.00093241072)
(-0.00026308682 0 -0.001055472)
(-0.00024049531 0 -0.0011781996)
(-0.00021928864 0 -0.0012945521)
(-0.00019942046 0 -0.0014022005)
(-0.00018158436 0 -0.0014960215)
(-0.00016559415 0 -0.0015746002)
(-0.00015185192 0 -0.0016364107)
(-0.00013980376 0 -0.0016809847)
(-0.00013023539 0 -0.0017094256)
(-0.00012181027 0 -0.0017225695)
(-0.0001149363 0 -0.0017213883)
(-0.00010681772 0 -0.0016900586)
(-0.00010062728 0 -0.0016466585)
(-9.3412427e-05 0 -0.0015666449)
(-8.7423112e-05 0 -0.0014823939)
(-7.9266994e-05 0 -0.0013501122)
(-6.4942525e-05 0 -0.0011129838)
(-4.8431614e-05 0 -0.00082047137)
(-2.3855067e-05 0 -0.00039147481)
(-0.0004789697 0 -0.00016730698)
(-0.00047896241 0 -0.00016718872)
(-0.00047894779 0 -0.00016704786)
(-0.00047892294 0 -0.00016688786)
(-0.00047888376 0 -0.0001667095)
(-0.00047882435 0 -0.0001665157)
(-0.00047873687 0 -0.00016630942)
(-0.00047861012 0 -0.00016609628)
(-0.00047842959 0 -0.00016588629)
(-0.00047817478 0 -0.00016569483)
(-0.0004778195 0 -0.00016555101)
(-0.00047732751 0 -0.00016549681)
(-0.00047665254 0 -0.0001656021)
(-0.00047573279 0 -0.00016596622)
(-0.00047448905 0 -0.00016673987)
(-0.00047281985 0 -0.00016813301)
(-0.00047059702 0 -0.00017046124)
(-0.00046766042 0 -0.00017413254)
(-0.00046381992 0 -0.00017976548)
(-0.00045885461 0 -0.00018814853)
(-0.00045252142 0 -0.00020035004)
(-0.00044456292 0 -0.00021773751)
(-0.00043473049 0 -0.00024198799)
(-0.00042281779 0 -0.00027503542)
(-0.00040868658 0 -0.00031895658)
(-0.00039233375 0 -0.00037565977)
(-0.00037383773 0 -0.00044676922)
(-0.00035347272 0 -0.00053284931)
(-0.00033155494 0 -0.00063358083)
(-0.00030869009 0 -0.00074637766)
(-0.00028539015 0 -0.00086839805)
(-0.00026241971 0 -0.0009942846)
(-0.00024006196 0 -0.0011202285)
(-0.00021902039 0 -0.0012403272)
(-0.00019929906 0 -0.0013519102)
(-0.00018153006 0 -0.0014499641)
(-0.00016557691 0 -0.001532864)
(-0.00015180712 0 -0.0015989495)
(-0.0001397402 0 -0.0016477707)
(-0.00013004705 0 -0.0016800771)
(-0.00012155628 0 -0.0016966414)
(-0.00011453768 0 -0.0016981533)
(-0.00010652999 0 -0.0016706742)
(-0.00010020435 0 -0.0016293217)
(-9.3032305e-05 0 -0.0015527681)
(-8.6873514e-05 0 -0.0014686135)
(-7.8612753e-05 0 -0.0013366444)
(-6.4534192e-05 0 -0.0011043409)
(-4.7886176e-05 0 -0.00081107143)
(-2.311221e-05 0 -0.00037986706)
(-0.00047773026 0 -0.0001045443)
(-0.00047772181 0 -0.00010439788)
(-0.00047770579 0 -0.00010422917)
(-0.00047767904 0 -0.00010403224)
(-0.00047763723 0 -0.00010380185)
(-0.0004775742 0 -0.00010353605)
(-0.00047748187 0 -0.00010323355)
(-0.00047734881 0 -0.00010289929)
(-0.00047716021 0 -0.00010254146)
(-0.00047689527 0 -0.00010217782)
(-0.00047652725 0 -0.00010183393)
(-0.00047601939 0 -0.00010155351)
(-0.00047532443 0 -0.00010139831)
(-0.00047437972 0 -0.00010146682)
(-0.00047310465 0 -0.00010190034)
(-0.00047139668 0 -0.0001029128)
(-0.00046912554 0 -0.0001047972)
(-0.00046613142 0 -0.00010800619)
(-0.0004622214 0 -0.00011311351)
(-0.00045717622 0 -0.00012095238)
(-0.00045075407 0 -0.00013260808)
(-0.00044270216 0 -0.000149485)
(-0.00043277932 0 -0.00017330905)
(-0.00042079052 0 -0.00020606635)
(-0.00040661315 0 -0.00024988821)
(-0.00039025887 0 -0.00030673403)
(-0.00037182442 0 -0.00037827339)
(-0.00035157888 0 -0.00046520426)
(-0.00032986254 0 -0.00056713344)
(-0.00030724515 0 -0.00068163477)
(-0.00028423081 0 -0.00080574345)
(-0.00026152463 0 -0.00093428122)
(-0.00023942675 0 -0.0010632466)
(-0.00021857845 0 -0.0011868773)
(-0.00019902833 0 -0.0013021958)
(-0.00018135152 0 -0.0014042906)
(-0.00016545734 0 -0.0014913421)
(-0.00015168073 0 -0.0015615662)
(-0.00013960908 0 -0.0016145041)
(-0.000129812 0 -0.0016505941)
(-0.0001212624 0 -0.0016705374)
(-0.00011411655 0 -0.0016747615)
(-0.00010620366 0 -0.001650987)
(-9.9764168e-05 0 -0.0016117666)
(-9.2627323e-05 0 -0.001538536)
(-8.631548e-05 0 -0.0014546598)
(-7.7958185e-05 0 -0.0013231465)
(-6.4099772e-05 0 -0.0010952895)
(-4.7339683e-05 0 -0.00080161781)
(-2.2405118e-05 0 -0.00036877043)
(-0.00047626299 0 -4.3128111e-05)
(-0.0004762524 0 -4.2929605e-05)
(-0.00047623357 0 -4.2694165e-05)
(-0.00047620344 0 -4.2422037e-05)
(-0.00047615763 0 -4.2111016e-05)
(-0.00047608989 0 -4.1759249e-05)
(-0.00047599194 0 -4.1365517e-05)
(-0.00047585197 0 -4.0929332e-05)
(-0.00047565474 0 -4.0454804e-05)
(-0.00047537883 0 -3.9950482e-05)
(-0.0004749969 0 -3.9438102e-05)
(-0.00047447129 0 -3.8952219e-05)
(-0.00047375395 0 -3.8554273e-05)
(-0.00047278105 0 -3.8335615e-05)
(-0.00047147083 0 -3.843853e-05)
(-0.00046971907 0 -3.9067085e-05)
(-0.00046739488 0 -4.0534224e-05)
(-0.0004643355 0 -4.3252011e-05)
(-0.00046034943 0 -4.7855835e-05)
(-0.00045521658 0 -5.5166115e-05)
(-0.0004486976 0 -6.6304104e-05)
(-0.00044054457 0 -8.2710081e-05)
(-0.00043052452 0 -0.00010615641)
(-0.00041845462 0 -0.00013867781)
(-0.00040422829 0 -0.00018245644)
(-0.00038787447 0 -0.00023949547)
(-0.0003695052 0 -0.00031150998)
(-0.000349392 0 -0.00039928881)
(-0.00032788839 0 -0.0005024017)
(-0.00030553759 0 -0.00061852148)
(-0.00028282703 0 -0.0007446107)
(-0.00026041178 0 -0.00087562272)
(-0.00023859463 0 -0.0010074322)
(-0.00021796813 0 -0.0011343732)
(-0.00019860937 0 -0.0012532386)
(-0.00018105071 0 -0.0013591702)
(-0.00016523453 0 -0.001450194)
(-0.00015147311 0 -0.0015244045)
(-0.00013940826 0 -0.0015813228)
(-0.00012952856 0 -0.001621102)
(-0.00012092711 0 -0.0016443654)
(-0.00011367153 0 -0.0016513088)
(-0.00010583921 0 -0.0016310757)
(-9.9305537e-05 0 -0.0015940554)
(-9.2196711e-05 0 -0.0015239941)
(-8.5747655e-05 0 -0.0014405619)
(-7.7301345e-05 0 -0.0013095823)
(-6.3641224e-05 0 -0.0010858582)
(-4.6791696e-05 0 -0.00079211626)
(-2.1732095e-05 0 -0.00035819112)
(-0.00047457459 0 1.695122e-05)
(-0.00047456221 0 1.7178751e-05)
(-0.00047454125 0 1.7443774e-05)
(-0.00047450831 0 1.7754782e-05)
(-0.00047445873 0 1.8119547e-05)
(-0.00047438593 0 1.8544315e-05)
(-0.00047428134 0 1.9033902e-05)
(-0.00047413285 0 1.9589537e-05)
(-0.0004739249 0 2.0208229e-05)
(-0.00047363566 0 2.0879584e-05)
(-0.00047323713 0 2.1585591e-05)
(-0.000472691 0 2.2290965e-05)
(-0.00047194805 0 2.2942567e-05)
(-0.00047094339 0 2.3450706e-05)
(-0.00046959365 0 2.3681907e-05)
(-0.00046779341 0 2.3428894e-05)
(-0.00046540943 0 2.2400155e-05)
(-0.0004622795 0 2.0137399e-05)
(-0.00045820925 0 1.6046215e-05)
(-0.00045298049 0 9.2542483e-06)
(-0.00044635609 0 -1.3803281e-06)
(-0.00043809328 0 -1.7338113e-05)
(-0.00042796856 0 -4.0441199e-05)
(-0.00041581195 0 -7.2770362e-05)
(-0.00040153392 0 -0.00011655619)
(-0.0003851826 0 -0.00017383625)
(-0.00036688312 0 -0.00024637375)
(-0.00034691376 0 -0.00033500564)
(-0.0003256377 0 -0.00043927065)
(-0.00030357069 0 -0.0005569322)
(-0.00028118418 0 -0.00068488849)
(-0.00025908272 0 -0.00081822115)
(-0.00023756992 0 -0.00095269295)
(-0.00021718972 0 -0.0010827447)
(-0.0001980449 0 -0.0012049606)
(-0.00018062681 0 -0.001314541)
(-0.00016490923 0 -0.0014093636)
(-0.00015118222 0 -0.0014874158)
(-0.00013913856 0 -0.0015481759)
(-0.00012919515 0 -0.001591551)
(-0.00012055041 0 -0.0016180768)
(-0.00011320038 0 -0.0016277361)
(-0.00010543835 0 -0.00161092)
(-9.8826677e-05 0 -0.0015761432)
(-9.1741596e-05 0 -0.001509134)
(-8.5169395e-05 0 -0.0014262914)
(-7.6641759e-05 0 -0.0012959674)
(-6.3160119e-05 0 -0.0010760791)
(-4.6241823e-05 0 -0.00078255396)
(-2.1091141e-05 0 -0.00034807234)
(-0.00047267134 0 7.5738242e-05)
(-0.00047265613 0 7.6014783e-05)
(-0.00047263157 0 7.6341057e-05)
(-0.0004725943 0 7.6721442e-05)
(-0.00047253961 0 7.7161382e-05)
(-0.0004724607 0 7.7668811e-05)
(-0.00047234877 0 7.8248497e-05)
(-0.00047219125 0 7.8906723e-05)
(-0.00047197207 0 7.9644341e-05)
(-0.00047166862 0 8.045913e-05)
(-0.00047125224 0 8.1336083e-05)
(-0.00047068353 0 8.2248073e-05)
(-0.00046991236 0 8.3142214e-05)
(-0.00046887242 0 8.3935815e-05)
(-0.00046747903 0 8.4495346e-05)
(-0.0004656248 0 8.4623357e-05)
(-0.00046317587 0 8.4009863e-05)
(-0.00045996689 0 8.2234108e-05)
(-0.00045580573 0 7.8631596e-05)
(-0.00045047345 0 7.2337214e-05)
(-0.00044373595 0 6.2170694e-05)
(-0.00043535629 0 4.6614744e-05)
(-0.000425121 0 2.3795479e-05)
(-0.00041287372 0 -8.4047638e-06)
(-0.00039854295 0 -5.2263476e-05)
(-0.00038219708 0 -0.00010984496)
(-0.0003639736 0 -0.00018295433)
(-0.00034416054 0 -0.00027245175)
(-0.00032312473 0 -0.00037786161)
(-0.00030135939 0 -0.00049699686)
(-0.00027931411 0 -0.00062672251)
(-0.00025754923 0 -0.0007622202)
(-0.00023635967 0 -0.00089918808)
(-0.00021625008 0 -0.0010321459)
(-0.00019733784 0 -0.0011575268)
(-0.00018008307 0 -0.0012705576)
(-0.00016448193 0 -0.0013689993)
(-0.00015080928 0 -0.0014507352)
(-0.00013879882 0 -0.0015151973)
(-0.00012881064 0 -0.0015620636)
(-0.00012013118 0 -0.0015917797)
(-0.00011270201 0 -0.0016041386)
(-0.00010500142 0 -0.0015905984)
(-9.8326763e-05 0 -0.0015580938)
(-9.1261343e-05 0 -0.0014940048)
(-8.4579449e-05 0 -0.0014118787)
(-7.5977896e-05 0 -0.0012822721)
(-6.2657707e-05 0 -0.0010659707)
(-4.5689838e-05 0 -0.00077293969)
(-2.0480378e-05 0 -0.00033841478)
(-0.00047056069 0 0.00013324518)
(-0.00047054291 0 0.00013355431)
(-0.00047051527 0 0.00013391575)
(-0.00047047404 0 0.00013434102)
(-0.00047041417 0 0.00013484017)
(-0.0004703286 0 0.00013542307)
(-0.00047020811 0 0.00013609899)
(-0.00047003981 0 0.00013687426)
(-0.00046980716 0 0.000137752)
(-0.00046948711 0 0.00013872836)
(-0.00046905014 0 0.000139793)
(-0.00046845606 0 0.00014091883)
(-0.00046765331 0 0.00014206169)
(-0.00046657431 0 0.00014314104)
(-0.00046513248 0 0.00014403258)
(-0.00046321902 0 0.00014453647)
(-0.00046069751 0 0.00014436299)
(-0.00045740372 0 0.00014304598)
(-0.00045314324 0 0.00013994136)
(-0.00044769942 0 0.00013412783)
(-0.00044084038 0 0.00012440652)
(-0.00043233575 0 0.0001092224)
(-0.00042198341 0 8.66387e-05)
(-0.00040964094 0 5.4514236e-05)
(-0.00039525659 0 1.0524178e-05)
(-0.00037891934 0 -4.7416977e-05)
(-0.0003607793 0 -0.00012115194)
(-0.00034113472 0 -0.00021153004)
(-0.00032035457 0 -0.00031806102)
(-0.00029890736 0 -0.00043860806)
(-0.00027722196 0 -0.00057000212)
(-0.00025581352 0 -0.00070752842)
(-0.0002349681 0 -0.00084682368)
(-0.00021515017 0 -0.00098250246)
(-0.00019649086 0 -0.001110858)
(-0.00017941916 0 -0.0012271564)
(-0.00016395343 0 -0.0013290431)
(-0.00015035271 0 -0.0014143132)
(-0.0001383897 0 -0.0014823346)
(-0.00012837379 0 -0.0015325891)
(-0.00011966926 0 -0.0015654249)
(-0.00011217452 0 -0.00158046)
(-0.00010452949 0 -0.0015700859)
(-9.7804372e-05 0 -0.0015398652)
(-9.0756783e-05 0 -0.001478594)
(-8.397724e-05 0 -0.0013972956)
(-7.5309182e-05 0 -0.0012685109)
(-6.2135616e-05 0 -0.0010555659)
(-4.5135389e-05 0 -0.0007632614)
(-1.9898341e-05 0 -0.00032917126)
(-0.00046824829 0 0.00018951209)
(-0.00046822686 0 0.00018986949)
(-0.00046819457 0 0.00019029215)
(-0.00046814776 0 0.00019078671)
(-0.00046808134 0 0.00019136158)
(-0.00046798794 0 0.00019202802)
(-0.00046785816 0 0.00019279445)
(-0.0004676785 0 0.00019367259)
(-0.00046743189 0 0.00019466832)
(-0.00046709428 0 0.0001957869)
(-0.00046663536 0 0.00019702033)
(-0.00046601362 0 0.00019835082)
(-0.00046517637 0 0.00019973467)
(-0.00046405435 0 0.00020109914)
(-0.00046255932 0 0.00020232103)
(-0.00046058028 0 0.00020321035)
(-0.00045798004 0 0.0002034636)
(-0.00045459149 0 0.00020265648)
(-0.00045022603 0 0.00020001731)
(-0.00044466377 0 0.0001946502)
(-0.00043767609 0 0.00018532832)
(-0.00042904007 0 0.00017046516)
(-0.00041856636 0 0.00014804176)
(-0.00040612597 0 0.00011592371)
(-0.00039168889 0 7.172851e-05)
(-0.00037536529 0 1.3359908e-05)
(-0.00035731726 0 -6.1052571e-05)
(-0.00033785388 0 -0.00015233425)
(-0.00031734311 0 -0.00025998356)
(-0.00029623099 0 -0.00038188637)
(-0.00027492142 0 -0.00051486014)
(-0.00025388882 0 -0.00065427688)
(-0.00023340406 0 -0.00079574466)
(-0.00021389822 0 -0.00093395535)
(-0.00019550843 0 -0.0010651061)
(-0.00017863949 0 -0.0011844807)
(-0.00016332544 0 -0.0012896346)
(-0.00014981452 0 -0.0013782781)
(-0.00013791088 0 -0.0014497174)
(-0.0001278841 0 -0.0015032468)
(-0.00011916391 0 -0.0015391191)
(-0.00011161716 0 -0.0015567945)
(-0.00010402284 0 -0.0015494604)
(-9.7259014e-05 0 -0.0015215224)
(-9.0227388e-05 0 -0.0014629525)
(-8.3361719e-05 0 -0.0013825749)
(-7.4634328e-05 0 -0.0012546579)
(-6.1594595e-05 0 -0.0010448766)
(-4.4578359e-05 0 -0.00075352981)
(-1.9342991e-05 0 -0.00032033822)
(-0.00046574019 0 0.00024455112)
(-0.00046571548 0 0.00024494119)
(-0.0004656793 0 0.00024539918)
(-0.00046562753 0 0.00024593854)
(-0.0004655547 0 0.00024657204)
(-0.00046545312 0 0.00024731286)
(-0.0004653129 0 0.0002481739)
(-0.00046512013 0 0.00024916695)
(-0.00046485719 0 0.00025030043)
(-0.00046449943 0 0.00025157859)
(-0.00046401555 0 0.00025299832)
(-0.000463363 0 0.00025454279)
(-0.00046248747 0 0.00025617656)
(-0.00046131803 0 0.00025783044)
(-0.00045976434 0 0.00025938912)
(-0.0004577134 0 0.00026066346)
(-0.00045502521 0 0.00026136651)
(-0.00045154206 0 0.00026093677)
(-0.00044706719 0 0.00025872118)
(-0.00044137961 0 0.00025376243)
(-0.00043425503 0 0.00024481429)
(-0.00042547931 0 0.00023025819)
(-0.00041487107 0 0.00020808479)
(-0.00040232865 0 0.00017591428)
(-0.00038784113 0 0.00013144977)
(-0.00037153532 0 7.2589658e-05)
(-0.00035358947 0 -2.5590987e-06)
(-0.0003343208 0 -9.47655e-05)
(-0.00031409511 0 -0.00020351586)
(-0.00029333393 0 -0.00032672267)
(-0.0002724171 0 -0.00046118612)
(-0.00025177758 0 -0.00060237096)
(-0.00023167138 0 -0.0007458556)
(-0.00021249552 0 -0.00088642647)
(-0.00019439295 0 -0.0010201906)
(-0.00017774401 0 -0.0011424645)
(-0.00016259859 0 -0.0012507139)
(-0.0001491934 0 -0.0013425791)
(-0.00013736273 0 -0.0014172921)
(-0.00012734048 0 -0.0014739859)
(-0.00011861475 0 -0.001512813)
(-0.00011102827 0 -0.0015330889)
(-0.00010348196 0 -0.0015286927)
(-9.6689446e-05 0 -0.0015030258)
(-8.967366e-05 0 -0.0014470645)
(-8.2732287e-05 0 -0.0013676886)
(-7.3952839e-05 0 -0.0012407295)
(-6.1036206e-05 0 -0.0010339348)
(-4.4018552e-05 0 -0.00074373537)
(-1.8813229e-05 0 -0.00031187467)
(-0.00046304219 0 0.00029840021)
(-0.0004630131 0 0.00029883653)
(-0.00046297144 0 0.00029935126)
(-0.00046291313 0 0.00029995485)
(-0.0004628326 0 0.0003006585)
(-0.00046272176 0 0.00030147829)
(-0.00046257042 0 0.00030242695)
(-0.00046236397 0 0.00030352185)
(-0.00046208406 0 0.00030477489)
(-0.000461705 0 0.00030619819)
(-0.00046119443 0 0.00030779153)
(-0.00046050842 0 0.00030954527)
(-0.00045959116 0 0.00031142573)
(-0.00045836988 0 0.00031336961)
(-0.00045675194 0 0.00031526677)
(-0.00045462201 0 0.00031693534)
(-0.00045184901 0 0.00031798426)
(-0.00044826773 0 0.00031790432)
(-0.00044367541 0 0.00031604202)
(-0.00043785421 0 0.00031144921)
(-0.00043058426 0 0.00030283342)
(-0.00042165915 0 0.00028853426)
(-0.00041091212 0 0.00026656872)
(-0.00039826294 0 0.00023442373)
(-0.00038372817 0 0.00018960571)
(-0.00036744743 0 0.00013018314)
(-0.00034961486 0 5.4243792e-05)
(-0.00033055411 0 -3.891475e-05)
(-0.00031062794 0 -0.00014876417)
(-0.00029023387 0 -0.00027322659)
(-0.00026972428 0 -0.0004090987)
(-0.00024949421 0 -0.00055192827)
(-0.0002297805 0 -0.00069728606)
(-0.00021095148 0 -0.00084004296)
(-0.00019315037 0 -0.00097624926)
(-0.00017673817 0 -0.0011012394)
(-0.00016177583 0 -0.0012124102)
(-0.00014849218 0 -0.0013073366)
(-0.00013674586 0 -0.0013851813)
(-0.00012674315 0 -0.00144492)
(-0.00011802158 0 -0.0014866099)
(-0.00011040751 0 -0.0015094343)
(-0.00010290726 0 -0.0015078598)
(-9.609552e-05 0 -0.0014844403)
(-8.9095288e-05 0 -0.001430982)
(-8.2088195e-05 0 -0.0013526724)
(-7.3263607e-05 0 -0.0012267025)
(-6.0460822e-05 0 -0.001022747)
(-4.3455946e-05 0 -0.00073389073)
(-1.830692e-05 0 -0.0003037747)
(-0.0004601605 0 0.00035107234)
(-0.00046012739 0 0.00035154132)
(-0.00046008099 0 0.00035209119)
(-0.00046001667 0 0.00035273907)
(-0.00045992842 0 0.00035350044)
(-0.00045980774 0 0.00035439376)
(-0.00045964386 0 0.00035543622)
(-0.00045942165 0 0.00035664607)
(-0.00045912213 0 0.00035803747)
(-0.00045871883 0 0.00035962198)
(-0.00045817836 0 0.00036140343)
(-0.00045745547 0 0.00036337335)
(-0.00045649255 0 0.00036550454)
(-0.00045521456 0 0.00036774035)
(-0.00045352624 0 0.00036998108)
(-0.0004513189 0 0.00037197771)
(-0.00044845762 0 0.00037335038)
(-0.00044476707 0 0.0003736284)
(-0.0004400468 0 0.00037213729)
(-0.00043408252 0 0.00036789355)
(-0.00042665783 0 0.00035958473)
(-0.00041757664 0 0.00034549817)
(-0.00040669013 0 0.00032357047)
(-0.00039393305 0 0.00029139746)
(-0.00037935083 0 0.00024629318)
(-0.00036310205 0 0.00018623762)
(-0.00034539487 0 0.00010944999)
(-0.00032655695 0 1.5318153e-05)
(-0.00030694626 0 -9.5616036e-05)
(-0.00028693447 0 -0.00022128864)
(-0.00026684731 0 -0.00035848747)
(-0.00024704135 0 -0.00050285169)
(-0.00022773505 0 -0.00064993873)
(-0.00020926766 0 -0.00079472292)
(-0.00019178297 0 -0.00093319947)
(-0.00017562218 0 -0.0010607362)
(-0.00016085777 0 -0.0011746611)
(-0.00014770983 0 -0.0012724972)
(-0.00013606055 0 -0.0013533294)
(-0.00012609119 0 -0.0014159973)
(-0.00011738392 0 -0.0014604597)
(-0.00010975341 0 -0.0014857791)
(-0.00010229882 0 -0.0014869295)
(-9.5476121e-05 0 -0.0014657273)
(-8.849255e-05 0 -0.0014146868)
(-8.1428856e-05 0 -0.0013374989)
(-7.2566258e-05 0 -0.0012125957)
(-5.9869903e-05 0 -0.0010113439)
(-4.2890468e-05 0 -0.00072398828)
(-1.7823239e-05 0 -0.00029600167)
(-0.00045709991 0 0.00040260205)
(-0.0004570617 0 0.00040311496)
(-0.00045700896 0 0.00040371865)
(-0.00045693697 0 0.00040442919)
(-0.00045683948 0 0.00040526189)
(-0.00045670757 0 0.00040623744)
(-0.00045653007 0 0.00040737332)
(-0.00045629122 0 0.00040869085)
(-0.00045597118 0 0.00041020765)
(-0.00045554244 0 0.00041194019)
(-0.00045497034 0 0.00041389606)
(-0.00045420808 0 0.0004160718)
(-0.00045319607 0 0.00041844459)
(-0.00045185717 0 0.00042095827)
(-0.00045009775 0 0.00042351247)
(-0.00044781092 0 0.00042580931)
(-0.0004448505 0 0.00042752232)
(-0.00044104154 0 0.00042816837)
(-0.0004361859 0 0.00042702137)
(-0.00043006989 0 0.00042310029)
(-0.00042248313 0 0.00041505893)
(-0.00041324107 0 0.0004011251)
(-0.00040221269 0 0.00037917497)
(-0.00038935492 0 0.00034677494)
(-0.00037472132 0 0.00030142825)
(-0.00035851835 0 0.00024066682)
(-0.00034095028 0 0.00016297589)
(-0.00032234921 0 6.7843384e-05)
(-0.0003030689 0 -4.417157e-05)
(-0.00028345462 0 -0.00017101004)
(-0.00026380274 0 -0.00030946007)
(-0.00024443439 0 -0.000455248)
(-0.0002255467 0 -0.0006039306)
(-0.00020745443 0 -0.00075058205)
(-0.00019029789 0 -0.00089116698)
(-0.00017440238 0 -0.0010210764)
(-0.00015984837 0 -0.0011375868)
(-0.00014684988 0 -0.0012381746)
(-0.0001353082 0 -0.0013218528)
(-0.00012538547 0 -0.0013873265)
(-0.00011670206 0 -0.0014344626)
(-0.00010906604 0 -0.0014622123)
(-0.00010165721 0 -0.0014659776)
(-9.4831389e-05 0 -0.0014469521)
(-8.7865325e-05 0 -0.0013982315)
(-8.0753791e-05 0 -0.001322206)
(-7.185978e-05 0 -0.0011983876)
(-5.9263547e-05 0 -0.00099972858)
(-4.2322083e-05 0 -0.00071404094)
(-1.7360061e-05 0 -0.00028854947)
(-0.00045386714 0 0.00045300712)
(-0.00045382361 0 0.00045356031)
(-0.00045376432 0 0.00045421231)
(-0.00045368429 0 0.0004549802)
(-0.00045357692 0 0.00045588122)
(-0.00045343293 0 0.00045693674)
(-0.0004532406 0 0.00045816675)
(-0.00045298339 0 0.00045959594)
(-0.00045264077 0 0.0004612431)
(-0.00045218412 0 0.00046312861)
(-0.00045157751 0 0.00046526315)
(-0.00045077249 0 0.00046764829)
(-0.00044970755 0 0.00047026585)
(-0.00044830321 0 0.00047307052)
(-0.00044647152 0 0.00047588728)
(-0.00044409813 0 0.00047848668)
(-0.00044103165 0 0.00048053876)
(-0.00043709713 0 0.00048152072)
(-0.00043209616 0 0.00048071385)
(-0.00042581832 0 0.0004771059)
(-0.0004180602 0 0.00046931287)
(-0.00040865142 0 0.00045548767)
(-0.00039747831 0 0.00043346092)
(-0.00038451877 0 0.00040075448)
(-0.0003698501 0 0.00035498571)
(-0.0003536965 0 0.00029356639)
(-0.00033628197 0 0.00021491175)
(-0.00031793376 0 0.00011876303)
(-0.00029899999 0 5.6807473e-06)
(-0.00027979763 0 -0.00012228185)
(-0.00026059429 0 -0.0002619072)
(-0.0002416758 0 -0.00040901923)
(-0.00022321855 0 -0.00055916396)
(-0.0002055133 0 -0.00070753614)
(-0.00018869702 0 -0.00085006829)
(-0.00017307902 0 -0.00098218885)
(-0.00015874803 0 -0.0011011232)
(-0.00014591142 0 -0.0012043136)
(-0.00013448882 0 -0.0012906953)
(-0.00012462511 0 -0.0013588555)
(-0.00011597534 0 -0.0014085685)
(-0.00010834401 0 -0.0014386842)
(-0.00010098212 0 -0.0014449697)
(-9.4160225e-05 0 -0.0014280774)
(-8.7213594e-05 0 -0.0013815957)
(-8.006234e-05 0 -0.0013067668)
(-7.1143962e-05 0 -0.0011840997)
(-5.8643123e-05 0 -0.00098793027)
(-4.1750875e-05 0 -0.00070404352)
(-1.691676e-05 0 -0.0002813845)
(-0.00045046661 0 0.00050231198)
(-0.00045041729 0 0.00050290565)
(-0.00045035092 0 0.00050360585)
(-0.00045026219 0 0.00050443092)
(-0.0004501442 0 0.00050539962)
(-0.00044998711 0 0.00050653559)
(-0.0004497787 0 0.00050786049)
(-0.00044950179 0 0.00050939995)
(-0.00044913486 0 0.00051117685)
(-0.00044864815 0 0.00051321443)
(-0.00044800436 0 0.00051552648)
(-0.00044715317 0 0.00051811923)
(-0.0004460309 0 0.00052097635)
(-0.00044456006 0 0.00052405524)
(-0.00044265391 0 0.00052713338)
(-0.000440186 0 0.00053003751)
(-0.00043700623 0 0.00053240188)
(-0.00043293725 0 0.00053371642)
(-0.00042778172 0 0.00053323429)
(-0.00042133307 0 0.00052991514)
(-0.00041339621 0 0.00052233871)
(-0.0004038182 0 0.00050855505)
(-0.0003925002 0 0.00048637844)
(-0.00037944506 0 0.00045327291)
(-0.00036475588 0 0.00040688453)
(-0.00034865379 0 0.00034484956)
(-0.00033141207 0 0.00026517807)
(-0.00031333146 0 0.00016799257)
(-0.00029475952 0 5.3850523e-05)
(-0.00027598325 0 -7.5194097e-05)
(-0.00025723949 0 -0.00021592307)
(-0.00023878161 0 -0.00036425949)
(-0.00022077062 0 -0.00051586656)
(-0.00020346217 0 -0.0006658181)
(-0.0001869942 0 -0.00081013819)
(-0.00017166366 0 -0.0009442921)
(-0.00015756507 0 -0.0010654727)
(-0.00014489866 0 -0.0011710201)
(-0.00013360463 0 -0.0012599648)
(-0.0001238116 0 -0.0013306863)
(-0.0001152046 0 -0.0013828725)
(-0.00010758781 0 -0.0014152798)
(-0.00010027435 0 -0.0014239797)
(-9.3463067e-05 0 -0.0014091671)
(-8.6537511e-05 0 -0.0013648324)
(-7.9354334e-05 0 -0.0012912215)
(-7.0417876e-05 0 -0.0011697118)
(-5.8008516e-05 0 -0.00097594948)
(-4.1176776e-05 0 -0.00069400892)
(-1.6491268e-05 0 -0.00027450157)
(-0.0004469032 0 0.00055053898)
(-0.0004468477 0 0.00055117237)
(-0.00044677377 0 0.00055191965)
(-0.00044667577 0 0.0005528007)
(-0.00044654641 0 0.00055383598)
(-0.00044637537 0 0.00055505048)
(-0.00044614981 0 0.0005564684)
(-0.00044585163 0 0.00055811913)
(-0.0004454585 0 0.00056002677)
(-0.00044493942 0 0.00056221786)
(-0.00044425554 0 0.00056471009)
(-0.00044335485 0 0.0005675132)
(-0.00044217141 0 0.0005706192)
(-0.00044063363 0 0.00057391655)
(-0.00043864548 0 0.00057727699)
(-0.00043607853 0 0.00058046358)
(-0.00043277774 0 0.00058314147)
(-0.00042856557 0 0.00058477428)
(-0.00042324494 0 0.00058460985)
(-0.00041661479 0 0.00058156449)
(-0.00040850129 0 0.00057406581)
(-0.00039875203 0 0.00056025298)
(-0.00038728899 0 0.00053787207)
(-0.00037413131 0 0.00050441184)
(-0.00035942889 0 0.00045732982)
(-0.00034340176 0 0.00039449334)
(-0.00032634202 0 0.00031386206)
(-0.00030854517 0 0.00021563538)
(-0.00029035145 0 0.00010044858)
(-0.00027201463 0 -2.9638419e-05)
(-0.00025375121 0 -0.00017152223)
(-0.00023576624 0 -0.00032101908)
(-0.00021820984 0 -0.00047397645)
(-0.00020130439 0 -0.00062537312)
(-0.00018519218 0 -0.00077131576)
(-0.00017015726 0 -0.00090733106)
(-0.00015629988 0 -0.001030586)
(-0.00014381336 0 -0.0011383229)
(-0.00013265552 0 -0.0012296042)
(-0.00012294412 0 -0.001302766)
(-0.00011438911 0 -0.0013573241)
(-0.00010679616 0 -0.0013919505)
(-9.953337e-05 0 -0.0014029717)
(-9.2738832e-05 0 -0.0013901847)
(-8.5836858e-05 0 -0.0013479193)
(-7.8629081e-05 0 -0.0012755436)
(-6.9681464e-05 0 -0.0011552479)
(-5.7361024e-05 0 -0.00096381436)
(-4.0599986e-05 0 -0.00068393372)
(-1.6083136e-05 0 -0.00026786967)
(-0.00044318177 0 0.00059771066)
(-0.00044311957 0 0.00059838444)
(-0.00044303744 0 0.0005991796)
(-0.00044292942 0 0.00060011736)
(-0.00044278781 0 0.00060121959)
(-0.00044260169 0 0.00060251369)
(-0.00044235764 0 0.00060402544)
(-0.00044203677 0 0.00060578549)
(-0.00044161563 0 0.00060782197)
(-0.00044106186 0 0.00061016443)
(-0.00044033503 0 0.00061283324)
(-0.00043938088 0 0.00061584184)
(-0.00043813523 0 0.00061918488)
(-0.00043652733 0 0.00062271875)
(-0.00043445241 0 0.00062633057)
(-0.00043177797 0 0.00062980904)
(-0.00042834897 0 0.00063278156)
(-0.00042398451 0 0.00063472003)
(-0.00041848892 0 0.00063485828)
(-0.00041168276 0 0.00063195692)
(-0.00040339199 0 0.00062445386)
(-0.00039346642 0 0.00061052885)
(-0.00038185692 0 0.00058785744)
(-0.00036860393 0 0.00055397196)
(-0.00035389152 0 0.00050624699)
(-0.00033796307 0 0.00044242478)
(-0.00032109234 0 0.00036088141)
(-0.00030359661 0 0.00026161193)
(-0.00028579676 0 0.00014539153)
(-0.00026792617 0 1.4170784e-05)
(-0.00025015563 0 -0.00012885005)
(-0.00023264941 0 -0.00027943625)
(-0.0002155438 0 -0.00043351115)
(-0.00019904632 0 -0.0005861936)