/*--------------------------------*- C++ -*----------------------------------*\
  =========                 |
  \\      /  F ield         | OpenFOAM: The Open Source CFD Toolbox
   \\    /   O peration     | Website:  https://openfoam.org
    \\  /    A nd           | Version:  8
     \\/     M anipulation  |
\*---------------------------------------------------------------------------*/
FoamFile
{
    version     2.0;
    format      ascii;
    class       volScalarField;
    location    "0.299999";
    object      Ma;
}
// * * * * * * * * * * * * * * * * * * * * * * * * * * * * * * * * * * * * * //

dimensions      [0 0 0 0 0 0 0];

internalField   nonuniform List<scalar> 
20000
(
0.75050974
0.86796769
0.94299303
1.0078256
1.0694946
1.1297924
1.1814337
1.196397
1.1916098
1.1931013
1.1890597
1.1887281
1.1849692
1.1829721
1.1787668
1.1750388
1.1696644
1.1638364
1.1564845
1.1479198
1.1376105
1.1253856
1.110927
1.0938749
1.0739942
1.0509766
1.024764
0.9954594
0.96376435
0.93119338
0.90001662
0.87232315
0.84886156
0.82959665
0.81418035
0.80201802
0.79239974
0.78489707
0.77902842
0.77443232
0.77082367
0.76787054
0.76540836
0.76323051
0.76121516
0.75933605
0.75793099
0.75639936
0.75640161
0.75227502
0.74750422
0.86577096
0.94156587
1.0070842
1.0694317
1.1303752
1.1806204
1.194012
1.1890321
1.1905909
1.1864189
1.1860785
1.1821995
1.1801209
1.1757916
1.1719232
1.1663969
1.1603724
1.1528159
1.1439928
1.1334078
1.1208674
1.1060865
1.0887291
1.0686182
1.045539
1.0195547
0.99091676
0.96033574
0.92906989
0.89898502
0.87181574
0.84864179
0.8295229
0.81415561
0.80202738
0.79244087
0.78495787
0.77911197
0.7745298
0.77092246
0.76795698
0.76547381
0.76327572
0.76124234
0.75935268
0.75780208
0.75642518
0.75551916
0.75247235
0.74499233
0.86421249
0.94072209
1.0069094
1.0699345
1.1316004
1.179944
1.1915722
1.1863822
1.18797
1.1836657
1.1832932
1.1793061
1.1771402
1.172698
1.1686886
1.1630186
1.1567965
1.1490381
1.1399522
1.1290887
1.1162225
1.1011059
1.0834116
1.0630141
1.0397714
1.0138607
0.98565489
0.95591588
0.92577728
0.89679202
0.87048713
0.84785429
0.82906378
0.81386959
0.80185793
0.79234717
0.78490694
0.77910738
0.77456027
0.77096883
0.76799858
0.76549787
0.76328331
0.76122716
0.75933023
0.75778017
0.75639792
0.7552077
0.75249771
0.74237188
0.86247657
0.93968481
1.0065273
1.0702101
1.1326476
1.1788337
1.1888648
1.1835672
1.1852004
1.1807778
1.1803808
1.1762889
1.1740348
1.1694797
1.1653257
1.1595081
1.153081
1.145111
1.1357498
1.1245933
1.1113835
1.0959092
1.0778484
1.0571265
1.0336681
1.0077573
0.97988721
0.95088311
0.92179432
0.89392865
0.86855389
0.84659361
0.828259
0.81337117
0.80156578
0.79218187
0.7848194
0.77906117
0.77454254
0.77096827
0.76800596
0.76550839
0.76329079
0.76120959
0.75930491
0.75773704
0.75636618
0.75474241
0.75255302
0.73988025
0.8608689
0.93876683
1.0062521
1.0705621
1.1338027
1.1774959
1.1860977
1.1806396
1.1823025
1.1777587
1.1773267
1.1731323
1.170784
1.1661172
1.1618112
1.1558411
1.1491983
1.1410068
1.1313581
1.1198955
1.1063279
1.0904775
1.0720274
1.0509506
1.0272366
1.0012717
0.9736589
0.94528767
0.91715898
0.89038678
0.86602674
0.84485826
0.82709573
0.81260396
0.80107613
0.79188931
0.78466096
0.77897585
0.77449897
0.77094566
0.76799636
0.76550727
0.76328232
0.76117529
0.75926738
0.75770184
0.75631226
0.75439597
0.75260286
0.73741179
0.85925921
0.93784037
1.0059695
1.0708801
1.1349313
1.1758272
1.1831856
1.1775694
1.1792622
1.1746062
1.1741371
1.1698432
1.1673938
1.1626117
1.1581427
1.1520112
1.14514
1.136714
1.1267639
1.114979
1.1010357
1.0847875
1.0659243
1.0444669
1.0204716
0.99442509
0.96703417
0.93924787
0.91202851
0.88633313
0.86301479
0.8427148
0.82561292
0.81159967
0.80041509
0.79147
0.78440772
0.77883468
0.77442406
0.77090477
0.76797508
0.76549433
0.76325495
0.7611295
0.75922221
0.75765571
0.75621914
0.7540783
0.75264641
0.73500397
0.85769729
0.93696182
1.0057382
1.0712237
1.1360576
1.1738661
1.1801518
1.1743904
1.1761031
1.1713351
1.1708186
1.1664232
1.1638613
1.1589582
1.1543141
1.1480124
1.1409005
1.1322282
1.1219632
1.1098403
1.0955036
1.0788362
1.0595381
1.0376785
1.0133845
0.98724261
0.96005643
0.93282569
0.90647954
0.88184145
0.85958719
0.8402122
0.82384051
0.81037014
0.79958446
0.7909264
0.78406453
0.77862532
0.77430224
0.77083488
0.76793314
0.76546061
0.76320769
0.76106991
0.75916927
0.75760354
0.75606507
0.75383595
0.75266322
0.73265446
0.85617873
0.93612794
1.0055569
1.071599
1.1371372
1.1716028
1.1769985
1.1710983
1.1728225
1.167944
1.1673701
1.1628707
1.1601849
1.1551551
1.1503247
1.1438444
1.1364803
1.1275493
1.1169556
1.1044771
1.0897272
1.0726179
1.052863
1.0305832
1.0059812
0.97974395
0.95276532
0.92608497
0.90059588
0.8770029
0.85582001
0.83740638
0.82181582
0.80894077
0.79860093
0.79026695
0.78363385
0.77835119
0.77413117
0.77072646
0.76786085
0.76540225
0.76314093
0.7609975
0.75911019
0.75754263
0.75584635
0.75364542
0.75266191
0.73038612
0.85472492
0.93534927
1.0054397
1.072032
1.1381385
1.1690359
1.1737296
1.1676963
1.1694208
1.1644315
1.1637881
1.1591822
1.1563615
1.1512011
1.1461747
1.1395082
1.1318806
1.1226786
1.111742
1.0988891
1.0837056
1.0661316
1.0458998
1.0231856
0.99827391
0.97195234
0.94519754
0.91907676
0.89444134
0.87188545
0.85177762
0.83434835
0.81957487
0.80733454
0.79747837
0.78950074
0.78312179
0.77801429
0.7739117
0.77058103
0.76775916
0.76531909
0.76305489
0.76091221
0.75904573
0.75747444
0.75558457
0.7534895
0.75264282
0.728184
0.85332194
0.93461102
1.0053732
1.0725267
1.1390213
1.1661338
1.170338
1.1641765
1.1658904
1.160792
1.1600689
1.1553563
1.1523924
1.1470988
1.1418672
1.1350063
1.127104
1.1176175
1.1063223
1.0930743
1.0774352
1.0593733
1.0386459
1.0154874
0.99027176
0.96388733
0.93738521
0.91184654
0.88807293
0.86655176
0.84751861
0.83108631
0.81715344
0.80557654
0.79623354
0.78863832
0.7825346
0.77761877
0.77364598
0.77039897
0.76762788
0.7652116
0.76295017
0.76081472
0.75897608
0.75739684
0.75530311
0.75334487
0.75261138
0.72601646
0.85195308
0.93389562
1.0053406
1.0730802
1.1397405
1.1628525
1.1668223
1.1605371
1.1622294
1.157025
1.1562141
1.1513967
1.1482821
1.1428521
1.1374052
1.1303406
1.122152
1.1123665
1.1006953
1.0870299
1.0709127
1.0523405
1.0311013
1.0074934
0.98198753
0.95557155
0.92936105
0.90443669
0.88154101
0.86105606
0.84309558
0.82766506
0.81458598
0.80369134
0.79488311
0.78769085
0.78187952
0.77716895
0.77333655
0.77018202
0.76746814
0.76508054
0.76282746
0.7607059
0.75890038
0.75730345
0.75501517
0.75320465
0.75257009
0.72386821
0.85062674
0.93320558
1.0053384
1.0737052
1.1402446
1.1592275
1.1631788
1.1567782
1.1584406
1.1531365
1.1522313
1.1473107
1.1440359
1.138464
1.1327907
1.1255128
1.1170256
1.1069245
1.0948579
1.080751
1.0641329
1.0450287
1.0232635
0.99920656
0.97343216
0.94702534
0.92115443
0.89688469
0.8748894
0.85544563
0.83855453
0.82412486
0.81190456
0.80170279
0.79344394
0.78666979
0.78116405
0.77666973
0.77298652
0.76993199
0.76728111
0.76492693
0.76268775
0.76058716
0.75881686
0.75718127
0.75473303
0.7530671
0.75252121
0.72175827
0.84934885
0.9325603
1.0053799
1.0744318
1.1404839
1.1556914
1.1594153
1.1529122
1.1545371
1.1491382
1.1481289
1.1431027
1.1396554
1.133935
1.1280245
1.1205233
1.1117241
1.1012883
1.0888049
1.074232
1.0570905
1.0374339
1.0151321
0.99063252
0.9646201
0.93827227
0.91279666
0.8892276
0.86815931
0.8497636
0.83393743
0.82050294
0.80913943
0.79963383
0.79193263
0.78558674
0.78039606
0.77612627
0.77259926
0.76965111
0.76706834
0.76475189
0.76253226
0.76046039
0.75872359
0.75701295
0.75446931
0.75293576
0.75246688
0.71970117
0.84812326
0.93196908
1.005472
1.0752804
1.1404245
1.1519525
1.1555546
1.1489544
1.1505292
1.1450343
1.1439069
1.1387709
1.1351395
1.1292653
1.1231081
1.1153722
1.1062447
1.0954524
1.0825298
1.067466
1.0497789
1.0295509
1.006705
0.98177594
0.95556483
0.92933459
0.90431666
0.88149874
0.86138696
0.84404738
0.82928067
0.81683204
0.80631785
0.79750572
0.79036497
0.78445302
0.77958339
0.77554392
0.77217842
0.7693418
0.76683153
0.76455669
0.76236249
0.76032792
0.75861954
0.75678657
0.75423292
0.75281089
0.75240903
0.71773655
0.84697748
0.93145921
1.0056387
1.0762695
1.1400396
1.1480775
1.1515953
1.1449001
1.1464092
1.1408179
1.13956
1.1343132
1.1304891
1.1244569
1.1180422
1.1100565
1.1005821
1.0894096
1.0760253
1.0604462
1.042192
1.0213752
0.9979823
0.97264484
0.94628377
0.92023784
0.89574537
0.87373191
0.85460716
0.83833168
0.82461754
0.81314216
0.80346498
0.79533837
0.78875607
0.78327972
0.77873389
0.77492811
0.7717278
0.76900671
0.76657254
0.76434271
0.76218016
0.76019208
0.75850522
0.75651159
0.75401714
0.75269187
0.75234911
0.7158119
0.84586762
0.93100173
1.00585
1.0773356
1.1392687
1.1440212
1.1475226
1.1407377
1.1421696
1.1364857
1.1350889
1.1297331
1.1257081
1.1195114
1.1128244
1.1045703
1.0947282
1.0831519
1.0692838
1.053165
1.034322
1.0129008
0.98896295
0.9632469
0.93679401
0.91100668
0.88711181
0.8659579
0.84785074
0.83264669
0.81997674
0.8094593
0.800603
0.7931497
0.78711987
0.78207727
0.77785513
0.77428421
0.77125126
0.76864858
0.7662933
0.76411147
0.76198715
0.76005487
0.75838178
0.75620781
0.75380819
0.75257698
0.75228809
0.71390845
0.84479082
0.93060052
1.0061107
1.078459
1.1379634
1.1398472
1.1433353
1.1364686
1.1378151
1.1320444
1.1305011
1.1250361
1.1207987
1.1144256
1.107448
1.0989045
1.0886746
1.0766715
1.0622977
1.0456147
1.0261617
1.0041231
0.97964907
0.95359372
0.92711701
0.9016693
0.87844715
0.85820795
0.84114776
0.82702068
0.81538453
0.80580707
0.797752
0.7909561
0.78546933
0.78085559
0.77695445
0.77361751
0.77075267
0.76827024
0.76599581
0.76386463
0.76178554
0.75991726
0.75824831
0.75588456
0.75360227
0.75246431
0.75222667
0.71204628
0.84377206
0.93028552
1.006453
1.0796286
1.1362289
1.1356244
1.1390428
1.1321037
1.1333568
1.1275035
1.1258025
1.120223
1.115756
1.1091905
1.1019028
1.0930498
1.0824138
1.0699611
1.055059
1.0377861
1.0177022
0.99503647
0.97004255
0.94369727
0.91727421
0.89225313
0.86978076
0.85051065
0.83452494
0.82147824
0.81086339
0.8022056
0.79492923
0.7887719
0.7838161
0.77962379
0.77603871
0.77293309
0.77023581
0.76787448
0.76568208
0.76360411
0.7615777
0.75977854
0.75809862
0.75555002
0.75339923
0.75235462
0.75216565
0.71020467
0.84280387
0.930057
1.0068951
1.0807971
1.1340456
1.1312819
1.1346658
1.1276555
1.1288018
1.1228644
1.1209888
1.1152843
1.1105682
1.103794
1.0961791
1.0869988
1.0759392
1.0630135
1.047559
1.0296698
1.0089351
0.98563756
0.96014904
0.93357435
0.90729137
0.88278863
0.86114362
0.84289505
0.82800824
0.81604235
0.80643365
0.79867282
0.79215001
0.78660993
0.78217081
0.77839036
0.77511439
0.7722358
0.76970437
0.76746406
0.7653541
0.7633321
0.76136628
0.75963604
0.75791851
0.7552138
0.75320258
0.75224914
0.75210597
0.70842024
0.84191665
0.92994723
1.0074854
1.0819251
1.131415
1.1268556
1.1302036
1.1231206
1.1241419
1.1181151
1.1160453
1.1102053
1.1052223
1.0982267
1.0902709
1.0807464
1.0692449
1.0558204
1.0397871
1.0212547
0.99985064
0.9759228
0.94997469
0.9232427
0.89719435
0.87330549
0.85256506
0.83538781
0.82162065
0.81073272
0.8021124
0.7952236
0.78942713
0.78448111
0.78054272
0.77716289
0.77418737
0.77153014
0.76916181
0.76704156
0.76501383
0.76305106
0.76115423
0.75948576
0.75768775
0.75488835
0.75301722
0.75215042
0.75204868
0.70667888
0.84108512
0.92994603
1.0082309
1.0829224
1.1282751
1.1223214
1.1256382
1.1184816
1.1193597
1.113238
1.110956
1.1049735
1.099711
1.0924842
1.0841756
1.0742881
1.0623237
1.0483714
1.0317317
1.0125293
0.99044068
0.9658917
0.93953074
0.91272505
0.88701364
0.86383645
0.8440762
0.82801587
0.81538426
0.80556735
0.79791488
0.79187082
0.78677171
0.78239503
0.77894001
0.77594831
0.77326307
0.77082035
0.76861142
0.76660944
0.76466319
0.76276369
0.76094443
0.75932393
0.75738926
0.75458393
0.75284717
0.7520616
0.75199562
0.70496943
0.8402852
0.93002398
1.0091446
1.083712
1.124603
1.1176762
1.1209526
1.1137188
1.1144373
1.1082197
1.1057126
1.0995855
1.0940342
1.0865662
1.0778905
1.0676175
1.0551655
1.0406544
1.0233794
1.003481
0.98069657
0.95554445
0.9288298
0.90204527
0.87677992
0.85441369
0.83570675
0.8208037
0.80931788
0.80056075
0.79385341
0.78862472
0.78419277
0.78035967
0.77736953
0.77475257
0.7723463
0.77011024
0.76805622
0.76616993
0.76430415
0.76247279
0.76073904
0.75914799
0.7570232
0.75430082
0.75269319
0.75198448
0.7519528
0.70328079
0.839501
0.93015329
1.0102382
1.0842058
1.1204013
1.1128992
1.1161291
1.1088186
1.109367
1.1030592
1.1003186
1.0940455
1.0881944
1.0804712
1.0714104
1.0607249
1.0477579
1.0326554
1.0147162
0.99409777
0.97061195
0.94488588
0.91789017
0.89123288
0.86652843
0.84507262
0.82748761
0.81377515
0.8034386
0.79572527
0.78993849
0.78549405
0.78169801
0.7783818
0.77583722
0.77358079
0.7714414
0.76940333
0.76749895
0.76572513
0.7639388
0.76218121
0.76053849
0.75895496
0.75660867
0.75403017
0.75255366
0.75192129
0.75193086
0.70156692
0.83870503
0.93030785
1.011521
1.0843081
1.115983
1.1079846
1.1111708
1.1037877
1.1041597
1.0977675
1.0947822
1.0883574
1.0821909
1.0741936
1.0647253
1.0535975
1.0400863
1.0243595
1.0057272
0.9843668
0.96018107
0.93392221
0.90673219
0.88031878
0.85629499
0.83584801
0.81944703
0.80695012
0.79775966
0.79107013
0.78617786
0.78248587
0.77929328
0.77646652
0.77434807
0.77243704
0.77055217
0.76870268
0.76694206
0.76527693
0.76356945
0.76189182
0.76034052
0.75873664
0.75616619
0.75376895
0.75242997
0.75187249
0.75193122
0.69988211
0.83793473
0.93051527
1.0130508
1.0840041
1.1116746
1.1029485
1.1061006
1.0986472
1.0988303
1.0923521
1.0891052
1.0825175
1.0760166
1.0677221
1.0578222
1.0462202
1.0321353
1.015751
0.99639739
0.97427696
0.94940167
0.92266581
0.89538262
0.86933995
0.84611973
0.82677609
0.81161138
0.80034527
0.79229236
0.78660409
0.78257769
0.77960654
0.77698298
0.77461741
0.77290669
0.77132487
0.76968194
0.76801106
0.76638772
0.76482713
0.7631987
0.76160738
0.76013956
0.75847534
0.75571375
0.75352231
0.75232722
0.75184078
0.7519422
0.69821377
0.83718081
0.93075055
1.0148164
1.0832055
1.1069257
1.0978205
1.1009274
1.0934007
1.093378
1.0868077
1.0832801
1.0765157
1.0696595
1.0610428
1.050686
1.0385774
1.0238887
1.0068138
0.98671083
0.9638169
0.93827295
0.9111314
0.88387069
0.8583348
0.83604212
0.81788847
0.80399959
0.79397141
0.78704524
0.78233618
0.77914232
0.77686083
0.77476925
0.77283632
0.77151698
0.77024773
0.76883335
0.76733077
0.76583783
0.76437748
0.76282939
0.76133021
0.75992699
0.75814476
0.75527267
0.75329685
0.75224618
0.7518285
0.75195787
0.69660425
0.83648117
0.93102953
1.0168249
1.0818674
1.1020336
1.0925917
1.0956408
1.0880339
1.0877893
1.0811242
1.0772956
1.0703391
1.0631055
1.0541401
1.0433013
1.0306532
1.0153301
0.99753089
0.97665207
0.95297778
0.92679967
0.89934101
0.87223313
0.84734724
0.82610297
0.80921159
0.79662409
0.78783729
0.78202773
0.77827784
0.77587637
0.77425106
0.77265218
0.77112479
0.77018172
0.7692097
0.76800838
0.76666377
0.7652941
0.76392982
0.76246444
0.76106126
0.75969237
0.75771977
0.75486393
0.75309979
0.75218285
0.75183113
0.75197486
0.6950258
0.83581958
0.93132586
1.0190189
1.0799282
1.0968743
1.0872443
1.0902292
1.0825387
1.0820565
1.0752903
1.071139
1.0639726
1.0563398
1.0469991
1.0356531
1.0224316
1.0064421
0.98788415
0.96620496
0.9417515
0.91498957
0.88731994
0.86050956
0.83642095
0.8163371
0.80076042
0.78949132
0.78195355
0.7772514
0.774439
0.77278519
0.77177432
0.77063007
0.76948562
0.76890127
0.76821483
0.76720831
0.76601155
0.76475803
0.76348621
0.76210665
0.76079889
0.75942489
0.75719553
0.75449645
0.75293817
0.75214657
0.75184517
0.75199873
0.69343899
0.83519029
0.93164681
1.0213386
1.0773516
1.0916907
1.0817846
1.0846925
1.0769128
1.0761682
1.0692908
1.0647947
1.0574014
1.0493487
1.0396054
1.0277263
1.0138956
0.99720577
0.97785467
0.95535426
0.9301347
0.90285756
0.87510234
0.84874639
0.8256017
0.80677278
0.79254296
0.78261445
0.77634172
0.77273243
0.77082145
0.76987461
0.76942219
0.76870217
0.76792442
0.76767373
0.7672648
0.76643429
0.76537527
0.76423094
0.76304897
0.76175847
0.76053779
0.75911244
0.75660585
0.75415882
0.75280643
0.75214021
0.75187764
0.75204189
0.6918758
0.83461692
0.93204716
1.0237414
1.0741174
1.0863068
1.0762078
1.0790174
1.0711374
1.0701064
1.0631098
1.0582494
1.0506134
1.0421206
1.0319452
1.0195046
1.0050267
0.9876004
0.9674222
0.94408499
0.91812678
0.89042301
0.86272658
0.83699103
0.81492912
0.7974257
0.7845688
0.7760253
0.7710296
0.76848281
0.7674156
0.76714495
0.76718424
0.76687186
0.76644681
0.76649762
0.76635517
0.76568792
0.76475569
0.76371394
0.76262064
0.761422
0.76026921
0.75873691
0.75600395
0.75384117
0.75268966
0.75214762
0.75193558
0.75210617
0.69030111
0.83408339
0.93252717
1.0260878
1.0701496
1.0807691
1.0704852
1.0731749
1.065188
1.0638608
1.0567384
1.0514951
1.0435979
1.0346433
1.0240024
1.0109696
0.99580385
0.9776035
0.95656589
0.93238551
0.90573385
0.87771482
0.85023949
0.82529408
0.80443667
0.78830561
0.77687162
0.76976813
0.7660395
0.76449941
0.764207
0.76458647
0.76505901
0.76514612
0.76505301
0.76537758
0.76547496
0.76497171
0.76415334
0.76320801
0.76220373
0.76109868
0.75998316
0.75827332
0.75543958
0.75355608
0.75258776
0.75216243
0.75200923
0.75219465
0.68864695
0.83355169
0.93310364
1.028243
1.0654655
1.0750359
1.0645967
1.0671537
1.0590615
1.0574257
1.0501712
1.0445245
1.036343
1.0269021
1.0157591
1.0021004
0.98620386
0.96719048
0.94526473
0.92024626
0.89296717
0.86476724
0.83769045
0.81370102
0.7941454
0.77942761
0.76950789
0.76387845
0.76137296
0.76075339
0.76118848
0.76217943
0.76306039
0.76352254
0.76373793
0.76432486
0.7646149
0.7642877
0.76356848
0.76271411
0.76180061
0.76078838
0.7596715
0.75770818
0.75495483
0.75332388
0.75251367
0.75218088
0.75207822
0.7523212
0.68686944
0.83301837
0.93380678
1.0300734
1.0606016
1.0691268
1.0585501
1.0609603
1.052764
1.0507989
1.0434011
1.0373256
1.0288324
1.0188794
1.0071945
0.99287304
0.97620092
0.9563355
0.93349937
0.90766403
0.87984781
0.85162498
0.82513409
0.80225309
0.78407094
0.77083987
0.76253329
0.75837602
0.7569961
0.75722344
0.75836398
0.75991266
0.76119606
0.76199281
0.76250023
0.76334028
0.76377795
0.76363449
0.76300139
0.76223362
0.76141338
0.76048783
0.7593279
0.75707386
0.75455563
0.75315293
0.75247798
0.75220541
0.75212176
0.75249961
0.68501818
0.83252036
0.93468211
1.0315218
1.055385
1.063071
1.0523567
1.0545966
1.0462902
1.0439684
1.0364133
1.0298818
1.0210471
1.0105552
0.99828542
0.98326087
0.96576689
0.94501183
0.92125246
0.89464057
0.86640405
0.83833737
0.8126224
0.79098042
0.77423286
0.76261721
0.75598801
0.75323914
0.7528694
0.75392038
0.75573046
0.75778846
0.75945672
0.760555
0.76133845
0.76241254
0.76297797
0.76300532
0.76245252
0.76176843
0.76104379
0.76018957
0.75894185
0.75643539
0.7542193
0.75302983
0.7524695
0.7522383
0.75216639
0.75270521
0.68315073
0.83207308
0.9357508
1.0324983
1.049756
1.0568628
1.0460019
1.0480446
1.0396219
1.0369151
1.0291876
1.0221759
1.0129669
1.0019073
0.98900526
0.97323383
0.95487158
0.93319351
0.90851141
0.88118776
0.85267569
0.82496211
0.80020573
0.77990764
0.76468466
0.75482855
0.74989099
0.74840996
0.74899644
0.75084705
0.7532809
0.75580509
0.75783608
0.75920476
0.76024561
0.76153667
0.76222888
0.76239222
0.76192299
0.76132069
0.76069253
0.75988309
0.75849388
0.75584191
0.7539316
0.75293402
0.75247485
0.75228357
0.7522219
0.75288857
0.68128003
0.8316579
0.93698043
1.0328806
1.0437839
1.0504812
1.0394662
1.0412818
1.0327405
1.0296214
1.0217042
1.0141915
1.0045704
0.99290905
0.97932326
0.96275891
0.94348356
0.9208556
0.89526839
0.86732487
0.8387095
0.81155652
0.78792555
0.76905841
0.75551165
0.74752208
0.74420642
0.74385726
0.74539209
0.74799582
0.75100828
0.75396022
0.7563259
0.75793818
0.75921673
0.76071056
0.76153135
0.76179348
0.76141469
0.76089209
0.76035828
0.7595583
0.75796576
0.75532665
0.7536873
0.75285456
0.75248818
0.75234251
0.75229512
0.75304787
0.6794428
0.83131819
0.93833292
1.032322
1.0374584
1.0439103
1.0327354
1.0342892
1.025631
1.0220734
1.013947
1.0059091
0.995831
0.98352851
0.96920471
0.95180095
0.93157141
0.90797674
0.88152437
0.85308371
0.82456267
0.79817921
0.77581838
0.75848335
0.74680024
0.7407218
0.73886252
0.73960152
0.74205187
0.7453593
0.74890527
0.75225002
0.75491865
0.75675128
0.75825072
0.75993601
0.76087447
0.76121149
0.7609299
0.76048319
0.76003702
0.75920969
0.75736591
0.75489907
0.75349082
0.75279868
0.75251046
0.75240797
0.75239531
0.75317913
0.67769455
0.83112271
0.93977317
1.0308522
1.030867
1.0371272
1.0257934
1.0270541
1.0182829
1.0142581
1.0058977
0.9973018
0.98671529
0.9737284
0.95861255
0.94032439
0.91910447
0.8945398
0.86728805
0.8385051
0.81029526
0.78488194
0.76391444
0.74827095
0.73861406
0.73439286
0.73382982
0.73565475
0.73896783
0.74292805
0.74696404
0.75066834
0.75360769
0.75564054
0.75734774
0.75921156
0.76025148
0.76064671
0.76046974
0.76009326
0.75972205
0.75883535
0.75674164
0.75454281
0.75334338
0.75277405
0.75254123
0.75246825
0.75252689
0.75328999
0.67606697
0.83112215
0.9411847
1.0285025
1.0239786
1.0301267
1.018638
1.0195709
1.0106845
1.0061564
0.99752489
0.98833327
0.97718349
0.96346923
0.94750934
0.92829342
0.90605466
0.88053483
0.85258145
0.82364271
0.79597256
0.77171318
0.75225821
0.73852881
0.73098913
0.72845781
0.72913278
0.73201153
0.73613017
0.74069259
0.74517657
0.74920773
0.7523877
0.75460275
0.75650695
0.75853306
0.75965915
0.76010211
0.76003157
0.75972076
0.75940608
0.7584285
0.75614336
0.75424126
0.75323488
0.75276993
0.7525769
0.75252241
0.75269539
0.75338558
0.67453962
0.83134057
0.94240152
1.0252552
1.0168192
1.0229143
1.0112674
1.0118234
1.0028081
0.99773173
0.98878576
0.97896198
0.96719487
0.95271191
0.93585765
0.91567265
0.89239625
0.86595952
0.83743673
0.80855705
0.78165561
0.75871415
0.74093395
0.72934164
0.72390501
0.7228765
0.7247863
0.72866202
0.73352764
0.73864253
0.74353427
0.74786061
0.75125319
0.7536346
0.75572516
0.75789496
0.7590966
0.7595847
0.75960877
0.75936415
0.75909102
0.75797026
0.75560696
0.75398895
0.75315258
0.75277596
0.75262182
0.75257365
0.75285479
0.75346798
0.67313482
0.83179638
0.9434942
1.0210306
1.009405
1.015462
1.0036492
1.0037697
0.99460714
0.98893664
0.97963704
0.96914855
0.95671117
0.94141769
0.92361919
0.90242689
0.87810866
0.85082346
0.82190096
0.79331741
0.76740531
0.74593089
0.73006343
0.72076313
0.7172869
0.71766675
0.72078719
0.72559454
0.73114847
0.73676755
0.74202859
0.74661951
0.75019904
0.75273252
0.75499712
0.75729157
0.75856267
0.75910198
0.75919739
0.75902288
0.75874419
0.75744434
0.75515919
0.75378153
0.75308873
0.75278653
0.75266838
0.75262878
0.75300485
0.75353848
0.67190109
0.83262771
0.94424378
1.015708
1.0016898
1.0077092
0.99572628
0.99535518
0.9860319
0.97972939
0.97004186
0.95885851
0.9456949
0.92954621
0.91075415
0.88852184
0.86317738
0.83514757
0.80603061
0.77799287
0.75327676
0.73343625
0.71975608
0.71280094
0.71107341
0.71285081
0.71712397
0.72279563
0.72897999
0.73505683
0.74065065
0.745477
0.74922009
0.75189238
0.75431647
0.7567192
0.75805708
0.75865447
0.7588019
0.75869296
0.75840452
0.75687601
0.75479278
0.75361437
0.7530425
0.75280378
0.75271885
0.75269249
0.75313646
0.75359919
0.6706979
0.83379942
0.94446428
1.0091917
0.99363683
0.99958805
0.9874474
0.98653673
0.9770499
0.97008291
0.9599674
0.94805617
0.93410578
0.91705359
0.89722081
0.87392607
0.84759879
0.8189687
0.78989498
0.76265384
0.73932596
0.72135292
0.71009364
0.70539492
0.70526618
0.70843123
0.71378334
0.72025121
0.72700956
0.7334998
0.73939179
0.74442599
0.74831139
0.75110967
0.75367711
0.75617664
0.75758061
0.75823788
0.758432
0.7583706
0.75803776
0.75631532
0.754481
0.75348481
0.75301688
0.75282788
0.75276727
0.75277792
0.75325165
0.75365142
0.6694153
0.83530335
0.94393476
1.0017897
0.98518793
0.99105836
0.97878706
0.9773047
0.96764662
0.95997637
0.94937545
0.93669826
0.9218984
0.90389227
0.88297641
0.85861282
0.83138073
0.8023366
0.77356755
0.74736646
0.72561622
0.70982181
0.70111529
0.69845847
0.69989876
0.7043951
0.71074957
0.71794607
0.7252241
0.7320857
0.7382433
0.74345952
0.74746794
0.75037953
0.75307423
0.75566392
0.75713299
0.75784867
0.75808881
0.75805073
0.75765242
0.75578792
0.75421846
0.75338868
0.75300888
0.75285448
0.75281149
0.75288407
0.75335304
0.75369608
0.6679193
0.83715227
0.94246366
0.99472437
0.97638859
0.98214079
0.96976318
0.96765005
0.95779101
0.94937598
0.93821949
0.92473416
0.90902202
0.89001194
0.86797883
0.84256436
0.81454772
0.78531752
0.75712794
0.73220063
0.71226269
0.69895819
0.69278801
0.69196889
0.69498264
0.70072771
0.70800615
0.71586508
0.7236108
0.73080415
0.73719685
0.74257103
0.74668485
0.74969728
0.75250495
0.75518273
0.75671555
0.75748408
0.75776203
0.75772771
0.75721829
0.75532012
0.75400097
0.75331671
0.75301058
0.75288761
0.75285502
0.75300516
0.75344193
0.75373426
0.66629277
0.83947233
0.94000794
0.98676208
0.96729939
0.97283445
0.96034745
0.9575264
0.94742462
0.93822799
0.92644757
0.91210897
0.89542327
0.87536006
0.8521888
0.82577414
0.79713981
0.7679874
0.74065474
0.71722919
0.69942242
0.68882968
0.68501826
0.68596388
0.69050364
0.69741091
0.70553505
0.7139925
0.72215667
0.72964473
0.73624411
0.74175403
0.74595716
0.74905863
0.75196873
0.75473573
0.75632956
0.75714057
0.75743851
0.7573936
0.75675206
0.75493161
0.75382387
0.75326141
0.75301661
0.75292175
0.7528953
0.7531236
0.75351895
0.75376684
0.6644368
0.84218451
0.93641928
0.97803538
0.95786386
0.96304988
0.9504665
0.94686674
0.93648922
0.9264741
0.91400293
0.89876565
0.88104359
0.85988157
0.83557318
0.80825192
0.77921636
0.75043261
0.72423218
0.70255604
0.68724487
0.67944278
0.67775577
0.68046385
0.68644637
0.69442556
0.70331823
0.71231293
0.72084924
0.72859755
0.73537724
0.7410024
0.74528012
0.74846026
0.75146719
0.75432438
0.75597237
0.75681119
0.75711137
0.75704933
0.7562573
0.75461462
0.75367896
0.75321845
0.75302611
0.75295826
0.75293907
0.7532353
0.75358514
0.75379448
0.66236378
0.84510403
0.9315984
0.96874789
0.94799618
0.95272511
0.94005578
0.93562004
0.92493369
0.9140623
0.90082799
0.88464043
0.86581914
0.84352217
0.81810988
0.79002557
0.76085159
0.73274121
0.70794573
0.68833647
0.67584008
0.67072065
0.67102092
0.67546307
0.68279006
0.69175064
0.70133694
0.71081083
0.71967613
0.72765283
0.73458854
0.74031016
0.7446492
0.74789978
0.75100269
0.75394691
0.75563782
0.75649001
0.75677922
0.75670275
0.75577831
0.7543421
0.75356026
0.75318687
0.75303809
0.75299434
0.75298959
0.75333721
0.75364175
0.75381776
0.6600055
0.8479822
0.92553634
0.95884446
0.93765003
0.94181279
0.92907047
0.92374202
0.91270385
0.90093845
0.88685515
0.86965846
0.8496799
0.82623237
0.79979342
0.7711464
0.74213567
0.71500952
0.69189677
0.67475663
0.66525973
0.66258308
0.66484845
0.67094458
0.67951299
0.68936498
0.69957294
0.70947141
0.71862564
0.7268014
0.73387079
0.73967172
0.74406037
0.74737562
0.75057647
0.75359843
0.75531839
0.75617342
0.75644724
0.75635629
0.75533375
0.75410924
0.75346604
0.7531676
0.75305077
0.75302629
0.75305372
0.75342767
0.75368983
0.75383718
0.65737626
0.85055116
0.91837863
0.94827459
0.92680689
0.9302734
0.91746771
0.91118687
0.899729
0.88702715
0.87200218
0.85373482
0.83255525
0.80797432
0.78063964
0.75168548
0.72316694
0.69733955
0.67623845
0.6619674
0.6554613
0.65502082
0.65924483
0.66688563
0.67659059
0.68724632
0.69800768
0.70827989
0.71768624
0.72603426
0.73321694
0.73908167
0.74351002
0.74688655
0.75018754
0.75327298
0.75500889
0.75586143
0.75612011
0.75600625
0.75493103
0.75391379
0.75339426
0.75315997
0.75306942
0.75305615
0.75313984
0.75350596
0.75373019
0.75385331
0.65450889
0.85281003
0.91014636
0.93701641
0.91541683
0.91805047
0.90518475
0.89788894
0.88591949
0.87223151
0.8561734
0.83677948
0.81438101
0.78872895
0.76069133
0.73173662
0.70405605
0.67984989
0.66117998
0.650066
0.64633975
0.64808387
0.65419181
0.66326122
0.67399787
0.68537294
0.69662345
0.70722233
0.71684711
0.725343
0.73262039
0.73853508
0.74299505
0.74643144
0.74983346
0.7529658
0.75470698
0.75555386
0.75579565
0.75564433
0.75458153
0.75375327
0.75333976
0.75315818
0.75308952
0.75308532
0.75322546
0.75357262
0.75376384
0.7538666
0.65099572
0.85477736
0.90091387
0.92502619
0.90341374
0.90507382
0.89214058
0.88375649
0.87116748
0.85643904
0.83926583
0.81870654
0.7951072
0.76850204
0.74001638
0.71140843
0.68492332
0.6626914
0.64691552
0.6390502
0.63785767
0.64179168
0.64966499
0.66004275
0.67170849
0.68372278
0.69540268
0.70628508
0.71609774
0.72471943
0.73207479
0.73802721
0.74251251
0.74600886
0.74951172
0.75267357
0.75441043
0.75524699
0.75546985
0.75526658
0.75429285
0.75362305
0.75329748
0.75316035
0.75311218
0.75311734
0.75331395
0.7536292
0.7537919
0.7538771
0.64665474
0.85624249
0.89067706
0.91223913
0.8907218
0.89125477
0.87822015
0.86866798
0.85534757
0.8395315
0.82117881
0.79943969
0.77470429
0.74732793
0.71870929
0.69082451
0.66590679
0.64608089
0.63358782
0.62882566
0.63006849
0.63612795
0.64563607
0.65720097
0.66969671
0.68227483
0.69432884
0.70545542
0.71542838
0.72415598
0.73157424
0.7375537
0.7420595
0.74561697
0.74922047
0.75239308
0.75411641
0.75493759
0.75514299
0.75489055
0.75405609
0.75351664
0.75326499
0.7531651
0.75313681
0.75315176
0.7533974
0.75367813
0.75381569
0.75388521
0.64128303
0.85686068
0.87940992
0.89855802
0.877227
0.87646845
0.86327422
0.85248568
0.83832528
0.8213925
0.80182198
0.77892076
0.75316877
0.72527054
0.69688556
0.67012043
0.64716525
0.63025939
0.62123806
0.61933531
0.62300195
0.63106736
0.64207244
0.65470489
0.66793644
0.68100824
0.69338578
0.70472104
0.71482957
0.72364532
0.73111307
0.73711033
0.74163318
0.74525397
0.74895728
0.75212033
0.75382209
0.7546248
0.75481942
0.75454123
0.75385413
0.75342975
0.75324205
0.75317273
0.75316095
0.75319257
0.75347297
0.75372052
0.75383652
0.7538922
0.63478467
0.85649932
0.86688333
0.88382595
0.86277015
0.86055884
0.84713308
0.83508174
0.81998188
0.80191785
0.78111784
0.75710948
0.73052516
0.70242456
0.67468268
0.64945707
0.62892989
0.61541916
0.60980318
0.61061098
0.61665409
0.62657773
0.63893985
0.65252386
0.66640258
0.67990331
0.69255843
0.70407047
0.71429254
0.72318062
0.73068593
0.73669328
0.74123179
0.74492005
0.74871648
0.75185041
0.75352555
0.75431022
0.75450314
0.75422546
0.75368317
0.75336006
0.75322676
0.75318234
0.75317928
0.75324656
0.75353923
0.7537566
0.7538548
0.75389881
0.62727866
0.85508012
0.85296095
0.8678661
0.84716969
0.84337345