/*--------------------------------*- C++ -*----------------------------------*\
  =========                 |
  \\      /  F ield         | OpenFOAM: The Open Source CFD Toolbox
   \\    /   O peration     | Website:  https://openfoam.org
    \\  /    A nd           | Version:  8
     \\/     M anipulation  |
\*---------------------------------------------------------------------------*/
FoamFile
{
    version     2.0;
    format      ascii;
    class       surfaceScalarField;
    location    "0.299999";
    object      meshPhi;
}
// * * * * * * * * * * * * * * * * * * * * * * * * * * * * * * * * * * * * * //

dimensions      [0 3 -1 0 0 0 0];

internalField   nonuniform List<scalar> 
39600
(
7.1439523e-05
4.6009806e-06
-4.7047328e-06
7.1556472e-05
5.5062569e-06
-5.6118356e-06
7.1701321e-05
6.5967421e-06
-6.7231288e-06
7.1877341e-05
7.9029453e-06
-8.054377e-06
7.2090402e-05
9.4673863e-06
-9.6489636e-06
7.2348371e-05
1.1341209e-05
-1.1558838e-05
7.2654877e-05
1.3585265e-05
-1.3846044e-05
7.3022686e-05
1.627212e-05
-1.6584648e-05
7.345825e-05
1.9488498e-05
-1.9862968e-05
7.3984154e-05
2.3337617e-05
-2.3786097e-05
7.4621827e-05
2.7941724e-05
-2.8478793e-05
7.5400261e-05
3.3445534e-05
-3.4088648e-05
7.6347146e-05
4.0018702e-05
-4.078916e-05
7.7501689e-05
4.7859264e-05
-4.8782673e-05
7.8937022e-05
5.7194966e-05
-5.8302995e-05
8.071916e-05
6.8284247e-05
-6.9615641e-05
8.2739665e-05
8.141675e-05
-8.3017054e-05
8.4925669e-05
9.691259e-05
-9.8840657e-05
8.7534191e-05
0.00011511037
-0.00011744238
9.0991108e-05
0.00013635669
-0.00013919198
9.5852142e-05
0.00016101576
-0.00016447827
0.0001028072
0.00018932936
-0.00019356879
0.00011224161
0.00022154653
-0.0002267744
0.00012577566
0.00025752764
-0.00026400255
0.00014310538
0.00029728401
-0.00030536478
0.00016772381
0.00034096274
-0.0003511544
0.00020027192
0.00038840793
-0.00040155486
0.00025022853
0.00043800722
-0.00045538181
0.00030602743
0.00049245821
-0.00051529786
0.00036885234
0.00055445848
-0.00058342934
0.0004438383
0.0006163788
-0.00065297655
0.00052963194
0.00067312208
-0.00071944934
0.00063182529
0.00072295443
-0.00078107384
0.00073912339
0.00077863149
-0.00085094713
0.00086526057
0.00084368903
-0.0009325734
0.00097924509
0.0009201808
-0.0010275374
0.0011098168
0.001011245
-0.0011386196
0.0012576452
0.0011037472
-0.0012531012
0.0014173027
0.0011888282
-0.0013611762
0.0015839752
0.0012937707
-0.0014912263
0.0017561645
0.0014504858
-0.0016737003
0.0018614396
0.0016493107
-0.0018924828
0.0019183621
0.0019023078
-0.0021541568
0.0019669873
0.0021686929
-0.0024172208
0.0018814762
0.0024146169
-0.0026457942
0.0018832411
0.0026767984
-0.0029015772
0.0014335184
0.0028631352
-0.0030502301
0.00048875383
0.0027481493
-0.0028141763
-0.00063187732
0.0022760073
-0.0022352942
0.0010297437
-0.0010031116
5.7383229e-05
4.5307677e-06
5.7483663e-05
5.4221764e-06
5.760991e-05
6.4959297e-06
5.7763542e-05
7.782141e-06
5.7950496e-05
9.3228879e-06
5.8177825e-05
1.1168093e-05
5.8451953e-05
1.3378041e-05
5.8784406e-05
1.6023988e-05
5.9182492e-05
1.9191544e-05
5.9664075e-05
2.2982029e-05
6.0243372e-05
2.7515925e-05
6.0940966e-05
3.2935136e-05
6.1785586e-05
3.9406507e-05
6.2816854e-05
4.7123964e-05
6.4131543e-05
5.6309085e-05
6.5761463e-05
6.7216575e-05
6.7586364e-05
8.0133422e-05
6.9544766e-05
9.536827e-05
7.1856036e-05
0.00011324091
7.4973455e-05
0.00013407776
7.9441143e-05
0.00015821167
8.5899647e-05
0.00018587712
9.4784293e-05
0.00021726231
0.00010751518
0.00025218932
0.00012391284
0.00029061415
0.00014696007
0.00033250026
0.00017851175
0.00037725416
0.00022614176
0.00042297045
0.00027859406
0.00047278587
0.00033808678
0.00052951763
0.0004106386
0.0005845976
0.0004944004
0.00063211538
0.00059413338
0.00067110294
0.00069917497
0.00071367299
0.00082250609
0.00076332652
0.0009366335
0.00082243212
0.0010663714
0.00089384224
0.0012149199
0.00096459635
0.0013759198
0.0010266959
0.0015440245
0.0011067366
0.0017144594
0.0012371029
0.0018269673
0.0014153763
0.0018900023
0.0016574523
0.0019525923
0.0019223091
0.0018760812
0.0021814173
0.0018455602
0.0024543936
0.0014322678
0.0026734747
0.00053425812
0.0026680959
-0.00059876432
0.0023051372
0.0010549364
4.4501695e-05
4.4774448e-06
4.4765255e-05
5.3578096e-06
4.5039789e-05
6.4182598e-06
4.5295185e-05
7.688546e-06
4.5531988e-05
9.2103068e-06
4.5764574e-05
1.1033065e-05
4.6009346e-05
1.3216302e-05
4.627826e-05
1.5830657e-05
4.6582397e-05
1.8960677e-05
4.6939688e-05
2.2706581e-05
4.7360707e-05
2.7187381e-05
4.7873214e-05
3.2542801e-05
4.8506744e-05
3.8937344e-05
4.932706e-05
4.6560685e-05
5.0422789e-05
5.5630135e-05
5.1792943e-05
6.6398631e-05
5.3357282e-05
7.9149298e-05
5.5062508e-05
9.4183324e-05
5.7105461e-05
0.00011180257
5.9916986e-05
0.00013231198
6.3992222e-05
0.0001560225
6.9921338e-05
0.0001831565
7.8217218e-05
0.00021385379
9.0108284e-05
0.00024789536
0.00010552012
0.00028519361
0.00012704871
0.00032554545
0.00015768649
0.00036786709
0.0002029761
0.00041011531
0.00025183149
0.00045591568
0.00030784888
0.00050802636
0.00037758428
0.00055692592
0.00045925021
0.00059594712
0.00055597203
0.00062481676
0.00065870595
0.00065508959
0.0007784628
0.00069024293
0.00089222361
0.00073270917
0.0010209818
0.00078507785
0.0011698638
0.00083452946
0.0013318045
0.0008737533
0.0015003863
0.00092901364
0.001669251
0.0010333987
0.0017870641
0.0011906662
0.001858356
0.0014199539
0.001929048
0.0016800579
0.0018662189
0.0019483462
0.001810618
0.0022360806
0.0014265392
0.0024889067
0.00057121101
0.0025787559
-0.00056485637
0.0023235043
0.0010804375
3.2236292e-05
4.4412867e-06
3.2500202e-05
5.3149899e-06
3.2790028e-05
6.3673984e-06
3.3081374e-05
7.6279491e-06
3.3368334e-05
9.1377744e-06
3.3655661e-05
1.0945973e-05
3.3947806e-05
1.3111262e-05
3.4239159e-05
1.5703907e-05
3.453126e-05
1.8807618e-05
3.4826822e-05
2.2521778e-05
3.5139584e-05
2.6964598e-05
3.5498758e-05
3.2274398e-05
3.5941134e-05
3.8614085e-05
3.6552956e-05
4.6170584e-05
3.7399429e-05
5.5158625e-05
3.8494772e-05
6.5829149e-05
3.9771275e-05
7.8463661e-05
4.1208038e-05
9.335589e-05
4.3016798e-05
0.00011078944
4.5541989e-05
0.00013105529
4.9244537e-05
0.00015444563
5.4684049e-05
0.00018116688
6.2412445e-05
0.00021131941
7.3554572e-05
0.00024463685
8.8035967e-05
0.00028099606
0.00010830115
0.00032003336
0.00013807712
0.00036016452
0.00018114637
0.00039933852
0.0002267204
0.00044170837
0.00027948118
0.00048978967
0.00034662218
0.000533055
0.00042618327
0.00056423819
0.00052009677
0.00058364425
0.00062053582
0.0006023549
0.00073699926
0.0006238154
0.00085026227
0.00065030131
0.00097800343
0.00068421934
0.0011267356
0.00071290356
0.0012888551
0.00072973051
0.0014575873
0.00076068497
0.0016250316
0.00083956401
0.0017476878
0.00097541473
0.0018266109
0.0011902572
0.0019027183
0.0014433877
0.0018534738
0.0017177717
0.0017829263
0.002020967
0.0014214359
0.0023070117
0.00059896402
0.0024825683
-0.00053205075
0.0023337203
0.0011057619
2.0546825e-05
4.4210702e-06
2.0630325e-05
5.2909321e-06
2.0759394e-05
6.3387865e-06
2.094203e-05
7.5939438e-06
2.1173517e-05
9.097206e-06
2.144439e-05
1.0897553e-05
2.1745458e-05
1.3053422e-05
2.2058614e-05
1.5634663e-05
2.237827e-05
1.8724482e-05
2.2690167e-05
2.242174e-05
2.3005244e-05
2.6843756e-05
2.3334149e-05
3.2127965e-05
2.3709071e-05
3.8436337e-05
2.4196604e-05
4.5954359e-05
2.4862637e-05
5.4894934e-05
2.5718183e-05
6.5508605e-05
2.6731029e-05
7.8075579e-05
2.794222e-05
9.288173e-05
2.9524868e-05
0.00011019992
3.1773119e-05
0.00013030797
3.5117538e-05
0.0001534805
4.0096627e-05
0.00017990597
4.7285472e-05
0.00020964937
5.7752535e-05
0.00024239333
7.1378954e-05
0.00027798543
9.0596495e-05
0.00031591157
0.00011952765
0.00035407136
0.00016043359
0.0003905195
0.00020301278
0.00042999657
0.00025278148
0.00047461106
0.00031752868
0.00051278391
0.00039500081
0.00053673822
0.00048627742
0.00054732997
0.00058444529
0.0005552009
0.00069783449
0.00056377334
0.00081049249
0.00057496115
0.00093717446
0.00059098523
0.0010852811
0.00059947676
0.0012468346
0.00059453429
0.0014154276
0.00060182556
0.0015815309
0.00065564023
0.0017086699
0.00076972562
0.0017946591
0.00096856894
0.0018748722
0.0012129269
0.0018387032
0.0014907664
0.0017599157
0.001808871
0.0014165564
0.0021268732
0.00062062985
0.0023807838
-0.00050076886
0.0023364229
0.0011298596
9.7630635e-06
4.4161646e-06
9.8374579e-06
5.2847589e-06
9.9495789e-06
6.3311361e-06
1.0095549e-05
7.5845439e-06
1.0265437e-05
9.0858926e-06
1.0452042e-05
1.088419e-05
1.0649144e-05
1.3037932e-05
1.0848724e-05
1.5616918e-05
1.1053457e-05
1.8704287e-05
1.1257046e-05
2.2398691e-05
1.1473592e-05
2.6817114e-05
1.1709864e-05
3.2096518e-05
1.1989121e-05
3.839813e-05
1.2355499e-05
4.5906752e-05
1.2849098e-05
5.4834688e-05
1.3486916e-05
6.5432481e-05
1.4271269e-05
7.7979709e-05
1.5264573e-05
9.2757723e-05
1.6620141e-05
0.00011003133
1.8594546e-05
0.00013006631
2.1592256e-05
0.00015312211
2.6136554e-05
0.00017936877
3.2816205e-05
0.00020883551
4.2665838e-05
0.00024115367
5.552176e-05
0.00027613897
7.387728e-05
0.00031312114
0.00010199854
0.00034953752
0.00014076876
0.00038362998
0.00018053832
0.00042070715
0.00022755484
0.00046235926
0.00029006531
0.00049591306
0.00036547918
0.00051319362
0.00045424983
0.00051555296
0.00055017486
0.00051324324
0.00066065134
0.00050965638
0.00077260768
0.00050617341
0.00089818244
0.00050486908
0.001045272
0.00049381888
0.0012056509
0.00046791401
0.0013738606
0.00045226778
0.0015386793
0.00048152197
0.0016699774
0.00057354805
0.0017625397
0.0007550221
0.0018463013
0.00098906867
0.001822498
0.0012680261
0.0017398957
0.0015994496
0.0014117356
0.0019476757
0.00063817371
0.0022745462
-0.00047159293
0.0023327998
0.0011524753
-3.5293706e-07
4.4265643e-06
-3.1047483e-07
5.2975356e-06
-2.4582817e-07
6.3469649e-06
-1.6343414e-07
7.6041112e-06
-7.5142784e-08
9.1100074e-06
1.6133989e-08
1.091375e-05
1.0847411e-07
1.3073947e-05
1.9957276e-07
1.5660518e-05
2.9768129e-07
1.8756696e-05
3.9916869e-07
2.2461271e-05
5.1926118e-07
2.689131e-05
6.6052844e-07
3.2183993e-05
8.393346e-07
3.8500752e-05
1.0832749e-06
4.6026807e-05
1.4140423e-06
5.4974715e-05
1.847971e-06
6.559616e-05
2.4132768e-06
7.8171527e-05
3.1877309e-06
9.2979104e-05
4.3093302e-06
0.00011027776
6.0089769e-06
0.00013032319
8.6690268e-06
0.0001533602
1.2798187e-05
0.00017954052
1.8996173e-05
0.000208857
2.8274572e-05
0.00024088809
4.0448581e-05
0.00027541266
5.8108849e-05
0.00031160633
8.5469809e-05
0.00034647817
0.00012210292
0.00037853812
0.00015915738
0.00041369435
0.0002036368
0.00045289617
0.0002640559
0.00048231204
0.00033744652
0.00049345001
0.00042382223
0.00048816313
0.00051753264
0.00047633336
0.0006252287
0.00046133243
0.00073638743
0.00044384508
0.00086080323
0.00042576924
0.0010065509
0.00039583783
0.0011652519
0.00034983033
0.0013328698
0.00031206244
0.0014964426
0.00031725926
0.0016316041
0.00038700407
0.0017302731
0.00054981298
0.0018174384
0.00077208287
0.0018051613
0.0010499575
0.0017216282
0.0013928627
0.0014068197
0.0017693308
0.00065293364
0.0021644673
-0.00044462102
0.0023232811
0.001173243
-9.8480389e-06
4.4513424e-06
-9.8784488e-06
5.3273178e-06
-9.9112169e-06
6.3830214e-06
-9.9335116e-06
7.6478956e-06
-9.9482775e-06
9.163212e-06
-9.9503138e-06
1.097829e-05
-9.9396601e-06
1.3151958e-05
-9.9197304e-06
1.5754518e-05
-9.8861546e-06
1.8869649e-05
-9.8483787e-06
2.2596694e-05
-9.796927e-06
2.7053497e-05
-9.7376995e-06
3.2378068e-05
-9.6606045e-06
3.8732791e-05
-9.5492589e-06
4.6304096e-05
-9.3900862e-06
5.5305942e-05
-9.1613478e-06
6.5991627e-05
-8.8171566e-06
7.8642456e-05
-8.2704748e-06
9.3536968e-05
-7.3912444e-06
0.000110928
-5.9698481e-06
0.00013106302
-3.6419756e-06
0.00015417535
8.749647e-08
0.00018039782
5.8263976e-06
0.00020968648
1.4564114e-05
0.00024157067
2.6133283e-05
0.00027577846
4.32206e-05
0.00031132317
6.9813325e-05
0.00034487825
0.00010430522
0.00037528112
0.00013875426
0.00040896518
0.00018088923
0.00044614963
0.00023934267
0.00047183901
0.00031074766
0.00047732872
0.00039481277
0.00046493545
0.00048633281
0.00044420509
0.00059134248
0.00041848142
0.00070161408
0.00038761933
0.00082481978
0.00035334629
0.00096897724
0.00030524597
0.0011256154
0.00024006792
0.0012924581
0.00018099705
0.001454805
0.00016267928
0.0015935503
0.00020996976
0.0016979113
0.00035299179
0.0017885001
0.00056211182
0.0017869796
0.00083687269
0.0017045041
0.0011891806
0.0014017798
0.0015917571
0.00066565617
0.0020511765
-0.00041983006
0.0023085329
0.0011921915
-1.8694081e-05
4.4901753e-06
-1.8750084e-05
5.3738968e-06
-1.8815174e-05
6.4387488e-06
-1.8875117e-05
7.7145291e-06
-1.8930928e-05
9.2428493e-06
-1.897897e-05
1.1073536e-05
-1.9023058e-05
1.3266133e-05
-1.906883e-05
1.5891733e-05
-1.9116238e-05
1.9034863e-05
-1.9176458e-05
2.2796139e-05
-1.924242e-05
2.7294584e-05
-1.9321656e-05
3.2669764e-05
-1.9403821e-05
3.9085654e-05
-1.9475309e-05
4.6730537e-05
-1.9521131e-05
5.5820081e-05
-1.9513829e-05
6.6609114e-05
-1.9400059e-05
7.9381948e-05
-1.9089784e-05
9.4417255e-05
-1.846404e-05
0.00011196585
-1.732786e-05
0.00013226815
-1.5332198e-05
0.00015554693
-1.1993132e-05
0.00018191667
-6.6983357e-06
0.00021129619
1.5147708e-06
0.00024316706
1.2543004e-05
0.00027719319
2.9144949e-05
0.00031222723
5.4922527e-05
0.00034467243
8.7276379e-05
0.00037375328
0.0001192619
0.00040639848
0.00015922729
0.00044199795
0.00021581809
0.00046438081
0.00028527267
0.00046470152
0.00036709744
0.00044575175
0.00045644921
0.00041674599
0.00055884856
0.00038101696
0.00066814656
0.00033744745
0.0007900896
0.00028755035
0.0009324592
0.00022198807
0.0010867278
0.00013860058
0.0012526298
5.9136934e-05
0.0014137512
1.7873558e-05
0.0015558197
4.261847e-05
0.0016654837
0.00016478881
0.0017596042
0.0003594131
0.0017681435
0.00062907614
0.001688
0.00098869792
0.0013965111
0.0014151229
0.00067689317
0.001935016
-0.00039693919
0.0022889045
0.0012092659
-2.6917531e-05
4.5424453e-06
-2.6946968e-05
5.4360356e-06
-2.6976229e-05
6.5126043e-06
-2.7009254e-05
7.8024198e-06
-2.7057381e-05
9.3477088e-06
-2.7125343e-05
1.1199001e-05
-2.7220318e-05
1.3416825e-05
-2.7348008e-05
1.6073318e-05
-2.7508509e-05
1.9254486e-05
-2.7708466e-05
2.3062201e-05
-2.7938459e-05
2.7617632e-05
-2.8199993e-05
3.3061937e-05
-2.8477434e-05
3.9561343e-05
-2.8751667e-05
4.7306078e-05
-2.9005312e-05
5.6513435e-05
-2.9204816e-05
6.7440483e-05
-2.9311357e-05
8.0376213e-05
-2.9249329e-05
9.5603973e-05
-2.8891982e-05
0.00011337136
-2.8052333e-05
0.00013391359
-2.6392672e-05
0.00015744398
-2.3445178e-05
0.00018406294
-1.8588156e-05
0.00021364995
-1.0899849e-05
0.00024564692
-3.8505985e-07
0.00027964491
1.5790434e-05
0.00031429626
4.0748191e-05
0.00034585172
7.1007534e-05
0.0003739794
0.00010064488
0.00040596919
0.00013858024
0.00044035494
0.00019338476
0.00045981839
0.00026092299
0.00045542727
0.00034056445
0.00043042822
0.00042776798
0.00039373359
0.00052761784
0.00034865517
0.00063585854
0.00029301089
0.00075648671
0.00022808699
0.00089692928
0.00014578555
0.0010486173
4.5091853e-05
0.0012134407
-5.3963911e-05
0.0013733329
-0.00011760056
0.001518462
-0.00011544943
0.0016330636
-1.4994782e-05
0.0017307964
0.00016387868
0.0017487495
0.00042658758
0.0016718118
0.00079144748
0.0013909423
0.0012395404
0.00068696133
0.0018164465
-0.00037570916
0.0022647659
0.0012245089
-3.4616187e-05
4.6083464e-06
-3.4669819e-05
5.5155453e-06
-3.4731382e-05
6.6088614e-06
-3.4805727e-05
7.9189551e-06
-3.4904414e-05
9.4885163e-06
-3.5032082e-05
1.1369114e-05
-3.5195896e-05
1.3621763e-05
-3.5401427e-05
1.6319884e-05
-3.564968e-05
1.9550628e-05
-3.5949028e-05
2.3417624e-05
-3.6289416e-05
2.8043546e-05
-3.667422e-05
3.3572313e-05
-3.7081367e-05
4.017222e-05
-3.7493666e-05
4.8036037e-05
-3.7882624e-05
5.7382806e-05
-3.8246188e-05
6.8476138e-05
-3.8565899e-05
8.1614877e-05
-3.8748257e-05
9.7082874e-05
-3.8670643e-05
0.00011512626
-3.8137295e-05
0.00013597788
-3.6818042e-05
0.00015984127
-3.4272907e-05
0.00018680762
-2.9857654e-05
0.00021671672
-2.2713443e-05
0.00024897929
-1.2715104e-05
0.00028309833
3.0838479e-06
0.00031749143
2.7261783e-05
0.00034834676
5.5496846e-05
0.00037582989
8.2861171e-05
0.00040754144
0.0001188765
0.00044111314
0.00017196648
0.00045805262
0.0002376202
0.00044939608
0.00031512897
0.00041886328
0.00040020385
0.00037507385
0.0004975622
0.00032132758
0.00060466542
0.00025427118
0.00072392565
0.00017492072
0.00086233741
7.6595745e-05
0.0010113048
-4.0474079e-05
0.0011749331
-0.00015823324
0.0013335935
-0.0002436247
0.0014815203
-0.0002640264
0.0016006941
-0.00018609136
0.0017020923
-2.4167868e-05
0.0017288196
0.00022977903
0.0016556885
0.00059784335
0.0013850187
0.0010653494
0.00069609754
0.0016957969
-0.00035580491
0.0022363796
0.0012379062
-4.1817987e-05
4.6868704e-06
-4.1942298e-05
5.6098822e-06
-4.2099753e-05
6.7225107e-06
-4.2281272e-05
8.0562318e-06
-4.2490142e-05
9.6546641e-06
-4.2721609e-05
1.1570069e-05
-4.2980371e-05
1.386486e-05
-4.326893e-05
1.6613552e-05
-4.3589715e-05
1.9904761e-05
-4.3950164e-05
2.3843954e-05
-4.4345053e-05
2.8555422e-05
-4.4779781e-05
3.418517e-05
-4.5238878e-05
4.0903725e-05
-4.5705937e-05
4.8905435e-05
-4.618775e-05
5.8416652e-05
-4.6718378e-05
6.9712353e-05
-4.7266392e-05
8.3096729e-05
-4.7695267e-05
9.8854807e-05
-4.786434e-05
0.0001172272
-4.76164e-05
0.00013844661
-4.6633259e-05
0.00016271727
-4.4493756e-05
0.00019012452
-4.0528361e-05
0.00022046428
-3.3963116e-05
0.00025313748
-2.4482596e-05
0.00028754319
-9.0282246e-06
0.00032180584
1.4365977e-05
0.00035216333
4.0646643e-05
0.00037937673
6.5849367e-05
0.00041117537
0.00010005251
0.00044422856
0.00015149449
0.00045898391
0.00021529572
0.00044648541
0.00029071301
0.00041090295
0.00037367707
0.00036058194
0.00046858902
0.00029880232
0.00057447889
0.00022096874
0.00069231957
0.00012781229
0.0008286279
1.418788e-05
0.00097478489
-0.00011839575
0.0011371112
-0.00025406569
0.001294523
-0.00036059994
0.0014449896
-0.00040347061
0.0015683895
-0.00034866822
0.0016734586
-0.00020478191
0.0017084027
3.8740875e-05
0.0016395251
0.00040803709
0.0013787338
0.0008927694
0.0007044409
0.0015734724
-0.00033698172
0.0022039609
0.0012494488
-4.8601312e-05
4.7789244e-06
-4.886526e-05
5.7224207e-06
-4.9162708e-05
6.8600305e-06
-4.9460387e-05
8.2234238e-06
-4.975727e-05
9.8565202e-06
-5.0055816e-05
1.1812719e-05
-5.0361981e-05
1.4155442e-05
-5.0684579e-05
1.6960469e-05
-5.1030602e-05
2.0318527e-05
-5.1411591e-05
2.4336831e-05
-5.1828763e-05
2.914262e-05
-5.2291989e-05
3.4884939e-05
-5.279529e-05
4.1737737e-05
-5.3342034e-05
4.9900939e-05
-5.3984911e-05
5.9611956e-05
-5.4753251e-05
7.115324e-05
-5.5555084e-05
8.483051e-05
-5.620638e-05
0.00010092153
-5.6566351e-05
0.00011966802
-5.6547775e-05
0.00014131213
-5.5880187e-05
0.00016606202
-5.4135864e-05
0.00019399928
-5.0619734e-05
0.00022487453
-4.4667025e-05
0.0002580926
-3.5709033e-05
0.00029294194
-2.058883e-05
0.00032719837
1.9763796e-06
0.00035723934
2.6371053e-05
0.00038451986
4.9565912e-05
0.00041675801
8.2071386e-05
0.00044959478
0.00013192197
0.00046250518
0.00019389936
0.00044657878
0.00026726212
0.00040643734
0.00034813085
0.00035015621
0.00044063588
0.00028100439
0.00054524047
0.00019305624
0.00066161159
8.6711589e-05
0.00079576195
-4.1490101e-05
0.00093904584
-0.00018867044
0.0010999716
-0.00034135032
0.0012561055
-0.00046834902
0.0014088606
-0.00053351428
0.0015361505
-0.00050240883
0.0016448765
-0.00037758404
0.0016875388
-0.00014611327
0.0016231929
0.00022250564
0.0013720308
0.00072219112
0.00071209662
0.001449721
-0.00031898517
0.0021676975
0.0012591345
-5.4769005e-05
4.8807057e-06
-5.5024499e-05
5.8416607e-06
-5.5311261e-05
6.9999956e-06
-5.5604536e-05
8.3883953e-06
-5.5908849e-05
1.0052721e-05
-5.6233038e-05
1.2047539e-05
-5.6581873e-05
1.443828e-05
-5.6967267e-05
1.7303358e-05
-5.7390858e-05
2.0735028e-05
-5.7866893e-05
2.4844219e-05
-5.8393625e-05
2.9760341e-05
-5.898639e-05
3.5636584e-05
-5.9643831e-05
4.2650984e-05
-6.0403871e-05
5.1011273e-05
-6.1314921e-05
6.0962955e-05
-6.237099e-05
7.2791077e-05
-6.3435203e-05
8.6798409e-05
-6.4268807e-05
0.00010326
-6.4784741e-05
0.00012242474
-6.4973534e-05
0.00014455379
-6.4606566e-05
0.00016986202
-6.3245944e-05
0.00019841844
-6.0175641e-05
0.00022993476
-5.4842739e-05
0.0002638306
-4.6418048e-05
0.000299275
-3.1656031e-05
0.00033367516
-9.9630954e-06
0.00036360361
1.2630852e-05
0.00039128422
3.3990974e-05
0.00042426581
6.4901367e-05
0.00045712521
0.00011320311
0.00046850956
0.00017338506
0.00044955291
0.00024472579
0.00040530751
0.00032351666
0.00034359792
0.00041365066
0.00026767078
0.00051690402
0.0001702321
0.00063175803
5.1332685e-05
0.00076371522
-9.074048e-05
0.0009041004
-0.00025174096
0.0010635401
-0.00042069648
0.0012183656
-0.00056753756
0.0013731576
-0.00065479574
0.0015040129
-0.00064774632
0.0016163316
-0.0005428645
0.0016662331
-0.00032488183
0.0016065936
4.1291525e-05
0.0013648662
0.00055382673
0.00071912056
0.0013249322
-0.00030164422
0.0021277322
0.0012669184
-6.037459e-05
4.9954003e-06
-6.0517118e-05
5.9788809e-06
-6.0697008e-05
7.1642118e-06
-6.0917345e-05
8.585012e-06
-6.1188264e-05
1.0287614e-05
-6.1514952e-05
1.2328277e-05
-6.1903409e-05
1.4773896e-05
-6.2360655e-05
1.7704394e-05
-6.2888657e-05
2.1215645e-05
-6.3496002e-05
2.542057e-05
-6.4184521e-05
3.0453783e-05
-6.4968092e-05
3.6473241e-05
-6.5858918e-05
4.3664222e-05
-6.6887487e-05
5.2242274e-05
-6.809067e-05
6.2457983e-05
-6.9431744e-05
7.4599318e-05
-7.0729429e-05
8.8964103e-05
-7.1755134e-05
0.00010582964
-7.2469603e-05
0.00012547028
-7.2899431e-05
0.00014815988
-7.2839843e-05
0.00017410785
-7.1857283e-05
0.00020337154
-6.9232823e-05
0.00023563051
-6.4506878e-05
0.00027032637
-5.6632519e-05
0.00030650928
-4.2279538e-05
0.00034119592
-2.1501378e-05
0.00037119548
-6.0822357e-07
0.00039957052
1.9100299e-05
0.00043358681
4.8503714e-05
0.00046672516
9.5298863e-05
0.00047690231
0.00015371753
0.0004552947
0.00022307517
0.00040738799
0.0002998087
0.00034077282
0.00038761138
0.00025868211
0.00048945136
0.00015239179
0.0006027358
2.1578682e-05
0.00073246951
-0.00013363049
0.00086995687
-0.00030758698
0.0010278375
-0.00049197249
0.0011813266
-0.00065795938
0.0013379041
-0.00076701764
0.0014719971
-0.00078432867
0.0015878121
-0.00070019135
0.0016444618
-0.00049708486
0.0015896386
-0.000135051
0.0013572056
0.00038815806
0.00072556211
0.0011994106
-0.00028479067
0.0020842246
0.0012727628
-6.5670098e-05
5.1214359e-06
-6.5818802e-05
6.1298703e-06
-6.6000553e-05
7.3454089e-06
-6.6219493e-05
8.8021419e-06
-6.6486621e-05
1.0547943e-05
-6.6808741e-05
1.264046e-05
-6.7197205e-05
1.5147966e-05
-6.7661915e-05
1.8152762e-05
-6.8213826e-05
2.1752898e-05
-6.8866222e-05
2.6064371e-05
-6.9633038e-05
3.1226269e-05
-7.0534663e-05
3.7401291e-05
-7.1589902e-05
4.4781915e-05
-7.2823372e-05
5.3591469e-05
-7.4253308e-05
6.4088089e-05
-7.5822884e-05
7.65597e-05
-7.7338144e-05
9.1306015e-05
-7.861261e-05
0.00010862269
-7.9610932e-05
0.00012880271
-8.0331856e-05
0.00015212437
-8.059499e-05
0.00017879051
-7.9989977e-05
0.00020884663
-7.7811952e-05
0.00024195102
-7.3675766e-05
0.00027756494
-6.6335579e-05
0.00031461523
-5.2409474e-05
0.00034973221
-3.2606361e-05
0.00038001324
-1.3350662e-05
0.00040939016
4.8635446e-06
0.00044470752
3.2846528e-05
0.00047833018
7.8183209e-05
0.00048756958
0.00013487971
0.00046365595
0.00020230003
0.00041248286
0.00027700105
0.00034143453
0.00036250945
0.000253728
0.00046287605
0.00013919034
0.00057453516
-2.8873981e-06
0.00070200349
-0.00017048927
0.00083659242
-0.00035660177
0.00099284333
-0.00055566974
0.0011449561
-0.00074014258
0.0013030718
-0.00087067338
0.0014400866
-0.00091246731
0.0015592663
-0.00084972089
0.0016222118
-0.00066267578
0.0015722727
-0.00030636894
0.0013490321
0.0002254428
0.00073145963
0.0010735397
-0.00026830955
0.0020373022
0.0012766099
-7.0562477e-05
5.2584837e-06
-7.0723669e-05
6.2941675e-06
-7.0918644e-05
7.5423628e-06
-7.1152551e-05
9.0384018e-06
-7.1435756e-05
1.0831331e-05
-7.1775683e-05
1.2980365e-05
-7.2184671e-05
1.5555561e-05
-7.2673862e-05
1.8642048e-05
-7.3257306e-05
2.233966e-05
-7.3952771e-05
2.6768924e-05
-7.4779774e-05
3.2072012e-05
-7.5766776e-05
3.8417676e-05
-7.6929088e-05
4.6004384e-05
-7.8296592e-05
5.5062682e-05
-7.9879765e-05
6.5856097e-05
-8.1614857e-05
7.8678769e-05
-8.3348087e-05
9.3839144e-05
-8.4914279e-05
0.0001116507
-8.6240772e-05
0.00013242446
-8.7287645e-05
0.00015644337
-8.788567e-05
0.00018389928
-8.7660087e-05
0.00021482802
-8.5929397e-05
0.00024887162
-8.2366114e-05
0.00028551302
-7.5508472e-05
0.00032355449
-6.1985712e-05
0.00035921545
-4.3234632e-05
0.00038994917
-2.56e-05
0.00042062645
-8.7432609e-06
0.00045751969
1.7916865e-05
0.00049182763
6.1847844e-05
0.00050037391
0.00011686063
0.00047448349
0.00018237962
0.00042045882
0.0002550703
0.00034547634
0.00033831649
0.00025273767
0.00043715623
0.00013058051
0.0005471455
-2.2131791e-05
0.00067230958
-0.00020140281
0.0008039848
-0.0003987749
0.00095853542
-0.00061161965
0.0011092244
-0.00081382654
0.0012686376
-0.00096541178
0.0014082637
-0.0010317689
0.0015306678
-0.00099099458
0.0015994834
-0.00082116423
0.0015544521
-0.00047210145
0.001340323
6.6130812e-05
0.00073681972
0.00094756459
-0.00025210092
0.0019871108
0.0012784408
-7.5066411e-05
5.4063925e-06
-7.5240491e-05
6.4714333e-06
-7.5450497e-05
7.7549432e-06
-7.5701855e-05
9.2932286e-06
-7.6005507e-05
1.1137298e-05
-7.6369136e-05
1.3347214e-05
-7.6806777e-05
1.599614e-05
-7.7330023e-05
1.91707e-05
-7.7956571e-05
2.297465e-05
-7.8706034e-05
2.7531574e-05
-7.9600063e-05
3.2988352e-05
-8.066922e-05
3.9519577e-05
-8.1926107e-05
4.7329755e-05
-8.3390998e-05
5.6655899e-05
-8.5077962e-05
6.7768529e-05
-8.6947104e-05
8.0967221e-05
-8.8880498e-05
9.6573336e-05
-9.0731443e-05
0.00011491982
-9.2394053e-05
0.00013633726
-9.377874e-05
0.0001611108
-9.4721792e-05
0.00018942554
-9.4873126e-05
0.00022130392
-9.358769e-05
0.00025637741
-9.0571697e-05
0.00029414671
-8.4135795e-05
0.00033326148
-7.1014962e-05
0.0003695985
-5.3374739e-05
0.0004010221
-3.7322197e-05
0.00043325277
-2.1703761e-05
0.00047190895
3.7193818e-06
0.00050707247
4.6284273e-05
0.00051517443
9.9639122e-05
0.00048763514
0.00016327571
0.00043115285
0.00023397391
0.00035270413
0.00031498627
0.00025545721
0.00041224851
0.00012626996
0.00052053759
-3.6441728e-05
0.00064339149
-0.00022672586
0.0007721457
-0.00043466501
0.00092492154
-0.00066055331
0.0010741389
-0.00087980452
0.0012346127
-0.0010520192
0.0013765494
-0.0011428382
0.0015020051
-0.0011244456
0.0015762743
-0.00097274184
0.001536131
-0.00063226411
0.0013310447
-8.9573487e-05
0.00074163561
0.00082188156
-0.00023610317
0.0019337971
0.0012782067
-7.9204955e-05
5.5648491e-06
-7.9391527e-05
6.6610644e-06
-7.9616529e-05
7.9824441e-06
-7.9885926e-05
9.5660806e-06
-8.0210908e-05
1.1464583e-05
-8.0600428e-05
1.3739957e-05
-8.106972e-05
1.6467691e-05
-8.1632133e-05
1.9736856e-05
-8.2307426e-05
2.3654976e-05
-8.3117298e-05
2.8349515e-05
-8.4083137e-05
3.3972169e-05
-8.5233392e-05
4.0702885e-05
-8.6578151e-05
4.8753237e-05
-8.8130367e-05
5.8366296e-05
-8.9906255e-05
6.9819585e-05
-9.1891064e-05
8.3421519e-05
-9.4005823e-05
9.9507331e-05
-9.6122002e-05
0.00011842943
-9.810565e-05
0.00014053639
-9.9830135e-05
0.00016611839
-0.00010112849
0.00019535833
-0.00010165285
0.00022826171
-0.00010080614
0.00026445133
-9.8302411e-05
0.00030343933
-9.223436e-05
0.00034370156
-7.9540832e-05
0.00038082637
-6.3050359e-05
0.00041314009
-4.8500555e-05
0.00044715396
-3.4009501e-05
0.0004877537
-9.7659113e-06
0.00052395832
3.1457468e-05
0.00053187732
8.3174174e-05
0.00050301579
0.00014494806
0.00044446986
0.00021367086
0.00036302602
0.0002924803
0.00026181891
0.00038811733
0.00012620772
0.00049467471
-4.5862536e-05
0.0006152328
-0.00024648309
0.00074109725
-0.00046424859
0.00089200774
-0.00070232069
0.0010397098
-0.00093779622
0.0012010081
-0.0011301271
0.0013449569
-0.0012452605
0.0014732748
-0.001249581
0.0015525664
-0.0011168776
0.0015172574
-0.00078623298
0.0013211643
-0.00024113489
0.00074590298
0.00069680234
-0.00022026007
0.0018775067
0.0012758672
-8.2995641e-05
5.7334145e-06
-8.3194446e-05
6.8628857e-06
-8.3434179e-05
8.2245158e-06
-8.3721573e-05
9.8567137e-06
-8.4068528e-05
1.1813124e-05
-8.4485021e-05
1.4158477e-05
-8.4987888e-05
1.6970191e-05
-8.5592028e-05
2.0340434e-05
-8.6317414e-05
2.4380405e-05
-8.7186814e-05
2.9221608e-05
-8.822011e-05
3.5020595e-05
-8.9443939e-05
4.1963778e-05
-9.086416e-05
5.0268173e-05
-9.2495118e-05
6.0184781e-05
-9.4352218e-05
7.1998757e-05
-9.6447802e-05
8.6029633e-05
-9.8743195e-05
0.0001026294
-0.00010111019
0.00012216981
-0.00010339781
0.00014501262
-0.00010546
0.00017145525
-0.00010711685
0.00020168355
-0.00010800608
0.00023567841
-0.00010759502
0.0002730686
-0.00010555599
0.00031335346
-9.9809822e-05
0.00035480907
-8.7573546e-05
0.00039286703
-7.224213e-05
0.00042631065
-5.9119722e-05
0.00046229059
-4.5674098e-05
0.00050497879
-2.2570703e-05
0.00054239788
1.7330946e-05
0.00055037486
6.7429222e-05
0.00052050207
0.00012736279
0.00046025945
0.00019412829
0.00037625601
0.00027076215
0.00027158369
0.00036473134
0.0001301212
0.00046951974
-5.0666034e-05
0.00058779936
-0.00026096702
0.00071080824
-0.00048790992
0.00085976047
-0.00073743583
0.0010058977
-0.00098839602
0.0011677888
-0.0012003069
0.0013134555
-0.0013394471
0.0014444243
-0.0013666371
0.0015283291
-0.0012535603
0.0014977965
-0.00093388703
0.001310666
-0.00038829986
0.00074962784
0.00057272796
-0.00020453892
0.001818414
0.001271394
-8.645495e-05
5.9115891e-06
-8.6666018e-05
7.0766762e-06
-8.6920915e-05
8.4809514e-06
-8.7226294e-05
1.0164084e-05
-8.7595968e-05
1.2182112e-05
-8.8040257e-05
1.4601562e-05
-8.8576296e-05
1.7501895e-05
-8.9220391e-05
2.0979485e-05
-8.9991191e-05
2.514795e-05
-9.0911588e-05
3.0143913e-05
-9.2002126e-05
3.6129232e-05
-9.328334e-05
4.3295208e-05
-9.4766725e-05
5.1866413e-05
-9.6457716e-05
6.2099875e-05
-9.8390217e-05
7.4292409e-05
-0.00010060511
8.8779238e-05
-0.0001030801
0.00010592747
-0.00010569666
0.00012612567
-0.00010828354
0.00014975076
-0.00011067932
0.00017710652
-0.00011269095
0.00020838236
-0.00011393199
0.00024353014
-0.00011395376
0.00028219618
-0.00011233066
0.00032385291
-0.00010685739
0.00036655136
-9.509104e-05
0.00040564796
-8.0905977e-05
0.00044039589
-6.9170391e-05
0.00047852866
-5.672298e-05
0.0005234922
-3.4722176e-05
0.00056230804