/*--------------------------------*- C++ -*----------------------------------*\
  =========                 |
  \\      /  F ield         | OpenFOAM: The Open Source CFD Toolbox
   \\    /   O peration     | Website:  https://openfoam.org
    \\  /    A nd           | Version:  8
     \\/     M anipulation  |
\*---------------------------------------------------------------------------*/
FoamFile
{
    version     2.0;
    format      ascii;
    class       volScalarField;
    location    "0.299999";
    object      nut;
}
// * * * * * * * * * * * * * * * * * * * * * * * * * * * * * * * * * * * * * //

dimensions      [0 2 -1 0 0 0 0];

internalField   nonuniform List<scalar> 
20000
(
0.0012707488
0.0032658271
0.004527652
0.0051607033
0.0050070192
0.0038027751
0.0012550192
5.4098433e-06
2.8671711e-09
2.7558136e-09
2.6742179e-09
2.6946473e-09
2.6627834e-09
2.6911982e-09
2.6929016e-09
2.7246047e-09
2.7475068e-09
2.7904392e-09
2.8360531e-09
2.9001513e-09
2.9748295e-09
3.0713676e-09
3.1875223e-09
3.3324003e-09
3.5073444e-09
3.7201788e-09
3.9741211e-09
4.2730065e-09
4.6138021e-09
4.9850149e-09
5.3615216e-09
5.7164799e-09
6.0272885e-09
6.2892349e-09
6.5026116e-09
6.6748499e-09
6.8090505e-09
6.9145143e-09
6.9958432e-09
7.0591267e-09
7.1079825e-09
7.1466765e-09
7.179183e-09
7.2080154e-09
7.2361869e-09
7.2638957e-09
7.2869296e-09
7.3056867e-09
7.3190728e-09
7.3753382e-09
0.0012567135
0.0032362388
0.0044737142
0.0050775544
0.0048834407
0.0036388146
0.0011011912
2.0579969e-06
2.8337119e-09
2.7756535e-09
2.6927028e-09
2.7145942e-09
2.6828205e-09
2.7124952e-09
2.7147829e-09
2.7478912e-09
2.7720842e-09
2.8168025e-09
2.8643844e-09
2.9309453e-09
3.008515e-09
3.1084274e-09
3.2284457e-09
3.3774607e-09
3.5566029e-09
3.7728213e-09
4.0280109e-09
4.3243499e-09
4.6576444e-09
5.0171294e-09
5.3818275e-09
5.7262034e-09
6.0312195e-09
6.290113e-09
6.502973e-09
6.6750144e-09
6.808653e-09
6.9137688e-09
6.9944365e-09
7.0571732e-09
7.1060358e-09
7.1451862e-09
7.1785566e-09
7.2081088e-09
7.2368277e-09
7.2646557e-09
7.286487e-09
7.306438e-09
7.3189913e-09
7.3768613e-09
0.001251976
0.0032148713
0.0044236575
0.0049902607
0.0047550612
0.0034536415
0.00094180545
7.3054785e-07
2.8208088e-09
2.795632e-09
2.7122934e-09
2.7351615e-09
2.7036823e-09
2.7344463e-09
2.7374883e-09
2.7719879e-09
2.7975755e-09
2.8441587e-09
2.8938735e-09
2.963096e-09
3.0438246e-09
3.1474639e-09
3.271788e-09
3.4255212e-09
3.6095284e-09
3.8299676e-09
4.0875592e-09
4.3825228e-09
4.7092132e-09
5.0573384e-09
5.4089601e-09
5.7432865e-09
6.0412222e-09
6.2955001e-09
6.505085e-09
6.6752233e-09
6.808266e-09
6.9133349e-09
6.9938335e-09
7.0564051e-09
7.1052969e-09
7.1445541e-09
7.1781395e-09
7.2079376e-09
7.2371437e-09
7.2651884e-09
7.2882418e-09
7.3072144e-09
7.3305019e-09
7.3759747e-09
0.0012489303
0.0031935857
0.0043739355
0.0049029929
0.0046260405
0.00326227
0.00080191615
2.6576879e-07
2.8205345e-09
2.81646e-09
2.7328888e-09
2.7569172e-09
2.7258676e-09
2.757723e-09
2.761546e-09
2.7974517e-09
2.8244891e-09
2.8730097e-09
2.9249657e-09
2.9969648e-09
3.0809966e-09
3.1885227e-09
3.3173674e-09
3.4761208e-09
3.6654389e-09
3.890762e-09
4.1516845e-09
4.4467817e-09
4.7690067e-09
5.1078237e-09
5.4475362e-09
5.7698832e-09
6.0586481e-09
6.3064566e-09
6.5117117e-09
6.6790168e-09
6.8098656e-09
6.9134261e-09
6.9936731e-09
7.0560864e-09
7.1049602e-09
7.1442694e-09
7.178007e-09
7.2079985e-09
7.2379143e-09
7.2660678e-09
7.2889358e-09
7.3083863e-09
7.3362425e-09
7.3759721e-09
0.0012467329
0.0031728091
0.004324789
0.0048184581
0.0044957278
0.003062425
0.00067154544
1.0128598e-07
2.8292124e-09
2.8385728e-09
2.7547465e-09
2.7798138e-09
2.7492651e-09
2.7821549e-09
2.7868465e-09
2.8242174e-09
2.8528378e-09
2.9034252e-09
2.9577999e-09
3.0327671e-09
3.1203428e-09
3.232037e-09
3.3657528e-09
3.5299445e-09
3.7250494e-09
3.9557766e-09
4.2206017e-09
4.5164417e-09
4.834869e-09
5.1651064e-09
5.493102e-09
5.8035167e-09
6.0821157e-09
6.3221677e-09
6.5216763e-09
6.6850722e-09
6.8132563e-09
6.9150543e-09
6.9940582e-09
7.0559743e-09
7.1048541e-09
7.1441528e-09
7.1779127e-09
7.2083402e-09
7.2387911e-09
7.2670267e-09
7.2901184e-09
7.3099572e-09
7.3433042e-09
7.3758625e-09
0.001244784
0.003151881
0.0042747518
0.0047323597
0.0043642514
0.0028543266
0.00055190815
4.2206111e-08
2.8434478e-09
2.861342e-09
2.7776205e-09
2.8037712e-09
2.7738636e-09
2.8078337e-09
2.8135105e-09
2.8524313e-09
2.8827627e-09
2.9355443e-09
2.9925024e-09
3.0706126e-09
3.1619522e-09
3.2780726e-09
3.4169833e-09
3.5869918e-09
3.7883151e-09
4.0248986e-09
4.294076e-09
4.5911895e-09
4.9065285e-09
5.2289545e-09
5.545729e-09
5.8437542e-09
6.1112531e-09
6.3424365e-09
6.5352499e-09
6.6938846e-09
6.8185976e-09
6.9179909e-09
6.995543e-09
7.0565229e-09
7.1049547e-09
7.1441118e-09
7.1780493e-09
7.209016e-09
7.2399368e-09
7.268148e-09
7.2912376e-09
7.3123838e-09
7.3484089e-09
7.3759339e-09
0.0012429263
0.0031307502
0.0042237619
0.004645149
0.0042319858
0.0026386919
0.00044302686
1.9974932e-08
2.8616823e-09
2.8847869e-09
2.8015835e-09
2.8288144e-09
2.7996522e-09
2.834763e-09
2.8415561e-09
2.8821131e-09
2.9142957e-09
2.9694029e-09
3.0291199e-09
3.1105671e-09
3.2059213e-09
3.3267701e-09
3.471244e-09
3.6474849e-09
3.8554509e-09
4.0982664e-09
4.3720664e-09
4.6706412e-09
4.9830936e-09
5.2980071e-09
5.6037472e-09
5.8893591e-09
6.1452006e-09
6.3666981e-09
6.5519384e-09
6.7050439e-09
6.8257393e-09
6.9223195e-09
6.9979917e-09
7.0578189e-09
7.1056985e-09
7.1445894e-09
7.1785742e-09
7.2099996e-09
7.2412759e-09
7.2693771e-09
7.2925761e-09
7.3160384e-09
7.3527673e-09
7.3766427e-09
0.0012411225
0.0031093206
0.0041714104
0.0045563372
0.0040988455
0.0024166478
0.00034426786
1.0989962e-08
2.8825613e-09
2.9090984e-09
2.8266064e-09
2.8549654e-09
2.8266888e-09
2.8630164e-09
2.8710519e-09
2.9133239e-09
2.9474838e-09
3.0050439e-09
3.0676972e-09
3.1526787e-09
3.2523128e-09
3.3782044e-09
3.5286259e-09
3.7115075e-09
3.9265223e-09
4.1758757e-09
4.4544548e-09
4.7545217e-09
5.0641272e-09
5.371648e-09
5.666485e-09
5.9395538e-09
6.1833113e-09
6.3945007e-09
6.571511e-09
6.7184596e-09
6.8345924e-09
6.9279282e-09
7.0014419e-09
7.0598778e-09
7.1069978e-09
7.1455048e-09
7.1794991e-09
7.211291e-09
7.2428225e-09
7.2707093e-09
7.2940286e-09
7.3207446e-09
7.3560907e-09
7.3776734e-09
0.0012393473
0.003087704
0.0041180998
0.0044654626
0.003964466
0.0021905077
0.00025460217
7.0509217e-09
2.9055625e-09
2.9344375e-09
2.8527942e-09
2.8823095e-09
2.8550408e-09
2.8926337e-09
2.9020204e-09
2.9460722e-09
2.9823412e-09
3.042489e-09
3.1082647e-09
3.1969974e-09
3.3012008e-09
3.4324823e-09
3.589255e-09
3.7791983e-09
4.0016415e-09
4.25777e-09
4.541149e-09
4.8425459e-09
5.1490999e-09
5.4491197e-09
5.7330321e-09
5.9935038e-09
6.2249027e-09
6.4253403e-09
6.5935962e-09
6.7338726e-09
6.8450105e-09
6.9347561e-09
7.0058231e-09
7.0626701e-09
7.1088943e-09
7.1469057e-09
7.1808262e-09
7.2128736e-09
7.2445433e-09
7.2721286e-09
7.2956131e-09
7.3258946e-09
7.3592106e-09
7.3788678e-09
0.0012376073
0.0030660043
0.0040638722
0.0043718206
0.0038278133
0.0019645852
0.00017352009
5.1867494e-09
2.9303072e-09
2.9608427e-09
2.8801972e-09
2.9108885e-09
2.8847352e-09
2.9236241e-09
2.9344631e-09
2.9803686e-09
3.0188873e-09
3.081767e-09
3.1508634e-09
3.2435856e-09
3.3526747e-09
3.489718e-09
3.6532601e-09
3.850687e-09
4.0809056e-09
4.3439693e-09
4.6320436e-09
4.9344557e-09
5.2375868e-09
5.5298439e-09
5.8027183e-09
6.0505014e-09
6.2693531e-09
6.4587356e-09
6.6178601e-09
6.7510651e-09
6.8568442e-09
6.9427001e-09
7.0110903e-09
7.0661688e-09
7.1113538e-09
7.1487682e-09
7.1825499e-09
7.2147538e-09
7.2464382e-09
7.2736094e-09
7.297357e-09
7.3312601e-09
7.362195e-09
7.3802039e-09
0.0012360523
0.0030444134
0.004008744
0.0042748525
0.0036875398
0.0017463709
0.00010360045
4.2523499e-09
2.956615e-09
2.9883912e-09
2.9088569e-09
2.9407041e-09
2.9157465e-09
2.9559604e-09
2.9683716e-09
3.0162236e-09
3.057147e-09
3.12291e-09
3.1955445e-09
3.2925206e-09
3.4068419e-09
3.550038e-09
3.7207805e-09
3.9261062e-09
4.1644097e-09
4.4344807e-09
4.7270213e-09
5.029983e-09
5.3291664e-09
5.6132655e-09
5.8748992e-09
6.1099039e-09
6.3160919e-09
6.4942301e-09
6.64396e-09
6.7697947e-09
6.8699336e-09
6.9516619e-09
7.0171774e-09
7.0703326e-09
7.1143602e-09
7.1510847e-09
7.1846554e-09
7.2169291e-09
7.248491e-09
7.2751308e-09
7.2994619e-09
7.3366285e-09
7.365157e-09
7.3816756e-09
0.0012348015
0.0030231743
0.0039533857
0.004174788
0.0035426103
0.0015368412
5.1212023e-05
3.7686968e-09
2.9843783e-09
3.0170439e-09
2.9386972e-09
2.9716752e-09
2.9480267e-09
2.9896319e-09
3.0037673e-09
3.0536668e-09
3.0971528e-09
3.1659612e-09
3.2423771e-09
3.3439051e-09
3.463832e-09
3.6135925e-09
3.7919786e-09
4.0056119e-09
4.2522627e-09
4.5293145e-09
4.8259531e-09
5.1288538e-09
5.4234378e-09
5.6988746e-09
5.9489989e-09
6.1711191e-09
6.3645799e-09
6.531381e-09
6.6715603e-09
6.789821e-09
6.8841114e-09
6.9615289e-09
7.0240157e-09
7.0751179e-09
7.1178808e-09
7.1538343e-09
7.1871273e-09
7.2193834e-09
7.2506843e-09
7.2767262e-09
7.3021779e-09
7.3418001e-09
7.3680745e-09
7.3832482e-09
0.001233796
0.003002388
0.0038984077
0.0040748077
0.0033924296
0.0013377873
2.0545042e-05
3.5174391e-09
3.013255e-09
3.0466106e-09
2.9696063e-09
3.0037742e-09
2.9815894e-09
3.0246878e-09
3.0406852e-09
3.0927335e-09
3.13894e-09
3.210979e-09
3.2914543e-09
3.3978611e-09
3.5237864e-09
3.6805338e-09
3.8670136e-09
4.089344e-09
4.3445452e-09
4.6284408e-09
4.9286745e-09
5.2307749e-09
5.5200012e-09
5.7861962e-09
6.0244979e-09
6.2336267e-09
6.4143411e-09
6.5697895e-09
6.7003489e-09
6.8109127e-09
6.8992148e-09
6.9721911e-09
7.0315328e-09
7.0804771e-09
7.1218836e-09
7.1569962e-09
7.1899476e-09
7.2220921e-09
7.2529896e-09
7.2785028e-09
7.3058344e-09
7.3465294e-09
7.370887e-09
7.3848867e-09
0.0012328598
0.0029816997
0.0038434314
0.0039763947
0.0032334638
0.0011504713
6.9936914e-06
3.3927447e-09
3.0431797e-09
3.0771348e-09
3.0016785e-09
3.0370853e-09
3.0165247e-09
3.0611714e-09
3.0791617e-09
3.1334346e-09
3.1825516e-09
3.2580483e-09
3.3428939e-09
3.4545316e-09
3.5868635e-09
3.7510422e-09
3.9460739e-09
4.1774766e-09
4.4413554e-09
4.7318353e-09
5.0350169e-09
5.3354468e-09
5.6184579e-09
5.8747717e-09
6.1009067e-09
6.2969373e-09
6.4649251e-09
6.6090734e-09
6.7300225e-09
6.8328412e-09
6.9150772e-09
6.9835319e-09
7.0396511e-09
7.0863592e-09
7.1263313e-09
7.1605448e-09
7.1930966e-09
7.2250276e-09
7.2553651e-09
7.2805047e-09
7.3106093e-09
7.350681e-09
7.3735664e-09
7.3865551e-09
0.0012319356
0.0029609578
0.0037885011
0.0038714282
0.0030642057
0.00097633246
2.1499136e-06
3.3380131e-09
3.0743094e-09
3.1087979e-09
3.0350211e-09
3.0716944e-09
3.0528608e-09
3.0990914e-09
3.1191979e-09
3.1758076e-09
3.2280686e-09
3.3072852e-09
3.396836e-09
3.5140668e-09
3.6532257e-09
3.8252937e-09
4.0293363e-09
4.2701504e-09
4.5427405e-09
4.8394137e-09
5.1447563e-09
5.4425347e-09
5.7184061e-09
5.9641675e-09
6.1777842e-09
6.3606228e-09
6.515939e-09
6.6488982e-09
6.7603104e-09
6.8553974e-09
6.931544e-09
6.9954412e-09
7.0482941e-09
7.0927127e-09
7.1311873e-09
7.1644536e-09
7.1965523e-09
7.2281586e-09
7.2577602e-09
7.2827106e-09
7.3159697e-09
7.3546609e-09
7.3761469e-09
7.3882429e-09
0.0012310009
0.0029397221
0.0037325816
0.0037650838
0.0028850152
0.00081669475
6.3906101e-07
3.3225111e-09
3.1066922e-09
3.1416338e-09
3.0696538e-09
3.1075833e-09
3.0905668e-09
3.1384305e-09
3.1608135e-09
3.2199366e-09
3.2756081e-09
3.3588287e-09
3.4534287e-09
3.5766267e-09
3.7230581e-09
3.903497e-09
4.1170208e-09
4.3675398e-09
4.648771e-09
4.9510917e-09
5.257657e-09
5.5516926e-09
5.8194421e-09
6.053957e-09
6.2547067e-09
6.4242773e-09
6.5670138e-09
6.6889471e-09
6.7909535e-09
6.8783779e-09
6.9484624e-09
7.0078066e-09
7.0573818e-09
7.0994824e-09
7.1364129e-09
7.1686938e-09
7.200289e-09
7.23145e-09
7.260135e-09
7.2850837e-09
7.3217286e-09
7.3585725e-09
7.3786542e-09
7.3899169e-09
0.0012300777
0.0029176072
0.0036733639
0.0036558682
0.0026955653
0.00067476128
1.9896195e-07
3.3293081e-09
3.140331e-09
3.1756122e-09
3.1055034e-09
3.1446895e-09
3.1296134e-09
3.1792146e-09
3.2040937e-09
3.2659489e-09
3.3253158e-09
3.4128249e-09
3.5128202e-09
3.6423743e-09
3.7965472e-09
3.9858545e-09
4.2093201e-09
4.4697655e-09
4.7594426e-09
5.0667027e-09
5.3734204e-09
5.6625385e-09
5.9211534e-09
6.1437344e-09
6.3312909e-09
6.4875468e-09
6.6178324e-09
6.7289488e-09
6.8217277e-09
6.901603e-09
6.965694e-09
7.020525e-09
7.0668386e-09
7.1066142e-09
7.1419706e-09
7.1732364e-09
7.2042789e-09
7.2348647e-09
7.2624793e-09
7.28764e-09
7.3277175e-09
7.36248e-09
7.3810686e-09
7.3915664e-09
0.001229269
0.0028950991
0.0036133877
0.0035457139
0.0024963906
0.00054622922
6.8502104e-08
3.3484934e-09
3.1750434e-09
3.2105918e-09
3.1424958e-09
3.1830011e-09
3.1700538e-09
3.2215588e-09
3.2491865e-09
3.3140018e-09
3.3773336e-09
3.4694102e-09
3.5751563e-09
3.7114953e-09
3.8739078e-09
4.072621e-09
4.3064635e-09
4.5769923e-09
4.8747592e-09
5.1860926e-09
5.4917437e-09
5.7746899e-09
6.0231295e-09
6.2331036e-09
6.4071696e-09
6.5500983e-09
6.668099e-09
6.7686512e-09
6.8524227e-09
6.9249008e-09
6.9831045e-09
7.0334943e-09
7.0765879e-09
7.1140511e-09
7.147821e-09
7.178051e-09
7.2084893e-09
7.23836e-09
7.2648258e-09
7.2905219e-09
7.333815e-09
7.3663362e-09
7.3834284e-09
7.393175e-09
0.0012284772
0.0028713531
0.0035511408
0.0034324833
0.0022887084
0.00042953264
2.7334207e-08
3.3748527e-09
3.2107757e-09
3.2466135e-09
3.1807017e-09
3.2226452e-09
3.2120486e-09
3.2656395e-09
3.296255e-09
3.3642305e-09
3.431782e-09
3.5287116e-09
3.6406001e-09
3.784181e-09
3.9553705e-09
4.1640229e-09
4.4086483e-09
4.6892919e-09
4.9946367e-09
5.3090026e-09
5.6122521e-09
5.8877223e-09
6.1249527e-09
6.3216846e-09
6.48201e-09
6.6116435e-09
6.7175654e-09
6.8078445e-09
6.8828614e-09
6.9481236e-09
7.0005757e-09
7.0466235e-09
7.0865595e-09
7.1217386e-09
7.1539257e-09
7.183108e-09
7.2128846e-09
7.2418842e-09
7.267252e-09
7.2940313e-09
7.339826e-09
7.3700589e-09
7.3856713e-09
7.3947255e-09
0.0012275782
0.0028459537
0.0034856713
0.0033095801
0.0020748189
0.00032430735
1.3219107e-08
3.4057385e-09
3.2476628e-09
3.2838288e-09
3.2203053e-09
3.263825e-09
3.2557887e-09
3.3116196e-09
3.3454188e-09
3.4167379e-09
3.4887642e-09
3.590864e-09
3.7093329e-09
3.8606615e-09
4.041204e-09
4.260344e-09
4.5161068e-09
4.806776e-09
5.1190012e-09
5.4351774e-09
5.7345737e-09
6.00121e-09
6.226211e-09
6.4091096e-09
6.5554967e-09
6.6719138e-09
6.7660038e-09
6.8463364e-09
6.9128801e-09
6.9711329e-09
7.0179944e-09
7.0598251e-09
7.0966846e-09
7.1296217e-09
7.1602451e-09
7.1883769e-09
7.2174246e-09
7.2453876e-09
7.269836e-09
7.2985739e-09
7.3455208e-09
7.3735449e-09
7.387739e-09
7.3961874e-09
0.0012264787
0.0028186766
0.0034170118
0.0031855629
0.0018585564
0.00022902234
7.8354793e-09
3.4396358e-09
3.2859014e-09
3.3224611e-09
3.2615218e-09
3.3067308e-09
3.3014161e-09
3.3595877e-09
3.3967452e-09
3.4715985e-09
3.5483902e-09
3.656035e-09
3.7815638e-09
3.9411887e-09
4.1316707e-09
4.3618372e-09
4.6289998e-09
4.929447e-09
5.247652e-09
5.5642535e-09
5.858251e-09
6.1146843e-09
6.3264808e-09
6.495031e-09
6.6273519e-09
6.7306818e-09
6.8132308e-09
6.8839716e-09
6.9423441e-09
6.9938144e-09
7.0352637e-09
7.0730234e-09
7.1069021e-09
7.13765e-09
7.1667422e-09
7.1938285e-09
7.2220653e-09
7.2488162e-09
7.2726435e-09
7.3044506e-09
7.3507382e-09
7.3767321e-09
7.389552e-09
7.397488e-09
0.0012251459
0.002789531
0.0033412034
0.0030588869
0.0016425858
0.00014340495
5.5656044e-09
3.4757479e-09
3.325739e-09
3.3627574e-09
3.3045025e-09
3.3514513e-09
3.3489562e-09
3.4095701e-09
3.4502702e-09
3.5289154e-09
3.6108075e-09
3.7244188e-09
3.8575406e-09
4.0260441e-09
4.2270896e-09
4.4688015e-09
4.7475426e-09
5.0573322e-09
5.380408e-09
5.6958695e-09
5.9828277e-09
6.2276816e-09
6.4253538e-09
6.5791284e-09
6.6973296e-09
6.7877423e-09
6.8590825e-09
6.9206091e-09
6.9711297e-09
7.0160644e-09
7.0522945e-09
7.0861464e-09
7.1171537e-09
7.1457747e-09
7.1733806e-09
7.1994312e-09
7.22676e-09
7.2521327e-09
7.2757268e-09
7.3114587e-09
7.3556213e-09
7.3796531e-09
7.3910474e-09
7.3983662e-09
0.0012238864
0.0027607691
0.0032659862
0.0029275688
0.0014301171
7.2780856e-05
4.5385975e-09
3.5136335e-09
3.3673167e-09
3.4047282e-09
3.3492276e-09
3.3979167e-09
3.398397e-09
3.4615739e-09
3.5060847e-09
3.5888019e-09
3.6762069e-09
3.7962548e-09
3.9375317e-09
4.1155229e-09
4.3277546e-09
4.5814798e-09
4.8718322e-09
5.1903144e-09
5.5169359e-09
5.8295399e-09
6.1077594e-09
6.3396931e-09
6.5224274e-09
6.6611148e-09
6.7652301e-09
6.8429309e-09
6.9034292e-09
6.9561384e-09
6.9991397e-09
7.0377997e-09
7.0690175e-09
7.0991335e-09
7.127389e-09
7.1539532e-09
7.1801275e-09
7.2051517e-09
7.2314603e-09
7.2553373e-09
7.2791499e-09
7.3191027e-09
7.3604241e-09
7.3823723e-09
7.3922363e-09
7.3986541e-09
0.0012224804
0.0027307345
0.0031897934
0.0027889563
0.0012251987
2.7729936e-05
4.0653367e-09
3.5528385e-09
3.4103671e-09
3.4482303e-09
3.3955517e-09
3.446121e-09
3.4497452e-09
3.5157035e-09
3.5643192e-09
3.6514503e-09
3.744812e-09
3.8718039e-09
4.0218309e-09
4.2099605e-09
4.4340157e-09
4.7001764e-09
5.0020145e-09
5.3283097e-09
5.6569128e-09
5.9647828e-09
6.2325067e-09
6.4502374e-09
6.6173485e-09
6.7407464e-09
6.8308834e-09
6.8961083e-09
6.9461476e-09
6.9904618e-09
7.0262917e-09
7.0589412e-09
7.0853726e-09
7.1119274e-09
7.1375615e-09
7.1621466e-09
7.1869509e-09
7.2109506e-09
7.236116e-09
7.258488e-09
7.2830997e-09
7.3271033e-09
7.3650772e-09
7.3848006e-09
7.3932333e-09
7.3987269e-09
0.0012208939
0.0026992643
0.003109748
0.0026412483
0.0010312172
8.027517e-06
3.8551152e-09
3.5939295e-09
3.4547596e-09
3.4931528e-09
3.4435297e-09
3.4961224e-09
3.5031354e-09
3.5721038e-09
3.6251642e-09
3.7170798e-09
3.8168824e-09
3.9513514e-09
4.1107506e-09
4.3096895e-09
4.546181e-09
4.825096e-09
5.1380751e-09
5.4710486e-09
5.7998368e-09
6.100973e-09
6.3564567e-09
6.5588504e-09
6.7098173e-09
6.8178199e-09
6.8941327e-09
6.9471734e-09
6.9871332e-09
7.0235153e-09
7.0525375e-09
7.07942e-09
7.1013122e-09
7.124482e-09
7.1476329e-09
7.1703235e-09
7.1938222e-09
7.2167833e-09
7.2406765e-09
7.2617122e-09
7.2879753e-09
7.3351322e-09
7.3694515e-09
7.3867923e-09
7.3937896e-09
7.3986352e-09
0.0012192316
0.0026669038
0.0030266413
0.0024865763
0.00085283063
1.9818738e-06
3.7738453e-09
3.6367867e-09
3.5005131e-09
3.5396477e-09
3.493299e-09
3.5480818e-09
3.5587263e-09
3.630968e-09
3.6888391e-09
3.7859361e-09
3.8926856e-09
4.035191e-09
4.2046393e-09
4.4150846e-09
4.664641e-09
4.9564923e-09
5.2800655e-09
5.618277e-09
5.9452355e-09
6.2375133e-09
6.4790777e-09
6.6651985e-09
6.7996301e-09
6.8921637e-09
6.954789e-09
6.9960364e-09
7.0262919e-09
7.0552606e-09
7.0778472e-09
7.0991694e-09
7.1167792e-09
7.1367577e-09
7.1575691e-09
7.1784575e-09
7.200713e-09
7.2225996e-09
7.2450987e-09
7.2651983e-09
7.2943046e-09
7.3427631e-09
7.3734307e-09
7.3884176e-09
7.3940051e-09
7.3984721e-09
0.0012175677
0.0026342861
0.002940944
0.0023249056
0.00069156646
4.7678672e-07
3.7568898e-09
3.6810499e-09
3.5478983e-09
3.5878456e-09
3.5449876e-09
3.6021503e-09
3.6167079e-09
3.6925162e-09
3.7555763e-09
3.8582762e-09
3.9725029e-09
4.1236543e-09
4.3038449e-09
4.5265272e-09
4.7896839e-09
5.0944916e-09
5.4277969e-09
5.7695301e-09
6.0924288e-09
6.3737122e-09
6.5998973e-09
6.7690536e-09
6.8866184e-09
6.9635901e-09
7.0126182e-09
7.042602e-09
7.0635864e-09
7.0857054e-09
7.1021993e-09
7.1181513e-09
7.1317048e-09
7.1487288e-09
7.1673441e-09
7.1865292e-09
7.2075969e-09
7.2283484e-09
7.2493655e-09
7.2691667e-09
7.3025424e-09
7.3496005e-09
7.3768483e-09
7.3898074e-09
7.3940644e-09
7.3982935e-09
0.0012161083
0.0026020214
0.0028562943
0.002152821
0.00054971421
1.300614e-07
3.7717979e-09
3.726825e-09
3.5968523e-09
3.6378769e-09
3.5987548e-09
3.6585283e-09
3.6773062e-09
3.7569737e-09
3.8256189e-09
3.9343605e-09
4.0566317e-09
4.2170893e-09
4.4087769e-09
4.6444543e-09
4.9216926e-09
5.2392676e-09
5.581142e-09
5.9243614e-09
6.2407814e-09
6.5090047e-09
6.7186703e-09
6.8702987e-09
6.9705565e-09
7.0318445e-09
7.0674073e-09
7.0867315e-09
7.0990671e-09
7.1148767e-09
7.1255298e-09
7.1363679e-09
7.1460144e-09
7.1603757e-09
7.1769357e-09
7.1945206e-09
7.2144449e-09
7.2339802e-09
7.253513e-09
7.273837e-09
7.3125939e-09
7.3556278e-09
7.3795037e-09
7.3903471e-09
7.3940583e-09
7.3977804e-09
0.0012147779
0.0025693019
0.0027774292
0.0019708594
0.00042820191
4.5509647e-08
3.802468e-09
3.7740447e-09
3.6475043e-09
3.6900107e-09
3.6548398e-09
3.7174724e-09
3.740738e-09
3.824554e-09
3.8992047e-09
4.0144589e-09
4.1454088e-09
4.3158756e-09
4.5198614e-09
4.7692549e-09
5.0609167e-09
5.3907692e-09
5.7396982e-09
6.0820673e-09
6.3895172e-09
6.6428723e-09
6.8352449e-09
6.968644e-09
7.0509262e-09
7.0965473e-09
7.1191954e-09
7.1282864e-09
7.1328991e-09
7.1427818e-09
7.1477243e-09
7.1538673e-09
7.1596924e-09
7.1716806e-09
7.1863278e-09
7.2024167e-09
7.2212243e-09
7.2394479e-09
7.2576564e-09
7.2794596e-09
7.3233079e-09
7.3614527e-09
7.3818185e-09
7.3905999e-09
7.3935611e-09
7.3967838e-09
0.0012133587
0.0025342971
0.0026900669
0.0017791455
0.00031922657
1.9586453e-08
3.8416354e-09
3.8231037e-09
3.7002243e-09
3.7444791e-09
3.7134542e-09
3.7791429e-09
3.8071823e-09
3.8954547e-09
3.9765785e-09
4.0988895e-09
4.2391924e-09
4.4204564e-09
4.6375792e-09
4.9014178e-09
5.2076719e-09
5.5490179e-09
5.9030974e-09
6.2420121e-09
6.5380266e-09
6.7750715e-09
6.9494386e-09
7.0632598e-09
7.1272158e-09
7.1574794e-09
7.1680992e-09
7.1672905e-09
7.1652561e-09
7.1693017e-09
7.1686876e-09
7.1706644e-09
7.1728521e-09
7.1826111e-09
7.1955065e-09
7.2102019e-09
7.2279004e-09
7.2447137e-09
7.2619843e-09
7.2864371e-09
7.333971e-09
7.3670621e-09
7.3840404e-09
7.3906608e-09
7.3925757e-09
7.3953233e-09
0.0012121028
0.0024982423
0.0026025903
0.001582046
0.00022222936
1.0678324e-08
3.8866163e-09
3.8743581e-09
3.7552876e-09
3.8014396e-09
3.7747062e-09
3.8436905e-09
3.8768167e-09
3.9698431e-09
4.0580447e-09
4.1879996e-09
4.3384055e-09
4.5312966e-09
4.7624187e-09
5.0413094e-09
5.3620754e-09
5.7137109e-09
6.070662e-09
6.4033418e-09
6.6856896e-09
6.9054203e-09
7.0603526e-09
7.1534531e-09
7.1989565e-09
7.2146595e-09
7.2144206e-09
7.2039522e-09
7.1960574e-09
7.1942326e-09
7.1885003e-09
7.186619e-09
7.1857285e-09
7.1931248e-09
7.2044615e-09
7.2178577e-09
7.2344329e-09
7.2497462e-09
7.26671e-09
7.2952992e-09
7.3435932e-09
7.372097e-09
7.3860643e-09
7.3906479e-09
7.3912409e-09
7.3932949e-09
0.0012109668
0.0024602472
0.0025112002
0.0013842445
0.00013641021
7.2025987e-09
3.9358718e-09
3.9277501e-09
3.8126889e-09
3.8608837e-09
3.8387124e-09
3.9112484e-09
3.9498817e-09
4.048098e-09
4.1439277e-09
4.2821857e-09
4.4435037e-09
4.6489418e-09
4.894927e-09
5.1894127e-09
5.5242898e-09
5.8846356e-09
6.2417751e-09
6.5653922e-09
6.8321854e-09
7.0336572e-09
7.1668878e-09
7.2384883e-09
7.2661292e-09
7.2690368e-09
7.257976e-09
7.2387901e-09
7.2247784e-09
7.2178647e-09
7.2072579e-09
7.2014161e-09
7.198396e-09
7.2031984e-09
7.2131845e-09
7.2253546e-09
7.2407593e-09
7.2545503e-09
7.2720056e-09
7.306198e-09
7.3513976e-09
7.3760523e-09
7.3875005e-09
7.3906165e-09
7.3902833e-09
7.3903436e-09
0.0012096217
0.0024170946
0.0024155593
0.0011990221
6.7593171e-05
5.7137022e-09
3.9880735e-09
3.9832237e-09
3.8723588e-09
3.9229503e-09
3.9056348e-09
3.9820839e-09
4.02668e-09
4.1305206e-09
4.2346082e-09
4.3819001e-09
4.5550162e-09
4.7739405e-09
5.0356204e-09
5.3459826e-09
5.6941956e-09
6.0611584e-09
6.415544e-09
6.7273934e-09
6.9772159e-09
7.1584731e-09
7.2681861e-09
7.3179779e-09
7.3297487e-09
7.3203175e-09
7.2987365e-09
7.2715944e-09
7.2516844e-09
7.2401422e-09
7.2248396e-09
7.2154059e-09
7.2106667e-09
7.212889e-09
7.2216708e-09
7.2326539e-09
7.2468182e-09
7.2591977e-09
7.2780187e-09
7.31782e-09
7.357865e-09
7.378846e-09
7.3881201e-09
7.3904879e-09
7.3897909e-09
7.3864165e-09
0.001207795
0.0023683599
0.0023134236
0.0010242728
2.5070202e-05
5.0475226e-09
4.0428997e-09
4.0409302e-09
3.9345682e-09
3.9879141e-09
3.975747e-09
4.0564913e-09
4.1075239e-09
4.2174852e-09
4.3305098e-09
4.4876447e-09
4.6735218e-09
4.9069242e-09
5.1850797e-09
5.5113772e-09
5.8717159e-09
6.2427553e-09
6.5912418e-09
6.8888967e-09
7.1205041e-09
7.2785026e-09
7.3633831e-09
7.3925753e-09
7.3901602e-09
7.3682622e-09
7.3368045e-09
7.3023918e-09
7.2768082e-09
7.2611403e-09
7.2413529e-09
7.2286342e-09
7.2222653e-09
7.2223504e-09
7.2299157e-09
7.2397108e-09
7.2525622e-09
7.2638537e-09
7.285e-09
7.3290517e-09
7.3633834e-09
7.3808966e-09
7.3883582e-09
7.3902603e-09
7.389378e-09
7.3820547e-09
0.0012051934
0.0023135281
0.002202582
0.00086137786
7.1521454e-06
4.7570393e-09
4.1004081e-09
4.1011669e-09
3.9995972e-09
4.0560588e-09
4.0493879e-09
4.1347044e-09
4.1927604e-09
4.3094003e-09
4.432117e-09
4.6000144e-09
4.7996462e-09
5.0485123e-09
5.3437383e-09
5.68564e-09
6.0563511e-09
6.4284889e-09
6.767945e-09
7.0494231e-09
7.2605974e-09
7.3926262e-09
7.4520741e-09
7.4636318e-09
7.4466924e-09
7.4129667e-09
7.3722561e-09
7.3311611e-09
7.30029e-09
7.2808899e-09
7.2569104e-09
7.2412453e-09
7.2329463e-09
7.2316839e-09
7.2379093e-09
7.2464842e-09
7.2579758e-09
7.2687615e-09
7.2933577e-09
7.3390889e-09
7.3682357e-09
7.3826437e-09
7.3884073e-09
7.3897135e-09
7.3886469e-09
7.3779731e-09
0.0012017288
0.0022518023
0.0020709553
0.00071167578
1.7610512e-06
4.6473018e-09
4.1607202e-09
4.1642216e-09
4.0677375e-09
4.1276746e-09
4.1268419e-09
4.217057e-09
4.2827404e-09
4.4067314e-09
4.5400093e-09
4.7196466e-09
4.9340871e-09
5.1993944e-09
5.5121213e-09
5.8688971e-09
6.2476969e-09
6.6176201e-09
6.9450469e-09
7.2086846e-09
7.3958918e-09
7.4998956e-09
7.5354366e-09
7.5307452e-09
7.4994061e-09
7.4544782e-09
7.4051897e-09
7.3579275e-09
7.3222354e-09
7.2994524e-09
7.271554e-09
7.2531356e-09
7.242973e-09
7.2407816e-09
7.2456239e-09
7.252947e-09
7.2630981e-09
7.2741457e-09
7.3034247e-09
7.347431e-09
7.3723781e-09
7.384204e-09
7.3883703e-09
7.388866e-09
7.3875003e-09
7.3745566e-09
0.0011978264
0.0021857948
0.0019242086
0.00057794021
4.317257e-07
4.6269812e-09
4.224172e-09
4.2303507e-09
4.1392743e-09
4.202946e-09
4.208375e-09
4.3038762e-09
4.377973e-09
4.5100383e-09
4.6548402e-09
4.8472577e-09
5.077552e-09
5.3601713e-09
5.690472e-09
6.0608286e-09
6.4448518e-09
6.8090883e-09
7.1218121e-09
7.3653856e-09
7.5248202e-09
7.5997144e-09
7.6148323e-09
7.5933635e-09
7.5483112e-09
7.4929116e-09
7.4356961e-09
7.3827396e-09
7.3427607e-09
7.3168791e-09
7.2852758e-09
7.2642872e-09
7.2524783e-09
7.2496437e-09
7.2530179e-09
7.2590935e-09
7.2680315e-09
7.2801283e-09
7.3146638e-09
7.3541423e-09
7.3755734e-09
7.3851565e-09
7.3881166e-09
7.387964e-09
7.385748e-09
7.3717072e-09
0.001193593
0.0021164109
0.0017637448
0.00045858805
1.219964e-07
4.6516056e-09
4.2907161e-09
4.2998341e-09
4.2142521e-09
4.2821406e-09
4.2942959e-09
4.3957096e-09
4.4790382e-09
4.6199958e-09
4.7773191e-09
4.9835874e-09
5.2308271e-09
5.5315096e-09
5.879141e-09
6.2611956e-09
6.6471227e-09
7.002165e-09
7.2978925e-09
7.5176896e-09
7.64632e-09
7.6933659e-09
7.6897216e-09
7.6515244e-09
7.5935266e-09
7.5283819e-09
7.4638783e-09
7.4057079e-09
7.3619331e-09
7.3332153e-09
7.2980595e-09
7.2747417e-09
7.2615611e-09
7.2582413e-09
7.2600787e-09
7.2649343e-09
7.2729382e-09
7.2867514e-09
7.3257027e-09
7.3598713e-09
7.3778933e-09
7.3855444e-09
7.3877085e-09
7.3873436e-09
7.3831817e-09
7.3693088e-09
0.0011889533
0.0020430116
0.0016021962
0.00035640354
4.5606716e-08
4.6986824e-09
4.3603939e-09
4.3726123e-09
4.2930357e-09
4.3656071e-09
4.3852108e-09
4.4931792e-09
4.5866204e-09
4.7373281e-09
4.9081942e-09
5.1294433e-09
5.39463e-09
5.7138833e-09
6.0779948e-09
6.4692171e-09
6.8533236e-09
7.1958812e-09
7.4723163e-09
7.6634403e-09
7.7594578e-09
7.7822743e-09
7.7595143e-09
7.7052693e-09
7.635168e-09
7.5610198e-09
7.4898444e-09
7.4269365e-09
7.3798347e-09
7.3485012e-09
7.3099249e-09
7.2845672e-09
7.270247e-09
7.2665066e-09
7.2668774e-09
7.2704884e-09
7.278005e-09
7.2941889e-09
7.3358933e-09
7.3647205e-09
7.3796045e-09
7.3856661e-09
7.3872517e-09
7.386701e-09
7.3800647e-09
7.3672436e-09
0.0011841501
0.0019609199
0.0014411327
0.00026379935
2.0864389e-08
4.7572998e-09
4.4332674e-09
4.4489971e-09
4.3761369e-09
4.4540364e-09
4.4818347e-09
4.5969854e-09
4.7014053e-09
4.8627664e-09
5.0482563e-09
5.2856558e-09
5.5697973e-09
5.9078102e-09
6.287047e-09
6.6842405e-09
7.0626795e-09
7.3896718e-09
7.6431241e-09
7.8014232e-09
7.8652118e-09
7.866229e-09
7.8241262e-09
7.7547379e-09
7.6733901e-09
7.590965e-09
7.5137112e-09
7.4465366e-09
7.3965363e-09
7.3627763e-09
7.3209341e-09
7.2938572e-09
7.2785417e-09
7.2742666e-09
7.2735518e-09
7.2757712e-09
7.2833139e-09
7.3029006e-09
7.3445766e-09
7.3687943e-09
7.3809599e-09
7.3856731e-09
7.3867482e-09
7.3860196e-09
7.3769887e-09
7.3654828e-09
0.0011810968
0.001883752
0.0012792007
0.00018028594
1.1957023e-08
4.8236251e-09
4.5099541e-09
4.5298144e-09
4.4643271e-09
4.5482326e-09
4.584836e-09
4.707812e-09
4.8240503e-09
4.9971099e-09
5.1983638e-09
5.4531247e-09
5.7569842e-09
6.1134623e-09
6.5056324e-09
6.9050695e-09
7.2739355e-09
7.5826476e-09
7.8077759e-09
7.9302589e-09
7.9650894e-09
7.9445069e-09
7.883634e-09
7.8000689e-09
7.7083489e-09
7.6183616e-09
7.5356001e-09
7.4646182e-09
7.4121115e-09
7.3760898e-09
7.3311828e-09
7.3026947e-09
7.2864898e-09
7.2814408e-09
7.2800755e-09
7.2808077e-09
7.2889338e-09
7.3131408e-09
7.3513553e-09
7.3721391e-09
7.3820755e-09
7.3856309e-09
7.3861461e-09
7.3852124e-09
7.3741829e-09
7.3639993e-09
0.0011791719
0.0018054943
0.0011182449
0.00010649761
8.336805e-09
4.8953579e-09
4.5912861e-09
4.6159951e-09
4.5584189e-09
4.6487652e-09
4.6948272e-09
4.8263012e-09
4.9553275e-09
5.1412127e-09
5.3594467e-09
5.6327991e-09
5.9569506e-09
6.3310552e-09
6.7332943e-09
7.1308297e-09
7.4863187e-09
7.7732791e-09
7.9644699e-09
8.0501935e-09
8.0596591e-09
8.0167775e-09
7.9381876e-09
7.841455e-09
7.7402226e-09
7.6433609e-09
7.5556352e-09
7.481288e-09
7.4266279e-09
7.3884997e-09
7.3407791e-09
7.3111034e-09
7.2940171e-09
7.2881483e-09
7.2862696e-09
7.2856935e-09
7.294776e-09
7.3234758e-09
7.3571009e-09
7.3748407e-09
7.3829027e-09
7.3854164e-09
7.3854494e-09
7.384181e-09
7.3718155e-09
7.3627251e-09
0.0011784238
0.0017221346
0.00096188187
4.9711431e-05
6.7500577e-09
4.9723085e-09
4.6781119e-09
4.7080163e-09
4.6587779e-09
4.7561136e-09
4.8124108e-09
4.9531947e-09
5.0961059e-09
5.2960511e-09
5.5325417e-09
5.8255664e-09
6.1701338e-09
6.5601862e-09
6.9688417e-09
7.3601273e-09
7.6986885e-09
7.9586594e-09
8.1115203e-09
8.162737e-09
8.1479712e-09