/*--------------------------------*- C++ -*----------------------------------*\
  =========                 |
  \\      /  F ield         | OpenFOAM: The Open Source CFD Toolbox
   \\    /   O peration     | Website:  https://openfoam.org
    \\  /    A nd           | Version:  8
     \\/     M anipulation  |
\*---------------------------------------------------------------------------*/
FoamFile
{
    version     2.0;
    format      ascii;
    class       volScalarField;
    location    "0.299999";
    object      nuTilda;
}
// * * * * * * * * * * * * * * * * * * * * * * * * * * * * * * * * * * * * * //

dimensions      [0 2 -1 0 0 0 0];

internalField   nonuniform List<scalar> 
20000
(
0.0012738775
0.0032662736
0.0045278817
0.0051608779
0.0050072005
0.0038030748
0.0012575271
6.8876888e-05
1.0256155e-05
1.0140329e-05
1.0063999e-05
1.0066416e-05
1.0028135e-05
1.0033428e-05
1.0017776e-05
1.0017995e-05
1.0010515e-05
1.0008698e-05
1.0005551e-05
1.0004261e-05
1.0003014e-05
1.0002422e-05
1.0002148e-05
1.0002089e-05
1.0002004e-05
1.0001844e-05
1.000169e-05
1.0001594e-05
1.0001553e-05
1.0001545e-05
1.000156e-05
1.0001637e-05
1.0001699e-05
1.0001629e-05
1.0001525e-05
1.0001531e-05
1.0001432e-05
1.0001473e-05
1.0001546e-05
1.0001607e-05
1.0001731e-05
1.0001901e-05
1.0002054e-05
1.0002162e-05
1.0002233e-05
1.0002332e-05
1.0002277e-05
1.0001858e-05
1.0001399e-05
1.0001186e-05
0.0012597564
0.0032366887
0.0044739478
0.0050777336
0.0048836298
0.0036391389
0.0011044088
5.3434456e-05
1.0209322e-05
1.0140882e-05
1.0063454e-05
1.0066264e-05
1.0027874e-05
1.0033324e-05
1.0017569e-05
1.0017857e-05
1.0010432e-05
1.0008634e-05
1.0005508e-05
1.0004224e-05
1.0002987e-05
1.0002397e-05
1.0002122e-05
1.0002071e-05
1.0001995e-05
1.0001847e-05
1.0001685e-05
1.0001567e-05
1.0001511e-05
1.0001498e-05
1.0001522e-05
1.0001608e-05
1.0001675e-05
1.0001611e-05
1.0001506e-05
1.0001509e-05
1.0001415e-05
1.0001452e-05
1.000153e-05
1.0001592e-05
1.0001715e-05
1.0001882e-05
1.0002045e-05
1.0002144e-05
1.0002208e-05
1.00023e-05
1.0002256e-05
1.0001771e-05
1.0001272e-05
1.0001173e-05
0.0012549644
0.0032153227
0.0044238945
0.0049904447
0.0047552588
0.0034539973
0.00094613272
4.0951147e-05
1.0179187e-05
1.0140236e-05
1.0062911e-05
1.0065942e-05
1.0027643e-05
1.0033132e-05
1.0017368e-05
1.0017698e-05
1.0010334e-05
1.0008558e-05
1.0005462e-05
1.0004195e-05
1.0002974e-05
1.0002396e-05
1.0002123e-05
1.0002074e-05
1.0001996e-05
1.0001848e-05
1.0001691e-05
1.0001569e-05
1.0001506e-05
1.0001491e-05
1.0001521e-05
1.0001608e-05
1.0001682e-05
1.000162e-05
1.00015e-05
1.0001511e-05
1.0001411e-05
1.000145e-05
1.000153e-05
1.0001591e-05
1.0001711e-05
1.0001871e-05
1.000203e-05
1.0002131e-05
1.000218e-05
1.0002262e-05
1.000222e-05
1.0001749e-05
1.0001258e-05
1.0001144e-05
0.0012518889
0.0031940392
0.004374176
0.004903182
0.0046262473
0.0032626639
0.00080777285
3.1672257e-05
1.0160093e-05
1.013957e-05
1.0062316e-05
1.0065554e-05
1.002744e-05
1.0032917e-05
1.0017177e-05
1.0017525e-05
1.0010239e-05
1.0008475e-05
1.0005414e-05
1.0004157e-05
1.0002954e-05
1.0002384e-05
1.0002115e-05
1.0002075e-05
1.0001999e-05
1.0001852e-05
1.0001694e-05
1.0001572e-05
1.0001508e-05
1.0001491e-05
1.0001518e-05
1.00016e-05
1.0001673e-05
1.000162e-05
1.00015e-05
1.0001514e-05
1.000141e-05
1.0001445e-05
1.0001526e-05
1.0001586e-05
1.0001703e-05
1.0001858e-05
1.0002018e-05
1.0002124e-05
1.0002161e-05
1.0002229e-05
1.0002188e-05
1.0001719e-05
1.0001221e-05
1.0001135e-05
0.0012496676
0.0031732644
0.0043250329
0.0048186521
0.0044959446
0.0030628662
0.00067968646
2.48107e-05
1.0147731e-05
1.0138747e-05
1.0061679e-05
1.0065099e-05
1.0027267e-05
1.003268e-05
1.0016994e-05
1.0017347e-05
1.0010145e-05
1.0008391e-05
1.0005367e-05
1.000412e-05
1.0002936e-05
1.0002376e-05
1.000211e-05
1.0002076e-05
1.0001999e-05
1.0001853e-05
1.0001698e-05
1.0001575e-05
1.0001507e-05
1.000149e-05
1.0001517e-05
1.0001595e-05
1.0001671e-05
1.0001623e-05
1.00015e-05
1.0001515e-05
1.0001409e-05
1.000144e-05
1.0001524e-05
1.0001584e-05
1.0001697e-05
1.0001846e-05
1.0002003e-05
1.0002117e-05
1.0002147e-05
1.0002196e-05
1.0002153e-05
1.0001689e-05
1.0001186e-05
1.0001117e-05
0.0012476982
0.0031523382
0.0042749992
0.004732559
0.0043644791
0.0028548276
0.00056351845
1.988514e-05
1.0139625e-05
1.0137613e-05
1.0061003e-05
1.0064576e-05
1.00271e-05
1.003242e-05
1.0016821e-05
1.001716e-05
1.0010052e-05
1.0008303e-05
1.0005319e-05
1.0004082e-05
1.0002917e-05
1.0002367e-05
1.0002105e-05
1.0002077e-05
1.0002e-05
1.0001854e-05
1.0001701e-05
1.0001579e-05
1.0001508e-05
1.0001489e-05
1.0001516e-05
1.000159e-05
1.0001665e-05
1.0001625e-05
1.00015e-05
1.0001518e-05
1.0001409e-05
1.0001435e-05
1.000152e-05
1.0001581e-05
1.0001691e-05
1.0001834e-05
1.0001986e-05
1.0002111e-05
1.0002138e-05
1.0002164e-05
1.0002119e-05
1.000166e-05
1.0001152e-05
1.0001097e-05
0.0012458205
0.0031312093
0.0042240131
0.0046453539
0.0042322253
0.0026392696
0.00045997373
1.6456145e-05
1.0134138e-05
1.0136072e-05
1.0060291e-05
1.0063989e-05
1.0026922e-05
1.0032138e-05
1.0016657e-05
1.0016966e-05
1.0009961e-05
1.0008211e-05
1.0005271e-05
1.0004043e-05
1.0002899e-05
1.0002358e-05
1.00021e-05
1.0002078e-05
1.0002e-05
1.0001855e-05
1.0001704e-05
1.0001582e-05
1.0001508e-05
1.0001489e-05
1.0001514e-05
1.0001585e-05
1.000166e-05
1.0001626e-05
1.00015e-05
1.000152e-05
1.0001408e-05
1.0001431e-05
1.0001516e-05
1.0001577e-05
1.0001686e-05
1.0001823e-05
1.0001969e-05
1.0002101e-05
1.0002132e-05
1.0002137e-05
1.0002084e-05
1.0001631e-05
1.0001118e-05
1.0001085e-05
0.0012439962
0.0031097816
0.0041716654
0.0045565481
0.0040990981
0.0024173259
0.00036941243
1.4141808e-05
1.0130166e-05
1.0134381e-05
1.0059546e-05
1.0063341e-05
1.0026735e-05
1.0031834e-05
1.0016503e-05
1.0016764e-05
1.0009871e-05
1.0008117e-05
1.0005222e-05
1.0004003e-05
1.000288e-05
1.0002349e-05
1.0002096e-05
1.0002078e-05
1.0001999e-05
1.0001855e-05
1.0001706e-05
1.0001585e-05
1.000151e-05
1.0001489e-05
1.0001513e-05
1.000158e-05
1.0001654e-05
1.0001627e-05
1.00015e-05
1.0001522e-05
1.0001408e-05
1.0001427e-05
1.0001511e-05
1.0001574e-05
1.0001681e-05
1.0001812e-05
1.000195e-05
1.0002086e-05
1.0002124e-05
1.0002115e-05
1.0002045e-05
1.00016e-05
1.0001081e-05
1.0001073e-05
0.0012422001
0.0030881669
0.0041183589
0.00446568
0.0039647329
0.00219132
0.00029188814
1.2628529e-05
1.0127094e-05
1.0132575e-05
1.0058771e-05
1.0062634e-05
1.0026543e-05
1.003151e-05
1.0016357e-05
1.0016555e-05
1.0009783e-05
1.0008021e-05
1.0005174e-05
1.0003962e-05
1.0002861e-05
1.0002341e-05
1.0002092e-05
1.0002078e-05
1.0001998e-05
1.0001855e-05
1.0001708e-05
1.0001588e-05
1.0001511e-05
1.0001489e-05
1.0001512e-05
1.0001575e-05
1.0001649e-05
1.0001628e-05
1.0001501e-05
1.0001524e-05
1.0001407e-05
1.0001422e-05
1.0001506e-05
1.0001569e-05
1.0001676e-05
1.0001801e-05
1.0001932e-05
1.0002064e-05
1.0002109e-05
1.0002101e-05
1.0001994e-05
1.0001568e-05
1.0001044e-05
1.0001047e-05
0.0012404382
0.0030664691
0.0040641357
0.004372045
0.0038280961
0.0019655782
0.00022697594
1.1668622e-05
1.0124552e-05
1.0130655e-05
1.005797e-05
1.0061869e-05
1.0026345e-05
1.0031164e-05
1.0016221e-05
1.001634e-05
1.0009697e-05
1.0007922e-05
1.0005125e-05
1.000392e-05
1.0002843e-05
1.0002332e-05
1.0002088e-05
1.0002078e-05
1.0001996e-05
1.0001855e-05
1.0001709e-05
1.000159e-05
1.0001512e-05
1.0001489e-05
1.000151e-05
1.000157e-05
1.0001644e-05
1.0001629e-05
1.0001501e-05
1.0001526e-05
1.0001407e-05
1.0001419e-05
1.00015e-05
1.0001563e-05
1.000167e-05
1.000179e-05
1.0001914e-05
1.000204e-05
1.000209e-05
1.0002086e-05
1.0001935e-05
1.0001534e-05
1.0001008e-05
1.0001011e-05
0.0012388597
0.0030448799
0.0040090119
0.0042750846
0.0036878408
0.0017476058
0.00017385365
1.1076944e-05
1.0122319e-05
1.0128631e-05
1.0057146e-05
1.0061051e-05
1.0026142e-05
1.0030799e-05
1.0016093e-05
1.0016119e-05
1.0009613e-05
1.0007822e-05
1.0005077e-05
1.0003878e-05
1.0002824e-05
1.0002324e-05
1.0002086e-05
1.0002077e-05
1.0001994e-05
1.0001854e-05
1.000171e-05
1.0001591e-05
1.0001513e-05
1.0001489e-05
1.0001509e-05
1.0001565e-05
1.0001639e-05
1.0001629e-05
1.0001501e-05
1.0001528e-05
1.0001407e-05
1.0001415e-05
1.0001495e-05
1.0001556e-05
1.0001664e-05
1.0001779e-05
1.0001897e-05
1.0002018e-05
1.0002066e-05
1.0002055e-05
1.0001889e-05
1.0001498e-05
1.0000972e-05
1.0000974e-05
0.0012375833
0.0030236423
0.0039536582
0.0041750286
0.0035429322
0.0015384073
0.00013117965
1.0720965e-05
1.0120259e-05
1.0126511e-05
1.0056301e-05
1.0060184e-05
1.0025936e-05
1.0030417e-05
1.0015974e-05
1.0015892e-05
1.000953e-05
1.0007719e-05
1.0005028e-05
1.0003836e-05
1.0002806e-05
1.0002315e-05
1.0002083e-05
1.0002076e-05
1.0001992e-05
1.0001852e-05
1.000171e-05
1.0001592e-05
1.0001514e-05
1.0001489e-05
1.0001507e-05
1.0001561e-05
1.0001634e-05
1.0001629e-05
1.0001501e-05
1.000153e-05
1.0001407e-05
1.0001413e-05
1.0001491e-05
1.0001549e-05
1.0001657e-05
1.0001768e-05
1.0001881e-05
1.0001997e-05
1.0002042e-05
1.0002008e-05
1.0001853e-05
1.000146e-05
1.0000936e-05
1.0000938e-05
0.0012365504
0.0030028573
0.0038986848
0.0040750573
0.0033927758
0.0013398156
9.7596892e-05
1.0510741e-05
1.0118296e-05
1.0124297e-05
1.0055439e-05
1.0059269e-05
1.0025728e-05
1.0030017e-05
1.0015862e-05
1.001566e-05
1.0009449e-05
1.0007616e-05
1.000498e-05
1.0003794e-05
1.0002788e-05
1.0002308e-05
1.0002081e-05
1.0002074e-05
1.000199e-05
1.0001851e-05
1.000171e-05
1.0001593e-05
1.0001514e-05
1.0001488e-05
1.0001506e-05
1.0001557e-05
1.0001629e-05
1.0001629e-05
1.0001501e-05
1.0001531e-05
1.0001408e-05
1.000141e-05
1.0001487e-05
1.0001542e-05
1.0001649e-05
1.0001757e-05
1.0001866e-05
1.0001978e-05
1.000202e-05
1.0001966e-05
1.0001816e-05
1.000142e-05
1.00009e-05
1.0000904e-05
0.0012355868
0.0029821703
0.0038437133
0.0039766536
0.0032338394
0.0011531609
7.1904066e-05
1.0389181e-05
1.0116384e-05
1.0122009e-05
1.0054562e-05
1.0058314e-05
1.0025517e-05
1.0029601e-05
1.0015758e-05
1.0015415e-05
1.0009369e-05
1.0007512e-05
1.0004931e-05
1.0003752e-05
1.000277e-05
1.00023e-05
1.000208e-05
1.0002072e-05
1.0001987e-05
1.0001849e-05
1.0001709e-05
1.0001593e-05
1.0001514e-05
1.0001487e-05
1.0001504e-05
1.0001552e-05
1.0001624e-05
1.0001628e-05
1.0001501e-05
1.0001532e-05
1.0001408e-05
1.0001408e-05
1.0001484e-05
1.0001535e-05
1.0001641e-05
1.0001746e-05
1.0001851e-05
1.000196e-05
1.0002e-05
1.0001934e-05
1.000178e-05
1.0001381e-05
1.0000868e-05
1.0000871e-05
0.0012346353
0.0029614296
0.003788788
0.0038716979
0.0030646176
0.00097998829
5.2590929e-05
1.0319283e-05
1.01145e-05
1.0119649e-05
1.0053674e-05
1.0057319e-05
1.0025306e-05
1.0029168e-05
1.0015662e-05
1.0015163e-05
1.0009291e-05
1.0007407e-05
1.0004884e-05
1.000371e-05
1.0002753e-05
1.0002292e-05
1.000208e-05
1.000207e-05
1.0001984e-05
1.0001847e-05
1.0001708e-05
1.0001593e-05
1.0001513e-05
1.0001485e-05
1.0001502e-05
1.0001548e-05
1.0001619e-05
1.0001627e-05
1.0001501e-05
1.0001533e-05
1.0001408e-05
1.0001406e-05
1.0001482e-05
1.000153e-05
1.0001632e-05
1.0001736e-05
1.0001838e-05
1.0001943e-05
1.000198e-05
1.0001908e-05
1.0001744e-05
1.0001342e-05
1.0000839e-05
1.0000843e-05
0.0012336722
0.0029401951
0.0037328737
0.0037653655
0.0028854724
0.00082179362
3.8488195e-05
1.0278902e-05
1.0112633e-05
1.0117222e-05
1.0052776e-05
1.0056289e-05
1.0025095e-05
1.002872e-05
1.0015572e-05
1.0014911e-05
1.0009214e-05
1.0007303e-05
1.0004836e-05
1.0003668e-05
1.0002736e-05
1.0002285e-05
1.000208e-05
1.0002068e-05
1.0001981e-05
1.0001845e-05
1.0001707e-05
1.0001592e-05
1.0001512e-05
1.0001484e-05
1.00015e-05
1.0001544e-05
1.0001614e-05
1.0001627e-05
1.0001501e-05
1.0001534e-05
1.0001409e-05
1.0001404e-05
1.0001481e-05
1.0001527e-05
1.0001624e-05
1.0001726e-05
1.0001824e-05
1.0001926e-05
1.0001959e-05
1.000188e-05
1.0001708e-05
1.0001305e-05
1.0000813e-05
1.0000814e-05
0.0012327203
0.0029180818
0.0036736618
0.0036561631
0.0026960802
0.00068200958
2.8603019e-05
1.025507e-05
1.0110779e-05
1.0114745e-05
1.0051873e-05
1.0055231e-05
1.0024885e-05
1.002826e-05
1.0015488e-05
1.0014659e-05
1.0009138e-05
1.0007198e-05
1.0004788e-05
1.0003627e-05
1.0002719e-05
1.0002278e-05
1.000208e-05
1.0002065e-05
1.0001978e-05
1.0001842e-05
1.0001705e-05
1.0001591e-05
1.0001511e-05
1.0001482e-05
1.0001499e-05
1.0001541e-05
1.0001609e-05
1.0001626e-05
1.0001501e-05
1.0001535e-05
1.0001409e-05
1.0001403e-05
1.000148e-05
1.0001525e-05
1.0001617e-05
1.0001716e-05
1.0001811e-05
1.0001909e-05
1.0001938e-05
1.0001849e-05
1.0001672e-05
1.0001271e-05
1.000079e-05
1.0000784e-05
0.0012318821
0.0028955751
0.0036136918
0.0035460232
0.0024969803
0.00055683344
2.182794e-05
1.0240206e-05
1.0108936e-05
1.011222e-05
1.0050966e-05
1.0054146e-05
1.0024676e-05
1.0027791e-05
1.0015409e-05
1.0014408e-05
1.0009065e-05
1.0007094e-05
1.0004741e-05
1.0003587e-05
1.0002703e-05
1.0002272e-05
1.0002082e-05
1.0002062e-05
1.0001974e-05
1.0001839e-05
1.0001703e-05
1.000159e-05
1.000151e-05
1.000148e-05
1.0001497e-05
1.0001538e-05
1.0001604e-05
1.0001625e-05
1.0001501e-05
1.0001535e-05
1.0001409e-05
1.0001402e-05
1.000148e-05
1.0001525e-05
1.0001612e-05
1.0001706e-05
1.0001796e-05
1.0001891e-05
1.0001919e-05
1.0001815e-05
1.0001638e-05
1.0001238e-05
1.0000768e-05
1.0000753e-05
0.0012310608
0.0028718312
0.0035514517
0.0034328089
0.002289397
0.00044555026
1.7294026e-05
1.0230297e-05
1.0107103e-05
1.0109664e-05
1.0050057e-05
1.0053043e-05
1.0024469e-05
1.0027314e-05
1.0015333e-05
1.001416e-05
1.000899e-05
1.0006991e-05
1.0004694e-05
1.0003547e-05
1.0002687e-05
1.0002265e-05
1.0002084e-05
1.0002059e-05
1.000197e-05
1.0001835e-05
1.0001701e-05
1.0001588e-05
1.0001508e-05
1.0001478e-05
1.0001495e-05
1.0001535e-05
1.00016e-05
1.0001624e-05
1.0001501e-05
1.0001535e-05
1.000141e-05
1.0001401e-05
1.000148e-05
1.0001525e-05
1.0001609e-05
1.0001696e-05
1.000178e-05
1.0001872e-05
1.0001907e-05
1.0001781e-05
1.0001604e-05
1.0001207e-05
1.0000744e-05
1.000072e-05
0.0012301327
0.0028464342
0.00348599
0.0033099254
0.0020756407
0.00034906424
1.4378956e-05
1.0223087e-05
1.0105279e-05
1.0107081e-05
1.0049149e-05
1.0051924e-05
1.0024266e-05
1.0026831e-05
1.0015261e-05
1.0013916e-05
1.0008916e-05
1.0006888e-05
1.0004648e-05
1.0003508e-05
1.0002673e-05
1.000226e-05
1.0002085e-05
1.0002056e-05
1.0001966e-05
1.0001832e-05
1.0001698e-05
1.0001586e-05
1.0001507e-05
1.0001476e-05
1.0001493e-05
1.0001532e-05
1.0001595e-05
1.0001622e-05
1.0001501e-05
1.0001534e-05
1.000141e-05
1.00014e-05
1.000148e-05
1.0001527e-05
1.0001607e-05
1.0001686e-05
1.0001764e-05
1.0001853e-05
1.0001898e-05
1.0001747e-05
1.0001572e-05
1.0001177e-05
1.0000718e-05
1.0000684e-05
0.0012290049
0.0028191602
0.003417339
0.0031859304
0.0018595601
0.00026734788
1.2579647e-05
1.0217257e-05
1.0103458e-05
1.0104479e-05
1.0048244e-05
1.0050791e-05
1.0024067e-05
1.0026343e-05
1.0015192e-05
1.001368e-05
1.0008842e-05
1.0006787e-05
1.0004602e-05
1.0003471e-05
1.0002658e-05
1.0002254e-05
1.0002086e-05
1.0002053e-05
1.0001962e-05
1.0001828e-05
1.0001695e-05
1.0001584e-05
1.0001505e-05
1.0001474e-05
1.0001491e-05
1.000153e-05
1.000159e-05
1.0001621e-05
1.0001501e-05
1.0001534e-05
1.000141e-05
1.0001399e-05
1.000148e-05
1.0001528e-05
1.0001605e-05
1.0001676e-05
1.0001748e-05
1.0001833e-05
1.0001886e-05
1.0001715e-05
1.0001541e-05
1.000115e-05
1.0000692e-05
1.0000644e-05
0.0012276447
0.0027900183
0.003341541
0.0030592797
0.0016438443
0.00019993657
1.1514143e-05
1.0212021e-05
1.0101638e-05
1.0101868e-05
1.0047344e-05
1.004965e-05
1.0023872e-05
1.0025854e-05
1.0015124e-05
1.0013458e-05
1.0008768e-05
1.0006688e-05
1.0004557e-05
1.0003434e-05
1.0002645e-05
1.0002249e-05
1.0002086e-05
1.000205e-05
1.0001957e-05
1.0001824e-05
1.0001691e-05
1.0001581e-05
1.0001503e-05
1.0001472e-05
1.0001489e-05
1.0001527e-05
1.0001586e-05
1.0001619e-05
1.00015e-05
1.0001533e-05
1.0001411e-05
1.0001399e-05
1.000148e-05
1.0001529e-05
1.0001604e-05
1.0001665e-05
1.0001732e-05
1.0001812e-05
1.0001869e-05
1.0001686e-05
1.000151e-05
1.0001124e-05
1.0000664e-05
1.00006e-05
0.0012263568
0.0027612599
0.0032663346
0.0029279909
0.0014317414
0.00014575893
1.0907953e-05
1.020684e-05
1.0099818e-05
1.0099247e-05
1.0046451e-05
1.0048502e-05
1.0023683e-05
1.0025366e-05
1.0015058e-05
1.0013237e-05
1.0008693e-05
1.0006591e-05
1.0004513e-05
1.0003399e-05
1.0002632e-05
1.0002245e-05
1.0002086e-05
1.0002047e-05
1.0001953e-05
1.0001819e-05
1.0001687e-05
1.0001579e-05
1.0001501e-05
1.000147e-05
1.0001486e-05
1.0001525e-05
1.0001581e-05
1.0001618e-05
1.00015e-05
1.0001531e-05
1.0001411e-05
1.0001398e-05
1.0001479e-05
1.000153e-05
1.0001603e-05
1.0001654e-05
1.0001715e-05
1.0001791e-05
1.0001847e-05
1.000166e-05
1.000148e-05
1.00011e-05
1.0000638e-05
1.0000553e-05
0.0012249233
0.0027312295
0.0031901534
0.0027894139
0.0012273617
0.00010373478
1.057791e-05
1.0201518e-05
1.0097994e-05
1.0096626e-05
1.0045566e-05
1.0047355e-05
1.0023501e-05
1.002488e-05
1.0014994e-05
1.0013021e-05
1.0008619e-05
1.0006496e-05
1.0004469e-05
1.0003365e-05
1.000262e-05
1.0002241e-05
1.0002086e-05
1.0002043e-05
1.0001948e-05
1.0001815e-05
1.0001683e-05
1.0001576e-05
1.0001499e-05
1.0001468e-05
1.0001484e-05
1.0001523e-05
1.0001577e-05
1.0001616e-05
1.0001499e-05
1.000153e-05
1.0001411e-05
1.0001398e-05
1.0001479e-05
1.0001531e-05
1.0001601e-05
1.0001643e-05
1.0001699e-05
1.0001769e-05
1.0001824e-05
1.0001635e-05
1.000145e-05
1.0001077e-05
1.0000616e-05
1.0000504e-05
0.0012233092
0.0026997639
0.0031101212
0.0026417498
0.0010341974
7.224186e-05
1.0404503e-05
1.0196662e-05
1.0096153e-05
1.0093998e-05
1.0044692e-05
1.0046209e-05
1.0023325e-05
1.0024398e-05
1.0014931e-05
1.0012809e-05
1.0008544e-05
1.0006404e-05
1.0004427e-05
1.0003333e-05
1.0002608e-05
1.0002238e-05
1.0002085e-05
1.000204e-05
1.0001943e-05
1.000181e-05
1.0001679e-05
1.0001572e-05
1.0001497e-05
1.0001466e-05
1.0001482e-05
1.0001522e-05
1.0001572e-05
1.0001613e-05
1.0001498e-05
1.0001528e-05
1.0001411e-05
1.0001398e-05
1.0001478e-05
1.0001531e-05
1.0001598e-05
1.0001631e-05
1.0001682e-05
1.0001747e-05
1.0001808e-05
1.0001609e-05
1.0001421e-05
1.0001055e-05
1.0000598e-05
1.0000464e-05
0.0012216201
0.0026674085
0.0030270294
0.002487132
0.00085707271
4.9781823e-05
1.0315016e-05
1.0192098e-05
1.0094249e-05
1.0091344e-05
1.004383e-05
1.0045071e-05
1.0023157e-05
1.0023923e-05
1.0014868e-05
1.0012602e-05
1.0008469e-05
1.0006314e-05
1.0004385e-05
1.0003302e-05
1.0002597e-05
1.0002235e-05
1.0002085e-05
1.0002036e-05
1.0001938e-05
1.0001805e-05
1.0001675e-05
1.0001569e-05
1.0001494e-05
1.0001464e-05
1.000148e-05
1.000152e-05
1.0001568e-05
1.0001611e-05
1.0001497e-05
1.0001526e-05
1.0001411e-05
1.0001398e-05
1.0001478e-05
1.0001531e-05
1.0001596e-05
1.0001619e-05
1.0001666e-05
1.0001724e-05
1.0001797e-05
1.0001581e-05
1.0001392e-05
1.0001033e-05
1.0000582e-05
1.0000429e-05
0.0012199292
0.002634796
0.0029413488
0.0023255291
0.00069781174
3.4515009e-05
1.0268551e-05
1.0187421e-05
1.0092281e-05
1.0088649e-05
1.0042983e-05
1.0043946e-05
1.0022997e-05
1.0023456e-05
1.0014804e-05
1.0012401e-05
1.0008395e-05
1.0006227e-05
1.0004344e-05
1.0003272e-05
1.0002587e-05
1.0002232e-05
1.0002084e-05
1.0002032e-05
1.0001933e-05
1.00018e-05
1.000167e-05
1.0001565e-05
1.0001492e-05
1.0001462e-05
1.0001477e-05
1.0001519e-05
1.0001563e-05
1.0001608e-05
1.0001496e-05
1.0001523e-05
1.0001411e-05
1.0001398e-05
1.0001476e-05
1.0001532e-05
1.0001594e-05
1.0001608e-05
1.000165e-05
1.00017e-05
1.0001785e-05
1.0001552e-05
1.0001364e-05
1.0001011e-05
1.0000566e-05
1.0000399e-05
0.0012184416
0.0026025365
0.0028567167
0.0021535334
0.00055917278
2.4809638e-05
1.0243207e-05
1.0182697e-05
1.0090255e-05
1.008598e-05
1.004215e-05
1.0042834e-05
1.0022846e-05
1.0022999e-05
1.0014739e-05
1.0012205e-05
1.000832e-05
1.0006143e-05
1.0004304e-05
1.0003245e-05
1.0002577e-05
1.000223e-05
1.0002084e-05
1.0002029e-05
1.0001928e-05
1.0001794e-05
1.0001665e-05
1.0001561e-05
1.000149e-05
1.0001461e-05
1.0001475e-05
1.0001518e-05
1.0001558e-05
1.0001605e-05
1.0001495e-05
1.0001521e-05
1.0001411e-05
1.0001398e-05
1.0001475e-05
1.0001532e-05
1.0001592e-05
1.0001598e-05
1.0001635e-05
1.0001675e-05
1.0001759e-05
1.0001524e-05
1.0001337e-05
1.0000989e-05
1.0000552e-05
1.0000373e-05
0.0012170825
0.0025698226
0.0027778689
0.0019716912
0.00044275847
1.9001279e-05
1.0227889e-05
1.0177907e-05
1.0088187e-05
1.008334e-05
1.0041334e-05
1.0041741e-05
1.0022705e-05
1.0022552e-05
1.0014672e-05
1.0012017e-05
1.0008246e-05
1.0006062e-05
1.0004266e-05
1.0003218e-05
1.0002568e-05
1.0002228e-05
1.0002083e-05
1.0002025e-05
1.0001923e-05
1.0001788e-05
1.0001659e-05
1.0001557e-05
1.0001488e-05
1.0001459e-05
1.0001472e-05
1.0001516e-05
1.0001554e-05
1.0001601e-05
1.0001494e-05
1.0001518e-05
1.0001411e-05
1.0001398e-05
1.0001474e-05
1.0001532e-05
1.0001592e-05
1.0001587e-05
1.0001622e-05
1.000165e-05
1.0001719e-05
1.0001496e-05
1.000131e-05
1.0000969e-05
1.0000541e-05
1.0000353e-05
0.0012156353
0.0025348245
0.0026905281
0.0017801431
0.00034227795
1.5333099e-05
1.0217316e-05
1.0173057e-05
1.0086079e-05
1.0080727e-05
1.0040535e-05
1.0040668e-05
1.0022571e-05
1.0022113e-05
1.0014605e-05
1.0011835e-05
1.0008172e-05
1.0005985e-05
1.0004229e-05
1.0003194e-05
1.000256e-05
1.0002226e-05
1.0002083e-05
1.0002021e-05
1.0001917e-05
1.0001782e-05
1.0001654e-05
1.0001554e-05
1.0001487e-05
1.0001458e-05
1.000147e-05
1.0001514e-05
1.0001549e-05
1.0001598e-05
1.0001492e-05
1.0001515e-05
1.0001411e-05
1.0001398e-05
1.0001472e-05
1.0001533e-05
1.0001594e-05
1.0001578e-05
1.0001609e-05
1.0001627e-05
1.0001689e-05
1.0001469e-05
1.0001284e-05
1.0000948e-05
1.0000526e-05
1.0000343e-05
0.00121435
0.0024987769
0.002603075
0.0015832773
0.00025871377
1.3127274e-05
1.0209259e-05
1.0168152e-05
1.0083937e-05
1.0078142e-05
1.0039754e-05
1.0039618e-05
1.0022449e-05
1.0021646e-05
1.0014536e-05
1.001166e-05
1.00081e-05
1.0005911e-05
1.0004193e-05
1.000317e-05
1.0002551e-05
1.0002225e-05
1.0002082e-05
1.0002018e-05
1.0001912e-05
1.0001776e-05
1.0001649e-05
1.0001552e-05
1.0001485e-05
1.0001457e-05
1.0001467e-05
1.0001512e-05
1.0001544e-05
1.0001594e-05
1.000149e-05
1.0001511e-05
1.0001411e-05
1.0001398e-05
1.0001471e-05
1.0001536e-05
1.0001602e-05
1.0001571e-05
1.0001597e-05
1.0001605e-05
1.0001667e-05
1.0001442e-05
1.0001257e-05
1.0000927e-05
1.0000512e-05
1.0000342e-05
0.0012131838
0.00246079
0.0025117121
0.0013858121
0.00019104666
1.1852649e-05
1.0202517e-05
1.0163198e-05
1.0081766e-05
1.0075591e-05
1.0038991e-05
1.0038593e-05
1.002234e-05
1.0021206e-05
1.0014464e-05
1.0011492e-05
1.0008028e-05
1.0005841e-05
1.0004159e-05
1.0003148e-05
1.0002543e-05
1.0002224e-05
1.0002082e-05
1.0002014e-05
1.0001905e-05
1.000177e-05
1.0001646e-05
1.000155e-05
1.0001484e-05
1.0001455e-05
1.0001464e-05
1.000151e-05
1.0001539e-05
1.0001589e-05
1.0001487e-05
1.0001507e-05
1.0001411e-05
1.0001399e-05
1.0001469e-05
1.0001539e-05
1.0001613e-05
1.0001565e-05
1.0001585e-05
1.0001584e-05
1.0001622e-05
1.0001415e-05
1.0001231e-05
1.0000908e-05
1.0000499e-05
1.000034e-05
0.0012118092
0.0024176482
0.0024161028
0.0012010553
0.00013805316
1.1143523e-05
1.0196453e-05
1.0158203e-05
1.0079572e-05
1.0073076e-05
1.0038249e-05
1.0037597e-05
1.0022244e-05
1.002079e-05
1.0014389e-05
1.0011333e-05
1.0007957e-05
1.0005775e-05
1.0004126e-05
1.0003127e-05
1.0002536e-05
1.0002222e-05
1.0002082e-05
1.0002009e-05
1.0001899e-05
1.0001765e-05
1.0001643e-05
1.0001548e-05
1.0001481e-05
1.0001453e-05
1.0001462e-05
1.0001507e-05
1.0001534e-05
1.0001584e-05
1.0001484e-05
1.0001503e-05
1.0001412e-05
1.0001399e-05
1.0001467e-05
1.000154e-05
1.0001625e-05
1.0001561e-05
1.0001573e-05
1.0001562e-05
1.0001576e-05
1.0001389e-05
1.0001205e-05
1.0000893e-05
1.0000485e-05
1.0000324e-05
0.0012099547
0.0023689273
0.0023140057
0.0010269803
9.7646984e-05
1.076161e-05
1.0190725e-05
1.0153172e-05
1.007736e-05
1.00706e-05
1.003752e-05
1.0036631e-05
1.0022163e-05
1.0020402e-05
1.0014311e-05
1.0011181e-05
1.0007888e-05
1.0005712e-05
1.0004094e-05
1.0003107e-05
1.0002528e-05
1.0002221e-05
1.0002082e-05
1.0002005e-05
1.0001894e-05
1.0001762e-05
1.0001641e-05
1.0001544e-05
1.0001479e-05
1.0001451e-05
1.0001459e-05
1.0001505e-05
1.0001529e-05
1.0001578e-05
1.0001481e-05
1.0001498e-05
1.0001411e-05
1.00014e-05
1.0001465e-05
1.000154e-05
1.0001637e-05
1.0001556e-05
1.000156e-05
1.0001542e-05
1.0001535e-05
1.0001362e-05
1.0001178e-05
1.0000878e-05
1.0000472e-05
1.0000294e-05
0.0012073277
0.0023141131
0.0022032122
0.00086508888
6.7845779e-05
1.0561124e-05
1.0185166e-05
1.0148111e-05
1.0075134e-05
1.0068168e-05
1.0036811e-05
1.0035666e-05
1.0022096e-05
1.0020054e-05
1.0014232e-05
1.0011038e-05
1.000782e-05
1.0005653e-05
1.0004063e-05
1.0003088e-05
1.000252e-05
1.000222e-05
1.0002082e-05
1.0002e-05
1.0001889e-05
1.000176e-05
1.0001638e-05
1.000154e-05
1.0001475e-05
1.0001449e-05
1.0001457e-05
1.0001502e-05
1.0001524e-05
1.0001572e-05
1.0001477e-05
1.0001494e-05
1.0001411e-05
1.00014e-05
1.0001463e-05
1.0001537e-05
1.0001649e-05
1.0001551e-05
1.0001547e-05
1.0001522e-05
1.0001502e-05
1.0001336e-05
1.0001152e-05
1.0000861e-05
1.0000457e-05
1.0000254e-05
0.00120384
0.0022524096
0.0020716541
0.00071692414
4.6734465e-05
1.0456818e-05
1.0179723e-05
1.0143028e-05
1.00729e-05
1.0065783e-05
1.0036128e-05
1.003473e-05
1.0022047e-05
1.0019732e-05
1.001415e-05
1.0010903e-05
1.0007755e-05
1.0005597e-05
1.0004034e-05
1.0003069e-05
1.0002512e-05
1.0002219e-05
1.0002081e-05
1.0001996e-05
1.0001887e-05
1.0001758e-05
1.0001634e-05
1.0001535e-05
1.0001472e-05
1.0001447e-05
1.0001454e-05
1.0001499e-05
1.0001519e-05
1.0001566e-05
1.0001473e-05
1.0001489e-05
1.0001411e-05
1.0001401e-05
1.000146e-05
1.0001531e-05
1.0001657e-05
1.0001546e-05
1.0001534e-05
1.0001504e-05
1.0001474e-05
1.0001309e-05
1.0001127e-05
1.0000843e-05
1.0000442e-05
1.0000216e-05
0.0011999153
0.0021864284
0.0019250011
0.00058556541
3.2547387e-05
1.0401497e-05
1.0174374e-05
1.013793e-05
1.0070668e-05
1.0063451e-05
1.0035472e-05
1.0033837e-05
1.0022016e-05
1.0019426e-05
1.0014068e-05
1.0010775e-05
1.0007691e-05
1.0005544e-05
1.0004005e-05
1.0003051e-05
1.0002505e-05
1.0002219e-05
1.0002081e-05
1.0001993e-05
1.0001886e-05
1.0001756e-05
1.0001628e-05
1.000153e-05
1.0001469e-05
1.0001444e-05
1.0001452e-05
1.0001496e-05
1.0001513e-05
1.0001559e-05
1.0001468e-05
1.0001485e-05
1.000141e-05
1.0001401e-05
1.0001457e-05
1.0001523e-05
1.0001664e-05
1.000154e-05
1.0001522e-05
1.0001482e-05
1.0001441e-05
1.0001282e-05
1.0001102e-05
1.0000825e-05
1.000043e-05
1.000018e-05
0.0011956603
0.0021170751
0.0017646672
0.00046999433
2.3582687e-05
1.0370129e-05
1.0169071e-05
1.0132826e-05
1.0068444e-05
1.0061179e-05
1.0034848e-05
1.0032987e-05
1.0022004e-05
1.0019141e-05
1.0013984e-05
1.0010657e-05
1.000763e-05
1.0005495e-05
1.0003977e-05
1.0003034e-05
1.0002497e-05
1.000222e-05
1.0002081e-05
1.0001993e-05
1.0001886e-05
1.0001752e-05
1.0001622e-05
1.0001525e-05
1.0001465e-05
1.0001442e-05
1.000145e-05
1.0001492e-05
1.0001508e-05
1.0001551e-05
1.0001463e-05
1.000148e-05
1.000141e-05
1.0001401e-05
1.0001454e-05
1.0001512e-05
1.0001671e-05
1.0001535e-05
1.0001509e-05
1.0001457e-05
1.0001407e-05
1.0001256e-05
1.0001076e-05
1.0000804e-05
1.0000423e-05
1.0000149e-05
0.0011909991
0.0020437117
0.0016032875
0.00037361725
1.8348628e-05
1.0350004e-05
1.0163758e-05
1.0127722e-05
1.0066233e-05
1.0058974e-05
1.0034257e-05
1.0032182e-05
1.0022008e-05
1.0018875e-05
1.00139e-05
1.0010546e-05
1.0007571e-05
1.0005448e-05
1.000395e-05
1.0003017e-05
1.000249e-05
1.0002221e-05
1.0002082e-05
1.0001994e-05
1.0001885e-05
1.0001746e-05
1.0001616e-05
1.0001519e-05
1.0001462e-05
1.0001439e-05
1.0001448e-05
1.0001489e-05
1.0001503e-05
1.0001543e-05
1.0001458e-05
1.0001475e-05
1.0001409e-05
1.0001402e-05
1.0001451e-05
1.0001501e-05
1.0001676e-05
1.000153e-05
1.0001495e-05
1.0001432e-05
1.0001374e-05
1.000123e-05
1.0001054e-05
1.0000782e-05
1.0000418e-05
1.0000123e-05
0.0011861735
0.0019616655
0.0014424478
0.00029030191
1.5020695e-05
1.033484e-05
1.0158395e-05
1.0122627e-05
1.0064044e-05
1.0056845e-05
1.0033703e-05
1.0031425e-05
1.002201e-05
1.0018628e-05
1.0013817e-05
1.0010443e-05
1.0007514e-05
1.0005403e-05
1.0003923e-05
1.0003e-05
1.0002483e-05
1.0002222e-05
1.0002086e-05
1.0001997e-05
1.0001883e-05
1.0001739e-05
1.0001609e-05
1.0001514e-05
1.0001458e-05
1.0001436e-05
1.0001447e-05
1.0001485e-05
1.0001497e-05
1.0001535e-05
1.0001452e-05
1.000147e-05
1.0001409e-05
1.0001402e-05
1.0001447e-05
1.0001488e-05
1.0001674e-05
1.0001525e-05
1.000148e-05
1.0001409e-05
1.0001343e-05
1.0001206e-05
1.0001038e-05
1.0000765e-05
1.0000408e-05
1.0000102e-05
0.0011830913
0.0018845446
0.0012808254
0.00022059091
1.3009176e-05
1.0321987e-05
1.0152959e-05
1.011755e-05
1.0061888e-05
1.0054822e-05
1.0033191e-05
1.0030722e-05
1.0021994e-05
1.00184e-05
1.0013735e-05
1.0010347e-05
1.000746e-05
1.0005361e-05
1.0003897e-05
1.0002984e-05
1.0002477e-05
1.0002223e-05
1.0002089e-05
1.0002e-05
1.0001877e-05
1.0001732e-05
1.0001603e-05
1.0001508e-05
1.0001454e-05
1.0001434e-05
1.0001446e-05
1.0001482e-05
1.0001492e-05
1.0001526e-05
1.0001445e-05
1.0001465e-05
1.0001408e-05
1.0001402e-05
1.0001441e-05
1.0001473e-05
1.0001639e-05
1.0001517e-05
1.0001465e-05
1.0001388e-05
1.0001315e-05
1.0001182e-05
1.0001012e-05
1.0000754e-05
1.0000403e-05
1.0000093e-05
0.0011811331
0.0018063401
0.0011203108
0.00016356234
1.1832363e-05
1.030981e-05
1.0147434e-05
1.0112502e-05
1.0059771e-05
1.0052872e-05
1.0032722e-05
1.0030083e-05
1.0021967e-05
1.0018191e-05
1.0013654e-05
1.0010259e-05
1.0007407e-05
1.000532e-05
1.0003871e-05
1.0002969e-05
1.0002471e-05
1.0002223e-05
1.000209e-05
1.0002001e-05
1.000187e-05
1.0001725e-05
1.0001596e-05
1.0001503e-05
1.0001449e-05
1.0001431e-05
1.0001444e-05
1.0001478e-05
1.0001487e-05
1.0001518e-05
1.0001438e-05
1.0001459e-05
1.0001406e-05
1.0001401e-05
1.0001435e-05
1.0001458e-05
1.0001595e-05
1.0001505e-05
1.0001448e-05
1.0001366e-05
1.0001285e-05
1.0001156e-05
1.0000987e-05
1.000074e-05
1.0000398e-05
1.0000088e-05
0.0011803465
0.001723045
0.00096458881
0.00011837854
1.1169384e-05
1.0297386e-05
1.0141816e-05
1.0107496e-05
1.0057702e-05
1.0051004e-05
1.0032302e-05
1.0029512e-05
1.0021929e-05
1.0018001e-05
1.0013576e-05
1.0010178e-05
1.0007357e-05
1.0005281e-05
1.0003847e-05
1.0002956e-05
1.0002466e-05
1.000222e-05
1.0002092e-05
1.0001998e-05
1.0001863e-05
1.0001718e-05
1.000159e-05