/*--------------------------------*- C++ -*----------------------------------*\
  =========                 |
  \\      /  F ield         | OpenFOAM: The Open Source CFD Toolbox
   \\    /   O peration     | Website:  https://openfoam.org
    \\  /    A nd           | Version:  8
     \\/     M anipulation  |
\*---------------------------------------------------------------------------*/
FoamFile
{
    version     2.0;
    format      ascii;
    class       volScalarField;
    location    "0.299999";
    object      p;
}
// * * * * * * * * * * * * * * * * * * * * * * * * * * * * * * * * * * * * * //

dimensions      [1 -1 -2 0 0 0 0];

internalField   nonuniform List<scalar> 
20000
(
60562.47
60579.477
60596.671
60621.374
60655.116
60699.658
60760.965
60833.679
60925.208
61034.194
61164.241
61326.207
61511.283
61748.575
62014.644
62357.902
62744.362
63237.133
63801.305
64506.943
65329.93
66339.769
67530.775
68965.273
70653.64
72642.731
74940.447
77549.967
80414.816
83406.609
86312.654
88931.108
91152.181
92975.533
94428.533
95574.3
96465.787
97154.032
97681.62
98087.799
98399.393
98647.3
98853.924
99039.178
99220.718
99400.212
99543.402
99687.778
99747.176
100135.72
60728.678
60745.945
60764.104
60790.059
60825.617
60872.917
60938.701
61016.939
61114.164
61229.07
61364.872
61534.077
61725.793
61972.509
62247.434
62603.38
63002.47
63512.172
64094.509
64822.672
65670.951
66709.527
67931.565
69396.64
71111.669
73114.899
75403.198
77966.133
80742.835
83621.978
86427.308
88980.542
91167.964
92975.189
94425.932
95570.736
96459.471
97146.158
97670.738
98074.657
98386.71
98637.458
98848.663
99038.297
99223.351
99404.105
99552.112
99692.445
99787.985
100133.8
60921.348
60938.979
60957.916
60984.761
61021.517
61070.434
61138.267
61218.414
61318.43
61437.048
61576.968
61752.25
61950.122
62205.969
62489.779
62858.331
63270.249
63797.094
64398.202
65149.783
66024.5
67093.503
68348.666
69847.666
71593.946
73618.476
75907.965
78438.711
81143.1
83919.443
86620.088
89094.093
91230.74
93007.191
94439.824
95573.788
96458.355
97144.017
97666.552
98068.859
98380.838
98632.888
98846.319
99038.04
99226.551
99408.741
99560.146
99698.409
99842.378
100132.45
61118.829
61136.937
61156.716
61184.591
61222.819
61273.821
61344.457
61427.597
61531.402
61654.789
61799.698
61981.778
62186.091
62451.307
62744.03
63125.428
63550.528
64095.177
64715.913
65491.94
66394.313
67495.162
68785.275
70320.722
72101.835
74152.878
76450.945
78960.209
81605.544
84290.071
86888.089
89271.774
91343.11
93075.642
94479.554
95594.944
96467.061
97144.895
97665.668
98066.911
98378.635
98631.144
98845.485
99038.341
99231.281
99414.656
99566.887
99706.052
99887.787
100131.84
61328.851
61347.623
61368.417
61397.496
61437.379
61490.657
61564.252
61650.398
61757.618
61885.317
62034.754
62223.354
62433.905
62708.6
63010.511
63405.359
63844.463
64407.942
65049.561
65851.368
66782.976
67917.416
69244.651
70819.131
72638.161
74719.339
77030.432
79524.078
82117.795
84717.591
87214.991
89503.779
91499.861
93177.902
94543.733
95633.371
96487.968
97154.326
97668.194
98066.626
98378.122
98630.703
98845.305
99040.419
99237.171
99421.447
99574.335
99716.012
99930.324
100131.6
61548.764
61568.211
61590.052
61620.39
61661.99
61717.608
61794.218
61883.374
61994.204
62126.433
62280.598
62476.077
62693.198
62977.949
63289.691
63698.87
64152.973
64736.385
65400.139
66229.033
67191.444
68361.227
69727.741
71343.676
73203.283
75317.287
77644.177
80125.71
82672.656
85192.928
87592.078
89782.82
91696.321
93311.399
94631.614
95689.254
96521.441
97172.675
97677.071
98069.896
98378.971
98630.872
98846.338
99044.523
99244.421
99429.121
99582.331
99730.65
99965.894
100132.11
61779.215
61799.317
61822.143
61853.714
61897
61954.901
62034.474
62126.541
62241.034
62377.964
62537.045
62739.799
62963.931
63259.469
63581.832
64006.294
64476.394
65080.827
65768.002
66625.357
67620.278
68827.357
70235.491
71895.358
73797.942
75946.694
78290.707
80761.387
83263.638
85707.288
88009.856
90101.179
91927.119
93472.778
94741.088
95761.317
96566.96
97199.962
97692.434
98077.93
98383.367
98633.775
98849.73
99050.69
99252.974
99437.503
99591.291
99752.456
99994.855
100135.64
62017.764
62038.666
62062.443
62095.316
62140.448
62200.841
62283.674
62378.924
62497.389
62639.451
62803.908
63014.609
63246.397
63553.552
63887.308
64327.901
64814.918
65441.4
66153.25
67040.446
68069.653
69316.084
70768.208
72474.395
74421.994
76606.714
78967.993
81427.513
83885.355
86253.694
88460.852
90452.014
92187.078
93658.572
94870.054
95848.371
96623.802
97235.742
97714.239
98090.85
98391.465
98639.605
98855.666
99058.909
99262.843
99446.451
99601.153
99781.165
100017.91
100141.62
62264.17
62286.109
62310.959
62345.333
62392.649
62455.893
62542.38
62641.172
62763.937
62911.522
63081.774
63301.062
63541.07
63860.505
64206.236
64663.675
65168.485
65818.047
66555.891
67474.404
68539.868
69827.867
71326.481
73081.299
75075.692
77296.892
79674.548
82121.197
84533.34
86826.245
88938.492
90829.219
92471.324
93865.311
95016.178
95948.926
96691.07
97279.519
97742.189
98108.566
98403.336
98648.48
98864.18
99069.137
99273.982
99455.838
99611.898
99813.552
100038.45
100149.1
62520.169
62543.215
62569.232
62605.21
62654.89
62720.979
62811.041
62913.623
63041.062
63194.632
63371.087
63599.508
63848.108
64180.273
64538.45
65013.451
65537.012
66210.733
66975.944
67927.373
69031.21
70363.107
71910.68
73716.289
75758.815
78016.287
80408.406
82839.309
85203.279
87419.598
89436.936
91227.177
92775.19
94089.517
95177.063
96061.418
96767.753
97330.666
97775.936
98130.89
98418.871
98660.349
98875.216
99081.319
99286.336
99465.638
99623.669
99847.691
100057.97
100157.74
62787.41
62811.488
62838.517
62875.93
62927.861
62996.451
63089.851
63196.518
63329.17
63489.225
63672.072
63909.842
64167.157
64512.446
64883.656
65377.088
65920.44
66619.441
67413.519
68399.669
69544.196
70922.441
72521.451
74379.884
76471.472
78764.282
81167.989
83579.254
85891.55
88029.298
89951.247
91641.058
93094.505
94327.952
95350.365
96184.239
96852.794
97388.517
97815.065
98157.583
98437.945
98675.14
98888.69
99095.374
99299.803
99475.956
99637.195
99882.226
100077.24
100167.3
63063.324
63088.733
63117.148
63156.411
63211.128
63282.692
63380.275
63490.909
63628.554
63794.99
63984.03
64231.249
64497.562
64856.67
65241.756
65754.585
66318.784
67044.238
67868.868
68891.744
70079.411
71506.468
73159.307
75072.343
77213.389
79539.776
81951.239
84338.06
86594.424
88651.033
90476.818
92066.363
93425.328
94577.472
95533.754
96315.754
96945.08
97452.345
97859.119
98188.358
98460.38
98692.734
98904.501
99111.193
99314.228
99487.015
99654.009
99915.865
100096.24
100177.55
63350.424
63377.002
63406.596
63447.479
63504.891
63579.295
63681.021
63795.059
63937.325
64110.255
64305.778
64563.1
64839.17
65213.047
65612.897
66145.981
66732.088
67485.314
68342.442
69404.264
70637.627
72115.987
73825.01
75794.191
77984.555
80341.914
82756.36
85113.118
87308.686
89281.133
91009.744
92499.249
93764.213
94835.251
95725.066
96454.388
97043.514
97521.412
97907.615
98222.899
98485.973
98712.992
98922.534
99128.634
99329.39
99499.07
99676.237
99947.106
100114.66
100188.25
63642.263
63670.165
63701.04
63743.672
63804.127
63881.733
63988.64
64106.998
64254.463
64434.696
64637.477
64905.844
65192.424
65581.859
65997.12
66551.246
67160.47
67943.07
68834.897
69937.993
71219.613
72751.731
74519.158
76545.679
78784.517
81169.316
83581.06
85901.449
88030.927
89915.953
91546.309
92936.124
94107.938
95098.615
95922.219
96598.599
97146.997
97594.962
97960.042
98260.86
98514.49
98735.749
98942.66
99147.529
99345.014
99512.268
99705.268
99974.941
100132.24
100199.2
63941.613
63971.098
64003.581
64048.329
64112.369
64192.911
64304.785
64428.149
64581.35
64769.509
64980.073
65260.077
65557.557
65963.018
66394.271
66970.393
67604.294
68418.181
69347.06
70493.796
71826.245
73414.612
75242.575
77327.282
79613.001
82020.777
84423.275
86700.383
88758.132
90552.355
92083.355
93373.938
94453.731
95365.218
96123.34
96746.962
97254.486
97672.256
98015.892
98301.886
98545.684
98760.83
98964.744
99167.686
99360.816
99526.565
99738.821
100001.09
100149.1
100210.23
64251.787
64282.748
64316.705
64363.394
64430.937
64514.118
64630.688
64759.402
64918.696
65115.189
65333.727
65625.624
65934.175
66356.152
66804.273
67403.768
68064.293
68911.527
69879.82
71072.524
72458.378
74105.469
75995.918
78139.116
80469.23
82894.502
85280.398
87506.859
89487.095
91187.175
92617.839
93809.829
94799.021
95632.88
96326.674
96898.116
97364.965
97752.562
98074.647
98345.606
98579.289
98788.046
98988.638
99188.902
99376.559
99541.826
99775.169
100026.68
100165.43
100221.25
64569.127
64601.826
64637.539
64686.517
64758.179
64845.127
64967.185
65101.294
65266.5
65471.269
65697.69
66001.72
66321.735
66761.174
67227.559
67852.194
68541.433
69424.018
70434.028
71675.058
73116.999
74825.332
76780.053
78981.459
81352.556
83788.815
86149.996
88318.073
90214.975
91817.662
93147.168
94241.382
95141.629
95899.734
96530.684
97050.839
97477.501
97835.189
98135.809
98391.655
98615.04
98817.207
99014.176
99210.954
99392.133
99558.133
99813.288
100052.1
100181.4
100232.19
64896.51
64930.868
64968.226
65019.386
65095.023
65185.727
65312.611
65452.191
65623.268
65836.462
66071.021
66387.918
66720.383
67178.761
67665.162
68316.758
69036.684
69956.475
71010.493
72302.302
73803.113
75575.162
77595.603
79854.116
82261.725
84701.42
87029.14
89130.901
90938.755
92441.043
93668.835
94666.34
95479.553
96164.08
96733.962
97203.991
97591.209
97919.471
98198.885
98439.665
98652.666
98848.116
99041.17
99233.591
99407.639
99576.219
99852.346
100077.2
100196.99
100242.96
65229.806
65265.973
65305.092
65358.418
65438.443
65533.147
65664.795
65810.431
65988.041
66210.469
66453.931
66784.928
67131.21
67610.209
68118.306
68798.429
69550.786
70509.591
71610.034
72955.31
74517.887
76356.153
78443.299
80757.042
83195.501
85630.171
87915.098
89942.504
91655.744
93054.925
94180.725
95082.833
95811.143
96424.503
96935.312
97356.574
97705.292
98004.799
98263.416
98489.284
98691.905
98880.583
99069.398
99256.519
99423.426
99597.78
99891.209
100101.5
100211.94
100253.48
65569.332
65607.54
65648.73
65704.709
65789.688
65888.837
66025.529
66177.101
66361.64
66594.31
66847.749
67194.297
67555.751
68056.784
68587.9
69297.795
70084.281
71084.058
72233.611
73635.232
75262.546
77169.32
79323.562
81689.551
84152.007
86572.253
88804.658
90749.726
92363.108
93656.892
94680.803
95489.127
96134.914
96679.738
97133.657
97507.678
97819.01
98090.6
98328.961
98540.169
98732.501
98914.417
99098.607
99279.398
99440.01
99625.277
99928.454
100124.36
100225.86
100263.58
65917.093
65957.354
66000.583
66059.337
66149.213
66252.941
66394.909
66553.522
66745.64
66989.698
67254.251
67617.612
67995.148
68519.145
69074.305
69815.172
70637.698
71680.717
72882.374
74343.414
76038.493
78015.845
80236.875
82651.003
85129.384
87524.942
89694.804
91549.641
93058.323
94244.888
95167.406
95883.824
96449.691
96928.767
97328.104
97656.536
97931.711
98176.367
98395.117
98592.001
98774.22
98949.431
99128.518
99301.887
99457.888
99660.812
99962.932
100145.37
100238.27
100272.89
66272.463
66315.144
66360.803
66422.922
66517.733
66626.443
66774.446
66941.534
67142.183
67398.551
67674.724
68055.553
68449.589
68997.259
69577.586
70350.895
71211.778
72300.686
73557.665
75081.301
76847.076
78896.66
81183.218
83640.043
86125.04
88484.905
90582.036
92339.045
93738.763
94816.921
95639.025
96265.662
96754.449
97170.691
97517.859
97802.474
98042.814
98261.63
98461.509
98644.479
98816.839
98985.433
99158.837
99323.725
99477.389
99703.843
99995.1
100164.63
100248.73
100280.01
66641.608
66686.484
66734.164
66799.192
66898.624
67012.409
67166.643
67343.163
67552.588
67821.357
68108.96
68507.585
68918.601
69490.953
70097.98
70905.652
71807.61
72945.317
74261
75850.471
77689.8
79812.771
82162.581
84655.264
87136.381
89448.862
91462.985
93114.985
94402.162
95371.419
96094.56
96633.691
97048.404
97404.81
97702.291
97944.942
98151.845
98345.983
98527.803
98697.334
98860.155
99022.216
99189.264
99344.864
99498.87
99751.574
100026.47
100182.48
100257.26
100283.87
67018.374
67066.043
67116.521
67185.574
67291.014
67411.617
67571.964
67757.481
67975.13
68256.601
68555.729
68972.993
69401.989
70000.486
70636.227
71480.533
72426.57
73616.154
74993.977
76652.524
78568.009
80764.81
83174.271
85694.467
88160.025
90412.901
92333.849
93874.366
95046.364
95906.969
96533.058
96987.111
97330.835
97630.526
97880.882
98083.442
98258.412
98429.053
98593.697
98750.322
98903.977
99059.538
99219.486
99365.594
99523.286
99802.088
100056.9
100198.55
100264.37
100286
67406.714
67457.124
67510.351
67583.484
67694.936
67821.57
67987.774
68182.238
68407.903
68703.035
69014.71
69451.961
69900.33
70526.728
71193.513
72076.939
73070.204
74314.829
75758.283
77489.181
79483.153
81753.421
84217.501
86755.351
89192.533
91373.176
93191.103
94614.639
95669.843
96422.587
96953.767
97325.402
97601.154
97847.448
98053.314
98217.537
98362.197
98510.529
98658.93
98803.234
98948.131
99097.125
99249.187
99386.626
99552.761
99853.392
100085.64
100212.01
100268.92
100286.84
67802.823
67855.993
67911.84
67989.054
68106.33
68239.022
68412.27
68616.975
68851.545
69161.559
69486.689
69945.401
70414.668
71070.923
71771.276
72696.404
73740.143
75043.041
76555.656
78362.142
80436.433
82778.693
85290.648
87834.724
90229.682
92325.334
94031.234
95333.73
96271.467
96917.38
97355.711
97648.112
97858.833
98055.353
98219.411
98346.814
98462.859
98590.152
98723.273
98855.888
98992.44
99134.662
99278.077
99409.053
99590.55
99902.912
100111.92
100222.93
100271.09
100287.12
68206.47
68262.91
68321.969
68403.984
68527.715
68667.191
68847.896
69063.624
69307.618
69633.448
69972.586
70454.337
70946.289
71634.52
72371.059
73340.494
74438.022
75802.519
77387.966
79273.19
81429.145
83840.539
86391.954
88929.162
91267.277
93265.368
94851.712
96030.67
96850.619
97390.554
97737.722
97954.831
98103.665
98254.298
98379.069
98471.005
98559.982
98667.741
98786.543
98908.128
99036.727
99171.821
99306.003
99434.178
99639.879
99948.018
100134.79
100232.1
100272
100287.2
68622.782
68682.409
68744.543
68831.29
68961.485
69107.75
69295.524
69522.479
69776.138
70119.039
70473.45
70980.083
71496.727
72219.013
72994.37
74010.754
75165.523
76595.129
78257.134
80224.073
82462.105
84938.143
87518.594
90034.329
92300.449
94189.375
95650.922
96704.912
97406.23
97840.83
98098.61
98244.893
98335.946
98444.484
98531.979
98590.089
98653.106
98743.171
98848.59
98959.818
99080.788
99208.285
99333.113
99463.314
99701.131
99988.086
100153.12
100236.8
100272.23
100285.73
69046.511
69109.66
69175.323
69267.43
69404.806
69558.641
69753.961
69992.996
70257.309
70620.018
70991.01
71524.32
72067.415
72825.743
73642.633
74708.757
75924.417
77422.881
79165.263
81216.619
83536.063
86070.406
88667.477
91145.74
93324.676
95094.671
96428.549
97355.456
97935.898
98266.352
98438.534
98517.61
98556.686
98626.041
98677.518
98704.34
98742.046
98816.338
98909.305
99010.835
99124.387
99243.763
99360.021
99497.915
99768.513
100026.12
100168.71
100238.92
100270.19
100281.28
69479.222
69546.211
69615.831
69713.664
69858.574
70020.609
70224.682
70477.536
70754.067
71137.793
71526.689
72088.244
72659.513
73455.899
74317.3
75436.194
76716.686
78287.969
80114.525
82252.394
84651.07
87235.177
89834.362
92258.111
94335.494
95979.561
97183.777
97978.089
98436.667
98665.797
98758.378
98773.021
98767.073
98798.432
98815.076
98813.951
98827.338
98887.067
98968.607
99061.071
99167.251
99277.998
99387.807
99540.248
99836.676
100062.73
100183.41
100239.67
100264.3
100273.77
69923.296
69994.473
70068.546
70172.451
70325.58
70497.164
70710.966
70978.893
71268.331
71673.699
72081.298
72672.595
73274.049
74110.751
75019.989
76195.009
77544.52
79192.819
81107.23
83332.941
85806.886
88429.909
91014.72
93366.432
95329.709
96843.645
97912.621
98568.832
98906.065
99039.399
99060.072
99012.308
98967.073
98960.562
98944.912
98918.3
98910.307
98955.094
99026.442
99110.423
99209.086
99310.784
99417.746
99593.486
99899.646
100096.11
100197
100239.81
100256.27
100262.63
70383.004
70458.585
70537.504
70647.605
70809.636
70991.133
71214.415
71497.63
71799.969
72227.887
72655.234
73278.158
73912.288
74791.851
75752.621
76987.399
78410.381
80140.007
82145.629
84459.218
87002.281
89650.766
92203.059
94465.567
96305
97685.599
98608.737
99123.595
99343.815
99392.06
99343.383
99238.337
99154.124
99113.584
99067.636
99015.67
98991.717
99020.216
99082.771
99158.773
99249.596
99342.083
99450.893
99659.279
99952.553
100123.17
100207.39
100239.76
100249.78
100246.26
70856.772
70936.911
71020.99
71137.586
71308.84
71500.308
71733.085
72032.381
72348.407
72800.592
73249.358
73906.294
74575.946
75501.08
76517.318
77815.821
79316.958
81132.327
83231.913
85631.956
88235.423
90893.503
93393.908
95551.5
97260.371
98499.515
99267.247
99640.26
99755.359
99724.097
99608.08
99450.99
99328.787
99257.755
99182.87
99107.202
99070.869
99082.643
99137.573
99205.958
99288.499
99372.252
99488.055
99731.701
99996.279
100142.79
100212.55
100239.08
100246.49
100223.36
71340.7
71425.844
71515.796
71639.61
71820.529
72023.39
72266.723
72583.67
72914.739
73393.381
73865.3
74558.789
75266.968
76240.453
77316.447
78683.05
80267.215
82172.573
84367.928
86850.871
89503.187
92152.553
94581.427
96620.849
98194.139
99277.281
99883.415
100122.03
100144.15
100034.08
99854.703
99650.221
99491.669
99393.386
99290.999
99193.646
99146.19
99143.195
99190.811
99251.741
99325.556
99402.216
99530.532
99803.286
100033.52
100157.24
100214.91
100237.72
100244.08
100196.86
71836.783
71927.477
72024.475
72156.278
72347.258
72562.738
72817.43
73153.514
73500.889
74008.162
74505.184
75237.34
75987.319
77012.23
78152.737
79592.18
81264.323
83263.563
85555.242
88115.088
90801.752
93422.146
95760.585
97671.62
99099.909
100012.69
100455.14
100576.92
100507.86
100322.35
100083.94
99836.11
99643.536
99520.817
99392.77
99275.728
99216.112
99202.622
99242.403
99295.853
99360.652
99433.358
99580.769
99868.757
100065.96
100169.2
100215.79
100234.59
100240.02
100171.44
72348.757
72445.151
72549.686
72689.389
72890.242
73119.445
73386.585
73743.818
74108.733
74646.62
75170.919
75943.55
76739.125
77819.112
79029.353
80546.655
82311.562
84407.901
86794.629
89422.402
92125.853
94695.769
96926.702
98701.715
99968.306
100700.4
100988.15
101005.38
100845.96
100589.49
100296.48
100008.85
99785.142
99640.434
99488.576
99353.192
99281.475
99260.645
99292.162
99338.071
99393.907
99467.037
99641.187
99924.367
100093.82
100179.78
100215.97
100229.51
100233.47
100150.11
72876.697
72978.989
73091.665
73240.179
73451.499
73695.613
73976.321
74356.605
74739.896
75310.117
75863.776
76679.378
77525.02
78664.428
79949.876
81550.094
83412.247
85607.986
88086.275
90769.805
93469.728
95967.503
98076.389
99705.713
100790.98
101337.62
101491.31
101404.68
101158.96
100836.33
100493.04
100168.82
99917.253
99752.614
99578.453
99425.863
99343.272
99317.133
99339.829
99378.296
99425.77
99504.01
99709.861
99969.693
100116.01
100187.13
100214.98
100223.66
100223.36
100132.69
73418.811
73527.915
73650.781
73811.087
74034.264
74293.965
74588.195
74992.746
75395.041
75999.614
76585.639
77447.586
78348.521
79552.003
80918.108
82606.185
84569.554
86865.584
89429.089
92152.662
94826.511
97231.491
99206.735
100673.35
101561.55
101930.37
101964.51
101774.43
101447.64
101063.72
100674.33
100316.67
100040.41
99857.679
99662.334
99493.928
99402.159
99372
99385.272
99416.579
99457.103
99544.493
99779.299
100008.12
100132.55
100190.69
100212.85
100219.34
100207.98
100118.03
73978.042
74095.25
74228.939
74401.703
74637.664
74913.955
75221.41
75652.428
76075.184
76717.18
77339.856
78252.022
79213.68
80485.832
81937.869
83718.593
85786.522
88181.897
90821.04
93565.496
96189.521
98482.956
100313.98
101593.49
102275.89
102488.04
102404.83
102115.32
101713.01
101272.64
100841.15
100453.14
100155.16
99955.922
99740.315
99557.798
99458.389
99424.916
99428.819
99453.066
99489.07
99589.364
99844.742
100040.74
100144.9
100192.26
100210.27
100215.28
100188.7
100105.35
74564.563
74690.087
74830.777
75010.347
75258.69
75554.196
75876.329
76337.513
76783.597
77466.78
78130.873
79096.927
80124.534
81469.867
83012.989
84891.01
87065.774
89557.04
92258.341
95001.376
97551.76
99717.554
101387.56
102458.39
102938.2
103012.18
102811.35
102428.31
101956.13
101464.04
100994.28
100578.95
100261.99
100047.62
99812.737
99618.036
99512.02
99474.976
99471.265
99487.903
99522.521
99641.175
99902.09
100068.25
100154.61
100192.82
100207.23
100211.1
100168.88
100094.46
75165.115
75299.368
75451.029
75641.99
75901.779
76218.6
76557.611
77052.136
77525.223
78253.366
78962.859
79986.151
81084.867
82508.023
84147.399
86127.086
88409.583
90990.111
93736.19
96452.99
98907.103
100931.59
102414.92
103262.06
103557.99
103500.03
103184.84
102714.61
102178.17
101638.95
101134.56
100694.83
100361.4
100133.11
99880.161
99675.203
99563.263
99521.526
99512.749
99521.231
99558.241
99702.022
99948.406
100091.04
100162.63
100192.92
100203.61
100206.55
100150.54
100085.1
75785.342
75929.579
76092.732
76296.572
76569.834
76911.999
77270.6
77802.516
78305.211
79080.905
79839.3
80923.044
82098.429
83604.451
85345.226
87430.362
89819.291
92478.556
95247.95
97912.393
100249.33
102116.62
103385.08
104004.82
104140.57
103949.46
103526.37
102975.48
102380.32
101798.37
101262.82
100801.48
100453.85
100212.75
99943.249
99729.564
99611.854
99564.934
99552.452
99553.457
99595.502
99765.805
99986.936
100109.62
100168.86
100192.2
100199.36
100200.73
100134.85
100076.99
76430.037
76585.959
76762.166
76982.541
77272.303
77642.904
78021.804
78592.666
79126.025
79951.675
80763.204
81911.256
83169.372
84763.653
86610.734
88804.087
91295.277
94018.458
96786.225
99372.293
101573.45
103259.26
104290.3
104695.47
104683.56
104361.2
103837.37
103212.37
102563.84
101943.34
101379.9
100899.61
100539.81
100287.01
100002.61
99781.241
99657.79
99605.512
99589.196
99585.201
99633.314
99827.749
100019.8
100123.83
100172.35
100190.67
100196.01
100191.3
100121.35
100070.04
77114.044
77281.53
77471.045
77711.123
78016.299
78414.172
78811.129
79421.832
79988.139
80867.742
81738.758
82955.375
84302.418
85990.466
87948.278
90250.825
92836.294
95603.824
98342.374
100825.18
102873.51
104344.01
105126.11
105344.21
105182.99
104736.42
104119.33
103426.69
102729.94
102074.85
101486.6
100989.85
100619.72
100356.35
100058.71
99830.198
99701.087
99643.641
99623.194
99616.535
99673.395
99884.764
100047.6
100134.36
100173.96
100188.85
100193.04
100178.68
100109.62
100064.16
77824.196
78005.368
78210.949
78472.659
78791.209
79218.972
79636.192
80291.22
80895.843
81833.127
82770.533
84060.692
85502.623
87289.959
89362.097
91772.289
94439.552
97227.382
99907.918
102264.13
104135.86
105361.19
105899.7
105949.32
105639.51
105076.76
104373.94
103619.94
102879.89
102193.93
101583.75
101072.85
100694.05
100421.28
100111.8
99876.217
99741.458
99679.285
99655.821
99648.172
99719.117
99933.929
100070.61
100142.36
100174.57
100186.63
100189.82
100164.26
100099.45
100059.24
78561.794
78757.957
78979.272
79263.834
79598.497
80061.844
80502.426
81207.127
81855.478
82853.497
83864.056
85232.585
86775.374
88667.391
90856.009
93368.642
96099.953
98879.98
101473.78
103681.93
105343.61
106302.65
106622.63
106506.66
106054.32
105383.93
104602.88
103793.61
103014.88
102301.52
101672.12
101149.2
100763.25
100482.21
100161.85
99918.954
99778.773
99712.978
99688.282
99681.128
99772.873
99973.006
100089.3
100148.69
100174.69
100184.07
100186.41
100149.6
100090.77
100055.14
79330.757
79544.616
79782.355
80092.536
80445.187
80950.583
81417.453
82175.765
82872.415
83934.894
85024.628
86476.698
88126.42
90128.173
92433.119
95038.433
97810.648
100552.11
103031.14
105067.98
106482.15
107171.23
107297.4
107015.25
106429.28
105659.92
104807.98
103949.2
103136.13
102398.6
101752.46
101219.5
100827.79
100539.5
100208.62
99958.248
99813.328
99745.451
99721.265
99715.751
99828.239
100005.53
100104.73
100153.78
100174.4
100181.21
100182.74
100135.92
100083.4
100051.77
80138.878
80373.383
80629.473
80969.456
81340.48
81891.738
82387.095
83202.132
83951.458
85081.979
86257.843
87799.355
89562.156
91677.58
94095.148
96777.635
99562.498
102233.39
104570.98
106404.16
107540.7
107977.32
107920.35
107476.28
106766.35
105906.71
104990.97
104088.15
103244.79
102486.06
101825.48
101284.29
100888.07
100593.34
100251.8
99994.327
99845.856
99777.366
99754.627
99751.588
99880.884
100033.62
100117.52
100157.7
100173.59
100178.35
100178.03
100123.72
100077.13
100049.02
80992.994
81250.112
81525.16
81898.343
82287.383
82888.048
83415.145
84290.48
85097.465
86300.191
87570.399
89208.019
91089.41
93320.174
95841.866
98579.914
101345.08
103913.53
106084.25
107671.22
108515.22
108729.94
108488.11
107891.72
107067.82
106126.42
105153.67
104211.91
103341.99
102564.79
101891.9
101344.14
100944.52
100643.82
100291.28
100027.76
99877.18
99809.137
99787.463
99788.356
99929.125
100057.78
100127.71
100160.43
100172.85
100176.49
100170.66
100113.13
100071.85
100046.84
81895.461
82177.028
82471.765
82881.876
83288.414
83943.416
84506.447
85445.625
86317.317
87597.311
88970.501
90711.116
92714.96
95059.051
97670.287
100436.06
103146.52
105581.08
107552.47
108855.31
109414.23
109425.98
109001.75
108263.79
107336.01
106321.16
105297.78
104321.85
103428.79
102635.62
101952.36
101399.53
100997.44
100691
100327.24
100059.16
99907.691
99840.449
99819.391
99826.773
99971.887
100078.12
100135.33
100161.74
100171.8
100174.65
100160.92
100104.17
100067.52
100045.18
82846.801
83156.524
83472.548
83923.894
84349.905
85063.808
85666.728
86673.465
87620.304
88983.203
90467.552
92317.225
94444.603
96894.948
99574.446
102334.72
104954.56
107224.74
108953.76
109946.12
110252.52
110060.02
109463.33
108595.18
107573.47
106493.04
105425.04
104419.32
103506.24
102699.36
102007.5
101450.96
101047.14
100734.87
100360.02
100088.95
99937.535
99871.46
99851.16
99867.67
100007.9
100094.77
100141.09
100162.24
100170.33
100172.49
100149.67
100096.75
100064.11
100044.09
83853.189
84194.914
84532.618
85031.661
85477.678
86255.389
86903.696
87983.544
89016.539
90468.81
92071.499
94034.4
96282.28
98825.506
101544.95
104262.31
106755.3
108828.13
110268.62
110949.88
111027.78
110632.52
109875.4
108888.63
107782.65
106644.13
105537.07
104505.56
103575.29
102756.78
102057.92
101498.85
101093.87
100775.5
100389.94
100117.4
99966.897
99902.552
99883.488
99911.665
100036.09
100108.13
100145.58
100162.34
100168.52
100170.07
100138.33
100090.6
100061.46
100043.5
84918.093
85296.102
85654.373
86210.681
86679.344
87526.809
88228.421
89388.566
90518.462
92065.946
93791.782
95869.016
98229.239
100844.93
103569.71
106204.57
108534.65
110367.31
111483.91
111880.19
111734.82
111145.64
110240.98
109147.09
107966.08
106776.47
105635.47
104581.81
103636.9
102808.58
102104.19
101543.64
101137.92
100812.98
100417.2
100144.8
99996.071
99934.004
99916.554
99953.99
100059.66
100119.02
100149.01
100161.93
100166.3
100167.26
100127.75
100085.3
100059.32
100043.23
86047.634
86469.631
86849.471
87470.573
87966.303
88890.662
89655.795
90903.21
92139.167
93785.334
95636.105
97825.256
100283.51
102943.59
105633.69
108145.66
110276.89
111816.77
112599.73
112740.09
112371.92
111602.2
110563.27
109373.49
108126.2
106891.97
105721.72
104649.2
103691.92
102855.46
102146.83
101585.73
101179.56
100847.41
100442.1
100171.51
100025.36
99965.814
99950.013
99992.692
100079.7
100127.79
100151.44
100161.11
100164.03
100163.59
100118.54
100080.79
100057.56
100043.12
87256.202
87732.507
88133.512
88828.892
89355.209
90363.088
91202.602
92539.655
93889.081
95635.842
97610.349
99904.566
102439.41
105108.27
107720.21
110068.15
111955.4
113160.03
113628.49
113524.46
112941.34
112005.7
110845.76
109570.86
108265.43
106992.54
105797.26
104708.82
103741.19
102898.06
102186.36
101625.48
101218.94
100878.61
100465.38
100198.05
100054.95
99997.745
99983.299
100027.05
100096.61
100134.65
100153.07
100160.51
100162.73
100157.66
100110.78
100077.05
100056.15
100043.12
88557.677
89101.531
89520.319
90301.535
90863.258
91959.879
92883.631
94306.449
95775.353
97625.028
99719.176
102105.61
104687.05
107322.09
109810.32
111952.79
113541.24
114391.57
114577.84
114229.69
113446.18
112359.86
111091.93
109742.08
108386.07
107079.93
105863.45
104761.69
103785.49
102937.01
102223.28
101663.22
101255.96
100905.93
100488.4
100224.94
100084.92
100029.48
100015.89
100056.96
100110.82
100140.06
100154.19
100159.96
100161.7
100150.23
100104.45
100074.09
100055.18
100043.32
89955.184
90588.045
91024.987
91905.919
92507.481
93691.498
94705.397
96213.387
97806.085
99760.713
101965.6
104422.7
107011.69
109565.08
111882.79
113771.76
115012.58
115522.47
115442.45
114858.04
113890.5
112668.82
111305.37
109890.04
108490.34
107155.85
105921.55
104808.77
103825.57
102972.88
102258.06
101699.19
101290.34
100929.46
100512.1
100252.55
100115.28
100060.8
100047.48
100082.57
100122.85
100144.52
100154.92
100159.22
100160.57
100142.32
100099.26
100071.89
100054.76
100043.76
91476.602
92214.876
92660.564
93650.554
94296.655
95562.478
96674.587
98271.457
99992.404
102050.82
104349.36
106844.63
109393.43
111814.09
113913.75
115491.77
116359.57
116563.13
116217.33
115412.93
114278.69
112936.73
111489.54
110017.48
108580.35
107221.89
105972.76
104850.97
103862.12
103006.25
102291.13
101733.59
101321.9
100950.51
100536.43
100280.9
100145.9
100091.66
100078.01
100104.05
100133.04
100148.47
100155.74
100158.57
100159.28
100134.53
100094.94
100070.17
100054.62
100044.43
93166.922
94008.023
94421.293
95521.489
96229.775
97578.092
98808.241
100499.76
102348.17
104500.67
106863.89
109353.31
111807.76
114042.96
115872.32
117086.11
117592.7
117507.5
116904.97
115899.08
114615.69
113167.85
111647.88
110127.06
108658.1
107279.55
106018.23
104889.15
103895.81
103037.65
102322.88
101766.53
101350.7
100970.12
100561.42
100309.88
100176.51
100121.84
100107.37
100121.94
100141.59
100151.88
100156.61
100158.28
100157.06
100126.98
100091.17
100068.74
100054.62
100045.3
94993.152
95946.731
96342.954
97541.585
98331.752
99769.105
101129.53
102916.68
104882.29
107107.66
109493.9
111923.32
114225.71
116221.89
117720.23
118542.82