/*--------------------------------*- C++ -*----------------------------------*\
  =========                 |
  \\      /  F ield         | OpenFOAM: The Open Source CFD Toolbox
   \\    /   O peration     | Website:  https://openfoam.org
    \\  /    A nd           | Version:  8
     \\/     M anipulation  |
\*---------------------------------------------------------------------------*/
FoamFile
{
    version     2.0;
    format      ascii;
    class       surfaceScalarField;
    location    "0.299999";
    object      phi;
}
// * * * * * * * * * * * * * * * * * * * * * * * * * * * * * * * * * * * * * //

dimensions      [1 0 -1 0 0 0 0];

internalField   nonuniform List<scalar> 
39600
(
-0.00015257501
-0.0080655886
0.0081611768
-0.00022756637
-0.01118322
0.011258505
-0.00031112651
-0.014579144
0.014661176
-0.00040197458
-0.018714281
0.018802891
-0.00049626828
-0.023901958
0.023993445
-0.00058673427
-0.0305112
0.030598131
-0.00074898689
-0.038775134
0.038933142
-0.0010617769
-0.047302568
0.047610516
-0.0014434666
-0.056455999
0.056831861
-0.0018933526
-0.067856677
0.068299533
-0.0024316634
-0.081110108
0.081639837
-0.0030720962
-0.0973923
0.09802239
-0.003836045
-0.11655591
0.11730734
-0.0047484504
-0.13988245
0.14077974
-0.0058357913
-0.16755144
0.16862054
-0.0071358465
-0.20106022
0.20233819
-0.0086840622
-0.24099705
0.24251874
-0.010534422
-0.28922738
0.29104583
-0.012736866
-0.34690171
0.34906558
-0.015370908
-0.41643989
0.41902699
-0.01851235
-0.49979995
0.50288375
-0.022277004
-0.60019898
0.60389254
-0.026792841
-0.72071588
0.72514384
-0.032246767
-0.86565436
0.87099841
-0.038867587
-1.0395284
1.0460123
-0.046971142
-1.2479806
1.255909
-0.056929454
-1.497089
1.5068205
-0.069158662
-1.7938764
1.8058029
-0.083994014
-2.1460425
2.1604874
-0.10169562
-2.5627161
2.5799429
-0.12256279
-3.0553432
3.0756304
-0.14703132
-3.6388527
3.6626944
-0.17569481
-4.3322326
4.3602306
-0.2092229
-5.1588331
5.1916871
-0.24838547
-6.1466547
6.1851122
-0.29383479
-7.3297235
7.3744675
-0.34630019
-8.7459419
8.7976691
-0.40640104
-10.443731
10.503062
-0.47451206
-12.478966
12.546275
-0.55060669
-14.91968
14.994942
-0.63392013
-17.846721
17.929237
-0.72239021
-21.355374
21.443247
-0.81227503
-25.563796
25.653346
-0.89691621
-30.61081
30.695593
-0.96521854
-36.666122
36.735388
-1.0001692
-43.932526
43.969059
-0.97920724
-52.657225
52.639066
-0.84656104
-63.137812
63.009593
-0.57135937
-75.771529
75.502393
-90.817611
90.267261
-0.00010548432
-0.0080055407
-0.00017505202
-0.011114081
-0.00025345629
-0.014502248
-0.00033952178
-0.018630317
-0.00042965151
-0.023814544
-0.00051584892
-0.030428463
-0.00068062529
-0.038614501
-0.00097391859
-0.04701403
-0.0013326325
-0.056103016
-0.0017580522
-0.0674382
-0.0022706452
-0.080605878
-0.0028816438
-0.09679138
-0.0036129579
-0.11583674
-0.0044869947
-0.13902306
-0.0055288662
-0.16652727
-0.0067750672
-0.1998354
-0.0082574913
-0.2395403
-0.010030322
-0.28748527
-0.012138642
-0.34483061
-0.014659324
-0.41396458
-0.017662211
-0.49685289
-0.021261406
-0.59666863
-0.025575853
-0.71648661
-0.030789063
-0.8605474
-0.037119742
-1.03333
-0.044880256
-1.2403877
-0.05444467
-1.4877392
-0.066251967
-1.7823531
-0.080683817
-2.1319679
-0.098050914
-2.5457936
-0.11863871
-3.0352851
-0.14282254
-3.6152563
-0.17115
-4.3045401
-0.20424313
-5.1264107
-0.24283832
-6.1087627
-0.28757875
-7.2856917
-0.33918446
-8.6950694
-0.3982738
-10.385409
-0.4652431
-12.412777
-0.54010737
-14.845579
-0.62214944
-17.765381
-0.70945377
-21.268573
-0.79839999
-25.475083
-0.88264769
-30.526424
-0.95149901
-36.596275
-0.98850588
-43.89387
-0.96743546
-52.675514
-0.84805814
-63.252697
-0.58657914
-76.026402
-91.342665
-9.2430648e-05
-0.007948432
-0.00015691183
-0.011050497
-0.00022856809
-0.014432274
-0.00030603534
-0.018554971
-0.00038517031
-0.023738142
-0.00045339045
-0.030363669
-0.00061133397
-0.038460618
-0.00089692495
-0.046733063
-0.0012415633
-0.055763922
-0.001649903
-0.067036511
-0.0021400352
-0.080123799
-0.0027242067
-0.096216865
-0.0034215411
-0.11515108
-0.0042554733
-0.13820319
-0.005248292
-0.16555153
-0.0064363942
-0.19866789
-0.0078485779
-0.23815291
-0.0095371177
-0.2858265
-0.011543391
-0.34286035
-0.013941881
-0.41160988
-0.016798178
-0.49405027
-0.020220978
-0.59331173
-0.024326962
-0.71246179
-0.02929236
-0.85568241
-0.035332585
-1.0274133
-0.042757091
-1.2331175
-0.051943918
-1.478748
-0.063343757
-1.771206
-0.077369624
-2.1182564
-0.094374309
-2.5291788
-0.11465869
-3.015479
-0.13856275
-3.5918957
-0.16656625
-4.2771356
-0.19924669
-5.0943646
-0.23731075
-6.071378
-0.28139552
-7.2423006
-0.33221763
-8.6449824
-0.39039461
-10.328004
-0.45634341
-12.34761
-0.53010143
-14.772573
-0.61101369
-17.685155
-0.69727419
-21.182807
-0.78545115
-25.387132
-0.86947866
-30.442266
-0.93909208
-36.525652
-0.97848533
-43.852788
-0.96233515
-52.688879
-0.85207436
-63.35837
-0.60385658
-76.267898
-91.841841
-7.9388003e-05
-0.0078954436
-0.00013978042
-0.010991603
-0.00020617346
-0.014367963
-0.00027707061
-0.018486547
-0.00034808525
-0.023670077
-0.00040328131
-0.030312073
-0.0005580929
-0.038309904
-0.00083048218
-0.046465246
-0.0011579003
-0.05544193
-0.0015463908
-0.066654517
-0.0020125084
-0.079665448
-0.0025690474
-0.095669658
-0.0032330613
-0.1144983
-0.0040281528
-0.13742169
-0.0049738274
-0.16462231
-0.0061061138
-0.19755548
-0.0074504146
-0.23683254
-0.0090572559
-0.28424842
-0.010965568
-0.34098696
-0.013245745
-0.40937225
-0.015960737
-0.49138746
-0.019216293
-0.59012029
-0.023123113
-0.70863395
-0.027855621
-0.85104757
-0.03362624
-1.0217627
-0.040743047
-1.2261497
-0.049589983
-1.4700887
-0.060624703
-1.7604108
-0.074283703
-2.1048902
-0.090946792
-2.512878
-0.11092617
-2.995941
-0.13454094
-3.5687904
-0.16222444
-4.2500205
-0.19451261
-5.0626865
-0.23208972
-6.0344604
-0.27556869
-7.1995017
-0.32566043
-8.5956092
-0.38299326
-10.271429
-0.4480027
-12.283387
-0.52075739
-14.700566
-0.6006605
-17.605927
-0.68604159
-21.097916
-0.7736204
-25.299779
-0.85763324
-30.358062
-0.9282313
-36.454024
-0.9702296
-43.809077
-0.95930639
-52.697018
-0.85820206
-63.454807
-0.62377311
-76.495639
-92.314926
-6.6433789e-05
-0.0078459979
-0.00012175919
-0.01093744
-0.00018179197
-0.01430969
-0.0002447737
-0.018425745
-0.00030642147
-0.023611172
-0.00034730457
-0.030274629
-0.00049892833
-0.03816222
-0.00075676946
-0.046211912
-0.00106908
-0.055134912
-0.0014401082
-0.066289836
-0.001884598
-0.079228533
-0.0024159169
-0.095147432
-0.0030486296
-0.1138765
-0.0038068272
-0.13667665
-0.0047069948
-0.16373807
-0.0057850704
-0.19649661
-0.0070632484
-0.23557755
-0.0085916636
-0.28274796
-0.010404306
-0.33920823
-0.012571397
-0.40724637
-0.01515107
-0.4888582
-0.018245967
-0.58708709
-0.021964329
-0.70499128
-0.026477159
-0.84662779
-0.031997294
-1.0163558
-0.038833403
-1.2194529
-0.047374502
-1.4617217
-0.058083887
-1.7499199
-0.071409671
-2.0918276
-0.087752591
-2.4968589
-0.10743496
-2.9766577
-0.13076584
-3.5459277
-0.15813809
-4.2231791
-0.19005497
-5.031348
-0.22716899
-5.9979782
-0.27009037
-7.1572401
-0.31951571
-8.5468863
-0.37608252
-10.215605
-0.44023869
-12.219995
-0.51210276
-14.629456
-0.59112871
-17.527582
-0.67577336
-21.013776
-0.76294055
-25.212852
-0.84711734
-30.273642
-0.91893192
-36.381162
-0.96380577
-43.762484
-0.95831302
-52.699718
-0.86666021
-63.54167
-0.64637044
-76.70929
-92.761618
-5.470995e-05
-0.0077999784
-0.0001057147
-0.010887619
-0.00016020382
-0.014256914
-0.00021604393
-0.018372033
-0.00026904401
-0.023560785
-0.00029750047
-0.030249457
-0.00044742291
-0.038016026
-0.00069335424
-0.045970262
-0.00099089231
-0.054842455
-0.0013448036
-0.065942055
-0.0017680656
-0.078812597
-0.0022745482
-0.094649771
-0.0028767024
-0.11328494
-0.0035987782
-0.13596737
-0.0044546231
-0.16289767
-0.0054799691
-0.1954899
-0.0066940629
-0.23438595
-0.0081463655
-0.28132279
-0.0098675573
-0.33752005
-0.011925517
-0.40522857
-0.014374973
-0.48645792
-0.017316614
-0.58420568
-0.0208559
-0.70152597
-0.025163061
-0.84241156
-0.030450632
-1.0111788
-0.037032004
-1.2130071
-0.045300709
-1.4536217
-0.055723672
-1.7397059
-0.068755753
-2.0790441
-0.084807404
-2.4811112
-0.10420907
-2.9576298
-0.12726241
-3.5233151
-0.15433372
-4.1966108
-0.1858972
-5.0003374
-0.22258329
-5.9619
-0.2649971
-7.1154671
-0.31381667
-8.49875
-0.36969014
-10.160456
-0.43308737
-12.157345
-0.50416054
-14.559112
-0.58244507
-17.449942
-0.66651126
-20.930177
-0.75344099
-25.126117
-0.83799014
-30.188787
-0.91125103
-36.306833
-0.95926493
-43.712754
-0.95953051
-52.696643
-0.87759674
-63.618635
-0.67192925
-76.908474
-93.181863
-4.3471254e-05
-0.0077571912
-9.0198762e-05
-0.010841966
-0.00013904758
-0.014209656
-0.00018768815
-0.018325418
-0.00023197628
-0.023519003
-0.00024920096
-0.030235412
-0.00039816716
-0.037870615
-0.00063317921
-0.045739386
-0.00091655769
-0.054563963
-0.0012541337
-0.06561041
-0.0016569042
-0.078416928
-0.0021395282
-0.09417572
-0.0027119061
-0.11272286
-0.0033988194
-0.13529288
-0.0042115492
-0.16209995
-0.005185779
-0.19453376
-0.0063379881
-0.23325562
-0.0077165962
-0.27997063
-0.0093499783
-0.3359188
-0.011302892
-0.40331469
-0.013628694
-0.48417977
-0.016423578
-0.58146904
-0.01979329
-0.6982274
-0.023906946
-0.83838506
-0.0289812
-1.0062095
-0.035332885
-1.2067834
-0.043361953
-1.4457505
-0.053536493
-1.7297241
-0.066312316
-2.0664947
-0.082104866
-2.4655947
-0.10124674
-2.9388294
-0.12403636
-3.5009316
-0.15082175
-4.170294
-0.18205385
-4.9696266
-0.21834804
-5.9261847
-0.26029136
-7.0741411
-0.30856154
-8.4511413
-0.36382346
-10.105898
-0.42655468
-12.095337
-0.49695971
-14.489415
-0.57463293
-17.372886
-0.65827407
-20.846973
-0.74514788
-25.039398
-0.83027897
-30.103293
-0.90523194
-36.230791
-0.95665992
-43.659618
-0.96300179
-52.687471
-0.89225788
-63.684187
-0.70076228
-77.093635
-93.5754
-3.2962606e-05
-0.0077175496
-7.5778349e-05
-0.010800357
-0.00011934471
-0.014167597
-0.00016103028
-0.01828572
-0.00019648225
-0.023485948
-0.00020403539
-0.030230937
-0.0003522731
-0.03772578
-0.00057621865
-0.045519442
-0.00084547642
-0.054299438
-0.0011668473
-0.06529481
-0.0015493497
-0.078041322
-0.002008349
-0.093725056
-0.0025514936
-0.11218973
-0.0032041454
-0.13465232
-0.0039751408
-0.16134354
-0.004900151
-0.19362634
-0.0059935804
-0.23218346
-0.0073012625
-0.27868866
-0.0088497308
-0.33440168
-0.010701891
-0.40150061
-0.012908319
-0.48201998
-0.015564237
-0.57887004
-0.018773952
-0.69508752
-0.022707109
-0.83453721
-0.027586226
-1.0014335
-0.033733374
-1.2007613
-0.04155523
-1.4380827
-0.051518705
-1.7199461
-0.064077617
-2.0541515
-0.079643569
-2.4502901
-0.098551627
-2.920244
-0.12109632
-3.4787707
-0.14761239
-4.1442219
-0.17853354
-4.939202
-0.21446618
-5.8908064
-0.25599063
-7.0332126
-0.30378091
-8.4039914
-0.35850021
-10.051861
-0.42065793
-12.033877
-0.49050969
-14.420245
-0.56770962
-17.296269
-0.6510926
-20.763989
-0.73809571
-24.952496
-0.8240392
-30.016932
-0.90093555
-36.152786
-0.95605534
-43.602799
-0.96874881
-52.671922
-0.91079082
-63.736833
-0.73303916
-77.265078
-93.942437
-2.2482358e-05
-0.0076812533
-6.0924237e-05
-0.010763027
-9.9014366e-05
-0.014130912
-0.00013338321
-0.018253216
-0.00015918672
-0.023462421
-0.00015807885
-0.030234991
-0.000306181
-0.037580926
-0.00051932524
-0.045310168
-0.00077492512
-0.054048387
-0.0010805201
-0.064994778
-0.0014432347
-0.077685259
-0.0018792668
-0.093297088
-0.002394095
-0.11168459
-0.0030138344
-0.13404429
-0.0037448336
-0.1606267
-0.0046227855
-0.19276548
-0.0056590168
-0.23116794
-0.0068994845
-0.27747326
-0.0083662974
-0.33296541
-0.010122045
-0.39978194
-0.01221485
-0.47997248
-0.014737931
-0.57640211
-0.017796533
-0.69209632
-0.021563388
-0.83085226
-0.026265758
-0.99682946
-0.032234287
-1.1949114
-0.039881725
-1.4305802
-0.049670748
-1.7103291
-0.062050172
-2.0419705
-0.077424756
-2.4351555
-0.096126087
-2.9018401
-0.11844783
-3.4568043
-0.1447163
-4.1183675
-0.17535715
-4.9090282
-0.21096245
-5.8557269
-0.25211634
-6.99263
-0.29948052
-8.3572438
-0.35373753
-9.9982615
-0.41542552
-11.972859
-0.48483306
-14.351489
-0.56170727
-17.219943
-0.64499754
-20.681057
-0.73232914
-24.865213
-0.8192999
-29.929494
-0.89840573
-36.072554
-0.95751227
-43.542001
-0.97688159
-52.64966
-0.93068177
-63.777613
-0.7686917
-77.420767
-94.282824
-1.2673623e-05
-0.0076482704
-4.691251e-05
-0.010729915
-7.973571e-05
-0.014099512
-0.00010697425
-0.018227845
-0.00012288607
-0.023448773
-0.00011477366
-0.030245988
-0.00026411458
-0.037434706
-0.00046698487
-0.045111028
-0.00070920048
-0.053810545
-0.00099938737
-0.064709946
-0.0013428044
-0.077348242
-0.0017567756
-0.092890899
-0.0022446074
-0.11120613
-0.0028329522
-0.1334673
-0.0035258829
-0.15994751
-0.0043585446
-0.19194944
-0.0053396915
-0.23020694
-0.0065134777
-0.27632389
-0.0079020192
-0.33160664
-0.0095647932
-0.3981554
-0.011549411
-0.47803217
-0.013948063
-0.57405754
-0.016866827
-0.68924372
-0.020480581
-0.82731904
-0.025026646
-0.99238013
-0.030843083
-1.1892116
-0.038347284
-1.4232178
-0.047999062
-1.7008439
-0.060236014
-2.0299237
-0.075453842
-2.4201668
-0.093978403
-2.8835989
-0.11610184
-3.4350185
-0.14214675
-4.0927158
-0.17253149
-4.879088
-0.20785114
-5.8209097
-0.24867663
-6.9523542
-0.29568357
-8.3108315
-0.34956131
-9.9450181
-0.41087371
-11.912189
-0.47996667
-14.283017
-0.55664942
-17.143772
-0.6400214
-20.598
-0.72787789
-24.777351
-0.81612728
-29.840731
-0.89771432
-35.989829
-0.96110057
-43.476926
-0.98751848
-52.620275
-0.95282709
-63.806823
-0.80770634
-77.559595
-94.596203
-3.9810558e-06
-0.0076177808
-3.4519024e-05
-0.01070048
-6.2517042e-05
-0.014072922
-8.3069653e-05
-0.018209125
-8.8964642e-05
-0.023445109
-7.5724375e-05
-0.030262029
-0.0002256079
-0.037287787
-0.00041781466
-0.04492244
-0.00064679549
-0.053585822
-0.00092222183
-0.06443975
-0.0012475417
-0.077029152
-0.0016409256
-0.092505096
-0.0021034303
-0.11075274
-0.002662028
-0.13291977
-0.0033183677
-0.15930458
-0.004106752
-0.19117726
-0.0050333058
-0.22930002
-0.0061425021
-0.2752385
-0.0074555686
-0.3303226
-0.0090294914
-0.39661678
-0.010910867
-0.47619389
-0.013192624
-0.57182822
-0.01598345
-0.6865168
-0.019460557
-0.82391928
-0.023869759
-0.98806331
-0.029561106
-1.1836311
-0.036955286
-1.4159574
-0.046505469
-1.6914488
-0.058636967
-2.017968
-0.073732143
-2.4052838
-0.092110505
-2.8654838
-0.11406275
-3.4133807
-0.13991125
-4.067235
-0.17007261
-4.849345
-0.20514513
-5.7863131
-0.24570031
-6.9123245
-0.29241265
-8.2646894
-0.34599384
-9.8920454
-0.40702746
-11.851767
-0.47592905
-14.214702
-0.55257889
-17.067595
-0.63620027
-20.51465
-0.72479604
-24.688695
-0.81456269
-29.750405
-0.89891109
-35.904337
-0.96690159
-43.407241
-1.0006841
-52.583378
-0.97770154
-63.824337
-0.85028286
-77.680745
-94.882274
4.9675376e-06
-0.0075904265
-2.1223387e-05
-0.010675327
-4.384738e-05
-0.014051631
-5.7381247e-05
-0.018197325
-5.2225272e-05
-0.023452398
-3.5765192e-05
-0.030281154
-0.00017883303
-0.037147608
-0.00036161703
-0.044743184
-0.00057890997
-0.053372672
-0.00084125359
-0.06418251
-0.00114994
-0.076726551
-0.0015239933
-0.092138451
-0.0019620782
-0.11032359
-0.0024917713
-0.1324009
-0.0031122322
-0.15869725
-0.0038570178
-0.19044824
-0.0047322368
-0.22844394
-0.0057810236
-0.27421291
-0.0070225497
-0.32910944
-0.0085116843
-0.39516217
-0.010295525
-0.47445227
-0.012465446
-0.56970974
-0.015137136
-0.68390796
-0.018493268
-0.82063928
-0.022789085
-0.98385863
-0.028382813
-1.1781468
-0.035700046
-1.4087714
-0.045184017
-1.6821152
-0.057245994
-2.0060754
-0.072252729
-2.3904806
-0.090515419
-2.8474732
-0.112326
-3.3918701
-0.13800735
-4.0419038
-0.16797903
-4.8197718
-0.20284317
-5.7519035
-0.24318377
-6.8724885
-0.2896706
-8.2187508
-0.34303492
-9.8392649
-0.40390502
-11.79148
-0.47273814
-14.146422
-0.5495071
-16.991259
-0.63356686
-20.430817
-0.72311626
-24.599031
-0.81465657
-29.658265
-0.9020639
-35.81579
-0.97498732
-43.332607
-1.0165247
-52.538501
-1.0056249
-63.829882
-0.89643808
-77.783732
-95.140525
1.2624674e-05
-0.007565148
-1.0353004e-05
-0.010653261
-2.8729621e-05
-0.014034493
-3.6749324e-05
-0.018190946
-2.179484e-05
-0.023469411
-6.4480096e-06
-0.030299163
-0.00014322455
-0.037013584
-0.00031800727
-0.044571839
-0.00052439577
-0.053170291
-0.00077418142
-0.063937742
-0.0010664673
-0.076440184
-0.0014212944
-0.091790927
-0.0018352331
-0.10991836
-0.0023364806
-0.13191028
-0.002921828
-0.15812466
-0.0036256865
-0.18975972
-0.0044530411
-0.22763525
-0.0054449885
-0.27324364
-0.0066178653
-0.32796435
-0.0080266955
-0.39378707
-0.0097180399
-0.47280208
-0.011784714
-0.56769296
-0.014345763
-0.68140766
-0.017597397
-0.81746062
-0.021802586
-0.97974048
-0.027327719
-1.1727257
-0.034600704
-1.4016222
-0.044053455
-1.6728026
-0.056080037
-1.9942061
-0.07103143
-2.3757187
-0.089210438
-2.8295298
-0.11090933
-3.3704521
-0.13645534
-4.0166865
-0.16627406
-4.7903285
-0.20097746
-5.7176307
-0.24115679
-6.8327909
-0.28749066
-8.1729411
-0.34073331
-9.7865794
-0.40153962
-11.731225
-0.4704424
-14.078036
-0.54748532
-16.914608
-0.63217222
-20.346312
-0.72289566
-24.508139
-0.8164744
-29.564048
-0.90723911
-35.723899
-0.98545625
-43.252658
-1.0351068
-52.485252
-1.0368786
-63.822933
-0.94640454
-77.868113
-95.370468
2.042302e-05
-0.0075426448
1.0425121e-06
-0.010634782
-1.2719e-05
-0.014021953
-1.4387396e-05
-0.018190729
1.1888406e-05
-0.023497714
2.5727958e-05
-0.030315346
-0.00010795863
-0.036882609
-0.00027363617
-0.044409388
-0.00046854005
-0.052979271
-0.00070502138
-0.063706038
-0.00098073275
-0.076170213
-0.0013165021
-0.091462178
-0.0017071843
-0.10953614
-0.0021807882
-0.13144693
-0.0027330121
-0.15758477
-0.0033985206
-0.18910911
-0.0041799824
-0.22687192
-0.0051165913
-0.27232925
-0.0062245812
-0.3268836
-0.0075569281
-0.39248786
-0.0091621054
-0.47123723
-0.011134541
-0.56576964
-0.013599155
-0.67900278
-0.016760218
-0.81437163
-0.02089796
-0.9756886
-0.026384952
-1.1673418
-0.033646865
-1.3944822
-0.043103145
-1.6634829
-0.055127937
-1.9823335
-0.070055884
-2.3609737
-0.088182447
-2.81163
-0.10980171
-3.349102
-0.13524608
-3.9915561
-0.16495016
-4.7609828
-0.19954136
-5.6834509
-0.23961995
-6.7931744
-0.28587711
-8.1271863
-0.33908134
-9.7339072
-0.39994542
-11.670883
-0.46904677
-14.009418
-0.54653375
-16.837473
-0.63203965
-20.260943
-0.72417293
-24.415785
-0.82006003
-29.467488
-0.91449852
-35.628356
-0.99838489
-43.167019
-1.0582207
-52.42156
-1.0716367
-63.804565
-1.0003735
-77.933404
-95.571641
2.8244943e-05
-0.0075232866
1.280606e-05
-0.010620327
4.2565264e-06
-0.014014768
9.2117135e-06
-0.018197241
4.692556e-05
-0.023537576
5.7736433e-05
-0.030328452
-7.1688783e-05
-0.036755824
-0.00022897139
-0.044255248
-0.00041267449
-0.052799327
-0.00063675689
-0.06348657
-0.00089669289
-0.075915803
-0.0012145618
-0.091151066
-0.001583398
-0.10917543
-0.0020313105
-0.13100889
-0.0025525589
-0.15707543
-0.003181175
-0.18849487
-0.0039180793
-0.22615271
-0.0048012766
-0.27146779
-0.0058471277
-0.32586443
-0.0071086383
-0.39125874
-0.0086342123
-0.46975098
-0.010521326
-0.56393019
-0.012902393
-0.67667936
-0.015991613
-0.8113514
-0.020085766
-0.97167622
-0.025565522
-1.16196
-0.032849932
-1.3873129
-0.042342195
-1.6541184
-0.054398323
-1.9704192
-0.069334263
-2.3462091
-0.087439533
-2.7937381
-0.10901013
-3.3277848
-0.13438765
-3.9664746
-0.16401891
-4.7316899
-0.19854773
-5.6493121
-0.23859347
-6.7535693
-0.28484539
-8.0814133
-0.33811412
-9.6811436
-0.39914547
-11.610343
-0.4685929
-13.94042
-0.5466909
-16.759686
-0.633223
-20.174505
-0.72700203
-24.321734
-0.82547867
-29.36831
-0.92391087
-35.52885
-1.0138551
-43.075311
-1.0835901
-52.347865
-1.109892
-63.773399
-1.0584253
-77.979008
-95.743414
3.4673148e-05
-0.007505885
2.2199981e-05
-0.01060883
1.8069686e-05
-0.014011998
2.8650543e-05
-0.018209361
7.6427485e-05
-0.023587442
8.1150478e-05
-0.030335478
-4.3078573e-05
-0.036634213
-0.00019192006
-0.044109519
-0.00036506683
-0.052629875
-0.00057749428
-0.063278669
-0.0008229596
-0.075675724
-0.001124525
-0.090856071
-0.0014725945
-0.10883524
-0.0018962584
-0.13059479
-0.0023882775
-0.15659493
-0.0029811755
-0.18791593
-0.0036752819
-0.22547584
-0.0045078282
-0.27065642
-0.0054953549
-0.32490298
-0.0066887496
-0.39009705
-0.0081403704
-0.46833802
-0.0099521312
-0.56216532
-0.01226484
-0.67442361
-0.015303223
-0.80838116
-0.019379347
-0.96768111
-0.024882627
-1.1565537
-0.032222094
-1.3800865
-0.041783953
-1.644681
-0.053901304
-1.9584397
-0.068875185
-2.331401
-0.086988304
-2.7758309
-0.10854348
-3.3064732
-0.13389158
-3.94141
-0.16349473
-4.7024103
-0.19801905
-5.6151606
-0.23808851
-6.713922
-0.28442236
-8.0355371
-0.33785599
-9.6281898
-0.39917753
-11.549483
-0.46911567
-13.870898
-0.54800091
-16.681073
-0.63576045
-20.086798
-0.73143973
-24.225736
-0.83280165
-29.266226
-0.93556353
-35.425047
-1.0319474
-42.97715
-1.1116308
-52.264172
-1.1517041
-63.728521
-1.1208052
-78.00416
-95.885166
4.1504013e-05
-0.007491131
3.2767254e-05
-0.010601053
3.3813639e-05
-0.014014395
5.0985708e-05
-0.018228034
0.00010902874
-0.023647576
0.00010686426
-0.03033558
-9.0263225e-06
-0.036520882
-0.00015051898
-0.043971063
-0.00031429207
-0.05246971
-0.00051637188
-0.063081029
-0.00074865453
-0.075448699
-0.0010349326
-0.090576205
-0.001363566
-0.10851429
-0.0017637247
-0.13020394
-0.0022271748
-0.15614272
-0.0027854404
-0.18737129
-0.003438642
-0.22483946
-0.0042230567
-0.26989266
-0.0051553802
-0.32399612
-0.0062847422
-0.38899862
-0.0076691479
-0.46699133
-0.0094154091
-0.56046445
-0.01167564
-0.67221834
-0.014687406
-0.80543431
-0.018772846
-0.96367284
-0.024329348
-1.1510891
-0.031758476
-1.3727639
-0.041420074
-1.6351356
-0.053628219
-1.9463607
-0.068666867
-2.3165181
-0.086819094
-2.7578731
-0.10839463
-3.2851278
-0.13375441
-3.9163183
-0.16337579
-4.673095
-0.19795
-5.58094
-0.23811898
-6.6741552
-0.28461815
-7.9894729
-0.33831302
-9.5749482
-0.40005439
-11.488172
-0.47063441
-13.800702
-0.55048633
-16.601456
-0.63969922
-19.997597
-0.73753334
-24.127539
-0.84208201
-29.160941
-0.94952009
-35.3166
-1.0527565
-42.872101
-1.1427386
-52.170157
-1.1972386
-63.669269
-1.1875162
-78.008263
-95.99615
4.7204225e-05
-0.0074781513
4.1477447e-05
-0.010596258
4.7072527e-05
-0.014021321
7.0122478e-05
-0.01825255
0.00013658797
-0.023716098
0.00012679243
-0.03032794
1.7078657e-05
-0.036413696
-0.00011815952
-0.043838809
-0.00027336213
-0.052318018
-0.00046567624
-0.062893056
-0.00068523526
-0.075234277
-0.00095625288
-0.09031146
-0.0012657578
-0.10821229
-0.0016433441
-0.12983548
-0.0020789422
-0.15571813
-0.0026040629
-0.18685952
-0.0032186341
-0.22424131
-0.0039577204
-0.26917375
-0.004837271
-0.32314138
-0.0059099323
-0.38795634
-0.007236407
-0.46570179
-0.0089287515
-0.55881706
-0.011150206
-0.67005102
-0.01415684
-0.80249226
-0.018282689
-0.9596233
-0.023925599
-1.1455378
-0.031473892
-1.3653204
-0.041264236
-1.6254589
-0.053589084
-1.9341616
-0.06872246
-2.3015361
-0.086946283
-2.7398377
-0.10857793
-3.2637183
-0.13399042
-3.8911634
-0.16367979
-4.6436989
-0.19836254
-5.5465956
-0.23870779
-6.6341949
-0.28545433
-7.943141
-0.33952553
-9.5213054
-0.40180918
-11.42629
-0.47318944
-13.729674
-0.5542
-16.520646
-0.64509235
-19.906678
-0.7453481
-24.026883
-0.85339711
-29.052153
-0.96587134
-35.203139
-1.0763756
-42.759693
-1.1770616
-52.06544
-1.2467107
-63.594936
-1.2589182
-77.990585
-96.075697
5.2865898e-05
-0.0074671865
5.0227742e-05
-0.010594548
6.0706832e-05
-0.014033106
9.0498566e-05
-0.018283792
0.0001644734
-0.023792089
0.00014686625
-0.030312442
4.2323825e-05
-0.036311592
-8.6212469e-05
-0.043713218
-0.00023274262
-0.052174915
-0.00041535999
-0.062714679
-0.00062225384
-0.075032388
-0.00087822661
-0.090061615
-0.0011688327
-0.10792902
-0.0015241297
-0.12948912
-0.0019334092
-0.15531967
-0.0024274029
-0.18637859
-0.0030061883
-0.22367862
-0.0037023416
-0.26849731
-0.0045342273
-0.32233374
-0.0055563929
-0.3869638
-0.0068341173
-0.46446001
-0.0084845023
-0.55721015
-0.010686371
-0.66790109
-0.013709896
-0.7995302
-0.017905262
-0.95550028
-0.023667689
-1.1398622
-0.031364206
-1.3577222
-0.041309271
-1.6156202
-0.053778906
-1.9218099
-0.069037087
-2.2864206
-0.087364208
-2.7216893
-0.10908756
-3.2422057
-0.13459461
-3.8659008
-0.16440311
-4.6141686
-0.1992612
-5.5120589
-0.23985431
-6.5939682
-0.28695028
-7.8964383
-0.34149577
-9.4671628
-0.40446621
-11.36369
-0.47681167
-13.65765
-0.55917626
-16.438447
-0.65197436
-19.813814
-0.75493645
-23.923488
-0.8668113
-28.939546
-0.98470627
-35.084268
-1.1028999
-42.639396
-1.2148001
-51.949563
-1.3002162
-63.504952
-1.3350933
-77.950417
-96.123064
5.8548372e-05
-0.007458509
5.9248652e-05
-0.010596169
7.493622e-05
-0.014050085
0.0001123084
-0.018322591
0.00019209977
-0.023873854
0.00016500311
-0.030287392
6.5595439e-05
-0.036214585
-5.6460528e-05
-0.043594028
-0.00019444518
-0.052040268
-0.0003673453
-0.062545923
-0.00056139941
-0.074843225
-0.00080257144
-0.089826453
-0.0010753018
-0.10766349
-0.0014095966
-0.12916361
-0.0017944138
-0.15494548
-0.0022595291
-0.18592629
-0.0028050312
-0.22314889
-0.0034618456
-0.26785971
-0.0042514588
-0.32156786
-0.0052294137
-0.38601485
-0.0064659763
-0.46325885
-0.0080887839
-0.55563029
-0.010290502
-0.6657509
-0.013357457
-0.7965243
-0.017651457
-0.95127831
-0.023563057
-1.1340366
-0.031436154
-1.349946
-0.041563516
-1.6055965
-0.054206293
-1.9092824
-0.069616753
-2.271149
-0.088077578
-2.7034018
-0.10992932
-3.2205577
-0.13557505
-3.8404904
-0.16555661
-4.584454
-0.20065436
-5.4772687
-0.24157718
-6.5533959
-0.28911257
-7.849277
-0.34426265
-9.4123919
-0.40805354
-11.300242
-0.4815315
-13.584462
-0.56545516
-16.354656
-0.66040398
-19.718761
-0.7663562
-23.817079
-0.88240247
-28.822784
-1.0061235
-34.959565
-1.1324392
-42.510629
-1.2561582
-51.822034
-1.3579537
-63.398769
-1.4163255
-77.886978
-96.137445
6.3365031e-05
-0.0074514909
6.6792081e-05
-0.01060051
8.7247885e-05
-0.014071823
0.00013243863
-0.018369201
0.00021555839
-0.02395893
0.00017771838
-0.030251521
8.3169617e-05
-0.036122342
-3.2570818e-05
-0.043481111
-0.00016199473
-0.051914132
-0.00032529871
-0.06238669
-0.00050673496
-0.074666573
-0.00073381035
-0.089605271
-0.00098995171
-0.10741442
-0.0013050635
-0.12885713
-0.0016674535
-0.15459354
-0.0021061266
-0.18550017
-0.0026201188
-0.22265031
-0.0032409485
-0.2672577
-0.0039930989
-0.32083888
-0.0049326212
-0.38510361
-0.0061375545
-0.46208822
-0.0077459443
-0.55406336
-0.0099693309
-0.66357664
-0.013109699
-0.79344188
-0.017533901
-0.94692218
-0.023621787
-1.1280301
-0.031700121
-1.3419586
-0.042037363
-1.5953561
-0.054877946
-1.8965502
-0.070466586
-2.2556916
-0.089092485
-2.6849407
-0.11110998
-3.1987341
-0.13694087
-3.8148834
-0.1671519
-4.5544965
-0.20256284
-5.4421502
-0.24389496
-6.512397
-0.29197278
-7.8015531
-0.34784603
-9.3568739
-0.41260654
-11.235795
-0.48739395
-13.509933
-0.57308274
-16.269065
-0.67043985
-19.621263
-0.77967708
-23.707368
-0.90023451
-28.701533
-1.0302288
-34.828563
-1.1659934
-42.371971
-1.3014148
-51.683076
-1.420028
-63.275982
-1.5028158
-77.799434
-96.118038
6.9088045e-05
-0.0074472613
7.6015744e-05
-0.01060834
0.00010183123
-0.014098904
0.00015632732
-0.018425111
0.00024143372
-0.02404593
0.00019366529
-0.030205644
0.00010467454
-0.036035642
-4.2376829e-06
-0.043374936
-0.00012511622
-0.051796468
-0.00027936136
-0.06223646
-0.0004496846
-0.074500927
-0.00066428179
-0.089396478
-0.00090551207
-0.10718011
-0.0012030538
-0.12856809
-0.0015450034
-0.15426178
-0.0019587455
-0.18509874
-0.0024440479
-0.2221801
-0.0030325403
-0.26668755
-0.0037517342
-0.32014237
-0.0046595139
-0.38422351
-0.005842226
-0.46093941
-0.0074526893
-0.55249383
-0.0097204621
-0.66135784
-0.012963237
-0.79025661
-0.01755049
-0.94240295
-0.02384539
-1.1218159
-0.032153696
-1.3337397
-0.042726378
-1.5848782
-0.05578855
-1.8835938
-0.071580567
-2.2400275
-0.090402523
-2.666279
-0.11262522
-3.1766992
-0.13868925
-3.7890354
-0.16918958
-4.5242399
-0.20497921
-5.4066405
-0.2468196
-6.4708751
-0.29554357
-7.753165
-0.35225872
-9.3004918
-0.4181416
-11.170198
-0.49442267
-13.433878
-0.58210479
-16.181447
-0.68212511
-19.521065
-0.79495664
-23.594053
-0.92038978
-28.575431
-1.0571019
-34.690795
-1.2032847
-42.222686
-1.3507257
-51.5322
-1.4867434
-63.136032
-1.5945995
-77.687213
-96.063436
7.2590668e-05
-0.0074439284
8.1333863e-05
-0.01061805
0.00011091968
-0.01412977
0.00017422569
-0.018489923
0.00025811707
-0.024131629
0.00020551862
-0.030154947
0.00012202148
-0.035954368
1.8983837e-05
-0.043274564
-9.4704244e-05
-0.051685878
-0.00024122979
-0.062093788
-0.00040212074
-0.074344622
-0.00060603401
-0.089198181
-0.00083414624
-0.10695883
-0.0011155156
-0.12829499
-0.0014385087
-0.15394882
-0.0018285631
-0.18472077
-0.0022877797
-0.22173569
-0.0028479789
-0.26614533
-0.0035382998
-0.31947419
-0.0044219338
-0.38336682
-0.0055960971
-0.45979803
-0.0072280046
-0.55090119
-0.009564635
-0.65906769
-0.012938233
-0.78693727
-0.017718653
-0.93768665
-0.024249816
-1.1153607
-0.032814893
-1.3252582
-0.043644426
-1.5741373
-0.056949065
-1.8703888
-0.072971051
-2.2241267
-0.092021622
-2.6473813
-0.1144901
-3.15441
-0.14083663
-3.762895
-0.17168757
-4.4936208
-0.20793948
-5.3706547
-0.25037246
-6.4287446
-0.29984997
-7.7040047
-0.35754477
-9.2431079
-0.42470725
-11.103295
-0.50266698
-13.356113
-0.59256698
-16.091575
-0.6955211
-19.417898
-0.81226824
-23.476821
-0.94294654
-28.4441
-1.0868264
-34.545771
-1.2433797
-42.062901
-1.4041371
-51.368171
-1.5586423
-62.977881
-1.6916107
-77.550253
-95.973952
7.7300576e-05
-0.0074427925
8.8887724e-05
-0.010630639
0.00012319224
-0.014165371
0.00019724009
-0.018565448
0.00027814446
-0.024214452
0.00022955397
-0.030108349
0.00014997098
-0.035876993
5.123381e-05
-0.043178511
-5.7140397e-05
-0.051580526
-0.0001972968
-0.061957454
-0.00034934532
-0.074197034
-0.00054317231
-0.089009911
-0.00075861943
-0.10675006
-0.0010247897
-0.12803693
-0.0013300398
-0.15365345
-0.0016985208
-0.18436418
-0.0021345115
-0.22131421
-0.0026700279
-0.26562744
-0.0033374137
-0.31882846
-0.004205519
-0.38252523
-0.0053860506
-0.45864983
-0.0070595568
-0.54926675
-0.0094925193
-0.656681
-0.013027703
-0.78345629
-0.01802864
-0.93274959
-0.02482299
-1.1086417
-0.033669922
-1.3164937