/*--------------------------------*- C++ -*----------------------------------*\
  =========                 |
  \\      /  F ield         | OpenFOAM: The Open Source CFD Toolbox
   \\    /   O peration     | Website:  https://openfoam.org
    \\  /    A nd           | Version:  8
     \\/     M anipulation  |
\*---------------------------------------------------------------------------*/
FoamFile
{
    version     2.0;
    format      ascii;
    class       pointVectorField;
    location    "0.299999";
    object      pointDisplacement;
}
// * * * * * * * * * * * * * * * * * * * * * * * * * * * * * * * * * * * * * //

dimensions      [0 1 0 0 0 0 0];

internalField   nonuniform List<vector> 
40800
(
(-0.00048144687 0 -0.00039790806)
(-0.00048105874 0 -0.00033016789)
(-0.00048099252 0 -0.0003305225)
(-0.00048137795 0 -0.00039971069)
(-0.00048098416 0 -0.0003305112)
(-0.00048137005 0 -0.00039973382)
(-0.00048096785 0 -0.00033050883)
(-0.00048135446 0 -0.00039976413)
(-0.00048094022 0 -0.00033051379)
(-0.0004813279 0 -0.00039980755)
(-0.00048089653 0 -0.00033053039)
(-0.00048128571 0 -0.00039986975)
(-0.00048083024 0 -0.00033056524)
(-0.0004812215 0 -0.00039995883)
(-0.00048073233 0 -0.00033062816)
(-0.00048112643 0 -0.00040008641)
(-0.00048059058 0 -0.00033073399)
(-0.00048098849 0 -0.00040026911)
(-0.00048038835 0 -0.00033090453)
(-0.00048079134 0 -0.00040053074)
(-0.00048010335 0 -0.00033117199)
(-0.00048051306 0 -0.00040090526)
(-0.0004797057 0 -0.00033158317)
(-0.00048012424 0 -0.0004014411)
(-0.00047915573 0 -0.00033220506)
(-0.00047958584 0 -0.00040220659)
(-0.00047840138 0 -0.00033313278)
(-0.00047884651 0 -0.00040329763)
(-0.00047737441 0 -0.0003345009)
(-0.00047783892 0 -0.00040484919)
(-0.00047598719 0 -0.00033649877)
(-0.00047647649 0 -0.00040705015)
(-0.00047412777 0 -0.0003393887)
(-0.00047464831 0 -0.00041015841)
(-0.00047165514 0 -0.00034354071)
(-0.00047221481 0 -0.00041454281)
(-0.00046839693 0 -0.00034946051)
(-0.00046900493 0 -0.00042069751)
(-0.00046414833 0 -0.00035782317)
(-0.00046481423 0 -0.00042927819)
(-0.00045867613 0 -0.00036952036)
(-0.00045940881 0 -0.00044115708)
(-0.00045172527 0 -0.00038569676)
(-0.00045253097 0 -0.00045744622)
(-0.00044303034 0 -0.00040777168)
(-0.00044391058 0 -0.00047952248)
(-0.00043234886 0 -0.00043740863)
(-0.00043329821 0 -0.00050899701)
(-0.00041947823 0 -0.00047646456)
(-0.00042047898 0 -0.00054767354)
(-0.00040432386 0 -0.000526739)
(-0.00040534755 0 -0.00059729021)
(-0.00038688337 0 -0.00058985182)
(-0.00038788363 0 -0.00065943175)
(-0.00036732755 0 -0.00066655618)
(-0.00036825545 0 -0.00073475198)
(-0.00034593492 0 -0.00075680523)
(-0.00034673549 0 -0.00082316689)
(-0.00032316341 0 -0.00085904743)
(-0.00032378579 0 -0.00092309423)
(-0.00029962616 0 -0.00097052659)
(-0.00030004047 0 -0.0010317944)
(-0.00027602163 0 -0.0010872387)
(-0.00027623245 0 -0.0011452575)
(-0.00025292007 0 -0.0012046715)
(-0.00025294658 0 -0.0012590272)
(-0.00023083051 0 -0.0013183014)
(-0.0002307166 0 -0.0013686259)
(-0.00021014944 0 -0.0014240361)
(-0.00020993551 0 -0.0014701222)
(-0.00019116268 0 -0.0015185442)
(-0.00019089953 0 -0.0015602718)
(-0.00017418437 0 -0.0015984361)
(-0.00017391988 0 -0.0016357601)
(-0.00015927424 0 -0.0016625461)
(-0.00015905224 0 -0.0016955996)
(-0.00014638746 0 -0.0017098782)
(-0.00014621912 0 -0.0017388271)
(-0.00013559452 0 -0.0017408652)
(-0.00013553019 0 -0.001766006)
(-0.0001267236 0 -0.0017568379)
(-0.0001267626 0 -0.0017786606)
(-0.0001191678 0 -0.0017589378)
(-0.00011932643 0 -0.0017781148)
(-0.00011179557 0 -0.001739423)
(-0.00011195063 0 -0.0017555364)
(-0.00010452973 0 -0.0016980361)
(-0.00010471749 0 -0.0017116716)
(-9.7989118e-05 0 -0.0016343365)
(-9.8216529e-05 0 -0.0016454648)
(-9.1396624e-05 0 -0.0015494232)
(-9.1691579e-05 0 -0.0015592044)
(-8.4679102e-05 0 -0.0014437876)
(-8.5095758e-05 0 -0.0014534826)
(-7.3671285e-05 0 -0.0012609037)
(-7.3993928e-05 0 -0.0012679974)
(-5.822732e-05 0 -0.00099503983)
(-5.8509601e-05 0 -0.0010005267)
(-3.8368264e-05 0 -0.00064366781)
(-3.8838474e-05 0 -0.00065120903)
(0 0 0)
(0 0 0)
(-0.00048041878 0 -0.00026388709)
(-0.0004803537 0 -0.0002642169)
(-0.00048034468 0 -0.00026416286)
(-0.00048032743 0 -0.0002641028)
(-0.00048029854 0 -0.00026403825)
(-0.00048025314 0 -0.00026397197)
(-0.00048018457 0 -0.00026390884)
(-0.00048008362 0 -0.00026385699)
(-0.00047993783 0 -0.00026382903)
(-0.00047973029 0 -0.00026384454)
(-0.0004794383 0 -0.0002639324)
(-0.00047903152 0 -0.00026413553)
(-0.00047846969 0 -0.00026451622)
(-0.00047770002 0 -0.00026516486)
(-0.00047665344 0 -0.00026621161)
(-0.00047524133 0 -0.00026784183)
(-0.00047335062 0 -0.00027031733)
(-0.00047083929 0 -0.00027400578)
(-0.00046753381 0 -0.00027941427)
(-0.00046322916 0 -0.00028722697)
(-0.0004576928 0 -0.00029835021)
(-0.0004506715 0 -0.00031395483)
(-0.00044190533 0 -0.00033549869)
(-0.00043115754 0 -0.00036470023)
(-0.0004182389 0 -0.00040346956)
(-0.00040306405 0 -0.00045368128)
(-0.00038564899 0 -0.0005170007)
(-0.00036616623 0 -0.00059432048)
(-0.00034490169 0 -0.00068565786)
(-0.00032231372 0 -0.00078951267)
(-0.00029899019 0 -0.00090316035)
(-0.00027559853 0 -0.0010226027)
(-0.00025269102 0 -0.0011433193)
(-0.00023076101 0 -0.001260708)
(-0.00021019479 0 -0.0013705755)
(-0.00019128086 0 -0.0014694296)
(-0.0001743186 0 -0.0015538626)
(-0.00015938386 0 -0.0016224939)
(-0.00014644662 0 -0.0016742773)
(-0.00013556263 0 -0.0017094928)
(-0.00012657071 0 -0.0017292207)
(-0.00011889691 0 -0.0017344236)
(-0.00011149162 0 -0.0017182162)
(-0.00010422796 0 -0.0016799599)
(-9.7616842e-05 0 -0.0016189604)
(-9.0970194e-05 0 -0.0015360301)
(-8.4092227e-05 0 -0.0014303587)
(-7.3152921e-05 0 -0.0012500477)
(-5.7793159e-05 0 -0.00098666731)
(-3.773096e-05 0 -0.00063331981)
(0 0 0)
(-0.00047953259 0 -0.00019903532)
(-0.000479469 0 -0.00019933538)
(-0.0004794588 0 -0.00019923364)
(-0.00047944003 0 -0.00019911658)
(-0.0004794092 0 -0.00019898518)
(-0.00047936135 0 -0.00019884082)
(-0.00047928967 0 -0.00019868669)
(-0.00047918474 0 -0.00019852817)
(-0.00047903386 0 -0.00019837496)
(-0.00047881974 0 -0.00019824281)
(-0.00047851926 0 -0.00019815674)
(-0.00047810153 0 -0.00019815549)
(-0.00047752564 0 -0.00019829718)
(-0.00047673798 0 -0.00019866831)
(-0.00047566856 0 -0.00019939523)
(-0.00047422763 0 -0.00020066037)
(-0.00047230098 0 -0.00020272373)
(-0.00046974533 0 -0.00020595244)
(-0.00046638613 0 -0.00021085606)
(-0.00046201816 0 -0.00021812716)
(-0.00045640964 0 -0.0002286887)
(-0.00044930977 0 -0.00024373948)
(-0.00044046411 0 -0.00026477699)
(-0.00042964323 0 -0.00029357219)
(-0.0004166711 0 -0.00033208884)
(-0.0004014741 0 -0.00038226702)
(-0.00038408563 0 -0.00044581896)
(-0.00036468222 0 -0.0005237563)
(-0.00034355767 0 -0.0006161498)
(-0.00032116875 0 -0.00072154287)
(-0.00029807973 0 -0.00083723771)
(-0.00027492637 0 -0.00095924856)
(-0.00025224073 0 -0.001083052)
(-0.00023049877 0 -0.0012039865)
(-0.00021007547 0 -0.0013177732)
(-0.00019125993 0 -0.0014207772)
(-0.00017433892 0 -0.0015095647)
(-0.00015940162 0 -0.0015825653)
(-0.00014643192 0 -0.001638672)
(-0.0001354738 0 -0.0016780146)
(-0.00012637578 0 -0.0017014406)
(-0.00011859555 0 -0.0017097457)
(-0.00011115834 0 -0.001696783)
(-0.00010389666 0 -0.001661611)
(-9.7224904e-05 0 -0.0016033042)
(-9.0526072e-05 0 -0.0015223557)
(-8.3501749e-05 0 -0.001416824)
(-7.2621727e-05 0 -0.0012389619)
(-5.7342582e-05 0 -0.00097801492)
(-3.7110556e-05 0 -0.00062319468)
(0 0 0)
(-0.00047840828 0 -0.00013558287)
(-0.000478346 0 -0.00013585721)
(-0.0004783344 0 -0.00013571365)
(-0.00047831384 0 -0.00013554703)
(-0.0004782807 0 -0.00013535561)
(-0.00047822984 0 -0.00013513852)
(-0.00047815428 0 -0.00013489643)
(-0.00047804438 0 -0.00013463238)
(-0.00047788714 0 -0.00013435358)
(-0.00047766492 0 -0.00013407284)
(-0.00047735416 0 -0.00013381213)
(-0.00047692339 0 -0.00013360653)
(-0.00047633096 0 -0.00013351035)
(-0.0004755224 0 -0.00013360596)
(-0.00047442665 0 -0.00013401577)
(-0.00047295278 0 -0.00013491869)
(-0.00047098523 0 -0.00013657275)
(-0.0004683795 0 -0.00013934502)
(-0.00046496001 0 -0.0001437483)
(-0.00046052125 0 -0.00015048525)
(-0.00045483247 0 -0.0001604981)
(-0.00044764576 0 -0.0001750152)
(-0.00043871244 0 -0.00019557483)
(-0.00042781174 0 -0.00022399843)
(-0.00041478094 0 -0.00026230291)
(-0.00039956039 0 -0.00031248516)
(-0.00038220018 0 -0.00037630536)
(-0.00036288292 0 -0.00045487197)
(-0.0003419106 0 -0.00054829677)
(-0.00031973624 0 -0.00065516225)
(-0.00029690174 0 -0.00077279233)
(-0.00027401084 0 -0.00089721916)
(-0.00025157357 0 -0.001023921)
(-0.00023004662 0 -0.0011481951)
(-0.00020979313 0 -0.0012656904)
(-0.00019110054 0 -0.0013726486)
(-0.00017424505 0 -0.0014656031)
(-0.00015932662 0 -0.0015428158)
(-0.00014634231 0 -0.0016031108)
(-0.00013532675 0 -0.0016464716)
(-0.00012613761 0 -0.0016735314)
(-0.00011826249 0 -0.001684927)
(-0.0001107955 0 -0.0016751474)
(-0.00010353598 0 -0.00164301)
(-9.681253e-05 0 -0.0015873805)
(-9.0064089e-05 0 -0.001508412)
(-8.2906621e-05 0 -0.0014031807)
(-7.2077981e-05 0 -0.0012276565)
(-5.6876537e-05 0 -0.00096910049)
(-3.6505682e-05 0 -0.00061327514)
(0 0 0)
(-0.00047705352 0 -7.3500534e-05)
(-0.00047699181 0 -7.3747869e-05)
(-0.00047697834 0 -7.3560603e-05)
(-0.00047695541 0 -7.3342306e-05)
(-0.00047691928 0 -7.3089693e-05)
(-0.00047686469 0 -7.2799954e-05)
(-0.00047678443 0 -7.2471512e-05)
(-0.0004766686 0 -7.2104851e-05)
(-0.00047650389 0 -7.1704157e-05)
(-0.00047627222 0 -7.1279084e-05)
(-0.00047594952 0 -7.0848032e-05)
(-0.00047550368 0 -7.0442386e-05)
(-0.00047489226 0 -7.0112507e-05)
(-0.00047405981 0 -6.9936642e-05)
(-0.00047293415 0 -7.0033118e-05)
(-0.00047142302 0 -7.057728e-05)
(-0.0004694095 0 -7.1825008e-05)
(-0.00046674774 0 -7.4143761e-05)
(-0.00046326116 0 -7.8051573e-05)
(-0.00045874413 0 -8.426332e-05)
(-0.00045296703 0 -9.3742455e-05)
(-0.00044568523 0 -0.00010774878)
(-0.00043665635 0 -0.00012786259)
(-0.00042566935 0 -0.00015595429)
(-0.00041257525 0 -0.00019409221)
(-0.00039733025 0 -0.00024432303)
(-0.00038000067 0 -0.00030845287)
(-0.00036077688 0 -0.00038766729)
(-0.00033996917 0 -0.00048210671)
(-0.00031802491 0 -0.0005903863)
(-0.0002954642 0 -0.00070984812)
(-0.0002728587 0 -0.00083654659)
(-0.00025069464 0 -0.00096596748)
(-0.00022940829 0 -0.0010933811)
(-0.00020934998 0 -0.001214379)
(-0.00019080396 0 -0.0013250963)
(-0.00017403711 0 -0.0014220309)
(-0.00015915839 0 -0.0015032951)
(-0.00014617693 0 -0.0015676389)
(-0.00013512044 0 -0.0016149048)
(-0.00012585493 0 -0.0016455269)
(-0.00011789651 0 -0.001659991)
(-0.00011040265 0 -0.0016533326)
(-0.000103146 0 -0.0016241776)
(-9.6378935e-05 0 -0.0015712025)
(-8.9584023e-05 0 -0.0014942114)
(-8.2305789e-05 0 -0.0013894248)
(-7.1521862e-05 0 -0.0012161402)
(-5.6395673e-05 0 -0.00095993714)
(-3.5915024e-05 0 -0.0006035435)
(0 0 0)
(-0.00047547403 0 -1.2759896e-05)
(-0.00047541299 0 -1.2979979e-05)
(-0.0004753973 0 -1.274836e-05)
(-0.00047537159 0 -1.2477468e-05)
(-0.00047533197 0 -1.2162748e-05)
(-0.00047527299 0 -1.1799678e-05)
(-0.00047518722 0 -1.1384727e-05)
(-0.00047506447 0 -1.0915956e-05)
(-0.00047489107 0 -1.0394711e-05)
(-0.00047464849 0 -9.8275031e-06)
(-0.00047431209 0 -9.2290027e-06)
(-0.00047384905 0 -8.6266057e-06)
(-0.00047321606 0 -8.0664107e-06)
(-0.00047235663 0 -7.622313e-06)
(-0.00047119732 0 -7.4084906e-06)
(-0.00046964446 0 -7.5966721e-06)
(-0.00046757966 0 -8.4407116e-06)
(-0.00046485574 0 -1.0309112e-05)
(-0.00046129517 0 -1.3726513e-05)
(-0.0004566922 0 -1.9422747e-05)
(-0.00045081864 0 -2.8385208e-05)
(-0.00044343356 0 -4.1906897e-05)
(-0.00043430146 0 -6.1611189e-05)
(-0.00042322197 0 -8.9416159e-05)
(-0.00041006055 0 -0.00012743848)
(-0.00039479068 0 -0.00017776895)
(-0.0003774948 0 -0.0002422561)
(-0.00035837257 0 -0.00032214244)
(-0.00033774208 0 -0.00041758585)
(-0.00031604342 0 -0.00052722865)
(-0.00029377509 0 -0.00064842727)
(-0.0002714767 0 -0.00077726173)
(-0.00024960929 0 -0.00090923057)
(-0.00022858755 0 -0.001039591)
(-0.00020874844 0 -0.0011638901)
(-0.00019037148 0 -0.0012781732)
(-0.00017371543 0 -0.0013789011)
(-0.0001588965 0 -0.0014640532)
(-0.00014593507 0 -0.0015323025)
(-0.00013485375 0 -0.0015833554)
(-0.00012552649 0 -0.001617462)
(-0.00011749636 0 -0.0016349628)
(-0.0001099793 0 -0.0016313625)
(-0.00010272665 0 -0.0016051343)
(-9.5923388e-05 0 -0.0015547838)
(-8.9085503e-05 0 -0.0014797642)
(-8.1698148e-05 0 -0.0013755526)
(-7.0953532e-05 0 -0.0012044214)
(-5.5900762e-05 0 -0.00095053991)
(-3.5337454e-05 0 -0.00059398549)
(0 0 0)
(-0.00047367646 0 4.6666739e-05)
(-0.00047361601 0 4.6472569e-05)
(-0.00047359773 0 4.6746404e-05)
(-0.0004735688 0 4.7067066e-05)
(-0.00047352518 0 4.7441079e-05)
(-0.00047346118 0 4.7875291e-05)
(-0.00047336913 0 4.8375642e-05)
(-0.0004732385 0 4.8946406e-05)
(-0.00047305521 0 4.9588926e-05)
(-0.00047280026 0 5.0299514e-05)
(-0.00047244837 0 5.1066761e-05)
(-0.00047196594 0 5.1866812e-05)
(-0.00047130872 0 5.2657561e-05)
(-0.00047041908 0 5.3369414e-05)
(-0.00046922222 0 5.3892543e-05)
(-0.00046762295 0 5.4059056e-05)
(-0.00046550135 0 5.3617486e-05)
(-0.00046270885 0 5.2197884e-05)
(-0.00045906712 0 4.9266155e-05)
(-0.00045437053 0 4.4073994e-05)
(-0.0004483925 0 3.5608071e-05)
(-0.00044089614 0 2.2541372e-05)
(-0.00043165356 0 3.2059157e-06)
(-0.00042047585 0 -2.4362444e-05)
(-0.00040724379 0 -6.2324801e-05)
(-0.00039194937 0 -0.00011281087)
(-0.00037469114 0 -0.00017770639)
(-0.00035567914 0 -0.0002582934)
(-0.00033523871 0 -0.00035473579)
(-0.0003138012 0 -0.00046569687)
(-0.00029184329 0 -0.00058854442)
(-0.00026987255 0 -0.00071938671)
(-0.0002483237 0 -0.00085374079)
(-0.00022758915 0 -0.00098686196)
(-0.00020799172 0 -0.0011142661)
(-0.00018980524 0 -0.0012319237)
(-0.00017328092 0 -0.0013362599)
(-0.00015854112 0 -0.0014251349)
(-0.00014561639 0 -0.0014971439)
(-0.00013452599 0 -0.0015518625)
(-0.00012515129 0 -0.0015893696)
(-0.00011706101 0 -0.0016098667)
(-0.00010952496 0 -0.0016092597)
(-0.00010227792 0 -0.0015859004)
(-9.5445262e-05 0 -0.0015381385)
(-8.8568235e-05 0 -0.001465082)
(-8.1082715e-05 0 -0.0013615608)
(-7.0373102e-05 0 -0.0011925084)
(-5.5392403e-05 0 -0.00094092142)
(-3.4771867e-05 0 -0.00058458654)
(0 0 0)
(-0.00047166781 0 0.00010480683)
(-0.0004716077 0 0.00010463982)
(-0.00047158641 0 0.00010495815)
(-0.00047155373 0 0.00010533149)
(-0.00047150547 0 0.00010576766)
(-0.00047143571 0 0.00010627499)
(-0.00047133649 0 0.00010686146)
(-0.00047119693 0 0.00010753371)
(-0.00047100252 0 0.00010829589)
(-0.00047073369 0 0.00010914749)
(-0.00047036448 0 0.00011008063)
(-0.00046986046 0 0.00011107544)
(-0.0004691763 0 0.0001120941)
(-0.00046825313 0 0.00011307154)
(-0.00046701466 0 0.00011390252)
(-0.00046536407 0 0.00011442329)
(-0.00046317979 0 0.00011438468)
(-0.00046031195 0 0.00011341522)
(-0.0004565817 0 0.00011096641)
(-0.00045178381 0 0.00010626529)
(-0.00044569338 0 9.8272019e-05)
(-0.00043807792 0 8.5626716e-05)
(-0.00042871798 0 6.6614172e-05)
(-0.00041743684 0 3.9226489e-05)
(-0.00040413155 0 1.264087e-06)
(-0.00038881365 0 -4.9438107e-05)
(-0.00037159802 0 -0.00011479715)
(-0.00035270577 0 -0.0001961175)
(-0.00033246857 0 -0.00029355822)
(-0.00031130774 0 -0.00040579822)
(-0.0002896777 0 -0.00053021361)
(-0.00026805402 0 -0.00066294299)
(-0.00024684427 0 -0.00079952711)
(-0.0002264179 0 -0.00093522992)
(-0.00020708323 0 -0.0010655485)
(-0.00018910738 0 -0.0011863922)
(-0.00017273469 0 -0.0012941527)
(-0.00015809251 0 -0.0013865845)
(-0.0001452207 0 -0.0014622052)
(-0.00013413647 0 -0.0015204652)
(-0.00012472837 0 -0.0015612833)
(-0.0001165894 0 -0.0015847281)
(-0.00010903912 0 -0.0015870475)
(-0.0001017997 0 -0.0015664958)
(-9.4943984e-05 0 -0.0015212813)
(-8.8031851e-05 0 -0.0014501756)
(-8.0458503e-05 0 -0.0013474471)
(-6.9780651e-05 0 -0.0011804086)
(-5.4871249e-05 0 -0.00093109509)
(-3.4217308e-05 0 -0.00057533476)
(0 0 0)
(-0.00046945495 0 0.00016168702)
(-0.00046939462 0 0.00016154684)
(-0.00046936984 0 0.00016190948)
(-0.00046933285 0 0.00016233545)
(-0.00046927927 0 0.0001628339)
(-0.00046920295 0 0.00016341472)
(-0.00046909564 0 0.00016408762)
(-0.00046894609 0 0.00016486153)
(-0.00046873928 0 0.00016574321)
(-0.00046845506 0 0.00016673527)
(-0.00046806667 0 0.00016783348)
(-0.00046753876 0 0.00016902202)
(-0.00046682483 0 0.00017026771)
(-0.00046586462 0 0.00017151027)
(-0.00046458023 0 0.00017264952)
(-0.00046287302 0 0.00017352615)
(-0.00046061972 0 0.00017389448)
(-0.00045766917 0 0.00017338375)
(-0.00045384297 0 0.0001714178)
(-0.00044893652 0 0.00016718915)
(-0.00044272608 0 0.00015963861)
(-0.00043498401 0 0.00014737736)
(-0.00042550037 0 0.00012863673)
(-0.00041411131 0 0.00010136829)
(-0.00040073099 0 6.3342294e-05)
(-0.00038539166 0 1.2359566e-05)
(-0.00036822467 0 -5.3520764e-05)
(-0.00034946238 0 -0.00013561047)
(-0.00032944189 0 -0.00023405267)
(-0.0003085733 0 -0.00034753626)
(-0.00028728805 0 -0.00047344365)
(-0.00026602973 0 -0.00060794576)
(-0.00024517812 0 -0.00074661203)
(-0.00022507946 0 -0.00088472389)
(-0.0002060271 0 -0.0010177717)
(-0.0001882808 0 -0.0011416164)
(-0.00017207841 0 -0.0012526198)
(-0.00015755145 0 -0.0013484421)
(-0.00014474816 0 -0.0014275255)
(-0.00013368492 0 -0.0014891998)
(-0.00012425704 0 -0.0015332347)
(-0.00011608071 0 -0.0015595712)
(-0.00010852134 0 -0.0015647477)
(-0.00010129194 0 -0.0015469402)
(-9.4419081e-05 0 -0.0015042269)
(-8.7476065e-05 0 -0.0014350565)
(-7.9824636e-05 0 -0.0013332099)
(-6.9176216e-05 0 -0.0011681294)
(-5.4337828e-05 0 -0.00092107283)
(-3.3672823e-05 0 -0.00056621794)
(0 0 0)
(-0.00046704338 0 0.00021733334)
(-0.00046698264 0 0.00021721993)
(-0.00046695399 0 0.00021762695)
(-0.00046691222 0 0.00021810557)
(-0.00046685277 0 0.00021866613)
(-0.00046676921 0 0.00021932001)
(-0.00046665297 0 0.00022007867)
(-0.00046649236 0 0.0002209533)
(-0.00046627187 0 0.00022195336)
(-0.00046597064 0 0.0002230848)
(-0.00046556111 0 0.00022434721)
(-0.00046500685 0 0.00022572917)
(-0.00046426011 0 0.00022720223)
(-0.00046325909 0 0.00022871113)
(-0.00046192413 0 0.00023016077)
(-0.0004601546 0 0.00023139675)
(-0.00045782526 0 0.00023217674)
(-0.00045478571 0 0.00023210688)
(-0.00045085859 0 0.00023058487)
(-0.00044583763 0 0.000226792)
(-0.00043949989 0 0.00021964822)
(-0.00043162369 0 0.000207737)
(-0.00042200832 0 0.00018925564)
(-0.00041050525 0 0.00016207827)
(-0.00039704898 0 0.00012392227)
(-0.0003816913 0 7.2591734e-05)
(-0.00036457992 0 6.1296596e-06)
(-0.0003459588 0 -7.6768129e-05)
(-0.00032616892 0 -0.000176218)
(-0.00030560806 0 -0.00029091392)
(-0.00028468395 0 -0.00041824267)
(-0.00026380821 0 -0.00055440937)
(-0.00024333241 0 -0.00069501664)
(-0.00022357942 0 -0.00083537167)
(-0.00020482749 0 -0.00097096912)
(-0.00018732837 0 -0.0010976335)
(-0.0001713138 0 -0.0012117005)
(-0.00015691875 0 -0.0013107473)
(-0.000144199 0 -0.0013931432)
(-0.00013317097 0 -0.0014581031)
(-0.00012373662 0 -0.001505256)
(-0.00011553408 0 -0.0015344214)
(-0.00010797112 0 -0.0015423833)
(-0.00010075445 0 -0.0015272531)
(-9.3870072e-05 0 -0.0014869906)
(-8.6900493e-05 0 -0.0014197358)
(-7.9180252e-05 0 -0.0013188487)
(-6.8559842e-05 0 -0.0011556783)
(-5.3792697e-05 0 -0.0009108669)
(-3.3137581e-05 0 -0.00055722587)
(0 0 0)
(-0.00046443846 0 0.00027177123)
(-0.00046437767 0 0.00027168361)
(-0.00046434476 0 0.00027213338)
(-0.00046429778 0 0.00027266228)
(-0.00046423192 0 0.00027328229)
(-0.00046414048 0 0.0002740067)
(-0.00046401449 0 0.00027484925)
(-0.00046384179 0 0.00027582362)
(-0.00046360628 0 0.00027694219)
(-0.00046328637 0 0.00027821413)
(-0.00046285356 0 0.0002796427)
(-0.00046227032 0 0.00028122044)
(-0.00046148751 0 0.00028292345)
(-0.00046044168 0 0.00028470132)
(-0.00045905118 0 0.0002864646)
(-0.0004572132 0 0.00028806416)
(-0.00045480296 0 0.00028923784)
(-0.00045167205 0 0.00028954861)
(-0.00044764004 0 0.00028840249)
(-0.00044249766 0 0.00028499724)
(-0.00043602465 0 0.00027822336)
(-0.00042800565 0 0.00026662942)
(-0.00041824971 0 0.00024840318)
(-0.00040662608 0 0.00022133354)
(-0.00039309301 0 0.00018301562)
(-0.00037772121 0 0.00013126659)
(-0.0003606736 0 6.4160924e-05)
(-0.00034220562 0 -1.9585384e-05)
(-0.00032266052 0 -0.00012005048)
(-0.0003024229 0 -0.00023592949)
(-0.00028187573 0 -0.00036461276)
(-0.00026139869 0 -0.00050234133)
(-0.00024131496 0 -0.00064475498)
(-0.00022192411 0 -0.00078719362)
(-0.00020348919 0 -0.00092516717)
(-0.00018625359 0 -0.0010544738)
(-0.00017044318 0 -0.0011714282)
(-0.00015619575 0 -0.0012735346)
(-0.00014357384 0 -0.0013590931)
(-0.00013259471 0 -0.0014272079)
(-0.00012316673 0 -0.0014773763)
(-0.00011494891 0 -0.001509302)
(-0.0001073881 0 -0.001519975)
(-0.00010018718 0 -0.0015074534)
(-9.3296604e-05 0 -0.0014695874)
(-8.6304882e-05 0 -0.001404225)
(-7.8524611e-05 0 -0.0013043638)
(-6.7931526e-05 0 -0.0011430624)
(-5.3236331e-05 0 -0.00090048871)
(-3.2610792e-05 0 -0.00054834899)
(0 0 0)
(-0.00046164775 0 0.00032502583)
(-0.00046158573 0 0.00032496385)
(-0.00046154816 0 0.00032545632)
(-0.00046149549 0 0.00032603531)
(-0.00046142264 0 0.00032671441)
(-0.00046132257 0 0.00032750892)
(-0.00046118588 0 0.00032843494)
(-0.00046099992 0 0.00032950887)
(-0.0004607479 0 0.00033074612)
(-0.00046040745 0 0.00033215912)
(-0.00045994911 0 0.00033375469)
(-0.00045933415 0 0.00033552921)
(-0.0004585119 0 0.00033746293)
(-0.00045741709 0 0.00033951062)
(-0.00045596579 0 0.00034158985)
(-0.00045405506 0 0.00034354047)
(-0.00045156246 0 0.00034506207)
(-0.00044833645 0 0.0003457171)
(-0.00044419126 0 0.00034492894)
(-0.00043891838 0 0.00034188342)
(-0.0004323012 0 0.00033544794)
(-0.00042413085 0 0.00032413103)
(-0.00041422901 0 0.00030608343)
(-0.00040248212 0 0.0002790744)
(-0.00038887153 0 0.0002405965)
(-0.00037348989 0 0.00018838982)
(-0.00035651537 0 0.00012057734)
(-0.00033821336 0 3.5942346e-05)
(-0.00031892763 0 -6.5546228e-05)
(-0.00029902863 0 -0.00018258139)
(-0.00027887361 0 -0.0003125559)
(-0.00025881035 0 -0.00045174867)
(-0.00023913359 0 -0.00059584003)
(-0.00022011982 0 -0.00074020896)
(-0.00020201707 0 -0.00088039072)
(-0.00018505998 0 -0.0010121668)
(-0.00016946888 0 -0.0011318354)
(-0.00015538381 0 -0.0012368378)
(-0.00014287339 0 -0.0013254089)
(-0.00013195623 0 -0.0013965471)
(-0.00012254701 0 -0.0014496252)
(-0.00011432458 0 -0.0014842368)
(-0.00010677189 0 -0.0014975442)
(-9.958999e-05 0 -0.0014875597)
(-9.2698322e-05 0 -0.0014520325)
(-8.5688916e-05 0 -0.0013885355)
(-7.7857005e-05 0 -0.001289757)
(-6.7291284e-05 0 -0.0011302889)
(-5.2669204e-05 0 -0.00088994957)
(-3.2091737e-05 0 -0.00053957881)
(0 0 0)
(-0.00045867478 0 0.00037712138)
(-0.0004586123 0 0.00037708383)
(-0.00045856969 0 0.00037761768)
(-0.00045851083 0 0.00037824565)
(-0.00045843032 0 0.00037898375)
(-0.00045832074 0 0.00037984946)
(-0.00045817225 0 0.00038086122)
(-0.00045797164 0 0.00038203761)
(-0.00045770149 0 0.00038339645)
(-0.0004573386 0 0.0003849527)
(-0.00045685246 0 0.00038671621)
(-0.00045620304 0 0.00038868685)
(-0.00045533805 0 0.00039084913)
(-0.00045419015 0 0.00039316234)
(-0.00045267408 0 0.00039554825)
(-0.00045068877 0 0.00039782016)
(-0.00044811009 0 0.0003996648)
(-0.00044478031 0 0.00040066728)
(-0.0004405124 0 0.00040023934)
(-0.00043510002 0 0.00039754045)
(-0.00042832998 0 0.00039141636)
(-0.00042000124 0 0.00038033426)
(-0.00040994985 0 0.00036238182)
(-0.00039808045 0 0.00033531292)
(-0.00038439286 0 0.00029663916)
(-0.0003690055 0 0.00024396742)
(-0.0003521157 0 0.00017538426)
(-0.00033399332 0 8.9820265e-05)
(-0.0003149819 0 -1.2699533e-05)
(-0.0002954368 0 -0.00013086432)
(-0.0002756885 0 -0.00026206915)
(-0.00025605297 0 -0.00040263278)
(-0.00023679668 0 -0.00054827882)
(-0.00021817344 0 -0.00069443059)
(-0.00020041652 0 -0.00083665866)
(-0.00018375162 0 -0.00097073581)
(-0.00016839373 0 -0.0010929493)
(-0.00015448478 0 -0.001200686)
(-0.00014209871 0 -0.0012921206)
(-0.00013125598 0 -0.0013661499)
(-0.00012187742 0 -0.0014220292)
(-0.00011366075 0 -0.001459248)
(-0.00010612224 0 -0.0014751108)
(-9.8962833e-05 0 -0.0014675898)
(-9.2074984e-05 0 -0.0014343408)
(-8.5052399e-05 0 -0.0013726793)
(-7.7176822e-05 0 -0.0012750301)
(-6.6639078e-05 0 -0.001117365)
(-5.2091727e-05 0 -0.00087926028)
(-3.1579718e-05 0 -0.00053090721)
(0 0 0)
(-0.00045552679 0 0.00042808199)
(-0.00045546302 0 0.00042807219)
(-0.00045541458 0 0.00042865262)
(-0.00045534857 0 0.00042933613)
(-0.00045525935 0 0.00043013914)
(-0.00045513916 0 0.00043108031)
(-0.00045497773 0 0.00043217951)
(-0.00045476126 0 0.00043345761)
(-0.00045447159 0 0.00043493523)
(-0.00045408458 0 0.00043663066)
(-0.00045356857 0 0.00043855769)
(-0.00045288209 0 0.00044072039)
(-0.00045197107 0 0.00044310806)
(-0.00045076607 0 0.00044568506)
(-0.00044918258 0 0.00044835717)
(-0.00044711992 0 0.00045092374)
(-0.00044444844 0 0.00045308888)
(-0.00044100639 0 0.00045443713)
(-0.00043660733 0 0.00045435614)
(-0.00043104642 0 0.00045198714)
(-0.00042411468 0 0.00044615081)
(-0.00041562073 0 0.00043526292)
(-0.00040541583 0 0.00041735112)
(-0.00039342413 0 0.00039012439)
(-0.00037966417 0 0.00035115127)
(-0.00036427853 0 0.00029797409)
(-0.00034748481 0 0.00022858567)
(-0.00032955659 0 0.00014205304)
(-0.00031083472 0 3.8495519e-05)
(-0.00029165867 0 -8.0773497e-05)
(-0.00027233101 0 -0.0002131501)
(-0.00025313611 0 -0.00035499531)
(-0.00023431242 0 -0.00050207819)
(-0.00021609168 0 -0.00064987099)
(-0.00019869282 0 -0.00079398924)
(-0.00018233245 0 -0.00093020401)
(-0.00016722054 0 -0.0010547965)
(-0.00015350042 0 -0.0011651083)
(-0.00014125084 0 -0.0012592582)
(-0.00013049435 0 -0.0013360459)
(-0.00012115786 0 -0.0013946156)
(-0.00011295702 0 -0.0014343584)
(-0.00010543884 0 -0.0014526952)
(-9.8305569e-05 0 -0.0014475618)
(-9.1426296e-05 0 -0.0014165276)
(-8.4395032e-05 0 -0.0013566678)
(-7.6483471e-05 0 -0.0012601868)
(-6.5974915e-05 0 -0.0011042979)
(-5.1504307e-05 0 -0.00086843141)
(-3.1074138e-05 0 -0.00052232768)
(0 0 0)
(-0.00045220935 0 0.00047793094)
(-0.00045214359 0 0.00047794726)
(-0.00045208897 0 0.00047857201)
(-0.00045201536 0 0.00047930828)
(-0.00045191684 0 0.00048017392)
(-0.00045178523 0 0.00048118919)
(-0.00045160977 0 0.00048237575)
(-0.00045137606 0 0.0004837566)
(-0.00045106515 0 0.00048535471)
(-0.00045065193 0 0.00048719142)
(-0.00045010351 0 0.00048928375)
(-0.00044937687 0 0.00049163975)
(-0.00044841605 0 0.00049425273)
(-0.00044715051 0 0.0004970921)
(-0.00044549736 0 0.00050003648)
(-0.00044335275 0 0.00050288582)
(-0.00044058118 0 0.00050536558)
(-0.0004370193 0 0.00050704372)
(-0.00043248029 0 0.000507296)
(-0.00042676128 0 0.00050524359)
(-0.00041965891 0 0.00049967387)
(-0.0004109935 0 0.00048893975)
(-0.00040063224 0 0.00047100898)
(-0.00038851877 0 0.0004435497)
(-0.00037469538 0 0.00040414043)
(-0.00035932067 0 0.00035038519)
(-0.0003426328 0 0.00028018646)
(-0.00032491486 0 0.00019264772)
(-0.00030649805 0 8.8048539e-05)
(-0.00028770605 0 -3.2298916e-05)
(-0.00026881223 0 -0.00016579023)
(-0.00025006973 0 -0.00030883138)
(-0.00023169114 0 -0.00045726765)
(-0.00021388521 0 -0.00060659955)
(-0.00019685483 0 -0.00075245743)
(-0.00018080944 0 -0.00089064611)
(-0.00016595449 0 -0.0010174486)
(-0.00015243388 0 -0.0011301536)
(-0.00014033118 0 -0.0012268472)
(-0.00012967208 0 -0.0013062605)
(-0.00012038853 0 -0.0013674082)
(-0.00011221322 0 -0.0014095884)
(-0.00010472155 0 -0.0014303159)
(-9.7618191e-05 0 -0.0014274926)
(-9.0752097e-05 0 -0.0013986074)
(-8.3716665e-05 0 -0.0013405131)
(-7.5776461e-05 0 -0.0012452307)
(-6.5298755e-05 0 -0.001091095)
(-5.0907298e-05 0 -0.00085747319)
(-3.0574388e-05 0 -0.00051383364)
(0 0 0)
(-0.00044872584 0 0.00052669113)
(-0.00044865863 0 0.00052673317)
(-0.00044859735 0 0.00052740179)
(-0.0004485156 0 0.00052819016)
(-0.00044840708 0 0.00052911766)
(-0.00044826321 0 0.00053020624)
(-0.00044807269 0 0.00053147952)
(-0.00044782043 0 0.00053296272)
(-0.00044748665 0 0.00053468134)
(-0.0004470452 0 0.00053665956)
(-0.00044646184 0 0.0005389177)
(-0.00044569198 0 0.00054146761)
(-0.00044467762 0 0.00054430718)
(-0.00044334909 0 0.00054739182)
(-0.00044162347 0 0.00055059527)
(-0.00043939136 0 0.0005537273)
(-0.00043651283 0 0.00055651025)
(-0.00043282299 0 0.00055850751)
(-0.00042813468 0 0.00055908302)
(-0.00042224772 0 0.00055733179)
(-0.00041496848 0 0.0005519763)
(-0.00040612915 0 0.00054131885)
(-0.00039561034 0 0.00052330279)
(-0.00038337483 0 0.0004955669)
(-0.00036949325 0 0.00045564203)
(-0.00035414131 0 0.00040120508)
(-0.0003375728 0 0.0003301607)
(-0.00032007994 0 0.00024161094)
(-0.00030198382 0 0.00013596945)
(-0.00028359064 0 1.4569283e-05)
(-0.0002651454 0 -0.00012001058)
(-0.00024686903 0 -0.00026420365)
(-0.00022894724 0 -0.00041392408)
(-0.00021156622 0 -0.00056470185)
(-0.00019491211 0 -0.0007121512)
(-0.00017918999 0 -0.00085214662)
(-0.000164601 0 -0.00098098515)
(-0.00015128892 0 -0.001095895)
(-0.00013934187 0 -0.001194936)
(-0.00012878992 0 -0.0012768189)
(-0.00011956967 0 -0.0013404307)
(-0.00011142922 0 -0.0013849587)
(-0.0001039702 0 -0.0014079919)
(-9.6900628e-05 0 -0.0014073991)
(-9.0052198e-05 0 -0.001380595)
(-8.3017086e-05 0 -0.0013242269)
(-7.5055332e-05 0 -0.0012301668)
(-6.4610592e-05 0 -0.0010777637)
(-5.0301054e-05 0 -0.00084639566)
(-3.0079968e-05 0 -0.00050542012)
(0 0 0)
(-0.0004450826 0 0.00057438488)
(-0.00044501299 0 0.00057445247)
(-0.00044494455 0 0.00057516486)
(-0.00044485404 0 0.00057600514)
(-0.00044473479 0 0.00057699419)
(-0.00044457776 0 0.00057815568)
(-0.00044437107 0 0.00057951521)
(-0.00044409891 0 0.00058110027)
(-0.00044374059 0 0.00058293893)
(-0.00044326882 0 0.00058505826)
(-0.00044264794 0 0.0005874818)
(-0.00044183158 0 0.00059022485)
(-0.00044076064 0 0.00059328986)
(-0.00043936701 0 0.00059660971)
(-0.00043756493 0 0.00060006031)
(-0.00043523901 0 0.00060346931)
(-0.00043224655 0 0.00060654785)
(-0.00042842055 0 0.00060885307)
(-0.00042357339 0 0.00060973958)
(-0.00041751208 0 0.00060824788)
(-0.00041005502 0 0.0006030152)
(-0.0004010404 0 0.00059234078)
(-0.00039036186 0 0.00057416591)
(-0.000378004 0 0.00054611169)
(-0.00036406694 0 0.00050565879)
(-0.0003487521 0 0.00045044283)
(-0.00033231886 0 0.00037848525)
(-0.00031506344 0 0.00028894974)
(-0.00029730437 0 0.00018227097)