/*--------------------------------*- C++ -*----------------------------------*\
  =========                 |
  \\      /  F ield         | OpenFOAM: The Open Source CFD Toolbox
   \\    /   O peration     | Website:  https://openfoam.org
    \\  /    A nd           | Version:  8
     \\/     M anipulation  |
\*---------------------------------------------------------------------------*/
FoamFile
{
    version     2.0;
    format      ascii;
    class       volScalarField;
    location    "0.299999";
    object      rho;
}
// * * * * * * * * * * * * * * * * * * * * * * * * * * * * * * * * * * * * * //

dimensions      [1 -3 0 0 0 0 0];

internalField   nonuniform List<scalar> 
20000
(
0.76841062
0.76956371
0.77101146
0.77394815
0.78000636
0.79223518
0.81529143
0.82475176
0.82388556
0.82549829
0.82554197
0.82737351
0.82829682
0.83064873
0.83255615
0.83578691
0.83895842
0.84351092
0.84843948
0.85493281
0.86235455
0.87165548
0.88254379
0.89572875
0.91115281
0.92924906
0.94995697
0.97322072
0.99845146
1.0245548
1.0497354
1.0724096
1.0915057
1.1071143
1.1195193
1.1293232
1.1368616
1.1426989
1.1471536
1.1505952
1.1532262
1.1552905
1.1570171
1.1585483
1.1600457
1.1615102
1.1627461
1.1638086
1.1645908
1.1676029
0.77028917
0.77127641
0.77267126
0.77566449
0.78195763
0.79467502
0.81786946
0.82653439
0.82569689
0.82741334
0.82749972
0.82942695
0.83039858
0.83284619
0.83482866
0.83817724
0.84146246
0.84616719
0.85126099
0.85795301
0.8656009
0.87515056
0.88630793
0.8997502
0.91539935
0.93361083
0.95423146
0.9771056
1.0016086
1.0267553
1.0510639
1.0730212
1.0917463
1.1071682
1.1195427
1.1293358
1.136842
1.1426609
1.147079
1.1504913
1.1531234
1.1552129
1.1569847
1.1585561
1.1600839
1.1615557
1.1627257
1.1638621
1.1646061
1.1676853
0.77259003
0.77341477
0.77477369
0.77784844
0.78443535
0.79781392
0.82094875
0.82858197
0.82770213
0.82946538
0.82956194
0.83155272
0.83257152
0.83510895
0.83717248
0.84063885
0.84404566
0.84890686
0.85417837
0.86108317
0.86897698
0.87880062
0.89025857
0.90400013
0.91992053
0.93830424
0.95891385
0.98147146
1.0052962
1.0294953
1.0528299
1.0740887
1.0923493
1.1074834
1.119665
1.1293474
1.136821
1.1426373
1.1470461
1.1504497
1.153084
1.1551805
1.1569646
1.1585489
1.1601051
1.1615901
1.1628247
1.1639067
1.165219
1.1676431
0.77481777
0.77548182
0.7768004
0.77995242
0.78684464
0.80096558
0.82387596
0.83054773
0.82975361
0.83159358
0.8317233
0.83379522
0.83486612
0.8374963
0.83963991
0.84322507
0.84675532
0.851778
0.85723293
0.86435662
0.8725031
0.88260747
0.89437504
0.90842974
0.92464598
0.9432427
0.96390207
0.98624476
1.0095328
1.0329098
1.0553274
1.0757455
1.0934
1.1081257
1.1200451
1.1295609
1.1369103
1.1426432
1.1470378
1.1504331
1.153067
1.1551673
1.1569594
1.1585533
1.1601493
1.161642
1.1628667
1.1639736
1.165529
1.1676444
0.77723918
0.77774329
0.77902249
0.78225772
0.78947173
0.80444916
0.82693315
0.83274905
0.83195599
0.83385553
0.83400618
0.83614819
0.83726798
0.8399895
0.84221751
0.84592682
0.84959014
0.85478364
0.86043504
0.86779038
0.87620512
0.88660718
0.8987052
0.91309689
0.92963458
0.94847092
0.96920972
0.99137164
1.014163
1.0367603
1.0582646
1.0778343
1.0948116
1.1090455
1.1206167
1.1299021
1.1370992
1.1427336
1.1470593
1.1504274
1.1530622
1.1551628
1.1569567
1.1585727
1.1601984
1.1616983
1.1629349
1.1640617
1.1659086
1.1676414
0.77971086
0.78006375
0.78130701
0.78463259
0.7921805
0.80812429
0.82997026
0.83503996
0.83423877
0.83620436
0.83638387
0.83860221
0.8397771
0.84259571
0.84491528
0.84875623
0.8525619
0.85793526
0.86379346
0.87139049
0.88008566
0.8907987
0.90324343
0.91799003
0.93486866
0.95396404
0.97480191
0.99681122
1.0191498
1.0410156
1.0616344
1.080321
1.0965587
1.1102297
1.121394
1.1303983
1.1373966
1.1428962
1.1471411
1.1504577
1.1530685
1.1551624
1.1569665
1.1586099
1.160261
1.161763
1.1629998
1.1641951
1.1661843
1.1676481
0.78228798
0.78249426
0.78370745
0.78713
0.7950199
0.81203442
0.83302013
0.83742161
0.83662323
0.83865271
0.83886214
0.84115774
0.84239226
0.84531338
0.84773272
0.85171304
0.85567043
0.86123246
0.86730911
0.8751596
0.88415016
0.8951911
0.90800244
0.92312446
0.9403623
0.95972918
0.98067185
1.0025321
1.0244276
1.0455818
1.065327
1.0831271
1.0985877
1.1116444
1.1223484
1.1310263
1.1377939
1.1431354
1.1472756
1.1505287
1.1531096
1.1551899
1.1569974
1.158664
1.1603336
1.1618329
1.1630765
1.1643937
1.1664202
1.1676875
0.78492195
0.78498716
0.78618336
0.78971128
0.79795514
0.81613263
0.83604989
0.83988266
0.83909241
0.84118981
0.84143614
0.84381511
0.84511704
0.84814742
0.85067419
0.85480021
0.85891756
0.86467648
0.87098209
0.87909712
0.88839761
0.89978319
0.91297977
0.9284954
0.94610627
0.96575078
0.9867944
1.0084991
1.0299519
1.0504054
1.0692895
1.0861975
1.1008559
1.1132609
1.1234655
1.1317802
1.138286
1.1434449
1.147465
1.1506412
1.1531808
1.155241
1.15705
1.1587356
1.1604174
1.1619073
1.1631598
1.1646483
1.1666018
1.1677438
0.78763187
0.78755985
0.78874475
0.79239582
0.80101109
0.82041935
0.8390733
0.84243537
0.84165982
0.84382651
0.84411426
0.84658059
0.8479557
0.85109961
0.85373921
0.858016
0.86230126
0.86826532
0.8748115
0.88320351
0.89283088
0.90457973
0.91818212
0.93410918
0.9521053
0.97202718
0.99315914
1.0146888
1.0356846
1.0554348
1.0734625
1.0894796
1.1033213
1.115049
1.1247236
1.1326454
1.1388646
1.1438213
1.1477053
1.1507936
1.1532842
1.1553182
1.1571242
1.1588237
1.1605116
1.1619851
1.1632519
1.1649264
1.1667725
1.1678108
0.79043046
0.79022104
0.79140311
0.79519755
0.80421087
0.82488395
0.84209241
0.84508026
0.84432536
0.84656437
0.846899
0.84945617
0.85090852
0.85416827
0.85692529
0.86135829
0.8658203
0.87199839
0.87879677
0.88747907
0.89745099
0.90958213
0.9236095
0.93996368
0.95835216
0.97854452
0.99974319
1.0210695
1.0415854
1.0606229
1.0777963
1.0929245
1.1059433
1.1169784
1.1261023
1.1336088
1.1395209
1.1442588
1.1479938
1.1509846
1.1534181
1.1554203
1.1572196
1.1589282
1.1606158
1.1620663
1.1633538
1.1652162
1.166936
1.1678871
0.79333871
0.7929837
0.79416896
0.798127
0.80757608
0.82949518
0.8451103
0.84782031
0.84709399
0.8494083
0.84979224
0.85243966
0.85397064
0.85734831
0.86022888
0.86482525
0.86947346
0.8758747
0.88293827
0.89192644
0.90226252
0.9147963
0.92926814
0.94606422
0.96484891
0.98529867
1.0065345
1.0276208
1.0476253
1.0659336
1.0822504
1.0964929
1.1086876
1.1190223
1.1275818
1.1346567
1.1402461
1.1447518
1.148327
1.1512119
1.1535817
1.1555469
1.1573353
1.1590482
1.1607291
1.162152
1.1634728
1.1655064
1.1670983
1.1679705
0.79631949
0.79581823
0.79701838
0.80116916
0.81111587
0.83422539
0.84815206
0.85066806
0.84996802
0.85235287
0.85278445
0.85552118
0.85713477
0.86063624
0.8636491
0.86841671
0.87326042
0.87989445
0.88723779
0.89654889
0.90726942
0.92022553
0.93515969
0.9524093
0.97158841
0.99227479
1.01351
1.0343123
1.0537687
1.0713276
1.0867838
1.1001451
1.1115197
1.1211533
1.129142
1.1357748
1.1410304
1.1452939
1.1487009
1.1514728
1.1537731
1.1556968
1.1574706
1.1591829
1.16085
1.1622443
1.163623
1.1657864
1.1672581
1.1680591
0.79940983
0.79876088
0.79997697
0.80433933
0.81485841
0.83903332
0.85124657
0.85359781
0.85292286
0.85537818
0.85586321
0.85869507
0.86040056
0.8640336
0.86718734
0.87213237
0.87718087
0.88405882
0.89169907
0.90135215
0.91247832
0.92587677
0.94129103
0.95900391
0.97857126
0.99946638
1.0206555
1.0411235
1.0599904
1.0767758
1.0913655
1.1038505
1.1144119
1.1233483
1.130765
1.1369503
1.1418648
1.1458791
1.1491114
1.1517648
1.1539907
1.1558689
1.1576245
1.159331
1.1609766
1.1623456
1.1638229
1.166043
1.1674122
1.1681508
0.80251628
0.80172832
0.8029623
0.80756108
0.81875862
0.84381756
0.85425989
0.85659243
0.85595213
0.85848567
0.8590333
0.86196814
0.86377281
0.86754293
0.87084286
0.87597122
0.88123546
0.88837131
0.89632762
0.90634217
0.91789457
0.93175429
0.94766447
0.96584622
0.98578865
1.0068562
1.0279462
1.0480246
1.0662581
1.082245
1.0959625
1.1075775
1.1173359
1.1255843
1.1324328
1.1381698
1.1427398
1.1465008
1.1495542
1.1520849
1.1542324
1.1560617
1.1577958
1.1594909
1.1611065
1.1624571
1.1640822
1.1662689
1.1675588
1.168244
0.8057032
0.80478154
0.80603729
0.81089359
0.82290524
0.84858005
0.85732002
0.85967361
0.85907464
0.86168871
0.86230472
0.865345
0.86725251
0.87116177
0.87461324
0.87993302
0.88542719
0.89283797
0.90113044
0.91152619
0.92352531
0.93786602
0.95428705
0.97294076
0.99323853
1.0144349
1.0353659
1.0549947
1.0725482
1.087711
1.1005503
1.1113022
1.1202701
1.1278423
1.1341303
1.1394216
1.1436468
1.147153
1.1500251
1.1524302
1.154496
1.1562737
1.1579834
1.1596612
1.1612374
1.1625787
1.1643726
1.1664855
1.1676996
1.1683374
0.80899038
0.80793719
0.80921677
0.81433988
0.82730598
0.85333783
0.86037764
0.86284541
0.86229325
0.86498913
0.86567617
0.86882172
0.87083403
0.87488557
0.87849748
0.88402092
0.88976309
0.89746648
0.90611471
0.91691053
0.92937651
0.94421685
0.96116137
0.98028403
1.0009092
1.0221815
1.0428877
1.0620041
1.0788309
1.0931451
1.1051019
1.1149996
1.1231919
1.1301038
1.1358424
1.140694
1.144577
1.1478292
1.1505197
1.1527975
1.1547794
1.1565035
1.158186
1.1598399
1.1613674
1.1627093
1.1646838
1.1666981
1.167836
1.1684303
0.81232697
0.81115207
0.81246386
0.81786768
0.83194939
0.85806911
0.86353918
0.86611382
0.8656069
0.86838061
0.86913831
0.87238963
0.87451161
0.87871388
0.88250016
0.88824311
0.89425166
0.90226425
0.91128711
0.92250208
0.93545627
0.95081549
0.9682949
0.98787854
1.0087953
1.0300826
1.050492
1.0690309
1.0850846
1.0985264
1.1095976
1.1186512
1.1260846
1.1323538
1.1375568
1.1419773
1.145523
1.1485239
1.1510339
1.153184
1.1550803
1.1567494
1.1584022
1.1600252
1.1614958
1.1628503
1.165007
1.1669102
1.167967
1.1685219
0.81576126
0.81447295
0.81582246
0.82150807
0.83686059
0.86275787
0.86686972
0.86945608
0.86899689
0.87184852
0.87268164
0.87604501
0.87828789
0.88265421
0.88663151
0.8926094
0.89890096
0.90723774
0.91665374
0.92830765
0.94177174
0.95766769
0.97568939
0.99571767
1.0168809
1.0381133
1.0581499
1.0760455
1.0912815
1.1038302
1.1140153
1.1222375
1.128931
1.134578
1.1392615
1.1432617
1.1464772
1.1492314
1.1515633
1.1535865
1.1553966
1.1570098
1.1586302
1.1602148
1.1616239
1.1630088
1.1653357
1.1671191
1.168095
1.1686116
0.81922379
0.81783877
0.81924083
0.82521333
0.84198846
0.86734726
0.87020743
0.87285813
0.87245624
0.87539288
0.87631082
0.87979688
0.88217453
0.88671929
0.89090247
0.89712772
0.90371626
0.91239193
0.92222077
0.93433589
0.94833233
0.96478369
0.98335059
1.0038013
1.0251554
1.0462568
1.0658399
1.0830264
1.0974014
1.1090388
1.1183396
1.1257444
1.1317185
1.1367655
1.1409472
1.1445392
1.1474332
1.1499467
1.1521044
1.154002
1.1557262
1.1572832
1.1588682
1.1604062
1.1617552
1.1632009
1.1656594
1.1673207
1.1682172
1.1686985
0.82273582
0.82127478
0.82275078
0.82902559
0.84734756
0.87185739
0.87363409
0.87633761
0.87599641
0.87902529
0.88003988
0.88366064
0.88618601
0.89092001
0.89531995
0.90180173
0.90870126
0.91773215
0.927996
0.94059563
0.95514699
0.97216903
0.99127803
1.0121179
1.0335975
1.0544838
1.073531
1.0899441
1.103419
1.1141308
1.1225526
1.1291572
1.1344345
1.1389055
1.1426045
1.1458021
1.1483847
1.150665
1.1526532
1.1544278
1.156067
1.1575679
1.159114
1.1605964
1.1618944
1.1634478
1.165966
1.1675094
1.1683302
1.1687812
0.82631184
0.82479396
0.82637146
0.83296672
0.85290485
0.87623943
0.87712548
0.87990441
0.87963238
0.88276249
0.88388576
0.88765049
0.89033127
0.8952604
0.89988523
0.90663305
0.91385977
0.92326512
0.9339889
0.94709788
0.96222725
0.97983346
0.99947546
1.0206619
1.0421917
1.0627728
1.0812
1.0967766
1.1093155
1.1190916
1.1266425
1.1324657
1.1370705
1.1409903
1.1442268
1.1470445
1.1493265
1.1513822
1.1532065
1.154861
1.1564171
1.1578622
1.1593651
1.1607827
1.1620459
1.1637651
1.1662471
1.1676821
1.16843
1.1688559
0.82993847
0.82838496
0.83010387
0.83706527
0.8586378
0.88052203
0.88070681
0.88357829
0.88338586
0.88662266
0.88785871
0.89176998
0.89460926
0.89973799
0.90459765
0.91162394
0.91919797
0.9290005
0.94021035
0.95385394
0.96958222
0.98778131
1.0079375
1.029416
1.0509104
1.0710909
1.0888141
1.1034948
1.1150679
1.1239038
1.1305966
1.1356591
1.1396178
1.1430124
1.1458072
1.1482606
1.1502538
1.1520944
1.1537612
1.1552992
1.1567745
1.1581646
1.1596189
1.160963
1.1622127
1.164142
1.1665103
1.1678403
1.1685132
1.1689091
0.83369186
0.83211326
0.83400658
0.84139427
0.86454384
0.88474207
0.88440343
0.88737721
0.88726615
0.89060612
0.89195255
0.89601094
0.89901353
0.90435056
0.90945885
0.91678065
0.92472536
0.9349495
0.94667293
0.9608764
0.97722436
0.99602031
1.0166638
1.038368
1.0597327
1.0794122
1.0963472
1.1100769
1.12066
1.1285569
1.1344078
1.1387313
1.1420711
1.1449668
1.1473409
1.1494462
1.1511629
1.1527984
1.1543144
1.1557399
1.1571375
1.1584732
1.159873
1.1611373
1.1623984
1.1645519
1.166769
1.1679876
1.16858
1.1689316
0.83747426
0.83588961
0.83801428
0.84594227
0.87054773
0.88897452
0.88821548
0.89128467
0.89124846
0.89469332
0.89615363
0.90036599
0.90354276
0.9091005
0.91447591
0.92211283
0.9304538
0.94112513
0.95338926
0.96817727
0.98516198
1.0045514
1.0256424
1.0474931
1.0686243
1.0876995
1.1037648
1.1164956
1.1260733
1.1330392
1.1380682
1.1416756
1.1444241
1.1468485
1.1488237
1.150597
1.1520505
1.153491
1.1548638
1.1561812
1.1575045
1.1587859
1.1601246
1.1613089
1.1626125
1.1649803
1.1670196
1.1681194
1.168636
1.1689431
0.84135868
0.83977254
0.84217083
0.85078625
0.87661036
0.89328928
0.89210866
0.89527833
0.8953152
0.89887392
0.90046085
0.90483868
0.90820299
0.91399635
0.91965957
0.9276329
0.93639618
0.94754069
0.96037282
0.97577045
0.99340656
1.0133794
1.0348661
1.0567721
1.0775574
1.0959229
1.1110403
1.122733
1.1312987
1.1373449
1.141573
1.1444891
1.146673
1.1486549
1.1502536
1.1517097
1.1529144
1.1541699
1.1554072
1.1566213
1.1578739
1.1591002
1.160371
1.1614844
1.1628746
1.16541
1.1672554
1.1682279
1.1686681
1.1689446
0.84528412
0.8436952
0.8464072
0.85589977
0.88260805
0.89734166
0.89607146
0.8993575
0.8994795
0.90316152
0.90488296
0.90943806
0.91300377
0.91904939
0.92502237
0.9333537
0.94256606
0.9542099
0.96763705
0.98366811
1.0019644
1.0224995
1.0443144
1.0661717
1.0864912
1.1040424
1.1181433
1.1287722
1.1363271
1.1414666
1.1449136
1.1471679
1.1488132
1.1503844
1.151629
1.1527807
1.1537514
1.1548329
1.1559428
1.1570587
1.1582441
1.1594135
1.1606099
1.1616739
1.163213
1.1658186
1.1674701
1.168317
1.168682
1.1689414
0.84926083
0.84767466
0.85074138
0.86135104
0.88855663
0.9014773
0.90013603
0.90354568
0.90375532
0.90756653
0.90942765
0.91417257
0.9179566
0.92427233
0.93057747
0.9392882
0.9489766
0.96114628
0.97519707
0.99188408
1.0108458
1.0319096
1.0539724
1.0756633
1.0953929
1.1120279
1.1250573
1.1346101
1.1411566
1.1453997
1.148081
1.1497097
1.1508444
1.1520384
1.1529494
1.1538084
1.154558
1.1554787
1.1564694
1.1574925
1.1586137
1.159723
1.1608403
1.1618892
1.1636529
1.1661851
1.1676549
1.1683937
1.1686875
1.1689367
0.85336325
0.8517662
0.85520238
0.86718808
0.89443489
0.90555875
0.90430403
0.9078385
0.90813741
0.91208913
0.91410427
0.91905436
0.92307518
0.92967788
0.93633711
0.94544894
0.95564134
0.96836496
0.98306731
1.0004304
1.0200525
1.0415964
1.0638087
1.0852043
1.104217
1.1198453
1.1317701
1.1402426
1.1457771
1.1491323
1.1510654
1.1521078
1.1527701
1.1536187
1.1542115
1.1547929
1.1553303
1.1561063
1.1569856
1.1579217
1.158981
1.160026
1.161064
1.1621421
1.1641908
1.1665085
1.1677993
1.1684256
1.1686894
1.1689136
0.8575029
0.85589456
0.85971825
0.87336633
0.90017743
0.90992197
0.90856144
0.91222871
0.91262862
0.91674883
0.91893005
0.92409889
0.9283712
0.93527677
0.94231272
0.9518487
0.96257432
0.97588197
0.99126449
1.0093213
1.0295894
1.0515493
1.0737973
1.0947584
1.1129291
1.1274778
1.1382847
1.1456627
1.1501678
1.1526491
1.1538728
1.1543574
1.1546006
1.1551266
1.1554098
1.1557371
1.1560675
1.1567149
1.1574906
1.1583454
1.1593443
1.16032
1.1612873
1.1624455
1.1647658
1.1668209
1.1679256
1.1684421
1.1686649
1.1688642
0.86173167
0.86010311
0.86432782
0.87991757
0.90578966
0.91427483
0.91293153
0.91674641
0.91726387
0.9215543
0.92391555
0.92931481
0.93385365
0.9410783
0.94851621
0.95850105
0.96979188
0.98371459
0.99980488
1.0185657
1.0394509
1.0617426
1.083895
1.104276
1.1214896
1.1349124
1.1445927
1.1508276
1.1543038
1.1559408
1.156511
1.1564607
1.1563458
1.156556
1.1565393
1.1566421
1.1567759
1.1573026
1.1579838
1.1587628
1.1597014
1.1606029
1.1615202
1.1628207
1.165336
1.1671217
1.168047
1.1684486
1.1686153
1.1687887
0.86604992
0.86440852
0.86905276
0.88683323
0.91127697
0.91877001
0.91744633
0.92141554
0.92205416
0.92651924
0.92906642
0.93470709
0.93953052
0.94709306
0.95496044
0.96542231
0.97731155
0.99188253
1.0087064
1.0281753
1.0496327
1.072154
1.0940642
1.1137181
1.1298782
1.1421521
1.1506561
1.15571
1.1581672
1.1590137
1.1589992
1.158431
1.1580024
1.1578967
1.1576049
1.1575005
1.1574681
1.1578674
1.1584646
1.1591727
1.1600497
1.160873
1.1617742
1.1632957
1.1658493
1.1673918
1.1681579
1.1684511
1.1685471
1.1686819
0.87051794
0.8688647
0.87395973
0.89413217
0.91668727
0.9233994
0.92211539
0.92623561
0.92699368
0.93164106
0.93438405
0.94028215
0.9454125
0.95333366
0.961662
0.97263064
0.98515353
1.0004056
1.0179849
1.0381521
1.0601173
1.0827425
1.1042525
1.1230387
1.138076
1.149183
1.1564181
1.1602743
1.1617608
1.1619202
1.1613288
1.1602968
1.1595427
1.1591647
1.158612
1.1582956
1.1581483
1.1584079
1.1589325
1.1595737
1.1603864
1.1611304
1.1620584
1.1638784
1.1662693
1.1676049
1.1682377
1.1684525
1.1684987
1.1685266
0.87509744
0.87343979
0.87904282
0.90170943
0.92213526
0.92814559
0.92691223
0.93118763
0.93207701
0.93692091
0.93987684
0.94605231
0.9515144
0.95981659
0.96863827
0.98014606
0.99333932
1.0093061
1.0276567
1.0485003
1.0708865
1.0934725
1.1144159
1.1322099
1.1460812
1.1559479
1.1618464
1.1645102
1.1651448
1.1646488
1.1635009
1.1620487
1.1609823
1.1603578
1.1595545
1.1590464
1.1588065
1.1589275
1.1593875
1.1599641
1.1607083
1.1613791
1.1623808
1.164499
1.1666187
1.1677565
1.1682745
1.168448
1.1684748
1.168322
0.8797491
0.8780982
0.88430227
0.90947526
0.92745811
0.93300249
0.93183985
0.93628182
0.93731739
0.94237503
0.94556018
0.95203313
0.95785276
0.96655827
0.97590871
0.98799159
1.0018927
1.0186049
1.0377325
1.0592096
1.0819055
1.1042889
1.1245014
1.1412031
1.1538775
1.1623766
1.1669001
1.1684566
1.1683394
1.1671878
1.1655219
1.1636884
1.1623231
1.1614801
1.1604384
1.1597554
1.1594279
1.1594343
1.1598292
1.1603415
1.1610132
1.1616283
1.1627546
1.1650981
1.1669169
1.1678689
1.1682912
1.1684384
1.1684551
1.1680964
0.88451146
0.88286864
0.88981551
0.91738917
0.93267795
0.93800164
0.93692074
0.9415378
0.94273223
0.9480198
0.95145292
0.95823819
0.96444343
0.97357771
0.98349613
0.9961923
1.010839
1.0283231
1.0482226
1.0702698
1.0931404
1.1151445
1.1344716
1.150009
1.1614039
1.1684266
1.1715714
1.1721923
1.1713141
1.1695459
1.1673981
1.1652162
1.1635738
1.1625339
1.1612701
1.1604307
1.1599997
1.1599338
1.1602572
1.160704
1.1613004
1.1618908
1.1632014
1.1656331
1.1671785
1.1679652
1.1682979
1.1684122
1.1684189
1.1678872
0.88943234
0.88777473
0.89565155
0.92536029
0.93787293
0.94314635
0.94216333
0.94697056
0.94833778
0.95386872
0.95757011
0.96468027
0.97130416
0.98089768
0.99142688
1.0047765
1.0202034
1.0384786
1.0591266
1.081653
1.1045379
1.1259786
1.1442859
1.1586086
1.1685773
1.1740541
1.1759269
1.1756981
1.1740736
1.1717266
1.1691354
1.166634
1.1647401
1.1635227
1.1620519
1.1610666
1.1605359
1.1604203
1.1606699
1.1610501
1.1615723
1.1621787
1.1637387
1.1660777
1.1674017
1.1680517
1.1682998
1.1683703
1.1683607
1.1677127
0.89452159
0.89281252
0.90185931
0.93321059
0.94305503
0.94846065
0.94759075
0.95259803
0.95414735
0.95993252
0.96391976
0.97137644
0.97845709
0.98854698
0.99973056
1.0137728
1.0300113
1.0490883
1.0704424
1.0933311
1.1160493
1.1367458
1.1539232
1.1669529
1.1753359
1.1792453
1.1800471
1.1789516
1.176623
1.173739
1.1707403
1.1679455
1.1658291
1.1644497
1.1627836
1.1616625
1.1610437
1.1608938
1.1610653
1.1613795
1.1618344
1.1624983
1.1643377
1.1664364
1.1675756
1.1681061
1.1682903
1.1683254
1.1682702
1.1675677
0.8997771
0.89797851
0.90849875
0.94110677
0.94849138
0.95397033
0.95321358
0.95842346
0.9601637
0.9662164
0.97051955
0.97835058
0.98593347
0.99655775
1.0084379
1.0232101
1.0402852
1.0601607
1.0821512
1.1052553
1.127609
1.1473941
1.1633587
1.1749453
1.181631
1.1840729
1.1839061
1.1819565
1.1789697
1.1755898
1.1722188
1.1691568
1.1668444
1.1653174
1.1634646
1.1622207
1.1615287
1.1613528
1.1614427
1.1616927
1.1620949
1.1628518
1.1649256
1.1667433
1.1677034
1.1681308
1.1682729
1.168296
1.1681359
1.1674459
0.90523683
0.90331259
0.91558725
0.94893029
0.95409652
0.95966353
0.95901624
0.96444562
0.96639435
0.97274077
0.97740027
0.98563754
0.99376763
1.0049624
1.0175789
1.033116
1.0510476
1.0717012
1.0942324
1.117377
1.1391644
1.1578899
1.1725645
1.1824981
1.1874367
1.188622
1.1874817
1.1847209
1.1811234
1.1772881
1.173578
1.1702743
1.167791
1.1661285
1.1640961
1.1627448
1.161992
1.1617938
1.1618059
1.1619907
1.1623641
1.1632483
1.1654681
1.1670035
1.1677989
1.1681412
1.1682522
1.1682656
1.1679721
1.1673408
0.91103734
0.90899277
0.923135
0.95664921
0.95980573
0.96552517
0.96500442
0.97068614
0.97287358
0.97954334
0.98460138
0.99327337
1.0019919
1.0137926
1.0271833
1.0435183
1.0623145
1.0837023
1.1066429
1.1296292
1.1506514
1.1681964
1.1814338
1.1895559
1.1928104
1.1928842
1.1907714
1.1872532
1.1830929
1.1788417
1.1748243
1.1713041
1.1686728
1.1668849
1.1646816
1.16324
1.1624342
1.1622075
1.1621624
1.1622743
1.1626473
1.1637124
1.1659304
1.1672224
1.1678752
1.1681453
1.1682282
1.1682322
1.1678112
1.1672509
0.91698632
0.91478336
0.93110416
0.96424156
0.96570111
0.97160184
0.97123188
0.97718143
0.97964753
0.98666769
0.99215662
1.0012883
1.0106358
1.0230785
1.0372809
1.0544436
1.0741004
1.0961508
1.1193391
1.1419507
1.1620253
1.1782895
1.1898673
1.1960756
1.1978442
1.1968333
1.1937867
1.1895653
1.1848891
1.1802598
1.1759652
1.1722527
1.169494
1.1675897
1.1652262
1.1637107
1.1628576
1.1625897
1.1625108
1.162545
1.1629518
1.1642576
1.1662917
1.1674025
1.1679385
1.1681468
1.1682005
1.1681914
1.1676638
1.1671739
0.92320507
0.92081576
0.93948344
0.97169416
0.97177841
0.97793145
0.97774398
0.98399061
0.98675977
0.9941442
1.0000926
1.0097081
1.0197286
1.032853
1.0479033
1.0659167
1.086408
1.1090142
1.1322542
1.1542687
1.1732309
1.1880855
1.197777
1.2020782
1.2025695
1.2004546
1.1965366
1.1916676
1.1865217
1.1815507
1.1770074
1.1731258
1.1702582
1.1682459
1.1657358
1.1641584
1.1632584
1.1629469
1.1628416
1.1628074
1.1632694
1.164808
1.1665983
1.1675485
1.1679868
1.1681395
1.1681676
1.1681391
1.1675396
1.1671074
0.92969632
0.92716618
0.94827814
0.97908059
0.97816195
0.98459974
0.98460319
0.99114344
0.99422271
1.0019864
1.0084313
1.0185624
1.0293033
1.0431509
1.0590821
1.0779595
1.0992343
1.1222542
1.1453248
1.1665272
1.1842357
1.1974688
1.2051125
1.2076604
1.2069519
1.2037641
1.1990352
1.1935734
1.188002
1.1827234
1.1779582
1.1739295
1.1709696
1.1688576
1.1662156
1.1645839
1.1636372
1.1632811
1.1631444
1.1630675
1.1636008
1.165333
1.1668586
1.1676578
1.1680114
1.168127
1.1681451
1.1680548
1.1674337
1.1670508
0.93663048
0.93403296
0.95753393
0.98659361
0.98491003
0.99161688
0.99178247
0.99861797
1.002034
1.0102104
1.0172092
1.0278896
1.0393982
1.0540095
1.070849
1.0905855
1.1125573
1.1358081
1.1584696
1.1786594
1.1949859
1.206307
1.2118445
1.2129076
1.2109592
1.2067705
1.2012948
1.1952943
1.1893397
1.183786
1.1788242
1.1746688
1.1716315
1.1694288
1.1666689
1.1649865
1.163994
1.163596
1.1634252
1.163325
1.1639581
1.1658044
1.167079
1.1677385
1.1680224
1.1681125
1.1681241
1.1679433
1.1673429
1.1670035
0.94375963
0.94130348
0.96701122
0.99448519
0.99188074
0.99889038
0.99926011
1.006428
1.0102376
1.0188553
1.0264633
1.0377334
1.0500512
1.0654673
1.0832341
1.1038018
1.1263465
1.1496113
1.1716208
1.1906145
1.2053546
1.214543
1.2180696
1.2177763
1.2146122
1.2094907
1.2033313
1.1968438
1.190546
1.1847473
1.1796125
1.1753495
1.172248
1.1699639
1.1670975
1.1653639
1.1643255
1.1638896
1.1636978
1.1635877
1.1643689
1.1661989
1.1672605
1.1678002
1.1680263
1.168095
1.1680991
1.1678186
1.1672652
1.1669643
0.95113262
0.94909349
0.97664436
1.0023159
0.99913747
1.0064936
1.0071028
1.0146395
1.0188914
1.0279674
1.03624
1.0481339
1.0613047
1.0775638
1.096262
1.1175984
1.1405457
1.1635756
1.1846971
1.2023303
1.2151976
1.2221097
1.2238894
1.2222347
1.2179191
1.2119388
1.2051583
1.1982338
1.1916306
1.185615
1.1803292
1.1759762
1.1728228
1.1704665
1.1675006
1.1657133
1.1646316
1.1641683
1.1639709
1.1638653
1.1648583
1.1665001
1.167407
1.1678495
1.1680272
1.1680752
1.1680715
1.1676994
1.1671998
1.1669323
0.95871525
0.95751498
0.98642104
1.0099249
1.0067442
1.0144864
1.015375
1.0233004
1.0280358
1.0375955
1.0465771
1.0591354
1.0732016
1.0903381
1.1099501
1.1319542
1.1550909
1.1776228
1.1976304
1.2137173
1.2244072
1.2290692
1.2293039
1.2262857
1.2209003
1.2141332
1.206792
1.1994775
1.1926039
1.1863975
1.1809809
1.1765541
1.1733596
1.1709394
1.1678754
1.1660336
1.1649153
1.164438
1.1642492
1.1641601
1.1653264
1.1667576
1.1675281
1.1678893
1.1680249
1.168054
1.1680393
1.1675872
1.167145
1.1669066
0.96656747
0.96670027
0.99637965
1.0180549
1.0147822
1.0229289
1.0241202
1.0324483
1.0377061
1.0477726
1.0575177
1.0707876
1.0857917
1.103827
1.1243019
1.1468205
1.169893
1.1916583
1.2103436
1.2246062
1.2329043
1.2355228
1.2342721
1.2299437
1.2235712
1.2160901
1.2082465
1.2005865
1.1934751
1.1871018
1.1815734
1.1770875
1.173862
1.1713839
1.1682194
1.1663277
1.1651838
1.1647046
1.164529
1.1644686
1.1657663
1.1669793
1.1676279
1.1679194
1.1680184
1.1680344
1.1679948
1.16749
1.167099
1.1668863
0.97470263
0.97670505
1.0065239
1.0266424
1.0232684
1.0318257
1.0333631
1.0421138
1.0479383
1.0585431
1.069116
1.0831495
1.0991254
1.1180591
1.1393039
1.1621352
1.1848617
1.205602
1.222769
1.2348471
1.2406804
1.2415453
1.2387735
1.2332293
1.2259538
1.2178287
1.2095377
1.2015732
1.1942539
1.1877357
1.1821125
1.1775812
1.1743333
1.1718007
1.1685323
1.1666008
1.1654438
1.1649711
1.1648014
1.1647899
1.1661698
1.1671699
1.167706
1.1679396
1.1680129
1.1680238
1.1679263
1.1674076
1.1670611
1.1668711
0.98313553
0.98751485
1.016894
1.035615
1.0322268
1.0412079
1.0431487
1.0523395
1.0587856
1.0699726
1.0814382
1.0962876
1.1132513
1.133048
1.154915
1.1778059
1.1998889
1.2193529
1.2347277
1.2443403
1.2478402
1.2470779
1.2428295
1.2361608
1.2280667
1.2193656
1.2106791
1.2024485
1.1949487
1.1883056
1.1826037
1.1780392
1.1747761
1.1721895
1.1688163
1.1668582
1.1656978
1.1652338
1.165065
1.1651317
1.1665161
1.1673297
1.1677641
1.1679487
1.1680045
1.1680117
1.1678396
1.1673398
1.167031
1.1668605
0.99187491
0.99927836
1.0274823
1.0450063
1.0417193
1.0511275
1.0535203
1.0631663
1.0703316
1.0821437
1.0945582
1.1102644
1.1282064
1.1487851
1.1710729
1.1937314
1.2148753
1.2328265
1.2460452
1.2530159
1.2545243
1.2520829
1.2464606
1.238764
1.2299329
1.2207195
1.2116857
1.2032239
1.1955684
1.1888186
1.1830522
1.1784655
1.1751927
1.1725504
1.1690752
1.1671028
1.1659466
1.165495
1.1653283
1.1654987
1.1667995
1.1674601
1.1678081
1.1679522
1.1679927
1.1679954
1.1677421
1.1672849
1.1670083
1.1668548
1.0008654
1.0121421
1.0383217
1.0549006
1.0517918
1.0616304
1.0645438
1.0746759
1.0826589
1.0951418
1.108551
1.125138
1.1440096
1.1652336
1.187682
1.2097868
1.2296988
1.2458729
1.2565668
1.2609743
1.2606632
1.2565808
1.2496888
1.2410609
1.2315718
1.2219066
1.2125702
1.2039093
1.1961207
1.1892806
1.1834629
1.1788636
1.175585
1.1728832
1.1693121
1.1673367
1.1661917
1.165758
1.1655979
1.1658932
1.167013
1.167564
1.1678427
1.1679534
1.1679791
1.1679756
1.1676484
1.16724
1.1669919
1.1668538
1.0100723
1.0259504
1.0494133
1.065353
1.0625053
1.0727947
1.0763086
1.0869814
1.0958649
1.1090613
1.1234851
1.1409451
1.1606535
1.1823289
1.2046318
1.2258547
1.2442511
1.258287
1.266211
1.268348
1.2662249
1.2605949
1.252543
1.2430784
1.2330059
1.2229447
1.2133464
1.2045151
1.1966134
1.1896978
1.1838406
1.1792371
1.1759556
1.1731889
1.1695294
1.1675622
1.1664356
1.1660244
1.1658762
1.1662601
1.1671949
1.1676484
1.1678688
1.16795
1.1679628
1.1679503
1.1675619
1.1672019
1.1669795
1.1668554
1.0195084
1.040732
1.0609237
1.076447
1.0739603
1.0847302
1.0889425
1.1002063
1.1100486
1.1239782
1.1394087
1.1577051
1.1781036
1.1999719
1.2217834
1.2417966
1.2583976
1.2698592
1.2750162
1.2751321
1.2712034
1.2641506
1.255049
1.2448394
1.2342539
1.2238486
1.2140257
1.2050501
1.1970534
1.1900756
1.1841896
1.1795891
1.1763064
1.1734678
1.1697308
1.1677826
1.1666808
1.1662933
1.1661605
1.1665901
1.1673485
1.1677156
1.1678868
1.1679436
1.1679474
1.167915
1.1674891
1.16717
1.1669703
1.1668583
1.029346
1.0566378
1.0729588
1.0883485
1.0863032
1.0975683
1.1025767
1.1144429
1.1252809
1.1399501
1.156354
1.1754084
1.1962931
1.2180386
1.2389963
1.2574733
1.2719027
1.2804902
1.2831237
1.2812752
1.2756338
1.2672807
1.2572389
1.2463707
1.235337
1.2246347
1.2146206
1.2055237
1.1974478
1.1904195
1.1845143
1.1799227
1.1766384
1.1737172
1.1699244
1.1680021
1.1669286
1.1665621
1.1664453
1.1668778
1.1674777
1.1677676
1.1678988
1.1679393
1.1679407
1.1678593
1.16743
1.1671446
1.166964
1.1668622
1.0398844
1.0738182
1.0856419
1.1011843
1.0996692
1.1114362
1.1173297
1.1297313
1.1416009
1.157022
1.1743417
1.1940261
1.215119
1.2363731
1.256105
1.2727229
1.2845291
1.2901631
1.2905803
1.286756
1.2795408
1.2700158
1.2591398
1.2476948
1.236273
1.2253166
1.2151413
1.2059437
1.1978025
1.1907344
1.1848185
1.1802403
1.1769497
1.1739306
1.1701234
1.1682254
1.1671795
1.1668277
1.1667256
1.1671242
1.167586
1.1678083
1.1679069
1.1679352
1.1679352
1.1677929
1.1673836
1.1671261
1.1669618
1.1668684
1.0509749
1.0922392
1.0992097
1.1150967
1.1141883
1.1264033
1.1332184
1.146147
1.1590618
1.1752447
1.193377
1.2134842
1.23444
1.2548033
1.272938
1.2873076
1.2961304
1.2990259
1.2973175
1.2916162
1.2829651
1.2723938
1.2607835
1.2488365
1.2370808
1.2259086
1.2155988
1.2063183
1.1981241
1.1910253
1.1851064
1.1805439
1.1772376
1.1741122
1.1703337
1.1684554
1.1674335
1.1670884
1.1669983
1.1673316
1.1676775
1.1678418
1.1679123
1.1679296
1.1679276
1.1677237
1.1673465
1.1671134
1.1669643
1.1668769
1.0631604
1.111952
1.1138455
1.1301206
1.1298965
1.1424809
1.1502755
1.1637698
1.1777428
1.1946641
1.2134364
1.2336664
1.2540724
1.2731284
1.2892959
1.3009468
1.3066587
1.3071575