/*--------------------------------*- C++ -*----------------------------------*\
  =========                 |
  \\      /  F ield         | OpenFOAM: The Open Source CFD Toolbox
   \\    /   O peration     | Website:  https://openfoam.org
    \\  /    A nd           | Version:  8
     \\/     M anipulation  |
\*---------------------------------------------------------------------------*/
FoamFile
{
    version     2.0;
    format      ascii;
    class       surfaceVectorField;
    location    "0.299999";
    object      rhoUf;
}
// * * * * * * * * * * * * * * * * * * * * * * * * * * * * * * * * * * * * * //

dimensions      [1 -2 -1 0 0 0 0];

internalField   nonuniform List<vector> 
39600
(
(205.37411 5.4379096e-18 -1.9898938)
(191.4516 -2.6833687e-17 -2.5450644)
(191.71675 -5.2625284e-17 -1.8143384)
(230.63857 2.7828341e-17 -2.2584876)
(221.78483 3.7985953e-17 -2.5185274)
(221.69979 4.0394304e-17 -1.6428984)
(249.03967 -4.8788079e-18 -2.4829597)
(241.33903 -1.5301234e-17 -2.8711471)
(240.98676 -1.62633e-17 -1.9249982)
(266.09345 -6.4474409e-18 -2.7284377)
(258.58285 1.3040475e-17 -3.1330876)
(257.97796 2.0565571e-18 -2.1086707)
(283.4807 -3.4362728e-17 -3.0287395)
(275.66975 -2.263382e-17 -3.4361764)
(274.77815 -3.4789373e-18 -2.3365267)
(301.42158 -1.1269267e-17 -3.409371)
(293.72483 -9.8697305e-18 -3.7800334)
(292.49161 -1.9801525e-17 -2.599472)
(313.93671 1.3318891e-17 -3.712589)
(311.56653 -1.8689141e-20 -4.3994801)
(310.64448 -7.8373028e-18 -3.1364393)
(316.63857 1.6344488e-17 -3.7774525)
(317.25479 1.4491034e-17 -4.2265243)
(317.07954 2.2010261e-17 -2.9839795)
(316.4344 4.1986179e-19 -3.7962009)
(316.03926 -1.6576793e-20 -4.6670038)
(315.91861 -5.2323784e-18 -3.3776137)
(316.64134 -7.3032845e-18 -3.8346622)
(317.06617 0 -4.1575565)
(316.89653 -9.103573e-21 -2.9040758)
(316.55323 -1.4704183e-18 -3.874748)
(316.32265 -8.4901143e-18 -4.8436096)
(316.16654 -4.4068129e-19 -3.5366812)
(316.76459 1.8936593e-17 -3.9339494)
(317.03167 2.1797647e-17 -4.2142058)
(316.84756 5.0112135e-18 -2.9407847)
(316.81257 3.1955878e-18 -4.0031665)
(316.66683 -4.743136e-19 -4.9760346)
(316.48909 8.7973326e-18 -3.6498065)
(317.05827 -1.181347e-17 -4.0932428)
(317.209 -9.8262803e-18 -4.4063769)
(317.01399 -5.5724911e-18 -3.0986646)
(317.23306 -7.5212674e-18 -4.2028594)
(317.11271 2.7591352e-20 -5.1123661)
(316.92008 -3.050491e-18 -3.7590408)
(317.55157 -1.0557052e-18 -4.3388681)
(317.60881 -1.0535591e-17 -4.7261102)
(317.40502 -7.140818e-18 -3.3716074)
(317.85458 -9.8459837e-19 -4.5067157)
(317.72648 5.6771783e-18 -5.3246817)
(317.52111 7.3839992e-18 -3.9308804)
(318.27805 4.0224528e-18 -4.7109253)
(318.24762 -1.9840482e-17 -5.1761127)
(318.03511 -9.8858347e-18 -3.7613604)
(318.72477 1.1716451e-17 -4.9615125)
(318.56405 2.4486054e-17 -5.6920911)
(318.34846 1.6421582e-17 -4.2376791)
(319.28254 -1.2479955e-17 -5.2609912)
(319.16185 4.9717549e-19 -5.7864093)
(318.94346 -6.8623134e-18 -4.2925249)
(319.88762 -2.0394979e-18 -5.6188041)
(319.6758 -5.5719655e-18 -6.2876726)
(319.45721 -5.6766371e-18 -4.745555)
(320.58451 5.0705455e-18 -6.0286734)
(320.37939 4.5820157e-18 -6.6025853)
(320.16644 4.4793067e-18 -5.0039212)
(321.31565 -1.4337309e-19 -6.4833222)
(321.05871 0 -7.1426577)
(320.85773 4.1635114e-19 -5.482979)
(322.07109 5.2160742e-18 -6.9462186)
(321.826 1.3893254e-17 -7.6044331)
(321.64935 3.39223e-19 -5.8754588)
(322.76622 -2.0391769e-18 -7.3621856)
(322.53537 2.3682332e-17 -8.1257445)
(322.39583 5.4573921e-18 -6.3270027)
(323.31808 4.2730352e-18 -7.6360016)
(323.168 2.076628e-17 -8.5115457)
(323.08137 -8.5054946e-18 -6.6431466)
(323.58489 1.8004027e-17 -7.6585465)
(323.5723 2.4957071e-17 -8.7174355)
(323.54781 1.4174321e-17 -6.7929776)
(323.42215 -1.0539691e-17 -7.3411115)
(323.62831 0 -8.578359)
(323.66292 -1.5394182e-19 -6.6279197)
(322.7188 3.7541038e-18 -6.692592)
(323.18564 4.0107709e-19 -8.0510252)
(323.25437 -9.4358553e-18 -6.1367658)
(321.4723 1.3077174e-17 -5.8295201)
(322.17912 -8.3877987e-19 -7.1762889)
(322.25024 1.5434649e-17 -5.3903956)
(319.82914 1.8661787e-18 -4.8896786)
(320.66859 -8.1303773e-17 -6.1151274)
(320.71923 -6.073564e-18 -4.5516988)
(317.97655 2.3083622e-17 -3.9550444)
(318.83448 1.2285615e-17 -5.0125597)
(318.86639 9.3211726e-18 -3.7210431)
(316.07217 4.3247619e-18 -3.0527344)
(316.89187 -7.4477481e-17 -3.9469444)
(316.91048 6.8211098e-18 -2.9215415)
(314.27537 3.7096803e-17 -2.2095755)
(315.01667 -8.1424861e-18 -2.9575054)
(315.02756 -5.5746872e-18 -2.1632763)
(312.68575 3.9047276e-18 -1.4374352)
(313.31537 1.2211661e-17 -2.0491854)
(313.32208 2.8734759e-17 -1.4444564)
(311.3133 -3.9488594e-17 -0.76748841)
(311.86454 -4.9742348e-17 -1.2597099)
(311.86526 -3.0597359e-17 -0.8026885)
(310.13883 2.3670287e-17 -0.20082154)
(310.59165 4.5871225e-17 -0.59264161)
(310.58755 1.4174247e-17 -0.24905971)
(309.16254 4.8969022e-17 0.2626041)
(309.53708 -1.1516578e-17 -0.04087248)
(309.52946 -4.8442006e-18 0.21654373)
(308.35192 6.5846631e-17 0.6327028)
(308.65656 -9.366676e-19 0.39560255)
(308.64624 2.6897104e-17 0.58921834)
(307.68431 -5.90975e-18 0.91884277)
(307.93509 -1.3012002e-17 0.74288161)
(307.92268 -4.4004645e-18 0.88883725)
(307.12206 2.3466162e-17 1.1298643)
(307.34106 1.8460583e-16 0.99921216)
(307.32782 2.9113809e-18 1.1105689)
(306.64082 6.5910048e-18 1.2731645)
(306.82706 -2.2069596e-20 1.1846821)
(306.81414 3.8234985e-18 1.2716098)
(306.22877 4.382148e-17 1.3475908)
(306.39788 -1.8006541e-16 1.2982749)
(306.38553 -2.4944809e-18 1.3687122)
(305.86916 6.9584351e-17 1.3488104)
(306.02172 8.3372226e-20 1.3391619)
(306.01126 1.3140398e-17 1.3973883)
(305.55886 -6.127912e-17 1.2690296)
(305.69812 1.0387291e-16 1.2993397)
(305.68945 2.4639479e-19 1.348647)
(305.31723 -8.2232112e-17 1.1077293)
(305.41195 -9.199616e-18 1.1772794)
(305.40441 -1.1457369e-17 1.2154702)
(305.20017 -1.0523692e-17 1.261922)
(305.17793 -9.2501596e-20 0.99116676)
(305.19951 -6.0628967e-19 1.0200275)
(305.04397 6.9424877e-18 0.54144893)
(304.97932 -4.810956e-18 0.72533969)
(304.94883 6.0380419e-19 0.74272867)
(304.99536 3.5876969e-17 1.1752122)
(304.95917 6.6504528e-17 0.33543616)
(305.01593 9.4867319e-19 0.36790718)
(304.46526 -1.7638871e-18 -0.41634889)
(304.41352 2.4741238e-18 -0.40699485)
(205.19646 0 -2.7998725)
(191.32635 -5.8197929e-17 -3.3012752)
(230.73231 0 -3.17106)
(221.93474 4.1135132e-17 -3.4144778)
(249.35894 0 -3.4714984)
(241.72301 -3.289275e-17 -3.8414847)
(266.65378 0 -3.7876815)
(259.19892 -4.3870145e-19 -4.180099)
(284.32117 2.9029762e-19 -4.1598282)
(276.55443 0 -4.5597029)
(302.29617 3.4801393e-19 -4.6105553)
(294.94465 2.1525706e-17 -4.9862799)
(314.4044 0 -4.9455045)
(312.40433 -1.8303031e-17 -5.6887901)
(316.7925 -3.5665757e-19 -5.0284696)
(317.48624 9.7171584e-19 -5.485439)
(316.59321 -4.277634e-19 -5.0622892)
(316.21145 -3.8755018e-19 -5.9798566)
(316.82132 -4.9626274e-19 -5.1170093)
(317.27393 -1.0840697e-17 -5.4262712)
(316.73895 1.1864861e-17 -5.1704978)
(316.5 1.0758282e-17 -6.1796301)
(316.96276 4.5787052e-18 -5.245316)
(317.23387 1.3546798e-17 -5.505889)
(317.01195 -1.2454405e-17 -5.3289337)
(316.85332 -1.1279635e-17 -6.3321978)
(317.26453 9.6492195e-19 -5.4360231)
(317.41201 -2.6380128e-18 -5.7331276)
(317.44132 -2.0795781e-18 -5.5646362)
(317.31085 1.0499797e-18 -6.4929792)
(317.76506 -5.2440737e-18 -5.722774)
(317.81738 -3.5475239e-18 -6.0996729)
(318.07079 -1.0709905e-17 -5.9171125)
(317.93636 1.702789e-17 -6.742313)
(318.49784 -3.3984339e-18 -6.1515689)
(318.46318 -2.0166841e-17 -6.609462)
(318.94601 1.5472347e-17 -6.4391751)
(318.78343 -4.387484e-19 -7.1671209)
(319.50294 7.7547881e-18 -6.7804146)
(319.38248 -2.9276215e-19 -7.2974896)
(320.10289 6.292782e-20 -7.1881589)
(319.89695 -1.2124167e-17 -7.8463543)
(320.7877 0 -7.652823)
(320.59284 5.0601108e-18 -8.2136199)
(321.49778 1.2577544e-17 -8.1690239)
(321.25919 1.7220855e-17 -8.8103765)
(322.22091 3.1161784e-17 -8.695957)
(321.99937 -6.1798617e-19 -9.3337467)
(322.87299 4.6347563e-17 -9.1772863)
(322.66904 -1.9089607e-17 -9.914838)
(323.37194 4.0722597e-17 -9.5103811)
(323.24421 9.2682685e-18 -10.356218)
(323.58811 9.516933e-18 -9.5747634)
(323.57912 -6.0361616e-17 -10.601175)
(323.39643 1.0735669e-17 -9.2592861)
(323.56477 -1.4687758e-17 -10.471504)
(322.69419 -4.0422221e-18 -8.5411314)
(323.0713 2.3721099e-17 -9.9004403)
(321.47166 -8.6223542e-17 -7.5151558)
(322.04831 -1.9083689e-17 -8.9054987)
(319.82699 -8.0184147e-17 -6.3374757)
(320.55054 1.0517196e-17 -7.644041)
(317.9474 -7.5499346e-17 -5.1380251)
(318.74085 -1.319454e-17 -6.2912322)
(316.04122 -9.3559031e-17 -3.9880894)
(316.82117 -8.9697983e-18 -4.971414)
(314.25329 -3.4885138e-17 -2.9318138)
(314.96549 8.3997537e-18 -3.75775)
(312.67648 -3.4503288e-17 -1.9895005)
(313.2781 -3.896695e-17 -2.6628778)
(311.31292 2.490806e-17 -1.186262)
(311.84108 3.0553377e-17 -1.7255266)
(310.14306 1.7052831e-17 -0.51607201)
(310.57867 1.0884314e-16 -0.94422917)
(309.16867 -6.2261253e-17 0.024883676)
(309.53237 1.1733198e-17 -0.30504462)
(308.35739 -7.8023228e-17 0.45338075)
(308.65745 -6.9959608e-17 0.19650102)
(307.68974 1.5495668e-16 0.78313772)
(307.93954 2.1046551e-16 0.59235098)
(307.12978 1.8173033e-16 1.0257067)
(307.34798 -1.0869262e-18 0.88405948)
(306.65237 -1.662506e-16 1.1920291)
(306.83501 4.6210002e-20 1.0947465)
(306.24467 -2.4407909e-16 1.2825291)
(306.4064 -1.6935218e-16 1.226885)
(305.88826 2.2745823e-17 1.2954566)
(306.03022 -9.3789043e-17 1.2803027)
(305.57836 1.6894578e-16 1.2265073)
(305.70503 -1.4897596e-16 1.2509032)
(305.30965 7.2344235e-17 1.077691)
(305.41861 6.8673082e-17 1.1407262)
(305.0913 2.8239473e-18 0.86568676)
(305.18393 2.0268817e-16 0.96464562)
(304.92837 4.7661933e-17 0.52895719)
(304.98652 -1.5696441e-16 0.70924297)
(304.86716 4.4713084e-17 1.0787983)
(304.90459 1.9655473e-18 0.30737363)
(304.51127 6.5581942e-17 -0.42893908)
(205.27175 -2.5674232e-17 -3.6258395)
(191.21856 -1.1547938e-16 -4.0691179)
(231.08856 1.4745992e-17 -4.1083491)
(222.13828 3.9837724e-17 -4.3223085)
(249.94797 -3.5833579e-17 -4.4931304)
(242.1609 -6.5805808e-17 -4.8301413)
(267.49656 -4.7268886e-19 -4.8905392)
(259.87051 4.180067e-21 -5.2508513)
(285.48067 1.9065662e-17 -5.3492627)
(277.50112 2.4907455e-17 -5.713241)
(303.44391 6.4082446e-18 -5.8891597)
(296.27087 2.2070703e-17 -6.2328336)
(315.00344 -1.8852065e-17 -6.2616075)
(313.21766 -1.7873721e-17 -7.0167425)
(317.00786 1.0473418e-18 -6.3433112)
(317.68171 -1.5912616e-17 -6.7790233)
(316.78677 -9.7423425e-18 -6.378942)
(316.37307 2.6552393e-17 -7.3254742)
(317.01648 -1.5342336e-18 -6.4388741)
(317.47462 5.1063394e-19 -6.7237083)
(316.9268 1.2182442e-17 -6.4992875)
(316.67636 -2.823129e-17 -7.541827)
(317.15514 0 -6.5839828)
(317.43649 1.925859e-17 -6.8232568)
(317.20434 -2.3696743e-18 -6.6805167)
(317.04353 3.2271626e-18 -7.7117085)
(317.46311 -2.8467197e-18 -6.8032467)
(317.61842 1.0744012e-19 -7.084738)
(317.64312 -1.9186182e-20 -6.9509269)
(317.51286 9.0211275e-18 -7.8957934)
(317.9727 1.6587948e-17 -7.1311565)
(318.02881 -1.1275047e-17 -7.497821)
(318.28269 1.078139e-17 -7.3520873)
(318.14912 5.4480803e-18 -8.1822455)
(318.71438 -1.8864662e-17 -7.6175255)
(318.68099 4.5485713e-19 -8.0676513)
(319.16592 -1.587819e-17 -7.9420334)
(319.00483 3.1518699e-19 -8.6655003)
(319.7239 -1.8781177e-17 -8.325788)
(319.60406 2.392326e-19 -8.8335076)
(320.32124 -8.6662508e-18 -8.7821022)
(320.11789 -3.0575441e-17 -9.4283277)
(320.99631 2.0910959e-17 -9.3000278)
(320.80397 4.958199e-18 -9.8470835)
(321.68734 5.8026731e-18 -9.8728218)
(321.45489 -6.3775e-19 -10.496757)
(322.37707 -4.833419e-17 -10.456301)
(322.16462 -6.6449633e-18 -11.076216)
(322.97898 -5.8006962e-17 -10.989344)
(322.79048 -4.7932527e-18 -11.707293)
(323.41059 -8.3832543e-17 -11.361603)
(323.30288 -9.7292745e-18 -12.189167)
(323.54812 -8.8339894e-17 -11.442132)
(323.56174 -3.2650788e-17 -12.452109)
(323.2793 -5.4991101e-18 -11.104472)
(323.46781 5.5439879e-19 -12.308197)
(322.52223 1.2986479e-17 -10.305997)
(322.91234 -4.2656306e-19 -11.67583)
(321.27876 7.3549651e-17 -9.126765)
(321.86123 0 -10.558946)
(319.65268 7.8987385e-17 -7.7324229)
(320.3704 8.1573086e-17 -9.111801)
(317.81362 5.2182474e-17 -6.2892635)
(318.58748 9.5784893e-17 -7.5291372)
(315.94023 9.0181931e-17 -4.9054027)
(316.6996 8.522028e-17 -5.9719109)
(314.17266 9.2692326e-18 -3.6455422)
(314.87338 1.3716673e-16 -4.5446991)
(312.60715 1.8190419e-17 -2.5357036)
(313.20994 0 -3.2696)
(311.25976 1.0553365e-16 -1.5996322)
(311.79422 2.0362423e-17 -2.1875557)
(310.1076 1.1409681e-16 -0.82747484)
(310.54874 -3.2597137e-17 -1.2940828)
(309.14796 1.3014887e-17 -0.20977643)
(309.51527 1.1669097e-17 -0.56843775)
(308.34929 1.8635668e-16 0.27639944)
(308.64912 3.017023e-16 -0.0017876652)
(307.69048 7.8513907e-17 0.6485543)
(307.93712 -2.2598603e-16 0.44226409)
(307.13476 -1.8234719e-16 0.92155167)
(307.34992 -1.7501986e-16 0.76882465)
(306.65715 1.5988754e-17 1.109588)
(306.83942 2.8766757e-17 1.0041894)
(306.24757 -2.7704268e-17 1.2154749)
(306.41239 1.5901241e-16 1.1542202)
(305.89031 -2.5961208e-16 1.2405126)
(306.03696 -3.1271099e-17 1.2202061)
(305.58058 -2.7428274e-16 1.1818865)
(305.71031 -7.0410792e-17 1.2011431)
(305.31877 1.8454434e-16 1.044941)
(305.42379 -2.5372698e-16 1.1027334)
(305.10165 8.2354051e-17 0.83906916)
(305.18908 -2.1039834e-16 0.93719891)
(304.94931 -2.2132729e-16 0.51477424)
(304.99216 -3.3697948e-18 0.68784418)
(304.87703 1.6022668e-17 0.94444836)
(304.85659 -5.8735455e-17 0.27939369)
(304.55086 2.2018186e-18 -0.43763455)
(205.31271 -6.3462369e-17 -4.461328)
(191.15524 -1.1732256e-16 -4.8504199)
(231.39452 -3.0637988e-17 -5.0567257)
(222.37529 -9.8734006e-19 -5.2434782)
(250.48269 -3.5911054e-17 -5.5265552)
(242.63084 1.5955725e-18 -5.8356924)
(268.28074 2.2856326e-17 -6.0055217)
(260.57429 -2.8967124e-17 -6.3412197)
(286.59195 2.8061896e-17 -6.551203)
(278.47978 2.3524712e-17 -6.8896131)
(304.51283 1.4643732e-18 -7.175178)
(297.6619 -1.450683e-18 -7.5061324)
(315.49427 -1.5155764e-17 -7.5764286)
(313.97977 0 -8.3630764)
(317.17079 5.6886868e-18 -7.663021)
(317.88309 -1.6468787e-17 -8.0881848)
(316.96325 3.8599729e-17 -7.7062993)
(316.54605 2.5935754e-17 -8.6920072)
(317.20589 -2.3322624e-17 -7.7762772)
(317.68462 1.0842339e-17 -8.0410064)
(317.11721 -2.504576e-17 -7.8469469)
(316.86006 -4.3091833e-17 -8.9268235)
(317.35468 2.3672293e-17 -7.9440296)
(317.64444 1.4885684e-17 -8.161786)
(317.40502 5.8941415e-18 -8.0543207)
(317.23741 -6.72621e-18 -9.1136954)
(317.66971 1.1000537e-17 -8.1928791)
(317.82703 -1.390905e-17 -8.4580941)
(317.85175 -3.5996937e-19 -8.359456)
(317.71675 1.7988746e-17 -9.3203649)
(318.186 -2.3502426e-17 -8.5616955)
(318.24143 -1.1004024e-17 -8.9183687)
(318.499 -4.2483716e-18 -8.8094096)
(318.36332 -2.5285094e-17 -9.6443284)
(318.93404 1.9231713e-17 -9.1061415)
(318.89958 3.1830415e-17 -9.5493146)
(319.38713 1.6089784e-17 -9.4677165)
(319.22681 -2.7517687e-17 -10.186972)
(319.94352 -8.7650954e-18 -9.8936111)
(319.82498 3.7519648e-17 -10.393276)
(320.5347 -2.0204245e-17 -10.397221)
(320.33677 8.3920594e-19 -11.032848)
(321.19544 -1.5693585e-17 -10.965955)
(321.0108 -1.5976298e-17 -11.501813)
(321.86208 -1.232675e-17 -11.590935)
(321.64355 -3.5182079e-17 -12.201134)
(322.51312 3.5942457e-17 -12.223955)
(322.31931 4.5256561e-17 -12.831564)
(323.06076 4.3046424e-17 -12.797732)
(322.89699 5.0899487e-18 -13.503947)
(323.42198 4.2666212e-17 -13.193516)
(323.34131 2.105171e-17 -14.012962)
(323.48097 5.177604e-17 -13.270201)
(323.51774 3.4868768e-17 -14.275319)
(323.14099 5.6276861e-18 -12.890791)
(323.33702 6.0416977e-17 -14.095723)
(322.33763 -1.3267723e-17 -12.00103)
(322.711 7.0235341e-18 -13.384126)
(321.08221 0 -10.671975)
(321.62351 -2.0782599e-17 -12.138916)
(319.46827 9.6790461e-17 -9.0769659)
(320.13449 8.3838609e-18 -10.514157)
(317.65321 1.2949731e-16 -7.4062668)
(318.37987 1.1449088e-17 -8.7185309)
(315.81203 1.2644615e-16 -5.8016619)
(316.53049 -1.1111201e-17 -6.9403254)
(314.07641 1.4223989e-16 -4.3472932)
(314.74251 -2.3764624e-18 -5.31159)
(312.53972 0 -3.0756747)
(313.11147 -2.159925e-16 -3.8641253)
(311.21261 -1.1124064e-16 -2.0112157)
(311.72452 -1.8693823e-16 -2.642541)
(310.07078 -1.3915261e-16 -1.1393224)
(310.50175 -3.460115e-16 -1.6404309)
(309.12069 2.6714591e-16 -0.44431066)
(309.48533 -2.0248387e-16 -0.83065036)
(308.33238 -5.0592634e-17 0.098880024)
(308.63178 -2.5815454e-18 -0.20015373)
(307.68129 -4.8429642e-16 0.51329444)
(307.92792 -2.223531e-16 0.29174529)
(307.13114 1.277009e-17 0.81670568)
(307.34692 -3.0350714e-16 0.65304407)
(306.65763 1.5687819e-16 1.0265666)
(306.84024 -2.6622867e-20 0.91308211)
(306.25089 1.770314e-16 1.1479826)
(306.4158 1.5895831e-16 1.0811279)
(305.89569 1.6284135e-16 1.1852086)
(306.04113 7.763647e-18 1.1595003)
(305.58663 -2.8889644e-17 1.1368944)
(305.71387 1.8397733e-16 1.1507917)
(305.32146 -6.5606383e-16 1.0115514)
(305.42777 2.7462858e-16 1.0644611)
(305.10395 -3.2031861e-16 0.81180526)
(305.19352 -2.1194733e-16 0.90946894)
(304.92027 1.6745024e-16 0.49664638)
(304.99707 -1.4512511e-16 0.66260543)
(304.83343 -7.9638646e-17 0.82792102)
(304.81438 0 0.2515768)
(304.58408 -2.6348303e-16 -0.44239005)
(205.41096 -6.5270228e-17 -5.3094472)
(191.12629 2.8373144e-18 -5.6456721)
(231.76774 3.0290117e-17 -6.023056)
(222.65266 -4.3718623e-17 -6.1818735)
(251.09134 1.074632e-17 -6.5827594)
(243.14416 3.4791798e-17 -6.8627326)
(269.14297 -3.2388439e-17 -7.1486051)
(261.32468 -2.8702801e-17 -7.4566156)
(287.79984 -3.3581467e-18 -7.7876195)
(279.50357 -2.6115513e-17 -8.0956855)
(305.64055 -2.9936866e-18 -8.4974689)
(299.128 6.8387605e-17 -8.8152456)
(316.00395 0 -8.9225994)
(314.69016 -2.4033441e-18 -9.7369366)
(317.37285 0 -9.0142777)
(318.09963 -2.0210637e-18 -9.421022)
(317.15731 0 -9.0626186)
(316.71888 5.3878096e-20 -10.082542)
(317.406 -4.2503397e-18 -9.140356)
(317.8935 -2.3062951e-17 -9.3799654)
(317.313 -8.6334214e-18 -9.2192231)
(317.04324 -4.6407125e-18 -10.334478)
(317.55578 -1.311756e-17 -9.3269543)
(317.85147 -7.8742218e-18 -9.5214512)
(317.60551 -2.5513171e-17 -9.4500192)
(317.43125 -1.6421755e-17 -10.536994)
(317.8752 -9.6014123e-18 -9.6040375)
(318.03537 1.1919618e-17 -9.8532229)
(318.05942 9.9012863e-18 -9.789744)
(317.92122 -4.048092e-19 -10.76639)
(318.39847 -1.1602178e-17 -10.014604)
(318.45421 -7.8869291e-18 -10.362208)
(318.7149 5.3750123e-18 -10.289858)
(318.5781 -6.0875354e-18 -11.129193)
(319.15314 -9.0980474e-18 -10.618503)
(319.11785 2.1098441e-17 -11.055653)
(319.60754 -1.1881505e-17 -11.017426)
(319.44783 1.6122185e-18 -11.732385)
(320.16157 4.9966607e-17 -11.485258)
(320.04322 2.1982025e-17 -11.977793)
(320.74553 6.3937793e-18 -12.035109)
(320.55112 4.4751083e-17 -12.660784)
(321.39029 -3.3451028e-17 -12.652571)
(321.21038 1.1599981e-17 -13.178865)
(322.03024 1.4380045e-17 -13.325897)
(321.82165 -1.7654637e-17 -13.924723)
(322.63891 1.8470132e-17 -14.002019)
(322.45924 6.2767456e-18 -14.601257)
(323.12664 -1.7953528e-17 -14.605993)
(322.98353 -2.4987562e-17 -15.306469)
(323.40987 1.214657e-17 -15.00973)
(323.35382 -7.7745183e-17 -15.829458)
(323.38013 4.1046115e-17 -15.062474)
(323.44151 2.7597152e-19 -16.072952)
(322.95521 6.681026e-17 -14.620452)
(323.16792 -1.4102336e-16 -15.836537)
(322.09075 2.2634385e-18 -13.624725)
(322.46556 -8.4616596e-17 -15.027176)
(320.81141 -1.5333407e-17 -12.144079)
(321.33628 -2.05128e-17 -13.644677)
(319.2113 -7.6316016e-17 -10.358494)
(319.84629 1.4721521e-16 -11.846242)
(317.434 -1.2542859e-16 -8.4766208)
(318.12146 -9.5129451e-17 -9.8509651)
(315.63615 -1.396431e-16 -6.6660221)
(316.31656 -1.0519086e-17 -7.8676699)
(313.94023 -3.3525033e-16 -5.0283284)
(314.57469 -4.1822793e-16 -6.050681)
(312.4374 -4.0461948e-16 -3.6023873)
(312.98375 -1.0268449e-17 -4.4405597)
(311.1403 -4.0298359e-16 -2.4144074)
(311.63238 -8.0159236e-18 -3.0859117)
(310.02317 -4.2471064e-16 -1.4462886)
(310.43789 3.4362791e-17 -1.9794037)
(309.0888 -4.9306971e-16 -0.67730003)
(309.44286 -9.9480258e-18 -1.0886189)
(308.30928 -1.4913059e-16 -0.077909174)
(308.60502 -3.0188163e-16 -0.39663104)
(307.66666 -3.3018833e-17 0.37837543)
(307.91226 2.1127878e-16 0.14177145)
(307.12336 -3.5060453e-16 0.71171622)
(307.33925 1.0870788e-17 0.5371953)
(306.65458 -1.6071164e-17 0.94309236)
(306.83771 -2.8860573e-17 0.82173923)
(306.25169 6.8704403e-18 1.0801891)
(306.41675 3.3855457e-16 1.0075991)
(305.89815 8.6553835e-18 1.1289476)
(306.04288 -4.8073449e-16 1.09818)
(305.58899 4.7848363e-16 1.0913145)
(305.71569 3.7528787e-16 1.0998014)
(305.32589 7.7777721e-16 0.9776889)
(305.43049 2.6539348e-16 1.0258319)
(305.10949 -4.3235883e-17 0.78315057)
(305.19727 -1.9406353e-16 0.88139333)
(304.91315 -3.313087e-16 0.47588757)
(305.00086 2.8661072e-16 0.63404479)
(304.81735 -1.565959e-16 0.71125445)
(304.77799 -3.4492477e-18 0.22439416)
(304.61121 -1.7441483e-16 -0.44371181)
(205.53548 2.7480252e-17 -6.1747893)
(191.13018 1.2345269e-16 -6.4560059)
(232.16455 -4.541092e-17 -7.0102692)
(222.96283 -4.2060914e-17 -7.1382311)
(251.72581 1.1912128e-18 -7.6628271)
(243.69341 -4.770867e-20 -7.9126781)
(270.03177 -2.2777247e-17 -8.3186148)
(262.11592 -6.1670078e-17 -8.5973135)
(289.04394 3.6615382e-17 -9.0551827)
(280.56631 2.8778015e-17 -9.3313317)
(306.76138 7.4480913e-17 -9.8487481)
(300.65395 1.1459964e-16 -10.158653)
(316.4696 -4.4104507e-18 -10.290254)
(315.33582 -3.9923921e-17 -11.133978)
(317.56771 -2.1283695e-18 -10.383253)
(318.31527 1.3594408e-19 -10.773317)
(317.34451 -2.0669711e-17 -10.436866)
(316.89153 5.2639046e-20 -11.493614)
(317.60176 -2.4887927e-17 -10.522932)
(318.10159 -2.2534563e-17 -10.737663)
(317.50692 -3.6446445e-18 -10.610662)
(317.22629 -1.4832267e-17 -11.762905)
(317.75649 -1.0429342e-17 -10.729877)
(318.05794 1.0503618e-19 -10.901351)
(317.80669 1.7917659e-17 -10.866519)
(317.62504 2.1368784e-19 -11.981513)
(318.08174 2.188773e-17 -11.036876)
(318.24329 3.896187e-17 -11.27075)
(318.26839 -1.7201108e-17 -11.242622)
(318.12584 -1.8736689e-17 -12.234835)
(318.6119 -2.6297961e-18 -11.491001)
(318.66654 -2.3837056e-17 -11.830486)
(318.9312 7.0837585e-18 -11.794503)
(318.79239 6.3010157e-18 -12.63789)
(319.37155 3.3167837e-17 -12.155575)
(319.33436 1.1216319e-17 -12.587565)
(319.82583 3.3086041e-17 -12.591917)
(319.66626 2.6849266e-17 -13.302495)
(320.37532 1.4985746e-17 -13.101298)
(320.25701 -3.9248062e-17 -13.587674)
(320.9493 5.264555e-17 -13.696262)
(320.75903 3.2298753e-17 -14.312761)
(321.57453 2.9582646e-17 -14.360343)
(321.40072 2.6731237e-17 -14.878883)
(322.1834 -2.7693476e-17 -15.078195)
(321.98702 0 -15.668244)
(322.74454 -3.3651595e-17 -15.790919)
(322.582 -3.0378888e-17 -16.38593)
(323.16675 -7.9064362e-17 -16.414635)
(323.04744 -6.0629174e-17 -17.115329)
(323.36643 -9.6471277e-17 -16.811106)
(323.33764 -3.0053563e-18 -17.638929)
(323.24355 -1.6597242e-16 -16.820525)
(323.33072 8.5434558e-17 -17.84535)
(322.73149 -2.955842e-16 -16.295784)
(322.95948 7.0122917e-17 -17.531339)
(321.80506 -1.1321186e-16 -15.179146)
(322.17715 -1.0449524e-17 -16.605717)
(320.50166 1.2365673e-16 -13.54269)
(321.00343 -1.5205168e-16 -15.075635)
(318.91381 1.5275024e-16 -11.573651)
(319.51123 -3.0616427e-18 -13.104814)
(317.17331 9.973969e-18 -9.4941347)
(317.81777 -7.0014815e-18 -10.920877)
(315.42333 -2.4449418e-16 -7.4918519)
(316.06212 1.1119973e-17 -8.747318)
(313.77456 -1.386063e-16 -5.6827626)
(314.37289 -2.1600651e-17 -6.75581)
(312.31365 3.8335677e-16 -4.1114682)
(312.82867 2.3001716e-16 -4.9937492)
(311.05157 4.2220052e-16 -2.8061929)
(311.519 1.6608126e-16 -3.5137535)
(309.96115 4.5181346e-16 -1.7460635)
(310.35782 2.5299018e-16 -2.3082938)
(309.04753 2.1277042e-16 -0.90601604)
(309.38812 -1.9442979e-16 -1.3403085)
(308.28293 0 -0.25280064)
(308.5691 2.6945484e-16 -0.58937697)
(307.64918 2.7779069e-16 0.24399078)
(307.88963 2.6625509e-17 -0.0063383663)
(307.11212 3.3669145e-16 0.6068398)
(307.32625 3.03601e-16 0.42209124)
(306.64926 2.8382689e-16 0.85958582)
(306.83108 6.4304349e-21 0.73062466)
(306.25092 -5.5485398e-17 1.0120781)
(306.4145 -9.8579463e-18 0.93388952)
(305.89907 -2.1196635e-16 1.0720758)
(306.04211 -1.0210298e-17 1.0364355)
(305.59064 1.7378916e-16 1.0453457)
(305.71571 3.7111458e-17 1.0484943)
(305.32813 -6.5930775e-16 0.94323843)
(305.43203 -2.8565962e-16 0.98694332)
(305.11189 8.3043316e-17 0.75414201)
(305.20028 5.3919517e-18 0.8526092)
(304.89846 6.5219566e-16 0.45149825)
(305.00352 2.9451537e-16 0.60308229)
(304.79554 -6.2670038e-18 0.60900389)
(304.7468 -1.0892142e-19 0.19780794)
(304.63288 1.6469486e-16 -0.44167623)
(205.69476 6.8297286e-17 -7.0554044)
(191.16164 1.9174979e-16 -7.2826208)
(232.60127 -1.0137564e-18 -8.0170675)
(223.30409 -9.2359141e-17 -8.1084412)
(252.40616 -5.6663125e-17 -8.7662042)
(244.27874 7.292557e-17 -8.9839035)
(270.96918 -1.8341724e-17 -9.5157055)
(262.94882 -6.0202985e-17 -9.761601)
(290.34348 9.8278663e-17 -10.354764)
(281.66986 -2.5269649e-18 -10.595697)
(307.88999 1.489099e-17 -11.229376)
(302.22895 4.70912e-17 -11.534931)
(316.90219 -3.860988e-17 -11.680148)
(315.9124 -3.671106e-17 -12.552177)
(317.76378 2.2753386e-18 -11.773016)
(318.52577 6.3906625e-18 -12.144734)
(317.53418 0 -11.832037)
(317.06281 0 -12.92624)
(317.79856 -1.3313098e-17 -11.926593)
(318.30769 0 -12.115294)
(317.70102 -1.2349131e-17 -12.023405)
(317.40821 -1.4477051e-17 -13.21334)
(317.95656 1.0507959e-17 -12.154492)
(318.26303 3.9548927e-18 -12.30305)
(318.00706 1.7707024e-17 -12.305348)
(317.81831 3.4772294e-17 -13.448728)
(318.28726 3.8159507e-18 -12.492873)
(318.45028 -4.4700162e-19 -12.712448)
(318.47635 -2.4818848e-17 -12.719516)
(318.33002 -1.9203628e-17 -13.727111)
(318.82387 -1.7505526e-17 -12.992157)
(318.87735 -7.5909831e-18 -13.324558)
(319.14557 9.9347432e-18 -13.324384)
(319.00486 -1.083801e-19 -14.171384)
(319.58693 3.7494787e-18 -13.718137)
(319.54758 1.0978824e-17 -14.145944)
(320.03979 -3.8528733e-17 -14.191841)
(319.88027 -2.8540968e-17 -14.897996)
(320.58285 -2.8244107e-17 -14.742332)
(320.46426 -3.1046336e-17 -15.223568)
(321.14455 7.3569553e-18 -15.381294)
(320.95806 -2.05475e-17 -15.989447)
(321.74716 0 -16.089926)
(321.57905 0 -16.602528)
(322.32097 0 -16.848417)
(322.13629 -3.8833034e-17 -17.432255)
(322.82946 -5.4226934e-17 -17.591021)
(322.68361 -6.5475226e-17 -18.185816)
(323.18 9.0228359e-18 -18.223637)
(323.08394 5.0303022e-17 -18.930226)
(323.2897 1.6792694e-16 -18.597257)
(323.28761 8.2637991e-17 -19.44046)
(323.06781 3.194696e-16 -18.543938)
(323.18027 1.6680785e-17 -19.591266)
(322.4638 3.5887908e-16 -17.916504)
(322.70767 1.1271941e-16 -19.17912)
(321.47192 -3.5153814e-17 -16.663537)
(321.84374 9.0260285e-17 -18.11918)
(320.1425 -2.919474e-16 -14.865449)
(320.62536 2.5700462e-17 -16.430925)
(318.56835 -1.6069282e-16 -12.717689)
(319.13182 -1.297903e-16 -14.287571)
(316.86968 -7.7138224e-18 -10.452817)
(317.47217 -1.4040506e-17 -11.924034)
(315.17355 2.3551636e-16 -8.2730115)
(315.77036 0 -9.5740412)
(313.57798 3.1765546e-16 -6.3052071)
(314.1396 2.8119641e-16 -7.4218992)
(312.16454 2.1033126e-17 -4.5984677)
(312.64799 2.7412235e-17 -5.5194085)
(310.94331 -1.1610386e-17 -3.1830554)
(311.38552 -2.0967431e-17 -3.9226756)
(309.88525 -3.4108071e-16 -2.0360937)
(310.2623 4.9904846e-16 -2.6244749)
(308.99573 -1.8943108e-16 -1.1286609)
(309.32162 1.5243852e-17 -1.5837578)
(308.24856 3.2330124e-16 -0.42406584)
(308.52421 5.7525436e-16 -0.77700892)
(307.62783 2.0930866e-17 0.11152679)
(307.86027 4.5383097e-16 -0.15142041)
(307.09993 1.8607431e-18 0.50277657)
(307.30815 -1.961052e-17 0.30866741)
(306.64294 -2.9276466e-16 0.77624342)
(306.82054 1.4443085e-17 0.640302)
(306.24797 3.5775571e-17 0.94373175)
(306.40918 3.2622022e-16 0.86026342)
(305.89755 2.33868e-16 1.0148566)
(306.03888 9.7417502e-16 0.97447759)
(305.59044 -3.8663256e-16 0.99910434)
(305.71391 1.9526071e-17 0.99708877)
(305.32981 3.4961976e-16 0.90801231)
(305.4324 -8.3448011e-18 0.9478749)
(305.11272 1.8424273e-16 0.72542561)
(305.20246 1.9254367e-17 0.8225795)
(304.9039 -3.3102932e-16 0.50680839)
(304.9991 -2.9325236e-16 0.57091444)
(304.78418 1.5374197e-16 0.53237919)
(304.72396 -3.2157688e-18 0.17230391)
(304.64969 1.6532416e-16 -0.43632387)
(205.88616 5.6747512e-17 -7.9500611)
(191.22308 -6.0046631e-18 -8.1278964)
(233.07185 -3.2970344e-17 -9.0416924)
(223.67706 -9.0961949e-17 -9.092694)
(253.12353 7.9816463e-17 -9.8908023)
(244.89925 -3.4656076e-18 -10.076652)
(271.94633 -4.9241342e-17 -10.737657)
(263.82425 6.4649649e-17 -10.950257)
(291.68222 -5.6398486e-17 -11.684327)
(282.8188 -1.0797594e-16 -11.891121)
(309.00661 3.2183712e-18 -12.636278)
(303.84022 -1.841721e-19 -12.944817)
(317.29191 3.8914149e-18 -13.089348)
(316.41768 4.1908108e-17 -13.9921)
(317.95499 4.6671809e-18 -13.1826)
(318.73367 3.5149419e-17 -13.536346)
(317.72037 0 -13.247658)
(317.23358 -2.5775472e-17 -14.381658)
(317.9925 0 -13.351463)
(318.51241 0 -13.514478)
(317.89325 0 -13.458201)
(317.58948 -1.5428516e-17 -14.687476)
(318.15526 2.5247839e-17 -13.602116)
(318.46697 1.7118814e-17 -13.728558)
(318.2066 1.9826311e-17 -13.76817)
(318.01103 2.7506554e-17 -14.940304)
(318.49183 -2.1471284e-17 -13.97372)
(318.65583 -1.1441322e-17 -14.179971)
(318.68308 -3.2911835e-18 -14.221868)
(318.53266 -1.9680279e-17 -15.244298)
(319.03373 8.8403051e-18 -14.519142)
(319.08519 1.6363374e-17 -14.845395)
(319.35684 0 -14.880319)
(319.21386 -1.4094309e-17 -15.730375)
(319.79781 -1.7399325e-17 -15.306963)
(319.75571 0 -15.731489)
(320.24758 -2.0994314e-17 -15.817901)
(320.08803 7.1985362e-19 -16.519537)
(320.78192 -2.4384261e-17 -16.409076)
(320.66307 -8.365533e-18 -16.886165)
(321.32849 -2.9498155e-17 -17.090939)
(321.14631 -1.9742639e-17 -17.691642)
(321.90474 -3.4775983e-17 -17.84202)
(321.74327 0 -18.350565)
(322.43874 -1.0080393e-16 -18.636982)
(322.26726 -8.6706228e-18 -19.21734)
(322.88878 2.7041896e-17 -19.402246)
(322.76142 8.6011857e-17 -20.000975)
(323.16126 1.1975962e-16 -20.032233)
(323.09034 4.5051142e-17 -20.750462)
(323.17495 -6.0242505e-17 -20.36685)
(323.20091 9.5247624e-17 -21.232445)
(322.8499 -1.9603812e-16 -20.231252)
(322.98803 -6.6446095e-17 -21.308544)
(322.15247 -1.5006728e-16 -19.481583)
(322.4116 -1.3515568e-16 -20.777848)
(321.09582 1.5670273e-16 -18.077333)
(321.46635 0 -19.566127)