/*--------------------------------*- C++ -*----------------------------------*\
  =========                 |
  \\      /  F ield         | OpenFOAM: The Open Source CFD Toolbox
   \\    /   O peration     | Website:  https://openfoam.org
    \\  /    A nd           | Version:  8
     \\/     M anipulation  |
\*---------------------------------------------------------------------------*/
FoamFile
{
    version     2.0;
    format      ascii;
    class       volScalarField;
    location    "0.299999";
    object      T;
}
// * * * * * * * * * * * * * * * * * * * * * * * * * * * * * * * * * * * * * //

dimensions      [0 0 0 1 0 0 0];

internalField   nonuniform List<scalar> 
20000
(
273.95138
273.61772
273.18145
272.25582
270.29161
266.31485
259.0449
256.37997
257.03567
256.99241
257.52637
257.63672
258.12618
258.38827
258.90712
259.33384
259.95462
260.58219
261.37976
262.26343
263.32349
264.54062
265.9676
267.61917
269.52967
271.72106
274.20515
276.97052
279.94479
282.96228
285.79715
288.24134
290.27144
291.90362
293.1804
294.16172
294.93682
295.52369
295.97468
296.31641
296.57953
296.79548
296.9733
297.13661
297.297
297.4593
297.57118
297.73072
297.70802
298.09667
274.03328
273.76033
273.34781
272.40929
270.37502
266.25503
258.98372
256.5977
257.26724
257.21626
257.75984
257.87
258.37075
258.64111
259.17158
259.61226
260.24722
260.89398
261.71063
262.61933
263.70531
264.9527
266.40983
268.08947
270.01851
272.2095
274.66246
277.34974
280.2007
283.08492
285.81507
288.23719
290.25774
291.88833
293.1662
294.14747
294.92259
295.50956
295.96094
296.30347
296.56776
296.78578
296.96581
297.13197
297.29511
297.4593
297.60243
297.73096
297.82589
298.06991
274.08399
273.87096
273.47556
272.5145
270.38906
266.06802
258.85726
256.80878
257.50177
257.45145
258.00775
258.12274
258.63297
258.91201
259.45217
259.90621
260.55348
261.21862
262.05258
262.9851
264.09496
265.37095
266.85611
268.56331
270.51369
272.71336
275.15095
277.78964
280.55681
283.33583
285.9721
288.31819
290.29725
291.90569
293.1773
294.15384
294.92461
295.50916
295.95675
296.29665
296.56019
296.78035
296.96392
297.13304
297.29925
297.46437
297.60112
297.73736
297.83151
298.07669
274.18186
274.02824
273.6516
272.66991
270.45038
265.9037
258.80745
257.0764
257.75728
257.7027
258.26809
258.38536
258.90456
259.19219
259.74225
260.21006
260.87022
261.5545
262.40705
263.36506
264.50091
265.80816
267.32469
269.06378
271.04044
273.25482
275.68505
278.28311
280.97163
283.64642
286.17803
288.44825
290.37551
291.95122
293.20109
294.16334
294.92807
295.5103
295.9562
296.29504
296.55791
296.77852
296.96276
297.1328
297.30209
297.46877
297.61052
297.74307
297.88769
298.07453
274.26691
274.17303
273.81561
272.81238
270.49507
265.68914
258.7745
257.32679
258.02005
257.96458
258.54078
258.66248
259.19062
259.48755
260.0471
260.52922
261.20233
261.90663
262.77833
263.76261
264.92519
266.26445
267.81336
269.58579
271.59129
273.82448
276.25353
278.82096
281.44451
284.02626
286.45747
288.63743
290.49877
292.02958
293.25061
294.19271
294.94298
295.51561
295.95833
296.29565
296.55761
296.77833
296.96292
297.13407
297.30716
297.47467
297.61531
297.75028
297.91753
298.07459
274.37783
274.34036
274.00098
272.97406
270.55568
265.45701
258.79065
257.59059
258.29975
258.24223
258.82749
258.95304
259.48943
259.79605
260.36529
260.86272
261.54965
262.27518
263.16737
264.17935
265.37029
266.74331
268.3268
270.13496
272.17186
274.42643
276.85718
279.39733
281.95977
284.45237
286.78281
288.87082
290.65869
292.13604
293.31974
294.2354
294.96816
295.52937
295.96413
296.29773
296.55853
296.77895
296.9635
297.13684
297.31284
297.48107
297.6226
297.75987
297.95312
298.07437
274.49788
274.51481
274.19109
273.13829
270.61687
265.19449
258.84565
257.86731
258.58906
258.53081
259.12543
259.25608
259.80095
260.1184
260.69779
261.21172
261.91326
262.66121
263.57487
264.61567
265.83624
267.2444
268.86414
270.70973
272.77986
275.05747
277.49156
280.00691
282.51232
284.92005
287.15188
289.14409
290.85208
292.26884
293.40934
294.2935
295.00421
295.5505
295.97596
296.30373
296.56121
296.78062
296.96575
297.14145
297.31987
297.48826
297.62976
297.77416
297.97915
298.07483
274.63311
274.70285
274.39001
273.3089
270.68188
264.91026
258.94367
258.15618
258.89004
258.83154
259.43513
259.57163
260.12507
260.45443
261.04453
261.57608
262.29304
263.06448
264.00079
265.07166
266.32346
267.76845
269.4265
271.31144
273.41646
275.71795
278.15553
280.64606
283.09518
285.41975
287.55379
289.44944
291.07362
292.42457
293.5166
294.36481
295.05026
295.57926
295.99316
296.31379
296.56733
296.78505
296.97009
297.14777
297.32795
297.49596
297.63791
297.79477
298.00147
298.07828
274.77562
274.89757
274.59411
273.47966
270.74358
264.60668
259.08232
258.45596
259.20111
259.14349
259.7562
259.89981
260.46216
260.80459
261.40582
261.95595
262.68899
263.48494
264.44496
265.54709
266.83164
268.31515
270.01335
271.93924
274.08018
276.40563
278.84575
281.31032
283.70292
285.94523
287.98254
289.7809
291.31868
292.60009
293.63987
294.44855
295.10567
295.61502
296.01584
296.32803
296.57651
296.79191
296.97662
297.15584
297.33718
297.50412
297.64647
297.82028
298.01903
298.08343
274.92849
275.10272
274.80608
273.65205
270.79978
264.29153
259.26238
258.76766
259.52366
259.4678
260.08949
260.2412
260.81251
261.16886
261.78143
262.35096
263.10079
263.92224
264.90714
266.04185
267.36097
268.88486
270.62522
272.5936
274.77127
277.12006
279.56079
281.99696
284.33132
286.49105
288.43203
290.13315
291.58303
292.79236
293.77696
294.54324
295.1696
295.65738
296.04361
296.34628
296.5889
296.80139
296.98529
297.16559
297.34748
297.51264
297.65557
297.84805
298.03545
298.08966
275.09151
275.32021
275.02761
273.82663
270.84623
263.97663
259.48328
259.09116
259.85762
259.80458
260.43509
260.59577
261.17592
261.54684
262.17095
262.76074
263.52816
264.37615
265.38717
266.55586
267.91143
269.47752
271.26184
273.27389
275.48846
277.85914
280.2976
282.702
284.97564
287.05184
288.89679
290.50094
291.86237
292.99819
293.9257
294.64747
295.24111
295.7057
296.07616
296.36838
296.60432
296.81336
296.99606
297.17696
297.35879
297.52157
297.66551
297.87689
298.05139
298.09682
275.26613
275.55049
275.25949
274.00374
270.87811
263.67248
259.74289
259.42671
260.20326
260.15395
260.79279
260.96296
261.55164
261.93787
262.57392
263.18501
263.9709
264.84645
265.885
267.08929
268.4834
270.09362
271.92371
273.98047
276.23172
278.62217
281.05463
283.42305
285.63267
287.62378
289.37263
290.88028
292.15325
293.21487
294.08411
294.75987
295.31929
295.75943
296.1131
296.39411
296.62269
296.82778
297.00882
297.18987
297.37101
297.53101
297.67733
297.90566
298.06718
298.10472
275.45034
275.78978
275.49913
274.18162
270.88708
263.3903
260.02668
259.7748
260.56014
260.51492
261.16135
261.34168
261.93892
262.34158
262.9902
263.62363
264.42885
265.33307
266.40075
267.64241
269.07715
270.73327
272.61068
274.71275
276.99977
279.40698
281.82887
284.15646
286.2983
288.20246
289.8551
291.26696
292.45204
293.43954
294.25009
294.87895
295.40313
295.81789
296.154
296.42321
296.64384
296.84451
297.02348
297.20421
297.38398
297.54114
297.69258
297.93323
298.08266
298.11315
275.64812
276.04
275.74944
274.36264
270.86703
263.14274
260.36112
260.13242
260.92584
260.88554
261.53973
261.73142
262.3378
262.75804
263.41983
264.07642
264.90187
265.83607
266.93477
268.21573
269.69325
271.3971
273.32327
275.47105
277.79238
280.21262
282.61861
284.8999
286.96981
288.78487
290.34103
291.65788
292.75596
293.66991
294.42186
295.00342
295.49171
295.88046
296.19844
296.45538
296.66761
296.86343
297.03996
297.21985
297.39748
297.55205
297.71294
297.95847
298.09756
298.12195
275.84922
276.29248
276.00211
274.541
270.80412
262.94052
260.71354
260.49856
261.30005
261.26635
261.92846
262.13292
262.74863
263.18733
263.86259
264.54314
265.39009
266.35579
267.48761
268.80975
270.33211
272.08524
274.06141
276.25466
278.60808
281.03667
283.42071
285.64985
287.64353
289.36733
290.82685
292.04971
293.0621
293.90358
294.59758
295.13191
295.58406
295.94647
296.24595
296.4903
296.69378
296.88438
297.05812
297.23663
297.41126
297.56369
297.73887
297.98107
298.1118
298.13094
276.06104
276.5541
276.26266
274.72394
270.70206
262.78286
261.10364
260.87539
261.68454
261.65854
262.32836
262.54639
263.17125
263.62901
264.31815
265.02381
265.89381
266.89283
268.05991
269.4251
270.99432
272.79838
274.82563
277.06383
279.44636
281.87787
284.2333
286.40405
288.31703
289.9474
291.31013
292.44008
293.36827
294.13871
294.77576
295.26327
295.67932
296.0153
296.29611
296.52765
296.72213
296.90719
297.07787
297.25441
297.42509
297.57587
297.76778
298.003
298.12561
298.14004
276.285
276.8253
276.53113
274.91219
270.55838
262.67476
261.50215
261.26301
262.0794
262.06191
262.73896
262.9711
263.60495
264.08258
264.78649
265.51883
266.41379
267.44794
268.6523
270.0623
271.68029
273.53674
275.61575
277.89765
280.30536
282.7335
285.0531
287.1591
288.98701
290.52197
291.788
292.82639
293.67219
294.37337
294.95487
295.39632
295.77661
296.08631
296.34846
296.56707
296.7524
296.9317
297.09906
297.27301
297.43881
297.58855
297.7989
298.02457
298.1397
298.14918
276.51681
277.10082
276.80162
275.10235
270.36965
262.61943
261.8825
261.66149
262.48404
262.47547
263.15914
263.40614
264.04923
264.54811
265.26823
266.02905
266.95087
268.02178
269.26536
270.72195
272.39071
274.30108
276.43231
278.75609
281.18425
283.60193
285.87803
287.91276
289.6513
291.08902
292.25854
293.20683
293.97219
294.60613
295.13371
295.53009
295.87518
296.15895
296.40259
296.60827
296.78435
296.95772
297.12157
297.29224
297.4524
297.60203
297.83141
298.04596
298.15341
298.15834
276.76221
277.38463
277.07588
275.29515
270.14074
262.62211
262.28477
262.06821
262.89653
262.89778
263.58808
263.85134
264.5046
265.02655
265.76449
266.55542
267.50581
268.61486
269.89961
271.40456
273.12612
275.09162
277.27501
279.63783
282.08071
284.48004
286.70468
288.66173
290.30695
291.64591
292.71947
293.57939
294.26654
294.83551
295.31109
295.66361
295.97426
296.23264
296.45809
296.65091
296.81772
296.98509
297.14521
297.31189
297.46603
297.61732
297.86458
298.06683
298.16671
298.16746
277.01522
277.66973
277.34561
275.48111
269.87305
262.6816
262.69124
262.48202
263.31649
263.3292
264.02661
264.30792
264.97244
265.51923
266.2763
267.09861
268.07898
269.22757
270.55558
272.11092
273.88734
275.90918
278.14419
280.54252
282.9934
285.36589
287.53084
289.40389
290.952
292.19098
293.16931
293.94277
294.55404
295.06049
295.48611
295.79611
296.07323
296.3069
296.51458
296.69471
296.85228
297.01365
297.1698
297.33168
297.48001
297.63632
297.89728
298.08672
298.17928
298.17641
277.27923
277.95918
277.6104
275.65751
269.57981
262.81227
263.10937
262.90498
263.74544
263.77123
264.47637
264.77751
265.45418
266.02707
266.8042
267.6588
268.67066
269.86041
271.23396
272.8418
274.67499
276.75395
279.03915
281.4683
283.91945
286.25605
288.35302
290.13608
291.5838
292.72206
293.6063
294.29547
294.83343
295.27998
295.65785
295.92681
296.17145
296.38124
296.57171
296.73941
296.88782
297.04325
297.19512
297.35131
297.49469
297.66129
297.92824
298.1052
298.19071
298.185
277.55591
278.25551
277.87051
275.81757
269.2717
263.00843
263.53737
263.33822
264.18508
264.22567
264.939
265.26136
265.95044
266.55022
267.34814
268.23607
269.2812
270.514
271.93567
273.59816
275.49009
277.6266
279.95998
282.41425
284.85707
287.14823
289.16893
290.85621
292.20065
293.23783
294.02938
294.63658
295.10392
295.49328
295.82569
296.05518
296.26843
296.45526
296.62916
296.78476
296.92416
297.07374
297.22093
297.37052
297.51031
297.69341
297.95688
298.12212
298.20063
298.19263
277.84537
278.55993
278.12627
275.95288
268.96355
263.27027
263.97725
263.78404
264.63748
264.69398
265.41518
265.75939
266.4609
267.08821
267.90802
268.83059
269.91124
271.18929
272.66168
274.38099
276.33315
278.52711
280.90534
283.37788
285.80278
288.03866
289.97498
291.56123
292.80019
293.73659
294.43732
294.96505
295.36466
295.69962
295.98897
296.18063
296.36367
296.52856
296.68661
296.83053
296.96111
297.10497
297.24701
297.38913
297.52701
297.73107
297.98427
298.13764
298.20894
298.19835
278.15424
278.87978
278.38209
276.05688
268.67531
263.57772
264.43045
264.24336
265.10293
265.1757
265.90381
266.27063
266.98476
267.64087
268.48405
269.44305
270.56173
271.88736
273.41315
275.19139
277.2052
279.45589
281.87484
284.35763
286.75429
288.92475
290.76872
292.24917
293.38108
294.2175
294.82958
295.28037
295.61516
295.89857
296.14727
296.30278
296.45684
296.60082
296.74381
296.87655
296.99855
297.13675
297.27309
297.40725
297.54523
297.7723
298.0109
298.15183
298.2158
298.20176
278.47438
279.20901
278.63357
276.1108
268.41875
263.89975
264.89657
264.71372
265.57891
265.66871
266.40361
266.79435
267.52204
268.2085
269.07701
270.07442
271.23389
272.60944
274.19121
276.03025
278.10662
280.41234
282.86646
285.35021
287.70761
289.8024
291.54654
292.91738
293.9416
294.67946
295.20537
295.58189
295.85481
296.08964
296.30021
296.42122
296.5476
296.67174
296.80049
296.9226
297.03635
297.16888
297.29893
297.42525
297.56627
297.81553
298.03629
298.16418
298.22113
298.20389
278.80999
279.55412
278.88773
276.10823
268.21487
264.325
265.37171
265.19325
266.06374
266.17215
266.91469
267.33099
268.07347
268.79202
269.68805
270.72599
271.92895
273.35673
274.99707
276.89874
279.03828
281.39652
283.8791
286.35342
288.65991
290.66879
292.30615
293.56451
294.48115
295.12208
295.56432
295.86944
296.08328
296.27267
296.44765
296.53561
296.63573
296.74107
296.85643
296.96851
297.07437
297.20111
297.32426
297.44383
297.59263
297.8588
298.05972
298.17393
298.22406
298.20553
279.1565
279.91029
279.14258
276.03521
268.06765
264.76328
265.85559
265.68223
266.55902
266.68752
267.43795
267.88156
268.64008
269.39261
270.31843
271.39899
272.64817
274.13054
275.83179
277.79772
280.00013
282.40715
284.90976
287.36319
289.6066
291.51976
293.04466
294.18911
294.99892
295.54461
295.90545
296.14264
296.30015
296.44756
296.58947
296.64563
296.72088
296.80861
296.91143
297.0141
297.11247
297.23317
297.34887
297.46388
297.62745
297.89964
298.08062
298.18163
298.22535
298.20698
279.51019
280.27759
279.40399
275.88995
267.99158
265.26099
266.35079
266.18276
267.06602
267.21568
267.97425
268.44701
269.22312
270.01154
270.96949
272.09466
273.39277
274.93204
276.69668
278.72831
280.99279
283.44355
285.95655
288.37652
290.54449
292.35274
293.76105
294.79123
295.49481
295.94661
296.228
296.40132
296.50557
296.61449
296.72563
296.75116
296.80272
296.87427
296.96536
297.05918
297.15045
297.2648
297.37273
297.4863
297.67282
297.93644
298.09834
298.18748
298.22554
298.20848
279.87842
280.6608
279.67801
275.67406
267.99377
265.71141
266.85654
266.69454
267.58434
267.75693
268.52466
269.02867
269.82399
270.65001
271.64238
272.81413
274.16402
275.76256
277.59292
279.69115
282.01565
284.5034
287.01549
289.38855
291.46893
293.16456
294.45436
295.37028
295.96747
296.32683
296.53126
296.64488
296.70001
296.77361
296.85573
296.85232
296.88086
296.93795
297.01811
297.1036
297.18806
297.29575
297.39609
297.5121
297.72696
297.96997
298.11248
298.18956
298.22571
298.20786
280.25035
281.05171
279.95794
275.38431
268.07457
266.20266
267.37134
267.21742
268.11455
268.31363
269.09096
269.62792
270.44374
271.30899
272.33812
273.55865
274.96319
276.62357
278.52185
280.6873
283.06863
285.58518
288.0836
290.39572
292.37695
293.9542
295.12505
295.92521
296.41492
296.68411
296.81611
296.87303
296.88464
296.92494
296.97924
296.94946
296.95534
296.99958
297.06962
297.14728
297.22503
297.32582
297.41961
297.54264
297.78459
298.00222
298.12524
298.19016
298.22087
298.20479
280.63526
281.45436
280.24652
275.035
268.24164
266.70313
267.89794
267.75461
268.66026
268.88628
269.67402
270.24545
271.08318
271.98931
273.05799
274.32947
275.7918
277.51651
279.48473
281.71683
284.15025
286.68521
289.15592
291.39276
293.26478
294.72057
295.77156
296.45175
296.83488
297.01796
297.08368
297.08607
297.06025
297.06782
297.09572
297.04259
297.0269
297.05893
297.11986
297.19018
297.26113
297.35482
297.44417
297.58024
297.84122
298.03262
298.13739
298.18994
298.21439
298.19891
281.03042
281.86752
280.53816
274.63697
268.4939
267.22543
268.43918
268.30789
269.22213
269.47567
270.2743
270.88167
271.74313
272.69214
273.80318
275.12811
276.65143
278.44314
280.4829
282.78042
285.25943
287.80086
290.2286
292.37626
294.13103
295.46403
296.39016
296.94747
297.2264
297.32994
297.33568
297.28544
297.22634
297.2017
297.20565
297.13089
297.09679
297.11571
297.16884
297.23233
297.29623
297.38259
297.47057
297.62773
297.89163
298.0588
298.14793
298.18941
298.20742
298.18985
281.44155
282.2946
280.82771
274.21789
268.78932
267.76578
268.99497
268.87711
269.79907
270.08175
270.89198
271.53733
272.42482
273.41868
274.57525
275.95634
277.5439
279.40507
281.5173
283.87725
286.39327
288.92707
291.29599
293.34172
294.97404
296.1823
296.97544
297.40949
297.59087
297.62432
297.57134
297.47335
297.38073
297.328
297.30949
297.21291
297.16546
297.16975
297.21652
297.2737
297.33026
297.4092
297.49919
297.6853
297.93271
298.07852
298.1539
298.18856
298.20375
298.17394
281.86542
282.73239
281.10237
273.79505
269.16437
268.32061
269.56304
269.46081
270.39081
270.70507
271.52796
272.21375
273.1297
274.17048
275.37592
276.81601
278.47116
280.40413
282.589
285.00701
287.54938
290.06005
292.35407
294.28706
295.79383
296.86998
297.52466
297.83814
297.93382
297.90001
297.79084
297.64929
297.52475
297.44659
297.40691
297.29028
297.23199
297.22138
297.26288
297.31415
297.36313
297.43506
297.53053
297.74579
297.96749
298.09284
298.15663
298.18693
298.2016
298.15265
282.29727
283.17963
281.34772
273.39073
269.62095
268.88918
270.14427
270.06027
270.99888
271.34729
272.18392
272.91237
273.85939
274.94913
276.20708
277.70934
279.43525
281.44184
283.69806
286.16749
288.7231
291.19368
293.39751
295.20957
296.58778
297.52052
298.0346
298.23786
298.25649
298.15611
297.9948
297.81351
297.65862
297.55797
297.49853
297.36315
297.295
297.27146
297.30779
297.3534
297.39464
297.46102
297.56636
297.80434
297.99732
298.10382
298.15754
298.18431
298.19878
298.13041
282.73621
283.64153
281.55272
273.03821
270.13985
269.47412
270.74083
270.67766
271.62492
272.00996
272.86168
273.63445
274.61538
275.75655
277.07096
278.63862
280.4383
282.51975
284.84476
287.35691
289.91065
292.32348
294.42328
296.10873
297.35015
298.13046
298.50619
298.61524
298.55644
298.39364
298.18388
297.96625
297.78314
297.66243
297.58496
297.43218
297.35341
297.32064
297.35107
297.39115
297.42452
297.48807
297.60943
297.85656
298.02329
298.11324
298.15759
298.1799
298.19413
298.11146
283.17905
284.11937
281.70356
272.79286
270.72409
270.07575
271.35335
271.31458
272.27033
272.69419
273.56268
274.38116
275.39964
276.59501
277.97011
279.60639
281.48231
283.63872
286.02779
288.57118
291.10581
293.44324
295.42744
296.9819
298.0732
298.69629
298.94603
298.9684
298.83419
298.61302
298.35867
298.10774
297.89887
297.76032
297.66635
297.49705
297.40834
297.3685
297.39251
297.42718
297.45277
297.51682
297.66133
297.90005
298.04497
298.12123
298.15708
298.17394
298.18715
298.09664
283.61923
284.60962
281.78397
272.61263
271.30803
270.69606
271.98387
271.97256
272.93597
273.4011
274.28769
275.15451
276.21449
277.46737
278.90727
280.61508
282.56924
284.79955
287.2461
289.80679
292.30382
294.54903
296.40858
297.8243
298.75195
299.21849
299.36087
299.29567
299.09047
298.81525
298.51993
298.23846
298.00653
297.85198
297.74272
297.55774
297.4604
297.41518
297.43188
297.46153
297.47979
297.54739
297.7183
297.93616
298.0616
298.12553
298.1552
298.1686
298.17568
298.0841
284.05595
285.11205
281.79727
272.52844
271.91239
271.33574
272.63322
272.65182
273.62256
274.1314
275.03893
275.95712
277.06305
278.3767
279.88513
281.66709
283.70038
286.00194
288.49624
291.05781
293.49765
295.63584
297.36375
298.62676
299.38228
299.70409
299.74835
299.59745
299.32604
299.00101
298.66827
298.35898
298.1065
297.93766
297.81404
297.61454
297.50998
297.4606
297.46918
297.4944
297.5065
297.58004
297.77489
297.96688
298.07397
298.12755
298.15281
298.1643
298.16011
298.07318
284.48513
285.605
281.75933
272.54092
272.54397
271.99333
273.30041
273.35212
274.33127
274.88758
275.81984
276.79235
277.94866
279.32588
280.90623
282.76452
284.87716
287.24534
289.77533
292.31915
294.68267
296.70101
298.2899
299.38218
299.96351
300.1605
300.10688
299.87475
299.54202
299.17131
298.80448
298.46999
298.19932
298.01767
297.88047
297.66785
297.55718
297.50443
297.50488
297.52599
297.53403
297.61612
297.82779
297.99291
298.08339
298.12816
298.14988
298.16037
298.14221
298.06369
284.91593
286.11218
281.66324
272.67189
273.19484
272.66909
273.98622
274.0771
275.06571
275.67373
276.63422
277.66358
278.87424
280.31767
281.97304
283.90933
286.09993
288.52746
291.07766
293.58348
295.85246
297.7408
299.17686
300.08577
300.50143
300.58693
300.43632
300.12847
299.73929
299.32694
298.92923
298.57206
298.28538
298.09227
297.94236
297.71818
297.602
297.54579
297.53975
297.55637
297.56288
297.6584
297.87357
298.01482
298.09109
298.12808
298.14619
298.15726
298.12522
298.05549
285.33188
286.61672
281.52522
272.9221
273.87584
273.3688
274.69604
274.83115
275.83063
276.49388
277.48518
278.57339
279.84239
281.35469
283.08788
285.10332
287.369
289.84593
292.39839
294.84516
297.00327
298.75283
300.01652
300.73504
301.00454
300.98145
300.73799
300.35993
299.91906
299.46891
299.04332
298.66587
298.36517
298.16179
298.00022
297.766
297.64467
297.58415
297.57379
297.58555
297.59298
297.70808
297.91008
298.03286
298.09732
298.12782
298.14194
298.15328
298.11027
298.04832
285.74999
287.11431
281.36803
273.29839
274.58472
274.09766
275.4343
275.61876
276.62979
277.35054
278.37517
279.52407
280.85575
282.43974
284.2532
286.34775
288.68308
291.19583
293.72991
296.0968
298.12976
299.72852
300.80122
301.33277
301.47532
301.34287
301.01285
300.57017
300.0823
299.59801
299.1474
298.75194
298.43908
298.22658
298.05456
297.81144
297.68499
297.61991
297.60611
297.61386
297.62118
297.75874
297.94153
298.04724
298.10143
298.12644
298.13769
298.14672
298.09709
298.04206
286.17287
287.59199
281.22149
273.78406
275.32906
274.8615
276.20681
276.44185
277.46386
278.2446
279.30648
280.51838
281.91704
283.57571
285.47124
287.6436
290.04052
292.57254
295.0661
297.33358
299.22927
300.65812
301.52751
301.88825
301.91124
301.6729
301.26247
300.76066
300.23021
299.71525
299.24228
298.83093
298.50755
298.28701
298.10588
297.85461
297.72304
297.65326
297.63587
297.6416
297.64952
297.80831
297.96805
298.05799
298.10341
298.12471
298.13423
298.13764
298.08535
298.03665
286.62661
288.04351
281.1249
274.27316
276.10964
275.66056
277.00984
277.29921
278.3338
279.17718
280.28225
281.55967
283.02983
284.76553
286.74398
288.9906
291.43734
293.96854
296.39856
298.54886
300.29546
301.53038
302.19406
302.40844
302.30963
301.97249
301.48806
300.93252
300.36377
299.8214
299.32857
298.90332
298.57096
298.34347
298.1545
297.89539
297.75877
297.68461
297.66359
297.66891
297.68099
297.85411
297.99024
298.06606
298.10421
298.12259
298.13103
298.12654
298.07491
298.032
287.10026
288.4355
281.08647
274.87403
276.91271
276.48899
277.84236
278.19265
279.24353
280.15267
281.30587
282.65205
284.19713
286.01196
288.07301
290.38793
292.86922
295.37726
297.72121
299.73851
301.31762
302.34109
302.8102
302.89035
302.67265
302.24351
301.69134
301.08721
300.48416
299.9174
299.40703
298.9697
298.62975
298.39632
298.2006
297.93355
297.79189
297.71396
297.69069
297.69635
297.71633
297.89363
298.00849
298.07233
298.10434
298.12003
298.12793
298.11336
298.06578
298.02798
287.61745
288.75431
281.13039
275.65523
277.7437
277.35566
278.71114
279.1283
280.19798
281.17567
282.38184
283.79901
285.42241
287.31787
289.45925
291.83251
294.32912
296.78932
299.02602
300.89577
302.28332
303.0855
303.3844
303.33135
303.00109
302.48733
301.87363
301.22588
300.59231
300.00401
299.47825
299.03054
298.68428
298.44587
298.24408
297.96882
297.82246
297.74192
297.718
297.72432
297.76187
297.92479
298.02351
298.07733
298.10408
298.11691
298.12523
298.10128
298.05781
298.0245
288.18698
288.99057
281.27572
276.44789
278.6103
278.26458
279.62213
280.11052
281.20117
282.24992
283.51381
285.0042
286.70898
288.68577
290.90256
293.32078
295.81005
298.19768
300.30721
302.01286
303.18431
303.77012
303.9175
303.73208
303.2972
302.70596
302.03667
301.34994
300.68936
300.08209
299.54292
299.08637
298.73496
298.49237
298.28472
298.00121
297.85088
297.76903
297.74606
297.75241
297.80648
297.95186
298.03612
298.0813
298.10335
298.11343
298.12254
298.08977
298.05089
298.02147
288.82753
289.1504
281.53399
277.28041
279.51618
279.22149
280.57905
281.1426
282.25664
283.37822
284.70544
286.27192
288.06062
290.11758
292.40107
294.84587
297.30229
299.59283
301.55723
303.07472
304.01429
304.40364
304.40621
304.09378
303.56249
302.90092
302.18178
301.46049
300.77617
300.15235
299.60158
299.13762
298.78212
298.53597
298.3223
298.03105
297.87784
297.79569
297.77441
297.78
297.84724
297.97517
298.04649
298.08426
298.10251
298.1106
298.1181
298.07927
298.04484
298.01884
289.54076
289.2478
281.89856
278.17911
280.46116
280.22861
281.58329
282.22612
283.36955
284.56493
285.96152
287.60688
289.48087
291.61404
293.95153
296.40069
298.79742
300.96774
302.76973
304.07009
304.77412
304.99317
304.84928
304.41885
303.79931
303.07425
302.31065
301.55886
300.85377
300.21558
299.65486
299.18478
298.82611
298.57681
298.35675
298.05887
297.90391
297.82197
297.8023
297.80725
297.88623
297.99492
298.05438
298.08585
298.10153
298.10819
298.11125
298.06992
298.03964
298.01663
290.32344
289.24983
282.37913
279.14507
281.44734
281.28896
282.63929
283.36633
284.54415
285.81588
287.28784
289.01449
290.97243
293.17412
295.54746
297.97489
300.28447
302.31264
303.9287
304.99072
305.47292
305.53415
305.24838
304.70897
304.00941
303.22753
302.42456
301.64607
300.92297
300.27241
299.70326
299.22822
298.86717
298.615
298.38814
298.08513
297.92931
297.84769
297.82977
297.83546
297.92114
298.01121
298.06028
298.08645
298.10018
298.10592
298.10268
298.06183
298.03527
298.01485
291.21059
289.13965
282.97995
280.17693
282.47902
282.40747
283.75138
284.56876
285.7869
287.13874
288.69071
290.49874
292.53643
294.79445
297.18128
299.5586
301.75465
303.62024
305.02092
305.83266
306.12293
306.0241
305.60598
304.96689
304.1952
303.36272
302.5251
301.72334
300.98472
300.32356
299.74734
299.26839
298.90559
298.65064
298.41661
298.11012
297.95421
297.87322
297.85726
297.86583
297.95063
298.02447
298.0648
298.08644
298.09829
298.10379
298.09281
298.05499
298.03157
298.01334
292.22075
288.97888
283.7045
281.2748
283.56184
283.58792
284.92789
285.84008
287.10676
288.54048
290.17551
292.06317
294.17209
296.46884
298.84204
301.13935
303.19612
304.87654
306.03377
306.60416
306.71919
306.46446
305.9241
305.19465
304.35852
303.48134
302.61345
301.79163
301.03973
300.3696
299.78754
299.30563
298.9416
298.68386
298.44218
298.13409
297.97884
297.89891
297.88475
297.89827
297.97439
298.03534
298.06837
298.08611
298.09584
298.10187
298.08342
298.04896
298.02835
298.01213
293.3671
288.79386
284.54194
282.44415
284.70256
284.83784
286.1783
287.18938
288.51312
290.02825
291.74648
293.70835
295.87571
298.18892
300.51871
302.70658
304.60001
306.06568
306.96222
307.31693
307.25999
306.85785
306.20582
305.39508
304.50169
303.58524
302.69105
301.85201
301.08884
300.41117
299.82436
299.34033
298.9755
298.71488
298.4648
298.15734
298.00348
297.92502
297.91185
297.92932
297.99485
298.0443
298.07099
298.08529
298.093
298.09996
298.07456
298.04365
298.02547
298.01105
294.64441
288.6009
285.50999
283.6936
285.91181
286.16913
287.51578
288.62458
290.01296
291.60712
293.40555
295.43355
297.64101
299.94326
302.19719
304.24691
305.9528
307.17091
307.80946
307.97134
307.74443
307.20662
306.45347
305.57027
304.62645
303.6758
302.759
301.90533
301.1327
300.44878
299.85819
299.37279
299.00749
298.7438
298.48457
298.18027
298.02834
297.95152
297.93832
297.95821
298.01221
298.05144
298.07278
298.0846
298.09083
298.09651
298.06657
298.03899
298.02289
298.01005
296.00867
288.41488
286.61458
285.03512
287.20335
287.5922
288.94895
290.15463
291.61022
293.28024
295.15317
297.23437
299.45905
301.71913
303.86485
305.74851
307.23658
308.18583
308.58788
308.56457
308.17614
307.51431
306.67037
305.72299
304.73501
303.75473
302.81857
301.95256
301.17206
300.483
299.8895
299.40336
299.0377
298.77038
298.50218
298.20329
298.05353
297.97823
297.96383
297.98439
298.02687
298.05716
298.07403
298.08401
298.08916
298.09139
298.05956
298.03491
298.02053
298.00906
297.50695
288.28126
287.83482
286.47993
288.59018
289.11428
290.48544
291.78197
293.30709
295.04926
296.98825
299.10527
301.31763
303.50077
305.50568
307.19591
308.43236
309.1092
309.30187
309.09443
308.55736
307.7836
306.85902
305.85531
304.829
303.82329
302.87074
301.99446
301.20749
300.51429
299.91865
299.4323
299.06607
298.79384
298.51896
298.22672
298.07906
298.00497
297.98828
298.00768
298.03931
298.06188
298.07486
298.08322
298.08776
298.08548
298.05357
298.03161
298.01866
298.0082
299.07112
288.25592
289.15669
288.03737
290.08207
290.73795
292.12836
293.51046
295.10721
296.91623
298.90697
301.03586
303.20188
305.27244
307.10495
308.57075
309.53034
309.95351
309.94781
309.56505
308.8923
308.0184
307.02267
305.96982
304.91041
303.883
302.91666
302.03188
301.23965
300.54318
299.94604
299.45985
299.09267
298.81412
298.53565
298.25069
298.10487
298.03166
298.01186
298.0279
298.04995
298.06594
298.07542
298.08207
298.08672
298.07865
298.04841
298.02872
298.01706
298.00745
300.63221
288.51158
290.58553
289.7018
291.67744
292.46316
293.8834
295.34761
297.01436
298.88073
300.90354
303.01182
305.09349
307.01514
308.64429
309.85096
310.52686
310.7258
310.52247
309.97892
309.18409
308.22162
307.16371
306.0684
304.9807
303.93496
302.95718
302.06548
301.26906
300.57007
299.97199
299.48618
299.11764
298.83212
298.55203
298.27515
298.13075
298.05821
298.03503
298.04482
298.05903
298.06958
298.07624
298.08101
298.0857
298.07196
298.04375
298.02609
298.01559
298.00679
302.02523
289.09698
292.12766
291.46445
293.38071
294.29593
295.76383
297.30221
299.03408
300.93993
302.96428
305.01443
306.97228