/*--------------------------------*- C++ -*----------------------------------*\
  =========                 |
  \\      /  F ield         | OpenFOAM: The Open Source CFD Toolbox
   \\    /   O peration     | Website:  https://openfoam.org
    \\  /    A nd           | Version:  8
     \\/     M anipulation  |
\*---------------------------------------------------------------------------*/
FoamFile
{
    version     2.0;
    format      ascii;
    class       volVectorField;
    location    "0.299999";
    object      U;
}
// * * * * * * * * * * * * * * * * * * * * * * * * * * * * * * * * * * * * * //

dimensions      [0 1 -1 0 0 0 0];

internalField   nonuniform List<vector> 
20000
(
(249.38232 -7.0708284e-17 -2.8203338)
(288.2419 9.9937207e-17 -2.6901905)
(312.90548 -4.0175327e-17 -3.0971733)
(333.85057 3.4108404e-17 -3.3772045)
(352.99737 -5.8739415e-17 -3.6939217)
(370.14425 -2.604377e-17 -4.0248037)
(381.73803 -4.6400832e-20 -4.6215614)
(384.58259 3.5564258e-17 -4.3753688)
(383.52706 9.3448086e-19 -4.8764287)
(383.98206 0 -4.2734035)
(383.069 -1.9460232e-17 -5.0589953)
(383.0533 1.9395837e-17 -4.3137862)
(382.19365 2.7049043e-17 -5.1866531)
(381.75173 -2.3937241e-17 -4.5054004)
(380.76589 -2.5439077e-18 -5.3084792)
(379.88054 -1.6770306e-17 -4.831763)
(378.58604 1.7311121e-17 -5.4990948)
(377.15687 -2.3296729e-17 -5.285343)
(375.33897 3.8337536e-17 -5.8372491)
(373.18727 -1.5662926e-17 -5.8829645)
(370.57345 -1.3196978e-17 -6.3852955)
(367.43185 1.0623028e-17 -6.6483126)
(363.67751 0 -7.1449216)
(359.196 -3.5411581e-19 -7.5193093)
(353.91308 1.3090848e-17 -7.9283895)
(347.72479 -2.0521778e-17 -8.1547041)
(340.59418 3.4460911e-17 -8.1668795)
(332.52224 0 -7.8171862)
(323.67017 -2.3486714e-17 -7.108906)
(314.42849 3.6371552e-17 -6.1334408)
(305.43574 -1.5846847e-17 -5.0761289)
(297.31396 2.3052337e-17 -4.0645921)
(290.34476 1.9291765e-17 -3.1389871)
(284.55933 -1.4783769e-17 -2.3055566)
(279.88637 9.2504193e-17 -1.5538365)
(276.16918 -1.0647441e-16 -0.90751773)
(273.21767 5.3800245e-17 -0.36546886)
(270.90012 -2.021777e-17 0.08067845)
(269.07935 1.2134088e-16 0.4323207)
(267.64562 -2.2663768e-17 0.71145712)
(266.51608 1.6747226e-17 0.91649593)
(265.5911 2.4821201e-17 1.0642362)
(264.81839 -1.8205625e-17 1.1524703)
(264.13735 1.0803134e-16 1.1809372)
(263.51114 0 1.1405507)
(262.93283 -1.1868962e-16 1.0287848)
(262.49625 -1.1107245e-17 0.86314452)
(262.03667 -8.978948e-21 0.62881439)
(262.02805 1.3037037e-17 0.29918741)
(260.76852 3.578407e-17 -0.35048893)
(248.40782 0 -3.7840282)
(287.57428 0 -3.8334556)
(312.51238 0 -4.3272302)
(333.68304 0 -4.6937579)
(353.01372 0 -5.0880934)
(370.27488 8.0321294e-19 -5.4843226)
(381.4088 0 -6.1339972)
(383.95925 0 -5.8441481)
(382.84687 -9.499628e-19 -6.4205642)
(383.32131 0 -5.7683919)
(382.36712 -1.3192348e-18 -6.6408609)
(382.35213 3.3051875e-17 -5.8405633)
(381.45557 -2.7486381e-17 -6.7922199)
(380.9961 0 -6.0696254)
(379.97241 2.5445944e-18 -6.9347267)
(379.05255 -8.5105767e-18 -6.4405538)
(377.71295 -3.5311965e-18 -7.1541443)
(376.232 -2.3666412e-17 -6.9467586)
(374.35444 1.9523754e-17 -7.5365324)
(372.13135 1.6421008e-17 -7.6077731)
(369.43699 1.3283103e-19 -8.147665)
(366.20413 0 -8.448428)
(362.35238 0 -8.9844597)
(357.7752 3.0930989e-17 -9.399138)
(352.41172 3.8473738e-17 -9.8435082)
(346.18441 6.4152857e-17 -10.099044)
(339.09164 1.8131188e-17 -10.123434)
(331.1792 0 -9.7560356)
(322.61911 2.3853435e-17 -8.9743805)
(313.74108 -3.7433268e-17 -7.8449665)
(305.06692 -1.3807344e-16 -6.5556467)
(297.11986 0 -5.2731069)
(290.25093 -1.5475811e-16 -4.0870739)
(284.51975 0 -3.0335845)
(279.86748 -6.991528e-17 -2.104853)
(276.16404 1.7845794e-17 -1.3221764)
(273.22467 2.6992265e-17 -0.67653722)
(270.91459 0 -0.15207163)
(269.10219 -1.2226486e-16 0.25734349)
(267.67378 0 0.57973572)
(266.54527 3.0300334e-16 0.81629286)
(265.61696 -2.4813468e-17 0.9865278)
(264.83796 -2.9296279e-16 1.0915894)
(264.15115 -1.0793372e-16 1.1307733)
(263.51988 1.7928073e-16 1.0995712)
(262.93871 1.0334671e-16 0.99831634)
(262.46546 1.1021853e-17 0.84143817)
(262.04575 -8.2989906e-18 0.61766321)
(261.77419 1.0180109e-16 0.27633444)
(260.8252 -3.9307647e-17 -0.36296569)
(247.57896 -1.4887844e-16 -4.7600459)
(287.09674 1.0512035e-16 -4.9912217)
(312.28528 -8.3906956e-17 -5.5847048)
(333.66772 -1.1146777e-18 -6.0499768)
(353.16508 0 -6.5351359)
(370.5202 5.254497e-17 -7.0178643)
(381.06814 -4.4065678e-17 -7.7281955)
(383.30537 2.3179802e-18 -7.3918026)
(382.13724 0 -8.0247856)
(382.62578 -2.5834276e-17 -7.3111109)
(381.63149 2.6921463e-17 -8.2549555)
(381.61397 0 -7.3984082)
(380.68231 0 -8.4176188)
(380.20389 -6.2456333e-18 -7.6585708)
(379.14391 0 -8.5773783)
(378.18876 -5.026354e-20 -8.0716069)
(376.80476 4.3342619e-17 -8.824978)
(375.27066 -2.3918824e-17 -8.6285185)
(373.33241 -2.00534e-17 -9.2515876)
(371.03484 -1.6687335e-17 -9.3504945)
(368.25685 -2.7744511e-17 -9.9238725)
(364.92719 1.1399388e-17 -10.260519)
(360.9713 3.8306804e-17 -10.829442)
(356.28684 -3.1555839e-17 -11.276295)
(350.82529 -7.8708325e-17 -11.742471)
(344.53059 -4.3136046e-17 -12.008099)
(337.43395 -1.4259949e-16 -12.019924)
(329.62035 -2.9693949e-17 -11.610044)
(321.28309 2.3428844e-17 -10.741055)
(312.72227 0 -9.4647343)
(304.37235 1.5593669e-16 -7.9669929)
(296.68559 -2.4424501e-17 -6.4397578)
(289.98675 1.3667485e-16 -5.0125475)
(284.36216 1.5095827e-17 -3.7500656)
(279.76982 0 -2.6499709)
(276.10641 3.6192236e-17 -1.7325508)
(273.19236 1.6403837e-16 -0.98425285)
(270.89661 2.0479048e-17 -0.38204737)
(269.09881 0 0.084851269)
(267.68148 3.6521121e-16 0.4495466)
(266.55819 -3.0391495e-16 0.71659121)
(265.62919 2.4855661e-17 0.90837562)
(264.84569 4.7101379e-21 1.0289188)
(264.15447 -5.3945803e-17 1.0792034)
(263.51664 -4.3690369e-16 1.0568912)
(262.9333 1.4694171e-17 0.96569413)
(262.45736 3.3873606e-16 0.81770173)
(262.03917 -2.6270839e-16 0.60099215)
(261.66876 -1.0008673e-16 0.25154448)
(260.83694 1.5360585e-16 -0.37222318)
(246.73088 -1.496205e-16 -5.7455706)
(286.57953 -8.3035261e-19 -6.1553003)
(312.01602 -8.5716999e-17 -6.8509113)
(333.60864 1.0960101e-18 -7.4148548)
(353.26626 6.2565984e-17 -7.98982)
(370.71634 3.3531387e-18 -8.5551595)
(380.63724 0 -9.3142019)
(382.60056 -4.0129344e-17 -8.9318993)
(381.38205 6.3255654e-17 -9.6331394)
(381.88691 2.6384156e-17 -8.8600178)
(380.85331 -9.3332977e-17 -9.8827015)
(380.83426 4.5663877e-17 -8.9696969)
(379.86732 7.6425945e-18 -10.060311)
(379.36987 6.340213e-18 -9.2633308)
(378.27303 2.124611e-17 -10.236145)
(377.28168 -2.6395602e-17 -9.7178883)
(375.85181 -2.952495e-17 -10.510225)
(374.2623 2.4376015e-17 -10.324606)
(372.26044 2.0281816e-17 -10.979651)
(369.88477 1.6822847e-17 -11.105322)
(367.01896 -4.2301979e-17 -11.709325)
(363.58751 0 -12.078379)
(359.5214 -3.8802419e-17 -12.674462)
(354.72159 1.6319727e-17 -13.14561)
(349.15162 6.662129e-17 -13.622277)
(342.77527 2.1717895e-17 -13.882634)
(335.65478 7.2354773e-17 -13.862689)
(327.91257 3.0208324e-17 -13.390568)
(319.76528 -2.3831016e-17 -12.421347)
(311.49597 0 -10.999653)
(303.47091 0 -9.3103275)
(296.06666 2.0117489e-16 -7.5609718)
(289.57755 1.9943864e-17 -5.9107749)
(284.09813 2.3146778e-16 -4.4511463)
(279.60421 0 -3.186941)
(276.00741 0 -2.1395263)
(273.13569 -2.2014894e-16 -1.2914983)
(270.86649 0 -0.61264589)
(269.0826 5.2492345e-16 -0.088242446)
(267.67482 -7.5605854e-16 0.3187838)
(266.55722 0 0.61630159)
(265.63119 2.4949352e-17 0.82965565)
(264.84905 2.7477068e-16 0.96598419)
(264.15716 0 1.0271364)
(263.51199 3.1663272e-16 1.0137641)
(262.92659 -4.5268183e-16 0.93285265)
(262.44664 -7.0432256e-16 0.7940351)
(262.03072 2.5959544e-16 0.58080139)
(261.53223 0 0.22763619)
(260.85516 -1.5247062e-16 -0.37773851)
(245.91521 -1.5270055e-16 -6.7410262)
(286.09297 -1.7007501e-18 -7.331493)
(311.77364 8.7517835e-17 -8.1349981)
(333.57081 -7.4260771e-17 -8.802679)
(353.37507 -2.0005498e-18 -9.4724977)
(370.90528 -6.8252495e-18 -10.124427)
(380.13787 0 -10.927285)
(381.85568 0 -10.49789)
(380.58719 0 -11.267879)
(381.10651 0 -10.431406)
(380.03305 -1.1211483e-17 -11.531692)
(380.01128 -9.2959451e-18 -10.558997)
(379.00897 -2.3331992e-17 -11.719064)
(378.49132 -3.892208e-17 -10.883771)
(377.35699 2.1532514e-17 -11.908711)
(376.32724 0 -11.37949)
(374.84937 -3.0089274e-17 -12.20903)
(373.20104 4.9906069e-17 -12.035695)
(371.132 -8.3060666e-17 -12.720573)
(368.674 6.9165179e-17 -12.872731)
(365.71571 4.3162982e-17 -13.504146)
(362.17716 -3.5681934e-17 -13.902595)
(357.9944 -3.9669354e-17 -14.520327)
(353.07155 8.2273093e-17 -15.008505)
(347.38378 -5.4237663e-17 -15.484853)
(340.91449 2.2782514e-17 -15.725053)
(333.75596 5.7405164e-19 -15.654585)
(326.06536 9.1364992e-17 -15.100611)
(318.08228 3.7138527e-17 -14.016648)
(310.08061 -3.9827737e-17 -12.447078)
(302.3734 1.5748659e-17 -10.577172)
(295.27236 -1.7747221e-16 -8.6247938)
(289.02621 -3.9916047e-17 -6.7706083)
(283.72567 -2.3349168e-16 -5.1279218)
(279.35759 -3.8396733e-16 -3.7089702)
(275.8492 -3.2975454e-16 -2.5372365)
(273.04013 -3.8797843e-16 -1.5931572)
(270.81363 -3.5351581e-16 -0.84067712)
(269.05398 -5.2729489e-16 -0.26065015)
(267.66016 3.67776e-16 0.18815729)
(266.54948 -5.2593459e-16 0.51594566)
(265.62802 -2.4975278e-17 0.75075363)
(264.84895 -3.815591e-20 0.90264653)
(264.15499 1.341384e-17 0.97441092)
(263.50252 0 0.96996507)
(262.91632 9.2908305e-16 0.89968561)
(262.43663 3.4377077e-16 0.77000955)
(262.01527 -5.1304028e-16 0.55745481)
(261.4253 0 0.20393251)
(260.87246 -3.0034063e-16 -0.38024245)
(245.11394 1.5584896e-16 -7.7492208)
(285.61173 -1.0912676e-16 -8.5248506)
(311.53442 2.7966792e-18 -9.4402505)
(333.53571 0 -10.213594)
(353.47613 -6.3218711e-17 -10.980832)
(371.06546 1.7392001e-16 -11.719188)
(379.56016 -5.7242567e-18 -12.556462)
(381.06605 -4.7846701e-18 -12.076217)
(379.75004 1.2767822e-19 -12.91503)
(380.28372 -5.4527529e-17 -12.013618)
(379.17099 -4.5971317e-20 -13.19358)
(379.14594 -9.5079016e-18 -12.160826)
(378.10783 -1.5930993e-17 -13.390992)
(377.56822 6.5906323e-17 -12.518534)
(376.39467 -2.1933845e-17 -13.594886)
(375.32353 -1.8380108e-17 -13.056519)
(373.7947 1.5207127e-17 -13.921666)
(372.08374 0 -13.761732)
(369.94353 8.4690268e-17 -14.474174)
(367.3987 -1.7527433e-17 -14.652147)
(364.34284 5.8565677e-17 -15.307684)
(360.69141 6.0609627e-17 -15.732369)
(356.38513 0 -16.366294)
(351.33173 -6.6793829e-17 -16.864175)
(345.51833 0 -17.329475)
(338.94861 -1.8390526e-16 -17.534957)
(331.74474 0 -17.39602)
(324.09672 -3.7039172e-16 -16.741619)
(316.2651 -2.0134822e-16 -15.528754)
(308.51698 0 -13.807114)
(301.12214 2.6019344e-16 -11.764643)
(294.33256 0 -9.6255774)
(288.35164 2.0376083e-17 -7.5852317)
(283.25604 -5.1893845e-16 -5.7742088)
(279.03804 3.6259134e-16 -4.2111728)
(275.63774 3.1333965e-16 -2.9223534)
(272.90532 4.4600365e-16 -1.8869915)
(270.73175 3.3449523e-16 -1.0639708)
(269.00764 0 -0.43060735)
(267.63527 0 0.058354248)
(266.53593 5.4391672e-16 0.41568745)
(265.62114 -2.4992701e-17 0.67178876)
(264.84495 5.8550678e-16 0.83903102)
(264.14695 -8.4416903e-16 0.92123679)
(263.48934 6.4810099e-16 0.92577722)
(262.90362 -4.760787e-16 0.86625719)
(262.42394 -6.8155263e-16 0.74562049)
(261.98728 1.0135762e-15 0.53158426)
(261.33084 -5.9598063e-18 0.18073263)
(260.88746 4.5414474e-18 -0.37985603)
(244.33183 1.60232e-16 -8.7684308)
(285.14421 0 -9.7306063)
(311.30737 -2.8439049e-18 -10.765094)
(333.51239 -1.548786e-16 -11.645947)
(353.5787 1.3309046e-16 -12.514208)
(371.19554 1.0990962e-16 -13.338018)
(378.90866 -8.9175662e-17 -14.201113)
(380.23837 4.9823633e-18 -13.668588)
(378.87563 0 -14.577911)
(379.42218 0 -13.609266)
(378.26941 -3.4915497e-17 -14.870308)
(378.23922 9.5116716e-18 -13.776854)
(377.16391 1.6026174e-17 -15.07715)
(376.5997 2.6926062e-17 -14.168856)
(375.38471 -2.2337958e-17 -15.295422)
(374.26886 -3.7446641e-17 -14.749724)
(372.6861 -2.5609523e-19 -15.648357)
(370.90873 2.577025e-17 -15.502761)
(368.69344 -2.1320016e-17 -16.240116)
(366.05728 -7.1683486e-17 -16.443091)
(362.89856 1.5195559e-17 -17.11938)
(359.12818 0 -17.567103)
(354.69134 0 -18.211707)
(349.50011 0 -18.711788)
(343.55425 -1.2783533e-16 -19.155109)
(336.87902 1.7362211e-16 -19.311209)
(329.62665 1.7288638e-16 -19.086213)
(322.0181 5.0186229e-16 -18.313652)
(314.33188 1.77392e-16 -16.95829)
(306.82872 -2.8903408e-16 -15.079616)
(299.74139 -2.6210967e-16 -12.870271)
(293.269 -1.2861643e-17 -10.558529)
(287.56927 0 -8.3489392)
(282.69884 4.753808e-16 -6.3846855)
(278.65014 4.8724562e-17 -4.6891374)
(275.37469 -1.8466034e-17 -3.2913739)
(272.73243 0 -2.1703543)
(270.62203 -6.725038e-16 -1.280735)
(268.94039 4.689856e-16 -0.59663105)
(267.59587 4.6233494e-17 -0.06926398)
(266.51311 -1.6995178e-17 0.31644159)
(265.60757 2.5001636e-17 0.59313519)
(264.83448 -6.0319446e-16 0.7752547)
(264.13282 8.2857359e-16 0.86774369)
(263.47199 -5.8658502e-16 0.88139869)
(262.88857 -1.4320006e-17 0.83262743)
(262.4091 6.964543e-16 0.72044114)
(261.94024 -5.1612573e-16 0.50426637)
(261.25828 5.8607489e-18 0.15821902)
(260.89349 2.8032595e-16 -0.37663498)
(243.57038 3.2693534e-16 -9.8040455)
(284.69232 -2.3259147e-16 -10.943487)
(311.0936 1.8614297e-16 -12.106727)
(333.50263 9.7841161e-20 -13.096638)
(353.6868 -1.358027e-16 -14.070376)
(371.28686 7.2322306e-18 -14.976942)
(378.18295 0 -15.857809)
(379.37253 1.0189736e-17 -15.272364)
(377.96372 0 -16.254977)
(378.5215 0 -15.217792)
(377.32781 0 -16.561748)
(377.29032 0 -15.40781)
(376.17621 6.5753168e-17 -16.778374)
(375.58456 -2.7283468e-17 -15.835936)
(374.32598 -2.2881584e-17 -17.011007)
(373.1623 1.8933212e-17 -16.459582)
(371.52284 0 -17.389106)
(369.67542 0 -17.258652)
(367.38109 -4.4068465e-17 -18.018111)
(364.64895 0 -18.245171)
(361.38173 -6.0629342e-17 -18.938846)
(357.48588 0 -19.406288)
(352.91116 -8.4281424e-17 -20.055853)
(347.575 -1.3978083e-16 -20.550183)
(341.49096 2.3035181e-16 -20.960078)
(334.70749 0 -21.051726)
(327.40747 -1.3568689e-16 -20.72321)
(319.84081 -2.6991759e-16 -19.815538)
(312.3005 0 -18.305044)
(305.03934 3.3294168e-16 -16.26451)
(298.25675 1.6838142e-17 -13.892942)
(292.10396 -1.3026296e-17 -11.420866)
(286.69585 0 -9.0577801)
(282.06538 3.2214474e-17 -6.9552632)
(278.20141 2.8700454e-19 -5.1392672)
(275.06482 -1.8597977e-17 -3.64145)
(272.524 8.7476711e-16 -2.4411012)
(270.48547 6.964161e-16 -1.4893235)
(268.85311 5.3365221e-16 -0.75753136)
(267.54123 7.4197693e-16 -0.19383259)
(266.47847 -1.7017043e-17 0.2189187)
(265.58471 0 0.51536242)
(264.8164 1.1683829e-15 0.71170788)
(264.11269 8.5295728e-16 0.81418656)
(263.45064 6.2286109e-16 0.83704903)
(262.87162 0 0.79889104)
(262.39167 -6.6913867e-16 0.69386725)
(261.87358 1.5464052e-17 0.4763314)
(261.20204 -1.1504844e-17 0.13679639)
(260.89456 0 -0.37062625)
(242.83342 -3.3336874e-16 -10.855437)
(284.25928 -1.8507749e-18 -12.167846)
(310.89426 -1.8995229e-16 -13.467073)
(333.50697 1.6120397e-16 -14.568691)
(353.80379 -1.3432643e-16 -15.654858)
(371.33025 -7.4730169e-18 -16.638473)
(377.38011 9.8749875e-17 -17.530522)
(378.4684 7.2568765e-17 -16.890722)
(377.01365 -6.0553705e-17 -17.948773)
(377.58064 0 -16.84181)
(376.34496 -3.6144187e-17 -18.270211)
(376.29773 3.9989822e-17 -17.055965)
(375.14328 7.9162559e-20 -18.495946)
(374.52162 0 -17.520691)
(373.21776 -2.3298779e-17 -18.741699)
(372.00346 1.9275597e-17 -18.186039)
(370.30466 -3.2342452e-17 -19.143623)
(368.38356 0 -19.029093)
(366.00615 4.4606736e-17 -19.807739)
(363.17317 -1.8753681e-17 -20.057962)
(359.79136 1.5357263e-17 -20.765683)
(355.76316 0 -21.249334)
(351.04312 6.356882e-17 -21.897796)
(345.55535 3.1907131e-16 -22.377834)
(339.32855 -1.3125265e-16 -22.742171)
(332.43643 1.944274e-16 -22.753757)
(325.09297 0 -22.304308)
(317.57485 0 -21.245399)
(310.18554 0 -19.568287)
(303.16751 -3.4013566e-16 -17.361693)
(296.68859 0 -14.83208)
(290.8567 0 -12.210853)
(285.7468 0 -9.70904)
(281.36669 -5.5025716e-16 -7.4828959)
(277.69906 -2.7474942e-19 -5.5586872)
(274.71263 3.761781e-17 -3.9701315)
(272.2829 -8.9302003e-16 -2.6973)
(270.3239 -1.3783303e-15 -1.6882946)
(268.74655 -9.7559253e-16 -0.91222366)
(267.4717 -7.6648951e-16 -0.31452147)
(266.43238 0 0.12371941)
(265.55275 -2.4994149e-17 0.43887026)
(264.7907 -1.1481347e-15 0.64869121)
(264.08666 2.6689395e-17 0.76080663)
(263.42534 -1.8592961e-15 0.79294164)
(262.853 -1.4124632e-17 0.76519397)
(262.37189 -7.4882646e-20 0.6653771)
(261.79415 0 0.44815155)
(261.15571 0 0.11703256)
(260.8902 -5.4467752e-16 -0.36283821)
(242.11718 3.3990387e-16 -11.920655)
(283.84186 3.7444378e-18 -13.411609)
(310.70547 -3.0341174e-18 -14.850856)
(333.52138 0 -16.066704)
(353.92889 1.8872921e-20 -17.273537)
(371.31779 0 -18.322004)
(376.48979 0 -19.221513)
(377.52386 0 -18.525782)
(376.02337 -8.7985277e-18 -19.660485)
(376.59751 0 -18.482367)
(375.31907 3.6845909e-17 -19.996449)
(375.26003 -6.1140789e-17 -18.722168)
(374.06436 -5.1082641e-17 -20.229742)
(373.41067 5.6694904e-17 -19.222855)
(372.06019 0 -20.486876)
(370.79249 3.9509299e-17 -19.928778)
(369.03158 3.2740991e-17 -20.91155)
(367.03304 -2.7494858e-17 -20.813791)
(364.56826 -9.1699868e-17 -21.608705)
(361.62915 9.4928506e-17 -21.88119)
(358.12613 0 -22.599603)
(353.95835 0 -23.095629)
(349.08552 2.2023225e-17 -23.736427)
(343.43998 -1.61634e-16 -24.19287)
(337.06717 1.5136046e-17 -24.498666)
(330.0684 -1.026722e-17 -24.413921)
(322.68898 -2.049794e-17 -23.826163)
(315.22983 1.6239432e-17 -22.600768)
(308.00049 0 -20.746893)
(301.2301 -2.3666488e-18 -18.371054)
(295.05544 1.7271028e-17 -15.687686)
(289.54483 -4.0559102e-17 -12.927766)
(284.73679 4.2107886e-17 -10.301115)
(280.61375 5.3768103e-16 -7.9654947)
(277.1508 2.6149065e-19 -5.9452415)
(274.32324 -6.2550607e-16 -4.2754802)
(272.01241 -9.1270366e-16 -2.9373551)
(270.13931 1.3618967e-15 -1.8763867)
(268.62199 0 -1.0597505)
(267.38793 0 -0.43060901)
(266.37502 -3.4180331e-17 0.031399408)
(265.51169 2.4919654e-17 0.36407305)
(264.75752 -1.1641431e-15 0.58651992)
(264.0549 -8.471884e-16 0.70785119)
(263.39628 1.2329862e-15 0.74927399)
(262.83275 -9.124198e-16 0.73162882)
(262.3491 1.9586474e-15 0.63480946)
(261.70888 -9.4893052e-16 0.41967597)
(261.11277 7.1300001e-16 0.099331791)
(260.88204 5.3689509e-16 -0.35484622)
(241.41085 -3.4655286e-16 -12.998383)
(283.4353 4.8971027e-16 -14.672533)
(310.5221 -1.9763422e-16 -16.256268)
(333.5404 -5.2567119e-18 -17.587995)
(354.05811 1.3972614e-16 -18.923185)
(371.2431 -1.1409103e-16 -20.021477)
(375.49675 1.2850574e-17 -20.928091)
(376.53784 1.0751046e-17 -20.178835)
(374.99164 7.1861003e-17 -21.391977)
(375.57098 -5.9595142e-17 -20.140488)
(374.24958 -2.4984238e-17 -21.740409)
(374.17729 2.0699941e-17 -20.405983)
(372.94006 0 -21.97863)
(372.25242 -2.8779238e-17 -20.941616)
(370.85377 0 -22.245941)
(369.52952 2.2732941e-19 -21.687622)
(367.70348 0 -22.692657)
(365.62357 0 -22.61246)
(363.06676 1.8552613e-16 -23.420761)
(360.01569 5.4446613e-19 -23.714619)
(356.38434 -1.4520127e-16 -24.440261)
(352.0695 1.2048739e-16 -24.944343)
(347.0366 2.2434979e-17 -25.570292)
(341.22777 -1.8136729e-17 -25.992942)
(334.70728 -2.445657e-16 -26.226264)
(327.60633 -4.0134722e-16 -26.028246)
(320.20155 2.0855489e-17 -25.284925)
(312.81502 -1.6518026e-17 -23.878817)
(305.75766 4.3655601e-16 -21.839539)
(299.24185 3.6973911e-16 -19.292534)
(293.37334 5.3937588e-16 -16.460149)
(288.18401 -2.7503143e-17 -13.571612)
(283.67925 -6.6153732e-16 -10.833306)
(279.81698 -3.3043411e-17 -8.4018141)
(276.56414 8.5583718e-16 -6.2974356)
(273.90182 6.0965351e-16 -4.5560171)
(271.716 8.4457156e-16 -3.1599762)
(269.93393 -1.3036764e-15 -2.0525478)
(268.48077 -4.7481443e-17 -1.1992791)
(267.29075 -7.476927e-20 -0.54144353)
(266.30692 -1.075922e-15 -0.05753847)
(265.46188 1.620555e-15 0.29134414)
(264.7171 1.1431598e-15 0.52549164)
(264.01761 2.6399586e-17 0.65556932)
(263.36373 1.207217e-15 0.70623168)
(262.81056 -9.5779626e-20 0.69825826)
(262.32121 1.9773522e-19 0.60229566)
(261.62182 9.6611826e-16 0.39084912)
(261.07116 -7.0094062e-16 0.083867614)
(260.87088 -5.3345135e-16 -0.34572292)
(240.71 -3.5304253e-16 -14.083932)
(283.04273 -3.9088099e-18 -15.944327)
(310.34552 -3.1719497e-18 -17.676878)
(333.56318 5.3382663e-18 -19.126179)
(354.19238 -9.2059253e-18 -20.59813)
(371.09692 1.1626137e-16 -21.732432)
(374.41026 -1.1740789e-16 -22.648469)
(375.50885 8.7451914e-17 -21.850425)
(373.91811 -7.2943634e-17 -23.144164)
(374.50163 -1.5217412e-17 -21.815479)
(373.13784 2.5295732e-17 -23.499787)
(373.05111 -2.1167667e-17 -22.105542)
(371.77174 0 -23.741259)
(371.04756 2.9440726e-17 -22.676699)
(369.59859 -4.9137616e-17 -24.018864)
(368.21435 -5.7935198e-20 -23.462646)
(366.32005 1.0241287e-16 -24.486713)
(364.15464 -2.8171066e-17 -24.424897)
(361.50056 -9.40994e-17 -25.243849)
(358.33105 -7.8335763e-17 -25.558128)
(354.5638 1.1382724e-16 -26.287265)
(350.09437 4.1836642e-17 -26.794468)
(344.89438 1.5920953e-16 -27.397639)
(338.91758 1.3157677e-16 -27.775287)
(332.24945 2.6190947e-16 -27.921145)
(325.05349 1.7740182e-16 -27.592266)
(317.63701 -3.161181e-16 -26.676374)
(310.3396 -5.4859202e-16 -25.076491)
(303.46864 -4.397389e-16 -22.844826)
(297.21619 2.2320336e-17 -20.126184)
(291.65669 -5.9536295e-16 -17.15022)
(286.78824 1.3675456e-17 -14.14301)
(282.58652 6.868022e-16 -11.305662)
(278.98626 3.3304858e-17 -8.7913329)
(275.94644 -2.5079841e-15 -6.6143757)
(273.45356 1.2849431e-15 -4.8107167)
(271.3972 1.4505552e-17 -3.3641896)
(269.71012 1.3499317e-15 -2.215932)
(268.32442 -9.8341107e-16 -1.3301098)
(267.18113 -2.3284548e-17 -0.64646206)
(266.22868 2.2196651e-15 -0.1426436)
(265.4037 -2.4557781e-17 0.22103513)
(264.66975 0 0.46589551)
(263.97511 1.6549381e-15 0.60421265)
(263.32814 -1.2000284e-15 0.66397611)
(262.7859 -1.0273596e-19 0.66509826)
(262.28417 -1.2862185e-15 0.56835318)
(261.53672 -9.3917208e-16 0.36161339)
(261.0304 0 0.070629032)
(260.8574 1.0200258e-15 -0.33556985)
(240.01927 0 -15.187248)
(282.6631 -2.5040585e-16 -17.241504)
(310.1796 4.1764854e-16 -19.12722)
(333.59208 1.3317474e-19 -20.693492)
(354.33515 -2.9014188e-16 -22.309772)
(370.87014 2.5200035e-16 -23.464707)
(373.35916 -9.2930402e-17 -24.385915)
(374.43963 -1.1075713e-17 -23.533605)
(372.80628 0 -24.910844)
(373.39272 3.0881332e-17 -23.503631)
(371.98646 -5.167666e-17 -25.272012)
(371.88292 6.4280281e-17 -23.820375)
(370.5598 -7.1872391e-17 -25.517935)
(369.79573 -2.9963713e-17 -24.428994)
(368.29411 2.4823086e-17 -25.805936)
(366.84655 0 -25.253853)
(364.8808 4.36532e-19 -26.293494)
(362.62526 0 -26.251044)
(359.86792 -9.6434731e-17 -27.078071)
(356.57294 8.0327904e-17 -27.411566)
(352.662 -1.3373321e-16 -28.140012)
(348.0305 1.122041e-16 -28.644658)
(342.65675 -1.8316192e-16 -29.216288)
(336.50831 -4.5848665e-16 -29.536606)
(329.69459 -2.5365607e-16 -29.578905)
(322.41363 4.4436327e-16 -29.101015)
(315.00213 3.3983779e-16 -27.996006)
(307.81285 5.3545013e-16 -26.190665)
(301.14451 0 -23.761418)
(295.16544 0 -20.872238)
(289.91834 -5.7056825e-16 -17.758983)
(285.37008 -2.8084591e-17 -14.643091)
(281.46975 2.1539088e-17 -11.718857)
(278.13072 0 -9.1341593)
(275.3047 2.4719039e-15 -6.8957071)
(272.98356 -1.737964e-17 -5.0389676)
(271.05961 0 -3.549321)
(269.4703 2.1534754e-17 -2.3659026)
(268.15455 1.0006794e-15 -1.4516794)
(267.06013 -2.3372273e-17 -0.74518707)
(266.14099 5.1508073e-17 -0.22352417)
(265.33763 -3.1813437e-15 0.1534629)
(264.61581 3.7939288e-20 0.40800802)
(263.92778 -1.6603655e-15 0.55403499)
(263.2901 -1.8911518e-17 0.62261948)
(262.75815 -8.7765534e-16 0.63197837)
(262.23265 0 0.53389022)
(261.45747 9.2652988e-16 0.33202344)
(260.99166 0 0.059412744)
(260.84227 -1.4896445e-15 -0.32421066)
(239.34553 -3.7189154e-16 -16.299689)
(282.29928 4.0577649e-18 -18.549719)
(310.02954 -2.0969391e-16 -20.594684)
(333.63117 1.7793459e-16 -22.279692)
(354.48904 1.5257408e-16 -24.051616)
(370.56099 -1.1990862e-16 -25.21252)
(372.2676 1.0835041e-16 -26.136606)
(373.33536 -9.0229208e-17 -25.223243)
(371.65902 -7.5632854e-17 -26.690594)
(372.24565 4.7048751e-17 -25.206184)
(370.79537 -7.8856908e-17 -27.05933)
(370.67175 6.5489599e-17 -25.552694)
(369.30303 -2.0086631e-19 -27.310157)
(368.49595 0 -26.19915)
(366.93986 0 -27.60694)
(365.42577 0 -27.060879)
(363.3849 -7.0188347e-17 -28.112899)
(361.03382 0 -28.091073)
(358.16648 9.7428035e-17 -28.923633)
(354.73866 -8.1128483e-17 -29.274645)
(350.67618 1.1790256e-16 -29.997643)
(345.87527 4.4441762e-17 -30.493249)
(340.32154 1.4142856e-16 -31.023655)
(333.99898 3.2830178e-16 -31.273086)
(327.04403 2.5562887e-16 -31.194606)
(319.69106 -4.2111481e-16 -30.549125)
(312.30414 3.4847087e-16 -29.239145)
(305.24412 0 -27.218256)
(298.79591 0 -24.588143)
(293.10094 -2.2912166e-17 -21.53116)
(288.16989 5.7376399e-16 -18.287841)
(283.94071 1.3987228e-17 -15.073412)
(280.33903 -6.7999499e-16 -12.074083)
(277.25875 -5.0539693e-17 -9.4309283)
(274.64545 2.7231294e-17 -7.1415441)
(272.49671 -1.2384004e-15 -5.2405359)
(270.70673 -2.9060096e-17 -3.71498)
(269.2169 4.308691e-17 -2.5020256)
(267.97282 -1.5877729e-17 -1.563561)
(266.92887 1.4949011e-15 -0.83722978)
(266.04461 -2.148616e-15 -0.29984809)
(265.2642 3.1502472e-15 0.088909771)
(264.55568 1.8001124e-17 0.35209101)
(263.87606 1.3051044e-17 0.50528817)
(263.2503 -1.8790975e-17 0.58221014)
(262.72701 -2.4037297e-19 0.59844138)
(262.16326 0 0.49989114)
(261.38666 -1.4296737e-17 0.30243995)
(260.95489 -1.3224925e-15 0.049872676)
(260.82608 9.7710249e-16 -0.31199889)
(238.6969 3.8441721e-16 -17.428013)
(281.9552 -4.1117564e-18 -19.878162)
(309.89894 2.1366797e-16 -22.087693)
(333.68407 -1.8135024e-16 -23.892901)
(354.65013 0 -25.830765)
(370.16746 4.0020133e-20 -26.98352)
(371.13193 9.6408086e-17 -27.914971)
(372.19378 -9.173775e-17 -26.929523)
(370.47373 -9.6154599e-17 -28.488694)
(371.05748 6.3761921e-17 -26.927628)
(369.56209 2.6600244e-17 -28.864273)
(369.41567 -6.6701319e-17 -27.304096)
(368.00044 3.696463e-17 -29.117833)
(367.14795 0 -27.986734)
(365.53577 0 -29.421145)
(363.95143 4.314596e-17 -28.883663)
(361.83082 -3.5626762e-17 -29.945317)
(359.37791 0 -29.945455)
(356.39338 -7.4809991e-17 -30.7807)
(352.82527 -2.0533245e-17 -31.146841)
(348.60347 0 -31.858998)
(343.62589 -2.2852529e-16 -32.338225)
(337.88651 -4.0561422e-16 -32.816679)
(331.38881 -2.7847469e-16 -32.980312)
(324.29964 -1.6088946e-17 -32.762745)
(316.89079 2.7274097e-17 -31.930877)
(309.55073 -7.2691373e-16 -30.401038)
(302.6429 -1.8097108e-17 -28.156327)
(296.43319 -1.4871991e-17 -25.324089)
(291.03329 2.2776629e-17 -22.103698)
(286.42179 -6.0249769e-16 -18.738502)
(282.51012 1.4138357e-17 -15.4359)
(279.20336 -2.5853079e-18 -12.372962)
(276.37795 1.0868119e-15 -9.6827185)
(273.97476 -1.6512721e-15 -7.3524031)
(271.99761 0 -5.4155207)
(270.34196 9.317212e-16 -3.8610347)
(268.95235 1.3830788e-15 -2.6240576)
(267.78089 -1.0516404e-15 -1.6654611)
(266.78853 -2.9658927e-15 -0.9222882)
(265.94038 1.089949e-15 -0.37134321)
(265.18398 -1.5835787e-15 0.027619473)
(264.4898 -1.1469767e-15 0.29838734)
(263.82048 0 0.45821494)
(263.20945 -1.1773107e-15 0.54274858)
(262.69263 1.7118991e-15 0.56387653)
(262.07948 0 0.46663977)
(261.32182 0 0.27376996)
(260.91987 1.3103162e-15 0.041712257)
(260.80926 -9.5670526e-16 -0.29811248)
(238.05852 -5.9146323e-18 -18.575524)
(281.61902 -2.6858236e-16 -21.232367)
(309.7804 4.3509085e-16 -23.612644)
(333.74443 1.6124842e-19 -25.538387)
(354.79951 -1.5765138e-16 -27.642671)
(369.67008 -8.2285067e-18 -28.764233)
(369.95116 1.119848e-16 -29.715735)
(371.01093 2.3604607e-17 -28.654609)
(369.2473 1.0887195e-19 -30.306013)
(369.82603 -6.4814782e-17 -28.668244)
(368.2855 0 -30.686147)
(368.11452 9.0334692e-17 -29.073453)
(366.65252 0 -30.939476)
(365.75215 0 -29.790844)
(364.0815 0 -31.248371)
(362.42203 0 -30.7228)
(360.21598 -7.3096667e-17 -31.79157)
(357.65447 1.2190631e-16 -31.814629)
(354.54551 2.0242816e-16 -32.649168)
(350.82972 -2.1266016e-17 -33.027311)
(346.44083 1.7367379e-17 -33.722638)
(341.27942 0 -34.177239)
(335.34942 3.8834265e-16 -34.591835)
(328.67736 2.9995938e-16 -34.653304)
(321.46392 1.6374505e-17 -34.277317)
(314.01855 -4.4061986e-16 -33.240324)
(306.75019 3.7935301e-16 -31.477004)
(300.01885 -1.7931715e-17 -29.002204)
(294.06642 0 -25.968681)
(288.97235 0 -22.590929)
(284.68352 1.1781753e-15 -19.112984)
(281.08723 9.2289466e-16 -15.732803)
(278.07076 7.1134006e-16 -12.61747)
(275.49514 -2.1854793e-15 -9.8909739)
(273.29813 8.0330718e-16 -7.5291402)
(271.49057 -1.2318592e-15 -5.5643118)
(269.96852 -9.334998e-16 -3.9875859)
(268.67899 -2.0519858e-17 -2.7319343)
(267.58044 1.0358219e-15 -1.7572149)
(266.64029 2.2687458e-17 -1.000147)
(265.82913 -2.1603167e-15 -0.4377962)
(265.09756 -4.9353207e-17 -0.030204336)
(264.41862 1.1599861e-15 0.24711531)
(263.76163 0 0.41303787)
(263.16813 1.187489e-15 0.50422103)
(262.65533 -1.7104358e-15 0.52790059)
(261.98701 -1.2327164e-15 0.43383979)
(261.25904 0 0.24680815)
(260.88609 0 0.034879367)
(260.7921 9.3668894e-16 -0.28320728)
(237.42497 -7.7242084e-16 -19.735028)
(281.29041 -4.4256923e-18 -22.602375)
(309.67553 2.2839675e-16 -25.160836)
(333.81446 0 -27.209539)
(354.92891 0 -29.481842)
(369.02399 0 -30.55066)
(368.72446 0 -31.53634)
(369.78605 -1.1864506e-16 -30.397516)
(367.97967 9.9021458e-17 -32.141549)
(368.55223 -3.3005611e-17 -30.426312)
(366.96707 -2.1949949e-19 -32.522883)
(366.76981 1.3992543e-20 -30.858966)
(365.26018 0 -32.774066)
(364.30824 -6.4077104e-17 -31.611678)
(362.57531 0 -33.089606)
(360.83472 8.9152335e-17 -32.579545)
(358.53703 1.8540298e-16 -33.652517)
(355.86029 -1.8481976e-16 -33.698654)
(352.61979 2.6360574e-17 -34.528533)
(348.74898 2.1642052e-17 -34.914877)
(344.18506 -1.7667197e-17 -35.586783)
(338.8328 -3.0076475e-17 -36.007505)
(332.70809 2.6417074e-17 -36.344968)
(325.86469 0 -36.286402)
(318.54012 0 -35.731789)
(311.08092 4.1524254e-16 -34.471345)
(303.9114 2.2430081e-17 -32.462534)
(297.38178 5.9365102e-16 -29.753595)
(291.70535 -9.8338521e-16 -26.521759)
(286.92738 4.7158918e-17 -22.99431)
(282.96368 -1.8254694e-15 -19.413626)
(279.67997 -1.0516435e-17 -15.966666)
(276.94834 1.4389093e-15 -12.809889)
(274.61639 -2.0406448e-17 -10.057446)
(272.62054 2.5982601e-17 -7.6728978)
(270.97953 2.510413e-15 -5.6875485)
(269.58945 0 -4.0949424)
(268.39907 -1.3866483e-15 -2.8257542)