/*--------------------------------*- C++ -*----------------------------------*\
  =========                 |
  \\      /  F ield         | OpenFOAM: The Open Source CFD Toolbox
   \\    /   O peration     | Website:  https://openfoam.org
    \\  /    A nd           | Version:  8
     \\/     M anipulation  |
\*---------------------------------------------------------------------------*/
FoamFile
{
    version     2.0;
    format      ascii;
    class       volVectorField;
    location    "0.299999";
    object      wallShearStress;
}
// * * * * * * * * * * * * * * * * * * * * * * * * * * * * * * * * * * * * * //

dimensions      [1 -1 -2 0 0 0 0];

internalField   uniform (0 0 0);

boundaryField
{
    aerofoil
    {
        type            calculated;
        value           nonuniform List<vector> 
300
(
(-160.67332 4.5559462e-17 2.3277756)
(-159.9803 5.14969e-23 2.9453688)
(-159.70251 9.6045822e-17 3.5772772)
(-159.38123 9.6658282e-17 4.2175647)
(-159.11568 9.8789488e-17 4.8681528)
(-158.86344 -1.0101874e-16 5.5292661)
(-158.63859 -1.0404448e-16 6.2007931)
(-158.43553 -2.1273699e-16 6.8877501)
(-158.26177 2.1729728e-16 7.5899762)
(-158.11533 -2.2201075e-16 8.3048038)
(-157.98733 2.2673756e-16 9.0312304)
(-157.86762 2.3156601e-16 9.767216)
(-157.76683 -3.3132622e-22 10.518228)
(-157.67924 2.4508323e-16 11.279878)
(-157.62383 -2.5391562e-16 12.057491)
(-157.58714 3.8840224e-18 12.851872)
(-157.55604 5.1283541e-16 13.659426)
(-157.54206 2.6157693e-16 14.484679)
(-157.53087 2.668685e-16 15.324137)
(-157.53605 2.6781334e-16 16.183065)
(-157.5556 4.3244944e-18 17.063256)
(-157.5845 2.876815e-16 17.963796)
(-157.62804 -2.974912e-16 18.886589)
(-157.65995 -2.8975563e-16 19.825389)
(-157.70441 -3.0472083e-16 20.792702)
(-157.75111 -2.6690602e-20 21.783381)
(-157.81615 3.1678107e-16 22.801567)
(-157.8952 -3.1797506e-16 23.850482)
(-157.96508 1.0162744e-17 24.925392)
(-158.03818 6.5020812e-16 26.035553)
(-158.10489 -3.3665085e-16 27.180815)
(-158.14353 -6.8603241e-16 28.358347)
(-158.1333 0 29.565693)
(-158.08561 -3.564635e-16 30.811656)
(-158.02288 -1.1396597e-17 32.108104)
(-157.95394 1.212753e-17 33.459469)
(-157.89298 -3.7751597e-16 34.867245)
(-157.85697 1.1170394e-32 36.34078)
(-157.85868 -2.6020999e-19 37.897399)
(-157.90232 -3.8720523e-16 39.541616)
(-157.97481 -1.3445326e-17 41.275736)
(-158.09692 2.2493646e-20 43.121769)
(-158.21506 -2.327039e-18 45.079339)
(-158.29964 -2.7049899e-20 47.139592)
(-158.2748 4.4225376e-16 49.289867)
(-158.15342 4.5307791e-16 51.574257)
(-157.89287 -1.8530681e-17 53.993872)
(-157.49313 2.7258826e-17 56.569305)
(-156.92056 -4.9707455e-16 59.30224)
(-156.17719 7.7037198e-34 62.178615)
(-155.25605 2.4074124e-34 65.214051)
(-153.95774 -1.6967584e-17 68.39004)
(-152.17223 2.037092e-17 71.707719)
(-149.77154 1.1876568e-17 75.169697)
(-146.65708 -2.3140819e-17 78.824586)
(-142.80621 1.7052083e-17 82.749762)
(-138.19234 -1.7692555e-18 87.038533)
(-132.95064 -1.0522454e-17 91.835549)
(-127.40273 -5.5500072e-16 97.19797)
(-122.29855 -6.0760355e-16 102.74427)
(-118.51413 -2.0206156e-18 108.53159)
(-115.19752 3.838037e-17 114.24175)
(-111.30427 1.2372227e-15 119.4269)
(-106.04467 1.0697964e-17 123.65097)
(-99.155439 -6.5338717e-16 126.39627)
(-90.667642 3.2857022e-19 127.336)
(-80.270731 -1.0491921e-17 125.73064)
(-68.194432 -1.540744e-32 120.88668)
(-55.061942 3.5015358e-16 112.467)
(-41.594406 1.0068067e-17 99.969917)
(-28.671608 -3.6327608e-16 83.379832)
(-17.245486 8.0275691e-18 63.389385)
(-8.8547364 -1.6783273e-16 41.027259)
(-4.1877901 -7.9691647e-17 19.695756)
(-1.888711 -4.2951397e-21 6.870737)
(-194.23738 -8.4740918e-33 -25.97137)
(-204.53489 1.1687174e-15 -27.060348)
(-207.21459 2.2990036e-32 -26.989054)
(-208.31387 1.1673299e-15 -26.775357)
(-208.41003 -1.3928896e-22 -26.443319)
(-208.04874 1.1604721e-15 -26.057158)
(-207.2153 -1.1558141e-15 -25.621259)
(-206.17171 1.1514422e-15 -25.166608)
(-204.96255 -5.4572669e-22 -24.700875)
(-203.6104 -1.1439058e-15 -24.231103)
(-202.11986 -5.2423556e-19 -23.754312)
(-200.46124 3.7699934e-19 -23.268284)
(-198.58309 -2.2755464e-15 -22.76977)
(-196.44538 2.4308582e-19 -22.252928)
(-194.06971 1.1833287e-25 -21.716207)
(-191.59378 -5.5596601e-26 -21.179997)
(-189.11395 1.1151638e-15 -20.651201)
(-186.63541 -1.1080349e-15 -20.12918)
(-184.16939 1.0621188e-19 -19.617216)
(-181.72459 -1.0568935e-19 -19.113938)
(-179.31015 1.0870821e-15 -18.621991)
(-176.90138 -5.1577958e-22 -18.13701)
(-174.51049 -2.1457062e-15 -17.66044)
(-172.14326 4.0959381e-19 -17.189059)
(-169.78882 9.8197961e-20 -16.727498)
(-167.45181 -5.0250515e-22 -16.273098)
(-165.12775 1.0451236e-15 -15.827619)
(-162.81788 4.9601027e-22 -15.387543)
(-160.51242 -4.3162683e-39 -14.954302)
(-158.23309 8.6363196e-26 -14.529542)
(-155.99776 -9.1671896e-20 -14.114208)
(-153.76454 4.8251082e-22 -13.705851)
(-151.53198 -8.3269137e-26 -13.30056)
(-149.36669 -2.4648409e-19 -12.905036)
(-147.26356 9.8737629e-16 -12.51768)
(-145.19942 9.7997749e-16 -12.137192)
(-143.18265 4.8632036e-16 -11.763536)
(-141.21718 9.6520514e-16 -11.397114)
(-139.30485 -4.9605574e-21 -11.036941)
(-137.43433 -1.9847088e-19 -10.682969)
(-135.59108 1.2137092e-20 -10.332468)
(-133.75569 4.670135e-16 -9.9836886)
(-131.89216 -4.6310234e-16 -9.634702)
(-129.98009 -1.3694561e-23 -9.285235)
(-127.98006 4.5559046e-16 -8.9325708)
(-125.88918 -1.0821205e-20 -8.5786486)
(-123.7184 8.9620893e-16 -8.2242449)
(-121.55847 -7.2402797e-21 -7.873156)
(-119.52578 -4.5757701e-21 -7.5299795)
(-117.70613 4.36276e-16 -7.1978054)
(-116.03012 5.7225958e-21 -6.8668432)
(-114.09686 4.2865831e-16 -6.5255191)
(-111.46071 4.2476261e-16 -6.1583151)
(-108.06081 2.1275885e-20 -5.7507502)
(-103.68154 4.1567952e-16 -5.3098929)
(-97.610445 -4.101191e-16 -4.8226794)
(-89.518842 -7.6283639e-22 -4.2996589)
(-80.243389 3.9058396e-16 -3.760819)
(-71.67592 3.7828727e-16 -3.2278773)
(-65.048171 3.6525905e-16 -2.8080469)
(-63.363351 -2.589459e-20 -2.4575123)
(-71.734257 -6.595055e-22 -2.3912132)
(-91.210022 8.2904852e-20 -2.542104)
(-115.13801 -1.7986083e-16 -2.861831)
(-135.94619 -1.7753164e-16 -3.1183131)
(-149.87293 1.7619036e-16 -3.1164832)
(-156.8359 4.8550084e-20 -2.9039117)
(-160.00388 -1.2484394e-21 -2.5072181)
(-161.21364 2.5370225e-27 -2.0468986)
(-161.61221 1.7234855e-16 -1.5328548)
(-161.63961 4.2966532e-17 -0.95284075)
(-161.55786 -3.5730927e-20 -0.30791991)
(-161.4065 -2.7448633e-21 0.328942)
(-161.14423 -2.1316847e-17 1.0089512)
(-161.09086 4.2624347e-17 1.7165457)
(-129.95742 -2.6990499e-17 0.86712908)
(-133.06738 -1.3853209e-17 0.33530255)
(-135.97399 1.5101614e-17 -0.23980025)
(-138.83825 -5.825736e-17 -0.85279627)
(-141.68678 -6.158816e-17 -1.4336498)
(-144.47324 6.209309e-17 -2.0556272)
(-147.21987 1.2517363e-16 -2.7180568)
(-149.88663 -4.0663823e-21 -3.4138693)
(-152.49626 -1.3107946e-16 -4.1455475)
(-155.01493 2.091967e-18 -4.9098246)
(-157.43896 -2.1212207e-18 -5.7077257)
(-159.75351 2.799772e-16 -6.5352329)
(-161.98416 -4.7418012e-20 -7.4024497)
(-164.13254 2.9182564e-16 -8.3007678)
(-166.20418 5.9610372e-16 -9.2358804)
(-168.19885 1.3063756e-19 -10.208476)
(-170.11566 -4.8518876e-18 -11.213648)
(-171.91787 5.007898e-18 -12.251965)
(-173.61008 -3.2317001e-16 -13.322392)
(-175.22832 3.2444051e-16 -14.43137)
(-176.78433 -6.9379355e-21 -15.579788)
(-178.28014 3.4802014e-16 -16.767977)
(-179.74356 -3.5009867e-16 -18.00192)
(-181.18054 1.0216109e-19 -19.279822)
(-182.62474 5.1681592e-21 -20.613112)
(-184.0395 -6.1860303e-21 -21.994206)
(-185.43227 -1.2876813e-19 -23.428627)
(-186.80789 3.8511763e-16 -24.924382)
(-188.15418 -1.2304872e-17 -26.486292)
(-189.47902 1.2465296e-17 -28.134564)
(-190.7478 -1.7578004e-19 -29.869206)
(-191.94435 6.0185311e-36 -31.665103)
(-193.08678 -1.3225492e-17 -33.539202)
(-194.17276 1.3400885e-17 -35.490687)
(-195.22749 4.3804364e-16 -37.533448)
(-196.26663 -1.4389552e-18 -39.67037)
(-197.29303 4.5423569e-16 -41.890326)
(-198.29365 4.6182586e-16 -44.192625)
(-199.21062 -4.6858944e-16 -46.57915)
(-200.01837 -1.6173622e-18 -49.04885)
(-200.67117 4.8729758e-16 -51.598593)
(-201.13996 -5.0889448e-16 -54.239679)
(-201.39341 -4.8108364e-16 -56.983278)
(-201.37574 1.0183388e-15 -59.796562)
(-200.99977 -5.0120827e-16 -62.689422)
(-200.31058 1.3759514e-19 -65.681596)
(-199.25532 3.6427234e-18 -68.763051)
(-197.82297 -5.4092821e-16 -71.944844)
(-195.98143 -1.2883125e-17 -75.222481)
(-193.69775 -1.7523329e-17 -78.594211)
(-190.95612 -1.8705983e-19 -82.071458)
(-187.73965 5.9556164e-16 -85.654484)
(-184.01408 5.7942034e-16 -89.330261)
(-179.77077 -3.0702734e-17 -93.092498)
(-175.02587 4.3360626e-17 -96.91386)
(-169.82073 5.9350694e-16 -100.73627)
(-164.23989 6.0414002e-16 -104.46933)
(-158.42883 2.6859166e-17 -108.00714)
(-152.27022 -6.4807622e-16 -111.28343)
(-145.58499 2.3351286e-17 -114.18016)
(-138.15299 -7.1128243e-16 -116.50254)
(-129.90273 1.1995146e-17 -118.11169)
(-120.73421 2.5065836e-17 -118.81863)
(-110.61107 -2.1622697e-17 -118.39223)
(-99.518315 1.3751505e-19 -116.46993)
(-87.362196 -7.0688056e-16 -112.77047)
(-74.345762 7.0704348e-16 -106.95761)
(-60.740841 1.916523e-17 -98.393997)
(-47.081456 1.3327337e-18 -86.813148)
(-33.907797 -3.7007911e-16 -72.047736)
(-21.290886 3.4632942e-16 -54.375177)
(-11.178718 -3.3024678e-16 -34.900348)
(-5.3344909 2.4449565e-18 -16.519762)
(-2.1253562 -2.0739736e-18 -5.2268766)
(-0.81321236 3.0667058e-22 0.21796433)
(0.32093178 -3.076255e-22 0.36621255)
(-0.70876421 -2.0346332e-16 0.10684524)
(-0.72798624 -2.9244944e-22 0.1178774)
(-1.1302835 2.2243791e-16 0.17625734)
(-1.5125352 -2.3825948e-16 0.2304907)
(-2.0467891 2.2252083e-21 0.30628275)
(-2.65159 2.7497074e-16 0.39043305)
(-3.3410593 -3.8698316e-27 0.48487678)
(-4.0992935 -2.0851814e-38 0.58697858)
(-4.9285924 -5.0877589e-21 0.69700722)
(-5.8247037 3.4297011e-16 0.81435858)
(-6.7846839 -3.5853109e-16 0.93783275)
(-7.8117884 3.0236634e-21 1.0650272)
(-8.9081486 9.6102091e-21 1.1986476)
(-10.049583 -1.9255539e-22 1.3375445)
(-11.230033 -9.9161344e-23 1.4789314)
(-12.448692 3.5436978e-21 1.622085)
(-13.700771 8.8451957e-16 1.7662396)
(-14.981601 -2.2567427e-21 1.9108532)
(-16.286988 -4.6553362e-16 2.0552484)
(-17.609503 -4.5343998e-22 2.1986023)
(-18.946894 4.6501642e-22 2.3402765)
(-20.300285 4.726876e-22 2.4804765)
(-21.676693 -5.0607986e-16 2.6195411)
(-23.074701 -5.1528055e-16 2.7576895)
(-24.494848 -4.9898848e-22 2.8944915)
(-25.934597 1.6660613e-20 3.0299703)
(-27.392871 -5.1519506e-22 3.1634046)
(-28.859776 5.4924906e-16 3.2942661)
(-30.334789 -1.1140465e-15 3.4217486)
(-31.820253 -1.1290311e-15 3.54604)
(-33.328937 1.0907001e-21 3.6688175)
(-34.868618 -5.5323217e-22 3.7895699)
(-36.432632 -1.8453413e-20 3.9083044)
(-38.018386 -5.930623e-16 4.0244468)
(-39.622469 -1.9085419e-20 4.1376869)
(-41.243903 1.1545205e-21 4.2472204)
(-42.880854 -1.1710136e-21 4.353016)
(-44.535816 6.1914708e-16 4.4545629)
(-46.215848 -2.0067308e-20 4.5528807)
(-47.927706 -6.3140772e-16 4.6475743)
(-49.670782 1.4133467e-20 4.7384021)
(-51.444215 6.433605e-16 4.8249188)
(-53.246045 -5.3908083e-21 4.9072037)
(-55.072508 -2.8911948e-20 4.9836952)
(-56.914414 2.2387304e-20 5.0540282)
(-58.777362 7.3320968e-21 5.1174701)
(-60.67042 -3.3579342e-16 5.1741691)
(-62.606635 3.3854986e-16 5.224489)
(-64.591565 1.1907876e-20 5.269484)
(-66.619464 -2.2731125e-20 5.3069986)
(-68.679473 1.0513076e-20 5.3354125)
(-70.766253 -3.4913743e-16 5.3546252)
(-72.881405 -2.3362951e-20 5.3634967)
(-75.027289 -1.1495972e-20 5.3605895)
(-77.214538 -1.3643864e-21 5.3465506)
(-79.453265 1.2214554e-20 5.3204661)
(-81.736383 3.6234362e-16 5.2814637)
(-84.047494 -8.1951277e-21 5.2276866)
(-86.372887 9.35409e-22 5.1598148)
(-88.725274 -3.7124462e-16 5.0758895)
(-91.114427 3.7370289e-16 4.9761261)
(-93.543835 -7.5177729e-16 4.8562795)
(-96.008467 -5.0423483e-21 4.7157692)
(-98.522125 -3.7996416e-16 4.5529637)
(-101.09108 1.9098878e-16 4.3677862)
(-103.71525 -4.3891854e-21 4.1585746)
(-106.39631 -1.9286764e-16 3.9233074)
(-109.13963 -1.4750266e-21 3.6606228)
(-111.96537 1.4902441e-21 3.3682757)
(-114.88491 5.416678e-34 3.0433271)
(-117.88908 3.9341722e-16 2.6890004)
(-120.95888 -9.8840409e-17 2.3055568)
(-124.06063 -9.9294466e-17 1.8941266)
(-126.92395 -6.0947907e-21 1.3900501)
)
;
    }
    inlet
    {
        type            calculated;
        value           uniform (0 0 0);
    }
    outlet
    {
        type            calculated;
        value           uniform (0 0 0);
    }
    back
    {
        type            empty;
    }
    front
    {
        type            empty;
    }
}


// ************************************************************************* //
