/*--------------------------------*- C++ -*----------------------------------*\
  =========                 |
  \\      /  F ield         | OpenFOAM: The Open Source CFD Toolbox
   \\    /   O peration     | Website:  https://openfoam.org
    \\  /    A nd           | Version:  8
     \\/     M anipulation  |
\*---------------------------------------------------------------------------*/
FoamFile
{
    version     2.0;
    format      ascii;
    class       volScalarField;
    location    "0.299999";
    object      yPlus;
}
// * * * * * * * * * * * * * * * * * * * * * * * * * * * * * * * * * * * * * //

dimensions      [0 0 0 0 0 0 0];

internalField   uniform 0;

boundaryField
{
    aerofoil
    {
        type            calculated;
        value           nonuniform List<scalar> 
300
(
128.77869
127.83711
127.05042
126.27279
125.56401
124.89516
124.27536
123.69736
123.16429
122.67599
122.22972
121.8168
121.44488
121.10248
120.80134
120.53787
120.3008
120.09873
119.91928
119.76886
119.64746
119.55053
119.48669
119.43419
119.41157
119.4076
119.42703
119.47548
119.53508
119.61525
119.71115
119.81914
119.92704
120.03514
120.1568
120.29966
120.46732
120.66564
120.90429
121.19585
121.52124
121.90043
122.3123
122.76683
123.20796
123.66292
124.11029
124.5644
125.02224
125.48597
125.96318
126.39358
126.74582
126.98962
127.13013
127.2123
127.25574
127.42811
127.91569
128.96475
130.94797
133.56602
136.4028
139.09174
141.33854
143.08941
143.8945
143.22693
140.67762
135.37918
126.29085
112.27041
91.715791
64.151084
37.967774
179.88934
178.95559
179.15566
179.1331
178.60537
177.99385
177.20013
176.35522
175.46689
174.53878
173.57215
172.55479
171.4611
170.27117
168.99361
167.67861
166.36525
165.05656
163.75513
162.46691
161.19376
159.92425
158.65928
157.40631
156.15596
154.91345
153.67316
152.43936
151.20519
149.98332
148.77959
147.57103
146.36099
145.17806
144.02207
142.88027
141.75765
140.65687
139.57955
138.5177
137.46503
136.41704
135.35168
134.26711
133.13646
131.96432
130.73487
129.48379
128.25341
127.08357
126.00039
124.84664
123.36595
121.48758
119.149
115.92464
111.40904
105.73796
100.00327
95.096379
92.936918
96.415455
105.48784
114.54163
121.26245
125.67318
127.63814
128.54124
128.8461
128.98691
129.02651
129.05768
129.1037
129.15559
129.20906
128.35077
128.62518
128.90131
129.16529
129.44339
129.69977
129.98034
130.23628
130.50398
130.75981
131.02058
131.26201
131.50243
131.73551
131.97008
132.20125
132.43894
132.67014
132.89081
133.11845
133.36165
133.61555
133.89742
134.19862
134.5452
134.9154
135.30871
135.73323
136.17631
136.64746
137.1343
137.62815
138.13622
138.65253
139.19064
139.76363
140.36806
140.99708
141.62974
142.26293
142.87584
143.4595
144.00247
144.50501
144.9116
145.26904
145.54748
145.75788
145.90067
145.96525
145.9577
145.89828
145.78459
145.6296
145.4594
145.30322
145.1852
145.20014
145.2834
145.41983
145.4621
145.37939
145.1019
144.52769
143.48629
141.73224
139.03051
134.77301
128.35119
118.81769
104.77348
85.076081
59.337827
33.772756
9.9664175
8.1650932
10.850361
10.95925
13.642978
15.760012
18.311532
20.814684
23.333671
25.810833
28.261682
30.679723
33.063352
35.424651
37.77135
40.057927
42.280821
44.447925
46.557875
48.610524
50.605702
52.539329
54.414052
56.236792
58.021991
59.770817
61.486817
63.169369
64.820115
66.430137
68.001339
69.538692
71.055969
72.564429
74.056282
75.530765
76.984317
78.418038
79.830545
81.225399
82.607416
83.984212
85.353592
86.716212
88.069825
89.413596
90.738324
92.05016
93.354139
94.661083
95.973148
97.287139
98.593938
99.890842
101.17888
102.45979
103.73672
105.01816
106.29707
107.56531
108.81343
110.05411
111.28801
112.51963
113.74157
114.9652
116.18994
117.41801
118.64831
119.88396
121.13162
122.40152
123.68578
124.98391
126.2718
127.52702
)
;
    }
    inlet
    {
        type            calculated;
        value           uniform 0;
    }
    outlet
    {
        type            calculated;
        value           uniform 0;
    }
    back
    {
        type            empty;
    }
    front
    {
        type            empty;
    }
}


// ************************************************************************* //
