/*--------------------------------*- C++ -*----------------------------------*\
  =========                 |
  \\      /  F ield         | OpenFOAM: The Open Source CFD Toolbox
   \\    /   O peration     | Website:  https://openfoam.org
    \\  /    A nd           | Version:  8
     \\/     M anipulation  |
\*---------------------------------------------------------------------------*/
FoamFile
{
    version     2.0;
    format      ascii;
    class       volScalarField;
    location    "0.0399893";
    object      alphat;
}
// * * * * * * * * * * * * * * * * * * * * * * * * * * * * * * * * * * * * * //

dimensions      [1 -1 -1 0 0 0 0];

internalField   nonuniform List<scalar> 
20000
(
0.0010663269
0.0025702829
0.0033568221
0.0035595331
0.0030400636
0.0013646079
5.9912426e-05
7.0960051e-09
5.5115723e-09
5.5151462e-09
5.395461e-09
5.4381428e-09
5.381596e-09
5.4240571e-09
5.4316673e-09
5.4742108e-09
5.5086189e-09
5.5660573e-09
5.6283207e-09
5.7149102e-09
5.8174567e-09
5.9413414e-09
6.0847894e-09
6.2501506e-09
6.4368273e-09
6.6454455e-09
6.8717114e-09
7.1105231e-09
7.3532808e-09
7.5905839e-09
7.8120918e-09
8.0092508e-09
8.1790621e-09
8.3181823e-09
8.4326158e-09
8.50627e-09
8.5505973e-09
8.5893137e-09
8.6306625e-09
8.6503184e-09
8.6545243e-09
8.5995486e-09
8.5351313e-09
8.5144276e-09
8.5550857e-09
8.5845834e-09
8.5950956e-09
8.5920534e-09
8.5823942e-09
8.5767118e-09
0.0010464966
0.0025142736
0.0032737228
0.0034420533
0.0028974373
0.0011897267
2.6276342e-05
6.4825585e-09
5.4774205e-09
5.4855309e-09
5.3684449e-09
5.4129864e-09
5.3572969e-09
5.4009648e-09
5.4094388e-09
5.4529826e-09
5.488782e-09
5.5486166e-09
5.615625e-09
5.7061227e-09
5.812114e-09
5.9403039e-09
6.0858209e-09
6.2559174e-09
6.4476147e-09
6.6610301e-09
6.8916516e-09
7.1336655e-09
7.3781163e-09
7.615255e-09
7.834955e-09
8.028969e-09
8.1950621e-09
8.3309883e-09
8.441358e-09
8.5101478e-09
8.551306e-09
8.5951981e-09
8.6336231e-09
8.6502816e-09
8.6507669e-09
8.5890724e-09
8.5350595e-09
8.5156676e-09
8.5574691e-09
8.5862277e-09
8.5952754e-09
8.5920823e-09
8.5823253e-09
8.5766943e-09
0.0010421183
0.0024807809
0.0032041792
0.0033264526
0.0027392856
0.0010049217
8.6331774e-06
6.1321211e-09
5.4513682e-09
5.461496e-09
5.346741e-09
5.3919305e-09
5.3371514e-09
5.3814908e-09
5.3911222e-09
5.4362041e-09
5.4753455e-09
5.5398951e-09
5.6108262e-09
5.7040931e-09
5.8119917e-09
5.9413347e-09
6.0919432e-09
6.2666011e-09
6.4635123e-09
6.6820493e-09
6.9171617e-09
7.1623534e-09
7.4082046e-09
7.6447914e-09
7.8621249e-09
8.0523038e-09
8.2140117e-09
8.3463593e-09
8.4512571e-09
8.5146553e-09
8.5532282e-09
8.6015158e-09
8.6372355e-09
8.6507721e-09
8.6433768e-09
8.5739308e-09
8.5334055e-09
8.521687e-09
8.5644815e-09
8.587363e-09
8.5952187e-09
8.592017e-09
8.5823661e-09
8.5767005e-09
0.0010360533
0.0024448505
0.0031365721
0.0032196009
0.0025802505
0.00084097035
2.5864943e-06
5.9371785e-09
5.4275414e-09
5.4407702e-09
5.3288286e-09
5.3750149e-09
5.3216018e-09
5.367162e-09
5.3793756e-09
5.4278943e-09
5.4701837e-09
5.5367965e-09
5.6097275e-09
5.7038892e-09
5.8138606e-09
5.9482538e-09
6.10353e-09
6.2835779e-09
6.4860663e-09
6.7098991e-09
6.9494889e-09
7.1976168e-09
7.4444248e-09
7.6798177e-09
7.8940379e-09
8.0795994e-09
8.2363356e-09
8.3645538e-09
8.462556e-09
8.5209896e-09
8.5570256e-09
8.6077596e-09
8.6406163e-09
8.6525587e-09
8.6320145e-09
8.5661483e-09
8.5330099e-09
8.5252215e-09
8.5670047e-09
8.5887887e-09
8.5956745e-09
8.5920066e-09
8.5823649e-09
8.5766884e-09
0.0010304882
0.002409032
0.0030650838
0.0031067172
0.0024162371
0.00069363494
7.6834055e-07
5.8272763e-09
5.4102544e-09
5.4249816e-09
5.3161175e-09
5.3605795e-09
5.3123659e-09
5.3602122e-09
5.3745985e-09
5.4247058e-09
5.4687384e-09
5.5363226e-09
5.6103856e-09
5.7078404e-09
5.8219219e-09
5.9604492e-09
6.1210539e-09
6.3066553e-09
6.5149505e-09
6.7442412e-09
6.9882684e-09
7.2390529e-09
7.4862958e-09
7.7198149e-09
7.9301461e-09
8.1103229e-09
8.2614925e-09
8.3849674e-09
8.4751632e-09
8.5284153e-09
8.562747e-09
8.6136258e-09
8.6439423e-09
8.654558e-09
8.6193048e-09
8.557784e-09
8.5321552e-09
8.5315638e-09
8.5707105e-09
8.5902252e-09
8.5963443e-09
8.591989e-09
8.5823775e-09
8.5766785e-09
0.0010250971
0.00237453
0.0029966038
0.0029986411
0.0022479956
0.00056687111
2.44706e-07
5.761979e-09
5.3998579e-09
5.4122875e-09
5.3041072e-09
5.3491023e-09
5.3084348e-09
5.3574258e-09
5.3731451e-09
5.4239768e-09
5.4690016e-09
5.5388184e-09
5.6162803e-09
5.7169487e-09
5.8350801e-09
5.978625e-09
6.1447138e-09
6.3362744e-09
6.5506395e-09
6.7854914e-09
7.0338373e-09
7.2868982e-09
7.5339656e-09
7.7648705e-09
7.9704844e-09
8.1444774e-09
8.2895923e-09
8.4075526e-09
8.4892964e-09
8.5370387e-09
8.5705598e-09
8.6191814e-09
8.6467296e-09
8.6553114e-09
8.6058411e-09
8.5518835e-09
8.5294153e-09
8.5370965e-09
8.5739899e-09
8.5918404e-09
8.5973246e-09
8.5919781e-09
8.5823829e-09
8.576663e-09
0.0010200721
0.0023406338
0.0029286004
0.0028902625
0.0020749168
0.00045452867
8.7903655e-08
5.7250212e-09
5.3890877e-09
5.4009739e-09
5.2939631e-09
5.3421845e-09
5.3073563e-09
5.3565937e-09
5.3733982e-09
5.4260801e-09
5.4738156e-09
5.5462753e-09
5.6268691e-09
5.7313673e-09
5.8540834e-09
6.0027532e-09
6.1747431e-09
6.3725548e-09
6.5932118e-09
6.8336817e-09
7.0861521e-09
7.3410258e-09
7.5872354e-09
7.814721e-09
8.0147131e-09
8.1817428e-09
8.3205639e-09
8.4318305e-09
8.5048243e-09
8.546664e-09
8.5800757e-09
8.6247965e-09
8.6489615e-09
8.655185e-09
8.5956406e-09
8.5468516e-09
8.52693e-09
8.5439946e-09
8.5773272e-09
8.5935227e-09
8.5984504e-09
8.5919722e-09
8.5823877e-09
8.576645e-09
0.0010153001
0.0023069225
0.0028610086
0.0027835991
0.0018976618
0.00035390873
3.7281339e-08
5.7020837e-09
5.3838847e-09
5.3901692e-09
5.2874819e-09
5.3362987e-09
5.3084575e-09
5.3592363e-09
5.3782943e-09
5.4329339e-09
5.4831512e-09
5.5584795e-09
5.642726e-09
5.7512627e-09
5.8788379e-09
6.0331003e-09
6.211331e-09
6.4157358e-09
6.642889e-09
6.8889696e-09
7.1452808e-09
7.4014059e-09
7.6459984e-09
7.8691937e-09
8.0625891e-09
8.2218929e-09
8.3544675e-09
8.4573638e-09
8.521484e-09
8.5573893e-09
8.5910487e-09
8.6308375e-09
8.6509314e-09
8.6546395e-09
8.5875266e-09
8.5431288e-09
8.5259789e-09
8.5494652e-09
8.5803646e-09
8.5952287e-09
8.5996866e-09
8.5919682e-09
8.5823813e-09
8.5766232e-09
0.0010105877
0.0022727712
0.0027914459
0.002671132
0.0017172771
0.00026414963
1.9241872e-08
5.6868536e-09
5.3854524e-09
5.3917123e-09
5.2884386e-09
5.3373664e-09
5.3144971e-09
5.3664618e-09
5.3874996e-09
5.4442469e-09
5.497299e-09
5.5757144e-09
5.6637973e-09
5.7767528e-09
5.9095952e-09
6.0697935e-09
6.2546595e-09
6.4659693e-09
6.6997882e-09
6.9514026e-09
7.2111757e-09
7.4678984e-09
7.7100432e-09
7.9280022e-09
8.113765e-09
8.2646721e-09
8.3909895e-09
8.4838544e-09
8.5390545e-09
8.5691224e-09
8.6029631e-09
8.6377036e-09
8.6534398e-09
8.6529883e-09
8.5817399e-09
8.5404726e-09
8.5256357e-09
8.5546289e-09
8.5831873e-09
8.5969239e-09
8.6010142e-09
8.591967e-09
8.5823678e-09
8.5765987e-09
0.0010060466
0.0022390318
0.0027210092
0.0025597366
0.0015372398
0.0001838475
1.2070855e-08
5.6794629e-09
5.3880178e-09
5.3968898e-09
5.2956518e-09
5.3464763e-09
5.3244971e-09
5.3778971e-09
5.4011801e-09
5.4601818e-09
5.5162302e-09
5.5979919e-09
5.6902742e-09
5.8079831e-09
5.9464729e-09
6.1130227e-09
6.3049047e-09
6.5234248e-09
6.7640358e-09
7.0210246e-09
7.2837771e-09
7.5403486e-09
7.7791337e-09
7.9908162e-09
8.1679027e-09
8.3099685e-09
8.4294399e-09
8.5112497e-09
8.557402e-09
8.5817775e-09
8.6151474e-09
8.6452893e-09
8.657795e-09
8.6486358e-09
8.5776821e-09
8.5391342e-09
8.5257258e-09
8.5593789e-09
8.5858604e-09
8.5985902e-09
8.6024136e-09
8.5919678e-09
8.5823435e-09
8.5765721e-09
0.0010017108
0.0022060743
0.0026505949
0.0024500588
0.0013595233
0.00011307993
8.9186177e-09
5.6762439e-09
5.3944287e-09
5.4044231e-09
5.3066714e-09
5.3581643e-09
5.3386671e-09
5.3935704e-09
5.4192514e-09
5.4807266e-09
5.5400642e-09
5.6254603e-09
5.7222583e-09
5.8450965e-09
5.9896442e-09
6.1629451e-09
6.3622277e-09
6.5882353e-09
6.8357081e-09
7.0978215e-09
7.3629643e-09
7.6185447e-09
7.8529655e-09
8.0572229e-09
8.2246591e-09
8.3578507e-09
8.469139e-09
8.5393207e-09
8.5764369e-09
8.5953095e-09
8.6271587e-09
8.6533451e-09
8.6640445e-09
8.6411132e-09
8.5735969e-09
8.5384283e-09
8.5265439e-09
8.5641374e-09
8.5886354e-09
8.6002368e-09
8.6037465e-09
8.5919421e-09
8.5823059e-09
8.5765446e-09
0.00099760463
0.0021743181
0.0025843781
0.0023397675
0.0011863898
5.7011133e-05
7.4144155e-09
5.6775945e-09
5.4041093e-09
5.4161913e-09
5.3212915e-09
5.3741397e-09
5.3569514e-09
5.4135164e-09
5.4418492e-09
5.5060209e-09
5.5689136e-09
5.6582338e-09
5.7599024e-09
5.8882464e-09
6.0392669e-09
6.2197385e-09
6.4267928e-09
6.660532e-09
6.9148653e-09
7.1817509e-09
7.4485842e-09
7.7022306e-09
7.931164e-09
8.1267528e-09
8.2837404e-09
8.4084224e-09
8.5094075e-09
8.5678333e-09
8.59612e-09
8.6097198e-09
8.6388851e-09
8.6611332e-09
8.670678e-09
8.6317814e-09
8.5688845e-09
8.5381436e-09
8.5292731e-09
8.5689519e-09
8.5918087e-09
8.6018077e-09
8.6048648e-09
8.5918761e-09
8.5822563e-09
8.576517e-09
0.00099358791
0.0021425587
0.002517145
0.0022269525
0.0010202375
2.2532925e-05
6.664113e-09
5.6828959e-09
5.4174578e-09
5.431048e-09
5.3398317e-09
5.3940454e-09
5.3794977e-09
5.4379047e-09
5.4691021e-09
5.5361936e-09
5.6029078e-09
5.6964477e-09
5.8033318e-09
5.9375739e-09
6.0954969e-09
6.283562e-09
6.4987468e-09
6.7404128e-09
7.0015251e-09
7.2727208e-09
7.540432e-09
7.7910837e-09
8.0132702e-09
8.198924e-09
8.3449518e-09
8.4612509e-09
8.5499218e-09
8.5965431e-09
8.6164061e-09
8.6250019e-09
8.6504789e-09
8.6679047e-09
8.6752297e-09
8.6206756e-09
8.5637218e-09
8.5379891e-09
8.5334702e-09
8.5741118e-09
8.5955801e-09
8.6036374e-09
8.6054633e-09
8.5917769e-09
8.5821962e-09
8.5764898e-09
0.00098955796
0.0021108102
0.0024495195
0.0021105188
0.00086384084
7.2964907e-06
6.2832847e-09
5.6931298e-09
5.4344466e-09
5.4504115e-09
5.3625079e-09
5.4182871e-09
5.406528e-09
5.4668972e-09
5.5011539e-09
5.5713593e-09
5.6421504e-09
5.7402095e-09
5.852677e-09
5.9932267e-09
6.1584955e-09
6.3545882e-09
6.5782439e-09
6.8279734e-09
7.0956849e-09
7.3706104e-09
7.6382573e-09
7.8847029e-09
8.09875e-09
8.273324e-09
8.4082594e-09
8.5154752e-09
8.5904271e-09
8.6252835e-09
8.6371495e-09
8.6410324e-09
8.6620366e-09
8.6740531e-09
8.6763869e-09
8.6108176e-09
8.5589107e-09
8.5379848e-09
8.5393713e-09
8.5794717e-09
8.5997465e-09
8.6061547e-09
8.605671e-09
8.5916472e-09
8.5821262e-09
8.5764627e-09
0.00098552931
0.0020793874
0.0023815386
0.0019910565
0.00071911564
2.13306e-06
6.0914071e-09
5.7085166e-09
5.4556753e-09
5.4742556e-09
5.3895974e-09
5.4469812e-09
5.4381411e-09
5.5005654e-09
5.5380543e-09
5.6115849e-09
5.6867229e-09
5.7896181e-09
5.9080543e-09
6.0553416e-09
6.2284162e-09
6.4329711e-09
6.6654172e-09
6.9232847e-09
7.1973001e-09
7.4752437e-09
7.7417341e-09
7.9825884e-09
8.187039e-09
8.3496872e-09
8.4737333e-09
8.5700341e-09
8.6303769e-09
8.6540062e-09
8.6580299e-09
8.6576039e-09
8.6735158e-09
8.6812453e-09
8.6762187e-09
8.6030436e-09
8.5552219e-09
8.5368461e-09
8.5463522e-09
8.5846424e-09
8.6037598e-09
8.6095932e-09
8.6057195e-09
8.5914904e-09
8.5820462e-09
8.5764351e-09
0.00098171137
0.0020488785
0.0023133687
0.0018695528
0.00058757767
6.2183082e-07
6.0004299e-09
5.7280887e-09
5.4814309e-09
5.5023986e-09
5.4210609e-09
5.4800935e-09
5.4743025e-09
5.5388962e-09
5.5798333e-09
5.6569083e-09
5.7367034e-09
5.844781e-09
5.9695993e-09
6.12408e-09
6.3054374e-09
6.5188859e-09
6.7604054e-09
7.0264077e-09
7.306306e-09
7.5864012e-09
7.8504562e-09
8.0841598e-09
8.2776404e-09
8.4279369e-09
8.5411783e-09
8.623761e-09
8.6691641e-09
8.682907e-09
8.6785601e-09
8.6742504e-09
8.685247e-09
8.6906101e-09
8.6754588e-09
8.5977552e-09
8.5526202e-09
8.5365044e-09
8.5529759e-09
8.5895808e-09
8.607687e-09
8.6131561e-09
8.6057478e-09
8.5913118e-09
8.5819546e-09
8.5764057e-09
0.00097818051
0.002019671
0.00224593
0.0017420514
0.0004712115
1.9856834e-07
5.9647116e-09
5.751695e-09
5.5115461e-09
5.5346449e-09
5.4567223e-09
5.5175226e-09
5.5149684e-09
5.5818983e-09
5.6265205e-09
5.7074032e-09
5.7921826e-09
5.9058152e-09
6.0374545e-09
6.1996093e-09
6.3897393e-09
6.6125027e-09
6.8633269e-09
7.1373608e-09
7.422586e-09
7.7037835e-09
7.9639122e-09
8.188808e-09
8.3702403e-09
8.5080992e-09
8.6093629e-09
8.6760307e-09
8.706938e-09
8.7119758e-09
8.6984778e-09
8.6906868e-09
8.6972158e-09
8.7014171e-09
8.67394e-09
8.594523e-09
8.5513523e-09
8.536413e-09
8.5600845e-09
8.594345e-09
8.6113704e-09
8.6165316e-09
8.6057445e-09
8.5911139e-09
8.5818494e-09
8.5763735e-09
0.00097503511
0.0019918912
0.002185507
0.0016086098
0.00037269898
7.4679635e-08
5.9578462e-09
5.779165e-09
5.5454982e-09
5.5709147e-09
5.4965681e-09
5.5592687e-09
5.5601631e-09
5.6296037e-09
5.6781845e-09
5.7631411e-09
5.8532652e-09
5.9728584e-09
6.1117888e-09
6.282127e-09
6.4815302e-09
6.7140136e-09
6.9743096e-09
7.2561563e-09
7.5459842e-09
7.8270132e-09
8.0815108e-09
8.2960144e-09
8.464767e-09
8.5899776e-09
8.6766882e-09
8.7264244e-09
8.7445585e-09
8.740208e-09
8.7180279e-09
8.706767e-09
8.708839e-09
8.7121719e-09
8.6707289e-09
8.5919551e-09
8.5507338e-09
8.5363811e-09
8.567445e-09
8.598936e-09
8.6146105e-09
8.6194353e-09
8.6054504e-09
8.5908821e-09
8.5817288e-09
8.5763377e-09
0.00097204441
0.001963878
0.0021232512
0.0014684404
0.00028302315
3.373616e-08
5.9680901e-09
5.8105987e-09
5.5834762e-09
5.6112729e-09
5.5406359e-09
5.6053811e-09
5.6099336e-09
5.6820797e-09
5.7348932e-09
5.8242318e-09
5.9200809e-09
6.0460685e-09
6.1927879e-09
6.3718393e-09
6.5810191e-09
6.8235967e-09
7.0934533e-09
7.3827576e-09
7.6762595e-09
7.9555981e-09
8.2026256e-09
8.4054666e-09
8.5612484e-09
8.6725003e-09
8.7420275e-09
8.7749609e-09
8.7825924e-09
8.7672412e-09
8.7373178e-09
8.722062e-09
8.7198305e-09
8.7203431e-09
8.6654032e-09
8.5893618e-09
8.5504836e-09
8.537904e-09
8.5750693e-09
8.6034612e-09
8.6173583e-09
8.6217389e-09
8.6050214e-09
8.5906094e-09
8.5815944e-09
8.5762983e-09
0.00096933801
0.0019360587
0.0020610351
0.001323509
0.00020262892
1.874752e-08
5.9892859e-09
5.846038e-09
5.625483e-09
5.6557594e-09
5.588983e-09
5.6559085e-09
5.664343e-09
5.7393948e-09
5.7967506e-09
5.8907895e-09
5.9927818e-09
6.1256334e-09
6.2806706e-09
6.468985e-09
6.6884409e-09
6.9414449e-09
7.220859e-09
7.5171e-09
7.813097e-09
8.0889654e-09
8.3267201e-09
8.5171109e-09
8.6593502e-09
8.7537891e-09
8.8049842e-09
8.8227806e-09
8.8199176e-09
8.7931717e-09
8.756369e-09
8.736843e-09
8.7302396e-09
8.7232979e-09
8.6581998e-09
8.5867461e-09
8.5509256e-09
8.5412538e-09
8.5828592e-09
8.6082899e-09
8.6196679e-09
8.6228517e-09
8.604518e-09
8.5903061e-09
8.5814479e-09
8.5762557e-09
0.00096698111
0.0019082639
0.0019983682
0.0011767567
0.00013112782
1.2567275e-08
6.0182053e-09
5.8854994e-09
5.6715658e-09
5.7044171e-09
5.6416537e-09
5.7109054e-09
5.7234604e-09
5.8016474e-09
5.8638698e-09
5.9629741e-09
6.0715504e-09
6.2117652e-09
6.375671e-09
6.5738092e-09
6.8040229e-09
7.0677294e-09
7.3565768e-09
7.6590296e-09
7.9560548e-09
8.2264882e-09
8.4534572e-09
8.6309384e-09
8.7574882e-09
8.8327432e-09
8.8655836e-09
8.8705652e-09
8.8557868e-09
8.8178666e-09
8.7747934e-09
8.7510808e-09
8.7408283e-09
8.7240948e-09
8.6495073e-09
8.5844256e-09
8.5535438e-09
8.5470035e-09
8.5903299e-09
8.6136097e-09
8.6222783e-09
8.623253e-09
8.6039608e-09
8.5899775e-09
8.5812907e-09
8.5762108e-09
0.00096485618
0.0018801655
0.0019345877
0.0010366687
7.2290698e-05
9.7629283e-09
6.0531673e-09
5.9290794e-09
5.721749e-09
5.7572884e-09
5.6986972e-09
5.7704487e-09
5.7873835e-09
5.8689607e-09
5.9364085e-09
6.0409601e-09
6.1565985e-09
6.3047064e-09
6.4780583e-09
6.6865901e-09
6.9280292e-09
7.2026431e-09
7.5006528e-09
7.8083247e-09
8.1046084e-09
8.3676028e-09
8.5827636e-09
8.7463778e-09
8.8539189e-09
8.908664e-09
8.9251909e-09
8.9171301e-09
8.8900511e-09
8.8412464e-09
8.7925219e-09
8.7650918e-09
8.7517369e-09
8.7239846e-09
8.6406518e-09
8.5823919e-09
8.5574592e-09
8.5545076e-09
8.5977248e-09
8.6194449e-09
8.6263863e-09
8.6233434e-09
8.6033595e-09
8.5896273e-09
8.5811236e-09
8.5761646e-09
0.0009626968
0.0018490675
0.0018680676
0.00090433844
3.2219798e-05
8.4004592e-09
6.0930575e-09
5.9766494e-09
5.7760374e-09
5.8144059e-09
5.7602146e-09
5.8346425e-09
5.8562498e-09
5.9414874e-09
6.0145433e-09
6.1249632e-09
6.2481595e-09
6.4047179e-09
6.5881101e-09
6.8076119e-09
7.0607113e-09
7.3463497e-09
7.6530498e-09
7.9646355e-09
8.2581448e-09
8.5118846e-09
8.7146169e-09
8.8615634e-09
8.9475176e-09
8.9820115e-09
8.9838946e-09
8.9619632e-09
8.9224962e-09
8.863305e-09
8.8094923e-09
8.7788752e-09
8.7629501e-09
8.7226647e-09
8.6331764e-09
8.5807191e-09
8.5606692e-09
8.5633903e-09
8.605076e-09
8.6253963e-09
8.6314206e-09
8.6233333e-09
8.6027278e-09
8.5892577e-09
8.5809474e-09
8.576118e-09
0.00096021021
0.0018149663
0.001797682
0.00078030832
1.1797336e-05
7.71831e-09
6.1375489e-09
6.0284345e-09
5.8345668e-09
5.8759617e-09
5.8263367e-09
5.9036468e-09
5.9302089e-09
6.0194117e-09
6.0984822e-09
6.2152078e-09
6.3464916e-09
6.5120921e-09
6.7061453e-09
6.9372e-09
7.2023594e-09
7.499017e-09
7.8136836e-09
8.1275301e-09
8.4160883e-09
8.6591551e-09
8.8483939e-09
8.9747137e-09
9.0374377e-09
9.0540743e-09
9.0406531e-09
9.0048206e-09
8.9530404e-09
8.8841563e-09
8.8257588e-09
8.792167e-09
8.7739043e-09
8.7175988e-09
8.6278559e-09
8.5798676e-09
8.562338e-09
8.5735725e-09
8.6121338e-09
8.6308206e-09
8.6362895e-09
8.6231349e-09
8.6020784e-09
8.5888688e-09
8.580764e-09
8.5760718e-09
0.00095737367
0.0017774448
0.001721955
0.00066479966
3.8026039e-06
7.3776146e-09
6.186862e-09
6.0845424e-09
5.8974934e-09
5.9420265e-09
5.8972041e-09
5.9775904e-09
6.0094382e-09
6.1029271e-09
6.1884409e-09
6.3119447e-09
6.4518727e-09
6.62714e-09
6.8324982e-09
7.0756825e-09
7.353241e-09
7.6607292e-09
7.9823218e-09
8.2964537e-09
8.5779468e-09
8.8093785e-09
8.9821066e-09
9.0845842e-09
9.1243967e-09
9.1244684e-09
9.095063e-09
9.0454746e-09
8.9816036e-09
8.9038946e-09
8.841412e-09
8.8047043e-09
8.7830639e-09
8.7109501e-09
8.6232645e-09
8.5794669e-09
8.5637861e-09
8.5839134e-09
8.6185811e-09
8.6352994e-09
8.6402678e-09
8.622152e-09
8.601378e-09
8.5884592e-09
8.5805766e-09
8.5760267e-09
0.00095401332
0.001735802
0.001634622
0.00055872269
1.18404e-06
7.2157957e-09
6.240679e-09
6.1449623e-09
5.9648476e-09
6.0127377e-09
5.972971e-09
6.0566657e-09
6.0941286e-09
6.1922471e-09
6.2846553e-09
6.415432e-09
6.5646147e-09
6.7502238e-09
6.96756e-09
7.2234386e-09
7.5136332e-09
7.8315451e-09
8.15865e-09
8.4708505e-09
8.7434349e-09
8.9622102e-09
9.1136673e-09
9.19014e-09
9.2096244e-09
9.1922025e-09
9.1468664e-09
9.0837593e-09
9.0081371e-09
8.9224546e-09
8.8564227e-09
8.8166797e-09
8.7866996e-09
8.7033003e-09
8.6191811e-09
8.5792717e-09
8.5656777e-09
8.594435e-09
8.6244068e-09
8.6386436e-09
8.6426503e-09
8.6209216e-09
8.600615e-09
8.588039e-09
8.580389e-09
8.5759831e-09
0.00095019892
0.0016910891
0.0015361066
0.00046311472
3.8647778e-07
7.1504543e-09
6.2993181e-09
6.2100103e-09
6.036872e-09
6.0882837e-09
6.0538174e-09
6.1410431e-09
6.1844678e-09
6.2875763e-09
6.3873573e-09
6.5259738e-09
6.6850692e-09
6.8817394e-09
7.1117374e-09
7.3808383e-09
7.683767e-09
8.0113873e-09
8.3421951e-09
8.6501665e-09
8.9124128e-09
9.1156232e-09
9.2417408e-09
9.2920482e-09
9.29262e-09
9.2568481e-09
9.1958583e-09
9.1195339e-09
9.0325953e-09
8.9396788e-09
8.8706975e-09
8.8287952e-09
8.7879644e-09
8.6953883e-09
8.6171446e-09
8.5799382e-09
8.5690534e-09
8.6045621e-09
8.629741e-09
8.6411103e-09
8.6436914e-09
8.6196057e-09
8.5998295e-09
8.587617e-09
8.580203e-09
8.5759417e-09
0.00094621377
0.0016444272
0.0014276855
0.0003751539
1.4093726e-07
7.138398e-09
6.3626488e-09
6.2796127e-09
6.1136121e-09
6.1687547e-09
6.1398909e-09
6.2308902e-09
6.2806345e-09
6.389135e-09
6.4968236e-09
6.6439145e-09
6.8136525e-09
7.0221441e-09
7.2654934e-09
7.5482893e-09
7.8638583e-09
8.2001e-09
8.5324535e-09
8.8339716e-09
9.0847002e-09
9.267439e-09
9.364981e-09
9.3915352e-09
9.3723394e-09
9.3181652e-09
9.2418812e-09
9.1526966e-09
9.0549664e-09
8.9555196e-09
8.8842694e-09
8.8411239e-09
8.787839e-09
8.6874473e-09
8.6164007e-09
8.5828801e-09
8.5752073e-09
8.6139606e-09
8.6353533e-09
8.6436552e-09
8.6440944e-09
8.6182644e-09
8.59904e-09
8.5871971e-09
8.5800191e-09
8.5759027e-09
0.0009422363
0.0015963501
0.0013127325
0.00029717997
6.0919399e-08
7.1564964e-09
6.4305094e-09
6.3539128e-09
6.1952352e-09
6.2543357e-09
6.2313554e-09
6.3263681e-09
6.3828242e-09
6.4971939e-09
6.61341e-09
6.7696966e-09
6.9508438e-09
7.1719298e-09
7.4293e-09
7.7261574e-09
8.054e-09
8.3973488e-09
8.7288636e-09
9.0219317e-09
9.2588479e-09
9.4157993e-09
9.483594e-09
9.4884162e-09
9.4481828e-09
9.37595e-09
9.28481e-09
9.1831751e-09
9.0752765e-09
8.970152e-09
8.896853e-09
8.8523097e-09
8.7860468e-09
8.6801503e-09
8.6164163e-09
8.5882595e-09
8.5838799e-09
8.6222814e-09
8.6414861e-09
8.6477081e-09
8.6440866e-09
8.6169251e-09
8.5982545e-09
8.5867806e-09
8.5798377e-09
8.5758668e-09
0.00093805993
0.0015452323
0.0012028919
0.0002253684
3.1185464e-08
7.1930491e-09
6.5033333e-09
6.4331591e-09
6.2819316e-09
6.3451205e-09
6.3283272e-09
6.4276428e-09
6.4913069e-09
6.6121242e-09
6.7375774e-09
6.9038184e-09
7.0971772e-09
7.3316489e-09
7.6036737e-09
7.9148174e-09
8.2542154e-09
8.6027368e-09
8.9309514e-09
9.2139119e-09
9.4325276e-09
9.5591282e-09
9.5988064e-09
9.5814934e-09
9.5199229e-09
9.430054e-09
9.3245557e-09
9.2109351e-09
9.093573e-09
8.9837537e-09
8.9083951e-09
8.8584448e-09
8.7796504e-09
8.6744905e-09
8.6168884e-09
8.5945055e-09
8.5935586e-09
8.6302351e-09
8.6477799e-09
8.6531152e-09
8.6440075e-09
8.6156048e-09
8.5974747e-09
8.5863674e-09
8.5796594e-09
8.5758346e-09
0.00093410226
0.0014908393
0.0010900797
0.00015883671
1.9049573e-08
7.2412943e-09
6.5809238e-09
6.5172509e-09
6.373634e-09
6.4411864e-09
6.4309938e-09
6.5350527e-09
6.6065107e-09
6.7343923e-09
6.8698504e-09
7.0468523e-09
7.2532236e-09
7.5018621e-09
7.7891159e-09
8.1145339e-09
8.4643485e-09
8.8157274e-09
9.1382613e-09
9.4093496e-09
9.6031797e-09
9.6966781e-09
9.7111864e-09
9.6698471e-09
9.5873203e-09
9.4803747e-09
9.3610725e-09
9.2359773e-09
9.1098985e-09
8.9962851e-09
8.9195591e-09
8.8608517e-09
8.77052e-09
8.6697062e-09
8.6184638e-09
8.5996692e-09
8.6040576e-09
8.6378613e-09
8.6537427e-09
8.6584041e-09
8.6428259e-09
8.6143267e-09
8.5966979e-09
8.5859573e-09
8.5794855e-09
8.5758063e-09
0.00093128675
0.0014427176
0.00097712021
9.9487025e-05
1.3581448e-08
7.2974784e-09
6.6632196e-09
6.6062034e-09
6.4705574e-09
6.5428679e-09
6.539863e-09
6.6491415e-09
6.7290215e-09
6.8645625e-09
7.0108089e-09
7.1993656e-09
7.4195918e-09
7.6831876e-09
7.9861488e-09
8.3255373e-09
8.6841555e-09
9.035848e-09
9.3504634e-09
9.60589e-09
9.7691454e-09
9.8295876e-09
9.8193079e-09
9.753271e-09
9.6502283e-09
9.5268574e-09
9.3943577e-09
9.2583331e-09
9.1242909e-09
9.007897e-09
8.9307695e-09
8.8612999e-09
8.7594794e-09
8.6653806e-09
8.6201544e-09
8.6042852e-09
8.6150369e-09
8.6447109e-09
8.6586301e-09
8.6626637e-09
8.6407223e-09
8.6129923e-09
8.5959128e-09
8.5855537e-09
8.5793183e-09
8.5757824e-09
0.00092888163
0.0013918042
0.00086477684
5.2441053e-05
1.0934427e-08
7.3594756e-09
6.7504863e-09
6.7005479e-09
6.5733241e-09
6.6508848e-09
6.6556019e-09
6.7705357e-09
6.8593791e-09
7.003287e-09
7.1610115e-09
7.362e-09
7.5969297e-09
7.8762489e-09
8.1952252e-09
8.5478745e-09
8.9132021e-09
9.2625545e-09
9.5671821e-09
9.8008274e-09
9.9285545e-09
9.9592203e-09
9.9219646e-09
9.8314557e-09
9.7085482e-09
9.5694919e-09
9.424427e-09
9.2780263e-09
9.1368262e-09
9.0185162e-09
8.941224e-09
8.8610231e-09
8.7479733e-09
8.6615721e-09
8.6220159e-09
8.6087776e-09
8.6259995e-09
8.650692e-09
8.6620505e-09
8.664913e-09
8.6383569e-09
8.611608e-09
8.5951359e-09
8.5851623e-09
8.5791595e-09
8.5757632e-09
0.00092716946
0.0013391036
0.00075551632
2.2705823e-05
9.6020982e-09
7.428228e-09
6.8437232e-09
6.8013637e-09
6.6828272e-09
6.7659163e-09
6.7787707e-09
6.8996974e-09
6.9980684e-09
7.151094e-09
7.3210848e-09
7.5354013e-09
7.785946e-09
8.0817117e-09
8.416776e-09
8.7815097e-09
9.151059e-09
9.4953706e-09
9.7871466e-09
9.9916342e-09
1.0082049e-08
1.0084311e-08
1.0018743e-08
9.9042419e-09
9.7622428e-09
9.6082968e-09
9.4512779e-09
9.2950461e-09
9.1476639e-09
9.028143e-09
8.947172e-09
8.8579236e-09
8.737531e-09
8.6597317e-09
8.6244465e-09
8.6138235e-09
8.636485e-09
8.6561612e-09
8.6644566e-09
8.665708e-09
8.6359675e-09
8.6102346e-09
8.5943821e-09
8.5847864e-09
8.5790108e-09
8.5757489e-09
0.00092647064
0.0012844189
0.00065091315
8.333188e-06
8.9295526e-09
7.5069179e-09
6.9438264e-09
6.9091471e-09
6.7994724e-09
6.8882288e-09
6.9096681e-09
7.0370126e-09
7.1455769e-09
7.308557e-09
7.491695e-09
7.7203462e-09
7.9873893e-09
8.3002029e-09
8.6510607e-09
9.0261626e-09
9.3971883e-09
9.7338164e-09
1.000754e-08
1.0176214e-08
1.0230732e-08
1.0203579e-08
1.0109301e-08
9.9715062e-09
9.8113245e-09
9.6432993e-09
9.4748646e-09
9.3093908e-09
9.1570619e-09
9.0371245e-09
8.9494717e-09
8.8508469e-09
8.7290533e-09
8.6590826e-09
8.6277341e-09
8.6200151e-09
8.6459037e-09
8.6614354e-09
8.6668018e-09
8.6658386e-09
8.6336337e-09
8.6089001e-09
8.5936575e-09
8.5844268e-09
8.578872e-09
8.5757401e-09
0.00092712442
0.0012315211
0.00055228449
2.7859944e-06
8.6056675e-09
7.5964078e-09
7.05066e-09
7.02363e-09
6.9232187e-09
7.0179893e-09
7.048633e-09
7.1829914e-09
7.3025141e-09
7.4763642e-09
7.6736416e-09
7.9176251e-09
8.2020675e-09
8.5323553e-09
8.8982664e-09
9.2814898e-09
9.6510761e-09
9.9774032e-09
1.022531e-08
1.0353431e-08
1.0375037e-08
1.0315868e-08
1.0193423e-08
1.0033216e-08
9.8558432e-09
9.6745138e-09
9.4951503e-09
9.321257e-09
9.1653533e-09
9.0457121e-09
8.9499494e-09
8.84002e-09
8.7222275e-09
8.6591701e-09
8.6325833e-09
8.6276502e-09
8.6536507e-09
8.6665475e-09
8.6706853e-09
8.6656499e-09
8.6313878e-09
8.6076144e-09
8.5929627e-09
8.5840829e-09
8.5787409e-09
8.5757372e-09
0.00092821873
0.0011707495
0.00046012168
9.2715655e-07
8.4692808e-09
7.6908957e-09
7.1638128e-09
7.1449157e-09
7.0544021e-09
7.155677e-09
7.1962744e-09
7.3382812e-09
7.4696369e-09
7.6553439e-09
7.8677744e-09
8.1281634e-09
8.4307946e-09
8.7786764e-09
9.1583461e-09
9.5469869e-09
9.912025e-09
1.0223977e-08
1.0437753e-08
1.0524133e-08
1.0513186e-08
1.0420917e-08
1.0270948e-08
1.0089394e-08
9.8958677e-09
9.7019558e-09
9.5122553e-09
9.3312588e-09
9.1729015e-09
9.0528878e-09
8.9497078e-09
8.8268164e-09
8.716417e-09
8.6604706e-09
8.6388093e-09
8.6358602e-09
8.6605662e-09
8.6720469e-09
8.6755512e-09
8.6652182e-09
8.6292522e-09
8.6063812e-09
8.5922956e-09
8.5837538e-09
8.5786185e-09
8.5757411e-09
0.00092969638
0.0011043803
0.0003756166
3.3368775e-07
8.4323912e-09
7.7925994e-09
7.2841167e-09
7.2738479e-09
7.1937182e-09
7.3020253e-09
7.3532974e-09
7.5036794e-09
7.6477813e-09
7.8464107e-09
8.0750627e-09
8.3528711e-09
8.6743994e-09
9.0395969e-09
9.4311639e-09
9.822211e-09
1.0179512e-08
1.0470319e-08
1.0642378e-08
1.0689874e-08
1.0643628e-08
1.0518361e-08
1.0341825e-08
1.0140118e-08
9.9314709e-09
9.7256969e-09
9.5266308e-09
9.3402312e-09
9.1798181e-09
9.0557711e-09
8.9465858e-09
8.8124752e-09
8.711608e-09
8.6629072e-09
8.6452731e-09
8.6443443e-09
8.6670543e-09
8.6774524e-09
8.6806579e-09
8.6631438e-09
8.6272383e-09
8.6051971e-09
8.591652e-09
8.5834394e-09
8.5785064e-09
8.5757522e-09
0.00093115795
0.0010311533
0.00029899537
1.3807071e-07
8.4532066e-09
7.9020748e-09
7.4122849e-09
7.4110464e-09
7.3418924e-09
7.4577331e-09
7.5205347e-09
7.6800588e-09
7.8379066e-09
8.0505515e-09
8.2964967e-09
8.5927824e-09
8.9336179e-09
9.3153199e-09
9.7162907e-09
1.0106497e-08
1.0452652e-08
1.0712705e-08
1.0838929e-08
1.0849404e-08
1.0765639e-08
1.0608003e-08
1.0406071e-08
1.01855e-08
9.9627444e-09
9.7459587e-09
9.5390233e-09
9.3481928e-09
9.1851204e-09
9.0569297e-09
8.9402613e-09
8.7986933e-09
8.7079257e-09
8.6662589e-09
8.6515829e-09
8.6533561e-09
8.673077e-09
8.6818204e-09
8.6841166e-09
8.6599239e-09
8.6252799e-09
8.6040338e-09
8.5910292e-09
8.5831418e-09
8.578406e-09
8.575771e-09
0.00093246618
0.00095185057
0.0002311867
6.8294356e-08
8.5085851e-09
8.0197167e-09
7.548925e-09
7.5571812e-09
7.499689e-09
7.6236609e-09
7.6989015e-09
7.868416e-09
8.0410234e-09
8.2688258e-09
8.5331828e-09
8.848838e-09
9.2091361e-09
9.6059296e-09
1.0013321e-08
1.0399071e-08
1.072845e-08
1.0948347e-08
1.1028416e-08
1.1001007e-08
1.0878836e-08
1.0689743e-08
1.0463791e-08
1.0225678e-08
9.989841e-09
9.7631653e-09
9.5499803e-09
9.3529654e-09
9.1873599e-09
9.0571187e-09
8.9297605e-09
8.787267e-09
8.7057125e-09
8.6699353e-09
8.6574771e-09
8.6628557e-09
8.6784692e-09
8.68479e-09
8.6856024e-09
8.6564035e-09
8.6232821e-09
8.6028967e-09
8.5904344e-09
8.5828638e-09
8.5783182e-09
8.5757978e-09
0.00093292988
0.00086589798
0.00017181739
4.0190039e-08
8.5868153e-09
8.1461327e-09
7.6947944e-09
7.7131041e-09
7.6680454e-09
7.8007615e-09
7.8894186e-09
8.0697772e-09
8.2582221e-09
8.5023707e-09
8.7862424e-09
9.1221027e-09
9.5014555e-09
9.9112263e-09
1.0321644e-08
1.0699019e-08
1.1003021e-08
1.1174704e-08
1.1211976e-08
1.1142808e-08
1.0982901e-08
1.0763588e-08
1.0515128e-08
1.0260804e-08
1.0013037e-08
9.7778891e-09
9.5587214e-09
9.3548795e-09
9.1883268e-09
9.0553309e-09
8.9157243e-09
8.7785228e-09
8.7050315e-09
8.673959e-09
8.6633563e-09
8.6719933e-09
8.6833822e-09
8.6871749e-09
8.6859874e-09
8.6528969e-09
8.6213192e-09
8.6018071e-09
8.5898731e-09
8.5826065e-09
8.5782435e-09
8.5758332e-09
0.00093282111
0.00076729945
0.00011919493
2.7127952e-08
8.6819857e-09
8.2822093e-09
7.8508571e-09
7.879779e-09
7.8479633e-09
7.9900476e-09
8.0931133e-09
8.2852513e-09
8.4906368e-09
8.7524341e-09
9.0569271e-09
9.4134671e-09
9.8109489e-09
1.0230928e-08
1.0640584e-08
1.1004961e-08
1.1272154e-08
1.1392285e-08
1.1387212e-08
1.1274537e-08
1.1077691e-08
1.0829659e-08
1.0560268e-08
1.0291078e-08
1.0032755e-08
9.7906e-09
9.5623785e-09
9.3554839e-09
9.1886454e-09
9.0509718e-09
8.8999437e-09
8.7712491e-09
8.705096e-09
8.6782661e-09
8.6693815e-09
8.6800738e-09
8.6880698e-09
8.6907003e-09
8.6859111e-09
8.6495169e-09
8.6194326e-09
8.6007759e-09
8.5893475e-09
8.5823702e-09
8.5781824e-09
8.575878e-09
0.00093467912
0.00069824562
7.7875536e-05
2.0542193e-08
8.791756e-09
8.429025e-09
8.0180911e-09
8.0581963e-09
8.0403956e-09
8.1924888e-09
8.3110848e-09
8.5159928e-09
8.7395759e-09
9.0203529e-09
9.3464736e-09
9.7238502e-09
1.0137697e-08
1.0564486e-08
1.0969025e-08
1.1312692e-08
1.1532466e-08