/*--------------------------------*- C++ -*----------------------------------*\
  =========                 |
  \\      /  F ield         | OpenFOAM: The Open Source CFD Toolbox
   \\    /   O peration     | Website:  https://openfoam.org
    \\  /    A nd           | Version:  8
     \\/     M anipulation  |
\*---------------------------------------------------------------------------*/
FoamFile
{
    version     2.0;
    format      ascii;
    class       volVectorField;
    location    "0.0399893";
    object      cellDisplacement;
}
// * * * * * * * * * * * * * * * * * * * * * * * * * * * * * * * * * * * * * //

dimensions      [0 1 0 0 0 0 0];

internalField   nonuniform List<vector> 
20000
(
(-0.0026485762 0 -0.0019306844)
(-0.0026485552 0 -0.0019309522)
(-0.0026485157 0 -0.001931942)
(-0.0026484314 0 -0.0019331803)
(-0.002648282 0 -0.001934712)
(-0.0026480395 0 -0.0019366096)
(-0.0026476651 0 -0.0019389676)
(-0.0026471056 0 -0.0019419098)
(-0.0026462887 0 -0.0019456004)
(-0.0026451163 0 -0.0019502607)
(-0.002643457 0 -0.0019561902)
(-0.0026411355 0 -0.001963796)
(-0.0026379197 0 -0.0019736324)
(-0.0026335057 0 -0.0019864533)
(-0.0026274994 0 -0.0020032815)
(-0.0026193962 0 -0.0020254998)
(-0.0026085601 0 -0.0020549728)
(-0.0025942043 0 -0.0020941883)
(-0.0025753792 0 -0.0021464579)
(-0.0025509718 0 -0.0022161092)
(-0.0025197303 0 -0.0023086947)
(-0.0024803218 0 -0.0024311335)
(-0.0024314334 0 -0.0025917024)
(-0.0023719209 0 -0.0027997339)
(-0.0023009922 0 -0.0030648634)
(-0.0022183975 0 -0.003395689)
(-0.0021245788 0 -0.0037977976)
(-0.0020207274 0 -0.0042715993)
(-0.0019087502 0 -0.004810168)
(-0.0017910792 0 -0.0053983557)
(-0.0016704851 0 -0.0060130391)
(-0.0015497868 0 -0.0066257595)
(-0.0014315826 0 -0.0072064984)
(-0.001318002 0 -0.0077281814)
(-0.0012105493 0 -0.0081696052)
(-0.0011101113 0 -0.0085171197)
(-0.0010169311 0 -0.0087639835)
(-0.00093083765 0 -0.0089086161)
(-0.0008511691 0 -0.0089526003)
(-0.00077720085 0 -0.0088977609)
(-0.00070792195 0 -0.0087445863)
(-0.00064234323 0 -0.0084907583)
(-0.00057932287 0 -0.008131222)
(-0.00051743408 0 -0.0076565396)
(-0.00045517641 0 -0.0070519757)
(-0.00039106567 0 -0.0062995183)
(-0.00032222978 0 -0.0053652474)
(-0.00024596501 0 -0.0042104229)
(-0.00015858258 0 -0.0027770758)
(-5.2857049e-05 0 -0.00095717512)
(-0.0026393348 0 -0.0015667998)
(-0.0026393229 0 -0.0015673529)
(-0.0026392784 0 -0.0015680285)
(-0.0026391869 0 -0.0015688637)
(-0.0026390281 0 -0.0015699152)
(-0.0026387734 0 -0.0015712482)
(-0.0026383831 0 -0.0015729494)
(-0.0026378032 0 -0.0015751341)
(-0.0026369599 0 -0.0015779572)
(-0.0026357537 0 -0.0015816272)
(-0.002634051 0 -0.001586427)
(-0.0026316737 0 -0.001592741)
(-0.0026283868 0 -0.0016010957)
(-0.0026238823 0 -0.0016122136)
(-0.0026177618 0 -0.001627086)
(-0.0026095156 0 -0.0016470701)
(-0.0025985027 0 -0.0016740122)
(-0.0025839319 0 -0.0017104067)
(-0.0025648506 0 -0.0017595865)
(-0.0025401471 0 -0.0018259422)
(-0.0025085777 0 -0.0019151355)
(-0.0024688282 0 -0.0020342559)
(-0.002419619 0 -0.002191821)
(-0.0023598558 0 -0.002397477)
(-0.0022888117 0 -0.0026612375)
(-0.0022063106 0 -0.002992121)
(-0.0021128595 0 -0.0033961746)
(-0.0020096901 0 -0.0038742644)
(-0.0018986989 0 -0.0044199622)
(-0.0017822591 0 -0.0050185858)
(-0.0016630346 0 -0.0056473988)
(-0.0015437207 0 -0.0062780969)
(-0.0014268011 0 -0.0068804725)
(-0.0013143307 0 -0.0074268454)
(-0.0012077843 0 -0.0078950715)
(-0.001108049 0 -0.0082704114)
(-0.0010154028 0 -0.0085450695)
(-0.00092970339 0 -0.0087166405)
(-0.00085034318 0 -0.0087860745)
(-0.00077661148 0 -0.0087549033)
(-0.00070753189 0 -0.0086235047)
(-0.00064211943 0 -0.0083896482)
(-0.00057924286 0 -0.0080483445)
(-0.00051749185 0 -0.0075902935)
(-0.000455365 0 -0.0070009095)
(-0.00039133201 0 -0.0062618378)
(-0.00032257958 0 -0.0053395853)
(-0.00024633016 0 -0.0041946063)
(-0.00015883398 0 -0.0027682377)
(-5.2948558e-05 0 -0.00095327185)
(-0.0026288803 0 -0.0012108071)
(-0.0026288631 0 -0.0012111374)
(-0.0026288114 0 -0.0012115412)
(-0.002628711 0 -0.0012120603)
(-0.0026285407 0 -0.001212733)
(-0.0026282713 0 -0.001213611)
(-0.002627862 0 -0.0012147661)
(-0.0026272577 0 -0.0012162971)
(-0.002626383 0 -0.0012183406)
(-0.0026251364 0 -0.0012210863)
(-0.0026233819 0 -0.0012247969)
(-0.0026209387 0 -0.0012298364)
(-0.0026175679 0 -0.0012367107)
(-0.0026129576 0 -0.00124612)
(-0.0026067041 0 -0.0012590344)
(-0.0025982929 0 -0.0012767915)
(-0.0025870771 0 -0.0013012248)
(-0.0025722611 0 -0.0013348317)
(-0.0025528894 0 -0.0013809723)
(-0.0025278523 0 -0.0014441006)
(-0.0024959153 0 -0.0015299895)
(-0.0024557851 0 -0.0016459004)
(-0.0024062185 0 -0.0018005914)
(-0.0023461755 0 -0.0020040141)
(-0.0022749997 0 -0.0022665403)
(-0.0021925931 0 -0.0025975736)
(-0.0020995319 0 -0.0030035717)
(-0.0019970898 0 -0.0034857956)
(-0.0018871533 0 -0.0040382573)
(-0.0017720342 0 -0.004646699)
(-0.0016542873 0 -0.0052887571)
(-0.0015364792 0 -0.0059363206)
(-0.0014209746 0 -0.0065590679)
(-0.0013097456 0 -0.0071288201)
(-0.0012042312 0 -0.0076226029)
(-0.0011053143 0 -0.0080246703)
(-0.0010133036 0 -0.0083262194)
(-0.00092808665 0 -0.0085240283)
(-0.00084910739 0 -0.0086184049)
(-0.00077567395 0 -0.0086105512)
(-0.00070684411 0 -0.0085007021)
(-0.00064164071 0 -0.008286675)
(-0.00057894428 0 -0.0079635293)
(-0.00051736136 0 -0.0075220874)
(-0.00045539143 0 -0.006947899)
(-0.00039146334 0 -0.0062223087)
(-0.00032281578 0 -0.0053121997)
(-0.00024660722 0 -0.004177331)
(-0.0001590299 0 -0.0027584087)
(-5.3020698e-05 0 -0.00094910843)
(-0.0026172468 0 -0.00086251388)
(-0.0026172224 0 -0.00086261946)
(-0.0026171617 0 -0.00086275641)
(-0.0026170498 0 -0.00086295669)
(-0.0026168649 0 -0.00086324833)
(-0.0026165768 0 -0.00086367229)
(-0.002616144 0 -0.00086428649)
(-0.0026155097 0 -0.00086517507)
(-0.0026145969 0 -0.00086645678)
(-0.0026133022 0 -0.00086830206)
(-0.0026114867 0 -0.00087095167)
(-0.0026089663 0 -0.00087474777)
(-0.0026054984 0 -0.00088017189)
(-0.002600766 0 -0.0008879017)
(-0.0025943605 0 -0.00089888643)
(-0.002585761 0 -0.00091444563)
(-0.0025743153 0 -0.00093640776)
(-0.0025592222 0 -0.00096727423)
(-0.0025395238 0 -0.0010104386)
(-0.0025141127 0 -0.0010704205)
(-0.0024817651 0 -0.0011531096)
(-0.0024412109 0 -0.0012659437)
(-0.002391247 0 -0.0014179217)
(-0.0023308926 0 -0.001619294)
(-0.0022595667 0 -0.0018807687)
(-0.0021772549 0 -0.0022120995)
(-0.0020846062 0 -0.0026200985)
(-0.0019829375 0 -0.0031063632)
(-0.0018741245 0 -0.0036652822)
(-0.0017604156 0 -0.0042829769)
(-0.0016442529 0 -0.0049374453)
(-0.00152807 0 -0.0056008002)
(-0.001414107 0 -0.0062426791)
(-0.0013042478 0 -0.0068345108)
(-0.0011998889 0 -0.0073525948)
(-0.0011019043 0 -0.0077802662)
(-0.0010106301 0 -0.0081077657)
(-0.00092598336 0 -0.0083310701)
(-0.00084745819 0 -0.0084498382)
(-0.00077438507 0 -0.0084649122)
(-0.00070585606 0 -0.008376349)
(-0.00064090487 0 -0.008181977)
(-0.00057842544 0 -0.0078768892)
(-0.00051704141 0 -0.0074520117)
(-0.00045525481 0 -0.0068930152)
(-0.00039145892 0 -0.0061809835)
(-0.00032293836 0 -0.0052831345)
(-0.00024679679 0 -0.0041586331)
(-0.00015917003 0 -0.0027476031)
(-5.3074267e-05 0 -0.00094469343)
(-0.0026044738 0 -0.00052175854)
(-0.0026044399 0 -0.00052163129)
(-0.0026043672 0 -0.00052149156)
(-0.0026042404 0 -0.0005213651)
(-0.0026040372 0 -0.00052127203)
(-0.0026037263 0 -0.00052124159)
(-0.002603265 0 -0.00052131987)
(-0.0026025949 0 -0.00052157451)
(-0.0026016375 0 -0.00052210824)
(-0.0026002864 0 -0.00052307073)
(-0.0025984002 0 -0.00052468173)
(-0.0025957911 0 -0.00052725946)
(-0.002592212 0 -0.00053126158)
(-0.0025873409 0 -0.00053734248)
(-0.0025807632 0 -0.00054642935)
(-0.0025719519 0 -0.00055982912)
(-0.0025602479 0 -0.0005793598)
(-0.0025448451 0 -0.00060753814)
(-0.002524783 0 -0.00064779139)
(-0.002498957 0 -0.00070471388)
(-0.0024661556 0 -0.00078431753)
(-0.0024251347 0 -0.00089422237)
(-0.002374735 0 -0.0010436698)
(-0.0023140394 0 -0.0012432015)
(-0.0022425481 0 -0.0015038401)
(-0.0021603346 0 -0.0018356521)
(-0.0020681241 0 -0.0022457496)
(-0.0019672768 0 -0.0027360044)
(-0.0018596568 0 -0.0033011233)
(-0.0017474454 0 -0.0039275632)
(-0.0016329689 0 -0.0045936659)
(-0.001518524 0 -0.0052717982)
(-0.0014062226 0 -0.0059316191)
(-0.0012978544 0 -0.0065442624)
(-0.0011947681 0 -0.007085406)
(-0.0010978252 0 -0.0075375511)
(-0.001007385 0 -0.0078900381)
(-0.0009233943 0 -0.0081380616)
(-0.0008453951 0 -0.0082806311)
(-0.00077274371 0 -0.0083182011)
(-0.00070456637 0 -0.0082506228)
(-0.00063991064 0 -0.0080756995)
(-0.00057768503 0 -0.0077885392)
(-0.00051653095 0 -0.0073801566)
(-0.00045495447 0 -0.0068363298)
(-0.00039131797 0 -0.006137915)
(-0.00032294687 0 -0.0052524281)
(-0.0002468979 0 -0.0041385307)
(-0.00015925461 0 -0.0027358389)
(-5.3108277e-05 0 -0.00094001471)
(-0.0025905958 0 -0.00018839484)
(-0.0025905511 0 -0.0001880478)
(-0.002590465 0 -0.00018764588)
(-0.0025903212 0 -0.00018720517)
(-0.0025900966 0 -0.00018673481)
(-0.0025897589 0 -0.00018625404)
(-0.002589264 0 -0.00018579589)
(-0.002588552 0 -0.00018541537)
(-0.0025875421 0 -0.00018519822)
(-0.0025861258 0 -0.00018527727)
(-0.0025841582 0 -0.00018585185)
(-0.0025814476 0 -0.00018721858)
(-0.0025777424 0 -0.00018981221)
(-0.002572715 0 -0.00019426378)
(-0.0025659443 0 -0.00020148032)
(-0.0025568961 0 -0.00021275055)
(-0.0025449051 0 -0.00022989337)
(-0.0025291591 0 -0.00025543433)
(-0.0025086953 0 -0.000292844)
(-0.002482413 0 -0.00034679598)
(-0.0024491144 0 -0.00042343359)
(-0.0024075843 0 -0.00053056648)
(-0.0023567114 0 -0.00067768146)
(-0.0022956472 0 -0.00087560355)
(-0.002223978 0 -0.0011356472)
(-0.00214187 0 -0.0014681544)
(-0.0020501271 0 -0.0018804814)
(-0.0019501518 0 -0.0023747169)
(-0.0018437949 0 -0.0029458241)
(-0.0017331666 0 -0.0035805518)
(-0.0016204743 0 -0.004257571)
(-0.0015078744 0 -0.0049495225)
(-0.0013973471 0 -0.0056261457)
(-0.001290584 0 -0.0062583714)
(-0.0011888812 0 -0.0068213521)
(-0.0010930842 0 -0.0072968408)
(-0.001003572 0 -0.0076733354)
(-0.00092032037 0 -0.0079452747)
(-0.00084291775 0 -0.0081110214)
(-0.00077074858 0 -0.0081706219)
(-0.00070297348 0 -0.008123693)
(-0.00063865618 0 -0.00796798)
(-0.00057672135 0 -0.0076985899)
(-0.00051582849 0 -0.0073066088)
(-0.00045448914 0 -0.0067779087)
(-0.00039103929 0 -0.0060931503)
(-0.00032284097 0 -0.00522012)
(-0.00024691082 0 -0.0041170555)
(-0.0001592834 0 -0.002723131)
(-5.3123167e-05 0 -0.00093507819)
(-0.0025756428 0 0.00013774236)
(-0.0025755848 0 0.00013831991)
(-0.0025754821 0 0.00013899579)
(-0.002575318 0 0.00013975975)
(-0.0025750685 0 0.00014061071)
(-0.0025746999 0 0.00014154081)
(-0.0025741669 0 0.00014252906)
(-0.0025734077 0 0.00014353584)
(-0.0025723391 0 0.00014449103)
(-0.0025708495 0 0.00014528154)
(-0.0025687908 0 0.00014572785)
(-0.0025659669 0 0.00014555553)
(-0.0025621209 0 0.0001443525)
(-0.0025569194 0 0.00014150958)
(-0.0025499341 0 0.00013614005)
(-0.002540624 0 0.00012696597)
(-0.0025283158 0 0.00011217576)
(-0.0025121921 0 8.9221648e-05)
(-0.0024912879 0 5.4588894e-05)
(-0.0024645073 0 3.5141398e-06)
(-0.0024306684 0 -7.0287121e-05)
(-0.0023885878 0 -0.00017482127)
(-0.0023372063 0 -0.00031982371)
(-0.002275749 0 -0.00051639376)
(-0.0022038937 0 -0.00077611285)
(-0.0021219026 0 -0.0011095606)
(-0.0020306606 0 -0.001524281)
(-0.001931611 0 -0.002022521)
(-0.001826588 0 -0.0025994428)
(-0.0017176268 0 -0.0032420466)
(-0.0016068125 0 -0.0039293135)
(-0.0014961584 0 -0.00463418)
(-0.0013875104 0 -0.0053265146)
(-0.0012824594 0 -0.0059771294)
(-0.0011822445 0 -0.0065607453)
(-0.001087692 0 -0.0070584503)
(-0.00099919759 0 -0.0074579604)
(-0.00091676532 0 -0.0077529876)
(-0.000840028 0 -0.0079412558)
(-0.00076840034 0 -0.0080223855)
(-0.00070107736 0 -0.0079957362)
(-0.00063714119 0 -0.0078589649)
(-0.00057553381 0 -0.0076071585)
(-0.00051493345 0 -0.0072314612)
(-0.00045385841 0 -0.0067178257)
(-0.00039062235 0 -0.0060467447)
(-0.00032262016 0 -0.0051862486)
(-0.00024683473 0 -0.0040942285)
(-0.00015925635 0 -0.0027094954)
(-5.3118498e-05 0 -0.00092987817)
(-0.0025596499 0 0.00045679187)
(-0.0025595774 0 0.00045758921)
(-0.0025594566 0 0.00045852723)
(-0.00255927 0 0.00045960492)
(-0.0025589923 0 0.00046083145)
(-0.0025585889 0 0.00046220887)
(-0.0025580127 0 0.00046372871)
(-0.0025571998 0 0.00046536399)
(-0.0025560647 0 0.00046706076)
(-0.0025544927 0 0.00046872235)
(-0.0025523319 0 0.00047018897)
(-0.0025493815 0 0.00047120683)
(-0.0025453791 0 0.00047138568)
(-0.0025399846 0 0.00047013818)
(-0.0025327627 0 0.00046659572)
(-0.0025231638 0 0.00045949535)
(-0.0025105076 0 0.00044702091)
(-0.0024939706 0 0.00042660889)
(-0.0024725864 0 0.00039468713)
(-0.002445265 0 0.00034639387)
(-0.0024108428 0 0.00027529313)
(-0.0023681713 0 0.00017317296)
(-0.0023162481 0 3.0045285e-05)
(-0.0022543765 0 -0.00016545254)
(-0.0021823306 0 -0.00042514213)
(-0.0021004729 0 -0.00075980017)
(-0.0020097695 0 -0.0011771051)
(-0.0019117024 0 -0.0016794037)
(-0.0018080852 0 -0.0022620008)
(-0.001700874 0 -0.0029121079)
(-0.0015920276 0 -0.0036090017)
(-0.0014834142 0 -0.0043259276)
(-0.0013767437 0 -0.00503293)
(-0.0012735042 0 -0.0057007806)
(-0.0011748748 0 -0.0063038552)
(-0.00108166 0 -0.006822658)
(-0.00099426888 0 -0.0072441843)
(-0.00091273289 0 -0.0075614529)
(-0.00083672764 0 -0.0077715602)
(-0.00076569941 0 -0.007873689)
(-0.00069887769 0 -0.0078669193)
(-0.00063536479 0 -0.0077487914)
(-0.00057412136 0 -0.0075143567)
(-0.00051384475 0 -0.007154802)
(-0.00045306129 0 -0.0066561486)
(-0.00039006615 0 -0.005998747)
(-0.00032228416 0 -0.0051508552)
(-0.00024666985 0 -0.0040700821)
(-0.00015917328 0 -0.0026949483)
(-5.3094578e-05 0 -0.00092441991)
(-0.0025426516 0 0.00076891228)
(-0.0025425617 0 0.00076993908)
(-0.0025424195 0 0.0007711489)
(-0.0025422067 0 0.00077254755)
(-0.0025418971 0 0.0007741518)
(-0.0025414545 0 0.000775975)
(-0.00254083 0 0.0007780204)
(-0.0025399575 0 0.00078027633)
(-0.0025387486 0 0.00078270416)
(-0.0025370854 0 0.00078522602)
(-0.0025348117 0 0.00078770144)
(-0.0025317216 0 0.00078989806)
(-0.0025275468 0 0.00079144682)
(-0.0025219401 0 0.00079178085)
(-0.002514458 0 0.0007900501)
(-0.002504543 0 0.00078499993)
(-0.0024915064 0 0.00077481634)
(-0.0024745193 0 0.00075690433)
(-0.0024526147 0 0.00072762971)
(-0.0024247102 0 0.0006820167)
(-0.0023896625 0 0.00061346762)
(-0.0023463614 0 0.0005135587)
(-0.0022938662 0 0.00037204354)
(-0.0022315633 0 0.00017731085)
(-0.0021593273 0 -8.2670197e-05)
(-0.0020776245 0 -0.00041883501)
(-0.0019875026 0 -0.00083893965)
(-0.0018904783 0 -0.0013453747)
(-0.0017883403 0 -0.0019335349)
(-0.0016829601 0 -0.0025908069)
(-0.0015761676 0 -0.0032967459)
(-0.0014696838 0 -0.0040249227)
(-0.0013650818 0 -0.0047455945)
(-0.0012637459 0 -0.0054295652)
(-0.0011667927 0 -0.0060509478)
(-0.0010750027 0 -0.0065897406)
(-0.00098879565 0 -0.0070322796)
(-0.00090822954 0 -0.0073709274)
(-0.00083302066 0 -0.0076021673)
(-0.00076264811 0 -0.0077247355)
(-0.00069637573 0 -0.0077374154)
(-0.0006333276 0 -0.0076376047)
(-0.00057248409 0 -0.0074203025)
(-0.00051256231 0 -0.0070767255)
(-0.00045209765 0 -0.0065929528)
(-0.00038937034 0 -0.0059492145)
(-0.00032183243 0 -0.0051139781)
(-0.0002464154 0 -0.0040446384)
(-0.00015903393 0 -0.0026795044)
(-5.3051255e-05 0 -0.00091870126)
(-0.0025246795 0 0.0010742363)
(-0.0025245711 0 0.0010754809)
(-0.0025244059 0 0.0010769503)
(-0.0025241647 0 0.0010786597)
(-0.0025238197 0 0.0010806364)
(-0.0025233334 0 0.0010829033)
(-0.0025226549 0 0.001085476)
(-0.0025217158 0 0.0010883555)
(-0.0025204247 0 0.0010915191)
(-0.0025186602 0 0.0010949047)
(-0.0025162615 0 0.0010983912)
(-0.0025130175 0 0.0011017657)
(-0.0025086532 0 0.0011046805)
(-0.0025028137 0 0.0011065892)
(-0.0024950474 0 0.0011066584)
(-0.0024847871 0 0.0011036464)
(-0.0024713366 0 0.0010957297)
(-0.0024538612 0 0.0010802859)
(-0.002431395 0 0.0010535962)
(-0.0024028652 0 0.0010105569)
(-0.0023671506 0 0.00094439925)
(-0.0023231832 0 0.00084648403)
(-0.002270089 0 0.00070629695)
(-0.0022073419 0 0.00051199946)
(-0.0021349216 0 0.00025138415)
(-0.002053401 0 -8.6602786e-05)
(-0.0019639082 0 -0.00050974223)
(-0.0018679906 0 -0.0010204116)
(-0.0017674063 0 -0.0016140455)
(-0.0016639372 0 -0.0022781729)
(-0.0015592806 0 -0.0029926137)
(-0.0014550097 0 -0.0037312748)
(-0.00135256 0 -0.0044646614)
(-0.0012532123 0 -0.0051636767)
(-0.0011580191 0 -0.0058022458)
(-0.0010677351 0 -0.0063599364)
(-0.00098278817 0 -0.0068224863)
(-0.00090326165 0 -0.0071816407)
(-0.00082891096 0 -0.0074332875)
(-0.00075924851 0 -0.0075757123)
(-0.00069357241 0 -0.0076073858)
(-0.00063102969 0 -0.0075255397)
(-0.00057062164 0 -0.0073251072)
(-0.00051108551 0 -0.0069973209)
(-0.00045096681 0 -0.0065283074)
(-0.00038853411 0 -0.0058981978)
(-0.00032126484 0 -0.0050756607)
(-0.00024607164 0 -0.004017931)
(-0.00015883821 0 -0.0026631812)
(-5.2988721e-05 0 -0.00091272699)
(-0.0025057601 0 0.0013729151)
(-0.0025056301 0 0.0013743875)
(-0.0025054386 0 0.0013761272)
(-0.0025051652 0 0.0013781557)
(-0.0025047811 0 0.0013805078)
(-0.0025042467 0 0.001383218)
(-0.0025035093 0 0.0013863133)
(-0.0025024976 0 0.0013898093)
(-0.0025011173 0 0.0013936991)
(-0.0024992425 0 0.0013979389)
(-0.0024967077 0 0.0014024265)
(-0.0024932959 0 0.00140697)
(-0.002488725 0 0.0014112424)
(-0.002482632 0 0.0014147175)
(-0.0024745559 0 0.0014165796)
(-0.0024639203 0 0.0014155944)
(-0.0024500201 0 0.0014099367)
(-0.0024320168 0 0.0013969398)
(-0.002408948 0 0.001372773)
(-0.0023797519 0 0.001332186)
(-0.0023433309 0 0.0012682395)
(-0.0022986626 0 0.0011720808)
(-0.0022449471 0 0.0010329079)
(-0.0021817477 0 0.00083868766)
(-0.0021091546 0 0.00057707426)
(-0.0020278497 0 0.00023692897)
(-0.0019390394 0 -0.00018949551)
(-0.0018442959 0 -0.00070451128)
(-0.0017453411 0 -0.0013035473)
(-0.0016438616 0 -0.0019742449)
(-0.0015414189 0 -0.0026966748)
(-0.0014394379 0 -0.0034450937)
(-0.0013392171 0 -0.0041902823)
(-0.0012419349 0 -0.0049033045)
(-0.0011485784 0 -0.0055579684)
(-0.0010598752 0 -0.006133482)
(-0.00097625923 0 -0.0066150446)
(-0.00089783822 0 -0.0069938252)
(-0.00082440462 0 -0.0072651364)
(-0.00075550459 0 -0.0074268117)
(-0.00069047026 0 -0.0074769978)
(-0.00062847264 0 -0.0074127387)
(-0.00056853482 0 -0.0072288881)
(-0.00050941474 0 -0.0069166831)
(-0.00044966895 0 -0.0064622892)
(-0.00038755737 0 -0.0058457561)
(-0.00032058087 0 -0.0050359426)
(-0.00024563785 0 -0.003989984)
(-0.00015858574 0 -0.0026459928)
(-5.2906984e-05 0 -0.00090649749)
(-0.0024859266 0 0.0016650763)
(-0.0024857738 0 0.0016667673)
(-0.002485554 0 0.0016687677)
(-0.0024852458 0 0.0016711078)
(-0.0024848188 0 0.0016738327)
(-0.0024842316 0 0.0016769857)
(-0.0024834292 0 0.0016806065)
(-0.0024823377 0 0.0016847231)
(-0.002480859 0 0.0016893437)
(-0.0024788633 0 0.0016944413)
(-0.0024761797 0 0.0016999323)
(-0.0024725849 0 0.0017056447)
(-0.002467789 0 0.0017112733)
(-0.0024614203 0 0.0017163126)
(-0.0024530074 0 0.0017199651)
(-0.002441964 0 0.0017210091)
(-0.0024275764 0 0.0017176126)
(-0.0024090026 0 0.0017070698)
(-0.0023852916 0 0.0016853545)
(-0.0023553903 0 0.0016470747)
(-0.0023182252 0 0.0015851376)
(-0.002272824 0 0.0014904853)
(-0.0022184692 0 0.0013519821)
(-0.0021548151 0 0.001157458)
(-0.0020820663 0 0.0008944655)
(-0.0020010173 0 0.00055181291)
(-0.0019129482 0 0.00012184046)
(-0.0018194499 0 -0.00039764382)
(-0.0017222015 0 -0.0010020226)
(-0.0016227884 0 -0.0016790243)
(-0.0015226337 0 -0.0024089599)
(-0.001423014 0 -0.0031664463)
(-0.0013250917 0 -0.0039225632)
(-0.0012299448 0 -0.0046485945)
(-0.0011384946 0 -0.0053182934)
(-0.0010514409 0 -0.0059105759)
(-0.00096922177 0 -0.0064101613)
(-0.00089196795 0 -0.0068076851)
(-0.0008195074 0 -0.0070979063)
(-0.00075141994 0 -0.0072782087)
(-0.00068707139 0 -0.0073464051)
(-0.00062565741 0 -0.0072993328)
(-0.00056622392 0 -0.0071317548)
(-0.00050754986 0 -0.0068349015)
(-0.0004482037 0 -0.0063949681)
(-0.0003864395 0 -0.0057919415)
(-0.00031978052 0 -0.0049948686)
(-0.00024511429 0 -0.0039608319)
(-0.00015827651 0 -0.002627959)
(-5.2806104e-05 0 -0.00090001653)
(-0.002465206 0 0.0019508644)
(-0.0024650272 0 0.0019527822)
(-0.0024647758 0 0.0019550519)
(-0.002464429 0 0.0019577097)
(-0.0024639549 0 0.0019608088)
(-0.0024633102 0 0.0019644035)
(-0.0024624374 0 0.001968545)
(-0.0024612595 0 0.0019732758)
(-0.0024596746 0 0.0019786197)
(-0.0024575481 0 0.0019845677)
(-0.0024547035 0 0.0019910554)
(-0.0024509102 0 0.0019979321)
(-0.0024458705 0 0.0020049138)
(-0.0024392023 0 0.0020115172)
(-0.0024304241 0 0.0020169636)
(-0.0024189379 0 0.0020200464)
(-0.0024040209 0 0.0020189376)
(-0.0023848293 0 0.0020109247)
(-0.0023604421 0 0.0019915446)
(-0.0023298005 0 0.001955381)
(-0.0022918558 0 0.0018952213)
(-0.0022456921 0 0.0018018171)
(-0.0021906874 0 0.0016635958)
(-0.0021265816 0 0.001468362)
(-0.0020537007 0 0.0012035962)
(-0.0019729545 0 0.00085807344)
(-0.0018856911 0 0.0004242837)
(-0.0017935126 0 -9.9795798e-05)
(-0.0016980484 0 -0.0007094661)
(-0.0016007769 0 -0.0013925215)
(-0.0015029799 0 -0.0021295022)
(-0.0014057867 0 -0.0028953996)
(-0.0013102252 0 -0.0036616089)
(-0.0012172762 0 -0.0043996882)
(-0.0011277948 0 -0.0050833945)
(-0.0010424529 0 -0.0056914141)
(-0.00096169101 0 -0.0062080426)
(-0.00088566199 0 -0.006623426)
(-0.00081422719 0 -0.0069317926)
(-0.00074700003 0 -0.0071300819)
(-0.00068337952 0 -0.0072157661)
(-0.00062258649 0 -0.0071854591)
(-0.00056369044 0 -0.0070338224)
(-0.00050549175 0 -0.0067520703)
(-0.00044657155 0 -0.0063264214)
(-0.00038518064 0 -0.0057368146)
(-0.00031886331 0 -0.0049524791)
(-0.00024450029 0 -0.0039305003)
(-0.00015791005 0 -0.0026090936)
(-5.2686164e-05 0 -0.00089328612)
(-0.002443626 0 0.0022304024)
(-0.0024434198 0 0.0022325403)
(-0.0024431347 0 0.0022350713)
(-0.0024427467 0 0.0022380407)
(-0.002442222 0 0.0022415106)
(-0.0024415152 0 0.0022455459)
(-0.0024405661 0 0.0022502094)
(-0.0024392943 0 0.0022555572)
(-0.002437594 0 0.0022616278)
(-0.0024353256 0 0.0022684296)
(-0.0024323062 0 0.0022759171)
(-0.002428298 0 0.0022839604)
(-0.0024229936 0 0.0022922985)
(-0.002416001 0 0.0023004703)
(-0.0024068262 0 0.0023077207)
(-0.0023948593 0 0.0023128565)
(-0.0023793676 0 0.0023140372)
(-0.0023595669 0 0.002307968)
(-0.0023344934 0 0.0022906009)
(-0.0023030803 0 0.0022563215)
(-0.0022643183 0 0.0021977412)
(-0.0022173585 0 0.0021054285)
(-0.0021616323 0 0.0019678289)
(-0.0020970841 0 0.0017714582)
(-0.0020241009 0 0.0015045188)
(-0.0019437121 0 0.0011557555)
(-0.0018573242 0 0.00071787484)
(-0.0017665434 0 0.00018907321)
(-0.0016729418 0 -0.00042584078)
(-0.0015778849 0 -0.0011147101)
(-0.0014825109 0 -0.0018582973)
(-0.0013878038 0 -0.0026319794)
(-0.0012946585 0 -0.0034074804)
(-0.0012039624 0 -0.0041566854)
(-0.0011165056 0 -0.0048534052)
(-0.0010329314 0 -0.0054761552)
(-0.00095368207 0 -0.0060088612)
(-0.00087893103 0 -0.0064412245)
(-0.00080857145 0 -0.0067669672)
(-0.00074224984 0 -0.0069825916)
(-0.00067939785 0 -0.0070852252)
(-0.0006192617 0 -0.0070712428)
(-0.00056093531 0 -0.0069351974)
(-0.00050324071 0 -0.0066682779)
(-0.00044477242 0 -0.0062567195)
(-0.00038378035 0 -0.0056804288)
(-0.00031782937 0 -0.0049088209)
(-0.00024379617 0 -0.0038990251)
(-0.00015748641 0 -0.0025894175)
(-5.2547187e-05 0 -0.00088631047)
(-0.0024212186 0 0.0025038248)
(-0.0024209824 0 0.0025061847)
(-0.0024206604 0 0.0025089792)
(-0.0024202274 0 0.0025122613)
(-0.0024196476 0 0.0025161023)
(-0.0024188733 0 0.002520577)
(-0.0024178413 0 0.0025257606)
(-0.002416468 0 0.0025317222)
(-0.0024146428 0 0.0025385167)
(-0.0024122209 0 0.0025461693)
(-0.0024090125 0 0.0025546544)
(-0.0024047717 0 0.0025638636)
(-0.0023991813 0 0.0025735594)
(-0.0023918371 0 0.0025833071)
(-0.0023822324 0 0.002592376)
(-0.0023697453 0 0.0025995818)
(-0.0023537092 0 0.0026025311)
(-0.0023332997 0 0.0025980856)
(-0.0023074905 0 0.0025824647)
(-0.0022752607 0 0.0025498709)
(-0.0022356381 0 0.0024926795)
(-0.0021878359 0 0.0024012058)
(-0.0021313765 0 0.0022640216)
(-0.0020663623 0 0.0020667748)
(-0.0019933138 0 0.0017972572)
(-0.0019133446 0 0.0014448745)
(-0.0018279077 0 0.0010026316)
(-0.0017386054 0 0.00046898602)
(-0.0016469453 0 -0.00015112314)
(-0.0015541736 0 -0.0008455745)
(-0.0014612835 0 -0.0015953451)
(-0.0013691155 0 -0.0023762147)
(-0.0012784346 0 -0.0031602399)
(-0.0011900396 0 -0.003919684)
(-0.0011046559 0 -0.0046284564)
(-0.0010228993 0 -0.0052649559)
(-0.00094521217 0 -0.0058127893)
(-0.00087178796 0 -0.0062612588)
(-0.00080254961 0 -0.0066036041)
(-0.00073717614 0 -0.0068359011)
(-0.00067513115 0 -0.0069549305)
(-0.00061568635 0 -0.0069568146)
(-0.00055796066 0 -0.0068359917)
(-0.00050079809 0 -0.0065836177)
(-0.00044280715 0 -0.0061859399)
(-0.00038223903 0 -0.005622846)
(-0.00031667832 0 -0.0048639357)
(-0.00024300132 0 -0.0038664338)
(-0.00015700513 0 -0.0025689459)
(-5.2389224e-05 0 -0.00087909167)
(-0.002398006 0 0.0027712562)
(-0.0023977374 0 0.0027738374)
(-0.0023973758 0 0.0027768951)
(-0.0023968942 0 0.0027804896)
(-0.002396255 0 0.0027847011)
(-0.0023954081 0 0.0027896148)
(-0.002394287 0 0.0027953175)
(-0.0023928043 0 0.0028018919)
(-0.0023908448 0 0.0028094085)
(-0.0023882575 0 0.00281791)
(-0.0023848458 0 0.0028273905)
(-0.0023803543 0 0.0028377641)
(-0.0023744551 0 0.0028488188)
(-0.0023667306 0 0.0028601518)
(-0.0023566602 0 0.0028710589)
(-0.0023436804 0 0.0028799115)
(-0.0023270945 0 0.0028843923)
(-0.0023059914 0 0.0028817869)
(-0.0022793947 0 0.0028679034)
(-0.0022462996 0 0.0028368684)
(-0.0022057757 0 0.002780862)
(-0.0021571115 0 0.0026899157)
(-0.002099953 0 0.0025522587)
(-0.0020344298 0 0.0023543694)
(-0.0019613861 0 0.0020818533)
(-0.0018819071 0 0.0017254688)
(-0.0017975016 0 0.0012785969)
(-0.001709761 0 0.00073999476)
(-0.001620121 0 0.00011474381)
(-0.0015297026 0 -0.00058506226)
(-0.0014393522 0 -0.0013406086)
(-0.0013497708 0 -0.0021280947)
(-0.0012615954 0 -0.0029199077)
(-0.0011755425 0 -0.0036887415)
(-0.0010922738 0 -0.0044086401)
(-0.0010123784 0 -0.0050579361)
(-0.00093629803 0 -0.0056199661)
(-0.00086424508 0 -0.0060836777)
(-0.00079617054 0 -0.0064418536)
(-0.00073178511 0 -0.0066901547)
(-0.00067058364 0 -0.0068250153)
(-0.00061186306 0 -0.0068422928)
(-0.00055476803 0 -0.0067363078)
(-0.00049816465 0 -0.0064981763)
(-0.00044067596 0 -0.006114153)
(-0.00038055645 0 -0.0055641208)
(-0.00031541042 0 -0.0048178718)
(-0.00024211606 0 -0.003832763)
(-0.00015646625 0 -0.0025477004)
(-5.2212276e-05 0 -0.00087163453)
(-0.0023740125 0 0.0030328197)
(-0.002373709 0 0.0030356226)
(-0.0023733047 0 0.0030389433)
(-0.0023727711 0 0.0030428501)
(-0.0023720681 0 0.0030474317)
(-0.0023711432 0 0.0030527834)
(-0.0023699266 0 0.0030590039)
(-0.0023683266 0 0.0030661895)
(-0.002366223 0 0.0030744256)
(-0.0023634586 0 0.0030837721)
(-0.0023598286 0 0.0030942429)
(-0.0023550681 0 0.0031057742)
(-0.0023488367 0 0.003118181)
(-0.0023407017 0 0.0031311034)
(-0.002330184 0 0.0031435488)
(-0.0023167079 0 0.0031538425)
(-0.0022994923 0 0.0031600795)
(-0.0022776531 0 0.0031592466)
(-0.0022502212 0 0.0031470274)
(-0.002216214 0 0.0031174185)
(-0.0021747509 0 0.0030623934)
(-0.0021252078 0 0.0029716559)
(-0.0020673389 0 0.0028331503)
(-0.0020013984 0 0.0026336576)
(-0.0019283703 0 0.0023583291)
(-0.0018494587 0 0.0019975517)
(-0.00176617 0 0.0015457959)
(-0.0016800763 0 0.001002139)
(-0.0015925344 0 0.00037180654)
(-0.0015045342 0 -0.00033312867)
(-0.0014167744 0 -0.0010940537)
(-0.0013298206 0 -0.0018876104)
(-0.0012441848 0 -0.0026865043)
(-0.0011605082 0 -0.0034639133)
(-0.0010793897 0 -0.0041940453)
(-0.0010013929 0 -0.0048552139)
(-0.00092695832 0 -0.0054305293)
(-0.00085631672 0 -0.0059086303)
(-0.00078944493 0 -0.0062818667)
(-0.00072608466 0 -0.0065454984)
(-0.00066576104 0 -0.0066956156)
(-0.00060779588 0 -0.0067278002)
(-0.00055136017 0 -0.006636253)
(-0.00049534218 0 -0.006412045)
(-0.00043838001 0 -0.006041436)
(-0.00037873324 0 -0.0055043162)
(-0.00031402537 0 -0.0047706719)
(-0.00024113989 0 -0.0037980424)
(-0.00015586933 0 -0.0025256973)
(-5.2016387e-05 0 -0.00086394175)
(-0.0023492625 0 0.0032886357)
(-0.0023489217 0 0.0032916597)
(-0.0023484717 0 0.0032952429)
(-0.0023478822 0 0.0032994611)
(-0.0023471111 0 0.0033044119)
(-0.0023461027 0 0.0033102004)
(-0.0023447839 0 0.0033169369)
(-0.0023430586 0 0.0033247307)
(-0.0023408011 0 0.0033336821)
(-0.0023378474 0 0.0033438671)
(-0.0023339846 0 0.0033553165)
(-0.0023289374 0 0.0033679832)
(-0.0023223533 0 0.0033816931)
(-0.0023138071 0 0.0033960781)
(-0.002302838 0 0.0034098915)
(-0.0022887999 0 0.0034218106)
(-0.0022709158 0 0.0034297462)
(-0.0022482975 0 0.0034306041)
(-0.0022199833 0 0.0034199537)
(-0.0021850181 0 0.0033916315)
(-0.00214258 0 0.0033373898)
(-0.0020921481 0 0.0032465279)
(-0.0020335855 0 0.0031067818)
(-0.0019673154 0 0.0029046738)
(-0.0018942967 0 0.002626704)
(-0.0018160589 0 0.0022611529)
(-0.0017339759 0 0.001804275)
(-0.0016496157 0 0.0012554831)
(-0.001564249 0 0.00062014101)
(-0.0014787284 0 -8.9697372e-05)
(-0.0013936047 0 -0.00085561387)
(-0.0013093135 0 -0.0016547183)
(-0.0012262446 0 -0.0024600132)
(-0.0011449718 0 -0.0032452184)
(-0.0010660322 0 -0.003984726)
(-0.00098996552 0 -0.0046568733)
(-0.00091721085 0 -0.0052445849)
(-0.00084801626 0 -0.0057362376)
(-0.00078238275 0 -0.0061237711)
(-0.00072008193 0 -0.0064020592)
(-0.00066066838 0 -0.0065668524)
(-0.00060348813 0 -0.0066134466)
(-0.00054773916 0 -0.0065359247)
(-0.00049233187 0 -0.006325308)
(-0.00043591982 0 -0.0059678588)
(-0.00037676937 0 -0.0054434874)
(-0.00031252361 0 -0.0047223865)
(-0.0002400732 0 -0.0037623106)
(-0.00015521443 0 -0.0025029595)
(-5.1801542e-05 0 -0.00085601862)
(-0.0023237789 0 0.003538822)
(-0.0023233981 0 0.0035420672)
(-0.0023228994 0 0.0035459131)
(-0.0023222504 0 0.0035504425)
(-0.0023214065 0 0.0035557619)
(-0.0023203092 0 0.0035619864)
(-0.0023188814 0 0.0035692376)
(-0.0023170225 0 0.003577638)
(-0.0023146008 0 0.0035873024)
(-0.0023114454 0 0.0035983234)
(-0.0023073341 0 0.0036107503)
(-0.0023019811 0 0.003624558)
(-0.0022950213 0 0.0036396054)
(-0.0022860624 0 0.0036552293)
(-0.0022746027 0 0.0036704856)
(-0.0022599701 0 0.0036839661)
(-0.0022413789 0 0.0036935232)
(-0.0022179368 0 0.0036959862)