/*--------------------------------*- C++ -*----------------------------------*\
  =========                 |
  \\      /  F ield         | OpenFOAM: The Open Source CFD Toolbox
   \\    /   O peration     | Website:  https://openfoam.org
    \\  /    A nd           | Version:  8
     \\/     M anipulation  |
\*---------------------------------------------------------------------------*/
FoamFile
{
    version     2.0;
    format      ascii;
    class       volScalarField;
    location    "0.0399893";
    object      Ma;
}
// * * * * * * * * * * * * * * * * * * * * * * * * * * * * * * * * * * * * * //

dimensions      [0 0 0 0 0 0 0];

internalField   nonuniform List<scalar> 
20000
(
0.58271403
0.68329322
0.74964773
0.80779634
0.86234622
0.91298394
0.9275708
0.93086256
0.92748624
0.92825334
0.92579218
0.92530169
0.92295165
0.92137692
0.91869446
0.91605586
0.91261376
0.90877933
0.90419566
0.89886464
0.89256602
0.8852756
0.8769957
0.86774918
0.85760516
0.84662795
0.83506326
0.82323922
0.81157986
0.80049337
0.79035987
0.78145456
0.77390671
0.76771619
0.76280506
0.75936482
0.75731603
0.75570384
0.75400197
0.75300569
0.75261082
0.75374741
0.75606116
0.75677277
0.75534574
0.75381752
0.75346225
0.75359585
0.75379688
0.75388546
0.58542474
0.68644432
0.7535302
0.81225554
0.8671278
0.91719279
0.92924684
0.93245261
0.92901171
0.92979708
0.92728226
0.92676941
0.92437162
0.92274426
0.92001059
0.91730266
0.91378716
0.90982257
0.90503429
0.8993854
0.89281539
0.88535014
0.87695104
0.86753385
0.85716262
0.84595342
0.83418541
0.8222152
0.81048297
0.79940727
0.7893583
0.78059423
0.77321415
0.7671681
0.76238426
0.75917901
0.7572175
0.75545855
0.753817
0.752985
0.75261855
0.7544571
0.75617368
0.75645904
0.75488075
0.7538207
0.75349001
0.75359764
0.75379113
0.75388321
0.58914994
0.6910215
0.75858434
0.81769462
0.87282921
0.92156327
0.93079499
0.9338926
0.93035432
0.93113645
0.92855242
0.92799852
0.92556254
0.92387641
0.92108716
0.91828653
0.91464619
0.91048189
0.90547139
0.89963635
0.89291654
0.88528035
0.87668428
0.86701605
0.85638513
0.84493434
0.83296363
0.82085758
0.80907368
0.79803669
0.7881049
0.77951741
0.77233469
0.76645368
0.76187573
0.75888861
0.75705466
0.75515113
0.75363265
0.75294133
0.7527673
0.7548747
0.7561676
0.75635322
0.75469918
0.75378376
0.75349866
0.75359342
0.75378895
0.75388173
0.5923483
0.6949133
0.76298374
0.82250561
0.87797281
0.92515636
0.93191278
0.93498316
0.93135783
0.93217103
0.92951768
0.9288988
0.92648367
0.92472916
0.9218519
0.91890861
0.91510781
0.91075451
0.90559351
0.89963861
0.89279724
0.88498217
0.87612597
0.86619732
0.85530076
0.8436064
0.83144138
0.81921774
0.80740977
0.79644435
0.78666533
0.77829038
0.77133464
0.76563747
0.76131966
0.75854933
0.75683533
0.75484175
0.75345008
0.75284509
0.75305708
0.75521925
0.75614931
0.75610823
0.75453625
0.7537476
0.7535018
0.75358864
0.75378573
0.75388022
0.59546631
0.69875001
0.76731659
0.82722312
0.88302521
0.92834556
0.93278286
0.93584605
0.93209872
0.93291497
0.93023867
0.92962121
0.92708752
0.9252368
0.92224964
0.91916235
0.91524607
0.91079167
0.9055394
0.89945507
0.89244129
0.88437551
0.87525762
0.86505127
0.85388195
0.84194463
0.82959559
0.81727545
0.80547392
0.79461551
0.78502689
0.77690151
0.77020203
0.76471206
0.76070054
0.75814814
0.75654328
0.75453516
0.75327185
0.75274682
0.75352351
0.75545353
0.75612478
0.75589553
0.75441388
0.75370335
0.75348822
0.75358296
0.75378271
0.75387894
0.59841209
0.70239047
0.77144337
0.83169945
0.88783001
0.93107267
0.93336376
0.93643178
0.93267509
0.93344049
0.93073876
0.93004672
0.92737185
0.92542506
0.92236346
0.91919392
0.91520882
0.91065081
0.90527783
0.89900407
0.89177056
0.88345794
0.87406388
0.86357261
0.85212687
0.83995018
0.82743128
0.81503974
0.80327832
0.7925646
0.78320561
0.77536666
0.7689487
0.76369442
0.76002102
0.75769756
0.75617596
0.75423629
0.75310856
0.75267098
0.75391417
0.7556432
0.75612603
0.75564025
0.75428623
0.75365376
0.75346428
0.75357696
0.75377946
0.75387777
0.60120625
0.70586157
0.77540411
0.83598667
0.89239954
0.93333879
0.93371713
0.93685363
0.93298936
0.93380697
0.93093852
0.93020206
0.92743397
0.92542394
0.92231181
0.91905475
0.91498136
0.91027507
0.90472977
0.89825529
0.89079275
0.88221473
0.87253599
0.86175104
0.85002651
0.8376171
0.82494627
0.81251239
0.80082785
0.79029865
0.78121049
0.77369437
0.76757461
0.76259694
0.75928126
0.75720091
0.75573754
0.75393679
0.75295923
0.75259881
0.75426188
0.75578029
0.75615075
0.75540887
0.75416553
0.75359959
0.75343329
0.7535708
0.7537762
0.75387674
0.6038012
0.70914835
0.77919356
0.84008559
0.89669171
0.93508663
0.93372293
0.93686271
0.93299915
0.93370066
0.93089346
0.93014559
0.92733521
0.92524885
0.92206804
0.91868863
0.91448792
0.90961774
0.90389499
0.89720209
0.88949425
0.88064106
0.8706662
0.85958106
0.84757761
0.83494541
0.82214467
0.80970145
0.79813323
0.78783034
0.77905613
0.77189784
0.7660821
0.76143856
0.75848996
0.75666196
0.75524024
0.7536242
0.75281604
0.75253501
0.75452267
0.75587709
0.75615205
0.75518764
0.7540507
0.75354271
0.7533962
0.75356461
0.75377309
0.75387585
0.60631369
0.71235432
0.78290885
0.84410428
0.90075223
0.93643119
0.93362345
0.93681482
0.93281738
0.93358403
0.93065449
0.9297735
0.92702296
0.92483388
0.92156177
0.91805249
0.9137222
0.9086778
0.90276215
0.89583881
0.88787245
0.87873026
0.86844899
0.85705782
0.84477768
0.83193626
0.81903194
0.80661612
0.79520619
0.78517345
0.77675765
0.76998868
0.76447891
0.76023438
0.75765587
0.75608373
0.75470024
0.75328773
0.75265536
0.75248562
0.75470794
0.75593577
0.75611953
0.75499004
0.75394315
0.75348423
0.75335407
0.75355847
0.7537703
0.75387509
0.60875899
0.71547379
0.78654598
0.8480423
0.90450356
0.93736637
0.93330285
0.93653643
0.93248008
0.93321288
0.93021102
0.92928716
0.92644729
0.92415901
0.92079775
0.91715039
0.91267893
0.9074494
0.9013288
0.89416082
0.88592122
0.8764777
0.86587985
0.85417858
0.84162676
0.82859367
0.81561645
0.8032683
0.79206107
0.78234488
0.77433162
0.76797546
0.76278604
0.75899341
0.75678617
0.75547061
0.75413988
0.75292595
0.75244351
0.75250114
0.75483115
0.75595695
0.7560711
0.7548025
0.75383871
0.75342495
0.75330889
0.75355251
0.75376782
0.75387444
0.61106751
0.71843421
0.79003385
0.85185901
0.90785283
0.93786197
0.93276747
0.93600963
0.93190156
0.93258399
0.92953656
0.92852708
0.92563143
0.92323438
0.91977514
0.91597987
0.91135667
0.90592988
0.89959002
0.89216383
0.8836368
0.87387939
0.8629559
0.8509423
0.83812704
0.82492413
0.81190902
0.79967208
0.78871468
0.77936413
0.77179451
0.76586065
0.76103121
0.75772312
0.75588599
0.75482555
0.75357886
0.75254985
0.75217052
0.75267701
0.7549284
0.75594421
0.75600452
0.75461688
0.75373157
0.75336568
0.75326548
0.75354723
0.75376572
0.75387387
0.61324369
0.72124926
0.79338204
0.85559447
0.91076936
0.93791102
0.93201618
0.93526027
0.93109198
0.9317359
0.92863204
0.92754283
0.92457563
0.92205919
0.91849317
0.91453882
0.90975148
0.90411509
0.89754215
0.88984391
0.88101532
0.87093222
0.85967524
0.84734941
0.83428266
0.82093629
0.80792253
0.79584363
0.7851865
0.77625289
0.76916152
0.76364435
0.75924167
0.75643368
0.75495897
0.75414979
0.75302612
0.75217965
0.75187999
0.75292019
0.75503365
0.75590432
0.75589158
0.75442737
0.75361535
0.75330663
0.75322701
0.75354325
0.753764
0.75387335
0.61528168
0.72390854
0.79658861
0.85927957
0.91321386
0.93753274
0.93104711
0.93428815
0.93005903
0.93064564
0.92749838
0.92631683
0.92327534
0.920629
0.91694669
0.91282266
0.90785962
0.90200176
0.89518192
0.88719816
0.87805425
0.86763424
0.85603744
0.84340227
0.83010003
0.81664124
0.80367227
0.7918019
0.78149917
0.77303343
0.76644474
0.761337
0.75743852
0.75513464
0.7540088
0.75344518
0.752481
0.75183712
0.75165665
0.75321255
0.7551484
0.75583971
0.75571259
0.7542314
0.7534871
0.75323735
0.75319473
0.75354053
0.75376265
0.75387288
0.61718273
0.72640682
0.79963316
0.86291434
0.91514262
0.93673878
0.92986576
0.93310395
0.92880231
0.92933539
0.92612931
0.92484605
0.92172345
0.91893785
0.91513114
0.91082822
0.90567841
0.89958761
0.89250718
0.88422439
0.87475161
0.86398423
0.85204296
0.8391045
0.82558729
0.81205193
0.79917555
0.78756864
0.77767774
0.76972583
0.76365117
0.7589673
0.7556365
0.75383374
0.75304196
0.75271623
0.75193899
0.75151346
0.75147082
0.75349402
0.75525346
0.7557823
0.75547095
0.75402921
0.75335063
0.75315606
0.7531712
0.75353895
0.75376165
0.75387245
0.61898005
0.72876012
0.80251906
0.86651467
0.91653933
0.93549969
0.92846316
0.93168733
0.92731114
0.92778441
0.92451455
0.92312102
0.91991451
0.9169827
0.91304481
0.90855449
0.90320692
0.89687166
0.88951676
0.88092138
0.87110641
0.85998206
0.84769378
0.83446162
0.8207547
0.80718366
0.79445264
0.78316906
0.77374832
0.76634547
0.76078448
0.75657572
0.75385354
0.75253463
0.75207048
0.75197064
0.75139771
0.7511695
0.75133525
0.75371989
0.75533253
0.75573583
0.75521796
0.75382976
0.75321121
0.75305356
0.75315512
0.75353837
0.75376102
0.75387211
0.62062752
0.73092152
0.80519103
0.87003464
0.91736289
0.93383894
0.92681542
0.93002196
0.92557658
0.92598203
0.9226517
0.92114249
0.91785004
0.91476559
0.91068915
0.90600249
0.90044542
0.89385365
0.8862099
0.87728803
0.86711782
0.85562797
0.84299263
0.82948034
0.81561407
0.80205369
0.78952662
0.77863081
0.76973463
0.76290157
0.75785439
0.75420655
0.75211036
0.75123573
0.7511112
0.75121883
0.75085427
0.75076601
0.75123777
0.75387075
0.75537246
0.75569015
0.75495118
0.75363751
0.75307115
0.75294089
0.75314468
0.75353872
0.75376082
0.7538719
0.62210815
0.73289059
0.80763319
0.87344903
0.91759802
0.93216651
0.92493263
0.92811535
0.92361321
0.92393879
0.92054924
0.91891747
0.91553535
0.91229036
0.90806659
0.90317369
0.89739449
0.89053347
0.88258593
0.87332342
0.8627853
0.85092291
0.83794346
0.82416914
0.81017939
0.79668229
0.78442419
0.77398242
0.76565452
0.75940028
0.7548942
0.7518945
0.75041304
0.74993718
0.7501781
0.75047095
0.75030919
0.7503133
0.75118795
0.75395299
0.75537144
0.75562704
0.754678
0.75345198
0.75293762
0.75283112
0.75313685
0.75353998
0.75376111
0.75387185
0.62344141
0.73470553
0.80988547
0.87675867
0.91726945
0.9302141
0.92283687
0.92598693
0.92142706
0.92166556
0.9182155
0.91645202
0.91297455
0.90956004
0.90517887
0.90006932
0.89405445
0.88691066
0.8786438
0.86902624
0.85810814
0.84586799
0.83255085
0.81853765
0.80446652
0.79109259
0.77917441
0.76924916
0.76151792
0.75585337
0.75195962
0.74965766
0.74874346
0.74865693
0.74927198
0.74973487
0.74977605
0.74986793
0.75119857
0.7539964
0.75533907
0.75555518
0.75439569
0.75327335
0.75281548
0.75273584
0.75313431
0.75354234
0.75376193
0.75387199
0.624611
0.73635204
0.81196071
0.87992601
0.91640944
0.92798594
0.92053676
0.92364167
0.91902542
0.91916594
0.91565342
0.91374876
0.91016968
0.90657642
0.90202716
0.89668987
0.89042506
0.88298427
0.87438211
0.8643951
0.85308588
0.84046507
0.82682072
0.81259744
0.79849429
0.78531137
0.77380719
0.76444946
0.75733127
0.75229361
0.74910161
0.74749973
0.74708036
0.74741902
0.74838576
0.74902154
0.74926684
0.74949989
0.75128472
0.75403012
0.75528981
0.75545806
0.75410466
0.75309845
0.75270811
0.75266015
0.75313835
0.753546
0.75376328
0.75387235
0.62563472
0.7378606
0.81389511
0.88289327
0.91507681
0.92559546
0.9180279
0.92107958
0.91640826
0.91644087
0.91286441
0.91080929
0.90712202
0.90334078
0.89861192
0.89303526
0.88650539
0.87875262
0.86979881
0.8594281
0.84771802
0.83471644
0.8207599
0.80636181
0.79228452
0.77936792
0.76834905
0.75959333
0.75311028
0.74877872
0.74634666
0.74540048
0.74543425
0.74623039
0.74751688
0.74833687
0.74877587
0.74918848
0.75144379
0.75406097
0.75521148
0.75529715
0.75380677
0.75291962
0.75261537
0.75260378
0.75314592
0.75355082
0.75376513
0.75387292
0.62648987
0.73922336
0.8157133
0.88554899
0.91326698
0.9229604
0.91531297
0.91830175
0.91357751
0.91349204
0.90985003
0.90763525
0.90383254
0.89985372
0.89493292
0.88910444
0.88229363
0.87421334
0.86489139
0.85412336
0.84200449
0.82862535
0.81437696
0.79984708
0.78586288
0.77329278
0.7628198
0.75468885
0.74889869
0.74536358
0.74369542
0.74333282
0.74383795
0.74509277
0.74667072
0.74767727
0.74829703
0.74901108
0.75165863
0.75408386
0.75504739
0.75506045
0.75351147
0.7527312
0.75251936
0.75256652
0.75315607
0.75355664
0.75376743
0.75387367
0.62715518
0.74043246
0.81744358
0.88790772
0.91103715
0.92011814
0.91239375
0.91531032
0.91053547
0.91032162
0.90661196
0.90422788
0.90030145
0.89611493
0.89098882
0.88489542
0.87778713
0.8693633
0.85965683
0.84847866
0.83594514
0.82219537
0.8076818
0.79307244
0.77925796
0.7671141
0.75723076
0.74975763
0.74476105
0.74207608
0.74112396
0.74130577
0.74230922
0.74401046
0.74585599
0.74703831
0.74781555
0.74890538
0.75189556
0.75409649
0.75486188
0.75476085
0.75322395
0.75252351
0.7523987
0.75254583
0.75316835
0.75356336
0.75377016
0.75387458
0.62761697
0.74149295
0.81910687
0.88992378
0.9084292
0.91706337
0.9092744
0.91210813
0.90728483
0.9069313
0.90315076
0.90058724
0.8965277
0.89212291
0.8867773
0.88040529
0.87298258
0.86419893
0.85409185
0.84249179
0.82954014
0.81543115
0.80068677
0.78606096
0.77250037
0.76085481
0.75159116
0.74485237
0.74075046
0.73891452
0.73861052
0.73935004
0.7408547
0.74298515
0.74507514
0.74641832
0.74733202
0.74885422
0.75210882
0.75409172
0.75467537
0.75441718
0.75294267
0.75232212
0.75225043
0.75253484
0.75318248
0.75357089
0.75377328
0.75387562
0.62789503
0.74239989
0.82070747
0.89154824
0.90548381
0.91380799
0.90595816
0.90869672
0.90382584
0.9033204
0.89946523
0.89671197
0.89250926
0.88787521
0.88229531
0.87563061
0.86787618
0.85871614
0.84819263
0.83616005
0.82278954
0.8083383
0.79340692
0.77883892
0.76561941
0.75452996
0.74592427
0.74004311
0.73689603
0.73585003
0.73617181
0.73748052
0.73947997
0.74201539
0.74432842
0.74582419
0.74686251
0.7488927
0.75226585
0.75406614
0.75452227
0.75403594
0.7526738
0.752133
0.75209965
0.75253316
0.75319816
0.75357921
0.75377673
0.75387676
0.6280218
0.74317168
0.82226491
0.89274907
0.9022317
0.91034712
0.90244144
0.90507195
0.9001561
0.89948711
0.89555338
0.8926003
0.88824344
0.88336896
0.87753945
0.87056756
0.86246369
0.85291031
0.84195489
0.82948058
0.81569409
0.80092476
0.78586152
0.77143555
0.75864063
0.74815027
0.74028644
0.73538566
0.73319436
0.73286882
0.73383434
0.73570532
0.73818827
0.74109887
0.74361448
0.74526443
0.74644672
0.74902698
0.75237766
0.75401814
0.75438664
0.75364757
0.75242679
0.75197178
0.75197595
0.75254769
0.75321556
0.75358825
0.75378045
0.753878
0.62798295
0.74377476
0.82373897
0.89344725
0.898687
0.90668057
0.89872341
0.90123448
0.89627513
0.89543094
0.89141334
0.88825015
0.88372734
0.8786011
0.87250628
0.86521207
0.85674019
0.84677583
0.83537336
0.82244997
0.80825511
0.79320099
0.77807354
0.76388035
0.75158304
0.74173478
0.73475467
0.73091367
0.72961313
0.72999457
0.73161029
0.73403101
0.73698226
0.74023633
0.74293315
0.74473669
0.74615432
0.74921534
0.75246432
0.75395573
0.75425549
0.75325853
0.75220569
0.75184422
0.75187878
0.75257618
0.75323492
0.75359785
0.75378435
0.7538793
0.62785495
0.74427235
0.82513999
0.89352738
0.89491861
0.90281298
0.89480764
0.89718373
0.89218202
0.89115008
0.88704273
0.88365922
0.87895825
0.87356884
0.86719223
0.85955924
0.8506996
0.84030599
0.82844212
0.81506497
0.80047572
0.78518138
0.77006992
0.75620137
0.74446069
0.73533592
0.72939227
0.72662728
0.7261409
0.72725294
0.72950705
0.73246237
0.73586373
0.73943212
0.74228745
0.74422352
0.74599398
0.74943281
0.75250566
0.75386812
0.75407165
0.75287583
0.75200515
0.75174523
0.75181737
0.75261039
0.75325549
0.75360775
0.75378838
0.75388067
0.6276687
0.74469243
0.82643443
0.89298413
0.89090857
0.89873527
0.89068931
0.89291696
0.88787471
0.88664322
0.88243973
0.87882602
0.87393407
0.86826932
0.86159277
0.85360257
0.84433407
0.8334927
0.82115443
0.80732261
0.79236104
0.77688408
0.76187926
0.74842265
0.73729009
0.72903392
0.72424034
0.7224939
0.72280383
0.72465585
0.72753036
0.73100292
0.73483345
0.73868898
0.7416804
0.7437144
0.74590382
0.74966222
0.75248794
0.75369204
0.75379616
0.75251247
0.7517872
0.75165347
0.7517872
0.7526473
0.75327662
0.75361781
0.7537925
0.7538821
0.62740861
0.74503979
0.82754184
0.89181089
0.88667908
0.89445367
0.88637261
0.88843693
0.88335369
0.88191033
0.87760337
0.87374963
0.86865234
0.86269807
0.85570094
0.84733294
0.8376338
0.82632672
0.81350331
0.79922107
0.78391972
0.7683318
0.75353048
0.74056407
0.73011212
0.72290294
0.71931094
0.71849689
0.71963036
0.72221019
0.72568439
0.72965486
0.73389078
0.73800408
0.74111748
0.74324194
0.7458819
0.74988633
0.75244101
0.75343992
0.75347149
0.75217611
0.75157702
0.75153527
0.75177472
0.75268582
0.75329801
0.75362799
0.75379671
0.75388356
0.62709969
0.74536311
0.82850989
0.88999701
0.88224998
0.88996864
0.88185715
0.88374171
0.87861763
0.87695125
0.87253298
0.86842819
0.86310819
0.85684714
0.84950638
0.84073881
0.83058744
0.81879789
0.80548165
0.79076011
0.77516422
0.75955057
0.74505001
0.73264221
0.72300163
0.71699948
0.7145766
0.71465914
0.71663471
0.71992095
0.72397188
0.72841917
0.73303415
0.73737121
0.74060199
0.74288801
0.74597647
0.75007735
0.75237219
0.7531616
0.75309879
0.75186484
0.75136407
0.7513833
0.75177159
0.75272542
0.75331957
0.75363827
0.75380099
0.75388505
0.62678921
0.74568251
0.82924264
0.88752701
0.87761651
0.88527437
0.87713984
0.87883224
0.8736678
0.87176679
0.86722592
0.86285545
0.85729153
0.85070408
0.84299578
0.83380693
0.82318279
0.81089578
0.79708304
0.78194248
0.76611202
0.75056871
0.73646182
0.724683
0.71604669
0.71135424
0.710009
0.7110154
0.71382369
0.71779117
0.72239392
0.72729549
0.73226201
0.73678812
0.74012067
0.7426888
0.74620179
0.75022678
0.75228059
0.75288965
0.75270867
0.75157397
0.75116461
0.75123693
0.75179129
0.75276576
0.75334132
0.75364862
0.75380531
0.75388656
0.62649916
0.74601561
0.82968829
0.8843981
0.87279996
0.88038105
0.87222742
0.87371314
0.86850404
0.86635147
0.86167113
0.8570175
0.85118684
0.84425357
0.83615461
0.82652351
0.81540716
0.80260963
0.7883021
0.77277434
0.75678483
0.74141401
0.72778732
0.71674765
0.70932036
0.70595374
0.70562113
0.70758477
0.71120207
0.71582207
0.72095017
0.72628255
0.73157262
0.73625445
0.73965504
0.74258453
0.74651194
0.75034763
0.75216922
0.75264477
0.75230447
0.75131685
0.75099432
0.75109794
0.75184251
0.75280705
0.75336336
0.75365898
0.75380964
0.75388809
0.6261775
0.74641328
0.829809
0.88061697
0.86781005
0.87529131
0.86711646
0.86837403
0.86311121
0.86068676
0.85584884
0.85089596
0.84477766
0.83748053
0.82896867
0.81887453
0.80724743
0.7939289
0.77913559
0.76326675
0.74720836
0.73211376
0.7190501
0.70892936
0.70287337
0.70075837
0.70145463
0.70437445
0.70877228
0.71401321
0.71963929
0.72537892
0.73096316
0.73576999
0.73922162
0.74253286
0.74686666
0.75044048
0.75204662
0.75241059
0.75190034
0.75108196
0.7508682
0.7510062
0.75190888
0.75284993
0.75338546
0.75366922
0.75381395
0.75388963
0.62583434
0.74690338
0.82952377
0.87618589
0.86263394
0.86998198
0.86178296
0.86278587
0.85746248
0.85474983
0.84973993
0.84447574
0.83805049
0.83037152
0.82142382
0.81084544
0.79868982
0.78484344
0.76958328
0.75343551
0.73740998
0.722694
0.71029203
0.70131862
0.69671785
0.69576436
0.69753609
0.70138989
0.70653462
0.71236298
0.71846023
0.72458392
0.73042861
0.73533454
0.73889268
0.74255098
0.74721657
0.75048294
0.75190423
0.75216954
0.75150894
0.75087047
0.75077904
0.7509613
0.75198068
0.75289301
0.75340719
0.75367926
0.75381822
0.75389119
0.62543182
0.74747428
0.82873417
0.87114802
0.8572256
0.86440923
0.85619466
0.85692232
0.85153836
0.84852834
0.84333418
0.83774709
0.83099392
0.82291266
0.81350467
0.80242016
0.78971986
0.77534447
0.75964957
0.74330203
0.72741791
0.71318061
0.70159235
0.69398919
0.69082217
0.69101128
0.6938765
0.69863354
0.70448757
0.71086917
0.71741273
0.72389654
0.72996157
0.73493988
0.73871265
0.7426913
0.74752167
0.75046729
0.75172136
0.7519051
0.75114602
0.75068227
0.75070157
0.75094321
0.75205384
0.75293528
0.75342835
0.75368907
0.75382244
0.75389276
0.62488101
0.74809463
0.82733451
0.86584964
0.85155982
0.8585571
0.85034286
0.85078387
0.84533779
0.84202091
0.83662579
0.83070012
0.82359421
0.81508744
0.80519343
0.79358111
0.78032263
0.7654253
0.74934366
0.73289162
0.71726068
0.70360372
0.69305304
0.68698384
0.68516171
0.68653622
0.69048231
0.69610533
0.70262811
0.70952965
0.71649626
0.72331043
0.72955199
0.73457581
0.73863084
0.74296735
0.74777173
0.75041991
0.75147089
0.75160788
0.75082829
0.75049801
0.75060133
0.75094127
0.75212702
0.75297636
0.7534489
0.75369867
0.75382664
0.75389434
0.62410566
0.74877503
0.82528471
0.86052107
0.8456656
0.85245223
0.84424287
0.84438087
0.83886172
0.83522171
0.8296032
0.8233195
0.81583316
0.80687592
0.79647005
0.78430922
0.7704837
0.75508295
0.73868045
0.72223214
0.70696886
0.69402142
0.68476981
0.68029865
0.67975526
0.682361
0.6873566
0.69380295
0.70095235
0.70834195
0.71570598
0.722808
0.72918864
0.7342616
0.73860028
0.74335461
0.74797687
0.7503445
0.75120437
0.75128755
0.75055341
0.75031394
0.75046798
0.75095318
0.75219947
0.75301616
0.75346885
0.75370806
0.75383081
0.75389592
0.62316393
0.74953485
0.82257091
0.85466027
0.83956402
0.84610053
0.83789224
0.8377018
0.83209583
0.82811358
0.8222474
0.8155846
0.807689
0.79825559
0.7873127
0.77458493
0.76019015
0.7443191
0.72768004
0.71135182
0.69657388
0.68453101
0.67681844
0.67389556
0.67465115
0.67849296
0.6844995
0.69172215
0.6994559
0.70730189
0.71502842
0.72236506
0.72886647
0.73405562
0.73863299
0.74381054
0.74814177
0.75022863
0.75091599
0.75096101
0.75030438
0.75013648
0.75032696
0.75099992
0.75227052
0.75305478
0.75348831
0.75371727
0.75383493
0.75389748
0.62207229
0.75033592
0.81918317
0.84850763
0.83321862
0.83947065
0.83126515
0.83072292
0.82501759
0.82067532
0.81453563
0.80747191
0.79913757
0.78920236
0.7776987
0.76438877
0.74943217
0.73314169
0.71636787
0.70028158
0.68611551
0.67524747
0.66923345
0.66776743
0.66988386
0.67493732
0.68190839
0.68985736
0.69813362
0.7064011
0.71444169
0.72197516
0.72860259
0.73396627
0.73876915
0.7442822
0.74826262
0.75008378
0.75063205
0.75062744
0.75007817
0.7499909
0.75021466
0.75108546
0.7523401
0.75309258
0.7535073
0.75372627
0.75383901
0.75389904
0.62082734
0.75109066
0.81508471
0.8420311
0.82659923
0.83254072
0.82434161
0.82342426
0.81760493
0.81288406
0.80644295
0.79895561
0.79015327
0.77969107
0.76760459
0.75370234
0.73820397
0.72156454
0.70477212
0.68905682
0.67566966
0.66627295
0.6619964
0.66195631
0.66546825
0.67169475
0.67957798
0.68820187
0.69697843
0.70562597
0.7139283
0.72167488
0.7284301
0.73393756
0.73903002
0.74471134
0.74833057
0.74991789
0.75036152
0.75028643
0.74987579
0.74989461
0.75015746
0.75118934
0.75240946
0.75312965
0.75352573
0.75373502
0.75384303
0.7539006
0.61945814
0.7517286
0.81028651
0.83522033
0.81969382
0.82529334
0.81710214
0.81578367
0.80983262
0.80471412
0.79794247
0.79000874
0.78070946
0.76969551
0.75700633
0.74250858
0.72650507
0.70960749
0.69292339
0.67771851
0.66535351
0.65768077
0.65507552
0.65651256
0.66141165
0.6687628
0.67750121
0.68674816
0.69598
0.7049593
0.71349937
0.72149371
0.72834497
0.73396403
0.73942424
0.74506337
0.74834404
0.7497383
0.75010064
0.7499541
0.74969383
0.74981318
0.75013793
0.75129831
0.75247776
0.75316552
0.75354348
0.7537435
0.753847
0.75390217
0.61802917
0.75215667
0.80481432
0.82805418
0.81248042
0.81770338
0.80952066
0.80777502
0.80167292
0.79613884
0.78900713
0.78060382
0.77077864
0.75918794
0.74587915
0.73079341
0.71434096
0.69729537
0.68085608
0.66632153
0.65529428
0.64949272
0.64848449
0.65146752
0.6577162
0.66613553
0.67566964
0.68548725
0.69512435
0.70438656
0.71320336
0.72139842
0.72830479
0.73406617
0.73991926
0.74534904
0.74831641
0.74954654
0.74984407
0.74965154
0.74952708
0.74972891
0.75013641
0.75140757
0.75254365
0.75319985
0.75356047
0.7537517
0.75385092
0.75390374
0.61660716
0.75223862
0.79868994
0.82051927
0.80493318
0.80974233
0.80157018
0.79937275
0.7930994
0.78713279
0.77961021
0.77071252
0.76033121
0.74813869
0.7341987
0.71854715
0.70172427
0.68465753
0.66861276
0.65496562
0.64560443
0.64168038
0.64228347
0.64683069
0.65438029
0.66380504
0.6740742
0.68440736
0.69439534
0.70391004
0.71304354
0.72134526
0.72829788
0.73425219
0.74047334
0.74559153
0.74826479
0.74934199
0.74958892
0.74938844
0.74936365
0.74961555
0.75014575
0.7515154
0.75260655
0.75323254
0.75357674
0.75375966
0.7538548
0.75390533
0.6149741
0.75198348
0.79197492
0.81259099
0.7970293
0.80138574
0.79322689
0.79055521
0.78408785
0.77767058
0.76972304
0.76030289
0.74933387
0.7365157
0.72194198
0.70576647
0.68867464
0.67172787
0.6562459
0.64378751
0.63635112
0.63423056
0.63651939
0.64260802
0.65139845
0.66176218
0.67270436
0.68349217
0.69377738
0.70356615
0.71295664
0.72132511
0.72833906
0.73453167
0.74105032
0.74579627
0.74818761
0.74911712
0.74933218
0.74916328
0.74920668
0.74948821
0.75017255
0.7516211
0.75266626
0.75326361
0.75359234
0.75376741
0.75385867
0.75390691
0.61302581
0.75132541
0.7846834
0.80426107
0.78875391
0.79261694
0.78447293
0.78130247
0.77461239
0.76772222
0.75931116
0.74933692
0.73774844
0.72428522
0.70908938
0.69245521
0.67521883
0.65854978
0.64383526
0.63292622
0.62754306
0.62718446
0.63121793
0.63879952
0.64876307
0.65999719
0.67154581
0.68272109
0.6932641
0.70336831
0.71291372
0.72134801
0.72845046
0.73492541
0.74160462
0.74595859
0.74807955
0.74887606
0.7490736
0.74896944
0.74907841
0.74938757
0.75023463
0.75172337
0.75272275
0.75329317
0.75360736
0.753775
0.75386252
0.7539085
0.61073787
0.75027253
0.77686917
0.79551734
0.78009713
0.78341636
0.77528613
0.77158817
0.76463789
0.75724846
0.74833167
0.73777005
0.72553277
0.71141392
0.69562727
0.67862615
0.66138985
0.64517855
0.63151038
0.62250165
0.61914537
0.62061041
0.62638827
0.63540115
0.6464645
0.65849706
0.67057663
0.68207367
0.69287597
0.70326515
0.71291691
0.72141896
0.72864218
0.73544916
0.74209053
0.74607218
0.74794514
0.74863376
0.74881983
0.74880013
0.7489892
0.74934371
0.75033032
0.75182108
0.75277629
0.75332141
0.75362186
0.7537824
0.75386631
0.75391007
0.60799323
0.74877803
0.76853325
0.78634057
0.77103792
0.77375472
0.76562604
0.76137163
0.75411703
0.74619922
0.73673416
0.72555233
0.71264291
0.69787194
0.68155051
0.66430113
0.64722956
0.63168601
0.61943201
0.61256655
0.6111717
0.61455483
0.62203403
0.63240525
0.64449024
0.65724099
0.66976834
0.68154253
0.69263576
0.70321889
0.71297245
0.72153696
0.72891853
0.73607743
0.74249589
0.74612859
0.74778924
0.74839447
0.74858197
0.74865186
0.74891319
0.74933226
0.75044878
0.75191415
0.75282751
0.75334855
0.75363584
0.75378959
0.75387005
0.75391164
0.60477814
0.74644615
0.75967495
0.77668558
0.76153369
0.76358131
0.75543744
0.75059871
0.74299318
0.73451727
0.72446288
0.71263143
0.6990363
0.6836362
0.66686411
0.64951169
0.63279453
0.61818496
0.60775232
0.60310876
0.60369931
0.60903363
0.61815298
0.62980051
0.64282114
0.65619718
0.66909779
0.68115067
0.69251387
0.70322356
0.71307436
0.72170291
0.72927629
0.73676208
0.74283701
0.74613627
0.7476213
0.7481668
0.74836638
0.74851293
0.74882494
0.74933738
0.75057802
0.75200417
0.75287695
0.75337464
0.75364932
0.75379661
0.75387378
0.75391325
0.60104127
0.74340842
0.75026915
0.76647866
0.75151195
0.75283634
0.74465536
0.73920939
0.73120404
0.72214016
0.71145885
0.69895442
0.68467434
0.66869255
0.65158378
0.63429837
0.61815939
0.60483902
0.59658215
0.59412198
0.59679315
0.60405677
0.61473816
0.62757076
0.64142866
0.65533187
0.66857037
0.68091623
0.69246162
0.70328469
0.71321915
0.72192082
0.72971795
0.73746387
0.74312655
0.74611937
0.74744901
0.74795246
0.7481695
0.74836927
0.7487166
0.74935041
0.75071102
0.75209158
0.75292446
0.75339961
0.75366231
0.75380348
0.7538775
0.7539149
0.59670972
0.73947838
0.7402974
0.75567669
0.74091442
0.74146474
0.73321568
0.72713782
0.71868178
0.70900145
0.69766175
0.68447036
0.66952468
0.65303728
0.63573633
0.61871661
0.60342591
0.59183233
0.58595698
0.58565916
0.59049255
0.59962491
0.61177667
0.62569163
0.64027774
0.65463481
0.6682223
0.68080301
0.69246161
0.70339659
0.71340438
0.72220046
0.73025864
0.73813827
0.74336962
0.74608308
0.74727671
0.74774933
0.7479845
0.74822056
0.74859368
0.74937858
0.75084444
0.75217539
0.75296975
0.7534234
0.75367478
0.75381015
0.75388111
0.75391655
0.59173999
0.7347868
0.72970017
0.74420705
0.72967502
0.72939587
0.72104131
0.71431075
0.70535557
0.69503465
0.68301288
0.66913268
0.65356357
0.63667848
0.61936145
0.60284532
0.58875723
0.57933011
0.57585674
0.57781413
0.58481323
0.59573274
0.60924879
0.62412998
0.63934167
0.65414243
0.66804733
0.68076242
0.69251749
0.70355348
0.71362969
0.72255323
0.73091526
0.73874246
0.74356709
0.74602688
0.74710714
0.74755546
0.74780561
0.74807878
0.74848996
0.74943267
0.75097531
0.75225486
0.7530126
0.75344596
0.75368669
0.7538166
0.75388459
0.75391816
0.58612584
0.72933801
0.71843147
0.73197293
0.71770725
0.71655105
0.70805155
0.70065615
0.69115893
0.6801754
0.66745568
0.65289966
0.63677718
0.61963761
0.60251581
0.58679343
0.57436088
0.56741211
0.56631767
0.57065075
0.57976142
0.59236629
0.60712579
0.62284937
0.63862351
0.65386559
0.66797658
0.68077953
0.69262668
0.70374865
0.71389503
0.72298386
0.73166607
0.73926917
0.74372402
0.745956
0.74694101
0.74737225
0.74763527
0.74794815
0.74843684
0.74950686
0.75110219
0.75232957
0.75305289
0.75346727
0.75369809
0.75382288
0.75388794
0.75392001
0.57990217
0.72263394
0.70643643
0.71890133
0.70493053
0.70286797
0.69417629
0.68610761
0.67602717
0.66435854
0.65093219
0.63573416
0.61916307
0.60195194
0.58528302
0.57072074
0.56043629
0.55608679
0.55745135
0.5641944
0.57533416
0.58950288
0.60537116
0.62182587
0.63815022
0.65374116
0.66797717
0.68085697
0.69278124
0.70397604
0.71419946
0.7234868
0.73246719
0.73973765
0.74384424
0.74587171
0.74677714
0.74719982
0.74747945
0.74782537
0.74842166
0.74959814
0.75122395
0.75239955
0.75309072
0.7534874
0.75370899
0.75382906
0.75389134
0.75392196
0.57304397
0.71465723
0.69368299
0.70494322
0.69128204
0.6882911
0.67934922
0.6705934
0.65988762
0.64751033
0.63338145
0.61760556
0.60073357
0.5836796
0.56778141
0.55484656
0.54712136
0.54538873
0.549343
0.55846019
0.57151765
0.58710944
0.60394616
0.62106838
0.63790355
0.65371524
0.66805065
0.68099051
0.69297318
0.70423027
0.71454331
0.7240585
0.73329137
0.74015228
0.74393129
0.74577632
0.74661543
0.74703599