/*--------------------------------*- C++ -*----------------------------------*\
  =========                 |
  \\      /  F ield         | OpenFOAM: The Open Source CFD Toolbox
   \\    /   O peration     | Website:  https://openfoam.org
    \\  /    A nd           | Version:  8
     \\/     M anipulation  |
\*---------------------------------------------------------------------------*/
FoamFile
{
    version     2.0;
    format      ascii;
    class       surfaceScalarField;
    location    "0.0399893";
    object      meshPhi;
}
// * * * * * * * * * * * * * * * * * * * * * * * * * * * * * * * * * * * * * //

dimensions      [0 3 -1 0 0 0 0];

internalField   nonuniform List<scalar> 
39600
(
-9.3075749e-06
-6.1599761e-07
6.4205412e-07
-9.332735e-06
-7.3467139e-07
7.5233688e-07
-9.3634565e-06
-8.804618e-07
9.0134768e-07
-9.4000679e-06
-1.0549003e-06
1.0800162e-06
-9.4411971e-06
-1.263855e-06
1.2940807e-06
-9.4879367e-06
-1.5141685e-06
1.5505371e-06
-9.5395602e-06
-1.8139813e-06
1.8577255e-06
-9.5982992e-06
-2.1730011e-06
2.2256029e-06
-9.666853e-06
-2.6028273e-06
2.6660467e-06
-9.7487741e-06
-3.117244e-06
3.1931865e-06
-9.8492721e-06
-3.7325966e-06
3.8238255e-06
-9.9736357e-06
-4.4681994e-06
4.5778519e-06
-1.0131944e-05
-5.3468727e-06
5.4787901e-06
-1.0333083e-05
-6.3954066e-06
6.5543418e-06
-1.0590232e-05
-7.6452245e-06
7.8370076e-06
-1.0919696e-05
-9.132856e-06
9.3648203e-06
-1.1369003e-05
-1.0900035e-05
1.1181576e-05
-1.2000174e-05
-1.2993121e-05
1.3335661e-05
-1.2852513e-05
-1.5461502e-05
1.5879726e-05
-1.3978551e-05
-1.8356174e-05
1.8869262e-05
-1.5452529e-05
-2.172471e-05
2.2358082e-05
-1.7350056e-05
-2.561742e-05
2.6406738e-05
-1.9864714e-05
-3.0065616e-05
3.1057331e-05
-2.2998948e-05
-3.5097066e-05
3.6349001e-05
-2.6882199e-05
-4.0699344e-05
4.2277689e-05
-3.1267308e-05
-4.6893174e-05
4.8882102e-05
-3.6958081e-05
-5.3697397e-05
5.6203469e-05
-4.405236e-05
-6.1121659e-05
6.4309969e-05
-5.323353e-05
-6.9021872e-05
7.3116487e-05
-6.4080129e-05
-7.7526134e-05
8.2797649e-05
-7.7481735e-05
-8.6943272e-05
9.3690659e-05
-9.6443181e-05
-9.5863388e-05
0.00010453585
-0.00011358884
-0.00010631922
0.00011758198
-0.00013173491
-0.00011999609
0.00013412262
-0.0001557518
-0.00013264106
0.00014990917
-0.00018205824
-0.00014496517
0.00016590976
-0.00021186932
-0.00016297374
0.00018845405
-0.00024414449
-0.00019101416
0.00022196201
-0.00027700945
-0.00022225907
0.00025856717
-0.0003100559
-0.00025423911
0.00029562354
-0.0003586667
-0.00029404444
0.0003415762
-0.00041001235
-0.00034019194
0.00039493258
-0.00046027714
-0.00038643116
0.0004475856
-0.00051483414
-0.00043865155
0.00050575991
-0.00057271952
-0.00050624975
0.00057839023
-0.00061353346
-0.00057367355
0.00064756007
-0.0006316738
-0.00063668971
0.00070898846
-0.00055395618
-0.00064993163
0.00071167876
-0.00037425954
-0.00051894288
0.00055664776
-0.00021800339
0.00022670201
-7.4616152e-06
-6.0407595e-07
-7.4715636e-06
-7.2033843e-07
-7.4813189e-06
-8.6301051e-07
-7.4927559e-06
-1.0339323e-06
-7.5079596e-06
-1.2386949e-06
-7.5290581e-06
-1.4839402e-06
-7.558895e-06
-1.7776766e-06
-7.5993782e-06
-2.12938e-06
-7.6542151e-06
-2.5504027e-06
-7.7257385e-06
-3.054185e-06
-7.8182797e-06
-3.6566986e-06
-7.9357119e-06
-4.3768046e-06
-8.0842653e-06
-5.2367914e-06
-8.2705545e-06
-6.262738e-06
-8.5002385e-06
-7.4852705e-06
-8.7945203e-06
-8.9394767e-06
-9.1998318e-06
-1.0664938e-05
-9.7709997e-06
-1.2705587e-05
-1.0548521e-05
-1.5108898e-05
-1.1578534e-05
-1.7922524e-05
-1.2934764e-05
-2.1188701e-05
-1.4701052e-05
-2.4946903e-05
-1.7056769e-05
-2.921792e-05
-2.0022464e-05
-3.4019388e-05
-2.372026e-05
-3.9329158e-05
-2.8011764e-05
-4.5147483e-05
-3.3602441e-05
-5.1470187e-05
-4.078084e-05
-5.8235807e-05
-5.0021466e-05
-6.523148e-05
-6.0785368e-05
-7.2591683e-05
-7.4128733e-05
-8.0544778e-05
-9.2738239e-05
-8.7590488e-05
-0.0001099983
-9.5526202e-05
-0.00012827953
-0.00010620799
-0.00015214595
-0.00011568518
-0.00017829535
-0.00012439928
-0.00020804772
-0.00013799648
-0.00024023271
-0.00016047748
-0.00027354342
-0.00018604298
-0.00030722414
-0.00021276662
-0.00035567004
-0.00024631275
-0.00040731304
-0.00028499115
-0.00045809252
-0.00032422702
-0.00051256691
-0.00037042467
-0.00057072769
-0.00043282464
-0.00061268791
-0.00049802817
-0.00063034162
-0.00056212953
-0.0005542466
-0.00058474406
-0.00037549101
-0.00047713637
-0.00020715448
-5.7386354e-06
-5.9431799e-07
-5.7228872e-06
-7.0861163e-07
-5.7066789e-06
-8.4892312e-07
-5.6966063e-06
-1.0170161e-06
-5.6950896e-06
-1.2183847e-06
-5.7029409e-06
-1.4595712e-06
-5.7213298e-06
-1.7484232e-06
-5.7516211e-06
-2.0942612e-06
-5.7964857e-06
-2.5082125e-06
-5.8574375e-06
-3.0034908e-06
-5.9390577e-06
-3.5957496e-06
-6.0433725e-06
-4.3035492e-06
-6.1762169e-06
-5.1486806e-06
-6.33923e-06
-6.1567661e-06
-6.538188e-06
-7.3577944e-06
-6.7979446e-06
-8.7854114e-06
-7.1571866e-06
-1.0477418e-05
-7.6635205e-06
-1.247591e-05
-8.3540142e-06
-1.4826607e-05
-9.2735907e-06
-1.7574525e-05
-1.0497208e-05
-2.075703e-05
-1.2116511e-05
-2.4404262e-05
-1.4291798e-05
-2.8526535e-05
-1.706024e-05
-3.3131814e-05
-2.0555573e-05
-3.8185214e-05
-2.473104e-05
-4.3665704e-05
-3.0207782e-05
-4.9545359e-05
-3.7446608e-05
-5.5675697e-05
-4.6707463e-05
-6.1783807e-05
-5.7352944e-05
-6.8027808e-05
-7.064156e-05
-7.4548758e-05
-8.8902025e-05
-7.9748918e-05
-0.00010623464
-8.5219102e-05
-0.00012465993
-9.2953875e-05
-0.00014831006
-9.9275508e-05
-0.00017432179
-0.00010439183
-0.00020395001
-0.00011359333
-0.00023608687
-0.00013058741
-0.00026972913
-0.00015047061
-0.00030418879
-0.0001717595
-0.0003525187
-0.00019891321
-0.0004043774
-0.00023007846
-0.00045575058
-0.00026215314
-0.00051009439
-0.00030214586
-0.00056849261
-0.00035916794
-0.00061170836
-0.00042197907
-0.00062899889
-0.00048719333
-0.00055416076
-0.00051912641
-0.00037600578
-0.00043383255
-0.00019458881
-4.144918e-06
-5.868464e-07
-4.1295948e-06
-6.9969378e-07
-4.1136633e-06
-8.382692e-07
-4.1016853e-06
-1.004278e-06
-4.0945269e-06
-1.2031333e-06
-4.0934129e-06
-1.4412886e-06
-4.0984527e-06
-1.7264671e-06
-4.1128784e-06
-2.0678752e-06
-4.1388846e-06
-2.4764784e-06
-4.1798661e-06
-2.965302e-06
-4.2396868e-06
-3.5497846e-06
-4.3200278e-06
-4.2482377e-06
-4.4270686e-06
-5.0820945e-06
-4.5591423e-06
-6.0766909e-06
-4.726e-06
-7.2613773e-06
-4.9492415e-06
-8.6688061e-06
-5.2638837e-06
-1.0335185e-05
-5.7075978e-06
-1.2301078e-05
-6.3093316e-06
-1.4611145e-05
-7.1206976e-06
-1.7307953e-05
-8.2163887e-06
-2.0424304e-05
-9.6906228e-06
-2.39824e-05
-1.1689955e-05
-2.7983013e-05
-1.4260414e-05
-3.2424719e-05
-1.7565647e-05
-3.7257278e-05
-2.160838e-05
-4.243769e-05
-2.6972362e-05
-4.7909059e-05
-3.4246015e-05
-5.3427954e-05
-4.3476032e-05
-5.8675371e-05
-5.400425e-05
-6.3835205e-05
-6.7202577e-05
-6.8956244e-05
-8.5128913e-05
-7.234448e-05
-0.00010248964
-7.5414996e-05
-0.00012100219
-8.0269206e-05
-0.00014444175
-8.3454448e-05
-0.00017030677
-8.4991425e-05
-0.00019981092
-8.9821574e-05
-0.00023190902
-0.00010140791
-0.00026587205
-0.00011561442
-0.00030102763
-0.00013130566
-0.00034928033
-0.00015194216
-0.00040139368
-0.00017553358
-0.0004534197
-0.00020028639
-0.00050772588
-0.00023386292
-0.0005663512
-0.00028531702
-0.00061131365
-0.00034540843
-0.00062841639
-0.00041155461
-0.00055485699
-0.00045256927
-0.00037627346
-0.00038885354
-0.0001805606
-2.6699912e-06
-5.8154841e-07
-2.673581e-06
-6.9330996e-07
-2.6733888e-06
-8.3059257e-07
-2.6695546e-06
-9.9506177e-07
-2.6625161e-06
-1.1920711e-06
-2.6550502e-06
-1.4280301e-06
-2.6484016e-06
-1.7105909e-06
-2.6470324e-06
-2.0488733e-06
-2.6530307e-06
-2.4537361e-06
-2.6711965e-06
-2.9380947e-06
-2.7044591e-06
-3.5172143e-06
-2.7558129e-06
-4.2092266e-06
-2.8309691e-06
-5.0353332e-06
-2.9298743e-06
-6.0205635e-06
-3.0617963e-06
-7.193905e-06
-3.2480474e-06
-8.5871305e-06
-3.5174349e-06
-1.0235239e-05
-3.8950346e-06
-1.2177879e-05
-4.4102754e-06
-1.4458532e-05
-5.117336e-06
-1.7117534e-05
-6.0904743e-06
-2.0184156e-05
-7.4238019e-06
-2.3673728e-05
-9.2529842e-06
-2.7578318e-05
-1.1629292e-05
-3.1887826e-05
-1.4750634e-05
-3.6534561e-05
-1.8642224e-05
-4.1452651e-05
-2.3895364e-05
-4.6551638e-05
-3.1184992e-05
-5.1485832e-05
-4.0344681e-05
-5.5901216e-05
-5.0757797e-05
-6.0012399e-05
-6.3839091e-05
-6.3768184e-05
-8.1429981e-05
-6.5389921e-05
-9.8776112e-05
-6.6133037e-05
-0.00011733447
-6.8161076e-05
-0.00014056944
-6.8235615e-05
-0.00016627768
-6.6229963e-05
-0.0001956548
-6.6733697e-05
-0.00022771859
-7.2975314e-05
-0.00026198884
-8.1493734e-05
-0.00029777355
-9.1452083e-05
-0.00034598058
-0.00010546183
-0.00039838118
-0.00012141192
-0.0004511255
-0.00013865306
-0.00050549446
-0.00016559191
-0.00056433541
-0.00021129785
-0.00061127172
-0.00026822323
-0.0006283513
-0.00033490135
-0.00055588394
-0.00038460317
-0.000376463
-0.00034209246
-0.00016536987
-1.2644977e-06
-5.783854e-07
-1.2641822e-06
-6.8953116e-07
-1.2600439e-06
-8.2609539e-07
-1.2535952e-06
-9.8970017e-07
-1.2457367e-06
-1.1856649e-06
-1.2387154e-06
-1.4203546e-06
-1.2331933e-06
-1.7013795e-06
-1.2319431e-06
-2.0378003e-06
-1.2355915e-06
-2.4404174e-06
-1.2472789e-06
-2.9220777e-06
-1.2688086e-06
-3.4979584e-06
-1.3025986e-06
-4.186107e-06
-1.3543476e-06
-5.0075814e-06
-1.4254849e-06
-5.9872411e-06
-1.5269557e-06
-7.1537906e-06
-1.6781396e-06
-8.5384172e-06
-1.9011101e-06
-1.0175277e-05
-2.2147157e-06
-1.2103164e-05
-2.6474331e-06
-1.4364702e-05
-3.2546642e-06
-1.6998581e-05
-4.110827e-06
-2.0030887e-05
-5.3085929e-06
-2.3470959e-05
-6.9747008e-06
-2.730364e-05
-9.164296e-06
-3.1510191e-05
-1.2103094e-05
-3.6005466e-05
-1.5831821e-05
-4.0701003e-05
-2.0978728e-05
-4.5461553e-05
-2.8266879e-05
-4.9835677e-05
-3.7329276e-05
-5.3451646e-05
-4.7627761e-05
-5.6550779e-05
-6.057268e-05
-5.8977421e-05
-7.7824422e-05
-5.8880543e-05
-9.5119748e-05
-5.7371142e-05
-0.00011369247
-5.6642389e-05
-0.0001367289
-5.3641087e-05
-0.00016227233
-4.8128275e-05
-0.00019151885
-4.4352953e-05
-0.0002235517
-4.532587e-05
-0.00025811291
-4.8160034e-05
-0.000294473
-5.2264722e-05
-0.00034266385
-5.9550595e-05
-0.0003953774
-6.7785699e-05
-0.00044889275
-7.7318619e-05
-0.00050341241
-9.7372818e-05
-0.00056245871
-0.00013714084
-0.00061140997
-0.00019042138
-0.00062861325
-0.00025716939
-0.00055696686
-0.00031518451
-0.00037674049
-0.00029366358
-0.00014918895
4.9748078e-08
-5.7724537e-07
5.0826992e-08
-6.8811277e-07
5.473076e-08
-8.2436122e-07
6.0059404e-08
-9.8758387e-07
6.5831142e-08
-1.1830995e-06
7.0631725e-08
-1.4172607e-06
7.4582802e-08
-1.6976671e-06
7.6062536e-08
-2.0333694e-06
7.5509884e-08
-2.435158e-06
7.0693879e-08
-2.9158681e-06
6.0538926e-08
-3.4906471e-06
4.2891508e-08
-4.1775159e-06
1.2283226e-08
-4.9974725e-06
-3.3591624e-08
-5.9752783e-06
-1.0626723e-07
-7.1394833e-06
-2.2350133e-07
-8.5208623e-06
-4.0160568e-07
-1.0152979e-05
-6.5430979e-07
-1.207411e-05
-1.008883e-06
-1.4326263e-05
-1.5212111e-06
-1.6946937e-05
-2.2662598e-06
-1.9959473e-05
-3.3348786e-06
-2.3368242e-05
-4.8462518e-06
-2.7151727e-05
-6.8583106e-06
-3.1283252e-05
-9.6151726e-06
-3.5660825e-05
-1.3174912e-05
-4.0172848e-05
-1.822255e-05
-4.4629142e-05
-2.5492975e-05
-4.8468167e-05
-3.4437901e-05
-5.1315366e-05
-4.4621282e-05
-5.3438861e-05
-5.7415066e-05
-5.4573279e-05
-7.4325074e-05
-5.2811082e-05
-9.153923e-05
-4.9124662e-05
-0.00011009991
-4.5698258e-05
-0.00013294407
-3.9658469e-05
-0.00015831523
-3.0685173e-05
-0.00018742804
-2.2689046e-05
-0.0002194325
-1.8456812e-05
-0.00025426847
-1.5601103e-05
-0.00029115594
-1.3748514e-05
-0.00033935889
-1.4221477e-05
-0.00039240731
-1.4666267e-05
-0.00044673312
-1.6281003e-05
-0.00050147966
-2.9201441e-05
-0.00056072056
-6.2852756e-05
-0.00061163241
-0.00011201662
-0.00062908242
-0.0001783147
-0.0005579855
-0.00024425736
-0.00037719568
-0.00024361624
-0.00013213149
1.2755456e-06
-5.7809671e-07
1.2717715e-06
-6.8910888e-07
1.2684907e-06
-8.2554256e-07
1.2667531e-06
-9.8896909e-07
1.2669746e-06
-1.1847198e-06
1.2691014e-06
-1.419166e-06
1.2737421e-06
-1.6999225e-06
1.2795192e-06
-2.0360694e-06
1.2866968e-06
-2.4384181e-06
1.292805e-06
-2.9198283e-06
1.296624e-06
-3.495483e-06
1.2956953e-06
-4.1834299e-06
1.284823e-06
-5.0046871e-06
1.2614526e-06
-5.9840331e-06
1.2147539e-06
-7.1499437e-06
1.1294868e-06
-8.5330331e-06
9.9388952e-07
-1.0166547e-05
7.9854235e-07
-1.2088472e-05
5.1794854e-07
-1.4340601e-05
9.5359568e-08
-1.6959638e-05
-5.4453129e-07
-1.9966391e-05
-1.4911285e-06
-2.3360929e-05
-2.8570698e-06
-2.7116527e-05
-4.7025318e-06
-3.1198562e-05
-7.2816514e-06
-3.5490073e-05
-1.067171e-05
-3.9855092e-05
-1.5625285e-05
-4.4035114e-05
-2.2863211e-05
-4.7363432e-05
-3.1675727e-05
-4.9477411e-05
-4.1742596e-05
-5.066209e-05
-5.4375305e-05
-5.0541712e-05
-7.0943857e-05
-4.7166973e-05
-8.8052802e-05
-4.1377517e-05
-0.00010658016
-3.5322431e-05
-0.00012923724
-2.6287868e-05
-0.00015443069
-1.389814e-05
-0.00018340772
-1.7387327e-06
-0.00021538605
7.6269009e-06
-0.00025048135
1.6166777e-05
-0.00028785686
2.4066356e-05
-0.00033609881
3.0484294e-05
-0.00038949982
3.7910099e-05
-0.00044466252
4.4421214e-05
-0.00049969575
3.8890094e-05
-0.00055912014
1.1536709e-05
-0.00061188703
-3.3058041e-05
-0.00062968771
-9.8396472e-05
-0.00055889115
-0.00017193414
-0.00037787555
-0.00019207355
-0.00011424584
2.4251582e-06
-5.80851e-07
2.4225927e-06
-6.9237966e-07
2.4203858e-06
-8.2945676e-07
2.419977e-06
-9.9367459e-07
2.4222587e-06
-1.1903867e-06
2.4272465e-06
-1.4259922e-06
2.4353098e-06
-1.7081436e-06
2.4451364e-06
-2.0459585e-06
2.45675e-06
-2.4502807e-06
2.4680321e-06
-2.9340483e-06
2.4781002e-06
-3.5124942e-06
2.4851667e-06
-4.2037583e-06
2.4852152e-06
-5.0289532e-06
2.4765351e-06
-6.0129551e-06
2.4502443e-06
-7.1844118e-06
2.3935561e-06
-8.573964e-06
2.2979001e-06
-1.0214772e-05
2.1566988e-06
-1.2144828e-05
1.9455085e-06
-1.440602e-05
1.6070857e-06
-1.7034317e-05
1.065673e-06
-2.0048618e-05
2.3339242e-07
-2.3445182e-05
-9.9724784e-07
-2.7192803e-05
-2.689274e-06
-3.1249188e-05
-5.0970369e-06
-3.5484418e-05
-8.3193477e-06
-3.9736415e-05
-1.3182206e-05
-4.3668334e-05
-2.03743e-05
-4.6510125e-05
-2.9043516e-05
-4.7923544e-05
-3.8992494e-05
-4.8205696e-05
-5.1457119e-05
-4.6867268e-05
-6.7686293e-05
-4.1934885e-05
-8.4670545e-05
-3.4115831e-05
-0.00010314678
-2.5491123e-05
-0.00012562147
-1.350552e-05
-0.00015063219
2.2481337e-06
-0.00017947178
1.8506377e-05
-0.00021142611
3.2944379e-05
-0.00024676705
4.7169552e-05
-0.00028459577
6.1195334e-05
-0.00033290151
7.4579155e-05
-0.00038667048
8.9954773e-05
-0.00044268766
0.00010480363
-0.00049805529
0.00010691494
-0.00055765042
8.6027907e-05
-0.00061214635
4.6410142e-05
-0.00063037007
-1.7455145e-05
-0.00055966989
-9.8262096e-05
-0.00037876178
-0.0001390728
-9.5528212e-05
3.5027335e-06
-5.8548628e-07
3.5080247e-06
-6.9795091e-07
3.5156282e-06
-8.3619742e-07
3.5247693e-06
-1.001834e-06
3.535119e-06
-1.200239e-06
3.545827e-06
-1.4378401e-06
3.5570134e-06
-1.7223489e-06
3.5677181e-06
-2.0629331e-06
3.578426e-06
-2.4705275e-06
3.5881713e-06
-2.95812e-06
3.5972298e-06
-3.5411064e-06
3.6054559e-06
-4.2377342e-06
3.6107224e-06
-5.0693651e-06
3.6132508e-06
-6.0611183e-06
3.6061008e-06
-7.2419622e-06
3.5788659e-06
-8.6428796e-06
3.5226955e-06
-1.0296952e-05
3.4317818e-06
-1.2242277e-05
3.2847885e-06
-1.4521317e-05
3.0244114e-06
-1.7169705e-05
2.5747387e-06
-2.0204526e-05
1.8482218e-06
-2.3618516e-05
7.4278312e-07
-2.7376882e-05
-8.1026895e-07
-3.1428993e-05
-3.056568e-06
-3.5633057e-05
-6.1180351e-06
-3.9802597e-05
-1.0892679e-05
-4.3509989e-05
-1.8022955e-05
-4.588839e-05
-2.6541006e-05
-4.6637722e-05
-3.6369849e-05
-4.6053417e-05
-4.8662266e-05
-4.3534309e-05
-6.4557456e-05
-3.7095017e-05
-8.1402289e-05
-2.7314219e-05
-9.9812048e-05
-1.61881e-05
-0.00012210815
-1.3000247e-06
-0.00014693245
1.7770635e-05
-0.00017563396
3.8066315e-05
-0.00020756666
5.7506866e-05
-0.00024313972
7.7406124e-05
-0.00028139133
9.7622965e-05
-0.00032978476
0.00011803778
-0.0003839339
0.0001414466
-0.00044081145
0.00016483129
-0.00049654726
0.00017482674
-0.00055630303
0.0001605773
-0.00061239171
0.00012633134
-0.00063108007
6.4425847e-05
-0.00056031277
-2.3374397e-05
-0.00037982386
-8.4725519e-05
-7.6002629e-05
4.5030748e-06
-5.918775e-07
4.5093691e-06
-7.0550986e-07
4.5176577e-06
-8.4518563e-07
4.5271635e-06
-1.0125146e-06
4.5375595e-06
-1.21293e-06
4.5483031e-06
-1.4529848e-06
4.5596749e-06
-1.7404327e-06
4.5711706e-06
-2.0845894e-06
4.5836034e-06
-2.4965073e-06
4.5965257e-06
-2.9893606e-06
4.6109221e-06
-3.5786706e-06
4.6274512e-06
-4.2829984e-06
4.6458242e-06
-5.1239309e-06
4.6672203e-06
-6.1270209e-06
4.6876483e-06
-7.3218283e-06
4.6937592e-06
-8.739316e-06
4.6755632e-06
-1.0412455e-05
4.6319974e-06
-1.2380049e-05
4.5439594e-06
-1.468546e-05
4.3556524e-06
-1.7364216e-05
3.9914124e-06
-2.0432088e-05
3.3617167e-06
-2.3878059e-05
2.3717786e-06
-2.766461e-05
9.4186473e-07
-3.1731866e-05
-1.1572687e-06
-3.5927431e-05
-4.0688324e-06
-4.00426e-05
-8.7571107e-06
-4.3548726e-05
-1.5807033e-05
-4.5486266e-05
-2.4166425e-05
-4.5605174e-05
-3.3872509e-05
-4.4189159e-05
-4.5990402e-05
-4.0524906e-05
-6.1559732e-05
-3.2629612e-05
-7.825331e-05
-2.0953238e-05
-9.6583075e-05
-7.3853449e-06
-0.00011870419
1.0358077e-05
-0.00014333973
3.2692954e-05
-0.00017190333
5.6960388e-05
-0.00020381696
8.134285e-05
-0.0002396096
0.00010691067
-0.0002782553
0.00013337821
-0.00032676033
0.00016088859
-0.00038130025
0.0001924122
-0.00043903535
0.00022453046
-0.00049516158
0.00024264581
-0.00055506974
0.0002351903
-0.00061262547
0.00020665652
-0.00063180078
0.0001471655
-0.00056084203
5.2629633e-05
-0.00038103227
-2.9104312e-05
-5.5669845e-05
5.4307366e-06
-6.0002455e-07
5.4318695e-06
-7.1522231e-07
5.4323609e-06
-8.5677626e-07
5.4334074e-06
-1.0263211e-06
5.4359277e-06
-1.2293657e-06
5.4407353e-06
-1.4725154e-06
5.4488191e-06
-1.763686e-06
5.4603875e-06
-2.1123028e-06
5.4765585e-06
-2.5295936e-06
5.4975011e-06
-3.0289745e-06
5.5243697e-06
-3.6262406e-06
5.5582997e-06
-4.3403261e-06
5.5992026e-06
-5.1932695e-06
5.6492696e-06
-6.2112992e-06
5.7011637e-06
-7.424114e-06
5.7378976e-06
-8.8625024e-06
5.7530335e-06
-1.0559892e-05
5.7538842e-06
-1.2556418e-05
5.7249285e-06
-1.4896925e-05
5.606486e-06
-1.7616832e-05
5.3222116e-06
-2.0729969e-05
4.7814546e-06
-2.4222013e-05
3.8975712e-06
-2.8053333e-05
2.5756126e-06
-3.2153171e-05
6.0945373e-07
-3.6359431e-05
-2.165754e-06
-4.0440966e-05
-6.7698662e-06
-4.3762823e-05
-1.3722482e-05
-4.5284121e-05
-2.1916416e-05
-4.4809265e-05
-3.1497294e-05
-4.2596217e-05
-4.344023e-05
-3.7822316e-05
-5.8693459e-05
-2.8517038e-05
-7.5226913e-05
-1.5005965e-05
-9.3465473e-05
9.3940669e-07
-0.00011541452
2.148815e-05
-0.00013985965
4.7038503e-05
-0.00016828631
7.5214875e-05
-0.00020018346
0.00010447461
-0.00023618473
0.00013569812
-0.00027519993
0.0001684631
-0.00032383882
0.00020312601
-0.00037877871
0.00024285015
-0.00043736315
0.00028388491
-0.00049389352
0.00031033667
-0.00055394567
0.00030982736
-0.00061284905
0.00028733435
-0.00063252212
0.00023068719
-0.00056127403
0.00012963884
-0.0003823614
2.7694974e-05
-3.4558778e-05
6.281183e-06
-6.0977197e-07
6.2681736e-06
-7.266055e-07
6.255163e-06
-8.7017678e-07
6.2467163e-06
-1.0421666e-06
6.2443367e-06
-1.2482154e-06
6.2482982e-06
-1.4950991e-06
6.2595822e-06
-1.790858e-06
6.2778342e-06
-2.1450755e-06
6.3041067e-06
-2.5692393e-06
6.3382795e-06
-3.076934e-06
6.381603e-06
-3.6843347e-06
6.4350528e-06
-4.410663e-06
6.4985203e-06
-5.2785048e-06
6.5725894e-06
-6.3143958e-06
6.6450646e-06
-7.5480734e-06
6.7016857e-06
-9.0107308e-06
6.7465597e-06
-1.073729e-05
6.7938057e-06
-1.2770067e-05
6.8272178e-06
-1.515486e-05
6.7798423e-06
-1.7926097e-05
6.5715529e-06
-2.1096038e-05
6.1129634e-06
-2.4647193e-05
5.3262533e-06
-2.8538883e-05
4.0981856e-06
-3.2687435e-05
2.2524677e-06
-3.6921255e-05
-4.0125089e-07
-4.0987603e-05
-4.9244752e-06
-4.4141899e-05
-1.1763956e-05
-4.5270137e-05
-1.9787152e-05
-4.4235818e-05
-2.9240705e-05
-4.1259036e-05
-4.1009559e-05
-3.5408621e-05
-5.5956777e-05
-2.4739628e-05
-7.2323383e-05
-9.4537354e-06
-9.0461032e-05
8.812525e-06
-0.00011224041
3.2118361e-05
-0.0001364937
6.0829239e-05
-0.00016478504
9.2848624e-05
-0.00019666855
0.00012692928
-0.00023286817
0.00016380032
-0.00027223081
0.00020290748
-0.00032102413
0.00024478002
-0.00037637174
0.00029278785
-0.00043579445
0.00034292206
-0.00049273576
0.00037792377
-0.00055292238
0.00038449574
-0.0006130611
0.00036831389
-0.00063322636
0.0003148974
-0.00056162138
0.00020754876
-0.00038377082
8.5603585e-05
-1.2662579e-05
7.0881866e-06
-6.2136696e-07
7.0803985e-06
-7.4071604e-07
7.0735323e-06
-8.8739359e-07
7.0713985e-06
-1.0630896e-06
7.0748459e-06
-1.27353e-06
7.0835685e-06
-1.5255143e-06
7.0987211e-06
-1.8272183e-06
7.1200329e-06
-2.188434e-06
7.1494264e-06
-2.6207321e-06
7.1869923e-06
-3.1380937e-06
7.234942e-06
-3.7569287e-06
7.2940568e-06
-4.4969179e-06
7.3648742e-06
-5.3811329e-06
7.4442816e-06
-6.4364424e-06
7.5222147e-06
-7.6929666e-06
7.5925125e-06
-9.1834569e-06
7.6671807e-06
-1.0945113e-05
7.7649903e-06
-1.3021911e-05
7.8607948e-06
-1.5459698e-05
7.8807643e-06
-1.8291648e-05
7.743275e-06
-2.1528475e-05
7.3614122e-06
-2.515111e-05
6.6635593e-06
-2.9117713e-05
5.5192848e-06
-3.3330731e-05
3.7846e-06
-3.7609511e-05
1.2379667e-06
-4.1675337e-05
-3.2082286e-06
-4.4674215e-05
-9.9236099e-06
-4.5431815e-05
-1.7773456e-05
-4.3870879e-05
-2.7097667e-05
-4.0163002e-05
-3.8694296e-05
-3.3269767e-05
-5.3346512e-05
-2.1277727e-05
-6.9541567e-05
-4.270184e-06
-8.7569845e-05
1.6255798e-05
-0.00010918143
4.2267659e-05
-0.00013324232
7.4089544e-05
-0.00016140031
0.00010988962
-0.00019327255
0.00014872957
-0.00022966068
0.00019123055
-0.00026935118
0.00023671017
-0.00031831785
0.000285842
-0.00037407949
0.00034221897
-0.00043432529
0.00040161569
-0.00049167942
0.0004453556
-0.00055199221
0.00045914698
-0.00061325828
0.00044955043
-0.00063389454
0.00039972887
-0.00056188796
0.00028626514
-0.00038522387
0.0001445325
9.9775423e-06
7.8504988e-06
-6.3444276e-07
7.8614188e-06
-7.5633581e-07
7.8731023e-06
-9.0614162e-07
7.8860742e-06
-1.0856467e-06
7.9003379e-06
-1.3006415e-06
7.9164475e-06
-1.5581544e-06
7.9356081e-06
-1.8665318e-06
7.9583536e-06
-2.2357168e-06
7.9872109e-06
-2.6776645e-06
8.0231517e-06
-3.2064638e-06
8.0686907e-06
-3.8389636e-06
8.1252892e-06
-4.5950793e-06
8.1928865e-06
-5.4982524e-06
8.2695873e-06
-6.5758132e-06
8.3498402e-06
-7.8589577e-06
8.4350505e-06
-9.3823181e-06
8.5431571e-06
-1.1185391e-05
8.6881995e-06
-1.3313712e-05
8.8365535e-06
-1.5811741e-05
8.9136578e-06
-1.8711658e-05
8.8398385e-06
-2.2024835e-05
8.5295976e-06
-2.5730804e-05
7.9139671e-06
-2.9785721e-05
6.8470286e-06
-3.4078083e-05
5.215423e-06
-3.8418056e-05
2.7616545e-06
-4.2497012e-05
-1.6119775e-06
-4.5352211e-05
-8.1962718e-06
-4.5758733e-05
-1.5870817e-05
-4.3700863e-05
-2.5063736e-05
-3.9292799e-05
-3.6490498e-05
-3.1387849e-05
-5.0859587e-05
-1.8113002e-05
-6.687983e-05
5.6408382e-07
-8.4790893e-05
2.3295196e-05
-0.00010623637
5.1963793e-05
-0.00013010527
8.684257e-05
-0.00015813228
0.00012635918
-0.00018999635
0.00016990475
-0.00022656298
0.00021802271
-0.00026656261
0.00026990518
-0.00031572053
0.00032634712
-0.00037190197
0.00039117644
-0.00043295209
0.00045999896
-0.0004907163
0.00051266264
-0.00055114862
0.00053379271
-0.00061344555
0.00053100086
-0.00063452441
0.00048508989
-0.00056208578
0.00036568274
-0.00038669948
0.00020439591
3.3341316e-05
8.5404389e-06
-6.4905279e-07
8.5542622e-06
-7.7377617e-07
8.5701553e-06
-9.2707055e-07
8.5885291e-06
-1.1107291e-06
8.6095187e-06
-1.3307362e-06
8.6336585e-06
-1.5942948e-06
8.6616643e-06
-1.9099255e-06
8.6941732e-06
-2.2878857e-06
8.7326852e-06
-2.740394e-06
8.778139e-06
-3.2818902e-06
8.8320267e-06
-3.9296773e-06
8.895617e-06
-4.7040134e-06
8.968517e-06
-5.6288736e-06
9.0504749e-06
-6.7321988e-06
9.1412536e-06
-8.0463918e-06
9.2478503e-06
-9.6079923e-06
9.389786e-06
-1.1458605e-05
9.5721599e-06
-1.3644201e-05
9.7588163e-06
-1.6208518e-05
9.8825689e-06
-1.9184052e-05
9.8651523e-06
-2.258276e-05
9.620452e-06
-2.6383576e-05
9.0809901e-06
-3.0539373e-05
8.0878093e-06
-3.4925519e-05
6.5523732e-06
-3.9343454e-05
4.1794847e-06
-4.3447214e-05
-1.2676695e-07
-4.6165755e-05
-6.5765099e-06
-4.6238208e-05
-1.4074383e-05
-4.3712603e-05
-2.3134479e-05
-3.8634803e-05
-3.439442e-05
-2.9749249e-05
-4.8492031e-05
-1.5226899e-05
-6.4335501e-05
5.0732686e-06
-8.2122592e-05
2.9952704e-05
-0.00010340313
6.1226861e-05
-0.00012708041
9.9111539e-05
-0.00015497966
0.00014228432
-0.00018683835
0.00019048032
-0.00022357408
0.00024419623
-0.000263867
0.00030250074
-0.00031323225
0.00036629799
-0.00036983844
0.00043966557
-0.00043167366
0.00051806134
-0.00048984194
0.00057981012
-0.00055038499
0.00060839566
-0.00061361992
0.00061262601
-0.00063510896
0.00057092267
-0.00056222188
0.00044572631
-0.00038818303
0.00026511864
5.7385099e-05
9.1770603e-06
-6.6515294e-07
9.1928777e-06
-7.9301935e-07
9.2113282e-06
-9.5013446e-07
9.2329334e-06
-1.1383959e-06
9.2580283e-06
-1.3639261e-06
9.2872333e-06
-1.6341171e-06
9.3213903e-06
-1.9577011e-06
9.3613147e-06
-2.3452827e-06
9.4083238e-06
-2.8092811e-06
9.4634421e-06
-3.3646906e-06
9.5278189e-06
-4.0291456e-06
9.6026348e-06
-4.8235631e-06
9.6879305e-06
-5.772458e-06
9.7838617e-06
-6.904813e-06
9.893507e-06
-8.254141e-06
1.0027385e-05
-9.8586514e-06
1.0200372e-05
-1.1761825e-05
1.0411912e-05
-1.4010391e-05
1.062901e-05
-1.6647605e-05
1.079125e-05
-1.9706251e-05
1.0823874e-05
-2.3199599e-05
1.0638487e-05
-2.7105884e-05
1.0169022e-05
-3.1374868e-05
9.2467945e-06
-3.5868446e-05
7.8028933e-06
-4.0378828e-05
5.5008783e-06
-4.451866e-05
1.2559236e-06
-4.7106895e-05
-5.057583e-06
-4.6859579e-05
-1.2378862e-05
-4.3893213e-05
-2.1304992e-05
-3.8174675e-05
-3.2401569e-05
-2.8336916e-05
-4.623902e-05
-1.2602491e-05
-6.1904589e-05
9.274451e-06
-7.9561429e-05
3.6250759e-05
-0.00010067744
7.0080044e-05
-0.00012416421
0.00011091475
-0.00015193922
0.00015768203
-0.00018379523
0.00021048042
-0.00022069112
0.00026978008
-0.00026126269
0.00033452657
-0.00031085034
0.00040572548
-0.00036788565
0.00048771509
-0.00043048621
0.0005758341
-0.0004890507
0.00064682997
-0.00054969337
0.00068296423
-0.00061377885
0.00069437806
-0.00063563994
0.00065712745
-0.00056229609
0.00052628683
-0.00038964637
0.00032661202
8.2086079e-05
9.7630593e-06
-6.8272805e-07
9.780725e-06
-8.1400765e-07
9.8014541e-06
-9.7529041e-07
9.8257996e-06
-1.1685319e-06
9.8542922e-06
-1.4000945e-06
9.8875982e-06
-1.6774574e-06
9.9267449e-06
-2.0097372e-06
9.9725717e-06
-2.4077038e-06
1.0026585e-05
-2.8842448e-06
1.0089846e-05
-3.4546862e-06
1.0163906e-05
-4.137213e-06
1.0250192e-05
-4.953403e-06
1.0349502e-05
-5.9286013e-06
1.0463479e-05
-7.0927343e-06
1.0596821e-05
-8.4805241e-06
1.0759614e-05
-1.0132061e-05
1.0963018e-05
-1.2092827e-05
1.1201986e-05
-1.4409959e-05
1.1445739e-05
-1.7126574e-05
1.1641679e-05
-2.0276095e-05
1.1718655e-05
-2.3872941e-05
1.1587508e-05
-2.7894939e-05
1.118084e-05
-3.2287649e-05
1.0325146e-05
-3.6899463e-05
8.97205e-06
-4.1518948e-05
6.7333433e-06
-4.5707048e-05
2.5442124e-06
-4.8169064e-05
-3.6330271e-06
-4.7615201e-05
-1.0779029e-05
-4.4232626e-05
-1.9570223e-05
-3.7902188e-05
-3.0506969e-05
-2.7142013e-05
-4.4095433e-05
-1.0226254e-05
-5.9582755e-05
1.3187184e-05
-7.7103601e-05
4.2206402e-05
-9.8055174e-05
7.8538059e-05
-0.00012135274
0.00012227117
-0.0001490076
0.00017257532
-0.00018086362
0.00022992562
-0.00021790996
0.0002947853
-0.00025874695
0.00036598052
-0.0003085706
0.00044462123
-0.00036603839
0.00053531727
-0.00042938334
0.00063328796
-0.00048833361
0.00071366826
-0.00054906594
0.00075745637
-0.00061391734
0.00077622648
-0.00063610236
0.00074365304
-0.00056230526
0.00060729244
-0.0003910671
0.00038880459
0.00010739744
1.0301487e-05
-7.0173272e-07
1.032089e-05
-8.366738e-07
1.0343726e-05
-1.0024767e-06
1.0370628e-05
-1.2011277e-06
1.0402164e-05
-1.4391776e-06
1.043918e-05
-1.7243353e-06
1.0482719e-05
-2.0659851e-06
1.0533765e-05
-2.475164e-06
1.0593893e-05
-2.9651914e-06
1.0664456e-05
-3.5518336e-06
1.0747465e-05
-4.253837e-06
1.0844844e-05
-5.0934137e-06
1.0958514e-05
-6.0970967e-06
1.1091398e-05
-7.295643e-06
1.1249073e-05
-8.725099e-06
1.1441258e-05
-1.0427653e-05
1.1674724e-05
-1.2450431e-05
1.1940539e-05
-1.4841363e-05
1.2209784e-05
-1.7643742e-05
1.2436799e-05
-2.089189e-05
1.2553107e-05
-2.4600545e-05
1.2471827e-05
-2.8747546e-05
1.2119521e-05
-3.3273e-05
1.1324884e-05
-3.8013829e-05
1.0063515e-05
-4.2757396e-05
7.8829675e-06
-4.7004627e-05
3.7445101e-06
-4.934428e-05
-2.2977138e-06
-4.8494164e-05
-9.2696946e-06
-4.4718337e-05
-1.7925028e-05
-3.7803571e-05
-2.8705473e-05
-2.6148141e-05
-4.2056072e-05
-8.0819304e-06
-5.736539e-05
1.6827603e-05
-7.4745068e-05
4.7840253e-05
-9.5532084e-05
8.6622516e-05
-0.00011864259
0.00013319878
-0.00014618225
0.00018698358
-0.00017804006
0.0002488421
-0.0002152274
0.00031924315
-0.0002563167
0.00039689535
-0.00030638933
0.0004830199
-0.00036429223
0.00058250655
-0.00042835934
0.00069046122
-0.00048768484
0.00078036188
-0.00054849704
0.00083188414
-0.00061403252
0.00085812877
-0.00063649292
0.00083041338
-0.00056225249
0.00068865312
-0.00039243404
0.00045160629
0.00013327851
1.0794661e-05
-7.2210369e-07
1.0815767e-05
-8.6098042e-07
1.0840619e-05
-1.0316149e-06
1.0869961e-05
-1.2360909e-06
1.0904388e-05
-1.4810714e-06
1.0944875e-05
-1.7745931e-06
1.0992481e-05
-2.1262531e-06
1.1048345e-05
-2.5474463e-06
1.111431e-05
-3.0519236e-06
1.119203e-05
-3.6559288e-06
1.1283995e-05
-4.3788026e-06
1.1393186e-05
-5.2437288e-06
1.1522171e-05
-6.2780816e-06
1.1674158e-05
-7.5137304e-06
1.1856394e-05
-8.9882559e-06
1.2076779e-05
-1.0745659e-05
1.2337681e-05
-1.2834529e-05
1.2628852e-05
-1.5303956e-05
1.2923053e-05
-1.8198182e-05
1.3178828e-05
-2.1552346e-05
1.3329982e-05
-2.5380205e-05
1.3294091e-05
-2.9660321e-05
1.2987316e-05
-3.4324702e-05
1.2249317e-05
-3.9201219e-05
1.1078097e-05
-4.4083092e-05
8.9507915e-06
-4.8398377e-05
4.8616239e-06
-5.0618887e-05
-1.0467745e-06
-4.9486494e-05
-7.8459556e-06
-4.5341145e-05
-1.6364656e-05
-3.7870473e-05
-2.6992472e-05
-2.5348265e-05
-4.0116418e-05
-6.1577019e-06
-5.5249292e-05
2.0214389e-05
-7.2484304e-05
5.3172525e-05
-9.3106208e-05
9.4354116e-05
-0.00011603183
0.00014372181
-0.00014346094
0.00020093428
-0.00017532176