/*--------------------------------*- C++ -*----------------------------------*\
  =========                 |
  \\      /  F ield         | OpenFOAM: The Open Source CFD Toolbox
   \\    /   O peration     | Website:  https://openfoam.org
    \\  /    A nd           | Version:  8
     \\/     M anipulation  |
\*---------------------------------------------------------------------------*/
FoamFile
{
    version     2.0;
    format      ascii;
    class       volScalarField;
    location    "0.0399893";
    object      nut;
}
// * * * * * * * * * * * * * * * * * * * * * * * * * * * * * * * * * * * * * //

dimensions      [0 2 -1 0 0 0 0];

internalField   nonuniform List<scalar> 
20000
(
0.0010856961
0.0026142679
0.0034054852
0.0035920739
0.0030365964
0.0013359416
5.8015464e-05
6.8591813e-09
5.3319319e-09
5.3296686e-09
5.214421e-09
5.2495188e-09
5.192061e-09
5.2252034e-09
5.2261814e-09
5.2564752e-09
5.2790072e-09
5.3194049e-09
5.3628173e-09
5.4239844e-09
5.4965415e-09
5.5840603e-09
5.6850002e-09
5.800504e-09
5.9298726e-09
6.0731979e-09
6.2273342e-09
6.388693e-09
6.5514836e-09
6.7094319e-09
6.8558156e-09
6.9850941e-09
7.0957699e-09
7.186078e-09
7.2601224e-09
7.3077075e-09
7.3363334e-09
7.3612829e-09
7.3878619e-09
7.4004051e-09
7.4030181e-09
7.3674758e-09
7.3258319e-09
7.3123092e-09
7.3383575e-09
7.3572717e-09
7.3639838e-09
7.362004e-09
7.3557948e-09
7.3521623e-09
0.0010675581
0.0025618684
0.0033266573
0.0034782449
0.002896679
0.0011648093
2.5480685e-05
6.2750847e-09
5.3060387e-09
5.3077313e-09
5.1946033e-09
5.2312278e-09
5.1743282e-09
5.2084106e-09
5.210052e-09
5.2411081e-09
5.2647199e-09
5.3068814e-09
5.353743e-09
5.417726e-09
5.492751e-09
5.5833269e-09
5.6857112e-09
5.8045019e-09
5.9373091e-09
6.0838652e-09
6.2408705e-09
6.4042612e-09
6.5680457e-09
6.7257409e-09
6.8708156e-09
6.9979452e-09
7.1061363e-09
7.1943299e-09
7.2657211e-09
7.3101654e-09
7.3367564e-09
7.3650385e-09
7.3897316e-09
7.4003603e-09
7.4005393e-09
7.3607451e-09
7.3257613e-09
7.3131066e-09
7.3398929e-09
7.3583205e-09
7.3640988e-09
7.3620207e-09
7.355749e-09
7.3521502e-09
0.0010641673
0.002530015
0.0032582641
0.0033625582
0.0027377462
0.00098301423
8.3784692e-06
5.9414883e-09
5.2859977e-09
5.2895709e-09
5.1786329e-09
5.2158032e-09
5.1595918e-09
5.1941424e-09
5.1967278e-09
5.2289251e-09
5.2550125e-09
5.3005928e-09
5.3502999e-09
5.4162722e-09
5.4926583e-09
5.5840506e-09
5.6899944e-09
5.8119262e-09
5.9482785e-09
6.0982581e-09
6.2581948e-09
6.4235722e-09
6.5881154e-09
6.7452829e-09
6.8886656e-09
7.0131834e-09
7.1184395e-09
7.2042684e-09
7.2720976e-09
7.3130572e-09
7.3379823e-09
7.3690904e-09
7.392036e-09
7.4006707e-09
7.3957459e-09
7.351026e-09
7.3246491e-09
7.3169685e-09
7.3444057e-09
7.35905e-09
7.3640614e-09
7.3619789e-09
7.3557749e-09
7.3521542e-09
0.0010590881
0.0024957179
0.0031919467
0.0032558607
0.002578032
0.0008221757
2.5122039e-06
5.7575628e-09
5.2675717e-09
5.2737901e-09
5.1653706e-09
5.2033354e-09
5.1481707e-09
5.1836175e-09
5.188149e-09
5.2228437e-09
5.25126e-09
5.298337e-09
5.3495033e-09
5.416119e-09
5.4939772e-09
5.5889253e-09
5.6981012e-09
5.8237196e-09
5.9638263e-09
6.1173033e-09
6.280114e-09
6.447272e-09
6.6122511e-09
6.7684388e-09
6.9096196e-09
7.0310007e-09
7.1329328e-09
7.2160324e-09
7.2793737e-09
7.3171231e-09
7.3404092e-09
7.3730936e-09
7.3941897e-09
7.4018024e-09
7.3884026e-09
7.3460333e-09
7.3243667e-09
7.3192386e-09
7.346029e-09
7.3599662e-09
7.3643517e-09
7.3619722e-09
7.3557743e-09
7.3521461e-09
0.0010541688
0.0024606604
0.0031205211
0.0031418471
0.0024123139
0.00067758662
7.466859e-07
5.6542962e-09
5.2538995e-09
5.2615049e-09
5.1556951e-09
5.1915794e-09
5.1412803e-09
5.1784117e-09
5.1846091e-09
5.2204539e-09
5.2501798e-09
5.2979622e-09
5.3499614e-09
5.418924e-09
5.4996831e-09
5.5975161e-09
5.7103597e-09
5.8397433e-09
5.9837221e-09
6.1407635e-09
6.3063771e-09
6.4750868e-09
6.6401175e-09
6.7948473e-09
6.9332982e-09
7.0510364e-09
7.1492534e-09
7.2292216e-09
7.2874928e-09
7.3218893e-09
7.3440715e-09
7.3768521e-09
7.3963161e-09
7.4030795e-09
7.3802035e-09
7.3406607e-09
7.3238075e-09
7.3233019e-09
7.3484119e-09
7.3608825e-09
7.3647805e-09
7.361961e-09
7.3557823e-09
7.3521396e-09
0.0010492633
0.0024265046
0.0030516236
0.003032241
0.0022420743
0.0005533193
2.3791095e-07
5.5933382e-09
5.2456445e-09
5.2507943e-09
5.1452991e-09
5.1814922e-09
5.1382787e-09
5.1762283e-09
5.1834741e-09
5.2198368e-09
5.2503294e-09
5.2997177e-09
5.3541635e-09
5.4253993e-09
5.5089957e-09
5.6103121e-09
5.7268986e-09
5.8602904e-09
6.0082763e-09
6.1689031e-09
6.3371899e-09
6.5071529e-09
6.6717952e-09
6.8245569e-09
6.9597231e-09
7.0732907e-09
7.1674711e-09
7.2438066e-09
7.2965914e-09
7.3274236e-09
7.3490745e-09
7.3804069e-09
7.3980981e-09
7.4035551e-09
7.3715407e-09
7.336872e-09
7.3220498e-09
7.3268611e-09
7.3505203e-09
7.3619189e-09
7.3654109e-09
7.3619541e-09
7.3557859e-09
7.3521294e-09
0.0010443965
0.0023922238
0.0029822851
0.0029214861
0.002066528
0.00044324742
8.5477078e-08
5.5582163e-09
5.235942e-09
5.2401734e-09
5.1360204e-09
5.1750271e-09
5.1374139e-09
5.1754542e-09
5.1835753e-09
5.2212629e-09
5.2537547e-09
5.3050313e-09
5.3617181e-09
5.4356489e-09
5.5224376e-09
5.6272824e-09
5.7478686e-09
5.8854286e-09
6.0375252e-09
6.2017233e-09
6.3725022e-09
6.5433661e-09
6.7071351e-09
6.8573781e-09
6.988657e-09
7.0975463e-09
7.1875341e-09
7.2594741e-09
7.3065849e-09
7.3335994e-09
7.3551694e-09
7.3839965e-09
7.3995234e-09
7.403428e-09
7.3649706e-09
7.333629e-09
7.3204574e-09
7.3313002e-09
7.3526681e-09
7.3629998e-09
7.3661344e-09
7.3619505e-09
7.3557889e-09
7.3521175e-09
0.0010396053
0.0023576588
0.0029127934
0.0028120279
0.0018867903
0.0003447977
3.6256029e-08
5.5364334e-09
5.2312374e-09
5.2301385e-09
5.1298963e-09
5.169267e-09
5.1381143e-09
5.1771961e-09
5.1870371e-09
5.2261154e-09
5.2604325e-09
5.3137457e-09
5.3730305e-09
5.4497838e-09
5.5399329e-09
5.6486018e-09
5.7733853e-09
5.9153041e-09
6.0715981e-09
6.2393066e-09
6.4123348e-09
6.5836834e-09
6.7460472e-09
6.8931833e-09
7.0199326e-09
7.1236494e-09
7.209477e-09
7.2759402e-09
7.3173025e-09
7.34048e-09
7.3621976e-09
7.3878559e-09
7.4007768e-09
7.4030173e-09
7.3597379e-09
7.33122e-09
7.3198482e-09
7.3348198e-09
7.3546252e-09
7.3640953e-09
7.3669289e-09
7.3619481e-09
7.3557848e-09
7.3521032e-09
0.0010347445
0.0023223386
0.0028409177
0.0026964831
0.0017041998
0.00025710489
1.8711477e-08
5.5209472e-09
5.2322111e-09
5.2306656e-09
5.1299097e-09
5.1691771e-09
5.1424019e-09
5.1822539e-09
5.1936151e-09
5.234181e-09
5.2705671e-09
5.3260586e-09
5.3880547e-09
5.4678777e-09
5.5616465e-09
5.6743427e-09
5.8035548e-09
5.9499975e-09
6.1105486e-09
6.2816567e-09
6.456628e-09
6.6279869e-09
6.7883718e-09
6.9317692e-09
7.0533121e-09
7.1514266e-09
7.2330913e-09
7.2930109e-09
7.3286013e-09
7.3480058e-09
7.3698285e-09
7.3922473e-09
7.4023736e-09
7.4018778e-09
7.3559965e-09
7.3294817e-09
7.319632e-09
7.3381413e-09
7.3564415e-09
7.3651843e-09
7.3677821e-09
7.3619475e-09
7.3557761e-09
7.3520871e-09
0.0010298189
0.0022869063
0.0027674995
0.0025815524
0.0015222399
0.00017876626
1.1735413e-08
5.5119926e-09
5.2329382e-09
5.2335513e-09
5.1348973e-09
5.1756062e-09
5.1495348e-09
5.1903528e-09
5.2034251e-09
5.245572e-09
5.2841314e-09
5.3419702e-09
5.4069164e-09
5.4900208e-09
5.5876454e-09
5.7046177e-09
5.8384753e-09
5.9895968e-09
6.1544323e-09
6.328772e-09
6.5053116e-09
6.6761477e-09
6.8339323e-09
6.9729043e-09
7.088566e-09
7.1807983e-09
7.2579263e-09
7.3106511e-09
7.3403944e-09
7.3561216e-09
7.3776303e-09
7.3971045e-09
7.4051521e-09
7.3990004e-09
7.3533658e-09
7.3285568e-09
7.3196952e-09
7.3411974e-09
7.3581544e-09
7.3662548e-09
7.3686814e-09
7.3619482e-09
7.3557604e-09
7.3520696e-09
0.0010249071
0.0022518177
0.002693575
0.0024679992
0.0013430757
0.00010984172
8.6670905e-09
5.5063918e-09
5.2365253e-09
5.2381832e-09
5.1426222e-09
5.1836924e-09
5.1597132e-09
5.2015127e-09
5.2163999e-09
5.2602724e-09
5.3012023e-09
5.361576e-09
5.4296748e-09
5.516298e-09
5.6180314e-09
5.7395131e-09
5.8782299e-09
6.0341608e-09
6.2032659e-09
6.3806079e-09
6.5582728e-09
6.727998e-09
6.8825073e-09
7.0163041e-09
7.1254618e-09
7.2118024e-09
7.2835392e-09
7.328712e-09
7.352623e-09
7.3647983e-09
7.3853189e-09
7.4022625e-09
7.4091459e-09
7.3941083e-09
7.3507172e-09
7.3280332e-09
7.3202249e-09
7.3442606e-09
7.3599237e-09
7.3673129e-09
7.3695377e-09
7.3619317e-09
7.3557361e-09
7.3520514e-09
0.0010200549
0.0022175878
0.0026234596
0.0023535212
0.0011690758
5.5319965e-05
7.2009605e-09
5.5042172e-09
5.2424744e-09
5.2458554e-09
5.1529453e-09
5.1949228e-09
5.1728656e-09
5.2157478e-09
5.2326291e-09
5.2783737e-09
5.3218491e-09
5.3849441e-09
5.4564221e-09
5.5467982e-09
5.6528918e-09
5.7791251e-09
5.9228993e-09
6.0837428e-09
6.2570518e-09
6.4370984e-09
6.6153759e-09
6.7833411e-09
6.9338308e-09
7.061649e-09
7.1638005e-09
7.2444982e-09
7.3094898e-09
7.3470424e-09
7.3652611e-09
7.3740366e-09
7.3928235e-09
7.4072464e-09
7.4133925e-09
7.3881009e-09
7.3476687e-09
7.327791e-09
7.3219813e-09
7.3473611e-09
7.3619508e-09
7.3683225e-09
7.3702545e-09
7.3618894e-09
7.3557042e-09
7.3520332e-09
0.0010150959
0.0021829263
0.0025518153
0.0022361688
0.0010026682
2.1839848e-05
6.4672525e-09
5.5049169e-09
5.251076e-09
5.2557447e-09
5.1661055e-09
5.2089693e-09
5.189097e-09
5.2331752e-09
5.2521952e-09
5.2999569e-09
5.3461505e-09
5.4121545e-09
5.4872281e-09
5.5815979e-09
5.6923087e-09
5.8235329e-09
5.972548e-09
6.1383685e-09
6.3157597e-09
6.498142e-09
6.67645e-09
6.8419367e-09
6.9875829e-09
7.1086133e-09
7.2034483e-09
7.2785988e-09
7.3355684e-09
7.3654849e-09
7.3782785e-09
7.3838319e-09
7.4002424e-09
7.4115754e-09
7.4163019e-09
7.3809624e-09
7.3443267e-09
7.3276455e-09
7.3246778e-09
7.3506833e-09
7.3643703e-09
7.3694986e-09
7.3706343e-09
7.3618257e-09
7.3556654e-09
7.3520152e-09
0.001009978
0.0021480119
0.002479484
0.0021150285
0.00084666153
7.0637673e-06
6.0920362e-09
5.5094148e-09
5.2623061e-09
5.268876e-09
5.1822487e-09
5.2261361e-09
5.208556e-09
5.2538988e-09
5.2751889e-09
5.3250908e-09
5.374164e-09
5.4432646e-09
5.5221622e-09
5.6207744e-09
5.7363633e-09
5.8728203e-09
6.0272417e-09
6.198058e-09
6.379343e-09
6.5636164e-09
6.7412943e-09
6.9034944e-09
7.0433973e-09
7.1569188e-09
7.2443759e-09
7.3135419e-09
7.3616102e-09
7.3839331e-09
7.3915807e-09
7.3941043e-09
7.4076367e-09
7.4155013e-09
7.4169402e-09
7.3746213e-09
7.3412188e-09
7.3276179e-09
7.3284666e-09
7.3541299e-09
7.3670477e-09
7.3711166e-09
7.3707621e-09
7.3617423e-09
7.3556203e-09
7.3519972e-09
0.0010046908
0.0021131062
0.002406465
0.0019906694
0.00070286203
2.0624157e-06
5.8994663e-09
5.5178458e-09
5.2765915e-09
5.2852176e-09
5.2015673e-09
5.2464902e-09
5.2313019e-09
5.2779581e-09
5.301631e-09
5.3538068e-09
5.4059283e-09
5.4783225e-09
5.561281e-09
5.6643936e-09
5.7851278e-09
5.9270533e-09
6.087027e-09
6.2628138e-09
6.4477241e-09
6.6333615e-09
6.8096587e-09
6.967662e-09
7.1008914e-09
7.2063848e-09
7.2866208e-09
7.3486412e-09
7.3872634e-09
7.402356e-09
7.4049617e-09
7.4047199e-09
7.4149787e-09
7.4200883e-09
7.4167263e-09
7.369618e-09
7.3388255e-09
7.3268597e-09
7.3329348e-09
7.3574445e-09
7.3696257e-09
7.3733257e-09
7.3707874e-09
7.3616415e-09
7.3555686e-09
7.3519788e-09
0.00099939565
0.0020787502
0.0023329295
0.0018641254
0.00057267588
6.0039222e-07
5.8037253e-09
5.5291597e-09
5.2941291e-09
5.304627e-09
5.2240209e-09
5.269996e-09
5.2572952e-09
5.3053278e-09
5.3315259e-09
5.3861106e-09
5.4414771e-09
5.5173793e-09
5.6046508e-09
5.7125351e-09
5.8386871e-09
5.9863086e-09
6.15195e-09
6.3326266e-09
6.5208102e-09
6.7071887e-09
6.8812426e-09
7.0340374e-09
7.1597305e-09
7.2569545e-09
7.330049e-09
7.3831464e-09
7.41214e-09
7.4208773e-09
7.4181093e-09
7.4153792e-09
7.4224795e-09
7.4260706e-09
7.4161429e-09
7.3662124e-09
7.3371217e-09
7.3266145e-09
7.3371693e-09
7.3606004e-09
7.3721479e-09
7.3756146e-09
7.3708057e-09
7.3615265e-09
7.3555096e-09
7.3519592e-09
0.00099423643
0.0020454834
0.0022599981
0.001731703
0.00045797113
1.9141427e-07
5.7605786e-09
5.5433531e-09
5.3147865e-09
5.326954e-09
5.2494689e-09
5.2965671e-09
5.2864877e-09
5.3359977e-09
5.3648755e-09
5.422034e-09
5.4808504e-09
5.5604898e-09
5.6523395e-09
5.7652781e-09
5.8971229e-09
6.0506543e-09
6.2220384e-09
6.4074544e-09
6.5984729e-09
6.7848568e-09
6.9556792e-09
7.102205e-09
7.2197018e-09
7.3086397e-09
7.3738609e-09
7.4166551e-09
7.4363381e-09
7.4394904e-09
7.4308562e-09
7.4258991e-09
7.4301297e-09
7.4329762e-09
7.4151249e-09
7.3641239e-09
7.3362676e-09
7.3265291e-09
7.3417146e-09
7.3636458e-09
7.374514e-09
7.3777831e-09
7.3708037e-09
7.3613992e-09
7.3554418e-09
7.3519379e-09
0.00098928577
0.0020133801
0.0021939899
0.001593611
0.00036121409
7.1867913e-08
5.7444181e-09
5.5602738e-09
5.338172e-09
5.3521267e-09
5.2778874e-09
5.3261874e-09
5.3188791e-09
5.3699712e-09
5.4017072e-09
5.4616041e-09
5.5240951e-09
5.60772e-09
5.7044296e-09
5.8227188e-09
5.9605319e-09
6.1201695e-09
6.2973228e-09
6.4872491e-09
6.6805569e-09
6.8660759e-09
7.0325539e-09
7.1718125e-09
7.2807509e-09
7.3613087e-09
7.41703e-09
7.4489035e-09
7.4604099e-09
7.4575525e-09
7.4433603e-09
7.4361857e-09
7.4375559e-09
7.4398398e-09
7.4130592e-09
7.3624612e-09
7.3358269e-09
7.3264817e-09
7.3464217e-09
7.3665865e-09
7.3765958e-09
7.3796469e-09
7.3706149e-09
7.3612501e-09
7.3553642e-09
7.3519142e-09
0.00098435545
0.0019808636
0.0021261175
0.0014493256
0.0002735377
3.240958e-08
5.7437821e-09
5.5800041e-09
5.3644098e-09
5.3801812e-09
5.3092872e-09
5.3588765e-09
5.3544832e-09
5.4072762e-09
5.4420458e-09
5.5048726e-09
5.5712728e-09
5.6591469e-09
5.7610113e-09
5.884955e-09
6.0290064e-09
6.1949186e-09
6.3778107e-09
6.5719277e-09
6.7668509e-09
6.9504837e-09
7.1114349e-09
7.2426455e-09
7.3428874e-09
7.4142683e-09
7.4588488e-09
7.4799207e-09
7.4847177e-09
7.4748332e-09
7.455691e-09
7.4459646e-09
7.4445744e-09
7.4450201e-09
7.4096331e-09
7.3607819e-09
7.3356187e-09
7.3274351e-09
7.3513051e-09
7.3694892e-09
7.3783611e-09
7.3811208e-09
7.3703395e-09
7.3610746e-09
7.3552776e-09
7.3518883e-09
0.00097957096
0.0019483521
0.0020582764
0.001301009
0.0001952935
1.7973861e-08
5.7527203e-09
5.6025529e-09
5.3934861e-09
5.4111289e-09
5.3436925e-09
5.39465e-09
5.3933234e-09
5.4479385e-09
5.4859392e-09
5.551892e-09
5.6224582e-09
5.7148646e-09
5.8221941e-09
5.9521023e-09
6.1026516e-09
6.2749717e-09
6.4635074e-09
6.6613874e-09
6.8570971e-09
7.0376704e-09
7.1919546e-09
7.3146591e-09
7.4058885e-09
7.4663152e-09
7.4990725e-09
7.5104408e-09
7.508544e-09
7.4913953e-09
7.4678625e-09
7.4554102e-09
7.4512182e-09
7.4468038e-09
7.4050019e-09
7.3590867e-09
7.3358485e-09
7.3295687e-09
7.3563037e-09
7.3725883e-09
7.3798444e-09
7.3818222e-09
7.3700163e-09
7.3608795e-09
7.3551834e-09
7.3518604e-09
0.0009749837
0.0019156581
0.0019899673
0.0011517581
0.0001260318
1.2023069e-08
5.7680763e-09
5.6279217e-09
5.4254189e-09
5.4449847e-09
5.3811158e-09
5.4335271e-09
5.4354257e-09
5.4920036e-09
5.5334394e-09
5.6027437e-09
5.6777434e-09
5.7749804e-09
5.8880929e-09
6.0242756e-09
6.1815622e-09
6.3603795e-09
6.5543804e-09
6.755466e-09
6.9509571e-09
7.1271969e-09
7.2738792e-09
7.3878378e-09
7.468735e-09
7.5167526e-09
7.5377248e-09
7.5408988e-09
7.5314144e-09
7.507155e-09
7.4796271e-09
7.4645039e-09
7.4579818e-09
7.4472614e-09
7.3994181e-09
7.3575797e-09
7.3374852e-09
7.333254e-09
7.3610994e-09
7.3760026e-09
7.3815208e-09
7.3820644e-09
7.3696584e-09
7.3606682e-09
7.3550822e-09
7.351831e-09
0.00097050526
0.0018825072
0.0019205715
0.0010100079
6.9289752e-05
9.3187695e-09
5.7881931e-09
5.6561699e-09
5.4602083e-09
5.4817625e-09
5.4215719e-09
5.4755412e-09
5.480834e-09
5.5395319e-09
5.5846274e-09
5.6575164e-09
5.7372377e-09
5.8396184e-09
5.9588427e-09
6.1016074e-09
6.265853e-09
6.451203e-09
6.6503928e-09
6.8539573e-09
7.0480438e-09
7.2186721e-09
7.3571481e-09
7.4618066e-09
7.5303171e-09
7.5651458e-09
7.5756831e-09
7.5705411e-09
7.553238e-09
7.5220634e-09
7.4909413e-09
7.4734483e-09
7.464949e-09
7.4471732e-09
7.3937265e-09
7.3562612e-09
7.3399956e-09
7.3380708e-09
7.365844e-09
7.3797469e-09
7.3841605e-09
7.3821124e-09
7.369272e-09
7.360443e-09
7.3549747e-09
7.3518008e-09
0.0009658403
0.0018461727
0.0018484686
0.0008768865
3.0796645e-05
7.998799e-09
5.8120123e-09
5.6871831e-09
5.4978386e-09
5.521465e-09
5.4651109e-09
5.5207426e-09
5.5296184e-09
5.5906023e-09
5.6395942e-09
5.7163244e-09
5.8010613e-09
5.9089105e-09
6.0345786e-09
6.1842287e-09
6.355625e-09
6.5474794e-09
6.75145e-09
6.9565734e-09
7.147919e-09
7.3118009e-09
7.4417344e-09
7.5353701e-09
7.5899307e-09
7.6118012e-09
7.6130077e-09
7.5990465e-09
7.5738829e-09
7.5361197e-09
7.5017664e-09
7.4822431e-09
7.472108e-09
7.4463221e-09
7.388919e-09
7.3551768e-09
7.3420523e-09
7.3437736e-09
7.3705597e-09
7.3835653e-09
7.3873934e-09
7.3821053e-09
7.3688659e-09
7.3602053e-09
7.3548615e-09
7.3517704e-09
0.00096077736
0.0018068367
0.0017726959
0.00075294271
1.1244986e-05
7.3303748e-09
5.8391944e-09
5.7211153e-09
5.5383875e-09
5.5642114e-09
5.5118019e-09
5.5692202e-09
5.5818548e-09
5.645313e-09
5.6984497e-09
5.7792839e-09
5.8693472e-09
5.983006e-09
6.1154589e-09
6.2722927e-09
6.4509995e-09
6.6492445e-09
6.8574264e-09
7.0629769e-09
7.250176e-09
7.4064512e-09
7.5272281e-09
7.6074014e-09
7.6470543e-09
7.6575471e-09
7.6490406e-09
7.6262654e-09
7.5933018e-09
7.5493992e-09
7.5121377e-09
7.4907202e-09
7.4790987e-09
7.4430739e-09
7.3854942e-09
7.3546076e-09
7.343119e-09
7.3503147e-09
7.3750879e-09
7.3870437e-09
7.3905147e-09
7.3819779e-09
7.3684484e-09
7.3599552e-09
7.3547435e-09
7.3517403e-09
0.00095520689
0.0017639699
0.0016917144
0.00063829656
3.6143085e-06
6.987653e-09
5.8698264e-09
5.7580079e-09
5.5819426e-09
5.6100251e-09
5.5617187e-09
5.6210359e-09
5.6376363e-09
5.7037651e-09
5.7613058e-09
5.8465254e-09
5.9422375e-09
6.062061e-09
6.2016461e-09
6.365948e-09
6.5520783e-09
6.7564745e-09
6.9680994e-09
7.1727566e-09
7.3544691e-09
7.5025841e-09
7.6123586e-09
7.6771277e-09
7.7021612e-09
7.7021457e-09
7.6835327e-09
7.6520583e-09
7.611448e-09
7.561964e-09
7.5221137e-09
7.4987125e-09
7.4849402e-09
7.4388122e-09
7.3825372e-09
7.3543216e-09
7.3440442e-09
7.356958e-09
7.3792244e-09
7.3899151e-09
7.3930602e-09
7.381347e-09
7.3679981e-09
7.3596918e-09
7.3546232e-09
7.351711e-09
0.00094898532
0.0017170342
0.001599551
0.00053379915
1.1221884e-06
6.8147876e-09
5.9036629e-09
5.7978475e-09
5.6285034e-09
5.658982e-09
5.6149424e-09
5.6762973e-09
5.6970622e-09
5.7660711e-09
5.8282851e-09
5.9181803e-09
6.0198925e-09
6.1462613e-09
6.2933353e-09
6.4653715e-09
6.6589595e-09
6.869128e-09
7.0831957e-09
7.2855079e-09
7.4605913e-09
7.5999656e-09
7.6958103e-09
7.7439172e-09
7.756043e-09
7.7449783e-09
7.7163252e-09
7.6763242e-09
7.6282937e-09
7.5737729e-09
7.5316766e-09
7.5063439e-09
7.4872502e-09
7.4339038e-09
7.379906e-09
7.3541508e-09
7.3452563e-09
7.3637168e-09
7.3829606e-09
7.3920597e-09
7.3945662e-09
7.3805571e-09
7.3675075e-09
7.3594217e-09
7.3545028e-09
7.3516828e-09
0.00094223191
0.001667154
0.0014968141
0.00044028359
3.6518566e-07
6.7326903e-09
5.9408849e-09
5.840831e-09
5.6782163e-09
5.7111888e-09
5.6715698e-09
5.7350908e-09
5.7602263e-09
5.8323335e-09
5.8995018e-09
5.994407e-09
6.1024945e-09
6.2358088e-09
6.3907245e-09
6.5707265e-09
6.7717099e-09
6.9870728e-09
7.2023442e-09
7.4008356e-09
7.5684326e-09
7.6973003e-09
7.776761e-09
7.8082161e-09
7.8083939e-09
7.7857846e-09
7.7472949e-09
7.6989777e-09
7.6438128e-09
7.5847265e-09
7.5407674e-09
7.514063e-09
7.4880427e-09
7.428821e-09
7.3785889e-09
7.3545168e-09
7.3474188e-09
7.3702178e-09
7.3863728e-09
7.3936424e-09
7.3952083e-09
7.3797124e-09
7.3670025e-09
7.3591504e-09
7.3543835e-09
7.3516559e-09
0.00093517118
0.0016154378
0.0013848923
0.0003548951
1.3275169e-07
6.7000194e-09
5.9813427e-09
5.8868774e-09
5.7310851e-09
5.7666793e-09
5.7316719e-09
5.7974996e-09
5.8272132e-09
5.9026623e-09
5.9750967e-09
6.0753861e-09
6.1902634e-09
6.3309399e-09
6.4940423e-09
6.6821947e-09
6.8903804e-09
7.1101249e-09
7.3251605e-09
7.5184313e-09
7.6778605e-09
7.7932188e-09
7.8543917e-09
7.8708169e-09
7.8585683e-09
7.8244242e-09
7.77635e-09
7.719958e-09
7.6579995e-09
7.5947955e-09
7.5494075e-09
7.5219161e-09
7.4879472e-09
7.4237207e-09
7.378103e-09
7.3563437e-09
7.3513673e-09
7.3762462e-09
7.3899621e-09
7.3952749e-09
7.3954506e-09
7.378851e-09
7.3664949e-09
7.3588805e-09
7.3542657e-09
7.3516307e-09
0.0009279127
0.0015622935
0.0012672811
0.00027977743
5.7195217e-08
6.6948106e-09
6.0248859e-09
5.9360688e-09
5.7871998e-09
5.8255536e-09
5.7953287e-09
5.8635992e-09
5.8981158e-09
5.9771976e-09
6.0552617e-09
6.1613595e-09
6.2834546e-09
6.4319065e-09
6.6035147e-09
6.7999223e-09
7.0149377e-09
7.237988e-09
7.4512313e-09
7.6380541e-09
7.7879442e-09
7.8865745e-09
7.9288656e-09
7.9316185e-09
7.9062043e-09
7.8607798e-09
7.8034191e-09
7.7392232e-09
7.6708717e-09
7.6040922e-09
7.5574156e-09
7.5290383e-09
7.4867891e-09
7.4190333e-09
7.3781098e-09
7.3597715e-09
7.3569302e-09
7.3815778e-09
7.3938938e-09
7.3978736e-09
7.3954342e-09
7.3779907e-09
7.3659899e-09
7.3586128e-09
7.3541495e-09
7.3516075e-09
0.00092036874
0.0015064717
0.0011553414
0.00021113732
2.9180034e-08
6.7057334e-09
6.0717736e-09
5.9885473e-09
5.8466623e-09
5.8878442e-09
5.8625845e-09
5.9334643e-09
5.9730741e-09
6.0561435e-09
6.1402543e-09
6.2525996e-09
6.3823525e-09
6.5389918e-09
6.7193887e-09
6.9240547e-09
7.1453011e-09
7.3703312e-09
7.5802078e-09
7.759594e-09
7.8972182e-09
7.9764147e-09
8.0009805e-09
7.9898871e-09
7.9511753e-09
7.8947689e-09
7.8284531e-09
7.7567553e-09
7.6824609e-09
7.6127299e-09
7.5647581e-09
7.5329397e-09
7.4826895e-09
7.4153945e-09
7.3784104e-09
7.3637787e-09
7.3631458e-09
7.3866726e-09
7.3979267e-09
7.4013415e-09
7.3953824e-09
7.3771424e-09
7.3654886e-09
7.3583472e-09
7.3540353e-09
7.3515867e-09
0.00091291009
0.0014476172
0.0010414051
0.00014809752
1.776195e-08
6.7264486e-09
6.121832e-09
6.0442163e-09
5.9093935e-09
5.9535725e-09
5.9335304e-09
6.0072859e-09
6.0523331e-09
6.1397538e-09
6.2303677e-09
6.3494207e-09
6.4872569e-09
6.6524748e-09
6.8418917e-09
7.0546583e-09
7.2812737e-09
7.5067402e-09
7.7117605e-09
7.8826745e-09
8.0040985e-09
8.0623148e-09
8.0711133e-09
8.0450682e-09
7.993347e-09
7.9263375e-09
7.8514298e-09
7.7725588e-09
7.6927956e-09
7.6206841e-09
7.5718585e-09
7.5344643e-09
7.4768386e-09
7.4123156e-09
7.3794197e-09
7.3670898e-09
7.3698854e-09
7.3915611e-09
7.4017457e-09
7.4047331e-09
7.3946239e-09
7.376321e-09
7.3649891e-09
7.3580836e-09
7.353924e-09
7.3515686e-09
0.00090641111
0.0013950587
0.00092829677
9.2327085e-05
1.2617358e-08
6.7533925e-09
6.1749846e-09
6.1030567e-09
5.9755093e-09
6.022934e-09
6.0084752e-09
6.0853919e-09
6.1362411e-09
6.2283554e-09
6.3259244e-09
6.4521236e-09
6.5984826e-09
6.7726624e-09
6.9712555e-09
7.1917725e-09
7.4226051e-09
7.6468512e-09
7.8456463e-09
8.0058069e-09
8.1075881e-09
8.1450263e-09
8.1383971e-09
8.0970552e-09
8.032643e-09
7.9554612e-09
7.8723536e-09
7.7866573e-09
7.7019014e-09
7.6280514e-09
7.5789874e-09
7.5347392e-09
7.4697634e-09
7.4095286e-09
7.3804773e-09
7.3700488e-09
7.3769309e-09
7.3959519e-09
7.404873e-09
7.4074296e-09
7.3932737e-09
7.3754635e-09
7.3644844e-09
7.3578241e-09
7.353817e-09
7.3515533e-09
0.00090018613
0.0013399987
0.00081684212
4.8445007e-05
1.012013e-08
6.7845947e-09
6.2313857e-09
6.1654085e-09
6.0454043e-09
6.0963849e-09
6.0878301e-09
6.1681595e-09
6.2251047e-09
6.3223426e-09
6.4272228e-09
6.5610495e-09
6.7163598e-09
6.8998535e-09
7.1076571e-09
7.3353143e-09
7.5689281e-09
7.7902636e-09
7.9815994e-09
8.1273148e-09
8.2065738e-09
8.2254282e-09
8.2021086e-09
8.1456768e-09
8.0690159e-09
7.9821425e-09
7.89124e-09
7.7990695e-09
7.7098282e-09
7.6347864e-09
7.5856342e-09
7.5345524e-09
7.4623885e-09
7.4070718e-09
7.3816246e-09
7.3729274e-09
7.38396e-09
7.399783e-09
7.4070553e-09
7.4088477e-09
7.3917562e-09
7.3745738e-09
7.3639849e-09
7.3575725e-09
7.3537154e-09
7.351541e-09
0.00089450337
0.0012834265
0.00070943586
2.088175e-05
8.8523811e-09
6.820598e-09
6.2916917e-09
6.2319771e-09
6.1196508e-09
6.1743431e-09
6.1719243e-09
6.2558416e-09
6.3191848e-09
6.4219951e-09
6.5345975e-09
6.6765308e-09
6.8412467e-09
7.0343631e-09
7.251251e-09
7.4851473e-09
7.7198869e-09
7.9366293e-09
8.1188036e-09
8.2456651e-09
8.3015082e-09
8.3027646e-09
8.2620208e-09
8.1908549e-09
8.1024559e-09
8.0064012e-09
7.9080922e-09
7.8097916e-09
7.7166787e-09
7.6408902e-09
7.5894127e-09
7.5325668e-09
7.4556908e-09
7.4058784e-09
7.3831249e-09
7.3761608e-09
7.3906789e-09
7.4032878e-09
7.4085883e-09
7.409336e-09
7.390223e-09
7.3736912e-09
7.3635004e-09
7.3573308e-09
7.3536206e-09
7.351532e-09
0.00088961931
0.0012251425
0.00060752787
7.6293181e-06
8.1985569e-09
6.8639054e-09
6.3564702e-09
6.3030493e-09
6.1984756e-09
6.2569354e-09
6.2609005e-09
6.3486356e-09
6.418737e-09
6.5276072e-09
6.6483982e-09
6.7989745e-09
6.9735147e-09
7.1764685e-09
7.4020735e-09
7.640981e-09
7.8750658e-09
8.085606e-09
8.2555042e-09
8.3596177e-09
8.3931224e-09
8.3762773e-09
8.3179515e-09
8.2325323e-09
8.1329831e-09
8.0282617e-09
7.9228858e-09
7.8188255e-09
7.7226174e-09
7.6465833e-09
7.5908694e-09
7.528043e-09
7.4502474e-09
7.4054482e-09
7.3851585e-09
7.3801305e-09
7.3967136e-09
7.4066677e-09
7.4100844e-09
7.4094039e-09
7.3887251e-09
7.3728335e-09
7.3630345e-09
7.3570996e-09
7.3535324e-09
7.3515266e-09
0.00088583389
0.0011687285
0.00051229291
2.5388623e-06
7.867383e-09
6.9153554e-09
6.425576e-09
6.378391e-09
6.2817961e-09
6.3442184e-09
6.3549236e-09
6.4468162e-09
6.5240901e-09
6.6395425e-09
6.7690513e-09
6.9287826e-09
7.1135596e-09
7.3264389e-09
7.5601106e-09
7.8024912e-09
8.0340749e-09
8.2368549e-09
8.3898411e-09
8.4685368e-09
8.481723e-09
8.4452916e-09
8.3697946e-09
8.270707e-09
8.1606394e-09
8.0477394e-09
7.9356014e-09
7.8262968e-09
7.7278559e-09
7.6520249e-09
7.5911682e-09
7.5211248e-09
7.4458597e-09
7.4054941e-09
7.388214e-09
7.3850264e-09
7.401677e-09
7.4099353e-09
7.4125703e-09
7.4092733e-09
7.3872832e-09
7.3720072e-09
7.3625878e-09
7.3568786e-09
7.3534491e-09
7.3515251e-09
0.00088233434
0.001105109
0.0004241645
8.4089955e-07
7.7084704e-09
6.9698031e-09
6.4986765e-09
6.4580309e-09
6.3697852e-09
6.4364568e-09
6.4543343e-09
6.5507391e-09
6.6356605e-09
6.7582506e-09
6.8970016e-09
7.0664306e-09
7.2617662e-09
7.4844518e-09
7.725197e-09
7.9692598e-09
8.1964201e-09
8.3890207e-09
8.5202043e-09
8.5730067e-09
8.5662545e-09
8.509685e-09
8.4174765e-09
8.3054086e-09
8.1854772e-09
8.0648499e-09
7.9463178e-09
7.8325934e-09
7.7326246e-09
7.6565693e-09
7.5910092e-09
7.5126864e-09
7.4421207e-09
7.4063257e-09
7.3922038e-09
7.3902876e-09
7.406112e-09
7.4134513e-09
7.4156867e-09
7.4089946e-09
7.3859118e-09
7.3712146e-09
7.362159e-09
7.3566671e-09
7.3533711e-09
7.351528e-09
0.00087905487
0.0010365504
0.00034413003
3.0126696e-07
7.6398473e-09
7.029001e-09
6.576298e-09
6.5424901e-09
6.462853e-09
6.5340764e-09
6.5595278e-09
6.6608475e-09
6.7539042e-09
6.884222e-09
7.0327567e-09
7.2123664e-09
7.418513e-09
7.6506262e-09
7.8971136e-09
8.140918e-09
8.3617282e-09
8.5401309e-09
8.6451429e-09
8.6740322e-09
8.645814e-09
8.5692706e-09
8.4609912e-09
8.3367012e-09
8.2075505e-09
8.0796426e-09
7.9553202e-09
7.8382412e-09
7.7369945e-09
7.6583908e-09
7.5890156e-09
7.5035167e-09
7.4390201e-09
7.4078872e-09
7.3963461e-09
7.395723e-09
7.4102765e-09
7.4169125e-09
7.4189551e-09
7.4076628e-09
7.3846181e-09
7.3704535e-09
7.3617452e-09
7.356465e-09
7.3532998e-09
7.3515356e-09
0.00087563237
0.00096200707
0.00027224505
1.2406354e-07
7.6223686e-09
7.0931988e-09
6.6588628e-09
6.6321236e-09
6.561418e-09
6.6374687e-09
6.6709727e-09
6.7776247e-09
6.8793442e-09
7.0179779e-09
7.1768192e-09
7.3671001e-09
7.5841034e-09
7.8249301e-09
8.0754625e-09
8.3169686e-09
8.5294137e-09
8.6879503e-09
8.7645844e-09
8.7709025e-09
8.7200098e-09
8.6239627e-09
8.5003699e-09
8.364665e-09
8.2269235e-09
8.0922597e-09
7.9630776e-09
7.8432517e-09
7.7403446e-09
7.6591193e-09
7.5849817e-09
7.4946983e-09
7.4366372e-09
7.4100315e-09
7.4003896e-09
7.4014975e-09
7.414138e-09
7.419715e-09
7.4211602e-09
7.4055968e-09
7.38336e-09
7.3697058e-09
7.3613449e-09
7.3562739e-09
7.3532361e-09
7.3515481e-09
0.00087190954
0.00088235062
0.00020921051
6.1062272e-08
7.6345278e-09
7.1626064e-09
6.7467136e-09
6.7273118e-09
6.6659139e-09
6.7471207e-09
6.789178e-09
6.9016178e-09
7.0125211e-09
7.1600684e-09
7.3297477e-09
7.5310622e-09
7.758795e-09
8.0072542e-09
8.2598699e-09
8.4968625e-09
8.6976194e-09
8.8308592e-09
8.8792185e-09
8.8626285e-09
8.7886567e-09
8.6737321e-09
8.5356961e-09
8.3893966e-09
8.2436974e-09
8.1029685e-09
7.9699336e-09
7.8462547e-09
7.7417602e-09
7.6592338e-09
7.5782877e-09
7.4873797e-09
7.435192e-09
7.4123598e-09
7.4041694e-09
7.4075842e-09
7.4175855e-09
7.4216169e-09
7.4221012e-09
7.403339e-09
7.3820765e-09
7.3689749e-09
7.3609625e-09
7.3560953e-09
7.3531806e-09
7.351566e-09
0.0008672816
0.00079726721
0.00015453687
3.5749858e-08
7.6653083e-09
7.2375528e-09
6.8402857e-09
6.8285466e-09
6.7768767e-09
6.8635663e-09
6.914707e-09
7.0333764e-09
7.1540039e-09
7.3110734e-09
7.4920889e-09
7.7047431e-09
7.9427169e-09
8.1973133e-09
8.4498464e-09
8.6799791e-09
8.8640025e-09
8.9674156e-09
8.9897944e-09
8.948136e-09
8.8516064e-09
8.7186118e-09
8.5670743e-09
8.410999e-09
8.2580484e-09
8.1121278e-09
7.9754e-09
7.8474588e-09
7.7423725e-09
7.6580954e-09
7.5693403e-09
7.4817723e-09
7.4347288e-09
7.4149079e-09
7.4079429e-09
7.4134381e-09
7.4207201e-09
7.4231261e-09
7.4223387e-09
7.401091e-09
7.3808153e-09
7.3682745e-09
7.3606017e-09
7.35593e-09
7.3531336e-09
7.3515894e-09
0.0008619592
0.00070147546
0.00010655255
2.4003654e-08
7.7090396e-09
7.3185493e-09
6.9401408e-09
6.9363806e-09
6.8948692e-09
6.9873617e-09
7.0481091e-09
7.1734837e-09
7.3043712e-09
7.4716216e-09
7.6644497e-09
7.8885026e-09
8.1359088e-09
8.3947771e-09
8.6448757e-09
8.8654341e-09
9.026083e-09
9.0980237e-09
9.094933e-09
9.0273241e-09
8.9088148e-09
8.7587005e-09
8.5946323e-09
8.4296029e-09
8.2702417e-09
8.1200317e-09
7.9776836e-09
7.8478378e-09
7.742574e-09
7.6553277e-09
7.5592794e-09
7.4771047e-09
7.4347483e-09
7.4176273e-09
7.4118111e-09
7.4186182e-09
7.4237146e-09
7.4253847e-09
7.4222855e-09
7.3989237e-09
7.3796031e-09
7.3676117e-09
7.3602638e-09
7.3557783e-09
7.3530953e-09
7.3516189e-09
0.00085829496
0.0006336118
6.9190109e-05
1.8077058e-08
7.7632778e-09
7.4062321e-09
7.04684e-09
7.0513713e-09
7.020401e-09
7.1190163e-09
7.1899659e-09
7.3225334e-09
7.4642923e-09
7.642373e-09
7.8474022e-09
8.0827002e-09
8.3382247e-09
8.5991603e-09
8.8441908e-09