/*--------------------------------*- C++ -*----------------------------------*\
  =========                 |
  \\      /  F ield         | OpenFOAM: The Open Source CFD Toolbox
   \\    /   O peration     | Website:  https://openfoam.org
    \\  /    A nd           | Version:  8
     \\/     M anipulation  |
\*---------------------------------------------------------------------------*/
FoamFile
{
    version     2.0;
    format      ascii;
    class       volScalarField;
    location    "0.0399893";
    object      nuTilda;
}
// * * * * * * * * * * * * * * * * * * * * * * * * * * * * * * * * * * * * * //

dimensions      [0 2 -1 0 0 0 0];

internalField   nonuniform List<scalar> 
20000
(
0.0010876179
0.0026145999
0.0034056793
0.0035922456
0.0030368293
0.0013370689
0.00012126763
1.0752324e-05
1.010375e-05
1.0094545e-05
1.0040108e-05
1.0048129e-05
1.0016356e-05
1.002106e-05
1.0012403e-05
1.0011692e-05
1.0007472e-05
1.0005918e-05
1.000378e-05
1.0002705e-05
1.0002225e-05
1.0002181e-05
1.0002426e-05
1.0002488e-05
1.0002373e-05
1.0002016e-05
1.0001575e-05
1.0001209e-05
1.0001087e-05
1.0001139e-05
1.0001272e-05
1.0001183e-05
1.0001062e-05
1.0001055e-05
1.0001111e-05
1.000123e-05
1.000135e-05
1.0001424e-05
1.0001453e-05
1.000136e-05
1.0001245e-05
1.0000906e-05
1.0000601e-05
1.0000338e-05
1.0000175e-05
1.0000106e-05
1.0000048e-05
1.0000014e-05
1.0000011e-05
1.0000038e-05
0.0010695567
0.002562216
0.0033268617
0.0034784287
0.0028969355
0.0011662902
9.1151301e-05
1.0527535e-05
1.010166e-05
1.0093668e-05
1.0039672e-05
1.0047995e-05
1.001608e-05
1.0020864e-05
1.0012244e-05
1.001155e-05
1.0007423e-05
1.0005881e-05
1.0003779e-05
1.0002699e-05
1.0002217e-05
1.0002178e-05
1.0002406e-05
1.0002463e-05
1.0002348e-05
1.0002e-05
1.000156e-05
1.0001182e-05
1.0001051e-05
1.0001084e-05
1.0001214e-05
1.0001125e-05
1.0001006e-05
1.0000997e-05
1.000105e-05
1.0001174e-05
1.0001305e-05
1.0001389e-05
1.0001412e-05
1.0001331e-05
1.0001153e-05
1.0000906e-05
1.0000569e-05
1.0000337e-05
1.0000178e-05
1.0000095e-05
1.0000047e-05
1.0000011e-05
1.0000009e-05
1.0000036e-05
0.0010661846
0.0025303723
0.0032584777
0.0033627551
0.0027380331
0.00098508201
6.5829361e-05
1.0392533e-05
1.0099551e-05
1.0092311e-05
1.0039258e-05
1.0047692e-05
1.0015812e-05
1.0020519e-05
1.0012072e-05
1.0011387e-05
1.0007347e-05
1.0005819e-05
1.0003756e-05
1.0002683e-05
1.0002206e-05
1.0002173e-05
1.0002397e-05
1.0002451e-05
1.000234e-05
1.0002003e-05
1.0001575e-05
1.0001194e-05
1.0001043e-05
1.000107e-05
1.0001202e-05
1.0001116e-05
1.0000985e-05
1.0000979e-05
1.0001034e-05
1.0001158e-05
1.000129e-05
1.000138e-05
1.0001393e-05
1.0001324e-05
1.0001082e-05
1.0000924e-05
1.0000504e-05
1.0000318e-05
1.0000183e-05
1.0000095e-05
1.0000046e-05
1.0000011e-05
1.0000008e-05
1.0000036e-05
0.001061131
0.0024960861
0.0031921697
0.0032560709
0.0025783551
0.00082511247
4.7751775e-05
1.0318049e-05
1.009746e-05
1.0090933e-05
1.0038779e-05
1.0047322e-05
1.0015532e-05
1.0020229e-05
1.0011908e-05
1.0011221e-05
1.0007276e-05
1.0005758e-05
1.0003735e-05
1.0002668e-05
1.0002195e-05
1.0002171e-05
1.0002386e-05
1.0002435e-05
1.0002322e-05
1.0001996e-05
1.0001574e-05
1.0001192e-05
1.0001037e-05
1.0001061e-05
1.0001198e-05
1.0001113e-05
1.0000973e-05
1.0000966e-05
1.0001016e-05
1.000114e-05
1.0001268e-05
1.0001369e-05
1.0001372e-05
1.0001306e-05
1.0001012e-05
1.0000939e-05
1.0000467e-05
1.000031e-05
1.0000184e-05
1.0000095e-05
1.0000042e-05
1.0000011e-05
1.0000008e-05
1.0000036e-05
0.0010562351
0.0024610399
0.0031207547
0.0031420729
0.002412682
0.0006818632
3.4990389e-05
1.0276109e-05
1.0095374e-05
1.008939e-05
1.0037937e-05
1.0044861e-05
1.0015165e-05
1.0019898e-05
1.0011744e-05
1.0011051e-05
1.00072e-05
1.0005692e-05
1.0003711e-05
1.0002653e-05
1.0002185e-05
1.0002172e-05
1.0002377e-05
1.0002421e-05
1.0002308e-05
1.0001991e-05
1.0001578e-05
1.0001195e-05
1.0001034e-05
1.000105e-05
1.0001187e-05
1.0001109e-05
1.0000959e-05
1.0000949e-05
1.0001e-05
1.0001119e-05
1.0001243e-05
1.0001357e-05
1.0001362e-05
1.0001299e-05
1.0000956e-05
1.0000948e-05
1.0000454e-05
1.0000284e-05
1.0000184e-05
1.0000086e-05
1.000004e-05
1.0000011e-05
1.0000008e-05
1.0000036e-05
0.0010513524
0.0024268953
0.003051868
0.0030324833
0.002242499
0.0005596203
2.6219574e-05
1.0251669e-05
1.0094063e-05
1.0086557e-05
1.0034703e-05
1.004147e-05
1.0014876e-05
1.0019579e-05
1.0011583e-05
1.0010876e-05
1.0007124e-05
1.0005625e-05
1.0003687e-05
1.0002638e-05
1.0002174e-05
1.0002173e-05
1.0002368e-05
1.0002409e-05
1.0002293e-05
1.0001985e-05
1.0001579e-05
1.0001196e-05
1.0001029e-05
1.000104e-05
1.000118e-05
1.0001109e-05
1.0000947e-05
1.0000933e-05
1.0000983e-05
1.0001096e-05
1.0001214e-05
1.0001339e-05
1.0001354e-05
1.0001289e-05
1.0000934e-05
1.0000958e-05
1.0000462e-05
1.0000281e-05
1.0000184e-05
1.0000084e-05
1.0000041e-05
1.0000011e-05
1.0000008e-05
1.0000035e-05
0.0010465065
0.002392626
0.0029825411
0.0029217469
0.0020670256
0.00045274704
2.0281909e-05
1.0236615e-05
1.0090491e-05
1.0081964e-05
1.0030997e-05
1.0038679e-05
1.0014716e-05
1.0019248e-05
1.0011425e-05
1.00107e-05
1.0007048e-05
1.0005556e-05
1.0003662e-05
1.0002622e-05
1.0002161e-05
1.0002172e-05
1.000236e-05
1.00024e-05
1.0002279e-05
1.0001978e-05
1.000158e-05
1.0001198e-05
1.0001024e-05
1.000103e-05
1.0001172e-05
1.0001111e-05
1.0000935e-05
1.0000916e-05
1.0000966e-05
1.0001071e-05
1.0001182e-05
1.0001318e-05
1.0001344e-05
1.0001227e-05
1.0000911e-05
1.000095e-05
1.0000473e-05
1.0000281e-05
1.0000188e-05
1.0000084e-05
1.0000042e-05
1.0000012e-05
1.0000008e-05
1.0000035e-05
0.0010417352
0.0023580728
0.0029130615
0.0028123088
0.0018873838
0.00035950728
1.6365926e-05
1.0227265e-05
1.0088728e-05
1.007778e-05
1.0028244e-05
1.0035797e-05
1.0014524e-05
1.0018913e-05
1.0011271e-05
1.0010523e-05
1.0006971e-05
1.0005486e-05
1.0003635e-05
1.0002606e-05
1.0002148e-05
1.000217e-05
1.0002352e-05
1.0002393e-05
1.0002268e-05
1.0001972e-05
1.000158e-05
1.0001199e-05
1.0001019e-05
1.0001019e-05
1.0001164e-05
1.0001113e-05
1.0000926e-05
1.00009e-05
1.000095e-05
1.0001045e-05
1.000115e-05
1.0001293e-05
1.000133e-05
1.0001146e-05
1.0000885e-05
1.0000932e-05
1.0000478e-05
1.0000281e-05
1.0000194e-05
1.0000083e-05
1.0000042e-05
1.0000012e-05
1.0000008e-05
1.0000035e-05
0.001036894
0.002322765
0.0028411992
0.0026967878
0.0017049228
0.00028019404
1.3872414e-05
1.0219146e-05
1.0088405e-05
1.0076633e-05
1.0026908e-05
1.0034116e-05
1.0014337e-05
1.0018574e-05
1.001112e-05
1.0010345e-05
1.0006894e-05
1.0005415e-05
1.0003607e-05
1.0002589e-05
1.0002135e-05
1.0002166e-05
1.0002343e-05
1.0002386e-05
1.0002259e-05
1.0001966e-05
1.000158e-05
1.00012e-05
1.0001013e-05
1.0001008e-05
1.0001154e-05
1.0001115e-05
1.0000918e-05
1.0000883e-05
1.0000934e-05
1.0001018e-05
1.0001117e-05
1.0001273e-05
1.0001313e-05
1.0001038e-05
1.0000855e-05
1.0000891e-05
1.0000485e-05
1.0000281e-05
1.0000197e-05
1.0000083e-05
1.0000043e-05
1.0000012e-05
1.0000008e-05
1.0000034e-05
0.001031987
0.0022873455
0.0027677955
0.0025818839
0.0015231394
0.00021444809
1.2345624e-05
1.0212532e-05
1.0086204e-05
1.0074938e-05
1.0026405e-05
1.0033757e-05
1.0014101e-05
1.0018227e-05
1.0010972e-05
1.0010167e-05
1.0006817e-05
1.0005343e-05
1.0003578e-05
1.0002572e-05
1.0002122e-05
1.0002159e-05
1.0002333e-05
1.000238e-05
1.0002252e-05
1.000196e-05
1.0001578e-05
1.0001201e-05
1.0001006e-05
1.0000997e-05
1.0001144e-05
1.0001116e-05
1.0000912e-05
1.0000867e-05
1.0000918e-05
1.000099e-05
1.0001085e-05
1.0001259e-05
1.0001292e-05
1.0000922e-05
1.0000824e-05
1.0000803e-05
1.0000492e-05
1.0000282e-05
1.000019e-05
1.0000083e-05
1.0000043e-05
1.0000012e-05
1.0000008e-05
1.0000034e-05
0.0010270929
0.0022522697
0.0026938867
0.0024683606
0.0013442216
0.00016123668
1.1443326e-05
1.0206496e-05
1.0084122e-05
1.0073312e-05
1.0025848e-05
1.003299e-05
1.0013917e-05
1.0017881e-05
1.0010828e-05
1.0009988e-05
1.0006739e-05
1.0005271e-05
1.0003548e-05
1.0002555e-05
1.000211e-05
1.0002151e-05
1.0002322e-05
1.0002372e-05
1.0002246e-05
1.0001954e-05
1.0001577e-05
1.0001202e-05
1.0000999e-05
1.0000985e-05
1.0001132e-05
1.0001116e-05
1.0000907e-05
1.0000851e-05
1.0000902e-05
1.0000964e-05
1.0001054e-05
1.0001246e-05
1.0001273e-05
1.0000832e-05
1.0000794e-05
1.0000709e-05
1.0000496e-05
1.0000286e-05
1.0000171e-05
1.0000084e-05
1.0000043e-05
1.0000012e-05
1.0000008e-05
1.0000033e-05
0.001022257
0.0022180527
0.0026237871
0.0023539169
0.0011705743
0.00011917954
1.0921843e-05
1.0200647e-05
1.0082013e-05
1.0071625e-05
1.0025268e-05
1.0032304e-05
1.0013735e-05
1.0017529e-05
1.0010686e-05
1.0009811e-05
1.0006662e-05
1.0005199e-05
1.0003517e-05
1.0002538e-05
1.0002098e-05
1.0002141e-05
1.0002308e-05
1.0002363e-05
1.0002241e-05
1.0001949e-05
1.0001574e-05
1.0001203e-05
1.0000992e-05
1.0000972e-05
1.0001119e-05
1.0001113e-05
1.0000903e-05
1.0000836e-05
1.0000886e-05
1.0000939e-05
1.0001026e-05
1.0001231e-05
1.0001265e-05
1.0000806e-05
1.0000768e-05
1.0000628e-05
1.0000494e-05
1.0000293e-05
1.0000155e-05
1.0000084e-05
1.0000041e-05
1.0000013e-05
1.0000008e-05
1.0000032e-05
0.0010173138
0.0021834046
0.0025521601
0.0022366047
0.0010046838
8.6816574e-05
1.0627137e-05
1.0194807e-05
1.007989e-05
1.0069905e-05
1.002469e-05
1.003158e-05
1.0013568e-05
1.0017178e-05
1.0010547e-05
1.0009635e-05
1.0006584e-05
1.0005126e-05
1.0003487e-05
1.0002521e-05
1.0002088e-05
1.0002132e-05
1.0002292e-05
1.000235e-05
1.0002237e-05
1.0001944e-05
1.0001571e-05
1.0001203e-05
1.0000984e-05
1.0000958e-05
1.0001104e-05
1.0001108e-05
1.00009e-05
1.0000821e-05
1.0000869e-05
1.0000916e-05
1.0000999e-05
1.0001212e-05
1.0001255e-05
1.0000793e-05
1.0000739e-05
1.0000565e-05
1.0000486e-05
1.00003e-05
1.000015e-05
1.0000086e-05
1.0000035e-05
1.0000013e-05
1.0000008e-05
1.0000032e-05
0.0010122115
0.0021485041
0.0024798475
0.0021155127
0.00084945335
6.2685891e-05
1.0462843e-05
1.0189387e-05
1.0077757e-05
1.0068158e-05
1.002411e-05
1.0030853e-05
1.0013412e-05
1.0016824e-05
1.0010411e-05
1.0009463e-05
1.0006507e-05
1.0005055e-05
1.0003456e-05
1.0002504e-05
1.0002077e-05
1.0002122e-05
1.0002275e-05
1.0002334e-05
1.0002232e-05
1.000194e-05
1.0001567e-05
1.0001203e-05
1.0000976e-05
1.0000943e-05
1.0001087e-05
1.0001098e-05
1.0000897e-05
1.0000809e-05
1.0000851e-05
1.0000894e-05
1.0000975e-05
1.000119e-05
1.0001115e-05
1.0000778e-05
1.000072e-05
1.0000531e-05
1.0000473e-05
1.00003e-05
1.0000151e-05
1.0000087e-05
1.0000028e-05
1.0000013e-05
1.0000007e-05
1.0000031e-05
0.0010069399
0.0021136127
0.0024068489
0.0019912121
0.00070684916
4.5205752e-05
1.0370878e-05
1.0184343e-05
1.0075614e-05
1.0066379e-05
1.0023531e-05
1.0030114e-05
1.0013267e-05
1.0016471e-05
1.0010277e-05
1.0009295e-05
1.000643e-05
1.0004983e-05
1.0003425e-05
1.0002488e-05
1.0002068e-05
1.0002112e-05
1.0002258e-05
1.0002317e-05
1.0002226e-05
1.0001936e-05
1.0001564e-05
1.0001203e-05
1.0000969e-05
1.0000925e-05
1.0001066e-05
1.0001084e-05
1.0000892e-05
1.0000799e-05
1.0000831e-05
1.0000874e-05
1.000095e-05
1.0001158e-05
1.0000972e-05
1.0000764e-05
1.0000693e-05
1.0000497e-05
1.0000441e-05
1.0000288e-05
1.0000151e-05
1.0000088e-05
1.000002e-05
1.0000012e-05
1.0000007e-05
1.000003e-05
0.0010016588
0.0020792709
0.0023333354
0.001864739
0.00057854803
3.2941526e-05
1.0318551e-05
1.0179066e-05
1.0073461e-05
1.006457e-05
1.0022953e-05
1.0029366e-05
1.0013131e-05
1.0016118e-05
1.0010147e-05
1.0009127e-05
1.0006353e-05
1.0004912e-05
1.0003394e-05
1.0002473e-05
1.000206e-05
1.0002103e-05
1.0002239e-05
1.00023e-05
1.0002219e-05
1.0001932e-05
1.0001559e-05
1.0001202e-05
1.0000961e-05
1.0000907e-05
1.000104e-05
1.0001064e-05
1.0000884e-05
1.0000788e-05
1.0000811e-05
1.0000855e-05
1.0000926e-05
1.0001133e-05
1.0000841e-05
1.0000752e-05
1.0000652e-05
1.0000463e-05
1.0000404e-05
1.0000264e-05
1.0000151e-05
1.000009e-05
1.000002e-05
1.0000012e-05
1.0000007e-05
1.0000029e-05
0.0009965122
0.0020460183
0.0022604278
0.0017324072
0.00046683349
2.4664347e-05
1.0287903e-05
1.017377e-05
1.0071302e-05
1.0062741e-05
1.0022377e-05
1.0028612e-05
1.0013005e-05
1.0015766e-05
1.0010019e-05
1.0008961e-05
1.0006276e-05
1.0004842e-05
1.0003364e-05
1.0002458e-05
1.0002053e-05
1.0002093e-05
1.0002221e-05
1.0002282e-05
1.0002212e-05
1.0001927e-05
1.0001555e-05
1.0001199e-05
1.0000955e-05
1.000089e-05
1.0001007e-05
1.000103e-05
1.0000875e-05
1.0000776e-05
1.000079e-05
1.0000836e-05
1.0000901e-05
1.0001109e-05
1.0000781e-05
1.0000736e-05
1.00006e-05
1.0000427e-05
1.0000368e-05
1.0000243e-05
1.0000152e-05
1.0000091e-05
1.000002e-05
1.0000012e-05
1.0000007e-05
1.0000028e-05
0.00099157202
0.002013929
0.0021944426
0.0015944335
0.00037461901
1.9268496e-05
1.0267956e-05
1.0168429e-05
1.0069138e-05
1.0060892e-05
1.0021806e-05
1.0027853e-05
1.0012887e-05
1.0015415e-05
1.0009895e-05
1.0008797e-05
1.00062e-05
1.0004774e-05
1.0003334e-05
1.0002444e-05
1.0002046e-05
1.0002084e-05
1.0002202e-05
1.0002263e-05
1.0002203e-05
1.0001922e-05
1.000155e-05
1.0001196e-05
1.000095e-05
1.0000878e-05
1.0000968e-05
1.0000988e-05
1.0000863e-05
1.0000765e-05
1.0000768e-05
1.0000817e-05
1.0000876e-05
1.0001076e-05
1.0000772e-05
1.0000719e-05
1.0000542e-05
1.0000391e-05
1.0000332e-05
1.0000232e-05
1.0000154e-05
1.0000091e-05
1.000002e-05
1.0000012e-05
1.0000007e-05
1.0000027e-05
0.00098665119
0.001981427
0.0021265959
0.0014503082
0.00029429132
1.5768505e-05
1.025363e-05
1.0163086e-05
1.0066972e-05
1.0059031e-05
1.0021239e-05
1.0027093e-05
1.0012776e-05
1.0015066e-05
1.0009773e-05
1.0008635e-05
1.0006125e-05
1.0004706e-05
1.0003305e-05
1.0002431e-05
1.0002041e-05
1.0002076e-05
1.0002183e-05
1.0002242e-05
1.0002192e-05
1.0001917e-05
1.0001545e-05
1.0001192e-05
1.0000945e-05
1.0000871e-05
1.0000938e-05
1.0000951e-05
1.0000847e-05
1.0000753e-05
1.0000747e-05
1.0000798e-05
1.000085e-05
1.0001008e-05
1.0000756e-05
1.0000701e-05
1.0000478e-05
1.0000354e-05
1.0000308e-05
1.0000226e-05
1.0000155e-05
1.0000084e-05
1.000002e-05
1.0000011e-05
1.0000006e-05
1.0000026e-05
0.00098187458
0.0019489305
0.0020587826
0.0013022123
0.00022720806
1.3589348e-05
1.0242335e-05
1.0157732e-05
1.0064807e-05
1.0057159e-05
1.0020679e-05
1.0026331e-05
1.0012671e-05
1.001472e-05
1.0009654e-05
1.0008476e-05
1.000605e-05
1.000464e-05
1.0003276e-05
1.0002419e-05
1.0002037e-05
1.0002068e-05
1.0002164e-05
1.0002221e-05
1.0002179e-05
1.000191e-05
1.000154e-05
1.0001187e-05
1.0000941e-05
1.0000866e-05
1.0000913e-05
1.0000918e-05
1.0000829e-05
1.000074e-05
1.0000727e-05
1.0000778e-05
1.0000824e-05
1.0000864e-05
1.000074e-05
1.0000682e-05
1.0000403e-05
1.0000324e-05
1.0000296e-05
1.0000223e-05
1.0000156e-05
1.0000067e-05
1.0000021e-05
1.0000011e-05
1.0000006e-05
1.0000026e-05
0.0009772932
0.0019162519
0.0019905042
0.0011532713
0.0001726029
1.227277e-05
1.0232655e-05
1.0152381e-05
1.0062645e-05
1.0055281e-05
1.0020127e-05
1.0025571e-05
1.0012572e-05
1.0014379e-05
1.0009537e-05
1.0008321e-05
1.0005975e-05
1.0004576e-05
1.0003248e-05
1.0002408e-05
1.0002035e-05
1.0002061e-05
1.0002146e-05
1.00022e-05
1.0002165e-05
1.0001902e-05
1.0001533e-05
1.0001182e-05
1.0000938e-05
1.0000863e-05
1.0000893e-05
1.0000888e-05
1.0000808e-05
1.0000725e-05
1.0000707e-05
1.0000758e-05
1.0000808e-05
1.0000793e-05
1.0000729e-05
1.000066e-05
1.0000338e-05
1.0000305e-05
1.0000289e-05
1.0000221e-05
1.0000157e-05
1.0000046e-05
1.000002e-05
1.0000011e-05
1.0000006e-05
1.0000025e-05
0.00097281924
0.0018831173
0.0019211426
0.0010119448
0.00012945592
1.149763e-05
1.0223839e-05
1.0147048e-05
1.0060489e-05
1.0053405e-05
1.0019583e-05
1.0024814e-05
1.0012478e-05
1.0014042e-05
1.0009422e-05
1.0008168e-05
1.0005901e-05
1.0004513e-05
1.0003221e-05
1.0002398e-05
1.0002033e-05
1.0002054e-05
1.0002129e-05
1.0002178e-05
1.0002149e-05
1.0001893e-05
1.0001527e-05
1.0001177e-05
1.0000936e-05
1.0000859e-05
1.0000878e-05
1.0000861e-05
1.0000786e-05
1.0000709e-05
1.0000688e-05
1.0000738e-05
1.0000793e-05
1.000077e-05
1.0000715e-05
1.0000645e-05
1.0000326e-05
1.000029e-05
1.000028e-05
1.0000217e-05
1.000016e-05
1.0000032e-05
1.000002e-05
1.0000011e-05
1.0000006e-05
1.0000024e-05
0.00096815853
0.0018468016
0.001849079
0.00087941156
9.5937551e-05
1.1048043e-05
1.0215473e-05
1.0141728e-05
1.0058342e-05
1.0051531e-05
1.0019051e-05
1.0024063e-05
1.0012387e-05
1.001371e-05
1.0009309e-05
1.0008019e-05
1.0005829e-05
1.0004452e-05
1.0003195e-05
1.0002389e-05
1.0002033e-05
1.0002047e-05
1.0002112e-05
1.0002157e-05
1.0002132e-05
1.0001882e-05
1.000152e-05
1.0001172e-05
1.0000934e-05
1.0000856e-05
1.0000868e-05
1.0000838e-05
1.0000765e-05
1.0000693e-05
1.0000669e-05
1.0000716e-05
1.0000777e-05
1.0000762e-05
1.0000701e-05
1.0000633e-05
1.0000316e-05
1.0000277e-05
1.0000271e-05
1.0000215e-05
1.0000162e-05
1.0000031e-05
1.000002e-05
1.000001e-05
1.0000006e-05
1.0000024e-05
0.00096310122
0.0018074875
0.0017733526
0.00075630078
7.0550638e-05
1.0789608e-05
1.0207409e-05
1.0136448e-05
1.0056208e-05
1.0049669e-05
1.001853e-05
1.002332e-05
1.0012298e-05
1.0013384e-05
1.0009198e-05
1.0007875e-05
1.0005757e-05
1.0004392e-05
1.0003169e-05
1.0002381e-05
1.0002034e-05
1.0002041e-05
1.0002096e-05
1.0002135e-05
1.0002113e-05
1.0001869e-05
1.0001514e-05
1.0001168e-05
1.0000933e-05
1.0000854e-05
1.0000863e-05
1.000082e-05
1.0000746e-05
1.0000679e-05
1.0000652e-05
1.0000695e-05
1.0000761e-05
1.0000755e-05
1.0000688e-05
1.0000605e-05
1.0000307e-05
1.0000269e-05
1.0000265e-05
1.000021e-05
1.0000158e-05
1.0000031e-05
1.0000019e-05
1.000001e-05
1.0000006e-05
1.0000023e-05
0.00095753763
0.0017646462
0.0016924272
0.00064286163
5.168678e-05
1.0639842e-05
1.0199566e-05
1.0131185e-05
1.0054086e-05
1.0047818e-05
1.0018024e-05
1.0022587e-05
1.0012211e-05
1.0013065e-05
1.0009089e-05
1.0007734e-05
1.0005686e-05
1.0004335e-05
1.0003145e-05
1.0002374e-05
1.0002038e-05
1.0002034e-05
1.0002081e-05
1.0002114e-05
1.0002092e-05
1.0001856e-05
1.0001508e-05
1.0001165e-05
1.000093e-05
1.0000852e-05
1.0000862e-05
1.0000808e-05
1.0000731e-05
1.0000668e-05
1.0000636e-05
1.0000674e-05
1.0000744e-05
1.0000749e-05
1.0000675e-05
1.0000566e-05
1.0000299e-05
1.0000264e-05
1.0000261e-05
1.0000206e-05
1.0000149e-05
1.0000031e-05
1.0000019e-05
1.000001e-05
1.0000006e-05
1.0000023e-05
0.00095132518
0.0017177409
0.0016003385
0.0005401386
3.8096103e-05
1.0550938e-05
1.0191953e-05
1.0125974e-05
1.0051984e-05
1.0045986e-05
1.0017532e-05
1.0021867e-05
1.0012125e-05
1.0012754e-05
1.0008984e-05
1.0007598e-05
1.0005617e-05
1.000428e-05
1.0003121e-05
1.0002368e-05
1.0002039e-05
1.0002027e-05
1.0002067e-05
1.0002093e-05
1.0002069e-05
1.0001842e-05
1.0001504e-05
1.0001162e-05
1.0000927e-05
1.000085e-05
1.0000861e-05
1.00008e-05
1.000072e-05
1.0000658e-05
1.0000621e-05
1.0000654e-05
1.0000727e-05
1.0000735e-05
1.0000661e-05
1.0000504e-05
1.0000293e-05
1.0000262e-05
1.0000256e-05
1.0000204e-05
1.0000119e-05
1.0000031e-05
1.0000018e-05
1.000001e-05
1.0000006e-05
1.0000022e-05
0.00094458292
0.001667896
0.0014977015
0.00044923737
2.8592345e-05
1.0495339e-05
1.0184535e-05
1.0120811e-05
1.0049902e-05
1.0044177e-05
1.0017057e-05
1.0021161e-05
1.0012039e-05
1.0012451e-05
1.0008881e-05
1.0007467e-05
1.0005549e-05
1.0004227e-05
1.0003099e-05
1.0002363e-05
1.000204e-05
1.0002021e-05
1.0002053e-05
1.0002072e-05
1.0002045e-05
1.0001829e-05
1.0001499e-05
1.0001158e-05
1.0000925e-05
1.000085e-05
1.000086e-05
1.0000794e-05
1.0000712e-05
1.0000648e-05
1.0000608e-05
1.0000635e-05
1.0000706e-05
1.0000715e-05
1.0000648e-05
1.000042e-05
1.0000282e-05
1.0000255e-05
1.0000239e-05
1.0000205e-05
1.0000083e-05
1.0000031e-05
1.0000017e-05
1.0000009e-05
1.0000007e-05
1.0000022e-05
0.00093753388
0.0016162195
0.0013859142
0.00036784432
2.2117245e-05
1.0457718e-05
1.0177262e-05
1.0115697e-05
1.0047845e-05
1.0042395e-05
1.00166e-05
1.0020473e-05
1.0011951e-05
1.0012157e-05
1.0008779e-05
1.0007341e-05
1.0005483e-05
1.0004177e-05
1.0003078e-05
1.0002358e-05
1.0002041e-05
1.0002014e-05
1.000204e-05
1.0002052e-05
1.0002022e-05
1.0001816e-05
1.0001495e-05
1.0001153e-05
1.0000922e-05
1.0000849e-05
1.0000859e-05
1.0000789e-05
1.0000706e-05
1.000064e-05
1.0000595e-05
1.0000616e-05
1.0000685e-05
1.0000699e-05
1.0000637e-05
1.0000335e-05
1.0000271e-05
1.0000245e-05
1.0000223e-05
1.0000204e-05
1.0000061e-05
1.0000031e-05
1.0000017e-05
1.0000009e-05
1.0000007e-05
1.0000022e-05
0.00093028659
0.0015631197
0.0012684829
0.00029858281
1.7867798e-05
1.0429808e-05
1.0170119e-05
1.0110649e-05
1.0045816e-05
1.0040645e-05
1.0016163e-05
1.0019804e-05
1.0011863e-05
1.0011873e-05
1.0008677e-05
1.0007219e-05
1.0005419e-05
1.0004128e-05
1.0003058e-05
1.0002354e-05
1.0002041e-05
1.0002008e-05
1.0002027e-05
1.0002033e-05
1.0002e-05
1.0001803e-05
1.0001489e-05
1.0001149e-05
1.000092e-05
1.0000849e-05
1.0000858e-05
1.0000784e-05
1.0000701e-05
1.0000631e-05
1.0000584e-05
1.00006e-05
1.0000668e-05
1.0000684e-05
1.0000633e-05
1.0000292e-05
1.0000256e-05
1.000023e-05
1.0000219e-05
1.0000202e-05
1.0000046e-05
1.000003e-05
1.0000016e-05
1.0000009e-05
1.0000008e-05
1.0000022e-05
0.00092275462
0.0015073499
0.0011567642
0.00023855199
1.5062596e-05
1.0407013e-05
1.0163081e-05
1.0105665e-05
1.0043818e-05
1.003893e-05
1.0015747e-05
1.0019155e-05
1.001177e-05
1.0011597e-05
1.0008576e-05
1.0007103e-05
1.0005356e-05
1.0004082e-05
1.000304e-05
1.0002351e-05
1.000204e-05
1.0002002e-05
1.0002015e-05
1.0002015e-05
1.000198e-05
1.0001791e-05
1.0001483e-05
1.0001146e-05
1.0000919e-05
1.0000848e-05
1.0000856e-05
1.0000779e-05
1.0000695e-05
1.0000622e-05
1.0000573e-05
1.0000586e-05
1.0000652e-05
1.0000669e-05
1.0000629e-05
1.0000284e-05
1.0000251e-05
1.0000216e-05
1.0000212e-05
1.0000202e-05
1.0000044e-05
1.0000029e-05
1.0000016e-05
1.0000009e-05
1.0000008e-05
1.0000022e-05
0.0009153066
0.0014485568
0.0010431257
0.00018726478
1.3271416e-05
1.0386976e-05
1.015614e-05
1.0100758e-05
1.0041856e-05
1.0037256e-05
1.0015354e-05
1.0018527e-05
1.0011673e-05
1.0011313e-05
1.0008477e-05
1.0006992e-05
1.0005296e-05
1.0004039e-05
1.0003022e-05
1.0002349e-05
1.000204e-05
1.0001996e-05
1.0002003e-05
1.0001998e-05
1.0001962e-05
1.0001779e-05
1.0001476e-05
1.0001144e-05
1.0000917e-05
1.0000848e-05
1.0000855e-05
1.0000773e-05
1.0000688e-05
1.0000613e-05
1.0000564e-05
1.0000572e-05
1.0000631e-05
1.0000653e-05
1.0000627e-05
1.0000275e-05
1.0000244e-05
1.0000209e-05
1.0000204e-05
1.0000202e-05
1.0000043e-05
1.0000028e-05
1.0000015e-05
1.0000009e-05
1.0000009e-05
1.0000022e-05
0.00090881201
0.0013960575
0.0009304216
0.0001446027
1.2152614e-05
1.0368321e-05
1.0149294e-05
1.0095932e-05
1.0039933e-05
1.0035627e-05
1.0014985e-05
1.0017922e-05
1.0011574e-05
1.0011027e-05
1.0008379e-05
1.0006887e-05
1.0005239e-05
1.0003998e-05
1.0003006e-05
1.0002347e-05
1.000204e-05
1.0001989e-05
1.0001991e-05
1.0001983e-05
1.0001944e-05
1.0001765e-05
1.000147e-05
1.0001142e-05
1.0000917e-05
1.0000848e-05
1.0000854e-05
1.0000767e-05
1.0000681e-05
1.0000604e-05
1.0000556e-05
1.0000558e-05
1.0000609e-05
1.0000634e-05
1.0000591e-05
1.0000267e-05
1.0000236e-05
1.0000204e-05
1.0000194e-05
1.0000155e-05
1.0000043e-05
1.0000027e-05
1.0000015e-05
1.0000009e-05
1.0000009e-05
1.0000022e-05
0.00090258896
0.001341067
0.00081953039
0.00010995856
1.1469864e-05
1.0350358e-05
1.0142547e-05
1.0091199e-05
1.0038053e-05
1.0034047e-05
1.0014642e-05
1.0017342e-05
1.0011472e-05
1.001077e-05
1.0008282e-05
1.0006786e-05
1.0005183e-05
1.000396e-05
1.000299e-05
1.0002346e-05
1.0002039e-05
1.0001981e-05
1.0001979e-05
1.0001971e-05
1.0001925e-05
1.000175e-05
1.0001464e-05
1.0001141e-05
1.0000916e-05
1.0000848e-05
1.0000853e-05
1.0000762e-05
1.0000673e-05
1.0000594e-05
1.0000549e-05
1.0000544e-05
1.0000588e-05
1.0000615e-05
1.0000526e-05
1.0000258e-05
1.0000224e-05
1.0000196e-05
1.0000179e-05
1.0000122e-05
1.0000043e-05
1.0000026e-05
1.0000014e-05
1.0000009e-05
1.000001e-05
1.0000022e-05
0.00089690418
0.0012845748
0.00071291921
8.2595592e-05
1.1061044e-05
1.0332986e-05
1.0135904e-05
1.0086564e-05
1.003622e-05
1.0032519e-05
1.0014325e-05
1.0016785e-05
1.0011366e-05
1.0010543e-05
1.0008187e-05
1.0006691e-05
1.000513e-05
1.0003924e-05
1.0002976e-05
1.0002345e-05
1.0002039e-05
1.0001974e-05
1.0001969e-05
1.0001961e-05
1.0001905e-05
1.0001736e-05
1.0001458e-05
1.0001141e-05
1.0000916e-05
1.0000847e-05
1.0000853e-05
1.0000758e-05
1.0000665e-05
1.0000586e-05
1.0000542e-05
1.0000532e-05
1.0000565e-05
1.0000597e-05
1.0000446e-05
1.0000248e-05
1.000021e-05
1.0000192e-05
1.0000166e-05
1.0000093e-05
1.0000043e-05
1.0000025e-05
1.0000014e-05
1.0000009e-05
1.0000011e-05
1.0000022e-05
0.00089201239
0.0012263842
0.00061215361
6.1504067e-05
1.0818138e-05
1.0316765e-05
1.0129361e-05
1.0082021e-05
1.0034438e-05
1.0031043e-05
1.0014037e-05
1.0016254e-05
1.0011257e-05
1.0010332e-05
1.0008093e-05
1.0006602e-05
1.000508e-05
1.000389e-05
1.0002962e-05
1.0002345e-05
1.0002039e-05
1.0001966e-05
1.000196e-05
1.0001954e-05
1.0001886e-05
1.0001723e-05
1.0001453e-05
1.0001142e-05
1.0000916e-05
1.0000847e-05
1.0000852e-05
1.0000756e-05
1.0000659e-05
1.0000578e-05
1.0000534e-05
1.0000517e-05
1.000054e-05
1.0000578e-05
1.0000342e-05
1.0000241e-05
1.0000199e-05
1.0000189e-05
1.0000156e-05
1.0000072e-05
1.0000043e-05
1.0000024e-05
1.0000013e-05
1.0000009e-05
1.0000013e-05
1.0000023e-05
0.00088821181
0.0011700718
0.00051858876
4.568604e-05
1.067322e-05
1.0302138e-05
1.0122917e-05
1.0077574e-05
1.003271e-05
1.0029625e-05
1.0013778e-05
1.0015752e-05
1.0011147e-05
1.0010131e-05
1.0008002e-05
1.0006517e-05
1.0005032e-05
1.0003858e-05
1.000295e-05
1.0002345e-05
1.000204e-05
1.0001959e-05
1.0001954e-05
1.0001945e-05
1.000187e-05
1.0001709e-05
1.0001448e-05
1.0001143e-05
1.0000916e-05
1.0000846e-05
1.0000851e-05
1.0000755e-05
1.0000653e-05
1.0000569e-05
1.0000528e-05
1.0000501e-05
1.0000515e-05
1.0000564e-05
1.0000263e-05
1.0000234e-05
1.0000191e-05
1.0000175e-05
1.0000151e-05
1.0000058e-05
1.0000042e-05
1.0000023e-05
1.0000013e-05
1.0000009e-05
1.0000014e-05
1.0000023e-05
0.0008846945
0.0011065861
0.00043295462
3.4262381e-05
1.0583905e-05
1.0287448e-05
1.0116576e-05
1.0073241e-05
1.0031043e-05
1.0028268e-05
1.001355e-05
1.0015277e-05
1.0011034e-05
1.000994e-05
1.0007913e-05
1.0006438e-05
1.0004987e-05
1.0003829e-05
1.0002937e-05
1.0002346e-05
1.0002043e-05
1.0001954e-05
1.0001949e-05
1.000193e-05
1.0001853e-05
1.0001696e-05
1.0001444e-05
1.0001145e-05
1.0000917e-05
1.0000845e-05
1.000085e-05
1.0000756e-05
1.000065e-05
1.000056e-05
1.000052e-05
1.0000484e-05
1.0000489e-05
1.0000561e-05
1.0000255e-05
1.0000223e-05
1.0000191e-05
1.0000162e-05
1.0000147e-05
1.0000056e-05
1.0000041e-05
1.0000023e-05
1.0000013e-05
1.0000009e-05
1.0000015e-05
1.0000023e-05
0.00088139512
0.0010381994
0.00035665076
2.6335141e-05
1.0524208e-05
1.0273123e-05
1.0110357e-05
1.0069034e-05
1.002944e-05
1.0026974e-05
1.0013353e-05
1.0014826e-05
1.001092e-05
1.0009761e-05
1.0007827e-05
1.0006364e-05
1.0004944e-05
1.0003801e-05
1.0002926e-05
1.0002348e-05
1.0002048e-05
1.000195e-05
1.0001944e-05
1.0001914e-05
1.0001837e-05
1.0001683e-05
1.0001439e-05
1.0001147e-05
1.0000917e-05
1.0000844e-05
1.0000849e-05
1.0000757e-05
1.0000648e-05
1.0000551e-05
1.0000509e-05
1.0000464e-05
1.000046e-05
1.0000559e-05
1.0000249e-05
1.0000212e-05
1.0000197e-05
1.0000158e-05
1.0000141e-05
1.0000053e-05
1.0000039e-05
1.0000022e-05
1.0000012e-05
1.0000009e-05
1.0000016e-05
1.0000024e-05
0.00087795257
0.00096388474
0.00029027717
2.0998138e-05
1.0480807e-05
1.0259065e-05
1.0104262e-05
1.0064955e-05
1.0027905e-05
1.0025746e-05
1.0013189e-05
1.0014402e-05
1.0010806e-05
1.0009592e-05
1.0007743e-05
1.0006294e-05
1.0004903e-05
1.0003774e-05
1.0002916e-05
1.000235e-05
1.0002054e-05
1.000195e-05
1.0001936e-05
1.0001899e-05
1.0001821e-05
1.000167e-05
1.0001435e-05
1.000115e-05
1.0000919e-05
1.0000842e-05
1.0000847e-05
1.0000759e-05
1.0000647e-05
1.0000543e-05
1.0000495e-05
1.000044e-05
1.0000427e-05
1.0000554e-05
1.0000243e-05
1.0000204e-05
1.0000198e-05
1.0000162e-05
1.0000126e-05
1.0000052e-05
1.0000038e-05
1.0000021e-05
1.0000012e-05
1.0000009e-05
1.0000017e-05
1.0000025e-05
0.00087421016
0.00088453616
0.0002348889
1.7517276e-05
1.0446289e-05
1.0245289e-05
1.0098295e-05
1.0061011e-05
1.0026444e-05
1.0024583e-05
1.0013057e-05
1.0014003e-05
1.0010695e-05
1.0009432e-05
1.0007662e-05
1.0006228e-05
1.0004865e-05
1.000375e-05
1.0002907e-05
1.0002351e-05
1.0002059e-05
1.0001953e-05
1.0001927e-05
1.0001883e-05
1.0001805e-05
1.0001657e-05
1.000143e-05
1.0001153e-05
1.000092e-05
1.000084e-05
1.0000845e-05
1.000076e-05
1.0000647e-05
1.0000536e-05
1.0000478e-05
1.0000415e-05
1.000039e-05
1.0000515e-05
1.0000243e-05
1.0000196e-05
1.0000185e-05
1.000016e-05
1.0000111e-05
1.0000051e-05
1.0000036e-05
1.000002e-05
1.0000012e-05
1.0000009e-05
1.0000018e-05
1.0000026e-05
0.00086956653
0.00079988329
0.00018981957
1.52631e-05
1.0416692e-05
1.0231787e-05
1.0092462e-05
1.0057209e-05
1.0025059e-05
1.0023489e-05
1.001296e-05
1.0013627e-05
1.0010583e-05
1.0009282e-05
1.0007583e-05
1.0006166e-05
1.0004827e-05
1.0003726e-05
1.0002898e-05
1.0002351e-05
1.0002061e-05
1.0001958e-05
1.0001915e-05
1.0001867e-05
1.000179e-05
1.0001645e-05
1.0001425e-05
1.0001156e-05
1.0000923e-05
1.0000837e-05
1.0000841e-05
1.0000759e-05
1.0000649e-05
1.0000529e-05
1.0000461e-05
1.0000389e-05
1.0000354e-05
1.0000474e-05
1.0000248e-05
1.0000191e-05
1.0000166e-05
1.0000134e-05
1.0000099e-05
1.0000053e-05
1.0000035e-05
1.000002e-05
1.0000012e-05
1.0000009e-05
1.0000019e-05
1.0000027e-05
0.00086423083
0.00070476819
0.00015256205
1.3762379e-05
1.0389902e-05
1.021856e-05
1.0086773e-05
1.0053555e-05
1.0023756e-05
1.0022461e-05
1.0012899e-05
1.0013275e-05
1.0010468e-05
1.0009141e-05
1.0007506e-05
1.0006106e-05
1.0004792e-05
1.0003705e-05
1.0002889e-05
1.000235e-05
1.0002061e-05
1.000196e-05
1.0001902e-05
1.0001851e-05
1.0001775e-05
1.0001634e-05
1.000142e-05
1.0001159e-05
1.0000926e-05
1.0000835e-05
1.0000836e-05
1.0000757e-05
1.0000648e-05
1.0000525e-05
1.0000445e-05
1.0000365e-05
1.0000326e-05
1.0000419e-05
1.0000254e-05
1.0000192e-05
1.0000155e-05
1.0000134e-05
1.0000093e-05
1.0000054e-05
1.0000033e-05
1.0000019e-05
1.0000011e-05
1.0000009e-05
1.0000021e-05
1.0000028e-05
0.00086054361
0.00063754338
0.00012392996
1.2768833e-05
1.0364897e-05
1.0205629e-05
1.0081245e-05
1.0050062e-05
1.0022531e-05
1.00215e-05
1.001288e-05
1.0012944e-05
1.0010352e-05
1.0009007e-05
1.0007431e-05
1.000605e-05
1.0004757e-05
1.0003685e-05
1.000288e-05