/*--------------------------------*- C++ -*----------------------------------*\
  =========                 |
  \\      /  F ield         | OpenFOAM: The Open Source CFD Toolbox
   \\    /   O peration     | Website:  https://openfoam.org
    \\  /    A nd           | Version:  8
     \\/     M anipulation  |
\*---------------------------------------------------------------------------*/
FoamFile
{
    version     2.0;
    format      ascii;
    class       volScalarField;
    location    "0.0399893";
    object      p;
}
// * * * * * * * * * * * * * * * * * * * * * * * * * * * * * * * * * * * * * //

dimensions      [1 -1 -2 0 0 0 0];

internalField   nonuniform List<scalar> 
20000
(
83518.298
83532.531
83548.806
83570.765
83600.66
83639.57
83691.201
83750.77
83825.133
83916.106
84020.55
84155.149
84302.497
84494.862
84704.294
84971.974
85266.119
85629.828
86038.522
86541.52
87123.529
87801.643
88568.719
89430.908
90380.858
91415.623
92509.562
93632.741
94743.71
95803.716
96774.107
97626.83
98351.168
98938.674
99410.893
99721.764
99900.288
100048.72
100216.55
100304.96
100326.26
100141.62
99857.682
99754.564
99903.288
100051.4
100095.51
100083.91
100043.64
100019.25
83335.331
83350.631
83367.457
83391.049
83423.884
83466.759
83524.172
83589.445
83669.303
83765.836
83874.737
84014.829
84166.462
84364.621
84578.159
84851.608
85151.846
85527.751
85959.228
86488.494
87092.856
87790.86
88568.173
89450.335
90423.366
91480.401
92593.922
93731.062
94848.862
95907.563
96869.512
97708.349
98416.475
98990.252
99447.622
99735.823
99902.536
100071.69
100231.26
100304.63
100316.5
100073.71
99847.312
99768.021
99937.497
100056.54
100095.35
100083.61
100043.69
100019.24
83205.994
83221.746
83238.928
83262.944
83296.58
83339.868
83398.196
83464.201
83545.093
83643.545
83753.904
83897.446
84052.503
84255.933
84473.572
84755.25
85070.206
85469.117
85922.112
86467.538
87083.597
87791.642
88591.292
89496.428
90493.985
91573.917
92706.56
93856.326
94978.679
96033.256
96983.584
97805.219
98494.488
99052.879
99488.607
99755.146
99909.813
100097.29
100245.94
100306.29
100293.23
100018.09
99842.594
99785.259
99960.526
100061.86
100095.5
100083.47
100043.71
100019.21
83094.417
83110.595
83128.267
83152.995
83187.95
83232.408
83292.606
83360.222
83442.881
83544.171
83657.17
83805.26
83963.349
84173.487
84401.653
84700.093
85031.112
85444.678
85909.891
86462.536
87089.083
87818.435
88642.005
89572.338
90595.368
91698.474
92849.588
94010.339
95134.649
96181.964
97117.23
97918.174
98585.862
99126.713
99534.975
99780.577
99923.846
100123.14
100260.46
100313.04
100252.59
99978.946
99840.478
99802.135
99975.261
100067.58
100097.2
100083.41
100043.73
100019.16
83007.735
83024.538
83042.925
83068.632
83105.297
83151.249
83213.487
83282.924
83367.71
83472.277
83588.62
83742.832
83907.632
84128.897
84367.381
84677.148
85017.802
85437.981
85909.535
86476.734
87122.031
87873.48
88722.403
89678.933
90728.014
91854.28
93022.891
94192.618
95315.976
96352.644
97269.247
98045.984
98689.437
99210.357
99586.785
99811.219
99945.603
100147.78
100274.4
100321.51
100200.6
99945.009
99837.302
99823.849
99989.5
100073.71
100100.02
100083.38
100043.73
100019.1
82940.88
82958.3
82977.363
83003.982
83042.449
83090.184
83155.279
83228.194
83317.314
83428.01
83549.553
83711.187
83881.923
84111.206
84355.754
84670.86
85016.291
85447.034
85933.078
86517.365
87183.231
87958.489
88833.628
89817.351
90892.942
92042.074
93226.868
94403.18
95522.36
96544.771
97438.929
98187.947
98804.916
99303.001
99644.583
99846.569
99975.721
100171.22
100286.31
100325.84
100147.74
99918.063
99827.545
99849.632
100003.67
100080.38
100103.9
100083.37
100043.74
100019.02
82901.122
82919.205
82939.008
82966.603
83007.102
83056.669
83124.509
83200.184
83292.12
83407.101
83532.333
83699.633
83873.54
84107.053
84355.531
84679.723
85036.091
85480.64
85982.724
86586.024
87274.073
88074.146
88976.615
89988.329
91090.7
92262.119
93461.405
94641.528
95753.015
96757.355
97625.081
98342.94
98932.129
99403.03
99708.187
99886.051
100013.14
100194.67
100296.01
100327.74
100104.58
99896.569
99816.312
99875.666
100017.45
100087.34
100108.5
100083.38
100043.73
100018.92
82882.671
82901.538
82922.199
82950.812
82993.381
83044.078
83113.624
83190.688
83283.547
83400.915
83527.777
83698.992
83878.117
84120.282
84377.153
84712.358
85080.766
85540.3
86059.847
86683.414
87394.941
88221.171
89152.043
90192.496
91321.728
92514.532
93726.22
94906.994
96007.016
96989.285
97826.379
98509.788
99071.124
99508.496
99776.516
99929.806
100056.79
100219.62
100304.53
100328.34
100070.29
99880.26
99810.586
99899.458
100030.22
100094.38
100113.55
100083.39
100043.69
100018.82
82877.121
82896.849
82918.302
82947.881
82992.991
83045.067
83117.155
83197.101
83292.571
83414.491
83544.354
83721.851
83906.624
84157.586
84423.028
84769.857
85151.231
85626.701
86164.853
86810.041
87546.476
88400.132
89360.508
90430.32
91586.262
92799.193
94020.769
95198.669
96283.215
97239.196
98041.294
98687.332
99220.888
99617.975
99848.671
99977.545
100104.82
100247.58
100314.6
100325.99
100045.12
99868.896
99808.121
99920.646
100042.02
100101.39
100119.01
100083.4
100043.63
100018.7
82891.312
82911.998
82934.515
82965.329
83013.06
83066.846
83141.579
83224.859
83323.466
83450.249
83584.363
83768.833
83958.836
84218.654
84493.173
84852.348
85247.631
85740.122
86298.215
86966.362
87729.12
88611.514
89602.423
90702.076
91884.304
93115.713
94344.234
95515.397
96580.228
97505.448
98268.217
98874.838
99378.874
99730.976
99924.028
100028.87
100154.6
100278.53
100331.06
100314.27
100027.19
99863.283
99807.427
99940.374
100053.3
100108.32
100124.77
100083.41
100043.51
100018.57
82927.026
82948.622
82972.07
83003.936
83054.101
83109.7
83186.866
83273.445
83375.023
83506.977
83645.353
83837.011
84033.37
84302.923
84587.377
84959.858
85370.243
85880.948
86460.352
87152.847
87943.355
88855.75
89878.14
91007.926
92215.701
93463.51
94695.608
95855.859
96896.462
97786.126
98505.566
99072.314
99542.234
99846.667
100002.19
100083.56
100204.06
100311.45
100355.41
100289.65
100010.34
99860.924
99809.004
99959.893
100065
100115.14
100130.31
100083.32
100043.35
100018.44
82981.001
83003.816
83028.537
83061.98
83114.984
83172.819
83252.728
83342.967
83447.593
83584.949
83727.707
83927.131
84130.383
84410.527
84705.935
85092.771
85519.47
86049.595
86651.679
87369.883
88189.535
89133.149
90187.839
91347.824
92580.041
93841.725
95073.621
96218.476
97230.001
98079.058
98751.902
99280.073
99708.137
99964.059
100082.93
100141.63
100252.43
100343.82
100382.46
100252.06
99991.236
99860.288
99817.644
99979.734
100078.08
100121.65
100135.1
100083.06
100043.14
100018.3
83057.013
83080.916
83106.715
83141.575
83197.153
83256.925
83339.192
83433.024
83540.69
83683.765
83831.362
84039.304
84250.32
84542.01
84849.394
85251.56
85695.724
86246.418
86872.536
87617.812
88467.985
89443.977
90531.648
91721.622
92976.767
94249.341
95476.85
96601.462
97578.645
98382.042
99006.182
99496.771
99874.864
100082.14
100166.07
100203.11
100300.07
100372.5
100402.77
100208.97
99970.149
99860.362
99833.032
100000.77
100093.42
100128.98
100138.11
100082.66
100042.89
100018.17
83149.866
83175.047
83202.066
83238.62
83297.085
83359.166
83444.386
83542.634
83654.193
83804.102
83957.283
84174.601
84394.106
84698.078
85018.251
85436.568
85899.271
86471.662
87123.153
87896.857
88778.906
89788.364
90909.529
92128.964
93405.082
94685.082
95903.597
97002.674
97939.882
98693.104
99267.955
99719.224
100041.29
100200.13
100251.08
100267.65
100347.42
100398.2
100412.7
100168.44
99949.874
99860.675
99855.509
100022.91
100110.44
100138.92
100139.51
100082.13
100042.59
100018.04
83261.991
83288.721
83317.256
83355.853
83417.441
83482.149
83570.919
83674.293
83790.283
83947.579
84106.716
84333.836
84562.212
84878.95
85212.621
85647.877
86130.21
86725.451
87403.69
88207.205
89122.468
90166.407
91321.376
92569.398
93864.052
95147.528
96351.952
97419.668
98311.12
99010.881
99537.301
99943.257
100205.46
100317.74
100336.79
100334.46
100394.47
100426.85
100416.93
100135.44
99933.806
99857.057
99883.271
100044.66
100127.05
100152.56
100140.12
100081.49
100042.26
100017.91
83398.448
83426.635
83456.522
83497.092
83561.581
83629.422
83721.524
83829.833
83949.958
84114.562
84279.586
84516.741
84754.344
85084.372
85432.344
85885.414
86388.55
87007.849
87714.253
88548.991
89498.78
90578.099
91766.929
93042.263
94352.517
95634.979
96819.629
97849.653
98689.99
99334.712
99813.569
100164.22
100364.99
100435.61
100421.34
100401.81
100442.26
100463.47
100418.13
100111.99
99922.335
99854.928
99910.852
100065.58
100143.3
100167.12
100140.41
100080.75
100041.88
100017.77
83554.567
83584.487
83616.062
83659.158
83726.974
83798.381
83893.751
84007.154
84131.42
84303.672
84474.837
84722.551
84969.983
85314.011
85677.24
86149.08
86674.281
87318.93
88054.986
88922.392
89907.991
91023.446
92245.893
93546.811
94869.186
96145.52
97304.038
98289.802
99074.869
99664.441
100092.66
100379.13
100519.84
100553.88
100503.43
100468.46
100490.98
100506.65
100415.43
100097.1
99916.49
99854.002
99940.41
100085.69
100158.61
100181.05
100140.5
100079.94
100041.44
100017.62
83731.534
83763.123
83796.29
83841.667
83912.58
83987.06
84085.907
84204.885
84333.6
84514.096
84691.889
84950.843
85208.846
85567.667
85947.192
86438.837
86987.43
87658.792
88426.033
89327.576
90350.203
91502.359
92757.824
94082.09
95412.491
96676.849
97802.234
98737.588
99465.059
99999.26
100368.41
100586.23
100672.82
100669.47
100583.53
100533.77
100538.62
100550.69
100405.2
100085.79
99913.904
99853.811
99970.637
100104.89
100172.21
100193.38
100139.55
100078.99
100040.94
100017.45
83926.711
83960.141
83995.097
84042.953
84117.321
84195.331
84297.791
84422.829
84556.33
84745.693
84930.588
85201.473
85470.813
85845.238
86242.158
86754.686
87328.081
88027.602
88827.613
89764.771
90825.553
92014.748
93302.23
94647.045
95980.649
97226.361
98311.258
99191.358
99860.444
100335.51
100635.78
100785.1
100826.51
100780.36
100662.19
100596.42
100583.68
100586.53
100386.78
100074.81
99913.141
99858.057
100001.96
100123.69
100183.75
100203.34
100137.9
100077.88
100040.39
100017.26
84139.617
84175.118
84212.197
84262.861
84341.198
84423.243
84529.54
84661.046
84799.58
84998.403
85190.858
85474.339
85755.809
86146.662
86562.134
87096.712
87696.39
88425.581
89259.977
90234.195
91334.111
92560.393
93878.431
95240.349
96571.474
97791.077
98828.442
99650.446
100259.81
100666.37
100892.62
100979.28
100978
100886.5
100739.54
100656.8
100626.22
100604.83
100360.05
100063.72
99915.071
99869.609
100033.99
100143.45
100193.52
100209
100135.9
100076.63
100039.78
100017.07
84371.996
84409.545
84448.779
84502.2
84584.586
84670.613
84780.945
84919.398
85063.238
85272.104
85472.583
85769.324
86063.78
86471.936
86907.212
87465.074
88092.597
88853.038
89723.449
90736.115
91875.964
93139.044
94485.651
95860.456
97182.454
98367.968
99351.997
100114.61
100657.84
100986.84
101138.84
101171.89
101124.01
100987.59
100814.56
100714.91
100668.93
100612.83
100326.55
100053.69
99925.022
99890.765
100065.09
100165.09
100204.14
100211.76
100133.66
100075.29
100039.13
100016.85
84621.847
84661.808
84703.705
84760.232
84846.825
84937.409
85052.022
85197.839
85347.104
85566.605
85775.614
86086.358
86394.757
86821.165
87277.577
87860.049
88517.029
89310.332
90218.365
91270.774
92451.131
93750.344
95122.887
96505.418
97810.661
98954.182
99881.117
100581.82
101047.71
101294.06
101378.72
101360.01
101263.42
101083.25
100886.68
100771.79
100712.88
100615.22
100290.98
100044.74
99940.24
99919.849
100095.8
100188.89
100219.81
100212.96
100131.23
100073.85
100038.44
100016.64
84892.171
84934.314
84978.599
85037.821
85128.474
85223.281
85342.132
85495.81
85650.874
85881.747
86099.978
86425.523
86748.912
87194.572
87673.526
88281.976
88970.068
89797.874
90745.112
91838.451
93059.666
94393.896
95788.979
97172.963
98453.04
99547.568
100415.47
101045.77
101424.61
101589.01
101613.82
101541
101395.47
101173.41
100955.68
100827.63
100758.22
100612.55
100259.46
100037.15
99953.804
99954.37
100126.37
100213.25
100239.96
100213.31
100128.65
100072.33
100037.71
100016.41
85176.18
85221.124
85268.648
85331.478
85426.887
85527.346
85651.035
85813.533
85974.758
86217.819
86445.895
86787.033
87126.505
87592.458
88095.415
88731.266
89452.14
90316.105
91304.088
92439.417
93701.549
95069.116
96482.377
97860.381
99106.593
100146.85
100952.86
101499.36
101785.25
101876.13
101841.14
101713.73
101519.77
101258.41
101021.68
100881.57
100803.05
100596.77
100235.82
100032.81
99961.397
99994.409
100155.88
100235.98
100260.22
100212.93
100125.98
100070.74
100036.94
100016.19
85480.783
85528.464
85579.319
85645.604
85745.505
85851.595
85979.913
86151.529
86319.082
86574.931
86813.556
87171.09
87527.838
88015.173
88543.627
89208.326
89963.693
90865.52
91895.758
93073.999
94376.741
95775.246
97201.168
98564.733
99768.853
100751.54
101486.6
101937.5
102131.34
102155.58
102058.57
101877.36
101636
101338.67
101085.05
100932.47
100842.07
100572.68
100216.15
100030.86
99967.372
100036.42
100182.97
100255.1
100277.29
100209.53
100123.12
100069.06
100036.16
100015.96
85803.477
85853.861
85908.156
85977.816
86082.13
86194.373
86327.653
86509.295
86683.676
86953.173
87203.206
87577.997
87953.261
88463.074
89018.539
89713.598
90505.247
91446.694
92520.646
93742.515
95085.071
96511.167
97942.934
99282.962
100438.05
101360.21
102008.67
102356.36
102467.4
102424.15
102265.15
102031.3
101743.97
101414.08
101145.77
100980.72
100862.61
100543.76
100198.77
100030.31
99974.194
100079.07
100207.4
100269.51
100288.36
100204.79
100119.99
100067.33
100035.37
100015.74
86141.594
86195.147
86253.919
86328.104
86437.354
86556.616
86695.044
86887.571
87069.033
87352.904
87615.16
88008.039
88403.07
88936.465
89520.512
90247.575
91077.424
92060.317
93179.367
94445.299
95826.239
97275.43
98704.936
100012.29
101113.23
101966.36
102513.55
102757.41
102793.23
102679.81
102460.16
102175.07
101843.54
101484.12
101203.49
101028.85
100871.32
100512.91
100188.12
100033.15
99985.644
100120.64
100229.86
100280.15
100294.46
100199.55
100116.76
100065.58
100034.58
100015.53
86498.389
86555.273
86618.94
86698.412
86812.843
86939.048
87082.298
87286.179
87475.136
87774.15
88049.593
88461.387
88877.478
89435.629
90049.999
90810.931
91681.021
92707.185
93872.547
95182.584
96599.632
98066.079
99484.145
100750.32
101793.3
102561.72
102996.57
103145.14
103105.49
102921.62
102643.1
102308.35
101934.68
101548.52
101258.23
101077.88
100873.9
100481.34
100183.59
100044.44
100008.01
100159.76
100253
100290.52
100297.55
100194.14
100113.51
100063.85
100033.8
100015.32
86875.532
86936.124
87002.845
87085.016
87205.288
87339.903
87488.475
87704.931
87902.077
88217.096
88506.662
88938.156
89376.698
89961.02
90607.718
91404.596
92317.029
93388.214
94600.868
95954.527
97404.348
98880.761
100277.64
101495.28
102473.62
103139.28
103457.67
103520.38
103401.71
103148.95
102813.56
102430.92
102017.51
101607.8
101309.08
101123.77
100870.09
100451.26
100182.42
100064.95
100041.11
100194.93
100278.05
100305.95
100298.71
100188.68
100110.26
100062.12
100033.02
100015.12
87269.211
87333.635
87405.177
87492.046
87617.342
87760.821
87914.757
88144.494
88350.217
88681.715
88986.322
89438.45
89901.198
90513.466
91194.742
92029.745
92986.56
94104.359
95364.953
96761.025
98238.96
99716.643
101082.7
102245.96
103145.98
103693.3
103900.99
103879.74
103680.9
103361.36
102971.28
102542.71
102092.25
101662.71
101355.59
101153.34
100850.16
100426.43
100183.36
100089.84
100078.85
100228.23
100303.79
100327.33
100298.97
100183.26
100107.04
100060.41
100032.26
100014.93
87680.852
87749.384
87826.112
87918.204
88048.261
88201.658
88360.771
88604.226
88818.952
89167.689
89488.733
89962.943
90452.075
91094.284
91812.425
92687.67
93690.781
94856.605
96165.373
97601.723
99101.591
100570.78
101897.01
103000.37
103801.27
104220.97
104329.64
104219.83
103942.44
103558.59
103116.17
102643.75
102159.08
101713.32
101399.83
101166.81
100817.51
100405.59
100188.23
100112.01
100119.92
100260.05
100328.6
100349.26
100295.46
100177.95
100103.83
100058.71
100031.51
100014.76
88110.517
88183.39
88265.395
88362.827
88497.356
88661.045
88825.612
89083.457
89308.282
89675.696
90015.193
90513.233
91030.979
91705.04
92462.176
93379.698
94430.876
95645.902
97002.518
98475.791
99989.803
101440.23
102718.59
103750.91
104433.03
104725.46
104740.4
104539.55
104185.91
103740.55
103248.27
102734.18
102218.17
101760
101443.98
101171.49
100776.16
100386.77
100194.54
100130.98
100163.51
100288.95
100349.57
100368.11
100287.8
100172.47
100100.59
100057.04
100030.79
100014.6
88556.803
88634.324
88721.553
88824.471
88963.439
89138.414
89309.644
89583.481
89820.125
90207.978
90567.938
91091.251
91639.527
92347.152
93145.33
94107.112
95208.048
96473.195
97876.581
99381.954
100900.82
102322.22
103545.68
104488.07
105035.41
105212.13
105129.06
104838.17
104411.14
103907.31
103367.74
102814.14
102269.79
101802.61
101486.05
101172.43
100731.13
100370.03
100201.96
100149
100207.7
100314.36
100364.64
100379.1
100278.64
100166.76
100097.37
100055.42
100030.1
100014.45
89019.002
89101.78
89194.602
89304.125
89448.77
89636.872
89816.121
90108.036
90357.659
90767.002
91148.797
91698.354
92278.888
93021.842
93863.178
94871.271
96023.532
97339.316
98787.343
100318.31
101831.61
103214.08
104373.9
105202.81
105609.33
105679.06
105493.77
105115.28
104618.15
104059.05
103474.66
102883.67
102314.5
101841.05
101513.97
101164.43
100688.37
100359.97
100211.77
100168.58
100250.6
100337.18
100375.14
100384.4
100269.14
100161.07
100094.24
100053.85
100029.44
100014.32
89502.232
89590.812
89689.822
89807.993
89959.846
90162.101
90348.965
90659.66
90922.501
91353.548
91758.405
92335.287
92950.059
93730.391
94617.167
95673.625
96878.613
98244.947
99734.12
101282.44
102779.23
104113.5
105194.26
105888.06
106159.11
106122.17
105833.68
105370.7
104807.13
104196
103568.97
102942.76
102353.21
101876.47
101526.6
101141.74
100652.19
100355.84
100225.28
100192.13
100289.76
100358.89
100384.8
100386.65
100259.72
100155.53
100091.23
100052.36
100028.81
100014.21
90011.343
90106.023
90211.761
90340.035
90497.888
90714.157
90907.697
91237.015
91513.934
91967.381
92397.162
93002.991
93654.365
94474.378
95408.939
96515.788
97774.566
99190.473
100715.61
102271.37
103740.62
105018.04
105996.16
106539.85
106687.39
106537.73
106148.27
105604.51
104978.42
104318.34
103650.61
102992.03
102387.13
101910.26
101530.64
101103.91
100622.48
100354.97
100244.46
100221.07
100322.86
100380.2
100399.57
100387.37
100250.55
100150.18
100088.34
100050.92
100028.22
100014.11
90542.399
90643.696
90756.348
90894.468
91056.828
91288.412
91489.898
91839.061
92131.974
92609.322
93066.324
93703.031
94393.558
95255.685
96240.343
97399.422
98712.573
100175.88
101729.96
103282.01
104712.63
105921.15
106770.54
107160.61
107190.47
106924.6
106437.35
105817
105132.41
104426.23
103719.98
103033.49
102417.57
101939.64
101531.07
101055.1
100597
100358.24
100268.72
100253.12
100351.88
100402.72
100418.83
100386.99
100241.73
100145.05
100085.56
100049.55
100027.66
100014.04
91092.747
91201.486
91320.856
91469.205
91637.665
91886.398
92097.261
92467.792
92778.495
93281.203
93767.77
94437.375
95169.694
96076.397
97113.333
98326.232
99693.583
101200.56
102774.64
104311.26
105692.33
106812.16
107509.42
107755.87
107663.34
107282.05
106700.98
106008.64
105269.53
104520
103778.54
103070.13
102445.07
101954.96
101522.69
100999.88
100575.62
100366.31
100295.08
100286.45
100378.92
100424.98
100439.54
100380.4
100233.3
100140.12
100082.89
100048.23
100027.14
100013.99
91665.799
91783.038
91909.526
92069.546
92244.098
92511.252
92732.172
93125.282
93455.464
93984.978
94503.596
95208.251
95985
96938.691
98029.894
99297.782
100718.17
102263.22
103846.62
105355.82
106676.47
107679.17
108211.36
108324.45
108103.54
107609.8
106939.52
106180.02
105390.21
104600.45
103828.88
103102.72
102467
101961.06
101502.57
100944.55
100558.78
100378.07
100320.86
100321.81
100404.05
100443.44
100455.46
100368.7
100225.14
100135.28
100080.29
100046.98
100026.66
100013.97
92263.667
92390.377
92524.063
92696.917
92877.497
93164.308
93396.229
93813.254
94164.923
94722.838
95276.162
96018.076
96841.807
97844.767
98991.982
100315.51
101786.38
103361.84
104942.52
106411.86
107655.89
108512.66
108879.73
108861.63
108510.04
107907.86
107153.54
106331.77
105495.08
104669.04
103873.21
103124.95
102478.58
101962.67
101467.41
100896.29
100547.76
100391.88
100344.84
100359.52
100426.88
100456.27
100463.23
100355.23
100216.85
100130.55
100077.81
100045.81
100026.23
100013.97
92886.557
93023.963
93165.027
93352.445
93539.381
93847.263
94091.416
94533.919
94909.314
95497.272
96087.961
96869.315
97742.449
98796.866
100001.58
101380.57
102897.63
104493.8
106058.95
107475.61
108618.43
109305.23
109519.4
109362.12
108882.37
108176.63
107343.81
106464.61
105585.17
104727.77
103909.8
103135.82
102483.49
101957.82
101417.7
100857.93
100542.97
100407.16
100368.32
100396.6
100447.7
100466.57
100466.68
100341.46
100208.66
100126
100075.46
100044.73
100025.85
100014
93537.31
93686.036
93834.251
94038.067
94232.07
94562.52
94820.424
95289.812
95691.265
96310.761
96941.397
97764.359
98689.277
99797.292
101060.61
102493.77
104050.63
105655.83
107192.03
108541.93
109550.76
110057.43
110126.02
109824.42
109220.49
108416.78
107511.13
106579.36
105661.96
104778.47
103929.9
103140.01
102485.3
101943.99
101359.08
100826
100541.69
100423.73
100392.06
100430.1
100467.29
100480.02
100467.96
100327.95
100200.78
100121.68
100073.26
100043.72
100025.52
100014.05
94216.231
94377.974
94534.597
94756.104
94958.239
95312.958
95585.67
96083.355
96513.084
97165.54
97838.722
98705.617
99684.744
100848.46
102170.88
103655.26
105243.25
106844.36
108337.26
109598.94
110442.47
110774.2
110693.89
110247.76
109524.76
108629.17
107656.38
106677.12
105727.26
104820.59
103938.66
103141.32
102484.83
101920.78
101295.52
100798.15
100541.95
100441.63
100416.55
100459.09
100487.45
100496.87
100468.37
100314.93
100193.28
100117.61
100071.21
100042.8
100025.23
100014.15
94931.325
95106.361
95270.501
95510.146
95720.18
96100.415
96389.554
96916.268
97376.719
98063.712
98782.325
99695.774
100731.61
101952.88
103333.87
104864.46
106472.51
108055.36
109489.67
110632.67
111287.95
111456.25
111218.9
110631.93
109795.85
108814.69
107780.47
106759.61
105782.89
104846.6
103941.85
103139.78
102479.3
101886.87
101230.95
100774.16
100545.92
100461.29
100442.33
100483.45
100507.26
100515.76
100466.66
100302.53
100186.2
100113.8
100069.29
100041.95
100025
100014.28
95675.929
95866.407
96039.793
96299.732
96518.504
96926.223
97232.732
97790.189
98284.238
99007.88
99775.181
100738.08
101833.01
103113.13
104550.6
106119.84
107734.74
109283.91
110640.92
111629.18
112089.08
112098.07
111699.82
110977.18
110034.61
108974.22
107884.77
106829.13
105829.39
104859.11
103941.66
103134.34
102466.77
101839.18
101170.98
100754.6
100553.79
100483.11
100469.13
100504.49
100523.24
100529.37
100459.56
100290.88
100179.56
100110.23
100067.5
100041.18
100024.82
100014.44
96457.958
96664.67
96846.63
97127.811
97354.885
97791.676
98117.584
98707.319
99238.739
100001.56
100820.97
101836.3
102992.31
104331.52
105821.21
107418.86
109025.62
110524.04
111776.21
112576.53
112852.59
112692.53
112136.07
111284.09
110241.96
109108.91
107971.57
106888.04
105862.04
104864.06
103936.48
103124.87
102445.29
101776.12
101120.83
100740.41
100565.19
100506.44
100495.93
100522.86
100534.67
100535.94
100447.63
100280.03
100173.35
100106.87
100065.83
100040.49
100024.7
100014.66
97272.937
97497.287
97687.824
97992.921
98229.639
98699.039
99047.382
99671.57
100244.48
101049.2
101924
102994.49
104212.85
105609.78
107144.79
108757.87
110340.12
111768.99
112879.23
113473.44
113573.3
113237.38
112527.75
111553.59
110419.07
109220.86
108044.16
106936.92
105879.43
104864.69
103926.8
103111.37
102414.04
101703.77
101079.2
100733.75
100579.24
100529.63
100521.14
100538.86
100545.48
100538.58
100432.44
100269.86
100167.42
100103.66
100064.26
100039.88
100024.63
100014.92
98120.638
98366.603
98569.165
98902.157
99148.888
99653.984
100027.91
100687.97
101306.35
102155.69
103088.83
104216.73
105497.52
106948.64
108519.12
110132.26
111671.6
113005.82
113935.05
114323.69
114244.07
113731.57
112875.34
111786.78
110567.77
109313.59
108105.22
106970.62
105886.98
104859.84
103913.09
103093.73
102373.11
101626.97
101044.05
100731.7
100594.93
100551.99
100544.29
100554.59
100558.02
100539.41
100416.02
100259.82
100161.66
100100.61
100062.82
100039.36
100024.63
100015.23
99011.027
99281.146
99496.168
99862.086
100118.58
100660.97
101064.24
101761.58
102429.51
103326.25
104320.14
105506.85
106848.51
108347.61
109940.76
111536.6
113012.33
114217.3
114934.58
115128.61
114859.29
114174.86
113179.79
111985.25
110691.09
109391.11
108153.14
106988.7
105889.24
104849.71
103895.79
103071.28
102322.03
101550.2
101013.69
100731.86
100611.41
100573.38
100565.86
100571.77
100573.64
100539.62
100399.47
100249.97
100156.12
100097.73
100061.5
100038.92
100024.7
100015.59
99956.758
100249.63
100470.26
100874.6
101143.45
101724.28
102161.66
102898.28
103619.72
104566.28
105622.41
106868.14
108266.99
109804.85
111404.94
112964.13
114352.12
115384.41
115878.12
115880.82
115417.21
114567.55
113442.43
112151.41
110792.92
109454.15
108181.19
106996.79
105886.35
104834.88
103875.06
103042.44
102258.54
101478.75
100987.91
100734.72
100628.26
100594.13
100586.68
100590.11
100591.71
100537.45
100383.21
100240.45
100150.86
100095.06
100060.32
100038.59
100024.85
100016.02
100958.39
101277.55
101500.13
101945.5
102230.01
102851.34
103327.29
104104.5
104882.54
105880.69
106999.46
108302.96
109752.87
111317.02
112905.68
114405.67
115671.99
116491.79
116772.36
116571.26
115917.07
114910.61
113665.29
112288.81
110876.19
109494.97
108194.27
106999.16
105877.87
104816.06
103850.9
103005.18
102180.48
101417.82
100966.64
100739.5
100645.16
100614.42
100607.28
100607.85
100606.54
100532.16
100367.51
100231.39
100145.93
100092.6
100059.29
100038.37
100025.09
100016.53
102013.16
102367.13
102595.98
103084.56
103386.21
104048.41
104567.33
105385.68
106222.53
107273.54
108454.44
109812.7
111304.56
112879.14
114435.38
115850.2
116951.04
117536.85
117609.15
117197.11
116358.97
115205.6
113851.31
112401.52
110939.14
109515.72
108199.36
106996.02
105864.44
104793.95
103823.27
102958.41
102094.73
101364.45
100949.44
100745.76
100661.98
100633.99
100626.76
100624.98
100613.84
100524.26
100352.64
100222.89
100141.36
100090.37
100058.4
100038.25
100025.42
100017.11
103135.26
103527.61
103759.48
104295.92
104617.57
105320.29
105886.47
106746.3
107643.48
108748.54
109990.07
111397.76
112918.91
114484.54
115983.73
117279.77
118169.8
118523.28
118378.87
117756.97
116743.8
115454.93
114004.39
112491.92
110976.29
109524.44
108198.14
106987.12
105846.84
104769.21
103792.27
102902.35
102005.57
101316.96
100935.98
100753.33
100678.8
100652.94
100644.52
100640.57
100616.99
100514.07
100338.69
100214.96
100137.15
100088.35
100057.67
100038.25
100025.83
100017.77
104328.72
104765.17
104997.2
105583.83
105928.98
106670.87
107288.53
108190.69
109149.49
110309.63
111608.83
113057.24
114590.82
116124.51
117537.81
118671.49
119319.43
119446.72
119075.68
118250.56
117073.3
115662.05
114128.76
112556.33
110993.86
109524.87
108189.76
106973.16
105825.9
104742.39
103757.75
102837.33
101916.19
101274.56
100926.04
100762.1
100695.37
100670.93
100660.86
100654.37
100618.18
100501.71
100325.65
100207.6
100133.27
100086.53
100057.05
100038.32
100026.32
100018.5
105596.52
106081.89
106310.68
106947.82
107321.22
108101.91
108777.09
109724.62
110746.36
111961.41
113312.36
114788.27
116312.73
117787.28
119079.97
120001.32
120400.62
120296.38
119697.45
118678.7
117350.34
115831.35
114226.91
112593.18
110999.45
109516.14
108175.06
106955.03
105802.46
104713.77
103718.52
102761.48
101831.28
101237.27
100919.28
100771.69
100711.25
100687.77
100676.75
100666.96
100618.62
100487.39
100313.46
100200.71
100129.65
100084.86
100056.53
100038.51
100026.92
100019.34
106935.31
107474.2
107701.59
108389.55
108797.78
109618.68
110358.4
111356.13
112441.61
113708.48
115100.49
116585.08
118074.16
119457.16
120584.24
121254.99
121411.29
121063.78
120243.38
119043.37
117579.15
115967.47
114294.38
112610.32
110994.35
109499.18
108154.95
106933.63
105777.33
104683.33
103672.33
102671.48
101757.09
101205.26
100915.04
100781.52
100726.28
100703.95
100693.01
100679.19
100617.71
100471.38
100302.01
100194.21
100126.21
100083.29
100056.12
100038.82
100027.66
100020.3
108355.11
108949.62
109181.95
109922.7
110376.17
111237.71
112044.67
113094.17
114242.13
115553.39
116969.45
118437.98
119860.7
121114.54
122022.2
122430.38
122338.94
121745.79
120714.26
119348.02
117764.88
116073.18
114332.18
112614.09
110978.68
109475.1
108130.45
106909.87
105751.22
104650.9
103617.29
102573.54
101691.76
101177.93
100912.53
100791.25
100740.78
100720.11
100709.96
100691.6
100613.66
100454.2
100291.11
100187.95
100122.89
100081.85
100055.86
100039.29
100028.54
100021.4
109887
110538.56
110782.72
111571.38
112084.56
112984.17
113852.44
114949.54
116152.48
117494.15
118910.65
120332.84
121652.4
122729.19
123375.48
123524.97
123173.02
122341.08
121112.51
119597.66
117912.17
116143.19
114349.49
112605.17
110953.78
109445.06
108102.47
106884.63
105724.77
104616.42
103553.01
102472.85
101632.94
101154.3
100911.11
100800.85
100755.14
100736.59
100727.62
100703.88
100606.76
100436.71
100280.52
100181.87
100119.74
100080.56
100055.75
100039.91
100029.57
100022.64
111542.66
112258.61
112525.51
113353.21
113922.93
114860.79
115790.65
116931.94
118172.66
119522.53
120910.01
122250.96
123425.19
124268.29
124639.92
124523.75
123909.39
122850.47
121442.46
119798.33
118022.73
116181.12
114351.86
112584.59
110921.06
109410.16
108071.93
106858.78
105698.6
104580.04
103480.02
102372.56
101579.05
101133.55
100910.53
100810.56
100769.68
100753.36
100745.53
100712.38
100597.6
100419.44
100270.17
100176.02
100116.79
100079.45
100055.79
100040.67
100030.75
100024.04
113344.17
114121.21
114412.31
115272.64
115897.7
116873.52
117861.02
119031.52
120292.17
121624.24
122948.21
124166.8