/*--------------------------------*- C++ -*----------------------------------*\
  =========                 |
  \\      /  F ield         | OpenFOAM: The Open Source CFD Toolbox
   \\    /   O peration     | Website:  https://openfoam.org
    \\  /    A nd           | Version:  8
     \\/     M anipulation  |
\*---------------------------------------------------------------------------*/
FoamFile
{
    version     2.0;
    format      ascii;
    class       surfaceScalarField;
    location    "0.0399893";
    object      phi;
}
// * * * * * * * * * * * * * * * * * * * * * * * * * * * * * * * * * * * * * //

dimensions      [1 0 -1 0 0 0 0];

internalField   nonuniform List<scalar> 
39600
(
-0.00017725839
-0.0083557237
0.0085415433
-0.00021807768
-0.011702417
0.011742596
-0.00025670389
-0.015412881
0.01545073
-0.00029770106
-0.019959253
0.019999276
-0.0003430189
-0.025667563
0.025711491
-0.00042300796
-0.032887409
0.032965461
-0.0006882098
-0.040195233
0.040458742
-0.0010260909
-0.048394492
0.048730445
-0.0014275941
-0.057775397
0.058174576
-0.0019015457
-0.069370597
0.06984175
-0.0024651039
-0.082944981
0.083505202
-0.0031370584
-0.09948939
0.10015732
-0.0039362955
-0.11904663
0.11984106
-0.0048932424
-0.14270087
0.14365204
-0.0060336882
-0.17082533
0.17195887
-0.0074011577
-0.20468479
0.20604396
-0.0090347664
-0.24506166
0.24668534
-0.01098823
-0.29354083
0.29548242
-0.013324174
-0.35144124
0.35376289
-0.016080909
-0.42082219
0.42356194
-0.019326892
-0.50374075
0.50696633
-0.023222759
-0.60296764
0.60683882
-0.027885024
-0.72144897
0.72608155
-0.03347727
-0.86283305
0.86838938
-0.040178551
-1.0313571
1.0380151
-0.048218169
-1.2320521
1.2400391
-0.057874025
-1.4708224
1.4804155
-0.069467919
-1.7547736
1.7662931
-0.083360543
-2.0924723
2.1062786
-0.099942038
-2.4943944
2.5108763
-0.11964331
-2.9733259
2.9929109
-0.14292841
-3.544946
3.5681011
-0.17034236
-4.2284124
4.2556586
-0.20256308
-5.0463433
5.0783357
-0.24043708
-6.0270405
6.0645936
-0.28427581
-7.203412
7.2467542
-0.33518598
-8.616576
8.6668059
-0.39382663
-10.31271
10.37101
-0.4604257
-12.344471
12.410824
-0.53419476
-14.783037
14.856292
-0.61616221
-17.709196
17.790123
-0.69960992
-21.227485
21.307952
-0.79058109
-25.458016
25.546836
-0.88020519
-30.516148
30.603467
-0.95393007
-36.567646
36.642907
-0.98557442
-43.832001
43.865237
-0.95827692
-52.570865
52.544858
-0.83621387
-63.079623
62.956776
-0.55397271
-75.700554
75.417392
-90.879179
90.344276
-1.0296267e-05
-0.0083386728
-3.7627434e-05
-0.011675728
-7.2559684e-05
-0.015378733
-0.00011163537
-0.019921166
-0.00015608374
-0.025624534
-0.00024690518
-0.03279847
-0.00050557709
-0.0399382
-0.00082544605
-0.048076514
-0.0012111172
-0.057391988
-0.0016732383
-0.068911198
-0.002227515
-0.08239394
-0.0028931524
-0.09882766
-0.0036855788
-0.11825886
-0.0046360076
-0.14175605
-0.0057708652
-0.16969718
-0.007131513
-0.20333222
-0.0087536101
-0.24344928
-0.010692196
-0.2916138
-0.01298621
-0.34916099
-0.015703257
-0.41812169
-0.018931857
-0.50053208
-0.022797707
-0.59912587
-0.027442411
-0.7168333
-0.032993042
-0.85731744
-0.03963936
-1.024753
-0.047611179
-1.2241315
-0.057179672
-1.461315
-0.068660386
-1.7433652
-0.082401489
-2.0788151
-0.098782627
-2.47811
-0.11821875
-2.9540028
-0.14115548
-3.5221358
-0.16811942
-4.2016097
-0.19977014
-5.0149176
-0.23692816
-5.9902189
-0.27998778
-7.1608532
-0.32989952
-8.5673331
-0.38753674
-10.255394
-0.45264671
-12.27959
-0.5248491
-14.711337
-0.6058667
-17.6294
-0.68927352
-21.146823
-0.77886988
-25.371011
-0.86641997
-30.430674
-0.93865074
-36.494404
-0.97404016
-43.795344
-0.95181991
-52.591817
-0.83826776
-63.194062
-0.57061151
-75.969158
-91.390286
-1.2199959e-05
-0.0083213787
-3.4794827e-05
-0.011653781
-6.0997151e-05
-0.015353312
-9.0213851e-05
-0.019892928
-0.00012025808
-0.025595921
-0.00021301359
-0.032707474
-0.00046898114
-0.039683838
-0.00078260125
-0.047764733
-0.0011602573
-0.057016532
-0.0016106204
-0.068463483
-0.0021492439
-0.081858466
-0.0027974278
-0.098183261
-0.0035650282
-0.1174958
-0.0044860705
-0.14084045
-0.0055860709
-0.16860377
-0.0069051167
-0.20202104
-0.0084675325
-0.24189616
-0.010320134
-0.28977235
-0.012521946
-0.34697255
-0.015150578
-0.4155091
-0.018284412
-0.49741763
-0.022051352
-0.59538228
-0.026556337
-0.71235642
-0.031951005
-0.85195666
-0.038424471
-1.0183204
-0.046209121
-1.2163961
-0.055577448
-1.4520054
-0.066844314
-1.7321676
-0.08035309
-2.0653868
-0.096477572
-2.462079
-0.11561956
-2.9349702
-0.13820901
-3.499669
-0.16475322
-4.1752186
-0.19594056
-4.9839524
-0.23245185
-5.9540619
-0.27481694
-7.1189958
-0.32385824
-8.5189304
-0.38054946
-10.199013
-0.44442351
-12.215976
-0.51540948
-14.640696
-0.59529046
-17.55135
-0.67863991
-21.066247
-0.76777272
-25.284216
-0.85489175
-30.34502
-0.92563233
-36.423147
-0.96384581
-43.756009
-0.94696969
-52.607403
-0.84235857
-63.299601
-0.58964261
-76.222831
-91.877242
-1.3056113e-05
-0.0083048527
-3.5726915e-05
-0.011631788
-6.1480152e-05
-0.015328367
-8.9449428e-05
-0.01986596
-0.00011496481
-0.025571874
-0.00021446768
-0.032609703
-0.00046287965
-0.039436978
-0.00076444899
-0.047464963
-0.0011285021
-0.05665461
-0.0015637497
-0.068030819
-0.0020813262
-0.081343951
-0.0027019696
-0.097566339
-0.0034453991
-0.11675679
-0.0043410505
-0.1399501
-0.0053997796
-0.16755133
-0.0066571196
-0.20077123
-0.0081509173
-0.24041138
-0.0099380663
-0.287996
-0.012065025
-0.34485864
-0.014619496
-0.41297035
-0.017669791
-0.49438625
-0.021320118
-0.59175474
-0.025690209
-0.70801375
-0.030935804
-0.8467441
-0.037245436
-1.0120505
-0.044853725
-1.2088357
-0.054035657
-1.4428804
-0.065103764
-1.7211664
-0.07839958
-2.0521687
-0.094286901
-2.4462822
-0.11315789
-2.9162056
-0.13542439
-3.4775216
-0.16157869
-4.1492104
-0.19232075
-4.9534286
-0.22824314
-5.9185042
-0.26997041
-7.0777825
-0.31819472
-8.4712949
-0.37391504
-10.143619
-0.43670647
-12.153467
-0.50683274
-14.570969
-0.58406002
-17.476543
-0.66845762
-20.984716
-0.75756683
-25.197447
-0.84396778
-30.259685
-0.91466072
-36.351886
-0.95552013
-43.714101
-0.94422077
-52.617483
-0.84875216
-63.396018
-0.61120314
-76.461353
-92.339869
-1.3339729e-05
-0.0082893407
-3.3706953e-05
-0.011611985
-5.6309746e-05
-0.015306478
-8.0740915e-05
-0.019842445
-0.0001001955
-0.025553865
-0.00020376722
-0.03250777
-0.00044679414
-0.039195473
-0.00074003505
-0.04717351
-0.0010894922
-0.056307255
-0.0015106578
-0.067612186
-0.0020090279
-0.080848553
-0.0026083564
-0.096970572
-0.0033230134
-0.11604638
-0.0041754148
-0.1391028
-0.0051867678
-0.16654606
-0.0063988545
-0.19956644
-0.0078380334
-0.23898098
-0.0095705393
-0.28627406
-0.011640914
-0.34280097
-0.014114689
-0.4105118
-0.017067964
-0.49145127
-0.020606079
-0.58823862
-0.024848028
-0.70379824
-0.029951128
-0.84167282
-0.036106477
-1.0059333
-0.043550804
-1.2014373
-0.052560822
-1.4339249
-0.063448612
-1.7103424
-0.076549749
-2.0391419
-0.092221775
-2.4306972
-0.11084392
-2.8976867
-0.13281342
-3.4556674
-0.15860748
-4.1235542
-0.18892591
-4.9233221
-0.22428821
-5.8835105
-0.26545572
-7.0371431
-0.31294122
-8.4243223
-0.3677358
-10.089166
-0.42961453
-12.091931
-0.49898948
-14.502116
-0.57471942
-17.403278
-0.65861959
-20.903639
-0.74870226
-25.110144
-0.8339145
-30.17444
-0.90527773
-36.279779
-0.949064
-43.669276
-0.9435052
-52.621798
-0.85745812
-63.483017
-0.63544776
-76.684353
-92.777829
-1.2833453e-05
-0.0082758413
-3.1013376e-05
-0.011594436
-5.0843973e-05
-0.015287421
-7.2422815e-05
-0.019821791
-8.7943864e-05
-0.025539827
-0.00019743608
-0.032399825
-0.00043528821
-0.038959091
-0.00071925428
-0.04689122
-0.0010554922
-0.055973005
-0.0014562506
-0.067213844
-0.0019345282
-0.080373138
-0.0025061088
-0.09640243
-0.0031901995
-0.11536638
-0.0040103545
-0.13828757
-0.0049833537
-0.16557899
-0.0061577626
-0.19839915
-0.0075586727
-0.23758862
-0.009236778
-0.28460617
-0.011236179
-0.3408139
-0.013629054
-0.40813375
-0.016488636
-0.48860951
-0.019918531
-0.58483015
-0.024038487
-0.69970403
-0.029007904
-0.83673438
-0.035018859
-0.99995952
-0.04231262
-1.1941881
-0.051166475
-1.4251238
-0.061891726
-1.6996788
-0.07481908
-2.0262862
-0.090296941
-2.4153036
-0.10869434
-2.8793896
-0.13039175
-3.4340818
-0.15585511
-4.0982214
-0.18578508
-4.8935973
-0.22065083
-5.8489995
-0.26129935
-6.997051
-0.30820392
-8.3778682
-0.36209863
-10.035614
-0.42310669
-12.031312
-0.49184858
-14.434017
-0.56703136
-17.330315
-0.65050668
-20.822735
-0.73994528
-25.023813
-0.8249109
-30.088713
-0.89755108
-36.2063
-0.94456407
-43.621263
-0.94501246
-52.620184
-0.86872499
-63.56026
-0.66249757
-76.891585
-93.190907
-1.3047973e-05
-0.0082632213
-2.9117776e-05
-0.011578871
-4.5377235e-05
-0.01527186
-6.2256996e-05
-0.019805763
-7.067776e-05
-0.02553283
-0.00018117218
-0.032290733
-0.0004078156
-0.038733792
-0.00067873099
-0.046621927
-0.0010016472
-0.055651997
-0.0013905293
-0.066827298
-0.0018527496
-0.079913665
-0.0024042541
-0.095854278
-0.0030630002
-0.11471165
-0.0038580463
-0.13749735
-0.0048053475
-0.16463746
-0.0059411136
-0.19727027
-0.0072924161
-0.23624557
-0.0089123236
-0.28299619
-0.010845119
-0.33889303
-0.013159583
-0.40583358
-0.015929001
-0.48585726
-0.019255086
-0.58152467
-0.023259573
-0.69572427
-0.028103007
-0.83192066
-0.033981694
-0.99411636
-0.04113874
-1.1870736
-0.049853555
-1.4164593
-0.060435722
-1.6891551
-0.073209677
-2.0135805
-0.088516564
-2.4000776
-0.10671243
-2.8612912
-0.12816441
-3.412738
-0.15332623
-4.0731829
-0.18291342
-4.8642166
-0.21736667
-5.814901
-0.25749893
-6.9574791
-0.30383516
-8.3319165
-0.35694664
-9.9828337
-0.41721578
-11.971457
-0.4854727
-14.366464
-0.56030117
-17.25754
-0.64334262
-20.742012
-0.73213154
-24.937779
-0.81731663
-30.003048
-0.89153707
-36.131271
-0.94205148
-43.569822
-0.94877574
-52.612393
-0.88252445
-63.627483
-0.69244423
-77.082682
-93.578707
-1.3022797e-05
-0.0082518607
-2.6183848e-05
-0.01156623
-3.7809693e-05
-0.015260884
-4.82634e-05
-0.019796093
-4.9852265e-05
-0.025532687
-0.00016207274
-0.032179867
-0.00037917454
-0.038518045
-0.00063965582
-0.046363049
-0.00095028932
-0.055343229
-0.0013266689
-0.066453207
-0.0017728813
-0.079470153
-0.0023170705
-0.095313359
-0.0029536869
-0.1140789
-0.003720643
-0.13673504
-0.0046323266
-0.16373133
-0.0057281286
-0.19618113
-0.0070336851
-0.23494799
-0.0085984815
-0.28144095
-0.010466067
-0.337037
-0.012704919
-0.40360861
-0.015387176
-0.48319169
-0.018615408
-0.57831647
-0.022511619
-0.69185213
-0.027238303
-0.82722286
-0.032996569
-0.98839263
-0.040031962
-1.1800795
-0.048625863
-1.4079139
-0.059084996
-1.6787522
-0.071728144
-2.0010031
-0.086885736
-2.3849981
-0.10490472
-2.8433671
-0.12614021
-3.3916076
-0.15105689
-4.0483826
-0.18031228
-4.8351737
-0.2143912
-5.781179
-0.25406543
-6.9183605
-0.29990781
-8.2864013
-0.35229349
-9.9307471
-0.41194865
-11.912226
-0.47985264
-14.299276
-0.55430656
-17.184858
-0.63719111
-20.661257
-0.72552751
-24.851972
-0.81120542
-29.916779
-0.88731314
-36.054469
-0.94159714
-43.51469
-0.95482653
-52.598146
-0.89903556
-63.684249
-0.72544013
-77.257307
-93.940923
-1.1056357e-05
-0.0082434966
-2.0703556e-05
-0.011557032
-2.7900808e-05
-0.01525433
-3.3432747e-05
-0.01979132
-3.4936733e-05
-0.025532626
-0.00015385812
-0.032062166
-0.00036463791
-0.038308513
-0.00061556567
-0.04611366
-0.00091596508
-0.055044599
-0.0012749796
-0.066096386
-0.0017052789
-0.079042432
-0.0022276286
-0.094794132
-0.0028414726
-0.11346878
-0.0035824185
-0.13599857
-0.0044628385
-0.16285627
-0.0055214129
-0.19512896
-0.0067816924
-0.23369541
-0.0082940562
-0.27993785
-0.010099293
-0.33524289
-0.012265987
-0.40145526
-0.014865655
-0.48060805
-0.01800088
-0.57520045
-0.021795697
-0.68808036
-0.026416375
-0.8226298
-0.032066779
-0.98277519
-0.038996923
-1.1731887
-0.047489482
-1.3994674
-0.057846287
-1.6684486
-0.070380443
-1.9885313
-0.085412863
-2.3700406
-0.10327818
-2.8255938
-0.12432545
-3.3706622
-0.14906875
-4.0237562
-0.17799882
-4.8064632
-0.21174477
-5.747793
-0.25101388
-6.8796346
-0.29643922
-8.2412585
-0.34831265
-9.8791217
-0.40720988
-11.853727
-0.47486812
-14.23261
-0.54917471
-17.112136
-0.63200737
-20.580284
-0.72018255
-24.766278
-0.80663268
-29.829876
-0.88488832
-35.975599
-0.94325666
-43.455551
-0.96328859
-52.577202
-0.91828501
-63.730231
-0.76160742
-77.41503
-94.277159
-1.0742124e-05
-0.0082366659
-1.8267608e-05
-0.011550009
-2.205253e-05
-0.01525127
-2.2507932e-05
-0.019791639
-2.3579963e-05
-0.025532952
-0.00014619302
-0.031940736
-0.00034939701
-0.038106509
-0.00059313811
-0.045871396
-0.00088103429
-0.054758399
-0.0012304315
-0.065749086
-0.0016443259
-0.078631
-0.0021446107
-0.094296848
-0.0027380036
-0.11287896
-0.0034537128
-0.13528716
-0.004303492
-0.16201164
-0.0053256758
-0.19411296
-0.0065434432
-0.23248506
-0.0080048281
-0.27848537
-0.0097508559
-0.33350763
-0.011848233
-0.39937084
-0.014369889
-0.47810195
-0.017418176
-0.57217084
-0.021119922
-0.68440102
-0.025644725
-0.81813185
-0.031202167
-0.97724978
-0.038044558
-1.1663844
-0.046454492
-1.391102
-0.05673131
-1.658223
-0.069178952
-1.9761437
-0.084109843
-2.3551822
-0.10184656
-2.8079468
-0.12273192
-3.349876
-0.14731876
-3.9992886
-0.17597649
-4.7780309
-0.2094389
-5.7146912
-0.24834686
-6.841255
-0.29337756
-8.196489
-0.3447748
-9.8279511
-0.40323213
-11.795537
-0.47019917
-14.166861
-0.5451005
-17.038851
-0.62778567
-20.499412
-0.71614385
-24.680339
-0.80369298
-29.741885
-0.88428178
-35.894405
-0.9470862
-43.392131
-0.97428604
-52.549181
-0.94042457
-63.765077
-0.80103762
-77.555479
-94.586926
-1.0546617e-05
-0.0082308353
-1.6303999e-05
-0.011544685
-1.6888188e-05
-0.015251296
-1.1807723e-05
-0.019797456
-1.4766803e-05
-0.025531298
-0.00014174913
-0.031814845
-0.00033695768
-0.037912436
-0.00057293396
-0.045636842
-0.0008509531
-0.054481993
-0.0011891712
-0.065412881
-0.0015876056
-0.078234924
-0.0020711335
-0.093816196
-0.0026429163
-0.11231061
-0.0033337115
-0.13460051
-0.0041538993
-0.16119642
-0.0051413856
-0.19313142
-0.0063184274
-0.23131517
-0.0077316669
-0.27708073
-0.0094210743
-0.33182859
-0.011452797
-0.39735154
-0.013900863
-0.4756688
-0.01686866
-0.5692209
-0.020486066
-0.68080502
-0.02492735
-0.81371618
-0.030405962
-0.97180167
-0.037178762
-1.1596478
-0.045527264
-1.3827956
-0.055745912
-1.6480526
-0.068130587
-1.963816
-0.08298352
-2.3403989
-0.1006176
-2.7903994
-0.12136536
-3.3292243
-0.14582356
-3.974958
-0.17426026
-4.749827
-0.20748498
-5.6818246
-0.24608965
-6.8031527
-0.29073244
-8.1520932
-0.34179655
-9.7770941
-0.40008785
-11.737473
-0.46663023
-14.101934
-0.54200629
-16.965276
-0.62474835
-20.418466
-0.71353578
-24.593373
-0.80251085
-29.652411
-0.88553136
-35.810675
-0.95309586
-43.324069
-0.98785155
-52.513899
-0.96555615
-63.788413
-0.84397451
-77.67814
-94.869859
-9.4586457e-06
-0.0082270024
-1.2529784e-05
-0.011542012
-9.055075e-06
-0.015255338
3.3554147e-06
-0.019810618
-1.979812e-06
-0.025527194
-0.00013225804
-0.031685581
-0.00031983512
-0.037725915
-0.00054738152
-0.045410651
-0.00081591013
-0.05421501
-0.001143042
-0.065087678
-0.0015274255
-0.077852813
-0.0019940101
-0.093352379
-0.0025453794
-0.11176255
-0.0032122316
-0.13393764
-0.0040041755
-0.16040927
-0.004958745
-0.19218258
-0.0060984099
-0.2301824
-0.0074663765
-0.27572104
-0.0091016868
-0.3302033
-0.01107119
-0.3953941
-0.013451521
-0.47330295
-0.016345618
-0.56634416
-0.019888008
-0.67728345
-0.024257622
-0.80937144
-0.02967451
-0.96641441
-0.03639654
-1.1529609
-0.044705194
-1.3745275
-0.054888216
-1.637916
-0.067233509
-1.9515255
-0.08203258
-2.3256674
-0.099590802
-2.7729257
-0.12027163
-3.3086355
-0.14458816
-3.9507785
-0.17285006
-4.7218049
-0.20588174
-5.649146
-0.24423888
-6.7652633
-0.28853177
-8.1080364
-0.33944963
-9.7263992
-0.39763692
-11.679538
-0.46397862
-14.037547
-0.53967386
-16.891603
-0.62312119
-20.33679
-0.71278128
-24.504907
-0.80323829
-29.561424
-0.88877724
-35.724088
-0.96124342
-43.250994
-1.0041389
-52.470929
-0.99380371
-63.799819
-0.89044862
-77.782585
-95.125377
-9.44854e-06
-0.0082238746
-1.1195939e-05
-0.011540588
-5.0786453e-06
-0.015261931
1.3930151e-05
-0.019830329
2.8989139e-06
-0.025517297
-0.00013147954
-0.03155215
-0.00031283055
-0.037545548
-0.0005328812
-0.045191906
-0.00079203109
-0.053957323
-0.0011081151
-0.064773458
-0.0014782951
-0.077484806
-0.0019285319
-0.092904819
-0.0024601051
-0.11123417
-0.0031040337
-0.13329758
-0.0038692485
-0.15964867
-0.0047928928
-0.19126447
-0.0058925381
-0.22908941
-0.0072117085
-0.27440988
-0.0087932401
-0.32863143
-0.010704955
-0.39349396
-0.013024023
-0.47099776
-0.0158597
-0.56352507
-0.019342526
-0.67382049
-0.023655372
-0.80508227
-0.029026829
-0.96107114
-0.035718378
-1.1463026
-0.04400885
-1.3662754
-0.054179267
-1.6277893
-0.066508011
-1.9392488
-0.081276904
-2.3109634
-0.098786609
-2.7554969
-0.11945369
-3.2880602
-0.14363403
-3.9267445
-0.17177043
-4.6939175
-0.20466101
-5.6165997
-0.24282698
-6.7275124
-0.28689075
-8.0641994
-0.33768069
-9.6758723
-0.39594115
-11.621728
-0.46216375
-13.973277
-0.538083
-16.817794
-0.62293723
-20.253741
-0.7135507
-24.414817
-0.8058192
-29.468359
-0.89438263
-35.634171
-0.97148023
-43.173044
-1.0231762
-52.419524
-1.0253179
-63.798773
-0.94067326
-77.868326
-95.352931
-8.7786074e-06
-0.0082223151
-8.634575e-06
-0.01154112
3.5029912e-07
-0.01527144
2.7060244e-05
-0.019857781
9.9058265e-06
-0.025501232
-0.00012781289
-0.031415315
-0.00030234165
-0.037371974
-0.00051407974
-0.044981417
-0.00076347466
-0.053709344
-0.001067128
-0.064471587
-0.0014234513
-0.077130586
-0.0018579103
-0.092472933
-0.0023709089
-0.11072425
-0.0029934242
-0.13267877
-0.0037339394
-0.1589126
-0.0046242476
-0.19037947
-0.005678821
-0.22804125
-0.0069475943
-0.27314886
-0.0084789403
-0.32710944
-0.010337788
-0.39164635
-0.012603027
-0.46874599
-0.01539032
-0.56075392
-0.018833364
-0.67039676
-0.023108469
-0.80083019
-0.028453164
-0.9557538
-0.035135019
-1.1396531
-0.043429892
-1.3580176
-0.053611392
-1.6176499
-0.065947063
-1.9269634
-0.080709515
-2.2962641
-0.098195053
-2.7380891
-0.11886243
-3.2674847
-0.14295648
-3.902804
-0.17101511
-4.6661143
-0.20381691
-5.5841323
-0.24187125
-6.6898196
-0.28588118
-8.0204156
-0.33642042
-9.6256124
-0.39500434
-11.563689
-0.46128154
-13.908816
-0.53751816
-16.743569
-0.62397688
-20.169488
-0.71543275
-24.323252
-0.80998392
-29.372954
-0.90237798
-35.540391
-0.98417029
-43.089541
-1.0451494
-52.35899
-1.0601883
-63.784848
-0.99483128
-77.934786
-95.552002
-7.4098348e-06
-0.0082228523
-4.9964446e-06
-0.01154393
7.1129118e-06
-0.015284073
4.2249396e-05
-0.019893678
1.8768674e-05
-0.025478789
-0.00012103428
-0.031276353
-0.00028808383
-0.037205829
-0.00049209206
-0.044778626
-0.00073152483
-0.053471282
-0.001024576
-0.064180264
-0.0013680839
-0.076789101
-0.0017881373
-0.092055353
-0.0022840995
-0.11023124
-0.0028870016
-0.13207943
-0.0036010258
-0.15820284
-0.0044545057
-0.18953112
-0.005471089
-0.22703086
-0.0067015359
-0.27192589
-0.0081896615
-0.32563033
-0.010002913
-0.38984389
-0.012220323
-0.46654148
-0.014957837
-0.55803182
-0.018368186
-0.66700482
-0.02262778
-0.79659248
-0.027964501
-0.95044305
-0.034657804
-1.1329904
-0.042980412
-1.3497299
-0.053195253
-1.6074748
-0.065561847
-1.9146447
-0.080342819
-2.2815431
-0.097826242
-2.7206782
-0.11851156
-3.246893
-0.14258033
-3.8788938
-0.17058628
-4.6383646
-0.20335903
-5.5516844
-0.24142981
-6.6520784
-0.28538099
-7.9766821
-0.33585402
-9.5753678
-0.39485998
-11.505272
-0.46144639
-13.843803
-0.53851881
-16.668491
-0.62563816
-20.084699
-0.71864261
-24.229887
-0.81566962
-29.27513
-0.91203909
-35.442635
-1.0000249
-42.999584
-1.0700905
-52.289622
-1.0985647
-63.757497
-1.0530141
-77.981444
-95.72192
-7.4066909e-06
-0.0082240368
-4.0520219e-06
-0.011547663
9.5485068e-06
-0.015298135
5.1248e-05
-0.019936222
1.9331306e-05
-0.025447788
-0.00011560158
-0.031142286
-0.00027706308
-0.037045271
-0.00047484086
-0.044582041
-0.00070571852
-0.053241732
-0.00098965652
-0.063897997
-0.0013216411
-0.076459071
-0.0017283988
-0.091650979
-0.0022084571
-0.10975403
-0.0027904457
-0.13150086
-0.0034753136
-0.15752209
-0.0042983433
-0.188713
-0.0052876417
-0.22604754
-0.0064869342
-0.27073382
-0.007938625
-0.32418737
-0.0097112763
-0.38808171
-0.011887917
-0.46437738
-0.014584545
-0.55535019
-0.017964814
-0.66364247
-0.022219849
-0.79235874
-0.027573418
-0.94511473
-0.034300939
-1.1262925
-0.042673179
-1.3413913
-0.052945648
-1.5972405
-0.06536511
-1.9022717
-0.080190272
-2.2667756
-0.097747431
-2.7031881
-0.11841229
-3.2263239
-0.1424546
-3.8550114
-0.17045068
-4.6106278
-0.20322906
-5.5192193
-0.24138032
-6.6142471
-0.28535159
-7.9328969
-0.33614304
-9.5247233
-0.39535653
-11.44666
-0.46256311
-13.777907
-0.54053051
-16.592258
-0.62857024
-19.99888
-0.723345
-24.134916
-0.82318452
-29.174545
-0.92401729
-35.340474
-1.0185377
-42.903126
-1.0981367
-52.210877
-1.1405662
-63.716193
-1.1154959
-78.007631
-95.862046
-6.7422562e-06
-0.0082265236
-1.5919442e-06
-0.011553174
1.3925049e-05
-0.015314118
6.2425285e-05
-0.019985544
2.1995171e-05
-0.025408225
-0.00010663921
-0.031014489
-0.00026260662
-0.036890157
-0.00045441937
-0.044391377
-0.00067718045
-0.053020247
-0.00095220743
-0.063624586
-0.00127295
-0.076140212
-0.0016663921
-0.09125984
-0.0021300462
-0.10929312
-0.00268958
-0.13094464
-0.003350322
-0.15686529
-0.0041512761
-0.18791682
-0.0051150834
-0.22508951
-0.0062834724
-0.2695724
-0.007702665
-0.32277656
-0.0094410535
-0.38635335
-0.011585192
-0.46224525
-0.014255462
-0.55269423
-0.017614788
-0.66030023
-0.021878495
-0.78811523
-0.027273921
-0.93974325
-0.034057466
-1.119537
-0.042503825
-1.3329766
-0.052855726
-1.5869247
-0.065352014
-1.8898193
-0.08024292
-2.2519383
-0.09791195
-2.6855838
-0.11856951
-3.2057635
-0.14256985
-3.8311703
-0.17073927
-4.582724
-0.2035077
-5.4867518
-0.24177847
-6.5762957
-0.28597217
-7.8888591
-0.33711849
-9.4736522
-0.39639371
-11.388086
-0.4647312
-13.710776
-0.54355589
-16.515015
-0.63286575
-19.91172
-0.72958467
-24.037735
-0.83260581
-29.070846
-0.93833294
-35.23357
-1.0398059
-42.799864
-1.1294199
-52.122106
-1.1863451
-63.660393
-1.1823071
-78.012797
-95.971619
-6.6093012e-06
-0.0082297533
-1.1211646e-07
-0.011560031
1.721442e-05
-0.015331926
7.1367e-05
-0.020040526
2.2781498e-05
-0.025360451
-0.00010537065
-0.0308871
-0.00025554265
-0.036740808
-0.00044148211
-0.044206559
-0.00065654737
-0.052806415
-0.00092300172
-0.063359696
-0.0012330978
-0.075831938
-0.001614441
-0.090880722
-0.0020611425
-0.10884908
-0.0026008742
-0.13040809
-0.0032433891
-0.15622662
-0.0040232342
-0.18714156
-0.004961788
-0.22415653
-0.0061028464
-0.26843808
-0.0074933804
-0.32139415
-0.0092049876
-0.3846515
-0.011325191
-0.46013672
-0.013980383
-0.550053
-0.017337026
-0.65696021
-0.021623101
-0.78384886
-0.027077322
-0.9343123
-0.033944732
-1.1126967
-0.042487007
-1.3244649
-0.052941333
-1.5765053
-0.065536646
-1.8772664
-0.080540238
-2.2369846
-0.09829932
-2.667889
-0.11900606
-3.1851561
-0.14301786
-3.8073132
-0.17135539
-4.5546614
-0.20422114
-5.4541785
-0.24274035
-6.5380801
-0.28721286
-7.8445458
-0.33881854
-9.4221692
-0.39849812
-11.329214
-0.4679721
-13.642488
-0.54771567
-16.436783
-0.63857398
-19.823025
-0.73755358
-23.938231
-0.84398155
-28.963707
-0.95502954
-35.121623
-1.0639246
-42.689612
-1.1640029
-52.023147
-1.2360911
-63.589475
-1.2538132
-77.996215
-96.049938
-6.3756368e-06
-0.0082337498
1.4482435e-06
-0.011568188
2.0976168e-05
-0.015351932
7.9477181e-05
-0.020099846
2.3798358e-05
-0.025305543
-0.00010056838
-0.0307635
-0.00024536046
-0.036596801
-0.00042576991
-0.04402723
-0.00063349944
-0.052599867
-0.00089200756
-0.0631027
-0.0011922176
-0.075533483
-0.0015623483
-0.090512741
-0.001994503
-0.10841949
-0.0025179317
-0.12988776
-0.0031432217
-0.15560503
-0.0039021916
-0.18638705
-0.0048184078
-0.22324572
-0.0059358949
-0.26732708
-0.0073032796
-0.32003457
-0.0089889843
-0.38297514
-0.011089318
-0.45804754
-0.013741148
-0.54741448
-0.017122341
-0.65359482
-0.021450127
-0.77953974
-0.026979423
-0.92880503
-0.03395827
-1.1057435
-0.042619787
-1.3158321
-0.053198578
-1.5659594
-0.065913983
-1.8645907
-0.081090891
-2.221855
-0.098909056
-2.6501351
-0.1196278
-3.1645363
-0.14388349
-3.7832122
-0.17234954
-4.526478
-0.20540834
-5.4214161
-0.24413357
-6.4996225
-0.28898896
-7.7998694
-0.34124883
-9.3701893
-0.40158645
-11.269857
-0.47212092
-13.573175
-0.5532405
-16.357171
-0.64574605
-19.732216
-0.74741766
-23.835915
-0.85743526
-28.852847
-0.97406855
-35.004307
-1.0909968
-42.571944
-1.2020898
-51.913226
-1.2898958
-63.502863
-1.3300751
-77.957183
-96.096212
-5.89101e-06
-0.0082387253
3.7234381e-06
-0.011578109
2.6252604e-05
-0.015374926
8.7097659e-05
-0.020161485
2.5149866e-05
-0.025244299
-9.5057814e-05
-0.030644009
-0.00023506568
-0.036457543
-0.00041049662
-0.043852852
-0.00061156492
-0.052399937
-0.00086285962
-0.062852872
-0.0011542631
-0.075243779
-0.0015122453
-0.090156841
-0.001931324
-0.1080029
-0.0024413906
-0.12938068
-0.0030508745
-0.15499915
-0.0037916551
-0.18565057
-0.0046890646
-0.22235353
-0.0057871852
-0.26623525
-0.0071324699
-0.31869686
-0.0087940424
-0.38132265
-0.010881943
-0.45597051
-0.013544461
-0.54476494
-0.016967244
-0.65018745
-0.021367441
-0.77515776
-0.02699994
-0.92319401
-0.034107753
-1.0986605
-0.042910664
-1.307057
-0.053635989
-1.5552658
-0.066536641
-1.8517277
-0.081842209
-2.2065954
-0.099759755
-2.6322824
-0.12053927
-3.1438539
-0.14506899
-3.7588382
-0.1737475
-4.4980872
-0.20714602
-5.3883081
-0.24620104
-6.4608286
-0.29144005
-7.7548017
-0.34441815
-9.3176134
-0.40559098
-11.209843
-0.47724971
-13.502734
-0.56017053
-16.275461
-0.65454825
-19.638978
-0.75939287
-23.730379
-0.87324571
-28.737958
-0.99534952
-34.881454
-1.1211192
-42.446088
-1.2437888
-51.791748
-1.3479691
-63.399891
-1.4113363
-77.894969
-96.109555
-6.3403069e-06
-0.0082437191
4.4584725e-06
-0.011589198
3.0200782e-05
-0.015401134
9.1508892e-05
-0.020223582
2.3533592e-05
-0.025176985
-9.4383328e-05
-0.030526803
-0.00022984468
-0.036322798
-0.00040058202
-0.043683139
-0.00059544724
-0.052206171
-0.00084013366
-0.06260961
-0.0011234109
-0.074962147
-0.0014710236
-0.089811245
-0.0018782766
-0.10759805
-0.0023759375
-0.12888592
-0.0029715042
-0.15440706
-0.0036968079
-0.18492945
-0.0045788548
-0.22147654
-0.0056583136
-0.26516186
-0.0069818435
-0.31738061
-0.0086332903
-0.37967991
-0.010729483
-0.45388468
-0.013417491
-0.5420893
-0.016891184
-0.64672835
-0.021385318
-0.77068085
-0.02714483
-0.91745478
-0.034399151
-1.0914296
-0.043370017
-1.2981122
-0.05426805
-1.5443975
-0.06736582
-1.8386655
-0.082796648
-2.1912096
-0.10076559
-2.6143778
-0.12184449
-3.1228713
-0.14660538
-3.7342366
-0.17556647
-4.4694189
-0.20934053
-5.3548157
-0.24876576
-6.4216411
-0.29458582
-7.7091343
-0.34837478
-9.2642861
-0.4104266
-11.149061
-0.48352336
-13.430871
-0.56850713
-16.191456
-0.66556053
-19.542535
-0.773486
-23.621746
-0.89171061
-28.618343
-1.0189395
-34.753213
-1.1544127
-42.310762
-1.2892306
-51.658133
-1.4104607
-63.279878
-1.4977797
-77.808809
-96.089083
-6.0277013e-06
-0.008249485
6.5560337e-06
-0.011602085
3.6570003e-05
-0.015431647
9.7906998e-05
-0.020285714
2.5774027e-05
-0.025105445
-8.9483784e-05
-0.030412244
-0.00022088873
-0.036192091
-0.00038766413
-0.043517373
-0.00057695401
-0.052017941
-0.00081535243
-0.062372601
-0.0010903503
-0.074688741
-0.0014293772
-0.089474174
-0.0018276734
-0.10720209
-0.0023139596
-0.12840244
-0.0028976176
-0.15382678
-0.0036094318
-0.18422167
-0.004477004
-0.22061386
-0.0055386966
-0.26410604
-0.006852257
-0.31607413
-0.0085107824
-0.37802984
-0.010628821
-0.45177677
-0.013359275
-0.5393709
-0.016902068
-0.64319984
-0.021502252
-0.76609747
-0.027401702
-0.91157516
-0.034830298
-1.0840237
-0.043993101
-1.2889746
-0.055118069
-1.5333011
-0.06837084
-1.8254471
-0.083931412
-2.1756936
-0.10207342
-2.5962988
-0.12345343
-3.1015873
-0.14849756
-3.7093549
-0.17779797
-4.4404152
-0.21199529
-5.3208917
-0.25191816
-6.3819292
-0.29842753
-7.6627286
-0.35314483
-9.2100418
-0.41612873
-11.087335
-0.49087744
-13.357391
-0.57834386
-16.104967
-0.67800033
-19.443276
-0.78926697
-23.50967
-0.91232567
-28.493767
-1.0458022
-34.617768
-1.1909935
-42.165828
-1.3385502
-51.511775
-1.4775215
-63.142131
-1.5896489
-77.697849
-96.03382
-7.3780856e-06
-0.0082543015
5.438182e-06
-0.011615199
3.8660142e-05
-0.015465372
9.6883044e-05
-0.020344712
2.0411418e-05
-0.025029507
-9.3126554e-05
-0.030299397
-0.00022101854
-0.036064865
-0.00038441049
-0.043354963
-0.0005688914
-0.051834485
-0.00080263169
-0.062140194
-0.0010703142
-0.074422604
-0.0014004244
-0.089145942
-0.0017904889
-0.1068143
-0.0022670056
-0.12792864
-0.0028406515
-0.15325641
-0.003542472
-0.18352377
-0.0043961544
-0.21976492
-0.0054468819
-0.26306099
-0.0067637247
-0.31476409
-0.0084372145
-0.37636444
-0.010586665
-0.44963697
-0.013375071
-0.53659393
-0.017010575
-0.6395778
-0.021735055
-0.7613888
-0.027796352
-0.90553257
-0.035424615
-1.0764168
-0.044797677
-1.2796252
-0.05614281
-1.5219827
-0.069575566
-1.8120475
-0.085256079
-2.1600568
-0.10372729
-2.5778897
-0.12538623
-3.0800245
-0.15075886
-3.6841491
-0.18045125
-4.4110188
-0.21514339
-5.286459
-0.25567565
-6.3415765
-0.30298516
-7.615469
-0.35866749
-9.1549997
-0.42289261
-11.024244
-0.4994799
-13.282071
-0.58956512
-16.016204
-0.69177305
-19.340867
-0.80681811
-23.393717
-0.93508868
-28.363932
-1.0759608
-34.474609
-1.2309719
-42.011034
-1.3918877
-51.352045
-1.549396
-62.985856
-1.6871571
-77.561264
-95.942819
-6.6232229e-06
-0.0082602384
7.8988362e-06
-0.011630013
4.6266379e-05
-0.015504267
0.00010126826
-0.020400485
2.299717e-05
-0.024951761
-8.7882232e-05
-0.030189209
-0.00021189083
-0.035941473
-0.0003720238
-0.0431958
-0.00055217344
-0.051655309
-0.00078165583
-0.061912015
-0.0010437988
-0.074161949
-0.0013666832
-0.088824887
-0.0017491459
-0.10643403
-0.002217507
-0.12746291
-0.0027833028
-0.1526938
-0.003476881
-0.182834
-0.0043229149
-0.21892349
-0.005372504
-0.26201691
-0.0066992392
-0.31344396
-0.0083941773
-0.3746774
-0.010583591
-0.44745697
-0.013442518
-0.53374619
-0.017193036
-0.63584045
-0.022072812
-0.75652448
-0.028325995
-0.89929767
-0.036166774
-1.0685968
-0.045787551
-1.2700273
-0.057325703