/*--------------------------------*- C++ -*----------------------------------*\
  =========                 |
  \\      /  F ield         | OpenFOAM: The Open Source CFD Toolbox
   \\    /   O peration     | Website:  https://openfoam.org
    \\  /    A nd           | Version:  8
     \\/     M anipulation  |
\*---------------------------------------------------------------------------*/
FoamFile
{
    version     2.0;
    format      ascii;
    class       pointVectorField;
    location    "0.0399893";
    object      pointDisplacement;
}
// * * * * * * * * * * * * * * * * * * * * * * * * * * * * * * * * * * * * * //

dimensions      [0 1 0 0 0 0 0];

internalField   nonuniform List<vector> 
40800
(
(-0.0026528978 0 -0.002114589)
(-0.0026442703 0 -0.0017467487)
(-0.0026439468 0 -0.0017489309)
(-0.0026527034 0 -0.0021247935)
(-0.0026439176 0 -0.0017495533)
(-0.0026526796 0 -0.0021257535)
(-0.0026438527 0 -0.001750488)
(-0.0026526176 0 -0.0021268611)
(-0.0026437317 0 -0.001751652)
(-0.0026525013 0 -0.0021282324)
(-0.0026435304 0 -0.0017531053)
(-0.0026523066 0 -0.002129929)
(-0.0026432149 0 -0.0017549276)
(-0.0026520005 0 -0.0021320379)
(-0.0026427389 0 -0.0017572238)
(-0.0026515376 0 -0.0021346733)
(-0.002642039 0 -0.0017601336)
(-0.0026508555 0 -0.0021379853)
(-0.0026410293 0 -0.0017638442)
(-0.0026498699 0 -0.0021421735)
(-0.0026395941 0 -0.0017686085)
(-0.002648467 0 -0.0021475046)
(-0.0026375789 0 -0.00177477)
(-0.0026464946 0 -0.002154336)
(-0.0026347786 0 -0.0017827966)
(-0.0026437506 0 -0.0021631491)
(-0.0026309235 0 -0.0017933274)
(-0.0026399689 0 -0.0021745935)
(-0.0026256625 0 -0.0018072347)
(-0.002634803 0 -0.0021895468)
(-0.002618544 0 -0.0018257066)
(-0.0026278061 0 -0.0022091946)
(-0.0026089956 0 -0.0018503548)
(-0.0026184111 0 -0.0022351351)
(-0.0025963039 0 -0.0018833509)
(-0.0026059098 0 -0.0022695094)
(-0.0025795998 0 -0.0019275985)
(-0.0025894368 0 -0.0023151684)
(-0.002557853 0 -0.0019869325)
(-0.0025679624 0 -0.002375863)
(-0.0025298864 0 -0.002066326)
(-0.0025403039 0 -0.0024564401)
(-0.0024944186 0 -0.0021720664)
(-0.0025051656 0 -0.0025630113)
(-0.0024501469 0 -0.0023118229)
(-0.0024612165 0 -0.0027030146)
(-0.0023958742 0 -0.0024944867)
(-0.0024072153 0 -0.0028850584)
(-0.0023306761 0 -0.0027296333)
(-0.0023421771 0 -0.0031183984)
(-0.0022540853 0 -0.0030264639)
(-0.0022655623 0 -0.0034119052)
(-0.0021662528 0 -0.0033921504)
(-0.0021774517 0 -0.003772433)
(-0.0020680385 0 -0.0038297868)
(-0.0020786535 0 -0.0042027909)
(-0.001961004 0 -0.0043362966)
(-0.0019707182 0 -0.0046996376)
(-0.0018472867 0 -0.0049009899)
(-0.0018558244 0 -0.0052520228)
(-0.0017294068 0 -0.005505288)
(-0.0017365833 0 -0.0058411332)
(-0.0016100412 0 -0.0061240875)
(-0.0016157954 0 -0.0064417318)
(-0.0014917727 0 -0.0067287647)
(-0.0014961688 0 -0.0070252791)
(-0.0013768647 0 -0.0072910487)
(-0.0013800645 0 -0.0075639087)
(-0.0012670828 0 -0.0077866007)
(-0.0012692996 0 -0.0080340129)
(-0.0011636189 0 -0.0081973481)
(-0.0011650761 0 -0.0084184627)
(-0.0010670756 0 -0.0085122214)
(-0.0010679729 0 -0.0087071574)
(-0.00097753983 0 -0.0087261973)
(-0.00097803942 0 -0.0088958912)
(-0.00089466022 0 -0.0088385733)
(-0.00089487811 0 -0.0089845562)
(-0.00081778466 0 -0.0088506409)
(-0.00081780083 0 -0.0089747733)
(-0.00074608895 0 -0.0087633969)
(-0.00074595588 0 -0.0088676272)
(-0.00067859482 0 -0.0085759761)
(-0.00067834527 0 -0.0086621747)
(-0.00061425745 0 -0.0082848099)
(-0.00061391495 0 -0.0083547108)
(-0.00055182042 0 -0.0078828812)
(-0.00055139441 0 -0.0079380695)
(-0.00048983075 0 -0.0073583995)
(-0.00048932416 0 -0.007400293)
(-0.00042678341 0 -0.0066950372)
(-0.00042622016 0 -0.0067251297)
(-0.00036057227 0 -0.0058675522)
(-0.0003599667 0 -0.005887265)
(-0.00028838543 0 -0.0048395212)
(-0.00028776565 0 -0.0048505145)
(-0.00020701807 0 -0.0035627045)
(-0.00020647227 0 -0.0035673425)
(-0.00011113787 0 -0.0019555626)
(-0.00011074881 0 -0.001956269)
(0 0 0)
(0 0 0)
(-0.0026344157 0 -0.0013868581)
(-0.0026340999 0 -0.0013890099)
(-0.0026340685 0 -0.0013895005)
(-0.0026339965 0 -0.0013901089)
(-0.0026338663 0 -0.0013908784)
(-0.0026336529 0 -0.0013918621)
(-0.002633322 0 -0.0013931288)
(-0.0026328261 0 -0.0013947715)
(-0.0026321005 0 -0.0013969169)
(-0.0026310578 0 -0.0013997371)
(-0.0026295803 0 -0.0014034682)
(-0.0026275109 0 -0.0014084334)
(-0.0026246414 0 -0.0014150781)
(-0.0026206985 0 -0.0014240157)
(-0.0026153266 0 -0.0014360921)
(-0.0026080693 0 -0.0014524707)
(-0.002598349 0 -0.0014747443)
(-0.0025854473 0 -0.0015050792)
(-0.0025684915 0 -0.0015463937)
(-0.0025464507 0 -0.0016025665)
(-0.0025181527 0 -0.0016786575)
(-0.0024823306 0 -0.001781095)
(-0.0024377086 0 -0.0019177542)
(-0.0023831333 0 -0.0020978007)
(-0.0023177398 0 -0.0023311479)
(-0.0022411322 0 -0.0026273801)
(-0.0021535325 0 -0.0029940839)
(-0.0020558542 0 -0.0034347764)
(-0.0019496742 0 -0.0039468173)
(-0.0018370959 0 -0.0045199613)
(-0.0017205571 0 -0.0051360309)
(-0.00160262 0 -0.0057701978)
(-0.0014857473 0 -0.006393863)
(-0.0013721051 0 -0.0069784323)
(-0.0012634022 0 -0.0074988831)
(-0.0011608114 0 -0.007936204)
(-0.0010649488 0 -0.0082783004)
(-0.00097593183 0 -0.0085192204)
(-0.0008934487 0 -0.0086575239)
(-0.00081688362 0 -0.0086940086)
(-0.00074543676 0 -0.0086294392)
(-0.00067815162 0 -0.0084629082)
(-0.00061399182 0 -0.00819091)
(-0.00055171475 0 -0.0078065192)
(-0.00048987704 0 -0.0072980862)
(-0.0004269548 0 -0.0066492296)
(-0.00036084356 0 -0.005834727)
(-0.00028873326 0 -0.0048180771)
(-0.00020735756 0 -0.0035503915)
(-0.00011139701 0 -0.001950309)
(0 0 0)
(-0.0026233614 0 -0.0010347518)
(-0.0026230527 0 -0.0010367561)
(-0.0026230142 0 -0.0010370001)
(-0.002622933 0 -0.0010373151)
(-0.0026227911 0 -0.001037736)
(-0.002622563 0 -0.0010383025)
(-0.0026222131 0 -0.0010390702)
(-0.0026216929 0 -0.0010401172)
(-0.0026209364 0 -0.0010415532)
(-0.0026198542 0 -0.001043532)
(-0.0026183264 0 -0.0010462694)
(-0.002616193 0 -0.0010500678)
(-0.0026132425 0 -0.0010553505)
(-0.0026091973 0 -0.0010627087)
(-0.0026036972 0 -0.0010729665)
(-0.0025962804 0 -0.0010872674)
(-0.0025863635 0 -0.0011071904)
(-0.002573223 0 -0.0011348992)
(-0.0025559824 0 -0.0011733291)
(-0.0025336104 0 -0.0012264064)
(-0.0025049409 0 -0.0012992805)
(-0.0024687229 0 -0.0013985238)
(-0.0024237109 0 -0.0015322189)
(-0.0023687985 0 -0.0017098028)
(-0.0023031854 0 -0.0019415126)
(-0.0022265521 0 -0.0022372882)
(-0.002139196 0 -0.002605087)
(-0.0020420866 0 -0.003048794)
(-0.0019368172 0 -0.0035661452)
(-0.0018254555 0 -0.0041472877)
(-0.0017103547 0 -0.0047744161)
(-0.0015939585 0 -0.0054229864)
(-0.0014786052 0 -0.0060644757)
(-0.0013663576 0 -0.0066700548)
(-0.0012588609 0 -0.0072141231)
(-0.0011572636 0 -0.0076768281)
(-0.0010621907 0 -0.0080451192)
(-0.00097378823 0 -0.0083121484)
(-0.00089178321 0 -0.0084757415)
(-0.0008155969 0 -0.008536183)
(-0.00074445606 0 -0.008493972)
(-0.00067742739 0 -0.008348123)
(-0.00061348539 0 -0.0080951644)
(-0.00055140225 0 -0.007728246)
(-0.0004897451 0 -0.007235843)
(-0.00042697457 0 -0.0066015301)
(-0.0003609878 0 -0.0058001057)
(-0.00028897719 0 -0.0047950106)
(-0.00020762123 0 -0.0035367908)
(-0.00011161284 0 -0.0019443135)
(0 0 0)
(-0.0026111487 0 -0.00069026781)
(-0.0026108453 0 -0.00069211835)
(-0.0026107973 0 -0.00069211217)
(-0.0026107043 0 -0.00069212989)
(-0.0026105476 0 -0.00069219795)
(-0.0026103008 0 -0.00069234591)
(-0.0026099275 0 -0.00069261733)
(-0.0026093779 0 -0.00069307614)
(-0.0026085843 0 -0.00069381566)
(-0.0026074553 0 -0.00069497126)
(-0.0026058684 0 -0.00069673806)
(-0.0026036607 0 -0.00069939625)
(-0.0026006166 0 -0.00070334564)
(-0.0025964541 0 -0.00070915391)
(-0.0025908078 0 -0.00071762294)
(-0.0025832099 0 -0.00072987806)
(-0.0025730709 0 -0.0007474867)
(-0.0025596618 0 -0.00077261357)
(-0.0025421019 0 -0.00080821563)
(-0.0025193601 0 -0.00085827139)
(-0.0024902773 0 -0.00092802503)
(-0.0024536204 0 -0.0010241986)
(-0.0024081772 0 -0.0011550854)
(-0.0023528928 0 -0.0013303902)
(-0.0022870364 0 -0.0015606598)
(-0.00221037 0 -0.0018561605)
(-0.0021232704 0 -0.0022251758)
(-0.0020267656 0 -0.0026719008)
(-0.0019224646 0 -0.0031943885)
(-0.0018123978 0 -0.0037831263)
(-0.0016988306 0 -0.0044206522)
(-0.0015840845 0 -0.0050827127)
(-0.0014703693 0 -0.0057409083)
(-0.0013596394 0 -0.0063662565)
(-0.0012534709 0 -0.0069326799)
(-0.0011529827 0 -0.0074195792)
(-0.001058805 0 -0.0078130195)
(-0.0009711104 0 -0.0081052935)
(-0.00088966363 0 -0.0082935013)
(-0.00081392363 0 -0.0083773998)
(-0.00074314564 0 -0.0083571929)
(-0.00067642085 0 -0.0082317832)
(-0.00061273696 0 -0.0079977057)
(-0.00055088187 0 -0.007648168)
(-0.00048943419 0 -0.0071717546)
(-0.0004268421 0 -0.0065520043)
(-0.00036100459 0 -0.0057637384)
(-0.00028911718 0 -0.0047703599)
(-0.00020780902 0 -0.0035219265)
(-0.00011178532 0 -0.0019375852)
(0 0 0)
(-0.0025978162 0 -0.00035324666)
(-0.0025975147 0 -0.00035494655)
(-0.0025974553 0 -0.00035469251)
(-0.002597348 0 -0.00035441529)
(-0.0025971734 0 -0.00035413262)
(-0.0025969043 0 -0.00035386392)
(-0.002596503 0 -0.0003536411)
(-0.0025959185 0 -0.0003535146)
(-0.0025950812 0 -0.00035356218)
(-0.0025938975 0 -0.00035390157)
(-0.0025922422 0 -0.00035470814)
(-0.0025899489 0 -0.00035624034)
(-0.0025867979 0 -0.00035887491)
(-0.0025825024 0 -0.0003631562)
(-0.002576691 0 -0.00036986392)
(-0.0025688896 0 -0.00038010513)
(-0.0025585022 0 -0.00039543726)
(-0.0025447935 0 -0.00041802872)
(-0.0025268791 0 -0.00045086186)
(-0.0025037282 0 -0.00049797305)
(-0.0024741898 0 -0.00056470852)
(-0.0024370512 0 -0.00065794687)
(-0.0023911366 0 -0.00078619615)
(-0.002335447 0 -0.00095942676)
(-0.0022693261 0 -0.0011884798)
(-0.0021926224 0 -0.0014839187)
(-0.0021057958 0 -0.0018543068)
(-0.0020099338 0 -0.0023040928)
(-0.0019066605 0 -0.0028315876)
(-0.0017979663 0 -0.0034275679)
(-0.0016860252 0 -0.0040748852)
(-0.0015730334 0 -0.0047495808)
(-0.0014610683 0 -0.0054234188)
(-0.0013519721 0 -0.0060673386)
(-0.001247247 0 -0.0066548812)
(-0.0011479781 0 -0.0071647933)
(-0.0010547969 0 -0.0075823266)
(-0.00096790039 0 -0.0078989567)
(-0.00088709019 0 -0.0081110714)
(-0.00081186301 0 -0.0082178901)
(-0.00074150415 0 -0.0082192958)
(-0.00067513049 0 -0.0081140486)
(-0.00061174499 0 -0.0078986631)
(-0.0005501522 0 -0.0075663879)
(-0.00048894314 0 -0.0071059014)
(-0.00042655639 0 -0.0065007133)
(-0.00036089317 0 -0.0057256704)
(-0.00028915277 0 -0.0047441572)
(-0.00020792063 0 -0.0035058189)
(-0.00011191437 0 -0.0019301331)
(0 0 0)
(-0.0025833925 0 -2.3533512e-05)
(-0.0025830931 0 -2.508434e-05)
(-0.0025830202 0 -2.4583703e-05)
(-0.0025828961 0 -2.4013082e-05)
(-0.0025827006 0 -2.3381581e-05)
(-0.0025824055 0 -2.2698523e-05)
(-0.0025819719 0 -2.1984189e-05)
(-0.0025813472 0 -2.1275732e-05)
(-0.0025804597 0 -2.0635773e-05)
(-0.0025792136 0 -2.0164748e-05)
(-0.0025774806 0 -2.0018821e-05)
(-0.0025750905 0 -2.0435444e-05)
(-0.0025718191 0 -2.1769031e-05)
(-0.0025673743 0 -2.4541245e-05)
(-0.0025613784 0 -2.9510392e-05)
(-0.0025533504 0 -3.776622e-05)
(-0.0025426873 0 -5.0857328e-05)
(-0.0025286473 0 -7.0958351e-05)
(-0.0025103422 0 -0.00010108137)
(-0.0024867421 0 -0.00014532699)
(-0.0024567058 0 -0.00020915195)
(-0.002419043 0 -0.00029959968)
(-0.0023726179 0 -0.0004253983)
(-0.0023164919 0 -0.0005967808)
(-0.0022500885 0 -0.00082486663)
(-0.002173347 0 -0.0011204857)
(-0.0020868137 0 -0.0014924348)
(-0.0019916361 0 -0.0019453598)
(-0.0018894516 0 -0.0024777714)
(-0.0017822071 0 -0.0030806857)
(-0.0016719819 0 -0.0037372389)
(-0.0015608434 0 -0.004423768)
(-0.001450734 0 -0.0051122369)
(-0.0013433804 0 -0.0057735744)
(-0.0012402071 0 -0.00638103)
(-0.0011422616 0 -0.0069127847)
(-0.0010501735 0 -0.0073533493)
(-0.00096416214 0 -0.0076934276)
(-0.00088406454 0 -0.0079287125)
(-0.00080941531 0 -0.008057881)
(-0.00073953104 0 -0.0080804735)
(-0.00067355538 0 -0.007995079)
(-0.00061050835 0 -0.0077981666)
(-0.00054921214 0 -0.0074830094)
(-0.000488271 0 -0.0070383647)
(-0.00042611658 0 -0.0064477191)
(-0.00036065286 0 -0.0056859482)
(-0.00028908362 0 -0.0047164371)
(-0.00020795591 0 -0.0034884915)
(-0.00011199994 0 -0.0019219674)
(0 0 0)
(-0.002567911 0 0.00029902266)
(-0.0025676132 0 0.00029762083)
(-0.0025675247 0 0.00029836805)
(-0.0025673811 0 0.00029923193)
(-0.0025671617 0 0.0003002117)
(-0.0025668369 0 0.00030130794)
(-0.0025663666 0 0.00030251183)
(-0.0025656963 0 0.00030379937)
(-0.0025647523 0 0.00030512288)
(-0.002563436 0 0.00030639891)
(-0.0025616158 0 0.00030749023)
(-0.0025591174 0 0.00030817995)
(-0.0025557118 0 0.0003081355)
(-0.0025511009 0 0.00030685725)
(-0.0025449004 0 0.0003036074)
(-0.002536622 0 0.00029731221)
(-0.0025256549 0 0.00028643017)
(-0.002511251 0 0.00026877778)
(-0.002492518 0 0.00024130798)
(-0.0024684282 0 0.00019984764)
(-0.0024378513 0 0.00013881971)
(-0.0023996222 0 5.1006975e-05)
(-0.0023526491 0 -7.2544496e-05)
(-0.0022960584 0 -0.00024232709)
(-0.0022293578 0 -0.00046972074)
(-0.0021525823 0 -0.00076578937)
(-0.0020663671 0 -0.0011395166)
(-0.0019719192 0 -0.0015956892)
(-0.0018708865 0 -0.0021329609)
(-0.0017651689 0 -0.0027425396)
(-0.0016567467 0 -0.003407818)
(-0.0015475556 0 -0.0041054287)
(-0.0014394007 0 -0.0048075662)
(-0.0013338914 0 -0.005485211)
(-0.0012323714 0 -0.0061114043)
(-0.0011358474 0 -0.0066638467)
(-0.0010449441 0 -0.0071263802)
(-0.00095990098 0 -0.0074889837)
(-0.00088058953 0 -0.0077466775)
(-0.00080658176 0 -0.0078975951)
(-0.00073722654 0 -0.0079409161)
(-0.00067169515 0 -0.0078750335)
(-0.00060902633 0 -0.0076963466)
(-0.00054806084 0 -0.0073981369)
(-0.00048741697 0 -0.0069692271)
(-0.0004255219 0 -0.0063930846)
(-0.00036028305 0 -0.005644619)
(-0.00028890939 0 -0.0046872343)
(-0.00020791456 0 -0.0034699659)
(-0.00011204194 0 -0.0019130975)
(0 0 0)
(-0.0025514068 0 0.00061457165)
(-0.0025511096 0 0.00061331739)
(-0.0025510033 0 0.0006143104)
(-0.0025508377 0 0.00061546642)
(-0.002550591 0 0.00061679318)
(-0.0025502327 0 0.00061830099)
(-0.002549721 0 0.00061999242)
(-0.0025489995 0 0.0006218565)
(-0.0025479922 0 0.00062386041)
(-0.0025465974 0 0.0006259374)
(-0.00254468 0 0.00062796876)
(-0.0025420613 0 0.00062975791)
(-0.002538507 0 0.00063099352)
(-0.0025337126 0 0.00063119728)
(-0.0025272866 0 0.00062965113)
(-0.0025187328 0 0.00062529629)
(-0.0025074324 0 0.00061659642)
(-0.0024926306 0 0.00060135555)
(-0.0024734317 0 0.00057648489)
(-0.0024488109 0 0.00053772824)
(-0.0024176509 0 0.00047937709)
(-0.0023788146 0 0.00039403156)
(-0.0023312579 0 0.00027250576)
(-0.002274177 0 0.00010405192)
(-0.0022071689 0 -0.00012294955)
(-0.0021303679 0 -0.00041976251)
(-0.0020445002 0 -0.0007955104)
(-0.0019508315 0 -0.0012550654)
(-0.001851016 0 -0.0017971694)
(-0.0017469022 0 -0.0024131762)
(-0.0016403674 0 -0.0030867087)
(-0.0015332131 0 -0.0037946942)
(-0.0014271053 0 -0.0045095849)
(-0.0013235346 0 -0.0052024693)
(-0.0012237623 0 -0.0058462579)
(-0.0011287514 0 -0.0064182517)
(-0.0010391195 0 -0.0069016945)
(-0.00095512394 0 -0.0072858895)
(-0.00087666928 0 -0.0075652101)
(-0.00080336455 0 -0.007737249)
(-0.0007345916 0 -0.0078008108)
(-0.00066954998 0 -0.0077540698)
(-0.00060729864 0 -0.0075933331)
(-0.00054669776 0 -0.0073118754)
(-0.00048638048 0 -0.0068985716)
(-0.00042477176 0 -0.0063368741)
(-0.00035978318 0 -0.0056017307)
(-0.00028862967 0 -0.0046565831)
(-0.00020779638 0 -0.0034502655)
(-0.00011204034 0 -0.0019035345)
(0 0 0)
(-0.002533915 0 0.00092325887)
(-0.0025336154 0 0.00092215074)
(-0.002533489 0 0.00092338842)
(-0.0025332987 0 0.00092483522)
(-0.0025330216 0 0.00092650742)
(-0.0025326257 0 0.00092842512)
(-0.0025320677 0 0.00093060211)
(-0.002531289 0 0.00093304042)
(-0.0025302112 0 0.00093572205)
(-0.0025287293 0 0.0009385967)
(-0.0025267043 0 0.00094156397)
(-0.0025239527 0 0.00094444718)
(-0.0025202345 0 0.00094695583)
(-0.0025152384 0 0.00094863245)
(-0.0025085651 0 0.00094877807)
(-0.0024997099 0 0.00094634793)
(-0.0024880456 0 0.00093980914)
(-0.0024728106 0 0.00092694915)
(-0.0024531067 0 0.0009046277)
(-0.0024279134 0 0.00086849137)
(-0.0023961284 0 0.00081268793)
(-0.0023566451 0 0.00072962752)
(-0.0023084718 0 0.00060988607)
(-0.0022508789 0 0.00044246563)
(-0.0021835572 0 0.00021553191)
(-0.0021067446 0 -8.2343473e-05)
(-0.0020212594 0 -0.00046037703)
(-0.0019284232 0 -0.00092347114)
(-0.0018298928 0 -0.0014704025)
(-0.0017274598 0 -0.0020926291)
(-0.0016228944 0 -0.0027739794)
(-0.0015178613 0 -0.0034916741)
(-0.0014138866 0 -0.004218447)
(-0.0013123417 0 -0.0049255449)
(-0.0012144042 0 -0.0055858199)
(-0.0011209918 0 -0.0061762501)
(-0.0010327123 0 -0.0066795491)
(-0.00094983938 0 -0.0070843958)
(-0.00087230908 0 -0.0073845443)
(-0.00079976688 0 -0.0075770531)
(-0.0007316279 0 -0.0076603411)
(-0.00066712063 0 -0.0076323435)
(-0.00060532541 0 -0.0074892554)
(-0.00054512268 0 -0.00722433)
(-0.00048516114 0 -0.0068264819)
(-0.00042386564 0 -0.0062791521)
(-0.00035915277 0 -0.005557332)
(-0.00028824415 0 -0.0046245193)
(-0.0002076011 0 -0.0034294132)
(-0.0001119951 0 -0.0018932893)
(0 0 0)
(-0.0025154628 0 0.0012252261)
(-0.0025151597 0 0.0012242629)
(-0.0025150109 0 0.0012257445)
(-0.0025147931 0 0.0012274812)
(-0.0025144822 0 0.0012294978)
(-0.0025140447 0 0.0012318242)
(-0.0025134356 0 0.0012344854)
(-0.0025125939 0 0.0012374962)
(-0.0025114384 0 0.0012408533)
(-0.0025098607 0 0.0012445229)
(-0.0025077176 0 0.0012484226)
(-0.0025048203 0 0.0012523955)
(-0.0025009227 0 0.0012561717)
(-0.002495706 0 0.0012593143)
(-0.0024887626 0 0.0012611432)
(-0.0024795788 0 0.0012606273)
(-0.0024675185 0 0.0012562358)
(-0.0024518136 0 0.0012457355)
(-0.0024315647 0 0.0012259189)
(-0.0024057576 0 0.001192315)
(-0.0023733065 0 0.0011389173)
(-0.0023331382 0 0.0010579435)
(-0.002284318 0 0.00093972351)
(-0.0022261957 0 0.00077301553)
(-0.0021585596 0 0.00054580167)
(-0.0020817548 0 0.00024652518)
(-0.0019966924 0 -0.00013407759)
(-0.0019047468 0 -0.00060088469)
(-0.0018075718 0 -0.0011526572)
(-0.0017068965 0 -0.0017809183)
(-0.0016043797 0 -0.0024696802)
(-0.0015015474 0 -0.0031964559)
(-0.0013997854 0 -0.0039342815)
(-0.0013003463 0 -0.0046546077)
(-0.0012043236 0 -0.0053302952)
(-0.0011125883 0 -0.00593807)
(-0.0010257368 0 -0.006460183)
(-0.00094405708 0 -0.0068847389)
(-0.00086751541 0 -0.0072049036)
(-0.00079579282 0 -0.0074172105)
(-0.00072833792 0 -0.0075196859)
(-0.00066440841 0 -0.0075100083)
(-0.00060310717 0 -0.007384242)
(-0.00054333564 0 -0.0071356056)
(-0.00048375877 0 -0.0067530423)
(-0.00042280321 0 -0.0062199843)
(-0.00035839141 0 -0.0055114725)
(-0.00028775258 0 -0.0045910798)
(-0.00020732848 0 -0.0034074329)
(-0.0001119061 0 -0.0018823726)
(0 0 0)
(-0.0024960769 0 0.0015206121)
(-0.0024957721 0 0.001519794)
(-0.0024955986 0 0.0015215198)
(-0.0024953504 0 0.001523547)
(-0.0024950022 0 0.0015259083)
(-0.0024945191 0 0.0015286433)
(-0.0024938537 0 0.001531788)
(-0.002492943 0 0.0015353701)
(-0.0024917024 0 0.0015394006)
(-0.0024900201 0 0.0015438624)
(-0.0024877479 0 0.0015486912)
(-0.0024846917 0 0.0015537497)
(-0.0024805985 0 0.0015587887)
(-0.0024751416 0 0.0015633923)
(-0.0024679043 0 0.0015668995)
(-0.0024583631 0 0.001568293)
(-0.0024458728 0 0.0015660452)
(-0.0024296591 0 0.0015578996)
(-0.0024088245 0 0.0015405512)
(-0.0023823634 0 0.0015093798)
(-0.002349207 0 0.0014582259)
(-0.0023083179 0 0.0013791216)
(-0.0022588242 0 0.0012621372)
(-0.0022001597 0 0.0010957929)
(-0.0021322138 0 0.00086792871)
(-0.0020554423 0 0.00056689453)
(-0.001970849 0 0.00018342366)
(-0.0018798566 0 -0.00028728323)
(-0.0017841095 0 -0.00084392398)
(-0.0016852688 0 -0.0014780525)
(-0.0015848772 0 -0.0021738451)
(-0.0014843205 0 -0.0029091072)
(-0.0013848443 0 -0.003657195)
(-0.0012875836 0 -0.004389804)
(-0.0011935486 0 -0.0050798649)
(-0.0011035625 0 -0.0057039184)
(-0.0010182087 0 -0.0062438163)
(-0.00093778816 0 -0.0066871401)
(-0.00086229586 0 -0.0070265)
(-0.00079144736 0 -0.0072579166)
(-0.00072472478 0 -0.007379019)
(-0.0006614152 0 -0.0073872145)
(-0.0006006449 0 -0.0072784199)
(-0.00054133702 0 -0.007045807)
(-0.00048217341 0 -0.0066783372)
(-0.00042158425 0 -0.0061594367)
(-0.00035749879 0 -0.0054642027)
(-0.00028715467 0 -0.0045563015)
(-0.00020697831 0 -0.0033843491)
(-0.00011177338 0 -0.0018707973)
(0 0 0)
(-0.0024757958 0 0.0018095541)
(-0.0024754829 0 0.0018088794)
(-0.0024752822 0 0.0018108491)
(-0.0024750006 0 0.0018131661)
(-0.0024746116 0 0.0018158715)
(-0.0024740784 0 0.0018190143)
(-0.0024733517 0 0.0018226417)
(-0.0024723655 0 0.001826794)
(-0.0024710322 0 0.0018314968)
(-0.0024692358 0 0.0018367491)
(-0.0024668233 0 0.0018425049)
(-0.0024635943 0 0.0018486466)
(-0.0024592885 0 0.0018549462)
(-0.0024535706 0 0.0018610091)
(-0.002446014 0 0.0018661942)
(-0.0024360847 0 0.0018695006)
(-0.0024231276 0 0.0018694066)
(-0.0024063627 0 0.0018636437)
(-0.0023849015 0 0.0018487373)
(-0.0023577496 0 0.0018198675)
(-0.0023238511 0 0.0017707652)
(-0.0022822073 0 0.001693295)
(-0.0022320176 0 0.0015772365)
(-0.002172804 0 0.0014108767)
(-0.0021045586 0 0.0011819724)
(-0.0020278523 0 0.00087880959)
(-0.0019437807 0 0.00049216026)
(-0.0018538085 0 1.7358325e-05)
(-0.0017595644 0 -0.00054418651)
(-0.0016626347 0 -0.0011840288)
(-0.001564442 0 -0.0018864927)
(-0.0014662306 0 -0.0026296766)
(-0.001369107 0 -0.0033872727)
(-0.0012740903 0 -0.0041312572)
(-0.0011821084 0 -0.0048346879)
(-0.0010939368 0 -0.0054739814)
(-0.0010101448 0 -0.0060306508)
(-0.00093104479 0 -0.0064918056)
(-0.00085665889 0 -0.006849534)
(-0.00078673629 0 -0.0070993582)
(-0.00072079226 0 -0.0072385086)
(-0.00065814336 0 -0.007264109)
(-0.00059793993 0 -0.007171914)
(-0.00053912747 0 -0.0069550379)
(-0.00048040526 0 -0.006602451)
(-0.00042020868 0 -0.0060975761)
(-0.00035647466 0 -0.0054155733)
(-0.00028645025 0 -0.0045202228)
(-0.00020655035 0 -0.0033601866)
(-0.00011159679 0 -0.0018585744)
(0 0 0)
(-0.0024546366 0 0.0020921842)
(-0.0024543193 0 0.0020916537)
(-0.0024540889 0 0.0020938678)
(-0.0024537711 0 0.0020964747)
(-0.0024533377 0 0.0020995237)
(-0.0024527501 0 0.0021030733)
(-0.0024519568 0 0.0021071819)
(-0.0024508889 0 0.0021119026)
(-0.0024494552 0 0.0021172757)
(-0.0024475352 0 0.0021233166)
(-0.0024449705 0 0.0021299975)
(-0.0024415542 0 0.002137221)
(-0.002437018 0 0.0021447805)
(-0.002431017 0 0.0021523038)
(-0.002423114 0 0.0021591714)
(-0.0024127633 0 0.0021643999)
(-0.0023992994 0 0.0021664729)
(-0.0023819518 0 0.0021629723)
(-0.0023598434 0 0.0021502707)
(-0.0023319731 0 0.0021234873)
(-0.0022972976 0 0.0020762233)
(-0.0022548652 0 0.0020001763)
(-0.0022039432 0 0.0018849279)
(-0.0021441629 0 0.0017183337)
(-0.0020756344 0 0.0014879831)
(-0.0019990321 0 0.0011823107)
(-0.001915541 0 0.00079216459)
(-0.0018266606 0 0.0003130686)
(-0.0017339964 0 -0.00025341997)
(-0.0016390537 0 -0.00089883153)
(-0.0015431306 0 -0.0016076247)
(-0.0014473292 0 -0.0023581927)
(-0.0013526185 0 -0.0031245768)
(-0.001259904 0 -0.0038790665)
(-0.0011700338 0 -0.0045948989)
(-0.0010837354 0 -0.0052484225)
(-0.0010015634 0 -0.0058208691)
(-0.00092384027 0 -0.0062989257)
(-0.00085061405 0 -0.0066741937)
(-0.00078166622 0 -0.0069417129)
(-0.00071654485 0 -0.0070983165)
(-0.0006545958 0 -0.0071408348)
(-0.00059499401 0 -0.007064847)
(-0.00053670794 0 -0.0068634013)
(-0.00047845477 0 -0.0065254678)
(-0.00041867656 0 -0.0060344694)
(-0.00035531888 0 -0.0053656363)
(-0.00028563908 0 -0.0044828815)
(-0.00020604445 0 -0.0033349715)
(-0.0001113763 0 -0.0018457167)
(0 0 0)
(-0.002432636 0 0.0023686338)
(-0.0024323112 0 0.002368244)
(-0.0024320489 0 0.0023706998)
(-0.0024316918 0 0.0023735939)
(-0.0024312105 0 0.0023769844)
(-0.0024305641 0 0.0023809396)
(-0.0024296985 0 0.0023855287)
(-0.002428542 0 0.0023908176)
(-0.0024269994 0 0.002396861)
(-0.0024249455 0 0.0024036906)
(-0.002422216 0 0.002411297)
(-0.0024185969 0 0.0024196029)
(-0.0024138111 0 0.002428424)
(-0.0024075035 0 0.0024374118)
(-0.0023992249 0 0.0024459709)
(-0.0023884174 0 0.0024531356)
(-0.0023744235 0 0.0024572535)
(-0.0023564918 0 0.002455659)
(-0.0023337235 0 0.0024447885)
(-0.0023051009 0 0.0024198366)
(-0.0022696091 0 0.0023742063)
(-0.0022263479 0 0.0022993832)
(-0.0021746527 0 0.0021848757)
(-0.0021142814 0 0.0020180394)
(-0.0020454827 0 0.0017860014)
(-0.0019690302 0 0.0014774318)
(-0.0018861851 0 0.0010834661)
(-0.0017984724 0 0.00059987765)
(-0.001707467 0 2.8406275e-05)
(-0.0016145865 0 -0.00062243533)
(-0.0015210003 0 -0.0013372295)
(-0.0014276685 0 -0.0020946674)
(-0.0013354243 0 -0.0028691511)
(-0.0012450633 0 -0.0036333111)
(-0.0011573562 0 -0.0043606124)
(-0.001072983 0 -0.005027386)
(-0.00099248336 0 -0.0056146358)
(-0.0009161888 0 -0.0061086753)
(-0.00084417159 0 -0.0065006549)
(-0.00077624444 0 -0.0067851491)
(-0.00071198757 0 -0.0069585981)
(-0.00065077586 0 -0.0070175305)
(-0.00059180925 0 -0.0069573393)
(-0.00053407964 0 -0.0067709986)
(-0.00047632256 0 -0.0064474718)
(-0.00041698808 0 -0.0059701841)
(-0.00035403136 0 -0.0053144439)
(-0.00028472109 0 -0.0044443177)
(-0.00020546042 0 -0.0033087301)
(-0.00011111188 0 -0.0018322376)
(0 0 0)
(-0.0024098223 0 0.00263903)
(-0.0024094856 0 0.0026387813)
(-0.0024091885 0 0.0026414796)
(-0.002408789 0 0.0026446617)
(-0.0024082556 0 0.0026483938)
(-0.0024075455 0 0.0026527539)
(-0.002406602 0 0.0026578224)
(-0.0024053497 0 0.0026636778)
(-0.0024036896 0 0.0026703894)
(-0.0024014912 0 0.0026780053)
(-0.0023985839 0 0.0026865349)
(-0.0023947459 0 0.0026959216)
(-0.0023896906 0 0.0027060043)
(-0.0023830513 0 0.0027164614)
(-0.0023743659 0 0.0027267248)
(-0.0023630813 0 0.0027357328)
(-0.0023485607 0 0.0027416047)
(-0.0023300299 0 0.0027417007)
(-0.0023065554 0 0.0027325665)
(-0.0022771316 0 0.002709296)
(-0.0022407791 0 0.0026651196)
(-0.0021966516 0 0.0025912811)
(-0.0021441724 0 0.0024771008)
(-0.0020831992 0 0.0023098706)
(-0.0020141404 0 0.0020760653)
(-0.0019378975 0 0.0017642028)
(-0.0018557705 0 0.0013660932)
(-0.0017693054 0 0.00087781931)
(-0.0016800391 0 0.00030133101)
(-0.0015892947 0 -0.00035480286)
(-0.0014981092 0 -0.0010752803)
(-0.001407301 0 -0.0018390952)
(-0.0013175706 0 -0.0026210195)
(-0.0012296074 0 -0.0033940489)
(-0.0011441079 0 -0.0041319216)
(-0.0010617055 0 -0.0048109955)
(-0.00098292478 0 -0.0054120971)
(-0.00090810537 0 -0.0059212139)
(-0.00083734259 0 -0.0063290807)
(-0.00077047891 0 -0.0066298258)
(-0.00070712602 0 -0.0068195019)
(-0.00064668736 0 -0.0068943302)
(-0.00058838813 0 -0.0068495081)
(-0.00053124408 0 -0.0066779301)
(-0.00047400946 0 -0.0063685463)
(-0.00041514359 0 -0.0059047878)
(-0.00035261215 0 -0.0052620495)
(-0.00028369615 0 -0.0044045711)
(-0.00020479811 0 -0.0032814896)
(-0.00011080341 0 -0.0018181496)
(0 0 0)
(-0.0023862114 0 0.0029034975)
(-0.0023858657 0 0.0029033891)
(-0.0023855313 0 0.0029063297)
(-0.002385086 0 0.0029097995)
(-0.0023844967 0 0.0029138729)
(-0.0023837182 0 0.0029186374)
(-0.0023826908 0 0.0029241844)
(-0.0023813357 0 0.002930605)
(-0.0023795493 0 0.0029379829)
(-0.0023771957 0 0.0029463828)
(-0.0023740974 0 0.0029558322)
(-0.0023700241 0 0.0029662957)
(-0.0023646786 0 0.0029776367)
(-0.0023576814 0 0.0029895651)
(-0.00234857 0 0.0030014662)
(-0.00233681 0 0.0030120901)
(-0.0023217473 0 0.0030195556)
(-0.0023025643 0 0.0030213763)
(-0.0022783268 0 0.0030139954)
(-0.0022480533 0 0.002992321)
(-0.0022107966 0 0.0029494319)
(-0.002165774 0 0.0028763188)
(-0.0021125074 0 0.0027619929)
(-0.0020509502 0 0.0025938715)
(-0.0019816636 0 0.0023580578)
(-0.0019056874 0 0.0020426529)
(-0.0018243566 0 0.0016400762)
(-0.0017392226 0 0.0011469337)
(-0.0016517765 0 0.00056540344)
(-0.0015632406 0 -9.5883362e-05)
(-0.0014745157 0 -0.000821734)
(-0.00138628 0 -0.0015914518)
(-0.0012991042 0 -0.0023801856)
(-0.001213576 0 -0.0031613163)
(-0.0011303217 0 -0.0039088978)
(-0.0010499292 0 -0.004599354)
(-0.00097290821 0 -0.0052133809)
(-0.00089960575 0 -0.0057366847)
(-0.00083013882 0 -0.006159621)
(-0.00076437823 0 -0.0064758913)
(-0.00070196635 0 -0.0066811688)
(-0.00064233459 0 -0.0067713626)
(-0.00058473346 0 -0.0067414676)
(-0.00052820302 0 -0.0065842942)
(-0.00047151649 0 -0.0062887744)
(-0.00041314357 0 -0.0058383484)
(-0.00035106135 0 -0.0052085065)
(-0.00028256421 0 -0.0043636825)
(-0.00020405738 0 -0.0032532774)
(-0.0001104509 0 -0.0018034676)
(0 0 0)
(-0.0023618358 0 0.0031621581)
(-0.0023614759 0 0.0031621892)
(-0.0023611013 0 0.0031653718)
(-0.002360607 0 0.0031691289)
(-0.0023599577 0 0.0031735431)
(-0.0023591059 0 0.0031787111)
(-0.0023579887 0 0.0031847353)
(-0.0023565235 0 0.0031917191)
(-0.002354602 0 0.0031997606)
(-0.0023520822 0 0.00320894)
(-0.0023487796 0 0.0032193024)
(-0.0023444546 0 0.0032308314)
(-0.002338799 0 0.0032434094)
(-0.0023314252 0 0.0032567646)
(-0.0023218837 0 0.0032701551)
(-0.0023096344 0 0.003282272)
(-0.0022939827 0 0.0032913676)
(-0.0022740965 0 0.0032949175)
(-0.002249051 0 0.0032892103)
(-0.0022178808 0 0.0032690219)
(-0.0021796783 0 0.0032272518)
(-0.0021337355 0 0.0031546011)
(-0.0020796761 0 0.0030397752)
(-0.0020175808 0 0.0028700795)
(-0.0019481128 0 0.0026318506)
(-0.0018724499 0 0.002312803)
(-0.0017920049 0 0.0019054432)
(-0.0017082882 0 0.0014072642)
(-0.0016227442 0 0.0008206796)
(-0.0015364871 0 0.00015438362)
(-0.0014502786 0 -0.00057653551)
(-0.0013646583 0 -0.0013516988)
(-0.0012800714 0 -0.0021466367)
(-0.0011970086 0 -0.0029351321)
(-0.0011160306 0 -0.0036915945)
(-0.0010376808 0 -0.0043925468)
(-0.00096245475 0 -0.0050185979)
(-0.0008907062 0 -0.0055552159)
(-0.00082257253 0 -0.0059924133)
(-0.00075795147 0 -0.0063234843)
(-0.00069651512 0 -0.0065437321)
(-0.00063772214 0 -0.0066487514)
(-0.00058084837 0 -0.0066333284)
(-0.00052495848 0 -0.0064901874)
(-0.00046884487 0 -0.0062082381)
(-0.00041098863 0 -0.0057709337)
(-0.00034937918 0 -0.0051538694)
(-0.00028132534 0 -0.0043216941)
(-0.00020323814 0 -0.0032241223)
(-0.00011005419 0 -0.0017882042)
(0 0 0)
(-0.002336712 0 0.0034151303)
(-0.0023363398 0 0.0034153005)
(-0.0023359223 0 0.003418725)
(-0.0023353755 0 0.0034227691)
(-0.0023346621 0 0.0034275234)
(-0.002333732 0 0.0034330941)
(-0.0023325189 0 0.0034395941)
(-0.0023309362 0 0.0034471393)
(-0.0023288704 0 0.0034558415)
(-0.0023261734 0 0.0034657966)
(-0.0023226527 0 0.0034770667)
(-0.0023180593 0 0.0034896537)
(-0.0023120735 0 0.0035034609)