/*--------------------------------*- C++ -*----------------------------------*\
  =========                 |
  \\      /  F ield         | OpenFOAM: The Open Source CFD Toolbox
   \\    /   O peration     | Website:  https://openfoam.org
    \\  /    A nd           | Version:  8
     \\/     M anipulation  |
\*---------------------------------------------------------------------------*/
FoamFile
{
    version     2.0;
    format      ascii;
    class       volScalarField;
    location    "0.0399893";
    object      rho;
}
// * * * * * * * * * * * * * * * * * * * * * * * * * * * * * * * * * * * * * //

dimensions      [1 -3 0 0 0 0 0];

internalField   nonuniform List<scalar> 
20000
(
0.9821535
0.98317014
0.98570694
0.99093967
1.0011396
1.0214573
1.0326969
1.0345263
1.0336912
1.0348006
1.034719
1.0359315
1.0365047
1.0380565
1.0393186
1.0414223
1.0434952
1.0463684
1.049508
1.0536369
1.058385
1.0639823
1.0703236
1.0775186
1.0854917
1.0942251
1.1034757
1.1129856
1.1223841
1.1313304
1.139484
1.1466203
1.1526673
1.1575413
1.1614977
1.1640135
1.1655137
1.166823
1.1682219
1.168898
1.1690535
1.1672313
1.1650734
1.1643965
1.1658039
1.1668161
1.1671801
1.1670808
1.1667528
1.1665564
0.98026399
0.9814163
0.9840839
0.98959323
1.000259
1.0213916
1.0312251
1.0330628
1.0322992
1.0334979
1.0334658
1.0347447
1.0353609
1.0369698
1.0382697
1.0404255
1.042559
1.0455512
1.0489157
1.053232
1.0581426
1.0639362
1.070371
1.0777698
1.0859489
1.0948681
1.1042772
1.1138935
1.1233351
1.1322552
1.1403239
1.1473323
1.1532374
1.1579936
1.161806
1.1641526
1.1655431
1.1670269
1.168327
1.1689
1.1689374
1.1668754
1.1650747
1.1644391
1.1658847
1.1668733
1.1671863
1.1670821
1.1667507
1.1665559
0.97927398
0.98053448
0.98339707
0.98926131
1.0005596
1.0222862
1.0303995
1.0320847
1.0312845
1.0325023
1.0324618
1.0337679
1.0344135
1.0360691
1.0374068
1.0396406
1.0419282
1.0451464
1.0486938
1.0531401
1.0581382
1.063983
1.0706414
1.0782314
1.086619
1.0957309
1.1052967
1.115011
1.1244801
1.1333537
1.1413132
1.1481667
1.1539063
1.1585298
1.1621484
1.1643086
1.1656104
1.1672426
1.1684515
1.1689173
1.1686958
1.1663584
1.1650259
1.1646472
1.1661231
1.1669119
1.1671845
1.1670798
1.1667521
1.1665561
0.97823822
0.97960965
0.98264605
0.98886065
1.000857
1.0228591
1.0295711
1.0311961
1.0303689
1.0316618
1.031645
1.0329936
1.0336877
1.0354083
1.0368584
1.0392604
1.0416898
1.0450066
1.0486445
1.0531321
1.0582243
1.0642929
1.0711515
1.0789629
1.0875678
1.096872
1.1065864
1.1163817
1.1258533
1.1346512
1.1424707
1.1491393
1.1546913
1.1591624
1.162539
1.1645273
1.1657423
1.1674556
1.1685684
1.16898
1.1683194
1.1660917
1.1650168
1.1647689
1.1662089
1.1669603
1.1672004
1.1670795
1.1667521
1.1665558
0.97753309
0.97901435
0.98223152
0.98881827
1.0016233
1.0236841
1.0289999
1.0305916
1.0297595
1.0310697
1.0311156
1.0325526
1.0332768
1.0351073
1.036645
1.0391254
1.0416288
1.0449909
1.0486778
1.0533162
1.0585923
1.0648383
1.071921
1.0799543
1.088779
1.0982741
1.1081273
1.1179855
1.1274343
1.1361278
1.1437769
1.1502313
1.1555742
1.1598714
1.1629737
1.1647835
1.1659401
1.167656
1.1686821
1.1690484
1.1678953
1.1658057
1.164989
1.1649887
1.1663351
1.1670102
1.1672234
1.1670789
1.1667525
1.1665555
0.9769539
0.9785713
0.98196348
0.98891746
1.0026366
1.0244915
1.0285606
1.0301501
1.0293987
1.0307556
1.0308648
1.0323478
1.0331156
1.0350058
1.0365915
1.0391084
1.0416492
1.0451158
1.0489557
1.0537378
1.0591912
1.0656492
1.0729565
1.0812218
1.0902692
1.099951
1.1099299
1.1198289
1.1292261
1.1377838
1.1452301
1.1514411
1.1565575
1.160654
1.1634606
1.1650805
1.1662094
1.1678464
1.1687773
1.169075
1.1674413
1.1656035
1.1648945
1.1651779
1.1664467
1.1670653
1.1672566
1.1670785
1.1667527
1.166555
0.97670769
0.97843154
0.98199455
0.98931272
1.0040564
1.0254524
1.0283886
1.0300101
1.0292494
1.0306858
1.0307524
1.0323006
1.0330793
1.0349996
1.03662
1.0392275
1.0418864
1.0454746
1.0494526
1.0544036
1.0600543
1.0667234
1.0742667
1.0827683
1.0920389
1.1019005
1.111989
1.1219036
1.1312186
1.1396077
1.1468174
1.1527565
1.1576382
1.1614933
1.1639944
1.1654119
1.1665368
1.1680391
1.1688539
1.169078
1.1670977
1.1654328
1.1648084
1.1654133
1.1665598
1.1671225
1.1672948
1.1670782
1.1667529
1.1665544
0.97661455
0.97847521
0.9822184
0.98989217
1.0057573
1.0264239
1.0282786
1.029919
1.0291801
1.0305971
1.030719
1.0323121
1.0331529
1.0351618
1.0368721
1.039574
1.0423385
1.0460568
1.0501942
1.0553193
1.0611748
1.0680696
1.0758558
1.0845994
1.0940922
1.1041241
1.1143024
1.1242043
1.1334042
1.1415906
1.148528
1.1541686
1.1588175
1.162374
1.1645663
1.1657806
1.1669136
1.1682466
1.1689221
1.1690692
1.1668251
1.165308
1.1647753
1.1655999
1.1666624
1.1671805
1.1673367
1.1670781
1.1667526
1.1665537
0.97665433
0.97865487
0.9825823
0.99060064
1.0076683
1.0274016
1.028346
1.0300492
1.0292885
1.0307883
1.030903
1.0325367
1.0334659
1.0355458
1.0373313
1.0401334
1.0430185
1.0468744
1.0511767
1.0564891
1.0625622
1.0696911
1.0777291
1.0867181
1.09643
1.1066194
1.1168641
1.126722
1.1357721
1.1437199
1.1503482
1.1556676
1.1600834
1.1632855
1.1651684
1.1661834
1.1673221
1.1684814
1.1690088
1.1690261
1.1666319
1.1652219
1.1647629
1.165776
1.166758
1.1672381
1.1673817
1.167078
1.1667522
1.1665529
0.97690094
0.9790602
0.98319291
0.99155064
1.0098497
1.0284239
1.0285839
1.030382
1.0296359
1.0312094
1.0313065
1.0330143
1.0339764
1.0361332
1.0380047
1.0409125
1.0439237
1.0479266
1.0524065
1.0579163
1.0642179
1.0715919
1.0798888
1.0891258
1.099051
1.1093817
1.119666
1.129446
1.13831
1.145981
1.1522644
1.1572485
1.1614117
1.164226
1.165796
1.1666171
1.1677391
1.1687396
1.1691583
1.1688925
1.1664974
1.1651863
1.1647651
1.1659377
1.1668497
1.1672947
1.1674292
1.167078
1.1667514
1.1665521
0.97736512
0.97968385
0.98404047
0.99273309
1.0122441
1.0294808
1.0290218
1.0308453
1.030155
1.0317357
1.0319002
1.0336577
1.0346829
1.0369234
1.0388873
1.0419092
1.0450581
1.0492177
1.0538861
1.059605
1.0661465
1.073775
1.0823374
1.0918231
1.1019532
1.1124053
1.1226988
1.1323644
1.1410036
1.1483572
1.1542633
1.1589129
1.162778
1.165187
1.1664459
1.1670801
1.1681498
1.1690135
1.1693715
1.1686484
1.166362
1.1651733
1.1647926
1.1660994
1.1669463
1.1673506
1.1674744
1.1670771
1.1667501
1.1665512
0.9779871
0.98048652
0.98510116
0.99415657
1.0148084
1.0305705
1.0296438
1.031498
1.0308326
1.0324701
1.0326702
1.0344983
1.0355868
1.0379176
1.0399836
1.0431283
1.0464245
1.0507508
1.0556189
1.0615576
1.0683499
1.0762421
1.0850753
1.0948082
1.1051314
1.1156813
1.1259502
1.1354626
1.1438358
1.1508293
1.1563331
1.1606633
1.1641589
1.1661608
1.1671168
1.1675721
1.1685502
1.1692784
1.1695966
1.1683356
1.1662045
1.1651729
1.1648859
1.1662625
1.167056
1.1674038
1.1675126
1.1670749
1.1667484
1.1665504
0.97881898
0.98150921
0.98641539
0.9958806
1.0175225
1.031734
1.0304415
1.0323296
1.0316864
1.033354
1.0336285
1.03553
1.0366925
1.0391213
1.0412983
1.0445733
1.0480266
1.0525287
1.0576072
1.0637768
1.0708304
1.078995
1.088103
1.098079
1.1085801
1.1192002
1.1294075
1.138725
1.1467872
1.1533789
1.1584663
1.1624835
1.1655431
1.1671387
1.1678072
1.168093
1.1689454
1.1695091
1.1697514
1.1679609
1.1660322
1.165175
1.1650301
1.1664374
1.1671847
1.1674658
1.1675336
1.1670715
1.1667464
1.1665495
0.97977799
0.98267657
0.98791301
0.99786785
1.0202895
1.0329456
1.0313946
1.0333444
1.0327127
1.0344537
1.0347841
1.0367671
1.038009
1.0405409
1.0428353
1.0462468
1.0498656
1.0545527
1.0598524
1.0662634
1.0735887
1.0820333
1.0914185
1.1016309
1.1122907
1.1229495
1.1330549
1.1421321
1.1498357
1.1559896
1.1606602
1.1643436
1.1669223
1.168115
1.1685119
1.1686382
1.1693388
1.169719
1.1698068
1.1676284
1.1658705
1.1651788
1.165233
1.1666196
1.167326
1.167551
1.1675415
1.1670671
1.1667441
1.1665487
0.98092543
0.98403847
0.98964048
1.0001948
1.023124
1.0342528
1.0325372
1.0345538
1.0339399
1.0357665
1.0361489
1.038214
1.0395387
1.0421766
1.0445944
1.0481485
1.0519419
1.0568232
1.062355
1.0690185
1.0766256
1.0853575
1.0950203
1.1054592
1.1162545
1.1269165
1.1368756
1.1456625
1.1529594
1.1586514
1.1629167
1.1662066
1.1682779
1.1690881
1.1692201
1.1692008
1.169729
1.1699652
1.1698178
1.1673663
1.1657481
1.165144
1.165475
1.1667968
1.1674622
1.1676676
1.1675441
1.1670618
1.1667414
1.1665479
0.98230559
0.98562586
0.99161758
1.002908
1.0260233
1.035705
1.033894
1.0359764
1.0353798
1.0372821
1.0377182
1.0398664
1.0412773
1.0440252
1.0465733
1.0502772
1.0542548
1.05934
1.0651152
1.0720423
1.0799408
1.0889658
1.0989044
1.1095565
1.1204597
1.131085
1.1408485
1.1492915
1.1561385
1.1613599
1.1652281
1.1680333
1.1695899
1.1700648
1.1699154
1.1697649
1.1701274
1.1702838
1.1698074
1.1671881
1.1656642
1.1651363
1.1657051
1.1669674
1.1675956
1.1677883
1.1675451
1.1670557
1.1667383
1.166547
0.98385067
0.98737722
0.99377639
1.0059742
1.0289121
1.0373723
1.0354381
1.0375825
1.037022
1.0389879
1.039481
1.0417165
1.0432197
1.0460832
1.0487701
1.0526314
1.0568036
1.0621034
1.0681338
1.0753358
1.0835351
1.0928576
1.1030674
1.1139153
1.1248947
1.135438
1.1449512
1.1529953
1.159361
1.1641153
1.1675516
1.1698037
1.1708636
1.1710447
1.1705889
1.1703212
1.1705335
1.1706504
1.1697631
1.1670802
1.1656271
1.1651374
1.1659517
1.1671318
1.1677204
1.1679025
1.1675449
1.167049
1.1667347
1.166546
0.9855918
0.98932235
0.99613268
1.00941
1.0317961
1.0391216
1.0371558
1.039365
1.0388392
1.0408779
1.0414335
1.0437611
1.0453636
1.0483489
1.0511832
1.0552105
1.0595881
1.0651135
1.0714109
1.0788992
1.0874079
1.0970305
1.1075038
1.1185257
1.1295441
1.1399542
1.1491572
1.1567527
1.1626227
1.1669091
1.1698333
1.1715045
1.1721284
1.1719941
1.171249
1.1708646
1.1709275
1.1710161
1.169656
1.166995
1.1656128
1.1651406
1.1662065
1.1672891
1.1678301
1.168001
1.1675349
1.1670412
1.1667306
1.1665448
0.9874907
0.99142201
0.99865053
1.0131879
1.0346772
1.0409296
1.0390545
1.0413233
1.040838
1.0429516
1.0435746
1.045999
1.0477077
1.0508209
1.0538121
1.0580139
1.0626083
1.068371
1.0749481
1.0827338
1.0915596
1.101483
1.1122083
1.1233779
1.1343919
1.1446108
1.1534418
1.1605521
1.165924
1.1697042
1.1720344
1.1731355
1.1734033
1.1729012
1.1718991
1.1713811
1.1713001
1.1712988
1.169478
1.1669089
1.1656118
1.1651968
1.166469
1.1674433
1.1679231
1.1680799
1.1675203
1.167032
1.1667261
1.1665436
0.98955143
0.99368851
1.0013391
1.0172948
1.0375616
1.043042
1.0411249
1.0434576
1.0430153
1.0452078
1.045903
1.0484289
1.0502508
1.0534984
1.0566559
1.061042
1.065865
1.0718772
1.0787462
1.0868402
1.0959892
1.1062112
1.1171733
1.1284584
1.1394174
1.149381
1.1577825
1.1643892
1.169252
1.1724377
1.1741431
1.1747354
1.1746509
1.1737695
1.1725402
1.1718796
1.1716526
1.1714151
1.1692367
1.1668223
1.1656355
1.1653146
1.1667353
1.1676076
1.1680013
1.1681197
1.1675032
1.1670217
1.1667211
1.1665422
0.99178912
0.99613925
1.0042197
1.0217055
1.0404345
1.0452612
1.0433671
1.0457655
1.0453703
1.0476451
1.0484173
1.0510491
1.052992
1.0563808
1.0597152
1.0642954
1.0693598
1.075634
1.0828075
1.0912199
1.1006965
1.111212
1.1223911
1.1337531
1.1445986
1.1542391
1.1621664
1.1682632
1.1725531
1.1750744
1.1761617
1.1763273
1.1758464
1.1745949
1.1731592
1.1723594
1.1720099
1.17145
1.1689442
1.1667459
1.1657323
1.1655131
1.1669901
1.1677883
1.1680897
1.1681357
1.1674843
1.1670106
1.1667158
1.1665408
0.9941723
0.99875331
1.007293
1.0263963
1.0433113
1.0476599
1.0457809
1.048247
1.0479005
1.050261
1.0511155
1.0538587
1.0559312
1.0594686
1.0629909
1.0677761
1.0730945
1.0796435
1.0871335
1.0958734
1.1056799
1.1164804
1.1278509
1.1392431
1.1499088
1.1591608
1.1665883
1.1721528
1.1757697
1.1775931
1.1781368
1.1778722
1.1769855
1.1753751
1.1737539
1.172831
1.1723773
1.1714492
1.1686464
1.1666785
1.1658671
1.1657707
1.1672423
1.1679865
1.1682284
1.1681404
1.167464
1.1669987
1.1667101
1.1665393
0.99673807
1.0015661
1.0105978
1.0313063
1.0462132
1.0502117
1.0483587
1.0508949
1.0506025
1.0530538
1.0539978
1.0568581
1.0590693
1.0627634
1.0664851
1.0714863
1.0770718
1.0839084
1.0917266
1.1008022
1.110939
1.122012
1.1335418
1.144908
1.1553217
1.1641298
1.1710466
1.1759959
1.1788669
1.1800113
1.1800717
1.1793536
1.178061
1.1761099
1.1743224
1.1732946
1.1727547
1.1714058
1.168395
1.1666231
1.1659777
1.1660749
1.1674929
1.1681885
1.1683987
1.1681401
1.1674426
1.1669862
1.1667042
1.1665378
0.99940186
1.0044977
1.0140883
1.0363436
1.0491208
1.0529173
1.0510994
1.0537132
1.0534793
1.0560265
1.057066
1.0600488
1.0624082
1.0662671
1.0702002
1.0754289
1.0812943
1.0884314
1.0965889
1.1060069
1.1164716
1.1277997
1.1394482
1.1507228
1.1608114
1.1691367
1.1755181
1.1797344
1.1818194
1.1823727
1.1819329
1.1807641
1.1790708
1.176803
1.1748665
1.1737412
1.1731232
1.1712363
1.1682165
1.1665976
1.1660356
1.1664225
1.167733
1.1683728
1.168564
1.1681334
1.1674206
1.166973
1.1666979
1.1665363
1.0022647
1.0076392
1.0178716
1.0415202
1.0521005
1.0558008
1.054016
1.0567058
1.0565326
1.0591786
1.0603207
1.0634319
1.0659498
1.0699822
1.0741385
1.0796062
1.0857649
1.0932156
1.1017234
1.1114893
1.1222762
1.1338355
1.1455524
1.156662
1.1663586
1.1741794
1.1799375
1.1833312
1.1846541
1.1846658
1.1837085
1.1820969
1.1800125
1.1774579
1.1753894
1.1741621
1.1734314
1.1710136
1.1680625
1.1665885
1.1660859
1.1667748
1.1679522
1.1685248
1.1686998
1.1681001
1.1673969
1.1669591
1.1666915
1.1665348
1.0052819
1.0109279
1.0219128
1.0466891
1.0551243
1.0588367
1.0570908
1.059865
1.0597593
1.0625106
1.0637636
1.0670096
1.0696965
1.0739109
1.0783025
1.0840212
1.090487
1.0982649
1.107133
1.1172502
1.1283492
1.1401074
1.1518315
1.1626985
1.1719491
1.1792433
1.1842374
1.1867559
1.1874127
1.1868597
1.1853915
1.1833476
1.1808849
1.1780726
1.1758899
1.1745638
1.173555
1.1707577
1.1679255
1.166589
1.166151
1.1671327
1.1681502
1.1686382
1.1687839
1.1680584
1.167371
1.1669448
1.1666851
1.1665334
1.0084534
1.014361
1.0262425
1.051852
1.0583142
1.062043
1.0603384
1.063201
1.0631654
1.0660257
1.0673971
1.0707836
1.0736498
1.078055
1.0826943
1.0886772
1.095465
1.1035841
1.1128218
1.1232912
1.1346865
1.1466016
1.1582613
1.1688097
1.1775773
1.1842625
1.1883793
1.1900348
1.1900809
1.1889422
1.1869767
1.1845123
1.1816871
1.1786422
1.1763654
1.1749695
1.1735996
1.1704937
1.1678581
1.1666216
1.1662672
1.1674773
1.1683327
1.1687217
1.1688232
1.1680138
1.1673444
1.1669305
1.1666788
1.166532
1.0118252
1.0179718
1.0308979
1.0570577
1.0616587
1.0654211
1.0637562
1.0667079
1.066748
1.0697223
1.0712215
1.0747544
1.0778107
1.0824158
1.0873168
1.0935791
1.1007047
1.1091786
1.1187935
1.1296121
1.1412804
1.1532988
1.1648143
1.1749752
1.1832331
1.1891669
1.1923241
1.1932097
1.1926268
1.1909075
1.1884601
1.1855889
1.1824193
1.1791653
1.1768168
1.1753819
1.1735979
1.1702282
1.1678342
1.1667318
1.1664779
1.1677973
1.1685247
1.1688078
1.1688395
1.1679683
1.1673177
1.1669162
1.1666724
1.1665307
1.0154107
1.0217623
1.035857
1.0622259
1.0651161
1.0689496
1.0673327
1.0703843
1.0705083
1.073602
1.0752374
1.0789221
1.0821799
1.0869966
1.0921757
1.0987343
1.1062137
1.1150551
1.1250524
1.1362127
1.1481215
1.1601775
1.1714661
1.1811822
1.1888695
1.1939024
1.1960847
1.1962775
1.195034
1.1927506
1.1898387
1.1865758
1.1830828
1.179648
1.1772349
1.1757558
1.17354
1.169984
1.1678352
1.1669193
1.1667747
1.1680811
1.1687328
1.1689451
1.168841
1.167923
1.1672911
1.1669021
1.1666662
1.1665295
1.0191933
1.0257216
1.0411471
1.0673863
1.0687412
1.0726536
1.0710844
1.0742373
1.0744492
1.0776632
1.079443
1.0832866
1.086761
1.0918045
1.0972796
1.1041518
1.1120001
1.1212198
1.1316018
1.1430896
1.1551946
1.1672114
1.1781933
1.1874216
1.1944112
1.1984241
1.1997037
1.1992025
1.1972976
1.1944687
1.1911109
1.1874727
1.1836797
1.1800962
1.1776179
1.1759612
1.1733281
1.1697949
1.1678516
1.1671325
1.1671042
1.1683522
1.1689464
1.1691279
1.1688385
1.1678783
1.1672647
1.166888
1.1666601
1.1665284
1.0232039
1.0298519
1.0467354
1.0724993
1.0725102
1.0765238
1.0750016
1.0782564
1.0785619
1.0819014
1.0838393
1.0878541
1.0915639
1.0968503
1.1026395
1.1098416
1.1180724
1.1276798
1.1384448
1.1502378
1.1624821
1.1743751
1.1849776
1.193675
1.199783
1.2027165
1.2032029
1.2019597
1.1994125
1.1960599
1.1922761
1.1882801
1.1842117
1.1805089
1.1779881
1.1760427
1.1730252
1.1696353
1.1679054
1.1673089
1.1674615
1.1686112
1.1691489
1.1693067
1.1687986
1.1678351
1.1672384
1.1668741
1.1666541
1.1665274
1.0274394
1.0341609
1.0525961
1.0775325
1.0764282
1.080546
1.0790755
1.082436
1.0828475
1.0863244
1.088439
1.0926395
1.0966025
1.1021469
1.108266
1.1158134
1.1244388
1.1344409
1.1455823
1.1576471
1.1699603
1.1816426
1.1918026
1.199865
1.2049384
1.2068208
1.2065407
1.2045454
1.2013765
1.1975242
1.1933354
1.1889997
1.1846803
1.1808909
1.1783592
1.1760593
1.1726582
1.1694915
1.1679671
1.1674665
1.1678348
1.1688436
1.1693151
1.1694561
1.1687275
1.16779
1.1672118
1.1668604
1.1666483
1.1665266
1.0318804
1.0386552
1.0586879
1.0824682
1.0804864
1.0847158
1.0833122
1.0867904
1.0873263
1.0909537
1.0932624
1.0976586
1.1018893
1.1077045
1.1141687
1.1220762
1.131108
1.1415095
1.1530136
1.1653046
1.1776046
1.1889913
1.198655
1.2059124
1.2098297
1.2107846
1.2096847
1.2069539
1.2031887
1.1988626
1.1942897
1.1896325
1.1850882
1.1812402
1.178705
1.1760516
1.1722752
1.1693652
1.1680377
1.16762
1.1682078
1.1690467
1.1694324
1.1695358
1.1686474
1.1677431
1.1671854
1.1668471
1.1666429
1.1665259
1.0365263
1.0433669
1.0649645
1.0873352
1.0847139
1.0890668
1.0877457
1.0913565
1.0920271
1.0958097
1.0983226
1.1029204
1.1074317
1.1135317
1.1203571
1.1286403
1.1380884
1.14889
1.160734
1.1731908
1.1853874
1.196398
1.2054909
1.2117436
1.2144839
1.2145726
1.2126261
1.2091829
1.2048499
1.2000769
1.1951401
1.1901785
1.1854405
1.1815564
1.1789017
1.1759503
1.1719277
1.1693052
1.1681296
1.1677923
1.1685645
1.169232
1.1695152
1.1695661
1.1685666
1.1676967
1.1671599
1.1668344
1.1666377
1.1665254
1.0414282
1.0483653
1.0714336
1.0922292
1.0891759
1.0936528
1.0924098
1.0961516
1.0969584
1.1008939
1.1036211
1.108429
1.1132369
1.1196382
1.1268421
1.1355159
1.145389
1.1565859
1.1687349
1.1812834
1.1932841
1.2038453
1.2122266
1.2173064
1.2189425
1.2181521
1.2153596
1.211232
1.2063624
1.201169
1.1958855
1.190638
1.1857459
1.1818513
1.1789784
1.1757167
1.1716461
1.1692855
1.1682531
1.1680031
1.1688845
1.1694106
1.1695956
1.169573
1.1684876
1.1676515
1.1671353
1.1668222
1.1666328
1.1665251
1.0466175
1.0537141
1.0780749
1.0972878
1.0938702
1.0984596
1.0972877
1.1011537
1.1021079
1.1062014
1.10916
1.1141918
1.1193151
1.1260363
1.1336359
1.1427152
1.1530183
1.1645974
1.1770017
1.1895542
1.2012676
1.2113117
1.2187725
1.222576
1.2232227
1.2214933
1.2178821
1.2131026
1.2077293
1.2021406
1.1965257
1.1910176
1.186015
1.1821332
1.1789951
1.1753587
1.1714198
1.16929
1.1684263
1.1682626
1.1691473
1.1695848
1.1697272
1.1695681
1.1684117
1.167608
1.1671117
1.1668105
1.1666282
1.1665249
1.0520181
1.0593846
1.0847916
1.1025346
1.0987213
1.1034358
1.1023551
1.1063557
1.1074775
1.1117413
1.1149507
1.120222
1.1256806
1.1327407
1.1407528
1.1502498
1.1609838
1.1729216
1.1855164
1.1979768
1.2093119
1.2187332
1.2250594
1.2275899
1.2272794
1.2245951
1.2201933
1.2147981
1.2089543
1.2029927
1.1970645
1.1913371
1.1862599
1.1823687
1.1789878
1.1749214
1.1712276
1.1693343
1.1686379
1.1685418
1.1693809
1.1697719
1.1698918
1.1695538
1.1683395
1.1675662
1.1670891
1.1667993
1.1666239
1.166525
1.0576043
1.0653969
1.0915186
1.1075742
1.1037653
1.1086109
1.1076381
1.1117799
1.1130862
1.1175291
1.1210088
1.1265351
1.1323494
1.1397674
1.148207
1.158132
1.1692903
1.1815495
1.1942539
1.2065233
1.2173928
1.2260134
1.2310238
1.2323995
1.2310728
1.227451
1.2222946
1.2163226
1.2100408
1.2037287
1.197517
1.1916233
1.1864835
1.182464
1.1788863
1.1744459
1.1710693
1.1694167
1.1688573
1.1688302
1.1695993
1.1699548
1.1700648
1.1694841
1.1682714
1.1675261
1.1670673
1.1667886
1.16662
1.1665253
1.0634158
1.0718306
1.0982886
1.1128535
1.1090318
1.1140101
1.1131527
1.1174415
1.1189478
1.1235804
1.1273504
1.133149
1.1393386
1.1471328
1.1560131
1.1663718
1.1779396
1.1904668
1.2031871
1.2151662
1.2254834
1.2330535
1.2366739
1.2369771
1.2345904
1.2300614
1.2241904
1.2176818
1.2109927
1.2043556
1.1979066
1.191877
1.1866553
1.1825027
1.1786793
1.173989
1.1709494
1.1695307
1.1690713
1.1691359
1.1698025
1.1701016
1.1701831
1.1693755
1.1682052
1.1674867
1.1670462
1.1667785
1.1666164
1.1665259
1.0694534
1.0787028
1.1050742
1.1183828
1.1145218
1.1196391
1.1189098
1.1233531
1.1250788
1.1299126
1.1339944
1.1400825
1.1466661
1.154853
1.1641846
1.1749787
1.186928
1.1996528
1.2122849
1.2238715
1.233492
1.2397826
1.2420478
1.2412802
1.2378268
1.2324271
1.225886
1.2188812
1.2118156
1.2048875
1.1982508
1.1920293
1.1867276
1.1825098
1.1783347
1.1736105
1.1708792
1.1696593
1.1692705
1.1694576
1.1699857
1.1702019
1.170235
1.1692567
1.1681377
1.1674482
1.167026
1.166769
1.1666133
1.1665267
1.0757145
1.0860152
1.1118716
1.1241326
1.1202509
1.1255127
1.1249274
1.1295334
1.1314991
1.1365458
1.14096
1.1473544
1.1543489
1.1629444
1.1727358
1.1839586
1.1962472
1.2090824
1.2215186
1.2326093
1.2413155
1.2461459
1.2471897
1.2452661
1.2407807
1.2345531
1.2273885
1.2199269
1.2125186
1.2053421
1.1985257
1.1920904
1.1867587
1.1824521
1.1778733
1.1733213
1.1708606
1.1698
1.1694686
1.1697667
1.1701536
1.1702852
1.1702494
1.169138
1.1680714
1.1674113
1.1670069
1.1667602
1.1666106
1.1665278
1.0822315
1.0937694
1.118698
1.1300966
1.1262396
1.1316503
1.1312282
1.1360027
1.1382295
1.143499
1.1482651
1.1549823
1.1624045
1.1714236
1.1816796
1.1933148
1.2058817
1.2187247
1.2308538
1.2413328
1.2488417
1.2521714
1.2520389
1.2489343
1.2434527
1.2364457
1.228705
1.2208259
1.2131151
1.2057342
1.198641
1.1921097
1.1867688
1.1823102
1.1773534
1.1730809
1.1708664
1.1699517
1.1696711
1.1700392
1.170313
1.170404
1.1702475
1.1690237
1.1680076
1.1673764
1.1669891
1.1667522
1.1666083
1.1665292
1.0890172
1.1019313
1.1255881
1.1363091
1.1325105
1.1380754
1.1378298
1.1427794
1.1452864
1.1507887
1.1559259
1.1629841
1.1708505
1.180308
1.1910276
1.2030438
1.2158098
1.2285487
1.2402522
1.2499285
1.2559961
1.2579089
1.2565534
1.2522794
1.245848
1.2381133
1.2298429
1.2215884
1.2136211
1.2060528
1.1986831
1.1921112
1.1867609
1.1820827
1.1768071
1.1728722
1.1708805
1.1701147
1.1698813
1.170272
1.1704818
1.1705499
1.1702402
1.1689151
1.167947
1.1673435
1.1669724
1.1667448
1.1666066
1.1665309
1.0961087
1.1105601
1.1326323
1.1428031
1.1390803
1.1447988
1.1447513
1.1498747
1.1526834
1.1584299
1.16396
1.1713799
1.1797077
1.1896154
1.200788
1.2131365
1.2260022
1.2385178
1.2496718
1.2582798
1.2627459
1.2633526
1.2607037
1.2553022
1.247973
1.2395631
1.23081
1.2222294
1.214052
1.2062157
1.1986891
1.1920878
1.186702
1.1817568
1.1762695
1.1726955
1.1709298
1.1702877
1.1701035
1.1704656
1.170646
1.170709
1.1702103
1.1688135
1.1678898
1.1673128
1.1669569
1.1667381
1.1666052
1.1665331
1.1034001
1.1195525
1.1397937
1.1495689
1.145949
1.151829
1.1519915
1.1573002
1.1604356
1.166443
1.1723909
1.1801949
1.1889996
1.1993639
1.2109649
1.2235744
1.2364252
1.2485896
1.259036
1.2662739
1.2691285
1.2684455
1.2644897
1.2580069
1.2498361
1.2408032
1.2316189
1.2227699
1.2144081
1.2062794
1.1986708
1.1920306
1.1865809
1.1813045
1.1757905
1.172556
1.1710122
1.1704757
1.1703334
1.1706341
1.1707721
1.1708041
1.1701351
1.1687195
1.1678364
1.167284
1.1669424
1.166732
1.1666044
1.1665356
1.1109765
1.1289899
1.1471663
1.1566465
1.1531342
1.1591747
1.1595729
1.1650737
1.1685679
1.1748569
1.181247
1.189458
1.1987509
1.2095681
1.2215538
1.234332
1.2470399
1.2587122
1.2682082
1.2738211
1.27521
1.2731289
1.2679075
1.2603997
1.251445
1.2418433
1.2322904
1.2232293
1.2146348
1.2062934
1.1986056
1.1919411
1.1863775
1.1807223
1.1754082
1.1724627
1.1711241
1.1706773
1.1705602
1.17078
1.1708645
1.1708485
1.1700192
1.1686328
1.1677864
1.1672568
1.1669289
1.1667266
1.1666041
1.1665387
1.11874
1.1387572
1.1546934
1.1640036
1.1606322
1.1668533
1.1675208
1.1732284
1.1771153
1.1837068
1.1905619
1.1991995
1.208985
1.2202371
1.2325413
1.2453734
1.2578022
1.2688296
1.2770555
1.2809428
1.2809152
1.2774018
1.2709616
1.2624899
1.2528106
1.2427032
1.2328539
1.2236078
1.2147348
1.2062775
1.1985063
1.1918177
1.1860854
1.1800819
1.1750948
1.1724367
1.1712567
1.1708757
1.1707695
1.1709059
1.170959
1.170858
1.1698792
1.1685517
1.1677386
1.167231
1.1669163
1.1667219
1.1666044
1.1665422
1.126714
1.1487649
1.1624608
1.1717087
1.168507
1.1749196
1.1758878
1.1818057
1.186116
1.1930309
1.2003696
1.209449
1.2197207
1.2313706
1.2439028
1.2566568
1.2686528
1.278819
1.2854604
1.2876809
1.2861908
1.2812564
1.2736571
1.2642872
1.2539492
1.243415
1.2333295
1.2238471
1.2147688
1.2062106
1.1983744
1.1916586
1.1857042
1.1794224
1.174833
1.1724416
1.1714019
1.1710666
1.1709604
1.1710334
1.1710667
1.1708546
1.169733
1.1684711
1.1676921
1.1672064
1.1669047
1.166718
1.1666052
1.1665462
1.1349361
1.1591726
1.1705785
1.1798266
1.1767939
1.1834014
1.1847089
1.190844
1.1956088
1.202869
1.2107049
1.2202329
1.2309699
1.2429576
1.255604
1.2681334
1.2795276
1.2885335
1.2933691
1.2940412
1.2909963
1.2846961
1.2760044
1.2658063
1.2548886
1.2440124
1.2336943
1.2239607
1.2147676
1.2061015
1.1982142
1.1914559
1.1852279
1.1787851
1.174608
1.1724602
1.1715521
1.1712499
1.1711377
1.1711759
1.1712025
1.170847
1.1695887
1.1683919
1.1676475
1.1671832
1.1668942
1.1667148
1.1666068
1.1665509
1.1435594
1.1701078
1.1790216
1.188382
1.1855352
1.1923284
1.1940254
1.2003912
1.2056384
1.2132615
1.2215994
1.2315721
1.2427352
1.2549757
1.2675995
1.2797442
1.290337
1.2978146
1.3008111
1.299942
1.2953308
1.2877248
1.2780156
1.2670686
1.2556624
1.2444934
1.2338805
1.2240074
1.2147211
1.2059543
1.1980258
1.1911938
1.1846362
1.1782152
1.1744203
1.1725034
1.1717043
1.1714288
1.1713106
1.1713261
1.1713562
1.1708123
1.1694504
1.1683155
1.1676053
1.1671618
1.1668848
1.1667125
1.1666091
1.1665563
1.1526609
1.1816327
1.1878207
1.1973918
1.1947938
1.2017694
1.2038952
1.2104979
1.2162447
1.2242431
1.2330775
1.2434789
1.2550081
1.2673902
1.2798356
1.2914082
1.3009055
1.3065527
1.307858
1.3053139
1.2991911
1.2903542
1.2797098
1.2681065
1.2562929
1.2447744
1.2339636
1.2240142
1.2146274
1.2057756
1.1978085
1.1908529
1.1839183
1.1777512
1.1742693
1.1725598
1.1718561
1.171604
1.1714837
1.1714674
1.1714674
1.1707525
1.1693192
1.1682428
1.1675659
1.1671421
1.1668766
1.1667112
1.1666122
1.1665625
1.1621279
1.1937362
1.1971836
1.206934
1.2046272
1.2117653
1.214361
1.2212002
1.2274579
1.2358391
1.2451584
1.2559568
1.2677673
1.2801529
1.2922445
1.3030335
1.3110631
1.3147637
1.3144003
1.3101547
1.3025815
1.2925985
1.2811128
1.2689538
1.2567536
1.2449039
1.2339951
1.2239747
1.214494
1.2055709
1.1975613
1.1904229
1.1831588
1.1773456
1.174152
1.1726274
1.1720074
1.1717726
1.1716454
1.1716084
1.1715138
1.1706684
1.169197
1.1681747
1.1675294
1.1671242
1.1668696
1.1667108
1.1666162
1.1665695
1.1721684
1.2062349
1.2070771
1.2170334
1.2150645
1.2223506
1.2254516
1.2325297
1.239301
1.2480734
1.2578569
1.2690011
1.2809789
1.2932025
1.3047362
1.3144566
1.3206581
1.3224957
1.320371
1.3144562
1.3055136
1.2944808
1.2822596
1.2696267
1.2569903
1.2449555
1.2339766
1.223888
1.2143272
1.2053457
1.1972843
1.1899046
1.1823891
1.1769884
1.1740656
1.1727041
1.1721585
1.1719387
1.1717946
1.1717291
1.1715269
1.1705653
1.1690839
1.1681113
1.1674957
1.1671082
1.1668639
1.1667114
1.1666209
1.1665773
1.1828398
1.2192582
1.2175723
1.2277277
1.2261444
1.2335521
1.2371899
1.2445151
1.2518017
1.2609713
1.2711864
1.2825952
1.2945922
1.3064616
1.3172006
1.325484
1.3296534
1.3296906
1.3257337
1.3182217
1.308004
1.2960314
1.2831853
1.2700782
1.2570896
1.244945
1.2338987
1.2237626
1.2141342
1.2051035
1.1969744
1.1893009
1.1816399
1.1766706
1.1740081
1.1727892
1.1723056
1.1720971
1.1719334
1.1718365
1.1715259
1.1704446
1.1689795
1.1680523
1.1674648
1.1670938
1.1668592
1.1667127
1.1666265
1.1665861
1.1942463
1.2326556
1.2286731
1.2389908
1.2378566
1.2453725
1.2495957
1.2571996
1.2650031
1.2745647
1.2851507
1.2967055
1.3085365
1.3198267
1.3294856
1.3359214
1.3380833
1.3362529
1.3304856
1.3214627
1.3100807
1.2972894
1.2839062
1.2703034
1.2571084
1.2448571
1.2337738
1.223605
1.213922
1.2048458
1.1966185
1.1885904
1.180956
1.1763932
1.1739763
1.1728798
1.172444
1.1722456
1.1720731
1.1719306
1.1715185
1.1703091
1.1688825
1.1679973
1.1674359
1.1670805
1.1668553
1.166715
1.1666333
1.166596
1.2064752
1.2462115
1.2403865
1.2508269
1.2502278
1.2578583
1.2627145
1.2706443
1.2789616
1.2888816
1.2997375
1.3112731
1.322718
1.3331633
1.3413621
1.3456879
1.3459229
1.3421266
1.334624
1.3241991
1.3117807
1.298293
1.284365
1.2703931
1.2570399
1.2447069
1.2336074
1.2234235
1.2136972
1.2045711
1.1961948
1.1877483
1.1803888
1.1761583
1.1739637
1.1729719
1.1725745
1.1723895
1.1722191
1.1720199
1.1714953
1.1701624
1.1687915
1.1679453
1.1674085
1.167068
1.1668524
1.1667184
1.1666413
1.1666072
1.219806
1.2596864
1.2528601
1.2633731
1.2634175
1.2711523
1.2766331
1.2849143
1.2937211
1.3039301
1.3149009
1.326207
1.3370106
1.3463076
1.3526014
1.3548027
1.3530492
1.3473067
1.338163
1.3264644
1.3131492
1.2990605
1.28459
1.2703878
1.2568861
1.2445018
1.2334088
1.2232255
1.2134659
1.204277
1.1956845
1.1868648
1.1798904
1.1759618
1.1739637
1.1730627
1.1727002
1.1725336
1.1723744
1.1721084
1.1714424
1.1700092
1.1687049
1.1678951
1.1673819
1.1670565
1.1668506
1.1667233
1.1666508
1.16662
1.2346086
1.2734103
1.2663142
1.2768132
1.2776724
1.2854339
1.2914995
1.300091
1.3093044
1.3196751
1.330556
1.3413806
1.3512429
1.3589915
1.3630903
1.3632462
1.3593934
1.351787
1.3411271
1.3283025
1.3142227
1.2995234
1.2846776
1.2702777
1.2566615
1.2442514
1.2331851
1.2230184
1.213233
1.2039623
1.1950813
1.1859798
1.1794449
1.1757948
1.1739712
1.1731524
1.1728249
1.1726799
1.1725385
1.1721933
1.1713644
1.1698564
1.1686203
1.1678463
1.1673567
1.1670464
1.1668502
1.1667294
1.1666617
1.1666343
1.2507772
1.2876533
1.2809174
1.2912752
1.2929154
1.3007719
1.307441
1.3162392
1.3256926
1.336029
1.3465728
1.3566339
1.3652173
1.3709533
1.3728395
1.3708674
1.3649464
1.355584
1.343558
1.3297661
1.3150088
1.2997431
1.2846557
1.2700767
1.2563763
1.2439646
1.2329439
1.22281
1.2130036
1.2036273
1.1943895
1.1851246
1.1790345
1.1756509
1.1739852
1.1732438
1.1729513
1.1728272
1.1727069
1.1722381
1.1712679
1.1697082
1.1685373
1.1677994
1.1673332
1.1670377
1.166851
1.1667369
1.166674
1.1666504
1.2683247
1.3029754
1.2967103
1.3067968
1.3092031
1.3171923
1.3242736