/*--------------------------------*- C++ -*----------------------------------*\
  =========                 |
  \\      /  F ield         | OpenFOAM: The Open Source CFD Toolbox
   \\    /   O peration     | Website:  https://openfoam.org
    \\  /    A nd           | Version:  8
     \\/     M anipulation  |
\*---------------------------------------------------------------------------*/
FoamFile
{
    version     2.0;
    format      ascii;
    class       surfaceVectorField;
    location    "0.0399893";
    object      rhoUf;
}
// * * * * * * * * * * * * * * * * * * * * * * * * * * * * * * * * * * * * * //

dimensions      [1 -2 -1 0 0 0 0];

internalField   nonuniform List<vector> 
39600
(
(213.01171 1.9842556e-19 -9.6790125)
(197.48435 -4.6803749e-21 -9.6217311)
(196.87201 -1.37479e-16 -8.8232455)
(241.92844 7.7240654e-20 -11.078197)
(231.76686 -1.1492712e-20 -10.979467)
(230.90987 2.3345075e-19 -10.039918)
(263.69464 -4.7998328e-19 -12.181258)
(254.71133 9.2528692e-21 -12.210918)
(253.62082 -1.9174767e-19 -11.151368)
(284.01167 -6.3115956e-17 -13.260127)
(275.30038 8.2288636e-17 -13.307766)
(274.00059 -3.2561223e-19 -12.164169)
(304.31721 -7.4859167e-17 -14.391043)
(295.4897 -1.394848e-16 -14.476468)
(294.01302 -7.2383638e-17 -13.230899)
(318.64821 9.3074075e-17 -15.257247)
(315.99475 -6.1647139e-17 -15.605723)
(314.62687 4.5446863e-19 -14.312293)
(323.11194 7.2321286e-17 -15.48575)
(322.33526 1.5307025e-16 -16.265546)
(322.2861 1.0661734e-16 -14.992629)
(323.42706 -4.6426032e-17 -15.487554)
(323.90951 -4.342952e-17 -15.82383)
(323.97758 -8.3092766e-17 -14.595835)
(323.07395 0 -15.455606)
(322.72506 0 -16.447691)
(322.79407 3.2317462e-17 -15.165216)
(323.10538 0 -15.448924)
(323.40491 0 -15.679759)
(323.42556 2.7118839e-17 -14.452565)
(322.86679 -1.1662786e-18 -15.429865)
(322.69989 5.0811163e-17 -16.480178)
(322.72294 -2.27267e-17 -15.201118)
(322.81268 -1.4000405e-18 -15.4224)
(323.02827 -4.2194582e-17 -15.680205)
(323.02868 -1.4066017e-18 -14.443465)
(322.59549 1.0137953e-19 -15.408943)
(322.54446 -2.2009638e-18 -16.39689)
(322.54679 0 -15.125769)
(322.46908 1.2179958e-19 -15.398361)
(322.63749 2.9500841e-17 -15.756574)
(322.63254 1.1532852e-19 -14.508143)
(322.24067 1.5769828e-17 -15.382612)
(322.26465 6.9598955e-20 -16.26535)
(322.2644 0 -15.002789)
(322.03646 3.7786677e-18 -15.360097)
(322.18988 -6.1720749e-19 -15.829854)
(322.19257 1.7760307e-17 -14.579597)
(321.75265 -1.7881797e-17 -15.325826)
(321.83149 -1.6533569e-17 -16.11305)
(321.84323 -1.6753913e-17 -14.865081)
(321.45638 4.6942806e-19 -15.278321)
(321.61111 -1.372331e-17 -15.840477)
(321.62692 -6.8080262e-18 -14.597428)
(321.10319 5.386242e-19 -15.207601)
(321.2108 2.939443e-17 -15.949569)
(321.23955 5.7453294e-18 -14.704227)
(320.71426 1.4115838e-17 -15.147282)
(320.84223 -1.8882152e-17 -15.786643)
(320.85242 -2.0483888e-20 -14.524021)
(320.2202 -1.530453e-18 -15.097551)
(320.35539 -1.5849135e-18 -15.808048)
(320.34901 1.9796602e-17 -14.538524)
(319.6276 -6.839117e-18 -14.987987)
(319.84845 -1.2793736e-17 -15.680333)
(319.86403 -2.6145003e-17 -14.416118)
(318.92436 1.0705727e-17 -14.81114)
(319.21798 1.0511619e-17 -15.551535)
(319.2517 1.546571e-17 -14.310416)
(318.11377 -8.640164e-18 -14.538328)
(318.47183 -1.7130498e-17 -15.293563)
(318.5279 -6.0713296e-18 -14.085324)
(317.18737 1.1097846e-17 -14.154164)
(317.59507 1.5162489e-17 -14.957769)
(317.67113 0 -13.792002)
(316.1413 6.792693e-18 -13.630979)
(316.5943 1.2192267e-17 -14.47144)
(316.69115 1.2927781e-17 -13.359706)
(314.9853 2.3211645e-17 -12.942455)
(315.4715 -1.7741849e-17 -13.826809)
(315.58957 -9.8567148e-18 -12.787995)
(313.74837 3.849753e-17 -12.076158)
(314.25385 2.6186015e-17 -12.989917)
(314.39054 2.773144e-17 -12.042685)
(312.47316 1.0269318e-19 -11.043259)
(312.97818 -8.1580533e-17 -11.967487)
(313.12765 -6.3714406e-18 -11.127882)
(311.20944 1.916212e-18 -9.8846795)
(311.6962 5.4650249e-17 -10.790048)
(311.84948 0 -10.068019)
(310.00804 8.4431395e-19 -8.6608926)
(310.4586 5.4452357e-17 -9.5133363)
(310.60614 -2.3885867e-18 -8.9123998)
(308.91767 1.7176506e-17 -7.4496221)
(309.31557 6.7268779e-17 -8.2148036)
(309.44866 2.2851645e-18 -7.7304346)
(307.96009 8.8321823e-18 -6.3132305)
(308.3107 3.2012498e-17 -6.9865332)
(308.4235 1.374951e-17 -6.6067852)
(307.16102 -5.2210519e-17 -5.2704834)
(307.43671 -4.1521899e-17 -5.8480905)
(307.53034 -4.9633949e-18 -5.5576193)
(306.54061 -3.3492692e-17 -4.2920644)
(306.74077 1.1666307e-16 -4.8448979)
(306.82242 -2.0858153e-17 -4.6360764)
(306.05173 2.3856643e-17 -3.5447301)
(306.19832 -1.9784926e-17 -3.9348353)
(306.24602 4.9317366e-18 -3.7998164)
(305.75209 5.4758971e-17 -2.8966747)
(305.84693 -2.3890124e-19 -3.1655701)
(305.88218 6.6750874e-18 -3.077377)
(305.55331 4.8150652e-17 -2.3220795)
(305.60355 9.8727677e-17 -2.6530954)
(305.64686 1.8252942e-17 -2.5805793)
(305.37938 6.7664404e-19 -1.8415545)
(305.34879 -1.6565421e-17 -2.2915857)
(305.3877 0 -2.2363803)
(305.17821 -6.3141394e-17 -1.5818958)
(305.18261 1.1122545e-16 -1.9004409)
(305.19289 -8.3793299e-18 -1.8686396)
(305.05642 -3.3201323e-17 -1.1982738)
(305.07678 4.356015e-19 -1.4214172)
(305.09027 -1.7969945e-17 -1.4259489)
(304.8564 5.038457e-17 -1.4485728)
(305.11704 -1.460993e-19 -0.8773831)
(305.04046 1.7287509e-17 -0.92007424)
(305.05054 -5.0419361e-17 -0.95614788)
(305.27402 -1.9468533e-17 -0.4331101)
(305.28531 -2.315151e-18 -0.46430314)
(305.22672 -9.3192131e-17 -0.17052971)
(305.22962 2.9054982e-17 -0.21478825)
(305.27009 -1.4914863e-17 -0.20238669)
(305.21944 -4.7455143e-17 0.44201857)
(305.03778 -1.099529e-17 -0.20265898)
(305.10051 -3.6922225e-19 -0.16601514)
(304.95338 0 0.11778855)
(304.88 0 -0.23854649)
(304.86694 0 -0.21741197)
(304.848 3.175309e-17 -0.17266515)
(304.84139 -9.8911864e-17 -0.20499602)
(304.82909 0 -0.20181682)
(304.8498 4.2361145e-17 -0.095278209)
(304.86113 9.5004622e-18 -0.12694911)
(304.86295 2.6119974e-19 -0.12987316)
(304.82695 1.0374344e-18 -0.008471312)
(304.83913 1.0275703e-19 -0.034904756)
(304.84106 4.2744958e-19 -0.037207856)
(304.81152 -2.7402234e-18 0.022865312)
(304.81224 6.0545528e-18 0.0216642)
(213.45001 -2.0785823e-19 -10.535575)
(198.3196 1.6466953e-16 -10.440296)
(242.59203 -7.9371975e-20 -12.04088)
(232.74568 -6.9432749e-19 -11.937967)
(264.56822 7.4443424e-17 -13.226239)
(255.8717 -5.8252038e-19 -13.278613)
(285.06449 2.4903461e-17 -14.381179)
(276.64 1.6389784e-16 -14.457153)
(305.41879 -1.3261672e-16 -15.582113)
(296.99166 -2.1509798e-16 -15.730237)
(319.21253 -1.9736641e-17 -16.456751)
(317.27059 2.1289803e-18 -16.895229)
(323.07425 5.5314902e-17 -16.67716)
(322.43009 4.9562977e-17 -17.542554)
(323.37851 -1.4768751e-18 -16.702143)
(323.95186 8.9326872e-17 -17.056987)
(323.03943 0 -16.689568)
(322.72867 2.402523e-18 -17.747084)
(323.08685 4.5652984e-17 -16.697859)
(323.42104 -6.1882778e-17 -16.920607)
(322.85389 1.8033788e-17 -16.688135)
(322.68863 4.962486e-17 -17.782758)
(322.80728 -4.6117213e-17 -16.685617)
(323.02194 5.7327076e-18 -16.934485)
(322.59149 2.4022042e-17 -16.675089)
(322.53008 -3.5695246e-17 -17.69199)
(322.46586 3.1765277e-17 -16.665287)
(322.62553 5.8593435e-17 -17.020212)
(322.23518 -1.5880233e-17 -16.646652)
(322.24184 -2.4756621e-17 -17.546068)
(322.02852 -1.9206573e-17 -16.620387)
(322.16399 3.3577744e-18 -17.095283)
(321.74288 -1.2694896e-17 -16.58441)
(321.79965 -1.7206562e-17 -17.386448)
(321.44947 1.1076689e-17 -16.536544)
(321.57615 -2.1012967e-17 -17.121146)
(321.08414 1.4349691e-17 -16.489871)
(321.18434 3.4735809e-17 -17.249135)
(320.66295 -3.567988e-17 -16.442134)
(320.82454 -3.8990999e-17 -17.09866)
(320.15568 -1.1671746e-17 -16.376129)
(320.3344 1.7007997e-17 -17.107624)
(319.56077 2.2423044e-18 -16.254675)
(319.80916 2.0250034e-17 -16.957476)
(318.85633 -1.4412617e-17 -16.040426)
(319.15042 -1.6884643e-17 -16.803781)
(318.04276 3.4226807e-18 -15.736845)
(318.38729 1.9227709e-19 -16.518834)
(317.10013 1.6495674e-17 -15.30924)
(317.48928 1.4883437e-17 -16.142871)
(316.03312 -9.2405647e-18 -14.724762)
(316.46546 0 -15.601068)
(314.85724 -1.8810543e-17 -13.956406)
(315.31994 -2.0686024e-17 -14.880939)
(313.6048 -8.2080431e-17 -12.992473)
(314.08311 1.6498734e-19 -13.949562)
(312.3217 -4.0608878e-17 -11.84878)
(312.79554 -3.913768e-17 -12.816873)
(311.05978 1.0648974e-16 -10.571797)
(311.51173 1.2056579e-16 -11.519924)
(309.86974 1.1882516e-16 -9.2291408)
(310.28293 -2.7878242e-17 -10.121041)
(308.79851 8.5423325e-17 -7.9062652)
(309.15826 2.6281811e-17 -8.7052379)
(307.8632 -1.044703e-17 -6.6705194)
(308.17773 -1.7283084e-19 -7.3731236)
(307.08026 1.0951994e-16 -5.5407061)
(307.32706 1.1068638e-16 -6.1459977)
(306.47803 1.4452387e-16 -4.4964172)
(306.64853 -4.1855996e-17 -5.0596435)
(306.01595 -4.5703065e-17 -3.6740062)
(306.13957 -3.9090968e-17 -4.0765572)
(305.71863 3.2792071e-17 -2.9828027)
(305.80533 2.0632557e-19 -3.2638291)
(305.53266 4.6899098e-17 -2.3416416)
(305.5507 -4.5339083e-17 -2.7322346)
(305.35359 7.7843516e-17 -1.8909882)
(305.31139 -1.6485395e-17 -2.3488449)
(305.1445 1.8687172e-16 -1.6523647)
(305.17426 2.3781464e-17 -1.9360437)
(305.09836 3.3409791e-17 -1.1977316)
(305.05787 6.3174023e-17 -1.4190695)
(304.99822 -6.7788128e-17 -1.28501)
(305.17279 -3.9804564e-17 -0.84390525)
(305.07446 6.2508733e-17 -0.81397274)
(305.27172 -2.9231852e-17 -0.41509076)
(305.12127 1.162885e-16 -0.18043812)
(305.20135 8.5933085e-17 -0.23495399)
(305.10054 3.5245579e-17 0.24411456)
(304.99423 -1.261185e-16 -0.23770838)
(304.95609 -8.8292062e-17 0.069605342)
(304.88264 -1.5539604e-17 -0.25667535)
(304.85479 -1.3350132e-16 -0.17396619)
(304.85074 -1.4829599e-18 -0.20883442)
(304.84962 -3.2223195e-17 -0.090437091)
(304.85951 -2.6513027e-17 -0.12513662)
(304.82513 -3.4112258e-18 -0.0074029734)
(304.83748 9.8422426e-17 -0.033287972)
(304.8108 8.3133649e-17 0.023802253)
(214.52872 1.7664216e-16 -11.452761)
(199.15974 1.6010445e-16 -11.296212)
(243.87732 -1.1942031e-18 -13.094612)
(233.82131 1.2334337e-16 -12.939524)
(266.00975 7.401941e-17 -14.385452)
(257.10898 3.3830251e-20 -14.389662)
(286.67032 -4.105611e-17 -15.64081)
(278.04085 8.3298735e-17 -15.658537)
(306.95241 -1.0038021e-16 -16.933204)
(298.58071 -2.1505221e-16 -17.050556)
(319.9833 6.6102935e-17 -17.811694)
(318.43799 -2.7043877e-18 -18.241073)
(323.14037 7.9683842e-17 -17.998794)
(322.44251 1.0869293e-16 -18.873121)
(323.39548 9.9881277e-17 -18.015432)
(323.93624 1.8209672e-16 -18.33323)
(323.03987 -5.3010499e-17 -17.993657)
(322.67806 -7.559162e-17 -19.081663)
(323.08106 -6.6718691e-17 -17.997007)
(323.3988 2.5415614e-18 -18.189011)
(322.83566 4.1063934e-17 -17.982415)
(322.64542 -4.9146731e-17 -19.107827)
(322.78765 1.9152911e-17 -17.974811)
(322.98247 8.5654405e-17 -18.211537)
(322.5709 -9.3574235e-18 -17.962804)
(322.49317 -6.4601209e-17 -19.006647)
(322.4426 9.9379579e-18 -17.951359)
(322.59157 5.9571143e-17 -18.303948)
(322.20878 -8.1802024e-18 -17.930045)
(322.1959 -7.4815916e-17 -18.846806)
(322.00533 6.948838e-18 -17.90086)
(322.1142 4.1291952e-17 -18.392628)
(321.72931 -2.5032735e-17 -17.873177)
(321.75618 -2.5632127e-17 -18.702396)
(321.43591 -2.4009629e-18 -17.849991)
(321.54483 4.4090016e-17 -18.45059)
(321.05802 -1.1411557e-17 -17.81882)
(321.15154 5.881238e-18 -18.585225)
(320.62079 7.9598295e-18 -17.76534)
(320.78409 -1.9514147e-17 -18.432046)
(320.08859 4.7996165e-17 -17.680328)
(320.28444 -1.3731487e-18 -18.421408)
(319.47815 4.6500379e-18 -17.521804)
(319.7329 4.1256112e-17 -18.249578)
(318.76463 -4.0280262e-18 -17.288809)
(319.05667 -4.5912781e-17 -18.073649)
(317.92847 1.0157691e-17 -16.951364)
(318.2731 1.8672783e-17 -17.761705)
(316.96221 0 -16.475181)
(317.35147 1.5864177e-17 -17.342032)
(315.87114 -9.3936779e-18 -15.823431)
(316.30222 -1.2893684e-17 -16.73947)
(314.67328 -3.9118779e-18 -14.968089)
(315.13249 -5.2911288e-17 -15.937541)
(313.40495 4.6109162e-17 -13.899272)
(313.87621 2.5753387e-17 -14.904894)
(312.11535 1.0466353e-16 -12.638247)
(312.57803 2.6781617e-17 -13.655705)
(310.85804 2.2195332e-18 -11.238187)
(311.29504 -2.4264237e-17 -12.234506)
(309.68325 -1.2455465e-16 -9.7744323)
(310.07873 -9.6537082e-17 -10.710739)
(308.63538 -5.5730227e-17 -8.3402221)
(308.97683 -2.7282261e-17 -9.1772369)
(307.72616 1.0847314e-16 -7.0067245)
(308.02478 -1.7671149e-16 -7.7433921)
(306.97236 -2.3599301e-17 -5.7756578)
(307.19918 6.041016e-18 -6.4294452)
(306.38958 -2.2423484e-16 -4.678332)
(306.54749 1.0849081e-16 -5.260692)
(305.95669 2.3048785e-18 -3.7921652)
(306.07133 -9.8027919e-18 -4.2077222)
(305.6689 -7.2530136e-17 -3.0645658)
(305.7572 2.5510501e-16 -3.3594684)
(305.49181 -1.1153333e-16 -2.3840628)
(305.49179 -8.8764307e-17 -2.809322)
(305.32108 -7.6381407e-17 -1.9491024)
(305.27536 -8.3555336e-18 -2.3997422)
(305.12028 -1.0383889e-16 -1.7049031)
(305.16194 -8.5953875e-17 -1.9643114)
(305.08347 1.6797568e-18 -1.2307673)
(305.04841 9.1135762e-18 -1.4083761)
(305.03573 -6.8999605e-18 -1.1673966)
(305.21477 2.262328e-16 -0.81259344)
(305.12356 -1.2949367e-17 -0.66584013)
(305.26202 -2.9242659e-17 -0.40512098)
(305.16904 -1.3226764e-16 -0.068952824)
(305.16769 7.1570277e-18 -0.25742692)
(305.06952 -1.8517136e-16 0.14150497)
(304.97214 9.5685764e-18 -0.26994362)
(304.94485 6.7613223e-17 0.022403954)
(304.88228 -2.6287416e-16 -0.27129349)
(304.85583 1.0921198e-16 -0.17485448)
(304.85677 -8.428323e-17 -0.21241249)
(304.8484 9.1561374e-17 -0.087243052)
(304.85784 -8.541361e-18 -0.12332064)
(304.82453 1.8815205e-16 -0.005977374)
(304.83592 6.4122282e-18 -0.031458586)
(304.81009 4.8492185e-18 0.024838112)
(215.41653 1.1082405e-16 -12.375884)
(199.97819 -1.699443e-16 -12.1687)
(244.94713 1.3408561e-16 -14.146337)
(234.84812 2.4554056e-16 -13.954874)
(267.24615 2.6441417e-18 -15.536065)
(258.3025 7.634394e-19 -15.515829)
(288.09273 -6.3460668e-17 -16.886248)
(279.40413 5.934056e-19 -16.872242)
(308.26647 -1.3615274e-16 -18.258204)
(300.16277 7.8766306e-17 -18.388461)
(320.54577 3.0218012e-17 -19.131514)
(319.46907 -1.9054619e-16 -19.585185)
(323.11129 2.0299139e-16 -19.294639)
(322.42652 1.0946256e-16 -20.207427)
(323.34376 3.0809302e-17 -19.313338)
(323.91413 1.7784249e-16 -19.610666)
(322.98481 -2.7427085e-17 -19.29157)
(322.61276 -1.5534783e-16 -20.426289)
(323.03492 2.3734427e-17 -19.296097)
(323.35819 1.2554419e-16 -19.467988)
(322.77882 -1.6163553e-17 -19.284)
(322.59337 -1.0464138e-16 -20.450106)
(322.7367 1.5622335e-17 -19.284491)
(322.94394 3.4507167e-17 -19.506568)
(322.53217 -7.0594413e-18 -19.271502)
(322.43195 -7.2803268e-17 -20.341753)
(322.40808 -1.2624907e-17 -19.254461)
(322.52579 2.9602114e-17 -19.616617)
(322.18271 -3.5730549e-17 -19.239773)
(322.13802 2.0011122e-18 -20.186833)
(321.9818 1.4797029e-17 -19.232629)
(322.07218 -8.2729371e-19 -19.735915)
(321.69279 3.6327068e-17 -19.223361)
(321.71345 -1.7538587e-17 -20.059989)
(321.3797 5.5290991e-17 -19.20152)
(321.49528 3.5135007e-17 -19.811066)
(320.98272 3.8894679e-20 -19.168834)
(321.09871 1.2393802e-17 -19.937538)
(320.53001 -3.015664e-17 -19.095544)
(320.71119 0 -19.773947)
(319.99782 -1.154771e-17 -18.984156)
(320.1991 -8.4278943e-17 -19.747058)
(319.38174 -9.0226105e-19 -18.812529)
(319.63073 1.303312e-17 -19.560987)
(318.64743 -2.9208787e-17 -18.556481)
(318.93489 -5.7597659e-17 -19.364041)
(317.78981 2.4520673e-17 -18.182623)
(318.12787 4.8252088e-17 -19.02157)
(316.79818 5.7452331e-18 -17.653599)
(317.18012 3.1719009e-17 -18.554183)
(315.68119 -5.2076186e-17 -16.929229)
(316.10316 -1.2508488e-17 -17.885288)
(314.46073 -3.0912596e-17 -15.980909)
(314.90792 7.7170558e-17 -16.995103)
(313.17711 6.5968656e-18 -14.801441)
(313.63228 1.7152223e-17 -15.854583)
(311.88297 -9.5503518e-17 -13.418279)
(312.32523 -1.3732637e-17 -14.483184)
(310.63331 -1.147493e-16 -11.892057)
(311.04608 -7.7363582e-17 -12.93375)
(309.47764 -7.1978377e-18 -10.306069)
(309.84631 -4.5073945e-17 -11.283132)
(308.45746 -1.3204187e-16 -8.7613703)
(308.77181 1.2852762e-16 -9.6321432)
(307.57743 -2.9681405e-16 -7.3315791)
(307.85241 2.5711768e-17 -8.099296)
(306.85422 1.2651205e-16 -6.0073678)
(307.05441 -1.2712162e-16 -6.6997804)
(306.29698 3.3374151e-16 -4.8545459)
(306.43713 -1.2419909e-16 -5.4501549)
(305.89468 2.129733e-16 -3.9063187)
(305.9939 0 -4.3313285)
(305.61606 2.7625862e-16 -3.1476342)
(305.70242 -1.8091801e-17 -3.4532811)
(305.44073 5.8408373e-18 -2.4523702)
(305.43066 3.3794165e-17 -2.8849512)
(305.28055 -9.2805736e-18 -2.0158754)
(305.2391 -2.8548389e-16 -2.446699)
(305.10901 1.609007e-17 -1.721291)
(305.14516 0 -1.9851174)
(305.00752 2.0530792e-16 -1.4994336)
(305.07682 3.6332014e-17 -1.3948731)
(305.06682 2.2422547e-16 -1.1232691)
(305.22977 -1.3746256e-17 -0.78582528)
(305.14009 -1.0858539e-17 -0.53555022)
(305.24436 -3.2128437e-16 -0.40178842)
(305.14797 1.4898336e-16 -0.018018498)
(305.13559 0 -0.28207176)
(305.04153 -3.2931055e-17 0.090711689)
(304.95687 1.6831831e-16 -0.30020074)
(304.93796 -4.3878888e-16 -0.01750607)
(304.88134 -2.7668206e-18 -0.2851247)
(304.85822 -2.1167305e-16 -0.17600656)
(304.86055 -2.9809693e-18 -0.21567004)
(304.84683 -9.6489726e-17 -0.084903451)
(304.85607 -8.6318184e-18 -0.12164826)
(304.8235 -1.7987987e-16 -0.0045731051)
(304.83442 -9.8318774e-17 -0.02961216)
(304.8094 -8.2509304e-17 0.025892819)
(216.34041 -6.9688441e-17 -13.319753)
(200.77626 9.047594e-18 -13.061267)
(246.06565 1.3431841e-16 -15.225475)
(235.86873 -7.2539567e-18 -14.994919)
(268.53397 -1.2259298e-18 -16.719968)
(259.49168 0 -16.672208)
(289.5783 1.334144e-16 -18.171081)
(280.75768 -1.3317311e-18 -18.116794)
(309.59593 4.6559046e-17 -19.621829)
(301.75379 1.4894344e-16 -19.767328)
(321.07572 -1.3649698e-16 -20.484195)
(320.38565 -2.5976512e-16 -20.951738)
(323.08593 7.9577507e-17 -20.618959)
(322.36735 1.1231213e-16 -21.567547)
(323.2987 2.2008031e-17 -20.635774)
(323.86245 -6.3720968e-18 -20.907866)
(322.92351 -2.7879835e-17 -20.615398)
(322.54151 8.1350562e-17 -21.796405)
(322.98324 1.8141687e-17 -20.621103)
(323.29732 -7.1630989e-17 -20.770582)
(322.74406 -6.6068008e-17 -20.612519)
(322.52782 -5.5418807e-17 -21.819852)
(322.70592 -4.3451675e-17 -20.61488)
(322.88744 4.5362218e-17 -20.829431)
(322.49138 -4.5094602e-17 -20.606339)
(322.35991 -7.8456804e-17 -21.709988)
(322.36731 4.6096111e-17 -20.606666)
(322.47 3.1251264e-17 -20.969859)
(322.13146 3.6346768e-17 -20.606014)
(322.08096 6.3337286e-17 -21.565336)
(321.91688 -3.1097566e-17 -20.601712)
(322.01311 -4.2724361e-17 -21.110786)
(321.61454 -2.2967113e-17 -20.596205)
(321.65485 9.3754386e-18 -21.434983)
(321.28737 -4.9766302e-18 -20.56662)
(321.41886 5.7540967e-19 -21.179954)
(320.88654 1.3378341e-17 -20.514436)
(321.00976 1.2178498e-17 -21.297994)
(320.4362 -4.599214e-17 -20.434543)
(320.61268 -2.083101e-17 -21.129866)
(319.89301 -6.8391301e-17 -20.313417)
(320.08795 -3.2862874e-17 -21.092268)
(319.25544 -3.6528093e-17 -20.124384)
(319.50053 -2.8309679e-17 -20.894162)
(318.49951 9.2522298e-18 -19.842384)
(318.78319 2.470384e-17 -20.673433)
(317.61534 5.6765166e-17 -19.428135)
(317.94988 -6.0662903e-17 -20.296886)
(316.59548 1.7720638e-17 -18.840812)
(316.97337 1.6053179e-17 -19.776736)
(315.45081 1.0650332e-16 -18.037392)
(315.86656 -1.2073159e-16 -19.035052)
(314.20721 1.2997543e-16 -16.989078)
(314.64477 2.9300693e-17 -18.049299)
(312.90943 0 -15.692357)
(313.35034 0 -16.793653)
(311.61348 1.0229515e-17 -14.181815)
(312.03668 -1.4533342e-17 -15.294043)
(310.37533 -1.1735889e-17 -12.52628)
(310.765 3.4501467e-17 -13.612447)
(309.24337 7.2031295e-17 -10.817229)
(309.58626 -3.6133804e-17 -11.833319)
(308.25558 2.9503535e-16 -9.1635229)
(308.54406 -2.5836796e-18 -10.065682)
(307.40839 2.0939667e-16 -7.6396524)
(307.66139 1.7679039e-16 -8.4372251)
(306.71812 -3.76083e-16 -6.2323313)
(306.89452 -2.5334844e-16 -6.9535842)
(306.18957 -4.6851608e-16 -5.0296476)
(306.31836 -6.4853915e-18 -5.6253713)
(305.82242 -2.2770522e-16 -4.0124435)
(305.90702 3.2381476e-16 -4.4460758)
(305.55933 -2.6491557e-16 -3.2208188)
(305.6397 -2.5545792e-16 -3.5426671)
(305.38661 -2.1962015e-16 -2.523328)
(305.36869 3.8614256e-16 -2.9574103)
(305.24399 -3.0797535e-16 -2.0695634)
(305.20185 -2.7616236e-16 -2.489784)
(305.11961 1.6112409e-17 -1.7337951)
(305.12591 0 -1.996631)
(305.00087 -1.8499806e-16 -1.6011411)
(305.11628 1.8167634e-17 -1.3785672)
(305.04808 -5.2825577e-16 -1.1572463)
(305.23992 -2.2634354e-16 -0.76549282)
(305.17312 -3.4716167e-16 -0.38486178)
(305.21396 -1.006878e-17 -0.40354193)
(305.13438 0 -0.024700544)
(305.10485 -4.4768592e-16 -0.30425263)
(305.02379 2.1846996e-16 0.038339906)
(304.94342 3.2256185e-16 -0.32792741)
(304.92972 4.3579143e-16 -0.052338385)
(304.87915 1.8138423e-17 -0.29793146)
(304.85813 2.0244003e-16 -0.17706221)
(304.86186 1.7727128e-16 -0.21845769)
(304.84506 0 -0.082783825)
(304.85412 0 -0.11990061)
(304.8226 -1.097253e-18 -0.0030958494)
(304.83298 2.0299075e-16 -0.027687727)
(304.80874 -1.5578393e-16 0.026986424)
(217.24009 7.1228077e-17 -14.288117)
(201.57891 1.7028479e-16 -13.976266)
(247.1587 -1.3898369e-16 -16.332991)
(236.88419 -1.2495374e-16 -16.059436)
(269.79134 0 -17.934937)
(260.67435 0 -17.857834)
(291.03586 2.1647578e-18 -19.489797)
(282.0935 -1.4181144e-18 -19.389848)
(310.85567 -1.1846251e-16 -21.014336)
(303.32894 2.3497486e-18 -21.185261)
(321.51332 -4.5725522e-17 -21.855958)
(321.16948 3.526332e-18 -22.338693)
(323.01992 3.7608497e-17 -21.961144)
(322.26157 -2.7017375e-18 -22.957582)
(323.2452 4.4749404e-17 -21.979868)
(323.78802 -8.8724754e-17 -22.233847)
(322.88091 5.0583748e-17 -21.961646)
(322.45663 7.5556375e-17 -23.202964)
(322.94625 -1.4476415e-16 -21.977248)
(323.24712 -6.4978587e-17 -22.107277)
(322.71138 4.5510102e-17 -21.973598)
(322.45366 -6.9824234e-18 -23.223281)
(322.6564 2.0920612e-17 -21.985578)
(322.83585 4.9627975e-17 -22.186232)
(322.42092 -1.2567573e-17 -21.984282)
(322.28419 -7.519374e-17 -23.109043)
(322.28885 4.5565653e-17 -21.989283)
(322.40103 1.458166e-17 -22.349464)
(322.04315 -5.4741958e-18 -21.99358)
(322.01072 2.6029967e-17 -22.958847)
(321.81756 -7.3236742e-18 -21.984889)
(321.92794 -2.1342764e-17 -22.494303)
(321.51076 3.3121818e-17 -21.966441)
(321.56085 3.6197497e-17 -22.817165)
(321.18685 1.6414722e-17 -21.93277)
(321.31647 -3.12267e-17 -22.560862)
(320.78309 -1.8580576e-17 -21.881467)
(320.89987 -1.2664151e-17 -22.675312)
(320.31768 -6.9621703e-18 -21.795837)
(320.48937 -2.0401976e-17 -22.506991)
(319.7585 6.0288747e-18 -21.663226)
(319.94959 5.2398157e-17 -22.458572)
(319.10124 2.7209244e-17 -21.456261)
(319.34147 6.6960792e-19 -22.247307)
(318.32001 -3.6524914e-17 -21.144823)
(318.59999 8.3509669e-17 -22.000402)
(317.4073 -1.0737732e-16 -20.685829)
(317.73754 -9.7238346e-17 -21.585529)
(316.35691 -1.0781888e-16 -20.034273)
(316.7296 1.6906315e-17 -21.006922)
(315.18298 -2.1030757e-16 -19.144704)
(315.59099 8.6144917e-17 -20.185267)
(313.91612 -9.5946549e-17 -17.988888)
(314.34199 -8.6476553e-17 -19.095979)
(312.60574 -1.2961761e-17 -16.568111)
(313.02985 -1.4571792e-16 -17.717599)
(311.31105 4.7522338e-18 -14.925098)
(311.71242 -1.4334953e-17 -16.083819)
(310.08857 1.7239603e-17 -13.137521)
(310.45229 2.288059e-17 -14.266466)
(308.98508 -1.1323978e-16 -11.305165)
(309.29943 -2.779783e-17 -12.357698)
(308.03439 -1.3771411e-16 -9.5444041)
(308.29463 -8.5396434e-17 -10.475066)
(307.22369 -2.3751397e-16 -7.9295578)
(307.45278 -2.2617515e-17 -8.7548183)
(306.57031 8.7693096e-17 -6.4420487)
(306.72036 3.0688913e-17 -7.1888367)
(306.07606 7.4511261e-16 -5.1869618)
(306.19024 2.0911978e-16 -5.7847923)
(305.74293 3.5869609e-16 -4.109673)
(305.81257 3.1174277e-16 -4.5518419)
(305.50651 3.2211607e-16 -3.2629736)
(305.56667 0 -3.625798)
(305.33571 4.0379381e-16 -2.5819913)
(305.30736 -3.2433118e-18 -3.0251079)
(305.20463 -3.2318216e-20 -2.1238589)
(305.16476 5.0772705e-16 -2.529303)
(305.11312 0 -1.7390604)
(305.10419 -3.741569e-16 -1.9995316)
(305.02279 0 -1.567035)
(305.14768 3.1024316e-16 -1.3593031)
(305.06364 2.6707723e-16 -1.0901243)
(305.24322 -1.3334298e-17 -0.7504324)
(305.15333 -6.0692336e-17 -0.36041692)
(305.19099 3.018019e-16 -0.4114073)
(305.09978 -2.1319211e-16 -0.064688799)
(305.0717 4.755536e-18 -0.32709581)
(305.00429 1.5306182e-16 -0.0095758607)
(304.92936 2.7326119e-18 -0.35293761)
(304.92201 -2.5879525e-16 -0.080923526)
(304.87579 -2.8556748e-18 -0.30871685)
(304.85729 -6.2745625e-18 -0.17794033)
(304.86172 -3.5647257e-16 -0.22066786)
(304.8432 1.8188445e-16 -0.08058155)
(304.85197 -2.6336476e-16 -0.11796816)
(304.82161 8.7508422e-17 -0.0015634539)
(304.83157 -1.90056e-16 -0.025693417)
(304.80809 1.4211594e-16 0.028116886)
(218.14674 9.1117905e-19 -15.27757)
(202.35808 -3.6147805e-16 -14.909344)
(248.26429 1.0897801e-18 -17.465732)
(237.89178 2.6575228e-16 -17.145313)
(271.06522 -1.2749353e-18 -19.179515)
(261.86219 -1.6889644e-18 -19.071833)
(292.51251 -1.528966e-18 -20.844149)
(283.43807 2.9569281e-18 -20.692437)
(312.0869 1.2141406e-16 -22.443284)
(304.9254 -2.7050801e-21 -22.645881)
(321.90531 4.6035284e-17 -23.262824)
(321.86697 1.2763441e-16 -23.749781)
(322.97362 -1.1939812e-16 -23.347575)
(322.1605 -1.0820045e-16 -24.382177)
(323.20207 -7.1469226e-17 -23.373091)
(323.71863 0 -23.589497)
(322.83735 -2.634222e-17 -23.356981)
(322.36019 -1.5854574e-16 -24.642389)
(322.89797 6.5106017e-17 -23.371534)
(323.16852 1.3602491e-16 -23.473551)
(322.63468 -7.4365158e-18 -23.365826)
(322.35622 2.7582513e-19 -24.653276)
(322.57162 -3.444573e-17 -23.379448)
(322.76651 0 -23.564509)
(322.31841 -5.5819869e-17 -23.38014)
(322.19358 -7.6468393e-17 -24.519875)
(322.17926 -5.4094985e-18 -23.382374)
(322.30582 3.2934088e-17 -23.737618)
(321.93183 1.4312234e-17 -23.378171)
(321.90527 -1.4127749e-17 -24.359862)
(321.70991 1.6596901e-17 -23.369803)
(321.81994 4.5016456e-17 -23.890702)
(321.40315 -2.1279782e-17 -23.354973)
(321.44784 1.8092586e-17 -24.2156)
(321.06941 -6.1215054e-17 -23.322644)
(321.1929 -1.3790686e-17 -23.963212)
(320.65367 -1.3797333e-17 -23.26919)
(320.76615 -1.2546861e-17 -24.074013)
(320.17476 3.1663216e-17 -23.177841)
(320.34025 -4.3474516e-17 -23.905061)
(319.59698 5.1527887e-17 -23.03384)
(319.78344 1.6533943e-17 -23.845317)
(318.91559 4.878356e-17 -22.806349)
(319.15185 8.9261663e-17 -23.619385)
(318.10661 3.9645967e-17 -22.461943)
(318.38343 -2.5857755e-17 -23.343089)
(317.16217 1.4758771e-17 -21.953031)
(317.4889 8.170691e-17 -22.885125)
(316.07887 2.0142318e-16 -21.230516)
(316.44685 -5.8329482e-19 -22.241576)
(314.87447 2.2369262e-16 -20.246956)
(315.2747 9.0471537e-17 -21.331965)
(313.58473 -1.300418e-16 -18.975583)
(313.99829 2.2725158e-17 -20.130531)
(312.26397 -1.5943718e-16 -17.423738)
(312.67015 1.4301851e-16 -18.621516)
(310.97433 0 -15.643335)
(311.35244 -2.5401763e-16 -16.847735)
(309.77224 -1.6683367e-17 -13.721481)
(310.10858 1.1868702e-17 -14.891415)
(308.70241 5.5506478e-18 -11.766325)
(308.98691 2.8456078e-16 -12.852498)
(307.79349 2.2152348e-17 -9.9006561)
(308.02466 2.9043494e-17 -10.857601)
(307.02276 2.3785221e-16 -8.1993529)
(307.22794 -1.1289243e-17 -9.0494542)
(306.4112 1.3236273e-16 -6.6322849)
(306.53307 5.6457437e-16 -7.4034563)
(305.95854 -2.323322e-16 -5.3161044)
(306.05262 2.3390821e-16 -5.9269775)
(305.65504 -1.1127757e-17 -4.1973368)
(305.71194 -3.4833915e-16 -4.648266)
(305.44348 -3.2356328e-16 -3.3123968)
(305.48545 7.686836e-18 -3.701416)
(305.28257 4.3729743e-17 -2.642703)
(305.24591 -3.7534379e-16 -3.0860347)
(305.16306 2.3176034e-16 -2.1725783)
(305.12675 -2.8335606e-16 -2.5648117)
(305.10961 -1.4187626e-16 -1.7361231)
(305.07848 4.1376929e-16 -1.9949058)
(305.05259 3.2960782e-16 -1.5163662)
(305.17146 1.7688533e-17 -1.3357963)
(305.07609 -1.4865899e-17 -1.0316759)
(305.24196 -1.3336111e-17 -0.73937566)
(305.1346 4.0190045e-16 -0.3714679)
(305.16953 -9.6997823e-18 -0.42350069)
(305.074 2.2141238e-16 -0.10851632)
(305.04378 4.7594265e-16 -0.35100154)
(304.98673 -1.5340887e-16 -0.053038481)
(304.91538 -3.4306342e-16 -0.37521365)
(304.91438 -5.9682486e-17 -0.10504312)
(304.87147 2.3633507e-16 -0.31845567)
(304.85579 -6.2698734e-16 -0.17846924)
(304.86052 -7.8492197e-19 -0.2222184)
(304.84131 -6.4895869e-16 -0.078178302)
(304.84968 -6.3539415e-18 -0.11574316)
(304.82063 -1.7337783e-16 3.1277357e-05)
(304.83021 1.8052902e-16 -0.023622676)
(304.80746 1.5825676e-16 0.029286127)
(219.0326 -1.4996508e-16 -16.286132)
(203.12518 1.2022828e-17 -15.86311)
(249.36042 2.8380235e-16 -18.623024)
(238.90986 -1.3370782e-17 -18.256756)
(272.33298 2.0828595e-18 -20.453368)
(263.07453 2.2053799e-16 -20.318368)
(293.97662 4.6786579e-18 -22.23288)
(284.81615 -1.6667259e-18 -22.028698)
(313.24304 -3.8636536e-18 -23.900956)
(306.54177 -1.6611896e-16 -24.146231)
(322.18336 -4.6326603e-18 -24.687838)
(322.47369 1.4455074e-16 -25.173082)
(322.83603 -1.6948084e-22 -24.748449)
(322.05438 -1.1839258e-16 -25.824167)
(323.0702 -7.267394e-17 -24.77813)
(323.64075 1.9701e-16 -24.952453)
(322.69079 -2.3015785e-17 -24.762215)
(322.25042 -1.5596988e-16 -26.091409)
(322.74529 8.3337317e-17 -24.777012)
(323.06866 1.350801e-18 -24.848442)
(322.5047 7.5624574e-18 -24.774076)
(322.23929 1.2089494e-16 -26.093077)
(322.4506 -3.5025884e-17 -24.774765)
(322.6387 -5.9334316e-17 -24.954468)
(322.20163 1.5655286e-18 -24.776624)
(322.08095 -3.8115842e-17 -25.945189)
(322.06669 2.8180526e-17 -24.782655)
(322.19267 8.059182e-17 -25.142359)
(321.81829 1.114018e-17 -24.78458)
(321.78504 -5.3939323e-17 -25.778867)
(321.58872 4.8653903e-17 -24.779274)
(321.69214 2.1132181e-17 -25.309446)
(321.27299 2.8030988e-17 -24.765711)
(321.31278 -1.9096132e-17 -25.635553)
(320.92925 3.3744683e-17 -24.733566)
(321.04601 6.2396654e-17 -25.3874)
(320.50102 -3.9059196e-17 -24.67842)
(320.60817 -2.6514552e-17 -25.493874)
(320.00427 -6.3331347e-17 -24.580762)
(320.1645 1.4080942e-18 -25.324263)
(319.40529 4.7363469e-17 -24.423584)
(319.58814 9.2119769e-17 -25.251801)
(318.69766 2.592259e-17 -24.173184)
(318.93035 1.2637547e-17 -25.008955)
(317.85778 6.0676391e-18 -23.791589)
(318.1319 -6.0651121e-17 -24.699571)
(316.87889 7.3908941e-17 -23.226913)
(317.20224 -3.1328735e-18 -24.192991)
(315.76051 -1.1792194e-16 -22.425945)
(316.12349 1.2118328e-16 -23.477194)
(314.52474 -1.0109312e-16 -21.339835)
(314.91638 -1.0945397e-16 -22.470831)