/*--------------------------------*- C++ -*----------------------------------*\
  =========                 |
  \\      /  F ield         | OpenFOAM: The Open Source CFD Toolbox
   \\    /   O peration     | Website:  https://openfoam.org
    \\  /    A nd           | Version:  8
     \\/     M anipulation  |
\*---------------------------------------------------------------------------*/
FoamFile
{
    version     2.0;
    format      ascii;
    class       volScalarField;
    location    "0.0399893";
    object      T;
}
// * * * * * * * * * * * * * * * * * * * * * * * * * * * * * * * * * * * * * //

dimensions      [0 0 0 1 0 0 0];

internalField   nonuniform List<scalar> 
20000
(
295.57352
295.31821
294.61557
293.13686
290.25409
284.61307
281.68919
281.39122
281.8686
281.87199
282.24506
282.36635
282.70431
282.9258
283.28267
283.60384
284.02024
284.44855
284.95117
285.49388
286.12451
286.83458
287.62627
288.48694
289.40979
290.38689
291.39838
292.41622
293.40814
294.34467
295.19855
295.94623
296.57791
297.09329
297.49447
297.77979
297.92888
298.03674
298.1792
298.26965
298.29329
298.20914
297.91439
297.77973
297.86368
298.04649
298.08491
298.07573
298.03955
298.01706
295.49449
295.20173
294.46094
292.90446
289.89531
284.04329
281.52824
281.24706
281.72399
281.72189
282.09691
282.21883
282.55994
282.78576
283.14658
283.47344
283.89432
284.33153
284.84932
285.42864
286.0893
286.81178
287.61174
288.48233
289.42401
290.42202
291.4524
292.48468
293.48511
294.42306
295.27194
296.00954
296.62816
297.13207
297.52542
297.78618
297.92808
298.05308
298.19616
298.26816
298.29393
298.0978
297.8831
297.80901
297.94501
298.0472
298.08284
298.07452
298.04022
298.01714
295.33415
295.01033
294.21231
292.55263
289.36598
283.36329
281.32887
281.09179
281.58255
281.58186
281.96444
282.09082
282.43581
282.66695
283.03168
283.36528
283.79383
284.24666
284.78657
285.38439
286.06006
286.80172
287.61417
288.50742
289.47141
290.48998
291.53779
292.58204
293.58753
294.52316
295.36339
296.08768
296.6912
297.18246
297.56032
297.80396
297.93259
298.07427
298.20805
298.26867
298.28639
298.06421
297.88152
297.80725
297.95274
298.05318
298.08376
298.07467
298.03994
298.01701
295.2504
294.89445
294.04573
292.28469
288.90275
282.8394
281.19876
280.98352
281.48796
281.47644
281.86176
281.99207
282.33432
282.57057
282.94028
283.28448
283.72834
284.20338
284.75944
285.37004
286.05481
286.80572
287.64177
288.55637
289.54289
290.58248
291.64729
292.70234
293.711
294.64191
295.47075
296.17875
296.76455
297.24166
297.59899
297.82393
297.94072
298.09682
298.2214
298.27277
298.26154
298.01569
297.87753
297.8265
297.97474
298.05785
298.08474
298.07458
298.03999
298.01696
295.15515
294.76823
293.86783
292.00067
288.39489
282.33588
281.08758
280.88763
281.40081
281.39574
281.77541
281.90237
282.25915
282.50302
282.88361
283.24454
283.70054
284.18537
284.74925
285.36702
286.06356
286.83849
287.69598
288.63456
289.64427
290.70461
291.78532
292.84914
293.85814
294.78115
295.59529
296.28379
296.84936
297.31064
297.64259
297.84988
297.95503
298.11901
298.23385
298.28048
298.21515
297.98762
297.87515
297.8351
297.98495
298.06336
298.08728
298.07465
298.03991
298.01684
295.09227
294.66641
293.71597
291.74415
287.88556
281.90621
281.01094
280.82335
281.32927
281.3322
281.71222
281.85174
282.21671
282.47132
282.85922
283.22811
283.68995
284.18153
284.75182
285.38688
286.10265
286.89751
287.77863
288.74117
289.77417
290.85487
291.95021
293.02065
294.02714
294.93905
295.7352
296.40105
296.94403
297.38762
297.69072
297.8794
297.97599
298.1402
298.24498
298.28657
298.17373
297.95895
297.87021
297.86365
297.99865
298.06915
298.09037
298.07472
298.03987
298.01673
295.02517
294.56962
293.57092
291.49626
287.35609
281.52845
280.95394
280.767
281.285
281.28075
281.68488
281.82573
282.19842
282.45906
282.8507
283.22532
283.69142
284.19574
284.7814
285.43301
286.16756
286.98546
287.89031
288.87764
289.93404
291.03438
292.14272
293.21721
294.21797
295.11539
295.89009
296.53015
297.04879
297.47206
297.74411
297.91246
298.00384
298.16079
298.25431
298.29144
298.13295
297.93849
297.85871
297.88113
298.01082
298.07528
298.09431
298.0748
298.03981
298.01659
294.98764
294.49371
293.44453
291.27018
286.82269
281.21933
280.9472
280.7598
281.27497
281.28408
281.67862
281.82044
282.19372
282.45921
282.85441
283.24003
283.71735
284.23579
284.83556
285.50609
286.26129
287.10221
288.03183
289.04424
290.12387
291.24288
292.36225
293.43792
294.42958
295.30897
296.0586
296.66983
297.1634
297.56204
297.80184
297.9487
298.03764
298.18204
298.26222
298.29546
298.10048
297.92176
297.85007
297.90439
298.02268
298.08144
298.09864
298.07487
298.03976
298.01645
294.95587
294.423
293.32206
291.05158
286.2774
280.95508
280.9407
280.74593
281.27582
281.27769
281.68425
281.83607
282.20413
282.47968
282.88291
283.27984
283.7672
284.30068
284.91656
285.60658
286.38322
287.24851
288.20352
289.24138
290.34389
291.48029
292.60835
293.68202
294.66099
295.51869
296.23951
296.81902
297.28785
297.65601
297.86321
297.98807
298.07638
298.20529
298.27004
298.29951
298.07487
297.90987
297.84589
297.92256
298.03338
298.0876
298.1034
298.07493
298.03967
298.01629
294.9319
294.35489
293.19722
290.83389
285.7281
280.74938
280.95827
280.7489
281.28523
281.28336
281.70888
281.86387
282.24032
282.52442
282.93427
283.34326
283.84211
284.39144
285.02408
285.73488
286.53421
287.42465
288.40581
289.46927
290.59407
291.74622
292.88028
293.94847
294.91099
295.74317
296.43139
296.97672
297.42067
297.75294
297.92755
298.03021
298.1181
298.23145
298.28083
298.29876
298.05579
297.90221
297.84325
297.94005
298.04358
298.09379
298.10844
298.07494
298.03954
298.01613
294.91884
294.29745
293.07734
290.62265
285.19316
280.60585
280.99168
280.78654
281.31743
281.33099
281.75225
281.91768
282.29797
282.5916
283.0091
283.43088
283.94182
284.50801
285.15869
285.89124
286.71433
287.63088
288.63877
289.72783
290.87406
292.03997
293.17697
294.23595
295.17812
295.98079
296.63278
297.14251
297.55953
297.85246
297.99444
298.07486
298.16045
298.25945
298.29883
298.28781
298.04019
297.89852
297.84093
297.95693
298.05375
298.09983
298.11337
298.07491
298.03938
298.01596
294.92311
294.25219
292.96101
290.40946
284.68104
280.52205
281.04426
280.84316
281.37723
281.39336
281.81937
281.99139
282.37719
282.68126
283.10699
283.54253
284.06672
284.65076
285.32059
286.07602
286.92397
287.86744
288.90254
290.017
291.18347
292.36078
293.49732
294.54314
295.46081
296.22973
296.84228
297.31658
297.7019
297.95364
298.06361
298.12212
298.20218
298.28814
298.32182
298.25586
298.02348
297.8967
297.84285
297.97438
298.06472
298.10564
298.11788
298.07472
298.03918
298.01578
294.94239
294.21863
292.84617
290.18452
284.20239
280.48903
281.11836
280.92013
281.45801
281.48506
281.90664
282.08697
282.47815
282.7936
283.22842
283.67867
284.21705
284.81994
285.51002
286.28932
287.16314
288.13429
289.19694
290.33634
291.52153
292.70748
293.83984
294.86832
295.75713
296.48799
297.05863
297.49896
297.84555
298.05565
298.13486
298.17213
298.24301
298.31453
298.34268
298.22328
298.00466
297.8964
297.8519
297.99241
298.07753
298.11161
298.12146
298.07438
298.03894
298.0156
294.98311
294.20207
292.73771
289.94466
283.77208
280.50408
281.2131
281.01297
281.56032
281.59016
282.01479
282.20399
282.60138
282.92912
283.3738
283.83956
284.39308
285.01571
285.72713
286.53132
287.432
288.43149
289.52186
290.68548
291.88747
293.07894
294.20308
295.20972
296.06499
296.75371
297.28106
297.68778
297.98928
298.15763
298.20794
298.22499
298.28344
298.33737
298.35807
298.18756
297.98554
297.89637
297.86708
298.01184
298.0921
298.11943
298.12362
298.07392
298.03866
298.01542
295.03536
294.19642
292.6313
289.6775
283.39478
280.56286
281.32785
281.1268
281.68366
281.71474
282.14463
282.34378
282.7476
283.08831
283.54337
284.02532
284.59484
285.23809
285.97191
286.80194
287.73041
288.7588
289.87686
291.06365
292.28017
293.47361
294.58515
295.56515
296.38205
297.02528
297.50927
297.87995
298.13192
298.25915
298.2821
298.2801
298.32373
298.35969
298.36784
298.15627
297.96893
297.89447
297.88803
298.03135
298.10679
298.1303
298.12479
298.07337
298.03835
298.01524
295.10368
294.20897
292.53601
289.38334
283.08228
280.66373
281.46498
281.26261
281.82796
281.86268
282.29699
282.50651
282.91686
283.27099
283.73698
284.23579
284.82223
285.48698
286.24431
287.10116
288.05831
289.11608
290.26159
291.47018
292.69851
293.88999
294.98416
295.9323
296.70613
297.30175
297.74325
298.07162
298.27161
298.36033
298.35603
298.33637
298.36412
298.38723
298.37406
298.13194
297.95617
297.89009
297.91147
298.05008
298.12112
298.14282
298.1254
298.07272
298.03801
298.01505
295.19179
294.2428
292.45854
289.06128
282.84623
280.77875
281.62341
281.42127
281.98989
282.03256
282.47113
282.69151
283.10856
283.47672
283.9543
284.47074
285.07507
285.76225
286.54417
287.42882
288.41548
289.50294
290.67539
291.90403
293.14102
294.32618
295.39774
296.30857
297.03531
297.58258
297.98158
298.25909
298.40682
298.46171
298.42812
298.39253
298.40527
298.42199
298.37731
298.11517
297.94823
297.88703
297.93659
298.068
298.13481
298.15509
298.12569
298.072
298.03762
298.01485
295.29442
294.2919
292.39562
288.70584
282.68088
280.9372
281.80096
281.59988
282.17309
282.22316
282.66597
282.89799
283.32218
283.70509
284.19507
284.7299
285.35318
286.06378
286.87145
287.78488
288.80182
289.91912
291.1177
292.36423
293.60627
294.78022
295.82345
296.69159
297.36853
297.86745
298.21971
298.44054
298.53848
298.56276
298.49766
298.44792
298.44629
298.45954
298.37425
298.10325
297.94416
297.88566
297.96157
298.08502
298.14728
298.16666
298.12541
298.07118
298.03718
298.01464
295.41358
294.35937
292.35039
288.31987
282.58157
281.14471
281.99482
281.79779
282.37501
282.43386
282.88109
283.12557
283.55738
283.95581
284.45902
285.0131
285.65642
286.39144
287.22602
288.16916
289.21704
290.3641
291.58767
292.84947
294.09244
295.24969
296.25851
297.07936
297.70526
298.15486
298.45257
298.61487
298.66937
298.66046
298.56535
298.50221
298.48506
298.49386
298.3649
298.09255
297.94215
297.88394
297.98788
298.1016
298.15788
298.17617
298.12424
298.07023
298.03669
298.01441
295.54624
294.43995
292.31903
287.90727
282.54598
281.33483
282.20776
282.01494
282.59619
282.66457
283.11629
283.37403
283.81397
284.22864
284.746
285.32016
285.98468
286.7452
287.60786
288.58165
289.66099
290.83751
292.08452
293.35851
294.59764
295.73212
296.70047
297.4708
298.04512
298.4406
298.67691
298.78272
298.80042
298.75383
298.63141
298.55436
298.52145
298.51854
298.34702
298.08164
297.94184
297.88828
298.01527
298.11849
298.16699
298.18283
298.12266
298.06915
298.03615
298.01416
295.69382
294.53355
292.29939
287.47862
282.57892
281.56012
282.43881
282.25124
282.83622
282.91506
283.37135
283.64312
284.09173
284.52338
285.05582
285.651
286.33791
287.12501
288.0169
289.02218
290.13332
291.33867
292.60715
293.88964
295.1195
296.22465
297.14714
297.86537
298.38592
298.71891
298.89194
298.94753
298.92823
298.84303
298.69612
298.60444
298.55713
298.53336
298.32205
298.07128
297.94677
297.90065
298.04283
298.13675
298.17605
298.18697
298.12082
298.06799
298.03557
298.0139
295.85854
294.64059
292.28724
287.03863
282.67341
281.80062
282.68788
282.50635
283.09487
283.18505
283.646
283.93258
284.39048
284.83988
285.38845
286.00557
286.71613
287.53094
288.45319
289.49069
290.63377
291.86702
293.15453
294.44119
295.65558
296.72472
297.59735
298.26243
298.7222
298.98677
299.09859
299.11056
299.05064
298.92758
298.75835
298.65294
298.59387
298.54068
298.29229
298.06182
297.9577
297.92155
298.0699
298.15699
298.18724
298.18934
298.11877
298.06674
298.03495
298.01363
296.03964
294.75884
292.2769
286.60762
282.82509
282.06206
282.95465
282.78009
283.3718
283.47422
283.94002
284.24222
284.71015
285.17807
285.74388
286.38395
287.11941
287.96302
288.91668
289.987
291.1619
292.42174
293.72525
295.01093
296.20302
297.22991
298.05041
298.659
299.04864
299.24288
299.30066
299.26827
299.16726
299.00727
298.81793
298.70038
298.63214
298.54381
298.2627
298.05336
297.96987
297.94671
298.09694
298.17792
298.20374
298.19045
298.11656
298.06542
298.0343
298.01335
296.23835
294.89105
292.26504
286.19944
283.02991
282.34103
283.23837
283.07182
283.66661
283.78242
284.25332
284.57204
285.05073
285.53803
286.1222
286.78621
287.54783
288.42135
289.40741
290.51103
291.71741
293.00212
294.31791
295.5966
296.75916
297.73869
298.50566
299.04898
299.36221
299.48933
299.49782
299.41923
299.27745
299.08223
298.87483
298.74645
298.67116
298.54017
298.23795
298.04692
297.97771
297.97724
298.12347
298.19851
298.22181
298.19104
298.11421
298.06404
298.03361
298.01307
296.44855
295.03184
292.23962
285.82529
283.28098
282.6374
283.53917
283.38194
283.97961
284.1098
284.58604
284.92204
285.41233
285.91982
286.52352
287.21248
288.00151
288.90599
289.92534
291.06258
292.29977
293.60707
294.93057
296.19542
297.32139
298.25003
298.95991
299.42697
299.66136
299.72953
299.68706
299.56279
299.38099
299.1528
298.92926
298.79002
298.7083
298.52545
298.21872
298.04346
297.98268
298.01241
298.14815
298.21658
298.23796
298.18943
298.11175
298.06258
298.03291
298.01278
296.67454
295.19088
292.20244
285.51701
283.57806
282.95228
283.85784
283.71054
284.3108
284.45621
284.93814
285.29223
285.79502
286.32352
286.94793
287.66284
288.48056
289.41708
290.47058
291.64158
292.90858
294.23551
295.5612
296.80477
297.88785
298.76335
299.40674
299.78969
299.9489
299.96202
299.86729
299.69835
299.47763
299.21922
298.98151
298.83065
298.73769
298.50483
298.20196
298.04167
297.98637
298.04804
298.17031
298.23052
298.24939
298.18597
298.10905
298.06106
298.03219
298.01249
296.90693
295.36127
292.14072
285.27312
283.89002
283.2836
284.19278
284.05702
284.65981
284.82161
285.30968
285.68266
286.1989
286.74921
287.39551
288.13744
288.98514
289.9548
291.04316
292.24782
293.54307
294.88582
296.20719
297.42185
298.45705
299.27621
299.83994
300.13509
300.22808
300.18401
300.03791
299.82554
299.5672
299.28114
299.03121
298.86983
298.75215
298.48056
298.1875
298.04181
297.9908
298.08385
298.19054
298.24085
298.2575
298.18177
298.10622
298.05953
298.03147
298.0122
297.1432
295.54327
292.0522
285.08589
284.22504
283.63307
284.54507
284.42203
285.02703
285.20613
285.70073
286.09336
286.62398
287.19689
287.86634
288.63645
289.51554
290.51943
291.64327
292.88116
294.20252
295.55632
296.866
298.04442
299.02821
299.78214
300.256
300.46597
300.49724
300.39441
300.19844
299.94401
299.64962
299.33822
299.07821
298.90996
298.76019
298.45451
298.18011
298.04729
298.00363
298.11861
298.21037
298.2497
298.26255
298.17727
298.10336
298.058
298.03075
298.01192
297.38498
295.74246
291.94223
284.96388
284.58313
284.00026
284.91432
284.80497
285.4121
285.60954
286.11121
286.52419
287.07021
287.66659
288.36063
289.16027
290.07216
291.11128
292.27095
293.54121
294.88574
296.24473
297.53472
298.6704
299.59956
300.27454
300.65193
300.7857
300.75351
300.5927
300.34857
300.05361
299.72491
299.39041
299.12211
298.95058
298.76364
298.42745
298.17637
298.0605
298.02643
298.15083
298.23179
298.26058
298.2656
298.17259
298.10049
298.05648
298.03004
298.01163
297.62388
295.94794
291.80204
284.91165
284.95796
284.38354
285.29972
285.20572
285.815
286.03179
286.54103
286.97506
287.53763
288.1586
288.87886
289.70946
290.65555
291.73077
292.92635
294.22763
295.59145
296.94869
298.21093
299.29846
300.16614
300.74847
301.02944
301.09363
300.99546
300.77846
300.48803
300.1542
299.79324
299.43844
299.16209
298.98576
298.75859
298.40189
298.17499
298.08016
298.05467
298.18073
298.25383
298.27749
298.26702
298.16787
298.09764
298.05497
298.02933
298.01135
297.85566
296.16421
291.64198
284.93451
285.35312
284.78452
285.70224
285.62462
286.23572
286.47261
286.98998
287.446
288.02662
288.67357
289.42176
290.28477
291.26629
292.37824
293.60943
294.93963
296.31773
297.66533
298.89219
299.92728
300.72065
301.20008
301.39227
301.38646
301.22262
300.95146
300.61675
300.24579
299.85472
299.48275
299.19863
299.00487
298.739
298.38066
298.17574
298.10116
298.08571
298.20925
298.27592
298.29707
298.26677
298.16308
298.09481
298.05347
298.02863
298.01108
298.08134
296.38889
291.46875
285.03781
285.76464
285.20218
286.12094
286.06064
286.67359
286.93168
287.45838
287.93765
288.53815
289.21245
289.99025
290.88691
291.90495
293.05406
294.32015
295.67634
297.06252
298.39211
299.57666
300.55422
301.25643
301.62878
301.74185
301.66207
301.43463
301.11161
300.73471
300.32845
299.90949
299.52327
299.23462
299.01447
298.70992
298.36144
298.17877
298.1174
298.12017
298.23592
298.29585
298.315
298.26211
298.1583
298.09195
298.05199
298.02795
298.01081
298.30177
296.61546
291.28925
285.22052
286.1907
285.63552
286.555
286.51371
287.12897
287.41001
287.94752
288.4514
289.07341
289.7763
290.58513
291.51664
292.57206
293.75848
295.05815
296.43628
297.82316
299.12626
300.26247
301.17174
301.76911
302.03843
302.07434
301.9201
301.63128
301.25894
300.84208
300.40235
299.95766
299.56011
299.2709
299.0192
298.67399
298.34391
298.18281
298.13183
298.15648
298.25965
298.31072
298.32734
298.25532
298.15327
298.0891
298.05054
298.02729
298.01054
298.51468
296.83329
291.11641
285.47714
286.63051
286.08523
287.00548
286.98564
287.60392
287.90957
288.45914
288.98854
289.63341
290.36589
291.20716
292.17458
293.26818
294.49174
295.82296
297.21781
298.59708
299.86552
300.94784
301.77265
302.25521
302.43269
302.38703
302.16009
301.8126
301.39362
300.93897
300.46757
299.9996
299.59302
299.30326
299.02132
298.63572
298.32932
298.18858
298.14614
298.19307
298.28022
298.32082
298.33535
298.2477
298.1482
298.0863
298.04915
298.02665
298.01028
298.7224
297.03942
290.96527
285.80147
287.08729
286.5549
287.47551
287.47941
288.1008
288.43186
288.99421
289.54967
290.21868
290.98191
291.85703
292.8615
293.99379
295.25387
296.61358
298.01858
299.38137
300.60739
301.62787
302.35026
302.71736
302.80836
302.67905
302.38189
301.97871
301.51588
301.02552
300.52412
300.03582
299.62243
299.32104
299.01364
298.60016
298.32206
298.19723
298.16243
298.2279
298.29921
298.32902
298.3403
298.23984
298.14324
298.08361
298.04781
298.02603
298.01003
298.93207
297.23112
290.85564
286.16927
287.56492
287.04782
287.96745
287.99595
288.61996
288.97674
289.55275
290.13508
290.8298
291.62512
292.5356
293.57809
294.74942
296.04478
297.42876
298.83613
300.1735
301.35005
302.29485
302.90016
303.15927
303.1626
302.95
302.58555
302.12989
301.62593
301.10165
300.57212
300.06715
299.65031
299.32873
298.99284
298.56968
298.31833
298.21009
298.18228
298.25927
298.31812
298.33933
298.34366
298.23195
298.13843
298.08102
298.04652
298.02544
298.00979
299.15211
297.40427
290.79971
286.55535
288.06352
287.56223
288.47945
288.5333
289.16034
289.54379
290.13503
290.74538
291.46771
292.29654
293.24384
294.32523
295.53545
296.86394
298.26657
299.66745
300.97055
302.09065
302.94067
303.42064
303.58197
303.49279
303.19965
302.77125
302.26651
301.724
301.16751
300.61247
300.0944
299.67703
299.33183
298.95972
298.54309
298.31673
298.22824
298.20636
298.28594
298.33732
298.35459
298.34619
298.22411
298.13382
298.07852
298.04528
298.02487
298.00956
299.38074
297.54575
290.80514
287.05515
288.57622
288.09474
289.00949
289.09123
289.72222
290.13395
290.74204
291.38181
292.13358
292.99739
293.98281
295.10368
296.35218
297.71058
299.12488
300.50986
301.76995
302.82293
303.55918
303.9154
303.98166
303.79887
303.42808
302.9394
302.38895
301.81032
301.2237
300.64716
300.11842
299.6979
299.33291
298.91733
298.51999
298.3197
298.25065
298.23192
298.31059
298.3568
298.372
298.34438
298.21641
298.12937
298.07612
298.0441
298.02433
298.00933
299.61773
297.64564
290.87562
287.56847
289.1065
288.6481
289.56027
289.67171
290.30742
290.74856
291.37525
292.0457
292.82882
293.72894
294.75356
295.9142
297.19951
298.58324
300.00084
301.36036
302.56903
303.53797
304.14517
304.38841
304.35487
304.0803
303.63548
303.09043
302.49764
301.88537
301.27179
300.6782
300.13919
299.70602
299.32613
298.86988
298.50055
298.32559
298.27271
298.25906
298.33345
298.37421
298.38913
298.3373
298.20903
298.12503
298.0738
298.04296
298.02382
298.00912
299.86937
297.70643
291.02246
288.09655
289.65778
289.2243
290.13328
290.27603
290.91726
291.38899
292.03614
292.7386
293.5548
294.49246
295.55712
296.75726
298.07705
299.48008
300.89161
302.21604
303.36448
304.22728
304.69968
304.83741
304.70058
304.33726
303.82235
303.22495
302.59305
301.94997
301.31384
300.70459
300.15483
299.70896
299.30995
298.82331
298.48572
298.33381
298.29315
298.28907
298.35455
298.38674
298.39899
298.32761
298.20158
298.12076
298.07156
298.04189
298.02333
298.00891
300.13671
297.72972
291.24707
288.64992
290.23009
289.82409
290.72928
290.90544
291.55325
292.05678
292.72636
293.46202
294.31296
295.28916
296.39435
297.63327
298.98384
300.39861
301.79392
303.07337
304.14774
304.88447
305.22619
305.25867
305.01824
304.56988
303.98923
303.34353
302.67586
302.00547
301.35086
300.72089
300.16133
299.70932
299.28054
298.78331
298.47626
298.34333
298.31243
298.32043
298.3736
298.39608
298.40554
298.31693
298.19418
298.11664
298.06944
298.04089
298.02288
298.00872
300.41939
297.72298
291.54915
289.23536
290.82465
290.44911
291.34995
291.56163
292.21717
292.75362
293.44748
294.21749
295.10459
296.12023
297.26615
298.54217
299.91853
301.33607
302.7048
303.92931
304.90972
305.50538
305.72814
305.64871
305.30797
304.77876
304.13689
303.44684
302.74703
302.05339
301.38017
300.72824
300.16408
299.70462
299.23961
298.74994
298.47098
298.35386
298.33131
298.3505
298.39113
298.40573
298.40983
298.30596
298.187
298.11271
298.06744
298.03996
298.02246
298.00853
300.71443
297.70039
291.92718
289.85045
291.44304
291.10132
291.99725
292.24629
292.91077
293.48098
294.20095
295.00634
295.93105
296.98683
298.17319
299.48368
300.87902
302.28912
303.62052
304.77859
305.64063
306.0925
306.20056
306.00732
305.56987
304.96453
304.26599
303.53563
302.80785
302.09503
301.39497
300.73169
300.1647
299.69406
299.19079
298.72058
298.46814
298.36548
298.35049
298.37724
298.40799
298.41861
298.4129
298.29494
298.18015
298.10899
298.06557
298.03909
298.02207
298.00836
301.03651
297.66704
292.36998
290.49682
292.08715
291.78259
292.67263
292.96074
293.63537
294.24008
294.98807
295.83002
296.79366
297.89018
299.116
300.45673
301.86276
303.25455
304.53727
305.61133
306.33418
306.65009
306.64
306.3342
305.8046
305.12804
304.37735
303.61099
302.85964
302.12917
301.40271
300.73311
300.1634
299.67697
299.13673
298.69448
298.46736
298.37978
298.37042
298.40022
298.42497
298.43413
298.41547
298.28398
298.17367
298.1055
298.06383
298.03829
298.02172
298.00819
301.39285
297.63585
292.879
291.1745
292.75786
292.49372
293.37728
293.7058
294.39206
295.03226
295.81034
296.69022
297.69403
298.83144
300.09466
301.45983
302.86646
304.22841
305.45053
306.41733
306.98769
307.17764
307.04387
306.62949
306.01275
305.27001
304.47179
303.67443
302.90392
302.14924
301.40676
300.73167
300.15734
299.65138
299.08132
298.67204
298.46973
298.39666
298.39141
298.41976
298.44024
298.45029
298.41355
298.27333
298.16757
298.10222
298.06219
298.03755
298.02139
298.00804
301.78418
297.60552
293.44141
291.88127
293.45477
293.23532
294.11154
294.48232
295.18246
295.8592
296.66987
297.58892
298.63393
299.81164
301.10877
302.49056
303.88654
305.20634
306.35297
307.1869
307.60478
307.6706
307.41214
306.89377
306.19524
305.39133
304.55072
303.72777
302.94082
302.16001
301.40814
300.72663
300.14587
299.61351
299.03028
298.65375
298.47505
298.41453
298.41316
298.43708
298.4506
298.45847
298.40767
298.26317
298.16185
298.09913
298.06066
298.03686
298.0211
298.0079
302.22203
297.59432
294.06072
292.61976
294.17868
294.00854
294.87751
295.2922
296.00886
296.72353
297.56905
298.52851
299.61506
300.83141
302.15711
303.54591
304.91893
306.18315
307.23278
307.91282
308.19041
308.12401
307.74464
307.12765
306.35286
305.49311
304.61619
303.77268
302.96565
302.16582
301.40504
300.71841
300.12821
299.563
298.9869
298.64061
298.48293
298.43281
298.43466
298.45252
298.45862
298.46389
298.39824
298.25364
298.1564
298.09619
298.05921
298.03624
298.02084
298.00777
302.69826
297.63212
294.73114
293.39274
294.93057
294.81513
295.6777
296.13844
296.87443
297.62825
298.51069
299.51125
300.63888
301.89071
303.23762
304.62191
305.95899
307.15316
308.07888
308.5967
308.73904
308.53771
308.04194
307.33216
306.48689
305.57747
304.67077
303.80899
302.97877
302.1686
301.39844
300.70709
300.1047
299.50417
298.94953
298.6333
298.49252
298.45051
298.45475
298.46671
298.4684
298.4672
298.38676
298.24436
298.15111
298.09338
298.05788
298.03569
298.02063
298.00766
303.23228
297.70213
295.43986
294.20208
295.71786
295.6598
296.51668
297.02447
297.78258
298.57651
299.49744
300.53925
301.70626
302.9886
304.3472
305.71429
307.00075
308.10549
308.88121
309.24198
309.24622
308.91097
308.30458
307.50831
306.59902
305.64732
304.7157
303.83214
302.98554
302.16674
301.38856
300.69276
300.07553
299.43971
298.91696
298.62903
298.50312
298.4673
298.47356
298.48139
298.48016
298.46977
298.37438
298.23526
298.14599
298.09073
298.05665
298.03521
298.02044
298.00755
303.82023
297.7969
296.19591
295.04553
296.54226
296.54595
297.39773
297.95356
298.73671
299.57151
300.53186
301.61412
302.81735
304.12314
305.48203
306.81789
308.03803
309.02795
309.63531
309.84954
309.70853
309.2444
308.53372
307.65775
306.69195
305.70526
304.74875
303.84352
302.98885
302.16089
301.37582
300.67475
300.03911
299.37377
298.88844
298.62649
298.51435
298.48329
298.49129
298.49751
298.4946
298.47217
298.36134
298.22645
298.14112
298.08824
298.05554
298.0348
298.0203
298.00746
304.44168
297.91608
297.01539
295.93412
297.4053
297.47611
298.32498
298.92949
299.74057
300.61617
301.61608
302.73677
303.97134
305.29134
306.63724
307.92666
309.06208
309.90721
310.34355
310.41292
310.12562
309.53836
308.73058
307.78258
306.76842
305.75022
304.76505
303.84854
302.98799
302.1514
301.36037
300.65208
299.99184
299.3119
298.8639
298.6263
298.5258
298.49884
298.50831
298.51415
298.51027
298.4717
298.34815
298.21805
298.13653
298.08595
298.05455
298.03447
298.02021
298.00739
305.11639
298.06808
297.87418
296.87482
298.3137
298.45592
299.30329
299.95632
300.79686
301.71295
302.75128
303.9073
305.16636
306.48916
307.80728
309.03273
310.05858
310.73459
311.01169
310.92639
310.49759
309.79415
308.89717
307.88578
306.83006
305.77636
304.77164
303.84946
302.98283
302.13894
301.34239
300.62412
299.93251
299.25746
298.84283
298.62763
298.53715
298.51395
298.52491
298.52907
298.5201
298.46972
298.33513
298.21014
298.13225
298.08385
298.05369
298.03422
298.02017
298.00733
305.83023
298.32356
298.78311
297.87091
299.2737
299.48807
300.33613
301.03619
301.9077
302.86325
303.93836
305.12496
306.39943
307.71138
308.98518
310.1274
311.01358
311.51048
311.63159
311.38937
310.82483
310.01316
309.03587
307.97011
306.87501
305.78802
304.77274
303.84569
302.97406
302.12407
301.32213
300.59128
299.86566
299.20802
298.82499
298.63053
298.54853
298.52786
298.53957
298.54454
298.52612
298.46572
298.32249
298.20275
298.1283
298.08196
298.05295
298.03406
298.02016
298.00729
306.57814
298.66511
299.74106
298.9225
300.28693
300.57414
301.42564
302.17114
303.07453
304.06855
305.17755
306.3882
307.66644
308.95164
310.16224
311.19684
311.91479
312.23884
312.19794
311.80138
311.10862
310.19773
309.14982
308.0369
306.89935
305.79182
304.76839
303.8372
302.96227
302.10743
301.29987
300.55387
299.79286
299.16359
298.8102
298.63488
298.5602
298.54085
298.55269
298.55811
298.52991
298.45983
298.31038
298.19586
298.12464
298.08023
298.05231
298.03396
298.0202
298.00725
307.33992
299.13193
300.74873
300.03171
301.3551
301.7153
302.57369
303.36336
304.29942
305.3302
306.46898
307.69427
308.96172
310.2021
311.32812
312.2255
312.75829
312.91557
312.70726
312.1628
311.35051
310.35054
309.24195
308.08311
306.91022
305.78904
304.75782
303.82481
302.94812
302.08947
301.27554
300.5117
299.71659
299.12396
298.79827
298.64021
298.57203
298.55297
298.56421
298.57148
298.53307
298.45182
298.2989
298.18943
298.12123
298.07864
298.05177
298.03393
298.02028
298.00722
308.08178
299.76142
301.80635
301.19897
302.47827
302.91176
303.783
304.61648
305.58556
306.65011
307.81146
309.03885
310.27792
311.4527
312.46962
313.19767
313.54664
313.53355
313.15943
312.47494
311.5533
310.47506
309.31406
308.10827
306.91286
305.77859
304.74228
303.8091
302.93225
302.07051
301.24803
300.46139
299.64213
299.08912
298.78891
298.64592
298.58337
298.56429
298.57523
298.585
298.5363
298.44169
298.28804
298.18336
298.11801
298.07716
298.05131
298.03399
298.02043
298.00721
308.76062
300.62599
302.90856
302.42594
303.66288
304.17093
305.0622
305.93511
306.93677
308.02903
309.2023
310.41519
311.60557
312.69091
313.56841
314.10615
314.27831
314.08757
313.55433
312.73963
311.72023
310.57449
309.36215
308.11987
306.90708
305.76171
304.72228
303.79076
302.9152
302.05069
301.2166
300.39823
299.57624
299.05828
298.78149
298.65163
298.59432
298.57549
298.58595
298.59926
298.53775
298.42976
298.27775
298.17754
298.11491
298.07578
298.05097
298.03415
298.02064
298.00722
309.37149
301.7232
304.08416
303.7307
304.92255
305.51398
306.41596
307.32418
308.3551
309.46566
310.63534
311.81385
312.9324
313.90222
314.60635
314.95155
314.94427
314.57727
313.89352
312.96008
311.85516
310.65112
309.38793
308.12216
306.89307
305.73933
304.69872
303.77045
302.89756
302.03012
301.18166
300.32727
299.51605
299.0309
298.77538
298.65722
298.60517
298.58708
298.59651
298.61405
298.53717
298.41675
298.26784
298.17188
298.11195
298.07453
298.05073
298.03441
298.02093
298.00725
309.97331
303.02885
305.34664
305.12533
306.2699
306.92618
307.83263
308.78885
309.83996
310.95473
312.10138
313.22244
314.24277
315.06555
315.57361
315.73303
315.53815
315.00226
314.17918
313.14016
311.96097
310.70005
309.39962
308.1146
306.87219
305.71229
304.67221
303.74874
302.87988
302.0091
301.14373
300.24987
299.46145
299.00617
298.7701
298.66274
298.61608
298.59931
298.60672
298.62784
298.53459
298.40323
298.25824
298.16646
298.10919
298.07345
298.05065
298.03477
298.02128
298.0073
310.62184
304.43418
306.68539
306.60657
307.70251
308.41123
309.35402
310.3298
311.38659
312.48597
313.58719