/*--------------------------------*- C++ -*----------------------------------*\
  =========                 |
  \\      /  F ield         | OpenFOAM: The Open Source CFD Toolbox
   \\    /   O peration     | Website:  https://openfoam.org
    \\  /    A nd           | Version:  8
     \\/     M anipulation  |
\*---------------------------------------------------------------------------*/
FoamFile
{
    version     2.0;
    format      ascii;
    class       volVectorField;
    location    "0.0399893";
    object      U;
}
// * * * * * * * * * * * * * * * * * * * * * * * * * * * * * * * * * * * * * //

dimensions      [0 1 -1 0 0 0 0];

internalField   nonuniform List<vector> 
20000
(
(200.91591 -9.6617522e-21 -9.3947467)
(235.50754 4.5196626e-19 -10.699881)
(258.06361 -3.6804123e-19 -11.866722)
(277.37673 -6.2613102e-19 -12.876045)
(294.63932 -1.3787059e-16 -13.867353)
(308.88797 8.4905847e-19 -14.679992)
(312.19145 1.9718858e-16 -15.160942)
(313.15678 -8.2294346e-17 -14.721747)
(312.25594 0 -15.296481)
(312.55182 0 -14.561208)
(311.89262 0 -15.300189)
(311.83085 -2.4770909e-18 -14.532322)
(311.1921 0 -15.192794)
(310.81174 2.1497124e-19 -14.568342)
(310.07865 0 -15.030063)
(309.38262 3.3350339e-17 -14.591044)
(308.43273 -3.2051354e-17 -14.831689)
(307.38019 8.2086898e-19 -14.53164)
(306.09463 0 -14.582595)
(304.5866 1.1279275e-18 -14.361939)
(302.78401 2.808937e-17 -14.321895)
(300.68742 -3.6974492e-17 -14.135058)
(298.28966 3.0382834e-17 -13.942336)
(295.59487 -1.4618749e-17 -13.623349)
(292.61784 0 -13.23179)
(289.37646 2.2485825e-17 -12.706207)
(285.9421 -1.3524313e-17 -12.048663)
(282.41238 6.2718294e-17 -11.235066)
(278.91573 1.6605799e-19 -10.278126)
(275.57757 0 -9.2082094)
(272.51584 3.7500769e-18 -8.0752561)
(269.81539 -2.95089e-18 -6.9439258)
(267.51812 3.6950486e-17 -5.8877331)
(265.6275 -2.8418289e-17 -4.9186074)
(264.12025 -6.5609184e-17 -4.0743205)
(263.06552 1.6651878e-17 -3.3158323)
(262.42868 2.5110012e-17 -2.6725545)
(261.92142 7.4236328e-17 -2.2388184)
(261.39641 0 -1.9350868)
(261.0928 1.3042201e-18 -1.6086418)
(260.96836 -1.2337317e-16 -1.2140127)
(261.32731 9.0874738e-17 -0.76526333)
(262.00076 -1.6704912e-17 -0.38078727)
(262.18831 -8.5359459e-17 -0.17541611)
(261.7308 -7.3279254e-17 -0.15861556)
(261.28138 0 -0.19566532)
(261.17509 0 -0.17392629)
(261.21741 6.0971409e-17 -0.10947301)
(261.27126 5.8600706e-18 -0.030504791)
(261.2921 -5.203817e-18 0.019244721)
(201.78595 0 -10.209638)
(236.50437 -4.6458585e-19 -11.646402)
(259.28439 3.7803479e-19 -12.91983)
(278.74668 1.6494126e-16 -13.990449)
(296.03516 -1.4087012e-16 -15.053516)
(309.94534 -1.2010874e-16 -15.864281)
(312.60734 1.0056111e-16 -16.350853)
(313.55584 -2.6215617e-18 -15.879615)
(312.62726 0 -16.535212)
(312.93162 0 -15.750076)
(312.24937 9.718186e-17 -16.559883)
(312.186 -7.8184376e-17 -15.744476)
(311.5284 -4.2023772e-18 -16.449765)
(311.13709 5.6033606e-17 -15.792045)
(310.38651 1.3253734e-19 -16.272317)
(309.67338 -3.3800855e-17 -15.810895)
(308.70055 0 -16.052213)
(307.61069 -2.6764379e-17 -15.744722)
(306.26348 5.5437793e-17 -15.808208)
(304.66777 -3.6576895e-17 -15.598291)
(302.78993 -3.0472328e-17 -15.54256)
(300.64231 1.242657e-17 -15.329192)
(298.21027 -1.0330158e-17 -15.105131)
(295.46495 -1.7150013e-17 -14.748988)
(292.42288 2.7666566e-17 -14.311476)
(289.11632 0 -13.727072)
(285.62604 -1.8575367e-17 -12.994194)
(282.05824 -1.5025177e-17 -12.090508)
(278.54601 -1.44319e-16 -11.031786)
(275.21757 9.5854661e-17 -9.8539896)
(272.18759 9.1181739e-17 -8.6123468)
(269.53547 1.1947001e-16 -7.3774588)
(267.29351 1.8686183e-17 -6.2295421)
(265.45011 -4.3232147e-17 -5.1822572)
(263.98522 2.6494629e-16 -4.266097)
(263.00232 -5.0382881e-17 -3.443932)
(262.39328 -2.5343102e-17 -2.7591437)
(261.84298 9.4891213e-17 -2.3079694)
(261.33931 -2.8286373e-17 -1.9878166)
(261.08476 1.8862554e-16 -1.6430486)
(260.9713 1.2378623e-16 -1.2177526)
(261.52461 -9.1080195e-17 -0.73795892)
(262.02603 -1.6715335e-17 -0.36253348)
(262.09248 1.3524837e-16 -0.19371581)
(261.60537 5.4392124e-17 -0.1895221)
(261.28278 0 -0.21317989)
(261.1838 -1.7005285e-16 -0.17738788)
(261.2175 -4.5205985e-17 -0.10807914)
(261.26956 -5.7662674e-18 -0.029308997)
(261.29136 5.6461146e-19 0.019964154)
(202.9718 3.3232453e-16 -11.090285)
(237.95502 -9.4544313e-19 -12.679339)
(260.85824 -1.5399541e-18 -14.061793)
(280.38504 1.6634077e-16 -15.217077)
(297.64389 -2.8736973e-16 -16.37671)
(310.98189 1.2128128e-16 -17.186338)
(312.94671 -3.200013e-18 -17.669562)
(313.88792 1.7362426e-16 -17.143294)
(312.92927 4.6045721e-18 -17.850134)
(313.24034 -1.1846671e-16 -16.995897)
(312.53328 0 -17.856216)
(312.46482 8.7404932e-17 -16.988995)
(311.79215 -6.4110379e-17 -17.727406)
(311.38866 5.7014071e-17 -17.035576)
(310.61921 -4.731505e-17 -17.527201)
(309.88135 3.9451435e-17 -17.050892)
(308.86937 -3.2660599e-17 -17.299344)
(307.72131 -1.3582375e-17 -17.000727)
(306.31003 1.1270032e-17 -17.073772)
(304.66206 -3.7457621e-17 -16.860917)
(302.74267 6.1651931e-17 -16.781508)
(300.54934 2.5504645e-17 -16.535226)
(298.05888 -2.1106463e-17 -16.277322)
(295.24199 1.7169617e-17 -15.887112)
(292.12567 0 -15.399471)
(288.75064 0 -14.750816)
(285.20422 -1.8869867e-17 -13.93648)
(281.60103 1.5067484e-17 -12.936276)
(278.07924 7.2944188e-17 -11.770018)
(274.7687 1.1685277e-16 -10.480113)
(271.78027 -1.3848345e-16 -9.1275852)
(269.18732 -7.247431e-17 -7.7891971)
(267.01 -1.8774699e-17 -6.5517699)
(265.22038 2.329612e-16 -5.4289478)
(263.82166 -3.34315e-16 -4.4418436)
(262.90803 -1.6899939e-17 -3.5586646)
(262.33795 2.5527501e-17 -2.8410375)
(261.74513 -1.7181857e-16 -2.3737047)
(261.28026 0 -2.0327357)
(261.06967 -1.4730847e-16 -1.6695204)
(261.01962 -1.5517854e-17 -1.2103843)
(261.6547 2.2778417e-17 -0.70890066)
(262.02324 -3.3463468e-17 -0.35004571)
(262.05503 1.2281911e-17 -0.20961429)
(261.54581 -2.7111223e-16 -0.21837773)
(261.27259 -2.6694583e-17 -0.22679135)
(261.1872 1.6867422e-16 -0.18049589)
(261.21611 0 -0.10639059)
(261.26868 1.7578141e-16 -0.027720322)
(261.29079 1.4341851e-16 0.020853556)
(203.99746 -1.352032e-18 -11.983003)
(239.19472 2.4976353e-16 -13.714579)
(262.23736 1.5725665e-18 -15.201951)
(281.84176 4.0058716e-18 -16.432635)
(299.08827 -1.44158e-16 -17.684924)
(311.83478 -1.2358552e-16 -18.475192)
(313.17535 2.117888e-16 -18.963596)
(314.12464 1.7933579e-16 -18.38504)
(313.13786 -1.4951341e-16 -19.157663)
(313.46074 1.2067169e-16 -18.237748)
(312.72503 -9.4173494e-17 -19.158316)
(312.64324 7.8472182e-17 -18.243882)
(311.97104 -6.0874406e-17 -19.020414)
(311.55218 5.8006434e-17 -18.296023)
(310.75288 -9.6411825e-17 -18.80497)
(309.97471 3.9992281e-17 -18.327539)
(308.91475 -1.6722836e-17 -18.594289)
(307.71581 9.6739796e-17 -18.298326)
(306.26237 6.781623e-20 -18.361051)
(304.58217 0 -18.131644)
(302.6279 -6.2939995e-17 -18.023506)
(300.38048 5.1765452e-17 -17.75171)
(297.81555 -6.4205818e-17 -17.465095)
(294.92334 1.74517e-17 -17.036436)
(291.73096 2.8910222e-17 -16.495343)
(288.28729 -2.3307121e-17 -15.777705)
(284.68776 -7.6307497e-17 -14.876749)
(281.05531 3.0964412e-17 -13.775068)
(277.53298 -2.4570052e-17 -12.497278)
(274.25092 -1.5763626e-16 -11.092783)
(271.31531 -3.1321223e-17 -9.628516)
(268.79277 2.4378219e-17 -8.1873609)
(266.68921 -2.859332e-16 -6.863028)
(264.95926 -2.2031528e-16 -5.6660706)
(263.64331 5.1733595e-16 -4.6093075)
(262.79777 0 -3.6680351)
(262.26462 4.1094238e-16 -2.9227636)
(261.64718 1.9220122e-17 -2.4392035)
(261.22248 -1.4269885e-17 -2.0744871)
(261.03796 0 -1.6910291)
(261.10927 3.1071211e-17 -1.2006596)
(261.75289 3.6503476e-16 -0.6840783)
(262.01515 -1.6737281e-17 -0.34518604)
(261.9786 0 -0.23274807)
(261.49898 2.8817706e-16 -0.2449486)
(261.26209 -4.2481168e-16 -0.23820421)
(261.18872 -3.1485793e-16 -0.18348059)
(261.21441 -1.4713663e-17 -0.10497169)
(261.26759 -1.6730286e-16 -0.026175824)
(261.29024 -1.3797007e-16 0.021740116)
(204.9865 -3.4228626e-16 -12.89391)
(240.40537 2.516681e-16 -14.772206)
(263.58152 0 -16.37044)
(283.25058 -2.7258628e-18 -17.677546)
(300.46784 2.9609617e-16 -19.029412)
(312.55355 -2.4732101e-16 -19.787648)
(313.32382 3.3165591e-18 -20.285808)
(314.2854 1.6584602e-16 -19.646255)
(313.25506 -1.5208558e-16 -20.487361)
(313.59068 1.2275745e-16 -19.499941)
(312.83648 -1.0857766e-16 -20.482746)
(312.76039 -1.0632035e-17 -19.517519)
(312.05065 -7.9796908e-17 -20.333213)
(311.60768 -1.6047071e-19 -19.591045)
(310.77334 9.8083055e-17 -20.127948)
(309.95794 -4.0682775e-17 -19.645765)
(308.8643 -1.693717e-17 -19.911579)
(307.63805 -2.811787e-17 -19.606302)
(306.15843 2.3323314e-17 -19.651101)
(304.4397 0 -19.404872)
(302.4341 -9.5969594e-17 -19.278102)
(300.11559 -2.6473481e-17 -18.985007)
(297.4746 -4.35085e-17 -18.665466)
(294.50257 7.141813e-17 -18.195008)
(291.23223 2.9382688e-17 -17.595657)
(287.72027 2.9706678e-19 -16.803384)
(284.07103 2.1313565e-16 -15.809794)
(280.41604 0 -14.600986)
(276.90275 0 -13.207285)
(273.66021 2.0072085e-17 -11.68566)
(270.78913 -4.7432626e-17 -10.109003)
(268.34845 1.9816628e-16 -8.5663749)
(266.32764 3.2716181e-16 -7.1584683)
(264.66471 0 -5.8889279)
(263.44539 -7.2583321e-16 -4.7646376)
(262.66876 0 -3.7695269)
(262.16882 -4.3940558e-16 -3.001152)
(261.55004 3.8619531e-17 -2.5025224)
(261.16583 -4.7339052e-16 -2.11265)
(261.00717 0 -1.7046259)
(261.25074 3.1135386e-17 -1.1884383)
(261.82181 -3.8838685e-16 -0.66395621)
(262.0056 -5.3493218e-16 -0.34445713)
(261.90866 0 -0.25133507)
(261.46102 0 -0.26989197)
(261.24916 4.222715e-16 -0.25048805)
(261.18512 3.1213729e-16 -0.1860731)
(261.21247 0 -0.10351699)
(261.2665 0 -0.024556476)
(261.28975 -2.1064769e-18 0.022662819)
(205.92199 3.5276396e-16 -13.827381)
(241.55201 -2.6052426e-16 -15.855769)
(264.85907 0 -17.568688)
(284.58182 0 -18.949719)
(301.75149 4.7472993e-18 -20.405113)
(313.14915 -2.5983364e-16 -21.114853)
(313.38709 2.1260442e-16 -21.628081)
(314.36433 -1.7429325e-16 -20.923559)
(313.31828 3.0484211e-16 -21.839281)
(313.65003 -2.5734819e-16 -20.7835)
(312.8788 -1.7398143e-19 -21.83347)
(312.79175 9.7263096e-17 -20.822717)
(312.03238 -7.21623e-17 -21.682212)
(311.56746 5.9865366e-17 -20.91908)
(310.7086 2.4940552e-17 -21.469636)
(309.87248 -4.1539728e-17 -20.975124)
(308.75791 3.4372222e-17 -21.23216)
(307.50203 2.8599554e-17 -20.914212)
(305.98495 1.5247936e-19 -20.948597)
(304.2121 -3.9128316e-17 -20.694251)
(302.14298 3.2549433e-17 -20.547166)
(299.75242 -2.6675786e-17 -20.231103)
(297.03157 8.8248031e-17 -19.876428)
(293.97734 -1.8121073e-16 -19.359881)
(290.62808 3.6200076e-19 -18.697174)
(287.04924 -2.179805e-16 -17.824187)
(283.355 -1.5704944e-16 -16.731605)
(279.68556 0 -15.409951)
(276.192 -2.5562534e-17 -13.896215)
(273.00085 4.0472636e-17 -12.255388)
(270.20654 -1.5915837e-17 -10.566258)
(267.85913 -2.0032378e-16 -8.9241255)
(265.92874 -1.9502413e-17 -7.4364598)
(264.34187 -4.3470603e-16 -6.0961181)
(263.22865 7.090098e-16 -4.9068245)
(262.52426 5.5407213e-16 -3.8633363)
(262.04988 0 -3.0747755)
(261.45514 6.2136393e-16 -2.5626167)
(261.1138 -4.9661166e-20 -2.1479508)
(260.9835 0 -1.7104386)
(261.3681 0 -1.1735086)
(261.87499 0 -0.64918621)
(262.00386 5.1786653e-16 -0.3489889)
(261.83274 -7.6925954e-16 -0.2706237)
(261.42277 5.5409339e-16 -0.29244631)
(261.2345 -3.9345121e-16 -0.26011097)
(261.17817 -9.6666894e-18 -0.18823742)
(261.21043 0 -0.10195685)
(261.26536 3.5056836e-16 -0.02288134)
(261.28929 -2.6767482e-16 0.023615715)
(206.79845 -9.7718081e-22 -14.778084)
(242.63628 2.0430798e-18 -16.958099)
(266.07533 0 -18.791077)
(285.84435 -2.8334622e-18 -20.245495)
(302.93326 -1.421877e-21 -21.812748)
(313.60966 2.603595e-16 -22.464609)
(313.37612 -2.1290656e-16 -23.007643)
(314.38466 0 -22.238071)
(313.29916 -1.5273629e-16 -23.235528)
(313.65454 1.2681413e-16 -22.10527)
(312.83148 -1.3223474e-17 -23.21614)
(312.7384 0 -22.152041)
(311.94554 -7.3393216e-17 -23.045045)
(311.4676 -3.0663766e-17 -22.256565)
(310.59065 2.5281085e-17 -22.813206)
(309.73096 0 -22.304254)
(308.58752 3.5111956e-17 -22.558494)
(307.28935 -8.7078954e-17 -22.238074)
(305.72204 -2.4031255e-17 -22.261304)
(303.89074 0 -21.996872)
(301.75454 6.5996972e-17 -21.829168)
(299.28715 2.7374532e-17 -21.488463)
(296.48362 6.7527871e-17 -21.095164)
(293.34477 -3.0749712e-19 -20.528034)
(289.91609 3.0340235e-17 -19.796215)
(286.27273 3.6909696e-16 -18.83588)
(282.53938 0 -17.637559)
(278.86483 -2.5788408e-16 -16.19725)
(275.40262 0 -14.559596)
(272.27534 0 -12.797934)
(269.57063 -3.2489702e-17 -10.996836)
(267.32769 5.0641387e-17 -9.2580059)
(265.49267 -1.9590578e-17 -7.6945513)
(263.99484 4.8351382e-16 -6.285819)
(262.99353 -3.456299e-16 -5.0343842)
(262.36544 -1.7180531e-17 -3.9490771)
(261.90937 0 -3.1421422)
(261.35979 -6.2421261e-16 -2.6177166)
(261.06583 8.6742385e-16 -2.1801221)
(260.96061 -6.3939698e-16 -1.7091828)
(261.47084 5.3134566e-16 -1.1554361)
(261.91353 -2.2882391e-17 -0.63844466)
(262.00736 0 -0.3581909)
(261.76023 7.7927626e-16 -0.29063466)
(261.38625 -5.5160449e-16 -0.31269968)
(261.2184 3.9086546e-16 -0.26895178)
(261.16916 -6.0355113e-16 -0.18985609)
(261.20833 -4.538633e-16 -0.10018278)
(261.26421 -6.8414636e-16 -0.02114016)
(261.28888 5.1931123e-16 0.024601804)
(207.61122 -7.3166231e-16 -15.745337)
(243.65941 5.3488015e-16 -18.079641)
(267.23363 -3.3991143e-18 -20.03901)
(287.04474 8.6693244e-18 -21.566173)
(304.00729 -4.139599e-22 -23.248975)
(313.92615 -8.2769108e-18 -23.826433)
(313.26856 -3.0223977e-22 -24.405109)
(314.28732 0 -23.560597)
(313.18941 -1.5532469e-16 -24.64138)
(313.52383 1.3702646e-16 -23.436819)
(312.70623 1.3447453e-17 -24.609421)
(312.61876 0 -23.489483)
(311.80573 -7.462714e-17 -24.409196)
(311.30985 9.2896494e-17 -23.595692)
(310.40789 -5.16682e-17 -24.165043)
(309.51505 8.5661978e-17 -23.651116)
(308.33326 0 -23.900964)
(306.98818 5.9099701e-17 -23.576443)
(305.36812 -1.3062914e-19 -23.587407)
(303.47341 -8.1554538e-17 -23.31273)
(301.26551 -3.3769352e-17 -23.122371)
(298.71787 1.3872609e-16 -22.754499)
(295.82834 -1.1380014e-16 -22.318912)
(292.60298 1.4962609e-16 -21.696081)
(289.09515 -3.0825661e-17 -20.888852)
(285.3907 -1.9985802e-16 -19.834026)
(281.62546 4.0478453e-17 -18.522928)
(277.95636 5.0634308e-16 -16.958215)
(274.53799 -4.4529131e-16 -15.193141)
(271.48767 2.0667706e-17 -13.309529)
(268.88596 5.2488524e-16 -11.397665)
(266.75822 0 -9.5660454)
(265.0202 0 -7.9304105)
(263.62936 4.8824872e-16 -6.4565287)
(262.74266 7.4350757e-16 -5.1464323)
(262.19343 -5.7883256e-16 -4.0264281)
(261.75111 1.3143689e-17 -3.2023914)
(261.26024 -1.9603213e-17 -2.6660918)
(261.0194 -1.3490739e-15 -2.2087644)
(260.94029 1.3457553e-15 -1.7022996)
(261.54709 -5.0077413e-16 -1.1338349)
(261.93974 0 -0.63039945)
(262.00399 -1.6667812e-17 -0.37078437)
(261.69376 3.6436945e-17 -0.31181333)
(261.35163 -3.5416338e-17 -0.33066067)
(261.20137 1.2936207e-17 -0.27677596)
(261.1582 6.0736863e-16 -0.19087838)
(261.20621 4.4815767e-16 -0.09812191)
(261.2631 1.0064559e-15 -0.019331908)
(261.2885 -2.5584185e-16 0.025621113)
(208.39178 7.3904822e-16 -16.733705)
(244.65018 -5.4940556e-16 -19.224704)
(268.36035 4.4701913e-16 -21.314797)
(288.21287 -1.1787814e-17 -22.912633)
(304.98542 -3.2590532e-16 -24.704773)
(314.12557 2.8623153e-16 -25.185132)
(313.11901 -2.276145e-16 -25.806318)
(314.16187 3.7814752e-16 -24.877422)
(313.01495 -1.4784138e-16 -26.043981)
(313.37871 -1.3129834e-16 -24.765408)
(312.51591 2.1875051e-16 -26.001489)
(312.39751 -1.1363829e-16 -24.836847)
(311.59445 0 -25.792799)
(311.07459 6.3121413e-17 -24.956567)
(310.14257 -5.2343271e-17 -25.532955)
(309.21422 -4.356859e-17 -25.012585)
(307.9926 -3.6226401e-17 -25.256592)
(306.59733 6.0140547e-17 -24.929029)
(304.92026 -4.979943e-17 -24.92622)
(302.95817 8.246326e-17 -24.640035)
(300.67442 2.0475841e-16 -24.42493)
(298.04249 -1.1248188e-16 -24.026903)
(295.06389 0 -23.54468)
(291.75046 -1.5242966e-16 -22.860447)
(288.1645 2.4944832e-16 -21.970879)
(284.40359 0 -20.81392)
(280.61508 -2.0673183e-17 -19.382799)
(276.96319 -2.1486106e-16 -17.68812)
(273.60193 3.9714972e-16 -15.792607)
(270.64231 0 -13.786504)
(268.15737 -5.6308608e-16 -11.765857)
(266.15434 4.4033336e-16 -9.8466208)
(264.51408 0 -8.1418644)
(263.25005 5.4945944e-19 -6.6066344)
(262.47876 -1.497272e-15 -5.242464)
(262.00926 0 -4.095035)
(261.58028 -1.6662696e-15 -3.2552188)
(261.15335 -1.279128e-15 -2.7063142)
(260.96691 9.3110821e-16 -2.2326439)
(260.92501 -6.8487361e-16 -1.6914101)
(261.60019 0 -1.1089735)
(261.95486 0 -0.62416478)
(261.99086 0 -0.38578008)
(261.63324 2.4221086e-17 -0.3338015)
(261.31902 -3.5240507e-17 -0.34647672)
(261.18379 1.2845168e-17 -0.28380179)
(261.14568 0 -0.19125324)
(261.20411 0 -0.095705827)
(261.2621 -5.8896279e-22 -0.017453696)
(261.28817 -4.9267582e-16 0.026671531)
(209.1459 2.9497605e-18 -17.743209)
(245.60558 -5.4891003e-16 -20.389897)
(269.45132 4.521251e-16 -22.613573)
(289.34474 6.0075918e-18 -24.288747)
(305.84481 -3.2147899e-16 -26.185979)
(314.21286 2.6550655e-16 -26.552624)
(312.89982 -7.2286366e-18 -27.2318)
(313.961 -1.9228314e-16 -26.212335)
(312.78456 1.5027526e-16 -27.466905)
(313.14734 0 -26.109699)
(312.25948 0 -27.407629)
(312.13722 -1.5926887e-20 -26.199075)
(311.30107 1.9264105e-17 -27.187491)
(310.75753 -6.4168261e-17 -26.330644)
(309.79524 -1.9736887e-19 -26.912791)
(308.82873 8.8596793e-17 -26.388335)
(307.56405 7.2661321e-20 -26.625025)
(306.11507 -3.0544397e-17 -26.294571)
(304.37716 -2.559111e-17 -26.276464)
(302.34338 8.3865262e-17 -25.977428)
(299.97938 -1.7303787e-16 -25.734875)
(297.25936 0 -25.303095)
(294.18877 -1.8867421e-16 -24.769323)
(290.78631 1.5439945e-16 -24.017307)
(287.12418 -2.8435732e-16 -23.037845)
(283.31275 2.578659e-16 -21.770658)
(279.51098 -2.0713271e-17 -20.212177)
(275.8892 0 -18.382294)
(272.59907 2.6975722e-17 -16.353893)
(269.74467 1.8619017e-19 -14.225426)
(267.39009 -1.6692215e-17 -12.098877)
(265.51866 8.1457292e-19 -10.098144)
(263.98101 2.0253609e-17 -8.3273614)
(262.85963 -5.1122322e-16 -6.7346102)
(262.20407 7.5351538e-16 -5.3221455)
(261.81432 -1.1366114e-15 -4.1544036)
(261.40375 1.7000579e-15 -3.3009808)
(261.03903 6.3169492e-16 -2.738058)
(260.89802 9.045588e-16 -2.249345)
(260.93014 -6.6438499e-16 -1.6786993)
(261.63464 -9.7098155e-16 -1.0818527)
(261.95885 7.3027839e-16 -0.61856059)
(261.9729 -1.0621567e-15 -0.40266335)
(261.5759 1.2082253e-17 -0.35626028)
(261.28728 -1.7519678e-17 -0.35968496)
(261.16595 0 -0.29014593)
(261.13222 0 -0.19096594)
(261.20205 0 -0.092882089)
(261.26118 -6.4528513e-16 -0.015502108)
(261.28787 4.8563795e-16 0.027751158)
(209.85047 7.7158299e-16 -18.772871)
(246.5035 0 -21.577621)
(270.48481 -3.6016562e-18 -23.939122)
(290.4289 0 -25.694156)
(306.56408 -3.3749335e-16 -27.687678)
(314.18014 -2.1949622e-19 -27.926489)
(312.60863 2.3507687e-16 -28.675533)
(313.68871 0 -27.561698)
(312.47733 0 -28.90526)
(312.84515 0 -27.46898)
(311.92743 8.4845313e-17 -28.82899)
(311.79158 -4.6885064e-17 -27.573765)
(310.93093 -1.956199e-17 -28.591552)
(310.36076 -6.5224035e-17 -27.718145)
(309.36564 5.4071879e-17 -28.304604)
(308.35773 0 -27.777718)
(307.04668 -7.4875487e-17 -28.005506)
(305.54014 -9.3178463e-17 -27.672283)
(303.73714 2.5643061e-17 -27.636992)
(301.6274 -4.2795687e-17 -27.323199)
(299.17888 7.0456147e-17 -27.050091)
(296.36704 3.1460488e-19 -26.580375)
(293.20192 1.4327701e-16 -25.989481)
(289.71009 1.9501818e-17 -25.162608)
(285.97487 0 -24.085065)
(282.12027 2.7111295e-17 -22.699168)
(278.31664 2.6808168e-19 -21.006027)
(274.7389 1.9652468e-19 -19.036152)
(271.5348 4.2265058e-16 -16.873069)
(268.80097 0 -14.623183)
(266.5893 -1.6993711e-17 -12.394716)
(264.85193 -4.0900055e-16 -10.318641)
(263.42958 0 -8.485866)
(262.46058 0 -6.8394507)
(261.92017 0 -5.3851684)
(261.60953 1.142194e-15 -4.2037078)
(261.22731 -1.7084775e-15 -3.3400949)
(260.92062 1.9024946e-15 -2.7624668)
(260.81117 -1.842331e-15 -2.2563)
(260.98642 6.6528174e-16 -1.6657477)
(261.6616 1.0024402e-15 -1.0553697)
(261.95282 -7.2947835e-16 -0.61304502)
(261.94878 1.0595318e-15 -0.42035145)
(261.51895 -7.6901552e-16 -0.37887369)
(261.25458 1.1157671e-15 -0.37216291)
(261.14804 0 -0.29580367)
(261.11933 -1.8423919e-17 -0.19009387)
(261.20021 1.3473951e-17 -0.08962148)
(261.26038 0 -0.013475821)
(261.2876 -3.6824252e-18 0.02885764)
(210.5095 -3.0539276e-18 -19.818367)
(247.34974 4.4851825e-18 -22.780732)
(271.46398 4.6597688e-16 -25.282635)
(291.47519 -3.9922152e-16 -27.122329)
(307.13802 -3.3806898e-16 -29.20432)
(314.02383 2.8363944e-16 -29.304867)
(312.24694 0 -30.133387)
(313.34494 -1.241232e-17 -28.921574)
(312.0992 -2.071977e-17 -30.356994)
(312.46971 1.3786334e-16 -28.84156)
(311.52277 -5.7302017e-17 -30.262924)
(311.37342 -1.1952245e-16 -28.963032)
(310.48355 3.9581597e-17 -30.008245)
(309.88357 -2.2505848e-19 -29.120043)
(308.85289 -2.1892153e-19 -29.708541)
(307.80002 -1.5680276e-19 -29.180739)
(306.43898 7.5962331e-17 -29.397616)
(304.87096 -6.3172922e-17 -29.061177)
(302.99871 0 -29.006468)
(300.80878 8.6747888e-17 -28.675562)
(298.27153 0 -28.368279)
(295.36439 0 -27.855827)
(292.10264 2.4449137e-17 -27.201577)
(288.52194 -1.9807006e-17 -26.292054)
(284.71793 0 -25.107635)
(280.829 -2.1189119e-16 -23.594255)
(277.03629 0 -21.759334)
(273.51757 0 -19.645242)
(270.4154 -4.4030584e-16 -17.346425)
(267.81807 6.9949243e-16 -14.977086)
(265.75974 -5.4897569e-16 -12.652038)
(264.1544 -2.671862e-17 -10.505865)
(262.86817 2.0526902e-17 -8.6163899)
(262.05603 0 -6.9208425)
(261.62824 7.8762448e-16 -5.4313899)
(261.39537 -1.1666286e-15 -4.2419173)
(261.05353 1.6878194e-15 -3.3724708)
(260.80459 -1.2321332e-15 -2.7814469)
(260.7205 9.2283821e-16 -2.2526582)
(261.05685 -1.3739343e-15 -1.6521931)
(261.69084 9.7058063e-16 -1.0326702)
(261.93821 1.479531e-15 -0.60845775)
(261.91046 0 -0.43727085)
(261.46089 7.6564531e-16 -0.40106428)
(261.21909 -1.1090515e-15 -0.38398519)
(261.13011 0 -0.30059503)
(261.10798 1.82346e-17 -0.1887213)
(261.19874 -8.6403642e-16 -0.085953015)
(261.2597 9.7448659e-18 -0.011382358)
(261.28734 4.5400612e-16 0.029988146)
(211.11919 -7.9576351e-16 -20.887527)
(248.13922 5.7509857e-16 -24.010735)
(272.38579 7.4709624e-18 -26.656579)
(292.48782 0 -28.584908)
(307.55895 -1.0745422e-17 -30.739107)
(313.74487 -2.8867266e-16 -30.691694)
(311.81487 2.4280058e-16 -31.607197)
(312.93004 1.2597524e-17 -30.292517)
(311.64887 2.1053389e-16 -31.820707)
(312.02117 -1.2233517e-16 -30.226583)
(311.04344 -2.9149889e-17 -31.709372)
(310.8775 -7.2905508e-17 -30.366967)
(309.95715 1.2130302e-16 -31.437181)
(309.32409 2.3768081e-19 -30.536908)
(308.25507 2.3097822e-19 -31.124718)
(307.15385 -4.6537263e-17 -30.59701)
(305.73942 3.8519701e-17 -30.800569)
(304.10618 3.1882725e-17 -30.460064)
(302.16056 -7.9994406e-17 -30.383357)
(299.88627 -1.3210292e-16 -30.032509)
(297.25622 3.618684e-17 -29.686964)
(294.25053 0 -29.126341)
(290.8906 0 -28.401795)
(287.2225 3.2488214e-16 -27.401102)
(283.35538 -3.3319885e-17 -26.100449)
(279.44249 -4.0527234e-16 -24.450643)
(275.67485 2.1902811e-17 -22.467146)
(272.23128 -1.7392305e-17 -20.20529)
(269.24809 4.4749272e-16 -17.770565)
(266.80297 -1.4131192e-15 -15.284941)
(264.90511 5.5331894e-16 -12.870036)
(263.42978 0 -10.658015)
(262.30319 0 -8.7177268)
(261.64895 0 -6.9790262)
(261.32944 -2.3356362e-17 -5.4609078)
(261.17256 1.1894951e-15 -4.2680725)
(260.88206 -4.0346511e-17 -3.3971133)
(260.69718 -1.255668e-15 -2.7963921)
(260.65227 0 -2.2403231)
(261.14406 2.7492407e-15 -1.6357963)
(261.72242 -2.0024726e-15 -1.0152354)
(261.91569 2.2719861e-17 -0.60636048)
(261.8524 1.0369835e-15 -0.45246083)
(261.40085 1.548542e-15 -0.42170323)
(261.18023 1.1606065e-20 -0.3932823)
(261.10871 2.9723895e-21 -0.30411265)
(261.09836 -9.0234523e-18 -0.18695206)
(261.19766 8.2629718e-16 -0.081928496)
(261.25913 9.5836646e-18 -0.0092302989)
(261.2871 -4.4428441e-16 0.031139786)
(211.68288 0 -21.971847)
(248.87354 4.6455148e-18 -25.253476)
(273.24651 0 -28.04716)
(293.46584 0 -30.070502)
(307.82159 -3.3854118e-16 -32.279909)
(313.3462 8.9184903e-18 -32.078991)
(311.31394 2.3123581e-16 -33.091869)
(312.44501 -2.050071e-16 -31.672417)
(311.1261 -2.3174264e-19 -33.29671)
(311.49764 1.2431653e-16 -31.625192)
(310.4872 1.1867839e-16 -33.169595)
(310.30199 -1.231509e-16 -31.787051)
(309.3491 0 -32.8793)
(308.68008 -6.8458157e-17 -31.968855)
(307.57048 1.136984e-16 -32.552607)
(306.41789 4.7498936e-17 -32.025608)
(304.94687 3.9369932e-17 -32.213229)
(303.24474 -1.6296215e-16 -31.867495)
(301.22167 8.0757628e-17 -31.76597)
(298.85889 -1.5694619e-16 -31.39191)
(296.13208 0 -31.003515)
(293.02491 -3.0662099e-17 -30.388621)
(289.56587 2.5131062e-16 -29.586091)
(285.81291 -6.7896897e-16 -28.484975)
(281.88988 3.3831779e-17 -27.058243)
(277.96502 4.092919e-16 -25.263032)
(274.23798 0 -23.124625)
(270.88708 -5.6890305e-16 -20.712266)
(268.04085 -4.5139775e-16 -18.142535)
(265.76196 1.4291672e-15 -15.545104)
(264.0276 0 -13.047793)
(262.6872 -8.9736112e-16 -10.774382)
(261.73928 2.086964e-17 -8.7888837)
(261.24163 0 -7.0144444)
(261.02592 -2.3166621e-15 -5.4741862)
(260.94273 0 -4.2816206)
(260.71158 0 -3.4125494)
(260.59481 1.2581394e-15 -2.8060636)
(260.5947 1.4689295e-17 -2.2218793)
(261.22614 -1.3747571e-15 -1.6144943)
(261.75048 9.6898754e-16 -1.0022848)
(261.89578 -1.428199e-15 -0.60787605)
(261.77532 -1.049622e-15 -0.46616058)
(261.33927 -1.5170281e-15 -0.4400136)
(261.1393 0 -0.39959397)
(261.08395 1.5934514e-15 -0.30563299)
(261.09115 -8.9274866e-18 -0.18474018)
(261.19691 0 -0.07765577)
(261.25866 0 -0.0070286249)
(261.28687 -8.8349165e-16 0.032309281)
(212.20764 8.2326286e-16 -23.07753)
(249.55457 0 -26.517663)
(274.0442 7.760777e-18 -29.462473)
(294.40703 0 -31.587839)
(307.92267 0 -33.832367)
(312.81412 -9.3119238e-18 -33.4762)
(310.73932 -2.3520769e-16 -34.596734)
(311.88463 2.0799765e-16 -33.069607)
(310.52586 -2.16984e-17 -34.79133)
(310.89465 -1.6269533e-16 -33.041508)
(309.85047 -3.0410424e-17 -34.64444)
(309.6439 2.0043048e-16 -33.223348)
(308.6576 -1.250998e-16 -34.333467)
(307.95038 0 -33.414771)
(306.7983 -5.7888963e-17 -33.990913)
(305.59148 -4.8028437e-17 -33.465235)
(304.06064 0 -33.634239)
(302.28594 1.3220686e-16 -33.281897)
(300.18126 8.2402116e-17 -33.152502)
(297.72587 2.0403626e-16 -32.751511)
(294.89845 0 -32.315155)
(291.68722 0 -31.639179)
(288.12889 -2.0341913e-16 -30.750182)
(284.29489 6.4779078e-16 -29.538651)
(280.32474 -2.2253113e-16 -27.975592)
(276.40154 -4.4466956e-16 -26.026107)
(272.73224 -4.4776371e-17 -23.727067)
(269.49305 5.9182552e-16 -21.162452)
(266.80193 4.5863141e-16 -18.459942)
(264.69979 -7.2132037e-16 -15.75646)
(263.12844 5.6601246e-16 -13.183866)
(261.93937 8.7579794e-16 -10.85513)
(261.18217 2.1073537e-17 -8.8299857)
(260.83518 1.0438315e-15 -7.0274736)
(260.72151 2.2793372e-15 -5.4721103)
(260.70826 -4.5865666e-21 -4.2825153)
(260.54141 8.5276987e-16 -3.4179981)
(260.48527 2.0006634e-17 -2.8066777)
(260.55216 9.1156075e-16 -2.1975204)
(261.2909 2.1500382e-17 -1.5870677)
(261.77063 9.986152e-16 -0.99179652)
(261.87883 2.2614853e-17 -0.61389364)
(261.69683 -1.6338828e-17 -0.47902312)
(261.27866 1.5095612e-15 -0.45635363)
(261.09739 1.0878256e-15 -0.40440904)
(261.05318 -1.5917171e-15 -0.30470388)
(261.08609 1.7661853e-17 -0.1817473)
(261.19646 0 -0.073214253)
(261.25831 0 -0.0047868538)
(261.28668 1.1823784e-21 0.033492754)
(212.67866 1.2915498e-19 -24.205801)
(250.16866 2.1370256e-19 -27.805625)
(274.7636 -7.6796338e-18 -30.903648)
(295.29534 -4.2161475e-16 -33.135203)
(307.85517 1.1290062e-17 -35.3937)
(312.155 0 -34.884794)
(310.08363 2.3888569e-16 -36.122155)
(311.24351 -1.8481592e-16 -34.483476)
(309.8448 0 -36.302319)
(310.21048 -1.2858218e-16 -34.473178)
(309.13268 1.5275353e-16 -36.131397)
(308.90329 0 -34.673708)
(307.88292 1.6970549e-16 -35.797659)
(307.13523 2.4561549e-19 -34.873136)
(305.93858 0 -35.438328)
(304.67445 1.4661154e-16 -34.914615)
(303.08036 -8.0905071e-17 -35.062312)
(301.22922 -1.682485e-16 -34.701697)
(299.03868 2.8411525e-17 -34.541128)
(296.48649 -2.29617e-17 -34.108973)
(293.55478 1.9132438e-16 -33.618956)
(290.23735 -3.1262957e-17 -32.874314)
(286.5805 2.6048488e-17 -31.889544)
(282.67064 -1.9279576e-17 -30.5569)
(278.6639 2.7653271e-16 -28.846967)
(274.75776 4.7754933e-16 -26.734602)
(271.16517 -2.2568116e-17 -24.269981)
(268.05806 -1.8278054e-17 -21.552589)
(265.53879 -4.4791134e-16 -18.72102)
(263.61934 7.3147013e-16 -15.918308)
(262.21111 -1.1591701e-15 -13.276669)
(261.19996 -1.3865826e-17 -10.900712)
(260.63821 2.1188727e-17 -8.8424746)
(260.42908 -1.0003138e-15 -7.0183539)
(260.42143 7.3196674e-16 -5.4558903)
(260.47229 1.8248297e-17 -4.2713083)
(260.37062 -8.6812495e-16 -3.4137725)
(260.35748 0 -2.7946578)
(260.52133 -9.4128272e-16 -2.1665192)
(261.33275 -1.372698e-15 -1.5530106)
(261.7789 -2.9906236e-15 -0.98140995)
(261.86105 -1.442966e-15 -0.62361207)
(261.61465 -2.0835222e-15 -0.49247934)
(261.22021 -1.5010117e-15 -0.47144988)
(261.05511 -2.1601361e-15 -0.40811162)
(261.0196 -1.5535235e-15 -0.30160364)
(261.08274 -1.7460271e-17 -0.17766634)
(261.19631 -1.5987734e-15 -0.068643831)
(261.25809 9.1032458e-18 -0.0025152584)
(261.28652 8.4017315e-16 0.034685632)
(213.09193 -8.5144406e-16 -25.349253)
(250.71784 -2.2993273e-19 -29.10718)
(275.40298 5.145121e-16 -32.362816)
(296.12202 -6.8001666e-18 -34.704151)
(307.62059 -1.1453547e-17 -36.962359)
(311.49145 -3.0820706e-16 -36.304181)
(309.3501 5.3348606e-16 -37.659869)
(310.52503 -4.8317962e-16 -35.906443)
(309.08616 1.7909457e-16 -37.82372)
(309.44788 0 -35.915968)
(308.33613 0 -37.627584)
(308.08182 -5.17836e-17 -36.136489)
(307.02619 -4.3298944e-17 -37.270595)
(306.23522 -6.2378368e-20 -36.343013)
(304.99153 5.3990814e-20 -36.893922)
(303.66672 -1.4835351e-16 -36.372671)
(302.00569 -2.8450142e-19 -36.496276)
(300.07405 1.3640661e-16 -36.125331)
(297.79324 -2.2659053e-16 -35.929954)
(295.14006 -2.3514733e-16 -35.461818)
(292.10056 -2.7158297e-16 -34.911771)
(288.67538 -2.5641302e-16 -34.090049)
(284.92184 -1.8447399e-16 -32.999362)
(280.94289 -3.8698684e-16 -31.534269)
(276.91193 2.996928e-16 -29.666742)
(273.04031 0 -27.383318)
(269.54539 -7.3895377e-16 -24.749182)
(266.59116 6.0994343e-16 -21.879997)
(264.25696 -9.5362593e-16 -18.924519)
(262.52262 -1.4758237e-15 -16.029998)