/*--------------------------------*- C++ -*----------------------------------*\
  =========                 |
  \\      /  F ield         | OpenFOAM: The Open Source CFD Toolbox
   \\    /   O peration     | Website:  https://openfoam.org
    \\  /    A nd           | Version:  8
     \\/     M anipulation  |
\*---------------------------------------------------------------------------*/
FoamFile
{
    version     2.0;
    format      ascii;
    class       volVectorField;
    location    "0.0399893";
    object      wallShearStress;
}
// * * * * * * * * * * * * * * * * * * * * * * * * * * * * * * * * * * * * * //

dimensions      [1 -1 -2 0 0 0 0];

internalField   uniform (0 0 0);

boundaryField
{
    aerofoil
    {
        type            calculated;
        value           nonuniform List<vector> 
300
(
(-133.49025 6.3202694e-21 8.2503766)
(-133.67471 9.2185763e-23 8.7708696)
(-135.22745 -2.2140677e-16 9.4218559)
(-136.57851 9.0541473e-19 10.07853)
(-137.92249 2.3028716e-16 10.754575)
(-139.21922 -2.3858145e-16 11.450469)
(-140.48348 -6.1072332e-20 12.16391)
(-141.69066 4.9956106e-16 12.893158)
(-142.87581 -5.0698643e-16 13.643579)
(-144.05354 -2.0329981e-18 14.415222)
(-145.19744 -5.3445693e-16 15.206581)
(-146.30591 2.2532508e-18 16.01548)
(-147.37949 5.5598855e-16 16.846234)
(-148.41363 -1.3354731e-19 17.693858)
(-149.42358 -5.802765e-16 18.563994)
(-150.39549 3.9456805e-20 19.455732)
(-151.3172 6.0573473e-16 20.36431)
(-152.19628 4.8325628e-18 21.294472)
(-153.02289 -6.3573168e-16 22.241521)
(-153.80232 -6.4363359e-16 23.209332)
(-154.52594 -6.5684833e-16 24.197874)
(-155.18209 6.7031806e-16 25.204213)
(-155.76641 -6.7760654e-16 26.230858)
(-156.27931 6.8611147e-16 27.275536)
(-156.73902 1.1109958e-17 28.349593)
(-157.13753 2.1032805e-20 29.446195)
(-157.50301 -5.9760775e-18 30.571951)
(-157.85009 7.5418571e-16 31.734707)
(-158.17503 3.8467837e-16 32.93322)
(-158.48056 -7.8446773e-16 34.172493)
(-158.7878 3.9987496e-16 35.459081)
(-159.10568 -8.1538999e-16 36.796328)
(-159.40805 -4.1549401e-16 38.183341)
(-159.696 6.3555688e-33 39.62674)
(-159.95627 1.3713328e-17 41.129053)
(-160.15382 -4.5247646e-16 42.68121)
(-160.24752 4.3415498e-16 44.277608)
(-160.25442 1.4230982e-17 45.932714)
(-160.18076 -7.4176583e-19 47.655507)
(-160.0228 -4.5868401e-16 49.451356)
(-159.78941 -1.613508e-17 51.330239)
(-159.50845 3.3621109e-20 53.300113)
(-159.20987 4.9824023e-16 55.361347)
(-158.79264 1.6007917e-17 57.496187)
(-158.19978 -3.2985295e-17 59.693494)
(-157.41131 2.0089833e-17 61.964371)
(-156.36168 -5.6378524e-16 64.294431)
(-155.02448 5.6325003e-16 66.694795)
(-153.36143 5.5421036e-16 69.194007)
(-151.33424 -1.7718555e-32 71.79221)
(-148.91144 1.7314176e-17 74.452707)
(-146.07468 -2.0310138e-17 77.148969)
(-142.81514 -6.112588e-16 79.928102)
(-139.11429 3.1942337e-17 82.750442)
(-135.02318 -5.8552636e-18 85.602461)
(-130.65277 -6.5077966e-16 88.432981)
(-126.22372 4.01162e-17 91.189631)
(-121.73216 -4.7695192e-17 93.745535)
(-116.88992 2.044732e-17 95.94861)
(-111.48516 -2.9702827e-18 97.671489)
(-105.34497 1.0637326e-17 98.758566)
(-98.46106 6.7279129e-16 99.098451)
(-90.755326 -6.8330606e-16 98.4333)
(-82.060638 7.2306064e-16 96.495175)
(-72.454623 -7.3892752e-16 93.078402)
(-62.054415 1.1072046e-17 87.800778)
(-51.13203 -7.7037198e-34 80.399118)
(-40.074336 4.3784814e-34 70.56911)
(-29.272299 -7.5552915e-19 58.184842)
(-18.485719 -3.3761544e-16 43.299804)
(-9.6718701 -3.058531e-16 26.644384)
(-4.479419 -2.6289033e-16 11.6153)
(-1.5901201 9.0474601e-17 2.4818466)
(-0.96661853 7.9501079e-17 -1.5863629)
(-1.7903343 4.3594446e-18 -10.789105)
(-18.484676 6.6269711e-16 -2.8941052)
(-33.783923 -6.2972184e-16 -2.6374792)
(-36.747808 -6.4200456e-16 -3.0003774)
(-40.816902 1.3200335e-15 -3.2763463)
(-43.87535 -6.7109411e-16 -3.456003)
(-46.747399 -3.1156391e-19 -3.6116757)
(-49.266478 6.8834405e-16 -3.7314705)
(-51.576961 1.3902562e-15 -3.8286754)
(-53.684723 0 -3.9043402)
(-55.630903 3.528181e-16 -3.9637278)
(-57.436794 3.5485385e-16 -4.0081941)
(-59.118019 1.4676427e-19 -4.0394673)
(-60.691185 -7.1625596e-16 -4.0600783)
(-62.176032 3.5994723e-16 -4.0716107)
(-63.58169 -3.6079809e-16 -4.0744206)
(-64.915637 1.3780431e-21 -4.0703786)
(-66.193348 -7.2615333e-16 -4.0600302)
(-67.42419 -2.5523094e-19 -4.0435574)
(-68.612921 -2.5713246e-19 -4.0224191)
(-69.764753 2.590268e-19 -3.9963288)
(-70.879094 -3.6630278e-16 -3.9661842)
(-71.961665 -3.6699845e-16 -3.9311587)
(-73.015274 3.6764559e-16 -3.8927355)
(-74.047936 -4.2352061e-20 -3.8497961)
(-75.059522 -2.7112377e-19 -3.8038608)
(-76.054781 3.6939825e-16 -3.7536681)
(-77.031023 -3.6991253e-16 -3.7007775)
(-77.993643 -3.7041605e-16 -3.6434036)
(-78.940077 2.8253326e-21 -3.5830738)
(-79.87597 -3.7133841e-16 -3.5185143)
(-80.800129 -3.7148447e-16 -3.4502734)
(-81.722831 3.7217403e-16 -3.3799494)
(-82.651653 -3.7258291e-16 -3.304997)
(-83.57699 -2.6729763e-19 -3.2263404)
(-84.499655 3.7305943e-16 -3.1438587)
(-85.420632 -2.5045414e-25 -3.0577794)
(-86.342627 7.4812183e-16 -2.967263)
(-87.264968 3.7441166e-16 -2.8723319)
(-88.187966 3.7475936e-16 -2.7722903)
(-89.110546 3.7480135e-16 -2.6680826)
(-90.03678 -1.8787089e-16 -2.5584718)
(-90.966034 1.4996111e-19 -2.4433857)
(-91.898797 -1.879136e-16 -2.3225633)
(-92.838395 1.8824193e-16 -2.1964943)
(-93.793119 3.7653323e-16 -2.0634915)
(-94.763586 1.5712067e-19 -1.924535)
(-95.751476 1.8899332e-16 -1.7786883)
(-96.750728 1.8922636e-16 -1.6254122)
(-97.757601 1.5677396e-19 -1.4646856)
(-98.772243 1.7561959e-19 -1.2970685)
(-99.796965 -1.6473433e-19 -1.120794)
(-100.82805 -8.5813266e-21 -0.93491148)
(-101.86712 1.9066483e-16 -0.74089106)
(-102.92355 -9.550638e-17 -0.53663247)
(-103.99994 9.5428971e-17 -0.3209507)
(-105.09768 -1.8457001e-19 -0.094939024)
(-106.22123 -9.7008803e-39 0.14123036)
(-107.37144 -3.1395661e-25 0.38461152)
(-108.54796 -4.8057767e-17 0.6378679)
(-109.74764 -6.0185311e-36 0.91374526)
(-110.96988 2.2007559e-19 1.2305165)
(-112.20984 -1.1996633e-17 1.5486855)
(-113.46695 6.0056144e-18 1.8900625)
(-114.73502 -6.4724946e-20 2.2534075)
(-116.01513 -4.8198806e-17 2.6121095)
(-117.3053 9.6452514e-17 2.9831465)
(-118.6145 8.4726999e-20 3.3787842)
(-119.95346 9.6626244e-17 3.7982145)
(-121.32433 1.1816397e-20 4.2411243)
(-122.73394 -1.935407e-16 4.7097234)
(-124.17379 -3.8765352e-16 5.2054976)
(-125.63018 -4.7937447e-20 5.7285367)
(-127.10193 -2.2500432e-20 6.2859229)
(-128.62269 -2.4201044e-20 6.8844188)
(-131.60129 1.9434377e-16 7.6001959)
(-157.56064 -1.4613454e-22 8.5447002)
(-159.90388 1.6784963e-16 8.0385866)
(-160.64207 1.7055725e-16 7.4234396)
(-161.43753 1.7565967e-16 6.7925391)
(-162.20581 1.3485151e-18 6.1476817)
(-162.983 7.2445891e-19 5.4935277)
(-163.74943 -1.5657642e-18 4.8396631)
(-164.51294 4.826982e-17 4.1297639)
(-165.27596 -2.4662557e-17 3.3280135)
(-166.05342 -1.1643845e-21 2.5533845)
(-166.81 -1.7701017e-19 1.7434993)
(-167.56298 1.3089197e-19 0.9097612)
(-168.32779 2.720912e-17 0.1254823)
(-169.07685 5.8406435e-17 -0.65959928)
(-169.82153 5.2959091e-17 -1.4800876)
(-170.56338 -3.3987556e-18 -2.3278486)
(-171.29239 7.3399547e-18 -3.1995183)
(-172.02458 -1.2373941e-16 -4.0970176)
(-172.74075 1.2221805e-16 -5.0184774)
(-173.45486 -1.2501668e-16 -5.966663)
(-174.15715 4.0026541e-18 -6.9411514)
(-174.84004 1.2211393e-16 -7.946682)
(-175.52615 4.1807361e-18 -8.9902243)
(-176.19614 -4.2457701e-18 -10.060858)
(-176.86435 4.257844e-18 -11.167466)
(-177.49874 -7.2130516e-21 -12.303086)
(-178.11024 -1.2964917e-19 -13.472688)
(-178.70272 -2.930284e-16 -14.681375)
(-179.25049 -2.9891409e-16 -15.925968)
(-179.77409 -6.5481618e-33 -17.214759)
(-180.27003 1.7176366e-19 -18.549934)
(-180.74918 9.9231823e-18 -19.935269)
(-181.22963 -1.0053705e-17 -21.375109)
(-181.72954 -1.0314749e-17 -22.877208)
(-182.26258 -4.3840479e-20 -24.451375)
(-182.82301 3.5224111e-16 -26.101389)
(-183.4136 -1.0899498e-17 -27.830389)
(-184.06682 -3.4450725e-16 -29.649263)
(-184.75556 3.5242983e-16 -31.567455)
(-185.46466 3.7900074e-16 -33.594419)
(-186.17526 -1.0058325e-17 -35.737179)
(-186.87305 -3.7144419e-16 -38.001145)
(-187.51553 3.2670138e-18 -40.387453)
(-188.06516 3.9874855e-16 -42.90487)
(-188.52176 -7.3367796e-20 -45.572404)
(-188.9408 4.136655e-16 -48.421314)
(-189.27879 8.4675291e-16 -51.438972)
(-189.52822 8.5992163e-16 -54.650622)
(-189.66459 3.9320646e-18 -58.062301)
(-189.52972 8.9162019e-16 -61.655695)
(-189.0575 -4.5427093e-16 -65.44544)
(-188.10715 -1.4522934e-17 -69.381039)
(-186.54767 4.7720634e-16 -73.503701)
(-184.2667 -1.4438253e-17 -77.839244)
(-181.19842 2.3211387e-17 -82.425662)
(-177.28372 4.9209076e-16 -87.285093)
(-172.45892 -1.5488736e-17 -92.478034)
(-166.76993 8.5109224e-18 -98.115814)
(-160.32032 -5.3388817e-16 -104.3034)
(-153.56364 1.0730008e-15 -110.94626)
(-147.55029 -1.6631803e-17 -117.85662)
(-142.44603 5.5468409e-16 -124.89017)
(-137.43633 5.8313711e-16 -131.76247)
(-131.60674 5.7392879e-16 -138.06347)
(-124.19705 -1.7833795e-17 -143.06825)
(-114.96319 6.2340072e-16 -146.3542)
(-103.94988 -6.0592965e-16 -147.51145)
(-90.872059 -9.6711763e-18 -145.65724)
(-76.034088 1.7127061e-18 -140.00782)
(-60.143498 3.2852528e-16 -130.02165)
(-44.083274 -5.3052638e-18 -115.22235)
(-29.054969 -6.6981758e-16 -95.905929)
(-16.699463 -1.667566e-16 -73.341454)
(-8.6049142 -1.0642455e-18 -49.123556)
(-3.8464721 -2.9611396e-19 -25.618726)
(-26.622229 1.0210309e-15 4.4463678)
(-27.995136 4.3526017e-32 5.7225392)
(-31.866343 1.3090641e-15 6.4775229)
(-35.574683 0 7.1616186)
(-38.766213 -1.3735409e-15 7.7297967)
(-41.689839 -2.7909644e-15 8.2358779)
(-44.332006 -3.7301568e-20 8.6786597)
(-46.760415 2.7119492e-21 9.0731091)
(-48.992797 7.1888141e-16 9.4232114)
(-51.05573 -7.2335647e-16 9.736484)
(-52.971785 -7.27827e-16 10.016725)
(-54.75347 -1.4615501e-15 10.266898)
(-56.413383 1.3142498e-25 10.49097)
(-57.96631 7.3630153e-16 10.692249)
(-59.420187 -7.3776414e-16 10.871293)
(-60.779715 7.3922268e-16 11.030763)
(-62.054145 -1.2213123e-19 11.172206)
(-63.248736 -9.9339102e-37 11.29623)
(-64.37043 -1.2003475e-25 11.405681)
(-65.433416 1.3807999e-19 11.501986)
(-66.445984 -7.4248817e-16 11.587723)
(-67.412123 7.4256087e-16 11.662403)
(-68.329423 2.7604317e-25 11.727551)
(-69.202979 -7.4209317e-16 11.782058)
(-70.032871 -1.4180396e-21 11.82792)
(-70.823741 9.5508916e-38 11.864081)
(-71.573849 7.4113739e-16 11.892535)
(-72.287714 -1.5744754e-25 11.911661)
(-72.9626 7.0366547e-22 11.923115)
(-73.601428 -3.1667275e-19 11.925761)
(-74.198186 -1.4746767e-15 11.919799)
(-74.760557 7.3632368e-16 11.907556)
(-75.299122 -3.5108056e-22 11.887672)
(-75.813637 -3.1311864e-19 11.861426)
(-76.303249 -1.9363113e-19 11.828972)
(-76.761877 -3.1321485e-19 11.789647)
(-77.187057 7.2956169e-16 11.742262)
(-77.574239 -6.954229e-22 11.686324)
(-77.916578 -6.9131849e-22 11.620703)
(-78.210321 7.2395312e-16 11.545895)
(-78.457039 -1.0541418e-19 11.461222)
(-78.654656 1.0513438e-19 11.366513)
(-78.802403 1.5375353e-19 11.261884)
(-78.902827 -1.9144768e-25 11.148116)
(-78.943168 -2.6173431e-19 11.022505)
(-78.894557 1.1399036e-19 10.882724)
(-78.730474 1.458356e-19 10.724826)
(-78.428286 1.1357489e-19 10.546363)
(-77.980238 1.1663573e-19 10.348409)
(-77.419156 -6.9593891e-16 10.136662)
(-76.823956 -1.1288952e-19 9.9185885)
(-76.293876 -2.9131404e-20 9.7036164)
(-75.880947 2.4094555e-20 9.4938116)
(-75.38246 -1.1395861e-19 9.263847)
(-74.140219 -1.2575556e-19 8.9581003)
(-71.603555 -6.6425553e-16 8.5174475)
(-67.800217 1.0052266e-19 7.9482931)
(-62.554259 1.2722206e-15 7.2576774)
(-55.998315 -6.141792e-16 6.4448397)
(-49.035719 5.881324e-16 5.5888938)
(-42.464438 7.9205576e-20 4.7973013)
(-38.617107 -5.3381383e-16 4.2584536)
(-41.892103 -2.656594e-16 4.3725845)
(-56.61173 -2.7850771e-16 5.5128666)
(-81.463405 -2.9384841e-16 7.4803832)
(-108.0142 2.8748777e-20 9.5712248)
(-128.9309 -3.013835e-16 11.126698)
(-142.09861 3.0174896e-16 11.891324)
(-148.78396 0 12.040914)
(-152.40448 -6.0326462e-16 11.833866)
(-154.43581 -3.018365e-16 11.45103)
(-155.8187 -3.0218743e-16 10.977466)
(-156.93053 -4.6304998e-20 10.448917)
(-157.95632 3.2401455e-21 9.8874384)
(-157.1191 -3.0301987e-16 9.1706719)
)
;
    }
    inlet
    {
        type            calculated;
        value           uniform (0 0 0);
    }
    outlet
    {
        type            calculated;
        value           uniform (0 0 0);
    }
    back
    {
        type            empty;
    }
    front
    {
        type            empty;
    }
}


// ************************************************************************* //
