/*--------------------------------*- C++ -*----------------------------------*\
  =========                 |
  \\      /  F ield         | OpenFOAM: The Open Source CFD Toolbox
   \\    /   O peration     | Website:  https://openfoam.org
    \\  /    A nd           | Version:  8
     \\/     M anipulation  |
\*---------------------------------------------------------------------------*/
FoamFile
{
    version     2.0;
    format      ascii;
    class       volScalarField;
    location    "0.0399893";
    object      yPlus;
}
// * * * * * * * * * * * * * * * * * * * * * * * * * * * * * * * * * * * * * //

dimensions      [0 0 0 0 0 0 0];

internalField   uniform 0;

boundaryField
{
    aerofoil
    {
        type            calculated;
        value           nonuniform List<scalar> 
300
(
132.20562
131.70719
131.50584
131.23245
131.00079
130.77827
130.58625
130.40103
130.23722
130.10705
129.99919
129.90769
129.83809
129.78072
129.74669
129.73412
129.73091
129.74382
129.76452
129.79578
129.83518
129.87423
129.91547
129.94884
129.99374
130.04049
130.0988
130.18031
130.28109
130.40244
130.55401
130.7395
130.94544
131.17117
131.41689
131.67126
131.91052
132.14047
132.36855
132.59572
132.82459
133.07164
133.34703
133.62463
133.86224
134.07532
134.22615
134.3164
134.34619
134.31265
134.2109
134.03771
133.81676
133.54764
133.26938
133.03129
132.92592
132.98477
133.04266
133.02972
132.80359
132.33869
131.54483
130.18639
128.11956
125.06135
120.67915
114.39876
105.41854
92.240204
73.474029
49.551226
23.897725
18.151812
47.149348
62.869597
74.163331
77.104392
81.036574
83.763058
86.24321
88.319738
90.164578
91.794037
93.257217
94.579924
95.783102
96.883072
97.900461
98.84573
99.726309
100.55467
101.34069
102.08741
102.80104
103.4808
104.13324
104.7585
105.36493
105.95047
106.52136
107.07372
107.61384
108.13777
108.65158
109.15328
109.64771
110.14283
110.63134
111.11406
111.59079
112.06357
112.53232
112.99787
113.45821
113.91701
114.37372
114.82857
115.28245
115.74113
116.20348
116.67173
117.14227
117.61265
118.08173
118.55191
119.02251
119.49303
119.96893
120.45182
120.94137
121.44071
121.94912
122.46799
122.99482
123.53136
124.07105
124.61726
125.16494
125.71529
126.26603
126.82177
127.38972
127.97029
128.56794
129.18143
129.8019
130.43137
131.07115
131.88538
123.29164
123.04874
122.5875
122.2042
121.84209
121.52433
121.23516
120.98042
120.75509
120.57033
120.40789
120.27161
120.17107
120.09084
120.03594
120.00943
120.00097
120.02016
120.05458
120.11345
120.19393
120.28649
120.40452
120.53195
120.68714
120.84992
121.0218
121.21079
121.40045
121.60331
121.81719
122.04771
122.29927
122.57704
122.8916
123.24417
123.63274
124.06823
124.54363
125.05854
125.60617
126.1883
126.78814
127.40509
128.01826
128.67619
129.35375
130.06557
130.81395
131.54947
132.26201
132.90052
133.44787
133.88739
134.23577
134.50531
134.7094
134.95648
135.32908
136.06749
137.53898
139.86411
142.80132
146.05355
149.17452
151.93297
154.24897
155.54039
155.25614
152.7587
146.93098
136.81525
121.66713
100.56612
72.730883
58.121572
68.095673
72.481146
76.37107
79.485144
82.200553
84.539668
86.602793
88.429358
90.058873
91.524505
92.846492
94.042332
95.130291
96.122052
97.025221
97.849652
98.60312
99.291174
99.927139
100.51746
101.0679
101.57571
102.04748
102.4819
102.88498
103.25377
103.59446
103.90345
104.18543
104.4354
104.65797
104.86117
105.04409
105.2074
105.34737
105.46204
105.54969
105.60559
105.62716
105.6157
105.57046
105.48804
105.37261
105.21754
105.00607
104.7207
104.34831
103.88039
103.32938
102.73887
102.16238
101.63543
101.05782
100.08795
98.307155
95.632282
91.952285
87.037558
81.446274
75.69142
71.714606
73.64997
83.16493
96.072187
106.72731
113.67752
117.97458
119.95552
121.13477
121.79137
122.28788
122.71337
123.11998
123.36803
)
;
    }
    inlet
    {
        type            calculated;
        value           uniform 0;
    }
    outlet
    {
        type            calculated;
        value           uniform 0;
    }
    back
    {
        type            empty;
    }
    front
    {
        type            empty;
    }
}


// ************************************************************************* //
