/*--------------------------------*- C++ -*----------------------------------*\
  =========                 |
  \\      /  F ield         | OpenFOAM: The Open Source CFD Toolbox
   \\    /   O peration     | Website:  https://openfoam.org
    \\  /    A nd           | Version:  8
     \\/     M anipulation  |
\*---------------------------------------------------------------------------*/
FoamFile
{
    version     2.0;
    format      ascii;
    class       volScalarField;
    location    "0.0699881";
    object      alphat;
}
// * * * * * * * * * * * * * * * * * * * * * * * * * * * * * * * * * * * * * //

dimensions      [1 -1 -1 0 0 0 0];

internalField   nonuniform List<scalar> 
20000
(
0.0010846081
0.0024575592
0.0030604483
0.0030003002
0.0021390119
0.00046923839
9.128199e-08
5.8617433e-09
5.4252424e-09
5.4104732e-09
5.2801775e-09
5.3139418e-09
5.2369661e-09
5.2824005e-09
5.2839841e-09
5.3301558e-09
5.3625327e-09
5.4228371e-09
5.4858578e-09
5.5721743e-09
5.6698967e-09
5.7901251e-09
5.9305822e-09
6.1032766e-09
6.2972549e-09
6.5177211e-09
6.7573851e-09
7.0142044e-09
7.2771941e-09
7.5359206e-09
7.7793364e-09
7.9989068e-09
8.1885936e-09
8.3460543e-09
8.4717541e-09
8.5680728e-09
8.6378587e-09
8.6911917e-09
8.7299366e-09
8.7509312e-09
8.7592105e-09
8.7617579e-09
8.7586463e-09
8.7432563e-09
8.7229383e-09
8.6716144e-09
8.6265546e-09
8.6039452e-09
8.5963207e-09
8.5991637e-09
0.0010694221
0.0023950763
0.0029526131
0.0028545805
0.0019157839
0.00035287763
3.4335254e-08
5.7806759e-09
5.3726883e-09
5.3621384e-09
5.2357552e-09
5.2713124e-09
5.1957282e-09
5.2422592e-09
5.2452167e-09
5.2928025e-09
5.3270579e-09
5.3891838e-09
5.4540672e-09
5.5420176e-09
5.6420379e-09
5.7666658e-09
5.9150762e-09
6.0945926e-09
6.2961736e-09
6.5202605e-09
6.7667076e-09
7.0283164e-09
7.294881e-09
7.5552285e-09
7.7983697e-09
8.0161742e-09
8.2032491e-09
8.3578928e-09
8.4809527e-09
8.5747166e-09
8.6428645e-09
8.6967781e-09
8.7332462e-09
8.752648e-09
8.7605269e-09
8.7628155e-09
8.759101e-09
8.7443969e-09
8.7211415e-09
8.6667753e-09
8.6251674e-09
8.6044066e-09
8.5966082e-09
8.5995237e-09
0.0010567993
0.0023380204
0.0028464666
0.0027034237
0.0016889044
0.00024650746
1.6530853e-08
5.7139992e-09
5.3255892e-09
5.318018e-09
5.195741e-09
5.2326318e-09
5.1584711e-09
5.2057662e-09
5.2103699e-09
5.2592741e-09
5.2952179e-09
5.3588002e-09
5.4252878e-09
5.5152235e-09
5.6193541e-09
5.7524956e-09
5.909859e-09
6.0940763e-09
6.2977651e-09
6.5289352e-09
6.7811288e-09
7.0479045e-09
7.3178011e-09
7.5793332e-09
7.8216101e-09
8.0369669e-09
8.2207586e-09
8.3719612e-09
8.4918001e-09
8.582585e-09
8.6491131e-09
8.7032331e-09
8.7377073e-09
8.7551683e-09
8.7623308e-09
8.7645792e-09
8.7599507e-09
8.7453065e-09
8.7179501e-09
8.6597984e-09
8.6230665e-09
8.6050036e-09
8.5983361e-09
8.5997878e-09
0.001044306
0.0022831508
0.0027480166
0.0025551198
0.0014701312
0.00015522845
1.0293817e-08
5.6538501e-09
5.2814889e-09
5.2772303e-09
5.1590722e-09
5.1975369e-09
5.1249421e-09
5.1732194e-09
5.1794433e-09
5.2295696e-09
5.2669922e-09
5.331867e-09
5.4006995e-09
5.4945825e-09
5.6070645e-09
5.747308e-09
5.9085293e-09
6.0944131e-09
6.3063565e-09
6.5442449e-09
6.8030283e-09
7.0746888e-09
7.3474474e-09
7.6094492e-09
7.8500188e-09
8.062064e-09
8.2417388e-09
8.3887587e-09
8.5046769e-09
8.5919795e-09
8.6569886e-09
8.7098422e-09
8.7418464e-09
8.757738e-09
8.7641918e-09
8.7661781e-09
8.7609887e-09
8.7456385e-09
8.7125511e-09
8.6557462e-09
8.6219178e-09
8.6054854e-09
8.5988984e-09
8.6000679e-09
0.0010320624
0.0022294006
0.0026513252
0.0024103581
0.0012613784
7.9996844e-05
7.7768571e-09
5.6005177e-09
5.2420366e-09
5.2409356e-09
5.1267075e-09
5.1667387e-09
5.0956604e-09
5.1448293e-09
5.1526159e-09
5.2038168e-09
5.2427709e-09
5.3096801e-09
5.3826004e-09
5.4843739e-09
5.6024864e-09
5.7461917e-09
5.9098046e-09
6.1027001e-09
6.3213184e-09
6.5665759e-09
6.8317014e-09
7.1080812e-09
7.3831773e-09
7.6449165e-09
7.8829386e-09
8.0908328e-09
8.265625e-09
8.4077913e-09
8.5191704e-09
8.6026258e-09
8.6662e-09
8.7167118e-09
8.7462634e-09
8.7604602e-09
8.7661879e-09
8.7679802e-09
8.7623518e-09
8.7457503e-09
8.7061856e-09
8.6519318e-09
8.6208472e-09
8.605735e-09
8.5995557e-09
8.6003176e-09
0.0010200611
0.0021772878
0.0025568078
0.0022663526
0.0010652164
3.0619818e-05
6.6507634e-09
5.5524321e-09
5.2068162e-09
5.2088346e-09
5.0984471e-09
5.1400947e-09
5.0706092e-09
5.1206628e-09
5.1299604e-09
5.1825465e-09
5.2241127e-09
5.2958748e-09
5.3753155e-09
5.4806984e-09
5.6017279e-09
5.7477843e-09
5.9179726e-09
6.1171039e-09
6.3435732e-09
6.596202e-09
6.8677506e-09
7.1484782e-09
7.4252721e-09
7.6859075e-09
7.9204635e-09
8.123324e-09
8.2924523e-09
8.4290838e-09
8.5352915e-09
8.6145391e-09
8.6765142e-09
8.7238715e-09
8.7507373e-09
8.763289e-09
8.7682497e-09
8.7698098e-09
8.7639778e-09
8.745697e-09
8.6995786e-09
8.648817e-09
8.6199534e-09
8.6058302e-09
8.5999299e-09
8.6005445e-09
0.0010082267
0.0021263095
0.002464233
0.0021219924
0.0008846975
8.9212189e-06
6.1120708e-09
5.5125616e-09
5.176349e-09
5.1814749e-09
5.0745309e-09
5.1177078e-09
5.0500776e-09
5.1011648e-09
5.112365e-09
5.1676447e-09
5.2144076e-09
5.2904597e-09
5.3728252e-09
5.4802273e-09
5.6040324e-09
5.755991e-09
5.9323093e-09
6.1389225e-09
6.3731502e-09
6.6333567e-09
6.9111412e-09
7.1957729e-09
7.4735208e-09
7.7321396e-09
7.9622784e-09
8.1592246e-09
8.3219364e-09
8.4523846e-09
8.5528394e-09
8.6275908e-09
8.6876648e-09
8.731395e-09
8.7555595e-09
8.7662882e-09
8.7704321e-09
8.771723e-09
8.7657491e-09
8.7453135e-09
8.6932414e-09
8.6458554e-09
8.6191203e-09
8.6058857e-09
8.600253e-09
8.6007377e-09
0.00099681768
0.0020769182
0.0023736091
0.0019793377
0.00072161388
2.2683019e-06
5.839187e-09
5.4783364e-09
5.1506346e-09
5.1590331e-09
5.0553591e-09
5.1004256e-09
5.0347619e-09
5.0876186e-09
5.102624e-09
5.1613503e-09
5.2107998e-09
5.2889956e-09
5.3728931e-09
5.4833558e-09
5.6125565e-09
5.7701519e-09
5.953654e-09
6.1679376e-09
6.4103964e-09
6.678226e-09
6.9620377e-09
7.2499937e-09
7.5278446e-09
7.7834565e-09
8.0081887e-09
8.1983369e-09
8.3538971e-09
8.4775269e-09
8.5717018e-09
8.6417718e-09
8.6994776e-09
8.7392297e-09
8.7606575e-09
8.7695506e-09
8.7727988e-09
8.7736655e-09
8.7673819e-09
8.7440416e-09
8.6873737e-09
8.6432173e-09
8.6183623e-09
8.6059223e-09
8.6004532e-09
8.6008977e-09
0.00098594111
0.0020293196
0.0022844818
0.0018359314
0.00057698928
5.8462612e-07
5.6928257e-09
5.4499434e-09
5.1310334e-09
5.1413574e-09
5.0419965e-09
5.0879414e-09
5.0267297e-09
5.0815334e-09
5.0988044e-09
5.1590911e-09
5.2101023e-09
5.2894338e-09
5.377188e-09
5.4922256e-09
5.6268477e-09
5.7910355e-09
5.9820304e-09
6.2045756e-09
6.4554751e-09
6.7309579e-09
7.0204442e-09
7.3110305e-09
7.5880262e-09
7.8395758e-09
8.0578891e-09
8.2403679e-09
8.3880688e-09
8.5042647e-09
8.5917197e-09
8.6571084e-09
8.7117458e-09
8.7472664e-09
8.7657972e-09
8.7730053e-09
8.7754844e-09
8.7756363e-09
8.7683904e-09
8.7416872e-09
8.6821178e-09
8.6408448e-09
8.6176754e-09
8.605955e-09
8.6006187e-09
8.6010278e-09
0.00097587754
0.0019841735
0.0021978501
0.0016894165
0.00045214593
1.7213721e-07
5.617537e-09
5.4259325e-09
5.1225403e-09
5.1282397e-09
5.0313688e-09
5.0756992e-09
5.0233961e-09
5.0790264e-09
5.0978193e-09
5.1587957e-09
5.2120928e-09
5.2949927e-09
5.3868221e-09
5.5067358e-09
5.6475587e-09
5.818693e-09
6.0177842e-09
6.2489731e-09
6.5085858e-09
6.7916434e-09
7.086346e-09
7.3787384e-09
7.6538249e-09
7.9002017e-09
8.1110695e-09
8.2850241e-09
8.4241824e-09
8.5323512e-09
8.6127495e-09
8.6736565e-09
8.7242485e-09
8.7553909e-09
8.7709854e-09
8.7765743e-09
8.7785293e-09
8.7776938e-09
8.7688061e-09
8.7380991e-09
8.6775322e-09
8.6387729e-09
8.6170602e-09
8.6059816e-09
8.6007603e-09
8.6011276e-09
0.00096627749
0.0019414546
0.0021187924
0.0015397741
0.00034837899
6.2521478e-08
5.5812164e-09
5.4073326e-09
5.1133618e-09
5.1179564e-09
5.0204787e-09
5.065504e-09
5.022311e-09
5.078257e-09
5.0988423e-09
5.1622426e-09
5.2189747e-09
5.3053893e-09
5.4019996e-09
5.5273471e-09
5.6747721e-09
5.8534493e-09
6.0611076e-09
6.3013765e-09
6.5698736e-09
6.8603368e-09
7.1596595e-09
7.4529067e-09
7.7249381e-09
7.9649826e-09
8.1673707e-09
8.3319689e-09
8.4619279e-09
8.5615203e-09
8.6346515e-09
8.6913432e-09
8.7368151e-09
8.7635131e-09
8.7761774e-09
8.7802695e-09
8.7817943e-09
8.7799675e-09
8.7689373e-09
8.7333323e-09
8.6735752e-09
8.6369611e-09
8.616515e-09
8.6059838e-09
8.6008687e-09
8.6011993e-09
0.00095708288
0.0018999126
0.0020434523
0.0013865948
0.0002560483
2.8264594e-08
5.5580019e-09
5.3963114e-09
5.1022907e-09
5.1080096e-09
5.0099562e-09
5.0574937e-09
5.0228702e-09
5.0807416e-09
5.1043171e-09
5.1703284e-09
5.2307755e-09
5.3213111e-09
5.4230352e-09
5.5542269e-09
5.708791e-09
5.8955042e-09
6.1122403e-09
6.3619555e-09
6.6394506e-09
6.937027e-09
7.2402383e-09
7.5332669e-09
7.8010151e-09
8.0335283e-09
8.2264033e-09
8.3808443e-09
8.5009818e-09
8.5915292e-09
8.6573409e-09
8.709791e-09
8.74944e-09
8.7715687e-09
8.7813963e-09
8.7841016e-09
8.7851788e-09
8.7825675e-09
8.7689232e-09
8.7276667e-09
8.6700876e-09
8.6353582e-09
8.6160435e-09
8.6060081e-09
8.6009698e-09
8.601242e-09
0.00094832789
0.0018592829
0.001967607
0.0012315322
0.00017451373
1.6068072e-08
5.5424055e-09
5.3853519e-09
5.0954326e-09
5.0992845e-09
5.0040877e-09
5.0530445e-09
5.0275386e-09
5.0877998e-09
5.1145249e-09
5.1835048e-09
5.2479777e-09
5.3428533e-09
5.4501114e-09
5.5876097e-09
5.7497948e-09
5.9450892e-09
6.1713827e-09
6.4308893e-09
6.7173978e-09
7.0216678e-09
7.3278883e-09
7.6195017e-09
7.8816532e-09
8.1053957e-09
8.2877353e-09
8.4312646e-09
8.5410126e-09
8.6221696e-09
8.6808119e-09
8.7286438e-09
8.7619833e-09
8.7794983e-09
8.7866375e-09
8.7881056e-09
8.7885581e-09
8.7854145e-09
8.7688359e-09
8.7216286e-09
8.6667468e-09
8.6339148e-09
8.6156734e-09
8.6060682e-09
8.6010854e-09
8.6012621e-09
0.00093996013
0.0018197473
0.0018933487
0.0010802532
0.00010445151
1.1102186e-08
5.5409716e-09
5.3758748e-09
5.0981769e-09
5.1025993e-09
5.0070441e-09
5.0567424e-09
5.0373745e-09
5.0999544e-09
5.129927e-09
5.2019414e-09
5.2706831e-09
5.3702363e-09
5.4834228e-09
5.6276815e-09
5.7980119e-09
6.002407e-09
6.238736e-09
6.508305e-09
6.8037464e-09
7.1141366e-09
7.4223413e-09
7.7112248e-09
7.9663847e-09
8.1800858e-09
8.3509058e-09
8.48284e-09
8.5817116e-09
8.6532967e-09
8.7051005e-09
8.7474507e-09
8.7742855e-09
8.7872787e-09
8.7919326e-09
8.7923016e-09
8.7918111e-09
8.7883228e-09
8.7681704e-09
8.7154465e-09
8.663492e-09
8.6326068e-09
8.6154255e-09
8.6062303e-09
8.6012427e-09
8.6012551e-09
0.00093168392
0.0017790782
0.0018191698
0.0009405361
5.162078e-05
8.8418371e-09
5.5362196e-09
5.3726807e-09
5.1042329e-09
5.1098303e-09
5.0184614e-09
5.0697037e-09
5.052558e-09
5.1171006e-09
5.1504136e-09
5.225714e-09
5.2990071e-09
5.403573e-09
5.5231143e-09
5.6746194e-09
5.8536239e-09
6.0676657e-09
6.3144837e-09
6.5943339e-09
6.8984992e-09
7.2142829e-09
7.5232876e-09
7.8079933e-09
8.0546753e-09
8.2570514e-09
8.4154429e-09
8.5351913e-09
8.6228069e-09
8.6848159e-09
8.7301183e-09
8.7657609e-09
8.7862009e-09
8.7949504e-09
8.7974515e-09
8.7964924e-09
8.794914e-09
8.7908602e-09
8.766801e-09
8.7092821e-09
8.6603237e-09
8.6314213e-09
8.6153475e-09
8.6065194e-09
8.6014691e-09
8.6012177e-09
0.00092352307
0.0017370523
0.0017440278
0.00081082149
2.0523144e-05
7.7161401e-09
5.5303304e-09
5.3723154e-09
5.1128882e-09
5.1200859e-09
5.0335212e-09
5.0861048e-09
5.0723652e-09
5.1391095e-09
5.1760644e-09
5.2548411e-09
5.3330478e-09
5.4430036e-09
5.5693419e-09
5.7286002e-09
5.916827e-09
6.1410625e-09
6.3987916e-09
6.6890534e-09
7.0015912e-09
7.3218733e-09
7.6303303e-09
7.9092715e-09
8.1459161e-09
8.3357356e-09
8.4809125e-09
8.5879822e-09
8.6640831e-09
8.7166507e-09
8.7553256e-09
8.7833609e-09
8.797692e-09
8.8026582e-09
8.8032142e-09
8.8005812e-09
8.7978769e-09
8.7921675e-09
8.7645097e-09
8.7032655e-09
8.6572722e-09
8.6303309e-09
8.6153552e-09
8.6069173e-09
8.6018072e-09
8.6011464e-09
0.00091527595
0.001693267
0.001666614
0.00069158418
6.970952e-06
7.1238508e-09
5.5275979e-09
5.3779259e-09
5.1255734e-09
5.1355744e-09
5.0526528e-09
5.1073785e-09
5.0969555e-09
5.1661011e-09
5.206907e-09
5.289455e-09
5.3729076e-09
5.4886364e-09
5.6222444e-09
5.7897915e-09
5.9878167e-09
6.222805e-09
6.4918346e-09
6.7925453e-09
7.112945e-09
7.4366434e-09
7.7430139e-09
8.0144474e-09
8.2394686e-09
8.4156397e-09
8.5469547e-09
8.640913e-09
8.7053412e-09
8.748661e-09
8.7800096e-09
8.8001393e-09
8.8088677e-09
8.8106758e-09
8.8089098e-09
8.8046139e-09
8.8008045e-09
8.792735e-09
8.7610806e-09
8.6975051e-09
8.6543616e-09
8.6293144e-09
8.6154016e-09
8.6073584e-09
8.6022693e-09
8.6010368e-09
0.00090679718
0.0016470047
0.0015849078
0.0005825717
2.2126459e-06
6.8050739e-09
5.5295269e-09
5.3874269e-09
5.1422181e-09
5.1547968e-09
5.0762266e-09
5.133179e-09
5.1263701e-09
5.1980762e-09
5.2430269e-09
5.3296095e-09
5.4186749e-09
5.5405944e-09
5.681976e-09
5.8583779e-09
6.0668016e-09
6.3130889e-09
6.5937541e-09
6.90482e-09
7.232394e-09
7.5582134e-09
7.8607566e-09
8.1228201e-09
8.334733e-09
8.496397e-09
8.6132891e-09
8.6936877e-09
8.7463363e-09
8.7805038e-09
8.8035785e-09
8.8161319e-09
8.8201186e-09
8.8187057e-09
8.8144653e-09
8.8086261e-09
8.8038919e-09
8.792889e-09
8.7562862e-09
8.6921098e-09
8.6515904e-09
8.6283437e-09
8.6154714e-09
8.6078737e-09
8.6026323e-09
8.6008868e-09
0.00089793349
0.0015978425
0.0014922785
0.0004841235
7.1604467e-07
6.6287897e-09
5.5360415e-09
5.4015759e-09
5.163186e-09
5.179313e-09
5.1044077e-09
5.1637241e-09
5.1606614e-09
5.2351226e-09
5.2844539e-09
5.3753906e-09
5.4704401e-09
5.598998e-09
5.748693e-09
5.9345606e-09
6.1540107e-09
6.4121441e-09
6.7047137e-09
7.0259e-09
7.3597534e-09
7.6861519e-09
7.9829079e-09
8.2336983e-09
8.4312631e-09
8.5777767e-09
8.6796156e-09
8.7459271e-09
8.7867079e-09
8.8114679e-09
8.8258871e-09
8.8316652e-09
8.83148e-09
8.826488e-09
8.8198029e-09
8.8126396e-09
8.807345e-09
8.7928412e-09
8.7500624e-09
8.6871156e-09
8.6489301e-09
8.6274172e-09
8.6156122e-09
8.6086028e-09
8.6028415e-09
8.6006971e-09
0.00088888774
0.0015472634
0.0013931465
0.00039620712
2.5320546e-07
6.5308151e-09
5.5475175e-09
5.4202334e-09
5.188614e-09
5.2080251e-09
5.1371511e-09
5.1989397e-09
5.1998371e-09
5.2772219e-09
5.3312467e-09
5.4268514e-09
5.5283007e-09
5.6639932e-09
5.8225854e-09
6.0185671e-09
6.2496828e-09
6.5201787e-09
6.8248187e-09
7.1557117e-09
7.4947023e-09
7.8198746e-09
8.1087144e-09
8.3464891e-09
8.5288108e-09
8.6595071e-09
8.7454019e-09
8.7971074e-09
8.8259991e-09
8.8409769e-09
8.847175e-09
8.847243e-09
8.8424348e-09
8.8339625e-09
8.8248665e-09
8.8166149e-09
8.8111461e-09
8.792661e-09
8.7428026e-09
8.6823126e-09
8.6463578e-09
8.626566e-09
8.6158735e-09
8.6094951e-09
8.6029789e-09
8.6004707e-09
0.00087965186
0.0014953188
0.0012876474
0.00031913449
1.0233204e-07
6.4745764e-09
5.5637566e-09
5.4433894e-09
5.2185939e-09
5.2412695e-09
5.1744364e-09
5.2388212e-09
5.2438908e-09
5.32443e-09
5.3834411e-09
5.4840913e-09
5.5923807e-09
5.735746e-09
5.9038723e-09
6.1106577e-09
6.3541029e-09
6.6374406e-09
6.9542108e-09
7.294181e-09
7.6368825e-09
7.9587309e-09
8.2374612e-09
8.4608419e-09
8.6272179e-09
8.7408771e-09
8.8096792e-09
8.8466643e-09
8.8637872e-09
8.8691997e-09
8.868119e-09
8.8622113e-09
8.8529755e-09
8.8410668e-09
8.8296049e-09
8.8204527e-09
8.8148338e-09
8.791674e-09
8.7350015e-09
8.6775657e-09
8.6439045e-09
8.625794e-09
8.6162527e-09
8.6105152e-09
8.6030829e-09
8.6002105e-09
0.0008701836
0.0014414787
0.001180325
0.00025195358
4.8214448e-08
6.4442883e-09
5.5844591e-09
5.4708864e-09
5.2529799e-09
5.2788212e-09
5.2162005e-09
5.2833452e-09
5.2928555e-09
5.3767639e-09
5.4411231e-09
5.5472165e-09
5.6628352e-09
5.8144761e-09
5.9928117e-09
6.211129e-09
6.4675436e-09
6.7641437e-09
7.0929235e-09
7.4410953e-09
7.7857416e-09
8.1019413e-09
8.3685398e-09
8.5766068e-09
8.7259588e-09
8.8206029e-09
8.8717618e-09
8.8942402e-09
8.9001171e-09
8.8968104e-09
8.8880806e-09
8.8765759e-09
8.8629911e-09
8.8477552e-09
8.8340215e-09
8.8240468e-09
8.8173547e-09
8.7898464e-09
8.7270091e-09
8.6729939e-09
8.6416901e-09
8.6250912e-09
8.6167099e-09
8.6116095e-09
8.603174e-09
8.5999212e-09
0.00086084154
0.0013851774
0.0010792581
0.00018840881
2.6458187e-08
6.4300757e-09
5.6093357e-09
5.5025205e-09
5.2915024e-09
5.3207117e-09
5.2624769e-09
5.3325651e-09
5.3467675e-09
5.4343115e-09
5.5043767e-09
5.6163598e-09
5.7398688e-09
5.9004353e-09
6.0897134e-09
6.320312e-09
6.5903457e-09
6.9005401e-09
7.2410328e-09
7.5962032e-09
7.9406847e-09
8.2487866e-09
8.5016276e-09
8.6935613e-09
8.823541e-09
8.8978136e-09
8.9311134e-09
8.9401645e-09
8.9354867e-09
8.9230253e-09
8.9071608e-09
8.8901905e-09
8.8724401e-09
8.8539405e-09
8.8381946e-09
8.8273862e-09
8.8183941e-09
8.7869057e-09
8.7191767e-09
8.6687721e-09
8.6399216e-09
8.6248367e-09
8.6171669e-09
8.6126186e-09
8.6032637e-09
8.599611e-09
0.00085223947
0.0013338783
0.00097700564
0.00012964433
1.7001407e-08
6.4259045e-09
5.6392455e-09
5.5383467e-09
5.3343258e-09
5.3669913e-09
5.3133241e-09
5.3865063e-09
5.4056963e-09
5.4971436e-09
5.573351e-09
5.6917225e-09
5.8237419e-09
5.9939355e-09
6.1949208e-09
6.4385571e-09
6.7228119e-09
7.0468014e-09
7.3984491e-09
7.759045e-09
8.1009461e-09
8.3986167e-09
8.6365929e-09
8.8105844e-09
8.9186313e-09
8.9716789e-09
8.9881645e-09
8.9848755e-09
8.9690892e-09
8.9479625e-09
8.9251863e-09
8.9030469e-09
8.88126e-09
8.8595245e-09
8.8422464e-09
8.830642e-09
8.8187436e-09
8.7825724e-09
8.7118607e-09
8.6650464e-09
8.6385826e-09
8.6247837e-09
8.6175115e-09
8.6131367e-09
8.6033558e-09
8.5992835e-09
0.00084414468
0.0012833356
0.0008760627
7.9202697e-05
1.2484441e-08
6.4301606e-09
5.6731984e-09
5.5785897e-09
5.3814623e-09
5.4176769e-09
5.3687591e-09
5.4452048e-09
5.4697227e-09
5.5654145e-09
5.6482513e-09
5.7735745e-09
5.9147565e-09
6.0953286e-09
6.3088211e-09
6.5662734e-09
6.8653128e-09
7.2031478e-09
7.5650844e-09
7.9291236e-09
8.2658178e-09
8.5510652e-09
8.7731898e-09
8.9258666e-09
9.0100014e-09
9.0421922e-09
9.0439507e-09
9.0273315e-09
9.0009946e-09
8.9714416e-09
8.9421454e-09
8.9150995e-09
8.8893992e-09
8.8644802e-09
8.84623e-09
8.8341166e-09
8.8187633e-09
8.776532e-09
8.7053489e-09
8.6618317e-09
8.6375568e-09
8.6248243e-09
8.6178089e-09
8.6134329e-09
8.6034476e-09
8.5989389e-09
0.00083656012
0.0012324765
0.00077766769
4.1628567e-05
1.0170131e-08
6.440703e-09
5.7112839e-09
5.6230033e-09
5.4328032e-09
5.4727562e-09
5.4288095e-09
5.5087794e-09
5.5390298e-09
5.6393603e-09
5.7293574e-09
5.8622244e-09
6.0132689e-09
6.2050125e-09
6.431828e-09
6.7038672e-09
7.0181537e-09
7.3696501e-09
7.7406068e-09
8.105723e-09
8.4345771e-09
8.7059379e-09
8.9099389e-09
9.0378986e-09
9.0969517e-09
9.1107581e-09
9.0972298e-09
9.0676304e-09
9.0310081e-09
8.993451e-09
8.95799e-09
8.9263197e-09
8.8967891e-09
8.8688218e-09
8.8501319e-09
8.8379283e-09
8.8186671e-09
8.7686903e-09
8.6997454e-09
8.6590227e-09
8.636713e-09
8.6248899e-09
8.6182518e-09
8.6135954e-09
8.6035421e-09
8.5985808e-09
0.00082947355
0.0011809812
0.00068329522
1.8901024e-05
8.9246108e-09
6.4575471e-09
5.7536018e-09
5.6716317e-09
5.488479e-09
5.5323363e-09
5.4936675e-09
5.5774606e-09
5.6138968e-09
5.719277e-09
5.8169812e-09
5.9580189e-09
6.1196685e-09
6.3234202e-09
6.5644198e-09
6.851808e-09
7.1817094e-09
7.5463974e-09
7.9246689e-09
8.2881727e-09
8.6067604e-09
8.8630263e-09
9.0447672e-09
9.1453339e-09
9.1803355e-09
9.1770015e-09
9.1477712e-09
9.105525e-09
9.0590953e-09
9.0139383e-09
8.9727032e-09
8.936642e-09
8.903342e-09
8.8727354e-09
8.8537498e-09
8.841625e-09
8.8174888e-09
8.7599425e-09
8.694404e-09
8.6564468e-09
8.6360449e-09
8.6252792e-09
8.6191839e-09
8.6137043e-09
8.6036384e-09
8.5982088e-09
0.00082311976
0.0011289679
0.00059405268
7.7237527e-06
8.2309072e-09
6.4821851e-09
5.8001268e-09
5.7245298e-09
5.5486246e-09
5.5966587e-09
5.5636367e-09
5.6515628e-09
5.6946369e-09
5.8054696e-09
5.9114492e-09
6.0613359e-09
6.2343902e-09
6.4510276e-09
6.7070793e-09
7.0105225e-09
7.356208e-09
7.733228e-09
8.1166362e-09
8.4756942e-09
8.7820295e-09
9.0208829e-09
9.1758287e-09
9.2473459e-09
9.2615348e-09
9.2399366e-09
9.1953522e-09
9.1409771e-09
9.0852015e-09
9.0328974e-09
8.9862559e-09
8.9459794e-09
8.908995e-09
8.8764761e-09
8.8568508e-09
8.8439844e-09
8.8153434e-09
8.7507212e-09
8.6892248e-09
8.6540608e-09
8.6355139e-09
8.6258873e-09
8.6204909e-09
8.6137916e-09
8.6036301e-09
8.5978321e-09
0.00081743522
0.0010789722
0.00051076112
3.0246728e-06
7.8378482e-09
6.5142812e-09
5.8510157e-09
5.7821529e-09
5.6136325e-09
5.6661573e-09
5.6390711e-09
5.7313821e-09
5.7815347e-09
5.8982361e-09
6.0131136e-09
6.1726054e-09
6.3579148e-09
6.5883727e-09
6.8603647e-09
7.1805267e-09
7.5419322e-09
7.9299922e-09
8.3159203e-09
8.6677347e-09
8.9602176e-09
9.1771945e-09
9.3016465e-09
9.3452343e-09
9.3395654e-09
9.2993546e-09
9.2398673e-09
9.1739088e-09
9.1093146e-09
9.0503217e-09
8.9986082e-09
8.954248e-09
8.9138616e-09
8.8799996e-09
8.8595318e-09
8.8450615e-09
8.812099e-09
8.7414457e-09
8.6843078e-09
8.6519226e-09
8.6350456e-09
8.6265232e-09
8.6218594e-09
8.6138802e-09
8.6035213e-09
8.5974484e-09
0.00081186686
0.0010260607
0.00043358481
1.1983237e-06
7.615424e-09
6.5512777e-09
5.907032e-09
5.844932e-09
5.6839333e-09
5.7410548e-09
5.7201592e-09
5.8171081e-09
5.8747997e-09
5.9979082e-09
6.1224066e-09
6.2922989e-09
6.4907817e-09
6.7360063e-09
7.0248271e-09
7.3622023e-09
7.7389309e-09
8.1361837e-09
8.5217425e-09
8.8637418e-09
9.1402975e-09
9.3295601e-09
9.4211002e-09
9.4403904e-09
9.4134612e-09
9.3550333e-09
9.2812365e-09
9.2043045e-09
9.1314386e-09
9.0662123e-09
9.0097162e-09
8.9614435e-09
8.918059e-09
8.8832004e-09
8.8621907e-09
8.8454844e-09
8.8075895e-09
8.7325655e-09
8.6798569e-09
8.6501729e-09
8.6347808e-09
8.6269786e-09
8.6225094e-09
8.6139734e-09
8.6033253e-09
8.5970595e-09
0.00080608655
0.00096903182
0.00036304345
5.0290095e-07
7.4945587e-09
6.5940967e-09
5.9683495e-09
5.9128227e-09
5.7595366e-09
5.8213446e-09
5.8070426e-09
5.9089671e-09
5.9747487e-09
6.1049311e-09
6.2397786e-09
6.4209719e-09
6.6335718e-09
6.8945797e-09
7.2010814e-09
7.5560509e-09
7.9472488e-09
8.3513695e-09
8.7335039e-09
9.0634968e-09
9.3198059e-09
9.4763756e-09
9.5354743e-09
9.5317157e-09
9.4829639e-09
9.4068713e-09
9.3194239e-09
9.2321661e-09
9.1515917e-09
9.0805567e-09
9.0195564e-09
8.9677148e-09
8.9219134e-09
8.8862413e-09
8.8648656e-09
8.8456112e-09
8.801457e-09
8.7246094e-09
8.6760369e-09
8.6488676e-09
8.63477e-09
8.62729e-09
8.6228939e-09
8.6140612e-09
8.6030699e-09
8.5966686e-09
0.00080030997
0.00090908472
0.00029913961
2.3097962e-07
7.4356322e-09
6.6418875e-09
6.0342155e-09
5.9858449e-09
5.8403242e-09
5.9072522e-09
5.8999999e-09
6.0073731e-09
6.0818379e-09
6.2197599e-09
6.3657938e-09
6.5592157e-09
6.7869274e-09
7.0647318e-09
7.3897006e-09
7.7622974e-09
8.1666095e-09
8.5747797e-09
8.950502e-09
9.2664261e-09
9.4958687e-09
9.6160657e-09
9.6461991e-09
9.6181577e-09
9.5478531e-09
9.4547943e-09
9.354432e-09
9.2575304e-09
9.1697951e-09
9.0933377e-09
9.028178e-09
8.9733656e-09
8.925763e-09
8.8890986e-09
8.8671861e-09
8.8452747e-09
8.7935316e-09
8.7179181e-09
8.6728851e-09
8.6479445e-09
8.6348662e-09
8.6275291e-09
8.6231008e-09
8.6140834e-09
8.6027719e-09
8.5962794e-09
0.00079475538
0.00084649009
0.00024160665
1.1893435e-07
7.4131036e-09
6.6946449e-09
6.1052182e-09
6.0639203e-09
5.9268367e-09
5.9992059e-09
5.9995335e-09
6.1127888e-09
6.1965416e-09
6.3429341e-09
6.5010261e-09
6.7076667e-09
6.9515528e-09
7.2472038e-09
7.5913377e-09
7.9812624e-09
8.3967653e-09
8.8058624e-09
9.1723075e-09
9.4704334e-09
9.6664718e-09
9.7493266e-09
9.7526564e-09
9.699233e-09
9.6080214e-09
9.4987879e-09
9.3863001e-09
9.2804463e-09
9.1860608e-09
9.1045538e-09
9.0357399e-09
8.9786861e-09
8.9294367e-09
8.8914793e-09
8.8681709e-09
8.8437016e-09
8.7843541e-09
8.7122543e-09
8.6702546e-09
8.6472892e-09
8.6350958e-09
8.6278953e-09
8.623241e-09
8.613956e-09
8.6024425e-09
8.595896e-09
0.0007887566
0.00078125668
0.00019043838
6.8980988e-08
7.4138867e-09
6.7531188e-09
6.1818442e-09
6.147982e-09
6.019585e-09
6.0977096e-09
6.106105e-09
6.225678e-09
6.319366e-09
6.4749282e-09
6.646105e-09
6.8670372e-09
7.1281873e-09
7.4427157e-09
7.8064709e-09
8.2129037e-09
8.6370689e-09
9.043829e-09
9.3983658e-09
9.6724473e-09
9.829555e-09
9.8776085e-09
9.8535784e-09
9.7747386e-09
9.6633988e-09
9.5388797e-09
9.4150964e-09
9.3009599e-09
9.2003938e-09
9.114283e-09
9.0425085e-09
8.9836071e-09
8.9316251e-09
8.8927277e-09
8.8686759e-09
8.8409722e-09
8.7748205e-09
8.7071074e-09
8.6679611e-09
8.6466627e-09
8.6351882e-09
8.6285475e-09
8.6233556e-09
8.6136856e-09
8.6020892e-09
8.5955219e-09
0.00078194654
0.00071022349
0.00014670394
4.4687017e-08
7.4319751e-09
6.817754e-09
6.2645688e-09
6.2383441e-09
6.1189606e-09
6.203116e-09
6.2201233e-09
6.3465047e-09
6.4508544e-09
6.6165348e-09
6.8017277e-09
7.0380897e-09
7.3176746e-09
7.6520806e-09
8.035651e-09
8.4572264e-09
8.8870379e-09
9.2881461e-09
9.6277348e-09
9.8694818e-09
9.9845514e-09
1.0001408e-08
9.9480603e-09
9.8445331e-09
9.7139953e-09
9.5751443e-09
9.4408947e-09
9.3190903e-09
9.2128201e-09
9.1227375e-09
9.0487346e-09
8.9872908e-09
8.9326112e-09
8.8933628e-09
8.8688475e-09
8.8371293e-09
8.7653511e-09
8.7023231e-09
8.6659093e-09
8.6460649e-09
8.6352086e-09
8.6291261e-09
8.6234693e-09
8.6132924e-09
8.6017174e-09
8.5951601e-09
0.00077548795
0.00063905587
0.0001092438
3.1709336e-08
7.4629921e-09
6.8886519e-09
6.3535757e-09
6.3351612e-09
6.2252604e-09
6.3157909e-09
6.3420561e-09
6.4757965e-09
6.5916161e-09
6.7684429e-09
6.9686735e-09
7.2216851e-09
7.5208853e-09
7.8760085e-09
8.2791013e-09
8.7137446e-09
9.1458486e-09
9.53803e-09
9.8571207e-09
1.0059321e-08
1.0132803e-08
1.0119116e-08
1.0035935e-08
9.908549e-09
9.7598669e-09
9.6076788e-09
9.4637502e-09
9.3348461e-09
9.2234637e-09
9.1302598e-09
9.0543704e-09
8.9888191e-09
8.9330088e-09
8.8936631e-09
8.8689075e-09
8.8322708e-09
8.7562307e-09
8.6978778e-09
8.664071e-09
8.6455683e-09
8.6352823e-09
8.6294206e-09
8.6235802e-09
8.6128028e-09
8.6013324e-09
8.5948135e-09
0.0007706256
0.00059037237
7.9244538e-05
2.4271079e-08
7.5048543e-09
6.9660813e-09
6.449031e-09
6.4388959e-09
6.3388462e-09
6.4362711e-09
6.4724144e-09
6.6141975e-09
6.7423195e-09
6.9313727e-09
7.1478074e-09
7.4187786e-09
7.7388088e-09
8.1153017e-09
8.5371153e-09
8.9821248e-09
9.4129422e-09
9.7929269e-09
1.0083136e-08
1.0239804e-08
1.027625e-08
1.0229322e-08
1.0116996e-08
9.9668124e-09
9.8011231e-09
9.636578e-09
9.4836922e-09
9.3482942e-09
9.2326149e-09
9.1371513e-09
9.0586061e-09
8.9894619e-09
8.933181e-09
8.8938566e-09
8.8684632e-09
8.8263863e-09
8.7477383e-09
8.693821e-09
8.662444e-09
8.645147e-09
8.6353572e-09
8.6296186e-09
8.6236392e-09
8.612245e-09
8.6009396e-09
8.5944842e-09
0.00076649529
0.00054494042
5.5013627e-05
1.9691596e-08
7.5562885e-09
7.0501547e-09
6.5515643e-09
6.5498149e-09
6.4603613e-09
6.5650252e-09
6.6118547e-09
6.7623375e-09
6.9037433e-09
7.1062169e-09
7.3401072e-09
7.6304202e-09
7.9723735e-09
8.3705124e-09
8.809478e-09
9.2616034e-09
9.6872896e-09
1.005057e-08
1.0302479e-08
1.0411897e-08
1.0413054e-08
1.0331738e-08
1.0191164e-08
1.0019397e-08
9.8378798e-09
9.6619052e-09
9.5007763e-09
9.3596863e-09
9.2407131e-09
9.1432844e-09
9.0603763e-09
8.9896471e-09
8.9332376e-09
8.8939995e-09
8.8672418e-09
8.8195721e-09
8.7401421e-09
8.6902255e-09
8.6610238e-09
8.6447495e-09
8.6353589e-09
8.6297688e-09
8.6235402e-09
8.6116437e-09
8.6005452e-09
8.5941744e-09
0.00076349222
0.0005065346
3.6947335e-05
1.6755031e-08
7.6167092e-09
7.1415676e-09
6.6614265e-09
6.668748e-09
6.590264e-09
6.7026775e-09
6.7609985e-09
6.9210118e-09
7.0767857e-09
7.2939414e-09
7.5466731e-09
7.8577314e-09
8.2226437e-09
8.6421886e-09
9.0961261e-09
9.5516666e-09
9.9683203e-09
1.0307372e-08
1.0512645e-08
1.0577152e-08
1.0541883e-08
1.0426105e-08
1.0258466e-08
1.006644e-08
9.8702444e-09
9.6837149e-09
9.5151967e-09
9.3695247e-09
9.2480877e-09
9.1475393e-09
9.0611129e-09
8.9896683e-09
8.9328795e-09
8.8938395e-09
8.8650769e-09
8.8118169e-09
8.7336582e-09
8.6871233e-09
8.6597667e-09
8.644343e-09
8.6353299e-09
8.6299076e-09
8.6232911e-09
8.6110188e-09
8.6001548e-09
8.5938859e-09
0.00076182791
0.0004738401
2.4043162e-05
1.4796259e-08
7.686048e-09
7.2406736e-09
6.7792063e-09
6.7959089e-09
6.7291485e-09
6.8498787e-09
6.9206538e-09
7.0911332e-09
7.2624467e-09
7.4957248e-09
7.7687181e-09
8.1019164e-09
8.4904455e-09
8.930468e-09
9.3963404e-09
9.8513057e-09
1.0254773e-08
1.0559007e-08
1.0712322e-08
1.0735844e-08
1.0661454e-08
1.0512311e-08
1.0318984e-08
1.0108076e-08
9.8982993e-09
9.7021549e-09
9.5273998e-09
9.3783557e-09
9.2543865e-09
9.1493385e-09
9.0613165e-09
8.9891631e-09
8.9322117e-09
8.8932706e-09
8.861867e-09
8.8032283e-09
8.7283547e-09
8.6844613e-09
8.6586267e-09
8.6439241e-09
8.6352857e-09
8.6300454e-09
8.622893e-09
8.6103858e-09
8.5997734e-09
8.5936205e-09
0.00076171117
0.00044697698
1.5239657e-05
1.345545e-08
7.7639121e-09
7.3476973e-09
6.905298e-09
6.9319477e-09
6.8777604e-09
7.0075199e-09
7.0917775e-09
7.2737651e-09
7.4619135e-09
7.7127973e-09
8.007561e-09
8.364251e-09
8.7766823e-09
9.2355344e-09
9.7097063e-09
1.0159651e-08
1.0543586e-08
1.0802398e-08
1.0902873e-08
1.0886044e-08
1.0771679e-08
1.0590364e-08
1.037288e-08
1.0144446e-08
9.9221841e-09
9.7176261e-09
9.5380207e-09
9.3861475e-09
9.2578318e-09
9.1500294e-09
9.0612828e-09
8.9881587e-09
8.9312134e-09
8.8922015e-09
8.8576291e-09
8.7946211e-09
8.7236732e-09
8.6821029e-09
8.6575716e-09
8.6434945e-09
8.6352216e-09
8.6301688e-09
8.6223469e-09
8.6097566e-09
8.5994054e-09
8.5933797e-09
0.00076317201
0.00042610806
9.4141637e-06
1.2522595e-08
7.8505806e-09
7.4633832e-09
7.040503e-09
7.0778562e-09
7.0370587e-09
7.1766308e-09
7.2754545e-09
7.4700995e-09
7.6764817e-09
7.9465896e-09
8.2646503e-09
8.6459064e-09
9.0818501e-09
9.5569441e-09
1.0035228e-08
1.0475282e-08
1.0829973e-08
1.1034186e-08
1.1086315e-08
1.1025761e-08
1.0872254e-08
1.0660339e-08
1.0420303e-08
1.0175685e-08
9.9422309e-09
9.7308243e-09
9.547431e-09
9.3914467e-09
9.2593126e-09
9.15021e-09
9.0605297e-09
8.9866758e-09
8.929909e-09
8.8905782e-09
8.8525046e-09
8.7863301e-09
8.7193496e-09
8.6799342e-09
8.6565914e-09
8.6430806e-09
8.6351164e-09
8.6301779e-09
8.6216671e-09
8.6091399e-09
8.599054e-09
8.5931651e-09
0.00076574339
0.00041128075
5.6464989e-06
1.1873273e-08
7.9470722e-09
7.5887055e-09
7.1858386e-09
7.2345786e-09
7.2080783e-09
7.3582822e-09
7.4728968e-09
7.6814856e-09
7.9075802e-09