/*--------------------------------*- C++ -*----------------------------------*\
  =========                 |
  \\      /  F ield         | OpenFOAM: The Open Source CFD Toolbox
   \\    /   O peration     | Website:  https://openfoam.org
    \\  /    A nd           | Version:  8
     \\/     M anipulation  |
\*---------------------------------------------------------------------------*/
FoamFile
{
    version     2.0;
    format      ascii;
    class       volVectorField;
    location    "0.0699881";
    object      cellDisplacement;
}
// * * * * * * * * * * * * * * * * * * * * * * * * * * * * * * * * * * * * * //

dimensions      [0 1 0 0 0 0 0];

internalField   nonuniform List<vector> 
20000
(
(-0.00043829654 0 -0.00033179133)
(-0.00043829203 0 -0.00033178479)
(-0.00043828168 0 -0.00033179947)
(-0.00043826294 0 -0.00033182304)
(-0.00043823222 0 -0.00033185939)
(-0.00043818467 0 -0.00033191428)
(-0.00043811338 0 -0.0003319959)
(-0.00043800926 0 -0.00033211485)
(-0.00043785942 0 -0.00033228672)
(-0.00043764714 0 -0.00033253183)
(-0.00043734907 0 -0.00033288174)
(-0.00043693501 0 -0.00033337867)
(-0.00043636407 0 -0.00033408699)
(-0.00043558294 0 -0.00033509513)
(-0.0004345226 0 -0.00033653186)
(-0.00043309352 0 -0.0003385732)
(-0.00043118381 0 -0.00034148252)
(-0.00042865477 0 -0.00034555684)
(-0.00042533826 0 -0.00035128959)
(-0.00042103332 0 -0.00035930458)
(-0.00041551054 0 -0.00037044406)
(-0.00040852271 0 -0.00038578162)
(-0.00039982216 0 -0.00040664001)
(-0.00038918953 0 -0.00043454908)
(-0.00037646498 0 -0.00047114254)
(-0.00036158838 0 -0.00051793791)
(-0.00034466615 0 -0.00057593199)
(-0.00032587681 0 -0.00064576063)
(-0.00030565572 0 -0.00072620481)
(-0.00028445405 0 -0.00081493233)
(-0.00026257461 0 -0.00090817569)
(-0.00024050994 0 -0.0010016242)
(-0.00021879754 0 -0.0010892252)
(-0.00019779202 0 -0.0011668501)
(-0.0001779848 0 -0.0012288881)
(-0.00015921598 0 -0.0012747788)
(-0.00014164319 0 -0.0013019259)
(-0.00012492373 0 -0.0013106487)
(-0.00010949183 0 -0.001302432)
(-9.3901994e-05 0 -0.0012724799)
(-7.9557572e-05 0 -0.0012237905)
(-6.5506253e-05 0 -0.0011537993)
(-5.5290448e-05 0 -0.0010888453)
(-4.2907744e-05 0 -0.00097653319)
(-3.2431897e-05 0 -0.00086824098)
(-1.9277561e-05 0 -0.00069199611)
(-8.4899498e-06 0 -0.00052077542)
(-3.4633351e-06 0 -0.00037367397)
(1.4072588e-06 0 -0.00020678496)
(1.0094998e-05 0 0.00012269993)
(-0.00043784994 0 -0.00027074511)
(-0.00043784517 0 -0.000270716)
(-0.00043783436 0 -0.00027068539)
(-0.00043781501 0 -0.00027065475)
(-0.00043778341 0 -0.00027062616)
(-0.00043773464 0 -0.0002706032)
(-0.00043766161 0 -0.00027059114)
(-0.00043755508 0 -0.00027059855)
(-0.00043740189 0 -0.00027063841)
(-0.00043718508 0 -0.00027072986)
(-0.00043688087 0 -0.00027090122)
(-0.00043645868 0 -0.00027119241)
(-0.00043587693 0 -0.00027166242)
(-0.00043508167 0 -0.00027239603)
(-0.00043400316 0 -0.00027351552)
(-0.00043255027 0 -0.00027519731)
(-0.00043061131 0 -0.00027768318)
(-0.00042804559 0 -0.00028130899)
(-0.00042468412 0 -0.00028653765)
(-0.00042032551 0 -0.00029401875)
(-0.00041474125 0 -0.00030461587)
(-0.00040768686 0 -0.00031943519)
(-0.00039891946 0 -0.00033984378)
(-0.00038822746 0 -0.00036742791)
(-0.0003754606 0 -0.00040389186)
(-0.00036057498 0 -0.00045081571)
(-0.00034367626 0 -0.0005093095)
(-0.0003249738 0 -0.00057995665)
(-0.00030487707 0 -0.00066167184)
(-0.00028383818 0 -0.00075215562)
(-0.00026214962 0 -0.00084784913)
(-0.00024028429 0 -0.00094435191)
(-0.00021874895 0 -0.0010357283)
(-0.0001979007 0 -0.0011175816)
(-0.00017819132 0 -0.0011844135)
(-0.00015950772 0 -0.0012351676)
(-0.00014199158 0 -0.0012672547)
(-0.00012533812 0 -0.0012807946)
(-0.00010990983 0 -0.0012768406)
(-9.4445741e-05 0 -0.0012513572)
(-8.0132105e-05 0 -0.0012067883)
(-6.6205237e-05 0 -0.0011411931)
(-5.5733003e-05 0 -0.0010774169)
(-4.3510192e-05 0 -0.00097003086)
(-3.2938667e-05 0 -0.00086268743)
(-2.0032392e-05 0 -0.0006923629)
(-9.2981854e-06 0 -0.00052367519)
(-3.9187922e-06 0 -0.00037529509)
(1.0697208e-06 0 -0.00020770047)
(9.2115013e-06 0 0.00010629121)
(-0.000437176 0 -0.00021101482)
(-0.00043717052 0 -0.00021094813)
(-0.00043715879 0 -0.00021087241)
(-0.00043713825 0 -0.0002107888)
(-0.00043710512 0 -0.00021069772)
(-0.0004370544 0 -0.00021060176)
(-0.00043697881 0 -0.00021050368)
(-0.00043686902 0 -0.0002104102)
(-0.00043671142 0 -0.0002103297)
(-0.00043648898 0 -0.00021027713)
(-0.00043617703 0 -0.00021027623)
(-0.00043574506 0 -0.00021036182)
(-0.0004351498 0 -0.000210591)
(-0.00043433808 0 -0.00021104381)
(-0.00043323699 0 -0.00021184117)
(-0.00043175727 0 -0.00021315881)
(-0.00042978341 0 -0.00021522782)
(-0.00042717565 0 -0.00021839233)
(-0.00042376298 0 -0.00022312251)
(-0.00041934376 0 -0.00023008508)
(-0.00041369092 0 -0.00024016355)
(-0.00040656261 0 -0.00025449624)
(-0.00039772164 0 -0.00027449137)
(-0.00038696483 0 -0.00030178961)
(-0.00037415232 0 -0.00033816169)
(-0.00035925786 0 -0.00038524265)
(-0.00034238733 0 -0.00044424646)
(-0.00032377953 0 -0.00051569996)
(-0.00030382328 0 -0.00059862142)
(-0.00028296353 0 -0.00069076662)
(-0.00026148709 0 -0.00078874838)
(-0.00023984197 0 -0.00088813238)
(-0.00021851076 0 -0.00098304646)
(-0.00019784166 0 -0.0010689176)
(-0.00017825824 0 -0.0011402893)
(-0.00015967867 0 -0.0011957268)
(-0.00014223917 0 -0.0012325807)
(-0.00012566329 0 -0.0012508037)
(-0.00011025851 0 -0.0012510464)
(-9.4918938e-05 0 -0.0012299334)
(-8.0650979e-05 0 -0.0011894318)
(-6.6843727e-05 0 -0.0011281153)
(-5.6155659e-05 0 -0.001065763)
(-4.4074331e-05 0 -0.00096304896)
(-3.3425544e-05 0 -0.00085687736)
(-2.0752755e-05 0 -0.00069221006)
(-1.0076779e-05 0 -0.00052614133)
(-4.3773933e-06 0 -0.00037678674)
(7.2687221e-07 0 -0.00020871838)
(8.383835e-06 0 9.1077159e-05)
(-0.00043628128 0 -0.00015258582)
(-0.00043627536 0 -0.00015250681)
(-0.00043626305 0 -0.00015241602)
(-0.00043624142 0 -0.00015230467)
(-0.00043620668 0 -0.00015216734)
(-0.00043615339 0 -0.00015200413)
(-0.00043607453 0 -0.00015181546)
(-0.00043595996 0 -0.00015160728)
(-0.00043579665 0 -0.00015138523)
(-0.00043556615 0 -0.00015116678)
(-0.0004352448 0 -0.00015097157)
(-0.00043479983 0 -0.00015083743)
(-0.00043418929 0 -0.00015081508)
(-0.00043335689 0 -0.0001509828)
(-0.00043223096 0 -0.00015145974)
(-0.00043071887 0 -0.00015240213)
(-0.00042870621 0 -0.00015406687)
(-0.00042605045 0 -0.00015677432)
(-0.00042258002 0 -0.00016101907)
(-0.00041809305 0 -0.00016747202)
(-0.00041236371 0 -0.00017704012)
(-0.00040515355 0 -0.00019089657)
(-0.00039623152 0 -0.00021049459)
(-0.00038540366 0 -0.00023752915)
(-0.0003725423 0 -0.00027383194)
(-0.00035763766 0 -0.00032109389)
(-0.00034080164 0 -0.00038060407)
(-0.0003222966 0 -0.00045284718)
(-0.00030249416 0 -0.00053693662)
(-0.00028183238 0 -0.00063066319)
(-0.00026058687 0 -0.00073080704)
(-0.00023918562 0 -0.00083289707)
(-0.00021808121 0 -0.00093114683)
(-0.00019761592 0 -0.0010208209)
(-0.00017818277 0 -0.0010965135)
(-0.00015972909 0 -0.0011564469)
(-0.00014238404 0 -0.0011979022)
(-0.00012590018 0 -0.001220676)
(-0.000110536 0 -0.0012250552)
(-9.5322732e-05 0 -0.0012082239)
(-8.1112946e-05 0 -0.0011717333)
(-6.7423047e-05 0 -0.0011145915)
(-5.6557164e-05 0 -0.0010538914)
(-4.4600626e-05 0 -0.00095560134)
(-3.3892992e-05 0 -0.00085083912)
(-2.1438563e-05 0 -0.00069155225)
(-1.0824785e-05 0 -0.00052816276)
(-4.8376236e-06 0 -0.00037815058)
(3.8024073e-07 0 -0.00020981027)
(7.6080787e-06 0 7.6949435e-05)
(-0.00043517181 0 -9.5379985e-05)
(-0.00043516342 0 -9.5214404e-05)
(-0.00043514821 0 -9.5025163e-05)
(-0.00043512343 0 -9.481489e-05)
(-0.0004350855 0 -9.458981e-05)
(-0.00043502867 0 -9.4342326e-05)
(-0.00043494582 0 -9.4075047e-05)
(-0.00043482631 0 -9.3781313e-05)
(-0.00043465687 0 -9.3466947e-05)
(-0.00043441833 0 -9.3133971e-05)
(-0.0004340865 0 -9.2799186e-05)
(-0.00043362787 0 -9.248849e-05)
(-0.00043299955 0 -9.2248423e-05)
(-0.00043214457 0 -9.215445e-05)
(-0.00043098963 0 -9.2316246e-05)
(-0.00042944203 0 -9.2912045e-05)
(-0.00042738471 0 -9.4160587e-05)
(-0.00042467522 0 -9.642592e-05)
(-0.00042114037 0 -0.00010019159)
(-0.00041657853 0 -0.00010615111)
(-0.00041076559 0 -0.00011523548)
(-0.00040346623 0 -0.00012865119)
(-0.00039445686 0 -0.00014789331)
(-0.00038355241 0 -0.000174711)
(-0.0003706402 0 -0.00021098851)
(-0.00035572532 0 -0.00025847217)
(-0.00033893053 0 -0.00031850403)
(-0.00032053499 0 -0.0003915354)
(-0.00030090256 0 -0.0004767438)
(-0.00028045431 0 -0.0005719829)
(-0.00025945969 0 -0.00067415355)
(-0.00023832131 0 -0.00077879516)
(-0.00021746806 0 -0.00088016442)
(-0.00019722673 0 -0.00097343891)
(-0.00017796901 0 -0.001053211)
(-0.00015965932 0 -0.0011174517)
(-0.00014242777 0 -0.001163331)
(-0.00012604771 0 -0.0011905117)
(-0.00011074232 0 -0.0011989426)
(-9.5656759e-05 0 -0.0011862884)
(-8.1518042e-05 0 -0.0011537454)
(-6.7943717e-05 0 -0.0011006677)
(-5.6933581e-05 0 -0.0010418066)
(-4.5089395e-05 0 -0.00094772591)
(-3.4339848e-05 0 -0.00084456106)
(-2.2090474e-05 0 -0.00069040435)
(-1.1543775e-05 0 -0.00052976606)
(-5.2978462e-06 0 -0.00037937054)
(3.0604471e-08 0 -0.00021095417)
(6.8811087e-06 0 6.3863893e-05)
(-0.00043385581 0 -3.945914e-05)
(-0.00043384707 0 -3.9303837e-05)
(-0.0004338312 0 -3.912126e-05)
(-0.00043380499 0 -3.8900223e-05)
(-0.00043376436 0 -3.8631162e-05)
(-0.00043370355 0 -3.8311655e-05)
(-0.00043361513 0 -3.7938059e-05)
(-0.00043348844 0 -3.7512523e-05)
(-0.00043330983 0 -3.7036404e-05)
(-0.00043305999 0 -3.6520744e-05)
(-0.00043271419 0 -3.5979461e-05)
(-0.0004322384 0 -3.5441253e-05)
(-0.00043158885 0 -3.4948951e-05)
(-0.00043070749 0 -3.4571435e-05)
(-0.00042951995 0 -3.4419202e-05)
(-0.00042793141 0 -3.4642912e-05)
(-0.00042582493 0 -3.5500883e-05)
(-0.00042305526 0 -3.7321425e-05)
(-0.00041944917 0 -4.0617561e-05)
(-0.00041480505 0 -4.6090664e-05)
(-0.0004089004 0 -5.4702218e-05)
(-0.00040150412 0 -6.7692617e-05)
(-0.0003923998 0 -8.6603392e-05)
(-0.00038141342 0 -0.00011323368)
(-0.00036844729 0 -0.00014951981)
(-0.00035352273 0 -0.00019725544)
(-0.00033677552 0 -0.00025781807)
(-0.00031849864 0 -0.00033163431)
(-0.00029904892 0 -0.00041793694)
(-0.00027883222 0 -0.00051462576)
(-0.0002581065 0 -0.00061871498)
(-0.00023725221 0 -0.00072575274)
(-0.00021667063 0 -0.00083005711)
(-0.00019667547 0 -0.00092672753)
(-0.00017761499 0 -0.00101037)
(-0.00015946975 0 -0.0010787253)
(-0.0001423687 0 -0.0011288597)
(-0.00012610665 0 -0.0011603057)
(-0.00011087565 0 -0.0011727116)
(-9.5921617e-05 0 -0.0011641389)
(-8.1864993e-05 0 -0.0011354775)
(-6.840656e-05 0 -0.0010863649)
(-5.728344e-05 0 -0.0010295111)
(-4.5541275e-05 0 -0.00093944032)
(-3.4765745e-05 0 -0.0008380594)
(-2.2709004e-05 0 -0.00068879091)
(-1.2233156e-05 0 -0.00053094802)
(-5.7563768e-06 0 -0.00038044316)
(-3.208395e-07 0 -0.00021213199)
(6.1998239e-06 0 5.1731612e-05)
(-0.00043233628 0 1.530036e-05)
(-0.00043232411 0 1.5538562e-05)
(-0.00043230424 0 1.5814652e-05)
(-0.00043227368 0 1.6129616e-05)
(-0.00043222859 0 1.6482223e-05)
(-0.0004321628 0 1.6882956e-05)
(-0.00043206874 0 1.7334432e-05)
(-0.00043193515 0 1.7846503e-05)
(-0.00043174802 0 1.84187e-05)
(-0.00043148722 0 1.9053835e-05)
(-0.00043112739 0 1.9741096e-05)
(-0.00043063356 0 2.0461357e-05)
(-0.00042996099 0 2.117553e-05)
(-0.00042905064 0 2.1816387e-05)
(-0.00042782655 0 2.2282274e-05)
(-0.00042619342 0 2.2401585e-05)
(-0.00042403132 0 2.195459e-05)
(-0.0004211955 0 2.0567482e-05)
(-0.00041751116 0 1.7737204e-05)
(-0.00041277754 0 1.2736289e-05)
(-0.00040677429 0 4.5661141e-06)
(-0.00039927414 0 -8.0388636e-06)
(-0.00039006894 0 -2.6666321e-05)
(-0.00037899602 0 -5.3162474e-05)
(-0.00036597488 0 -8.9509321e-05)
(-0.00035104189 0 -0.00013754605)
(-0.00033435035 0 -0.00019866776)
(-0.00031620051 0 -0.00027328077)
(-0.00029694817 0 -0.00036063593)
(-0.00027697831 0 -0.00045871793)
(-0.00025653981 0 -0.00056461241)
(-0.00023598699 0 -0.00067390751)
(-0.00021569827 0 -0.0007809522)
(-0.00019596749 0 -0.00088082528)
(-0.00017712616 0 -0.00096811077)
(-0.00015916235 0 -0.0010403891)
(-0.00014220928 0 -0.0010945986)
(-0.00012607703 0 -0.0011301588)
(-0.00011093678 0 -0.0011464382)
(-9.6117634e-05 0 -0.0011418369)
(-8.2154292e-05 0 -0.0011169826)
(-6.8812289e-05 0 -0.0010717295)
(-5.7603695e-05 0 -0.0010170146)
(-4.5956442e-05 0 -0.00093077955)
(-3.5169703e-05 0 -0.00083132615)
(-2.3294872e-05 0 -0.00068672747)
(-1.2894235e-05 0 -0.00053173153)
(-6.2120617e-06 0 -0.00038135799)
(-6.7325933e-07 0 -0.0002133214)
(5.5613188e-06 0 4.0512498e-05)
(-0.00043062234 0 6.8830348e-05)
(-0.00043060928 0 6.9065571e-05)
(-0.00043058794 0 6.9346287e-05)
(-0.0004305549 0 6.9683715e-05)
(-0.00043050572 0 7.0089412e-05)
(-0.00043043431 0 7.0568031e-05)
(-0.00043033276 0 7.112637e-05)
(-0.00043018977 0 7.176725e-05)
(-0.00042999086 0 7.2494138e-05)
(-0.00042971569 0 7.3303457e-05)
(-0.00042933821 0 7.4187891e-05)
(-0.00042882277 0 7.5127633e-05)
(-0.00042812358 0 7.608785e-05)
(-0.00042718028 0 7.7008056e-05)
(-0.00042591568 0 7.7785579e-05)
(-0.000424232 0 7.8273932e-05)
(-0.00042200959 0 7.8214655e-05)
(-0.00041910056 0 7.7269372e-05)
(-0.000415331 0 7.4898909e-05)
(-0.0004105 0 7.0367646e-05)
(-0.00040439081 0 6.2618179e-05)
(-0.00039677876 0 5.0376721e-05)
(-0.00038746582 0 3.1999764e-05)
(-0.00037630159 0 5.5992718e-06)
(-0.00036322346 0 -3.0852242e-05)
(-0.00034828449 0 -7.9229247e-05)
(-0.00033165566 0 -0.00014093057)
(-0.00031364328 0 -0.00021634677)
(-0.00029460107 0 -0.00030474137)
(-0.00027489527 0 -0.00040416375)
(-0.00025476106 0 -0.00051177116)
(-0.0002345288 0 -0.00062318446)
(-0.00021455104 0 -0.00073280162)
(-0.00019510438 0 -0.0008356839)
(-0.00017650134 0 -0.0009264139)
(-0.00015873766 0 -0.0010024223)
(-0.00014194832 0 -0.001060536)
(-0.00012595958 0 -0.0011000621)
(-0.00011092417 0 -0.0011201235)
(-9.6245206e-05 0 -0.0011193916)
(-8.2384903e-05 0 -0.0010982686)
(-6.9161532e-05 0 -0.0010567793)
(-5.7893106e-05 0 -0.0010043184)
(-4.6335614e-05 0 -0.00092176224)
(-3.5551082e-05 0 -0.00082437285)
(-2.3848882e-05 0 -0.00068424306)
(-1.3526732e-05 0 -0.00053212009)
(-6.6632108e-06 0 -0.00038210993)
(-1.0256984e-06 0 -0.00021451222)
(4.9631661e-06 0 3.0132693e-05)
(-0.00042871718 0 0.000121244)
(-0.00042869975 0 0.00012155844)
(-0.00042867335 0 0.00012192736)
(-0.00042863479 0 0.00012235296)
(-0.00042857995 0 0.00012283655)
(-0.00042850218 0 0.00012339177)
(-0.00042839339 0 0.00012402479)
(-0.00042824149 0 0.00012475092)
(-0.0004280316 0 0.00012557461)
(-0.00042774235 0 0.00012650586)
(-0.00042734697 0 0.00012754012)
(-0.00042680869 0 0.0001286667)
(-0.00042608064 0 0.00012985349)
(-0.00042510123 0 0.00013104181)
(-0.00042379156 0 0.00013213633)
(-0.00042205325 0 0.00013297155)
(-0.00041976316 0 0.00013332684)
(-0.00041677459 0 0.00013281823)
(-0.00041291256 0 0.00013090099)
(-0.0004079769 0 0.00012683679)
(-0.0004017562 0 0.00011945272)
(-0.00039402528 0 0.00010753333)
(-0.0003845995 0 8.9350191e-05)
(-0.0003733403 0 6.2985535e-05)
(-0.00036020564 0 2.6369999e-05)
(-0.00034526354 0 -2.2404895e-05)
(-0.00032870681 0 -8.472164e-05)
(-0.00031084178 0 -0.00016095387)
(-0.00029202435 0 -0.00025036289)
(-0.00027259728 0 -0.00035107933)
(-0.00025278414 0 -0.00046030295)
(-0.00023288814 0 -0.00057370935)
(-0.00021323954 0 -0.00068572278)
(-0.00019409303 0 -0.00079143161)
(-0.00017574709 0 -0.00088539261)
(-0.00015819892 0 -0.00096494082)
(-0.00014158907 0 -0.0010267781)
(-0.00012575524 0 -0.0010701145)
(-0.00011083927 0 -0.0010938423)
(-9.6305198e-05 0 -0.0010968649)
(-8.2557731e-05 0 -0.0010793884)
(-6.9455192e-05 0 -0.0010415605)
(-5.8149508e-05 0 -0.00099143799)
(-4.66789e-05 0 -0.00091242104)
(-3.5909179e-05 0 -0.00081719667)
(-2.4371715e-05 0 -0.00068135291)
(-1.4131703e-05 0 -0.00053213293)
(-7.1090217e-06 0 -0.00038269257)
(-1.3772888e-06 0 -0.00021568166)
(4.4026089e-06 0 2.0554836e-05)
(-0.00042662998 0 0.00017247697)
(-0.00042661147 0 0.00017278468)
(-0.00042658345 0 0.00017315004)
(-0.00042654201 0 0.00017358881)
(-0.00042648226 0 0.00017411667)
(-0.00042639756 0 0.00017474278)
(-0.00042627932 0 0.00017547946)
(-0.00042611548 0 0.00017633382)
(-0.00042589055 0 0.00017731553)
(-0.00042558304 0 0.00017842589)
(-0.00042516534 0 0.00017966433)
(-0.0004246 0 0.00018101727)
(-0.0004238389 0 0.00018245697)
(-0.00042281896 0 0.0001839302)
(-0.00042145979 0 0.00018534156)
(-0.00041966009 0 0.00018655025)
(-0.00041729705 0 0.00018730139)
(-0.00041422106 0 0.00018725368)
(-0.00041026003 0 0.00018576204)
(-0.00040521742 0 0.00018206532)
(-0.00039887423 0 0.00017510917)
(-0.00039101535 0 0.00016349862)
(-0.00038147079 0 0.00014546216)
(-0.00037011304 0 0.00011908879)
(-0.00035692107 0 8.2254381e-05)
(-0.00034198062 0 3.3037217e-05)
(-0.00032550391 0 -2.9925323e-05)
(-0.00030779824 0 -0.00010698677)
(-0.0002892187 0 -0.00019740555)
(-0.00027008706 0 -0.00029937174)
(-0.00025061087 0 -0.00041012977)
(-0.00023106816 0 -0.0005254043)
(-0.0002117644 0 -0.00063966085)
(-0.00019293522 0 -0.00074801487)
(-0.00017486285 0 -0.00084501934)
(-0.00015754687 0 -0.00092791805)
(-0.00014113076 0 -0.00099330794)
(-0.00012546477 0 -0.0010403027)
(-0.00011068088 0 -0.0010675928)
(-9.6297872e-05 0 -0.0010742624)
(-8.2671953e-05 0 -0.0010603481)
(-6.9693733e-05 0 -0.0010260876)
(-5.837191e-05 0 -0.00097837479)
(-4.6986879e-05 0 -0.00090277256)
(-3.6243287e-05 0 -0.00080980704)
(-2.4864135e-05 0 -0.00067808498)
(-1.4709037e-05 0 -0.0005317773)
(-7.5478884e-06 0 -0.00038310107)
(-1.7272137e-06 0 -0.0002168245)
(3.8777158e-06 0 1.1715604e-05)
(-0.00042436176 0 0.00022264158)
(-0.00042433788 0 0.00022302689)
(-0.00042430361 0 0.0002234791)
(-0.00042425533 0 0.00022400519)
(-0.00042418846 0 0.00022461124)
(-0.00042409574 0 0.00022531499)
(-0.00042396835 0 0.00022612803)
(-0.00042379333 0 0.00022706949)
(-0.00042355468 0 0.00022815023)
(-0.00042322974 0 0.00022938433)
(-0.00042279006 0 0.00023077413)
(-0.00042219688 0 0.00023231422)
(-0.00042140079 0 0.00023398012)
(-0.00042033723 0 0.00023572041)
(-0.00041892381 0 0.00023744805)
(-0.00041705802 0 0.00023900694)
(-0.00041461383 0 0.00024017734)
(-0.00041144981 0 0.00024048767)
(-0.00040738948 0 0.00023937322)
(-0.00040223075 0 0.00023600078)
(-0.00039575449 0 0.00022942941)
(-0.00038776403 0 0.00021810626)
(-0.00037808991 0 0.00020028776)
(-0.00036663046 0 0.00017384195)
(-0.00035338415 0 0.00013672349)
(-0.00033844952 0 8.7000772e-05)
(-0.00032206426 0 2.3349867e-05)
(-0.00030453037 0 -5.4561637e-05)
(-0.00028620257 0 -0.00014596991)
(-0.00026738065 0 -0.00024914436)
(-0.00024825659 0 -0.00036135244)
(-0.00022908115 0 -0.00047838167)
(-0.00021013747 0 -0.00059472175)
(-0.00019163939 0 -0.00070554957)
(-0.00017385631 0 -0.00080539835)
(-0.00015678608 0 -0.00089146189)
(-0.00014057753 0 -0.00096022575)
(-0.00012509008 0 -0.0010107213)
(-0.00011045111 0 -0.0010414484)
(-9.6224677e-05 0 -0.0010516464)
(-8.2728919e-05 0 -0.0010412006)
(-6.987833e-05 0 -0.0010104071)
(-5.8558865e-05 0 -0.00096514891)
(-4.7259616e-05 0 -0.00089284749)
(-3.6552944e-05 0 -0.00080220545)
(-2.5326708e-05 0 -0.0006744532)
(-1.5259608e-05 0 -0.0005310699)
(-7.9792619e-06 0 -0.00038333182)
(-2.0746112e-06 0 -0.00021791832)
(3.385892e-06 0 3.5808819e-06)
(-0.00042192251 0 0.00027167632)
(-0.00042189677 0 0.00027206308)
(-0.00042185966 0 0.00027252555)
(-0.00042180697 0 0.00027307974)
(-0.00042173329 0 0.00027374368)
(-0.0004216315 0 0.00027452887)
(-0.00042149226 0 0.00027545105)
(-0.00042130265 0 0.00027652192)
(-0.00042104602 0 0.00027775568)
(-0.00042069944 0 0.00027916055)
(-0.00042023346 0 0.00028074244)
(-0.00041960844 0 0.00028249577)
(-0.00041877318 0 0.00028440221)
(-0.00041766175 0 0.00028641657)
(-0.0004161887 0 0.00028845765)
(-0.00041425042 0 0.00029038518)
(-0.00041172784 0 0.0002918766)
(-0.00040847429 0 0.00029250009)
(-0.00040430394 0 0.00029173217)
(-0.00039901689 0 0.00028874168)
(-0.00039240297 0 0.00028246164)
(-0.00038426952 0 0.00027138794)
(-0.00037446007 0 0.00025376615)
(-0.00036289304 0 0.00022733458)
(-0.0003495938 0 0.00018986599)
(-0.00033467206 0 0.00013958845)
(-0.00031838794 0 7.521147e-05)
(-0.00030103884 0 -3.567077e-06)
(-0.00028297679 0 -9.5964555e-05)
(-0.00026448056 0 -0.00020030739)
(-0.00024572334 0 -0.00031389257)
(-0.00022693008 0 -0.00043256372)
(-0.00020835973 0 -0.00055084683)
(-0.00019020727 0 -0.00066397953)
(-0.00017272733 0 -0.00076649627)
(-0.0001559173 0 -0.00085554148)
(-0.00013992891 0 -0.00092751035)
(-0.00012463184 0 -0.00098135345)
(-0.00011014903 0 -0.0010154044)
(-9.6085715e-05 0 -0.0010290186)
(-8.2727941e-05 0 -0.0010219498)
(-7.0009252e-05 0 -0.00099452962)
(-5.8709657e-05 0 -0.00095176217)
(-4.749754e-05 0 -0.0008826597)
(-3.6837489e-05 0 -0.00079440076)
(-2.5760069e-05 0 -0.00067048295)
(-1.5783433e-05 0 -0.00053002065)
(-8.4016753e-06 0 -0.00038338125)
(-2.4187631e-06 0 -0.00021896163)
(2.925626e-06 0 -3.9040973e-06)
(-0.00041931302 0 0.00031968387)
(-0.00041928087 0 0.00032014669)
(-0.00041923621 0 0.00032069506)
(-0.00041917522 0 0.00032133626)
(-0.0004190928 0 0.00032207975)
(-0.00041898117 0 0.00032294424)
(-0.00041883076 0 0.00032394485)
(-0.00041862754 0 0.00032510412)
(-0.00041835448 0 0.0003264374)
(-0.00041798697 0 0.00032796515)
(-0.00041749511 0 0.00032969492)
(-0.0004168367 0 0.0003316322)
(-0.00041596046 0 0.0003337587)
(-0.00041479628 0 0.00033603907)
(-0.00041325928 0 0.00033839383)
(-0.0004112494 0 0.00034062624)
(-0.00040864647 0 0.00034241097)
(-0.00040529118 0 0.00034338682)
(-0.00040100184 0 0.00034296891)
(-0.0003955792 0 0.00034032165)
(-0.00038881903 0 0.00033431875)
(-0.00038053693 0 0.00032343979)
(-0.00037059224 0 0.00030584695)
(-0.00035891737 0 0.00027937156)
(-0.00034556544 0 0.0002416058)
(-0.00033066376 0 0.00019071012)
(-0.00031449243 0 0.00012555984)
(-0.00029734306 0 4.5899146e-05)
(-0.00027956108 0 -4.7477065e-05)
(-0.00026140419 0 -0.00015295352)
(-0.00024302747 0 -0.0002678403)
(-0.00022462847 0 -0.00038805041)
(-0.00020644388 0 -0.00050813068)
(-0.00018864841 0 -0.00062340871)
(-0.00017148442 0 -0.00072840795)
(-0.00015494609 0 -0.00082025612)
(-0.00013918972 0 -0.00089525526)
(-0.00012409275 0 -0.00095228885)
(-0.00010977731 0 -0.00098953176)
(-9.5882887e-05 0 -0.0010064403)
(-8.2670724e-05 0 -0.0010026482)
(-7.0087888e-05 0 -0.00097850172)
(-5.8823486e-05 0 -0.00093823875)
(-4.7700778e-05 0 -0.00087223891)
(-3.7096684e-05 0 -0.00078639857)
(-2.61647e-05 0 -0.00066618761)
(-1.6281202e-05 0 -0.00052864376)
(-8.814746e-06 0 -0.00038324747)
(-2.7588339e-06 0 -0.0002199327)
(2.4944594e-06 0 -1.0770519e-05)
(-0.00041654222 0 0.00036661568)
(-0.00041650669 0 0.00036709573)
(-0.00041645769 0 0.00036766655)
(-0.00041639091 0 0.00036834279)
(-0.00041630048 0 0.00036914037)
(-0.00041617869 0 0.0003700777)
(-0.00041601494 0 0.00037117357)
(-0.00041579569 0 0.00037244695)
(-0.00041550205 0 0.00037391821)
(-0.00041511016 0 0.00037560372)
(-0.00041458726 0 0.00037751784)
(-0.00041389192 0 0.00037966248)
(-0.00041296883 0 0.00038202862)
(-0.00041174824 0 0.00038457554)
(-0.00041014462 0 0.00038723427)
(-0.00040806229 0 0.00038973974)
(-0.00040536788 0 0.00039185685)
(-0.00040190356 0 0.00039317564)
(-0.0003974867 0 0.00039310215)
(-0.00039191942 0 0.00039078354)
(-0.00038500374 0 0.00038504873)
(-0.00037656618 0 0.00037432995)
(-0.0003664817 0 0.00035672715)
(-0.00035470417 0 0.00033003953)
(-0.0003412942 0 0.00029202733)
(-0.00032642589 0 0.00024046131)
(-0.00031037915 0 0.00017449538)
(-0.00029344335 0 9.3934847e-05)
(-0.00027595614 0 -4.2017849e-07)
(-0.00025815405 0 -0.00010699484)
(-0.00024017106 0 -0.00022311524)
(-0.00022217907 0 -0.00034476221)
(-0.00020439107 0 -0.00046650995)
(-0.00018696447 0 -0.00058377714)
(-0.00017012774 0 -0.0006910937)
(-0.00015387324 0 -0.00078556993)
(-0.00013835974 0 -0.0008634344)
(-0.00012347341 0 -0.00092350622)
(-0.00010933523 0 -0.00096382196)
(-9.5616208e-05 0 -0.00098390936)
(-8.2556697e-05 0 -0.00098329682)
(-7.0114378e-05 0 -0.00096233033)
(-5.8899827e-05 0 -0.00092458024)
(-4.7869602e-05 0 -0.00086159604)
(-3.7329938e-05 0 -0.00077820719)
(-2.6541078e-05 0 -0.00066158929)
(-1.6752997e-05 0 -0.00052695061)
(-9.2171517e-06 0 -0.00038292851)
(-3.0941708e-06 0 -0.00022083264)
(2.091211e-06 0 -1.7066755e-05)
(-0.00041361356 0 0.00041253426)
(-0.00041357321 0 0.00041304969)
(-0.00041351831 0 0.00041366191)
(-0.00041344434 0 0.00041438653)
(-0.000413345 0 0.00041524218)
(-0.00041321226 0 0.0004162485)
(-0.00041303491 0 0.00041742765)
(-0.00041279871 0 0.0004188023)
(-0.00041248403 0 0.00042039526)
(-0.00041206596 0 0.00042222678)
(-0.00041151068 0 0.00042431329)
(-0.00041077505 0 0.00042666228)
(-0.00040980237 0 0.00042926602)
(-0.00040852038 0 0.00043209637)
(-0.00040685028 0 0.0004349967)
(-0.00040468708 0 0.00043780808)
(-0.00040189526 0 0.00044024319)
(-0.00039831431 0 0.00044189606)
(-0.00039376154 0 0.00044215301)
(-0.00038804144 0 0.00044013865)
(-0.00038096266 0 0.00043464327)
(-0.00037236531 0 0.00042403255)
(-0.00036213877 0 0.00040635877)
(-0.00035025904 0 0.00037938028)
(-0.00033680557 0 0.00034094807)
(-0.00032197651 0 0.00028875838)
(-0.00030606642 0 0.00022192611)
(-0.0002893604 0 0.00014045585)
(-0.00027218283 0 4.5127372e-05)
(-0.00025474869 0 -6.2512203e-05)
(-0.00023717137 0 -0.0001797963)
(-0.00021959651 0 -0.00030278627)
(-0.00020221474 0 -0.00042606758)
(-0.00018516603 0 -0.00054517625)
(-0.00016866652 0 -0.00065463853)
(-0.00015270526 0 -0.00075157269)
(-0.00013744448 0 -0.00083213361)
(-0.00012277733 0 -0.00089508916)
(-0.000108826 0 -0.00093834305)
(-9.5288074e-05 0 -0.00096148589)
(-8.2387932e-05 0 -0.00096394785)
(-7.0090389e-05 0 -0.00094606199)
(-5.893838e-05 0 -0.00091081367)
(-4.8004217e-05 0 -0.00085076019)
(-3.7537172e-05 0 -0.0007698351)
(-2.6889604e-05 0 -0.00065670074)
(-1.7199359e-05 0 -0.00052495352)
(-9.6086289e-06 0 -0.00038242365)
(-3.4239894e-06 0 -0.00022164094)
(1.7135698e-06 0 -2.282063e-05)
(-0.00041053169 0 0.00045745116)
(-0.00041048599 0 0.00045800378)
(-0.00041042453 0 0.00045866022)
(-0.00041034253 0 0.00045943695)
(-0.00041023335 0 0.00046035421)
(-0.00041008853 0 0.00046143333)
(-0.0004098963 0 0.0004626988)
(-0.00040964183 0 0.00046417458)
(-0.00040930457 0 0.00046588731)
(-0.00040885854 0 0.00046786032)
(-0.00040826857 0 0.00047011415)
(-0.00040748989 0 0.00047265922)
(-0.00040646369 0 0.00047549191)
(-0.00040511984 0 0.00047858091)
(-0.00040337914 0 0.0004817502)
(-0.00040112943 0 0.00048484139)
(-0.00039823242 0 0.0004875909)
(-0.00039452677 0 0.0004895665)
(-0.00038982893 0 0.0004901456)
(-0.00038394614 0 0.00048842559)
(-0.00037669571 0 0.00048315909)
(-0.00036793346 0 0.00047261117)
(-0.00035756307 0 0.00045481489)
(-0.00034558462 0 0.00042747032)
(-0.00033210057 0 0.00038844778)
(-0.00031731284 0 0.00033568563)
(-0.00030155703 0 0.0002679427)
(-0.00028509463 0 0.00018554844)
(-0.0002682421 0 8.9249065e-05)
(-0.00025119039 0 -1.9420353e-05)
(-0.00023403047 0 -0.00013780378)
(-0.00021688325 0 -0.00026204408)
(-0.00019992306 0 -0.00038685349)
(-0.00018326091 0 -0.00050766334)
(-0.00016710634 0 -0.00061910916)
(-0.00015144691 0 -0.00071832181)
(-0.00013644686 0 -0.0008014042)
(-0.00012200501 0 -0.00086701378)
(-0.00010824908 0 -0.00091308324)
(-9.4898392e-05 0 -0.00093916392)
(-8.2163928e-05 0 -0.00094459943)
(-7.0015913e-05 0 -0.00092970008)
(-5.8938793e-05 0 -0.0008969402)
(-4.8104794e-05 0 -0.00083973962)
(-3.7717885e-05 0 -0.00076129029)
(-2.7210639e-05 0 -0.00065154131)
(-1.7620446e-05 0 -0.00052266515)
(-9.9880174e-06 0 -0.00038173271)
(-3.7476892e-06 0 -0.0002223607)
(1.3606488e-06 0 -2.8074977e-05)
(-0.00040730109 0 0.00050138621)
(-0.00040724966 0 0.00050197548)
(-0.00040718119 0 0.0005026755)
(-0.00040709057 0 0.00050350401)
(-0.00040697082 0 0.00050448294)
(-0.000406813 0 0.00050563492)
(-0.00040660479 0 0.00050698673)
(-0.00040633057 0 0.00050856529)
(-0.00040596892 0 0.00051039955)
(-0.00040549276 0 0.00051251587)
(-0.00040486551 0 0.00051493825)
(-0.00040404061 0 0.00051768261)
(-0.00040295747 0 0.00052075109)
(-0.00040155064 0 0.00052405564)
(-0.00039973469 0 0.00052748198)
(-0.0003973912 0 0.00053086933)
(-0.00039438242 0 0.0005339203)
(-0.00039054365 0 0.00053620968)
(-0.00038569154 0 0.00053709771)
(-0.00037963771 0 0.00053564553)
(-0.0003722187 0 0.00053046581)
(-0.00036329125 0 0.00051990424)
(-0.00035277719 0 0.00050192405)
(-0.00034069549 0 0.00047424913)
(-0.00032718709 0 0.00043456064)
(-0.0003124655 0 0.00038106116)
(-0.00029687198 0 0.00031245581)
(-0.00028066797 0 0.00022913966)
(-0.00026415562 0 0.00013187819)
(-0.00024749856 0 2.2210235e-05)
(-0.00023077523 0 -9.7321597e-05)
(-0.00021406601 0 -0.00022275008)
(-0.00019753386 0 -0.00034897363)
(-0.00018126208 0 -0.000471347)
(-0.0001654579 0 -0.0005846025)
(-0.00015010595 0 -0.00068591401)
(-0.00013537279 0 -0.00077133843)
(-0.0001211625 0 -0.00083943073)
(-0.00010760809 0 -0.00088810735)
(-9.4449947e-05 0 -0.00091700161)
(-8.1887041e-05 0 -0.00092530255)
(-6.9892839e-05 0 -0.00091329062)
(-5.8901219e-05 0 -0.00088298905)
(-4.8171688e-05 0 -0.00082856334)
(-3.7872142e-05 0 -0.00075258382)
(-2.750454e-05 0 -0.00064612394)
(-1.8016646e-05 0 -0.00052009598)
(-1.0355117e-05 0 -0.00038085559)
(-4.0645453e-06 0 -0.00022297288)
(1.0302671e-06 0 -3.2854595e-05)
(-0.0004039262 0 0.00054435993)
(-0.00040386856 0 0.00054498653)
(-0.00040379246 0 0.00054573099)
(-0.00040369253 0 0.00054661216)
(-0.00040356135 0 0.00054765343)
(-0.00040338951 0 0.00054887922)
(-0.00040316407 0 0.00055031837)
(-0.00040286869 0 0.00055199917)
(-0.00040248095 0 0.00055395385)
(-0.00040197253 0 0.00055621154)
(-0.0004013053 0 0.00055879991)
(-0.00040043075 0 0.00056173707)
(-0.00039928971 0 0.00056502969)
(-0.00039781784 0 0.00056855576)
(-0.00039591914 0 0.00057224406)
(-0.0003934771 0 0.00057590024)
(-0.00039034833 0 0.00057924944)
(-0.00038636775 0 0.00058184093)
(-0.00038135102 0 0.00058303336)
(-0.0003751294 0 0.00058174361)
(-0.00036753904 0 0.00057659139)
(-0.00035843924 0 0.00056595555)
(-0.00034777849 0 0.00054772613)
(-0.00033559825 0 0.0005196635)
(-0.00032206846 0 0.00047936509)
(-0.00030743514 0 0.0004249693)
(-0.00029201046 0 0.00035554925)
(-0.00027608094 0 0.00027131035)
(-0.00025992427 0 0.0001730945)
(-0.00024368858 0 6.2337489e-05)