/*--------------------------------*- C++ -*----------------------------------*\
  =========                 |
  \\      /  F ield         | OpenFOAM: The Open Source CFD Toolbox
   \\    /   O peration     | Website:  https://openfoam.org
    \\  /    A nd           | Version:  8
     \\/     M anipulation  |
\*---------------------------------------------------------------------------*/
FoamFile
{
    version     2.0;
    format      ascii;
    class       volScalarField;
    location    "0.0699881";
    object      Ma;
}
// * * * * * * * * * * * * * * * * * * * * * * * * * * * * * * * * * * * * * //

dimensions      [0 0 0 0 0 0 0];

internalField   nonuniform List<scalar> 
20000
(
0.57807098
0.68705026
0.76034549
0.82477509
0.88530382
0.92984869
0.93017213
0.93443968
0.93003691
0.93153821
0.92857247
0.92846823
0.9258659
0.9244784
0.92170787
0.91914987
0.91566809
0.91181791
0.90716313
0.90179157
0.89558116
0.88845451
0.88032998
0.87092019
0.86027623
0.84860365
0.83626981
0.82356683
0.81091968
0.79882549
0.78774443
0.77800961
0.76980872
0.7631701
0.75801265
0.75418793
0.75153341
0.74969968
0.7484662
0.74786431
0.74782089
0.74803812
0.74841242
0.74911296
0.74981853
0.75130684
0.75289057
0.7535974
0.75378526
0.75362062
0.58475005
0.69430519
0.7680382
0.83264007
0.89313136
0.93445115
0.93284428
0.93715772
0.93271636
0.93421427
0.9312041
0.93107187
0.92842261
0.92697356
0.92414241
0.92148969
0.9179161
0.9139417
0.909171
0.90366851
0.89730617
0.88992693
0.8813365
0.87137151
0.86046211
0.84861355
0.83605424
0.82310686
0.81029044
0.79811801
0.78704261
0.77737752
0.76928007
0.76275272
0.75769468
0.75395978
0.75136882
0.74949422
0.74828929
0.74777495
0.74775374
0.74796212
0.74836355
0.74903204
0.74980993
0.75158375
0.75297233
0.75356547
0.75368663
0.75361575
0.59174422
0.701836
0.77601013
0.8407947
0.90101887
0.93866876
0.93541987
0.93974841
0.93523255
0.93672728
0.93365737
0.93348974
0.93078907
0.92927049
0.92637491
0.92362111
0.91995782
0.91586473
0.91098164
0.90532757
0.89873783
0.89097634
0.8819441
0.87166409
0.86047167
0.84833777
0.83546603
0.8222831
0.80931739
0.79709776
0.78606633
0.77651175
0.76855818
0.7621795
0.75725636
0.75364208
0.75112575
0.74924748
0.74812761
0.74767707
0.74768027
0.74789436
0.7483148
0.74897696
0.74988216
0.75177318
0.75301622
0.75353482
0.75363897
0.75360489
0.59843238
0.70904027
0.78365157
0.848628
0.90825818
0.94227332
0.93773018
0.94209375
0.93751884
0.93901138
0.93588903
0.93568364
0.93293256
0.93134012
0.9283796
0.92552677
0.92178263
0.91757605
0.91255777
0.9066794
0.89973645
0.89154739
0.88217738
0.87168945
0.86021563
0.84772854
0.83455944
0.82115233
0.80806638
0.79583663
0.78488964
0.77548491
0.76771081
0.76151108
0.75674915
0.75327384
0.7508316
0.74898562
0.74795657
0.74757042
0.74759924
0.74781858
0.7482573
0.74893719
0.75001127
0.75193511
0.75304937
0.75350407
0.75359472
0.75359396
0.60499509
0.71609784
0.79115268
0.85637266
0.9149838
0.94538886
0.9398488
0.94423572
0.9395931
0.94107491
0.93789455
0.93764264
0.9348395
0.93316848
0.93014504
0.92719407
0.92336586
0.91901721
0.91379434
0.90757487
0.90025555
0.89177076
0.88220172
0.87146267
0.85960232
0.84676521
0.83329719
0.81968709
0.80651348
0.79431429
0.78349519
0.77428197
0.76672464
0.76073583
0.75616372
0.75284709
0.75047925
0.74871157
0.7477835
0.74745747
0.74751425
0.74774105
0.74819103
0.7489072
0.75018986
0.75205012
0.75306925
0.7534766
0.75356601
0.75358333
0.61132623
0.72289644
0.79840405
0.86396441
0.92106007
0.94802232
0.94171271
0.94612207
0.9414128
0.94288256
0.9396458
0.93934194
0.93649067
0.93473854
0.93165332
0.92859148
0.9246402
0.92006712
0.91455787
0.90801107
0.90045465
0.89177638
0.8819538
0.87085566
0.85862507
0.84543402
0.83168238
0.81789441
0.80467065
0.79254588
0.78189946
0.77291912
0.76561423
0.75986632
0.75551054
0.7523697
0.7500797
0.74842504
0.74760429
0.74733879
0.74742495
0.74765949
0.74811593
0.74888244
0.75038538
0.75214838
0.75308465
0.75345589
0.75354211
0.75357355
0.61742552
0.72941516
0.80537073
0.87139793
0.92642275
0.95020857
0.94330718
0.94774053
0.94295911
0.94442009
0.94112339
0.94075584
0.93786997
0.936027
0.93286408
0.92964716
0.925497
0.92065228
0.91489363
0.90816573
0.90043468
0.89151053
0.88134129
0.86987967
0.85726412
0.84372584
0.82970672
0.81577232
0.8025404
0.79053705
0.78010956
0.77140353
0.76438586
0.75890788
0.75479373
0.75184407
0.74964133
0.74812421
0.7474048
0.74721278
0.74733127
0.74757559
0.7480359
0.74886688
0.75057955
0.75223245
0.75309759
0.75344121
0.75352412
0.75356467
0.62323136
0.73560096
0.81199877
0.87864586
0.93101309
0.95197051
0.94457954
0.94906264
0.94419043
0.9456585
0.94229339
0.94182797
0.93894325
0.93698234
0.93369502
0.93027888
0.92593196
0.92089224
0.91500022
0.90810373
0.90013899
0.89088677
0.88036148
0.86851181
0.85551223
0.84163446
0.82737105
0.81332682
0.8001331
0.78830065
0.77813895
0.76974783
0.76305049
0.75786999
0.75402033
0.75127299
0.74917253
0.74780923
0.7472035
0.74707843
0.74723111
0.74748974
0.7479586
0.74887316
0.75076141
0.75230735
0.75310915
0.75343
0.7535102
0.75355666
0.62874662
0.74147233
0.81827134
0.88570294
0.93482483
0.95334412
0.94550774
0.95008058
0.94507658
0.94657055
0.94311243
0.94261225
0.93965787
0.93755299
0.93413444
0.93055211
0.92610135
0.92093582
0.91489247
0.90776109
0.89949584
0.8899032
0.87899588
0.86674856
0.85336162
0.83915716
0.82467731
0.81056532
0.79746012
0.78585005
0.77600121
0.76796446
0.76161894
0.7567621
0.7531967
0.75065651
0.74868113
0.74748415
0.74699408
0.74693715
0.74712174
0.7474027
0.74789518
0.74891294
0.75092554
0.75237223
0.7531191
0.75342068
0.75349691
0.75354966
0.63396993
0.74706375
0.82420031
0.89256569
0.93787593
0.95437731
0.94626586
0.95081114
0.94578171
0.94716225
0.94373619
0.94313558
0.94003288
0.93780534
0.93431698
0.93062972
0.92608371
0.92075951
0.91449386
0.90708281
0.89849992
0.88854097
0.87723691
0.86458037
0.85080841
0.8362943
0.82163194
0.80749938
0.79453645
0.78320156
0.77371223
0.76606774
0.76010367
0.75559505
0.75232974
0.74999408
0.74817554
0.74715346
0.7467833
0.7467908
0.74700142
0.74731328
0.74785097
0.74899138
0.75106904
0.75242793
0.75312725
0.75341228
0.75348624
0.75354363
0.63897235
0.7524173
0.82983396
0.89923225
0.94026965
0.95513862
0.94681624
0.9512853
0.94625869
0.94758193
0.94409669
0.94340281
0.94019443
0.93788031
0.9343328
0.93051984
0.92582696
0.92027915
0.91376978
0.90606016
0.89713497
0.88679289
0.87507569
0.86200297
0.84785099
0.83304962
0.81824431
0.80414322
0.7913791
0.78037299
0.77128903
0.76407285
0.75851792
0.75437991
0.75142585
0.74928786
0.7476634
0.74682096
0.74657102
0.74663988
0.74687237
0.74721729
0.74781986
0.74910872
0.75119234
0.75247521
0.75313355
0.75340452
0.75347648
0.75353849
0.6437553
0.75754584
0.83520554
0.90565092
0.942052
0.95565992
0.9471733
0.95164894
0.94653161
0.94785423
0.94426031
0.94350696
0.9402063
0.93778399
0.93413876
0.93014545
0.92526915
0.91948493
0.91270714
0.90467864
0.8953928
0.88464943
0.87250615
0.85901264
0.84449062
0.82943015
0.81452736
0.80051418
0.78800766
0.77738423
0.76875025
0.76199618
0.75687587
0.75312744
0.7504901
0.74854707
0.74714934
0.74648995
0.74635805
0.74648407
0.74673835
0.74711192
0.7477954
0.74925843
0.75129965
0.75251572
0.75313777
0.75339691
0.75346742
0.75353416
0.64833312
0.76248449
0.84037588
0.91171526
0.94329652
0.9559677
0.94730056
0.95167846
0.94657977
0.94774078
0.94421747
0.94338235
0.94001502
0.93743492
0.93365858
0.92947097
0.92439684
0.9183576
0.91129494
0.90293052
0.89326521
0.88210482
0.86952399
0.85560872
0.84073141
0.82544598
0.8104968
0.79663187
0.78444361
0.77425683
0.76611567
0.75985479
0.75519175
0.75184712
0.74952505
0.74778612
0.74663742
0.74616296
0.74614387
0.7463228
0.74660332
0.74699858
0.74777503
0.74942838
0.75139826
0.75255091
0.75313925
0.75338847
0.75345819
0.75353056
0.65273378
0.7672706
0.84540856
0.91729239
0.94407105
0.95604815
0.94719676
0.9516133
0.9463845
0.94756665
0.94390157
0.94284619
0.93953307
0.93678604
0.93287332
0.92848106
0.92319671
0.91689065
0.90952587
0.9008085
0.89074637
0.87915404
0.86612678
0.85179247
0.83658037
0.82111045
0.80617145
0.7925187
0.78071101
0.7710144
0.76340622
0.75766599
0.75347931
0.75054665
0.74853161
0.74702123
0.74613363
0.74584142
0.74592739
0.74615612
0.74647119
0.74688276
0.74776568
0.74960828
0.75149306
0.75258171
0.75313733
0.75337767
0.75344798
0.75352771
0.65690774
0.77184421
0.85028424
0.92248442
0.94438592
0.95572366
0.94680547
0.95126081
0.94591792
0.94706438
0.94328557
0.94215956
0.93874149
0.93582858
0.93177522
0.92717128
0.92166483
0.91507818
0.90739499
0.89830819
0.8878322
0.87579435
0.862314
0.84756767
0.83204708
0.81643953
0.80157255
0.78819937
0.77683606
0.76768185
0.76064283
0.7554464
0.75175068
0.7492319
0.74751375
0.74626924
0.74564324
0.74552442
0.74570569
0.74598729
0.74634419
0.74677566
0.74777855
0.7497923
0.75158472
0.75260876
0.75313168
0.75336319
0.7534361
0.75352572
0.66074697
0.77610036
0.85491682
0.92713188
0.94422515
0.95503009
0.94615008
0.95057682
0.9452201
0.94623639
0.94243275
0.94114808
0.93765459
0.93456956
0.93036704
0.92554101
0.91979847
0.91291761
0.904899
0.89542617
0.8845198
0.87202405
0.85808679
0.84294032
0.827144
0.81145231
0.7967245
0.78370177
0.7728474
0.76428446
0.75784531
0.7532113
0.75001631
0.74790812
0.74648556
0.74554262
0.74516864
0.74520819
0.74547732
0.74582091
0.74622211
0.74669511
0.74781954
0.74997595
0.75167276
0.75263272
0.75312296
0.7533452
0.75342193
0.7535248
0.66425818
0.78005342
0.85933189
0.93120592
0.94364877
0.9542509
0.94526875
0.94964724
0.94423012
0.94515028
0.94129287
0.93986639
0.93628022
0.93301174
0.92864898
0.92358959
0.91759667
0.91040728
0.90203615
0.89216055
0.88080758
0.86784278
0.8534479
0.83791832
0.82188585
0.8061701
0.79165416
0.77905624
0.76877417
0.76084512
0.75503061
0.7509744
0.74828568
0.74658216
0.74547093
0.74484685
0.74470719
0.74488724
0.7452478
0.74565798
0.74610222
0.74664632
0.74789622
0.75015531
0.75175656
0.75265419
0.75311245
0.75332531
0.75340557
0.75352517
0.66749547
0.78374044
0.86356654
0.93468819
0.94272566
0.95317276
0.94412094
0.94844635
0.94297872
0.94378095
0.93988348
0.93830006
0.93461726
0.93115555
0.92662128
0.92131748
0.91505924
0.90754662
0.89880532
0.8885098
0.8766944
0.86325103
0.84840162
0.83251203
0.81629031
0.80061775
0.78639218
0.77429558
0.7646441
0.75738247
0.75221308
0.74874922
0.7465696
0.74526611
0.74449259
0.74418207
0.74425086
0.74456337
0.74502409
0.74549749
0.74597896
0.74661562
0.74801621
0.75032684
0.75183607
0.75267378
0.75310082
0.75330371
0.75339039
0.7535269
0.67048529
0.78716264
0.86760364
0.93757298
0.94152444
0.95184361
0.94271934
0.94699116
0.94146774
0.94215933
0.93820196
0.93645314
0.93266657
0.92900235
0.92428532
0.91872573
0.9121869
0.90433571
0.89520593
0.88447287
0.87217955
0.85825
0.84295345
0.8267335
0.81037731
0.79482289
0.78097174
0.76945188
0.7604794
0.75391027
0.74940692
0.74655113
0.74488188
0.74398021
0.74356187
0.74354075
0.74379449
0.74424659
0.7448091
0.74533909
0.74584646
0.74659538
0.74818344
0.75048852
0.75191208
0.75269192
0.75308749
0.75327752
0.75338021
0.75352989
0.6732819
0.79036546
0.87142996
0.93989494
0.93989758
0.95026254
0.94106802
0.94527229
0.93969866
0.94026161
0.93625038
0.93432675
0.93043058
0.92655513
0.9216434
0.91581645
0.90898076
0.90077458
0.89123703
0.8800483
0.86726231
0.85284168
0.83711055
0.82059765
0.80417052
0.78881754
0.77542848
0.7645536
0.75629583
0.75044279
0.74663236
0.74439943
0.74323897
0.74274548
0.74267497
0.74291147
0.74334668
0.74394247
0.74460535
0.74518399
0.74570411
0.74658311
0.74839203
0.75064273
0.75198554
0.75270821
0.75307113
0.75324593
0.75337361
0.75353406
0.67589972
0.79336398
0.87500554
0.94155682
0.93808781
0.94842587
0.93916584
0.94329407
0.93767887
0.93810178
0.93403418
0.93192693
0.92791384
0.92381781
0.91869849
0.9125915
0.90544163
0.89686276
0.88689715
0.87523423
0.86194188
0.84702846
0.83088135
0.81412136
0.7976966
0.78263627
0.76979638
0.75962091
0.75210546
0.7470044
0.74391967
0.74231469
0.74165532
0.74156664
0.74181868
0.74229709
0.74291706
0.74365303
0.74441468
0.74503522
0.74556367
0.74658767
0.74862786
0.75079374
0.75205582
0.75272195
0.7530514
0.75321014
0.75336898
0.75353936
0.67836684
0.79618938
0.87829093
0.9425642
0.93600329
0.9463453
0.93702757
0.94106617
0.93541749
0.93568457
0.93155988
0.92925927
0.92512053
0.92079401
0.91545296
0.90905232
0.90156938
0.89259853
0.88218362
0.87002806
0.85621748
0.84081383
0.82427663
0.80732546
0.79098694
0.7763163
0.76410495
0.75466706
0.74792913
0.74363558
0.74130014
0.74031131
0.74013543
0.74043187
0.74099226
0.74170984
0.74250784
0.7433804
0.74423749
0.74489615
0.74544992
0.74662022
0.74887788
0.75093974
0.75211963
0.75273265
0.75302946
0.75317199
0.75336553
0.75354571
0.68072585
0.79887392
0.88125758
0.94292448
0.93368684
0.94403241
0.93466245
0.93859819
0.9329179
0.9330181
0.9288326
0.92632809
0.92205402
0.91748651
0.91190846
0.90519881
0.89736229
0.88797875
0.87709272
0.86442649
0.85008819
0.8342019
0.81730902
0.80023378
0.78407585
0.76989312
0.75837444
0.74970635
0.74380969
0.7403776
0.73879232
0.73838805
0.73867242
0.7393423
0.7402065
0.74115197
0.74212185
0.74312736
0.74407185
0.74476748
0.74538092
0.74668659
0.74913005
0.75107522
0.75217192
0.75273633
0.75300769
0.75313568
0.75336282
0.75355292
0.68301428
0.80141974
0.88386772
0.9426387
0.93115412
0.94149501
0.93208243
0.93589457
0.93018496
0.93010494
0.92585485
0.92313669
0.91871673
0.91389714
0.90806479
0.90102901
0.89281676
0.88299862
0.87161962
0.85842582
0.84355363
0.82719864
0.80999493
0.79287526
0.77700099
0.7633982
0.75261832
0.74477277
0.73980294
0.73725856
0.73639417
0.73653459
0.73727145
0.73831034
0.73946285
0.74062618
0.74176105
0.74289742
0.74391412
0.74464463
0.74534678
0.74679629
0.74937222
0.75119519
0.75221001
0.75273077
0.75298886
0.75310915
0.75336061
0.7535609
0.68522279
0.80389027
0.88611373
0.94173377
0.92841777
0.93873051
0.92928167
0.93295579
0.92721997
0.92694802
0.92262989
0.9196882
0.91511012
0.91002541
0.90391931
0.89653853
0.88792729
0.87765209
0.86575853
0.85202189
0.83661351
0.81981158
0.80235372
0.78528228
0.76979888
0.75685404
0.74685275
0.73992529
0.73595474
0.73428626
0.734084
0.73476052
0.73594602
0.73733737
0.73876441
0.74013365
0.74142747
0.74269279
0.74376144
0.74451929
0.74533052
0.74695901
0.74959428
0.75129788
0.75223586
0.75271971
0.7529726
0.75309461
0.75335867
0.75356964
0.68730536
0.8062744
0.88791643
0.94022525
0.92547798
0.93574134
0.92626052
0.92978781
0.92402728
0.92355253
0.91916048
0.9159838
0.91123234
0.90586747
0.89946663
0.89172098
0.88268694
0.87193189
0.85950303
0.84521046
0.82926891
0.81205158
0.79441023
0.77749144
0.7625035
0.75027647
0.74111925
0.73522776
0.73229252
0.73143746
0.73186479
0.73308351
0.73469846
0.73642657
0.73811235
0.73967596
0.7411234
0.74251284
0.74361421
0.74438704
0.74532442
0.74717956
0.74979179
0.75138556
0.75225287
0.75270498
0.7529536
0.75308587
0.75335697
0.75357907
0.68929528
0.80862774
0.88925245
0.93817921
0.9223475
0.93254138
0.92303118
0.92639549
0.92061193
0.91991978
0.91544523
0.91201956
0.90707739
0.90141662
0.89469958
0.88656876
0.87708775
0.86582997
0.85284596
0.83798719
0.82152184
0.80393251
0.78619321
0.76953966
0.75514159
0.74368247
0.73548799
0.73072938
0.72880709
0.72869609
0.72976234
0.73150625
0.73353234
0.73557903
0.73750781
0.73925508
0.74085168
0.74235316
0.74347712
0.74425833
0.74533829
0.74744635
0.7499721
0.75146292
0.75226345
0.75268445
0.75292449
0.75308045
0.75335569
0.75358906
0.69118007
0.81095762
0.89006948
0.93562929
0.91901575
0.929127
0.91959288
0.92277802
0.91696967
0.91604444
0.91147623
0.90778747
0.90263701
0.89666523
0.88961051
0.88107353
0.87112081
0.85933736
0.84577986
0.83034835
0.81337728
0.79547359
0.77773691
0.76146332
0.74773389
0.73711357
0.73003269
0.72645899
0.72546257
0.72608452
0.72778531
0.73003316
0.73244909
0.73479557
0.73695171
0.73887373
0.7406146
0.74220621
0.74335714
0.74416046
0.74538533
0.7477387
0.75014521
0.75153322
0.75226937
0.75265686
0.7528835
0.75307686
0.75335642
0.75359958
0.69293773
0.81326107
0.89032843
0.93261156
0.91548435
0.92549578
0.9159403
0.91892822
0.91309071
0.9119157
0.90724314
0.90327929
0.89790386
0.89160615
0.8841914
0.87522586
0.86477609
0.85244425
0.83829671
0.82229079
0.80484275
0.78669835
0.76907723
0.75329365
0.74029823
0.73064448
0.72480996
0.72240178
0.72225185
0.72362417
0.72593833
0.72866577
0.73144942
0.73407625
0.73644524
0.73853432
0.74041094
0.74206845
0.74325493
0.74410914
0.74546569
0.74804235
0.75030961
0.75159598
0.75227318
0.75262811
0.75283936
0.75307433
0.75336077
0.7536106
0.69455071
0.81554716
0.89002219
0.92913802
0.91174525
0.92163298
0.9120585
0.91482814
0.90896222
0.90752421
0.9027392
0.89849007
0.89287223
0.88623209
0.87843301
0.86901487
0.85804238
0.84514011
0.83038872
0.8138135
0.79593103
0.77763659
0.76025167
0.74505741
0.73286918
0.72436175
0.71985458
0.71851425
0.71920697
0.72132206
0.72422396
0.72740499
0.73053306
0.73342101
0.73598962
0.73823704
0.74023543
0.74194191
0.7431615
0.74409007
0.74558546
0.7483419
0.75045957
0.75164805
0.75227457
0.75260496
0.75280746
0.75307242
0.75336824
0.75362211
0.69600242
0.81775261
0.88910492
0.92526868
0.90777147
0.91751879
0.90793387
0.91047164
0.90458033
0.90287034
0.89796259
0.8934163
0.88753516
0.88053358
0.87232401
0.86242816
0.85090745
0.83741372
0.82204804
0.80491754
0.78665919
0.7683215
0.75129444
0.73677582
0.72551787
0.71833424
0.71515587
0.7147899
0.71634931
0.71918228
0.72264306
0.72625022
0.72969909
0.73282983
0.73558527
0.73797773
0.74007921
0.74182611
0.74307133
0.74408925
0.74575437
0.74862057
0.75058935
0.75168643
0.75227003
0.75258936
0.75279282
0.75307108
0.75337827
0.75363403
0.6972772
0.81979218
0.88757493
0.92128931
0.90356752
0.9131623
0.90357599
0.90586973
0.89995051
0.89795477
0.89290926
0.88804999
0.88188211
0.87449832
0.86585121
0.85545226
0.8433582
0.82925353
0.81326792
0.7956084
0.77705082
0.75879008
0.74223753
0.7284766
0.71834188
0.71260724
0.71066845
0.7112635
0.71368605
0.71720657
0.72119515
0.72519999
0.7289464
0.7323028
0.73523056
0.73774762
0.73993226
0.74172057
0.74299337
0.7441046
0.74598031
0.74886486
0.75069686
0.75171134
0.7522585
0.75257754
0.75278591
0.7530716
0.7533903
0.75364624
0.69838376
0.82165689
0.88546121
0.91716159
0.89915539
0.90858041
0.89899394
0.90102443
0.8950685
0.89276862
0.88756716
0.88237859
0.87589979
0.86811245
0.85900065
0.84807272
0.83538071
0.8206473
0.80404305
0.78589543
0.76713418
0.74907795
0.73310882
0.7202181
0.71142607
0.70718546
0.70637701
0.70796028
0.71122078
0.71539477
0.7198782
0.72425205
0.72827391
0.73183929
0.73492055
0.73753779
0.7397965
0.74163333
0.74294766
0.74414841
0.74625616
0.74907393
0.75078502
0.75172626
0.75224169
0.75256463
0.75278332
0.75307617
0.75340394
0.75365862
0.69939504
0.82335853
0.88278302
0.91264686
0.89452969
0.90376047
0.89417375
0.89591611
0.88991792
0.88729643
0.88192179
0.87638874
0.86957471
0.86136182
0.8517575
0.84027415
0.82696016
0.81158328
0.7943714
0.77579485
0.75694308
0.73922049
0.72393646
0.71209762
0.70483349
0.70202938
0.70231099
0.70489063
0.70895456
0.71374504
0.7186893
0.72340415
0.72768068
0.73143657
0.73464732
0.73734841
0.73969617
0.74157851
0.74293626
0.74422867
0.74655922
0.74925893
0.75085941
0.75173748
0.75222567
0.75254691
0.75278277
0.75308569
0.75341892
0.75367107
0.70035176
0.82481482
0.87955364
0.90794283
0.88966369
0.89867667
0.88909428
0.89052721
0.88448339
0.88152663
0.87596118
0.87006839
0.86289345
0.8542315
0.84410579
0.83203998
0.81808065
0.80205017
0.78425462
0.76532822
0.74651289
0.72925023
0.71476138
0.70421867
0.6985953
0.69710634
0.69850375
0.70205783
0.70688608
0.7122539
0.71762493
0.72265442
0.7271649
0.73108806
0.7344032
0.73719686
0.73964721
0.74155665
0.74294104
0.74434283
0.74687007
0.74942767
0.7509242
0.75175009
0.75221801
0.75252881
0.75278331
0.75309974
0.75343502
0.75368349
0.70126736
0.82593765
0.8757761
0.90292518
0.8845423
0.89331832
0.88374613
0.88485334
0.8787566
0.87545104
0.86967434
0.86340484
0.85584132
0.84670481
0.83602783
0.82335182
0.80872549
0.79203862
0.77370047
0.7545243
0.73588083
0.71920072
0.70566761
0.69666741
0.69268966
0.69243188
0.69497217
0.69946262
0.7050121
0.71091699
0.71668201
0.72200126
0.72672216
0.73078369
0.73418789
0.73710745
0.73963199
0.74155327
0.74295575
0.74448849
0.74717675
0.74958205
0.75098131
0.75176322
0.75221687
0.75251926
0.75278463
0.75311763
0.75345204
0.7536958
0.70212895
0.82671516
0.8715003
0.89762839
0.87916659
0.88768515
0.87812734
0.87888951
0.87272996
0.86905883
0.86304831
0.85638308
0.84840171
0.838763
0.82750374
0.8141894
0.79887723
0.78154183
0.76272218
0.74341575
0.72508305
0.70910849
0.69677119
0.6895019
0.68706436
0.68804991
0.69171949
0.69710268
0.70332759
0.70972963
0.7158578
0.7214413
0.72634347
0.73051408
0.73401703
0.73707372
0.73963255
0.74156031
0.74298333
0.74466424
0.74746927
0.74972158
0.75103156
0.75177509
0.75221749
0.75251743
0.75278774
0.7531386
0.7534698
0.75370793
0.70280616
0.82717271
0.86678902
0.89205205
0.87353507
0.88177171
0.87223106
0.87262324
0.86639065
0.86233688
0.85606755
0.84898642
0.84055549
0.83038477
0.81851122
0.80453079
0.78851929
0.77055829
0.75134077
0.73203944
0.71415848
0.69903707
0.6881829
0.68273112
0.68171281
0.6839872
0.68874677
0.69497365
0.70182694
0.70868783
0.71514889
0.72096635
0.72601586
0.73027999
0.73391604
0.73706675
0.73964158
0.7415743
0.74303457
0.7448708
0.74773797
0.74984501
0.75107559
0.75178637
0.75221981
0.75251916
0.75279501
0.75316196
0.75348811
0.75371983
0.70327048
0.82727819
0.86165579
0.88619286
0.86764007
0.87556345
0.86604431
0.86604057
0.85972392
0.85527069
0.84871521
0.84119518
0.83228064
0.821546
0.80902548
0.79435276
0.77763695
0.75909227
0.73958328
0.72043213
0.70314626
0.6890928
0.67998834
0.6763099
0.67668027
0.68024938
0.68605111
0.69306921
0.70050447
0.70778747
0.71454805
0.72056154
0.72572886
0.73010165
0.73387898
0.73707373
0.73966219
0.74159831
0.74311569
0.74510965
0.74797507
0.74995192
0.75111475
0.75179865
0.75222474
0.75252276
0.75280788
0.75318716
0.75350676
0.75373146
0.7034478
0.82702369
0.85612082
0.88003159
0.86146618
0.86904468
0.85955356
0.85913071
0.85271463
0.84784393
0.84097094
0.83298587
0.82355145
0.81221912
0.79901924
0.78363165
0.76621966
0.74715618
0.72748415
0.70863443
0.69209491
0.67940629
0.67223603
0.67020718
0.67200478
0.67683869
0.6836274
0.69138252
0.69935488
0.70702212
0.71404154
0.72021047
0.72548772
0.73000205
0.73387305
0.73709552
0.73969864
0.74163778
0.74322903
0.74537764
0.74817749
0.7500442
0.75115095
0.75181285
0.752232
0.75252725
0.75282624
0.75321378
0.7535256
0.75374277
0.70326535
0.82641448
0.85019181
0.8735649
0.85500727
0.8622071
0.85274815
0.85187985
0.84534405
0.84003485
0.83280945
0.82433048
0.8143384
0.8023738
0.78846314
0.77234473
0.75426177
0.73476964
0.71508042
0.69669151
0.68108965
0.67009305
0.664913
0.66444289
0.66770508
0.67375199
0.68146817
0.68990629
0.69837117
0.70637872
0.71361059
0.71990982
0.72532258
0.72996814
0.73388432
0.73713777
0.73974953
0.74169519
0.74337318
0.74565896
0.74835246
0.75012602
0.75118571
0.75182864
0.75224086
0.75253255
0.75284987
0.75324154
0.75354445
0.75375375
0.70266712
0.82546967
0.84389047
0.86678764
0.84825642
0.85503499
0.84560932
0.84426463
0.83758596
0.83181616
0.82420099
0.81519729
0.80460872
0.7919766
0.77732656
0.76047199
0.7417656
0.72196075
0.70241327
0.6846556
0.6702651
0.66124135
0.65796742
0.65907031
0.6637838
0.67098381
0.67956524
0.6886329
0.69754152
0.70583678
0.71324232
0.71968425
0.7252458
0.72996646
0.73391483
0.73719998
0.73981476
0.74177215
0.74354406
0.7459352
0.74851206
0.75020149
0.7512196
0.75184523
0.75225144
0.75254014
0.75287825
0.75327017
0.75356317
0.75376436
0.70159132
0.82400619
0.83721173
0.85967369
0.84118821
0.84749898
0.83810874
0.83625725
0.82941002
0.82315735
0.81511271
0.80555102
0.79432645
0.78099171
0.76557895
0.74799795
0.72874154
0.70876358
0.68952753
0.67259158
0.65976721
0.65288201
0.65138886
0.65412332
0.66023928
0.66852563
0.67790938
0.68755156
0.69684638
0.70537656
0.71294747
0.71956001
0.72522508
0.72998453
0.73397115
0.73728067
0.7398939
0.74186927
0.74373689
0.7462002
0.74866151
0.75027342
0.7512529
0.75186184
0.7522637
0.75255213
0.75291035
0.75329936
0.75358162
0.75377461
0.69999451
0.82200798
0.83014701
0.85218273
0.83377135
0.8395677
0.830218
0.82783142
0.8207844
0.8140244
0.80550775
0.79535271
0.78345206
0.7693811
0.75319116
0.73491441
0.71520992
0.69521895
0.67647906
0.66061601
0.64972034
0.64498149
0.64522945
0.64961086
0.65706606
0.66636782
0.67648979
0.68664528
0.6962626
0.70499889
0.71276359
0.71951832
0.72523381
0.73002669
0.73405165
0.73737819
0.7399869
0.74198657
0.74394688
0.74645225
0.7488032
0.7503433
0.75128655
0.75187898
0.75227646
0.75256933
0.7529446
0.75332876
0.75359972
0.75378447
0.69780837
0.81955344
0.8226705
0.84429729
0.8259833
0.83121685
0.82190728
0.81895597
0.81167222
0.80437817
0.79534462
0.78455936
0.77194289
0.75710589
0.7401378
0.72122172
0.70119971
0.68137273
0.66333429
0.64888734
0.64020078
0.6375029
0.63953891
0.64553389
0.6542552
0.66449887
0.67529108
0.68588948
0.69577784
0.70473848
0.71268964
0.71951751
0.72526696
0.73009859
0.73415463
0.73749101
0.74009371
0.74212339
0.74416976
0.74669156
0.74893776
0.75041128
0.75132082
0.75189724
0.75228963
0.75259151
0.75297971
0.75335804
0.7536174
0.75379395
0.69507728
0.81661614
0.81479383
0.83598508
0.81780229
0.82241584
0.81313547
0.80958919
0.80203147
0.7941744
0.78457791
0.7731239
0.75975322
0.74412788
0.7263999
0.70693127
0.68674975
0.66728313
0.65019013
0.63756344
0.63122095
0.63046742
0.63434531
0.6418877
0.65179554
0.66290471
0.67429159
0.68526019
0.69540929
0.7046085
0.71267377
0.7195449
0.7253314
0.73019731
0.73427787
0.73761779
0.74021432
0.74227854
0.74440164
0.74691872
0.74906516
0.75047673
0.75135505
0.75191663
0.75230455
0.75261812
0.75301553
0.75338697
0.75363463
0.75380305
0.69173694
0.81313793
0.80648025
0.8272065
0.8091864
0.81312299
0.80385949
0.79969066
0.79181486
0.78336444
0.77315666
0.76099462
0.74683583
0.73041158
0.71196714
0.69206451
0.67190572
0.65302072
0.63719742
0.62677361
0.622734
0.62394146
0.62965151
0.63866319
0.64967263
0.66156514
0.67346452
0.68475308
0.69518734
0.70456585
0.71269456
0.71960702
0.72542749
0.73032099
0.73441929
0.73775739
0.74034858
0.74245048
0.74463884
0.74713306
0.74918513
0.7505392
0.75138926
0.75193776
0.75232191
0.75264879
0.75305263
0.75341543
0.7536514
0.75381175
0.68779164
0.80908687
0.79772214
0.81791879
0.80009679
0.80329287
0.79403592
0.7892125
0.78096988
0.77189287
0.7610252
0.7481168
0.73314323
0.71592731
0.69684058
0.67665569
0.65672542
0.63867632
0.62454185
0.61657944
0.61473226
0.61797199
0.62545613
0.63584797
0.64786837
0.66045298
0.67278738
0.68440068
0.69509608
0.70457401
0.71275549
0.71970657
0.72555239
0.73046708
0.73457693
0.73790886
0.74049626
0.74263738
0.74487804
0.74733356
0.74929741
0.75059867
0.75142386
0.75196132
0.75234232
0.75268352
0.7530913
0.75344337
0.75366768
0.75382005
0.68320312
0.80437737
0.78848294
0.80806689
0.79048335
0.79287789
0.78360808
0.77810045
0.76943649
0.75969848
0.74812318
0.73443402
0.71863014
0.70065366
0.68103321
0.66074942
0.64128308
0.62438638
0.61239215
0.60696535
0.60727677
0.61257402
0.62175036
0.63342489
0.6463581
0.65953835
0.67225982
0.68421573
0.6950796
0.70462891
0.71286137
0.71983936
0.72570334
0.73063323
0.73474895
0.73807134
0.74065693
0.74283711
0.74511611
0.74751937
0.74940199
0.75065535
0.75145934
0.75198796
0.75236633
0.75272226
0.75313105
0.75347073
0.75368347
0.75382796
0.67794745
0.79891346
0.77873755
0.79760519
0.78029612
0.78182532
0.77251425
0.76629129
0.75714829
0.74671474
0.73438804
0.71988862
0.70325525
0.68457978
0.6645717
0.64440352
0.62567521
0.61034467
0.60087008
0.59790154
0.60043503
0.60775024
0.6185209
0.63137184
0.64511106
0.65880276
0.67191535
0.68414886
0.69511795
0.7047363
0.71300662
0.72000227
0.7258775
0.73081716
0.73493367
0.73824414
0.74083004
0.74304742
0.7453502
0.74769024
0.74949924
0.75070969
0.75149589
0.75201784
0.75239421
0.75276451
0.75317128
0.75349746
0.75369875
0.75383547
0.67204024
0.79262867
0.76845403
0.78646947
0.76946909
0.77006752
0.76068137
0.75371492
0.74403544
0.73287242
0.71975474
0.70442406
0.68698421
0.66770798
0.64749708
0.62769359
0.61002968
0.59675893
0.59000992
0.58942214
0.5942448
0.60349331
0.61574783
0.62965963
0.64409511
0.65825572
0.67175258
0.68415493
0.69521593
0.70489158
0.71318734
0.72019163
0.72607219
0.7310167
0.73512955
0.73842661
0.74101484
0.74326595
0.74557822
0.74784784
0.74958952
0.75076216
0.7515333
0.75205037
0.75242598
0.7528094
0.75321158
0.75352354
0.75371353
0.7538426
0.66546398
0.78537319
0.75757287
0.7745834
0.75792169
0.75753299
0.74802918
0.74030201
0.73002662
0.71809976
0.70415458
0.68798446
0.66979223
0.65005628
0.62986788
0.61072468
0.59454383
0.5838092
0.57977599
0.58161847
0.58871339
0.59978986
0.61340505
0.62825375
0.64329108
0.65791677
0.67170477
0.68422817
0.69537284
0.70508943
0.71339894
0.72040421
0.72628484
0.73122979
0.73533519
0.73861815
0.74121043
0.7434904
0.745799
0.74799487
0.74967308
0.75081345
0.7515715
0.75208422
0.75246158
0.75285598
0.75325151
0.7535489
0.75372783
0.75384931
0.65820265
0.77698131
0.74603681
0.76188006
0.74558228
0.74415565
0.73448315
0.72597812
0.71504626
0.70231487
0.68751273
0.67051844
0.65166861
0.63166114
0.6117639
0.59363452
0.57945737
0.57157767
0.57018474
0.57455082
0.58383761
0.59661771
0.6114585
0.62711872
0.64271068
0.65776047
0.67173653
0.68437238
0.69558102
0.70532424
0.71363727
0.72063684
0.72651299
0.73145445
0.73554933
0.73881816
0.74141567
0.74371849
0.74601169
0.74813269
0.74975069
0.7508639
0.75161039
0.75211903
0.75250111
0.75290359
0.75329077
0.75357353
0.75374166
0.75385577
0.6502942
0.76725765
0.73378886
0.74829838
0.7323761
0.72987929
0.71996684
0.71065516
0.69900012
0.68542328
0.66975156
0.65198396
0.63262189
0.61258234
0.5932998
0.57662288
0.56499155
0.56006151
0.56133787
0.56823847
0.57960447
0.59394656
0.60986927
0.62623259
0.64236492
0.65772528
0.6718482
0.68457937
0.69583408
0.70559076
0.7138984
0.7208866
0.72675435
0.73168887
0.73577082
0.73902602
0.74162927
0.74394807
0.74621552
0.74826144
0.74982297
0.75091335