/*--------------------------------*- C++ -*----------------------------------*\
  =========                 |
  \\      /  F ield         | OpenFOAM: The Open Source CFD Toolbox
   \\    /   O peration     | Website:  https://openfoam.org
    \\  /    A nd           | Version:  8
     \\/     M anipulation  |
\*---------------------------------------------------------------------------*/
FoamFile
{
    version     2.0;
    format      ascii;
    class       surfaceScalarField;
    location    "0.0699881";
    object      meshPhi;
}
// * * * * * * * * * * * * * * * * * * * * * * * * * * * * * * * * * * * * * //

dimensions      [0 3 -1 0 0 0 0];

internalField   nonuniform List<scalar> 
39600
(
-7.162674e-05
-4.6110645e-06
4.7133229e-06
-7.1731334e-05
-5.5187844e-06
5.6240711e-06
-7.1854685e-05
-6.6117988e-06
6.7377777e-06
-7.20027e-05
-7.9210936e-06
8.0719316e-06
-7.2181813e-05
-9.4892674e-06
9.6700134e-06
-7.2399217e-05
-1.1367542e-05
1.1584074e-05
-7.2669719e-05
-1.3616834e-05
1.3876277e-05
-7.3004376e-05
-1.6309758e-05
1.6620848e-05
-7.3425829e-05
-1.9533009e-05
1.9906235e-05
-7.394892e-05
-2.3389572e-05
2.3837614e-05
-7.4599527e-05
-2.8001447e-05
2.8539746e-05
-7.5409608e-05
-3.3512866e-05
3.4160179e-05
-7.643142e-05
-4.009375e-05
4.0872792e-05
-7.772856e-05
-4.7943114e-05
4.8881751e-05
-7.9366389e-05
-5.729315e-05
5.8424975e-05
-8.145897e-05
-6.8411616e-05
6.9778503e-05
-8.4345789e-05
-8.1601848e-05
8.3258437e-05
-8.8409717e-05
-9.7198039e-05
9.9210208e-05
-9.380661e-05
-0.00011556132
0.00011801108
-0.00010069012
-0.00013706356
0.00014005583
-0.00010927416
-0.00016203828
0.00016571069
-0.00011983611
-0.0001908527
0.00019539856
-0.00013335966
-0.00022370395
0.00022936468
-0.00014966179
-0.00026091664
0.00026802817
-0.00017138056
-0.00030232585
0.00031131955
-0.00019682363
-0.00034720241
0.00035860058
-0.00022854987
-0.000394684
0.00040898941
-0.00025820044
-0.00044479056
0.00046242986
-0.00030244361
-0.0004929789
0.00051488325
-0.00036042086
-0.00053460264
0.00056283095
-0.00043103173
-0.00057500515
0.00061133835
-0.00051726523
-0.00061805267
0.00066441288
-0.0006142519
-0.00066413713
0.00072306585
-0.00073449912
-0.0006982298
0.00077230985
-0.00086063226
-0.00071528938
0.00080723369
-0.0010351019
-0.00071359953
0.00082720194
-0.0012095556
-0.00069015
0.00082912876
-0.0013810573
-0.00065310274
0.00081825106
-0.0015380287
-0.00060973401
0.00080039201
-0.0017039877
-0.00055573599
0.00077120351
-0.0018773707
-0.00048147083
0.00072320143
-0.0019719526
-0.00034330207
0.00060344582
-0.0020426971
-0.00010668803
0.00037402323
-0.0019719167
0.00010744332
0.00015584962
-0.001736803
0.00030911263
-7.1872448e-05
-0.0015586172
0.00056239871
-0.0003746238
-0.0015077983
0.0007494362
-0.00059642578
-0.0015140082
0.00079472454
-0.00064643911
-0.001270967
0.00083552032
-0.00072190266
0.00047606342
-0.0004461782
-5.7527501e-05
-4.5410825e-06
-5.7607421e-05
-5.434957e-06
-5.7701282e-05
-6.5112516e-06
-5.7814376e-05
-7.8005121e-06
-5.7950585e-05
-9.3448803e-06
-5.8116357e-05
-1.1194341e-05
-5.8320848e-05
-1.3409195e-05
-5.8573226e-05
-1.6060726e-05
-5.8891177e-05
-1.9234369e-05
-5.9290122e-05
-2.3031218e-05
-5.9797561e-05
-2.7571333e-05
-6.0447707e-05
-3.2996449e-05
-6.1283771e-05
-3.9473682e-05
-6.2359979e-05
-4.719826e-05
-6.3707816e-05
-5.6398882e-05
-6.5463459e-05
-6.7334878e-05
-6.796307e-05
-8.0296756e-05
-7.1560322e-05
-9.5608346e-05
-7.6433357e-05
-0.00011362237
-8.2688471e-05
-0.00013469307
-9.0532861e-05
-0.00015913175
-0.00010028368
-0.00018724037
-0.000112832
-0.0002191765
-0.00012823587
-0.00025516749
-0.00014892117
-0.00029491882
-0.00017385224
-0.00033764923
-0.00020411936
-0.00038261859
-0.00023355543
-0.00042979168
-0.00027837279
-0.00047371468
-0.00033705344
-0.00050902821
-0.00040735614
-0.00054147431
-0.00049305937
-0.00057496691
-0.0005902074
-0.00060849752
-0.00071096474
-0.0006272817
-0.00083900297
-0.00062610703
-0.0010119868
-0.00060240246
-0.0011873247
-0.00055378572
-0.0013595875
-0.00049052123
-0.0015195723
-0.00042135925
-0.0016877473
-0.00034214049
-0.0018637405
-0.00024150467
-0.0019596528
-8.3613366e-05
-0.0020335675
0.00015956293
-0.0019727636
0.00037122545
-0.001749706
0.00055042193
-0.0016034722
0.00075881736
-0.0015284728
0.00090854041
-0.0015201144
0.00094411883
-0.0012752439
0.00095175473
0.00050927707
-4.4241398e-05
-4.4886195e-06
-4.411744e-05
-5.3726309e-06
-4.4011973e-05
-6.4371964e-06
-4.3962169e-05
-7.7123747e-06
-4.3975829e-05
-9.2397212e-06
-4.4049128e-05
-1.106868e-05
-4.4178773e-05
-1.3258652e-05
-4.4369957e-05
-1.58801e-05
-4.4632996e-05
-1.9017183e-05
-4.4978313e-05
-2.2769836e-05
-4.5431557e-05
-2.7256403e-05
-4.6012861e-05
-3.2617281e-05
-4.6756702e-05
-3.9017129e-05
-4.7681771e-05
-4.6649607e-05
-4.8816024e-05
-5.5740474e-05
-5.0314606e-05
-6.6541034e-05
-5.2458823e-05
-7.9332809e-05
-5.5573648e-05
-9.4430448e-05
-5.9843318e-05
-0.00011218063
-6.5376121e-05
-0.00013292642
-7.2403273e-05
-0.00015695423
-8.1281659e-05
-0.00018451278
-9.2778552e-05
-0.00021571341
-0.00010718056
-0.0002506988
-0.00012672497
-0.0002890395
-0.00015088585
-0.00032989185
-0.00017936454
-0.00037270408
-0.000208317
-0.00041723639
-0.00025366922
-0.00045706752
-0.00031280356
-0.00048630526
-0.00038284383
-0.00051107943
-0.00046756027
-0.0005353024
-0.00056507422
-0.00055659411
-0.00068575635
-0.00056026059
-0.00081611995
-0.00054082238
-0.00098746863
-0.00049518018
-0.0011634957
-0.00042151399
-0.0013363552
-0.00033186029
-0.0014993125
-0.00023632343
-0.0016708692
-0.00013084732
-0.0018488584
-3.1948571e-06
-0.0019486816
0.00017467114
-0.0020247441
0.00042543189
-0.0019727177
0.0006367134
-0.0017631048
0.00079583886
-0.0016438032
0.00096686328
-0.0015506605
0.0010818905
-0.0015278219
0.0010993922
-0.0012786662
0.001072613
0.00054689732
-3.1930257e-05
-4.4522102e-06
-3.1765619e-05
-5.3286183e-06
-3.1596582e-05
-6.3840332e-06
-3.1452904e-05
-7.6484146e-06
-3.1346889e-05
-9.1631382e-06
-3.1282048e-05
-1.0977399e-05
-3.1264561e-05
-1.3150051e-05
-3.131385e-05
-1.5751192e-05
-3.1445892e-05
-1.8864257e-05
-3.1681882e-05
-2.2588265e-05
-3.2038633e-05
-2.7040564e-05
-3.2528402e-05
-3.2360315e-05
-3.3170705e-05
-3.8710358e-05
-3.3954351e-05
-4.6283338e-05
-3.4919777e-05
-5.5302041e-05
-3.6193663e-05
-6.601288e-05
-3.8029648e-05
-7.8688955e-05
-4.0702847e-05
-9.3639597e-05
-4.4365566e-05
-0.00011120955
-4.9191636e-05
-0.00013172944
-5.5425803e-05
-0.00015546177
-6.3440333e-05
-0.00018261223
-7.3929068e-05
-0.00021324638
-8.7296487e-05
-0.00024743286
-0.00010572703
-0.00028460966
-0.00012891274
-0.00032386783
-0.00015562954
-0.00036487092
-0.00018403227
-0.00040704853
-0.00022964246
-0.00044296953
-0.00028900798
-0.00046639693
-0.00035851972
-0.00048388054
-0.00044221884
-0.00049917516
-0.00053976384
-0.00050861428
-0.00066024564
-0.00049744407
-0.00079238634
-0.00045984902
-0.00096222872
-0.00039247113
-0.001138832
-0.00029391579
-0.0013125706
-0.00017766911
-0.0014787859
-5.4945091e-05
-0.0016537484
7.8006586e-05
-0.0018340845
0.00023347739
-0.0019391779
0.00043214188
-0.0020174036
0.00069187837
-0.0019737448
0.00090430186
-0.0017770981
0.0010457317
-0.0016762453
0.0011844507
-0.0015719357
0.001266429
-0.0015366925
0.0012607064
-0.0012820563
0.0011983231
0.00058846956
-2.0558322e-05
-4.4321522e-06
-2.0535647e-05
-5.3043885e-06
-2.0481218e-05
-6.3548464e-06
-2.039064e-05
-7.6133805e-06
-2.0273392e-05
-9.1210758e-06
-2.0145044e-05
-1.092704e-05
-2.0022583e-05
-1.3089897e-05
-1.9934934e-05
-1.5679479e-05
-1.9901583e-05
-1.8778951e-05
-1.995597e-05
-2.248717e-05
-2.0112716e-05
-2.6921e-05
-2.0396395e-05
-3.2219207e-05
-2.0823192e-05
-3.8543992e-05
-2.1392859e-05
-4.6086795e-05
-2.2134225e-05
-5.5068939e-05
-2.3164624e-05
-6.5732627e-05
-2.4687647e-05
-7.8345521e-05
-2.6900677e-05
-9.32147e-05
-2.9976627e-05
-0.00011068115
-3.4122118e-05
-0.00013106447
-3.9591712e-05
-0.00015460996
-4.6760193e-05
-0.00018148738
-5.6274755e-05
-0.00021171826
-6.8591804e-05
-0.0002453091
-8.5911016e-05
-0.00028156454
-0.00010795811
-0.0003195094
-0.00013297394
-0.00035904868
-0.00016083329
-0.00039917604
-0.00020645949
-0.00043138799
-0.00026579744
-0.00044927039
-0.00033455508
-0.00045982702
-0.00041718973
-0.00046656791
-0.00051448401
-0.00046453514
-0.00063463811
-0.00043882739
-0.0007681059
-0.00038321852
-0.00093651955
-0.00029431012
-0.0011135949
-0.00017107036
-0.0012885068
-2.8042572e-05
-0.0014583026
0.00012269009
-0.0016366467
0.00028433644
-0.0018196187
0.00046843111
-0.0019305623
0.00068901286
-0.0020112702
0.00095912467
-0.0019756537
0.0011740335
-0.0017913603
0.0013002045
-0.0017036071
0.0014105173
-0.0015926174
0.0014605904
-0.0015464914
0.0014278509
-0.0012854408
0.00132858
0.00063370519
-9.7252927e-06
-4.4278511e-06
-9.6741295e-06
-5.2995072e-06
-9.5915749e-06
-6.3494111e-06
-9.4838344e-06
-7.6072508e-06
-9.363701e-06
-9.1140178e-06
-9.2424328e-06
-1.091868e-05
-9.1315144e-06
-1.3079791e-05
-9.0467333e-06
-1.5667079e-05
-8.9955871e-06
-1.876372e-05
-8.9992934e-06
-2.2468647e-05
-9.0639998e-06
-2.6898845e-05
-9.2118437e-06
-3.219339e-05
-9.4608537e-06
-3.8514577e-05
-9.8244801e-06
-4.6053908e-05
-1.0346772e-05
-5.5031966e-05
-1.1127141e-05
-6.5688491e-05
-1.2320814e-05
-7.8288076e-05
-1.4088608e-05
-9.3135357e-05
-1.6606931e-05
-0.00011056882
-2.0101852e-05
-0.00013090093
-2.4835689e-05
-0.00015436199
-3.1180261e-05
-0.00018109124
-3.974847e-05
-0.0002110737
-5.1018255e-05
-0.00024425965
-6.7212965e-05
-0.00027983151
-8.799236e-05
-0.00031675904
-0.00011134958
-0.00035514904
-0.00013870549
-0.00039347942
-0.00018421563
-0.00042219826
-0.00024330124
-0.00043483053
-0.00031113806
-0.00043886849
-0.0003926524
-0.00043746293
-0.00048947877
-0.0004243971
-0.00060917642
-0.00038452058
-0.00074361939
-0.0003111407
-0.00091065198
-0.00020098865
-0.0010881018
-5.3289963e-05
-0.0012644067
0.00011672513
-0.0014380028
0.00029635663
-0.0016196809
0.00048786218
-0.0018054859
0.00070142988
-0.0019224434
0.00094513873
-0.0020060538
0.0012271722
-0.0019782232
0.0014458892
-0.0018057151
0.0015591071
-0.0017277443
0.0016439454
-0.0016128359
0.0016630765
-0.0015571274
0.0016010157
-0.0012888528
0.0014635657
0.00068235286
4.0448297e-07
-4.4383308e-06
4.6002122e-07
-5.3117012e-06
5.3854012e-07
-6.3636557e-06
6.3468506e-07
-7.6238865e-06
7.3548802e-07
-9.1335745e-06
8.3603682e-07
-1.0941824e-05
9.3152977e-07
-1.3107423e-05
1.0149221e-06
-1.5700423e-05
1.0877685e-06
-1.8804404e-05
1.1357845e-06
-2.2518818e-05
1.1589749e-06
-2.6961168e-05
1.1369706e-06
-3.2271202e-05
1.0521221e-06
-3.8611815e-05
8.8292429e-07
-4.6174919e-05
5.7700311e-07
-5.5181314e-05
4.5969815e-08
-6.5869629e-05
-8.2632803e-07
-7.8502557e-05
-2.1710208e-06
-9.3384021e-05
-4.1643695e-06
-0.00011085145
-7.0419076e-06
-0.00013121324
-1.1071039e-05
-0.0001546875
-1.661886e-05
-0.00018138974
-2.4269416e-05
-0.00021127291
-3.4505729e-05
-0.00024423998
-4.9556138e-05
-0.00027936204
-6.8959458e-05
-0.00031556027
-9.0687513e-05
-0.00035312051
-0.00011761117
-0.00038992653
-0.00016296882
-0.00041535266
-0.00022161061
-0.00042299135
-0.00028838335
-0.00042088382
-0.00036872569
-0.00041174075
-0.00046490319
-0.00038805682
-0.00058402986
-0.00033437386
-0.00071914782
-0.00024346217
-0.00088483067
-0.00011233785
-0.0010625628
5.9566234e-05
-0.0012404139
0.00025673811
-0.0014179585
0.00046609633
-0.0016029001
0.00068858462
-0.0017916772
0.000932442
-0.0019145936
0.0012005138
-0.0020015661
0.0014959456
-0.0019813284
0.0017198077
-0.0018201108
0.001822375
-0.0017499214
0.0018843425
-0.0016326926
0.0018733296
-0.0015683856
0.0017801041
-0.001292311
0.0016030991
0.00073415168
9.8532536e-06
-4.4634971e-06
9.870945e-06
-5.3417573e-06
9.8939359e-06
-6.3994712e-06
9.935593e-06
-7.6664249e-06
9.9935004e-06
-9.1841127e-06
1.0072892e-05
-1.1002062e-05
1.0173216e-05
-1.317952e-05
1.0289173e-05
-1.5787129e-05
1.0421831e-05
-1.8909096e-05
1.0555094e-05
-2.2645582e-05
1.0688178e-05
-2.711499e-05
1.0798089e-05
-3.2458019e-05
1.0867852e-05
-3.8838641e-05
1.0873144e-05
-4.6450054e-05
1.0763384e-05
-5.5513829e-05
1.0466977e-05
-6.6269291e-05
9.8976559e-06
-7.8979375e-05
8.9478022e-06
-9.3948517e-05
7.4473089e-06
-0.00011151513
5.1524001e-06
-0.0001319862
1.7952564e-06
-0.00015556887
-2.9872365e-06
-0.00018235907
-9.7526148e-06
-0.00021228515
-1.8985796e-05
-0.00024520398
-3.2881029e-05
-0.00028009505
-5.0847606e-05
-0.00031584866
-7.1034261e-05
-0.00035284538
-9.7600325e-05
-0.00038831991
-0.00014275801
-0.00041065332
-0.00020079408
-0.00041360533
-0.00026639021
-0.00040576719
-0.00034551575
-0.00038930665
-0.00044090816
-0.00035545014
-0.00055936082
-0.00028836179
-0.00069491511
-0.00018022433
-0.00085927051
-2.8452985e-05
-0.001037201
0.00016739382
-0.0012166771
0.00039188005
-0.0013982264
0.00063176786
-0.0015863522
0.00088624346
-0.0017781878
0.0011612038
-0.0019069066
0.0014548419
-0.0019976232
0.0017652369
-0.0019847957
0.00199568
-0.0018344063
0.00208976
-0.0017707382
0.0021310847
-0.0016521949
0.002090792
-0.0015801352
0.001965222
-0.0012958123
0.0017472679
0.00078895152
1.8714392e-05
-4.5027366e-06
1.874057e-05
-5.3888347e-06
1.877195e-05
-6.4560672e-06
1.8824747e-05
-7.7346613e-06
1.8900058e-05
-9.2664609e-06
1.9003391e-05
-1.1101401e-05
1.9132812e-05
-1.3299243e-05
1.9283529e-05
-1.5931206e-05
1.9455456e-05
-1.9082115e-05
1.9634958e-05
-2.2853182e-05
1.9823443e-05
-2.736379e-05
2.0002106e-05
-3.2756069e-05
2.0161109e-05
-3.9195631e-05
2.0281362e-05
-4.6877536e-05
2.0323859e-05
-5.6026169e-05
2.023367e-05
-6.6883148e-05
1.9945258e-05
-7.9713013e-05
1.9363328e-05
-9.4822441e-05
1.8319623e-05
-0.00011255231
1.6569444e-05
-0.00013320758
1.3847538e-05
-0.00015698996
9.7948699e-06
-0.00018397929
3.8757719e-06
-0.00021408311
-4.3993328e-06
-0.00024711635
-1.7140413e-05
-0.00028198806
-3.3646862e-05
-0.00031756248
-5.2417854e-05
-0.00035425923
-7.869456e-05
-0.00038860801
-0.0001235739
-0.00040803508
-0.00018086732
-0.00040657631
-0.00024520434
-0.00039338424
-0.00032307829
-0.00037001309
-0.00041757412
-0.00032639607
-0.00053526808
-0.00024628081
-0.00067105783
-0.00012119887
-0.00083410097
5.0919489e-05
-0.0010121496
0.00027042373
-0.0011932848
0.00052233946
-0.0013788427
0.00079349663
-0.001570061
0.0010809414
-0.0017650073
0.0013877749
-0.0018993129
0.0017081434
-0.0019940752
0.0020349612
-0.0019884803
0.0022734056
-0.0018484736
0.0023611172
-0.0017906358
0.0023839648
-0.0016714088
0.0023151725
-0.0015922484
0.0021562125
-0.001299371
0.0018959019
0.00084651406
2.7019864e-05
-4.555864e-06
2.7105641e-05
-5.4529884e-06
2.7212463e-05
-6.5337e-06
2.7339607e-05
-7.8286468e-06
2.7479392e-05
-9.3800198e-06
2.7630729e-05
-1.1238175e-05
2.7790496e-05
-1.3463563e-05
2.7956435e-05
-1.6128098e-05
2.8131906e-05
-1.9317651e-05
2.8311234e-05
-2.3134272e-05
2.8503237e-05
-2.7699118e-05
2.8700429e-05
-3.3155838e-05
2.8905213e-05
-3.9672855e-05
2.9112349e-05
-4.7448353e-05
2.9294473e-05
-5.6710643e-05
2.9414505e-05
-6.770605e-05
2.9401959e-05
-8.0700907e-05
2.9155295e-05
-9.6002854e-05
2.8523211e-05
-0.00011395736
2.727522e-05
-0.00013487072
2.5152521e-05
-0.00015894185
2.1790247e-05
-0.00018623675
1.6676511e-05
-0.00021664736
9.2992556e-06
-0.00024994093
-2.3256448e-06
-0.00028496846
-1.7378065e-05
-0.00032062024
-3.4815255e-05
-0.00035724476
-6.0828792e-05
-0.00039061267
-0.00010537885
-0.00040734129
-0.00016183166
-0.00040177862
-0.00022486077
-0.00038361333
-0.00030145561
-0.00035373307
-0.00039497145
-0.00030078888
-0.00051182889
-0.00020805703
-0.00064768458
-6.6377469e-05
-0.0008094263
0.0001257368
-0.00098751628
0.00036861278
-0.0011702872
0.00064802445
-0.0013597768
0.00095103728
-0.0015539842
0.0012722186
-0.0017520549
0.0016116587
-0.0018917356
0.0019598556
-0.0019907852
0.0023045944
-0.0019922741
0.0025525611
-0.0018622853
0.0026359585
-0.001809848
0.0026423527
-0.0016903593
0.002546072
-0.0016046589
0.0023531219
-0.0013029961
0.0020490213
0.00090673753
3.4730536e-05
-4.6217987e-06
3.4824013e-05
-5.5313948e-06
3.4936854e-05
-6.6269903e-06
3.5068533e-05
-7.9395864e-06
3.5212393e-05
-9.5120016e-06
3.536976e-05
-1.1395796e-05
3.553934e-05
-1.3652074e-05
3.572183e-05
-1.6354246e-05
3.5922471e-05
-1.9589568e-05
3.6138279e-05
-2.3462031e-05
3.6382338e-05
-2.8094437e-05
3.6651654e-05
-3.3633551e-05
3.6961226e-05
-4.0250489e-05
3.7311819e-05
-4.8147803e-05
3.7697625e-05
-5.7559996e-05
3.8058163e-05
-6.8735132e-05
3.8306195e-05
-8.1938752e-05
3.8368155e-05
-9.7483487e-05
3.8105303e-05
-0.00011572211
3.7316832e-05
-0.00013696389
3.5755349e-05
-0.0001614089
3.3043285e-05
-0.00018910836
2.8699349e-05
-0.00021994812
2.2146284e-05
-0.0002536399
1.1570224e-05
-0.00028899077
-2.0431762e-06
-0.00032495977
-1.8182716e-05
-0.00036174716
-4.3930785e-05
-0.00039431349
-8.8142485e-05
-0.00040852855
-0.0001436899
-0.00039910984
-0.00020537257
-0.00037631102
-0.00028066881
-0.00034030472
-0.00037313413
-0.00027842994
-0.00048909106
-0.00017346305
-0.00062485699
-1.5499592e-05
-0.00078531193
0.00019628766
-0.00096336721
0.00046223365
-0.0011477154
0.00076916841
-0.0013410046
0.0011045722
-0.0015380867
0.0014602498
-0.0017392721
0.0018329884
-0.001884128
0.0022100695
-0.0019876783
0.0025741384
-0.0019961362
0.0028331165
-0.0018758788
0.0029142279
-0.0018285566
0.0029061898
-0.0017090519
0.0027833236
-0.0016172576
0.0025557802
-0.0013066759
0.0022064639
0.00096940823
4.1881248e-05
-4.7007329e-06
4.193497e-05
-5.6258031e-06
4.1988724e-05
-6.7396638e-06
4.2057275e-05
-8.073825e-06
4.2144159e-05
-9.6718501e-06
4.2261104e-05
-1.1585942e-05
4.241203e-05
-1.3878718e-05
4.2603013e-05
-1.6624814e-05
4.2840855e-05
-1.9913271e-05
4.3127094e-05
-2.385054e-05
4.3474855e-05
-2.8562245e-05
4.3883957e-05
-3.4198878e-05
4.4369726e-05
-4.0936068e-05
4.494033e-05
-4.8982858e-05
4.5562527e-05
-5.8575865e-05
4.6142203e-05
-6.9962179e-05
4.6608935e-05
-8.3411166e-05
4.6950492e-05
-9.9244287e-05
4.7064659e-05
-0.00011782771
4.6727107e-05
-0.00013947576
4.5693191e-05
-0.00016438023
4.3589938e-05
-0.00019257888
3.9974597e-05
-0.00022395896
3.4170961e-05
-0.00025816696
2.4583928e-05
-0.0002939809
1.237589e-05
-0.00033048901
-2.544639e-06
-0.00036763827
-2.8024557e-05
-0.00039949025
-7.1852606e-05
-0.00041136063
-0.00012643589
-0.00039840871
-0.00018674243
-0.00037134358
-0.00026072829
-0.0003295857
-0.00035209206
-0.00025918632
-0.00046709395
-0.00014238004
-0.00060264151
3.1508206e-05
-0.00076182164
0.00026261237
-0.0009397721
0.00055132554
-0.001125613
0.00088576069
-0.0013225404
0.0012539442
-0.0015223799
0.0016446829
-0.0017266526
0.0020513602
-0.0018765002
0.0024583182
-0.0019846981
0.0028431446
-0.0020000142
0.0031146876
-0.0018892175
0.0031954546
-0.0018467888
0.0031748809
-0.0017274557
0.0030265596
-0.0016299582
0.0027641602
-0.0013103878
0.0023681763
0.0010344419
4.8436569e-05
-4.7911488e-06
4.8380235e-05
-5.7316908e-06
4.8329653e-05
-6.8642035e-06
4.8324932e-05
-8.221039e-06
4.8374975e-05
-9.8470689e-06
4.8486634e-05
-1.1796049e-05
4.8664289e-05
-1.4131858e-05
4.890997e-05
-1.6930729e-05
4.9229405e-05
-2.0284121e-05
4.9622945e-05
-2.4300328e-05
5.0101951e-05
-2.9108443e-05
5.0666982e-05
-3.4861911e-05
5.1330435e-05
-4.174136e-05
5.2088009e-05
-4.9958654e-05
5.2864463e-05
-5.9751507e-05
5.3572442e-05
-7.1370208e-05
5.421639e-05
-8.5094559e-05
5.4846249e-05
-0.00010126594
5.5374252e-05
-0.00012026136
5.5517879e-05
-0.00014239028
5.4998764e-05
-0.00016783827
5.3464127e-05
-0.00019662794
5.0523474e-05
-0.00022865171
4.5396045e-05
-0.00026348204
3.6749992e-05
-0.00029989292
2.589239e-05
-0.00033715125
1.2073523e-05
-0.00037486135
-1.3135284e-05
-0.00040609913
-5.6490183e-05
-0.00041577916
-0.00011004501
-0.00039957933
-0.00016896019
-0.00036858275
-0.00024162987
-0.00032142626
-0.00033185276
-0.0002428695
-0.00044585602
-0.0001145873
-0.00058107411
7.4910461e-05
-0.00073899011
0.00032500534
-0.00091676963
0.0006361721
-0.0011040093
0.00099806337
-0.0013043961
0.0013994071
-0.0015068722
0.0018257955
-0.0017141918
0.0022670117
-0.0018688456
0.002704791
-0.0019817835
0.0031116984
-0.0020038404
0.0033972827
-0.0019022442
0.0034795927
-0.0018645772
0.0034483994
-0.0017455675
0.003275613
-0.0016426825
0.0029779958
-0.0013141129
0.0025339777
0.0011016572
5.4655826e-05
-4.895911e-06
5.4637208e-05
-5.8599096e-06
5.4632228e-05
-7.0210202e-06
5.4673528e-05
-8.4119899e-06
5.4766564e-05
-1.0078357e-05
5.4912625e-05
-1.2074188e-05
5.5119192e-05
-1.4464571e-05
5.5388533e-05
-1.7327566e-05
5.5733265e-05
-2.0755605e-05
5.6156014e-05
-2.486047e-05
5.667429e-05
-2.9773644e-05
5.7288847e-05
-3.5652814e-05
5.8012889e-05
-4.2682983e-05
5.8813619e-05
-5.1079456e-05
5.9621316e-05
-6.1083141e-05
6.0394029e-05
-7.2955152e-05
6.1196442e-05
-8.6992973e-05
6.2143035e-05
-0.00010355615
6.3101099e-05
-0.00012302639
6.3724939e-05
-0.00014570383
6.3705275e-05
-0.00017176601
6.2707178e-05
-0.00020123255
6.0380301e-05
-0.00023399432
5.5867472e-05
-0.00026954216
4.810927e-05
-0.00030666507
3.8518349e-05
-0.00034484165
2.5686253e-05
-0.00038327009
7.6973656e-07
-0.00041397253
-4.2002891e-05
-0.00042163958
-9.4478456e-05
-0.00040251313
-0.00015200376
-0.00036791155
-0.00022335652
-0.00031569688
-0.00031240981
-0.00022936193
-0.00042537547
-8.9989189e-05
-0.00056016626
0.00011474307
-0.00071682702
0.00038346026
-0.00089437116
0.00071676115
-0.0010828956
0.0011059855
-0.0012865413
0.0015406535
-0.0014915303
0.0020030341
-0.0017018383
0.0024793084
-0.0018611301
0.0029487776
-0.0019788702
0.0033790964
-0.0020075665
0.0036802723
-0.0019149571
0.0037660342
-0.0018819566
0.0037261004
-0.0017633804
0.0035301011
-0.0016553867
0.0031972427
-0.001317838
0.0027037804
0.0011709732
6.0530029e-05
-5.0112718e-06
6.0653039e-05
-5.9982063e-06
6.0789127e-05
-7.1871426e-06
6.0944644e-05
-8.6120107e-06
6.1119653e-05
-1.0319061e-05
6.1321509e-05
-1.2364353e-05
6.1558737e-05
-1.4814552e-05
6.1839234e-05
-1.7749194e-05
6.2180459e-05
-2.1263973e-05
6.2591884e-05
-2.5471901e-05
6.3093006e-05
-3.0508215e-05
6.3690258e-05
-3.6532844e-05
6.4389534e-05
-4.3734094e-05
6.5166565e-05
-5.2331676e-05
6.5968796e-05
-6.2573629e-05
6.6799948e-05
-7.4733564e-05
6.7779382e-05
-8.9130606e-05
6.9018281e-05
-0.00010613923
7.03465e-05
-0.00012613087
7.1394042e-05
-0.00014940312
7.1838243e-05
-0.00017614378
7.1345093e-05
-0.00020636671
6.9580686e-05
-0.00023995698
6.5622684e-05
-0.00027631441
5.8682325e-05
-0.00031425138
5.0260074e-05
-0.00035350086
3.830228e-05
-0.00039280929
1.3716828e-05
-0.00042307159
-2.8353046e-05
-0.00042888859
-7.9713718e-05
-0.00040711
-0.00013585248
-0.00036919818
-0.00020589542
-0.00031224231
-0.00029376195
-0.00021846002
-0.00040565851
-6.8336247e-05
-0.00053992875
0.00015130466
-0.00069534558
0.00043830962
-0.00087258349
0.00079341312
-0.0010622664
0.0012098229
-0.0012689512
0.0016779877
-0.0014763227
0.0021767373
-0.0016895497
0.0026885579
-0.0018533255
0.0031905482
-0.0019759224
0.0036455286
-0.0020111783
0.0039637799
-0.0019273958
0.0040548647
-0.0018989606
0.0040080751
-0.0017808674
0.0037899
-0.0016679943
0.0034216041
-0.0013215321
0.0028773942
0.0012422311
6.5847568e-05
-5.1379129e-06
6.5991855e-05
-6.1499394e-06
6.6159369e-05
-7.3693009e-06
6.635553e-05
-8.830477e-06
6.6581703e-05
-1.0581377e-05
6.6844998e-05
-1.2679618e-05
6.7149926e-05
-1.5193488e-05
6.7505037e-05
-1.8205268e-05
6.7919916e-05
-2.1813097e-05
6.84037e-05
-2.6133157e-05
6.8967401e-05
-3.130469e-05
6.9615641e-05
-3.7490747e-05
7.0352082e-05
-4.4884665e-05
7.1159117e-05
-5.3710261e-05
7.2012126e-05
-6.4222882e-05
7.294828e-05
-7.6712926e-05
7.4108472e-05
-9.1516238e-05
7.5569129e-05
-0.00010900761
7.7164643e-05
-0.00012955687
7.8563127e-05
-0.00015347154
7.9422712e-05
-0.00018094751
7.9396561e-05
-0.00021199839
7.8152802e-05
-0.00024649738
7.4702078e-05
-0.00028375468
6.8532493e-05
-0.00032260891
6.1214848e-05
-0.00036306154
5.0009256e-05
-0.00040336438
2.575784e-05
-0.00043324876
-1.5512558e-05
-0.00043737937
-6.5730639e-05
-0.00041324118
-0.00012049255
-0.00037231671
-0.00018924244
-0.00031091531
-0.00027592151
-0.00021000943
-0.0003867252
-4.9475275e-05
-0.00052039627
0.0001847136
-0.00067457667
0.00048964646
-0.00085143759
0.00086622089
-0.0010421373
0.0013095926
-0.0012516379
0.0018112297
-0.0014612659
0.0023465231
-0.0016773353
0.002894306
-0.0018454529
0.0034295869
-0.0019729302
0.0039104761
-0.0020146608
0.0042473137
-0.0019395415
0.0043455476
-0.0019155546
0.0042936809
-0.0017979708
0.004054597
-0.0016804353
0.00365099
-0.0013251627
0.0030546806
0.0013153348
7.0754308e-05
-5.2755935e-06
7.0912987e-05
-6.3150268e-06
7.1099057e-05
-7.5672646e-06
7.1318734e-05
-9.0680637e-06
7.1574992e-05
-1.0866562e-05
7.1875586e-05
-1.302204e-05
7.2225991e-05
-1.5604663e-05
7.2636085e-05
-1.8699682e-05
7.3114091e-05
-2.240717e-05
7.366932e-05
-2.684799e-05
7.4309535e-05
-3.2164444e-05
7.5037486e-05
-3.8525175e-05
7.5860116e-05
-4.6128516e-05
7.6759534e-05
-5.5205108e-05
7.7729476e-05
-6.6019769e-05
7.882418e-05
-7.8876797e-05
8.0152184e-05
-9.4121948e-05
8.1777487e-05
-0.00011213408
8.3577868e-05
-0.00013328398
8.5258789e-05
-0.00015788724
8.6481255e-05
-0.00018615294
8.688009e-05
-0.00021809593
8.6120598e-05
-0.00025357891
8.3152204e-05
-0.00029182763
7.7738979e-05
-0.00033170215
7.1491358e-05
-0.00037349677
6.0911474e-05
-0.00041492427
3.6952673e-05
-0.00044448685
-3.4479958e-06
-0.00044705675
-5.2503225e-05
-0.00042080753
-0.00010591594
-0.00037712755
-0.00017339123
-0.00031154507
-0.00025887858
-0.00020381521
-0.00036857024
-3.3189621e-05
-0.00050157123
0.00021523324
-0.00065452463
0.00053776503
-0.00083094856
0.00093548939
-0.0010225282
0.0014056364
-0.0012346121
0.0019407703
-0.0014463713
0.002512815
-0.0016652017
0.0030969506
-0.0018375162
0.0036662466
-0.0019698662
0.0041741952
-0.0020179806
0.0045310342
-0.0019513579
0.0046381633
-0.0019317131
0.0045829984
-0.0018146635
0.0043240233
-0.0016926455
0.0038850034
-0.0013286894
0.0032354076
0.0013901464
7.5270746e-05
-5.4241399e-06
7.5442636e-05
-6.4930423e-06
7.5645002e-05
-7.78072e-06
7.5884289e-05
-9.3239228e-06
7.616491e-05
-1.1173779e-05
7.6494946e-05
-1.3390449e-05
7.688131e-05
-1.6047277e-05
7.7333907e-05
-1.9231107e-05
7.7861877e-05
-2.3045924e-05
7.8474054e-05
-2.7615518e-05
7.9180711e-05
-3.3086842e-05
7.9985933e-05
-3.9634254e-05
8.0900301e-05
-4.7461949e-05
8.1920864e-05
-5.6808477e-05
8.3050187e-05
-6.7950409e-05
8.4324662e-05
-8.1204234e-05
8.5826598e-05
-9.6926342e-05
8.7608533e-05
-0.00011549753
8.9580249e-05
-0.00013729061
9.1497536e-05
-0.00016263048
9.3037122e-05
-0.00019173935
9.382455e-05
-0.00022463793
9.3509448e-05
-0.00026117199
9.1012109e-05
-0.00030048849
8.6363981e-05
-0.00034151429
8.1128423e-05
-0.00038476587
7.106936e-05
-0.00042736377
4.7380969e-05
-0.00045667763
7.8855798e-06
-0.00045785931
-4.0009513e-05
-0.00042973027
-9.2107122e-05
-0.00038352434
-0.00015831783
-0.00031402122
-0.00024259833
-0.00019978987
-0.00035115496
-1.9430422e-05
-0.00048341942
0.0002428414
-0.0006351498
0.00058259359
-0.00081108857
0.0010011308
-0.0010034258
0.0014977973
-0.0012178547
0.0020662527
-0.0014316143
0.0026750266
-0.0016531134
0.0032957914
-0.0018294865
0.0038997454
-0.0019666857
0.0044358855
-0.0020210908
0.0048141847
-0.0019628251
0.0049320199
-0.0019474325
0.0048753285
-0.0018309215
0.0045977535
-0.0017045833
0.0041235572
-0.0013320918
0.0034194252
0.0014665572
7.9420609e-05
-5.5832674e-06
7.9605014e-05
-6.6835018e-06
7.982257e-05
-8.009249e-06
8.0080319e-05
-9.5980581e-06
8.0382774e-05
-1.1502665e-05
8.0739324e-05
-1.3785183e-05
8.1156465e-05
-1.6521222e-05
8.1644908e-05
-1.9799919e-05
8.221372e-05
-2.3728862e-05
8.2873375e-05
-2.8435555e-05
8.363844e-05
-3.4071736e-05
8.4515128e-05
-4.0817352e-05
8.5521111e-05
-4.8884457e-05
8.666855e-05
-5.8519845e-05
8.7963692e-05
-7.0011904e-05
8.942722e-05
-8.3689786e-05
9.1110088e-05
-9.9919192e-05
9.3048827e-05
-0.00011908508
9.5178978e-05
-0.00014156245
9.7307888e-05
-0.00016768687
9.9130131e-05
-0.00019769229
0.00010027657
-0.00023160927
0.00010035757
-0.00026925684
9.831113e-05
-0.00030971294
9.4442741e-05
-0.00035200344
9.014857e-05
-0.00039683348
8.0510895e-05
-0.00044066887
5.7092447e-05
-0.00046978758
1.8517567e-05
-0.0004697118
-2.8229871e-05
-0.00043989318
-7.903266e-05
-0.00039137496
-0.00014398469
-0.00031820281
-0.00022704486
-0.00019775883
-0.0003344432
-7.9834716e-06
-0.00046590563
0.0002678023
-0.00061641693
0.00062442833
-0.0007918202
0.0010634403
-0.0009848029
0.00158639
-0.0012013537
0.0021880946
-0.0014169673
0.0028336405
-0.0016410348
0.0034912758
-0.001821336
0.0041305008
-0.0019633595
0.0046958956
-0.0020239828
0.0050970387
-0.0019739618
0.0052273333
-0.0019627006
0.0051708501
-0.0018466992
0.0048756583
-0.0017161956
0.0043662579
-0.001335329
0.003606504
0.0015444494
8.3221715e-05
-5.7525107e-06
8.3418431e-05
-6.8861203e-06
8.3650474e-05
-8.2522376e-06
8.3925709e-05
-9.8897259e-06
8.4248395e-05
-1.1852331e-05
8.4628803e-05
-1.4204837e-05
8.5072939e-05
-1.7024706e-05
8.5592435e-05
-2.040406e-05
8.6198506e-05
-2.4454114e-05
8.6903422e-05
-2.9306393e-05
8.772652e-05
-3.5117676e-05
8.8678098e-05
-4.2075027e-05
8.9782276e-05
-5.0397338e-05
9.1058604e-05
-6.0341583e-05
9.2520353e-05
-7.2207693e-05
9.4168566e-05
-8.6336373e-05
9.6021163e-05
-0.00010310082
9.8110089e-05
-0.00012289225
0.00010039354
-0.0001460918
0.00010271933
-0.00017304736
0.00010479926
-0.00020400047
0.0001062795
-0.0002389976
0.00010671394
-0.0002778183
0.00010510462
-0.00031949024
0.00010201086
-0.00036317012
9.8582793e-05
-0.00040963628
8.9281038e-05
-0.00045470363
6.6113856e-05
-0.00048369192
2.8464685e-05
-0.00048250177
-1.7138804e-05
-0.00045119234
-6.6659071e-05
-0.00040058345
-0.00013035945
-0.00032398755
-0.00021219339
-0.00019762571
-0.00031841427
1.2313275e-06
-0.00044901806
0.00029015373
-0.00059831295
0.00066328024
-0.00077312846
0.0011224179
-0.00096665197
0.0016713458
-0.0011851196
0.0023060549
-0.0014024439
0.0029882606
-0.0016289785
0.0036829391
-0.0018130828
0.0043579875
-0.001959887
0.0049536916
-0.0020266476
0.0053790715
-0.0019847426
0.0055235321
-0.0019774867
0.0054688898
-0.0018619457
0.0051572922
-0.0017274144
0.0046129854
-0.0013383619
0.0037964463
0.0016236868
8.6690337e-05
-5.931391e-06
8.6898968e-05
-7.1007709e-06
8.7144855e-05
-8.5096988e-06
8.7435896e-05
-1.0198282e-05
8.7777087e-05
-1.2222623e-05
8.8179128e-05