/*--------------------------------*- C++ -*----------------------------------*\
  =========                 |
  \\      /  F ield         | OpenFOAM: The Open Source CFD Toolbox
   \\    /   O peration     | Website:  https://openfoam.org
    \\  /    A nd           | Version:  8
     \\/     M anipulation  |
\*---------------------------------------------------------------------------*/
FoamFile
{
    version     2.0;
    format      ascii;
    class       volScalarField;
    location    "0.0699881";
    object      nut;
}
// * * * * * * * * * * * * * * * * * * * * * * * * * * * * * * * * * * * * * //

dimensions      [0 2 -1 0 0 0 0];

internalField   nonuniform List<scalar> 
20000
(
0.0011215505
0.002537799
0.0031463715
0.0030561744
0.002140301
0.00045857711
8.8939104e-08
5.7017646e-09
5.2831517e-09
5.261733e-09
5.1365401e-09
5.1623971e-09
5.0856551e-09
5.1215024e-09
5.1174362e-09
5.1512321e-09
5.1724122e-09
5.2154845e-09
5.2600306e-09
5.321788e-09
5.3915622e-09
5.4771436e-09
5.5764389e-09
5.6976513e-09
5.8327581e-09
5.985056e-09
6.1491741e-09
6.3234512e-09
6.5002886e-09
6.6727242e-09
6.833637e-09
6.977745e-09
7.1014587e-09
7.2035946e-09
7.2847641e-09
7.3467969e-09
7.3916726e-09
7.4258671e-09
7.4506088e-09
7.4639961e-09
7.4692579e-09
7.4708777e-09
7.4688709e-09
7.4590172e-09
7.446019e-09
7.4131427e-09
7.384239e-09
7.3697671e-09
7.3648115e-09
7.3666793e-09
0.0011091509
0.0024796064
0.0030419444
0.0029121681
0.0019170189
0.00034521358
3.3529819e-08
5.6350782e-09
5.2431343e-09
5.225552e-09
5.1037437e-09
5.131166e-09
5.0554546e-09
5.0921785e-09
5.0891885e-09
5.1240676e-09
5.1467071e-09
5.1911734e-09
5.237144e-09
5.3001622e-09
5.3716754e-09
5.4604906e-09
5.565501e-09
5.6915707e-09
5.8320107e-09
5.9868086e-09
6.1555381e-09
6.3329905e-09
6.512129e-09
6.6855313e-09
6.8461555e-09
6.9890202e-09
7.1109682e-09
7.211242e-09
7.2906832e-09
7.3510546e-09
7.3948766e-09
7.4294473e-09
7.4527296e-09
7.4650929e-09
7.4700975e-09
7.4715525e-09
7.4691587e-09
7.4597404e-09
7.4448562e-09
7.4100282e-09
7.3833439e-09
7.3700578e-09
7.3649992e-09
7.366911e-09
0.0010987637
0.0024254579
0.0029371559
0.0027605297
0.0016889161
0.00024134624
1.6173717e-08
5.5805746e-09
5.2070251e-09
5.1921911e-09
5.0741181e-09
5.1027103e-09
5.0281143e-09
5.0653957e-09
5.0637476e-09
5.0996275e-09
5.1235933e-09
5.1691878e-09
5.2163989e-09
5.2809284e-09
5.355466e-09
5.4504123e-09
5.561808e-09
5.6912002e-09
5.8331087e-09
5.9927752e-09
6.1653702e-09
6.3462211e-09
6.5274684e-09
6.701523e-09
6.8614497e-09
7.0026062e-09
7.1223429e-09
7.2203427e-09
7.2976724e-09
7.3561086e-09
7.3988815e-09
7.4335831e-09
7.4555876e-09
7.4667047e-09
7.4712512e-09
7.4726805e-09
7.4697033e-09
7.4603208e-09
7.4428104e-09
7.4055522e-09
7.3819953e-09
7.3704384e-09
7.3661133e-09
7.367081e-09
0.0010883563
0.0023729764
0.0028395876
0.0026112503
0.0014691162
0.00015212467
1.0089987e-08
5.5316971e-09
5.1730744e-09
5.1612559e-09
5.0468831e-09
5.0768258e-09
5.0034543e-09
5.0414706e-09
5.0411283e-09
5.0779316e-09
5.1030711e-09
5.149668e-09
5.1986501e-09
5.2660914e-09
5.3466762e-09
5.4467222e-09
5.5608641e-09
5.6914315e-09
5.8390714e-09
6.003308e-09
6.1802944e-09
6.3642976e-09
6.5472879e-09
6.7214795e-09
6.880127e-09
7.0189942e-09
7.1359651e-09
7.2312034e-09
7.3059671e-09
7.3621393e-09
7.4039241e-09
7.4378157e-09
7.4582374e-09
7.4683484e-09
7.4724407e-09
7.4737027e-09
7.4703669e-09
7.4605322e-09
7.4393515e-09
7.4029528e-09
7.3812598e-09
7.3707427e-09
7.3664763e-09
7.3672612e-09
0.0010779455
0.0023209647
0.0027427513
0.0024645429
0.0012593809
7.8472967e-05
7.635207e-09
5.4881445e-09
5.1425022e-09
5.1335656e-09
5.0227589e-09
5.0540464e-09
4.9818718e-09
5.0205399e-09
5.0214731e-09
5.0590862e-09
5.0854346e-09
5.1335659e-09
5.1855709e-09
5.2587445e-09
5.3433984e-09
5.4459211e-09
5.5617567e-09
5.6972268e-09
5.8494511e-09
6.0186595e-09
6.1998157e-09
6.3868098e-09
6.5711489e-09
6.7449588e-09
6.9017508e-09
7.0377657e-09
7.1514654e-09
7.243503e-09
7.3153004e-09
7.3689738e-09
7.409822e-09
7.4422131e-09
7.4610648e-09
7.4700891e-09
7.4737167e-09
7.4748548e-09
7.4712388e-09
7.4606034e-09
7.4352741e-09
7.4005052e-09
7.3805736e-09
7.3708997e-09
7.3669e-09
7.367422e-09
0.0010674374
0.0022698508
0.0026471644
0.0023177165
0.0010624653
3.0064935e-05
6.5390386e-09
5.4486003e-09
5.1150161e-09
5.1089092e-09
5.0016121e-09
5.0342789e-09
4.9633674e-09
5.0026776e-09
5.0048472e-09
5.0434887e-09
5.0718289e-09
5.1235283e-09
5.1802974e-09
5.2560919e-09
5.3428538e-09
5.4470472e-09
5.5675123e-09
5.7073004e-09
5.8648819e-09
6.0390071e-09
6.2243302e-09
6.4140087e-09
6.5992229e-09
6.7720601e-09
6.9263717e-09
7.0589462e-09
7.1688615e-09
7.2572546e-09
7.3256773e-09
7.3766198e-09
7.4164244e-09
7.4467913e-09
7.4639272e-09
7.471897e-09
7.4750345e-09
7.4760239e-09
7.4722786e-09
7.4605689e-09
7.4310415e-09
7.3985063e-09
7.3800008e-09
7.3709585e-09
7.3671419e-09
7.3675682e-09
0.001056856
0.0022192277
0.0025526293
0.0021696056
0.00088144461
8.7669055e-06
6.0166793e-09
5.4157418e-09
5.0910147e-09
5.0877035e-09
4.9836292e-09
5.0176106e-09
4.9481669e-09
4.9882158e-09
4.9919108e-09
5.0325269e-09
5.0647336e-09
5.1195728e-09
5.178487e-09
5.2557428e-09
5.3444992e-09
5.4528703e-09
5.5776155e-09
5.7225518e-09
5.8853699e-09
6.0644937e-09
6.2537944e-09
6.4458029e-09
6.6313522e-09
6.8025835e-09
6.9537734e-09
7.0823252e-09
7.1879648e-09
7.2722931e-09
7.3369674e-09
7.3849946e-09
7.4235598e-09
7.4515976e-09
7.4670112e-09
7.4738133e-09
7.4764293e-09
7.4772466e-09
7.4734111e-09
7.4603234e-09
7.4269814e-09
7.3966052e-09
7.3794669e-09
7.3709929e-09
7.3673515e-09
7.3676925e-09
0.0010463059
0.0021694552
0.0024591998
0.0020223809
0.00071814144
2.2306147e-06
5.7538105e-09
5.3870657e-09
5.0705127e-09
5.0700785e-09
4.9691013e-09
5.0046644e-09
4.9368004e-09
4.9781091e-09
4.9847205e-09
5.0278455e-09
5.0620766e-09
5.1184824e-09
5.1785253e-09
5.2579824e-09
5.350591e-09
5.4629206e-09
5.5926498e-09
5.7428147e-09
5.9111378e-09
6.0952251e-09
6.2882966e-09
6.4821889e-09
6.6674647e-09
6.8364105e-09
6.9838176e-09
7.1077668e-09
7.2086542e-09
7.2885085e-09
7.3490977e-09
7.3940915e-09
7.4311173e-09
7.4566019e-09
7.4702705e-09
7.4758978e-09
7.4779419e-09
7.4784881e-09
7.4744551e-09
7.4595097e-09
7.4232215e-09
7.3949113e-09
7.3789805e-09
7.3710155e-09
7.3674823e-09
7.3677945e-09
0.0010360715
0.002120954
0.0023665932
0.0018737618
0.00057355361
5.7521071e-07
5.6136991e-09
5.3626786e-09
5.0546106e-09
5.0558854e-09
4.9587121e-09
4.9946983e-09
4.9308371e-09
4.9734723e-09
4.9818672e-09
5.026109e-09
5.061539e-09
5.1187722e-09
5.181619e-09
5.2643494e-09
5.3608013e-09
5.4777335e-09
5.6126185e-09
5.7683688e-09
5.9422754e-09
6.1312761e-09
6.3278122e-09
6.5230676e-09
6.7073951e-09
6.8733393e-09
7.0162939e-09
7.1350736e-09
7.2307534e-09
7.3057396e-09
7.3619651e-09
7.4039266e-09
7.4389647e-09
7.4617341e-09
7.4735543e-09
7.4781045e-09
7.4796585e-09
7.479748e-09
7.4750998e-09
7.4580033e-09
7.419853e-09
7.3933874e-09
7.3785384e-09
7.371036e-09
7.3675917e-09
7.3678769e-09
0.0010263317
0.0020744453
0.002275978
0.0017215644
0.00044897599
1.6942769e-07
5.5420713e-09
5.3415525e-09
5.0482168e-09
5.0448041e-09
4.9495188e-09
4.9836136e-09
4.928319e-09
4.9714544e-09
4.9810916e-09
5.0258061e-09
5.0629599e-09
5.1227777e-09
5.1885696e-09
5.2747657e-09
5.375588e-09
5.497333e-09
5.637747e-09
5.7992857e-09
5.9788919e-09
6.1726776e-09
6.3723003e-09
6.5683142e-09
6.7509617e-09
6.9131593e-09
7.050989e-09
7.1640483e-09
7.2540847e-09
7.3238253e-09
7.3754755e-09
7.4145348e-09
7.4469604e-09
7.4669203e-09
7.4768683e-09
7.480384e-09
7.4816049e-09
7.4810635e-09
7.4753655e-09
7.4557073e-09
7.4169133e-09
7.3920559e-09
7.378141e-09
7.3710525e-09
7.3676855e-09
7.3679399e-09
0.0010169285
0.0020300496
0.0021928539
0.0015660603
0.00034558979
6.1551575e-08
5.5078617e-09
5.3245875e-09
5.0401378e-09
5.0352717e-09
4.9393326e-09
4.9738556e-09
4.9274214e-09
4.9707092e-09
4.981789e-09
5.0282373e-09
5.0679436e-09
5.1302904e-09
5.1995188e-09
5.2895536e-09
5.3949975e-09
5.5219316e-09
5.6681471e-09
5.8357082e-09
6.0210541e-09
6.2194312e-09
6.4216703e-09
6.617759e-09
6.7979418e-09
6.955624e-09
7.0876585e-09
7.1944663e-09
7.2784437e-09
7.3425925e-09
7.3895377e-09
7.4258688e-09
7.4549957e-09
7.4721035e-09
7.4801845e-09
7.4827438e-09
7.4836921e-09
7.4825172e-09
7.4754495e-09
7.4526566e-09
7.4143758e-09
7.3908912e-09
7.3777878e-09
7.3710535e-09
7.3677587e-09
7.3679843e-09
0.0010077081
0.0019864782
0.0021132394
0.001407022
0.00025375571
2.7827782e-08
5.4855228e-09
5.3139542e-09
5.0295237e-09
5.0254661e-09
4.9291371e-09
4.9659121e-09
4.9276871e-09
4.972349e-09
4.9857498e-09
5.0340555e-09
5.076506e-09
5.1418032e-09
5.2146853e-09
5.3088215e-09
5.4192286e-09
5.5516483e-09
5.7039584e-09
5.8777198e-09
6.0688001e-09
6.2714895e-09
6.4757872e-09
6.6711928e-09
6.8480813e-09
7.0004625e-09
7.1260393e-09
7.2260902e-09
7.3036186e-09
7.3618838e-09
7.404096e-09
7.4376846e-09
7.4630672e-09
7.4772436e-09
7.4835184e-09
7.485191e-09
7.4858557e-09
7.4841793e-09
7.4754406e-09
7.4490302e-09
7.4121389e-09
7.3898608e-09
7.3774824e-09
7.3710687e-09
7.3678269e-09
7.3680098e-09
0.00099877933
0.0019434749
0.0020328254
0.0012464345
0.00017280018
1.5819223e-08
5.4703159e-09
5.3033945e-09
5.0228495e-09
5.0169999e-09
4.9230394e-09
4.9607588e-09
4.9309433e-09
4.9773424e-09
4.9931765e-09
5.0435861e-09
5.088992e-09
5.1573762e-09
5.2341881e-09
5.3327212e-09
5.4483872e-09
5.586619e-09
5.7452872e-09
5.9254046e-09
6.1221422e-09
6.3287782e-09
6.5344823e-09
6.7283744e-09
6.9010935e-09
7.047371e-09
7.1658422e-09
7.258666e-09
7.3293943e-09
7.3815639e-09
7.4191458e-09
7.4497535e-09
7.4710855e-09
7.4823035e-09
7.4868662e-09
7.4877481e-09
7.4880157e-09
7.4859991e-09
7.4753852e-09
7.445165e-09
7.4099961e-09
7.3889332e-09
7.3772433e-09
7.371107e-09
7.3679047e-09
7.3680203e-09
0.00099009848
0.0019013591
0.0019538984
0.0010902215
0.00010334636
1.0928741e-08
5.4682827e-09
5.2929261e-09
5.0244848e-09
5.0185843e-09
4.9243149e-09
4.9624232e-09
4.9380096e-09
4.9860725e-09
5.004401e-09
5.0569454e-09
5.1054658e-09
5.1771564e-09
5.2581511e-09
5.3613648e-09
5.4826095e-09
5.6269534e-09
5.7922342e-09
5.9788053e-09
6.1810535e-09
6.3911682e-09
6.5975367e-09
6.7890177e-09
6.9566507e-09
7.0960118e-09
7.2067615e-09
7.2919382e-09
7.3555707e-09
7.4015391e-09
7.4347093e-09
7.4617868e-09
7.4789479e-09
7.4872686e-09
7.490247e-09
7.4904281e-09
7.4900948e-09
7.4878577e-09
7.4749603e-09
7.4412075e-09
7.4079086e-09
7.388093e-09
7.3770842e-09
7.3712112e-09
7.3680097e-09
7.368013e-09
0.00098127342
0.0018575677
0.0018746322
0.00094624568
5.1031234e-05
8.7009969e-09
5.4616656e-09
5.2873678e-09
5.0281146e-09
5.022788e-09
4.9326691e-09
4.9716605e-09
4.9490953e-09
4.9984596e-09
5.0193334e-09
5.0741783e-09
5.1259981e-09
5.2012092e-09
5.2866581e-09
5.3948535e-09
5.5219928e-09
5.6727594e-09
5.8448819e-09
6.0379619e-09
6.2454843e-09
6.45851e-09
6.6647043e-09
6.8528014e-09
7.0143844e-09
7.1460182e-09
7.2484862e-09
7.3256597e-09
7.3819718e-09
7.4217479e-09
7.4507287e-09
7.4734961e-09
7.4865612e-09
7.4921648e-09
7.4937694e-09
7.4931051e-09
7.4920776e-09
7.4894789e-09
7.4740857e-09
7.4372613e-09
7.4058767e-09
7.387332e-09
7.3770357e-09
7.371398e-09
7.3681596e-09
7.3679854e-09
0.00097230049
0.0018119028
0.0017940258
0.0008130051
2.026987e-05
7.5891312e-09
5.4525171e-09
5.2837873e-09
5.0330023e-09
5.0292459e-09
4.9433382e-09
4.9832633e-09
4.9635539e-09
5.0143866e-09
5.0380221e-09
5.0952792e-09
5.1506439e-09
5.2296163e-09
5.3197965e-09
5.4332832e-09
5.5666388e-09
5.7241314e-09
5.9032945e-09
6.1028721e-09
6.3153348e-09
6.5305975e-09
6.7356824e-09
6.9193462e-09
7.073881e-09
7.1970208e-09
7.2907321e-09
7.359612e-09
7.4084583e-09
7.4421407e-09
7.4668573e-09
7.4847456e-09
7.4939015e-09
7.4970844e-09
7.4974468e-09
7.4957173e-09
7.4939707e-09
7.4903138e-09
7.4726218e-09
7.4334099e-09
7.4039198e-09
7.3866327e-09
7.3770431e-09
7.3716558e-09
7.3683817e-09
7.367936e-09
0.000963059
0.0017641048
0.0017108735
0.00069104434
6.8780489e-06
7.0007507e-09
5.4452596e-09
5.2845946e-09
5.0409348e-09
5.0395381e-09
4.9569938e-09
4.9984659e-09
4.9815112e-09
5.0339426e-09
5.0604725e-09
5.1203357e-09
5.1794575e-09
5.2624317e-09
5.357637e-09
5.4767383e-09
5.6166433e-09
5.7811646e-09
5.9675368e-09
6.1735322e-09
6.390495e-09
6.6072041e-09
6.8101322e-09
6.9882265e-09
7.1347122e-09
7.2486909e-09
7.333265e-09
7.3936021e-09
7.434902e-09
7.4626273e-09
7.4826397e-09
7.4954646e-09
7.5010385e-09
7.5022029e-09
7.5010819e-09
7.4982938e-09
7.4958408e-09
7.4906756e-09
7.4704307e-09
7.4297231e-09
7.4020535e-09
7.3859817e-09
7.3770761e-09
7.3719428e-09
7.3686837e-09
7.3678621e-09
0.000953347
0.0017133994
0.0016231069
0.00058007934
2.1807694e-06
6.6807216e-09
5.4416151e-09
5.2882898e-09
5.0517676e-09
5.0525574e-09
4.9739035e-09
5.0169574e-09
5.0029807e-09
5.0571036e-09
5.0867299e-09
5.149367e-09
5.2124799e-09
5.2997167e-09
5.4002566e-09
5.5253101e-09
5.6721058e-09
5.8439406e-09
6.0376448e-09
6.2498852e-09
6.470793e-09
6.6880275e-09
6.8876354e-09
7.0589642e-09
7.196479e-09
7.3007879e-09
7.3759035e-09
7.4274405e-09
7.4611465e-09
7.4829882e-09
7.4976985e-09
7.5056771e-09
7.5082216e-09
7.5073305e-09
7.5046286e-09
7.5008573e-09
7.4978123e-09
7.4907726e-09
7.4673665e-09
7.4262707e-09
7.400277e-09
7.3853613e-09
7.3771252e-09
7.3722784e-09
7.3689216e-09
7.3677627e-09
0.00094305923
0.001659489
0.0015241002
0.00048039861
7.0489104e-07
6.4999689e-09
5.4415142e-09
5.2954038e-09
5.065771e-09
5.0694428e-09
4.9941746e-09
5.0388971e-09
5.0279866e-09
5.0839256e-09
5.1167962e-09
5.1824136e-09
5.2497495e-09
5.3415264e-09
5.4477294e-09
5.5790964e-09
5.7331339e-09
5.912558e-09
6.1136641e-09
6.3318794e-09
6.5560441e-09
6.7727344e-09
6.9677339e-09
7.1310932e-09
7.2588864e-09
7.3531613e-09
7.4184548e-09
7.4608854e-09
7.4869619e-09
7.5027698e-09
7.511943e-09
7.5155918e-09
7.5154731e-09
7.5123009e-09
7.5080373e-09
7.5034214e-09
7.5000167e-09
7.4907402e-09
7.4633879e-09
7.4230759e-09
7.3985724e-09
7.3847709e-09
7.3772206e-09
7.3727519e-09
7.3690608e-09
7.367638e-09
0.00093237782
0.0016039125
0.0014184953
0.00039178799
2.4890128e-07
6.3949622e-09
5.4451612e-09
5.3058222e-09
5.083032e-09
5.0893724e-09
5.0177612e-09
5.0642123e-09
5.0565173e-09
5.1143695e-09
5.1506913e-09
5.2194887e-09
5.2913062e-09
5.38793e-09
5.5001484e-09
5.6382078e-09
5.7998361e-09
5.9870945e-09
6.1955957e-09
6.4193952e-09
6.6459738e-09
6.8608947e-09
7.0499093e-09
7.2042172e-09
7.3217702e-09
7.4056353e-09
7.4605793e-09
7.4936042e-09
7.5120581e-09
7.5216061e-09
7.5255273e-09
7.5255308e-09
7.5224627e-09
7.5170747e-09
7.5112726e-09
7.5059612e-09
7.502443e-09
7.4906233e-09
7.4587461e-09
7.4200036e-09
7.3969268e-09
7.38423e-09
7.3773942e-09
7.3733309e-09
7.3691539e-09
7.3674895e-09
0.0009212814
0.0015467536
0.0013065981
0.00031447524
1.004384e-07
6.3298143e-09
5.4523714e-09
5.3195221e-09
5.1036046e-09
5.1125803e-09
5.0446325e-09
5.0928835e-09
5.0885485e-09
5.14846e-09
5.1884163e-09
5.2606364e-09
5.3372055e-09
5.4390068e-09
5.5576223e-09
5.702772e-09
5.8723467e-09
6.0676489e-09
6.2834603e-09
6.5123113e-09
6.7402853e-09
6.9520411e-09
7.1336754e-09
7.2781016e-09
7.385026e-09
7.4577553e-09
7.5016613e-09
7.5252402e-09
7.5361678e-09
7.5396072e-09
7.5388843e-09
7.5350772e-09
7.5291858e-09
7.5216113e-09
7.5143015e-09
7.5084132e-09
7.5047966e-09
7.4899916e-09
7.4537564e-09
7.4169663e-09
7.395359e-09
7.3837396e-09
7.3776441e-09
7.3739921e-09
7.3692256e-09
7.3673189e-09
0.00090975004
0.0014875487
0.0011932295
0.00024741529
4.7240783e-08
6.289e-09
5.4628979e-09
5.3363805e-09
5.1273678e-09
5.1388884e-09
5.0747251e-09
5.1248756e-09
5.1240829e-09
5.1861814e-09
5.2300053e-09
5.3059036e-09
5.3875216e-09
5.4948698e-09
5.6202815e-09
5.772936e-09
5.9507848e-09
6.1542898e-09
6.3772014e-09
6.6104132e-09
6.8385576e-09
7.0456296e-09
7.2186223e-09
7.3526441e-09
7.4483153e-09
7.5087047e-09
7.5412693e-09
7.5555699e-09
7.5593226e-09
7.5572042e-09
7.5516073e-09
7.5442351e-09
7.5355715e-09
7.5258817e-09
7.5171254e-09
7.5107098e-09
7.5064052e-09
7.4888225e-09
7.4486423e-09
7.4140396e-09
7.3939447e-09
7.3832941e-09
7.3779444e-09
7.3747009e-09
7.3692888e-09
7.3671302e-09
0.00089813174
0.0014257347
0.0010866523
0.0001843732
2.587489e-08
6.2627761e-09
5.4764937e-09
5.3562276e-09
5.1541071e-09
5.1683023e-09
5.1080448e-09
5.1602065e-09
5.1631227e-09
5.2275738e-09
5.2754889e-09
5.3553456e-09
5.4423595e-09
5.5556493e-09
5.6882869e-09
5.8488637e-09
6.0353089e-09
6.2471068e-09
6.4767881e-09
6.7134621e-09
6.9403483e-09
7.1411643e-09
7.304531e-09
7.4276975e-09
7.5106866e-09
7.5579373e-09
7.57907e-09
7.5848081e-09
7.5818421e-09
7.5738991e-09
7.5637616e-09
7.5529113e-09
7.5415936e-09
7.5298297e-09
7.5197937e-09
7.5128439e-09
7.5070676e-09
7.4869421e-09
7.4436282e-09
7.4113354e-09
7.3928186e-09
7.3831402e-09
7.3782444e-09
7.3753548e-09
7.3693511e-09
7.366929e-09
0.0008871372
0.0013691444
0.00097950299
0.000126439
1.6592675e-08
6.2455471e-09
5.4937748e-09
5.3790982e-09
5.1839276e-09
5.200843e-09
5.1446134e-09
5.1988729e-09
5.2056928e-09
5.2726582e-09
5.3249408e-09
5.4090693e-09
5.5018595e-09
5.6215124e-09
5.7618163e-09
5.930725e-09
6.1260434e-09
6.3461283e-09
6.5820759e-09
6.8210844e-09
7.0451113e-09
7.2382029e-09
7.3913084e-09
7.5025426e-09
7.5712997e-09
7.6049367e-09
7.615346e-09
7.6132371e-09
7.6032152e-09
7.5897687e-09
7.5752381e-09
7.561101e-09
7.5472125e-09
7.5333921e-09
7.5223839e-09
7.5149245e-09
7.5072892e-09
7.4841718e-09
7.4389418e-09
7.4089477e-09
7.3919693e-09
7.3831158e-09
7.3784724e-09
7.3756933e-09
7.369415e-09
7.3667173e-09
0.00087645407
0.0013132814
0.0008743277
7.6985392e-05
1.2157181e-08
6.2352795e-09
5.513976e-09
5.4051244e-09
5.2168166e-09
5.2364998e-09
5.1844207e-09
5.2408757e-09
5.251823e-09
5.3215152e-09
5.3784714e-09
5.4672249e-09
5.5661857e-09
5.6926482e-09
5.8410708e-09
6.018723e-09
6.2231527e-09
6.4514108e-09
6.6929212e-09
6.9328878e-09
7.1523479e-09
7.3364933e-09
7.47879e-09
7.576032e-09
7.6293895e-09
7.6497131e-09
7.6507615e-09
7.6401988e-09
7.6234896e-09
7.6047003e-09
7.5860302e-09
7.5687759e-09
7.5523958e-09
7.5365508e-09
7.52493e-09
7.5171448e-09
7.5073e-09
7.4803104e-09
7.4347692e-09
7.4068868e-09
7.3913204e-09
7.3831494e-09
7.3786704e-09
7.3758893e-09
7.3694787e-09
7.3664949e-09
0.00086610926
0.0012571371
0.00077248024
4.0330096e-05
9.8800152e-09
6.2301312e-09
5.5371564e-09
5.4341226e-09
5.2526776e-09
5.2752472e-09
5.2274626e-09
5.2862756e-09
5.3016151e-09
5.3742793e-09
5.4362403e-09
5.5299847e-09
5.6355346e-09
5.7692706e-09
5.9262618e-09
6.1130497e-09
6.3267501e-09
6.5629057e-09
6.8090197e-09
7.0483445e-09
7.26156e-09
7.4358984e-09
7.5660287e-09
7.6472225e-09
7.6845324e-09
7.6931688e-09
7.6845344e-09
7.6657604e-09
7.6425445e-09
7.6186879e-09
7.5961083e-09
7.5759183e-09
7.5571008e-09
7.5393147e-09
7.5274229e-09
7.5195803e-09
7.5072368e-09
7.4752971e-09
7.4311774e-09
7.4050849e-09
7.3907856e-09
7.3831973e-09
7.3789624e-09
7.3760001e-09
7.3695442e-09
7.366264e-09
0.00085616101
0.0012004333
0.00067547082
1.8252142e-05
8.6480072e-09
6.2300734e-09
5.5633652e-09
5.4661008e-09
5.2915833e-09
5.3171386e-09
5.2738518e-09
5.3352095e-09
5.3552356e-09
5.4311242e-09
5.4984246e-09
5.5975428e-09
5.7101193e-09
5.8516103e-09
6.0176367e-09
6.213932e-09
6.4369874e-09
6.6805737e-09
6.9300616e-09
7.1669668e-09
7.3724253e-09
7.5362746e-09
7.6517151e-09
7.7152849e-09
7.7372892e-09
7.7350749e-09
7.7165261e-09
7.689771e-09
7.6603612e-09
7.6317003e-09
7.6054626e-09
7.5824871e-09
7.5612724e-09
7.541803e-09
7.5297333e-09
7.5219436e-09
7.5064828e-09
7.4697044e-09
7.4277534e-09
7.4034323e-09
7.3903597e-09
7.3834509e-09
7.3795691e-09
7.3760768e-09
7.3696107e-09
7.3660245e-09
0.00084676268
0.0011432454
0.00058436647
7.434433e-06
7.9542642e-09
6.2364738e-09
5.5925587e-09
5.5010746e-09
5.3336074e-09
5.3623227e-09
5.323778e-09
5.3878702e-09
5.4128716e-09
5.4922246e-09
5.5652067e-09
5.6701084e-09
5.790177e-09
5.939919e-09
6.1154363e-09
6.3215578e-09
6.5539099e-09
6.8042074e-09
7.0555551e-09
7.2882073e-09
7.4847086e-09
7.6366945e-09
7.734702e-09
7.7797261e-09
7.7885482e-09
7.7748183e-09
7.7466036e-09
7.712211e-09
7.6769086e-09
7.6437351e-09
7.6140756e-09
7.5884274e-09
7.5648711e-09
7.5441797e-09
7.5317121e-09
7.5234556e-09
7.5051112e-09
7.4638083e-09
7.4244336e-09
7.401902e-09
7.3900209e-09
7.3838451e-09
7.3804167e-09
7.3761399e-09
7.3696101e-09
7.3657822e-09
0.00083794231
0.0010882389
0.00049996336
2.9019858e-06
7.5528808e-09
6.2489971e-09
5.6248349e-09
5.5393561e-09
5.3790084e-09
5.411085e-09
5.3774626e-09
5.4444342e-09
5.4746874e-09
5.5577456e-09
5.6367809e-09
5.7479201e-09
5.8759687e-09
6.0344816e-09
6.2199431e-09
6.4361659e-09
6.6775945e-09
6.9336095e-09
7.1850486e-09
7.4116754e-09
7.5982885e-09
7.7356999e-09
7.81409e-09
7.8413944e-09
7.8377009e-09
7.8122786e-09
7.7747077e-09
7.7330361e-09
7.692182e-09
7.6547896e-09
7.6219225e-09
7.5936861e-09
7.5679689e-09
7.5464188e-09
7.5334214e-09
7.5241521e-09
7.5030379e-09
7.4578757e-09
7.421282e-09
7.4005316e-09
7.3897237e-09
7.3842593e-09
7.3813037e-09
7.3762038e-09
7.369545e-09
7.3655358e-09
0.00082907615
0.0010303885
0.00042231682
1.14595e-06
7.316417e-09
6.2649416e-09
5.6607012e-09
5.5812183e-09
5.4280645e-09
5.4635504e-09
5.4350039e-09
5.5049963e-09
5.540776e-09
5.6278697e-09
5.7133914e-09
5.8312379e-09
5.9677866e-09
6.1355818e-09
6.3314234e-09
6.5578954e-09
6.8079578e-09
7.0683523e-09
7.3179776e-09
7.5369896e-09
7.7125017e-09
7.8318009e-09
7.8892133e-09
7.9011858e-09
7.8841544e-09
7.8473273e-09
7.8007955e-09
7.7522405e-09
7.7061862e-09
7.6648661e-09
7.6289763e-09
7.5982611e-09
7.5706402e-09
7.5484539e-09
7.5351152e-09
7.5244326e-09
7.5001565e-09
7.4521941e-09
7.4184292e-09
7.3994112e-09
7.3895599e-09
7.3845623e-09
7.3817292e-09
7.3762707e-09
7.3694241e-09
7.3652863e-09
0.0008199251
0.00096861576
0.00035184973
4.7929114e-07
7.1772105e-09
6.2850989e-09
5.7002529e-09
5.6265999e-09
5.4807495e-09
5.5196809e-09
5.4964637e-09
5.5696748e-09
5.611304e-09
5.702854e-09
5.795288e-09
5.9203707e-09
6.0659411e-09
6.2435602e-09
6.4501749e-09
6.6869576e-09
6.9449118e-09
7.2080638e-09
7.4539064e-09
7.6639882e-09
7.8257941e-09
7.9240304e-09
7.9609176e-09
7.958428e-09
7.9277629e-09
7.8799115e-09
7.824851e-09
7.7698297e-09
7.7189351e-09
7.6739577e-09
7.6352228e-09
7.6022473e-09
7.5730923e-09
7.5503871e-09
7.5368182e-09
7.524522e-09
7.4962382e-09
7.4471021e-09
7.4159807e-09
7.3985761e-09
7.3895618e-09
7.3847755e-09
7.3819838e-09
7.3763343e-09
7.3692651e-09
7.3650356e-09
0.00081054978
0.00090417407
0.00028848825
2.1935409e-07
7.096714e-09
6.3087756e-09
5.7429197e-09
5.6754862e-09
5.5369457e-09
5.5796012e-09
5.5619973e-09
5.6387157e-09
5.6865399e-09
5.7829549e-09
5.8827898e-09
6.0156422e-09
6.1707734e-09
6.358736e-09
6.576455e-09
6.8233663e-09
7.0881583e-09
7.352165e-09
7.5923435e-09
7.79229e-09
7.9363833e-09
8.0114515e-09
8.0301281e-09
8.0124829e-09
7.9684045e-09
7.9099949e-09
7.8468821e-09
7.7858305e-09
7.7304436e-09
7.682055e-09
7.6406938e-09
7.6058381e-09
7.5755405e-09
7.5522025e-09
7.5382954e-09
7.5243138e-09
7.4911741e-09
7.4428185e-09
7.4139604e-09
7.397986e-09
7.389632e-09
7.3849406e-09
7.382124e-09
7.3763558e-09
7.3690789e-09
7.3647863e-09
0.00080125542
0.0008374715
0.0002318773
1.1253766e-07
7.0503034e-09
6.335965e-09
5.7890963e-09
5.7277926e-09
5.5970021e-09
5.6435751e-09
5.6319133e-09
5.7123922e-09
5.7667541e-09
5.8684768e-09
5.9762125e-09
6.1173956e-09
6.282654e-09
6.4814843e-09
6.7105623e-09
6.9671983e-09
7.2374233e-09
7.5002301e-09
7.732982e-09
7.9205673e-09
8.0430549e-09
8.0945517e-09
8.096483e-09
8.0630711e-09
8.0060274e-09
7.9375781e-09
7.8669193e-09
7.8002772e-09
7.7407217e-09
7.689158e-09
7.6454909e-09
7.6092179e-09
7.5778761e-09
7.5537133e-09
7.5389207e-09
7.5233153e-09
7.4853088e-09
7.4391917e-09
7.4122745e-09
7.3975679e-09
7.3897843e-09
7.3851864e-09
7.3822216e-09
7.3762813e-09
7.3688728e-09
7.3645407e-09
0.00079150514
0.00076864566
0.00018188049
6.5038807e-08
7.0250783e-09
6.3671639e-09
5.839094e-09
5.7841432e-09
5.6612386e-09
5.7119122e-09
5.7064838e-09
5.7909689e-09
5.8522341e-09
5.9596502e-09
6.0759004e-09
6.2260136e-09
6.4019632e-09
6.6121511e-09
6.8526667e-09
7.1182873e-09
7.3921812e-09
7.6516937e-09
7.8754442e-09
8.0469126e-09
8.1445844e-09
8.174277e-09
8.15922e-09
8.1100884e-09
8.0406024e-09
7.9626872e-09
7.8850105e-09
7.8132017e-09
7.7497744e-09
7.6953171e-09
7.6497835e-09
7.6123431e-09
7.5792661e-09
7.5545026e-09
7.5392387e-09
7.5215769e-09
7.4792147e-09
7.4358952e-09
7.4108053e-09
7.3971695e-09
7.3898458e-09
7.3856148e-09
7.3823031e-09
7.3761154e-09
7.3686515e-09
7.3643012e-09
0.00078078663
0.00069468453
0.00013943915
4.1967768e-08
7.0149236e-09
6.4026138e-09
5.8932018e-09
5.8447127e-09
5.7298837e-09
5.7848088e-09
5.7859367e-09
5.8747052e-09
5.9432811e-09
6.0569784e-09
6.1822316e-09
6.3418988e-09
6.5291362e-09
6.7511291e-09
7.0029758e-09
7.276499e-09
7.5520249e-09
7.8061659e-09
8.0191198e-09
8.1695096e-09
8.2406879e-09
8.2509701e-09
8.2178074e-09
8.1534683e-09
8.072149e-09
7.9853766e-09
7.9012067e-09
7.8246185e-09
7.7576194e-09
7.7006674e-09
7.6537309e-09
7.6146812e-09
7.5798913e-09
7.5549022e-09
7.5393395e-09
7.5191245e-09
7.4731606e-09
7.4328305e-09
7.4094917e-09
7.3967914e-09
7.3898608e-09
7.3859944e-09
7.382385e-09
7.3758711e-09
7.3684184e-09
7.3640696e-09
0.00077028529
0.00062125773
0.00010333392
2.9659046e-08
7.0155954e-09
6.4423488e-09
5.9515075e-09
5.9095674e-09
5.803095e-09
5.8624661e-09
5.8705339e-09
5.9638962e-09
6.0402329e-09
6.1608356e-09
6.2956269e-09
6.4655049e-09
6.664609e-09
6.8987264e-09
7.1614734e-09
7.4413803e-09
7.7163416e-09
7.9631095e-09
8.1619531e-09
8.2870516e-09
8.3322581e-09
8.3236677e-09
8.2721722e-09
8.1931884e-09
8.100714e-09
8.005714e-09
7.9155462e-09
7.8345353e-09
7.7643361e-09
7.7054262e-09
7.6573031e-09
7.6156498e-09
7.5801421e-09
7.5550907e-09
7.5393647e-09
7.5160159e-09
7.4673292e-09
7.4299823e-09
7.4083154e-09
7.3964802e-09
7.3899122e-09
7.3861904e-09
7.3824661e-09
7.3755656e-09
7.3681769e-09
7.3638476e-09
0.00076124094
0.0005702987
7.4597082e-05
2.2605723e-08
7.0250187e-09
6.4865302e-09
6.014087e-09
5.978987e-09
5.8810708e-09
5.9451976e-09
5.9605592e-09
6.0589077e-09
6.1434574e-09
6.271595e-09
6.4165495e-09
6.5973314e-09
6.8088779e-09
7.0552964e-09
7.3281845e-09
7.6125909e-09
7.8847019e-09
8.1221457e-09
8.301878e-09
8.398286e-09
8.4205397e-09
8.3915399e-09
8.3222144e-09
8.229283e-09
8.1263762e-09
8.0237648e-09
7.9280508e-09
7.8429962e-09
7.770109e-09
7.7097845e-09
7.6599869e-09
7.616056e-09
7.5802499e-09
7.5552129e-09
7.539066e-09
7.5122306e-09
7.461899e-09
7.4273828e-09
7.4072747e-09
7.3962186e-09
7.3899678e-09
7.3863246e-09
7.3825151e-09
7.3752167e-09
7.3679303e-09
7.3636367e-09
0.0007528316
0.00052297263
5.1535362e-05
1.8260124e-08
7.041848e-09
6.5351748e-09
6.0813265e-09
6.0531013e-09
5.9641966e-09
6.0332594e-09
6.056387e-09
6.1600838e-09
6.2533848e-09
6.3897426e-09
6.5455211e-09
6.7379207e-09
6.9623789e-09
7.221014e-09
7.5028037e-09
7.7895263e-09
8.0563953e-09
8.2818478e-09
8.4369241e-09
8.5038906e-09
8.5044445e-09
8.4544498e-09
8.3679133e-09
8.2618136e-09
8.1492166e-09
8.0395735e-09
7.9387583e-09
7.8501606e-09
7.7752158e-09
7.7136618e-09
7.6611073e-09
7.6161717e-09
7.580284e-09
7.5553029e-09
7.5382724e-09
7.5078561e-09
7.4570408e-09
7.4250784e-09
7.4063671e-09
7.3959724e-09
7.3899795e-09
7.3864297e-09
7.3824638e-09
7.3748402e-09
7.3676825e-09
7.3634383e-09
0.00074541835
0.00048284984
3.444072e-05
1.5466183e-08
7.0653797e-09
6.5887029e-09
6.1533403e-09
6.1324242e-09
6.0527202e-09
6.1270064e-09
6.1583562e-09
6.267869e-09
6.3705114e-09
6.5157977e-09
6.6831248e-09
6.8878404e-09
7.1256161e-09
7.3960402e-09
7.6851281e-09
7.9717551e-09
8.2310154e-09
8.4400135e-09
8.5656463e-09
8.6048862e-09
8.5832048e-09
8.5122757e-09
8.4093085e-09
8.2908791e-09
8.1693101e-09
8.0531785e-09
7.9477928e-09
7.8563455e-09
7.7798646e-09
7.71635e-09
7.6615727e-09
7.6161834e-09
7.5800539e-09
7.555199e-09
7.5368811e-09
7.5028926e-09
7.4528933e-09
7.4230902e-09
7.4055648e-09
7.3957196e-09
7.3899735e-09
7.3865297e-09
7.3823171e-09
7.3744489e-09
7.367437e-09
7.3632534e-09
0.00073919865
0.00044855909
2.2299001e-05
1.3593165e-08
7.0953367e-09
6.6472954e-09
6.2304744e-09
6.2170376e-09
6.1469753e-09
6.2268017e-09
6.266921e-09
6.3827728e-09
6.4953843e-09
6.6504019e-09
6.8299953e-09
7.0476886e-09
7.2989179e-09
7.5802636e-09
7.8745457e-09
8.1585506e-09
8.4077431e-09
8.5940454e-09
8.6873474e-09
8.7014971e-09
8.6560886e-09
8.5649843e-09
8.4464719e-09
8.3165751e-09
8.1867144e-09
8.0646757e-09
7.9554357e-09
7.8618952e-09
7.7838335e-09
7.7174844e-09
7.6617007e-09
7.6158607e-09
7.5796265e-09
7.5548342e-09
7.5348246e-09
7.4973981e-09
7.4494997e-09
7.421384e-09
7.4048373e-09
7.3954573e-09
7.3899582e-09
7.3866307e-09
7.382075e-09
7.3740525e-09
7.3671971e-09
7.3630834e-09
0.00073438407
0.00042013385
1.4061446e-05
1.2300474e-08
7.1313072e-09
6.711058e-09
6.3129378e-09
6.3073199e-09
6.247389e-09
6.3331612e-09
6.3826215e-09
6.5053879e-09
6.6286563e-09
6.7942067e-09
6.9868113e-09
7.2180833e-09
7.482644e-09
7.773601e-09
8.0706516e-09
8.3492938e-09
8.5846827e-09
8.7421609e-09
8.8029544e-09
8.7926073e-09
8.7230924e-09
8.6126136e-09
8.4795215e-09
8.3389986e-09
8.2015218e-09
8.0743178e-09
7.9620859e-09
7.866791e-09
7.786002e-09
7.7179179e-09
7.6616781e-09
7.6152212e-09
7.5789888e-09
7.5541508e-09
7.5321111e-09
7.4918851e-09
7.4465027e-09
7.4198724e-09
7.4041642e-09
7.3951864e-09
7.3899289e-09
7.3867222e-09
7.3817352e-09
7.3736588e-09
7.3669654e-09
7.3629292e-09
0.00073098089
0.00039761323
8.6405512e-06
1.138914e-08
7.1733468e-09
6.7804281e-09
6.4012047e-09
6.4038664e-09
6.3545194e-09
6.446684e-09
6.5060653e-09
6.6363723e-09
6.7710291e-09
6.9479694e-09
7.1543071e-09
7.3995479e-09
7.6768772e-09
7.9755741e-09
8.2726932e-09
8.5430464e-09
8.7589428e-09
8.8824401e-09
8.9137683e-09
8.8770746e-09
8.7840792e-09
8.6552373e-09
8.5085648e-09
8.3582421e-09
8.2139427e-09
8.0825405e-09
7.9679772e-09
7.8701203e-09
7.7869316e-09
7.7180286e-09
7.6611996e-09
7.614278e-09
7.5781565e-09
7.5531145e-09
7.5288322e-09
7.4865704e-09
7.4437331e-09
7.4184827e-09
7.4035385e-09
7.3949237e-09
7.3898706e-09
7.3867378e-09
7.3813064e-09
7.3732736e-09
7.3667441e-09
7.3627918e-09
0.00072859047
0.0003809649
5.154381e-06
1.0741021e-08
7.2220473e-09
6.8559949e-09
6.4958858e-09
6.5072258e-09
6.468959e-09
6.5679624e-09
6.6379241e-09
6.7764653e-09
6.9232601e-09
7.1124651e-09
7.3332221e-09