/*--------------------------------*- C++ -*----------------------------------*\
  =========                 |
  \\      /  F ield         | OpenFOAM: The Open Source CFD Toolbox
   \\    /   O peration     | Website:  https://openfoam.org
    \\  /    A nd           | Version:  8
     \\/     M anipulation  |
\*---------------------------------------------------------------------------*/
FoamFile
{
    version     2.0;
    format      ascii;
    class       volScalarField;
    location    "0.0699881";
    object      nuTilda;
}
// * * * * * * * * * * * * * * * * * * * * * * * * * * * * * * * * * * * * * //

dimensions      [0 2 -1 0 0 0 0];

internalField   nonuniform List<scalar> 
20000
(
0.0011234379
0.0025381678
0.0031466083
0.0030564185
0.0021407727
0.00046761481
2.0550614e-05
1.0316944e-05
1.0130595e-05
1.0110152e-05
1.0051658e-05
1.0054079e-05
1.0013588e-05
1.0019058e-05
1.0008851e-05
1.0009433e-05
1.0005048e-05
1.0004116e-05
1.0002517e-05
1.0002168e-05
1.0002051e-05
1.0002186e-05
1.0002113e-05
1.0001905e-05
1.0001638e-05
1.0001351e-05
1.0001079e-05
1.0000836e-05
1.0000634e-05
1.0000476e-05
1.000038e-05
1.0000349e-05
1.0000344e-05
1.000032e-05
1.0000274e-05
1.0000294e-05
1.0000362e-05
1.000036e-05
1.0000269e-05
1.0000209e-05
1.0000165e-05
1.0000153e-05
1.000013e-05
1.0000115e-05
1.000012e-05
1.000012e-05
1.000012e-05
1.0000182e-05
1.0000103e-05
1.0000159e-05
0.0011110978
0.0024799957
0.0030421993
0.0029124383
0.0019176068
0.0003601498
1.6120723e-05
1.0303316e-05
1.0127519e-05
1.0108424e-05
1.0050954e-05
1.0053799e-05
1.0013312e-05
1.001884e-05
1.000872e-05
1.0009297e-05
1.0005e-05
1.0004076e-05
1.0002495e-05
1.0002143e-05
1.0002035e-05
1.0002179e-05
1.0002112e-05
1.0001905e-05
1.0001644e-05
1.0001358e-05
1.0001085e-05
1.0000839e-05
1.0000629e-05
1.0000463e-05
1.0000357e-05
1.0000325e-05
1.0000318e-05
1.0000301e-05
1.0000258e-05
1.0000275e-05
1.0000351e-05
1.0000362e-05
1.0000273e-05
1.0000208e-05
1.0000162e-05
1.0000151e-05
1.0000126e-05
1.0000107e-05
1.0000103e-05
1.0000103e-05
1.0000114e-05
1.0000174e-05
1.0000107e-05
1.000016e-05
0.001100762
0.0024258673
0.0029374307
0.0027608311
0.0016896717
0.00026702609
1.3450536e-05
1.0292813e-05
1.0124401e-05
1.010631e-05
1.0050264e-05
1.0053418e-05
1.0013053e-05
1.001849e-05
1.0008591e-05
1.0009142e-05
1.0004946e-05
1.0004032e-05
1.0002479e-05
1.0002132e-05
1.0002024e-05
1.0002155e-05
1.0002091e-05
1.0001889e-05
1.0001632e-05
1.0001349e-05
1.000108e-05
1.0000838e-05
1.0000633e-05
1.0000468e-05
1.0000358e-05
1.000032e-05
1.0000312e-05
1.0000302e-05
1.0000255e-05
1.000027e-05
1.0000346e-05
1.0000364e-05
1.0000278e-05
1.0000207e-05
1.0000162e-05
1.0000152e-05
1.0000128e-05
1.0000105e-05
1.0000099e-05
1.00001e-05
1.0000114e-05
1.000017e-05
1.0000113e-05
1.000016e-05
0.0010904072
0.0023734065
0.0028398829
0.002611588
0.0014701121
0.00019426608
1.1969032e-05
1.0283943e-05
1.0121303e-05
1.0104264e-05
1.0049551e-05
1.0053025e-05
1.001279e-05
1.0018177e-05
1.0008466e-05
1.0008982e-05
1.0004891e-05
1.0003984e-05
1.000246e-05
1.0002115e-05
1.0002016e-05
1.0002148e-05
1.0002082e-05
1.0001881e-05
1.0001625e-05
1.0001346e-05
1.0001079e-05
1.0000838e-05
1.0000632e-05
1.0000466e-05
1.0000355e-05
1.0000316e-05
1.0000307e-05
1.0000302e-05
1.0000253e-05
1.0000261e-05
1.0000334e-05
1.0000364e-05
1.000028e-05
1.0000208e-05
1.0000162e-05
1.0000151e-05
1.0000127e-05
1.0000104e-05
1.0000096e-05
1.0000099e-05
1.0000117e-05
1.0000163e-05
1.0000115e-05
1.0000161e-05
0.0010800494
0.0023214165
0.0027430687
0.0024649225
0.0012607309
0.00013856506
1.1176283e-05
1.0275747e-05
1.0118218e-05
1.0102201e-05
1.0048824e-05
1.0052622e-05
1.0012532e-05
1.0017841e-05
1.0008343e-05
1.000882e-05
1.0004836e-05
1.0003937e-05
1.0002443e-05
1.00021e-05
1.0002009e-05
1.0002134e-05
1.0002068e-05
1.0001868e-05
1.0001616e-05
1.000134e-05
1.0001076e-05
1.0000837e-05
1.0000633e-05
1.0000467e-05
1.0000355e-05
1.0000313e-05
1.0000304e-05
1.0000303e-05
1.0000252e-05
1.0000254e-05
1.0000322e-05
1.0000362e-05
1.0000282e-05
1.0000208e-05
1.0000162e-05
1.0000151e-05
1.0000128e-05
1.0000103e-05
1.0000094e-05
1.0000098e-05
1.0000118e-05
1.0000159e-05
1.0000117e-05
1.0000161e-05
0.0010695946
0.0022703251
0.002647506
0.0023181459
0.0010643525
9.7120216e-05
1.0762894e-05
1.0267885e-05
1.0115143e-05
1.0100109e-05
1.0048082e-05
1.0052203e-05
1.0012278e-05
1.0017506e-05
1.0008224e-05
1.0008656e-05
1.0004781e-05
1.0003888e-05
1.0002425e-05
1.0002081e-05
1.0002005e-05
1.0002123e-05
1.0002054e-05
1.0001856e-05
1.0001607e-05
1.0001335e-05
1.0001074e-05
1.0000836e-05
1.0000633e-05
1.0000467e-05
1.0000354e-05
1.0000311e-05
1.0000302e-05
1.0000304e-05
1.0000251e-05
1.0000248e-05
1.0000309e-05
1.0000354e-05
1.0000283e-05
1.0000207e-05
1.0000161e-05
1.0000151e-05
1.0000128e-05
1.0000103e-05
1.0000093e-05
1.0000096e-05
1.0000119e-05
1.0000156e-05
1.0000119e-05
1.0000162e-05
0.0010590675
0.0022197255
0.0025529973
0.0021700953
0.00088416671
6.740351e-05
1.055064e-05
1.0261266e-05
1.0112083e-05
1.0097989e-05
1.004732e-05
1.0051769e-05
1.0012031e-05
1.0017165e-05
1.0008108e-05
1.0008492e-05
1.0004726e-05
1.0003837e-05
1.0002404e-05
1.0002062e-05
1.0002e-05
1.0002109e-05
1.000204e-05
1.0001843e-05
1.0001597e-05
1.0001328e-05
1.000107e-05
1.0000834e-05
1.0000632e-05
1.0000467e-05
1.0000353e-05
1.0000309e-05
1.0000299e-05
1.0000304e-05
1.000025e-05
1.0000242e-05
1.0000295e-05
1.0000342e-05
1.0000283e-05
1.0000205e-05
1.0000161e-05
1.000015e-05
1.0000128e-05
1.0000103e-05
1.0000092e-05
1.0000094e-05
1.0000121e-05
1.0000154e-05
1.0000122e-05
1.0000162e-05
0.0010485709
0.0021699774
0.0024595965
0.0020229433
0.00072219721
4.6825144e-05
1.0441233e-05
1.0254712e-05
1.0109042e-05
1.0095816e-05
1.004651e-05
1.0051298e-05
1.001181e-05
1.0016823e-05
1.0007996e-05
1.0008325e-05
1.0004669e-05
1.0003782e-05
1.0002383e-05
1.0002043e-05
1.0001994e-05
1.0002096e-05
1.0002025e-05
1.000183e-05
1.0001586e-05
1.0001322e-05
1.0001067e-05
1.0000832e-05
1.0000632e-05
1.0000467e-05
1.0000353e-05
1.0000307e-05
1.0000298e-05
1.0000305e-05
1.000025e-05
1.0000238e-05
1.0000281e-05
1.000033e-05
1.0000282e-05
1.0000204e-05
1.0000161e-05
1.000015e-05
1.0000128e-05
1.0000102e-05
1.0000091e-05
1.0000093e-05
1.0000121e-05
1.0000153e-05
1.0000125e-05
1.0000161e-05
0.0010383889
0.0021215013
0.0023670213
0.0018744146
0.00057979248
3.3121047e-05
1.0382748e-05
1.0248143e-05
1.0106191e-05
1.0093499e-05
1.004543e-05
1.0049746e-05
1.0011693e-05
1.0016478e-05
1.0007885e-05
1.0008153e-05
1.0004611e-05
1.0003727e-05
1.0002364e-05
1.0002024e-05
1.0001988e-05
1.0002084e-05
1.000201e-05
1.0001816e-05
1.0001576e-05
1.0001315e-05
1.0001063e-05
1.000083e-05
1.0000631e-05
1.0000468e-05
1.0000353e-05
1.0000307e-05
1.0000297e-05
1.0000305e-05
1.0000252e-05
1.0000234e-05
1.0000268e-05
1.0000318e-05
1.0000278e-05
1.0000202e-05
1.0000161e-05
1.0000151e-05
1.0000128e-05
1.0000102e-05
1.0000091e-05
1.000009e-05
1.0000119e-05
1.0000152e-05
1.0000129e-05
1.000016e-05
0.0010286985
0.0020750179
0.0022764404
0.001722334
0.00045880028
2.4342247e-05
1.0353082e-05
1.0241624e-05
1.0105935e-05
1.0090692e-05
1.0042703e-05
1.0045581e-05
1.0011559e-05
1.001612e-05
1.0007777e-05
1.000798e-05
1.0004553e-05
1.0003672e-05
1.0002345e-05
1.0002005e-05
1.0001982e-05
1.0002071e-05
1.0001995e-05
1.0001802e-05
1.0001564e-05
1.0001307e-05
1.0001059e-05
1.0000828e-05
1.000063e-05
1.0000468e-05
1.0000353e-05
1.0000306e-05
1.0000297e-05
1.0000306e-05
1.0000255e-05
1.0000232e-05
1.0000257e-05
1.0000304e-05
1.0000275e-05
1.0000199e-05
1.0000162e-05
1.0000152e-05
1.0000128e-05
1.0000101e-05
1.0000089e-05
1.0000087e-05
1.0000116e-05
1.0000151e-05
1.0000133e-05
1.0000158e-05
0.0010193437
0.0020306477
0.0021933511
0.0015669845
0.0003610585
1.8883826e-05
1.0339332e-05
1.0235416e-05
1.0103353e-05
1.0086803e-05
1.0038341e-05
1.0041032e-05
1.0011358e-05
1.0015757e-05
1.0007673e-05
1.0007807e-05
1.0004497e-05
1.0003617e-05
1.0002326e-05
1.0001985e-05
1.0001975e-05
1.0002058e-05
1.0001979e-05
1.0001788e-05
1.0001553e-05
1.0001299e-05
1.0001054e-05
1.0000825e-05
1.0000629e-05
1.0000468e-05
1.0000354e-05
1.0000307e-05
1.0000297e-05
1.0000307e-05
1.0000259e-05
1.0000232e-05
1.0000248e-05
1.000029e-05
1.0000272e-05
1.0000197e-05
1.0000162e-05
1.0000152e-05
1.0000129e-05
1.0000101e-05
1.0000088e-05
1.0000084e-05
1.0000112e-05
1.0000151e-05
1.0000138e-05
1.0000156e-05
0.0010101705
0.0019871028
0.0021137735
0.0014081583
0.00027844982
1.5479475e-05
1.032965e-05
1.023061e-05
1.0098485e-05
1.0081854e-05
1.003339e-05
1.0036905e-05
1.0011062e-05
1.0015386e-05
1.0007572e-05
1.0007635e-05
1.000444e-05
1.0003561e-05
1.0002308e-05
1.0001966e-05
1.0001968e-05
1.0002045e-05
1.0001963e-05
1.0001773e-05
1.0001541e-05
1.0001291e-05
1.0001049e-05
1.0000823e-05
1.0000627e-05
1.0000468e-05
1.0000355e-05
1.0000308e-05
1.0000298e-05
1.0000308e-05
1.0000262e-05
1.0000231e-05
1.0000242e-05
1.0000277e-05
1.000027e-05
1.0000195e-05
1.0000164e-05
1.0000153e-05
1.0000129e-05
1.00001e-05
1.0000086e-05
1.0000082e-05
1.0000108e-05
1.000015e-05
1.0000142e-05
1.0000153e-05
0.0010012875
0.0019441268
0.0020334008
0.0012478698
0.0002112269
1.3438501e-05
1.0322724e-05
1.022586e-05
1.0095248e-05
1.0077771e-05
1.0029781e-05
1.0033104e-05
1.0010701e-05
1.0015012e-05
1.0007475e-05
1.0007462e-05
1.0004385e-05
1.0003505e-05
1.000229e-05
1.0001947e-05
1.000196e-05
1.0002031e-05
1.0001947e-05
1.0001758e-05
1.0001528e-05
1.0001282e-05
1.0001043e-05
1.0000819e-05
1.0000626e-05
1.0000468e-05
1.0000357e-05
1.000031e-05
1.00003e-05
1.000031e-05
1.0000266e-05
1.0000231e-05
1.0000238e-05
1.0000267e-05
1.0000268e-05
1.0000193e-05
1.0000165e-05
1.0000154e-05
1.0000129e-05
1.0000099e-05
1.0000085e-05
1.000008e-05
1.0000106e-05
1.000015e-05
1.0000147e-05
1.000015e-05
0.00099265127
0.0019020394
0.0019545191
0.0010920787
0.00015807088
1.2249534e-05
1.0320924e-05
1.0219162e-05
1.0094448e-05
1.0076043e-05
1.0027928e-05
1.0030955e-05
1.0010363e-05
1.0014642e-05
1.000738e-05
1.0007289e-05
1.0004329e-05
1.000345e-05
1.0002272e-05
1.0001928e-05
1.0001953e-05
1.0002017e-05
1.000193e-05
1.0001743e-05
1.0001516e-05
1.0001273e-05
1.0001038e-05
1.0000816e-05
1.0000624e-05
1.0000468e-05
1.0000358e-05
1.0000313e-05
1.0000304e-05
1.0000312e-05
1.000027e-05
1.0000232e-05
1.0000235e-05
1.0000258e-05
1.0000265e-05
1.0000193e-05
1.0000166e-05
1.0000155e-05
1.000013e-05
1.0000099e-05
1.0000084e-05
1.0000079e-05
1.0000107e-05
1.000015e-05
1.0000153e-05
1.0000146e-05
0.0009838712
0.0018582789
0.0018753035
0.00094868145
0.00011717781
1.1567796e-05
1.0315087e-05
1.0212979e-05
1.0092761e-05
1.0073778e-05
1.0027789e-05
1.0030349e-05
1.0010217e-05
1.0014284e-05
1.0007286e-05
1.0007117e-05
1.0004274e-05
1.0003394e-05
1.0002255e-05
1.0001911e-05
1.0001945e-05
1.0002003e-05
1.0001913e-05
1.0001727e-05
1.0001503e-05
1.0001264e-05
1.0001032e-05
1.0000813e-05
1.0000622e-05
1.0000467e-05
1.000036e-05
1.0000316e-05
1.0000309e-05
1.0000315e-05
1.0000274e-05
1.0000232e-05
1.0000234e-05
1.0000252e-05
1.0000261e-05
1.0000193e-05
1.0000167e-05
1.0000155e-05
1.0000131e-05
1.00001e-05
1.0000083e-05
1.0000079e-05
1.0000109e-05
1.0000151e-05
1.0000159e-05
1.0000141e-05
0.00097494285
0.0018126479
0.0017947548
0.00081625764
8.6164022e-05
1.1174354e-05
1.030604e-05
1.0206581e-05
1.0089742e-05
1.0071574e-05
1.0026923e-05
1.0029436e-05
1.0010048e-05
1.0013912e-05
1.0007195e-05
1.0006933e-05
1.0004219e-05
1.0003339e-05
1.0002238e-05
1.0001894e-05
1.0001937e-05
1.0001989e-05
1.0001896e-05
1.0001711e-05
1.0001489e-05
1.0001254e-05
1.0001026e-05
1.0000809e-05
1.000062e-05
1.0000467e-05
1.0000362e-05
1.0000319e-05
1.0000316e-05
1.0000318e-05
1.0000277e-05
1.0000233e-05
1.0000233e-05
1.0000248e-05
1.0000257e-05
1.0000194e-05
1.0000168e-05
1.0000154e-05
1.0000133e-05
1.0000103e-05
1.0000083e-05
1.0000079e-05
1.0000112e-05
1.0000154e-05
1.0000165e-05
1.0000136e-05
0.00096574704
0.0017648879
0.00171167
0.00069546788
6.3245946e-05
1.0944188e-05
1.0296134e-05
1.0200151e-05
1.0086882e-05
1.0069351e-05
1.0026057e-05
1.0028593e-05
1.0009894e-05
1.0013552e-05
1.0007106e-05
1.0006754e-05
1.0004165e-05
1.0003284e-05
1.0002222e-05
1.0001878e-05
1.0001928e-05
1.0001974e-05
1.0001879e-05
1.0001695e-05
1.0001476e-05
1.0001244e-05
1.0001019e-05
1.0000806e-05
1.0000618e-05
1.0000467e-05
1.0000364e-05
1.0000323e-05
1.0000323e-05
1.0000321e-05
1.000028e-05
1.0000233e-05
1.0000233e-05
1.0000246e-05
1.0000255e-05
1.0000195e-05
1.0000168e-05
1.0000153e-05
1.0000134e-05
1.0000106e-05
1.0000084e-05
1.0000081e-05
1.0000117e-05
1.0000159e-05
1.0000172e-05
1.0000132e-05
0.00095608264
0.0017142259
0.0016239854
0.00058621487
4.6629571e-05
1.0808632e-05
1.0286548e-05
1.0193779e-05
1.0084011e-05
1.0067119e-05
1.0025203e-05
1.0027729e-05
1.0009747e-05
1.0013184e-05
1.0007019e-05
1.0006578e-05
1.0004111e-05
1.000323e-05
1.0002206e-05
1.0001863e-05
1.0001919e-05
1.0001959e-05
1.0001861e-05
1.0001679e-05
1.0001462e-05
1.0001234e-05
1.0001013e-05
1.0000802e-05
1.0000616e-05
1.0000466e-05
1.0000366e-05
1.0000327e-05
1.0000331e-05
1.0000325e-05
1.0000283e-05
1.0000234e-05
1.0000233e-05
1.0000248e-05
1.0000255e-05
1.0000197e-05
1.0000168e-05
1.0000151e-05
1.0000136e-05
1.0000112e-05
1.0000085e-05
1.0000085e-05
1.0000122e-05
1.0000166e-05
1.0000179e-05
1.0000127e-05
0.00094584558
0.0016603655
0.0015250881
0.00048905988
3.4887212e-05
1.072521e-05
1.0277276e-05
1.0187433e-05
1.0081152e-05
1.0064887e-05
1.0024356e-05
1.0026871e-05
1.0009609e-05
1.0012826e-05
1.0006932e-05
1.0006408e-05
1.0004059e-05
1.0003178e-05
1.0002191e-05
1.000185e-05
1.000191e-05
1.0001944e-05
1.0001844e-05
1.0001662e-05
1.0001448e-05
1.0001224e-05
1.0001006e-05
1.0000798e-05
1.0000614e-05
1.0000465e-05
1.0000368e-05
1.0000331e-05
1.0000338e-05
1.0000328e-05
1.0000286e-05
1.0000234e-05
1.0000234e-05
1.0000252e-05
1.0000257e-05
1.0000199e-05
1.0000167e-05
1.0000149e-05
1.0000139e-05
1.0000119e-05
1.0000088e-05
1.0000091e-05
1.0000129e-05
1.0000173e-05
1.0000185e-05
1.0000124e-05
0.00093521681
0.0016048454
0.0014196248
0.00040417192
2.6789588e-05
1.0670421e-05
1.0268203e-05
1.0181115e-05
1.0078303e-05
1.0062651e-05
1.002352e-05
1.0026014e-05
1.000948e-05
1.0012466e-05
1.0006846e-05
1.0006243e-05
1.0004006e-05
1.0003126e-05
1.0002177e-05
1.0001837e-05
1.00019e-05
1.0001929e-05
1.0001826e-05
1.0001646e-05
1.0001434e-05
1.0001214e-05
1.0000999e-05
1.0000794e-05
1.0000612e-05
1.0000465e-05
1.000037e-05
1.0000336e-05
1.0000346e-05
1.0000332e-05
1.0000288e-05
1.0000235e-05
1.0000234e-05
1.0000258e-05
1.0000261e-05
1.0000202e-05
1.0000166e-05
1.0000147e-05
1.0000141e-05
1.0000126e-05
1.0000094e-05
1.0000098e-05
1.0000137e-05
1.0000181e-05
1.0000192e-05
1.0000119e-05
0.00092417507
0.0015477501
0.001307915
0.00033219122
2.1302594e-05
1.063043e-05
1.0259285e-05
1.0174822e-05
1.0075467e-05
1.0060417e-05
1.0022696e-05
1.0025161e-05
1.0009361e-05
1.0012115e-05
1.0006761e-05
1.0006087e-05
1.0003954e-05
1.0003076e-05
1.0002164e-05
1.0001825e-05
1.000189e-05
1.0001914e-05
1.0001807e-05
1.0001629e-05
1.000142e-05
1.0001203e-05
1.0000992e-05
1.0000789e-05
1.0000609e-05
1.0000464e-05
1.0000373e-05
1.0000341e-05
1.0000352e-05
1.0000337e-05
1.0000291e-05
1.0000237e-05
1.0000234e-05
1.0000263e-05
1.0000268e-05
1.0000204e-05
1.0000165e-05
1.0000145e-05
1.0000143e-05
1.0000132e-05
1.0000102e-05
1.0000105e-05
1.0000146e-05
1.0000189e-05
1.0000199e-05
1.0000115e-05
0.00091270089
0.0014886182
0.0011947895
0.00027242499
1.7609768e-05
1.0599081e-05
1.02505e-05
1.016857e-05
1.0072649e-05
1.0058193e-05
1.0021885e-05
1.0024315e-05
1.0009252e-05
1.0011766e-05
1.0006677e-05
1.0005943e-05
1.0003902e-05
1.0003027e-05
1.0002152e-05
1.0001815e-05
1.000188e-05
1.0001898e-05
1.0001789e-05
1.0001612e-05
1.0001406e-05
1.0001193e-05
1.0000984e-05
1.0000785e-05
1.0000608e-05
1.0000465e-05
1.0000375e-05
1.0000346e-05
1.0000358e-05
1.0000342e-05
1.0000293e-05
1.0000239e-05
1.0000233e-05
1.0000268e-05
1.0000275e-05
1.0000208e-05
1.0000164e-05
1.0000143e-05
1.0000144e-05
1.0000137e-05
1.0000111e-05
1.0000113e-05
1.0000155e-05
1.0000198e-05
1.0000205e-05
1.0000111e-05
0.00090113989
0.0014268896
0.0010885084
0.00021959321
1.5124144e-05
1.0572365e-05
1.0241814e-05
1.0162354e-05
1.006985e-05
1.005598e-05
1.0021091e-05
1.0023478e-05
1.0009155e-05
1.0011426e-05
1.0006593e-05
1.00058e-05
1.0003851e-05
1.0002981e-05
1.000214e-05
1.0001806e-05
1.0001869e-05
1.0001882e-05
1.0001771e-05
1.0001596e-05
1.0001392e-05
1.0001182e-05
1.0000976e-05
1.000078e-05
1.0000606e-05
1.0000465e-05
1.0000377e-05
1.000035e-05
1.0000364e-05
1.0000346e-05
1.0000295e-05
1.000024e-05
1.0000231e-05
1.0000272e-05
1.0000283e-05
1.0000212e-05
1.0000162e-05
1.0000141e-05
1.0000143e-05
1.000014e-05
1.0000123e-05
1.0000126e-05
1.0000164e-05
1.0000206e-05
1.0000211e-05
1.0000108e-05
0.00089019853
0.0013703861
0.00098175425
0.00017426754
1.3511572e-05
1.05484e-05
1.0233238e-05
1.0156197e-05
1.0067076e-05
1.0053788e-05
1.0020315e-05
1.0022654e-05
1.0009069e-05
1.0011092e-05
1.0006511e-05
1.0005663e-05
1.00038e-05
1.0002936e-05
1.000213e-05
1.0001798e-05
1.0001857e-05
1.0001865e-05
1.0001753e-05
1.0001579e-05
1.0001378e-05
1.000117e-05
1.0000968e-05
1.0000776e-05
1.0000606e-05
1.0000465e-05
1.0000378e-05
1.0000353e-05
1.0000368e-05
1.000035e-05
1.0000297e-05
1.0000241e-05
1.0000228e-05
1.0000274e-05
1.000029e-05
1.0000216e-05
1.000016e-05
1.0000139e-05
1.000014e-05
1.0000141e-05
1.0000136e-05
1.0000139e-05
1.0000173e-05
1.0000213e-05
1.0000218e-05
1.0000106e-05
0.00087956532
0.0013146183
0.00087710776
0.00013671221
1.2478967e-05
1.0525829e-05
1.0224734e-05
1.0150078e-05
1.0064327e-05
1.0051613e-05
1.0019558e-05
1.0021842e-05
1.0008996e-05
1.0010767e-05
1.0006429e-05
1.000553e-05
1.000375e-05
1.0002894e-05
1.000212e-05
1.0001791e-05
1.0001844e-05
1.0001849e-05
1.0001735e-05
1.0001562e-05
1.0001363e-05
1.0001159e-05
1.000096e-05
1.0000773e-05
1.0000606e-05
1.0000466e-05
1.0000378e-05
1.0000355e-05
1.000037e-05
1.0000354e-05
1.0000299e-05
1.0000242e-05
1.0000225e-05
1.0000273e-05
1.0000296e-05
1.000022e-05
1.0000158e-05
1.0000137e-05
1.0000136e-05
1.0000142e-05
1.0000148e-05
1.0000149e-05
1.0000183e-05
1.0000221e-05
1.0000224e-05
1.0000105e-05
0.00086926725
0.0012585813
0.00077597769
0.00010627939
1.1826792e-05
1.050422e-05
1.0216327e-05
1.0144028e-05
1.0061611e-05
1.004947e-05
1.0018823e-05
1.0021048e-05
1.0008935e-05
1.001045e-05
1.0006348e-05
1.0005402e-05
1.0003701e-05
1.0002853e-05
1.0002111e-05
1.0001786e-05
1.0001831e-05
1.0001832e-05
1.0001717e-05
1.0001546e-05
1.0001349e-05
1.0001147e-05
1.0000953e-05
1.0000771e-05
1.0000605e-05
1.0000466e-05
1.0000379e-05
1.0000356e-05
1.0000372e-05
1.0000357e-05
1.00003e-05
1.0000243e-05
1.0000221e-05
1.0000267e-05
1.0000302e-05
1.0000225e-05
1.0000155e-05
1.0000136e-05
1.0000132e-05
1.0000141e-05
1.0000157e-05
1.0000157e-05
1.0000193e-05
1.000023e-05
1.0000231e-05
1.0000104e-05
0.00085936252
0.001202
0.00067995115
8.2181244e-05
1.1417396e-05
1.0483561e-05
1.0208013e-05
1.0138044e-05
1.005893e-05
1.0047358e-05
1.0018112e-05
1.0020271e-05
1.0008887e-05
1.0010142e-05
1.0006268e-05
1.0005278e-05
1.0003653e-05
1.0002815e-05
1.0002104e-05
1.0001782e-05
1.0001819e-05
1.0001815e-05
1.0001699e-05
1.0001529e-05
1.0001334e-05
1.0001136e-05
1.0000947e-05
1.0000769e-05
1.0000605e-05
1.0000466e-05
1.000038e-05
1.0000357e-05
1.0000372e-05
1.0000359e-05
1.0000301e-05
1.0000243e-05
1.0000219e-05
1.0000258e-05
1.0000305e-05
1.0000231e-05
1.0000153e-05
1.0000136e-05
1.0000129e-05
1.000014e-05
1.0000161e-05
1.0000162e-05
1.0000204e-05
1.0000239e-05
1.0000237e-05
1.0000103e-05
0.00085000208
0.0011449524
0.00059020648
6.3455879e-05
1.1158367e-05
1.0464401e-05
1.0199788e-05
1.0132125e-05
1.0056286e-05
1.0045282e-05
1.0017425e-05
1.0019514e-05
1.0008853e-05
1.0009844e-05
1.0006187e-05
1.000516e-05
1.0003606e-05
1.0002779e-05
1.0002098e-05
1.0001779e-05
1.0001806e-05
1.0001798e-05
1.0001682e-05
1.0001512e-05
1.0001319e-05
1.0001125e-05
1.0000942e-05
1.0000766e-05
1.0000603e-05
1.0000466e-05
1.000038e-05
1.0000357e-05
1.0000372e-05
1.0000361e-05
1.0000302e-05
1.0000244e-05
1.0000218e-05
1.0000249e-05
1.0000307e-05
1.0000241e-05
1.000015e-05
1.0000137e-05
1.0000127e-05
1.000014e-05
1.0000164e-05
1.0000167e-05
1.0000216e-05
1.0000249e-05
1.0000243e-05
1.0000103e-05
0.0008412145
0.001090099
0.00050769837
4.9244256e-05
1.0991257e-05
1.0446646e-05
1.019167e-05
1.0126289e-05
1.0053685e-05
1.0043248e-05
1.0016766e-05
1.0018779e-05
1.000884e-05
1.0009555e-05
1.0006108e-05
1.0005047e-05
1.0003561e-05
1.0002745e-05
1.0002093e-05
1.0001778e-05
1.0001793e-05
1.0001782e-05
1.0001664e-05
1.0001496e-05
1.0001305e-05
1.0001116e-05
1.0000937e-05
1.0000763e-05
1.0000601e-05
1.0000467e-05
1.000038e-05
1.0000357e-05
1.0000372e-05
1.0000362e-05
1.0000302e-05
1.0000244e-05
1.0000217e-05
1.0000241e-05
1.0000306e-05
1.0000253e-05
1.0000148e-05
1.0000138e-05
1.0000125e-05
1.0000141e-05
1.0000168e-05
1.0000175e-05
1.0000227e-05
1.0000258e-05
1.000025e-05
1.0000103e-05
0.00083238
0.0010324348
0.0004327143
3.8643745e-05
1.0879467e-05
1.0428914e-05
1.018363e-05
1.0120525e-05
1.0051128e-05
1.0041256e-05
1.0016136e-05
1.0018066e-05
1.000883e-05
1.0009276e-05
1.0006029e-05
1.0004939e-05
1.0003516e-05
1.0002714e-05
1.0002089e-05
1.0001778e-05
1.0001781e-05
1.0001765e-05
1.0001647e-05
1.0001479e-05
1.0001291e-05
1.0001108e-05
1.0000932e-05
1.0000758e-05
1.00006e-05
1.0000467e-05
1.0000381e-05
1.0000357e-05
1.0000371e-05
1.0000362e-05
1.0000301e-05
1.0000243e-05
1.0000216e-05
1.0000235e-05
1.0000304e-05
1.0000267e-05
1.0000145e-05
1.0000139e-05
1.0000125e-05
1.0000144e-05
1.0000176e-05
1.000019e-05
1.0000238e-05
1.0000268e-05
1.0000257e-05
1.0000103e-05
0.00082326238
0.00097089689
0.00036595824
3.0885997e-05
1.0801257e-05
1.0411479e-05
1.0175675e-05
1.0114839e-05
1.0048619e-05
1.0039312e-05
1.0015536e-05
1.0017378e-05
1.0008808e-05
1.0009007e-05
1.0005953e-05
1.0004836e-05
1.0003474e-05
1.0002685e-05
1.0002086e-05
1.0001781e-05
1.0001769e-05
1.0001748e-05
1.000163e-05
1.0001462e-05
1.0001279e-05
1.00011e-05
1.0000925e-05
1.0000753e-05
1.0000598e-05
1.0000468e-05
1.0000381e-05
1.0000357e-05
1.000037e-05
1.0000362e-05
1.0000301e-05
1.0000242e-05
1.0000214e-05
1.0000229e-05
1.0000301e-05
1.0000278e-05
1.0000142e-05
1.0000138e-05
1.0000124e-05
1.0000147e-05
1.0000189e-05
1.0000208e-05
1.0000249e-05
1.0000278e-05
1.0000263e-05
1.0000104e-05
0.00081391996
0.00090674933
0.00030767077
2.5293052e-05
1.0743514e-05
1.0394263e-05
1.016781e-05
1.0109242e-05
1.0046163e-05
1.003742e-05
1.0014968e-05
1.0016717e-05
1.0008778e-05
1.0008748e-05
1.0005877e-05
1.0004739e-05
1.0003433e-05
1.0002658e-05
1.0002083e-05
1.0001782e-05
1.0001758e-05
1.000173e-05
1.0001613e-05
1.0001446e-05
1.0001268e-05
1.0001092e-05
1.0000917e-05
1.0000749e-05
1.0000597e-05
1.0000469e-05
1.0000382e-05
1.0000356e-05
1.0000367e-05
1.0000361e-05
1.0000299e-05
1.0000241e-05
1.0000212e-05
1.0000222e-05
1.0000298e-05
1.0000286e-05
1.000014e-05
1.0000138e-05
1.0000124e-05
1.000015e-05
1.00002e-05
1.0000224e-05
1.0000259e-05
1.0000287e-05
1.0000271e-05
1.0000105e-05
0.00080465658
0.00084042011
0.00025772896
2.1328571e-05
1.0697553e-05
1.0377307e-05
1.0160047e-05
1.0103744e-05
1.0043765e-05
1.0035586e-05
1.0014433e-05
1.0016083e-05
1.000874e-05
1.0008497e-05
1.0005801e-05
1.0004647e-05
1.0003393e-05
1.0002633e-05
1.0002081e-05
1.0001784e-05
1.0001747e-05
1.0001713e-05
1.0001596e-05
1.0001432e-05
1.0001259e-05
1.0001083e-05
1.0000908e-05
1.0000744e-05
1.0000595e-05
1.0000469e-05
1.0000383e-05
1.0000355e-05
1.0000365e-05
1.0000359e-05
1.0000297e-05
1.0000239e-05
1.0000208e-05
1.0000215e-05
1.0000295e-05
1.0000293e-05
1.0000137e-05
1.0000137e-05
1.0000125e-05
1.0000153e-05
1.0000206e-05
1.0000238e-05
1.0000269e-05
1.0000297e-05
1.0000278e-05
1.0000106e-05
0.00079494119
0.00077207837
0.00021588306
1.8538302e-05
1.0658424e-05
1.0360618e-05
1.0152391e-05
1.0098349e-05
1.004143e-05
1.0033812e-05
1.0013934e-05
1.0015474e-05
1.0008695e-05
1.0008216e-05
1.0005726e-05
1.000456e-05
1.0003356e-05
1.000261e-05
1.0002079e-05
1.0001787e-05
1.0001736e-05
1.0001697e-05
1.000158e-05
1.000142e-05
1.000125e-05
1.0001072e-05
1.00009e-05
1.0000739e-05
1.0000594e-05
1.000047e-05
1.0000383e-05
1.0000354e-05
1.0000362e-05
1.0000357e-05
1.0000295e-05
1.0000236e-05
1.0000205e-05
1.0000207e-05
1.000029e-05
1.0000296e-05
1.0000135e-05
1.0000136e-05
1.0000126e-05
1.0000158e-05
1.0000209e-05
1.0000252e-05
1.000028e-05
1.0000308e-05
1.0000286e-05
1.0000107e-05
0.00078426431
0.00069879618
0.00018218936
1.6561936e-05
1.0623577e-05
1.0344146e-05
1.0144835e-05
1.0093054e-05
1.0039159e-05
1.00321e-05
1.001347e-05
1.0014893e-05
1.0008644e-05
1.0007975e-05
1.0005651e-05
1.0004478e-05
1.000332e-05
1.0002589e-05
1.0002077e-05
1.0001793e-05
1.0001726e-05
1.0001682e-05
1.0001565e-05
1.000141e-05
1.0001239e-05
1.000106e-05
1.0000891e-05
1.0000734e-05
1.0000592e-05
1.0000471e-05
1.0000384e-05
1.0000352e-05
1.0000359e-05
1.0000355e-05
1.0000293e-05
1.0000233e-05
1.0000202e-05
1.00002e-05
1.0000278e-05
1.0000295e-05
1.0000134e-05
1.0000135e-05
1.0000129e-05
1.0000165e-05
1.0000212e-05
1.0000263e-05
1.0000292e-05
1.0000319e-05
1.0000294e-05
1.0000108e-05
0.0007738015
0.00062627298
0.00015451998
1.5136627e-05
1.0591451e-05
1.0327905e-05
1.0137388e-05
1.0087873e-05
1.0036958e-05
1.0030455e-05
1.0013044e-05
1.001434e-05
1.0008586e-05
1.000777e-05
1.0005577e-05
1.0004402e-05
1.0003286e-05
1.0002569e-05
1.0002075e-05
1.0001796e-05
1.0001716e-05
1.0001668e-05
1.0001553e-05
1.0001401e-05
1.0001227e-05
1.0001048e-05
1.0000882e-05
1.000073e-05
1.0000591e-05
1.0000471e-05
1.0000385e-05
1.0000351e-05
1.0000355e-05
1.0000352e-05
1.000029e-05
1.000023e-05
1.0000199e-05
1.0000197e-05
1.000026e-05
1.0000282e-05
1.0000134e-05
1.0000134e-05
1.0000132e-05
1.0000175e-05
1.0000218e-05
1.0000272e-05
1.0000305e-05
1.0000331e-05
1.0000301e-05
1.0000109e-05
0.00076478118
0.00057610181
0.00013244139
1.4096733e-05
1.0561267e-05
1.0311931e-05
1.0130066e-05
1.0082819e-05
1.0034833e-05
1.0028882e-05
1.0012657e-05
1.0013817e-05
1.0008521e-05
1.000758e-05
1.0005504e-05
1.000433e-05
1.0003253e-05
1.000255e-05
1.0002071e-05
1.00018e-05
1.0001708e-05
1.0001655e-05
1.0001544e-05
1.0001391e-05
1.0001213e-05
1.0001035e-05
1.0000873e-05
1.0000724e-05
1.000059e-05
1.0000472e-05
1.0000385e-05
1.000035e-05
1.0000351e-05
1.0000349e-05
1.0000287e-05
1.0000227e-05
1.0000197e-05
1.0000195e-05
1.000024e-05
1.0000241e-05
1.0000136e-05
1.0000133e-05
1.0000136e-05
1.0000187e-05
1.0000228e-05
1.0000282e-05
1.0000321e-05
1.0000344e-05
1.0000309e-05
1.000011e-05
0.00075638886
0.00052968612
0.00011372946
1.3319157e-05
1.0532462e-05
1.0296208e-05
1.0122869e-05
1.0077896e-05
1.0032788e-05
1.0027384e-05
1.0012309e-05
1.0013324e-05
1.0008453e-05
1.00074e-05
1.0005433e-05
1.0004263e-05
1.0003222e-05
1.0002531e-05
1.0002067e-05
1.0001804e-05
1.0001701e-05
1.0001645e-05
1.0001537e-05
1.000138e-05
1.0001197e-05
1.0001022e-05
1.0000863e-05
1.0000719e-05
1.0000588e-05
1.0000473e-05
1.0000386e-05
1.0000348e-05
1.0000347e-05
1.0000345e-05
1.0000285e-05
1.0000225e-05
1.0000194e-05
1.0000194e-05
1.0000221e-05
1.000021e-05
1.0000137e-05
1.0000132e-05
1.000014e-05
1.0000199e-05
1.0000243e-05
1.0000294e-05
1.0000337e-05
1.0000357e-05
1.0000316e-05
1.0000111e-05
0.00074898174
0.00049050003
9.8154009e-05
1.2733179e-05
1.0504714e-05
1.0280732e-05
1.0115799e-05
1.0073108e-05
1.0030827e-05
1.0025962e-05
1.0012e-05
1.001286e-05
1.000838e-05
1.0007233e-05
1.0005363e-05
1.00042e-05
1.0003191e-05
1.0002513e-05
1.0002062e-05
1.0001807e-05
1.0001695e-05
1.0001638e-05
1.000153e-05
1.0001365e-05
1.0001182e-05
1.0001009e-05
1.0000854e-05
1.0000714e-05
1.0000587e-05
1.0000474e-05
1.0000387e-05
1.0000346e-05
1.0000342e-05
1.000034e-05
1.0000282e-05
1.0000222e-05
1.0000191e-05
1.0000191e-05
1.0000206e-05
1.0000194e-05
1.0000139e-05
1.0000131e-05
1.0000145e-05
1.0000209e-05
1.000026e-05
1.0000308e-05
1.0000355e-05
1.000037e-05
1.0000324e-05
1.0000111e-05
0.00074275522
0.00045715672
8.4958733e-05
1.2284359e-05
1.0477785e-05
1.0265501e-05
1.0108862e-05
1.0068464e-05
1.0028954e-05
1.002462e-05
1.0011732e-05
1.0012426e-05
1.0008305e-05
1.0007077e-05
1.0005296e-05
1.0004141e-05
1.0003161e-05
1.0002494e-05
1.0002056e-05
1.000181e-05
1.0001693e-05
1.0001634e-05
1.0001522e-05
1.000135e-05
1.0001166e-05
1.0000996e-05
1.0000844e-05
1.0000709e-05
1.0000585e-05
1.0000476e-05
1.0000389e-05
1.0000343e-05
1.0000337e-05
1.0000336e-05
1.0000281e-05
1.000022e-05
1.0000188e-05
1.0000188e-05
1.0000193e-05
1.000018e-05
1.0000139e-05
1.000013e-05
1.000015e-05
1.0000218e-05
1.0000277e-05
1.0000325e-05
1.0000373e-05
1.0000384e-05
1.0000331e-05
1.0000112e-05
0.00073791912
0.0004296314
7.3689177e-05
1.1936624e-05
1.0451585e-05
1.025055e-05
1.0102077e-05
1.0063978e-05
1.0027175e-05
1.0023363e-05
1.0011505e-05
1.0012021e-05
1.0008228e-05
1.0006932e-05
1.000523e-05
1.0004085e-05
1.000313e-05
1.0002475e-05
1.000205e-05
1.0001811e-05
1.0001693e-05
1.0001632e-05
1.0001511e-05
1.0001333e-05
1.000115e-05
1.0000982e-05
1.0000834e-05
1.0000703e-05
1.0000584e-05
1.0000477e-05
1.000039e-05
1.0000341e-05
1.0000331e-05
1.0000331e-05
1.0000279e-05
1.0000218e-05
1.0000185e-05
1.0000185e-05
1.0000177e-05
1.0000159e-05
1.0000138e-05
1.000013e-05
1.0000155e-05
1.0000224e-05
1.0000293e-05
1.0000342e-05
1.0000388e-05
1.0000398e-05
1.0000337e-05
1.0000113e-05
0.00073447977
0.00040789023
6.391408e-05
1.1663926e-05
1.042603e-05
1.0235884e-05
1.0095449e-05
1.0059657e-05
1.0025494e-05
1.0022206e-05
1.0011317e-05
1.0011644e-05
1.0008152e-05
1.0006798e-05
1.0005166e-05
1.0004031e-05
1.0003099e-05
1.0002456e-05
1.0002041e-05
1.000181e-05
1.0001695e-05
1.0001631e-05
1.0001497e-05
1.0001316e-05
1.0001133e-05
1.0000967e-05
1.0000823e-05
1.0000697e-05
1.0000583e-05
1.0000478e-05
1.0000392e-05
1.000034e-05
1.0000326e-05
1.0000327e-05
1.0000278e-05
1.0000217e-05
1.0000182e-05
1.0000182e-05
1.0000163e-05
1.0000135e-05
1.0000135e-05
1.000013e-05
1.0000158e-05
1.0000228e-05
1.0000306e-05
1.0000355e-05
1.0000398e-05
1.0000413e-05
1.0000343e-05
1.0000113e-05
0.00073204349
0.00039183029
5.5283047e-05
1.1448165e-05
1.0401088e-05
1.0221517e-05
1.0088993e-05
1.0055512e-05
1.0023916e-05
1.0021137e-05
1.0011171e-05
1.0011295e-05
1.0008073e-05
1.0006673e-05
1.0005103e-05
1.0003978e-05
1.0003067e-05