/*--------------------------------*- C++ -*----------------------------------*\
  =========                 |
  \\      /  F ield         | OpenFOAM: The Open Source CFD Toolbox
   \\    /   O peration     | Website:  https://openfoam.org
    \\  /    A nd           | Version:  8
     \\/     M anipulation  |
\*---------------------------------------------------------------------------*/
FoamFile
{
    version     2.0;
    format      ascii;
    class       volScalarField;
    location    "0.0699881";
    object      p;
}
// * * * * * * * * * * * * * * * * * * * * * * * * * * * * * * * * * * * * * //

dimensions      [1 -1 -2 0 0 0 0];

internalField   nonuniform List<scalar> 
20000
(
82786.138
82802.434
82817.889
82840.139
82873.877
82911.505
82966.313
83026.006
83099.211
83192.788
83292.305
83430.121
83570.588
83765.936
83967.813
84238.854
84529.817
84902.49
85316.065
85820.668
86387.256
87051.678
87809.557
88707.01
89707.6
90813.284
91984.088
93200.5
94415.054
95580.805
96653.022
97600.382
98404.725
99063.456
99583.991
99979.532
100264.17
100477.53
100634.62
100723.76
100756.52
100764.43
100753.08
100691.3
100611.73
100420.37
100229.14
100130.39
100095.56
100104.23
82522.039
82538.516
82554.893
82578.148
82614.028
82654.056
82712.498
82775.645
82851.759
82949.375
83051.888
83194.621
83338.727
83540.416
83747.9
84027.783
84327.848
84711.847
85136.222
85651.609
86231.303
86918.873
87720.759
88663.411
89696.822
90818.908
92016.898
93256.033
94486.583
95659.347
96730.302
97670.077
98463.509
99110.546
99620.456
100005.98
100283.63
100500.56
100651.4
100731.6
100762.57
100770.33
100755.67
100697.3
100607.5
100391.11
100219.19
100132.52
100102.13
100105.02
82287.72
82304.451
82321.531
82345.384
82382.695
82423.619
82483.644
82548.63
82626.058
82726.639
82831.24
82978.515
83126.136
83334.382
83547.873
83836.723
84145.347
84539.157
84973.23
85500.904
86102.025
86831.745
87679.636
88649.285
89700.012
90852.92
92078.976
93340.484
94584.725
95761.368
96827.475
97756.067
98535.215
99167.637
99664.307
100037.77
100308.38
100526.11
100668.46
100741.39
100769.7
100776.92
100758.99
100701.01
100596.13
100365.45
100211.26
100134.73
100107.4
100105.93
82068.479
82085.617
82103.465
82128.134
82167.389
82209.657
82271.228
82338.712
82418.139
82522.453
82629.837
82782.387
82934.048
83149.4
83369.123
83666.546
83982.459
84385.061
84831.367
85380.021
86021.905
86792.134
87666.344
88648.602
89733.227
90918.794
92173.79
93456.25
94711.507
95888.489
96945.816
97859.353
98620.657
99235.385
99716.005
100075.43
100339.32
100553.08
100685.74
100752.01
100777.36
100783.77
100763.19
100702.72
100576.65
100346.02
100205.55
100136.68
100110.69
100106.82
81870.381
81888.059
81906.77
81932.332
81973.378
82017.09
82080.434
82150.515
82232.009
82340.3
82450.616
82608.743
82764.596
82987.09
83212.656
83517.939
83841.17
84255.365
84722.599
85310.567
85986.486
86779.731
87668.14
88679.99
89799.228
91018.421
92301.495
93603.05
94866.189
96039.64
97084.082
97978.662
98718.668
99312.76
99774.662
100118.38
100375.92
100580.97
100703.52
100763.07
100785.41
100791.04
100768.57
100703.41
100552.02
100330.37
100200.89
100137.71
100113.13
100107.63
81693.366
81711.693
81731.412
81758.115
81801.228
81846.694
81911.934
81984.921
82068.657
82181.205
82294.557
82458.492
82618.71
82848.216
83079.289
83393.529
83728.9
84167.882
84667.729
85281.464
85975.887
86783.313
87700.794
88744.996
89900.343
91152.98
92463.1
93781.293
95048.737
96214.455
97241.722
98113.396
98828.706
99399.299
99839.88
100166.33
100417.13
100610.09
100721.78
100774.63
100793.8
100798.61
100775.05
100703.57
100525.83
100316.82
100196.88
100138.18
100114.81
100108.34
81543.319
81562.257
81582.874
81610.615
81655.495
81702.499
81769.31
81845.014
81930.751
82047.438
82163.389
82332.926
82497.764
82734.936
82973.22
83302.827
83662.541
84126.883
84646.788
85273.625
85982.833
86817.35
87766.603
88846.016
90037.638
91323.371
92658.856
93990.72
95258.446
96411.941
97417.635
98262.487
98949.841
99494.202
99911.024
100218.9
100461.97
100640.63
100741.16
100786.94
100802.6
100806.43
100782.17
100702.71
100500.14
100304.45
100193.21
100138.39
100116.04
100108.92
81419.928
81439.654
81461.204
81490.171
81537.04
81585.75
81654.165
81732.728
81820.414
81941.231
82059.707
82235.174
82405.277
82654.058
82908.175
83257.68
83633.975
84113.254
84642.466
85284.974
86019.445
86883.787
87867.608
88983.59
90212.065
91530.142
92888.886
94230.917
95494.483
96631.02
97610.672
98424.857
99081.136
99596.65
99987.511
100275.9
100509.63
100672.47
100761.65
100800.24
100812.09
100814.38
100788.94
100698.78
100476.06
100293.23
100189.86
100138.48
100116.85
100109.38
81324.295
81345.013
81367.597
81397.979
81447.014
81497.757
81568.168
81649.793
81739.586
81864.613
81987.115
82171.742
82350.761
82613.445
82879.146
83241.124
83625.478
84112.77
84659.488
85325.166
86087.788
86984.693
88004.793
89158.768
90424.268
91773.574
93152.9
94501.075
95755.653
96870.312
97819.446
98599.241
99221.495
99705.663
100068.7
100337.41
100559.29
100705.16
100782.55
100814.27
100822.75
100822.42
100793.59
100690.72
100454.22
100283.19
100186.84
100138.52
100117.43
100109.73
81251.975
81273.805
81297.572
81329.504
81380.845
81433.607
81506.115
81591.422
81684.973
81817.474
81946.525
82140.86
82326.336
82598.325
82869.817
83238.112
83632.474
84136.859
84704.778
85396.247
86189.607
87120.955
88179.137
89372.149
90674.658
92053.626
93450.327
94800.118
96040.551
97128.285
98042.463
98784.295
99369.736
99820.191
100153.96
100403.65
100610.04
100738.27
100803.57
100828.77
100834.85
100830.66
100795.82
100677.82
100434.96
100274.36
100184.15
100138.52
100117.91
100109.95
81200.321
81223.148
81247.939
81281.301
81335.157
81390.489
81466.21
81556.831
81654.783
81794.689
81928.065
82129.773
82318.257
82595.331
82873.056
83254.104
83664.31
84188.474
84780.401
85499.858
86325.933
87293.663
88391.442
89624.328
90963.404
92369.942
93780.22
95126.626
96347.491
97403.186
98278.058
98978.536
99524.554
99939.124
100242.71
100474.43
100661.12
100771.4
100824.62
100843.74
100847.9
100839.73
100796.81
100660.09
100418.24
100266.62
100181.76
100138.43
100118.23
100110.07
81167.541
81191.741
81218.158
81253.572
81310.481
81368.819
81447.139
81541.726
81641.808
81785.908
81921.266
82128.222
82321.534
82609.186
82898.555
83295.421
83723.862
84269.922
84887.732
85636.976
86497.703
87503.547
88642.317
89915.616
91290.414
92721.876
94141.374
95478.966
96674.627
97693.136
98524.463
99180.4
99684.579
100061.42
100334.5
100548.51
100712.35
100804.27
100845.71
100859.22
100861.49
100850.04
100797.19
100638.42
100403.54
100259.76
100179.68
100138.4
100118.51
100110.07
81153.599
81178.936
81206.522
81243.094
81302.032
81361.918
81441.032
81537.996
81639.081
81788.125
81927.131
82143.119
82346.169
82647.733
82950.761
83364.93
83813.054
84382.308
85027.731
85808.516
86705.693
87751.3
88932.227
90246.15
91655.308
93108.438
94532.235
95855.205
97019.851
97996.028
98779.743
99388.219
99848.402
100186.17
100429.23
100624.45
100763.26
100836.62
100866.85
100875.32
100875.13
100861.37
100797.26
100614.78
100389.64
100253.57
100177.96
100138.49
100118.83
100110
81151.5
81178.189
81207.257
81245.479
81307.401
81369.977
81451.877
81554.092
81658.979
81816.09
81959.979
82186.614
82399.135
82714.669
83031.783
83463.824
83932.7
84526.466
85201.087
86015.093
86950.468
88037.379
89261.435
90615.851
92057.466
93528.407
94951.047
96253.243
97380.89
98309.608
99041.892
99600.329
100014.7
100312.72
100526.99
100700.52
100813.24
100868.31
100888.16
100892.15
100888.32
100873.05
100795.55
100590.22
100376.12
100247.93
100176.69
100138.94
100119.28
100109.82
81172.796
81201.204
81232.279
81272.504
81337.402
81402.96
81488.212
81596.29
81705.805
81871.247
82021.642
82259.608
82480.7
82809.918
83141.645
83592.347
84083.251
84702.837
85408.309
86257.217
87232.501
88362.135
89630.068
91024.381
92495.972
93980.196
95395.706
96670.642
97755.155
98631.404
99308.85
99815.114
100182.31
100440.61
100627.53
100774.89
100861.68
100899.46
100910.23
100909.09
100900.9
100883.58
100791.16
100565.45
100362.96
100242.81
100176.07
100139.86
100119.99
100109.53
81222.004
81252.032
81285.034
81327.085
81394.982
81463.679
81552.073
81665.827
81779.295
81953.053
82109.485
82358.407
82589.121
82932.852
83280.236
83750.646
84264.93
84911.736
85649.713
86535.216
87552.09
88725.775
90038.079
91471.252
92969.702
94462.05
95863.938
97104.763
98139.891
98958.979
99578.736
100031.14
100350.31
100569.47
100729.1
100846.46
100908.37
100930.56
100933.23
100925.65
100912.88
100890.08
100783.29
100541.01
100350.26
100238.09
100175.82
100141.22
100121.12
100109.12
81293.271
81325.213
81360.582
81404.898
81476.314
81548.836
81640.418
81760.14
81877.189
82059.758
82222.235
82483.06
82724.259
83083.411
83447.605
83938.793
84477.888
85153.368
85925.55
86849.373
87909.48
89128.422
90485.255
91955.713
93477.203
94971.855
96353.077
97552.575
98532.177
99290.084
99849.95
100247.15
100517.87
100698.78
100828.99
100914.73
100953.65
100962.59
100956.19
100941.92
100924.64
100893.16
100771.07
100517.39
100338.12
100233.67
100175.73
100142.78
100122.71
100108.55
81387.982
81421.775
81459.466
81505.914
81580.691
81656.931
81751.628
81877.824
81998.884
82190.982
82360.166
82633.597
82886.182
83261.613
83643.77
84156.84
84722.192
85427.831
86235.961
87199.875
88304.847
89570.112
90971.285
92476.876
94016.875
95507.308
96860.217
98010.907
98929.351
99623.053
100121.27
100461.91
100684.04
100827.33
100924.74
100979.73
100998.81
100994.88
100978.57
100958.05
100936.92
100894.42
100753.53
100495.04
100326.53
100229.43
100175.74
100144.58
100124.1
100107.81
81504.135
81539.97
81580.246
81629.086
81707.119
81787.653
81885.654
82019.193
82144.683
82347.166
82523.52
82810.194
83074.922
83467.393
83868.658
84404.705
84997.827
85735.199
86581.105
87586.928
88738.361
90050.796
91495.672
93033.545
94586.73
96065.626
97382.002
98476.505
99329.278
99956.749
100391.47
100673.98
100847.45
100952.64
101015.41
101042.51
101044.34
101026.28
101000.08
100974.13
100950.51
100894.79
100730.26
100474.16
100315.4
100225.36
100176
100147.16
100124.82
100106.91
81641.766
81679.911
81723.145
81774.708
81856.245
81942.004
82043.295
82184.728
82314.75
82528.062
82712.04
83012.543
83290.199
83700.49
84122.068
84682.283
85304.755
86075.534
86961.136
88010.754
89210.186
90570.404
92057.842
93624.408
95184.583
96643.781
97914.985
98946.676
99730.726
100290.1
100658.62
100881.4
101006.39
101072.31
101101.66
101104.9
101088.63
101056.45
101020.47
100990.03
100965.56
100894.66
100702.33
100454.22
100304.6
100221.56
100176.69
100150.42
100125.19
100105.87
81802.583
81843.032
81889.213
81943.499
82028.463
82119.719
82224.255
82374.006
82508.688
82733.273
82925.252
83240.155
83531.635
83960.599
84403.8
84989.443
85642.971
86448.983
87376.31
88471.639
89720.485
91128.739
92656.972
94247.758
95807.726
97238.24
98455.694
99419.565
100132.87
100620.58
100919.24
101081.99
101159.2
101186.46
101185.77
101165.39
101131.2
101085.15
101039.53
101005.39
100980.59
100891.91
100671.73
100434.55
100294.21
100218.06
100177.85
100154.23
100125.38
100104.7
81983.445
82026.571
82076.149
82133.673
82222.233
82319.658
82427.287
82586.007
82725.43
82961.926
83162.493
83492.551
83798.894
84247.469
84713.682
85326.152
86012.581
86855.796
87826.979
88969.935
90269.457
91725.593
93292.157
94901.69
96453.192
97845.398
99001.361
99894.347
100533.9
100943.62
101170.43
101274.23
101305.73
101297.29
101266.45
101223.3
101171.75
101112.2
101057.24
101019.76
100991.86
100885.98
100639.92
100415.52
100284.7
100214.89
100179.34
100158.39
100125.48
100103.4
82187.59
82233.076
82285.678
82346.089
82437.758
82541.06
82651.808
82819.84
82964.414
83213.527
83423.485
83769.462
84091.764
84560.905
85051.646
85692.491
86413.844
87296.4
88313.608
89506.061
90857.229
92360.582
93962.087
95583.768
97117.418
98461.59
99550.126
100370.01
100928.68
101255.45
101410.07
101458.94
101447.6
101403.06
101343.35
101278.28
101210.03
101137.3
101073.87
101033.05
100997.34
100875.95
100608.3
100397.82
100276.81
100213.2
100180.87
100162.31
100125.54
100102
82407.637
82456.138
82512.618
82576.989
82672.255
82782.477
82896.642
83075.359
83225.444
83488.051
83708.045
84070.67
84410.029
84900.812
85417.777
86088.767
86847.22
87771.352
88836.773
90080.483
91483.976
93033.251
94665.303
96291.242
97796.762
99083.859
100101.23
100842.9
101311.89
101552.99
101639.19
101637.82
101582.83
101503.41
101416.09
101330.17
101245.83
101160.1
101089.88
101045.87
100999.63
100860.67
100578.33
100382.05
100270.64
100212.46
100182
100164.62
100125.59
100100.52
82649.969
82701.45
82761.777
82830.058
82928.279
83045.79
83163.215
83352.702
83508.662
83785.129
84015.887
84395.842
84753.599
85267.323
85812.441
86515.509
87313.351
88281.341
89397.124
90693.652
92149.732
93742.804
95399.773
97020.716
98487.417
99710.074
100653.54
101306.39
101678.8
101835.73
101861.4
101808.19
101710.93
101597.96
101484.48
101378.85
101278.94
101180.41
101105.54
101059.33
101000.37
100838.79
100551.28
100368.35
100265.82
100212.16
100182.85
100165.78
100125.62
100098.97
82911.142
82965.692
83029.817
83102.157
83203.239
83329.174
83450.127
83650.939
83813.172
84104.244
84346.688
84744.981
85122.765
85660.952
86236.283
86973.453
87813.001
88827.162
89995.383
91346.093
92854.519
94488.299
96163.154
97768.629
99186.156
100339.24
101202.36
101754.56
102026.58
102108.11
102074.01
101969.41
101831.43
101686.53
101548.4
101424.18
101309.11
101198.25
101120.86
101074.08
101000.5
100809.74
100527.69
100356.39
100261.89
100212.11
100184.16
100166.34
100125.64
100097.36
83189.332
83247.512
83315.935
83393.107
83497.465
83632.043
83756.914
83969.995
84138.853
84445.42
84700.761
85118.644
85518.267
86082.489
86690.09
87463.417
88347.023
89409.685
90632.298
92038.253
93598.08
95268.246
96952.369
98531.091
99890.303
100970.19
101739.99
102182.33
102357.51
102370.42
102275.24
102120.92
101944.12
101768.99
101607.76
101465.95
101336.01
101214.19
101135.19
101088.79
100997.29
100776.13
100505.6
100345.5
100258.76
100213.22
100187.2
100166.59
100125.65
100095.7
83487.535
83549.335
83621.755
83703.754
83811.407
83954.889
84083.664
84309.513
84486.119
84809.276
85079.073
85517.792
85941.016
86532.748
87174.663
87986.275
88916.36
90029.852
91308.685
92770.582
94380.034
96080.818
97764.07
99304.581
100598.27
101598.38
102259.45
102586.58
102676.73
102619.51
102464.38
102262.48
102048.83
101845.29
101662.47
101503.86
101359.38
101229.17
101147.6
101099.22
100990.3
100740.03
100484.19
100335.42
100256.27
100215.27
100191.85
100166.71
100125.32
100094.01
83802.2
83868.134
83944.73
84032.195
84143.58
84297.298
84430.673
84670.88
84856.237
85197.299
85482.799
85943.317
86391.726
87012.444
87690.824
88543.019
89522.067
90688.675
92025.345
93543.347
95199.505
96923.45
98594.392
100085.87
101308.8
102215.48
102755.13
102970.84
102982.77
102854.01
102641.01
102393.87
102145.52
101915.44
101712.4
101537.58
101379.5
101243.29
101158.19
101104.26
100979.28
100703.11
100463.76
100326.31
100254.11
100217.54
100196.98
100166.76
100124.56
100092.28
84134.885
84205.723
84287.101
84381.07
84496.592
84662.019
84800.671
85056.222
85250.833
85610.301
85912.482
86395.596
86870.915
87522.326
88239.54
89134.79
90165.302
91387.244
92783.098
94356.718
96055.271
97793.198
99439.65
100872.62
102018.7
102812.84
103223.19
103340.73
103272.15
103073.27
102804.93
102515.06
102234.23
101979.46
101757.4
101567.05
101396.81
101256.17
101168.37
101106.3
100963.59
100667.15
100445.07
100318.67
100252.62
100219.15
100199.91
100166.8
100123.43
100090.53
84488.041
84564.853
84652.275
84754.373
84873.496
85050.918
85194.638
85465.595
85669.723
86047.939
86368.088
86874.988
87379.322
88063.422
88822.026
89762.854
90847.305
92126.653
93582.684
95210.435
96945.405
98686.387
100296.25
101663.02
102719.52
103384.12
103666.88
103694.56
103543.43
103276.97
102956.08
102626.11
102315.07
102037.33
101797.39
101592.74
101412.44
101268.22
101178.63
101106.91
100941.88
100634.22
100428.84
100312.79
100251.98
100220.03
100201.35
100166.82
100122.02
100088.75
84865.349
84947.414
85039.843
85150.815
85272.155
85461.55
85610.523
85897.302
86112.144
86510.183
86850.203
87382.457
87918.131
88637.061
89439.605
90428.576
91569.38
92908.076
94424.78
96103.992
97867.511
99599.326
101161.16
102455.19
103401.23
103924.27
104092.05
104028.65
103796.04
103464.98
103094.52
102727.2
102388.15
102089.01
101832.5
101615.73
101427.72
101279.54
101187.8
101105.94
100913.16
100605.94
100415.29
100308.47
100251.82
100220.58
100202.02
100166.62
100120.4
100086.97
85263.858
85350.422
85445.714
85565.494
85690.235
85892.669
86047.912
86351.794
86578.993
86998.379
87360.252
87919.408
88488.717
89244.621
90093.69
91133.396
92332.895
93732.654
95309.789
97036.181
98818.405
100528.13
102031.63
103242.05
104055.97
104434.62
104498.52
104340.99
104029.69
103637.33
103220.48
102818.55
102453.56
102134.51
101863.29
101637.17
101442.4
101289.15
101192.48
101100.84
100878.78
100581.97
100403.93
100305.28
100252.23
100221.51
100202.31
100165.86
100118.63
100085.2
85680.153
85772.7
85871.13
86000.429
86129.539
86346.532
86509.06
86831.638
87072.246
87514.155
87899.668
88487.15
89092.388
89887.508
90785.748
91878.816
93139.295
94601.53
96237.871
98005.317
99794.597
101469.38
102905.61
104013.41
104677.27
104920.69
104882.64
104630.93
104244.33
103794.26
103334.28
102900.39
102511.35
102174.08
101890.71
101657.09
101452.33
101294.81
101194.51
101091.43
100842.08
100560.34
100394.04
100302.42
100252.58
100223.47
100202.44
100164.5
100116.73
100083.46
86116.537
86217.02
86320.219
86460.064
86593.453
86825.693
86996.099
87338.181
87593.238
88058.478
88469.524
89086.858
89730.458
90567.208
91517.342
92666.444
93990.068
95515.674
97208.583
99008.82
100792.11
102419.63
103779.18
104758.51
105262.59
105385.56
105241.15
104898.19
104440.12
103936.1
103436.25
102972.87
102561.63
102208.46
101915.74
101672.83
101457.05
101297.51
101195.21
101077.92
100804.94
100540.29
100385.19
100299.69
100252.73
100225.54
100202.5
100162.6
100114.73
100081.77
86577.847
86686.267
86793.52
86944.729
87082.445
87330.558
87509.46
87871.522
88142.572
88632.166
89070.907
89719.823
90404.385
91285.357
92290.192
93498.03
94886.799
96475.911
98221.002
100043.62
101807.19
103375.91
104642.56
105469.81
105816.31
105825.86
105573.29
105142.8
104617.44
104063.34
103526.7
103036.06
102604.83
102238.85
101938.46
101680.84
101458.89
101298.62
101195.41
101060.71
100768.59
100521.66
100377.25
100297.27
100252.79
100226.58
100202.53
100160.27
100112.66
100080.13
87062.04
87179.006
87290.409
87454.182
87596.541
87861.216
88049.283
88432.438
88721.079
89236.415
89705.152
90387.544
91115.812
92043.785
93106.209
94375.489
95831.053
97482.628
99273.346
101105.86
102835.9
104335.06
105483.5
106140.5
106345.48
106236.83
105878.7
105365.01
104776.8
104176.42
103605.82
103090.21
102641.95
102266.47
101956.42
101684.2
101459.5
101299.04
101194.12
101039.96
100734.16
100504.62
100370.2
100295.13
100252.69
100227.07
100202.38
100157.59
100110.55
100078.55
87568.567
87695.033
87810.859
87987.614
88135.557
88418.146
88616.432
89022.288
89330.122
89872.599
90373.738
91091.682
91866.572
92844.529
93967.501
95300.856
96824.313
98535.749
100363.23
102191.66
103874.39
105290.41
106291.47
106772.81
106847.65
106617.13
106157.46
105565.36
104918.8
104275.69
103673.85
103136.18
102674.56
102291.19
101965.69
101685.34
101459.54
101299.14
101190.07
101015.55
100702.83
100489.44
100364
100293.11
100252.27
100227.28
100201.66
100154.69
100108.4
100077.04
88099.042
88236.006
88356.505
88547.149
88701.403
89003.236
89212.616
89642.465
89971.162
90542.064
91078.272
91834.124
92658.783
93689.904
94876.384
96276.232
97867.696
99634.34
101487.26
103296.89
104918.82
106229.88
107057.9
107372.6
107318.26
106966.26
106409.9
105744.47
105043.95
104361.45
103731.46
103175.69
102703.99
102309.62
101969.61
101685.55
101458.18
101298.23
101182.49
100987.17
100675.64
100476.27
100358.5
100291.13
100251.72
100227.37
100200.33
100151.64
100106.26
100075.6
88655.898
88803.933
88929.68
89134.812
89295.517
89617.689
89838.877
90293.714
90645.482
91246.403
91820.711
92617.168
93494.916
94582.473
95835.364
97303.695
98961.943
100776.71
102641.58
104417.4
105965.33
107140.05
107778.98
107942.99
107753.68
107284.3
106636.64
105903.06
105152.71
104434.25
103780.18
103210.79
102729.49
102319.02
101970.96
101684.01
101455.43
101295.76
101170.98
100955.17
100653.04
100464.96
100353.54
100289.11
100251.04
100227.41
100198.37
100148.52
100104.14
100074.26
89238.763
89398.833
89530.008
89750.467
89917.823
90261.882
90496.022
90977.545
91354.935
91987.85
92603.529
93443.521
94377.745
95525.074
96847.096
98385.132
100107.03
101960.14
103821.75
105548.23
107003.72
108010.13
108458.36
108479.85
108153.14
107571.59
106838.43
106041.78
105245.62
104495.43
103822.24
103241.83
102745.58
102322.88
101971.11
101680.43
101451.33
101291.42
101155.6
100922.18
100633.39
100454.97
100348.96
100287.08
100250.28
100227.42
100195.85
100145.37
100102.06
100072.99
89847.553
90020.507
90157.339
90394.515
90569.237
90937.496
91186.293
91696.394
92102.197
92769.096
93429.545
94316.181
95310.312
96520.719
97914.254
99522.087
101302.16
103181.21
105023.39
106684.63
108019.81
108830.87
109103.95
108977.62
108516.59
107828.86
107016.13
106161.3
105323.87
104547.38
103859.28
103264.51
102753.23
102324.23
101968.92
101674.9
101445.94
101284.98
101136.81
100889.95
100615.37
100445.84
100344.69
100285.13
100249.38
100227.12
100192.8
100142.22
100100.04
100071.83
90480.6
90669.025
90813.786
91070.4
91253.258
91647.755
91912.525
92453.083
92890.066
93593.024
94301.81
95238.415
96295.898
97572.615
99039.414
100715.43
102545.4
104435.51
106241.44
107820.55
108998.19
109602.34
109713.4
109434.35
108844.34
108056.96
107170.55
106262.57
105389.6
104592.53
103889.51
103276.14
102756.14
102324.01
101964.2
101667.6
101439.26
101276.3
101115.24
100859.13
100598.39
100437.18
100340.63
100283.31
100248.41
100226.27
100189.32
100139.1
100098.08
100070.76
91150.172
91353.882
91504.847
91782.198
91973.089
92395.333
92677.263
93249.476
93721.422
94462.855
95223.736
96213.793
97338.021
98684.031
100224.86
101965.21
103833.84
105718.38
107470.14
108942.16
109927.88
110330.14
110281.5
109849.69
109137.15
108256.91
107302.69
106347.35
105445.55
104630.54
103906.24
103280.79
102756.95
102320.91
101957.05
101658.69
101431.25
101265.33
101091.52
100829.96
100582.24
100428.77
100336.51
100281.43
100247.73
100224.79
100185.54
100135.99
100096.21
100069.78
91848.729
92070.309
92228.378
92529.439
92729.479
93181.689
93483.319
94089.345
94599.734
95382.335
96199.098
97246.195
98440.485
99858.245
101472.34
103270.32
105163.39
107024.38
108703.07
110032.99
110801.63
111018.85
110803.16
110223.84
109395.97
108429.75
107414
106418.4
105493.11
104654.9
103913.57
103282.43
102755.18
102314.99
101947.69
101648.34
101421.89
101252.1
101066.2
100802.4
100566.85
100420.6
100332.4
100279.52
100247.08
100222.7
100181.49
100132.91
100094.44
100068.92
92584.872
92825.535
92990.171
93316.929
93526.378
94010.397
94334.971
94976.17
95528.911
96355.441
97232.012
98339.837
99607.142
101098.24
102782.74
104628.48
106529.08
108347.18
109930.26
111077.45
111621.98
111663.57
111277.56
110557.54
109621.97
108576.8
107506.79
106478.62
105528.93
104666.83
103916.3
103281.42
102750.23
102306.39
101936.34
101636.67
101411.13
101236.71
101039.77
100776.4
100552.26
100412.79
100328.38
100277.54
100246.26
100220.04
100177.2
100129.85
100092.78
100068.16
93357.272
93619.438
93790.883
94146.497
94366.527
94884.982
95235.391
95913.937
96513.134
97386.71
98327.032
99499.198
100841.94
102406.54
104155.78
106036.01
107925.16
109679.14
111134.34
112062.92
112396.8
112257.48
111704.63
110851.81
109816.51
108700.03
107584.05
106528.14
105548.57
104671.58
103915.97
103276.73
102742.23
102295.35
101923.2
101623.79
101398.94
101219.31
101012.67
100751.98
100538.54
100405.39
100324.46
100275.45
100245.17
100216.87
100172.74
100126.85
100091.23
100067.5
94170.478
94456.877
94635.354
95023.137
95254.814
95809.807
96189.229
96907.015
97557.153
98481.106
99489.03
100728.84
102148.52
103784.79
105589.82
107487.99
109345.01
111011.84
112296.47
112987.04
113124.12
112797.84
112085.04
111108.01
109981.37
108802.4
107648.41
106560.25
105557.02
104672.32
103911.23
103268.55
102731.44
102282.1
101908.47
101609.78
101385.31
101200.11
100985.31
100729.22
100525.75
100398.41
100320.58
100273.15
100243.72
100213.21
100168.26
100123.94
100089.82
100066.96
95030.303
95343.228
95527.955
95950.883
96195.15
96788.705
97201.221
97960.371
98666.266
99644.078
100723.05
102033.3
103530.07
105233.48
107081.65
108978.16
110780
112329.44
113400.4
113854.66
113797.24
113284.1
112419.81
111327.79
110118.98
108887.29
107699.18
106576.39
105559.77
104668.09
103902.35
103257.15
102718.11
102266.85
101892.34
101594.7
101370.23
101179.33
100958.1
100708.25
100513.92
100391.83
100316.69
100270.58
100241.86
100209.14
100163.84
100121.16
100088.53
100066.53
95938.097
96280.808
96471.352
96933.24
97192.02
97826.67
98276.949
99080.02
99846.413
100881.32
102034.16
103416.82
104988.97
106751.66
108626.56
110499.4
112220.42
113611.63
114435.81
114670.69
114409.99
113716.73
112710.52
111513.37
110232.69
108956.59
107729.13
106583.02
105557.22
104658.89
103889.69
103242.89
102702.52
102249.84
101874.97
101578.61
101353.75
101157.23
100931.39
100689.04
100503.04
100385.61
100312.76
100267.71
100239.56
100204.74
100159.48
100118.53
100087.36
100066.21
96897.933
97274.866
97471.233
97976.361
98252.282
98930.313
99423.14
100272.22
101103.39
102198.32
103427.23
104883.26
106526.52
108336.64
110218.01
112042.54
113653.11
114837.13
115404.11
115428.25
114961.21
114096.76
112959.14
111667.67
110326.04
109007.33
107743.04
106583.67
105548.69
104645.13
103873.67
103226.08
102684.92
102231.27
101856.5
101561.55
101335.9
101134.09
100905.47
100671.33
100493.08
100379.71
100308.86
100264.66
100236.78
100200.1
100155.21
100116.03
100086.33
100066.01
97918.286
98333.652
98534.829
99086.797
99382.805
100106.25
100646.51
101542.81
102442.48
103600.52
104907.15
106435.78
108142.5
109983.78
111847.97
113595.93
115055.51
115989.47
116314.15
116118.69
115450.96
114425.9
113168.34
111794.42
110400.89
109036.39
107748.22
106577.31
105534.67
104627.36
103854.72
103207.04
102665.54
102211.33
101837.07
101543.55
101316.76
101110.19
100880.54
100654.83
100483.96
100373.99
100304.93
100261.7
100233.52
100195.32
100151.07
100113.67
100085.42
100065.96
99005.018
99463.3
99667.626
100269.23
100589.14
101359.82
101952.64
102897.3
103869.23
105093.88
106478.94
108076.76
109834.74
111686.18
113506.17
115145.55
116403.25
117066.39
117159.67
116739.27
115880.21
114706.43
113341.56
111897.45
110453.01
109049.84
107746.09
106564.34
105515.78
104606.08
103833.23
103186.06
102644.61
102190.21
101816.79
101524.63
101296.41
101085.8
100856.77
100639.49
100475.51
100368.48
100301.06
100258.74
100229.75
100190.42
100147.06
100111.46
100084.64
100065.95
100163.36
100669.47
100875.51
101529.2
101878.16
102693.49
103346.02
104342.53
105390.89
106685.32
108147.33
109806.62
111598.44
113434.53
115179.17
116669.07
117675.6
118073.71
117931.49
117289.59
116250.82
114941.54
113482.97
111978.76
110482.13
109053.72
107735.97
106545.47
105492.68
104581.79
103809.56
103163.41
102622.36
102168.1
101795.75
101504.83
101274.97
101061.15
100834.23
100625.28
100467.71
100363.21
100297.2
100255.67
100225.49
100185.42
100143.2
100109.41
100084
100066.07
101398.87
101956.54
102162.82
102870.03
103254.46
104115.59
104835.61
105888.59
107016.47
108381.67
109915.35
111623.14
113425.82
115216.75
116850.3
118139.32
118863.68
119009.28
118624.02
117770.45
116565.45
115135.37
113596.71
112033.41
110495.47
109048.69
107718.69
106521.49
105465.98
104554.97
103784.06
103139.34
102598.98
102145.14
101774.04
101484.16
101252.56
101036.42
100812.92
100612.17
100460.51
100358.15
100293.29
100252.38
100220.81
100180.36
100139.49
100107.54
100083.5
100066.33
102714.97
103327.12
103535.58
104298.81
104728.27
105639.39
106434.3
107547.16
108754.69
110188.06
111783.31
113520.62
115305.75
117017.07
118496.95
119530.4
119970.55
119862.85
119236.34
118183.88
116827.91
115292.74
113685.16
112063.29
110498.13
109034.92
107695.17
106493.18
105436.26
104526.05
103757.04
103114.1
102574.68
102121.49
101751.7
101462.65
101229.32
101011.81
100792.84
100600.1
100453.74
100353.36
100289.32
100248.82
100215.8
100175.28
100135.93
100105.86
100083.13
100066.7
104115.07
104788.83
105010.81
105833.66
106316.44
107279.46
108153.33
109327.39
110611.9
112106.79
113747.92
115489.59
117223.53
118815.29
120088.14
120827.95
120996.14
120626.45
119768.98
118533.05
117043.03
115417.86
113743.09
112076.77
110490.43
109013.47
107666.36
106461.26
105404.08
104495.42
103728.8
103087.92
102549.64
102097.28
101728.8
101440.33
101205.4
100987.48
100774.01
100588.96
100447.32
100348.7
100285.34
100244.96
100210.54
100170.22
100132.56
100104.36
100082.89
100067.2
105630.39
106372.32
106616.91
107496.58
108034.92
109045.94
109999.36
111234.74
112591.9
114137.3
115801.81
117516.02
119159.88
120585.95
121592.91
122032.58
121928.57
121298.48
120224.26
118822.55
117216.4
115512.62
113774.18
112078.27
110473.21
108985.51
107633.19
106426.42
105369.93
104463.48
103699.61
103061.01
102524.04
102072.64
101705.37
101417.25
101180.93
100963.53
100756.32
100578.69
100441.22
100344.14
100281.38
100240.77
100205.07
100165.22
100129.38
100103.04
100082.81
100067.83
107281.93
108093.8
108360.37
109291.76
109894.92
110952.77
111984.99
113275.89
114696.82
116275.05
117932.74
119581.04
121089.64
122293.37
122993.31
123143.4
122758.38
121879.32
120605.99
119058
117352.54
115573.6
113787.96
112068.05
110447.83
108952.18
107596.51
106389.28
105334.3
104430.57
103669.75
103033.57
102498.05
102047.65
101681.45
101393.45
101156.07
100940.1
100739.67
100569.17
100435.44
100339.67
100277.39
100236.25
100199.47
100160.29
100126.36
100101.86
100082.8
100068.58
109076.44
109958.05
110253.32
111231.4
111910.88
113011.19
114115.81
115461.4
116926.19
118508.85
120121.57
121659.69
122981.49
123901.65