/*--------------------------------*- C++ -*----------------------------------*\
  =========                 |
  \\      /  F ield         | OpenFOAM: The Open Source CFD Toolbox
   \\    /   O peration     | Website:  https://openfoam.org
    \\  /    A nd           | Version:  8
     \\/     M anipulation  |
\*---------------------------------------------------------------------------*/
FoamFile
{
    version     2.0;
    format      ascii;
    class       surfaceScalarField;
    location    "0.0699881";
    object      phi;
}
// * * * * * * * * * * * * * * * * * * * * * * * * * * * * * * * * * * * * * //

dimensions      [1 0 -1 0 0 0 0];

internalField   nonuniform List<scalar> 
39600
(
6.1785559e-05
-0.0081803637
0.0081886623
7.5843476e-05
-0.011644963
0.011631681
9.3306035e-05
-0.015474833
0.015458643
0.00011265266
-0.020204404
0.020186431
0.00014260697
-0.026222166
0.026193938
2.918336e-05
-0.033322731
0.033438018
-0.00024027948
-0.039956463
0.040228122
-0.00056340267
-0.048150804
0.048476502
-0.00094786027
-0.057409844
0.057797438
-0.0014065869
-0.068979099
0.069441521
-0.0019513639
-0.082416678
0.08296596
-0.002605048
-0.098881355
0.099540391
-0.0033811521
-0.11825908
0.1190418
-0.0043134806
-0.14175452
0.14269478
-0.0054215884
-0.16962537
0.17074326
-0.0067504124
-0.20321076
0.20455138
-0.0083307233
-0.24320827
0.24480339
-0.010221362
-0.29123478
0.29314371
-0.012474282
-0.34854064
0.35081646
-0.015173714
-0.41718206
0.41990957
-0.018402031
-0.49913235
0.50239493
-0.022271514
-0.59711849
0.60102969
-0.026891299
-0.71405521
0.71872778
-0.032344502
-0.85360704
0.85912489
-0.038911876
-1.0201287
1.0267729
-0.046828306
-1.2184693
1.2264755
-0.056379697
-1.4545363
1.4641952
-0.06788198
-1.7355072
1.747126
-0.081687526
-2.0700054
2.0839557
-0.098196991
-2.4686131
2.485294
-0.11784496
-2.9442523
2.9640972
-0.14109665
-3.5127131
3.536191
-0.16847986
-4.1931531
4.220787
-0.20056359
-5.008672
5.0410471
-0.23801718
-5.9869911
6.0247593
-0.28147982
-7.1612897
7.2051322
-0.33168175
-8.5713159
8.62191
-0.3894498
-10.264428
10.322658
-0.45531785
-12.296271
12.36256
-0.5283788
-14.73595
14.809383
-0.60862936
-17.665691
17.74624
-0.69439779
-21.18277
21.268788
-0.78229454
-25.403866
25.491613
-0.86636447
-30.469522
30.5528
-0.9359416
-36.544676
36.612659
-0.97093179
-43.845944
43.876955
-0.94951937
-52.619429
52.594988
-0.82996523
-63.140398
63.018775
-0.55097653
-75.772857
75.492307
-90.973975
90.438626
7.4361129e-05
-0.0081984464
8.9769901e-05
-0.011659483
0.00010657375
-0.015490428
0.00012290349
-0.020219257
0.00014281763
-0.026240503
1.1452332e-05
-0.033189497
-0.0002438713
-0.039699033
-0.00055135319
-0.047840833
-0.00091763146
-0.057040519
-0.001359469
-0.068533657
-0.0018852199
-0.081886408
-0.0025186735
-0.098242519
-0.003271318
-0.11749978
-0.004176721
-0.14084112
-0.0052522103
-0.16854011
-0.0065430491
-0.20190805
-0.0080776695
-0.2416589
-0.0099173181
-0.28937664
-0.012112061
-0.34632304
-0.014743696
-0.41452258
-0.017886327
-0.49595564
-0.021648379
-0.59331505
-0.026119436
-0.70953131
-0.031428046
-0.84823454
-0.037843839
-1.0136367
-0.045609178
-1.2106128
-0.054971773
-1.445066
-0.066266228
-1.7240942
-0.079839258
-2.0562848
-0.096084214
-2.4521939
-0.11542253
-2.9247156
-0.13830286
-3.489605
-0.16523485
-4.1659683
-0.19676915
-4.9768444
-0.23355867
-5.9498843
-0.27623731
-7.1182338
-0.32551114
-8.5216422
-0.38229957
-10.207178
-0.44672016
-12.231436
-0.51861912
-14.663675
-0.59758572
-17.58641
-0.68210058
-21.098005
-0.76901942
-25.317093
-0.85258009
-30.386734
-0.9227541
-36.476526
-0.95995718
-43.812348
-0.94328942
-52.639115
-0.83199696
-63.253713
-0.56701142
-76.03945
-91.484985
6.1917624e-05
-0.0082167848
7.9121655e-05
-0.01167576
9.9057842e-05
-0.015509286
0.00012006752
-0.020238931
0.00013913698
-0.026257907
-3.0547742e-06
-0.033045521
-0.00025209789
-0.039447882
-0.00055192233
-0.047538503
-0.00090816138
-0.056681127
-0.0013371771
-0.068100913
-0.0018462774
-0.08137269
-0.0024594321
-0.097623886
-0.003186528
-0.11676589
-0.0040614669
-0.13995809
-0.00510004
-0.16749162
-0.0063475993
-0.20064851
-0.0078329257
-0.24015869
-0.0096172877
-0.28757402
-0.011746092
-0.34417135
-0.01429575
-0.41194468
-0.017341239
-0.49287574
-0.020961729
-0.58965086
-0.025274608
-0.70516474
-0.030440232
-0.84300497
-0.03671472
-1.0072842
-0.04429547
-1.2029393
-0.053461809
-1.4357911
-0.064546431
-1.7128887
-0.077890108
-2.0427904
-0.093879817
-2.4360271
-0.11292343
-2.9054715
-0.13545541
-3.4668442
-0.16196547
-4.1392027
-0.19299235
-4.9455222
-0.22917037
-5.9133851
-0.27112009
-7.0759072
-0.31953719
-8.4728082
-0.37537735
-10.150876
-0.4386194
-12.167789
-0.5093898
-14.592546
-0.58722493
-17.508256
-0.67065821
-21.014308
-0.75677735
-25.231153
-0.84008544
-30.304331
-0.91101687
-36.408069
-0.95071684
-43.776075
-0.93891755
-52.653653
-0.83622534
-63.358524
-0.58575031
-76.291667
-91.97158
4.8545349e-05
-0.008234943
6.4745409e-05
-0.011692124
8.4949508e-05
-0.015529045
0.00010823232
-0.020261382
0.00011942749
-0.026268119
-3.1716397e-05
-0.032892954
-0.00027160664
-0.039206009
-0.00056045289
-0.047247229
-0.000903111
-0.056335441
-0.0013165212
-0.06768381
-0.0018065426
-0.08087801
-0.0023978924
-0.097026967
-0.0030987348
-0.11605816
-0.0039433628
-0.13910527
-0.0049461891
-0.16647873
-0.006153205
-0.1994293
-0.0075921526
-0.23870471
-0.0093232871
-0.28582432
-0.011382357
-0.34209022
-0.013852136
-0.40944706
-0.016771798
-0.48992051
-0.020258502
-0.58612079
-0.024440231
-0.70093118
-0.029499691
-0.83788293
-0.035616161
-1.00109
-0.043024507
-1.1954379
-0.052010198
-1.4266971
-0.062901553
-1.7018752
-0.076037083
-2.029502
-0.091792757
-2.4200923
-0.11056635
-2.8864962
-0.13277569
-3.4444051
-0.15889443
-4.1128262
-0.18944721
-4.9146723
-0.22505801
-5.8774499
-0.2663357
-7.0342521
-0.31399573
-8.4247086
-0.36889894
-10.095524
-0.43110597
-12.105178
-0.50083414
-14.522475
-0.57764027
-17.431145
-0.66015924
-20.931533
-0.74564661
-25.145835
-0.82890255
-30.222014
-0.90021347
-36.339749
-0.94316026
-43.736129
-0.93668819
-52.662756
-0.84296529
-63.454274
-0.60726085
-76.529145
-92.433832
3.912523e-05
-0.0082532567
5.7268967e-05
-0.011709307
8.0302569e-05
-0.015550939
0.00010930922
-0.020289088
0.0001131212
-0.026270558
-4.3921559e-05
-0.032734305
-0.00027563663
-0.038972339
-0.00055502928
-0.046965499
-0.00088598124
-0.056001475
-0.0012856894
-0.067280467
-0.0017587982
-0.080400328
-0.0023305419
-0.09644973
-0.0030069779
-0.11537486
-0.003823582
-0.13828043
-0.0047937417
-0.16549846
-0.0059635005
-0.19824731
-0.0073561871
-0.23729691
-0.009028848
-0.28413361
-0.011020996
-0.3400744
-0.013377872
-0.40706099
-0.01618952
-0.48707288
-0.019568201
-0.5826994
-0.023654043
-0.69679267
-0.028581041
-0.83289218
-0.034548646
-0.9950439
-0.041798256
-1.1880944
-0.050618889
-1.417768
-0.061336833
-1.6910339
-0.074284265
-2.0164002
-0.089829604
-2.4043665
-0.10835701
-2.8677666
-0.13027138
-3.4222607
-0.15602951
-4.0868088
-0.18614728
-4.8842561
-0.22122813
-5.8420429
-0.26188657
-6.9932161
-0.30888641
-8.3772582
-0.36289813
-10.041067
-0.42417652
-12.043508
-0.49296329
-14.453355
-0.56887452
-17.354943
-0.650628
-20.849528
-0.73567637
-25.06094
-0.81908236
-30.139568
-0.8910315
-36.271
-0.93743496
-43.692629
-0.93635655
-52.666269
-0.85192862
-63.540428
-0.6314653
-76.751417
-92.871411
2.800259e-05
-0.0082719237
4.6313803e-05
-0.011727166
7.079477e-05
-0.015574642
0.00010582644
-0.020322936
0.00010008698
-0.026263518
-5.9561058e-05
-0.032572942
-0.0002825269
-0.038747393
-0.00055187462
-0.046693662
-0.00087103429
-0.055679271
-0.0012569369
-0.066890898
-0.0017138747
-0.079938751
-0.0022678336
-0.095890239
-0.0029211704
-0.11471462
-0.0037114678
-0.13748191
-0.0046513095
-0.16454853
-0.0057822867
-0.19710456
-0.0071312516
-0.23593297
-0.0087352157
-0.2825103
-0.010631752
-0.3381543
-0.012903282
-0.4047605
-0.015628648
-0.48431301
-0.01892587
-0.57935968
-0.022894433
-0.69277209
-0.027695633
-0.82802776
-0.033524546
-0.98913686
-0.040629901
-1.1808954
-0.049302451
-1.4089876
-0.059866267
-1.680346
-0.072648298
-2.0034626
-0.088006193
-2.3888271
-0.10631297
-2.8492572
-0.12795863
-3.4003848
-0.15338711
-4.0611199
-0.18310405
-4.8542396
-0.21770062
-5.8071185
-0.25779722
-6.9527416
-0.30417988
-8.3304181
-0.35739428
-9.9874159
-0.41786156
-11.982667
-0.48579642
-14.38509
-0.56094672
-17.279513
-0.64209869
-20.768138
-0.72689422
-24.97629
-0.8106758
-30.056751
-0.88392369
-36.201042
-0.93362906
-43.645729
-0.93815792
-52.664059
-0.86334163
-63.61687
-0.65847857
-76.958131
-93.284106
1.9270109e-05
-0.0082902257
3.8102468e-05
-0.011744709
6.3762832e-05
-0.015599007
0.00010504846
-0.020362568
8.7768539e-05
-0.026244714
-7.2598718e-05
-0.032410724
-0.0002880636
-0.038529733
-0.00054767473
-0.046431503
-0.00085583356
-0.055367911
-0.0012280109
-0.066514947
-0.0016692325
-0.079492845
-0.0022073646
-0.095346583
-0.0028383821
-0.11407674
-0.0036016327
-0.13671072
-0.0045109037
-0.16362933
-0.0056035989
-0.1959993
-0.0068841008
-0.23463682
-0.0084171736
-0.28095812
-0.010244703
-0.33630308
-0.012450811
-0.40252626
-0.015106117
-0.48162285
-0.018302256
-0.57612087
-0.022160107
-0.68886189
-0.026840953
-0.8232833
-0.032543547
-0.98335596
-0.039519396
-1.1738261
-0.048062182
-1.4003376
-0.058492727
-1.6697909
-0.071131298
-1.990668
-0.086326548
-2.3734504
-0.1044374
-2.8309445
-0.12584154
-3.378751
-0.15097251
-4.0357281
-0.18032672
-4.8245854
-0.21448727
-5.7726295
-0.25406632
-6.9127836
-0.29987387
-8.2841535
-0.35240993
-9.9344494
-0.41215655
-11.922538
-0.47936379
-14.317555
-0.5538676
-17.20473
-0.63458834
-20.687203
-0.71932787
-24.891728
-0.80371478
-29.973488
-0.87862481
-36.129389
-0.9317653
-43.595305
-0.94215526
-52.65588
-0.87723148
-63.683395
-0.68839307
-77.148847
-93.671525
9.3670309e-06
-0.0083083254
2.7920507e-05
-0.011762371
5.422849e-05
-0.015624128
0.00010190592
-0.020408924
7.2741893e-05
-0.026213925
-8.5860366e-05
-0.032250297
-0.00029390251
-0.038319438
-0.00054327653
-0.046179505
-0.00084076826
-0.055067154
-0.0012003679
-0.066151567
-0.0016253937
-0.079063095
-0.0021434894
-0.094823053
-0.0027537305
-0.11345973
-0.0034933643
-0.13596267
-0.0043575075
-0.16275474
-0.005394032
-0.19495021
-0.006626301
-0.23338898
-0.0081037098
-0.27946201
-0.0098845735
-0.33449959
-0.012026567
-0.40035636
-0.014595984
-0.4790191
-0.017697364
-0.57297734
-0.02145048
-0.685057
-0.026019736
-0.81865112
-0.031608012
-0.97768995
-0.038470302
-1.1668713
-0.046902708
-1.3917986
-0.057221427
-1.6593472
-0.069740516
-1.9779923
-0.084796207
-2.3582133
-0.10273736
-2.812802
-0.12392835
-3.3573308
-0.14879258
-4.0106027
-0.1778188
-4.7952589
-0.21158526
-5.738534
-0.25070511
-6.8732815
-0.29600347
-8.238402
-0.34795543
-9.8820742
-0.40707936
-11.86303
-0.47369309
-14.25059
-0.54765058
-17.130473
-0.62813062
-20.606544
-0.71300839
-24.807115
-0.79825125
-29.889577
-0.8751042
-36.055674
-0.93188297
-43.54112
-0.94841953
-52.641466
-0.8937739
-63.739663
-0.72135893
-77.323133
-94.033369
9.9672271e-07
-0.0083257412
1.987447e-05
-0.011780074
4.645836e-05
-0.015649228
0.00010024635
-0.020461152
5.786173e-05
-0.026169697
-9.8878814e-05
-0.032091602
-0.00029814099
-0.038117799
-0.0005402202
-0.045934781
-0.00082447716
-0.05477958
-0.0011748781
-0.065797453
-0.0015825456
-0.078650715
-0.002076385
-0.09432349
-0.0026580913
-0.11287096
-0.0033593212
-0.13525305
-0.0041881957
-0.16191542
-0.005184995
-0.19394077
-0.0063774583
-0.23218153
-0.0078208979
-0.27800044
-0.0095417432
-0.33275607
-0.011612024
-0.3982582
-0.014101387
-0.47649531
-0.017111868
-0.56992464
-0.020767043
-0.68135004
-0.025235011
-0.81412033
-0.030721854
-0.97212583
-0.037487858
-1.1600136
-0.045830559
-1.3833507
-0.056059518
-1.6489936
-0.068482275
-1.9654136
-0.0834237
-2.3430917
-0.10122005
-2.7948062
-0.12222582
-3.3360973
-0.14685616
-3.9857118
-0.17559755
-4.7662182
-0.20901574
-5.7047867
-0.24773043
-6.8341758
-0.29258285
-8.193106
-0.34402753
-9.8302174
-0.40263789
-11.80405
-0.46878413
-14.1841
-0.54235332
-17.05655
-0.62275267
-20.526014
-0.70798008
-24.722258
-0.79431238
-29.804862
-0.87335234
-35.979588
-0.93403112
-43.482888
-0.95707277
-52.620464
-0.91302462
-63.785364
-0.75749655
-77.48057
-94.369241
-7.8377425e-06
-0.0083430315
1.1140551e-05
-0.011798211
3.7328371e-05
-0.01567436
9.6012144e-05
-0.020518508
4.0936282e-05
-0.026113051
-0.00011398978
-0.031934894
-0.00030506109
-0.037924574
-0.00054232135
-0.045694908
-0.00081522292
-0.05450337
-0.0011483573
-0.065460348
-0.001532214
-0.078261928
-0.0019992162
-0.093850655
-0.002556796
-0.11230624
-0.0032302906
-0.13457107
-0.0040304114
-0.16110522
-0.0050024856
-0.19295661
-0.0061596171
-0.23100943
-0.0075491242
-0.27659267
-0.0092096976
-0.33107308
-0.011211229
-0.39622911
-0.01362453
-0.47404807
-0.016551511
-0.56695599
-0.020118003
-0.6777324
-0.024494885
-0.80968129
-0.029895604
-0.96664864
-0.036583752
-1.1532349
-0.044856689
-1.3749734
-0.055019542
-1.6387059
-0.067369599
-1.9529077
-0.082221268
-2.3280605
-0.099898972
-2.7769301
-0.12074762
-3.3150219
-0.14517669
-3.9610227
-0.17366799
-4.7374286
-0.20679052
-5.6713345
-0.24516542
-6.7953969
-0.28963387
-8.1482071
-0.34065339
-9.7787964
-0.39884069
-11.745499
-0.46464228
-14.117953
-0.53803048
-16.982788
-0.61848958
-20.445446
-0.70427031
-24.636912
-0.79195159
-29.719119
-0.87341428
-35.900853
-0.93827955
-43.420316
-0.96823355
-52.592469
-0.93515995
-63.820131
-0.79689855
-77.620792
-94.67865
-1.523547e-05
-0.0083597158
3.3563196e-06
-0.011815779
2.8733204e-05
-0.015698519
8.9672746e-05
-0.02057795
2.1667636e-05
-0.026043443
-0.00012977793
-0.031781511
-0.00031115256
-0.037740881
-0.00053408517
-0.045469303
-0.00079346754
-0.054240658
-0.0011082336
-0.06514157
-0.0014800274
-0.077885201
-0.0019291802
-0.093395855
-0.0024663966
-0.11176217
-0.0031228995
-0.1339065
-0.0039003593
-0.16031776
-0.0048361927
-0.19200871
-0.0059480487
-0.22988272
-0.0072863572
-0.27523628
-0.0088900222
-0.32944701
-0.010826037
-0.39426556
-0.01316644
-0.47167377
-0.01601639
-0.56406447
-0.01950452
-0.67419339
-0.023803895
-0.80532021
-0.029133091
-0.96124393
-0.035762556
-1.1465166
-0.043988171
-1.3666452
-0.054108003
-1.6284622
-0.066409825
-1.9404513
-0.081196009
-2.313097
-0.098780953
-2.7591493
-0.11950102
-3.2940772
-0.14376231
-3.9365031
-0.17204478
-4.7088501
-0.20492021
-5.6381284
-0.24306737
-6.7568399
-0.28717546
-8.1036771
-0.33785318
-9.7277279
-0.39572308
-11.687272
-0.46131726
-14.052015
-0.53468172
-16.909046
-0.61537998
-20.364626
-0.70193179
-24.550881
-0.79108776
-29.63222
-0.87532271
-35.819107
-0.94472303
-43.353066
-0.98193535
-52.557122
-0.96027187
-63.843416
-0.83980781
-77.743247
-94.961232
-2.1564323e-05
-0.0083769427
-1.0897101e-06
-0.011835126
2.7177725e-05
-0.015725412
9.2340656e-05
-0.020641535
1.9880086e-05
-0.025969214
-0.0001229853
-0.0316366
-0.00029524796
-0.037566185
-0.00050894258
-0.045252843
-0.00075659553
-0.053989612
-0.0010658135
-0.064828691
-0.0014256679
-0.077520714
-0.0018690894
-0.092947058
-0.0023900315
-0.11123448
-0.0030210597
-0.13326749
-0.0037662491
-0.15956272
-0.0046650607
-0.19109795
-0.0057353958
-0.22879759
-0.0070259263
-0.27392771
-0.0085762483
-0.32787456
-0.010451193
-0.39236346
-0.012724472
-0.46936705
-0.015502291
-0.56124562
-0.018919986
-0.67072544
-0.023155094
-0.80102403
-0.028431541
-0.95589279
-0.035022288
-1.1398382
-0.043223447
-1.3583427
-0.053323932
-1.6182382
-0.065601813
-1.9280194
-0.080347352
-2.2981753
-0.097864882
-2.7414377
-0.11848591
-3.2732331
-0.14261311
-3.912119
-0.17072721
-4.6804418
-0.20340166
-5.6051214
-0.24136393
-6.7184642
-0.28520343
-8.0594233
-0.33562703
-9.6769227
-0.3933149
-11.629229
-0.45881315
-13.986167
-0.5323182
-16.835173
-0.61345723
-20.28333
-0.70099811
-24.463897
-0.79168401
-29.543941
-0.87916966
-35.734032
-0.95344225
-43.280825
-0.99833948
-52.513995
-0.98849594
-63.85489
-0.88625482
-77.847502
-95.216377
-2.6906263e-05
-0.0083947463
-4.1554314e-06
-0.011856589
2.7579447e-05
-0.015755649
9.2256553e-05
-0.020704523
1.2860632e-05
-0.025888165
-0.00012642019
-0.031495337
-0.00029350279
-0.037396782
-0.00050173049
-0.045042089
-0.00074316829
-0.053744991
-0.0010434339
-0.064524756
-0.0013917365
-0.077167863
-0.0018238285
-0.092509709
-0.0023200562
-0.1107316
-0.0029251528
-0.13265449
-0.0036408135
-0.15883723
-0.0045056594
-0.19022118
-0.0055379039
-0.22775059
-0.0067846562
-0.27266314
-0.0082840093
-0.32635326
-0.010102595
-0.3905179
-0.012314685
-0.46712169
-0.015028769
-0.55849081
-0.018383869
-0.66732055
-0.022568929
-0.79677872
-0.027810628
-0.95057776
-0.034384089
-1.1331794
-0.042583584
-1.3500442
-0.052688661
-1.6080115
-0.06496605
-1.9155902
-0.079695333
-2.2832728
-0.097172167
-2.7237698
-0.11772313
-3.2524618
-0.14175109
-3.8878369
-0.16973933
-4.6521616
-0.20226513
-5.5722587
-0.24009049
-6.6802286
-0.28374717
-8.0153615
-0.3340204
-9.6262767
-0.39164688
-11.571251
-0.45718207
-13.920269
-0.53098899
-16.761021
-0.6127718
-20.201382
-0.70153084
-24.375699
-0.79416853
-29.453795
-0.88505413
-35.645516
-0.96454821
-43.203263
-1.0174886
-52.462713
-1.0200003
-63.853918
-0.93645243
-77.933055
-95.443559
-3.2364765e-05
-0.0084133389
-8.4884596e-06
-0.011879348
2.5921512e-05
-0.015788686
8.7990295e-05
-0.020765086
3.0265425e-06
-0.025801307
-0.00013599122
-0.031354482
-0.00029905139
-0.037231409
-0.00049748646
-0.044841009
-0.00073039272
-0.053508769
-0.0010133287
-0.064238095
-0.0013480946
-0.076828417
-0.001761532
-0.09209086
-0.0022391941
-0.11024724
-0.0028217766
-0.13206394
-0.0035108287
-0.15813833
-0.0043448432
-0.18937518
-0.0053413735
-0.22673946
-0.0065462457
-0.27144063
-0.0079990867
-0.32487886
-0.0097655227
-0.38872492
-0.011922866
-0.46493162
-0.014582148
-0.55579127
-0.017888132
-0.66396546
-0.022035123
-0.79257194
-0.027260701
-0.94527983
-0.033839745
-1.1265162
-0.042061222
-1.3417247
-0.05219534
-1.5977561
-0.064496134
-1.9031387
-0.079233096
-2.2683643
-0.096695275
-2.7061187
-0.11720646
-3.2317323
-0.14117059
-3.8636208
-0.16907642
-4.6239648
-0.20150414
-5.539487
-0.23925213
-6.6420785
-0.28281046
-7.9714079
-0.33303312
-9.5756872
-0.39067774
-11.513247
-0.45646213
-13.854118
-0.53071217
-16.686449
-0.61334154
-20.118633
-0.70356826
-24.286168
-0.79846635
-29.361418
-0.89302934
-35.553295
-0.97811736
-43.120021
-1.0395964
-52.402791
-1.0549022
-63.840049
-0.99058443
-77.999328
-95.642248
-3.8043893e-05
-0.0084317738
-1.3364253e-05
-0.011902999
2.4424041e-05
-0.015825261
8.4792004e-05
-0.020823985
-3.1290944e-06
-0.025711741
-0.00014069024
-0.031215053
-0.00029606699
-0.037073708
-0.00048880236
-0.044645662
-0.00070941696
-0.053284782
-0.00098529991
-0.063958456
-0.0013050009
-0.076503952
-0.0016984837
-0.091691897
-0.002159469
-0.10977947
-0.0027210594
-0.13149434
-0.003385141
-0.15746429
-0.0041896719
-0.18855875
-0.0051522061
-0.22576237
-0.0063178676
-0.27025747
-0.0077273579
-0.32344799
-0.0094476825
-0.38697829
-0.011557013
-0.46278987
-0.014170569
-0.55313791
-0.017439558
-0.66064811
-0.021564937
-0.78838782
-0.026793355
-0.93998084
-0.033401161
-1.1198268
-0.041668889
-1.3333616
-0.051854935
-1.5874511
-0.064203424
-1.8906424
-0.078972289
-2.2534272
-0.096445994
-2.6884595
-0.11694634
-3.2110168
-0.14088244
-3.8394358
-0.16875218
-4.5958042
-0.20117974
-5.5067076
-0.23887176
-6.6040006
-0.28240651
-7.9274888
-0.33269411
-9.5250373
-0.39048803
-11.455075
-0.45665497
-13.787589
-0.53152186
-16.611284
-0.61521921
-20.034905
-0.70716416
-24.195069
-0.80460222
-29.266486
-0.90314159
-35.457055
-0.99425041
-43.030709
-1.064703
-52.333869
-1.09341
-63.812669
-1.0487431
-78.045857
-95.811773
-4.4378344e-05
-0.008448888
-2.0083295e-05
-0.011926231
2.0154579e-05
-0.015864271
7.5117557e-05
-0.020877487
-1.5777034e-05
-0.025619213
-0.00014679949
-0.031082145
-0.0002948538
-0.036923357
-0.00048160282
-0.04445633
-0.00069325542
-0.053069865
-0.00096098894
-0.06368705
-0.0012670242
-0.076193223
-0.0016472678
-0.091306251
-0.0020905956
-0.1093294
-0.0026314552
-0.13094544
-0.0032720846
-0.15681376
-0.0040487267
-0.18777017
-0.0049796085
-0.22481699
-0.0061093069
-0.26911043
-0.0074797148
-0.32205645
-0.0091571832
-0.38527492
-0.011224661
-0.46069043
-0.013802755
-0.55052055
-0.017049229
-0.65735379
-0.021171293
-0.78420755
-0.02642296
-0.93465942
-0.033082674
-1.1130868
-0.041420158
-1.3249298
-0.051682897
-1.5770704
-0.064101098
-1.878078
-0.07892541
-2.2384367
-0.096435232
-2.6707667
-0.11695571
-3.1902836
-0.1409017
-3.8152429
-0.16878217
-4.5676319
-0.201276
-5.4738612
-0.23895844
-6.5659447
-0.28257652
-7.8834941
-0.3329701
-9.4742759
-0.391153
-11.396506
-0.45779715
-13.720584
-0.53345458
-16.535341
-0.61843858
-19.950064
-0.71237052
-24.102182
-0.812635
-29.168659
-0.91547806
-35.35645
-1.0130075
-42.934941
-1.0929273
-52.255431
-1.1356846
-63.771161
-1.1112036
-78.072092
-95.951498
-4.9207624e-05
-0.0084658218
-2.4262181e-05
-0.011950096
1.9690146e-05
-0.015906992
6.8434139e-05
-0.020924777
-2.3121612e-05
-0.025526055
-0.00014709682
-0.03095634
-0.00028895266
-0.036779252
-0.00046874186
-0.044274036
-0.00067346331
-0.052861926
-0.00093161867
-0.063425279
-0.0012267149
-0.075893513
-0.0015928336
-0.090934796
-0.0020196351
-0.10889588
-0.0025409408
-0.13041618
-0.0031594417
-0.1561854
-0.0039100536
-0.18700779
-0.0048117855
-0.22390089
-0.0059085539
-0.26799641
-0.0072435105
-0.32070048
-0.0088828304
-0.38360992
-0.010915909
-0.45862577
-0.013468782
-0.54792907
-0.016707934
-0.65406775
-0.020847749
-0.78001092
-0.026144411
-0.92929507
-0.032878072
-1.1062757
-0.041311201
-1.3164051
-0.05167262
-1.5665936
-0.064183244
-1.8654245
-0.079084192
-2.2233733
-0.096657085
-2.6530142
-0.11723111
-3.1695
-0.14122834
-3.791001
-0.16916517
-4.5394023
-0.20175803
-5.4409221
-0.23952495
-6.5278174
-0.28325694
-7.8393902
-0.3340006
-9.423153
-0.39262936
-11.337491
-0.45990914
-13.652944
-0.53653979
-16.458421
-0.62304449
-19.863763
-0.71923055
-24.007286
-0.82260291
-29.067614
-0.93010011
-35.251112
-1.0344932
-42.832271
-1.1243764
-52.166997
-1.1815632
-63.715222
-1.1779978
-78.077241
-96.060662
-5.3765354e-05
-0.0084826353
-2.8534212e-05
-0.011974343
1.8977274e-05
-0.015953336
5.9688547e-05
-0.020964111
-3.1131958e-05
-0.025433684
-0.00015220511
-0.030833509
-0.00028908517
-0.036640163
-0.00046314539
-0.044097511
-0.00066012096
-0.052661774
-0.00090883659
-0.063173008
-0.0011926957
-0.075605078
-0.0015455401
-0.090576686
-0.0019569398
-0.10847788
-0.0024604536
-0.12990483
-0.0030584164
-0.15557777
-0.0037850377
-0.18626951
-0.0046601612
-0.22301156
-0.0057270943
-0.26691239
-0.007029551
-0.31937725
-0.0086386973
-0.38197539
-0.010647376
-0.45658596
-0.01318697
-0.54535127
-0.016431906
-0.65077652
-0.020607784
-0.77577864
-0.025974451
-0.92386168
-0.032807302
-1.0993666
-0.041357482
-1.3077643
-0.051839318
-1.5559972
-0.064462422
-1.8526605
-0.079464797
-2.2082104
-0.097129219
-2.6351723
-0.11779042
-3.1486314
-0.14188002
-3.7666675
-0.16995573
-4.5110325
-0.2026532
-5.4078885
-0.2405728
-6.4895473
-0.28455552
-7.795029
-0.33577282
-9.3715563
-0.39495092
-11.277924
-0.46303216
-13.584498
-0.54083529
-16.380312
-0.62908522
-19.77574
-0.72779134
-23.910141
-0.83455589
-28.963044
-0.94708397
-35.140658
-1.058751
-42.722282
-1.1591824
-52.068018
-1.2312348
-63.644244
-1.2494934
-78.060757
-96.138566
-5.7182029e-05
-0.0084999976
-3.1241386e-05
-0.011999264
1.9864058e-05
-0.016003258
5.3111685e-05
-0.020995978
-3.6977531e-05
-0.025342047
-0.00015393563
-0.030714801
-0.00028537938
-0.036506522
-0.00045346784
-0.043927003
-0.00064271466
-0.05246937
-0.00088231476
-0.0629299
-0.0011558979
-0.075326979
-0.0014965827
-0.090230819
-0.0018938572
-0.10807408
-0.0023807322
-0.12941025
-0.0029600176
-0.15498894
-0.0036648626
-0.18555325
-0.0045162273
-0.22214618
-0.0055561755
-0.2658555
-0.0068318652
-0.31808095
-0.0084179693
-0.38036417
-0.010412258
-0.45456101
-0.012950952
-0.54277514
-0.0162195
-0.64746283
-0.020449993
-0.77149338
-0.025909425
-0.91833797
-0.032866633
-1.092336
-0.041555306
-1.2989877
-0.052177217
-1.5452635
-0.06493563
-1.8397644
-0.080064938
-2.1929239
-0.097851691
-2.6172114
-0.11863689
-3.1276419
-0.14286117
-3.742201
-0.17112757
-4.4824768
-0.20398662
-5.3747017
-0.24206337
-6.4511223
-0.28654969
-7.7501661
-0.33826571
-9.3194615
-0.39814109
-11.217661
-0.46719811
-13.515074
-0.54638021
-16.3008
-0.63659527
-19.685758
-0.73784322
-23.810724
-0.84852274
-28.854403
-0.9664929
-35.024686
-1.0858637
-42.604538
-1.1972325
-51.958024
-1.2849639
-63.557461
-1.3257527
-78.021823
-96.184411
-5.9530343e-05
-0.0085187084
-3.2120637e-05
-0.012025649
2.2360938e-05
-0.016056555
4.785477e-05
-0.021020112
-4.0188419e-05
-0.025252452
-0.00015345935
-0.030599818
-0.00027968395
-0.036378102
-0.00044251716
-0.043761785
-0.00062437412
-0.052284392
-0.00085638777
-0.062694444
-0.0011203241
-0.07505858
-0.0014498979
-0.089896142
-0.0018346161
-0.10768294
-0.0023062365
-0.12893104
-0.002868601
-0.15441724
-0.0035537487
-0.18485684
-0.0043840102
-0.22130208
-0.0054011355
-0.26482165
-0.006656323
-0.31680537
-0.0082268681
-0.37876881
-0.010215482
-0.45254208
-0.012767932
-0.54018565
-0.016077886
-0.64410811
-0.020385211
-0.76713175
-0.025960026
-0.91269969
-0.033063637
-1.0851603
-0.041911992
-1.2900522
-0.052695989
-1.5343688
-0.065613287
-1.826711
-0.080904189
-2.1774775
-0.098863595
-2.5990805
-0.11980639
-3.1064974
-0.14421636
-3.7175514
-0.17266405
-4.4537431
-0.20565578
-5.3413899
-0.24420591
-6.4122196
-0.289171
-7.7048286
-0.34151845
-9.2667386
-0.40222682
-11.156566
-0.47243668
-13.444499
-0.55321673
-16.219673
-0.64564102
-19.593664
-0.74963745
-23.708675
-0.86460981
-28.741431
-0.9884127
-34.902832
-1.1160025
-42.47854
-1.2388894
-51.836433
-1.3429666
-63.454231
-1.4070206
-77.959694
-96.197313
-6.2041751e-05
-0.008538313
-3.3468011e-05
-0.012053206
2.2999963e-05
-0.016111846
3.8621684e-05
-0.021034385
-4.6560244e-05
-0.025165724
-0.00015662592
-0.030488072
-0.00027833607
-0.036254226
-0.00043650593
-0.043601296
-0.00061168161
-0.052106114
-0.00083682661
-0.062465908
-0.0010920449
-0.074798962
-0.0014113279
-0.089571851
-0.0017844722
-0.10730347
-0.0022422124
-0.12846586
-0.0027893424
-0.1538609
-0.0034573863
-0.18417774
-0.0042688521
-0.22047695
-0.0052673959
-0.26380651
-0.006507977
-0.31554462
-0.0080699893
-0.37718228
-0.010063547
-0.45051877
-0.012643056
-0.53756995
-0.016014077
-0.64069369
-0.020423156
-0.76267016
-0.026137811
-0.90692428
-0.033407497
-1.0778215
-0.042437788
-1.2809376
-0.053406433
-1.5232921
-0.066506652
-1.8134778
-0.082007921
-2.1618248
-0.10013843
-2.5807826
-0.12127562
-3.0851624
-0.14589535
-3.6926966
-0.17448238
-4.4248732
-0.20790729
-5.3076464
-0.24691065
-6.372868
-0.2924525
-7.6589176
-0.34555138
-9.213268
-0.40724288
-11.09449
-0.47878844
-13.372598
-0.56138452
-16.136774
-0.6562844
-19.499181
-0.76344235
-23.603511
-0.88292808
-28.623906
-1.0129381
-34.774698
-1.1493056
-42.343682
-1.2842899
-51.702672
-1.4053981
-63.333924
-1.4934806
-77.873591
-96.176386
-6.2784371e-05
-0.0085604406
-3.1853995e-05
-0.012083235
2.6475441e-05
-0.016169077
3.2838018e-05
-0.021039503
-4.931442e-05
-0.025082027
-0.00015633988
-0.03037942
-0.00027346798
-0.03613499
-0.00042746758
-0.043445088
-0.00059673746
-0.051933782
-0.00081561172
-0.062243716
-0.0010630536
-0.074547183
-0.0013728274
-0.089257144
-0.0017354284
-0.10693467
-0.0021806777
-0.12801329
-0.0027147409
-0.15331784
-0.0033676361
-0.18351394
-0.0041638803
-0.21966721
-0.0051485606
-0.26280545
-0.0063802919
-0.31429289
-0.0079419079
-0.37559646
-0.00995091
-0.44848022
-0.012573842
-0.53491125
-0.016026055
-0.63719822
-0.020560523
-0.75808374
-0.026440278
-0.90098445
-0.03389931
-1.0702943
-0.043131124
-1.2716222
-0.054305192
-1.5120105
-0.067647416
-1.8000041
-0.083339487
-2.1459835
-0.10167103
-2.5622867
-0.12300119
-3.0636377
-0.14780475
-3.6676591
-0.17680654
-4.3955925
-0.21064261
-5.2734935
-0.25018422
-6.3329816
-0.29640804
-7.6123273
-0.35037891
-9.1589281
-0.41320719
-11.031279
-0.48626709
-13.299193
-0.57092804
-16.051978
-0.66856941
-19.402069
-0.77924478
-23.494815
-0.90360889
-28.501433
-1.040175
-34.63988
-1.1858541
-42.199373
-1.3335742
-51.556122
-1.4724129
-63.195916
-1.5853765
-77.762653
-96.120654
-6.4316705e-05
-0.008583992
-3.2243041e-05
-0.012114445
2.5760385e-05
-0.016225994
2.1316483e-05
-0.021033868
-5.8731388e-05
-0.025000479
-0.00016398662
-0.030272892
-0.00027683475
-0.036019587
-0.00042696952
-0.04329275
-0.00059077663
-0.051766879
-0.00080340478
-0.062027811
-0.0010437459
-0.074302514
-0.0013452666
-0.088950781
-0.0016989918
-0.10657481
-0.0021334672
-0.12757167
-0.0026562492
-0.15278621
-0.0032961278
-0.18286335
-0.0040806123
-0.21886942
-0.0050565546
-0.2618133
-0.0062849464
-0.31304475
-0.007855078
-0.37400248
-0.0098939829
-0.44641238
-0.012578772
-0.53219171
-0.0161334
-0.63360175
-0.020815768
-0.75335152
-0.026883221
-0.89485962
-0.034553806
-1.0625585
-0.044009333
-1.2620856
-0.055429071
-1.5004856
-0.069005199
-1.7863005
-0.084907738
-2.1299361
-0.10344126
-2.5435928
-0.12496894
-3.0419175
-0.15016492
-3.6422329
-0.17955644
-4.3659261
-0.2138857
-5.2388499
-0.25404899
-6.2924779
-0.30106331
-7.5649508
-0.35604324
-9.1035801
-0.42017026
-10.96677
-0.49492135
-13.224101
-0.58188601
-15.964914
-0.68255589
-19.302079
-0.79707513
-23.38219
-0.92670313
-28.373579
-1.0704483
-34.497749
-1.2256735
-42.045514
-1.3868866
-51.396082
-1.544196
-63.039482
-1.6829218
-77.625992
-96.029165
-6.4150504e-05
-0.0086103883
-2.9485638e-05
-0.012148269
2.8499438e-05
-0.016283049
1.4351589e-05
-0.021018545
-6.2173528e-05
-0.024922586
-0.00016412419
-0.030169441
-0.00027264867
-0.035909032
-0.00041865007
-0.043144529
-0.00057731491
-0.051605258
-0.0007841165
-0.061817797
-0.0010179934
-0.074064415
-0.0013121058
-0.088651911
-0.001657951
-0.10622297
-0.0020831028
-0.1271395
-0.0025964946
-0.15226414
-0.0032262035
-0.18222311
-0.0040028285
-0.21807973
-0.0049749644
-0.26082517
-0.0062074393
-0.31179277
-0.0077961229
-0.37239014
-0.0098805361
-0.44429928
-0.012646212
-0.5293915
-0.016326815
-0.6298795
-0.021181249
-0.74844758
-0.027456373
-0.88852783
-0.035359908
-1.0545905
-0.045058191
-1.2523067
-0.056758977