/*--------------------------------*- C++ -*----------------------------------*\
  =========                 |
  \\      /  F ield         | OpenFOAM: The Open Source CFD Toolbox
   \\    /   O peration     | Website:  https://openfoam.org
    \\  /    A nd           | Version:  8
     \\/     M anipulation  |
\*---------------------------------------------------------------------------*/
FoamFile
{
    version     2.0;
    format      ascii;
    class       pointVectorField;
    location    "0.0699881";
    object      pointDisplacement;
}
// * * * * * * * * * * * * * * * * * * * * * * * * * * * * * * * * * * * * * //

dimensions      [0 1 0 0 0 0 0];

internalField   nonuniform List<vector> 
40800
(
(-0.0004384644 0 -0.00036264645)
(-0.00043813278 0 -0.0003009357)
(-0.0004380709 0 -0.00030125672)
(-0.00043840056 0 -0.00036428716)
(-0.00043806329 0 -0.00030124384)
(-0.00043839334 0 -0.00036430601)
(-0.00043804848 0 -0.00030123808)
(-0.00043837912 0 -0.00036433094)
(-0.00043802337 0 -0.00030123825)
(-0.0004383549 0 -0.00036436696)
(-0.00043798372 0 -0.00030124816)
(-0.00043831648 0 -0.00036441874)
(-0.00043792356 0 -0.00030127352)
(-0.00043825806 0 -0.00036449296)
(-0.00043783482 0 -0.00030132248)
(-0.00043817169 0 -0.00036459901)
(-0.00043770639 0 -0.00030140697)
(-0.00043804648 0 -0.00036475027)
(-0.00043752336 0 -0.00030154401)
(-0.00043786777 0 -0.00036496545)
(-0.00043726553 0 -0.00030175842)
(-0.00043761568 0 -0.00036527151)
(-0.00043690591 0 -0.00030208569)
(-0.00043726369 0 -0.00036570613)
(-0.00043640868 0 -0.00030257719)
(-0.00043677651 0 -0.00036632308)
(-0.00043572644 0 -0.00030330704)
(-0.00043610752 0 -0.00036719838)
(-0.00043479769 0 -0.00030438128)
(-0.00043519603 0 -0.0003684391)
(-0.0004335426 0 -0.0003059507)
(-0.00043396337 0 -0.00037019592)
(-0.00043186015 0 -0.00030822959)
(-0.00043230968 0 -0.00037268123)
(-0.00042962469 0 -0.00031150225)
(-0.00043011036 0 -0.00037617336)
(-0.00042668225 0 -0.00031616557)
(-0.00042721251 0 -0.00038106227)
(-0.00042284822 0 -0.00032277625)
(-0.00042343211 0 -0.00038789109)
(-0.00041790801 0 -0.00033207768)
(-0.00041855455 0 -0.00039737659)
(-0.00041162502 0 -0.0003450387)
(-0.00041234154 0 -0.00041045348)
(-0.00040375497 0 -0.00036287215)
(-0.00040454479 0 -0.00042829184)
(-0.00039406939 0 -0.00038702174)
(-0.00039492894 0 -0.00045228392)
(-0.00038238578 0 -0.00041908859)
(-0.00038330187 0 -0.00048397217)
(-0.00036860407 0 -0.00046066359)
(-0.00036955047 0 -0.00052489129)
(-0.00035275484 0 -0.00051302566)
(-0.00035369569 0 -0.00057625918)
(-0.00033499165 0 -0.00057698026)
(-0.00033587732 0 -0.00063886755)
(-0.00031562255 0 -0.00065224993)
(-0.00031640046 0 -0.00071243151)
(-0.00029508237 0 -0.00073711429)
(-0.00029571097 0 -0.00079519027)
(-0.000273743 0 -0.00082863898)
(-0.00027418899 0 -0.00088412732)
(-0.00025198148 0 -0.00092289703)
(-0.00025222992 0 -0.00097528027)
(-0.00023028556 0 -0.0010148563)
(-0.00023034573 0 -0.0010636141)
(-0.00020908663 0 -0.0010994318)
(-0.00020898229 0 -0.0011441274)
(-0.0001887843 0 -0.0011718349)
(-0.0001885582 0 -0.0012120933)
(-0.0001695674 0 -0.0012287183)
(-0.0001692557 0 -0.0012643649)
(-0.00015143105 0 -0.0012684498)
(-0.0001510584 0 -0.0012995034)
(-0.00013431401 0 -0.0012896863)
(-0.0001338901 0 -0.0013162692)
(-0.00011822014 0 -0.0012930817)
(-0.00011777575 0 -0.0013155794)
(-0.00010276871 0 -0.0012773438)
(-0.00010227098 0 -0.0012959641)
(-8.7789794e-05 0 -0.0012412192)
(-8.7241375e-05 0 -0.0012561201)
(-7.3622113e-05 0 -0.001185201)
(-7.3013762e-05 0 -0.0011964276)
(-6.1255805e-05 0 -0.0011189281)
(-6.0734697e-05 0 -0.001127959)
(-5.0046318e-05 0 -0.0010343857)
(-4.9554317e-05 0 -0.0010406686)
(-3.8531444e-05 0 -0.0009253976)
(-3.8035625e-05 0 -0.00092947124)
(-2.6891953e-05 0 -0.00078845963)
(-2.6327432e-05 0 -0.00078949724)
(-1.4863124e-05 0 -0.00061652921)
(-1.4200386e-05 0 -0.00061439545)
(-6.5703806e-06 0 -0.00045630955)
(-6.055481e-06 0 -0.00045389005)
(-1.4840418e-06 0 -0.00029964089)
(-1.1640885e-06 0 -0.00029819107)
(5.0218659e-06 0 -6.2604049e-05)
(5.5092253e-06 0 -5.533094e-05)
(0 0 0)
(0 0 0)
(-0.00043757127 0 -0.00024055433)
(-0.00043751038 0 -0.00024085363)
(-0.00043750218 0 -0.00024080309)
(-0.00043748657 0 -0.00024074795)
(-0.00043746042 0 -0.00024068946)
(-0.00043741937 0 -0.00024062981)
(-0.00043735734 0 -0.00024057253)
(-0.0004372661 0 -0.00024052347)
(-0.00043713433 0 -0.00024049177)
(-0.00043694682 0 -0.00024049131)
(-0.00043668297 0 -0.00024054361)
(-0.0004363154 0 -0.00024068036)
(-0.00043580762 0 -0.00024094927)
(-0.00043511165 0 -0.00024142055)
(-0.00043416507 0 -0.00024219616)
(-0.00043288713 0 -0.00024342488)
(-0.00043117598 0 -0.00024531287)
(-0.0004289048 0 -0.00024814814)
(-0.00042591863 0 -0.00025233357)
(-0.00042203199 0 -0.00025843078)
(-0.00041703069 0 -0.00026720425)
(-0.00041068005 0 -0.00027964932)
(-0.00040273972 0 -0.00029701637)
(-0.0003929879 0 -0.00032079815)
(-0.00038125104 0 -0.00035265753)
(-0.00036744246 0 -0.00039424872)
(-0.00035160109 0 -0.00044693328)
(-0.00033389506 0 -0.00051154389)
(-0.00031463632 0 -0.00058783206)
(-0.00029424635 0 -0.00067415746)
(-0.0002730917 0 -0.00076769743)
(-0.00025153483 0 -0.00086459321)
(-0.00023003922 0 -0.00095982307)
(-0.00020902026 0 -0.0010482494)
(-0.00018886037 0 -0.0011250031)
(-0.00016974766 0 -0.0011865831)
(-0.00015169355 0 -0.0012311091)
(-0.00013464566 0 -0.0012571421)
(-0.00011859776 0 -0.0012650484)
(-0.00010320985 0 -0.0012536221)
(-8.8317609e-05 0 -0.0012217721)
(-7.422555e-05 0 -0.0011699582)
(-6.1822258e-05 0 -0.0011066775)
(-5.0548748e-05 0 -0.0010249983)
(-3.9079664e-05 0 -0.00091915887)
(-2.7500346e-05 0 -0.00078540868)
(-1.5630398e-05 0 -0.00061785715)
(-7.2170347e-06 0 -0.00045857383)
(-1.8923865e-06 0 -0.00030105261)
(4.4425885e-06 0 -7.0530865e-05)
(0 0 0)
(-0.00043678499 0 -0.00018147471)
(-0.00043672576 0 -0.00018176168)
(-0.00043671689 0 -0.00018168362)
(-0.00043670034 0 -0.00018159326)
(-0.00043667283 0 -0.00018148742)
(-0.00043662986 0 -0.00018136552)
(-0.00043656525 0 -0.00018122904)
(-0.00043647055 0 -0.00018108193)
(-0.00043633423 0 -0.00018093087)
(-0.00043614077 0 -0.00018078746)
(-0.00043586921 0 -0.00018067065)
(-0.00043549166 0 -0.00018060946)
(-0.00043497099 0 -0.00018064897)
(-0.00043425854 0 -0.00018085571)
(-0.00043329082 0 -0.00018132926)
(-0.00043198622 0 -0.00018221256)
(-0.00043024185 0 -0.00018371052)
(-0.00042792974 0 -0.00018611105)
(-0.00042489382 0 -0.0001898211)
(-0.00042094785 0 -0.00019541557)
(-0.00041587818 0 -0.00020367511)
(-0.00040945231 0 -0.00021562269)
(-0.00040143434 0 -0.00023254698)
(-0.0003916098 0 -0.00025598936)
(-0.00037981515 0 -0.00028767159)
(-0.00036597779 0 -0.00032930713)
(-0.00035014669 0 -0.0003823291)
(-0.00033250451 0 -0.00044759041)
(-0.00031336733 0 -0.00052486487)
(-0.00029314363 0 -0.00061258289)
(-0.00027219235 0 -0.00070802446)
(-0.0002508611 0 -0.00080740052)
(-0.00022958909 0 -0.00090570665)
(-0.00020877412 0 -0.00099776798)
(-0.00018878111 0 -0.0010786498)
(-0.00016979608 0 -0.0011447139)
(-0.00015184379 0 -0.0011938575)
(-0.0001348813 0 -0.0012245339)
(-0.00011889477 0 -0.0012368493)
(-0.00010358074 0 -0.0012296576)
(-8.87814e-05 0 -0.0012020057)
(-7.4771e-05 0 -0.0011543163)
(-6.2346285e-05 0 -0.0010940721)
(-5.10227e-05 0 -0.0010152749)
(-3.9597897e-05 0 -0.00091254776)
(-2.8082148e-05 0 -0.00078198927)
(-1.6364884e-05 0 -0.00061870013)
(-7.8482695e-06 0 -0.0004605351)
(-2.3041052e-06 0 -0.00030242848)
(3.88618e-06 0 -7.7956243e-05)
(0 0 0)
(-0.00043578132 0 -0.00012366978)
(-0.00043572293 0 -0.00012391969)
(-0.00043571247 0 -0.00012378853)
(-0.00043569399 0 -0.00012363812)
(-0.00043566422 0 -0.00012346711)
(-0.00043561852 0 -0.00012327384)
(-0.00043555056 0 -0.00012305718)
(-0.00043545162 0 -0.00012281772)
(-0.00043530991 0 -0.00012255813)
(-0.00043510946 0 -0.00012228617)
(-0.00043482891 0 -0.00012201581)
(-0.00043443973 0 -0.00012177209)
(-0.00043390413 0 -0.00012159524)
(-0.0004331726 0 -0.00012154801)
(-0.00043218059 0 -0.00012172602)
(-0.00043084557 0 -0.00012227004)
(-0.00042906337 0 -0.0001233825)
(-0.00042670496 0 -0.00012535325)
(-0.00042361306 0 -0.00012859756)
(-0.00041960089 0 -0.00013370039)
(-0.00041445555 0 -0.00014146098)
(-0.00040794689 0 -0.00015293124)
(-0.00039984402 0 -0.00016943858)
(-0.00038994038 0 -0.00019257315)
(-0.00037808371 0 -0.00022411206)
(-0.00036421592 0 -0.00026582465)
(-0.000348398 0 -0.00031920319)
(-0.00033082665 0 -0.0003851137)
(-0.00031182203 0 -0.00046334856)
(-0.00029178049 0 -0.00055240096)
(-0.00027105075 0 -0.00064964325)
(-0.0002499653 0 -0.00075135367)
(-0.0002289391 0 -0.00085255141)
(-0.00020835093 0 -0.00094804001)
(-0.00018854816 0 -0.0010328319)
(-0.00016971323 0 -0.0011031699)
(-0.00015188197 0 -0.0011567509)
(-0.00013502083 0 -0.0011919145)
(-0.00011911079 0 -0.00120853)
(-0.00010388107 0 -0.0012054896)
(-8.9181159e-05 0 -0.0011819554)
(-7.5258537e-05 0 -0.0011383092)
(-6.2827226e-05 0 -0.0010811342)
(-5.1466939e-05 0 -0.0010052306)
(-4.0086185e-05 0 -0.00090558194)
(-2.8637332e-05 0 -0.00077821339)
(-1.7066884e-05 0 -0.00061907004)
(-8.4634848e-06 0 -0.00046219389)
(-2.7178015e-06 0 -0.000303753)
(3.3514888e-06 0 -8.4905437e-05)
(0 0 0)
(-0.00043456728 0 -6.7112937e-05)
(-0.00043450948 0 -6.7337424e-05)
(-0.00043449743 0 -6.7164254e-05)
(-0.00043447691 0 -6.6963478e-05)
(-0.00043444453 0 -6.6732123e-05)
(-0.00043439548 0 -6.6466847e-05)
(-0.00043432325 0 -6.6164887e-05)
(-0.00043421888 0 -6.5824857e-05)
(-0.00043407032 0 -6.5447425e-05)
(-0.00043386121 0 -6.503765e-05)
(-0.00043356972 0 -6.4606478e-05)
(-0.00043316671 0 -6.4175233e-05)
(-0.00043261366 0 -6.3779903e-05)
(-0.00043186014 0 -6.3478907e-05)
(-0.00043084049 0 -6.3363352e-05)
(-0.00042947095 0 -6.3570466e-05)
(-0.00042764618 0 -6.4301652e-05)
(-0.00042523585 0 -6.5849101e-05)
(-0.00042208157 0 -6.8634703e-05)
(-0.0004179962 0 -7.3255651e-05)
(-0.00041276775 0 -8.0532462e-05)
(-0.00040616872 0 -9.1547474e-05)
(-0.00039797373 0 -0.00010766697)
(-0.00038798482 0 -0.00013052916)
(-0.00037606214 0 -0.00016196318)
(-0.0003621628 0 -0.00020378994)
(-0.00034636142 0 -0.00025754893)
(-0.00032886815 0 -0.00032411359)
(-0.00031000721 0 -0.00040328972)
(-0.00029016337 0 -0.00049362583)
(-0.00026967294 0 -0.00059257681)
(-0.0002488527 0 -0.00069648486)
(-0.00022809336 0 -0.00080039916)
(-0.00020775371 0 -0.00089911419)
(-0.00018816324 0 -0.00098760381)
(-0.00016949988 0 -0.0010620067)
(-0.00015180825 0 -0.0011198428)
(-0.00013506417 0 -0.0011593341)
(-0.0001192453 0 -0.001180135)
(-0.0001041104 0 -0.0011811562)
(-8.9516654e-05 0 -0.0011616551)
(-7.5688129e-05 0 -0.0011219693)
(-6.3264244e-05 0 -0.0010678841)
(-5.1880167e-05 0 -0.00099488012)
(-4.0544441e-05 0 -0.00089827801)
(-2.9165751e-05 0 -0.00077409137)
(-1.7736933e-05 0 -0.00061898293)
(-9.0621585e-06 0 -0.00046355195)
(-3.1320967e-06 0 -0.00030501132)
(2.8374781e-06 0 -9.1401781e-05)
(0 0 0)
(-0.00043314807 0 -1.1778295e-05)
(-0.00043309077 0 -1.1979229e-05)
(-0.0004330766 0 -1.176619e-05)
(-0.00043305348 0 -1.1517528e-05)
(-0.00043301786 0 -1.1228119e-05)
(-0.00043296477 0 -1.0892651e-05)
(-0.00043288751 0 -1.0506335e-05)
(-0.00043277682 0 -1.0065679e-05)
(-0.00043262031 0 -9.5692124e-06)
(-0.00043240122 0 -9.0194508e-06)
(-0.00043209716 0 -8.4246328e-06)
(-0.00043167836 0 -7.8028958e-06)
(-0.00043110544 0 -7.1866705e-06)
(-0.00043032701 0 -6.630456e-06)
(-0.00042927624 0 -6.2213008e-06)
(-0.00042786803 0 -6.0927723e-06)
(-0.00042599569 0 -6.4448756e-06)
(-0.00042352758 0 -7.5724927e-06)
(-0.00042030435 0 -9.904851e-06)
(-0.00041613868 0 -1.4052519e-05)
(-0.00041081971 0 -2.0861419e-05)
(-0.00040412292 0 -3.144557e-05)
(-0.00039582876 0 -4.7209139e-05)
(-0.00038574871 0 -6.9837693e-05)
(-0.00037375652 0 -0.00010120892)
(-0.00035982504 0 -0.00014319109)
(-0.00034404424 0 -0.00019735976)
(-0.00032663705 0 -0.00026459007)
(-0.00030793096 0 -0.0003446934)
(-0.00028829992 0 -0.00043626741)
(-0.0002680661 0 -0.00053684332)
(-0.00024752965 0 -0.0006428218)
(-0.00022705707 0 -0.00074928649)
(-0.00020698632 0 -0.00085103514)
(-0.00018762899 0 -0.00094301545)
(-0.00016915749 0 -0.0010212776)
(-0.00015162347 0 -0.001083185)
(-0.00013501172 0 -0.0011268425)
(-0.00011929831 0 -0.0011517079)
(-0.00010426863 0 -0.0011566955)
(-8.9787977e-05 0 -0.0011411391)
(-7.6059889e-05 0 -0.0011053289)
(-6.3656742e-05 0 -0.0010543433)
(-5.2261322e-05 0 -0.00098423856)
(-4.097258e-05 0 -0.00089065222)
(-2.9667324e-05 0 -0.00076963491)
(-1.8375538e-05 0 -0.00061845455)
(-9.6438026e-06 0 -0.00046461129)
(-3.5457428e-06 0 -0.00030619051)
(2.343204e-06 0 -9.7466944e-05)
(0 0 0)
(-0.00043152978 0 4.2359373e-05)
(-0.00043147295 0 4.2185366e-05)
(-0.00043145634 0 4.2442916e-05)
(-0.00043143014 0 4.2745205e-05)
(-0.00043139067 0 4.3097867e-05)
(-0.0004313328 0 4.3507268e-05)
(-0.0004312496 0 4.3979544e-05)
(-0.00043113155 0 4.4520218e-05)
(-0.0004309659 0 4.5133207e-05)
(-0.0004307354 0 4.5819069e-05)
(-0.00043041709 0 4.657308e-05)
(-0.00042998045 0 4.7380976e-05)
(-0.00042938522 0 4.8214545e-05)
(-0.0004285789 0 4.9023385e-05)
(-0.00042749337 0 4.9724498e-05)
(-0.00042604212 0 5.0187311e-05)
(-0.00042411701 0 5.0212824e-05)
(-0.00042158509 0 4.9503586e-05)
(-0.00041828616 0 4.7621311e-05)
(-0.00041403291 0 4.3940314e-05)
(-0.00040861611 0 3.7582142e-05)
(-0.00040181425 0 2.7400416e-05)
(-0.00039341399 0 1.1957179e-05)
(-0.00038323727 0 -1.0480797e-05)
(-0.00037117245 0 -4.1836067e-05)
(-0.000357209 0 -8.4019605e-05)
(-0.00034145349 0 -0.00013863219)
(-0.00032414086 0 -0.00020654495)
(-0.00030560112 0 -0.00028756679)
(-0.00028619777 0 -0.00038033821)
(-0.00026623744 0 -0.00048246174)
(-0.00024600263 0 -0.00059039134)
(-0.00022583556 0 -0.00069924862)
(-0.00020605291 0 -0.00080384492)
(-0.00018694826 0 -0.00089911463)
(-0.00016868783 0 -0.00098103321)
(-0.0001513286 0 -0.0010468277)
(-0.000134864 0 -0.0010944877)
(-0.00011926986 0 -0.0011232919)
(-0.00010435575 0 -0.001132145)
(-8.9995201e-05 0 -0.0011204406)
(-7.6373972e-05 0 -0.0010884194)
(-6.4004136e-05 0 -0.0010405321)
(-5.2609404e-05 0 -0.00097332113)
(-4.137048e-05 0 -0.0008827204)
(-3.0141953e-05 0 -0.00076485519)
(-1.8983343e-05 0 -0.00061750312)
(-1.020803e-05 0 -0.00046537557)
(-3.9575375e-06 0 -0.00030727871)
(1.8678317e-06 0 -0.00010312085)
(0 0 0)
(-0.00042971876 0 9.5325077e-05)
(-0.00042966208 0 9.517613e-05)
(-0.00042964253 0 9.5475949e-05)
(-0.00042961269 0 9.5829103e-05)
(-0.00042956878 0 9.6242167e-05)
(-0.00042950549 0 9.6722934e-05)
(-0.00042941561 0 9.7279216e-05)
(-0.0004292893 0 9.7918787e-05)
(-0.00042911338 0 9.8648155e-05)
(-0.00042887008 0 9.9470909e-05)
(-0.00042853576 0 0.00010038569)
(-0.00042807913 0 0.0001013819)
(-0.00042745891 0 0.00010243518)
(-0.00042662146 0 0.00010349902)
(-0.00042549728 0 0.00010449412)
(-0.00042399834 0 0.00010529302)
(-0.00042201494 0 0.000105698)
(-0.00041941284 0 0.00010540886)
(-0.00041603132 0 0.00010397433)
(-0.00041168315 0 0.00010075557)
(-0.00040616149 0 9.48279e-05)
(-0.0003992476 0 8.5013786e-05)
(-0.0003907345 0 6.9852733e-05)
(-0.00038045604 0 4.7558466e-05)
(-0.0003683161 0 1.6168863e-05)
(-0.00035432164 0 -2.6265951e-05)
(-0.00033859682 0 -8.1360725e-05)
(-0.00032138793 0 -0.00014997484)
(-0.00030302642 0 -0.00023191073)
(-0.00028386553 0 -0.00032584585)
(-0.00026419504 0 -0.0004294462)
(-0.00024427891 0 -0.00053921523)
(-0.00022443498 0 -0.00065031508)
(-0.00020495831 0 -0.0007575806)
(-0.00018612458 0 -0.00085594425)
(-0.00016809319 0 -0.00094132058)
(-0.00015092514 0 -0.0010108182)
(-0.00013462194 0 -0.0010623159)
(-0.00011916039 0 -0.0010949286)
(-0.00010437198 0 -0.0011075415)
(-9.0138651e-05 0 -0.0010995931)
(-7.6630672e-05 0 -0.001071272)
(-6.430608e-05 0 -0.001026472)
(-5.2923653e-05 0 -0.00096214402)
(-4.1738071e-05 0 -0.00087449865)
(-3.0589607e-05 0 -0.00075976481)
(-1.9560942e-05 0 -0.00061614625)
(-1.0754457e-05 0 -0.00046584818)
(-4.3663702e-06 0 -0.0003082653)
(1.4105882e-06 0 -0.0001083823)
(0 0 0)
(-0.0004277213 0 0.0001471431)
(-0.00042766454 0 0.00014701745)
(-0.00042764195 0 0.00014735655)
(-0.00042760834 0 0.0001477562)
(-0.0004275597 0 0.00014822513)
(-0.00042749043 0 0.00014877331)
(-0.00042739306 0 0.00014941105)
(-0.00042725737 0 0.00015014857)
(-0.00042706973 0 0.00015099501)
(-0.00042681184 0 0.00015195672)
(-0.00042645938 0 0.00015303525)
(-0.00042598022 0 0.00015422325)
(-0.00042533205 0 0.00015549969)
(-0.00042445996 0 0.00015682163)
(-0.00042329298 0 0.00015811341)
(-0.0004217414 0 0.00015925081)
(-0.00041969385 0 0.00016003841)
(-0.00041701486 0 0.00016017616)
(-0.00041354374 0 0.00015918562)
(-0.00040909482 0 0.00015639504)
(-0.00040346178 0 0.00015087408)
(-0.00039642771 0 0.00014141579)
(-0.00038779501 0 0.00012649738)
(-0.00037741023 0 0.00010429485)
(-0.0003651933 0 7.2816401e-05)
(-0.00035116965 0 3.0076389e-05)
(-0.00033548175 0 -2.5542551e-05)
(-0.00031838639 0 -9.4881082e-05)
(-0.00030021548 0 -0.00017773035)
(-0.00028131176 0 -0.00027279962)
(-0.00026194703 0 -0.00037781072)
(-0.00024236584 0 -0.00048931353)
(-0.00022286155 0 -0.00060251324)
(-0.00020370753 0 -0.0007122762)
(-0.00018516169 0 -0.00081354426)
(-0.00016737614 0 -0.00090218342)
(-0.00015041475 0 -0.00097520125)
(-0.00013428661 0 -0.0010303711)
(-0.00011897041 0 -0.0010666583)
(-0.00010431765 0 -0.0010829205)
(-9.021865e-05 0 -0.0010786286)
(-7.6830323e-05 0 -0.0010539167)
(-6.4562255e-05 0 -0.0010121837)
(-5.3203342e-05 0 -0.00095072301)
(-4.2075218e-05 0 -0.00086600229)
(-3.1010223e-05 0 -0.00075437545)
(-2.0108944e-05 0 -0.00061440188)
(-1.1282779e-05 0 -0.00046603385)
(-4.7711845e-06 0 -0.00030914076)
(9.7079284e-07 0 -0.00011326868)
(0 0 0)
(-0.00042554243 0 0.00019783713)
(-0.00042548521 0 0.00019773385)
(-0.00042545904 0 0.0001981115)
(-0.00042542104 0 0.00019855709)
(-0.00042536695 0 0.00019908176)
(-0.00042529095 0 0.00019969769)
(-0.00042518519 0 0.00020041756)
(-0.00042503907 0 0.00020125391)
(-0.00042483846 0 0.00020221844)
(-0.00042456446 0 0.00020332012)
(-0.00042419201 0 0.00020456324)
(-0.00042368804 0 0.00020594349)
(-0.00042300914 0 0.00020744307)
(-0.000422099 0 0.00020902275)
(-0.00042088505 0 0.00021061078)
(-0.00041927566 0 0.00021208733)
(-0.00041715773 0 0.00021325955)
(-0.00041439636 0 0.00021380575)
(-0.00041083182 0 0.00021322051)
(-0.00040627757 0 0.00021080344)
(-0.00040052491 0 0.00020565832)
(-0.00039336209 0 0.00019655205)
(-0.00038460245 0 0.00018187363)
(-0.00037410548 0 0.00015974202)
(-0.00036181044 0 0.00012811777)
(-0.00034776039 0 8.501576e-05)
(-0.00033211646 0 2.8827573e-05)
(-0.00031514556 0 -4.1262114e-05)
(-0.00029717807 0 -0.00012502726)
(-0.00027854595 0 -0.0002212035)
(-0.00025950243 0 -0.00032756343)
(-0.0002402716 0 -0.00044070038)
(-0.00022112233 0 -0.00055586408)
(-0.00020230629 0 -0.0006679598)
(-0.00018406398 0 -0.00077194897)
(-0.00016653981 0 -0.00086366106)
(-0.00014979962 0 -0.00094001786)
(-0.00013385953 0 -0.00099869434)
(-0.00011870088 0 -0.0010385194)
(-0.0001041934 0 -0.0010583168)
(-9.0235796e-05 0 -0.001057579)
(-7.6973425e-05 0 -0.0010363835)
(-6.4772562e-05 0 -0.00099768911)
(-5.3447932e-05 0 -0.00093907468)
(-4.2381842e-05 0 -0.00085724688)
(-3.1403782e-05 0 -0.00074869971)
(-2.0627893e-05 0 -0.0006122872)
(-1.1792702e-05 0 -0.00046593727)
(-5.1709937e-06 0 -0.00030989651)
(5.478174e-07 0 -0.00011779631)
(0 0 0)
(-0.00042318703 0 0.00024743037)
(-0.00042312967 0 0.0002473532)
(-0.00042309942 0 0.00024777487)
(-0.00042305633 0 0.00024827359)
(-0.00042299595 0 0.00024886114)
(-0.00042291219 0 0.00024955085)
(-0.00042279691 0 0.00025035686)
(-0.00042263909 0 0.00025129372)
(-0.00042242412 0 0.00025237538)
(-0.00042213243 0 0.0002536137)
(-0.00042173814 0 0.0002550163)
(-0.00042120718 0 0.00025658251)
(-0.00042049482 0 0.00025829885)
(-0.00041954328 0 0.00026013048)
(-0.00041827799 0 0.00026201119)
(-0.00041660549 0 0.00026382483)
(-0.00041441303 0 0.0002653618)
(-0.0004115674 0 0.00026626079)
(-0.00040790615 0 0.00026602417)
(-0.00040323849 0 0.00026396444)
(-0.00039735707 0 0.00025916473)
(-0.00039005796 0 0.00025036147)
(-0.00038116349 0 0.00023592064)
(-0.00037054796 0 0.00021387821)
(-0.00035817362 0 0.00018208145)
(-0.00034410107 0 0.00013855661)
(-0.00032850919 0 8.1751073e-05)
(-0.00031167437 0 1.0880732e-05)
(-0.0002939236 0 -7.3804796e-05)
(-0.00027557755 0 -0.000171063)
(-0.00025687023 0 -0.00027871311)
(-0.00023800439 0 -0.00039338969)
(-0.00021922438 0 -0.00051038776)
(-0.00020076041 0 -0.00062465778)
(-0.00018283594 0 -0.00073119083)
(-0.0001655875 0 -0.00082579034)
(-0.00014908207 0 -0.00090530711)
(-0.00013334231 0 -0.00096732507)
(-0.00011835277 0 -0.0010105489)
(-0.00010399989 0 -0.001033764)
(-9.0190668e-05 0 -0.0010364749)
(-7.7060495e-05 0 -0.0010187011)
(-6.4936925e-05 0 -0.00098300904)
(-5.3656931e-05 0 -0.00092721518)
(-4.2657826e-05 0 -0.00084824727)
(-3.1770244e-05 0 -0.00074274945)
(-2.1118322e-05 0 -0.00060981918)
(-1.2283998e-05 0 -0.00046556411)
(-5.564876e-06 0 -0.00031052519)
(1.4111001e-07 0 -0.00012198054)
(0 0 0)
(-0.00042066198 0 0.00029594569)
(-0.00042060323 0 0.00029589363)
(-0.00042056832 0 0.00029635873)
(-0.00042051945 0 0.00029691027)
(-0.00042045201 0 0.00029756095)
(-0.00042035963 0 0.0002983252)
(-0.00042023386 0 0.00029921829)
(-0.00042006325 0 0.00030025648)
(-0.00041983262 0 0.00030145573)
(-0.00041952168 0 0.00030283059)
(-0.00041910371 0 0.00030439159)
(-0.00041854341 0 0.00030614207)
(-0.0004177947 0 0.00030807285)
(-0.00041679797 0 0.00031015463)
(-0.00041547663 0 0.00031232711)
(-0.00041373722 0 0.00031446588)
(-0.00041146906 0 0.00031632476)
(-0.00040853594 0 0.00031754364)
(-0.00040476964 0 0.00031764743)
(-0.00039997878 0 0.00031594299)
(-0.00039396044 0 0.00031146655)
(-0.00038651749 0 0.00030291629)
(-0.00037748249 0 0.00028864279)
(-0.00036674545 0 0.00026664925)
(-0.0003542907 0 0.0002346839)
(-0.00034019962 0 0.00019070517)
(-0.00032466865 0 0.000133233)
(-0.0003079822 0 6.1552714e-05)
(-0.00029046221 0 -2.4058644e-05)
(-0.00027241668 0 -0.00012237795)
(-0.00025406 0 -0.0002312634)
(-0.00023557292 0 -0.00034738992)
(-0.00021717525 0 -0.00046609862)
(-0.00019907613 0 -0.00058239092)
(-0.00018148253 0 -0.00069129679)
(-0.00016452288 0 -0.00078860365)
(-0.00014826479 0 -0.00087110408)
(-0.00013273688 0 -0.00093629953)
(-0.00011792738 0 -0.00098278165)
(-0.00010373806 0 -0.0010092946)
(-9.0084041e-05 0 -0.0010153464)
(-7.7092172e-05 0 -0.0010008978)
(-6.5055459e-05 0 -0.00096816516)
(-5.3830039e-05 0 -0.00091516148)
(-4.2903125e-05 0 -0.00083901881)
(-3.2109612e-05 0 -0.00073653747)
(-2.1580703e-05 0 -0.00060701413)
(-1.2756436e-05 0 -0.00046491989)
(-5.9519571e-06 0 -0.00031102005)
(-2.4984035e-07 0 -0.00012583571)
(0 0 0)
(-0.00041797053 0 0.0003434052)
(-0.00041791064 0 0.00034338655)
(-0.0004178703 0 0.00034390205)
(-0.00041781495 0 0.00034451119)
(-0.00041773979 0 0.0003452258)
(-0.00041763823 0 0.00034606149)
(-0.00041750133 0 0.00034703603)
(-0.00041731718 0 0.00034816827)
(-0.00041706989 0 0.00034947752)
(-0.00041673837 0 0.00035098191)
(-0.00041629484 0 0.00035269613)
(-0.00041570273 0 0.00035462748)
(-0.00041491449 0 0.000356771)
(-0.00041386851 0 0.00035910083)
(-0.00041248725 0 0.00036156083)
(-0.00041067919 0 0.00036399847)
(-0.00040833206 0 0.00036615821)
(-0.0004053033 0 0.00036770726)
(-0.00040142271 0 0.0003681584)
(-0.00039650019 0 0.0003667954)
(-0.0003903364 0 0.00036262312)
(-0.00038274203 0 0.00035429777)
(-0.00037356228 0 0.00034011775)
(-0.00036270384 0 0.00031806503)
(-0.00035016867 0 0.00028589992)
(-0.00033606284 0 0.00024146492)
(-0.00032060378 0 0.00018327498)
(-0.00030407873 0 0.00011075415)
(-0.00028680394 0 2.4211283e-05)
(-0.00026907342 0 -7.5149383e-05)
(-0.00025108136 0 -0.00018521766)
(-0.00023298591 0 -0.00030270821)
(-0.00021498255 0 -0.00042300923)
(-0.0001972598 0 -0.00054117759)
(-0.00018000879 0 -0.00065229136)
(-0.0001633498 0 -0.00075213034)
(-0.00014735058 0 -0.00083744143)
(-0.00013204527 0 -0.00090565176)
(-0.0001174261 0 -0.00095525082)
(-0.00010340887 0 -0.00098493905)
(-8.9916712e-05 0 -0.00099422197)
(-7.7069122e-05 0 -0.00098300068)
(-6.5128302e-05 0 -0.00095317826)
(-5.3966974e-05 0 -0.00090292992)
(-4.3117662e-05 0 -0.00082957608)
(-3.2421875e-05 0 -0.00073007575)
(-2.2015476e-05 0 -0.00060388777)
(-1.3209831e-05 0 -0.00046401077)
(-6.3314264e-06 0 -0.00031137554)
(-6.2547808e-07 0 -0.0001293753)
(0 0 0)
(-0.00041511926 0 0.00038983084)
(-0.00041505886 0 0.00038982482)
(-0.00041501391 0 0.00039036944)
(-0.00041495275 0 0.00039101539)
(-0.00041487012 0 0.00039177889)
(-0.00041475905 0 0.00039267809)
(-0.00041461014 0 0.00039373272)
(-0.00041441101 0 0.00039496344)
(-0.00041414507 0 0.00039639144)
(-0.00041379051 0 0.00039803669)
(-0.00041331849 0 0.00039991603)
(-0.00041269121 0 0.00040203948)
(-0.00041185956 0 0.00040440523)
(-0.00041076002 0 0.00040699184)
(-0.00040931603 0 0.00040972572)
(-0.00040743637 0 0.00041244445)
(-0.00040500371 0 0.00041491148)
(-0.00040187133 0 0.00041679232)
(-0.00039786848 0 0.00041758134)
(-0.00039280578 0 0.00041654518)
(-0.00038648801 0 0.00041265788)
(-0.00037873522 0 0.00040452641)
(-0.00036940624 0 0.00039039327)
(-0.00035842611 0 0.00036819485)
(-0.00034581422 0 0.00033573757)
(-0.00033170073 0 0.00029081395)
(-0.00031632432 0 0.00023188207)
(-0.00029997412 0 0.00015849045)
(-0.00028295941 0 7.101048e-05)
(-0.00026555842 0 -2.9373491e-05)
(-0.00024794439 0 -0.00014057381)
(-0.00023025255 0 -0.00025934609)
(-0.00021265428 0 -0.00038112623)
(-0.00019531816 0 -0.00050103037)
(-0.00017842018 0 -0.00061419341)
(-0.00016207247 0 -0.00071639506)
(-0.00014634262 0 -0.00080434742)
(-0.00013126986 0 -0.00087541219)
(-0.00011685059 0 -0.00092798687)
(-0.00010301356 0 -0.00096072689)
(-8.9689677e-05 0 -0.00097312954)
(-7.6992157e-05 0 -0.00096503632)
(-6.5155765e-05 0 -0.00093806957)
(-5.4067612e-05 0 -0.00089053742)
(-4.3301424e-05 0 -0.00081993395)
(-3.2707047e-05 0 -0.00072337687)
(-2.242303e-05 0 -0.00060045524)
(-1.3643993e-05 0 -0.00046284283)
(-6.7025088e-06 0 -0.00031158654)
(-9.8622385e-07 0 -0.00013261228)
(0 0 0)
(-0.00041211326 0 0.00043524382)
(-0.00041205105 0 0.00043526063)
(-0.00041200045 0 0.00043584479)
(-0.00041193237 0 0.00043653727)
(-0.00041184125 0 0.00043735582)
(-0.00041171973 0 0.00043832038)
(-0.00041155794 0 0.00043945285)
(-0.00041134289 0 0.00044077657)
(-0.00041105724 0 0.00044231554)
(-0.00041067824 0 0.00044409303)
(-0.00041017591 0 0.00044612916)
(-0.00040951104 0 0.00044843764)
(-0.00040863278 0 0.00045102012)
(-0.00040747665 0 0.00045385888)
(-0.00040596758 0 0.00045685589)
(-0.00040401181 0 0.00045984867)
(-0.00040148666 0 0.00046262018)
(-0.00039824331 0 0.00046482326)
(-0.00039410991 0 0.00046593955)
(-0.00038889813 0 0.00046521609)
(-0.00038241785 0 0.00046159542)
(-0.00037450025 0 0.00045362373)
(-0.00036501866 0 0.00043948506)
(-0.0003539168 0 0.00041707447)
(-0.000341236 0 0.00038420107)
(-0.00032712377 0 0.00033872651)
(-0.00031183935 0 0.00027905411)
(-0.00029567891 0 0.00020476182)
(-0.00027893935 0 0.00011634067)
(-0.00026188233 0 1.4952069e-05)
(-0.00024465915 0 -9.7330425e-05)
(-0.00022738196 0 -0.00021730528)
(-0.00021020004 0 -0.00034048303)
(-0.00019326125 0 -0.00046201935)
(-0.00017672507 0 -0.00057707803)
(-0.00016069746 0 -0.00068147265)
(-0.00014524591 0 -0.00077189341)
(-0.00013041385 0 -0.00084563197)
(-0.00011620258 0 -0.00090101902)
(-0.00010255337 0 -0.00093668589)
(-8.9403929e-05 0 -0.00095209549)
(-7.6862088e-05 0 -0.00094702998)
(-6.5138172e-05 0 -0.00092285941)
(-5.4131854e-05 0 -0.00087800023)
(-4.3454383e-05 0 -0.00081010665)
(-3.2965138e-05 0 -0.00071645271)
(-2.2803734e-05 0 -0.00059673118)
(-1.4058786e-05 0 -0.0004614228)
(-7.0644959e-06 0 -0.00031164907)
(-1.332431e-06 0 -0.00013555853)
(0 0 0)
(-0.00040895563 0 0.00047966501)
(-0.00040889205 0 0.000479705)
(-0.00040883528 0 0.00048032957)
(-0.00040875965 0 0.00048106997)
(-0.00040865926 0 0.00048194531)
(-0.00040852637 0 0.0004829771)
(-0.0004083506 0 0.00048418915)
(-0.00040811832 0 0.00048560701)
(-0.00040781143 0 0.00048725729)
(-0.00040740616 0 0.00048916629)
(-0.00040687132 0 0.00049135758)
(-0.00040616615 0 0.00049384887)
(-0.00040523795 0 0.00049664637)
(-0.000404023 0 0.00049971985)
(-0.00040244626 0 0.00050296689)
(-0.00040040897 0 0.00050623513)
(-0.00039778451 0 0.00050930457)
(-0.00039442249 0 0.00051182068)
(-0.00039014983 0 0.0005132538)
(-0.00038477982 0 0.00051282856)
(-0.00037813109 0 0.00050942735)
(-0.00037004596 0 0.00050154686)
(-0.00036041002 0 0.00048734403)
(-0.00034918578 0 0.0004646831)
(-0.00033644057 0 0.00043132268)
(-0.00032234107 0 0.00038520735)
(-0.0003071618 0 0.00032476665)
(-0.00029120466 0 0.00024957191)
(-0.00027475499 0 0.00016020941)
(-0.00025805625 0 5.7835265e-05)
(-0.00024123822 0 -5.5508483e-05)
(-0.00022438868 0 -0.00017664537)
(-0.00020763368 0 -0.00030115204)
(-0.00019110087 0 -0.00042422469)
(-0.00017493282 0 -0.00054102756)
(-0.0001592321 0 -0.00064744271)
(-0.00014406588 0 -0.0007401541)
(-0.00012948116 0 -0.0008163794)
(-0.00011548455 0 -0.00087439401)
(-0.00010202976 0 -0.00091284237)
(-8.9060632e-05 0 -0.00093114526)
(-7.6679849e-05 0 -0.00092900632)
(-6.5075998e-05 0 -0.00090756828)
(-5.4159762e-05 0 -0.00086533515)
(-4.3576595e-05 0 -0.00080010885)
(-3.3196192e-05 0 -0.0007093159)
(-2.3157914e-05 0 -0.0005927299)
(-1.4454049e-05 0 -0.00045975711)
(-7.4167027e-06 0 -0.00031155951)
(-1.6644421e-06 0 -0.00013822576)
(0 0 0)
(-0.00040565214 0 0.00052311473)
(-0.00040558632 0 0.00052317782)
(-0.00040552291 0 0.00052384289)
(-0.00040543913 0 0.00052463141)
(-0.00040532876 0 0.00052556385)
(-0.00040518362 0 0.00052666331)
(-0.00040499279 0 0.00052795545)
(-0.00040474198 0 0.00052946798)
(-0.00040441224 0 0.00053123)
(-0.00040397876 0 0.00053327066)
(-0.00040340901 0 0.00053561675)
(-0.00040266055 0 0.00053828969)
(-0.00040167968 0 0.00054130018)
(-0.00040040401 0 0.0005445979)
(-0.00039875578 0 0.00054808394)
(-0.00039663091 0 0.00055162316)
(-0.00039390045 0 0.00055498372)
(-0.00039041177 0 0.00055780368)
(-0.00038599069 0 0.00055954403)
(-0.00038045628 0 0.00055937967)
(-0.00037363791 0 0.0005561146)
(-0.00036538348 0 0.00054824072)
(-0.0003555906 0 0.00053390784)
(-0.00034424332 0 0.00051095947)
(-0.00033143605 0 0.00047710168)