/*--------------------------------*- C++ -*----------------------------------*\
  =========                 |
  \\      /  F ield         | OpenFOAM: The Open Source CFD Toolbox
   \\    /   O peration     | Website:  https://openfoam.org
    \\  /    A nd           | Version:  8
     \\/     M anipulation  |
\*---------------------------------------------------------------------------*/
FoamFile
{
    version     2.0;
    format      ascii;
    class       volScalarField;
    location    "0.0699881";
    object      rho;
}
// * * * * * * * * * * * * * * * * * * * * * * * * * * * * * * * * * * * * * //

dimensions      [1 -3 0 0 0 0 0];

internalField   nonuniform List<scalar> 
20000
(
0.96707009
0.96837249
0.97269826
0.98171898
0.99940301
1.0232514
1.026345
1.0280595
1.0268964
1.0282688
1.0279643
1.0293552
1.0297528
1.031416
1.0325454
1.0347339
1.0367569
1.0397568
1.0429328
1.0470495
1.0516245
1.0571436
1.0635077
1.0711929
1.0796361
1.0889993
1.0989095
1.1092368
1.1195187
1.1293619
1.1383889
1.1463455
1.1530861
1.1585958
1.1629414
1.1662324
1.1685933
1.1703942
1.1717078
1.172419
1.1727016
1.1727883
1.1726868
1.1721727
1.1714902
1.1697622
1.1682388
1.167465
1.1672153
1.1673053
0.96418741
0.96590698
0.9706376
0.98023057
0.99935815
1.0222048
1.024022
1.025838
1.0247094
1.0261375
1.0258662
1.0273125
1.0277473
1.0294726
1.0306587
1.0329298
1.0350418
1.0381438
1.0414201
1.0456314
1.0503308
1.0560701
1.0628111
1.0708103
1.0795885
1.0891044
1.0992876
1.1097942
1.1201991
1.1300865
1.1390874
1.1469668
1.1536051
1.1590088
1.163259
1.1664607
1.1687638
1.1705821
1.1718185
1.1724768
1.172746
1.1728239
1.1727025
1.172212
1.1714318
1.1696008
1.1681926
1.1674816
1.1672246
1.1673174
0.9618269
0.96395795
0.9691296
0.97931925
0.99999922
1.0213876
1.0220822
1.0239087
1.022771
1.0242338
1.0239699
1.0254608
1.025926
1.0277114
1.0289555
1.0313053
1.033497
1.0366808
1.0400451
1.0443667
1.0492741
1.0554245
1.0625796
1.0707898
1.0796587
1.0894679
1.0998739
1.1105672
1.121078
1.1309867
1.1399355
1.1477108
1.1542211
1.1594964
1.1636313
1.166729
1.1689758
1.1707992
1.1719676
1.1725612
1.1728063
1.1728829
1.1727307
1.1722427
1.171325
1.1693656
1.1681214
1.1675023
1.1672826
1.1673264
0.95945059
0.96208998
0.96772728
0.97849087
1.000678
1.0203983
1.0201998
1.0220818
1.0209568
1.0224695
1.0222299
1.0237766
1.0242811
1.0261327
1.0274377
1.0298624
1.0321222
1.0353812
1.0388642
1.0433881
1.0487011
1.0551868
1.0625196
1.0708046
1.0800272
1.0901063
1.1007611
1.1116213
1.1222124
1.1321093
1.1409701
1.1486067
1.1549578
1.1600778
1.1640727
1.1670493
1.1692433
1.1710215
1.1721062
1.1726472
1.1728687
1.1729364
1.1727655
1.172254
1.1711439
1.1692289
1.1680821
1.1675194
1.1673014
1.1673358
0.95746147
0.96055172
0.96666978
0.97801641
1.0015855
1.0194196
1.0185509
1.0204742
1.0193555
1.0209147
1.0206958
1.0222968
1.0228409
1.0247562
1.0261169
1.0286083
1.0309389
1.0343046
1.0379963
1.0429062
1.0484887
1.0551369
1.0625791
1.0711706
1.0806689
1.0910364
1.1019202
1.1129314
1.1235748
1.1334267
1.142165
1.1496309
1.1557946
1.1607355
1.1645688
1.1674116
1.1695558
1.1712527
1.172254
1.1727384
1.1729355
1.1729967
1.1728111
1.1722578
1.17093
1.1691002
1.1680457
1.1675284
1.1673235
1.1673442
0.95555642
0.95919087
0.96585114
0.977836
1.002585
1.0184587
1.0170844
1.0190573
1.0179472
1.0195584
1.0193616
1.0210188
1.0216076
1.0235844
1.0249988
1.0275697
1.0300245
1.0336393
1.0376465
1.0427333
1.048452
1.0552108
1.0629472
1.0718032
1.0816199
1.0922659
1.1033718
1.1145102
1.1251737
1.1349438
1.1435228
1.1507843
1.1567321
1.1614701
1.1651198
1.1678166
1.1699053
1.171494
1.1724039
1.1728332
1.1730046
1.173058
1.1728655
1.172256
1.1707079
1.168995
1.1680152
1.167532
1.167336
1.1673519
0.95402809
0.95815342
0.96538098
0.97807068
1.0036924
1.017606
1.0158559
1.0178772
1.0167631
1.0184309
1.018241
1.0199489
1.0205962
1.0226412
1.0241288
1.0268492
1.0295531
1.0333797
1.0375293
1.0427122
1.0485612
1.0555895
1.0635927
1.0727599
1.0828803
1.0938023
1.1051117
1.1163501
1.126998
1.1366475
1.1450299
1.1520545
1.1577597
1.1622722
1.1657186
1.1682596
1.1702829
1.1717481
1.1725655
1.1729338
1.1730776
1.1731221
1.1729248
1.1722432
1.1704946
1.1688951
1.1679868
1.1675341
1.1673466
1.1673584
0.9526849
0.95733727
0.96519509
0.97871275
1.0048368
1.0168953
1.0148388
1.0169424
1.0158027
1.0175444
1.0173596
1.0191326
1.0198424
1.0219987
1.0236541
1.0265535
1.029381
1.0333136
1.0375331
1.0428629
1.0489599
1.0562392
1.0645497
1.0740268
1.0844607
1.0956488
1.1071421
1.1184484
1.1290416
1.1385298
1.1466778
1.1534336
1.1588706
1.163136
1.1663611
1.1687402
1.1706823
1.1720124
1.1727363
1.1730431
1.1731568
1.1731871
1.1729794
1.1722006
1.170297
1.1688061
1.1679611
1.1675355
1.1673531
1.167364
0.95166002
0.956807
0.96532013
0.97981743
1.0059991
1.0163719
1.0140984
1.0162721
1.0151207
1.0169028
1.0167953
1.0186684
1.0194486
1.0217275
1.023474
1.0264596
1.0293512
1.0333397
1.037743
1.0432869
1.0496285
1.0571958
1.0658184
1.0756206
1.0863643
1.097807
1.1094583
1.1207963
1.1312925
1.1405774
1.1484537
1.15491
1.1600546
1.1640525
1.1670416
1.1692591
1.1710965
1.1722833
1.1729087
1.1731589
1.1732467
1.1732529
1.1730132
1.1721217
1.1701199
1.1687261
1.167938
1.1675367
1.1673582
1.1673685
0.95081254
0.95647555
0.96566858
0.98132679
1.0070611
1.0159916
1.0136152
1.0157959
1.0147237
1.0165397
1.016539
1.0184788
1.0192939
1.0216391
1.0234342
1.0264608
1.0294558
1.0336175
1.0382094
1.0439772
1.0505936
1.0584573
1.0674094
1.0775418
1.0885941
1.1002751
1.1120548
1.123384
1.1337386
1.1427774
1.150345
1.1564724
1.1613019
1.1650129
1.1677551
1.169818
1.171518
1.1725572
1.1730828
1.1732786
1.1733484
1.1733217
1.173027
1.1720014
1.1699654
1.1686563
1.1679175
1.1675377
1.1673626
1.1673721
0.95021038
0.95636358
0.96623164
0.98322384
1.0080738
1.0157618
1.0133207
1.0155403
1.0145298
1.0164227
1.0164317
1.018426
1.0192579
1.0216354
1.0234966
1.0266504
1.0298014
1.0341301
1.0389424
1.0449556
1.0518585
1.0600368
1.0693281
1.0797964
1.0911501
1.1030488
1.1149216
1.1261979
1.1363642
1.145114
1.1523369
1.158108
1.1626013
1.1660078
1.1684969
1.1704143
1.171941
1.1728308
1.1732568
1.1734024
1.1734575
1.1733976
1.1730314
1.1718415
1.1698322
1.1685954
1.1678995
1.1675378
1.1673657
1.1673748
0.94977137
0.95643203
0.96698779
0.98549131
1.0090415
1.0157031
1.0132178
1.0155003
1.0144717
1.0164226
1.0163968
1.0184406
1.0193167
1.0217986
1.0237816
1.0270701
1.0303891
1.0349115
1.0399545
1.0462259
1.0534324
1.0619376
1.0715788
1.082385
1.0940304
1.1061212
1.1180478
1.1292235
1.1391535
1.1475712
1.1544146
1.1598035
1.1639411
1.1670286
1.1692637
1.1710353
1.1723652
1.1731019
1.1734315
1.1735307
1.1735704
1.1734844
1.173031
1.1716514
1.1697147
1.1685414
1.167884
1.1675387
1.1673686
1.1673766
0.94952635
0.95669548
0.96793186
0.98805601
1.0099193
1.0157345
1.0131811
1.0154519
1.0144517
1.0163999
1.0164638
1.0186016
1.0195906
1.0221919
1.0243035
1.0277418
1.0312415
1.0359632
1.0412527
1.0477973
1.0553209
1.064166
1.0741646
1.085308
1.09723
1.1094822
1.1214182
1.132443
1.1420875
1.1501303
1.1565612
1.1615446
1.1653095
1.1680681
1.1700554
1.1716688
1.1727858
1.1733684
1.1736069
1.1736647
1.1736832
1.1735794
1.173028
1.1714487
1.1696021
1.1684927
1.1678717
1.1675408
1.167372
1.1673776
0.94936503
0.95708049
0.96901776
0.99086089
1.0107041
1.0158699
1.0132945
1.0156709
1.0146693
1.0167394
1.0168019
1.0190062
1.0201234
1.02284
1.0250836
1.0286728
1.0323608
1.0372945
1.0428424
1.0496734
1.0575278
1.0667243
1.0770864
1.0885631
1.1007424
1.1131202
1.1250173
1.1358383
1.1451467
1.1527724
1.1587599
1.1633176
1.1666956
1.1691213
1.170873
1.1722998
1.1731978
1.1736294
1.1737841
1.173805
1.1737917
1.1736765
1.1730056
1.1712409
1.1694923
1.1684486
1.1678632
1.1675463
1.1673767
1.1673778
0.94947439
0.95775387
0.97042117
0.99397662
1.0115564
1.0161903
1.013654
1.0161353
1.0151423
1.0173287
1.0173951
1.01972
1.0209067
1.0237352
1.0261158
1.0298635
1.0337514
1.0389072
1.0447273
1.0518582
1.0600566
1.0696147
1.0803441
1.0921457
1.1045577
1.1170195
1.1288252
1.1393869
1.1483081
1.1554758
1.1609931
1.1651089
1.1680899
1.1701847
1.1717134
1.172913
1.1735963
1.1738864
1.1739688
1.1739449
1.1738952
1.1737613
1.1729597
1.1710335
1.1693854
1.1684085
1.1678604
1.1675559
1.1673837
1.1673771
0.94984937
0.95870208
0.97214126
0.99732651
1.0125019
1.016741
1.0142758
1.0167551
1.0158756
1.0180612
1.0182456
1.0206366
1.0219232
1.0248729
1.0274004
1.0313155
1.0354141
1.0408036
1.046909
1.0543534
1.0629085
1.0728377
1.0839359
1.0960504
1.1086653
1.1211647
1.1328224
1.1430665
1.1515485
1.1582204
1.1632457
1.166907
1.1694853
1.1712558
1.1725584
1.1735016
1.1739802
1.1741442
1.1741616
1.1740813
1.173994
1.173805
1.1728828
1.1708308
1.1692823
1.1683715
1.1678602
1.1675691
1.1673944
1.1673753
0.95040646
0.95986073
0.97414312
1.0007952
1.0135146
1.0175885
1.015126
1.017661
1.016794
1.0190556
1.0193001
1.0217884
1.0231761
1.0262532
1.0289376
1.0330285
1.0373498
1.042985
1.0493892
1.0571607
1.0660848
1.076393
1.0878583
1.1002687
1.1130504
1.1255353
1.1369841
1.1468498
1.1548423
1.1609874
1.1655046
1.1687013
1.170875
1.1723299
1.173384
1.1740619
1.1743531
1.1744118
1.1743519
1.1742156
1.1740917
1.173824
1.1727678
1.1706365
1.1691839
1.1683368
1.1678613
1.1675834
1.1674092
1.1673721
0.95118577
0.96125838
0.97647463
1.0043074
1.0146229
1.0186166
1.0161603
1.0187462
1.0179087
1.0202338
1.0205747
1.023165
1.0246645
1.0278759
1.0307267
1.0350028
1.0395583
1.0454512
1.0521679
1.0602806
1.0695856
1.0802798
1.0921073
1.104792
1.1176985
1.1301114
1.1412855
1.1507101
1.1581683
1.1637645
1.1677606
1.1704823
1.172251
1.1733954
1.1741708
1.1745951
1.1747281
1.1746793
1.1745372
1.1743493
1.1741948
1.1738294
1.172607
1.1704542
1.1690901
1.1683035
1.167863
1.1676002
1.1674208
1.1673675
0.9521701
0.96286564
0.97913316
1.0077667
1.0158303
1.0198225
1.0173768
1.0200492
1.0192346
1.0216716
1.0220751
1.0247717
1.0263888
1.0297398
1.0327668
1.0372365
1.0420386
1.0482021
1.055246
1.0637138
1.0734114
1.0844958
1.0966766
1.1096072
1.1225902
1.1348666
1.1456962
1.1546192
1.161509
1.1665426
1.1700031
1.1722371
1.1736012
1.1744287
1.174914
1.1751124
1.1751063
1.174938
1.1747148
1.1744828
1.17431
1.1738281
1.1723982
1.1702852
1.1689999
1.1682715
1.167867
1.1676241
1.1674271
1.1673615
0.95337931
0.9646959
0.98214352
1.0112926
1.0173011
1.0212469
1.018805
1.0215625
1.0207762
1.0233119
1.0237965
1.0266028
1.028345
1.0318418
1.035055
1.0397284
1.0447898
1.0512375
1.0586236
1.0674613
1.0775623
1.0890394
1.1015601
1.1147024
1.127706
1.1397751
1.1501873
1.1585562
1.1648565
1.1693133
1.1722149
1.1739488
1.174911
1.1754108
1.1756219
1.1756304
1.1754707
1.1751862
1.174883
1.174615
1.1744369
1.1738223
1.1721545
1.1701224
1.1689122
1.1682418
1.1678749
1.1676534
1.167431
1.1673543
0.95484129
0.96676291
0.98551119
1.0148302
1.0188634
1.022873
1.020434
1.0232834
1.0225364
1.0251691
1.0257342
1.0286539
1.0305294
1.0341788
1.0375892
1.0424763
1.047811
1.0545579
1.0623021
1.0715244
1.0820381
1.0939066
1.1067482
1.1200601
1.1330201
1.1448045
1.1547286
1.1625065
1.168204
1.1720519
1.1743637
1.1755989
1.1761663
1.1763477
1.1763172
1.1761275
1.1758211
1.1754219
1.17504
1.1747426
1.17456
1.1737896
1.1718925
1.1699616
1.1688283
1.1682148
1.1678867
1.1676871
1.1674338
1.167346
0.95652566
0.9690371
0.98919607
1.0183522
1.0206206
1.0246922
1.0222598
1.0252012
1.0245038
1.0272276
1.0278816
1.0309204
1.0329386
1.0367479
1.040367
1.0454798
1.0511025
1.0581646
1.0662837
1.0759049
1.0868394
1.0990946
1.1122321
1.1256632
1.1385069
1.1499248
1.159299
1.1664659
1.1715348
1.1747171
1.1764283
1.1771766
1.1773697
1.1772622
1.1769787
1.1766038
1.1761538
1.1756437
1.1751861
1.1748619
1.1746441
1.1737288
1.1716241
1.1698068
1.1687523
1.1681901
1.1679012
1.1677232
1.1674361
1.1673367
0.958502
0.97156499
0.99321019
1.0218988
1.0225517
1.0267014
1.0242765
1.0273082
1.0266635
1.0294859
1.0302368
1.0333997
1.0355704
1.039547
1.0433875
1.0487387
1.054666
1.0620607
1.0705712
1.0806052
1.0919651
1.1045974
1.1179973
1.1314876
1.144133
1.1551036
1.1638839
1.1704246
1.174798
1.1772806
1.1783916
1.1786935
1.1785377
1.1781283
1.1776099
1.1770548
1.1764675
1.1758487
1.1753241
1.1749727
1.1746789
1.1736308
1.1713611
1.169664
1.1686911
1.16818
1.1679156
1.1677565
1.1674384
1.1673264
0.96068682
0.97425558
0.99745763
1.0253639
1.0246393
1.0288806
1.0264826
1.0296039
1.0290177
1.0319437
1.0327973
1.0360897
1.0384219
1.0425748
1.0466509
1.0522553
1.0585046
1.06625
1.0751685
1.0856278
1.0974157
1.1104102
1.1240306
1.1375096
1.1498682
1.1603183
1.1684799
1.1743468
1.1779526
1.1797178
1.1802701
1.180165
1.1796443
1.1789506
1.1782054
1.1774802
1.1767603
1.1760339
1.175458
1.1750806
1.1746908
1.1734862
1.1711156
1.1695381
1.1686443
1.1681767
1.1679262
1.1677732
1.1674408
1.1673155
0.96317746
0.97721761
1.0020006
1.0288152
1.0269265
1.0312556
1.0288833
1.0320893
1.0315667
1.0345959
1.0355599
1.0389861
1.0414921
1.0458323
1.0501599
1.0560336
1.0626233
1.0707373
1.0800799
1.0909747
1.1031888
1.1165226
1.1303109
1.1436965
1.1556783
1.1655517
1.1730758
1.1781715
1.1809596
1.1820301
1.1820981
1.1815571
1.1806922
1.1797232
1.1787648
1.1778786
1.1770304
1.1761986
1.1755897
1.1751958
1.1746917
1.1732845
1.170897
1.1694295
1.1686081
1.1681769
1.1679352
1.1677823
1.1674432
1.167304
0.96590181
0.98039596
1.0067259
1.0322078
1.0293729
1.0337988
1.0314569
1.0347536
1.0342991
1.0374375
1.0385212
1.0420893
1.0447836
1.0493237
1.0539199
1.0600793
1.0670277
1.0755284
1.0853101
1.0966491
1.1092835
1.1229256
1.1368176
1.1500185
1.1615384
1.1707988
1.1776247
1.181854
1.1838003
1.1842661
1.1838362
1.1828743
1.1816756
1.1804462
1.1792868
1.1782492
1.1772754
1.1763432
1.1757187
1.175322
1.1746888
1.1730223
1.1707089
1.1693347
1.1685785
1.1681782
1.167949
1.1677868
1.1674456
1.167292
0.96887324
0.98382198
1.0116026
1.0355682
1.0319956
1.0365116
1.0342049
1.0375977
1.0372163
1.0404693
1.0416845
1.0454047
1.0483027
1.0530556
1.0579367
1.0643987
1.0717239
1.0806294
1.0908638
1.1026525
1.1156941
1.1296026
1.1435202
1.15644
1.1674255
1.1760484
1.1820572
1.1853526
1.1865052
1.186414
1.1854779
1.1841087
1.1825937
1.1811179
1.1797709
1.1785898
1.1774925
1.176474
1.1758384
1.1754442
1.1746498
1.1727295
1.1705294
1.1692478
1.1685554
1.1681908
1.1679793
1.1677894
1.1674482
1.1672794
0.97211524
0.98753664
1.0165945
1.0389316
1.0347923
1.0393973
1.0371271
1.0406159
1.0403215
1.0436971
1.0450588
1.0489405
1.0520569
1.0570341
1.0622163
1.068998
1.0767188
1.0860469
1.0967466
1.1089873
1.1224163
1.136537
1.1503905
1.1629331
1.17333
1.1812555
1.1863199
1.1886468
1.1891222
1.1884441
1.1870173
1.1852603
1.1834453
1.1817387
1.1802163
1.1788977
1.1776797
1.1765992
1.1759412
1.1755216
1.1745786
1.1724204
1.1703552
1.1691672
1.1685371
1.1682107
1.1680223
1.1677913
1.1674471
1.1672667
0.97557519
0.99151787
1.0216237
1.0422977
1.0377445
1.0424492
1.0402257
1.0438254
1.0436274
1.0471353
1.0486539
1.0527035
1.0560508
1.0612641
1.0667647
1.0738847
1.0820203
1.091788
1.1029631
1.1156526
1.1294385
1.1437024
1.157392
1.1694695
1.1792409
1.1863427
1.1903682
1.1917819
1.1916204
1.190351
1.188452
1.1863269
1.1842302
1.1823083
1.1806218
1.1791701
1.1778407
1.176717
1.1760303
1.1755559
1.1744708
1.1721093
1.1701897
1.1690947
1.1685208
1.1682313
1.1680673
1.1677931
1.1674427
1.1672536
0.97926458
0.99581675
1.0266983
1.0457235
1.0408875
1.0456996
1.043531
1.0472442
1.0471479
1.0507879
1.0524719
1.0566949
1.0602874
1.0657512
1.0715892
1.0790676
1.0876368
1.0978604
1.1095185
1.1226484
1.1367488
1.1510734
1.164495
1.1760327
1.1851282
1.1912411
1.194175
1.1948069
1.1939723
1.1921299
1.1897808
1.187309
1.1849491
1.1828272
1.1809863
1.1794072
1.1779795
1.1768238
1.1761188
1.1755683
1.1743208
1.1718113
1.1700397
1.1690353
1.1685108
1.1682451
1.168088
1.1677952
1.1674352
1.1672404
0.98322118
1.0004679
1.0318175
1.0492667
1.0442435
1.0491596
1.047046
1.0508656
1.0508762
1.054649
1.0565104
1.0609171
1.0647725
1.0705036
1.0766996
1.0845561
1.0935774
1.1042712
1.1164167
1.1299684
1.1443263
1.1586141
1.1716672
1.1826075
1.1909082
1.1959032
1.1977854
1.1976881
1.1961714
1.1937787
1.1910033
1.188207
1.1856029
1.1832951
1.1813089
1.1796137
1.178107
1.1769253
1.176208
1.1755712
1.1741165
1.1715442
1.1699109
1.1689908
1.1685091
1.1682535
1.1680998
1.167797
1.1674258
1.167227
0.98744656
1.005468
1.0369527
1.0529919
1.0477811
1.0527961
1.0507445
1.0546722
1.0548045
1.0587181
1.0607757
1.0653786
1.0695164
1.0755324
1.0821057
1.0903605
1.0998514
1.1110288
1.1236612
1.1376068
1.1521494
1.1662945
1.1788859
1.1891797
1.1964988
1.2002902
1.2012512
1.2003968
1.198214
1.1952972
1.1921209
1.1890229
1.1861926
1.1837116
1.1815914
1.1797997
1.1782345
1.1770207
1.1762853
1.175559
1.1738523
1.1713195
1.1698046
1.1689593
1.168511
1.1682598
1.1681057
1.1677966
1.1674148
1.1672137
0.99190113
1.0107852
1.0420383
1.0568512
1.0514828
1.0566037
1.0546279
1.0586733
1.0589437
1.0630099
1.0652805
1.0700915
1.07453
1.0808478
1.0878183
1.0964914
1.1064685
1.1181402
1.1312522
1.1455483
1.1601863
1.1740783
1.186127
1.1956754
1.2018403
1.2044301
1.2045544
1.2029203
1.2000984
1.1966858
1.1931354
1.1897585
1.1867189
1.1840768
1.1818391
1.1799749
1.1783561
1.1771005
1.1763184
1.1755059
1.173546
1.1711292
1.1697158
1.1689368
1.168518
1.1682705
1.1681092
1.1677911
1.1674028
1.1672005
0.99659863
1.0164257
1.0470781
1.0606232
1.0553734
1.060609
1.0587213
1.0628928
1.063312
1.067537
1.0700355
1.0750655
1.0798228
1.0864604
1.0938482
1.1029598
1.1134391
1.1256132
1.1391887
1.153777
1.1684071
1.1819395
1.1933769
1.202008
1.2068825
1.2083773
1.207662
1.2052569
1.2018253
1.1979474
1.19405
1.190416
1.1871822
1.1843934
1.1820607
1.180137
1.1784287
1.1771427
1.1763357
1.1754147
1.1732275
1.1709562
1.1696382
1.168915
1.1685208
1.168291
1.1681118
1.1677808
1.1673899
1.1671877
1.0015493
1.0223907
1.0521493
1.0648038
1.0594823
1.0648317
1.0630402
1.0673379
1.0679178
1.0723052
1.0750482
1.0803092
1.0854045
1.0923816
1.1002073
1.1097775
1.1207734
1.1334526
1.1474623
1.1622655
1.1767744
1.1898467
1.2005963
1.2080867
1.2116156
1.2121491
1.210549
1.2074042
1.2033963
1.1990848
1.1948674
1.1909961
1.1875834
1.1846684
1.1822645
1.1802583
1.1784616
1.1771645
1.1763428
1.175287
1.1729108
1.1707953
1.1695687
1.168894
1.1685211
1.1683093
1.1681143
1.1677661
1.1673763
1.1671753
1.0068283
1.028672
1.0572356
1.0691403
1.0638045
1.0692694
1.0675831
1.0720066
1.0727637
1.0773205
1.0803267
1.0858326
1.0912864
1.0986237
1.1069083
1.1169574
1.1284827
1.141663
1.1560628
1.1709869
1.1852582
1.1977784
1.2076924
1.2138604
1.2160935
1.2157043
1.2132166
1.2093643
1.2048157
1.2001027
1.1955903
1.1914997
1.1879269
1.184913
1.1824491
1.1803089
1.1784751
1.1771749
1.1763468
1.1751267
1.1726054
1.1706458
1.1695062
1.168876
1.168523
1.1683182
1.1681165
1.1677481
1.1673624
1.1671634
1.0124109
1.0352273
1.0623564
1.0736813
1.0683408
1.0739226
1.0723502
1.0769072
1.077857
1.0825927
1.0858819
1.0916471
1.0974813
1.1052008
1.1139659
1.1245135
1.1365773
1.1502432
1.1649695
1.1799035
1.193822
1.2057063
1.2145595
1.2192721
1.2203785
1.2190037
1.2156612
1.2111397
1.2060877
1.2010045
1.1962199
1.1919289
1.188222
1.185137
1.1825877
1.1803303
1.1784811
1.1771815
1.1763345
1.1749355
1.1723207
1.1705093
1.1694509
1.1688604
1.1685243
1.1683238
1.1681167
1.1677277
1.1673481
1.1671521
1.0182421
1.0420335
1.067544
1.0784043
1.0730858
1.0787961
1.0773493
1.082051
1.083208
1.0881331
1.0917241
1.0977661
1.104003
1.1121283
1.1213957
1.1324606
1.1450671
1.1591897
1.1741605
1.1889831
1.2024362
1.2135677
1.2211186
1.2243686
1.2244254
1.2220476
1.2178861
1.2127359
1.2072179
1.2017933
1.1967585
1.1922924
1.1884832
1.1853365
1.1826458
1.1803367
1.1784832
1.1771864
1.1762963
1.1747125
1.1720657
1.1703884
1.1694024
1.1688456
1.1685227
1.1683275
1.1681114
1.1677058
1.1673339
1.1671415
1.0243365
1.0490813
1.072832
1.0833435
1.0780644
1.0839073
1.0825966
1.087448
1.0888285
1.093951
1.0978663
1.1042041
1.110868
1.1194245
1.1292151
1.1408137
1.1539569
1.1684888
1.1836007
1.1981877
1.2110667
1.2212496
1.2273019
1.2292023
1.2281985
1.2248314
1.219894
1.2141582
1.2082102
1.2024711
1.1972125
1.192606
1.1887209
1.1854749
1.1826701
1.1803377
1.1784718
1.1771814
1.1762262
1.174456
1.171848
1.170284
1.1693594
1.1688306
1.1685197
1.1683305
1.1681009
1.167683
1.1673198
1.1671316
1.0307045
1.0563809
1.0782733
1.0885128
1.0832851
1.0892625
1.0880972
1.0931021
1.0947273
1.1000591
1.1043238
1.1109796
1.1180959
1.1271085
1.1374429
1.1495871
1.1632499
1.1781232
1.1932573
1.2074836
1.2196842
1.2286431
1.2330948
1.2337933
1.2316714
1.2273592
1.2216918
1.2154134
1.2090686
1.2030434
1.1975963
1.1928874
1.1889241
1.1855338
1.1826769
1.1803214
1.1784501
1.1771629
1.1761212
1.1741711
1.1716699
1.1701943
1.1693203
1.1688154
1.1685162
1.1683331
1.1680853
1.16766
1.167306
1.1671225
1.0373092
1.0639188
1.083857
1.0939074
1.0887417
1.094862
1.0938566
1.0990271
1.1009197
1.1064766
1.1111167
1.1181141
1.1257079
1.1352024
1.1460986
1.1587929
1.1729401
1.1880637
1.2030877
1.2168257
1.228185
1.2356655
1.2385453
1.2380899
1.2348458
1.2296338
1.2232858
1.2165063
1.2097979
1.2035228
1.1979298
1.1931355
1.1890354
1.1855567
1.182676
1.1802886
1.1784175
1.1771279
1.1759823
1.1738863
1.1715128
1.1701149
1.1692841
1.1688001
1.1685121
1.1683354
1.168065
1.167637
1.1672928
1.1671143
1.0441287
1.0716826
1.0895999
1.0995303
1.0944454
1.1007218
1.099896
1.1052438
1.1074284
1.1132253
1.1182671
1.1256311
1.1337277
1.1437286
1.1552013
1.1684401
1.1830166
1.1982791
1.2130569
1.2261783
1.2364492
1.242247
1.2437299
1.2420493
1.237723
1.2316636
1.2246841
1.2174433
1.2104091
1.2039315
1.1982253
1.1933041
1.1890836
1.1855631
1.1826516
1.1802401
1.1783748
1.1770745
1.1758138
1.1736122
1.1713678
1.1700417
1.1692505
1.1687856
1.1685071
1.1683341
1.1680408
1.1676143
1.1672801
1.1671069
1.0511244
1.0796042
1.0955326
1.1054156
1.1004325
1.10687
1.1062384
1.1117753
1.1142747
1.1203279
1.1257987
1.1335559
1.1421803
1.1527112
1.1647689
1.17853
1.1934565
1.2087265
1.2231178
1.235485
1.2443461
1.2484153
1.2485985
1.2456658
1.2403069
1.2334555
1.2258929
1.2182323
1.210922
1.2042889
1.1984601
1.1933774
1.1890991
1.1855574
1.182607
1.1801774
1.1783216
1.1770012
1.1756216
1.173353
1.1712305
1.1699719
1.1692185
1.1687725
1.1685018
1.1683277
1.1680135
1.1675921
1.1672682
1.1671005
1.0584234
1.0878194
1.1017337
1.1115969
1.1067278
1.1133247
1.1129034
1.1186317
1.1214812
1.1278101
1.1337383
1.1419162
1.151092
1.1621738
1.1748159
1.1890583
1.2042319
1.2193666
1.2332239
1.2446153
1.2518023
1.25423
1.2531116
1.2489407
1.242606
1.2350195
1.2269217
1.21889
1.2113605
1.2045866
1.1985676
1.1934046
1.1891016
1.1855239
1.1825422
1.1801021
1.1782576
1.1769077
1.1754115
1.1731099
1.1710996
1.1699038
1.1691857
1.1687584
1.1684996
1.1683158
1.1679844
1.1675704
1.1672572
1.167095
1.0658876
1.0963076
1.1081445
1.1180544
1.1133277
1.1200886
1.1199175
1.1258499
1.1290749
1.1357023
1.1421145
1.1507415
1.1604919
1.1721397
1.1853511
1.2000086
1.2153011
1.2301492
1.2433187
1.2534293
1.2587666
1.259724
1.2572272
1.2518775
1.2446284
1.2363635
1.2277828
1.2194412
1.2117327
1.2047554
1.1986132
1.193413
1.1890799
1.1854681
1.1824595
1.1800154
1.1781821
1.1767943
1.1751884
1.1728817
1.1709749
1.1698377
1.169153
1.1687442
1.1684974
1.1682988
1.1679537
1.1675493
1.1672471
1.1670905
1.0736476
1.1051673
1.1148604
1.1248413
1.1202791
1.1271996
1.1273131
1.1334522
1.137088
1.144034
1.15096
1.1600649
1.1704076
1.1826286
1.196376
1.2113565
1.2266205
1.2410214
1.2533137
1.2618058
1.2652917
1.2648356
1.2609546
1.2544851
1.2463858
1.2375002
1.2284977
1.2199102
1.2119998
1.2048303
1.1986278
1.1933984
1.1890313
1.1853897
1.1823606
1.1799182
1.1780947
1.1766619
1.174957
1.1726682
1.1708566
1.1697745
1.1691211
1.1687294
1.1684936
1.1682773
1.1679209
1.1675288
1.167238
1.1670871
1.0816373
1.1143562
1.1218642
1.1319598
1.1275948
1.1346831
1.1351094
1.1414731
1.1455519
1.1528423
1.1603099
1.1699198
1.1808682
1.1936558
1.2078812
1.2230631
1.2381367
1.251915
1.2630464
1.2696488
1.2714526
1.2695093
1.2642923
1.2567723
1.2478892
1.2384466
1.2290923
1.220291
1.2121245
1.2048572
1.198619
1.1933513
1.1889577
1.1852913
1.1822472
1.1798114
1.177995
1.176512
1.1747211
1.1724695
1.1707455
1.1697145
1.1690899
1.1687134
1.1684873
1.1682516
1.1678867
1.1675091
1.1672302
1.1670847
1.0899098
1.1239377
1.1292229
1.1394589
1.1353229
1.1425723
1.1433518
1.1499464
1.1545043
1.1621657
1.1702018
1.1803393
1.1918978
1.205228
1.2198457
1.2350835
1.2497938
1.2627629
1.2723662
1.2769736
1.2772067
1.2737385
1.2672509
1.2587528
1.249155
1.2392298
1.229588
1.2205111
1.2121737
1.2048557
1.1985699
1.1932766
1.1888613
1.1851747
1.1821209
1.1796955
1.1778828
1.1763464
1.1744842
1.1722856
1.1706423
1.1696577
1.1690589
1.1686957
1.1684776
1.168222
1.1678523
1.1674905
1.1672235
1.1670834
1.0985172
1.1339459
1.136973
1.1473624
1.143489
1.1508946
1.1520743
1.1589112
1.1639864
1.1720465
1.1806717
1.1913564
1.2035167
1.2173416
1.2322344
1.2473584
1.2615135
1.2734122
1.2811466
1.2838364
1.2824937
1.2775226
1.2698392
1.2604404
1.2502045
1.2398781
1.2299698
1.2206093
1.2121853
1.2048095
1.198489
1.1931757
1.1887441
1.1850418
1.1819833
1.1795709
1.1777578
1.1761673
1.17425
1.1721175
1.170547
1.169604
1.1690276
1.1686757
1.168464
1.168189
1.1678187
1.1674734
1.167218
1.1670833
1.107454
1.1442854
1.1451373
1.1556981
1.1521294
1.1596929
1.1613217
1.1684171
1.1740445
1.1825272
1.1917572
1.2029988
1.2157371
1.2299802
1.2450021
1.2598272
1.2732177
1.283694
1.2893261
1.2902792
1.2872701
1.2808713
1.2720738
1.2618559
1.2510678
1.2404043
1.2301616
1.2206453
1.2121519
1.2047238
1.1983772
1.1930518
1.1886085
1.1848942
1.1818357
1.1794379
1.1776204
1.175977
1.1740218
1.1719644
1.1704597
1.1695529
1.1689959
1.1686533
1.1684462
1.1681537
1.167786
1.1674577
1.1672138
1.1670843
1.1167929
1.1550383
1.1537783
1.1645201
1.1613049
1.1690232
1.1711485
1.178511
1.1847216
1.1936456
1.2034916
1.2152923
1.2285613
1.2431122
1.2580857
1.2724065
1.284787
1.2934314
1.2969493
1.2962131
1.291542
1.2837938
1.2739709
1.2630241
1.251774
1.2407703
1.2302409
1.2206369
1.212068
1.2046015
1.198239
1.1929075
1.1884564
1.1847338
1.1816791
1.1792966
1.1774708
1.1757781
1.1738018
1.1718232
1.1703802
1.1695042
1.1689644
1.1686297
1.168424
1.1681169
1.1677547
1.1674434
1.1672108
1.1670865
1.1266237
1.1662421
1.1629532
1.1738804
1.1710579
1.17894
1.1816001
1.1892386
1.1960501
1.2054428
1.2159091
1.2282534
1.2419774
1.2566904
1.2714149
1.2849984
1.2960186
1.3025112
1.3041105
1.3015753
1.2953143
1.2863088
1.2755558
1.2639785
1.2523348
1.2409526
1.2302643
1.2205668
1.2119413
1.2044474
1.1980775
1.1927452
1.1882899
1.1845622
1.1815147
1.1791472
1.1773097
1.1755733
1.1735916
1.1716913
1.1703078
1.1694566
1.1689323
1.1686074
1.1683974
1.1680796
1.1677249
1.1674305
1.1672092
1.1670901
1.1370222
1.177889
1.1727115
1.1838035
1.1814269
1.1894755
1.1927159
1.2006355
1.2080726
1.2179609
1.2290436
1.2418936
1.2559574
1.2706478
1.2848972
1.297482
1.3067121
1.3109559
1.3107113
1.3063621
1.2985974
1.2884354
1.2768576
1.2647502
1.2526974
1.2410267
1.2302279
1.220445
1.2117755
1.2042656
1.1978958
1.1925674
1.1881107
1.1843809
1.1813431
1.1789898
1.1771378
1.175365
1.1733927
1.1715691
1.1702405
1.1694108
1.1689007
1.168585
1.1683663
1.1680416
1.1676967
1.167419
1.1672088
1.1670943
1.1480866
1.18997
1.1831071
1.194344
1.1924738
1.2006335
1.2045203
1.2127567
1.2208449
1.2312516
1.2429249
1.256203
1.2704497
1.2849005
1.2984178
1.3096579
1.3167152
1.3188389
1.3166863
1.3105785
1.3014121
1.2902039
1.2779134
1.2653516
1.2528754
1.2410354
1.2301243
1.2202763
1.2115768
1.2040602
1.197697
1.1923764
1.1879207
1.1841914
1.1811652
1.1788243
1.1769562
1.1751551
1.1732055
1.1714562
1.1701783
1.1693669
1.1688689
1.1685612
1.1683309
1.1680031
1.16767
1.1674091
1.1672099
1.1670999
1.1598913
1.2024267
1.1941502
1.2055163
1.2042032
1.2125085
1.2170882
1.2256845
1.2344351
1.2453595
1.2575654
1.2711522
1.2853786
1.2993406
1.3118333
1.3212956
1.3259922
1.326116
1.3220009
1.3142345
1.3037812
1.2916496
1.2787566
1.2657201
1.2529466
1.24097
1.2299652
1.2200675
1.2113496
1.2038348
1.1974838
1.192174
1.1877216
1.1839949
1.1809815
1.1786509
1.1767659
1.1749455
1.1730298
1.1713523
1.1701207
1.1693247
1.1688365
1.1685353
1.1682921
1.1679643
1.1676448
1.1674008
1.1672124
1.1671068
1.1725199
1.2151901
1.2059016
1.217395
1.2167093
1.2252108
1.2305243
1.2395083
1.2489026
1.2603139
1.2729525
1.2866773
1.3006424
1.3138323
1.3249499
1.3321967
1.3346081
1.332694
1.326667
1.3173533
1.3057412
1.2928146
1.2794025
1.2658974
1.252941
1.2408343
1.229757
1.2198248
1.211099
1.2035932
1.1972588
1.1919624
1.1875151
1.1837926
1.1807922
1.1784697
1.1765682
1.1747379
1.1728658
1.1712569
1.1700658
1.169285
1.1688035
1.1685068
1.1682508
1.1679257
1.1676213
1.1673944
1.1672164
1.1671151
1.1860784
1.2282015
1.218497
1.2301545
1.2301365
1.2388459
1.2449014
1.2542838
1.2642836
1.2761158
1.2890438
1.3026893
1.3161111
1.3282024
1.3374967
1.3422821
1.3425478
1.338521
1.3306908
1.3199633
1.3073328
1.2937313
1.279783
1.2659666
1.2528489
1.2406393
1.2295076
1.2195539
1.210829
1.2033384
1.1970243
1.1917434
1.1873027
1.1835858
1.1805977
1.1782807
1.1763644
1.1745334
1.1727135
1.1711693
1.1700132
1.1692459
1.1687708
1.1684751
1.1682076
1.1678875
1.1675997
1.1673897
1.1672217
1.1671247
1.2010029
1.2415468
1.2321389
1.2439349
1.2446085
1.2534689
1.2602453
1.2700358
1.280593
1.2927458
1.3057614
1.3190582
1.3316188
1.3422387
1.3492352
1.3516073
1.3496932
1.3436099
1.3341009
1.3221079
1.3086049
1.29441
1.2799622
1.2659467
1.2526831
1.2403938
1.2292246
1.2192605
1.2105441
1.2030735
1.1967827
1.1915189
1.1870859
1.1833752
1.1803981
1.1780844
1.1761556
1.1743328
1.1725722
1.1710887
1.169963
1.1692073
1.1687379
1.1684403
1.168163
1.1678499
1.16758
1.1673868
1.1672288
1.1671356
1.2172117
1.255799
1.2468544
1.2586652
1.2601965
1.2692014
1.2766329
1.2868127
1.2978283
1.3101463
1.3229896
1.3356176
1.3469507
1.3556281
1.3600625
1.3601551
1.3559845
1.3479661
1.3369313
1.3238343
1.3095904
1.294804
1.2800292
1.2658296
1.2524545
1.240107
1.2289145
1.2189494
1.2102478
1.2028014
1.196536
1.1912904
1.1868662
1.1831617
1.1801936
1.177881
1.1759432
1.1741373
1.1724405
1.1710145
1.1699151
1.1691691
1.1687046
1.1684023
1.1681175
1.1678132
1.1675619
1.1673853
1.1672366
1.167148
1.2346652
1.2712291