/*--------------------------------*- C++ -*----------------------------------*\
  =========                 |
  \\      /  F ield         | OpenFOAM: The Open Source CFD Toolbox
   \\    /   O peration     | Website:  https://openfoam.org
    \\  /    A nd           | Version:  8
     \\/     M anipulation  |
\*---------------------------------------------------------------------------*/
FoamFile
{
    version     2.0;
    format      ascii;
    class       surfaceVectorField;
    location    "0.0699881";
    object      rhoUf;
}
// * * * * * * * * * * * * * * * * * * * * * * * * * * * * * * * * * * * * * //

dimensions      [1 -2 -1 0 0 0 0];

internalField   nonuniform List<vector> 
39600
(
(210.30216 4.3734529e-17 -1.99394)
(194.38335 8.0985507e-17 -2.525383)
(192.62809 4.220328e-17 -1.7652733)
(241.71623 2.1728605e-17 -2.4118179)
(231.13649 4.7289961e-19 -2.6136334)
(229.24539 0 -1.6902554)
(265.87264 7.3621235e-18 -2.8065398)
(256.36157 4.7818963e-17 -3.165896)
(254.29463 2.5081887e-17 -2.1417788)
(288.92835 -2.2386983e-17 -3.2437076)
(279.37094 -6.3256231e-17 -3.5294545)
(277.16364 -2.1549426e-17 -2.4307599)
(310.20009 -1.3994727e-17 -3.7361248)
(302.62712 3.6770173e-17 -4.2846224)
(300.18694 1.7976257e-22 -3.0478208)
(320.87804 1.8860037e-17 -4.0040125)
(320.99756 -7.8476608e-17 -4.315603)
(319.85186 -1.6124002e-17 -3.1122776)
(322.10614 2.2959154e-17 -4.0352419)
(321.2584 9.236101e-17 -5.0704351)
(321.18923 4.6873218e-17 -3.8058606)
(322.40917 -4.0202302e-17 -4.0582658)
(323.15612 -4.3786083e-17 -4.0670728)
(323.06023 -2.7635076e-17 -2.8773741)
(321.97336 -6.9356527e-18 -4.0765465)
(321.57914 -1.7925515e-17 -5.3774648)
(321.50064 -2.3066148e-17 -4.0982415)
(322.07077 1.5418951e-17 -4.1097244)
(322.526 2.8498693e-17 -4.0066009)
(322.41175 1.8186224e-17 -2.8069521)
(321.79389 0 -4.1468946)
(321.62466 -2.5818014e-17 -5.4378576)
(321.52107 5.6661004e-21 -4.1699177)
(321.77671 -1.5884949e-17 -4.194953)
(322.09772 3.4943507e-17 -4.1838438)
(321.97607 0 -2.968623)
(321.53627 -4.2557232e-18 -4.2535381)
(321.50989 -5.3115326e-17 -5.388765)
(321.39342 -2.0150769e-17 -4.1316919)
(321.43375 1.7808925e-17 -4.3224814)
(321.67898 3.289805e-17 -4.4813233)
(321.55491 1.8600453e-17 -3.250209)
(321.19995 -3.5885675e-20 -4.407765)
(321.26459 0 -5.3483439)
(321.14229 -1.4457289e-18 -4.0981879)
(321.01732 -7.7581631e-18 -4.5057656)
(321.23918 5.1387281e-18 -4.8272867)
(321.11372 2.4684919e-18 -3.5830556)
(320.74346 -2.9410223e-18 -4.6258671)
(320.88096 -8.401264e-18 -5.3994457)
(320.75482 -9.6653013e-18 -4.1492511)
(320.47024 4.9976935e-18 -4.7628187)
(320.70279 1.4100895e-17 -5.1967033)
(320.5763 7.1168149e-18 -3.9438911)
(320.11796 1.3505795e-18 -4.9221203)
(320.3235 1.1448569e-19 -5.5769734)
(320.19987 -2.182888e-18 -4.3280919)
(319.72611 9.1304183e-18 -5.0938117)
(319.99201 -3.8077613e-20 -5.5839263)
(319.87574 4.8135359e-18 -4.3382276)
(319.24956 4.416464e-18 -5.2760221)
(319.51835 -1.5480031e-19 -5.8573547)
(319.41232 3.4288967e-18 -4.625452)
(318.70893 1.5161654e-17 -5.457725)
(319.0113 0 -5.9725864)
(318.9185 2.2742016e-19 -4.746724)
(318.08808 1.0071137e-17 -5.6452773)
(318.37438 1.0867664e-17 -6.2033725)
(318.2912 1.5966427e-17 -4.9745144)
(317.32689 -3.1748839e-18 -5.8823021)
(317.634 -2.803764e-17 -6.4083239)
(317.53809 -8.5881471e-18 -5.1745356)
(316.38447 8.7387288e-18 -6.0481219)
(316.80511 -2.7515634e-19 -6.6212866)
(316.73794 7.2789328e-18 -5.4093048)
(315.2965 -8.9510183e-18 -6.1133901)
(315.81526 3.9220337e-17 -6.7002251)
(315.7788 -1.4986575e-19 -5.5369705)
(314.08205 -1.9217185e-17 -6.0402057)
(314.65935 -2.0855143e-17 -6.6632854)
(314.65644 -8.580981e-18 -5.5732902)
(312.76699 3.1707331e-18 -5.8194685)
(313.37279 -8.553861e-18 -6.4651514)
(313.39752 -8.1662723e-18 -5.4654934)
(311.3864 5.5181088e-18 -5.4407393)
(311.99512 2.8135265e-17 -6.0972987)
(312.04381 1.066622e-17 -5.2075662)
(310.00644 1.1471116e-17 -4.9263119)
(310.5908 3.4455199e-17 -5.5664124)
(310.65578 -8.6473768e-18 -4.8009243)
(308.69716 2.9597569e-17 -4.3262808)
(309.23033 -9.1435835e-17 -4.9205598)
(309.30217 2.0381068e-17 -4.2850855)
(307.52024 1.9801966e-17 -3.7067463)
(307.98292 -1.4088903e-17 -4.2270188)
(308.05266 -6.2079943e-19 -3.7180767)
(306.51838 1.269407e-18 -3.1295115)
(306.89948 -5.7197285e-17 -3.558206)
(306.96098 1.5594052e-17 -3.1650862)
(305.71209 -1.6485027e-17 -2.6399597)
(306.00872 -4.2895994e-17 -2.9711663)
(306.05902 -1.5321132e-17 -2.6785096)
(305.10179 -2.136204e-17 -2.2587804)
(305.31758 2.6534651e-17 -2.4988613)
(305.35679 7.3161706e-18 -2.2897666)
(304.67367 -4.489584e-17 -1.9901261)
(304.81596 -6.07437e-17 -2.1465635)
(304.84497 -2.0580951e-17 -2.0050617)
(304.40866 -2.0277793e-17 -1.8246115)
(304.4869 -1.5454558e-17 -1.9117295)
(304.50807 3.4396303e-21 -1.820079)
(304.28631 -4.0320219e-17 -1.6876528)
(304.29809 2.3711352e-17 -1.7935308)
(304.32207 -1.0327328e-17 -1.7353098)
(304.26306 -7.5803904e-17 -1.540069)
(304.1956 1.2135562e-16 -1.7377178)
(304.22276 -5.8838628e-18 -1.7053292)
(304.26127 -6.3037331e-17 -1.5479342)
(304.18841 -1.0213424e-16 -1.6728976)
(304.19846 -2.2055054e-17 -1.6623567)
(304.329 7.2250189e-17 -1.5492076)
(304.25977 -6.0398968e-20 -1.6058506)
(304.26924 2.3610553e-18 -1.608726)
(304.43276 4.7024462e-18 -1.5316603)
(304.3678 1.3680672e-17 -1.5546887)
(304.37914 1.8592987e-17 -1.5640055)
(304.55493 -9.7971477e-17 -1.4459678)
(304.49282 1.0371875e-17 -1.4932075)
(304.50456 -1.8737147e-17 -1.5086024)
(304.66262 1.4882137e-18 -1.2700998)
(304.61804 -1.5095792e-17 -1.3639033)
(304.63102 -1.5856214e-18 -1.3818861)
(304.74233 7.0928279e-17 -1.0312035)
(304.6952 -7.7619401e-17 -1.1449177)
(304.70657 2.0755731e-18 -1.1725797)
(304.77876 6.4853615e-17 -1.0080563)
(304.82345 6.2514092e-19 -0.84448125)
(304.79968 1.1382239e-17 -0.88057753)
(304.87913 2.6315564e-17 -0.77998599)
(304.95761 9.1132643e-17 -0.54339232)
(304.95604 -5.741772e-19 -0.56703649)
(304.93471 6.6671003e-17 -0.47971004)
(304.98041 6.4780185e-17 -0.32391453)
(304.98897 5.3274212e-18 -0.33159023)
(304.96115 1.1181107e-17 -0.14288999)
(304.95504 6.7203205e-17 -0.18477083)
(304.96918 3.0285883e-18 -0.18450512)
(304.93269 -4.699796e-17 -0.19949766)
(304.93234 -2.6724672e-18 -0.20127493)
(211.97091 4.4917535e-17 -2.8404581)
(196.14307 1.2358871e-16 -3.3178683)
(243.53097 2.2281495e-17 -3.3807311)
(233.01733 -6.0906973e-17 -3.5618114)
(267.80431 -1.2531429e-17 -3.8680633)
(258.38342 2.4039347e-17 -4.21276)
(290.99451 -1.3244998e-17 -4.3913769)
(281.49706 -4.1950836e-17 -4.6602781)
(311.79255 -1.7259317e-17 -4.9458602)
(304.91045 7.3340404e-17 -5.5504134)
(321.39305 -1.9966752e-17 -5.2121849)
(321.90778 -1.261009e-16 -5.5345623)
(322.17078 3.7757733e-17 -5.2494278)
(321.36467 8.128936e-17 -6.3585137)
(322.49368 -2.4044277e-17 -5.2826771)
(323.28235 -2.037238e-17 -5.2686361)
(322.06548 1.3057924e-17 -5.3094001)
(321.68238 1.6529008e-17 -6.6739435)
(322.17018 -7.5402575e-18 -5.3490413)
(322.64409 4.6083997e-19 -5.2232363)
(321.89679 3.5530241e-18 -5.3910421)
(321.72475 -2.5217065e-17 -6.7290818)
(321.88468 5.4716997e-18 -5.4428765)
(322.20902 5.3232469e-17 -5.4175083)
(321.64551 -2.3609716e-17 -5.5041721)
(321.61228 -6.6837179e-17 -6.6713264)
(321.54562 1.8096458e-17 -5.5754243)
(321.78693 3.1506434e-17 -5.7326804)
(321.31326 4.6493838e-18 -5.66344)
(321.3707 0 -6.6250699)
(321.1325 5.5908781e-18 -5.763754)
(321.34701 -2.045556e-19 -6.0944676)
(320.85995 6.4496356e-18 -5.8861718)
(320.98914 0 -6.6750438)
(320.58622 1.0456322e-17 -6.0220203)
(320.8073 -2.7933281e-19 -6.4696115)
(320.23188 -1.2324631e-18 -6.1773419)
(320.42348 2.9323301e-18 -6.8435501)
(319.83539 -9.1163558e-18 -6.3406483)
(320.0824 -4.8820074e-18 -6.8450057)
(319.35332 -4.4915122e-18 -6.5174308)
(319.60141 -4.0603576e-18 -7.1126552)
(318.79809 -5.1200798e-18 -6.6965078)
(319.0834 0 -7.2392797)
(318.1314 -2.3162133e-17 -6.8962933)
(318.44482 -1.7153478e-17 -7.4849968)
(317.33732 -2.7590442e-17 -7.1166159)
(317.70549 -8.8816791e-18 -7.6773548)
(316.39491 2.6192564e-17 -7.2454976)
(316.84161 -7.6896281e-18 -7.8450337)
(315.30213 3.2889954e-17 -7.2408326)
(315.81347 -4.0615305e-17 -7.8716247)
(314.07471 -1.1487668e-17 -7.0946145)
(314.62728 4.8933572e-19 -7.7645024)
(312.73285 1.2623621e-17 -6.7768428)
(313.31174 -8.7387323e-18 -7.4745517)
(311.33266 5.6051019e-17 -6.2829805)
(311.91035 -4.2927574e-19 -6.9933036)
(309.94185 -5.4975806e-17 -5.6424154)
(310.49171 -8.1828407e-17 -6.3353314)
(308.63102 -1.4210807e-16 -4.9142343)
(309.12781 3.0766242e-17 -5.5577136)
(307.46017 -8.5858262e-17 -4.1725435)
(307.88684 -1.4227819e-17 -4.7368425)
(306.46875 -1.023512e-16 -3.4854152)
(306.81633 -7.8030356e-17 -3.9520573)
(305.67386 -7.3918113e-18 -2.9014531)
(305.94134 -1.5859711e-16 -3.2646075)
(305.07354 -3.3551576e-18 -2.442686)
(305.26545 -9.524057e-17 -2.7086044)
(304.65383 -3.6387416e-17 -2.1131498)
(304.7776 -1.0295291e-16 -2.2885734)
(304.38987 2.4042712e-17 -1.9012313)
(304.45908 -1.2450343e-16 -2.0045511)
(304.26781 1.7427794e-16 -1.7067847)
(304.26709 -1.525669e-16 -1.8519162)
(304.22677 1.1970672e-16 -1.5916116)
(304.17217 -1.8795013e-17 -1.7687094)
(304.24316 -5.0743886e-17 -1.5607437)
(304.17429 6.4777807e-17 -1.6829951)
(304.31395 -6.0023308e-17 -1.5451655)
(304.24864 1.9078015e-17 -1.6036074)
(304.41667 1.9760096e-17 -1.5217979)
(304.35618 -8.3726139e-17 -1.545837)
(304.53944 9.6046818e-17 -1.430587)
(304.48082 1.0257391e-16 -1.4791509)
(304.64432 -8.7264899e-17 -1.2522664)
(304.60505 -2.2599604e-17 -1.3478516)
(304.75262 -1.5709645e-16 -1.0078267)
(304.68664 2.1599247e-17 -1.1185029)
(304.81482 1.3997264e-17 -0.97146653)
(304.84367 -7.3941833e-17 -0.81254906)
(304.89251 1.3283671e-16 -0.73264651)
(304.95858 -1.9761607e-16 -0.5253316)
(304.92312 6.8129157e-17 -0.45267903)
(304.97296 -4.0057411e-17 -0.31925305)
(304.94247 2.0828473e-17 -0.16819165)
(304.94394 -1.9406666e-17 -0.18511456)
(304.93169 1.9258748e-17 -0.19591071)
(213.82935 3.4476431e-17 -3.7227093)
(197.87384 8.195242e-17 -4.1396937)
(245.53109 -6.576478e-17 -4.3942922)
(234.88981 3.0074537e-18 -4.5393688)
(269.93917 4.2397754e-19 -4.9850901)
(260.41029 -5.0631732e-17 -5.296645)
(293.25056 3.3657992e-17 -5.6090653)
(283.6377 6.8913223e-19 -5.8294998)
(313.44768 -1.7476786e-17 -6.2339516)
(307.12625 3.6559272e-17 -6.8641714)
(321.90707 -4.3332235e-17 -6.4975737)
(322.6371 -6.0768703e-17 -6.7893023)
(322.2872 3.2423693e-17 -6.5279533)
(321.43359 2.8225052e-17 -7.687829)
(322.60482 1.6378253e-17 -6.5603128)
(323.37597 -5.6511715e-20 -6.5006435)
(322.16959 5.4826067e-18 -6.5838013)
(321.75455 1.8538974e-17 -7.9999816)
(322.27405 -1.480267e-17 -6.6232038)
(322.73809 1.8466481e-17 -6.4655744)
(321.99618 1.716049e-17 -6.6647753)
(321.80343 -2.9856078e-17 -8.0451968)
(321.9851 -8.0024977e-18 -6.717736)
(322.30174 4.0800908e-17 -6.6762094)
(321.74433 -2.0758732e-17 -6.7809265)
(321.69781 -5.8733611e-17 -7.9772527)
(321.64529 1.6315061e-17 -6.8549095)
(321.87858 1.860502e-17 -7.0106694)
(321.41282 -4.728428e-18 -6.9463921)
(321.46068 6.3973623e-18 -7.9261566)
(321.23156 -5.6865012e-18 -7.0496207)
(321.43715 5.5443303e-18 -7.387963)
(320.95735 -6.5585223e-18 -7.1727149)
(321.07651 8.9488835e-18 -7.972305)
(320.67951 -7.8992847e-18 -7.3048213)
(320.88709 -2.192484e-17 -7.7637321)
(320.31998 0 -7.4551083)
(320.49825 1.23266e-17 -8.1302968)
(319.91781 0 -7.6160269)
(320.14968 1.0302322e-17 -8.1344814)
(319.43853 0 -7.7899017)
(319.66059 -8.5069576e-18 -8.4112988)
(318.88319 -1.0345141e-17 -7.9898074)
(319.14285 -1.4270173e-17 -8.5592711)
(318.19553 -3.861839e-18 -8.2015489)
(318.49935 2.4021e-17 -8.807745)
(317.35732 1.0524733e-17 -8.3876178)
(317.74503 5.8459125e-17 -8.9713764)
(316.38025 -7.0405757e-17 -8.451506)
(316.83781 -8.0339909e-18 -9.0885271)
(315.26448 -7.6125966e-17 -8.3899183)
(315.77734 -3.7477556e-17 -9.0615937)
(314.00312 4.0327772e-18 -8.161916)
(314.55832 2.1533201e-17 -8.87996)
(312.63505 -2.2366408e-17 -7.7392232)
(313.2125 -2.6598094e-17 -8.490556)
(311.21591 -1.2863333e-16 -7.1225676)
(311.78814 1.0183927e-16 -7.8886721)
(309.8174 -8.0496122e-18 -6.3499314)
(310.35772 -2.0025468e-17 -7.0976199)
(308.51014 1.6145788e-16 -5.4901086)
(308.99437 -5.9743263e-17 -6.1844576)
(307.35169 -6.4543521e-20 -4.6253385)
(307.76455 -2.9409887e-17 -5.2348635)
(306.37764 -1.2551698e-16 -3.8293182)
(306.7119 1.1499718e-16 -4.3346987)
(305.60136 -2.5217244e-16 -3.1530361)
(305.85727 -1.3104565e-16 -3.5485978)
(305.01835 -1.9320479e-16 -2.6191264)
(305.20074 -2.1713709e-16 -2.9108771)
(304.61324 -1.8818758e-16 -2.2312183)
(304.73017 5.3256658e-17 -2.4254144)
(304.35662 -2.9700801e-16 -1.9762104)
(304.42455 4.8555738e-17 -2.0952497)
(304.24251 -3.5926761e-16 -1.7429577)
(304.231 -2.0947259e-16 -1.9084)
(304.20294 -8.3389595e-17 -1.627477)
(304.14874 1.2400066e-16 -1.796621)
(304.22649 1.3950789e-16 -1.5740968)
(304.15837 -9.1388928e-17 -1.6911071)
(304.30225 7.277936e-18 -1.5417573)
(304.23596 1.8929823e-17 -1.6005946)
(304.40605 -2.202251e-17 -1.510538)
(304.34389 -5.5935598e-17 -1.53614)
(304.52806 -1.9252028e-18 -1.4132955)
(304.46898 1.0271218e-17 -1.4642787)
(304.636 8.1415372e-17 -1.2306515)
(304.59324 -3.2641039e-20 -1.3293175)
(304.75392 1.1575453e-16 -0.97986446)
(304.68162 9.9887618e-17 -1.0878667)
(304.82411 -2.7277382e-16 -0.92543487)
(304.8616 -8.749752e-20 -0.77997053)
(304.89732 -3.875274e-16 -0.6863139)
(304.95764 -1.0635081e-16 -0.50912621)
(304.92183 -1.2789684e-16 -0.43228242)
(304.96735 -6.8466975e-17 -0.31504455)
(304.93752 -2.5124881e-17 -0.1831225)
(304.93528 -5.9212037e-17 -0.18511482)
(304.9298 4.4861573e-17 -0.19176186)
(215.61075 5.7312989e-17 -4.6264397)
(199.58159 6.450851e-19 -4.9892898)
(247.45435 2.193479e-17 -5.4295192)
(236.73681 5.9477313e-17 -5.5426655)
(271.99505 -5.4349148e-17 -6.123857)
(262.41945 -4.9815778e-17 -6.410108)
(295.37761 7.4057634e-19 -6.84791)
(285.77583 -4.4080153e-17 -7.0310327)
(314.90238 1.833838e-18 -7.5296226)
(309.20485 7.6385817e-17 -8.2093544)
(322.27797 2.19471e-18 -7.7852416)
(323.20722 -6.4086953e-20 -8.0559233)
(322.35192 -1.2954835e-18 -7.8114541)
(321.48908 -1.7338702e-18 -9.0377252)
(322.67696 6.0498361e-19 -7.8472786)
(323.45893 -2.4666728e-17 -7.7500338)
(322.2422 3.1231273e-17 -7.8718734)
(321.81511 2.339906e-18 -9.3476081)
(322.35123 7.5275747e-18 -7.9142965)
(322.81965 3.1139599e-17 -7.7286785)
(322.07312 -1.2300396e-17 -7.9583581)
(321.86883 -2.5796925e-17 -9.3845509)
(322.06547 -9.6574522e-19 -8.0144988)
(322.38012 -8.2800454e-19 -7.9580358)
(321.82474 -2.6382605e-17 -8.0809631)
(321.76848 -2.2372833e-17 -9.3065842)
(321.72697 9.8796205e-18 -8.158273)
(321.95392 3.719767e-18 -8.3130277)
(321.4942 1.6507994e-17 -8.2528429)
(321.53297 -2.4940406e-19 -9.2493565)
(321.31133 1.9574762e-17 -8.3573709)
(321.50646 2.1277143e-17 -8.7020056)
(321.03392 -3.5821657e-18 -8.4794161)
(321.14055 2.6785752e-17 -9.2865679)
(320.75204 -4.9163352e-18 -8.6069721)
(320.94003 -1.4456728e-17 -9.0779594)
(320.39027 2.2575906e-17 -8.759822)
(320.55347 2.4564207e-17 -9.4459421)
(319.99419 3.5253742e-18 -8.9191085)
(320.19235 2.0472906e-17 -9.4680594)
(319.51188 -2.2005543e-17 -9.1231086)
(319.71323 -8.4064757e-18 -9.7639345)
(318.92219 1.6162984e-17 -9.3377763)
(319.18816 -2.1172254e-17 -9.9224611)
(318.1905 8.2178855e-17 -9.5341495)
(318.5279 3.4773626e-17 -10.152868)
(317.33614 4.6030401e-17 -9.6573308)
(317.74077 8.4189481e-18 -10.280554)
(316.34634 2.6929712e-17 -9.6796725)
(316.80071 3.3200258e-17 -10.352044)
(315.1967 5.3202403e-17 -9.5543368)
(315.70515 5.2679903e-17 -10.268933)
(313.90442 -4.1977648e-18 -9.2381034)
(314.4509 1.0692442e-17 -10.005233)
(312.5088 8.3777336e-17 -8.7035406)
(313.07388 5.5044668e-17 -9.5087679)
(311.07244 2.2055164e-16 -7.958074)
(311.62768 -3.450558e-18 -8.7791945)
(309.66925 -6.7280157e-17 -7.049166)
(310.1885 1.9845197e-16 -7.8497965)
(308.36942 -2.5130745e-16 -6.0556179)
(308.83007 8.0812503e-17 -6.7982011)
(307.22748 6.9919675e-17 -5.0676373)
(307.61641 7.0040788e-19 -5.7193008)
(306.2747 1.3470013e-16 -4.1638849)
(306.58665 1.023062e-16 -4.7049449)
(305.52032 -8.7407849e-17 -3.3970994)
(305.75698 1.5290156e-16 -3.8222829)
(304.95714 -1.1793837e-18 -2.7900392)
(305.12389 -1.0878926e-16 -3.1050707)
(304.56836 2.8894637e-16 -2.3451388)
(304.67389 1.3433261e-16 -2.5569)
(304.32288 1.6363142e-16 -2.038887)
(304.38209 1.5605508e-16 -2.1828202)
(304.21092 2.3486374e-16 -1.7833903)
(304.19221 3.6677188e-16 -1.9620609)
(304.17743 1.3911991e-16 -1.655921)
(304.12393 -2.3662204e-18 -1.8216722)
(304.20818 -2.2398059e-16 -1.5854361)
(304.14119 1.4224639e-17 -1.6975585)
(304.28741 -3.5408654e-17 -1.539216)
(304.22241 -9.5142006e-18 -1.5968908)
(304.39293 -3.1163117e-17 -1.498504)
(304.33111 -4.1990271e-17 -1.5259093)
(304.51617 1.3332405e-17 -1.3951033)
(304.45671 2.0520617e-17 -1.4487098)
(304.62814 6.9821104e-18 -1.2087658)
(304.58172 2.2547629e-17 -1.3082628)
(304.74304 -4.2365223e-18 -1.0095132)
(304.68573 -2.2019096e-17 -1.0558418)
(304.83816 1.7966136e-16 -0.89027129)
(304.87199 8.1424453e-18 -0.74854775)
(304.90417 2.1332636e-16 -0.6378732)
(304.95498 1.9284793e-16 -0.4948236)
(304.91979 0 -0.39796041)
(304.96192 -8.8189048e-18 -0.3115473)
(304.93093 0 -0.18137097)
(304.92843 -2.0586863e-16 -0.18488716)
(304.9279 -1.6408088e-16 -0.18714869)
(217.36473 -1.7731599e-18 -5.5574062)
(201.2557 -2.0519998e-18 -5.8668817)
(249.36647 -2.1220297e-18 -6.4974463)
(238.55593 -9.2039427e-19 -6.5747954)
(274.06825 -4.023252e-17 -7.3000575)
(264.41548 0 -7.5573035)
(297.46895 2.044156e-17 -8.1277997)
(287.93732 -4.2282943e-17 -8.2707266)
(316.22907 8.0465695e-17 -8.8587804)
(311.13405 1.153419e-16 -9.590723)
(322.57523 -3.7677014e-18 -9.1025494)
(323.64125 -3.5727359e-17 -9.3423438)
(322.41782 -2.277727e-17 -9.1241267)
(321.52837 -5.8523242e-17 -10.414824)
(322.74532 -2.5077924e-17 -9.1626182)
(323.52605 7.1689174e-17 -9.0231728)
(322.30726 0 -9.1874242)
(321.85816 -3.9353954e-17 -10.721611)
(322.41862 3.0294651e-18 -9.2321365)
(322.88453 -3.6890736e-17 -9.0161156)
(322.13796 -1.6549056e-17 -9.2777002)
(321.91676 3.0599448e-17 -10.748816)
(322.13207 -2.0047518e-17 -9.3359665)
(322.44033 -2.7638164e-17 -9.2640737)
(321.89004 4.97054e-18 -9.4050285)
(321.82173 4.5342428e-18 -10.658315)
(321.79193 -5.866532e-18 -9.4845418)
(322.00981 7.8938239e-18 -9.6377527)
(321.55721 2.6972291e-18 -9.5801031)
(321.5836 6.8489813e-18 -10.591054)
(321.37092 2.7880502e-17 -9.6835732)
(321.55132 -1.1384374e-17 -10.034587)
(321.08999 1.9488949e-17 -9.8060462)
(321.18207 -1.8996901e-17 -10.620613)
(320.80569 1.1219237e-17 -9.9384306)
(320.97439 -1.5260023e-17 -10.423193)
(320.45349 2.2845311e-17 -10.092992)
(320.58294 -1.3219174e-17 -10.807798)
(320.05293 1.1182432e-17 -10.291003)
(320.23511 -1.1034548e-17 -10.856989)
(319.5387 -6.5228627e-18 -10.506922)
(319.74927 -2.6484147e-17 -11.157822)
(318.91509 -7.683935e-18 -10.711529)
(319.20691 1.4992474e-17 -11.307303)
(318.17218 -3.5322139e-17 -10.864327)
(318.51514 -3.6362641e-17 -11.51157)
(317.30241 -6.3264303e-18 -10.954586)
(317.70229 -4.8927129e-17 -11.610099)
(316.27399 5.6758041e-17 -10.928089)
(316.72793 -2.6440229e-17 -11.63752)
(315.08859 1.4669486e-17 -10.731901)
(315.59458 1.2356709e-16 -11.490824)
(313.76141 6.4938756e-17 -10.319048)
(314.30307 1.1384674e-17 -11.136874)
(312.33901 -2.5455118e-17 -9.6647242)
(312.89453 -1.1282404e-17 -10.524663)
(310.88782 -4.4487311e-17 -8.7838255)
(311.42828 -1.1613624e-16 -9.6598941)
(309.48408 3.561942e-16 -7.7342933)
(309.98399 -2.4416466e-18 -8.5868662)
(308.19682 3.3777885e-16 -6.6052221)
(308.63534 1.2682862e-16 -7.3943015)
(307.07684 2.244999e-17 -5.49448)
(307.44312 2.9456963e-17 -6.1860941)
(306.15053 1.1514874e-16 -4.4849109)
(306.44133 -2.3287669e-17 -5.0594042)
(305.42278 1.5902202e-16 -3.6302732)
(305.6412 1.5191234e-16 -4.0829027)
(304.88362 -1.5173966e-19 -2.952957)
(305.03555 2.2270668e-16 -3.2890874)
(304.51388 0 -2.4531947)
(304.60916 0 -2.6818031)
(304.28622 3.3522137e-16 -2.0872784)
(304.33103 0 -2.2657952)
(304.17791 1.7119589e-16 -1.8221896)
(304.15184 1.8648785e-16 -2.0117371)
(304.15258 -1.2856476e-16 -1.6804934)
(304.09784 -5.6266263e-16 -1.8434633)
(304.18898 2.3115143e-16 -1.5957783)
(304.12296 -6.3965295e-16 -1.7021837)
(304.27273 -1.2409588e-17 -1.5359297)
(304.20799 3.1592706e-16 -1.5923014)
(304.38018 2.5652637e-18 -1.4854028)
(304.31779 -4.6277293e-16 -1.5150546)
(304.50464 2.951074e-17 -1.3750781)
(304.44388 2.0524655e-17 -1.4320856)
(304.62446 -1.4273645e-18 -1.1850847)
(304.57037 7.5018375e-18 -1.2836706)
(304.73315 -1.2244372e-17 -1.0341615)
(304.6963 3.383977e-16 -1.0225798)
(304.84474 0 -0.85272909)
(304.87733 2.5559653e-16 -0.71881355)
(304.90588 -7.8793153e-18 -0.60023815)
(304.95099 -3.7600768e-16 -0.48179043)
(304.91798 -1.9271412e-16 -0.37091482)
(304.95542 -1.7624941e-17 -0.30838419)
(304.92726 -3.7761465e-16 -0.17920839)
(304.92297 2.1227096e-16 -0.18439377)
(304.92601 -5.8199507e-18 -0.18219933)
(219.09901 -1.3063589e-18 -6.5168434)
(202.90486 8.8248435e-17 -6.7741616)
(251.25767 1.0805628e-18 -7.5959192)
(240.34695 9.7941268e-19 -7.6369555)
(276.14265 1.2791287e-18 -8.5096792)
(266.39612 0 -8.7402922)
(299.49557 3.8158394e-17 -9.4421373)
(290.13634 -9.2901404e-17 -9.5493543)
(317.40573 1.3586935e-17 -10.211537)
(312.88958 1.201512e-16 -11.004454)
(322.79277 -8.7434435e-17 -10.441403)
(323.97075 -3.0797898e-17 -10.648358)
(322.46083 2.3609553e-17 -10.458726)
(321.55356 -5.5519125e-17 -11.817801)
(322.79218 6.6402441e-17 -10.50079)
(323.58001 9.2235813e-17 -10.317988)
(322.35229 -7.5588221e-17 -10.52601)
(321.88407 -7.8414158e-17 -12.119781)
(322.46656 -1.5226821e-17 -10.573542)
(322.93377 1.3375046e-18 -10.325784)
(322.18309 2.4340157e-17 -10.620284)
(321.94513 1.9757046e-17 -12.13562)
(322.17943 -6.1360363e-18 -10.679197)
(322.47719 2.3342231e-17 -10.59262)
(321.93672 7.1121383e-18 -10.750507)
(321.85568 -2.885644e-17 -12.030478)
(321.8371 2.0408206e-17 -10.831301)
(322.04392 7.7396706e-18 -10.982289)
(321.59996 -5.4545402e-18 -10.926526)
(321.60982 -4.5969273e-19 -11.951029)
(321.41159 -5.6619443e-17 -11.032706)
(321.57602 -2.1484605e-17 -11.392819)
(321.1364 -5.3291344e-17 -11.155311)
(321.19812 1.4158074e-18 -11.989995)
(320.86291 -3.9329254e-17 -11.307998)
(320.99876 -1.4871595e-17 -11.818413)
(320.49913 -4.6535488e-17 -11.500014)
(320.61605 9.2676977e-19 -12.220743)
(320.06479 -4.6627301e-17 -11.705964)
(320.25899 -6.37976e-17 -12.282412)
(319.52316 -8.8874015e-18 -11.912672)
(319.75781 9.5093657e-19 -12.570501)
(318.88871 -8.7732477e-18 -12.084723)
(319.18619 2.9012449e-17 -12.706383)
(318.13182 -4.8615014e-17 -12.220057)
(318.47222 1.3693091e-17 -12.890934)
(317.22896 -7.0664578e-17 -12.273869)
(317.6289 4.7664776e-19 -12.962443)
(316.16566 2.5871204e-17 -12.193503)
(316.61778 -7.4072871e-17 -12.941269)
(314.94116 1.3050082e-16 -11.91849)
(315.44375 -1.1567424e-16 -12.723622)
(313.57884 -6.1596203e-17 -11.40039)
(314.11322 -6.9332658e-17 -12.270238)
(312.13032 -9.0750697e-17 -10.61799)
(312.67334 -9.1045912e-17 -11.533139)
(310.6672 -8.5607e-17 -9.5951005)
(311.18946 -1.2171232e-16 -10.525552)
(309.2673 -2.4165988e-16 -8.4010287)
(309.74432 -9.4882345e-17 -9.3039562)
(307.99775 -1.6822609e-16 -7.1352876)
(308.41076 -1.5123615e-16 -7.9685216)
(306.9049 -1.048875e-17 -5.9029178)
(307.24552 0 -6.6317501)
(306.00979 -4.9451304e-18 -4.7900636)
(306.27687 -1.169399e-17 -5.395282)
(305.31274 2.0770339e-16 -3.8507578)
(305.51077 2.7405521e-17 -4.3282255)
(304.80103 2.4657018e-16 -3.1065944)
(304.93642 1.9312682e-16 -3.4612609)
(304.45208 0 -2.5546958)
(304.53651 1.0629481e-17 -2.7991045)
(304.2421 -1.6846506e-16 -2.1381755)
(304.27277 1.6023748e-17 -2.3431045)
(304.14216 -4.6134222e-16 -1.8601246)
(304.10977 -5.7186964e-16 -2.0564478)
(304.12731 -1.0636702e-15 -1.699948)
(304.07024 -6.0941797e-16 -1.8618669)
(304.16877 -6.6300244e-16 -1.604842)
(304.10399 -4.1390553e-16 -1.7048736)
(304.2569 -4.5498423e-17 -1.5323922)
(304.1928 3.7485672e-17 -1.5867381)
(304.36656 -5.0008488e-16 -1.4712521)
(304.30397 -4.627173e-16 -1.5036523)
(304.49286 0 -1.3530526)
(304.43052 -1.0233264e-17 -1.4143044)
(304.62262 3.100309e-16 -1.1589946)
(304.55902 7.4642156e-18 -1.2552749)
(304.73798 6.170572e-16 -1.0165695)
(304.70878 1.3791962e-17 -0.98817807)
(304.85182 -4.9422333e-17 -0.81308235)
(304.88052 3.1770156e-18 -0.69107737)
(304.90627 -4.2763351e-16 -0.57000403)
(304.94682 -2.4006153e-17 -0.46978169)
(304.91496 3.6919664e-16 -0.35189381)
(304.9489 2.7507184e-16 -0.30545461)
(304.92339 6.1593219e-16 -0.17670913)
(304.91846 2.2207828e-16 -0.18373268)
(304.92414 1.6493665e-16 -0.17692561)
(220.78177 9.7210249e-17 -7.5052986)
(204.51192 2.686887e-16 -7.710336)
(253.11079 0 -8.7280248)
(242.09392 -2.6548993e-16 -8.7233956)
(278.21874 -8.4777916e-17 -9.757466)
(268.34483 1.1145029e-16 -9.9556996)
(301.4573 -2.9383428e-17 -10.79446)
(292.37219 -9.2107611e-17 -10.863643)
(318.4385 8.8534732e-17 -11.590534)
(314.44397 7.59464e-17 -12.443994)
(322.95404 2.3059691e-18 -11.804253)
(324.21453 -6.967988e-17 -11.969494)
(322.49201 0 -11.816423)
(321.55533 1.1688883e-16 -13.242171)
(322.82557 -3.5924542e-17 -11.861994)
(323.6202 6.1170986e-18 -11.631036)
(322.38138 -9.5060657e-18 -11.88682)
(321.88805 -7.9543279e-17 -13.538718)
(322.49761 3.4091154e-17 -11.937523)
(322.96747 2.7753676e-18 -11.654015)
(322.20647 1.8500641e-17 -11.985042)
(321.95268 3.5399022e-17 -13.541382)
(322.20545 5.2359312e-18 -12.042881)
(322.48544 2.8248623e-17 -11.942227)
(321.96551 -3.1142262e-17 -12.116504)
(321.86921 -1.8433157e-17 -13.423597)
(321.86389 -1.2012649e-17 -12.200789)
(322.05964 -1.631599e-17 -12.350607)
(321.62708 -1.4443324e-17 -12.297635)
(321.61288 4.6666485e-19 -13.338739)
(321.44737 3.3437122e-17 -12.408464)
(321.57711 -1.1351501e-17 -12.794061)
(321.17595 4.0318719e-17 -12.563892)
(321.22043 5.5326262e-17 -13.412011)
(320.88325 2.3233157e-17 -12.739883)
(321.01771 4.9422213e-20 -13.260845)
(320.49333 -1.0644567e-17 -12.940141)
(320.6303 1.2211592e-17 -13.662399)
(320.03948 -2.2577809e-17 -13.134738)
(320.25157 3.4405082e-17 -13.721916)
(319.49115 3.572502e-17 -13.320385)
(319.72937 6.2708967e-17 -13.997383)
(318.84373 5.2365583e-17 -13.484626)
(319.13696 7.2676207e-18 -14.127115)
(318.05772 6.3019354e-17 -13.598258)
(318.39653 4.8569532e-17 -14.294177)
(317.12123 3.6953986e-18 -13.61362)
(317.51911 9.3733919e-17 -14.335217)
(316.01682 -2.0955304e-16 -13.472306)
(316.4679 -8.2883732e-18 -14.260264)
(314.75123 -3.1649553e-16 -13.109928)
(315.25049 -9.2342799e-17 -13.963115)
(313.35278 -9.6307406e-17 -12.477111)
(313.87969 2.5207421e-18 -13.40044)
(311.87981 -1.1870239e-16 -11.557985)
(312.40939 -9.1753686e-18 -12.528817)
(310.40842 -1.3341824e-16 -10.386654)
(310.91111 3.2019884e-18 -11.370819)
(309.01746 0 -9.0446162)
(309.47006 -1.9825009e-16 -9.9961744)
(307.77128 0 -7.6417651)
(308.15734 0 -8.5166876)
(306.71105 0 -6.2896428)
(307.02481 2.4753155e-16 -7.0528853)
(305.85201 1.6342937e-17 -5.0767131)
(306.09443 0 -5.7099021)
(305.18987 -4.602036e-18 -4.0565024)
(305.36674 -2.7869637e-16 -4.5561396)
(304.70915 -2.1636153e-17 -3.2494124)
(304.82742 -2.7892496e-17 -3.62004)
(304.38303 2.5977455e-17 -2.6488118)
(304.45654 -1.6606608e-19 -2.9077072)
(304.19122 -3.206478e-16 -2.1896463)
(304.2087 7.870618e-18 -2.4138761)
(304.10362 -7.1485571e-16 -1.8917685)
(304.06537 1.5164494e-17 -2.0954306)
(304.09902 1.5711567e-17 -1.7158607)
(304.04085 -3.2705474e-16 -1.8763884)
(304.14802 2.3350295e-16 -1.6115394)
(304.08434 8.4906346e-16 -1.7053715)
(304.24018 -3.2202702e-16 -1.5295096)
(304.17696 3.5572851e-16 -1.5800132)
(304.35272 -2.4738972e-17 -1.4560532)
(304.28965 -2.8121584e-17 -1.491657)
(304.48104 -4.8228071e-18 -1.3291208)
(304.41708 -1.0246759e-17 -1.3953012)
(304.62195 -2.9054724e-16 -1.129825)
(304.54922 -4.6849657e-16 -1.2233759)
(304.74624 -6.0339224e-16 -0.98531951)
(304.72121 -3.3839143e-16 -0.95258859)
(304.85725 3.0426721e-17 -0.77327817)
(304.88256 -2.5545877e-16 -0.66536903)
(304.90616 6.5261608e-16 -0.54467726)
(304.94287 -1.0908598e-17 -0.45862202)
(304.91277 1.3348259e-16 -0.33705037)
(304.9427 1.5438533e-17 -0.30265215)
(304.92035 -2.2979531e-16 -0.17397474)
(304.91458 -2.0545077e-16 -0.18297471)
(304.92233 -2.3769536e-18 -0.17138487)
(222.4387 -4.4369549e-17 -8.5169607)
(206.07942 5.4309681e-16 -8.6765937)
(254.933 -1.8589446e-16 -9.885044)
(243.80138 -2.5720862e-16 -9.8325578)
(280.30111 1.2011313e-16 -11.033967)
(270.25952 -2.9203565e-18 -11.202336)
(303.35035 -2.2971918e-18 -12.173047)
(294.65559 0 -12.213271)
(319.32363 -6.728092e-17 -12.984216)
(315.78998 1.0666913e-19 -13.905255)
(323.06194 2.771592e-17 -13.181678)
(324.39971 -7.4535012e-17 -13.304025)
(322.50037 1.3151419e-16 -13.189054)
(321.53535 1.1421065e-16 -14.685843)
(322.83896 -2.9813774e-17 -13.239726)
(323.65295 -6.3422247e-18 -12.959811)
(322.38894 -7.4006807e-17 -13.26443)
(321.87128 -8.0707969e-17 -14.975688)
(322.50973 1.5105374e-18 -13.318003)
(322.98359 1.2123899e-18 -12.998059)
(322.20484 4.5488424e-17 -13.367848)
(321.94414 4.1210708e-17 -14.965834)
(322.20767 8.7835584e-18 -13.431359)
(322.48138 2.3816089e-17 -13.314209)
(321.97939 -4.1078433e-18 -13.507197)
(321.85952 -1.0254238e-17 -14.843336)
(321.8846 -5.4411911e-18 -13.592624)
(322.04711 -1.5955395e-17 -13.756591)
(321.65508 4.4169723e-18 -13.712193)
(321.6194 1.324217e-17 -14.77274)
(321.4663 4.6881374e-18 -13.851512)
(321.58543 1.1920496e-17 -14.243902)
(321.17525 2.041697e-17 -14.016487)
(321.22577 -7.0873174e-19 -14.869922)
(320.86148 -1.1732196e-17 -14.199589)
(321.01763 0 -14.724871)
(320.45862 5.4522722e-17 -14.384279)
(320.60828 -2.6180907e-17 -15.114497)
(320.00083 1.1560494e-16 -14.570723)
(320.21281 7.4959737e-17 -15.176787)
(319.43995 3.9490124e-17 -14.755375)
(319.67479 8.1948812e-17 -15.446914)
(318.76623 0 -14.908618)
(319.0575 0 -15.573059)
(317.94945 7.4811725e-17 -14.998499)
(318.2871 -8.9579749e-17 -15.719981)
(316.97371 9.0963529e-17 -14.970238)
(317.37134 -2.3957182e-17 -15.726435)
(315.8263 1.1456859e-16 -14.760698)
(316.27636 8.7190749e-18 -15.590725)
(314.51749 2.1296575e-16 -14.301451)
(315.01294 2.4624382e-17 -15.204674)
(313.08303 8.9432719e-17 -13.543906)
(313.60101 2.713125e-16 -14.522053)