/*--------------------------------*- C++ -*----------------------------------*\
  =========                 |
  \\      /  F ield         | OpenFOAM: The Open Source CFD Toolbox
   \\    /   O peration     | Website:  https://openfoam.org
    \\  /    A nd           | Version:  8
     \\/     M anipulation  |
\*---------------------------------------------------------------------------*/
FoamFile
{
    version     2.0;
    format      ascii;
    class       volScalarField;
    location    "0.0699881";
    object      T;
}
// * * * * * * * * * * * * * * * * * * * * * * * * * * * * * * * * * * * * * //

dimensions      [0 0 0 1 0 0 0];

internalField   nonuniform List<scalar> 
20000
(
297.55204
297.21035
295.94383
293.30327
288.23073
281.6409
280.9776
280.71083
281.27656
281.21747
281.63726
281.72208
282.08745
282.29089
282.66169
282.97432
283.39767
283.82585
284.33988
284.89703
285.53034
286.22424
286.98844
287.84158
288.81192
289.85784
290.94711
292.05001
293.13871
294.17164
295.11281
295.93698
296.63164
297.19726
297.6425
297.98147
298.22609
298.40086
298.53232
298.61549
298.64066
298.642
298.63421
298.58199
298.51987
298.3922
298.21237
298.11601
298.07606
298.0789
297.48958
297.01927
295.63032
292.81961
287.33988
281.05384
280.75345
280.47043
281.03752
280.97705
281.39869
281.48544
281.85374
282.06234
282.43748
282.75832
283.189
283.62851
284.15264
284.72146
285.36593
286.07811
286.88614
287.8029
288.78994
289.84782
290.95077
292.07727
293.18261
294.22462
295.16765
295.98789
296.67532
297.23258
297.67021
298.00196
298.24046
298.42131
298.55391
298.62404
298.64728
298.65042
298.63788
298.58978
298.52219
298.34643
298.19457
298.11813
298.09326
298.07817
297.37289
296.77581
295.25336
292.26596
286.35159
280.4945
280.50801
280.22825
280.80311
280.74339
281.17083
281.26122
281.63384
281.84889
282.2293
282.55975
282.99851
283.44977
283.98357
284.56466
285.22507
285.96614
286.81412
287.76256
288.78143
289.85963
290.99188
292.13829
293.25704
294.30397
295.24435
296.05644
296.73291
297.27873
297.70595
298.02816
298.25998
298.44187
298.56649
298.63156
298.65302
298.65494
298.64053
298.59295
298.51567
298.33018
298.18913
298.11942
298.09412
298.07859
297.31515
296.56142
294.89796
291.74166
285.40948
280.03763
280.30189
280.01525
280.59421
280.53371
280.96459
281.05805
281.43426
281.65591
282.0415
282.38128
282.82691
283.28824
283.83173
284.42884
285.11535
285.90008
286.78684
287.75637
288.78982
289.8999
291.05671
292.22325
293.35329
294.40243
295.33716
296.13807
296.80078
297.33272
297.74744
298.05852
298.28372
298.46525
298.58244
298.64111
298.65984
298.66161
298.64414
298.59517
298.504
298.3073
298.18217
298.12084
298.09912
298.07883
297.21367
296.32145
294.51331
291.18731
284.47759
279.64987
280.10457
279.81534
280.40032
280.34076
280.77655
280.87447
281.25468
281.4837
281.8745
282.22339
282.67518
283.14726
283.70482
284.32879
285.05569
285.87274
286.77664
287.7599
288.83061
289.97017
291.15341
292.33772
293.4761
294.52377
295.44894
296.23499
296.88066
297.39595
297.79568
298.09387
298.31279
298.48911
298.59752
298.65069
298.66671
298.6678
298.64848
298.59623
298.48543
298.29362
298.1776
298.1216
298.10073
298.07909
297.16231
296.10275
294.13186
290.62175
283.59718
279.33219
279.9326
279.63957
280.23047
280.17132
280.61191
280.71454
281.09787
281.33434
281.72974
282.08781
282.54726
283.03533
283.61667
284.27892
285.03053
285.86453
286.78413
287.80086
288.90161
290.07197
291.27943
292.47949
293.62297
294.66546
295.57731
296.34504
296.97068
297.46685
297.84941
298.13324
298.34611
298.514
298.61347
298.66079
298.67397
298.67461
298.65381
298.59716
298.46431
298.28015
298.17344
298.1221
298.10257
298.07925
297.09168
295.88125
293.7403
290.02783
282.77958
279.07373
279.78311
279.48602
280.08538
280.02496
280.47299
280.5811
280.96452
281.20882
281.60908
281.97872
282.4526
282.96854
283.57856
284.25854
285.02389
285.87404
286.82514
287.87153
289.00603
290.20599
291.43656
292.64952
293.79447
294.82771
295.72227
296.46812
297.07077
297.54535
297.90854
298.17658
298.38304
298.53991
298.62978
298.67168
298.68145
298.68148
298.65983
298.59787
298.44241
298.26887
298.16977
298.12217
298.10352
298.07932
297.06036
295.68836
293.35871
289.40981
282.04777
278.86971
279.66914
279.35917
279.97263
279.90612
280.36173
280.47245
280.85699
281.11053
281.51879
281.90708
282.40336
282.94079
283.56302
284.2553
285.03685
285.91684
286.8971
287.97718
289.14393
290.37287
291.62426
292.84696
293.98936
295.00912
295.88241
296.60295
297.17982
297.63053
297.97237
298.22349
298.42272
298.56699
298.64701
298.68323
298.68941
298.68849
298.66597
298.59707
298.42127
298.25822
298.16637
298.12211
298.10427
298.07927
297.03098
295.50842
292.98366
288.75647
281.41086
278.71239
279.57857
279.25977
279.88395
279.82082
280.26919
280.38381
280.7796
281.04697
281.46974
281.87682
282.38283
282.93203
283.56269
284.27368
285.08162
285.98988
287.00297
288.11655
289.31622
290.57277
291.84258
293.07132
294.20685
295.20874
296.05675
296.74862
297.29706
297.72172
298.04043
298.274
298.46455
298.59493
298.66503
298.69533
298.69812
298.69553
298.67117
298.59326
298.40154
298.24877
298.16327
298.12191
298.10471
298.07913
297.03135
295.35205
292.62588
288.06981
280.88569
278.59724
279.49905
279.19094
279.8064
279.7596
280.20104
280.3306
280.73892
281.01985
281.44901
281.86627
282.37777
282.93697
283.58693
284.32237
285.15661
286.0965
287.14291
288.29116
289.5231
290.80567
292.09083
293.3215
294.44555
295.42507
296.24388
296.9039
297.42143
297.81798
298.11211
298.3283
298.50774
298.62333
298.68302
298.70782
298.70805
298.70246
298.67424
298.58566
298.38373
298.24031
298.16048
298.12166
298.105
298.07888
297.03063
295.20252
292.27682
287.34359
280.44599
278.51273
279.44341
279.14282
279.75645
279.71388
280.16752
280.3073
280.72129
281.01068
281.44286
281.86836
282.39045
282.97021
283.63985
284.40082
285.26418
286.23652
287.31779
288.50098
289.76469
291.07118
292.36823
293.59635
294.70407
295.6567
296.44243
297.06757
297.55189
297.91841
298.18687
298.38653
298.55151
298.65186
298.70108
298.72065
298.71895
298.70999
298.67606
298.57382
298.36804
298.23286
298.15799
298.12135
298.10518
298.07854
297.04797
295.06725
291.94122
286.58466
280.09204
278.45466
279.40637
279.10211
279.728
279.68388
280.15387
280.298
280.71627
281.01293
281.45107
281.89301
282.43028
283.03011
283.72256
284.51105
285.40474
286.41116
287.52808
288.74642
290.04077
291.3686
292.67353
293.89423
294.98065
295.90186
296.65081
297.23826
297.68726
298.02205
298.26418
298.44818
298.59539
298.68023
298.71908
298.73382
298.73045
298.71845
298.67731
298.55798
298.35435
298.22623
298.15577
298.12103
298.10527
298.07811
297.07358
294.93948
291.61469
285.80391
279.8195
278.42245
279.39553
279.10264
279.72417
279.6977
280.15547
280.30453
280.72485
281.0359
281.48483
281.94386
282.49747
283.11986
283.83615
284.6534
285.57906
286.62063
287.77403
289.02736
290.35093
291.69702
293.00539
294.2135
295.27353
296.15883
296.86743
297.4146
297.82635
298.12807
298.34377
298.5121
298.63918
298.70822
298.73706
298.74742
298.74213
298.7278
298.67826
298.53948
298.34175
298.22022
298.15378
298.12077
298.10534
298.0776
297.11638
294.81811
291.29053
285.00323
279.62071
278.41292
279.40146
279.09753
279.73236
279.69992
280.17459
280.34158
280.75868
281.08529
281.54535
282.02285
282.59403
283.23956
283.98129
284.8287
285.78762
286.86541
288.05579
289.34358
290.69435
292.05508
293.36198
294.55211
295.58057
296.42557
297.09049
297.59507
297.96796
298.23576
298.42565
298.57697
298.68236
298.73563
298.75507
298.76156
298.75358
298.73767
298.6789
298.51956
298.32959
298.21473
298.15216
298.1207
298.10549
298.07702
297.16012
294.69436
290.9589
284.20436
279.48819
278.43793
279.42696
279.11435
279.76235
279.72634
280.22191
280.39417
280.82099
281.16289
281.63428
282.13056
282.72008
283.38998
284.15838
285.03717
286.03063
287.14555
288.3732
289.69462
291.07015
292.4414
293.74155
294.90806
295.89969
296.70007
297.31826
297.77831
298.11104
298.34459
298.50986
298.64124
298.72442
298.76247
298.77337
298.77609
298.76448
298.74731
298.67758
298.4989
298.31775
298.20973
298.15106
298.121
298.10583
298.07636
297.22287
294.58717
290.63271
283.43998
279.42488
278.4947
279.47451
279.18191
279.81185
279.80439
280.2877
280.47881
280.91043
281.26771
281.75102
282.26685
282.87596
283.57124
284.36769
285.2791
286.30827
287.46108
288.726
290.07971
291.47696
292.85405
294.14177
295.27882
296.22834
296.98004
297.54894
297.96296
298.25465
298.45418
298.59585
298.70343
298.76499
298.78895
298.79242
298.79043
298.77481
298.75543
298.67385
298.47802
298.3063
298.20513
298.15032
298.12169
298.10645
298.07559
297.30929
294.49658
290.30502
282.72786
279.4246
278.55365
279.54296
279.25553
279.89375
279.8953
280.38221
280.58669
281.02554
281.39934
281.89549
282.43186
283.06169
283.78343
284.60924
285.55445
286.62049
287.81181
289.11376
290.49804
291.91347
293.29123
294.56047
295.66198
296.56415
297.26353
297.78109
298.14789
298.39807
298.56414
298.68163
298.76303
298.80414
298.81566
298.81195
298.8044
298.78478
298.75969
298.6669
298.45744
298.2953
298.20081
298.1498
298.12267
298.10739
298.0747
297.41181
294.41755
289.96385
282.08871
279.47696
278.64136
279.63882
279.35959
280.00282
280.01916
280.50181
280.72059
281.1666
281.55771
282.06768
282.62539
283.2772
284.02652
284.88305
285.86325
286.9672
288.19744
289.53582
290.94835
292.3778
293.75051
294.99482
296.05455
296.90448
297.54867
298.01341
298.33201
298.54051
298.67381
298.76495
298.81972
298.84238
298.84314
298.83104
298.81814
298.79489
298.76205
298.65588
298.43754
298.28478
298.19671
298.1494
298.12375
298.10857
298.07368
297.52836
294.35277
289.60531
281.54524
279.57735
278.75742
279.76234
279.48443
280.13576
280.15642
280.64557
280.87945
281.33342
281.74267
282.26737
282.84738
283.52233
284.30035
285.18893
286.20536
287.34819
288.61768
289.99149
291.42954
292.86822
294.22968
295.44219
296.45386
297.24732
297.83435
298.24493
298.51424
298.68102
298.7819
298.84419
298.87389
298.88084
298.87025
298.84949
298.83174
298.8058
298.76349
298.64007
298.41864
298.27471
298.19279
298.14915
298.12532
298.1091
298.07253
297.65277
294.29853
289.22337
281.06415
279.68267
278.89395
279.908
279.63366
280.2918
280.32181
280.81376
281.06357
281.52589
281.95392
282.49435
283.09744
283.79685
284.60476
285.52682
286.58066
287.76326
289.07197
290.47974
291.93986
293.38234
294.7257
295.89924
296.85706
297.59101
298.11954
298.47433
298.69313
298.81829
298.88616
298.91926
298.92668
298.91917
298.89635
298.86704
298.84516
298.81804
298.76456
298.61934
298.40091
298.26496
298.18905
298.14919
298.12754
298.10921
298.07127
297.78245
294.25578
288.82076
280.6625
279.84135
279.05449
280.07755
279.80631
280.46855
280.50975
281.00576
281.27223
281.74346
282.19102
282.74819
283.37533
284.10052
284.93954
285.89655
286.98902
288.21219
289.55988
290.99971
292.47785
293.91801
295.2358
296.36313
297.26224
297.93481
298.40303
298.69958
298.86694
298.95092
298.98537
298.99111
298.9791
298.95595
298.92128
298.88349
298.85815
298.83122
298.76477
298.59535
298.38349
298.25549
298.18551
298.14961
298.1303
298.10907
298.0699
297.9153
294.22354
288.40173
280.34094
280.01946
279.23728
280.26765
280.00168
280.66531
280.72134
281.22096
281.50484
281.98568
282.45349
283.02856
283.68069
284.43312
285.30464
286.29808
287.43036
288.69465
290.08063
291.54996
293.04125
294.47214
295.75645
296.8308
297.66799
298.27759
298.68186
298.91754
299.03403
299.07796
299.08036
299.06133
299.02914
298.99119
298.94487
298.89873
298.87031
298.84316
298.76267
298.56938
298.36643
298.24656
298.18239
298.15036
298.13343
298.10877
298.06843
298.04133
294.1968
287.96941
280.09048
280.22325
279.44037
280.47775
280.21855
280.88399
280.95502
281.45862
281.76085
282.25205
282.74098
283.33508
284.01335
284.79454
285.70001
286.73145
287.90464
289.21045
290.63365
292.12934
293.62809
295.04202
296.28468
297.30036
298.07379
298.61708
298.95214
299.12637
299.19386
299.19998
299.17253
299.12799
299.07693
299.02456
298.96695
298.91282
298.88145
298.85053
298.75792
298.54257
298.35026
298.23871
298.17994
298.15123
298.13659
298.10836
298.06688
298.15967
294.18014
287.53398
279.92667
280.4478
279.66408
280.70401
280.45638
281.12311
281.21053
281.71851
282.03983
282.5423
283.05307
283.66756
284.37319
285.18484
286.1258
287.19674
288.41179
289.75913
291.21788
292.73589
294.23545
295.62399
296.81718
297.77035
298.47792
298.94813
299.21121
299.32506
299.34769
299.31778
299.25973
299.19141
299.12206
299.05591
298.98725
298.92608
298.89192
298.85429
298.74946
298.51622
298.33552
298.23234
298.17858
298.15188
298.13924
298.10789
298.06526
298.26319
294.16101
287.09464
279.84261
280.68976
279.90751
280.94961
280.71505
281.38275
281.48771
282.00022
282.34142
282.85603
283.38957
284.02599
284.76035
285.60419
286.58222
287.6941
288.95184
290.34042
291.83253
293.36797
294.86075
296.215
297.35194
298.24026
298.87639
299.26686
299.4573
299.51557
299.49615
299.42923
299.34232
299.2511
299.16451
299.08507
299.00541
298.93891
298.90246
298.85625
298.73602
298.49166
298.32252
298.22724
298.17766
298.15212
298.14035
298.10738
298.06358
298.36178
294.14421
286.67254
279.83913
280.95112
280.17175
281.21545
280.99408
281.66274
281.78589
282.3033
282.66518
283.1931
283.75054
284.41055
285.17511
286.05293
287.06958
288.22367
289.52465
290.95361
292.47606
294.02292
295.50034
296.81152
297.88718
298.7081
299.26322
299.56989
299.69136
299.70006
299.63641
299.53451
299.4198
299.30704
299.20415
299.11189
299.02136
298.95141
298.91395
298.85737
298.71669
298.46958
298.31114
298.22309
298.17717
298.1525
298.14086
298.10682
298.06185
298.44475
294.11557
286.27367
279.90763
281.2281
280.45411
281.49932
281.29266
281.96195
282.10456
282.62748
283.01114
283.55378
284.13634
284.82168
285.61788
286.53145
287.5882
288.78572
290.13021
291.59835
293.1472
294.69844
296.15117
297.41128
298.42229
299.16891
299.6343
299.8564
299.91727
299.87506
299.7688
299.63316
299.49215
299.3591
299.24088
299.13615
299.03521
298.96332
298.92638
298.85779
298.69166
298.44972
298.30094
298.21968
298.17724
298.1538
298.14096
298.1062
298.06011
298.51568
294.07157
285.9136
280.04075
281.52257
280.7551
281.80125
281.61086
282.2806
282.44388
282.97319
283.3798
283.93865
284.54749
285.2598
286.08911
287.04016
288.13845
289.38036
290.76824
292.27349
293.8437
295.391
296.80951
298.01191
298.95527
299.61593
299.98602
300.12957
300.13348
300.03997
299.89267
299.72509
299.55927
299.40725
299.27449
299.15759
299.04765
298.97387
298.93756
298.85519
298.66337
298.43055
298.29154
298.21691
298.17825
298.15669
298.14082
298.10549
298.05833
298.5781
294.00837
285.60497
280.23167
281.83427
281.07487
282.12134
281.94831
282.61914
282.80449
283.34127
283.77184
284.34829
284.98444
285.72535
286.58929
287.57953
288.72076
290.00785
291.43868
292.97825
294.56361
296.09769
297.47274
298.61245
299.48135
300.04436
300.31756
300.39306
300.3374
300.19436
300.00801
299.81022
299.62117
299.4514
299.30473
299.17606
299.05942
298.98253
298.94371
298.85004
298.63315
298.41208
298.28292
298.21467
298.17976
298.16044
298.14051
298.10436
298.05652
298.63405
293.91751
285.35241
280.47323
282.1621
281.41352
282.46016
282.30684
282.97877
283.1876
283.73246
284.1877
284.783
285.44753
286.21882
287.11895
288.15013
289.33551
290.66823
292.14087
293.71084
295.30372
296.81458
298.13789
299.21112
299.99288
300.45025
300.63327
300.64377
300.52855
300.33798
300.11465
299.88856
299.67784
299.49145
299.33144
299.1919
299.07031
298.99011
298.9466
298.84176
298.60244
298.39484
298.27539
298.21279
298.18103
298.16388
298.1401
298.10289
298.05467
298.68079
293.79879
285.16685
280.76275
282.50985
281.77386
282.81979
282.68802
283.36035
283.5932
284.14682
284.62732
285.24307
285.93722
286.74074
287.67882
288.75252
289.98319
291.3617
292.87446
294.4697
296.06134
297.53883
298.80348
299.80436
300.48381
300.83218
300.93694
300.87937
300.70658
300.4708
300.2127
299.96019
299.72935
299.52732
299.35474
299.20562
299.08014
298.99777
298.94766
298.82949
298.57283
298.37946
298.26925
298.21134
298.18151
298.16515
298.13968
298.1011
298.05279
298.73085
293.66025
285.05377
281.07812
282.87851
282.15631
283.20002
283.0905
283.76296
284.0208
284.58405
285.09103
285.72895
286.45414
287.29195
288.2696
289.38735
290.66411
292.0881
293.63816
295.25213
296.8325
298.26705
299.46754
300.38392
300.94976
301.19448
301.22528
301.09925
300.87129
300.59279
300.3022
300.02521
299.77565
299.559
299.37527
299.21832
299.08931
299.0052
298.94791
298.81172
298.54618
298.36631
298.26446
298.21037
298.18155
298.16566
298.13918
298.09908
298.0509
298.78574
293.50134
285.01641
281.41556
283.26469
282.55775
283.59876
283.5128
284.18617
284.47044
285.04484
285.57955
286.24151
286.99925
287.87324
288.89204
290.05521
291.37877
292.84738
294.43101
296.05568
297.6143
298.99706
300.12805
300.94251
301.38813
301.54141
301.49587
301.30318
301.02277
300.70415
300.3834
300.08374
299.81676
299.58677
299.39399
299.23075
299.09742
299.01064
298.94633
298.78787
298.52355
298.35522
298.26071
298.2098
298.18157
298.16563
298.13832
298.09688
298.04899
298.82933
293.31665
285.05677
281.84008
283.66729
282.97812
284.01626
283.95648
284.63108
284.94341
285.53036
286.09386
286.78166
287.57339
288.48542
289.54694
290.75671
292.12738
293.63891
295.25077
296.87669
298.40289
299.7262
300.77742
301.47454
301.80181
301.87105
301.74755
301.491
301.16108
300.80508
300.45647
300.13584
299.85275
299.61122
299.41152
299.2416
299.1034
299.01222
298.9417
298.76025
298.50345
298.34561
298.25775
298.21014
298.18216
298.16532
298.13693
298.09452
298.04709
298.86668
293.11591
285.16644
282.23393
284.08913
283.42003
284.45486
284.42351
285.09923
285.44079
286.04148
286.63475
287.35021
288.17738
289.12933
290.23504
291.49253
292.91025
294.46214
296.09549
297.71216
299.19577
300.45297
301.40779
301.97603
302.19574
302.18054
301.98027
301.66292
301.28658
300.89594
300.52163
300.1816
299.884
299.63316
299.4271
299.24718
299.10582
299.01249
298.93423
298.73085
298.48494
298.33704
298.25501
298.2105
298.18364
298.16487
298.13503
298.09204
298.04521
298.89223
292.91167
285.35061
282.66485
284.53263
283.88493
284.91584
284.91411
285.59127
285.96291
286.57878
287.20289
287.94797
288.81213
289.80586
290.95721
292.26321
293.72725
295.31549
296.96182
298.55805
299.98954
301.17248
302.01097
302.44673
302.57089
302.46768
302.19386
301.81911
301.39956
300.97697
300.57896
300.22121
299.91126
299.65319
299.43786
299.24918
299.10648
299.01205
298.92408
298.70092
298.46775
298.32938
298.25239
298.21018
298.1845
298.1644
298.13267
298.08945
298.04336
298.90644
292.71129
285.60089
283.11864
284.99708
284.37243
285.39902
285.428
286.10731
286.51033
287.1429
287.79921
288.57579
289.47867
290.51598
291.71437
293.06945
294.57834
296.19749
297.84692
299.41148
300.78212
301.87628
302.58247
302.89197
302.92376
302.73267
302.38863
301.96008
301.50051
301.04846
300.62864
300.25522
299.93556
299.67086
299.44233
299.24945
299.10604
299.01139
298.91137
298.6714
298.45194
298.32254
298.25001
298.20956
298.18453
298.1639
298.12992
298.08678
298.04153
298.92378
292.52069
285.9076
283.59802
285.48283
284.88218
285.90451
285.96592
286.64827
287.08371
287.73494
288.42452
289.23479
290.17813
291.26083
292.50748
293.91163
295.46265
297.10534
298.74665
300.26847
301.56995
302.55466
303.11803
303.31641
303.25092
302.97523
302.56485
302.08623
301.58975
301.11055
300.67101
300.2846
299.95759
299.68337
299.44405
299.24902
299.10508
299.00911
298.89589
298.64343
298.43772
298.31647
298.24779
298.20872
298.1842
298.16312
298.12687
298.08404
298.03975
298.94536
292.34789
286.2662
284.10028
285.98882
285.41508
286.43289
286.52898
287.215
287.68407
288.35575
289.07996
289.92616
290.91175
292.0416
293.33753
294.7902
296.37922
298.03659
299.65786
301.12626
302.34689
303.20097
303.6221
303.71645
303.55247
303.19582
302.72317
302.19816
301.66764
301.16364
300.70709
300.31062
299.97661
299.68873
299.44443
299.24792
299.10366
299.00455
298.87716
298.61826
298.42523
298.31111
298.24572
298.20783
298.1837
298.16183
298.12361
298.08127
298.03801
298.97628
292.19646
286.66928
284.62764
286.51685
285.97263
286.98545
287.11775
287.80842
288.31218
289.00642
289.76684
290.65126
291.68104
292.8596
294.20544
295.70485
297.3259
298.98714
300.57642
301.98104
303.10241
303.80918
304.09922
304.08886
303.82798
303.39474
302.86408
302.29625
301.73446
301.20852
300.73843
300.33385
299.98925
299.69097
299.44403
299.2453
299.10107
298.99722
298.85495
298.59662
298.41448
298.30633
298.24361
298.20672
298.18315
298.16001
298.1202
298.07847
298.03631
299.02574
292.06978
287.11766
285.18024
287.06763
286.55517
287.56258
287.73261
288.42947
288.96916
289.68842
290.48677
291.4118
292.48752
293.71619
295.11203
296.65525
298.30051
299.95376
301.49898
302.82963
303.82733
304.37881
304.55109
304.43156
304.07805
303.57278
302.98833
302.381
301.79096
301.24669
300.7663
300.35277
299.99478
299.69166
299.4418
299.24149
299.09715
298.98709
298.82977
298.57836
298.40509
298.30194
298.24148
298.20548
298.1826
298.15765
298.11669
298.07566
298.03467
299.09935
291.97021
287.60557
285.75783
287.64038
287.16315
288.16497
288.37488
289.07971
289.65667
290.40357
291.2416
292.20954
293.33294
294.61273
296.05766
297.6399
299.29944
300.93183
302.42069
303.66198
304.51411
304.91421
304.97326
304.74454
304.30296
303.73052
303.09639
302.453
301.83852
301.27984
300.7899
300.36296
299.99711
299.69139
299.43784
299.23644
299.09171
298.97439
298.80411
298.56184
298.39661
298.29783
298.23934
298.20409
298.18201
298.15476
298.11311
298.07285
298.03307
299.2021
291.91583
288.13085
286.36169
288.23601
287.79847
288.79472
289.04645
289.76123
290.3766
291.15386
292.03338
293.0464
294.21899
295.55042
297.04253
298.65709
300.31944
301.91793
303.33835
304.46778
305.15748
305.42188
305.36228
305.02819
304.50366
303.86885
303.18904
302.51357
301.87923
301.30851
300.80529
300.36755
299.99792
299.6888
299.43223
299.23024
299.0847
298.95948
298.77882
298.54647
298.38868
298.29392
298.23728
298.20257
298.18112
298.15138
298.10947
298.07007
298.03153
299.33764
291.89959
288.68933
286.99504
288.85722
288.4639
289.45363
289.74941
290.47592
291.13093
291.94138
292.86427
293.92448
295.14747
296.53021
298.06577
299.70367
301.35573
302.90689
304.24546
305.23574
305.75971
305.89768
305.71748
305.28289
304.68082
303.98842
303.26719
302.5646
301.91432
301.32997
300.81198
300.36928
299.99731
299.68422
299.4251
299.22289
299.07605
298.94277
298.75429
298.53189
298.38105
298.29006
298.23529
298.20111
298.17977
298.14755
298.10576
298.06732
298.03003
299.51945
291.91099
289.28867
287.66052
289.50634
289.16217
290.14252
290.48466
291.22618
291.92192
292.76868
293.73664
294.84577
296.12006
297.55274
299.1262
300.77653
302.40448
303.89433
305.131
305.95969
306.3265
306.33854
306.03914
305.50961
304.83549
304.09033
303.33264
302.6081
301.94229
301.33979
300.81465
300.36958
299.99408
299.67767
299.41662
299.21444
299.0658
298.92462
298.73075
298.51801
298.37365
298.28617
298.23323
298.19974
298.17789
298.14336
298.10198
298.06461
298.0286
299.73783
291.94611
289.9211
288.3583
290.18246
289.8934
290.86498
291.2559
292.01424
292.75249
293.63804
294.65274
295.81256
297.13819
298.61783
300.2211
301.87089
303.46011
304.87424
305.98254
306.6354
306.8603
306.74071
306.32762
305.70911
304.96853
304.1759
303.38761
302.64414
301.95793
301.34404
300.81537
300.3674
299.9887
299.66937
299.40689
299.20488
299.05397
298.90532
298.70807
298.50485
298.36658
298.28236
298.23115
298.19827
298.17548
298.13895
298.09812
298.06197
298.02721
300.00588
292.01507
290.59196
289.09224
290.88959
290.6606
291.62444
292.06486
292.84305
293.62501
294.55214
295.61519
296.82675
298.20289
299.72462
301.34762
302.98238
304.51765
305.83857
306.79027
307.26779
307.35669
307.10507
306.58399
305.88269
305.08134
304.24724
303.43398
302.66932
301.9649
301.34529
300.81359
300.36259
299.98121
299.65949
299.39604
299.19423
299.04069
298.88517
298.6863
298.49243
298.3599
298.27867
298.22898
298.19663
298.17259
298.13442
298.09421
298.05939
298.02587
300.32223
292.1155
291.29765
289.8638
291.62907
291.46709
292.42186
292.91452
293.71547
294.5426
295.51375
296.62669
297.89029
299.31451
300.87106
302.50104
304.10522
305.57004
306.77307
307.54593
307.86287
307.81074
307.43147
306.80907
306.03145
305.17566
304.30654
303.4707
302.68127
301.9674
301.34388
300.80856
300.3554
299.97185
299.64819
299.38417
299.18252
299.02604
298.86449
298.66568
298.48078
298.35363
298.27505
298.22667
298.19479
298.16927
298.12987
298.09029
298.05688
298.02457
300.68968
292.25421
292.04084
290.67763
292.40478
292.31587
293.26114
293.80794
294.63482
295.50845
296.52612
297.68949
299.00444
300.47251
302.05428
303.6767
305.23388
306.61107
307.66565
308.25092
308.41803
308.222
307.72118
307.00435
306.15715
305.25408
304.35556
303.49223
302.68625
301.96681
301.33848
300.80082
300.34604
299.9608
299.63564
299.37137
299.16978
299.01018
298.84353
298.64631
298.46995
298.34778
298.27145
298.22413
298.19273
298.16556
298.12528
298.0864
298.05443
298.02333
301.11241
292.46146
292.82226
291.5356
293.21936
293.20917
294.14563
294.7484
295.60458
296.52608
297.5919
298.80597
300.16999
301.67532
303.26983
304.86826
306.3603
307.62708
308.50517
308.91
308.92819
308.5902
307.97498
307.17117
306.2618
305.31879
304.39271
303.50217
302.68729
301.96173
301.32985
300.79049
300.33472
299.94824
299.62198
299.35772
299.15604
298.99324
298.82255
298.62835
298.45991
298.34232
298.26786
298.22132
298.19043
298.16148
298.12064
298.08256
298.05205
298.02213
301.58181
292.73019
293.64145
292.44054
294.07605
294.15046
295.07932
295.74014
296.62839
297.59911
298.71368
299.97751
301.38676
302.92024
304.51286
306.0697
307.47758
308.60445
309.28691
309.52731
309.38985
308.91664
308.19467
307.31171
306.34823
305.37084
304.41241
303.50609
302.68376
301.9527
301.31816
300.77792
300.32167
299.93435
299.60735
299.34329
299.14135
298.9754
298.8018
298.61182
298.45059
298.33721
298.26431
298.21824
298.18784
298.15706
298.11595
298.07876
298.04972
298.02098
302.09824
293.07361
294.50372
293.39669
294.98243
295.1432
296.06801
296.78602
297.71037
298.72983
299.89364
301.20555
302.65368
304.20307
305.77647
307.27232
308.57408
309.52829
310.01408
310.09595
309.80304
309.20205
308.3818
307.42823
306.4188
305.4074
304.42123
303.50543
302.6752
301.94002
301.30381
300.76334
300.30708
299.9193
299.59189
299.32815
299.12577
298.95683
298.78147
298.59647
298.44198
298.33234
298.2608
298.21513
298.18492
298.15238
298.11121
298.07503
298.04744
298.01987
302.65756
293.50924
295.41068
294.40917
295.9426
296.19217
297.11511
297.8901
298.85269
299.92131
301.13395
302.49013
303.96815
305.51849
307.05371
308.46726
309.63388
310.38976
310.69508
310.61086
310.16873
309.44851
308.53894
307.52377
306.47472
305.42684
304.42423
303.49878
302.66243
301.92419
301.28715
300.74703
300.29116
299.90325
299.57572
299.31236
299.10937
298.9377
298.76172
298.5821
298.43406
298.32766
298.25736
298.21207
298.18165
298.14748
298.10649
298.07138
298.04521
298.01879
303.24768
294.05259
296.36366
295.47777
296.95834
297.30056
298.22421
299.05492
300.05846
301.17654
302.43647
303.8309
305.3261
306.85913
308.33494
309.64291
310.64033
311.18935
311.32265
311.07113
310.48774
309.65773
308.66866
307.60097
306.51195
305.43555
304.42127
303.48698
302.6458
301.90559
301.26846
300.7292
300.27407
299.88634
299.55893
299.29598
299.09221
298.91815
298.74262
298.56874
298.42672
298.32319
298.25398
298.20898
298.17799
298.14243
298.10181
298.06784
298.04302
298.01772
303.86389
294.72686
297.37001
296.6054
298.03845
298.46558
299.39879
300.28507
301.33226
302.49931
303.80229
305.22491
306.72143
308.21651
309.60962
310.78336
311.58136
311.9339
311.89194
311.47754
310.76234
309.83276
308.7743
307.6615
306.53156
305.43757
304.41181
303.47063
302.62594
301.88466
301.24807
300.71007
300.25599
299.86872
299.54163
299.27906
299.07438
298.89832
298.7242
298.55631
298.42003
298.31891
298.25063
298.20581
298.17397
298.13726
298.09718
298.06437
298.04087
298.0167
304.49263
295.55164
298.42901
297.79068
299.18539
299.6942
300.64548
301.58711
302.67926
303.89188
305.23057
306.66793
308.14585
309.57975
310.86438
311.86979
312.45263
312.62047
312.39924
311.83096
310.99452
309.97666
308.8587
307.70044
306.54031
305.43237
304.39687
303.45033
302.60329
301.86174
301.22624
300.68985
300.23707
299.8505
299.5239
299.26164
299.05598
298.87835
298.70648
298.54479
298.41392
298.3148
298.24723
298.20253
298.16961
298.13202
298.0926
298.061
298.03877
298.01572
305.11493
296.55732
299.55241
299.03873
300.40722
300.99728
301.97308
302.96779
304.10293
305.35506
306.71784
308.15218
309.58899
310.93622
312.08339
312.88653
313.26005
313.24248
312.84592
312.13386
311.18787
310.09316
308.9242
307.72064
306.54145
305.4203
304.37718
303.42676
302.57835
301.83721
301.20323
300.66874
300.21748
299.83182
299.50583
299.24379
299.0371
298.85837
298.68944
298.53408
298.40826
298.31094
298.24378
298.19911
298.16497
298.12672
298.0881
298.05772
298.03669
298.01476
305.70889
297.80282
300.76665
300.37258
301.71345
302.38427
303.38796
304.43021
305.60418
306.88647
308.25833
309.66804
311.03797
312.26998
313.24479
313.82573
314.00294
313.79458
313.23242
312.38862
311.34588
310.18502
308.96541
307.7296
306.53426
305.40241
304.35347
303.40044
302.55153
301.81137
301.17929
300.6469
300.19734
299.81278
299.48747
299.22555
299.01787
298.83852
298.67301
298.52412
298.40295
298.30722
298.24037
298.19554
298.16011
298.12142
298.08366
298.05454
298.03466
298.01383
306.35413
299.18783
302.07723
301.81474
303.11163
303.85813
304.89975
305.97462
307.18316
308.48214
309.84267
311.20276
312.47737
313.5636
314.33004
314.69221
314.67315
314.27824
313.56173
312.59946
311.47293
310.25434
308.98664
307.73001
306.51979
305.37961
304.32652
303.37197
302.52326
301.78454
301.15463
300.62452
300.17679
299.79348
299.46889
299.207
298.99842
298.81894
298.65718
298.51481
298.39799
298.30366
298.237
298.19177
298.15504
298.11612
298.07927
298.05143
298.03263
298.01292
307.07538
300.65364
303.44874
303.35959
304.60953
305.44028
306.47958
307.60437
308.83578
310.13417