/*--------------------------------*- C++ -*----------------------------------*\
  =========                 |
  \\      /  F ield         | OpenFOAM: The Open Source CFD Toolbox
   \\    /   O peration     | Website:  https://openfoam.org
    \\  /    A nd           | Version:  8
     \\/     M anipulation  |
\*---------------------------------------------------------------------------*/
FoamFile
{
    version     2.0;
    format      ascii;
    class       volVectorField;
    location    "0.0699881";
    object      U;
}
// * * * * * * * * * * * * * * * * * * * * * * * * * * * * * * * * * * * * * //

dimensions      [0 1 -1 0 0 0 0];

internalField   nonuniform List<vector> 
20000
(
(200.18733 8.3049734e-17 -2.2074423)
(237.7946 0 -2.2151517)
(262.59871 4.9110316e-17 -2.7251406)
(283.57607 -4.1830907e-17 -3.0282317)
(301.73852 2.1833588e-21 -3.6674727)
(313.279 -3.0074087e-17 -3.6339043)
(313.0099 7.6355243e-17 -4.3245825)
(314.30849 -4.2284685e-17 -3.3791467)
(313.12681 -3.5332037e-17 -4.609956)
(313.61587 2.749387e-17 -3.3074366)
(312.83331 0 -4.6622553)
(312.86083 0 -3.4657381)
(312.17132 -3.3943747e-17 -4.6090431)
(311.82745 3.1638257e-17 -3.7384024)
(311.086 0 -4.5605877)
(310.40104 -7.6369286e-20 -4.0533903)
(309.44877 -1.6391995e-17 -4.5920265)
(308.38308 1.345079e-17 -4.3851516)
(307.08099 -5.5895838e-18 -4.7382756)
(305.56138 9.5587754e-18 -4.7299774)
(303.78981 7.6742526e-18 -4.9750603)
(301.73645 0 -5.056756)
(299.3723 3.1512095e-17 -5.2366381)
(296.60855 -1.7144574e-17 -5.3944335)
(293.4727 1.4146633e-17 -5.5670852)
(290.01229 7.2311065e-19 -5.614471)
(286.33331 -1.8951292e-17 -5.5619583)
(282.52009 -1.5548877e-17 -5.3715412)
(278.70432 2.5169445e-17 -5.0430838)
(275.03778 -1.9751945e-17 -4.5843573)
(271.66379 4.658521e-17 -4.0380711)
(268.6884 5.4507702e-19 -3.4606411)
(266.17419 3.7706651e-17 -2.9111728)
(264.13482 -4.4052476e-17 -2.4347092)
(262.54936 2.2701568e-17 -2.0561968)
(261.37528 -6.9338626e-17 -1.7780781)
(260.56335 0 -1.5955272)
(260.00423 -3.8986763e-17 -1.5069988)
(259.63383 -2.9532959e-17 -1.4691313)
(259.46142 -1.0869556e-16 -1.4220778)
(259.45758 1.6094315e-17 -1.3701247)
(259.53375 1.1870082e-16 -1.3292012)
(259.66048 -1.3988087e-16 -1.2790723)
(259.88132 -1.288415e-17 -1.1697437)
(260.0998 1.9002305e-17 -0.98716792)
(260.56118 1.1277189e-16 -0.73484285)
(261.03235 -1.0585584e-17 -0.47304761)
(261.23547 6.3660698e-17 -0.27940438)
(261.28318 4.9034024e-17 -0.15811178)
(261.22735 -3.866188e-17 -0.17230441)
(202.46891 8.4673619e-17 -3.015498)
(240.21771 9.6754287e-19 -3.1802198)
(265.10231 4.9315796e-17 -3.7805173)
(286.03021 -8.6633125e-17 -4.1557248)
(303.91866 7.2714009e-17 -4.8932257)
(314.48598 -1.2233567e-16 -4.7929663)
(313.76465 1.0353787e-16 -5.5546249)
(315.07338 -4.2983062e-17 -4.5296295)
(313.87475 0 -5.8613576)
(314.36787 2.7989159e-17 -4.4811822)
(313.56603 -4.9746903e-17 -5.9151749)
(313.59101 6.7238889e-17 -4.6587535)
(312.883 -6.8944412e-17 -5.8541522)
(312.52578 3.2208628e-17 -4.9467053)
(311.76359 0 -5.7954899)
(311.05425 9.9122553e-18 -5.2725138)
(310.07378 0 -5.819896)
(308.97427 1.3691448e-17 -5.606006)
(307.63838 5.6935087e-18 -5.9519055)
(306.0822 -9.4390046e-18 -5.9312545)
(304.26576 -7.8134891e-18 -6.1599344)
(302.1374 0 -6.2374228)
(299.63817 -1.0650036e-17 -6.4228837)
(296.71879 -3.5042588e-17 -6.5639371)
(293.50152 -1.4378387e-17 -6.6897461)
(289.98805 7.0672365e-17 -6.6808632)
(286.24028 -1.8997789e-17 -6.5543176)
(282.35679 0 -6.2748217)
(278.49327 2.5079032e-17 -5.8398803)
(274.80668 8.0007182e-17 -5.2648976)
(271.43798 -2.0544117e-16 -4.6000219)
(268.48701 -2.4956941e-17 -3.9091371)
(266.00696 -1.3588813e-16 -3.2569242)
(264.00354 -3.0055435e-17 -2.6918221)
(262.44993 2.2924819e-17 -2.2397407)
(261.30432 -3.495674e-17 -1.9021667)
(260.51205 -2.635353e-17 -1.6757437)
(259.94159 7.9144346e-17 -1.5573631)
(259.58168 2.3598365e-16 -1.4968567)
(259.43409 -6.5618768e-17 -1.4315982)
(259.43716 -1.6148083e-17 -1.3685526)
(259.51107 -9.5154004e-17 -1.3220684)
(259.64518 1.5745637e-16 -1.2675711)
(259.8567 -1.2872357e-17 -1.1573219)
(260.0979 -1.5171676e-16 -0.96750057)
(260.63729 -1.1224721e-16 -0.70897097)
(261.05293 1.6720017e-16 -0.45714852)
(261.22533 4.7227353e-17 -0.27546569)
(261.25654 6.6265478e-17 -0.15852308)
(261.22534 -4.1893407e-17 -0.16947314)
(204.8367 1.7107735e-16 -3.8651249)
(242.7088 -1.2582108e-16 -4.1905794)
(267.66563 7.9936765e-19 -4.8935636)
(288.53931 3.713596e-21 -5.3429767)
(306.05191 7.3998274e-17 -6.1946062)
(315.57002 -1.2446379e-16 -6.0253665)
(314.46784 5.5900821e-17 -6.8612687)
(315.78843 2.7273365e-18 -5.7385042)
(314.56352 3.1944041e-17 -7.1627718)
(315.06296 -2.6497975e-17 -5.6954543)
(314.2382 0 -7.2019703)
(314.25971 3.6818334e-17 -5.8846059)
(313.53201 -6.1319612e-17 -7.1263101)
(313.15974 2.9086751e-17 -6.186856)
(312.37578 0 -7.0579032)
(311.64073 -1.0097164e-17 -6.5240407)
(310.6331 0 -7.0748258)
(309.50187 -1.3943208e-17 -6.8537678)
(308.13319 0 -7.1871483)
(306.5337 0 -7.1574797)
(304.64906 0 -7.3795135)
(302.40676 0 -7.4667191)
(299.77826 -2.1526127e-17 -7.6548683)
(296.76862 1.7917106e-17 -7.7666508)
(293.47216 0 -7.8332971)
(289.87273 -1.4331316e-16 -7.7623772)
(286.03419 1.9553155e-17 -7.5597669)
(282.08188 -1.5613238e-17 -7.183192)
(278.17619 -2.5448073e-17 -6.6348562)
(274.47854 -2.2253909e-16 -5.9378418)
(271.12651 2.5629322e-16 -5.1508076)
(268.21228 0 -4.3452605)
(265.77879 -1.2517331e-19 -3.5910465)
(263.82296 -2.4248828e-16 -2.93921)
(262.31228 -1.8570868e-16 -2.4156654)
(261.20479 -1.4112848e-16 -2.0208993)
(260.43578 -1.8613272e-16 -1.7539297)
(259.86466 -3.3856661e-16 -1.6062484)
(259.53092 -2.6685066e-16 -1.5216355)
(259.40335 1.7566609e-16 -1.4390805)
(259.41418 4.8595393e-17 -1.3661535)
(259.48956 -4.765744e-17 -1.3139511)
(259.62947 1.7503269e-17 -1.2550442)
(259.83903 -2.5692424e-17 -1.1421558)
(260.12021 1.8906364e-16 -0.94216858)
(260.69596 -1.3971097e-17 -0.6805951)
(261.06579 -5.0791894e-16 -0.44221144)
(261.21528 -1.1668135e-16 -0.27141075)
(261.24039 -1.0072043e-16 -0.15864691)
(261.22177 7.6087841e-17 -0.16615379)
(207.11427 1.3640811e-18 -4.7447701)
(245.09242 1.2926382e-16 -5.2260168)
(270.11641 -1.041876e-16 -6.0327736)
(290.94224 1.3882509e-18 -6.5537708)
(307.97444 0 -7.5133117)
(316.49814 3.9515998e-18 -7.2616747)
(315.09745 -8.1867438e-21 -8.1821555)
(316.43197 -2.7775631e-18 -6.9576725)
(315.18282 4.6381002e-18 -8.4809366)
(315.68881 6.1630193e-17 -6.9275852)
(314.84142 -5.773884e-17 -8.5113)
(314.85889 4.2759338e-17 -7.1337839)
(314.11087 -5.3357512e-17 -8.4238328)
(313.72242 7.3808175e-18 -7.453558)
(312.91619 1.2312818e-17 -8.3461896)
(312.15604 2.0532841e-17 -7.8000566)
(311.12355 1.7149555e-17 -8.3501757)
(309.96145 -2.8233587e-17 -8.1210639)
(308.55218 2.3476848e-17 -8.4443468)
(306.88641 1.954033e-17 -8.4165362)
(304.89572 -1.605704e-17 -8.6483303)
(302.53143 -2.6776688e-17 -8.7465796)
(299.80851 6.5851212e-17 -8.9152095)
(296.73984 9.0581188e-17 -8.9798253)
(293.35589 -1.474301e-17 -8.9892602)
(289.65312 7.2586587e-17 -8.8579327)
(285.72687 1.9586404e-17 -8.5721719)
(281.71006 -3.2127236e-17 -8.0924553)
(277.77155 2.0523455e-16 -7.4251145)
(274.07474 1.8418377e-16 -6.6021573)
(270.75225 -3.5694724e-16 -5.6910448)
(267.8872 -5.0917808e-17 -4.7707217)
(265.51148 1.9823459e-16 -3.9157017)
(263.61272 1.5243714e-17 -3.1789261)
(262.15321 -1.8741504e-16 -2.5856773)
(261.08954 2.3100641e-16 -2.1356909)
(260.34362 2.6772378e-16 -1.8301335)
(259.78372 -2.0098387e-17 -1.6532917)
(259.47838 4.7680237e-16 -1.5441418)
(259.37046 -3.3068186e-16 -1.4452564)
(259.38904 -1.6239319e-17 -1.3632877)
(259.46621 -4.7721729e-17 -1.3054342)
(259.61115 1.3289209e-20 -1.2421464)
(259.82628 2.5672106e-17 -1.125544)
(260.16001 -1.8821539e-17 -0.91560614)
(260.74218 1.3891415e-17 -0.65325851)
(261.07426 3.2894183e-16 -0.4294063)
(261.20525 0 -0.26821012)
(261.22724 0 -0.15854311)
(261.21809 0 -0.1623595)
(209.32836 -3.1817349e-21 -5.6567795)
(247.40802 -4.0524831e-18 -6.2940032)
(272.49666 0 -7.2091236)
(293.28887 -9.0443024e-17 -7.8064969)
(309.71322 1.5074625e-16 -8.870335)
(317.29379 -3.987274e-18 -8.5215973)
(315.66061 -3.3568637e-18 -9.5351564)
(317.00863 -4.5064662e-17 -8.2060229)
(315.7323 0 -9.8304356)
(316.24389 0 -8.1880859)
(315.37197 6.5294388e-18 -9.8491588)
(315.38387 -4.3443145e-17 -8.4102856)
(314.61468 8.9685264e-18 -9.7468845)
(314.20917 -4.5834685e-20 -8.7462837)
(313.38113 -1.2533171e-17 -9.6563711)
(312.59621 2.081005e-17 -9.0962455)
(311.53732 3.4601591e-17 -9.6425531)
(310.33484 0 -9.4119832)
(308.86341 2.3836946e-17 -9.737284)
(307.0969 1.9710201e-17 -9.7281902)
(304.99957 -1.3886553e-19 -9.9673434)
(302.55223 -1.3486889e-17 -10.052728)
(299.77103 2.4052433e-19 -10.184358)
(296.6247 -7.3294589e-17 -10.206962)
(293.12888 7.5368827e-17 -10.164376)
(289.32276 2.4455685e-17 -9.9644353)
(285.30941 0 -9.5882837)
(281.23457 1.2977067e-16 -8.9979037)
(277.27344 -2.0817803e-16 -8.2054766)
(273.59009 1.6632764e-16 -7.2525277)
(270.31063 4.9291272e-16 -6.2156517)
(267.50767 5.1522486e-17 -5.1809487)
(265.20125 -1.9965788e-17 -4.2269838)
(263.36945 2.4718396e-16 -3.407762)
(261.96997 -2.346845e-19 -2.7473131)
(260.95618 0 -2.2450357)
(260.2336 0 -1.9027965)
(259.69875 6.4474563e-16 -1.6973197)
(259.42477 -4.7889777e-16 -1.5639977)
(259.3354 3.5390646e-16 -1.449893)
(259.36255 0 -1.3596901)
(259.44204 -2.3885272e-17 -1.2963573)
(259.59011 3.4987448e-17 -1.2283805)
(259.81641 1.2785411e-17 -1.106138)
(260.21395 -1.8784541e-17 -0.88779846)
(260.77615 0 -0.62705317)
(261.07917 0 -0.41776647)
(261.19606 -1.5187985e-17 -0.26529442)
(261.218 -3.5533398e-16 -0.15822923)
(261.21452 -2.840056e-16 -0.15824635)
(211.47486 -4.2411322e-18 -6.6014003)
(249.63602 2.0664209e-18 -7.3940556)
(274.78329 0 -8.4202223)
(295.56622 2.8760266e-18 -9.0938913)
(311.24592 8.0319992e-17 -10.254807)
(317.96048 -6.5446384e-17 -9.8019379)
(316.14536 -1.1046232e-16 -10.915365)
(317.50712 1.8315404e-16 -9.4771351)
(316.20271 -7.6428919e-17 -11.205638)
(316.7201 -7.1534964e-17 -9.4728796)
(315.82324 5.296162e-17 -11.211924)
(315.8285 -1.1014576e-17 -9.7112813)
(315.03845 0 -11.092118)
(314.61538 1.5295179e-17 -10.06059)
(313.76541 2.5482982e-17 -10.984372)
(312.95146 -4.2283605e-17 -10.411983)
(311.85355 -7.0356516e-17 -10.958749)
(310.58513 -2.9210473e-17 -10.740469)
(309.02831 -4.8517096e-17 -11.083595)
(307.17162 -4.0220853e-17 -11.087568)
(305.00685 -4.9875214e-17 -11.3085)
(302.50322 4.1348229e-17 -11.36809)
(299.64426 -6.8004758e-17 -11.466986)
(296.39346 -1.8552507e-17 -11.452538)
(292.78759 -1.2243993e-16 -11.352898)
(288.8776 2.0034833e-16 -11.077827)
(284.78162 2.0473038e-17 -10.603176)
(280.6568 -1.4775901e-16 -9.8945935)
(276.68484 0 -8.9711137)
(273.02874 -1.6825681e-16 -7.8846337)
(269.80631 -2.6603277e-16 -6.7210035)
(267.07836 0 -5.5730373)
(264.85235 -2.0313224e-17 -4.5226228)
(263.09685 1.5552686e-17 -3.6239347)
(261.76562 3.810915e-16 -2.8992614)
(260.807 0 -2.3482221)
(260.10906 0 -1.9709565)
(259.60992 -3.2403657e-16 -1.7374517)
(259.36942 -4.8100393e-16 -1.5810294)
(259.29859 -1.4423587e-15 -1.4529433)
(259.33474 5.3825036e-16 -1.3553265)
(259.41675 -7.6495632e-16 -1.2867973)
(259.56644 0 -1.2136465)
(259.80832 0 -1.0835916)
(260.27266 5.9803663e-16 -0.85905031)
(260.80439 4.3851965e-16 -0.60253301)
(261.0827 -6.4640727e-16 -0.40711932)
(261.1891 -1.500284e-17 -0.26267274)
(261.21052 7.2706143e-16 -0.15770013)
(261.2112 2.7974548e-16 -0.15387648)
(213.529 1.8700594e-16 -7.5779506)
(251.75898 0 -8.5257588)
(276.95772 0 -9.6686283)
(297.76317 -1.9057615e-16 -10.419578)
(312.55841 1.5827222e-16 -11.668101)
(318.50411 4.156029e-18 -11.103133)
(316.54499 0 -12.322197)
(317.92213 0 -10.770859)
(316.588 -7.7711065e-17 -12.605561)
(317.11235 7.257392e-17 -10.779912)
(316.18995 -1.3448897e-17 -12.596868)
(316.18565 5.6029694e-17 -11.034942)
(315.37712 -5.5912691e-17 -12.457528)
(314.93369 0 -11.394606)
(314.05627 -2.5828726e-17 -12.332436)
(313.1993 0 -11.759067)
(312.03973 7.1567212e-17 -12.320524)
(310.69527 9.6681964e-20 -12.124447)
(309.06843 4.9277196e-17 -12.466664)
(307.1603 -8.171829e-17 -12.461891)
(304.94351 5.0659685e-17 -12.657593)
(302.36504 1.3904282e-17 -12.697876)
(299.40463 9.2192267e-17 -12.768431)
(296.04575 1.908208e-17 -12.712882)
(292.32671 -1.5440291e-17 -12.551585)
(288.31474 -4.0655223e-16 -12.193441)
(284.14147 -1.4462761e-16 -11.611838)
(279.97659 -1.6556563e-17 -10.777223)
(276.007 -2.1453439e-16 -9.7169246)
(272.39284 0 -8.4938959)
(269.24187 0 -7.2032252)
(266.60179 0 -5.9438493)
(264.46697 0 -4.8001321)
(262.79675 3.1550892e-17 -3.8254739)
(261.5416 -4.8017027e-17 -3.0400588)
(260.64284 1.8141473e-17 -2.4442926)
(259.97264 2.7314257e-17 -2.0337672)
(259.51659 -6.5145021e-16 -1.7728943)
(259.3072 -5.5839897e-16 -1.5948713)
(259.25959 7.3408728e-16 -1.4542277)
(259.30551 -4.7371216e-16 -1.3500658)
(259.39067 -2.3971363e-17 -1.2767704)
(259.54136 -1.7459016e-17 -1.1978696)
(259.80334 1.2750749e-17 -1.057831)
(260.33056 -5.7693122e-16 -0.82927328)
(260.82866 -4.3572862e-16 -0.57976128)
(261.0856 6.1051852e-16 -0.39723848)
(261.18405 4.8902444e-16 -0.26022811)
(261.2047 -3.54709e-16 -0.15708306)
(261.20816 0 -0.14920827)
(215.49021 3.7460171e-16 -8.5859953)
(253.77228 -5.4821381e-16 -9.67775)
(279.01103 2.2826653e-16 -10.944108)
(299.8724 0 -11.771444)
(313.64558 -5.0266368e-18 -13.096921)
(318.93024 -1.3952994e-16 -12.415472)
(316.84935 2.2771408e-16 -13.746565)
(318.24683 1.1892602e-17 -12.079202)
(316.87859 -7.8815426e-17 -14.022969)
(317.41353 -6.5592664e-17 -12.10228)
(316.4619 8.1957941e-17 -13.997749)
(316.43536 0 -12.378417)
(315.62029 1.8955855e-17 -13.844402)
(315.14824 -3.1575631e-17 -12.755404)
(314.22867 2.6160876e-17 -13.715066)
(313.31693 -2.1875661e-17 -13.158146)
(312.10052 3.6297196e-17 -13.730183)
(310.70286 0 -13.535246)
(309.03669 -2.4944588e-17 -13.859558)
(307.07838 1.4535457e-16 -13.843384)
(304.79042 6.8743199e-17 -14.022274)
(302.11604 0 -14.04722)
(299.0496 0 -14.085899)
(295.57625 1.5427393e-16 -13.985244)
(291.74365 0 -13.755712)
(287.6323 2.3211893e-16 -13.306259)
(283.38904 1.466905e-16 -12.608797)
(279.19567 0 -11.640317)
(275.24303 2.169681e-16 -10.437813)
(271.68632 -3.461486e-16 -9.0759083)
(268.62142 0 -7.6587215)
(266.08183 4.2707685e-16 -6.290567)
(264.04846 0 -5.0573323)
(262.47208 -5.0863239e-16 -4.0106902)
(261.30004 0 -3.1684871)
(260.46449 -1.8313539e-17 -2.5322987)
(259.82688 -1.3761323e-17 -2.0905579)
(259.41888 6.7469322e-16 -1.8031782)
(259.24477 -1.9897522e-19 -1.6052563)
(259.21799 7.1363209e-16 -1.4534734)
(259.27425 1.079525e-15 -1.3437086)
(259.36398 -2.3972075e-17 -1.2662185)
(259.51728 0 -1.181017)
(259.80529 -8.1327276e-16 -1.0292826)
(260.38451 0 -0.79847802)
(260.85002 0 -0.55863437)
(261.08813 -6.3453734e-16 -0.38803131)
(261.18013 -4.6825338e-16 -0.25792308)
(261.2002 5.4497016e-18 -0.15640426)
(261.20536 -4.114006e-18 -0.14438234)
(217.34586 7.6187682e-16 -9.6259074)
(255.67552 4.4334111e-18 -10.855305)
(280.93566 -2.2896548e-16 -12.250741)
(301.88558 0 -13.154844)
(314.51191 5.1155226e-18 -14.545084)
(319.24657 -8.585408e-18 -13.741492)
(317.044 0 -15.189309)
(318.47901 -2.3968821e-17 -13.401611)
(317.05962 -8.0128906e-17 -15.456059)
(317.61787 6.6506877e-17 -13.439195)
(316.61925 -9.5475984e-21 -15.416173)
(316.59278 4.6236156e-17 -13.744727)
(315.75205 -3.8435684e-17 -15.261739)
(315.24465 0 -14.163638)
(314.28376 0 -15.144859)
(313.32892 4.43535e-17 -14.58889)
(312.08053 -3.6872317e-17 -15.153134)
(310.64779 0 -14.952416)
(308.93405 -2.5511922e-17 -15.25983)
(306.90591 -1.2009184e-19 -15.242843)
(304.52927 8.726857e-17 -15.406651)
(301.7537 0 -15.413808)
(298.57413 -1.6656084e-16 -15.417282)
(294.98286 -1.9549932e-16 -15.265847)
(291.03606 1.5917782e-17 -14.960743)
(286.8294 -1.8349193e-16 -14.410899)
(282.52507 3.4124615e-16 -13.588344)
(278.31651 -1.7037864e-17 -12.478257)
(274.39667 4.4106838e-16 -11.128705)
(270.9135 3.4971261e-16 -9.6264034)
(267.94933 0 -8.0841)
(265.52247 -4.3090639e-16 -6.6105924)
(263.60029 0 -5.2922422)
(262.12583 5.1242409e-16 -4.1780915)
(261.04297 -7.8073605e-16 -3.2835406)
(260.272 -6.0778093e-16 -2.6112107)
(259.67424 1.3779927e-17 -2.1406946)
(259.31806 0 -1.8279653)
(259.17989 9.4154966e-16 -1.6121473)
(259.17424 -6.9282914e-16 -1.4505824)
(259.24011 -1.0148709e-15 -1.3359762)
(259.33688 -2.3964839e-17 -1.2549081)
(259.49762 1.1317398e-15 -1.1630202)
(259.81755 7.9801031e-16 -0.9986492)
(260.43292 -1.1975087e-15 -0.76688992)
(260.86843 8.7268195e-16 -0.53893295)
(261.09023 6.28477e-16 -0.37939264)
(261.17682 0 -0.25570178)
(261.19579 0 -0.15568697)
(261.20287 0 -0.13943676)
(219.10555 3.8721009e-16 -10.695084)
(257.48499 -8.7994465e-18 -12.062992)
(282.7407 -2.3686998e-16 -13.590954)
(303.80192 1.9141161e-16 -14.570268)
(315.1742 -1.7147152e-16 -16.014304)
(319.46638 1.745167e-17 -15.086165)
(317.18003 7.3316959e-18 -16.654267)
(318.62583 1.095436e-16 -14.741127)
(317.17857 -7.1077785e-17 -16.908824)
(317.72149 6.7632274e-17 -14.799533)
(316.71655 -8.4495777e-17 -16.868195)
(316.67464 -2.3451982e-17 -15.150317)
(315.78185 3.9138588e-17 -16.714805)
(315.24659 -3.2468975e-17 -15.600906)
(314.26086 2.7127696e-17 -16.587898)
(313.27898 -2.2465295e-17 -16.026867)
(311.99938 0 -16.5769)
(310.51883 -3.1201041e-17 -16.381061)
(308.73885 5.163443e-17 -16.681056)
(306.62851 -1.0689333e-16 -16.662407)
(304.15706 -2.8356816e-16 -16.809289)
(301.27301 1.1729262e-16 -16.795936)
(297.97543 1.9308681e-16 -16.759427)
(294.26292 -2.0002356e-17 -16.550717)
(290.20261 1.6160818e-17 -16.16162)
(285.90615 2.1241031e-16 -15.501668)
(281.55155 -3.4489021e-16 -14.544538)
(277.34274 0 -13.285389)
(273.4726 -4.4568951e-16 -11.784654)
(270.0795 3.5504796e-16 -10.141359)
(267.23058 5.415461e-16 -8.4762679)
(264.92818 1.3562045e-17 -6.9016272)
(263.12635 6.9582313e-16 -5.5031468)
(261.7614 -1.6113245e-17 -4.3264513)
(260.77252 2.3905308e-17 -3.3845173)
(260.06527 -3.743973e-17 -2.679966)
(259.51728 1.3849411e-17 -2.1835553)
(259.21552 -6.5977574e-16 -1.8470111)
(259.11454 -9.7482063e-16 -1.6155096)
(259.1289 -1.0466232e-19 -1.4456366)
(259.20272 -3.2755862e-17 -1.3266551)
(259.30893 1.5764783e-15 -1.2423358)
(259.4837 -1.7361008e-17 -1.1436054)
(259.84158 -2.5214677e-17 -0.96676695)
(260.475 1.1730345e-15 -0.73484811)
(260.88407 -8.3965172e-16 -0.52040585)
(261.09185 1.9443077e-17 -0.37123579)
(261.1738 -1.4264847e-17 -0.25352688)
(261.19222 6.7441795e-16 -0.15493063)
(261.20068 3.9330185e-18 -0.13439582)
(220.78223 3.0731064e-18 -11.795517)
(259.2078 4.5180484e-18 -13.301755)
(284.43844 0 -14.967616)
(305.61686 6.275718e-18 -16.017751)
(315.65351 5.2860013e-18 -17.504645)
(319.6059 -3.5137406e-21 -16.450126)
(317.25144 -1.2659072e-16 -18.147607)
(318.69118 -1.2461914e-17 -16.112092)
(317.22729 1.019317e-17 -18.405358)
(317.76804 1.3722139e-16 -16.204076)
(316.73617 -7.1542159e-17 -18.355654)
(316.67979 7.1379116e-17 -16.579453)
(315.74552 0 -18.177389)
(315.1919 -3.3078081e-17 -17.045366)
(314.18328 2.7437625e-17 -18.030636)
(313.16578 4.583367e-17 -17.471968)
(311.8397 -3.7916502e-17 -18.018465)
(310.2947 6.3203005e-17 -17.831578)
(308.44128 0 -18.121695)
(306.24251 2.1832107e-17 -18.101283)
(303.66917 2.7008303e-16 -18.228723)
(300.6711 3.018109e-17 -18.190942)
(297.25064 -2.4369615e-17 -18.108977)
(293.41472 1.6171284e-16 -17.83545)
(289.24271 1.6655782e-17 -17.353036)
(284.8637 -2.2975601e-16 -16.572607)
(280.47148 3.7325158e-16 -15.471317)
(276.27891 -1.7525268e-17 -14.056108)
(272.47627 0 -12.400915)
(269.19 1.0407414e-18 -10.617047)
(266.47057 -1.1470861e-15 -8.8324642)
(264.30378 -8.4006007e-16 -7.161691)
(262.63083 -7.0093015e-16 -5.6886129)
(261.38224 1.0426177e-15 -4.4548087)
(260.49068 7.6615113e-16 -3.4709895)
(259.84511 5.9581543e-16 -2.7376114)
(259.35834 9.3345595e-16 -2.2184909)
(259.11245 6.4118578e-16 -1.8602232)
(259.04871 -2.0416386e-19 -1.6152947)
(259.08213 2.1517765e-15 -1.4386811)
(259.16272 0 -1.3157111)
(259.27896 7.6365665e-16 -1.227952)
(259.47379 -1.1093481e-15 -1.1220929)
(259.87725 -2.5115379e-17 -0.93430663)
(260.51101 1.8247143e-17 -0.70282834)
(260.89725 8.4641699e-16 -0.50280101)
(261.09295 0 -0.36346951)
(261.17098 0 -0.25137446)
(261.18891 -6.6309062e-16 -0.15413123)
(261.19875 -3.8476033e-18 -0.12927477)
(222.38356 3.966719e-16 -12.920542)
(260.85197 -2.9856622e-16 -14.561918)
(286.04272 2.4937913e-16 -16.375637)
(307.31595 1.1342645e-19 -17.494393)
(315.96573 -1.718284e-16 -19.022438)
(319.67256 1.350613e-16 -17.84489)
(317.2589 -1.0570607e-16 -19.682227)
(318.7158 1.2541965e-16 -17.518788)
(317.21058 -1.2559906e-16 -19.933322)
(317.76654 5.2296665e-17 -17.630929)
(316.69302 -8.7083478e-17 -19.855737)
(316.63103 0 -18.017349)
(315.65918 -5.7828906e-20 -19.638601)
(315.0789 3.3465645e-17 -18.495908)
(314.03529 0 -19.489311)
(312.96764 0 -18.941413)
(311.58524 -7.7242177e-17 -19.481177)
(309.9708 -9.6120942e-17 -19.303363)
(308.03705 -2.6514741e-17 -19.582269)
(305.74369 8.8383991e-17 -19.558002)
(303.06264 -1.4607039e-16 -19.662747)
(299.94502 -1.5110733e-16 -19.595937)
(296.39765 2.474377e-17 -19.462114)
(292.43705 -1.6369408e-16 -19.115271)
(288.15668 2.6926452e-16 -18.529308)
(283.70422 2.1880447e-16 -17.617516)
(279.28891 -3.7733967e-16 -16.36255)
(275.1305 -2.3880189e-19 -14.784937)
(271.41386 1.4220894e-17 -12.973022)
(268.25126 -3.6271447e-16 -11.050103)
(265.67516 1.1417844e-15 -9.1503104)
(263.6544 -2.9683771e-17 -7.3891543)
(262.11815 2.1382672e-17 -5.8475218)
(260.99169 -1.0491807e-15 -4.5624774)
(260.199 -7.9668855e-16 -3.5426547)
(259.61452 0 -2.7835822)
(259.19883 -8.6698353e-16 -2.2448193)
(259.00984 -2.0740417e-17 -1.867596)
(258.98263 9.7893488e-16 -1.6115003)
(259.03382 2.24768e-19 -1.4296952)
(259.12127 0 -1.3032675)
(259.24614 -1.5248647e-15 -1.2113849)
(259.46595 -1.1063077e-15 -1.097675)
(259.92241 0 -0.90155186)
(260.54233 1.8102777e-17 -0.6713907)
(260.90842 -8.6604138e-16 -0.48592856)
(261.09345 1.2290219e-15 -0.35599434)
(261.1682 -1.3889355e-17 -0.24920656)
(261.18581 6.7231548e-16 -0.15329942)
(261.19706 -4.8965053e-16 -0.12408949)
(223.90997 -6.3449338e-18 -14.081667)
(262.42551 9.3434628e-18 -15.860697)
(287.57104 -7.6892852e-18 -17.833365)
(308.86803 2.1366692e-16 -19.006364)
(316.13327 1.2759525e-19 -20.569483)
(319.67524 1.2331414e-19 -19.258898)
(317.19563 -1.379246e-16 -21.23115)
(318.64521 -1.2722303e-17 -18.931802)
(317.12479 2.1251711e-17 -21.462822)
(317.65377 1.7674072e-17 -19.059527)
(316.58171 2.9481636e-17 -21.358254)
(316.50687 0 -19.468342)
(315.5038 -4.0875116e-17 -21.121236)
(314.88379 3.4048378e-17 -19.974956)
(313.7966 0 -20.971393)
(312.67416 4.7163011e-17 -20.434662)
(311.23108 3.9025915e-17 -20.965329)
(309.5419 1.6270446e-16 -20.795943)
(307.5226 2.7141984e-17 -21.061044)
(305.1292 -1.1187137e-16 -21.030586)
(302.33469 0 -21.108852)
(299.09258 3.0870949e-17 -21.007639)
(295.41488 -5.0598763e-17 -20.814717)
(291.32948 2.0646288e-17 -20.385071)
(286.94571 -2.7230818e-16 -19.684487)
(282.4309 0 -18.630041)
(278.0089 0 -17.21214)
(273.90379 0 -15.466614)
(270.29223 -4.9409325e-16 -13.496856)
(267.27014 -7.1342338e-16 -11.437578)
(264.85062 -5.9431401e-16 -9.4278499)
(262.9854 1.809137e-15 -7.5827617)
(261.59277 0 -5.97909)
(260.59269 -3.3077646e-17 -4.6490447)
(259.89825 8.2573877e-16 -3.5990736)
(259.37798 -1.2048498e-15 -2.8177164)
(259.04006 -2.809118e-17 -2.2620979)
(258.9085 4.1609807e-17 -1.86916)
(258.91615 -1.5320207e-17 -1.6041375)
(258.98382 2.3452371e-19 -1.418583)
(259.07955 0 -1.2895166)
(259.21095 1.5223578e-15 -1.1925432)
(259.45941 1.1028929e-15 -1.0697634)
(259.97342 2.4894297e-17 -0.86837167)
(260.5711 -1.8023698e-17 -0.64109344)
(260.91802 -1.3009982e-17 -0.46969515)
(261.09311 -2.4040653e-15 -0.34871275)
(261.16516 0 -0.24697789)
(261.18264 -6.4096281e-16 -0.15246653)
(261.1956 4.7917554e-16 -0.11884612)
(225.37485 6.4438913e-18 -15.267938)
(263.94203 -3.087148e-16 -17.174259)
(289.04326 2.5806065e-16 -19.313277)
(310.23096 -6.5712753e-18 -20.519371)
(316.17649 1.1103737e-17 -22.118852)
(319.6088 0 -20.667104)
(317.05672 0 -22.778652)
(318.53343 -1.2911022e-17 -20.342568)
(316.95592 -8.6325804e-17 -23.000214)
(317.50653 -1.3248659e-19 -20.503232)
(316.3797 1.1968564e-16 -22.881258)
(316.25251 -7.4648417e-17 -20.951634)
(315.25545 -8.3076286e-17 -22.633857)
(314.59341 -5.8112109e-20 -21.482303)
(313.46112 5.7642612e-17 -22.475614)
(312.2808 -1.4350407e-16 -21.950729)
(310.77347 3.966167e-17 -22.469124)
(309.00543 3.3135086e-17 -22.307461)
(306.89542 2.7325318e-17 -22.556345)
(304.39657 1.8233791e-16 -22.51675)
(301.48322 1.5102662e-16 -22.564202)
(298.11197 0 -22.422455)
(294.30131 2.5876805e-17 -22.162289)
(290.09225 -2.0961768e-17 -21.639375)
(285.61192 0 -20.812323)
(281.04792 2.8422391e-17 -19.603713)
(276.63737 3.2949073e-19 -18.014094)
(272.60587 -1.8265504e-17 -16.096167)
(269.119 9.3994729e-16 -13.96872)
(266.25406 7.4239318e-16 -11.777018)
(264.00349 5.8375363e-16 -9.6636009)
(262.30221 1.9410219e-18 -7.7416514)
(261.05896 0 -6.0828751)
(260.18762 -1.0652223e-15 -4.7143815)
(259.58876 8.0606114e-16 -3.6396537)
(259.14055 1.2094488e-15 -2.8400605)
(258.8839 0 -2.2702556)
(258.80883 -1.3350427e-15 -1.8649983)
(258.8489 -3.0685407e-17 -1.5932139)
(258.93218 -1.4143627e-15 -1.4052078)
(259.03873 -1.0139962e-15 -1.2746333)
(259.17514 -3.0855995e-15 -1.1716282)
(259.45657 1.1334314e-15 -1.038491)
(260.02727 -1.2412075e-17 -0.83448822)
(260.59873 -1.1265972e-15 -0.61228277)
(260.92633 1.6259651e-15 -0.45411164)
(261.09174 1.2032175e-15 -0.34155496)
(261.16139 0 -0.24464506)
(261.17917 -9.8458901e-18 -0.1515322)
(261.19436 -9.163775e-16 -0.11354923)
(226.75422 -4.2533998e-16 -16.48462)
(265.37602 -3.1380053e-16 -18.513143)
(290.44636 2.46518e-16 -20.833355)
(311.45009 0 -22.056212)
(316.09289 6.0949068e-21 -23.695557)
(319.41844 9.4168436e-18 -22.098873)
(316.82188 0 -24.361308)
(318.32919 2.6194575e-17 -21.784535)
(316.6981 8.7593184e-17 -24.569081)
(317.25421 -7.2720083e-17 -21.972911)
(316.08358 -3.0343153e-17 -24.423693)
(315.94743 2.5264574e-17 -22.458927)
(314.90982 8.4227268e-17 -24.16528)
(314.20563 7.0181819e-17 -23.012508)
(313.02692 -5.8513567e-17 -23.99843)
(311.78601 1.4566248e-16 -23.487022)
(310.21071 4.0520735e-17 -23.990845)
(308.35937 -1.3385345e-16 -23.836134)
(306.15354 -1.3935559e-16 -24.066108)
(303.54398 -3.9303973e-16 -24.014012)
(300.50652 -1.5309795e-16 -24.025753)
(297.00197 -2.3797836e-16 -23.836543)
(293.05651 2.0928436e-16 -23.500036)
(288.7264 -3.442481e-16 -22.872408)
(284.15831 0 -21.906356)
(279.5604 0 -20.532037)
(275.18118 -3.4878044e-16 -18.7626)
(271.24468 5.7961666e-16 -16.668987)
(267.90251 -4.4501567e-16 -14.385406)
(265.21092 -2.3382877e-17 -12.066501)
(263.14036 -5.6959832e-16 -9.8565534)
(261.61 -1.8132828e-15 -7.8653377)
(260.52049 -7.2524198e-16 -6.1587377)
(259.77829 1.1042282e-15 -4.7585922)
(259.27194 -2.4470978e-17 -3.6638543)
(258.9074 -1.2154083e-15 -2.8507946)
(258.73197 9.0470549e-16 -2.2695502)
(258.71052 1.3372709e-15 -1.8551889)
(258.77998 0 -1.5786107)
(258.87997 -2.2447657e-17 -1.3895452)
(258.99947 1.0615668e-15 -1.2586354)
(259.14226 3.0543273e-15 -1.1490764)
(259.4606 -1.1121146e-15 -1.0043695)
(260.08221 0 -0.79991859)
(260.62541 1.1368104e-15 -0.58508477)
(260.93354 -3.2494498e-15 -0.43921095)
(261.08931 -1.8458588e-17 -0.3344895)
(261.1565 0 -0.24215566)
(261.1752 0 -0.1504112)
(261.19338 9.0415886e-16 -0.10819215)
(228.01704 6.6431709e-18 -17.73266)
(266.69938 3.1896822e-16 -19.879569)
(291.75665 -5.1756328e-16 -22.395254)
(312.49025 2.0963636e-16 -23.609044)
(315.87919 9.7968778e-21 -25.289819)
(319.11471 -1.6243783e-16 -23.546423)
(316.50049 1.279834e-16 -25.969935)
(318.03413 6.6493572e-17 -23.25048)
(316.36353 -8.8716008e-17 -26.16205)
(316.91277 0 -23.46809)
(315.70844 0 -25.989126)
(315.5419 0 -23.987636)
(314.47093 6.3082499e-20 -25.710602)
(313.72193 -1.4236291e-16 -24.562594)
(312.49419 -9.1677372e-20 -25.53825)
(311.18903 -4.9360104e-17 -25.042184)
(309.54162 0 -25.529029)
(307.60242 0 -25.380138)
(305.29555 1.1300346e-16 -25.588283)
(302.56998 -2.4233263e-17 -25.519751)
(299.40331 1.9466762e-16 -25.490251)
(295.76169 2.4062361e-16 -25.245777)
(291.68057 -2.1157513e-16 -24.822819)
(287.23363 3.2590747e-16 -24.078053)
(282.58873 3.5662768e-17 -22.959922)
(277.97438 -1.4409775e-17 -21.408531)
(273.64807 3.755199e-16 -19.452108)
(269.82907 2.7457998e-18 -17.180926)
(266.65179 -3.0209071e-17 -14.744288)
(264.14861 -1.7513129e-19 -12.304665)
(262.26738 5.9526747e-16 -10.006143)
(260.91354 9.3494611e-16 -7.9536914)
(259.9806 7.0724786e-16 -6.2068179)
(259.36635 1.0785987e-15 -4.7819074)
(258.95243 -8.1352149e-16 -3.6717454)
(258.68222 1.2382195e-15 -2.8500388)
(258.58491 -2.7351183e-15 -2.2604158)
(258.61234 -1.3398257e-15 -1.8397474)
(258.70908 1.9669011e-15 -1.5601718)
(258.82853 0 -1.3715903)
(258.96166 0 -1.2412685)
(259.11793 -1.5110343e-15 -1.12579)
(259.47334 0 -0.96809861)
(260.13692 -2.4507563e-17 -0.76476579)
(260.65099 -1.1109321e-15 -0.55951091)
(260.93986 3.2204955e-15 -0.4250354)
(261.08597 1.2043511e-15 -0.32753283)
(261.15057 -1.3159295e-17 -0.23948825)
(261.17056 -9.5165933e-18 -0.14902731)
(261.19273 6.9167225e-18 -0.10276587)
(229.16753 0 -19.005715)
(267.9177 3.1928817e-16 -21.262785)
(292.97946 -5.3431743e-16 -23.992589)
(313.35286 2.1258436e-16 -25.171591)
(315.55141 1.3280363e-20 -26.905058)
(318.77565 0 -25.007061)
(316.10469 -1.6249292e-17 -27.598684)
(317.65172 2.6946694e-17 -24.73163)
(315.93909 0 -27.771973)
(316.48282 3.750965e-17 -24.982476)
(315.24328 0 -27.569631)
(315.04891 0 -25.536756)
(313.93993 -4.332936e-17 -27.272093)
(313.14244 -1.4303583e-19 -26.132772)
(311.86248 2.2023195e-19 -27.094435)
(310.4892 -4.9881351e-17 -26.615)
(308.76534 0 -27.082271)
(306.73354 0 -26.937619)
(304.32035 0 -27.120691)
(301.47343 1.9027442e-16 -27.03121)
(298.1726 -1.3771236e-16 -26.954262)
(294.39065 -4.9057576e-17 -26.645778)
(290.17412 2.4263212e-16 -26.125196)
(285.6164 -2.2295886e-17 -25.249917)
(280.90795 1.7954719e-17 -23.966236)
(276.29679 0 -22.226821)
(272.04677 0 -20.077404)
(268.36877 -1.2442844e-15 -17.628384)
(265.3761 1.5143193e-17 -15.043359)
(263.07432 0 -12.490628)
(261.38986 -6.1811366e-16 -10.112133)