/*--------------------------------*- C++ -*----------------------------------*\
  =========                 |
  \\      /  F ield         | OpenFOAM: The Open Source CFD Toolbox
   \\    /   O peration     | Website:  https://openfoam.org
    \\  /    A nd           | Version:  8
     \\/     M anipulation  |
\*---------------------------------------------------------------------------*/
FoamFile
{
    version     2.0;
    format      ascii;
    class       volVectorField;
    location    "0.0699881";
    object      wallShearStress;
}
// * * * * * * * * * * * * * * * * * * * * * * * * * * * * * * * * * * * * * //

dimensions      [1 -1 -2 0 0 0 0];

internalField   uniform (0 0 0);

boundaryField
{
    aerofoil
    {
        type            calculated;
        value           nonuniform List<vector> 
300
(
(-129.92908 -5.3906635e-17 1.8450838)
(-132.32423 -5.5342787e-17 2.3876225)
(-135.03305 -1.1278399e-16 2.9717887)
(-137.65065 -9.0666013e-19 3.5844927)
(-140.24912 -1.5813398e-20 4.2295054)
(-142.79411 2.864219e-18 4.9051452)
(-145.28587 -1.2725401e-16 5.6126066)
(-147.70151 -2.5683388e-16 6.3515164)
(-150.04089 -5.2602257e-16 7.1230976)
(-152.29797 -2.6918807e-16 7.9235919)
(-154.49457 -2.2481209e-18 8.7555956)
(-156.62956 -2.7946273e-16 9.6149236)
(-158.70557 4.4976705e-18 10.509022)
(-160.72792 -4.5579992e-18 11.431113)
(-162.68943 3.0524542e-16 12.385861)
(-164.54667 -4.8531012e-18 13.371195)
(-166.29491 1.0448647e-19 14.384007)
(-167.9568 -3.2018937e-16 15.430469)
(-169.5401 5.2124294e-18 16.508016)
(-171.06662 3.2846205e-16 17.622031)
(-172.54388 3.4058961e-16 18.775095)
(-173.97893 -3.4186137e-16 19.967778)
(-175.39447 -5.1799978e-18 21.205659)
(-176.7945 2.4741805e-34 22.485912)
(-178.18051 -5.6761309e-18 23.818671)
(-179.53044 1.1768777e-17 25.197597)
(-180.85308 -5.986789e-18 26.62847)
(-182.14497 1.1955856e-19 28.116384)
(-183.39073 2.9195056e-20 29.659562)
(-184.58126 3.9350656e-16 31.265954)
(-185.70793 4.2680709e-16 32.944936)
(-186.7685 -4.2190035e-16 34.707142)
(-187.76007 4.4306509e-16 36.55178)
(-188.70777 -8.8916404e-16 38.469619)
(-189.63379 1.394112e-17 40.463667)
(-190.54815 -1.2534602e-17 42.544148)
(-191.4435 -7.7037198e-34 44.698616)
(-192.25124 -4.7075847e-16 46.925479)
(-192.95476 4.7746707e-16 49.228018)
(-193.51892 1.5440944e-18 51.603196)
(-193.9021 -1.7216345e-17 54.044855)
(-194.06794 1.5709889e-17 56.553399)
(-193.97449 -4.5914341e-18 59.133742)
(-193.60435 5.1885623e-16 61.793102)
(-192.90873 -5.270703e-16 64.517655)
(-191.90389 3.3930537e-18 67.322734)
(-190.54817 -6.2517216e-18 70.1996)
(-188.82992 -5.5595948e-16 73.15623)
(-186.7226 5.5668996e-16 76.187825)
(-184.20076 -5.8860937e-16 79.289481)
(-181.25579 1.7994427e-17 82.467716)
(-177.86653 -1.7632523e-18 85.713694)
(-174.01496 -5.9280337e-16 89.008282)
(-169.71402 -5.7594808e-16 92.325676)
(-164.98607 -2.4360502e-17 95.614273)
(-159.88528 6.4732449e-16 98.794297)
(-154.50101 6.2040068e-16 101.80343)
(-148.80146 -6.2417761e-18 104.58938)
(-142.56446 -6.410039e-16 107.04272)
(-135.66485 -2.595016e-17 109.01028)
(-128.02312 -1.106853e-17 110.37937)
(-119.57284 -6.6706574e-16 110.98871)
(-110.27966 -2.2231651e-17 110.61877)
(-100.13324 -1.3791922e-15 109.01629)
(-89.042225 7.0363597e-16 105.95944)
(-77.121885 0 101.2227)
(-64.547262 1.6099571e-34 94.255879)
(-51.688056 -3.257229e-32 84.701971)
(-39.030796 -8.1922358e-19 72.384388)
(-26.62843 -3.4104952e-16 57.262531)
(-15.380039 -1.03777e-17 39.902341)
(-7.6082715 -4.4936014e-18 21.115519)
(-3.2439854 1.8476582e-18 8.1782457)
(-1.0160773 -3.377266e-17 0.64280011)
(-1.2792849 -2.6932321e-17 -3.9983848)
(0.2709407 1.7420097e-16 -0.36818011)
(-1.057255 2.1113001e-16 -0.13146452)
(-1.0444101 2.0800936e-16 -0.14257445)
(-1.5879379 -2.3087986e-16 -0.20973208)
(-2.0824422 -1.1761583e-22 -0.26938248)
(-2.7448558 -2.6600358e-16 -0.34891975)
(-3.4587239 2.8355502e-16 -0.43264467)
(-4.2597707 3.009229e-16 -0.5250103)
(-5.126337 3.1751286e-16 -0.62301271)
(-6.0597249 3.3347629e-16 -0.72717043)
(-7.0542248 6.0033681e-20 -0.83563917)
(-8.1114825 -3.6354489e-16 -0.94549605)
(-9.2343241 3.7817182e-16 -1.0602242)
(-10.398233 3.9214292e-16 -1.1793388)
(-11.59788 -8.1075459e-16 -1.2993163)
(-12.828587 -4.179666e-16 -1.4196119)
(-14.089161 -4.8105874e-20 -1.5399056)
(-15.373293 -4.8910935e-20 -1.6594028)
(-16.674717 -5.0263095e-20 -1.7776099)
(-17.98933 5.1128476e-20 -1.8938592)
(-19.315491 4.7256062e-16 -2.0080399)
(-20.658296 4.8205383e-16 -2.1201006)
(-22.0199 -2.3456365e-22 -2.2307581)
(-23.400717 4.9997202e-16 -2.3394981)
(-24.798856 5.085514e-16 -2.4465102)
(-26.214487 2.4605658e-22 -2.551217)
(-27.642023 -8.147412e-25 -2.653697)
(-29.079848 -2.5449135e-22 -2.753043)
(-30.525052 -2.5715712e-22 -2.8494202)
(-31.984733 2.6146153e-22 -2.9425027)
(-33.461839 -5.5457002e-16 -3.0328561)
(-34.963643 -5.6161883e-16 -3.12159)
(-36.49348 -5.6850364e-16 -3.2077946)
(-38.042411 1.1736368e-20 -3.2908804)
(-39.609563 -6.1085423e-20 -3.3707926)
(-41.191758 5.6009256e-22 -3.4471759)
(-42.7896 2.9733124e-16 -3.5196296)
(-44.404456 -3.0043365e-16 -3.5879393)
(-46.043725 -5.3336147e-25 -3.6520286)
(-47.712816 3.0649727e-16 -3.7126359)
(-49.413623 -3.1922689e-20 -3.7692977)
(-51.142251 3.2284722e-20 -3.8210939)
(-52.898444 1.2243984e-21 -3.8679859)
(-54.67735 -5.9513097e-26 -3.9096711)
(-56.476203 -3.5918795e-20 -3.9448307)
(-58.293432 3.2395103e-16 -3.9734222)
(-60.140707 5.3971865e-21 -3.9951529)
(-62.028707 2.8991329e-20 -4.0099455)
(-63.961526 3.7433478e-20 -4.0183135)
(-65.934049 -3.3497842e-16 -4.0194965)
(-67.94147 -2.7408506e-20 -4.0116355)
(-69.974836 -3.4055659e-16 -3.9933017)
(-72.028671 1.3205079e-20 -3.9652413)
(-74.101297 -3.4653376e-16 -3.9255304)
(-76.185907 -6.9930332e-16 -3.8736568)
(-78.300507 -3.5275077e-16 -3.8110063)
(-80.475586 7.1105417e-16 -3.7372661)
(-82.713066 -1.3659658e-21 -3.6499969)
(-84.996378 -3.6049324e-16 -3.5477167)
(-87.312195 -1.8140401e-16 -3.4299708)
(-89.65241 3.2766056e-20 -3.2940634)
(-92.008895 1.8366075e-16 -3.1401603)
(-94.390075 -2.155888e-21 -2.9659987)
(-96.807297 -3.7175347e-16 -2.7707949)
(-99.277697 1.8693455e-16 -2.5539609)
(-101.79678 1.8805787e-16 -2.3134453)
(-104.35621 -3.7824817e-16 -2.0486077)
(-106.9594 1.1968472e-20 -1.757251)
(-109.61552 1.4240767e-26 -1.4430028)
(-112.3402 -5.6887824e-39 -1.1094056)
(-115.13174 1.6933575e-34 -0.73107054)
(-117.97412 -1.9574784e-20 -0.27749364)
(-120.86023 -2.4460428e-17 0.19716458)
(-123.7653 5.1925372e-21 0.7267028)
(-126.9362 0 1.3065079)
(-161.33483 -2.7326702e-21 1.009711)
(-161.1606 -5.7817046e-18 0.32911512)
(-160.85919 -1.0773019e-17 -0.36957662)
(-160.57096 -7.0915661e-19 -1.0783657)
(-160.33959 -4.5876983e-17 -1.7076851)
(-160.12771 -4.6121792e-17 -2.3693366)
(-159.93963 -1.5360266e-18 -3.0447067)
(-159.77882 9.7975266e-17 -3.7317942)
(-159.64739 1.5860334e-18 -4.4304135)
(-159.54816 -3.3082145e-22 -5.1422984)
(-159.47169 -1.6297773e-18 -5.8665342)
(-159.41005 2.1705093e-16 -6.6090898)
(-159.37134 5.1498485e-18 -7.3705982)
(-159.34052 -2.2976984e-16 -8.142181)
(-159.33969 -4.5797691e-16 -8.929561)
(-159.36693 -7.2518114e-18 -9.7346753)
(-159.40267 3.7455412e-18 -10.553677)
(-159.45722 3.8431704e-18 -11.390453)
(-159.51394 5.004832e-16 -12.241452)
(-159.58792 5.1067781e-16 -13.112108)
(-159.67595 2.3577688e-20 -14.004039)
(-159.77289 2.6134437e-16 -14.916829)
(-159.88925 -1.2743613e-19 -15.853679)
(-160.00696 2.8888949e-34 -16.809474)
(-160.13698 -2.8170943e-16 -17.792869)
(-160.25794 5.7462388e-16 -18.798761)
(-160.39877 -2.1185229e-33 -19.833917)
(-160.56397 5.7502847e-21 -20.902275)
(-160.72591 -7.3410462e-21 -21.997321)
(-160.88995 3.005443e-16 -23.126879)
(-161.05047 3.2609902e-16 -24.293742)
(-161.20609 -3.223302e-16 -25.499979)
(-161.33482 -1.0302187e-17 -26.742553)
(-161.4232 -3.2447801e-16 -28.022893)
(-161.48126 1.0614168e-20 -29.351239)
(-161.52469 3.3665894e-16 -30.735049)
(-161.56934 3.6625842e-16 -32.177881)
(-161.6409 7.2417348e-16 -33.689594)
(-161.75018 3.5848975e-16 -35.283074)
(-161.89666 1.0949376e-17 -36.964967)
(-162.06631 -3.8352009e-16 -38.737265)
(-162.30897 1.2624889e-17 -40.622691)
(-162.56775 2.4853433e-18 -42.627378)
(-162.8285 -1.2220807e-17 -44.754203)
(-163.01364 -3.9501179e-20 -46.985263)
(-163.119 0 -49.346075)
(-163.06589 2.2102514e-18 -51.843469)
(-162.88968 -2.0824118e-32 -54.512919)
(-162.55228 2.9879553e-18 -57.356638)
(-162.04057 0 -60.369368)
(-161.34798 0 -63.556091)
(-160.35921 9.5708602e-16 -66.909316)
(-158.89308 -1.983683e-17 -70.416542)
(-156.83315 -4.7767729e-16 -74.095208)
(-154.04643 -4.9880561e-16 -77.953456)
(-150.43882 -1.6099159e-17 -82.083252)
(-146.00584 4.6703801e-33 -86.597201)
(-140.8033 2.7391892e-17 -91.629358)
(-135.02233 -1.6380937e-17 -97.325116)
(-129.17117 -5.5184023e-16 -103.41695)
(-124.62676 1.5092444e-17 -109.87871)
(-121.19686 5.4439427e-16 -116.63716)
(-117.80325 1.4444475e-33 -123.13031)
(-113.21719 6.175922e-16 -128.79967)
(-106.906 -6.1689437e-16 -133.19987)
(-98.829 6.3750658e-16 -135.78345)
(-88.776875 -1.0294309e-17 -135.93731)
(-76.730168 6.7191508e-16 -132.92065)
(-63.111975 -3.3624497e-16 -125.99585)
(-48.74952 3.4329624e-16 -114.81819)
(-34.594707 -3.4251891e-16 -99.098434)
(-21.688842 3.4104822e-16 -79.386635)
(-11.717058 -1.9666111e-18 -56.971916)
(-5.7278888 1.6222997e-16 -33.386041)
(-2.5537342 -3.6590358e-17 -15.007444)
(-193.18636 1.1121482e-15 28.653549)
(-190.17537 -1.1167942e-15 29.07122)
(-192.21948 1.1142096e-15 29.072242)
(-193.76711 4.5917748e-41 28.973935)
(-194.12197 -6.5950222e-23 28.709611)
(-194.01731 -1.0369923e-19 28.373431)
(-193.43531 1.1021996e-15 27.973973)
(-192.60444 -1.3135212e-22 27.546159)
(-191.60083 1.3007535e-22 27.101848)
(-190.44827 -1.0909273e-15 26.649173)
(-189.1426 1.088564e-15 26.184553)
(-187.65266 -1.0864693e-15 25.704594)
(-185.9182 2.5936397e-22 25.203561)
(-183.90609 2.0412734e-19 24.674969)
(-181.65175 -5.1431028e-21 24.119836)
(-179.31035 -5.1553612e-21 23.562925)
(-176.9471 1.0612925e-15 23.013335)
(-174.57122 2.5094307e-22 22.468464)
(-172.189 -2.5040473e-22 21.930852)
(-169.80766 -1.0407196e-15 21.399621)
(-167.44128 1.033683e-15 20.877307)
(-165.07171 9.8071443e-22 20.361283)
(-162.70599 1.973318e-25 19.854699)
(-160.34855 -2.1691944e-20 19.352957)
(-157.98286 9.5681925e-22 18.855433)
(-155.61347 9.9790971e-16 18.363574)
(-153.23564 1.9816281e-15 17.878465)
(-150.85104 -9.3759784e-26 17.396783)
(-148.45318 9.2982473e-22 16.919669)
(-146.05789 -6.9898429e-20 16.449378)
(-143.67418 9.1606282e-20 15.986173)
(-141.31297 9.1210445e-22 15.533338)
(-138.94311 8.4432484e-26 15.083194)
(-136.54297 9.3956719e-16 14.634344)
(-134.15204 -7.5942695e-20 14.191426)
(-131.796 9.2382111e-16 13.756944)
(-129.44124 -9.1603477e-16 13.32583)
(-127.08794 2.5995645e-21 12.898549)
(-124.72 -9.0015231e-16 12.473198)
(-122.31473 -7.8363181e-20 12.04927)
(-119.84328 -8.8361505e-16 11.624208)
(-117.2808 3.2445864e-20 11.19657)
(-114.60991 3.0890284e-20 10.766001)
(-111.83158 -8.551055e-16 10.334162)
(-108.96331 -6.2868383e-20 9.9029375)
(-106.09234 2.9997891e-20 9.4780195)
(-103.33937 4.1108438e-16 9.0613843)
(-100.72895 4.0559357e-16 8.6472633)
(-97.878021 3.7133752e-20 8.2190127)
(-94.155623 -7.8810969e-16 7.74279)
(-89.419051 -5.3725199e-20 7.1925361)
(-83.365701 7.4623352e-20 6.5707014)
(-75.272879 -8.6260425e-20 5.8554507)
(-65.581317 -7.0862018e-16 5.077951)
(-55.986418 -3.3705095e-16 4.2891649)
(-48.073004 -3.190338e-16 3.6411152)
(-44.777638 8.9576168e-20 3.2511872)
(-53.303337 1.157492e-21 3.5552781)
(-76.480766 -3.2788542e-16 4.5330787)
(-106.71529 -3.3609646e-16 6.0416042)
(-133.8236 9.222848e-20 7.3134323)
(-151.71297 -3.3036393e-16 7.9963544)
(-160.11796 -3.2676786e-16 8.1139897)
(-163.75646 -6.7429014e-21 7.9052264)
(-165.06334 3.2291329e-16 7.5110292)
(-165.35031 3.2199235e-16 7.0398229)
(-165.21634 -1.2253866e-21 6.525746)
(-164.943 -1.6025087e-16 5.986951)
(-164.65385 0 5.4355436)
(-164.25655 -2.3171345e-33 4.8644965)
(-163.86013 -1.5954995e-16 4.2772433)
(-163.45339 1.7025088e-21 3.6804752)
(-163.05005 7.946505e-17 3.0771178)
(-162.6163 -7.9374148e-17 2.4441444)
(-161.85663 -3.9684992e-17 1.7106497)
)
;
    }
    inlet
    {
        type            calculated;
        value           uniform (0 0 0);
    }
    outlet
    {
        type            calculated;
        value           uniform (0 0 0);
    }
    back
    {
        type            empty;
    }
    front
    {
        type            empty;
    }
}


// ************************************************************************* //
