/*--------------------------------*- C++ -*----------------------------------*\
  =========                 |
  \\      /  F ield         | OpenFOAM: The Open Source CFD Toolbox
   \\    /   O peration     | Website:  https://openfoam.org
    \\  /    A nd           | Version:  8
     \\/     M anipulation  |
\*---------------------------------------------------------------------------*/
FoamFile
{
    version     2.0;
    format      ascii;
    class       volScalarField;
    location    "0.0699881";
    object      yPlus;
}
// * * * * * * * * * * * * * * * * * * * * * * * * * * * * * * * * * * * * * //

dimensions      [0 0 0 0 0 0 0];

internalField   uniform 0;

boundaryField
{
    aerofoil
    {
        type            calculated;
        value           nonuniform List<scalar> 
300
(
129.92569
130.07996
130.35395
130.58743
130.84412
131.0877
131.34138
131.58318
131.82344
132.05229
132.28585
132.51792
132.75479
132.98878
133.23125
133.46748
133.68822
133.90774
134.12725
134.35751
134.60396
134.86607
135.15899
135.47458
135.82542
136.19397
136.5834
136.99684
137.42189
137.85785
138.30445
138.76162
139.22419
139.70112
140.20295
140.74035
141.30518
141.86933
142.43001
142.97683
143.49127
143.96266
144.37228
144.73624
145.01419
145.23897
145.38537
145.46336
145.47458
145.41041
145.28005
145.09661
144.86289
144.59425
144.31065
144.03378
143.79335
143.6351
143.43667
143.15938
142.73018
142.10638
141.21013
139.91612
138.0223
135.37557
131.54168
125.99664
118.06386
106.53499
90.126032
66.643162
42.159485
13.782937
28.783905
7.9061365
13.241559
13.119069
16.162778
18.481929
21.192155
23.756413
26.328123
28.841952
31.312536
33.735631
36.121718
38.483424
40.776
43.00028
45.157058
47.253309
49.286562
51.25442
53.158296
55.00164
56.797949
58.553613
60.273343
61.956664
63.607868
65.221767
66.80041
68.341396
69.855774
71.34735
72.824428
74.291889
75.741582
77.173113
78.584518
79.976884
81.352789
82.718169
84.077589
85.433044
86.782018
88.12362
89.454713
90.773389
92.078681
93.37855
94.68125
95.989093
97.29925
98.606113
99.90525
101.19117
102.46465
103.71935
104.96786
106.23033
107.50885
108.79067
110.06779
111.3347
112.58656
113.82799
115.06557
116.30877
117.55857
118.80643
120.0577
121.31378
122.58442
123.86826
125.15946
126.45232
127.73998
129.05769
126.32691
125.48674
124.71721
123.98288
123.30719
122.67785
122.09149
121.54869
121.0473
120.59151
120.17508
119.79419
119.45508
119.14404
118.87054
118.6362
118.4285
118.25611
118.10487
117.98209
117.88708
117.8145
117.77496
117.75107
117.75776
117.77815
117.8203
117.89498
117.98317
118.09159
118.21533
118.35668
118.50678
118.65913
118.81921
118.99597
119.19319
119.42103
119.68844
120.00466
120.35546
120.76552
121.21271
121.71424
122.2205
122.75279
123.26675
123.79422
124.33124
124.87474
125.43441
125.98525
126.46621
126.85306
127.12715
127.30761
127.44002
127.64945
128.09132
128.9711
130.79691
133.59182
136.93954
140.3121
143.41476
146.07596
147.99525
148.65317
147.45925
143.78659
136.55783
124.75818
107.4682
83.06774
55.786107
170.27079
173.18935
173.22367
173.44447
173.03769
172.54575
171.85226
171.09042
170.27574
169.41808
168.5129
167.54776
166.48995
165.32245
164.05894
162.76238
161.45905
160.15443
158.84872
157.5469
156.25185
154.95641
153.65937
152.36817
151.06922
149.76773
148.45719
147.141
145.81379
144.48598
143.16052
141.83997
140.50975
139.15913
137.8065
136.46449
135.11401
133.7577
132.38836
130.99573
129.56421
128.07945
126.52616
124.90145
123.19778
121.45372
119.71574
118.01262
116.21719
113.94303
111.03271
107.35614
102.26831
95.699248
88.456918
81.896163
78.348945
83.571917
96.221733
108.88231
117.79456
123.27883
125.47688
126.39906
126.7205
126.79124
126.77053
126.71828
126.72313
126.70251
126.70929
126.71721
126.73755
126.75157
126.74505
)
;
    }
    inlet
    {
        type            calculated;
        value           uniform 0;
    }
    outlet
    {
        type            calculated;
        value           uniform 0;
    }
    back
    {
        type            empty;
    }
    front
    {
        type            empty;
    }
}


// ************************************************************************* //
