/*--------------------------------*- C++ -*----------------------------------*\
  =========                 |
  \\      /  F ield         | OpenFOAM: The Open Source CFD Toolbox
   \\    /   O peration     | Website:  https://openfoam.org
    \\  /    A nd           | Version:  8
     \\/     M anipulation  |
\*---------------------------------------------------------------------------*/
FoamFile
{
    version     2.0;
    format      ascii;
    class       volScalarField;
    location    "0.219989";
    object      alphat;
}
// * * * * * * * * * * * * * * * * * * * * * * * * * * * * * * * * * * * * * //

dimensions      [1 -1 -1 0 0 0 0];

internalField   nonuniform List<scalar> 
20000
(
0.0010835991
0.0024668093
0.0030838404
0.0030362095
0.0021927791
0.00050049631
1.1573058e-07
5.7157816e-09
5.2604166e-09
5.2432379e-09
5.1090688e-09
5.1426219e-09
5.0635046e-09
5.1083518e-09
5.1081264e-09
5.1546099e-09
5.1856306e-09
5.2457332e-09
5.3077957e-09
5.3941026e-09
5.4919676e-09
5.6133035e-09
5.7525032e-09
5.9220076e-09
6.1216607e-09
6.3464958e-09
6.5950296e-09
6.8608189e-09
7.1362046e-09
7.4089515e-09
7.6671604e-09
7.9012558e-09
8.1043306e-09
8.2740375e-09
8.4109279e-09
8.5177692e-09
8.597588e-09
8.6578183e-09
8.7065481e-09
8.7360487e-09
8.7493424e-09
8.7538462e-09
8.7556767e-09
8.7453421e-09
8.7235182e-09
8.7043446e-09
8.6768974e-09
8.6135611e-09
8.5601483e-09
8.47154e-09
0.0010691177
0.0024049017
0.0029752184
0.002886819
0.0019665519
0.00037847794
4.072887e-08
5.6244977e-09
5.2010987e-09
5.1884173e-09
5.0584184e-09
5.0937458e-09
5.0161576e-09
5.0620691e-09
5.0632319e-09
5.1110486e-09
5.1439519e-09
5.2060123e-09
5.2702855e-09
5.3585482e-09
5.4585178e-09
5.5827468e-09
5.7279618e-09
5.9062192e-09
6.1143367e-09
6.3461309e-09
6.5996914e-09
6.8718671e-09
7.151361e-09
7.4264061e-09
7.6849516e-09
7.9177312e-09
8.1185579e-09
8.2856394e-09
8.4200669e-09
8.5245339e-09
8.6023919e-09
8.6629115e-09
8.7104949e-09
8.7387281e-09
8.7508383e-09
8.754301e-09
8.7550303e-09
8.7435803e-09
8.7220607e-09
8.7041663e-09
8.6774939e-09
8.6158597e-09
8.567195e-09
8.475275e-09
0.0010563372
0.0023470792
0.0028671052
0.0027365793
0.0017378964
0.0002681797
1.8364089e-08
5.5490407e-09
5.1472669e-09
5.137957e-09
5.0123283e-09
5.0490038e-09
4.9729664e-09
5.0196551e-09
5.0224272e-09
5.0715356e-09
5.1062681e-09
5.1700179e-09
5.236071e-09
5.3260867e-09
5.428712e-09
5.5581221e-09
5.714099e-09
5.9016607e-09
6.1141601e-09
6.3499044e-09
6.6105278e-09
6.888239e-09
7.171861e-09
7.4487443e-09
7.7069876e-09
7.9377719e-09
8.1356115e-09
8.2994236e-09
8.430824e-09
8.532417e-09
8.608075e-09
8.6688912e-09
8.715507e-09
8.7421786e-09
8.7530319e-09
8.755315e-09
8.7542461e-09
8.7419616e-09
8.7211138e-09
8.703716e-09
8.6748031e-09
8.6071134e-09
8.5481822e-09
8.4819362e-09
0.0010438788
0.0022920095
0.0027677192
0.002586088
0.0015161819
0.00017362215
1.0834304e-08
5.4812275e-09
5.0968398e-09
5.0910923e-09
4.9697794e-09
5.00798e-09
4.9336018e-09
4.9812568e-09
4.9857147e-09
5.03616e-09
5.072618e-09
5.137766e-09
5.2055714e-09
5.2982021e-09
5.4059071e-09
5.5451937e-09
5.7090957e-09
5.9004937e-09
6.1164675e-09
6.3610196e-09
6.6287085e-09
6.9123534e-09
7.1995753e-09
7.4775905e-09
7.7346487e-09
7.9625024e-09
8.1564631e-09
8.3162206e-09
8.4438816e-09
8.5419469e-09
8.6151094e-09
8.6758754e-09
8.7202079e-09
8.7452479e-09
8.7551883e-09
8.7569387e-09
8.7538643e-09
8.7404745e-09
8.7204878e-09
8.7035365e-09
8.6741078e-09
8.593308e-09
8.5421025e-09
8.4853345e-09
0.0010316457
0.0022378694
0.0026702693
0.0024401663
0.0013043897
9.4050343e-05
7.8812599e-09
5.4207169e-09
5.051265e-09
5.048861e-09
4.9316876e-09
4.9714007e-09
4.8986323e-09
4.9472525e-09
4.9534071e-09
5.0050779e-09
5.04309e-09
5.1096573e-09
5.180078e-09
5.2774332e-09
5.3945909e-09
5.5403511e-09
5.7082105e-09
5.9032783e-09
6.1272196e-09
6.3792331e-09
6.6542449e-09
6.9433924e-09
7.2337355e-09
7.5121187e-09
7.7670999e-09
7.9911321e-09
8.1803979e-09
8.3354044e-09
8.458711e-09
8.552756e-09
8.6232723e-09
8.6834546e-09
8.7254191e-09
8.7487556e-09
8.7578082e-09
8.7591326e-09
8.7541376e-09
8.7388431e-09
8.7197446e-09
8.7025844e-09
8.6704364e-09
8.5937848e-09
8.5424448e-09
8.4873276e-09
0.0010197172
0.0021855835
0.0025751257
0.0022954917
0.0011047989
3.8306245e-05
6.5851059e-09
5.3656328e-09
5.0100851e-09
5.0109946e-09
4.897894e-09
4.9392163e-09
4.8681074e-09
4.9177179e-09
4.925505e-09
4.9783101e-09
5.0181638e-09
5.0872623e-09
5.1629849e-09
5.268325e-09
5.3904944e-09
5.5395902e-09
5.7109241e-09
5.9135014e-09
6.1449278e-09
6.4052954e-09
6.6875183e-09
6.9819107e-09
7.2747037e-09
7.5525798e-09
7.8045188e-09
8.0237854e-09
8.2075093e-09
8.3570529e-09
8.4753704e-09
8.5649374e-09
8.6327229e-09
8.6915763e-09
8.7308822e-09
8.7524498e-09
8.7605977e-09
8.7617956e-09
8.7546351e-09
8.7365122e-09
8.718852e-09
8.7005576e-09
8.6634266e-09
8.5946171e-09
8.5421783e-09
8.4895494e-09
0.0010079324
0.0021343389
0.0024819434
0.0021507333
0.00092057332
1.1651925e-05
5.9710353e-09
5.3185148e-09
4.9737532e-09
4.9778803e-09
4.8687064e-09
4.9116399e-09
4.8422398e-09
4.8928286e-09
4.9022613e-09
4.956554e-09
4.9995002e-09
5.0741885e-09
5.1561903e-09
5.2650426e-09
5.3899845e-09
5.5424418e-09
5.7209452e-09
5.930815e-09
6.1707464e-09
6.4392986e-09
6.7286401e-09
7.0277722e-09
7.3222549e-09
7.5986641e-09
7.8465489e-09
8.0601118e-09
8.2374805e-09
8.380885e-09
8.493617e-09
8.5783544e-09
8.6434648e-09
8.7000849e-09
8.7364263e-09
8.7560607e-09
8.7634777e-09
8.7647938e-09
8.7551758e-09
8.7340175e-09
8.717771e-09
8.6979141e-09
8.65532e-09
8.5930206e-09
8.5424715e-09
8.4924424e-09
0.00099643037
0.002084567
0.0023907755
0.0020070932
0.00075361882
2.9924105e-06
5.661568e-09
5.2775225e-09
4.9423761e-09
4.9497129e-09
4.8441684e-09
4.8886244e-09
4.8212543e-09
4.8730444e-09
4.8847111e-09
4.9421983e-09
4.9904795e-09
5.069082e-09
5.1541413e-09
5.264859e-09
5.3934568e-09
5.5522938e-09
5.7377761e-09
5.9559401e-09
6.2045481e-09
6.4815264e-09
6.7777441e-09
7.0810406e-09
7.3763221e-09
7.6502211e-09
7.893001e-09
8.0999124e-09
8.2701337e-09
8.4067435e-09
8.5133131e-09
8.5929365e-09
8.6555085e-09
8.7088784e-09
8.7418293e-09
8.759558e-09
8.7663203e-09
8.7679232e-09
8.7559487e-09
8.7339044e-09
8.7164729e-09
8.6946961e-09
8.6468237e-09
8.5897345e-09
8.540872e-09
8.5018915e-09
0.00098533442
0.0020365056
0.0023013366
0.0018640571
0.00060502595
7.560589e-07
5.4947223e-09
5.2426876e-09
4.9161881e-09
4.9269965e-09
4.8246036e-09
4.8710133e-09
4.8059879e-09
4.8598631e-09
4.8754725e-09
4.936234e-09
4.9871336e-09
5.0677835e-09
5.1543818e-09
5.2690462e-09
5.4034598e-09
5.5687065e-09
5.7621809e-09
5.9889764e-09
6.2467097e-09
6.5321039e-09
6.8348648e-09
7.1415998e-09
7.4366786e-09
7.7069507e-09
7.9435473e-09
8.1428719e-09
8.3051916e-09
8.4343856e-09
8.5342549e-09
8.6085496e-09
8.6686749e-09
8.717966e-09
8.74748e-09
8.7630248e-09
8.7690963e-09
8.7709748e-09
8.7571794e-09
8.7338404e-09
8.7148544e-09
8.690909e-09
8.6383496e-09
8.5849401e-09
8.5337859e-09
8.5233505e-09
0.00097510555
0.0019909248
0.0022141528
0.0017179621
0.0004755542
2.1345134e-07
5.3983107e-09
5.2139926e-09
4.896529e-09
4.9092658e-09
4.8112208e-09
4.8587763e-09
4.7981756e-09
4.8539762e-09
4.8718724e-09
4.9342231e-09
4.9866155e-09
5.0687273e-09
5.1597636e-09
5.2793222e-09
5.4198381e-09
5.5923899e-09
5.7942443e-09
6.0302371e-09
6.2973473e-09
6.5911395e-09
6.8999783e-09
7.2093017e-09
7.5030694e-09
7.768538e-09
7.9978573e-09
8.1886796e-09
8.3423846e-09
8.4635765e-09
8.5562612e-09
8.6250785e-09
8.682657e-09
8.7273649e-09
8.7533707e-09
8.7665367e-09
8.7717851e-09
8.7737422e-09
8.7590103e-09
8.7337122e-09
8.7127842e-09
8.6865293e-09
8.6302051e-09
8.5772553e-09
8.5306767e-09
8.5211214e-09
0.0009654728
0.0019479788
0.0021328783
0.0015689786
0.00036872296
7.4030769e-08
5.3482271e-09
5.1898369e-09
4.8882449e-09
4.896197e-09
4.8007457e-09
4.8465443e-09
4.7950072e-09
4.8516299e-09
4.8710009e-09
4.9340587e-09
4.989255e-09
5.075263e-09
5.1707517e-09
5.2957807e-09
5.4431272e-09
5.6234296e-09
5.8342913e-09
6.0799093e-09
6.3566457e-09
6.6586809e-09
6.9730001e-09
7.2839212e-09
7.5751713e-09
7.8346077e-09
8.0555499e-09
8.2369823e-09
8.3814063e-09
8.4940508e-09
8.5791484e-09
8.6424434e-09
8.6971917e-09
8.7369459e-09
8.759228e-09
8.7701761e-09
8.7744112e-09
8.7758842e-09
8.7594941e-09
8.7337715e-09
8.709511e-09
8.6816368e-09
8.6222632e-09
8.5694224e-09
8.5316944e-09
8.5026878e-09
0.00095623598
0.0019065556
0.0020590332
0.0014165857
0.00027404973
3.1796407e-08
5.3238654e-09
5.1713123e-09
4.879113e-09
4.8861097e-09
4.7899561e-09
4.8358096e-09
4.7939371e-09
4.8509695e-09
4.8724983e-09
4.9383031e-09
4.9971824e-09
5.0870626e-09
5.187835e-09
5.3188298e-09
5.4734785e-09
5.6621406e-09
5.8825126e-09
6.1381903e-09
6.4246958e-09
6.7347102e-09
7.0537663e-09
7.3651671e-09
7.6526064e-09
7.9047464e-09
8.1162171e-09
8.287411e-09
8.4219374e-09
8.5255359e-09
8.6027546e-09
8.6606383e-09
8.7119745e-09
8.7465859e-09
8.7651748e-09
8.7739567e-09
8.7770737e-09
8.7774969e-09
8.7596737e-09
8.734074e-09
8.7040299e-09
8.6764223e-09
8.6140238e-09
8.5614888e-09
8.5298216e-09
8.4715924e-09
0.00094738946
0.001865721
0.0019824818
0.0012617447
0.00019076077
1.7230871e-08
5.3070792e-09
5.1606005e-09
4.8684062e-09
4.8764707e-09
4.7792874e-09
4.8277328e-09
4.794853e-09
4.854169e-09
4.878909e-09
4.9475374e-09
5.0104807e-09
5.1048395e-09
5.2111969e-09
5.3486381e-09
5.5111454e-09
5.7087056e-09
5.939126e-09
6.2052442e-09
6.5015805e-09
6.8191716e-09
7.1420673e-09
7.452698e-09
7.7349504e-09
7.978498e-09
8.1794179e-09
8.3395747e-09
8.4636406e-09
8.5577513e-09
8.626933e-09
8.6797061e-09
8.7266804e-09
8.7561589e-09
8.7711396e-09
8.7777981e-09
8.7798889e-09
8.7788872e-09
8.7599354e-09
8.7348143e-09
8.7035377e-09
8.6709354e-09
8.6051641e-09
8.5534892e-09
8.524911e-09
8.4745256e-09
0.00093902367
0.0018261615
0.0019086786
0.0011096223
0.00011850492
1.1457562e-08
5.2954186e-09
5.1497484e-09
4.8623497e-09
4.8684367e-09
4.7745513e-09
4.8238777e-09
4.8004637e-09
4.8623873e-09
4.8904986e-09
4.9622946e-09
5.0295885e-09
5.1286416e-09
5.2410576e-09
5.3854177e-09
5.5563147e-09
5.7633337e-09
6.004313e-09
6.2811909e-09
6.5873156e-09
6.9119226e-09
7.2376063e-09
7.5460991e-09
7.8217186e-09
8.0553573e-09
8.2446838e-09
8.3930765e-09
8.5061813e-09
8.5904332e-09
8.6515581e-09
8.6996049e-09
8.7410404e-09
8.7655715e-09
8.7771192e-09
8.7817347e-09
8.7827697e-09
8.779406e-09
8.7599762e-09
8.736071e-09
8.7060538e-09
8.6649129e-09
8.5960429e-09
8.5449472e-09
8.5190765e-09
8.4818508e-09
0.00093082208
0.0017860365
0.0018346457
0.00096868671
6.1489804e-05
8.8834829e-09
5.2953112e-09
5.1415459e-09
4.8668976e-09
4.8730115e-09
4.7793521e-09
4.8298132e-09
4.8117032e-09
4.8760433e-09
4.9075754e-09
4.98264e-09
5.0545336e-09
5.1586659e-09
5.2775444e-09
5.4293198e-09
5.6091645e-09
5.8262112e-09
6.0782482e-09
6.3661547e-09
6.6818961e-09
7.0127979e-09
7.340053e-09
7.6449127e-09
7.9123753e-09
8.1347738e-09
8.3115251e-09
8.4475174e-09
8.5492338e-09
8.6233473e-09
8.6765301e-09
8.7198938e-09
8.7550597e-09
8.7747242e-09
8.7830345e-09
8.7859412e-09
8.7855534e-09
8.7794153e-09
8.7600608e-09
8.7382502e-09
8.7112315e-09
8.6580161e-09
8.5872631e-09
8.5424503e-09
8.5175834e-09
8.4870354e-09
0.00092262639
0.0017442343
0.0017599494
0.00083793963
2.5705953e-05
7.6285494e-09
5.2911911e-09
5.1388177e-09
4.8735852e-09
4.8810857e-09
4.7918455e-09
4.8442173e-09
4.8284084e-09
4.8948677e-09
4.9300212e-09
5.0085716e-09
5.0854267e-09
5.1949934e-09
5.320792e-09
5.4805005e-09
5.669858e-09
5.8975181e-09
6.1610797e-09
6.4601978e-09
6.7852374e-09
7.1215391e-09
7.4489868e-09
7.7485954e-09
8.0063074e-09
8.2161578e-09
8.3794546e-09
8.5025205e-09
8.5924942e-09
8.6563082e-09
8.7017854e-09
8.7401827e-09
8.7686245e-09
8.7835613e-09
8.7889513e-09
8.7904883e-09
8.7881772e-09
8.7793533e-09
8.7597711e-09
8.7394857e-09
8.7120882e-09
8.6496602e-09
8.5795918e-09
8.5403323e-09
8.5169545e-09
8.4921587e-09
0.00091440922
0.0017009024
0.0016833075
0.00071756971
9.0113756e-06
6.9714423e-09
5.2865801e-09
5.1402753e-09
4.8835318e-09
4.8926703e-09
4.808379e-09
4.8621637e-09
4.849903e-09
4.9188155e-09
4.9578587e-09
5.0401756e-09
5.1223247e-09
5.2377199e-09
5.370914e-09
5.539103e-09
5.7385753e-09
5.9774455e-09
6.2529763e-09
6.563397e-09
6.8972528e-09
7.2378683e-09
7.5639478e-09
7.856544e-09
8.1028536e-09
8.2989224e-09
8.448018e-09
8.5577276e-09
8.6356701e-09
8.6891688e-09
8.7272698e-09
8.7600099e-09
8.7816342e-09
8.7921118e-09
8.7950766e-09
8.7951443e-09
8.790838e-09
8.7791515e-09
8.7591799e-09
8.7396613e-09
8.7118436e-09
8.639831e-09
8.5732179e-09
8.5386613e-09
8.5168276e-09
8.496352e-09
0.00090601517
0.0016552446
0.0016031774
0.00060743271
2.8887053e-06
6.6124559e-09
5.2855864e-09
5.1470435e-09
4.8974295e-09
4.9095793e-09
4.8289138e-09
4.8851719e-09
4.8764125e-09
4.9479331e-09
4.9911234e-09
5.0774803e-09
5.1652886e-09
5.286929e-09
5.4280303e-09
5.6052808e-09
5.8154991e-09
6.0661707e-09
6.3540656e-09
6.6757457e-09
7.0177561e-09
7.3613874e-09
7.6843512e-09
7.9680462e-09
8.2013247e-09
8.3825427e-09
8.5168274e-09
8.6127894e-09
8.6784701e-09
8.7217973e-09
8.7528417e-09
8.7789511e-09
8.7940416e-09
8.8004827e-09
8.8014692e-09
8.7997545e-09
8.7934806e-09
8.7786258e-09
8.7584237e-09
8.739611e-09
8.7105646e-09
8.6285405e-09
8.5673932e-09
8.537003e-09
8.5168007e-09
8.4990149e-09
0.00089722116
0.0016066183
0.0015130526
0.00050761851
9.2498603e-07
6.4136228e-09
5.2891536e-09
5.1580812e-09
4.9155417e-09
4.9307589e-09
4.854323e-09
4.9129202e-09
4.9079081e-09
4.9822208e-09
5.0298224e-09
5.1205321e-09
5.2143726e-09
5.3427152e-09
5.4922737e-09
5.6792159e-09
5.9008446e-09
6.1639174e-09
6.4645113e-09
6.7972672e-09
7.1465606e-09
7.4916714e-09
7.8095579e-09
8.0823562e-09
8.3011071e-09
8.4666281e-09
8.5855612e-09
8.667329e-09
8.7205739e-09
8.7540327e-09
8.7780978e-09
8.7967686e-09
8.80592e-09
8.8090082e-09
8.8078034e-09
8.804218e-09
8.7958808e-09
8.7782297e-09
8.7575641e-09
8.7392276e-09
8.7062334e-09
8.6150688e-09
8.5652558e-09
8.5329123e-09
8.5174512e-09
8.5014156e-09
0.00088823147
0.0015563242
0.0014156923
0.00041779888
3.1830024e-07
6.3027573e-09
5.2977594e-09
5.1740754e-09
4.9382792e-09
4.9570135e-09
4.884378e-09
4.9454989e-09
4.9443897e-09
5.0216729e-09
5.073977e-09
5.1693596e-09
5.2696471e-09
5.4051893e-09
5.5637991e-09
5.7611073e-09
5.9948301e-09
6.2708834e-09
6.5844067e-09
6.9278749e-09
7.2833367e-09
7.6281395e-09
7.938789e-09
8.1987231e-09
8.401738e-09
8.5509076e-09
8.6538816e-09
8.7209088e-09
8.7616531e-09
8.7856573e-09
8.8023858e-09
8.8135665e-09
8.8175446e-09
8.8176254e-09
8.813945e-09
8.8083999e-09
8.7980566e-09
8.7779673e-09
8.7565967e-09
8.7374718e-09
8.6949326e-09
8.6086247e-09
8.5615828e-09
8.5280236e-09
8.5196802e-09
8.5034456e-09
0.0008791034
0.0015047406
0.0013118119
0.00033773822
1.2336134e-07
6.2377678e-09
5.3112115e-09
5.1945692e-09
4.9654991e-09
4.9875881e-09
4.919035e-09
4.9827841e-09
4.9858118e-09
5.0662833e-09
5.1235998e-09
5.224025e-09
5.3312042e-09
5.4744941e-09
5.6428112e-09
5.8512066e-09
6.097739e-09
6.3873185e-09
6.7139041e-09
7.0675045e-09
7.4277447e-09
7.7701558e-09
8.0712549e-09
8.3165576e-09
8.5029594e-09
8.6350674e-09
8.7212597e-09
8.7730253e-09
8.801467e-09
8.816387e-09
8.8253085e-09
8.8295367e-09
8.8292454e-09
8.8259592e-09
8.8198517e-09
8.8122091e-09
8.7997652e-09
8.7777199e-09
8.755511e-09
8.7342583e-09
8.6807453e-09
8.6044767e-09
8.5553302e-09
8.5290171e-09
8.5281894e-09
8.5052907e-09
0.00086975489
0.0014515846
0.0012045958
0.00026780977
5.5829558e-08
6.2014578e-09
5.3291577e-09
5.2194547e-09
4.9972618e-09
5.0226311e-09
4.9582257e-09
5.0247698e-09
5.0321902e-09
5.1160657e-09
5.1787435e-09
5.2846101e-09
5.3991716e-09
5.5508186e-09
5.7295405e-09
5.9497898e-09
6.209831e-09
6.5134365e-09
6.8530294e-09
7.2159448e-09
7.5792389e-09
7.9169107e-09
8.2061635e-09
8.4354913e-09
8.6045269e-09
8.7183609e-09
8.7867526e-09
8.8233709e-09
8.8399558e-09
8.8458864e-09
8.8469079e-09
8.8452475e-09
8.8404373e-09
8.834016e-09
8.8254891e-09
8.8156429e-09
8.800433e-09
8.7773684e-09
8.7542025e-09
8.7293902e-09
8.6668721e-09
8.5979162e-09
8.5489059e-09
8.5305052e-09
8.5289126e-09
8.5071546e-09
0.00086049953
0.0013961801
0.0011029152
0.00020390597
2.9504128e-08
6.1822219e-09
5.3515615e-09
5.2486161e-09
5.0332773e-09
5.0620165e-09
5.0019466e-09
5.0714689e-09
5.0835233e-09
5.1710666e-09
5.2394644e-09
5.3512133e-09
5.4737291e-09
5.6344021e-09
5.8242933e-09
6.0571931e-09
6.3314603e-09
6.6495006e-09
7.0018839e-09
7.3729719e-09
7.7372471e-09
8.0676102e-09
8.3429424e-09
8.5553893e-09
8.7057759e-09
8.7995487e-09
8.8497672e-09
8.8717071e-09
8.8769776e-09
8.8741047e-09
8.8677783e-09
8.8601596e-09
8.8511713e-09
8.8417052e-09
8.8308476e-09
8.8188466e-09
8.8006447e-09
8.7767896e-09
8.7525475e-09
8.7229809e-09
8.6532709e-09
8.5890332e-09
8.5472186e-09
8.5315712e-09
8.5218872e-09
8.5091398e-09
0.00085170407
0.0013428169
0.0010011089
0.00014396175
1.8240948e-08
6.17448e-09
5.378432e-09
5.2819841e-09
5.0735883e-09
5.1058058e-09
5.0502425e-09
5.122877e-09
5.139862e-09
5.2313324e-09
5.3058823e-09
5.4240189e-09
5.5551165e-09
5.7255354e-09
5.9273949e-09
6.1737563e-09
6.4629314e-09
6.7956882e-09
7.1603832e-09
7.5381387e-09
7.9009759e-09
8.2214252e-09
8.4812468e-09
8.6758993e-09
8.8051773e-09
8.8777679e-09
8.9098559e-09
8.9181753e-09
8.9128854e-09
8.900966e-09
8.8874975e-09
8.8743829e-09
8.8613496e-09
8.8489943e-09
8.8359037e-09
8.8219508e-09
8.8006695e-09
8.7759197e-09
8.7505197e-09
8.7154716e-09
8.6400443e-09
8.5796569e-09
8.5458295e-09
8.5321295e-09
8.521923e-09
8.5116928e-09
0.00084367461
0.0012927069
0.00090034225
9.1329594e-05
1.2973714e-08
6.1752222e-09
5.4098543e-09
5.31974e-09
5.1181791e-09
5.1539597e-09
5.1030891e-09
5.1790072e-09
5.201254e-09
5.2969855e-09
5.3781795e-09
5.5032687e-09
5.6436229e-09
5.8245701e-09
6.0392418e-09
6.2999069e-09
6.6046376e-09
6.9522471e-09
7.3284796e-09
7.7109798e-09
8.0696583e-09
8.3777662e-09
8.6209795e-09
8.7956351e-09
8.9015313e-09
8.9522814e-09
8.9675084e-09
8.9632174e-09
8.9469038e-09
8.9264012e-09
8.9061397e-09
8.8877971e-09
8.8709698e-09
8.8558431e-09
8.8405976e-09
8.8248695e-09
8.8006426e-09
8.7748585e-09
8.748133e-09
8.7066332e-09
8.6271328e-09
8.5714413e-09
8.5440142e-09
8.533553e-09
8.529466e-09
8.5201634e-09
0.00083609304
0.0012419048
0.00080173528
5.0256356e-05
1.0309901e-08
6.1822515e-09
5.4452377e-09
5.3616228e-09
5.1669196e-09
5.2064622e-09
5.1605036e-09
5.2399501e-09
5.2678507e-09
5.3682389e-09
5.4566158e-09
5.5892675e-09
5.7395957e-09
5.9318913e-09
6.1602377e-09
6.4360481e-09
6.7568849e-09
7.1192665e-09
7.5058599e-09
7.8907636e-09
8.2424218e-09
8.5362291e-09
8.7616994e-09
8.9127117e-09
8.9936266e-09
9.0233043e-09
9.0235604e-09
9.0058627e-09
8.9791145e-09
8.9503281e-09
8.9236161e-09
8.9004038e-09
8.8799984e-09
8.8622398e-09
8.8448878e-09
8.8272594e-09
8.8004123e-09
8.7736905e-09
8.7453492e-09
8.6959456e-09
8.6149319e-09
8.5644713e-09
8.5411513e-09
8.5341072e-09
8.5341621e-09
8.5425495e-09
0.00082900114
0.0011906046
0.00070687573
2.3835851e-05
8.8865577e-09
6.1955825e-09
5.4849055e-09
5.4076949e-09
5.219954e-09
5.2633888e-09
5.2226314e-09
5.3059008e-09
5.3399051e-09
5.4453725e-09
5.5414955e-09
5.6823477e-09
5.8434218e-09
6.0479417e-09
6.2908799e-09
6.5826778e-09
6.9200851e-09
7.2968845e-09
7.6922283e-09
8.0767949e-09
8.4186372e-09
8.6966954e-09
8.9015329e-09
9.0258184e-09
9.0809197e-09
9.0922651e-09
9.0768161e-09
9.0462109e-09
9.0093392e-09
8.9727052e-09
8.9399179e-09
8.9121657e-09
8.8884209e-09
8.8681893e-09
8.8487714e-09
8.828348e-09
8.7999796e-09
8.7725543e-09
8.7420451e-09
8.6832587e-09
8.6040176e-09
8.5580937e-09
8.5404262e-09
8.5335288e-09
8.5279625e-09
8.5400474e-09
0.00082256597
0.0011385098
0.00061690219
1.0051585e-05
8.0956001e-09
6.2158169e-09
5.5286763e-09
5.4579312e-09
5.2773353e-09
5.3249105e-09
5.2897361e-09
5.3771516e-09
5.4177237e-09
5.5286896e-09
5.6331438e-09
5.7828922e-09
5.9555317e-09
6.1731909e-09
6.4316502e-09
6.7402287e-09
7.094489e-09
7.4849679e-09
7.8869559e-09
8.2681871e-09
8.597774e-09
8.8586858e-09
9.0382827e-09
9.1336558e-09
9.1645831e-09
9.1584494e-09
9.1271665e-09
9.0840456e-09
9.0375618e-09
8.9934968e-09
8.9550259e-09
8.9230741e-09
8.8962198e-09
8.8737027e-09
8.8523531e-09
8.8288991e-09
8.799384e-09
8.7715153e-09
8.7380574e-09
8.6688716e-09
8.594787e-09
8.5559012e-09
8.5403419e-09
8.5326145e-09
8.5226762e-09
8.5188124e-09
0.00081677508
0.0010868563
0.00053277879
4.0001858e-06
7.6461391e-09
6.2447327e-09
5.5766298e-09
5.5127429e-09
5.3394308e-09
5.3914548e-09
5.3621671e-09
5.4540127e-09
5.5015934e-09
5.6184928e-09
5.731907e-09
5.8913177e-09
6.0764088e-09
6.3081939e-09
6.583136e-09
6.9092596e-09
7.2804338e-09
7.6834311e-09
8.0894602e-09
8.4642786e-09
8.7796301e-09
9.0202062e-09
9.1703701e-09
9.2357755e-09
9.2458819e-09
9.2209596e-09
9.1743951e-09
9.1193462e-09
9.0637315e-09
9.0126921e-09
8.9689426e-09
8.933122e-09
8.903383e-09
8.8787768e-09
8.8557417e-09
8.8291239e-09
8.798653e-09
8.7704697e-09
8.733059e-09
8.653965e-09
8.5873592e-09
8.5544825e-09
8.5405506e-09
8.5323984e-09
8.5239222e-09
8.5071858e-09
0.00081138033
0.0010369992
0.00045483045
1.5875773e-06
7.3887892e-09
6.2780718e-09
5.6295476e-09
5.5724324e-09
5.4066455e-09
5.4632939e-09
5.440162e-09
5.5366997e-09
5.5917648e-09
5.7151052e-09
5.8382136e-09
6.0080933e-09
6.2065905e-09
6.4535034e-09
6.7458971e-09
7.0901755e-09
7.4780111e-09
7.8917866e-09
8.2988806e-09
8.6643458e-09
8.9637506e-09
9.1787639e-09
9.2962831e-09
9.3338038e-09
9.323441e-09
9.2797545e-09
9.2184407e-09
9.1520571e-09
9.0878461e-09
9.0302993e-09
8.9816834e-09
8.9423152e-09
8.9099071e-09
8.8833854e-09
8.8588254e-09
8.8292387e-09
8.7978614e-09
8.7691344e-09
8.7263574e-09
8.6398654e-09
8.5813805e-09
8.5538209e-09
8.5407839e-09
8.5324314e-09
8.5254556e-09
8.5131221e-09
0.00080573416
0.00097968106
0.00038311051
6.584849e-07
7.2446561e-09
6.3172661e-09
5.6876246e-09
5.6372701e-09
5.4791531e-09
5.5404749e-09
5.5238843e-09
5.6254067e-09
5.6886415e-09
5.818959e-09
5.9524879e-09
6.1337748e-09
6.3466675e-09
6.6097954e-09
6.9205907e-09
7.2835335e-09
7.6873386e-09
8.1096523e-09
8.5145303e-09
8.8680265e-09
9.1484954e-09
9.332351e-09
9.4154761e-09
9.4287956e-09
9.3964882e-09
9.3346262e-09
9.2592479e-09
9.1821767e-09
9.1099182e-09
9.0463472e-09
8.9932727e-09
8.950663e-09
8.9158075e-09
8.8875317e-09
8.8611611e-09
8.8292883e-09
8.7970628e-09
8.7671563e-09
8.7169725e-09
8.6281437e-09
8.5776668e-09
8.553042e-09
8.5383996e-09
8.5325823e-09
8.5268151e-09
8.5181036e-09
0.00080051414
0.00092183934
0.00031826027
2.9574501e-07
7.170088e-09
6.3618803e-09
5.7505935e-09
5.7071646e-09
5.5567587e-09
5.6231687e-09
5.613537e-09
5.7205178e-09
5.7924615e-09
5.9304778e-09
6.0753034e-09
6.2689596e-09
6.4972907e-09
6.77772e-09
7.1078138e-09
7.4896194e-09
7.9081872e-09
8.3362141e-09
8.7355771e-09
9.074849e-09
9.3310751e-09
9.4792186e-09
9.5295468e-09
9.519342e-09
9.4648954e-09
9.385525e-09
9.2968105e-09
9.2097248e-09
9.129992e-09
9.0608794e-09
9.0037359e-09
8.958176e-09
8.9211219e-09
8.8913032e-09
8.8621373e-09
8.8292063e-09
8.7963097e-09
8.7642688e-09
8.7042021e-09
8.6203053e-09
8.5756931e-09
8.5515936e-09
8.5371157e-09
8.5335368e-09
8.5280133e-09
8.5226682e-09
0.00079554591
0.00086021817
0.00025969809
1.4735557e-07
7.1372001e-09
6.4110838e-09
5.8182429e-09
5.7820004e-09
5.6399026e-09
5.7117021e-09
5.709581e-09
5.8224644e-09
5.9037448e-09
6.050209e-09
6.2072324e-09
6.414287e-09
6.6591806e-09
6.9580546e-09
7.308277e-09
7.7088228e-09
8.1403703e-09
8.5708704e-09
8.961502e-09
9.2839056e-09
9.5087557e-09
9.6182206e-09
9.6400285e-09
9.6043992e-09
9.5284865e-09
9.4324135e-09
9.3311536e-09
9.234754e-09
9.148123e-09
9.0739321e-09
9.0130838e-09
8.9648616e-09
8.9259012e-09
8.8948275e-09
8.8625618e-09
8.8288495e-09
8.7956266e-09
8.7604499e-09
8.6909439e-09
8.6140002e-09
8.5728873e-09
8.5494201e-09
8.5376453e-09
8.534717e-09
8.5291478e-09
8.5271332e-09
0.00079013522
0.0007966277
0.00020740951
8.2656109e-08
7.1295404e-09
6.4657366e-09
5.8913123e-09
5.8625534e-09
5.7290604e-09
5.8065958e-09
5.8124889e-09
5.9317213e-09
6.0230044e-09
6.1786338e-09
6.3489128e-09
6.5704823e-09
6.8330948e-09
7.151546e-09
7.522505e-09
7.9411491e-09
8.3832236e-09
8.8127065e-09
9.1916576e-09
9.4921835e-09
9.6795676e-09
9.7508073e-09
9.7453598e-09
9.683849e-09
9.5872005e-09
9.4753106e-09
9.3623391e-09
9.2573358e-09
9.1643592e-09
9.0855132e-09
9.0213113e-09
8.9707435e-09
8.9302157e-09
8.8980162e-09
8.862708e-09
8.8283235e-09
8.7949857e-09
8.755819e-09
8.6779427e-09
8.6080387e-09
8.5690252e-09
8.5465361e-09
8.5380142e-09
8.5357451e-09
8.5305122e-09
8.5309707e-09
0.0007838033
0.000729461
0.00016182227
5.1765371e-08
7.1405612e-09
6.5264693e-09
5.9703383e-09
5.9492298e-09
5.824647e-09
5.9082228e-09
5.9226884e-09
6.0487609e-09
6.1507845e-09
6.3165518e-09
6.5010408e-09
6.738318e-09
7.0199061e-09
7.3590637e-09
7.7511337e-09
8.1866709e-09
8.6362425e-09
9.0610955e-09
9.4255713e-09
9.6965914e-09
9.8416955e-09
9.8786572e-09
9.8444704e-09
9.7574819e-09
9.641026e-09
9.5142782e-09
9.3904566e-09
9.277538e-09
9.1787109e-09
9.0955962e-09
9.0284148e-09
8.9758903e-09
8.9341686e-09
8.9002827e-09
8.8627634e-09
8.8276901e-09
8.7942106e-09
8.7502051e-09
8.6654916e-09
8.6018596e-09
8.5650507e-09
8.5454022e-09
8.5383404e-09
8.5366532e-09
8.5321124e-09
8.5342642e-09
0.00077740663
0.00065505412
0.00012281763
3.5690636e-08
7.1653724e-09
6.5933236e-09
6.0554322e-09
6.0422142e-09
5.9269901e-09
6.0169569e-09
6.040654e-09
6.1741007e-09
6.2876949e-09
6.4646381e-09
6.6644064e-09
6.9186765e-09
7.2205164e-09
7.5813723e-09
7.9944631e-09
8.4449662e-09
8.8985062e-09
9.3151036e-09
9.6608956e-09
9.8943565e-09
9.9957256e-09
1.0000966e-08
9.9368171e-09
9.825239e-09
9.6900058e-09
9.5494172e-09
9.4156048e-09
9.2954001e-09
9.1911633e-09
9.1041814e-09
9.0344539e-09
8.9804536e-09
8.9378516e-09
8.9012686e-09
8.8627694e-09
8.8269611e-09
8.7928532e-09
8.7426017e-09
8.6537285e-09
8.5951978e-09
8.561403e-09
8.5449972e-09
8.5392732e-09
8.5372657e-09
8.5341343e-09
8.5376104e-09
0.0007727021
0.00060405021
9.1112048e-05
2.6623562e-08
7.2011641e-09
6.6664097e-09
6.1467468e-09
6.1419339e-09
6.0364491e-09
6.1333467e-09
6.1668757e-09
6.308386e-09
6.434384e-09
6.6236195e-09
6.839882e-09
7.1125357e-09
7.435963e-09
7.8193541e-09
8.252878e-09
8.7157397e-09
9.1694653e-09
9.5742508e-09
9.8943431e-09
1.0083272e-08
1.0143309e-08
1.0116415e-08
1.0022265e-08
9.8871179e-09
9.734246e-09
9.5808576e-09
9.4378664e-09
9.3109332e-09
9.2017506e-09
9.1114185e-09
9.0396272e-09
8.9846457e-09
8.9411522e-09
8.9017022e-09
8.8624979e-09
8.8261465e-09
8.7904168e-09
8.7319542e-09
8.6429729e-09
8.5882515e-09
8.5577153e-09
8.5451071e-09
8.5405177e-09
8.5381535e-09
8.5364103e-09
8.5402953e-09
0.00076881112
0.00055845986
6.4934749e-05
2.112386e-08
7.2467942e-09
6.7461229e-09
6.2449371e-09
6.2487933e-09
6.1536847e-09
6.2578122e-09
6.3019952e-09
6.4522174e-09
6.5916343e-09
6.7943947e-09
7.0284704e-09
7.3209836e-09
7.6672289e-09
8.0736408e-09
8.5262248e-09
8.9981764e-09
9.4480659e-09
9.8373847e-09
1.0121885e-08
1.0262182e-08
1.0285142e-08
1.0223835e-08
1.0100679e-08
9.9431815e-09
9.7738836e-09
9.6087229e-09
9.4572974e-09
9.3241877e-09
9.2106957e-09
9.1177038e-09
9.0442901e-09
8.9886061e-09
8.9434749e-09
8.9018751e-09
8.8620107e-09
8.8252364e-09
8.7865038e-09
8.7183469e-09
8.6329253e-09
8.5817143e-09
8.5551808e-09
8.54518e-09
8.5417665e-09
8.5396573e-09
8.5388435e-09
8.5429359e-09
0.00076601477
0.00051948301
4.4737943e-05
1.7629394e-08
7.3015043e-09
6.8328678e-09
6.350296e-09
6.3633479e-09
6.27907e-09
6.3909437e-09
6.4466086e-09
6.6063933e-09
6.760352e-09
6.977952e-09
7.2312997e-09
7.5451847e-09
7.9154636e-09
8.3448855e-09
8.8145027e-09
9.2916959e-09
9.7336116e-09
1.0101145e-08
1.0341139e-08
1.0432618e-08
1.04195e-08
1.0323175e-08
1.0172083e-08
9.9935732e-09
9.8090826e-09
9.6331091e-09
9.4739604e-09
9.3353794e-09
9.2184679e-09
9.1235116e-09
9.0487376e-09
8.9921428e-09
8.944517e-09
8.9019785e-09
8.861347e-09
8.8241736e-09
8.7809471e-09
8.7030058e-09
8.6229427e-09
8.5769379e-09
8.5543661e-09
8.5454083e-09
8.5429103e-09
8.5415579e-09
8.5414423e-09
8.5455544e-09
0.00076454859
0.00048639914
2.9835958e-05
1.5316102e-08
7.3651403e-09
6.9271179e-09
6.4633905e-09
6.4858802e-09
6.4132093e-09
6.5334075e-09
6.6015288e-09
6.7718365e-09
6.9415512e-09
7.1754879e-09
7.4496166e-09
7.7864043e-09
8.1815827e-09
8.6333279e-09
9.1170206e-09
9.5952398e-09
1.0024828e-08
1.0361237e-08
1.0549193e-08
1.0596557e-08
1.0544729e-08
1.0414184e-08
1.0236544e-08
1.0038459e-08
9.8399767e-09
9.6540878e-09
9.488021e-09
9.3449771e-09
9.2255557e-09
9.1287939e-09
9.0526731e-09
8.9944153e-09
8.9449789e-09
8.9019509e-09
8.8605185e-09
8.8227156e-09
8.7736789e-09
8.6871415e-09
8.6139472e-09
8.5732735e-09
8.5543616e-09
8.5464016e-09
8.5439964e-09
8.5438522e-09
8.544192e-09
8.5481826e-09
0.00076463971
0.00045917947
1.9342031e-05
1.3739187e-08
7.4373207e-09
7.0290887e-09
6.5846106e-09
6.6170371e-09
6.5568408e-09
6.6860806e-09
6.7677199e-09
6.9496163e-09
7.1364307e-09
7.3882635e-09
7.6847797e-09
8.0459977e-09
8.4666116e-09
8.939255e-09
9.4333671e-09
9.9079988e-09
1.0319959e-08
1.0613777e-08
1.0746839e-08
1.075254e-08
1.0660478e-08
1.0496905e-08
1.0294247e-08
1.0078035e-08
9.8666841e-09
9.6718013e-09
9.4998648e-09
9.3535359e-09
9.2317912e-09
9.1322014e-09
9.0546485e-09
8.9955322e-09
8.9451432e-09
8.9015978e-09
8.8595156e-09
8.8205157e-09
8.7644042e-09
8.6719953e-09
8.6062796e-09
8.5703639e-09
8.5542562e-09
8.5479866e-09
8.5455327e-09
8.5462911e-09
8.5469862e-09
8.5506071e-09
0.0007663669
0.00043801482
1.2198866e-05
1.2642833e-08
7.5182839e-09
7.1394335e-09
6.7147036e-09
6.7577898e-09
6.7109096e-09
6.8499633e-09
6.9462765e-09
7.140939e-09
7.3463087e-09
7.6177256e-09
7.9382884e-09
8.3252201e-09
8.7711481e-09
9.2622782e-09
9.7624911e-09
1.0228508e-08
1.0614244e-08
1.0855487e-08
1.0935501e-08
1.0898807e-08
1.0766445e-08
1.0571378e-08
1.0345378e-08
1.0112461e-08
9.8893524e-09
9.6866191e-09
9.5100922e-09
9.3611131e-09
9.235557e-09
9.1337532e-09
9.055653e-09
8.9960609e-09
8.9452111e-09
8.9010114e-09
8.8583497e-09
8.8171723e-09
8.7521553e-09
8.6584755e-09
8.6005452e-09
8.5693432e-09
8.5548566e-09
8.5500372e-09
8.547671e-09
8.5490106e-09
8.5499166e-09
8.5528858e-09
0.00076942787
0.00042311106
7.4611356e-06
1.1874949e-08
7.6088317e-09
7.2590835e-09
6.8546788e-09
6.9091453e-09
6.8764943e-09
7.0261705e-09
7.1384214e-09
7.3471567e-09
7.5726081e-09
7.8654272e-09