/*--------------------------------*- C++ -*----------------------------------*\
  =========                 |
  \\      /  F ield         | OpenFOAM: The Open Source CFD Toolbox
   \\    /   O peration     | Website:  https://openfoam.org
    \\  /    A nd           | Version:  8
     \\/     M anipulation  |
\*---------------------------------------------------------------------------*/
FoamFile
{
    version     2.0;
    format      ascii;
    class       volVectorField;
    location    "0.219989";
    object      cellDisplacement;
}
// * * * * * * * * * * * * * * * * * * * * * * * * * * * * * * * * * * * * * //

dimensions      [0 1 0 0 0 0 0];

internalField   nonuniform List<vector> 
20000
(
(-0.00019782682 0 -0.00015037711)
(-0.00019782479 0 -0.00015037118)
(-0.00019782008 0 -0.00015036915)
(-0.00019781159 0 -0.00015036931)
(-0.00019779765 0 -0.00015037309)
(-0.00019777616 0 -0.00015038304)
(-0.00019774389 0 -0.00015040239)
(-0.00019769691 0 -0.00015043521)
(-0.00019762923 0 -0.00015048726)
(-0.00019753357 0 -0.00015056541)
(-0.00019739914 0 -0.00015068138)
(-0.0001972126 0 -0.00015084982)
(-0.00019695528 0 -0.00015109541)
(-0.0001966031 0 -0.00015145078)
(-0.00019612497 0 -0.00015196651)
(-0.00019547998 0 -0.00015270908)
(-0.00019461772 0 -0.00015379062)
(-0.00019347611 0 -0.00015530002)
(-0.00019197962 0 -0.00015744798)
(-0.00019003628 0 -0.00016047925)
(-0.00018753985 0 -0.00016473873)
(-0.00018437538 0 -0.00017066856)
(-0.00018042664 0 -0.0001788229)
(-0.00017559038 0 -0.00018984641)
(-0.00016978814 0 -0.00020443443)
(-0.00016298498 0 -0.00022323301)
(-0.00015524312 0 -0.00024659058)
(-0.00014659972 0 -0.00027493974)
(-0.00013726481 0 -0.00030747272)
(-0.00012736475 0 -0.00034310126)
(-0.00011708305 0 -0.00037975823)
(-0.00010663446 0 -0.0004155916)
(-9.623848e-05 0 -0.00044766117)
(-8.6044992e-05 0 -0.00047437168)
(-7.6371611e-05 0 -0.00049236104)
(-6.7087224e-05 0 -0.00050213686)
(-5.8047612e-05 0 -0.00050331876)
(-4.8793182e-05 0 -0.00049619341)
(-4.038879e-05 0 -0.00047729791)
(-3.132941e-05 0 -0.0004497815)
(-2.3492918e-05 0 -0.00041695069)
(-1.5144579e-05 0 -0.00037069205)
(-8.7714569e-06 0 -0.00032920281)
(-6.7431745e-07 0 -0.00025821452)
(3.1486474e-06 0 -0.00021644103)
(1.114798e-05 0 -0.00011110879)
(1.7139275e-05 0 -1.4855959e-05)
(1.7402069e-05 0 4.1594393e-05)
(1.6070192e-05 0 7.8125042e-05)
(1.6953187e-05 0 0.000244867)
(-0.00019767999 0 -0.00012278201)
(-0.00019767783 0 -0.00012276283)
(-0.00019767293 0 -0.00012274215)
(-0.00019766419 0 -0.00012272012)
(-0.0001976499 0 -0.00012269715)
(-0.0001976279 0 -0.0001226743)
(-0.00019759492 0 -0.00012265293)
(-0.00019754695 0 -0.00012263604)
(-0.00019747786 0 -0.00012262801)
(-0.00019738031 0 -0.00012263593)
(-0.00019724326 0 -0.00012266992)
(-0.00019705327 0 -0.00012274438)
(-0.00019679127 0 -0.00012288084)
(-0.00019643288 0 -0.00012311103)
(-0.00019594679 0 -0.00012348132)
(-0.00019529088 0 -0.00012406098)
(-0.0001944157 0 -0.00012494208)
(-0.00019325744 0 -0.00012625191)
(-0.00019174025 0 -0.00012816846)
(-0.00018977164 0 -0.00013095614)
(-0.00018724573 0 -0.00013497111)
(-0.00018404882 0 -0.00014067187)
(-0.00018006672 0 -0.00014863387)
(-0.00017519959 0 -0.00015952872)
(-0.00016937277 0 -0.00017408749)
(-0.0001625613 0 -0.00019297884)
(-0.00015482005 0 -0.00021662968)
(-0.00014621626 0 -0.00024537736)
(-0.00013693488 0 -0.00027850416)
(-0.00012711816 0 -0.00031489542)
(-0.00011692487 0 -0.0003527105)
(-0.00010657176 0 -0.00039000394)
(-9.6263258e-05 0 -0.00042390791)
(-8.6153446e-05 0 -0.00045265408)
(-7.6527382e-05 0 -0.00047303134)
(-6.7280188e-05 0 -0.00048521533)
(-5.8282656e-05 0 -0.00048869683)
(-4.9130705e-05 0 -0.00048375697)
(-4.0726049e-05 0 -0.00046728192)
(-3.1798406e-05 0 -0.00044198182)
(-2.3937782e-05 0 -0.00041079033)
(-1.5704907e-05 0 -0.00036689155)
(-9.2258664e-06 0 -0.00032581841)
(-1.3289077e-06 0 -0.00025818603)
(2.7808873e-06 0 -0.00021469832)
(1.0487338e-05 0 -0.00011416684)
(1.6369285e-05 0 -2.0300844e-05)
(1.6914913e-05 0 3.742989e-05)
(1.5674292e-05 0 7.5672841e-05)
(1.5898205e-05 0 0.00022612533)
(-0.00019742923 0 -9.5781047e-05)
(-0.00019742675 0 -9.5744703e-05)
(-0.00019742145 0 -9.570326e-05)
(-0.00019741221 0 -9.565731e-05)
(-0.00019739728 0 -9.5606488e-05)
(-0.0001973745 0 -9.5551922e-05)
(-0.00019734046 0 -9.5493712e-05)
(-0.00019729118 0 -9.5434143e-05)
(-0.00019722024 0 -9.5374756e-05)
(-0.0001971204 0 -9.5319654e-05)
(-0.00019697994 0 -9.5276673e-05)
(-0.00019678585 0 -9.5256568e-05)
(-0.0001965176 0 -9.5281499e-05)
(-0.0001961522 0 -9.5380314e-05)
(-0.00019565539 0 -9.5600281e-05)
(-0.00019498778 0 -9.6012117e-05)
(-0.00019409647 0 -9.6697604e-05)
(-0.00019291926 0 -9.7792844e-05)
(-0.00019137852 0 -9.9479525e-05)
(-0.00018938148 0 -0.00010203331)
(-0.00018682302 0 -0.00010581934)
(-0.00018359035 0 -0.00011131197)
(-0.0001795719 0 -0.00011910454)
(-0.00017467145 0 -0.00012989428)
(-0.0001688184 0 -0.00014444612)
(-0.00016199863 0 -0.0001634461)
(-0.00015426023 0 -0.00018739628)
(-0.00014569903 0 -0.00021653904)
(-0.00013648041 0 -0.00025022233)
(-0.0001267526 0 -0.00028733385)
(-0.00011665878 0 -0.00032621771)
(-0.00010640893 0 -0.00036489286)
(-9.6200699e-05 0 -0.00040050729)
(-8.6182508e-05 0 -0.00043119778)
(-7.6617546e-05 0 -0.00045383116)
(-6.7416237e-05 0 -0.00046834309)
(-5.8470771e-05 0 -0.00047404634)
(-4.9419523e-05 0 -0.00047124622)
(-4.1030203e-05 0 -0.00045710801)
(-3.2225492e-05 0 -0.00043398981)
(-2.435805e-05 0 -0.0004044654)
(-1.623046e-05 0 -0.00036282299)
(-9.666234e-06 0 -0.00032231049)
(-1.9517941e-06 0 -0.00025781934)
(2.4078916e-06 0 -0.00021296981)
(9.8486042e-06 0 -0.00011691665)
(1.5621505e-05 0 -2.5424468e-05)
(1.6421555e-05 0 3.3337429e-05)
(1.5269293e-05 0 7.3019897e-05)
(1.4907912e-05 0 0.00020868757)
(-0.00019707762 0 -6.9375796e-05)
(-0.00019707517 0 -6.9348458e-05)
(-0.00019706993 0 -6.9317214e-05)
(-0.00019706044 0 -6.9273268e-05)
(-0.00019704503 0 -6.9211007e-05)
(-0.00019702116 0 -6.9130146e-05)
(-0.00019698582 0 -6.9029451e-05)
(-0.00019693427 0 -6.89121e-05)
(-0.00019686091 0 -6.8778113e-05)
(-0.00019675713 0 -6.8636416e-05)
(-0.00019661267 0 -6.8492285e-05)
(-0.0001964123 0 -6.8361956e-05)
(-0.00019613746 0 -6.8263128e-05)
(-0.00019576227 0 -6.8225123e-05)
(-0.00019525448 0 -6.829554e-05)
(-0.00019457178 0 -6.852671e-05)
(-0.0001936631 0 -6.9027855e-05)
(-0.00019246404 0 -6.990944e-05)
(-0.00019089668 0 -7.1374955e-05)
(-0.00018886794 0 -7.3697399e-05)
(-0.00018627314 0 -7.7253708e-05)
(-0.00018300099 0 -8.2536258e-05)
(-0.00017894263 0 -9.0159778e-05)
(-0.00017400583 0 -0.00010084824)
(-0.00016812534 0 -0.00011539607)
(-0.00016129594 0 -0.00013451265)
(-0.00015356478 0 -0.0001587489)
(-0.00014504949 0 -0.00018827383)
(-0.00013589927 0 -0.00022249857)
(-0.00012626806 0 -0.00026030181)
(-0.0001162814 0 -0.00030020126)
(-0.00010614644 0 -0.00034017273)
(-9.6047703e-05 0 -0.0003774083)
(-8.613251e-05 0 -0.00040994217)
(-7.6640062e-05 0 -0.00043472758)
(-6.749666e-05 0 -0.00045147446)
(-5.860979e-05 0 -0.00045934074)
(-4.9660503e-05 0 -0.0004586388)
(-4.1298389e-05 0 -0.00044676733)
(-3.261183e-05 0 -0.00042579976)
(-2.4750567e-05 0 -0.00039795658)
(-1.6722803e-05 0 -0.00035849705)
(-1.0092073e-05 0 -0.00031866961)
(-2.5421807e-06 0 -0.00025710891)
(2.0300716e-06 0 -0.00021124877)
(9.2316834e-06 0 -0.00011934994)
(1.4897506e-05 0 -3.0227772e-05)
(1.5923276e-05 0 2.9295464e-05)
(1.485828e-05 0 7.0198412e-05)
(1.3979216e-05 0 0.00019242575)
(-0.00019662745 0 -4.3501073e-05)
(-0.00019662344 0 -4.3405986e-05)
(-0.00019661642 0 -4.3298851e-05)
(-0.00019660513 0 -4.3183382e-05)
(-0.00019658812 0 -4.3066913e-05)
(-0.00019656265 0 -4.2942245e-05)
(-0.0001965257 0 -4.2811514e-05)
(-0.00019647221 0 -4.2666368e-05)
(-0.00019639648 0 -4.2508449e-05)
(-0.00019628947 0 -4.2332667e-05)
(-0.00019614064 0 -4.2143251e-05)
(-0.00019593442 0 -4.1946408e-05)
(-0.0001956517 0 -4.1757736e-05)
(-0.00019526644 0 -4.1605929e-05)
(-0.00019474536 0 -4.1530999e-05)
(-0.00019404674 0 -4.1609309e-05)
(-0.00019311758 0 -4.1911437e-05)
(-0.00019189406 0 -4.2591658e-05)
(-0.00019029702 0 -4.3837971e-05)
(-0.00018823342 0 -4.5938883e-05)
(-0.00018559932 0 -4.9282119e-05)
(-0.00018228449 0 -5.4376609e-05)
(-0.00017818364 0 -6.1854413e-05)
(-0.00017320787 0 -7.2467965e-05)
(-0.00016729937 0 -8.7033436e-05)
(-0.00016045984 0 -0.0001062882)
(-0.00015274001 0 -0.000130813)
(-0.00014427214 0 -0.00016071888)
(-0.00013519935 0 -0.00019545337)
(-0.00012567016 0 -0.0002339218)
(-0.0001158007 0 -0.00027476507)
(-0.0001057878 0 -0.00031596359)
(-9.581011e-05 0 -0.00035470858)
(-8.6005353e-05 0 -0.00038899715)
(-7.6597492e-05 0 -0.00041581174)
(-6.7520288e-05 0 -0.00043470763)
(-5.8701825e-05 0 -0.00044465629)
(-4.9854068e-05 0 -0.00044599926)
(-4.1531823e-05 0 -0.00043631723)
(-3.2958022e-05 0 -0.00041745413)
(-2.5116566e-05 0 -0.00039130482)
(-1.7182487e-05 0 -0.00035394303)
(-1.0502943e-05 0 -0.0003149195)
(-3.1027855e-06 0 -0.00025609942)
(1.6505687e-06 0 -0.00020952931)
(8.6358146e-06 0 -0.00012149436)
(1.4194655e-05 0 -3.4726806e-05)
(1.5421338e-05 0 2.5337593e-05)
(1.4440814e-05 0 6.7237805e-05)
(1.3107019e-05 0 0.00017729583)
(-0.00019608332 0 -1.8235982e-05)
(-0.00019607973 0 -1.817312e-05)
(-0.00019607304 0 -1.8098617e-05)
(-0.00019606164 0 -1.8002648e-05)
(-0.0001960437 0 -1.7877117e-05)
(-0.00019601652 0 -1.7721214e-05)
(-0.00019597694 0 -1.7531796e-05)
(-0.00019591997 0 -1.7310983e-05)
(-0.00019583974 0 -1.7057389e-05)
(-0.00019572728 0 -1.6777033e-05)
(-0.00019557179 0 -1.6473068e-05)
(-0.00019535755 0 -1.6156798e-05)
(-0.00019506505 0 -1.5842145e-05)
(-0.00019466773 0 -1.555331e-05)
(-0.00019413183 0 -1.5333127e-05)
(-0.00019341432 0 -1.5231072e-05)
(-0.00019246298 0 -1.5358836e-05)
(-0.00019121183 0 -1.5831836e-05)
(-0.00018958195 0 -1.686412e-05)
(-0.0001874801 0 -1.8744015e-05)
(-0.00018480272 0 -2.1873621e-05)
(-0.00018144165 0 -2.6780466e-05)
(-0.00017729442 0 -3.4116925e-05)
(-0.00017227726 0 -4.4661764e-05)
(-0.00016633918 0 -5.9254023e-05)
(-0.00015948961 0 -7.8654863e-05)
(-0.00015178489 0 -0.00010346133)
(-0.00014336839 0 -0.00013374136)
(-0.00013437802 0 -0.00016897638)
(-0.00012495828 0 -0.00020808858)
(-0.00011521348 0 -0.00024983056)
(-0.00010533305 0 -0.0002921809)
(-9.548505e-05 0 -0.00033235366)
(-8.5801073e-05 0 -0.00036830017)
(-7.6488021e-05 0 -0.00039704516)
(-6.7488109e-05 0 -0.00041799453)
(-5.8744696e-05 0 -0.00042996534)
(-5.0000488e-05 0 -0.00043330441)
(-4.1727796e-05 0 -0.000425746)
(-3.3264552e-05 0 -0.00040894554)
(-2.5453135e-05 0 -0.00038449051)
(-1.7610245e-05 0 -0.00034916566)
(-1.0897557e-05 0 -0.00031104384)
(-3.6333882e-06 0 -0.00025479)
(1.2703814e-06 0 -0.00020779574)
(8.0601753e-06 0 -0.00012335266)
(1.3513969e-05 0 -3.8930248e-05)
(1.4917371e-05 0 2.144763e-05)
(1.4019459e-05 0 6.415502e-05)
(1.2289049e-05 0 0.00016319324)
(-0.00019544548 0 6.5323452e-06)
(-0.0001954397 0 6.659294e-06)
(-0.00019543052 0 6.804734e-06)
(-0.0001954166 0 6.9672229e-06)
(-0.00019539638 0 7.1427556e-06)
(-0.00019536691 0 7.3394631e-06)
(-0.00019532498 0 7.5581741e-06)
(-0.0001952652 0 7.8078402e-06)
(-0.00019518158 0 8.0891759e-06)
(-0.00019506461 0 8.4087553e-06)
(-0.0001949032 0 8.7647058e-06)
(-0.00019468113 0 9.1535222e-06)
(-0.00019437841 0 9.5629449e-06)
(-0.00019396809 0 9.9682647e-06)
(-0.00019341554 0 1.0333819e-05)
(-0.00019267797 0 1.0587046e-05)
(-0.00019170095 0 1.065623e-05)
(-0.00019041957 0 1.0380762e-05)
(-0.00018875363 0 9.5631849e-06)
(-0.00018661042 0 7.8952896e-06)
(-0.00018388688 0 4.9614914e-06)
(-0.00018047673 0 2.1774685e-07)
(-0.00017628063 0 -7.002817e-06)
(-0.00017122006 0 -1.7507541e-05)
(-0.0001652522 0 -3.2150856e-05)
(-0.00015839286 0 -5.1722344e-05)
(-0.00015070816 0 -7.6820097e-05)
(-0.00014234551 0 -0.00010747949)
(-0.00013344472 0 -0.00014318307)
(-0.00012414012 0 -0.00018291613)
(-0.00011452883 0 -0.00022549876)
(-0.00010478767 0 -0.00026893819)
(-9.5079297e-05 0 -0.00031043957)
(-8.5523028e-05 0 -0.00034795766)
(-7.6315095e-05 0 -0.00037851904)
(-6.7400285e-05 0 -0.00040143272)
(-5.8740887e-05 0 -0.00041534222)
(-5.0101023e-05 0 -0.00042061801)
(-4.1888087e-05 0 -0.00041510901)
(-3.3532541e-05 0 -0.00040031835)
(-2.5761914e-05 0 -0.00037755615)
(-1.8006937e-05 0 -0.00034419638)
(-1.1275714e-05 0 -0.00030706617)
(-4.136448e-06 0 -0.00025322265)
(8.9203942e-07 0 -0.000206045)
(7.5040726e-06 0 -0.00012495169)
(1.2853213e-05 0 -4.2849502e-05)
(1.4412084e-05 0 1.7653449e-05)
(1.3593919e-05 0 6.0982815e-05)
(1.1520565e-05 0 0.0001500782)
(-0.00019471938 0 3.0718892e-05)
(-0.00019471386 0 3.082118e-05)
(-0.00019470469 0 3.0945688e-05)
(-0.00019469015 0 3.1100796e-05)
(-0.00019466827 0 3.1294806e-05)
(-0.00019463623 0 3.1528816e-05)
(-0.00019459064 0 3.1806696e-05)
(-0.00019452627 0 3.2128872e-05)
(-0.00019443686 0 3.2498506e-05)
(-0.00019431297 0 3.2913892e-05)
(-0.0001941432 0 3.3374766e-05)
(-0.00019391109 0 3.3874864e-05)
(-0.00019359614 0 3.4404119e-05)
(-0.00019317075 0 3.4942599e-05)
(-0.00019259983 0 3.5451549e-05)
(-0.00019183889 0 3.5883107e-05)
(-0.0001908346 0 3.6125109e-05)
(-0.00018951945 0 3.6057059e-05)
(-0.00018781425 0 3.5453921e-05)
(-0.00018562606 0 3.3997291e-05)
(-0.00018285268 0 3.1258477e-05)
(-0.00017938966 0 2.667094e-05)
(-0.00017514104 0 1.9560163e-05)
(-0.00017003482 0 9.0837801e-06)
(-0.00016403594 0 -5.6245052e-06)
(-0.00015716809 0 -2.5378537e-05)
(-0.00014950701 0 -5.076711e-05)
(-0.00014120292 0 -8.1803849e-05)
(-0.0001323966 0 -0.00011797281)
(-0.00012321435 0 -0.00015830742)
(-0.0001137437 0 -0.0002016932)
(-0.00010415122 0 -0.00024615429)
(-9.459022e-05 0 -0.00028891028)
(-8.5170973e-05 0 -0.00032790741)
(-7.6077128e-05 0 -0.00036019174)
(-6.7257475e-05 0 -0.00038497394)
(-5.8688365e-05 0 -0.00040075913)
(-5.0155574e-05 0 -0.00040791654)
(-4.2010258e-05 0 -0.00040439284)
(-3.3762079e-05 0 -0.00039156375)
(-2.6040341e-05 0 -0.00037048262)
(-1.8372811e-05 0 -0.00033903564)
(-1.1635909e-05 0 -0.00030296789)
(-4.6119419e-06 0 -0.00025139714)
(5.1665179e-07 0 -0.00020425855)
(6.9663999e-06 0 -0.00012629857)
(1.2212998e-05 0 -4.6499159e-05)
(1.3907246e-05 0 1.3941974e-05)
(1.3166337e-05 0 5.7725987e-05)
(1.0799889e-05 0 0.00013786337)
(-0.00019390501 0 5.4426246e-05)
(-0.00019389671 0 5.4588831e-05)
(-0.00019388441 0 5.4778844e-05)
(-0.00019386671 0 5.4994544e-05)
(-0.00019384199 0 5.5232719e-05)
(-0.00019380705 0 5.5502766e-05)
(-0.00019375848 0 5.5806635e-05)
(-0.00019369048 0 5.6156353e-05)
(-0.00019359666 0 5.6554423e-05)
(-0.00019346689 0 5.7011597e-05)
(-0.00019328946 0 5.7528425e-05)
(-0.0001930473 0 5.8106048e-05)
(-0.00019271943 0 5.8734993e-05)
(-0.00019227774 0 5.9394904e-05)
(-0.0001916862 0 6.0052496e-05)
(-0.00019090063 0 6.0638376e-05)
(-0.00018986497 0 6.1079522e-05)
(-0.00018851336 0 6.1211473e-05)
(-0.00018676533 0 6.082884e-05)
(-0.00018452959 0 5.9569719e-05)
(-0.00018170367 0 5.7004819e-05)
(-0.00017818538 0 5.2541181e-05)
(-0.00017388183 0 4.5515714e-05)
(-0.00016872859 0 3.5034378e-05)
(-0.00016269922 0 2.0235118e-05)
(-0.00015582396 0 2.6954503e-07)
(-0.00014819182 0 -2.5422221e-05)
(-0.00013994965 0 -5.6837983e-05)
(-0.00013124452 0 -9.345205e-05)
(-0.00012219014 0 -0.00013436882)
(-0.00011286804 0 -0.00017850939)
(-0.00010343049 0 -0.00022393524)
(-9.4025347e-05 0 -0.00026785732)
(-8.4749329e-05 0 -0.00030825052)
(-7.5778281e-05 0 -0.0003421517)
(-6.7060834e-05 0 -0.00036871283)
(-5.8590016e-05 0 -0.00038628779)
(-5.0165994e-05 0 -0.00039526239)
(-4.2096547e-05 0 -0.00039365117)
(-3.395466e-05 0 -0.00038272686)
(-2.6290379e-05 0 -0.00036331334)
(-1.8708974e-05 0 -0.00033371632)
(-1.1978331e-05 0 -0.00029877425)
(-5.0620909e-06 0 -0.00024935303)
(1.4609509e-07 0 -0.00020243805)
(6.4465831e-06 0 -0.00012741866)
(1.1591467e-05 0 -4.9886222e-05)
(1.3403157e-05 0 1.0336199e-05)
(1.2736559e-05 0 5.4420655e-05)
(1.0122615e-05 0 0.00012651238)
(-0.00019300825 0 7.7573998e-05)
(-0.0001930004 0 7.7708155e-05)
(-0.00019298841 0 7.7868858e-05)
(-0.00019297026 0 7.8067653e-05)
(-0.00019294373 0 7.831524e-05)
(-0.00019290573 0 7.8615437e-05)
(-0.00019285256 0 7.8975269e-05)
(-0.00019277864 0 7.9397022e-05)
(-0.00019267728 0 7.988693e-05)
(-0.00019253853 0 8.044509e-05)
(-0.0001923503 0 8.1074163e-05)
(-0.00019209533 0 8.1770236e-05)
(-0.00019175209 0 8.2526063e-05)
(-0.00019129172 0 8.3324509e-05)
(-0.00019067766 0 8.4129749e-05)
(-0.00018986371 0 8.4895737e-05)
(-0.00018879505 0 8.5511416e-05)
(-0.000187403 0 8.5853174e-05)
(-0.00018561116 0 8.5642754e-05)
(-0.00018332558 0 8.4564685e-05)
(-0.00018044333 0 8.2173698e-05)
(-0.0001768634 0 7.7879713e-05)
(-0.00017250063 0 7.0937024e-05)
(-0.0001672992 0 6.0431097e-05)
(-0.00016123814 0 4.5522171e-05)
(-0.00015435815 0 2.5331458e-05)
(-0.00014675837 0 -6.6940828e-07)
(-0.00013858387 0 -3.2465807e-05)
(-0.00012998502 0 -6.9526862e-05)
(-0.00012106574 0 -0.00011100925)
(-0.00011189885 0 -0.00015587114)
(-0.00010262463 0 -0.0002022011)
(-9.3382184e-05 0 -0.00024722213)
(-8.4257599e-05 0 -0.0002889239)
(-7.5417125e-05 0 -0.00032435371)
(-6.6810773e-05 0 -0.00035259986)
(-5.844397e-05 0 -0.00037189897)
(-5.0131885e-05 0 -0.00038263078)
(-4.2144744e-05 0 -0.00038286848)
(-3.4110056e-05 0 -0.0003737967)
(-2.6509748e-05 0 -0.00035602915)
(-1.9015332e-05 0 -0.00032823524)
(-1.2301443e-05 0 -0.00029446614)
(-5.4867675e-06 0 -0.00024708796)
(-2.18581e-07 0 -0.000200565)
(5.9436135e-06 0 -0.00012831802)
(1.0989039e-05 0 -5.3028346e-05)
(1.2901581e-05 0 6.8240653e-06)
(1.2306461e-05 0 5.1063808e-05)
(9.4875013e-06 0 0.00011594979)
(-0.00019202765 0 0.00010026456)
(-0.00019201639 0 0.00010045745)
(-0.00019200052 0 0.00010068233)
(-0.00019197843 0 0.00010094095)
(-0.00019194828 0 0.00010123312)
(-0.00019190655 0 0.00010157055)
(-0.00019184951 0 0.00010195823)
(-0.00019177093 0 0.00010240963)
(-0.00019166394 0 0.00010293051)
(-0.00019151782 0 0.00010353258)
(-0.00019132011 0 0.0001042195)
(-0.00019105286 0 0.00010499373)
(-0.00019069394 0 0.00010584898)
(-0.00019021392 0 0.00010676739)
(-0.00018957517 0 0.00010771898)
(-0.00018873146 0 0.00010863894)
(-0.00018762577 0 0.00010945206)
(-0.00018619471 0 0.00010994784)
(-0.00018435786 0 0.00010988687)
(-0.0001820177 0 0.00010896725)
(-0.00017907441 0 0.00010672742)
(-0.00017542977 0 0.00010258064)
(-0.00017100801 0 9.5707857e-05)
(-0.00016575438 0 8.519434e-05)
(-0.00015966324 0 7.0152328e-05)
(-0.00015278008 0 4.9703533e-05)
(-0.00014521899 0 2.3377602e-05)
(-0.00013711725 0 -8.8063831e-06)
(-0.0001286303 0 -4.6295984e-05)
(-0.0001198517 0 -8.8324995e-05)
(-0.000110847 0 -0.0001338669)
(-0.00010174181 0 -0.00018104876)
(-9.2669085e-05 0 -0.00022708997)
(-8.3701334e-05 0 -0.00027002113)
(-7.4998605e-05 0 -0.00030688142)
(-6.6509556e-05 0 -0.00033672424)
(-5.8253629e-05 0 -0.0003576613)
(-5.0055726e-05 0 -0.00037008253)
(-4.2157548e-05 0 -0.00037209733)
(-3.4230183e-05 0 -0.00036481908)
(-2.6700706e-05 0 -0.00034867429)
(-1.9293296e-05 0 -0.00032262705)
(-1.2605789e-05 0 -0.00029007095)
(-5.8879656e-06 0 -0.00024463921)
(-5.7602194e-07 0 -0.00019864546)
(5.4570906e-06 0 -0.00012901996)
(1.0404141e-05 0 -5.5929212e-05)
(1.2402537e-05 0 3.4252839e-06)
(1.1875961e-05 0 4.7693302e-05)
(8.8904674e-06 0 0.00010614343)
(-0.00019096979 0 0.00012242099)
(-0.00019095863 0 0.00012259389)
(-0.00019094238 0 0.00012280374)
(-0.00019091893 0 0.00012306092)
(-0.00019088581 0 0.00012337666)
(-0.00019083975 0 0.00012375528)
(-0.00019077676 0 0.0001242048)
(-0.00019069087 0 0.00012472975)
(-0.0001905749 0 0.00012533778)
(-0.00019041827 0 0.00012603282)
(-0.00019020803 0 0.00012682024)
(-0.00018992602 0 0.00012770014)
(-0.00018954905 0 0.00012867007)
(-0.00018904738 0 0.00012971581)
(-0.00018838134 0 0.00013080949)
(-0.00018750487 0 0.00013190094)
(-0.00018636409 0 0.00013285268)
(-0.00018489261 0 0.00013349036)
(-0.00018300434 0 0.00013360072)
(-0.0001806049 0 0.00013284592)
(-0.00017759619 0 0.00013075412)
(-0.00017388491 0 0.00012670443)
(-0.0001693993 0 0.0001198902)
(-0.00016408915 0 0.00010941151)
(-0.00015796921 0 9.4214998e-05)
(-0.00015108704 0 7.3489479e-05)
(-0.00014356861 0 4.6827889e-05)
(-0.00013554582 0 1.4251946e-05)
(-0.00012717661 0 -2.3670827e-05)
(-0.0001185457 0 -6.6230704e-05)
(-0.00010970951 0 -0.00011242312)
(-0.00010078071 0 -0.00016040181)
(-9.1883599e-05 0 -0.00020740208)
(-8.3079686e-05 0 -0.00025148048)
(-7.4521306e-05 0 -0.00028968817)
(-6.6157213e-05 0 -0.00032103689)
(-5.8017215e-05 0 -0.00034354464)
(-4.99368e-05 0 -0.00035759182)
(-4.2132893e-05 0 -0.00036132029)
(-3.4314492e-05 0 -0.00035578077)
(-2.6861175e-05 0 -0.0003412294)
(-1.9542441e-05 0 -0.00031688502)
(-1.2889909e-05 0 -0.00028556981)
(-6.2653831e-06 0 -0.00024200159)
(-9.2532869e-07 0 -0.00019666211)
(4.9861938e-06 0 -0.00012952796)
(9.8370466e-06 0 -5.8608398e-05)
(1.1907697e-05 0 1.2815555e-07)
(1.14467e-05 0 4.4300098e-05)
(8.3305525e-06 0 9.7026487e-05)
(-0.00018983288 0 0.0001441363)
(-0.00018981764 0 0.00014436639)
(-0.00018979672 0 0.00014463954)
(-0.00018976845 0 0.00014495638)
(-0.00018973082 0 0.00014531832)
(-0.00018968008 0 0.00014573622)
(-0.00018961228 0 0.00014621615)
(-0.0001895206 0 0.00014677268)
(-0.00018939791 0 0.00014741294)
(-0.0001892323 0 0.00014815198)
(-0.00018901113 0 0.00014899474)
(-0.00018871412 0 0.0001499508)
(-0.00018831921 0 0.00015101526)
(-0.00018779315 0 0.00015218081)
(-0.0001870987 0 0.00015341496)
(-0.00018618988 0 0.00015464152)
(-0.00018501314 0 0.0001557249)
(-0.00018349519 0 0.00015652632)
(-0.00018155184 0 0.00015680099)
(-0.00017908962 0 0.00015619948)
(-0.00017601228 0 0.00015423653)
(-0.00017223122 0 0.0001502662)
(-0.00016767944 0 0.00014347423)
(-0.00016231586 0 0.00013295476)
(-0.00015616771 0 0.00011762933)
(-0.00014929029 0 9.6591652e-05)
(-0.00014181956 0 6.9576524e-05)
(-0.00013388279 0 3.6608244e-05)
(-0.00012563714 0 -1.7385465e-06)
(-0.00011715933 0 -4.481433e-05)
(-0.00010849787 0 -9.1621088e-05)
(-9.97504e-05 0 -0.00014034853)
(-9.1034623e-05 0 -0.00018823712)
(-8.2398984e-05 0 -0.00023338799)
(-7.3990731e-05 0 -0.00027285219)
(-6.5756815e-05 0 -0.00030562125)
(-5.7738542e-05 0 -0.00032961437)
(-4.9778038e-05 0 -0.00034521774)
(-4.2073817e-05 0 -0.00035058879)
(-3.4365204e-05 0 -0.00034672774)
(-2.6993626e-05 0 -0.000333739)
(-1.9764395e-05 0 -0.00031104491)
(-1.3154695e-05 0 -0.00028099224)
(-6.6208835e-06 0 -0.00023921097)
(-1.2656057e-06 0 -0.00019462523)
(4.5306301e-06 0 -0.00012986412)
(9.2864602e-06 0 -6.1066632e-05)
(1.1416904e-05 0 -3.0501613e-06)
(1.1018653e-05 0 4.0922979e-05)
(7.8040242e-06 0 8.8571364e-05)
(-0.00018862302 0 0.00016534756)
(-0.00018860683 0 0.00016557402)
(-0.00018858451 0 0.00016584502)
(-0.00018855413 0 0.00016616778)
(-0.00018851297 0 0.00016654993)
(-0.00018845771 0 0.00016700044)
(-0.00018838342 0 0.00016752869)
(-0.00018828431 0 0.00016814347)
(-0.00018815151 0 0.00016885631)
(-0.00018797469 0 0.00016967584)
(-0.00018773853 0 0.00017061259)
(-0.00018742471 0 0.00017167049)
(-0.00018700761 0 0.00017285281)
(-0.0001864558 0 0.00017414804)
(-0.00018573118 0 0.00017552061)
(-0.00018479025 0 0.00017686626)
(-0.00018357181 0 0.00017810471)
(-0.00018200394 0 0.00017906488)
(-0.00018000162 0 0.0001795009)
(-0.00017747197 0 0.00017905286)
(-0.00017432137 0 0.0001772178)
(-0.00017046651 0 0.00017332126)
(-0.00016584634 0 0.00016653154)
(-0.00016043105 0 0.0001559041)
(-0.00015425575 0 0.00014042443)
(-0.00014738582 0 0.00011910739)
(-0.00013996738 0 9.1726256e-05)
(-0.00013212319 0 5.8359351e-05)
(-0.00012400762 0 1.9583434e-05)
(-0.00011568995 0 -2.3994919e-05)
(-0.00010720898 0 -7.138821e-05)
(-9.8649155e-05 0 -0.00012081409)
(-9.0119677e-05 0 -0.00016953529)
(-8.1658064e-05 0 -0.00021568187)
(-7.3405436e-05 0 -0.00025632467)
(-6.5308087e-05 0 -0.00029042751)
(-5.74159e-05 0 -0.00031583844)
(-4.9578492e-05 0 -0.00033293261)
(-4.1978369e-05 0 -0.00033988297)
(-3.4381537e-05 0 -0.00033764417)
(-2.7096133e-05 0 -0.00032618299)
(-1.9958508e-05 0 -0.00030509702)
(-1.3398746e-05 0 -0.00027631946)
(-6.9539741e-06 0 -0.00023625938)
(-1.5960794e-06 0 -0.00019251857)
(4.0897969e-06 0 -0.00013002885)
(8.7525983e-06 0 -6.3324268e-05)
(1.0931717e-05 0 -6.121684e-06)
(1.0593299e-05 0 3.7548713e-05)
(7.3101606e-06 0 8.0717709e-05)
(-0.0001873406 0 0.00018610676)
(-0.00018732226 0 0.00018634835)
(-0.00018729733 0 0.00018663669)
(-0.00018726378 0 0.00018697924)
(-0.00018721867 0 0.00018738556)
(-0.00018715854 0 0.00018786495)
(-0.00018707813 0 0.00018842904)
(-0.00018697131 0 0.00018908922)
(-0.00018682889 0 0.0001898579)
(-0.00018663999 0 0.00019074598)
(-0.00018638892 0 0.00019176402)
(-0.00018605641 0 0.00019291911)
(-0.00018561644 0 0.00019421216)
(-0.00018503718 0 0.00019563683)
(-0.00018428307 0 0.00019712181)
(-0.00018330438 0 0.00019861816)
(-0.0001820414 0 0.00020000511)
(-0.00018041994 0 0.00020112201)
(-0.00017835488 0 0.00020171146)
(-0.00017575436 0 0.00020140299)
(-0.00017252734 0 0.00019967751)
(-0.00016859706 0 0.00019582854)
(-0.00016390787 0 0.00018900614)
(-0.00015844243 0 0.00017824423)
(-0.00015224598 0 0.00016252196)
(-0.00014538565 0 0.00014094445)
(-0.00013802513 0 0.00011318001)
(-0.00013028145 0 7.9417492e-05)
(-0.00012230215 0 4.0215427e-05)
(-0.00011415003 0 -3.8509334e-06)
(-0.00010585496 0 -5.1798045e-05)
(-9.7486927e-05 0 -0.00010187747)
(-8.914819e-05 0 -0.00015136797)
(-8.0866397e-05 0 -0.00019848658)
(-7.2773474e-05 0 -0.00024022244)
(-6.4816487e-05 0 -0.00027557181)
(-5.7053557e-05 0 -0.00030227893)
(-4.9341576e-05 0 -0.0003207934)
(-4.1849908e-05 0 -0.00032925326)
(-3.436606e-05 0 -0.00032857611)
(-2.717137e-05 0 -0.00031860594)
(-2.012667e-05 0 -0.00029907825)
(-1.3623219e-05 0 -0.00027158267)
(-7.2664244e-06 0 -0.00023318165)
(-1.916181e-06 0 -0.00019035558)
(3.663494e-06 0 -0.00013004328)
(8.2343821e-06 0 -6.5379719e-05)
(1.0451864e-05 0 -9.0708253e-06)
(1.0170626e-05 0 3.4216049e-05)
(6.8455469e-06 0 7.3442838e-05)
(-0.000185988 0 0.0002064136)
(-0.00018596721 0 0.00020667228)
(-0.00018593928 0 0.00020698096)
(-0.00018590206 0 0.00020734728)
(-0.00018585245 0 0.00020778159)
(-0.00018578681 0 0.00020829396)
(-0.00018569962 0 0.00020889726)
(-0.00018558449 0 0.00020960296)
(-0.00018543179 0 0.0002104258)
(-0.00018523016 0 0.00021137827)
(-0.00018496325 0 0.00021247331)
(-0.0001846111 0 0.00021371948)
(-0.00018414679 0 0.00021512152)
(-0.00018353998 0 0.0002166532)
(-0.00018275249 0 0.00021827294)
(-0.00018173477 0 0.00021989871)
(-0.00018042349 0 0.00022143615)
(-0.00017874474 0 0.00022270429)
(-0.00017661258 0 0.00022344552)
(-0.00017393612 0 0.00022327671)
(-0.00017062836 0 0.00022166141)
(-0.00016661949 0 0.0002178442)
(-0.00016186007 0 0.00021096891)
(-0.00015634464 0 0.00020005116)
(-0.00015012949 0 0.00018405322)
(-0.00014328363 0 0.000162199)
(-0.00013598901 0 0.00013403198)
(-0.00012835222 0 9.9866197e-05)
(-0.00012051642 0 6.0234191e-05)
(-0.00011253657 0 1.5693746e-05)
(-0.00010443263 0 -3.2781174e-05)
(-9.6265434e-05 0 -8.3524084e-05)
(-8.8121741e-05 0 -0.00013373618)
(-8.002377e-05 0 -0.00018175492)
(-7.2093777e-05 0 -0.00022450678)
(-6.4281407e-05 0 -0.00026101382)
(-5.6650789e-05 0 -0.00028894081)
(-4.9066114e-05 0 -0.00030877142)
(-4.1686552e-05 0 -0.00031867783)
(-3.4317767e-05 0 -0.00031950546)
(-2.7217516e-05 0 -0.0003109871)
(-2.0268008e-05 0 -0.00029297613)
(-1.3826785e-05 0 -0.00026676307)
(-7.5575895e-06 0 -0.00022996729)
(-2.2252596e-06 0 -0.00018812086)
(3.2512874e-06 0 -0.00012990519)
(7.7319558e-06 0 -6.7253823e-05)
(9.9787558e-06 0 -1.1910116e-05)
(9.7519486e-06 0 3.0908526e-05)
(6.4096064e-06 0 6.669115e-05)
(-0.00018456729 0 0.00022627663)
(-0.0001845439 0 0.0002265518)
(-0.00018451279 0 0.00022688013)
(-0.00018447165 0 0.00022726985)
(-0.00018441722 0 0.00022773218)
(-0.00018434566 0 0.00022827761)
(-0.00018425117 0 0.00022892015)
(-0.000184127 0 0.00022967298)
(-0.00018396313 0 0.00023055164)
(-0.00018374769 0 0.00023156985)
(-0.00018346373 0 0.00023274182)
(-0.00018309036 0 0.00023407854)
(-0.00018260077 0 0.00023558618)
(-0.00018196499 0 0.00023722845)
(-0.00018114311 0 0.00023896122)
(-0.00018008187 0 0.00024073089)
(-0.00017871946 0 0.0002424083)
(-0.00017697943 0 0.00024382396)
(-0.00017477605 0 0.00024470941)
(-0.00017202012 0 0.0002446648)
(-0.0001686335 0 0.00024308792)
(-0.00016454632 0 0.00023926378)
(-0.00015971693 0 0.0002323014)
(-0.00015415432 0 0.00022120232)
(-0.00014791999 0 0.00020493365)
(-0.00014110039 0 0.00018273446)
(-0.00013387453 0 0.00015418741)
(-0.00012635106 0 0.00011962758)
(-0.00011866513 0 7.9570109e-05)
(-0.00011086266 0 3.4568526e-05)
(-0.00010296048 0 -1.4469821e-05)
(-9.4997626e-05 0 -6.5844619e-05)
(-8.7050798e-05 0 -0.000116722)
(-7.9135712e-05 0 -0.00016552612)
(-7.137121e-05 0 -0.00020920834)
(-6.3706336e-05 0 -0.00024679078)
(-5.6212346e-05 0 -0.00027588623)
(-4.8756568e-05 0 -0.00029695406)
(-4.1491891e-05 0 -0.00030820592)
(-3.4239488e-05 0 -0.00031047788)
(-2.7237387e-05 0 -0.00030337069)
(-2.0384606e-05 0 -0.0002868282)
(-1.4010847e-05 0 -0.00026189315)
(-7.8292216e-06 0 -0.00022665063)
(-2.5230305e-06 0 -0.00018583058)
(2.8530034e-06 0 -0.00012963553)
(7.2444599e-06 0 -6.8942969e-05)
(9.5120766e-06 0 -1.4625068e-05)
(9.3372686e-06 0 2.7664178e-05)
(5.9992678e-06 0 6.0445059e-05)
(-0.00018308047 0 0.00024570536)
(-0.00018305424 0 0.00024599776)
(-0.00018301962 0 0.00024634667)
(-0.0001829742 0 0.00024676078)
(-0.00018291453 0 0.0002472519)
(-0.00018283654 0 0.00024783147)
(-0.00018273415 0 0.00024851438)
(-0.00018260033 0 0.00024931399)
(-0.00018242457 0 0.00025024764)
(-0.00018219448 0 0.00025133023)
(-0.0001818924 0 0.00025257774)
(-0.00018149671 0 0.0002540013)
(-0.00018098078 0 0.00025560725)
(-0.0001803145 0 0.00025735618)
(-0.00017945434 0 0.00025921833)
(-0.00017834846 0 0.00026110939)
(-0.00017693074 0 0.0002629287)
(-0.00017512543 0 0.0002644864)
(-0.00017284562 0 0.00026551686)
(-0.00017001149 0 0.00026555002)
(-0.00016654406 0 0.00026398928)
(-0.00016237447 0 0.00026013588)
(-0.00015747405 0 0.00025306627)
(-0.00015186451 0 0.00024176149)
(-0.00014561147 0 0.00022524338)
(-0.00013882915 0 0.00020263721)
(-0.00013167502 0 0.00017373601)
(-0.00012427244 0 0.00013877764)
(-0.00011674372 0 9.8294491e-05)
(-0.00010913324 0 5.2767961e-05)
(-0.00010143792 0 3.1784756e-06)