/*--------------------------------*- C++ -*----------------------------------*\
  =========                 |
  \\      /  F ield         | OpenFOAM: The Open Source CFD Toolbox
   \\    /   O peration     | Website:  https://openfoam.org
    \\  /    A nd           | Version:  8
     \\/     M anipulation  |
\*---------------------------------------------------------------------------*/
FoamFile
{
    version     2.0;
    format      ascii;
    class       volScalarField;
    location    "0.219989";
    object      Ma;
}
// * * * * * * * * * * * * * * * * * * * * * * * * * * * * * * * * * * * * * //

dimensions      [0 0 0 0 0 0 0];

internalField   nonuniform List<scalar> 
20000
(
0.58243413
0.69245884
0.7666373
0.8320896
0.89386536
0.94059595
0.94111088
0.94584039
0.94108195
0.94281604
0.93965634
0.93966708
0.93694835
0.93560105
0.93275344
0.9301891
0.92664358
0.92274985
0.91801234
0.91253652
0.90617299
0.89885217
0.89053793
0.88104622
0.87016387
0.85805075
0.84510114
0.83172952
0.81836858
0.80552018
0.79368472
0.78322248
0.77434287
0.7670891
0.76139185
0.75709922
0.75406377
0.75201075
0.75053776
0.7496773
0.74938375
0.74949119
0.74981752
0.75049282
0.75140222
0.75206804
0.75295732
0.75471879
0.75580159
0.7575609
0.5896448
0.70026627
0.7749145
0.84056348
0.90234346
0.94582428
0.94423015
0.9490055
0.9442081
0.94593896
0.94273305
0.94271627
0.9399491
0.93853927
0.93563067
0.93296968
0.92932919
0.92529932
0.9204277
0.91479964
0.9082834
0.9007623
0.89211256
0.88201233
0.8705729
0.8582065
0.8450511
0.83144666
0.81787837
0.80491696
0.79305898
0.78264591
0.7738563
0.76670563
0.76110008
0.75688578
0.75391137
0.75185223
0.75034454
0.74955486
0.74930315
0.7494279
0.74974181
0.75047372
0.75140003
0.75209015
0.75319237
0.75506231
0.75630789
0.75736262
0.59702086
0.70824362
0.78338417
0.84924756
0.91082447
0.95062366
0.94724198
0.95203832
0.94716387
0.9488945
0.94562672
0.94557536
0.94275545
0.94127486
0.93830133
0.93553453
0.93179601
0.92763088
0.9226343
0.91685347
0.91015342
0.90233008
0.89320068
0.8826121
0.87081697
0.85813777
0.84466747
0.83077218
0.81701753
0.80397534
0.79213553
0.781815
0.77315836
0.76615032
0.76067355
0.75657387
0.75368586
0.75161774
0.75015954
0.74944878
0.7492361
0.74936529
0.74967756
0.75045404
0.75138629
0.75211281
0.75332173
0.75508602
0.75628793
0.75731468
0.60411964
0.71592558
0.79153924
0.85761957
0.9186764
0.95478163
0.94998196
0.95481706
0.94988114
0.95161116
0.94828919
0.94820075
0.94532943
0.94377308
0.94073196
0.93785666
0.93402534
0.92973627
0.92461847
0.91865341
0.91167819
0.90340751
0.89377218
0.88282113
0.87077942
0.85775955
0.84393586
0.82977326
0.81585851
0.8027749
0.79099683
0.78081134
0.77232612
0.76549293
0.76017213
0.75620992
0.75342056
0.75135123
0.74996192
0.74933564
0.74916573
0.74929893
0.74961856
0.75042056
0.75135407
0.75213589
0.75343126
0.755237
0.75644815
0.75727386
0.61107875
0.72344439
0.79954578
0.86588764
0.9259997
0.95841256
0.9525165
0.95737732
0.95237288
0.95409501
0.95071477
0.95058105
0.94765629
0.94601741
0.94290745
0.93992321
0.93600387
0.93158802
0.92631369
0.92007752
0.9126895
0.90395737
0.89398939
0.88279572
0.87043547
0.85699806
0.84282819
0.82841329
0.81437331
0.80129168
0.78962219
0.77961671
0.77134313
0.76471876
0.75958342
0.75578327
0.75310507
0.75105354
0.74975381
0.74920355
0.74909657
0.74923158
0.74957145
0.7503742
0.75130689
0.75213964
0.75351233
0.75540179
0.75659061
0.75724203
0.61779839
0.73070526
0.80730239
0.87399798
0.93266864
0.96153048
0.95479088
0.95967478
0.95460325
0.95631375
0.95287643
0.95269119
0.94971367
0.94798838
0.94481192
0.94171822
0.93769952
0.93311312
0.92759088
0.92097796
0.91318787
0.90416381
0.89396013
0.88244696
0.86967665
0.85584297
0.84133754
0.82670007
0.81257433
0.79954193
0.78802944
0.77824883
0.77022557
0.7638419
0.75891918
0.7553014
0.75274189
0.75073409
0.74953071
0.74906462
0.74902155
0.74916508
0.74953123
0.75032157
0.75125221
0.75213675
0.75362298
0.75560249
0.75674799
0.75718465
0.62429397
0.73769677
0.81478471
0.88195786
0.93862248
0.96417883
0.95680063
0.96170341
0.95656271
0.95825686
0.95476122
0.95451533
0.95148687
0.9496702
0.94642534
0.94320489
0.93903791
0.93418561
0.92834138
0.92138989
0.91336967
0.90412324
0.89361285
0.88169252
0.8685098
0.85427749
0.83945636
0.82462934
0.81046323
0.7975309
0.78622554
0.77671476
0.76897961
0.76286742
0.75818364
0.75476602
0.75232857
0.75039696
0.74930426
0.74892024
0.74893754
0.74909909
0.74949855
0.75028311
0.75119546
0.75213829
0.75376271
0.75578394
0.7568699
0.75715766
0.63051294
0.74436924
0.82193627
0.88974196
0.94379807
0.96638534
0.95850763
0.96343394
0.95821933
0.95989853
0.95634257
0.95602061
0.95295445
0.95103348
0.94769832
0.94429741
0.93991017
0.93476371
0.92866489
0.9215269
0.91330626
0.90376571
0.89286183
0.88052459
0.86691418
0.85229588
0.83718343
0.82220716
0.8080508
0.7952722
0.78422483
0.77502804
0.76761695
0.7618052
0.75738494
0.75418215
0.75186595
0.75004696
0.74908055
0.74877051
0.74884279
0.74903188
0.74947712
0.7502594
0.75113811
0.75214191
0.75391169
0.75593861
0.75693123
0.75720817
0.63643961
0.7507047
0.82871208
0.89732244
0.94816196
0.9681688
0.95986131
0.96483873
0.95952546
0.96120954
0.95757605
0.95714236
0.95408024
0.95202315
0.94854964
0.94492877
0.94033726
0.93499705
0.92875444
0.92142219
0.91292341
0.90301249
0.89170175
0.87892618
0.86488653
0.84989401
0.83452092
0.81944098
0.80534903
0.79278007
0.78204179
0.77320192
0.76614884
0.76066459
0.75653065
0.75355478
0.75135813
0.74968622
0.74883456
0.7486159
0.7487373
0.74896309
0.74946768
0.75024317
0.75107888
0.75215323
0.75407035
0.75605754
0.75697789
0.75718898
0.64202409
0.75668988
0.83507716
0.90466062
0.95169901
0.9695481
0.96083292
0.96590378
0.96045172
0.9621611
0.95842724
0.95795772
0.95481555
0.95259998
0.94898999
0.94519643
0.94049929
0.93501961
0.9286039
0.92099411
0.91215573
0.90185703
0.89011393
0.8768901
0.8624206
0.84707262
0.83147551
0.81634325
0.80237409
0.79007214
0.77969357
0.77125173
0.76458819
0.75945634
0.75562903
0.75288934
0.75081368
0.74931434
0.7485988
0.74845447
0.74862121
0.74889431
0.74945736
0.75022565
0.75101351
0.75218048
0.75423951
0.75614862
0.75702136
0.75708237
0.64730682
0.76236102
0.84107226
0.91175212
0.95447969
0.97058433
0.96163907
0.96666495
0.96119428
0.96277567
0.9590793
0.9584919
0.9551973
0.95285186
0.94917173
0.9452624
0.9404553
0.9347892
0.92811784
0.92019409
0.91099444
0.90028216
0.88809151
0.87440981
0.85951583
0.84383594
0.82805763
0.81292952
0.79914456
0.78716772
0.77719844
0.76919357
0.7629485
0.75819165
0.754688
0.7521899
0.75024283
0.7489346
0.74835699
0.74828648
0.74849563
0.7488247
0.74944369
0.75021092
0.75093849
0.75223297
0.75441809
0.75622922
0.75705506
0.75683411
0.65234337
0.76778232
0.84677175
0.91859027
0.95661582
0.97135111
0.96222018
0.96716533
0.96169685
0.96321035
0.95945803
0.95877255
0.95536141
0.9529184
0.94917077
0.94511734
0.94013688
0.93421829
0.92727108
0.91900959
0.90942403
0.89828046
0.88562671
0.87148237
0.8561738
0.84019213
0.82428168
0.80921891
0.79568181
0.78408824
0.77457625
0.7670446
0.7612441
0.75688235
0.75371513
0.75145842
0.74965641
0.74855152
0.74811501
0.74811322
0.74836166
0.74875112
0.74943109
0.75020401
0.75089138
0.75231917
0.75460022
0.75629568
0.75706274
0.75664683
0.65715909
0.77298035
0.85223183
0.92508042
0.95815879
0.97187823
0.96259943
0.96754724
0.96198243
0.96349473
0.95962395
0.95887871
0.95535876
0.95278956
0.9489264
0.94466739
0.93948129
0.9332968
0.92604723
0.91742829
0.90743755
0.89584479
0.88271606
0.8681075
0.85239988
0.83615282
0.8201653
0.80523313
0.79200914
0.78085653
0.77184775
0.76482248
0.75948967
0.75554033
0.75271737
0.75069519
0.74906634
0.74816868
0.74787042
0.74793836
0.74821985
0.74866725
0.74942612
0.7502109
0.7508958
0.75244633
0.75477699
0.75635343
0.75704433
0.7565324
0.66173173
0.77796549
0.85748341
0.93098226
0.95917215
0.97218643
0.96272449
0.96755516
0.96201569
0.96334584
0.95955107
0.95867879
0.95511676
0.95236734
0.94835863
0.9438833
0.93847554
0.9320067
0.92443793
0.91544341
0.90502857
0.89297123
0.87935776
0.86428769
0.84820251
0.83173326
0.81572951
0.80099667
0.78815214
0.7774972
0.76903472
0.7625452
0.75769991
0.75417709
0.75170102
0.74990218
0.74848348
0.7477894
0.74762396
0.7477641
0.74807331
0.74858321
0.74942689
0.75022841
0.75096451
0.75262347
0.75495311
0.75642965
0.75702336
0.7564922
0.66611172
0.78278923
0.8626315
0.93657435
0.9597492
0.97221807
0.96258174
0.96745712
0.96177008
0.96311798
0.95916369
0.95806237
0.95454485
0.95161147
0.94745282
0.94275094
0.9371092
0.93034371
0.92243789
0.91305069
0.90219416
0.8896579
0.8755526
0.86002811
0.84359308
0.82695163
0.8109979
0.79653617
0.78413822
0.77403614
0.76615931
0.76023046
0.75588899
0.75280304
0.75067152
0.7490893
0.74791363
0.7474171
0.74737688
0.74758721
0.74792873
0.74851749
0.74942784
0.75023642
0.75104787
0.75286009
0.75516546
0.7565294
0.75701871
0.75645634
0.67019896
0.78732336
0.86755025
0.94164157
0.95985054
0.97174134
0.96211019
0.96700304
0.96122727
0.96250969
0.95845854
0.95727374
0.95363595
0.95051992
0.94620629
0.94127033
0.93538131
0.92830496
0.92004502
0.91024814
0.89893274
0.88590466
0.87130321
0.85533647
0.83858608
0.82182933
0.80599705
0.79188097
0.77999711
0.77050042
0.7632435
0.7578953
0.75407036
0.7514271
0.74963313
0.74827279
0.74735973
0.74705488
0.74712967
0.747402
0.74779093
0.74846631
0.74942455
0.75023537
0.75116314
0.75315976
0.75542828
0.75664688
0.75702044
0.75641128
0.67392605
0.79151259
0.87220726
0.94610726
0.95948945
0.97102479
0.96136859
0.96622486
0.96042679
0.96156566
0.95749224
0.95612947
0.95241101
0.9491035
0.94462462
0.93944299
0.93329213
0.92589074
0.91725905
0.90703541
0.89524441
0.88171271
0.86661399
0.8502225
0.83319844
0.81639004
0.80075569
0.78706257
0.77575983
0.76691645
0.7603077
0.75555566
0.75225664
0.75005676
0.74858954
0.747469
0.746826
0.74670317
0.74687906
0.74720939
0.7476594
0.74841628
0.74941669
0.75025619
0.7513481
0.75350027
0.75568359
0.75674925
0.75701488
0.75634662
0.67733792
0.79539925
0.87664553
0.94995393
0.95874708
0.97012022
0.96037931
0.96517238
0.95931869
0.96034654
0.95621641
0.95469719
0.95087698
0.94736598
0.94270995
0.93727151
0.93084361
0.9231023
0.91408086
0.90341296
0.89112982
0.87708425
0.8614909
0.84469847
0.82745004
0.81066065
0.79530587
0.78211528
0.77145776
0.7633084
0.75737002
0.75322695
0.75046035
0.74869883
0.74754661
0.74669402
0.74631479
0.74635881
0.74662177
0.74701668
0.74753394
0.74836916
0.74940374
0.75030645
0.75157441
0.75384389
0.75590617
0.75681889
0.75700544
0.75627943
0.68048095
0.79900279
0.88086998
0.95317099
0.95774567
0.96892074
0.95911251
0.96384018
0.9579346
0.95883309
0.95465565
0.95295921
0.94903443
0.94531048
0.94046584
0.93475911
0.92803853
0.91994185
0.91051187
0.89938157
0.88658999
0.87202207
0.85594111
0.83877836
0.82136292
0.80467056
0.78968216
0.77707433
0.76711932
0.75969558
0.75444592
0.75092481
0.74869437
0.74736058
0.74651638
0.7459588
0.74582463
0.74601511
0.74636249
0.74682899
0.74741913
0.74833296
0.74938487
0.75034913
0.75175776
0.75421311
0.75612674
0.7568559
0.75700148
0.75621368
0.68341586
0.80236923
0.88487479
0.95582708
0.95614296
0.96745419
0.95757425
0.96223061
0.95627207
0.9570399
0.952804
0.95092426
0.94688804
0.94294209
0.93789669
0.93190997
0.92488016
0.91641153
0.90655319
0.89494167
0.88162582
0.86652964
0.84997337
0.83247891
0.81496249
0.79845307
0.78392224
0.77197408
0.76276751
0.75609312
0.7515509
0.74866655
0.74697182
0.74605071
0.74551798
0.74526476
0.74534916
0.74566914
0.7461089
0.7466502
0.74731635
0.74830728
0.74936277
0.75036835
0.75193264
0.75461146
0.75629586
0.75689327
0.75701494
0.75613133
0.68614964
0.80550595
0.88861225
0.95779658
0.95447086
0.96570996
0.95576655
0.96034092
0.95433824
0.9549613
0.95067159
0.94859841
0.94444407
0.94026671
0.93500746
0.92872814
0.92137142
0.91251286
0.90220511
0.89009295
0.87623792
0.86061073
0.84359767
0.82581876
0.80827691
0.79204424
0.77806417
0.76684318
0.75841827
0.75251636
0.74870507
0.74647049
0.74530357
0.74477936
0.74456847
0.74460534
0.74488053
0.74532851
0.74586426
0.74648339
0.74722412
0.74828887
0.74933995
0.75037991
0.75220627
0.75498034
0.75640326
0.7569326
0.75699944
0.75604382
0.68871533
0.80845306
0.89205513
0.95908735
0.95245334
0.9637075
0.95370687
0.95818874
0.95215156
0.95261318
0.94826688
0.94599019
0.9417088
0.93729001
0.93180261
0.92521707
0.91751417
0.90824598
0.89746663
0.88483419
0.87042671
0.85427004
0.83682613
0.81882009
0.80133869
0.78548352
0.7721442
0.76170211
0.75408589
0.74899072
0.74593749
0.74435187
0.74369556
0.74355694
0.74367234
0.74396973
0.74442291
0.74500031
0.74562988
0.74632932
0.74715119
0.74827383
0.7493166
0.75039797
0.75257938
0.75525722
0.75649181
0.75696055
0.75694671
0.75596835
0.69115929
0.8112534
0.89518065
0.95972399
0.95020702
0.96146051
0.9514077
0.95578368
0.94971609
0.95000137
0.94559626
0.94310524
0.93868738
0.93401673
0.92828579
0.92137869
0.91330844
0.90360922
0.89233526
0.87916315
0.86419226
0.84751269
0.82967268
0.81150788
0.79418363
0.77881076
0.76619149
0.75656393
0.74979451
0.74555572
0.74327634
0.74231906
0.74215026
0.74238976
0.74282054
0.74335749
0.74398598
0.74468636
0.74540666
0.74618465
0.74710247
0.7482587
0.74929295
0.75043713
0.75297975
0.75546057
0.75657021
0.7569652
0.75687027
0.75590291
0.69351924
0.81390843
0.89794648
0.95968858
0.94772695
0.95897945
0.94887944
0.9531304
0.94703589
0.94713182
0.94266426
0.9399491
0.93538427
0.93045074
0.9244587
0.91721268
0.90875212
0.89859903
0.8868072
0.87307697
0.85753495
0.84034558
0.82215462
0.80391196
0.78685153
0.772064
0.76022626
0.75144594
0.74558946
0.74225093
0.74073699
0.74037223
0.74066637
0.74127986
0.74200998
0.74277735
0.74357073
0.74438896
0.74519567
0.74604447
0.74706621
0.7482428
0.74927366
0.75052642
0.75337752
0.75562552
0.75663212
0.75696343
0.75680302
0.75586192
0.69581195
0.81647537
0.90034193
0.95901191
0.9450339
0.95626227
0.94612685
0.95023215
0.94411505
0.94400917
0.93947608
0.93652678
0.93180281
0.92659335
0.92032028
0.91271603
0.90384074
0.89321018
0.88087734
0.86657209
0.8504551
0.83277701
0.81429214
0.79606601
0.77938291
0.76527401
0.75426148
0.74638808
0.74152354
0.7391011
0.73831534
0.73850411
0.73925026
0.74023068
0.74124675
0.74222988
0.74317912
0.74410946
0.74499898
0.74591064
0.74703342
0.74822778
0.74926861
0.75070042
0.75374761
0.75576918
0.75666884
0.75694381
0.75674875
0.75586806
0.6979718
0.81895038
0.90229822
0.957706
0.94212875
0.95331146
0.94314647
0.94709762
0.94095934
0.94064051
0.93603609
0.93284125
0.92794287
0.92244228
0.9158663
0.90788324
0.89856813
0.88743604
0.87453979
0.85964468
0.84295421
0.82481824
0.80611054
0.78800834
0.77181741
0.75846299
0.7483175
0.7414543
0.7376388
0.73610867
0.73599177
0.73672306
0.73791471
0.73924464
0.74053152
0.74171715
0.74281203
0.74384859
0.7448188
0.7457948
0.74700456
0.74821584
0.74928945
0.75098264
0.75407336
0.7558942
0.75669569
0.75689755
0.75667443
0.7558137
0.70003972
0.82139218
0.90379308
0.95583697
0.93903314
0.95014313
0.93995286
0.94373169
0.93757501
0.93702859
0.93234478
0.92889027
0.92379984
0.91799175
0.91109028
0.90270724
0.8929268
0.88126891
0.86778773
0.85229067
0.83503465
0.81648349
0.79763929
0.77977899
0.76418867
0.75164605
0.74244487
0.73670446
0.7339577
0.73324669
0.73377129
0.73504494
0.73666128
0.73832384
0.73986581
0.74123987
0.74247037
0.7436063
0.74465517
0.74571349
0.7469848
0.74820871
0.74934423
0.75136244
0.75436119
0.7560203
0.75671645
0.75683585
0.75656654
0.75570391
0.70200691
0.82381177
0.90477341
0.95344419
0.93573622
0.94675497
0.93654476
0.94013588
0.93395976
0.93317051
0.92839614
0.92466703
0.91936596
0.91323447
0.90598474
0.89718
0.88690816
0.87470012
0.86061386
0.84450647
0.82670143
0.80779201
0.78891361
0.77141868
0.75652328
0.7448457
0.73672153
0.73218145
0.73046372
0.73050373
0.73167699
0.73347166
0.73549295
0.73746942
0.73925011
0.7407987
0.74215476
0.74338242
0.74450478
0.74566495
0.7469752
0.74820826
0.74943586
0.75180355
0.75463095
0.75614982
0.75672928
0.75676652
0.75646179
0.75553423
0.70385581
0.82620547
0.90519331
0.95057347
0.93223679
0.94315039
0.93292257
0.93630681
0.93010613
0.92905667
0.92418036
0.92016311
0.9146336
0.90816322
0.90054198
0.89129239
0.88050242
0.86771993
0.85301016
0.83628887
0.81796199
0.79876759
0.77997168
0.76296413
0.74884026
0.73811582
0.7312165
0.72790454
0.72711789
0.72790581
0.72971455
0.7320065
0.7344105
0.73668184
0.73868451
0.74039378
0.74186562
0.74317724
0.74436392
0.7456321
0.74697507
0.74821789
0.7495674
0.75227439
0.75489043
0.75627473
0.75673152
0.75670251
0.75636931
0.755393
0.70559398
0.82858844
0.90504743
0.94723613
0.92853141
0.93931532
0.92907168
0.93222752
0.9260013
0.9246761
0.91968927
0.91537273
0.90959681
0.90277105
0.89475314
0.8850338
0.87369853
0.8603178
0.84496869
0.82763648
0.80882869
0.78944041
0.77085459
0.75444748
0.74116233
0.73154182
0.72597952
0.72384839
0.72392068
0.72547023
0.72788755
0.73065023
0.73341425
0.73596077
0.73816851
0.74002498
0.74160297
0.74299152
0.74423521
0.74560914
0.74698381
0.74824445
0.74975163
0.75275349
0.7551461
0.75636657
0.75671258
0.75662729
0.75628123
0.75531045
0.70716028
0.83089357
0.90430505
0.94344313
0.92459117
0.93522628
0.9249733
0.92788843
0.92163869
0.92002699
0.91491989
0.9102926
0.90424919
0.8970492
0.8886073
0.87839206
0.86648426
0.85248235
0.83648126
0.81854991
0.7993182
0.77984502
0.76160144
0.7458943
0.73353808
0.72520436
0.72103362
0.71996954
0.72090672
0.72320007
0.72619704
0.72940285
0.73250333
0.73530509
0.73770122
0.73969192
0.74136628
0.74282523
0.74412994
0.74559312
0.74700108
0.74829849
0.75001795
0.75322334
0.75539428
0.75641667
0.75665472
0.7565558
0.75618908
0.75525607
0.70855058
0.83303776
0.90293723
0.93934968
0.92041222
0.93088395
0.92063339
0.92329438
0.9170219
0.91511072
0.90986958
0.90491621
0.89858136
0.89098593
0.88209154
0.87135368
0.85884639
0.84420174
0.82754065
0.80903383
0.78945381
0.77002065
0.75224892
0.73732901
0.72605377
0.71916524
0.71635365
0.71627198
0.71809207
0.72109812
0.72464286
0.7282631
0.73167605
0.73471316
0.73728164
0.73939423
0.74115445
0.7426759
0.74406237
0.74558537
0.74702705
0.74839055
0.7504017
0.75365619
0.75561214
0.75643415
0.75659674
0.75648769
0.75609553
0.75519944
0.70974765
0.83503056
0.90096546
0.93530427
0.91601519
0.92630776
0.91606494
0.91845266
0.91215066
0.90992194
0.90452866
0.89923237
0.89258046
0.88456742
0.87519189
0.86390405
0.85077077
0.83546336
0.81814093
0.79909699
0.77926439
0.7600068
0.74282876
0.72878945
0.7188065
0.71346008
0.71188885
0.71279389
0.71548001
0.71916424
0.72322333
0.72722865
0.73093004
0.73418332
0.73690898
0.73913142
0.74096596
0.74253979
0.74402816
0.7455887
0.74706179
0.74852497
0.75089257
0.75404054
0.75577774
0.75642923
0.75653805
0.756416
0.75600252
0.75513758
0.71084333
0.83689433
0.89842157
0.93087416
0.91140969
0.92149797
0.91126151
0.91335074
0.90701221
0.90444664
0.89888302
0.89322768
0.88623276
0.87777935
0.8678933
0.85602753
0.84224218
0.82625478
0.80827913
0.78875502
0.76878542
0.74984335
0.73337028
0.72035434
0.7118754
0.70807444
0.70763621
0.70955505
0.71307231
0.71739697
0.72193561
0.72629646
0.73026308
0.73371462
0.73658282
0.73890249
0.74079869
0.74241786
0.74401127
0.74560284
0.74710627
0.74869938
0.75144071
0.75438162
0.7558917
0.75642051
0.75647994
0.75633968
0.75591077
0.75507027
0.71190033
0.83850115
0.89532913
0.92614157
0.90656846
0.91642515
0.90619954
0.90796895
0.90159047
0.89867223
0.89291945
0.8868895
0.87952457
0.87060658
0.86017968
0.84770721
0.83324418
0.81656382
0.79795585
0.77802947
0.75805567
0.73956762
0.72390596
0.71213164
0.70531154
0.70295545
0.70363574
0.70655848
0.71086782
0.71579303
0.72077573
0.7254633
0.72967371
0.73330686
0.7363025
0.73870491
0.74064961
0.74232188
0.74400433
0.74562705
0.74716452
0.74891654
0.75200377
0.75466956
0.75596426
0.75641183
0.75642102
0.75625261
0.75582023
0.75500491
0.71288124
0.83979476
0.89167809
0.92117696
0.90147124
0.91107532
0.90086905
0.90229917
0.89587505
0.89258969
0.88662623
0.88020489
0.87244122
0.86303247
0.85203312
0.83892424
0.82375931
0.8063799
0.78717748
0.76694929
0.74711608
0.72921666
0.71449795
0.70422071
0.69912382
0.69808529
0.69991297
0.70380587
0.70886363
0.71434785
0.71973937
0.72472666
0.72916123
0.73295917
0.73606562
0.73853393
0.74051573
0.74226519
0.74400387
0.74566104
0.74724553
0.74919757
0.75253339
0.75489964
0.75600425
0.75639971
0.75635101
0.75614788
0.75573229
0.75493887
0.71383577
0.84073287
0.8875072
0.91589653
0.89612135
0.90545093
0.89526937
0.89633569
0.88985705
0.88618815
0.87999064
0.87315914
0.86496633
0.85503813
0.84343338
0.82965774
0.81376917
0.79569494
0.77595644
0.75554848
0.73600562
0.71882524
0.70525003
0.69669575
0.69326885
0.69349456
0.6964764
0.70129502
0.70705468
0.71305576
0.71882233
0.72408462
0.72872351
0.73266667
0.73586596
0.73838311
0.74039838
0.7422413
0.74401194
0.74570438
0.74736002
0.74957195
0.7529854
0.75508115
0.75602474
0.75635631
0.75626174
0.75603534
0.75564587
0.75487557
0.714627
0.84136062
0.88289483
0.91034561
0.89051898
0.89954597
0.88939204
0.89006696
0.88352393
0.87945516
0.87299796
0.86573594
0.85708082
0.84660194
0.8343575
0.81988485
0.80325585
0.78450589
0.76431335
0.74386655
0.72476432
0.70843834
0.69628431
0.68959752
0.68770709
0.68921962
0.69332728
0.69902183
0.70543466
0.71191105
0.71802108
0.72353428
0.7283535
0.73241787
0.73569334
0.7382478
0.74030878
0.74223464
0.74403086
0.74575639
0.7475137
0.750041
0.75334911
0.7552293
0.75604604
0.75629582
0.75616295
0.75592698
0.75556136
0.75482267
0.7152175
0.84164452
0.877853
0.90450232
0.88465124
0.89334399
0.8832226
0.88348185
0.8768624
0.87237729
0.86563192
0.8579157
0.84876227
0.837699
0.82477989
0.80958118
0.7922031
0.77281561
0.75227604
0.73194441
0.71343405
0.69814373
0.68770255
0.68290736
0.68244947
0.68527794
0.6904631
0.69697969
0.70399637
0.71090848
0.71733172
0.72306832
0.72803732
0.73219864
0.73553912
0.73813142
0.74025935
0.74223708
0.74405914
0.74581787
0.7477057
0.75056428
0.75365709
0.75534685
0.75606762
0.75623311
0.75607331
0.7558246
0.7554772
0.75476459
0.71552947
0.84157012
0.8723978
0.89835711
0.87850631
0.88683101
0.87674938
0.87657086
0.8698586
0.86493831
0.85787196
0.84967437
0.83998419
0.82830098
0.81467229
0.79872164
0.7805984
0.76063511
0.73988005
0.71982546
0.70206274
0.68807272
0.67957583
0.67656899
0.67754321
0.68167098
0.68787869
0.69516072
0.70273299
0.71004338
0.71674771
0.72267267
0.72776003
0.7320067
0.73540842
0.73804967
0.74024272
0.74224605
0.74409623
0.74589295
0.7479366
0.75109836
0.75394008
0.75543557
0.75606705
0.75617009
0.75599297
0.7557267
0.7553955
0.75470568
0.71549127
0.84114046
0.86654317
0.89190497
0.87207828
0.87999862
0.86996271
0.86931864
0.86249339
0.8571157
0.84969201
0.84098319
0.83071634
0.81837664
0.80400422
0.78728188
0.76843418
0.74798348
0.72716497
0.70755556
0.69071745
0.6783545
0.67192344
0.67056687
0.6730173
0.67839671
0.68556595
0.69355619
0.70163797
0.70930908
0.71625667
0.72233049
0.72752152
0.73186574
0.73532648
0.73801215
0.7402425
0.74226442
0.74414162
0.74598958
0.74821836
0.75161781
0.75420365
0.75551178
0.75604216
0.75609871
0.7559081
0.75563159
0.75531522
0.75464689
0.71504953
0.84037851
0.86031013
0.88514032
0.86535977
0.87283207
0.8628438
0.86170201
0.85474033
0.8488814
0.84106144
0.83180976
0.82092527
0.80789171
0.79274378
0.77523992
0.75571104
0.73488924
0.71417488
0.69518644
0.6795145
0.66909455
0.66470285
0.66494437
0.66887829
0.67544925
0.68351547
0.69215765
0.70070388
0.7086933
0.7158408
0.72203615
0.72734998
0.73179617
0.73529886
0.73800508
0.74025062
0.74229318
0.74419468
0.74611746
0.74857853
0.75210111
0.75443372
0.75557303
0.75599599
0.75601308
0.75581235
0.75554167
0.75523722
0.75459438
0.71413723
0.83914401
0.85370047
0.87804187
0.8583272
0.86530325
0.85536395
0.85369139
0.84656797
0.84020419
0.83194679
0.82211841
0.81057452
0.79680923
0.78085876
0.76257836
0.74243854
0.72138887
0.70095754
0.68277821
0.66860202
0.6603541
0.65787216
0.65974429
0.66512532
0.67281971
0.68171696
0.69095622
0.6999187
0.70817628
0.71548523
0.72181061
0.72726395
0.73177806
0.73529945
0.73801361
0.74026506
0.74233046
0.74425541
0.74628435
0.7490421
0.75252556
0.75461325
0.75560055
0.75594336
0.75591196
0.75571363
0.75546202
0.75516506
0.75454625
0.71269543
0.83735287
0.84670041
0.87056943
0.85094948
0.85737915
0.84749242
0.84525826
0.83794351
0.83105047
0.82231137
0.81186986
0.79962367
0.78508988
0.76831803
0.74928682
0.72863676
0.70752642
0.6875703
0.67042708
0.65811897
0.65213019
0.65144604
0.65498894
0.66175257
0.67049736
0.68016008
0.68994061
0.69926324
0.70773819
0.71519545
0.72168162
0.7272375
0.73178464
0.73531519
0.73803097
0.74028879
0.74237482
0.74432618
0.74649312
0.74958951
0.75288802
0.75475172
0.75560039
0.75586978
0.75580509
0.75563798
0.75541039
0.75511418
0.75449904
0.71065655
0.83512545
0.83928653
0.8627027
0.84320125
0.84903358
0.83919984
0.83637216
0.82883106
0.82138222
0.81211386
0.80102017
0.78802888
0.77269286
0.75509381
0.73536379
0.71433528
0.69335023
0.67407864
0.65828073
0.64817263
0.64436705
0.64548183
0.65067826
0.65875062
0.66846997
0.67883254
0.68909318
0.69871415
0.7073769
0.71500705
0.72163498
0.72724051
0.73180729
0.73534339
0.73805811
0.74032294
0.74242524
0.74441296
0.74674571
0.75016985
0.75321628
0.75486974
0.75559131
0.75578787
0.75570574
0.75555696
0.75534415
0.75504847
0.75446279
0.70805913
0.83242418
0.83146734
0.8544074
0.83505815
0.84023332
0.83045282
0.82699647
0.81918927
0.81115503
0.8013078
0.7895209
0.77574261
0.75957774
0.74116454
0.72081923
0.69957418
0.67891754
0.66056447
0.64651036
0.63880748
0.63704887
0.64001796
0.64680836
0.65610742
0.66672424
0.67771753
0.68838917
0.69825837
0.70712185
0.7149256
0.72162936
0.72726556
0.7318515
0.73538827
0.73809767
0.74036569
0.74248127
0.74452547
0.74705708
0.75074597
0.75351855
0.75497581
0.75557569
0.75570257
0.75561635
0.75546629
0.75526592
0.75498194
0.75441346
0.7048361
0.82919001
0.82320687
0.84564504
0.82647967
0.83094091
0.82120636
0.81709188
0.80896947
0.80031819
0.78984064
0.77731846
0.76271564
0.74570644
0.72651737
0.70567426
0.68440157
0.66429814
0.6471602
0.63526254
0.62999298
0.63022622
0.63506381
0.64336932
0.65380843
0.66524368
0.67679108
0.68780429
0.69791134
0.70698839
0.71490382
0.72165083
0.72731907
0.73191956
0.73544997
0.73814913
0.74041521
0.74254273
0.74467459
0.7474597
0.75127775
0.75377468
0.75504319
0.7555439
0.75561313
0.75550675
0.75535934
0.75517584
0.75490677
0.75436075
0.7009957
0.82539655
0.81450074
0.83637446
0.81743021
0.82111594
0.81140933
0.80660662
0.79811701
0.78881447
0.77765505
0.7643566
0.74889832
0.73104645
0.71115136
0.68996356
0.66887643
0.6495799
0.63404991
0.62463379
0.62168786
0.62395589
0.63061824
0.64034832
0.65183697
0.66400651
0.67602577
0.6873348
0.6977019
0.70694183
0.71491824
0.72170479
0.72740214
0.73200891
0.73552678
0.73821082
0.74046979
0.74261063
0.74486703
0.74797645
0.75173155
0.75397165
0.75506435
0.75548657
0.75551465
0.75539393
0.75525735
0.75508613
0.75482365
0.75431336
0.69649883
0.82096
0.80531376
0.82654099
0.80786033
0.81070822
0.80100338
0.79548463
0.78657097
0.77658177
0.76468947
0.7505768
0.7342426
0.71557351
0.69507839
0.67373378
0.65307216
0.63488163
0.62141796
0.61464227
0.61391284
0.61826781
0.62667214
0.6377285
0.65017201
0.66298407
0.67540264
0.68701358
0.69761497
0.70694506
0.71496909
0.72179455
0.72751183
0.73211762
0.73561699
0.73828078
0.74052824
0.74268942
0.7451038
0.74857473
0.75211853
0.7541329
0.75507682
0.75541838
0.75540792
0.75528441
0.75517054
0.75500252
0.75473933
0.75426351
0.69131846
0.81579796
0.79562104
0.81609697
0.7977186
0.79966206
0.78992907
0.78366274
0.77426467
0.76355254
0.75087934
0.73591895
0.71870408
0.69927412
0.67832497
0.65704467
0.63708355
0.62038528
0.60941802
0.60523906
0.60674355
0.61316349
0.62321195
0.63548949
0.64878705
0.66214666
0.67492889
0.68685016
0.69759813
0.70699072
0.71506163
0.721916
0.72764561
0.73224348
0.73571879
0.73835699
0.74058984
0.74278814
0.74538929
0.74919893
0.75247309
0.75427484
0.7550773
0.75533417
0.75530265
0.75519562
0.75508557
0.75491145
0.75465384
0.75423219
0.68547011
0.80982689
0.78539176
0.80497617
0.78693804
0.78790965
0.77811394
0.77107031
0.7611266
0.74965564
0.73615727
0.72032332
0.70224528
0.68214878
0.66093318
0.63997167
0.62103013
0.60630827
0.59811696
0.59642047
0.60022943
0.60863685
0.62021858
0.63360543
0.64764986
0.66147823
0.67462937
0.68679233
0.69763166
0.70708357
0.71519133
0.72206616
0.72780076
0.73238445
0.73583028
0.73843736
0.74065389
0.74291854
0.74574584
0.74981389
0.75279198
0.75438735
0.75504901
0.75524176
0.75520731
0.75512151
0.75499786
0.75481697
0.75457514
0.75420499
0.67893677
0.80290255
0.77456683
0.79309758
0.77543778
0.7753802
0.7654787
0.75763622
0.7470826
0.73481642
0.72045202
0.7037312
0.68483871
0.6642149
0.64296314
0.6226165
0.60508885
0.5928471
0.58749779
0.58826194
0.59438389
0.60467417
0.61766826
0.63204482
0.64672851
0.66099455
0.6744906
0.68680082
0.69771948
0.70722089
0.7153544
0.72224151
0.72797487
0.73253861
0.73594945
0.73852011
0.7407203
0.74309025
0.74620795
0.75037213
0.7530573
0.75445269
0.75499716
0.75514784
0.75512392
0.75505243
0.75491085
0.7547294
0.75450871
0.75417959
0.67169014
0.79487514
0.76308968
0.78039421
0.76314431
0.7620042
0.75194497
0.74328319
0.73205365
0.71895094
0.70368682
0.68608834
0.66647152
0.6455095
0.62449471
0.60511053
0.58949376
0.58012977
0.57754203
0.58083315
0.58920505
0.60125454
0.61553013
0.63077173
0.64600563
0.66070847
0.67445384
0.68687139
0.69786113
0.70739725
0.71554641
0.72243884
0.7281656
0.73270418
0.73607421
0.73860419
0.74079165
0.74330789
0.74677828
0.750845
0.75326057
0.7544747
0.75493535
0.75505995
0.75504844
0.75498123
0.75483304
0.7546563
0.75445444
0.75415652
0.66377639
0.78555028
0.7509098
0.76680711
0.74998409
0.74771114
0.73742718
0.72792138
0.71594589
0.70196387
0.68578179
0.6673497
0.64715076
0.626093
0.60563802
0.58763247
0.5744878
0.56818762
0.56830642
0.5741699
0.58468018
0.59834994
0.61376613
0.62975175
0.64549879
0.66058221
0.6744909
0.68700656
0.69804929
0.70760758
0.7157634
0.72265504
0.7283708
0.73287957
0.73620249
0.73868955
0.74087484
0.74357047
0.74740915
0.75124723
0.7534117
0.75446864