/*--------------------------------*- C++ -*----------------------------------*\
  =========                 |
  \\      /  F ield         | OpenFOAM: The Open Source CFD Toolbox
   \\    /   O peration     | Website:  https://openfoam.org
    \\  /    A nd           | Version:  8
     \\/     M anipulation  |
\*---------------------------------------------------------------------------*/
FoamFile
{
    version     2.0;
    format      ascii;
    class       surfaceScalarField;
    location    "0.219989";
    object      meshPhi;
}
// * * * * * * * * * * * * * * * * * * * * * * * * * * * * * * * * * * * * * //

dimensions      [0 3 -1 0 0 0 0];

internalField   nonuniform List<scalar> 
39600
(
-7.2425349e-05
-4.647792e-06
4.7405148e-06
-7.2524504e-05
-5.5653948e-06
5.668628e-06
-7.2640254e-05
-6.667547e-06
6.791111e-06
-7.2778831e-05
-7.9878069e-06
8.1357315e-06
-7.2945001e-05
-9.5690762e-06
9.7463044e-06
-7.3146108e-05
-1.1462976e-05
1.1675254e-05
-7.3394791e-05
-1.3730872e-05
1.3985168e-05
-7.370221e-05
-1.6445888e-05
1.6750753e-05
-7.4087877e-05
-1.9695276e-05
2.0060982e-05
-7.4565453e-05
-2.3582597e-05
2.4021571e-05
-7.515776e-05
-2.8230452e-05
2.8757841e-05
-7.5892944e-05
-3.3783566e-05
3.4417792e-05
-7.6824557e-05
-4.04123e-05
4.1175665e-05
-7.8012888e-05
-4.8315821e-05
4.9235672e-05
-7.952871e-05
-5.7726198e-05
5.8835494e-05
-8.1496947e-05
-6.8910805e-05
7.0250436e-05
-8.4252602e-05
-8.2170223e-05
8.3793772e-05
-8.8185525e-05
-9.7831925e-05
9.9804282e-05
-9.3501255e-05
-0.0001162464
0.00011864804
-0.00010042705
-0.00013777281
0.00014070578
-0.00010928562
-0.00016273005
0.00016632733
-0.00012046617
-0.00019146055
0.00019590998
-0.00013491765
-0.00022411776
0.00022965453
-0.00015258947
-0.00026094887
0.00026790269
-0.00017585209
-0.00030169381
0.00031049182
-0.0002030812
-0.00034548401
0.00035664806
-0.0002368469
-0.00039142331
0.00040545732
-0.00026886594
-0.00044133069
0.00045885418
-0.00031624416
-0.00049357607
0.00051578594
-0.00037874233
-0.00054497084
0.00057408193
-0.00045740155
-0.00059832533
0.00063650016
-0.00055614136
-0.00064985202
0.0006992902
-0.00067189464
-0.00070021757
0.00076394035
-0.00082078701
-0.00073960279
0.00082106366
-0.00098675019
-0.00076437943
0.00086725534
-0.0011925189
-0.0007946389
0.00092481026
-0.0013917038
-0.00084502631
0.0010067673
-0.0016279143
-0.00089699202
0.0010919678
-0.0018835653
-0.0009330762
0.0011654145
-0.0021819206
-0.00096483027
0.0012394949
-0.0024747375
-0.00099494278
0.0013133192
-0.0027785587
-0.0009816972
0.0013420075
-0.0031728143
-0.00094085445
0.0013505703
-0.0033553928
-0.00081902498
0.0012563487
-0.0034223696
-0.00043888729
0.00086757879
-0.0033110213
-9.6625066e-06
0.0003952146
-0.0032544117
0.00029668985
3.8181146e-05
-0.003223343
0.0005136081
-0.00021041313
-0.0028416431
0.00075183462
-0.00054127301
0.00048218039
-0.00044009452
-5.8175384e-05
-4.5795795e-06
-5.8250521e-05
-5.4837005e-06
-5.8338291e-05
-6.5696069e-06
-5.8444269e-05
-7.8703572e-06
-5.8572157e-05
-9.4284513e-06
-5.8728216e-05
-1.1294286e-05
-5.8920988e-05
-1.3528644e-05
-5.9159499e-05
-1.6203344e-05
-5.9459847e-05
-1.940441e-05
-5.9836892e-05
-2.3233545e-05
-6.0315524e-05
-2.7811427e-05
-6.0927822e-05
-3.3280294e-05
-6.171563e-05
-3.9807722e-05
-6.2730678e-05
-4.7589108e-05
-6.4006008e-05
-5.6853269e-05
-6.5678643e-05
-6.7859118e-05
-6.8081449e-05
-8.0894414e-05
-7.1574571e-05
-9.6276735e-05
-7.6381185e-05
-0.00011434909
-8.2685052e-05
-0.00013545506
-9.0792674e-05
-0.00015989315
-0.00010111774
-0.00018794233
-0.0001145405
-0.00021971938
-0.00013121786
-0.00025537904
-0.00015338584
-0.000294532
-0.00018002099
-0.0003362561
-0.00021219822
-0.0003797936
-0.0002439767
-0.00042664391
-0.00029216109
-0.00047416963
-0.00035595618
-0.00051866498
-0.00043483881
-0.00056287188
-0.00053341142
-0.0006032981
-0.00064927851
-0.00063936711
-0.00079764343
-0.00066101763
-0.00096367655
-0.00066457711
-0.0011668483
-0.00066786147
-0.0013660573
-0.00068687731
-0.0016022821
-0.00070558907
-0.0018609315
-0.00070382715
-0.0021596607
-0.00069278594
-0.0024581461
-0.00067810086
-0.0027565147
-0.00062236011
-0.0031478154
-0.00053427902
-0.0033383909
-0.00037806248
-0.0034146506
-3.9898716e-06
-0.0033486244
0.00038458543
-0.0032715146
0.00063968164
-0.0032399084
0.00082001979
-0.0028617481
0.00096762109
0.00052844323
-4.4739166e-05
-4.52906e-06
-4.4608668e-05
-5.4238025e-06
-4.4497061e-05
-6.4985807e-06
-4.4441757e-05
-7.7859693e-06
-4.4451514e-05
-9.3278813e-06
-4.4522248e-05
-1.1174178e-05
-4.4651311e-05
-1.3384742e-05
-4.4843685e-05
-1.6030569e-05
-4.5109428e-05
-1.9196387e-05
-4.5458547e-05
-2.2982722e-05
-4.591441e-05
-2.7508505e-05
-4.6495904e-05
-3.291466e-05
-4.723369e-05
-3.9366293e-05
-4.8144428e-05
-4.705734e-05
-4.9252324e-05
-5.621376e-05
-5.0706353e-05
-6.7086371e-05
-5.2783545e-05
-7.9954128e-05
-5.5819588e-05
-9.5125671e-05
-6.0044872e-05
-0.00011293917
-6.5641459e-05
-0.00013372908
-7.2928348e-05
-0.00015777096
-8.2342524e-05
-0.00018529333
-9.4671022e-05
-0.00021636999
-0.00011026499
-0.00025107629
-0.00013124803
-0.00028888779
-0.00015705237
-0.00032882055
-0.00018733385
-0.00037030594
-0.00021863377
-0.00041439476
-0.00026760072
-0.00045734915
-0.00033245574
-0.00049502738
-0.00041164703
-0.00053025792
-0.00050964628
-0.00055981239
-0.00062587783
-0.00058182109
-0.00077312725
-0.00058598611
-0.00093963935
-0.00056847785
-0.0011399127
-0.00054524257
-0.0013392389
-0.00053322214
-0.0015758046
-0.00051820208
-0.0018373217
-0.00047795117
-0.0021375054
-0.00042349328
-0.002439828
-0.00036325768
-0.002737804
-0.00026517534
-0.0031228331
-0.00013144755
-0.0033212788
6.0229261e-05
-0.0034065233
0.00043208777
-0.0033789489
0.00079036728
-0.0032882911
0.00099965624
-0.0032543219
0.001136073
-0.0028796383
0.001195255
0.0005853378
-3.22892e-05
-4.4946038e-06
-3.2118492e-05
-5.382051e-06
-3.1944322e-05
-6.4480388e-06
-3.179716e-05
-7.7250727e-06
-3.1690444e-05
-9.2549256e-06
-3.162824e-05
-1.1087236e-05
-3.1617938e-05
-1.3281355e-05
-3.1679389e-05
-1.5907924e-05
-3.1829128e-05
-1.9050948e-05
-3.2087775e-05
-2.2810028e-05
-3.2470741e-05
-2.7303064e-05
-3.2988717e-05
-3.266972e-05
-3.3657326e-05
-3.9073198e-05
-3.4462429e-05
-4.6706417e-05
-3.5436703e-05
-5.5792306e-05
-3.6697821e-05
-6.6576741e-05
-3.8495031e-05
-7.9330219e-05
-4.1118997e-05
-9.4356374e-05
-4.4768004e-05
-0.00011199255
-4.9680389e-05
-0.00013256251
-5.6176233e-05
-0.00015632053
-6.4700286e-05
-0.00018345544
-7.5983908e-05
-0.00021399849
-9.0482409e-05
-0.0002479555
-0.00011032042
-0.00028466834
-0.00013510339
-0.00032308761
-0.00016354797
-0.00036285164
-0.00019431845
-0.0004044687
-0.00024379619
-0.00044301933
-0.00030943373
-0.00047401305
-0.00038857875
-0.00050055486
-0.00048590694
-0.00051954224
-0.00060215462
-0.00052781453
-0.00074822023
-0.00051483328
-0.00091482281
-0.00047652236
-0.0011127026
-0.00042721557
-0.001312564
-0.00038423964
-0.0015497166
-0.00033482029
-0.0018138093
-0.00025545736
-0.0021152794
-0.000157041
-0.0024214112
-5.0480167e-05
-0.0027211355
9.0576493e-05
-0.0031010729
0.00026943467
-0.0033072388
0.00049717147
-0.0034017058
0.0008704117
-0.0034023175
0.0012056126
-0.0033045532
0.001372934
-0.0032688083
0.0014619288
-0.0028975261
0.001435322
0.00065250509
-2.078876e-05
-4.4766339e-06
-2.076194e-05
-5.3603305e-06
-2.0704337e-05
-6.4218579e-06
-2.0612304e-05
-7.6936345e-06
-2.0496423e-05
-9.2171488e-06
-2.0373669e-05
-1.1041963e-05
-2.0262335e-05
-1.322721e-05
-2.0192431e-05
-1.5843267e-05
-2.0184162e-05
-1.8973881e-05
-2.0270642e-05
-2.2718495e-05
-2.0465804e-05
-2.7194518e-05
-2.0792685e-05
-3.2541205e-05
-2.1264497e-05
-3.8921075e-05
-2.1877145e-05
-4.652576e-05
-2.2651335e-05
-5.5576623e-05
-2.3694499e-05
-6.6315141e-05
-2.5208012e-05
-7.9006224e-05
-2.7408503e-05
-9.3951363e-05
-3.0510171e-05
-0.00011148481
-3.4773085e-05
-0.00013192111
-4.0514816e-05
-0.00015550042
-4.8179481e-05
-0.00018237941
-5.8461265e-05
-0.00021254861
-7.1869708e-05
-0.00024595551
-9.0577163e-05
-0.00028180672
-0.00011418928
-0.00031898588
-0.00014088815
-0.00035736026
-0.00017115439
-0.00039680873
-0.00022090732
-0.00043113444
-0.0002870198
-0.00045560043
-0.00036581889
-0.00047372554
-0.00046237564
-0.00048246682
-0.00057835406
-0.0004773206
-0.0007231688
-0.00044752932
-0.00088955337
-0.00038871942
-0.0010855202
-0.00031375057
-0.0012863915
-0.0002398639
-0.0015243299
-0.00015542752
-0.0017907965
-3.6333107e-05
-0.0020933703
0.00010657504
-0.0024031645
0.00026014691
-0.002705864
0.00044519344
-0.0030819059
0.00066914592
-0.003295638
0.00093366317
-0.0033994158
0.0013115954
-0.0034214552
0.001629256
-0.0033205863
0.0017577028
-0.0032832744
0.0017967471
-0.0029152505
0.0016866185
0.00072929643
-9.8332923e-06
-4.4745201e-06
-9.7776177e-06
-5.3580951e-06
-9.6914414e-06
-6.4196134e-06
-9.5819078e-06
-7.6913423e-06
-9.4630298e-06
-9.2146891e-06
-9.3475826e-06
-1.1039087e-05
-9.2483748e-06
-1.322361e-05
-9.1822312e-06
-1.5838548e-05
-9.1573828e-06
-1.8967671e-05
-9.1952093e-06
-2.2710508e-05
-9.3014927e-06
-2.7184591e-05
-9.4973487e-06
-3.2529467e-05
-9.7984965e-06
-3.8907698e-05
-1.0215137e-05
-4.6510877e-05
-1.0784191e-05
-5.5559478e-05
-1.1597065e-05
-6.6292265e-05
-1.2810712e-05
-7.8970714e-05
-1.4606537e-05
-9.3893545e-05
-1.7196254e-05
-0.00011139288
-2.0846513e-05
-0.00013177796
-2.5871419e-05
-0.00015527729
-3.2709484e-05
-0.00018202091
-4.2027125e-05
-0.00021196534
-5.4367319e-05
-0.00024500393
-7.1940739e-05
-0.00028021768
-9.4264899e-05
-0.00031643261
-0.00011928785
-0.00035370714
-0.00014911436
-0.00039123879
-0.00019901604
-0.00042154592
-0.00026533592
-0.00043969971
-0.00034356469
-0.00044975095
-0.00043925414
-0.00044860819
-0.00055474805
-0.00043042589
-0.00069824516
-0.0003842279
-0.0008641943
-0.00030527751
-0.0010586419
-0.00020498663
-0.0012608881
-0.00010007612
-0.0014997338
1.998665e-05
-0.001768422
0.00017932447
-0.0020719493
0.00036711523
-0.0023851945
0.0005683029
-0.0026915544
0.00079849233
-0.0030647861
0.0010679823
-0.0032859214
0.0013699469
-0.0033990432
0.0017557112
-0.0034381152
0.0020601712
-0.00333651
0.0021523075
-0.0032977011
0.0021407409
-0.0029326728
0.00194949
0.00081541537
4.1102762e-07
-4.4872652e-06
4.713231e-07
-5.3730078e-06
5.5390351e-07
-6.4371002e-06
6.52675e-07
-7.7118413e-06
7.5354281e-07
-9.2388495e-06
8.5041923e-07
-1.1067719e-05
9.3731487e-07
-1.3257791e-05
1.006201e-06
-1.5879713e-05
1.0578543e-06
-1.9017694e-05
1.0773014e-06
-2.2771813e-05
1.0645393e-06
-2.7260139e-05
9.9936767e-07
-3.2622878e-05
8.6541754e-07
-3.9023129e-05
6.4293856e-07
-4.6652759e-05
2.8475084e-07
-5.573223e-05
-2.9307587e-07
-6.6498821e-05
-1.2126659e-06
-7.9211526e-05
-2.6259664e-06
-9.4167779e-05
-4.7384012e-06
-0.00011169873
-7.8124202e-06
-0.00013211112
-1.2157122e-05
-0.00015562485
-1.8203465e-05
-0.00018234992
-2.6594628e-05
-0.00021221295
-3.7896617e-05
-0.00024506067
-5.4324768e-05
-0.00027985854
-7.5262421e-05
-0.00031538067
-9.8664912e-05
-0.00035185544
-0.00012815194
-0.00038773482
-0.00017817273
-0.00041420233
-0.00024447049
-0.00042622796
-0.0003219402
-0.00042850834
-0.0004166798
-0.00041783151
-0.00053151078
-0.00038696709
-0.00067363687
-0.00032474428
-0.00083897943
-0.00022600875
-0.0010322369
-0.00010071231
-0.0012361312
3.5316123e-05
-0.0014759517
0.00019155231
-0.0017467312
0.00039163776
-0.0020510856
0.00062471147
-0.0023675807
0.00087400475
-0.0026779416
0.001150497
-0.0030493629
0.0014661131
-0.003277758
0.0018063737
-0.0034002288
0.0022029323
-0.0034534722
0.0024979823
-0.0033524423
0.0025561426
-0.0033120467
0.0024934662
-0.0029497039
0.0022231957
0.00091042389
9.9667656e-06
-4.5147882e-06
9.989202e-06
-5.405902e-06
1.0016529e-05
-6.4763057e-06
1.006195e-05
-7.7584277e-06
1.0122175e-05
-9.2942297e-06
1.0201825e-05
-1.1133768e-05
1.0299361e-05
-1.3336886e-05
1.040847e-05
-1.597487e-05
1.0529385e-05
-1.9132605e-05
1.0645005e-05
-2.2910923e-05
1.0754173e-05
-2.7428818e-05
1.0832843e-05
-3.2827443e-05
1.0863974e-05
-3.9270906e-05
1.082309e-05
-4.6952207e-05
1.0661888e-05
-5.6092312e-05
1.0309318e-05
-6.6928757e-05
9.6693673e-06
-7.9720051e-05
8.6136001e-06
-9.4763202e-05
6.9485251e-06
-0.00011239028
4.4172008e-06
-0.00013290798
7.1884703e-07
-0.00015652885
-4.5712112e-06
-0.0001833464
-1.2074936e-05
-0.00021326356
-2.2381242e-05
-0.00024607896
-3.7659234e-05
-0.00028066077
-5.7159142e-05
-0.00031575013
-7.9052731e-05
-0.00035166519
-0.00010830255
-0.00038607432
-0.00015840316
-0.00040888749
-0.00022448664
-0.00041503763
-0.00030105119
-0.00040990868
-0.00039477364
-0.00039006608
-0.00050881072
-0.00034690925
-0.00064952144
-0.00026907988
-0.00081413667
-0.00015094351
-0.0010064531
-9.1083462e-07
-0.001212165
0.00016639644
-0.0014529829
0.00035927779
-0.0017257477
0.00060049929
-0.0020308298
0.00087913078
-0.0023503659
0.0011769669
-0.0026648946
0.0015008928
-0.0030353415
0.0018634672
-0.00327085
0.002242956
-0.0034026333
0.0026531761
-0.0034680773
0.0029421488
-0.003368412
0.0029684649
-0.0033262655
0.0028550079
-0.0029662218
0.0025078364
0.0010140588
1.892821e-05
-4.5564763e-06
1.8959669e-05
-5.4559525e-06
1.8996534e-05
-6.5364962e-06
1.9055311e-05
-7.8310209e-06
1.9136423e-05
-9.3818664e-06
1.9245226e-05
-1.1239529e-05
1.9378996e-05
-1.3464407e-05
1.9532207e-05
-1.6128411e-05
1.9704003e-05
-1.9317098e-05
1.9879443e-05
-2.3132402e-05
2.0059154e-05
-2.7694338e-05
2.0221902e-05
-3.3145492e-05
2.0356462e-05
-3.9651555e-05
2.0441506e-05
-4.7407247e-05
2.0437337e-05
-5.663609e-05
2.0285568e-05
-6.7577423e-05
1.9907045e-05
-8.0490454e-05
1.9186326e-05
-9.5673297e-05
1.7938102e-05
-0.0001134602
1.5916916e-05
-0.00013415748
1.2832487e-05
-0.00015797525
8.2658929e-06
-0.00018499375
1.6073878e-06
-0.00021509511
-7.7574942e-06
-0.000248031
-2.1890255e-05
-0.00028259368
-3.9938178e-05
-0.00031749745
-6.0469826e-05
-0.00035309558
-8.9575811e-05
-0.00038622379
-0.00013968753
-0.00040554181
-0.00020539548
-0.0004060331
-0.00028094552
-0.0003938087
-0.00037359905
-0.0003651461
-0.0004867365
-0.00031004835
-0.00062600245
-0.00021699708
-0.0007897965
-7.9828211e-05
-0.0009813687
9.467548e-05
-0.0011890009
0.00029339157
-0.0014308144
0.0005233636
-0.0017054717
0.00080612124
-0.0020111943
0.0011306118
-0.0023335793
0.0014773176
-0.0026523172
0.0018497184
-0.0030224935
0.0022600988
-0.0032649734
0.0026798581
-0.003405994
0.0031064755
-0.0034823351
0.0033924997
-0.0033844942
0.0033889668
-0.0033403615
0.0032249325
-0.0029821678
0.0028025828
0.0011257273
2.732768e-05
-4.6121409e-06
2.7419891e-05
-5.5232004e-06
2.753418e-05
-6.6178818e-06
2.7670368e-05
-7.9295676e-06
2.7820231e-05
-9.5009732e-06
2.7982923e-05
-1.1383054e-05
2.8154737e-05
-1.3636945e-05
2.833308e-05
-1.6335305e-05
2.8520631e-05
-1.95648e-05
2.8709954e-05
-2.3428254e-05
2.8908582e-05
-2.8047497e-05
2.9105377e-05
-3.3566634e-05
2.9300205e-05
-4.0154127e-05
2.9483763e-05
-4.8007705e-05
2.9625422e-05
-5.7354597e-05
2.9681198e-05
-6.8438403e-05
2.9563191e-05
-8.1518961e-05
2.914904e-05
-9.6894014e-05
2.8281246e-05
-0.00011490196
2.6736572e-05
-0.00013585279
2.423826e-05
-0.00015995606
2.0362636e-05
-0.00018728009
1.4508649e-05
-0.0002176899
6.0229663e-06
-0.00025088085
-7.0045014e-06
-0.00028558064
-2.3614307e-05
-0.00032053133
-4.288542e-05
-0.00035601609
-7.1897206e-05
-0.00038799383
-0.00012197577
-0.00040400552
-0.00018718885
-0.00039910265
-0.00026165385
-0.00038012146
-0.0003531972
-0.00034299061
-0.00046535827
-0.00027633093
-0.00060315575
-0.0001684665
-0.00076605897
-1.2646804e-05
-0.0009570153
0.00018607487
-0.0011665813
0.000416278
-0.001409356
0.00068360034
-0.0016858104
0.001008113
-0.0019921183
0.0013786242
-0.0023171778
0.00177452
-0.0026401144
0.0021963779
-0.0030106096
0.0026555168
-0.0032599316
0.0031166593
-0.0034101175
0.003562331
-0.0034964202
0.0038483606
-0.0034007108
0.0038170772
-0.0033543228
0.0036031962
-0.0029974526
0.0031073217
0.0012451297
3.5125706e-05
-4.6806783e-06
3.522632e-05
-5.6047472e-06
3.5347964e-05
-6.7149241e-06
3.5491089e-05
-8.0449966e-06
3.5648739e-05
-9.6383462e-06
3.5822968e-05
-1.1547185e-05
3.6012077e-05
-1.3833358e-05
3.621653e-05
-1.6571092e-05
3.6440789e-05
-1.9848507e-05
3.6679413e-05
-2.3770433e-05
3.6943737e-05
-2.8460375e-05
3.7226162e-05
-3.4065586e-05
3.75383e-05
-4.0757169e-05
3.7875975e-05
-4.8737191e-05
3.8228196e-05
-5.8238955e-05
3.8524042e-05
-6.9506837e-05
3.8656505e-05
-8.2798773e-05
3.853237e-05
-9.8417121e-05
3.8016899e-05
-0.00011670764
3.6919528e-05
-0.00013798441
3.4978594e-05
-0.00016245958
3.1754716e-05
-0.00019018687
2.6672188e-05
-0.00022102239
1.8997016e-05
-0.00025459787
7.0072156e-06
-0.00028958965
-8.1855733e-06
-0.00032481017
-2.6250949e-05
-0.00036039671
-5.518895e-05
-0.00039138364
-0.00010523102
-0.00040424199
-0.00016986532
-0.00039413968
-0.00024318887
-0.00036868734
-0.00033359091
-0.00032341358
-0.00044471095
-0.00024552903
-0.00058102943
-0.00012322351
-0.0007429814
5.0887193e-05
-0.00093341292
0.00027357128
-0.0011448599
0.00053531233
-0.0013885424
0.00084024488
-0.0016666889
0.001206757
-0.0019735504
0.001623488
-0.0023011525
0.0020688081
-0.0026282309
0.0025410097
-0.0029995689
0.0030498413
-0.0032556273
0.0035535377
-0.00341491
0.0040208277
-0.0035104746
0.0043097292
-0.0034170846
0.0042527212
-0.0033681457
0.0039895502
-0.0030120211
0.0034214558
0.0013718202
4.2357455e-05
-4.7623019e-06
4.2418447e-05
-5.7024105e-06
4.2481527e-05
-6.8314947e-06
4.2562965e-05
-8.1839024e-06
4.2666188e-05
-9.8037947e-06
4.28041e-05
-1.1744067e-05
4.2980185e-05
-1.4068137e-05
4.3200214e-05
-1.6851503e-05
4.3469963e-05
-2.0184135e-05
4.3788129e-05
-2.4173369e-05
4.4166023e-05
-2.8945602e-05
4.4598066e-05
-3.4651853e-05
4.5096336e-05
-4.146775e-05
4.5663589e-05
-4.9601998e-05
4.6258787e-05
-5.928936e-05
4.6775439e-05
-7.0772279e-05
4.7124202e-05
-8.4312087e-05
4.7277896e-05
-0.00010021991
4.7141077e-05
-0.00011885637
4.649924e-05
-0.0001405412
4.5092366e-05
-0.00016547785
4.2480083e-05
-0.00019370433
3.8129443e-05
-0.00022507305
3.1193203e-05
-0.00025913987
2.0182361e-05
-0.00029454582
6.3653108e-06
-0.00033023859
-1.0590744e-05
-0.00036610406
-3.9471461e-05
-0.00039616523
-8.9434468e-05
-0.00040601223
-0.00015341555
-0.00039099475
-0.00022555436
-0.0003593988
-0.00031479457
-0.0003063077
-0.00042483003
-0.0002175503
-0.00055966639
-8.1182522e-05
-0.00072062444
0.00011085243
-0.00091058278
0.00035724293
-0.0011238226
0.00065050059
-0.0013683516
0.00099313857
-0.0016480961
0.0014017529
-0.0019554922
0.0018647958
-0.0022855134
0.0023597892
-0.0026166675
0.0028831777
-0.0029892759
0.0034426947
-0.0032519744
0.00399018
-0.003420266
0.0044815722
-0.0035245148
0.0047760576
-0.0034335975
0.0046954107
-0.0033817857
0.0043838009
-0.0030257715
0.0037446991
0.0015054864
4.8986871e-05
-4.8554436e-06
4.8936443e-05
-5.8115242e-06
4.8894249e-05
-6.9598177e-06
4.890203e-05
-8.3355868e-06
4.8969088e-05
-9.9843504e-06
4.9103315e-05
-1.196061e-05
4.9308759e-05
-1.432909e-05
4.9587313e-05
-1.7166946e-05
4.9943075e-05
-2.0566623e-05
5.0374083e-05
-2.4637318e-05
5.0889247e-05
-2.9508964e-05
5.148379e-05
-3.533547e-05
5.2167658e-05
-4.2297562e-05
5.2929448e-05
-5.0606715e-05
5.3684553e-05
-6.0498002e-05
5.4334096e-05
-7.2216485e-05
5.4866737e-05
-8.6033702e-05
5.532257e-05
-0.00010228187
5.5618583e-05
-0.00012133444
5.5479025e-05
-0.00014350654
5.4605374e-05
-0.00016899347
5.2574841e-05
-0.00019781372
4.8904043e-05
-0.00022981832
4.2629492e-05
-0.00026447469
3.2551013e-05
-0.00030041516
2.0050231e-05
-0.0003367787
4.0695036e-06
-0.00037310486
-2.4767353e-05
-0.00040231342
-7.4561999e-05
-0.00040926498
-0.00013781267
-0.00038956562
-0.00020874062
-0.00035210764
-0.00029680642
-0.00029149556
-0.00040572575
-0.00019217363
-0.00053908362
-4.2089155e-05
-0.00069901379
0.00016752485
-0.00088853174
0.00043736854
-0.0011034593
0.00076213626
-0.0013487721
0.0011426235
-0.001630021
0.0015934882
-0.001937937
0.0021029756
-0.0022702686
0.0026478009
-0.0026054036
0.0032231159
-0.0029796333
0.0038342556
-0.0032488744
0.0044267615
-0.0034260708
0.0049446581
-0.0035385553
0.0052473896
-0.0034502276
0.0051450547
-0.0033952065
0.0047855893
-0.0030386233
0.0040762594
0.0016455084
5.5276126e-05
-4.9630962e-06
5.5263051e-05
-5.9433556e-06
5.526632e-05
-7.1210863e-06
5.531936e-05
-8.5319931e-06
5.5428845e-05
-1.0222265e-05
5.5596571e-05
-1.2246732e-05
5.5830181e-05
-1.4671343e-05
5.6132193e-05
-1.7575117e-05
5.6512988e-05
-2.105148e-05
5.6974115e-05
-2.5213137e-05
5.7529495e-05
-3.019243e-05
5.8176111e-05
-3.6147487e-05
5.8924738e-05
-4.3263537e-05
5.9734271e-05
-5.1755338e-05
6.0526201e-05
-6.1860888e-05
6.1249018e-05
-7.3835733e-05
6.195565e-05
-8.7969031e-05
6.2753824e-05
-0.00010461275
6.3512633e-05
-0.00012414747
6.3887679e-05
-0.0001468794
6.3542586e-05
-0.00017299238
6.2071736e-05
-0.00020249575
5.9022584e-05
-0.00023522887
5.3346345e-05
-0.0002705603
4.4146294e-05
-0.00030713509
3.2875104e-05
-0.00034432123
1.7741402e-05
-0.00038124597
-1.1043696e-05
-0.00040965353
-6.055565e-05
-0.00041385868
-0.00012301118
-0.0003897714
-0.00019272004
-0.00034674856
-0.00027960514
-0.00027891351
-0.00038739129
-0.00016935078
-0.00051928258
-5.8937067e-06
-0.00067815952
0.00022095589
-0.00086723994
0.00051397198
-0.0010837166
0.00087008275
-0.0013297365
0.0012883101
-0.0016123957
0.0017813786
-0.0019208308
0.002337327
-0.0022553741
0.0029321885
-0.0025943909
0.0035601349
-0.002970531
0.004223844
-0.0032462229
0.0048626385
-0.0034322275
0.0054093862
-0.0035525926
0.005722958
-0.0034669518
0.0056010897
-0.0034083785
0.0051946547
-0.0030504756
0.0044157416
0.0017915304
6.1216417e-05
-5.0813802e-06
6.1345972e-05
-6.0852107e-06
6.1491157e-05
-7.2914898e-06
6.1658385e-05
-8.7371699e-06
6.1849105e-05
-1.0469174e-05
6.2070971e-05
-1.254436e-05
6.2332712e-05
-1.5030276e-05
6.2642616e-05
-1.8007424e-05
6.3016005e-05
-2.1572518e-05
6.346202e-05
-2.5839474e-05
6.3996762e-05
-3.0944401e-05
6.4624335e-05
-3.7047667e-05
6.5347891e-05
-4.4337856e-05
6.6136384e-05
-5.3034044e-05
6.693006e-05
-6.338157e-05
6.7724792e-05
-7.5648366e-05
6.8631318e-05
-9.0145238e-05
6.9755364e-05
-0.00010724066
7.0926537e-05
-0.00012730721
7.1768977e-05
-0.00015064927
7.1925295e-05
-0.00017745702
7.0988865e-05
-0.00020772637
6.851442e-05
-0.00024127866
6.3386042e-05
-0.00027737401
5.4992082e-05
-0.00031467785
4.4842475e-05
-0.00035282686
3.0431983e-05
-0.00039049025
1.7250582e-06
-0.0004181604
-4.7376123e-05
-0.00041974248
-0.00010898584
-0.00039149979
-0.00017747448
-0.00034315969
-0.00026318296
-0.0002683612
-0.0003698295
-0.0001488291
-0.00050027875
2.7702383e-05
-0.00065808063
0.00027148141
-0.00084670922
0.00058740632
-0.0010645567
0.00097470996
-0.0013111966
0.0014306112
-0.0015951639
0.0019658861
-0.0019041249
0.0025683497
-0.0022408057
0.0032133754
-0.002583594
0.0038945685
-0.0029619013
0.0046117393
-0.0032439642
0.0052980762
-0.0034386934
0.0058759631
-0.0035666327
0.0062029479
-0.0034837366
0.0060635583
-0.0034212565
0.0056107655
-0.0030612672
0.0047625565
0.0019430767
6.6593864e-05
-5.2110108e-06
6.6744586e-05
-6.2405855e-06
6.692073e-05
-7.4780169e-06
6.7127819e-05
-8.9608676e-06
6.7368187e-05
-1.0737741e-05
6.7649241e-05
-1.2867071e-05
6.7975429e-05
-1.5418043e-05
6.8355641e-05
-1.8473924e-05
6.8797885e-05
-2.2133887e-05
6.9311076e-05
-2.6515032e-05
6.9903951e-05
-3.1757502e-05
7.057955e-05
-3.8024843e-05
7.1338991e-05
-4.5510707e-05
7.2160458e-05
-5.4438521e-05
7.3014716e-05
-6.5061258e-05
7.3932078e-05
-7.7663655e-05
7.5046917e-05
-9.2573399e-05
7.6431509e-05
-0.00011016074
7.791748e-05
-0.0001307991
7.9159361e-05
-0.00015480312
7.9773948e-05
-0.00018236716
7.9338444e-05
-0.0002134779
7.7400007e-05
-0.00024792794
7.2787413e-05
-0.00028487144
6.515344e-05
-0.00032300189
5.6043297e-05
-0.00036222931
4.2222795e-05
-0.00040071766
1.3590867e-05
-0.00042768027
-3.4993867e-05
-0.00042677441
-9.5717555e-05
-0.00039464416
-0.00016299841
-0.00034125168
-0.00024754657
-0.00025973581
-0.00035305081
-0.00013051421
-0.0004820774
5.8776815e-05
-0.00063879041
0.00031916343
-0.00082694612
0.00065771351
-0.0010459945
0.0010759694
-0.0012931571
0.001569309
-0.0015783318
0.0021466297
-0.0018878266
0.0027955684
-0.0022265696
0.0034909235
-0.0025730237
0.0042259627
-0.0029537054
0.0049974994
-0.0032420574
0.0057326546
-0.0034454098
0.0063438887
-0.0035806277
0.0066867123
-0.0035005071
0.0065318988
-0.0034337769
0.006033554
-0.0030709141
0.0051162188
0.0020997754
7.155584e-05
-5.3517553e-06
7.1720703e-05
-6.409404e-06
7.191465e-05
-7.6804525e-06
7.2144073e-05
-9.2038061e-06
7.2412458e-05
-1.1029314e-05
7.272786e-05
-1.3217087e-05
7.3095657e-05
-1.5838204e-05
7.3526063e-05
-1.8978914e-05
7.4026331e-05
-2.2740337e-05
7.4605612e-05
-2.7244268e-05
7.527045e-05
-3.2633927e-05
7.6022679e-05
-3.9078536e-05
7.6868235e-05
-4.6776737e-05
7.7786861e-05
-5.5959503e-05
7.8769501e-05
-6.6889748e-05
7.9865399e-05
-7.9866081e-05
8.1178322e-05
-9.5226752e-05
8.2769052e-05
-0.00011334751
8.4509052e-05
-0.00013460447
8.6083214e-05
-0.00015932039
8.7106408e-05
-0.00018769919
8.7133626e-05
-0.00021971912
8.5694875e-05
-0.0002551418
8.1585512e-05
-0.00029302089
7.4702639e-05
-0.00033207689
6.6582417e-05
-0.00037251161
5.3215323e-05
-0.00041193221
2.4614774e-05
-0.00043820911
-2.3375376e-05
-0.00043490038
-8.318452e-05
-0.00039908682
-0.00014928094
-0.00034085671
-0.00023268261
-0.00025284338
-0.00033703756
-0.00011418012
-0.00046465113
8.7578994e-05
-0.00062026123
0.0003642632
-0.00080793098
0.00072517434
-0.0010280361
0.0011742294
-0.0012756358
0.0017049133
-0.00156191
0.0023242074
-0.0018719342
0.0030195878
-0.0022126684
0.0037653348
-0.0025626701
0.0045547135
-0.0029458864
0.0053814385
-0.0032404445
0.0061666369
-0.003452305
0.0068133534
-0.0035945354
0.0071744188
-0.0035172002
0.0070060492
-0.0034458641
0.0064626147
-0.0030793168
0.0054758975
0.0022609747
7.6123097e-05
-5.5034321e-06
7.6300911e-05
-6.5912386e-06
7.651044e-05
-7.8984845e-06
7.6758371e-05
-9.4651397e-06
7.7049303e-05
-1.1343068e-05
7.7391632e-05
-1.3593273e-05
7.7792149e-05
-1.6290042e-05
7.8261058e-05
-1.9521222e-05
7.8807018e-05
-2.3391871e-05
7.9438802e-05
-2.8026724e-05
8.0166508e-05
-3.3573706e-05
8.099355e-05
-4.0207768e-05
8.1931551e-05
-4.8133588e-05
8.2977234e-05
-5.7590658e-05
8.41313e-05
-6.885428e-05
8.5427566e-05
-8.2235755e-05
8.6945548e-05
-9.8084846e-05
8.8734481e-05
-0.00011678073
9.0694029e-05
-0.00013870303
9.2554442e-05
-0.00016418405
9.3942591e-05
-0.00019343672
9.439907e-05
-0.00022643384
9.3423894e-05
-0.00026289744
8.9813161e-05
-0.00030178702
8.368872e-05
-0.00034189431
7.6488194e-05
-0.00038363512
6.346132e-05
-0.00042400319
3.487227e-05
-0.00044963085
-1.2477966e-05
-0.00044406363
-7.1362529e-05
-0.00040478351
-0.00013629154
-0.00034193831
-0.00021854833
-0.00024766826
-0.00032174862
-9.9841761e-05
-0.00044796098
0.00011408443
-0.00060245604
0.00040674969
-0.0007896113
0.0007897022
-0.0010106333
0.0012692167
-0.001258604
0.0018369261
-0.0015458644
0.0024979491
-0.0018564032
0.0032396326
-0.0021990578
0.0040358746
-0.0025524878
0.0048800749
-0.0029383594
0.0057627811
-0.0032390246
0.0065992405
-0.0034592873
0.007283524
-0.0036083121
0.0076651797
-0.0035337578
0.0074853571
-0.0034574657
0.0068975521
-0.0030863932
0.0058410758
0.0024262742
8.0319706e-05
-5.665761e-06
8.0509876e-05
-6.7856056e-06
8.0734136e-05
-8.1317027e-06
8.0999816e-05
-9.7448949e-06
8.1311398e-05
-1.1678678e-05
8.1678601e-05
-1.3996032e-05
8.2107744e-05
-1.6773533e-05
8.2609818e-05
-2.0101339e-05
8.319387e-05
-2.4088149e-05
8.3870538e-05
-2.8862449e-05
8.4655168e-05
-3.4577051e-05
8.5553411e-05
-4.141253e-05
8.6584685e-05
-4.9581725e-05
8.7762882e-05
-5.9332772e-05
8.9094188e-05
-7.0953394e-05
9.0599151e-05
-8.4768625e-05
9.2328046e-05
-0.00010113873
9.4313258e-05
-0.00012044838
9.6477609e-05
-0.00014308115
9.8599759e-05
-0.00016938026
0.0001003203
-0.00019956549
0.00010117892
-0.00023360707
0.00010062754
-0.0002711766
9.7500144e-05
-0.00031114968
9.2140497e-05
-0.00035241827
8.5775851e-05
-0.00039557171
7.2979627e-05
-0.00043692407
4.4404437e-05
-0.0004619139
-2.2740888e-06
-0.00045418134
-6.0224203e-05
-0.00041160144
-0.00012399102
-0.00034433272
-0.00020510364
-0.00024402082
-0.00030714631
-8.7269977e-05
-0.00043197497
0.00013855326
-0.00058534353
0.00044690815
-0.00077194767
0.00085161396
-0.00099373198
0.001361325
-0.0012420057
0.0019658333
-0.001530149
0.002668433
-0.0018411859
0.0034563258
-0.0021857021
0.0043030958
-0.0025424375
0.0052025189
-0.0029310661
0.0061419325
-0.0032377539
0.0070308253
-0.0034663127
0.0077547141
-0.0036219064
0.0081592775
-0.0035501033
0.0079698873
-0.0034685281
0.0073381169
-0.003092093
0.0062111615
0.0025951928
8.416369e-05
-5.8382737e-06
8.4366143e-05
-6.9922162e-06
8.4604715e-05
-8.3794825e-06
8.4887573e-05
-1.004231e-05
8.5218813e-05
-1.2035225e-05
8.5609035e-05
-1.4423912e-05
8.6064115e-05
-1.7286828e-05
8.6596e-05
-2.0717155e-05
8.721636e-05
-2.4827276e-05
8.7937891e-05
-2.9749777e-05
8.8780999e-05
-3.5642625e-05
8.9755915e-05
-4.2693646e-05
9.0888697e-05
-5.1122772e-05
9.2201342e-05
-6.1188765e-05
9.3709547e-05
-7.3191538e-05
9.5416939e-05
-8.7468622e-05
9.7342861e-05
-0.00010438933
9.9514775e-05
-0.00012434655
0.0001018769
-0.00014773217
0.00010424565
-0.00017490165
0.00010627347
-0.00020607621
0.00010750795
-0.00024122745
0.00010734043
-0.00027996196
0.00010468753
-0.00032109558
0.00010008279
-0.00036365286
9.4461377e-05
-0.00040825765
8.1799706e-05
-0.00045054087
5.3233075e-05
-0.00047491691
7.2586821e-06
-0.00046515128
-4.9738545e-05
-0.00041947332
-0.00011234911
-0.0003479967
-0.00019232301
-0.00024186216
-0.0002932097
-7.6439307e-05
-0.00041667391
0.00016100627
-0.00056890883
0.00048475373
-0.00075492528
0.00091089005
-0.0009773247
0.0014504132
-0.0012258321
0.0020913317
-0.001514764
0.002835214
-0.0018262908
0.0036691725
-0.0021726028
0.0045665508
-0.0025325244
0.0055215857
-0.0029239771
0.0065184385
-0.0032365954
0.0074609374
-0.0034733206
0.0082263591
-0.0036352768
0.008655994
-0.0035661623
0.0084590026
-0.0034789628
0.0077838226
-0.0030963526
0.0065855672
0.0027673225
8.7671459e-05
-6.0204817e-06
8.7885854e-05
-7.2109437e-06
8.8138263e-05
-8.641839e-06
8.8436881e-05
-1.0356739e-05
8.8786534e-05
-1.2412564e-05
8.9198238e-05
-1.4876768e-05
8.9678844e-05
-1.7829861e-05
9.0242273e-05
-2.1369248e-05