/*--------------------------------*- C++ -*----------------------------------*\
  =========                 |
  \\      /  F ield         | OpenFOAM: The Open Source CFD Toolbox
   \\    /   O peration     | Website:  https://openfoam.org
    \\  /    A nd           | Version:  8
     \\/     M anipulation  |
\*---------------------------------------------------------------------------*/
FoamFile
{
    version     2.0;
    format      ascii;
    class       volScalarField;
    location    "0.219989";
    object      nut;
}
// * * * * * * * * * * * * * * * * * * * * * * * * * * * * * * * * * * * * * //

dimensions      [0 2 -1 0 0 0 0];

internalField   nonuniform List<scalar> 
20000
(
0.001132396
0.0025746014
0.003204219
0.0031253806
0.0022166726
0.00049363921
1.1376554e-07
5.6082039e-09
5.1679898e-09
5.143602e-09
5.0138075e-09
5.0394587e-09
4.9601551e-09
4.9956256e-09
4.9899345e-09
5.0242915e-09
5.0445249e-09
5.0877918e-09
5.131923e-09
5.1941053e-09
5.2644687e-09
5.3515376e-09
5.4507604e-09
5.5706534e-09
5.7107489e-09
5.8671437e-09
6.0384426e-09
6.2198914e-09
6.4060867e-09
6.5887896e-09
6.7602403e-09
6.9144447e-09
7.0472088e-09
7.1574932e-09
7.2460065e-09
7.3148138e-09
7.3661119e-09
7.4047566e-09
7.4359572e-09
7.4548416e-09
7.463325e-09
7.4662173e-09
7.4674072e-09
7.4607814e-09
7.4468106e-09
7.4345086e-09
7.4168933e-09
7.3764175e-09
7.3426229e-09
7.2860882e-09
0.0011210377
0.0025173082
0.0030991067
0.0029771765
0.0019886586
0.00037376683
4.0142679e-08
5.5326129e-09
5.1225098e-09
5.1022777e-09
4.9761063e-09
5.0033396e-09
4.9251835e-09
4.9615288e-09
4.9569459e-09
4.9923464e-09
5.0140649e-09
5.0588517e-09
5.1046918e-09
5.1683982e-09
5.2403949e-09
5.3296682e-09
5.4333121e-09
5.5595101e-09
5.7056229e-09
5.8668918e-09
6.041646e-09
6.2274062e-09
6.4162896e-09
6.6004216e-09
6.7719919e-09
6.9252396e-09
7.0564767e-09
7.1650156e-09
7.2519124e-09
7.3191689e-09
7.3691934e-09
7.4080216e-09
7.4384835e-09
7.4565548e-09
7.4642812e-09
7.4665017e-09
7.4669708e-09
7.4596339e-09
7.4458543e-09
7.434367e-09
7.4172538e-09
7.3778488e-09
7.347123e-09
7.2884722e-09
0.0011108908
0.0024628758
0.0029923785
0.0028259528
0.0017568883
0.0002651261
1.8140909e-08
5.4706941e-09
5.0809817e-09
5.0638955e-09
4.9416978e-09
4.9701384e-09
4.8932064e-09
4.9301515e-09
4.9268945e-09
4.9632954e-09
4.9864653e-09
5.0325745e-09
5.0798126e-09
5.144896e-09
5.2189188e-09
5.3120215e-09
5.4234344e-09
5.556283e-09
5.7054933e-09
5.8695032e-09
6.0490807e-09
6.238528e-09
6.4300795e-09
6.6153039e-09
6.7865463e-09
6.9383816e-09
7.0675944e-09
7.1739629e-09
7.2588723e-09
7.3242509e-09
7.3728417e-09
7.4118516e-09
7.4416924e-09
7.458757e-09
7.465689e-09
7.467147e-09
7.4664455e-09
7.4585836e-09
7.4452348e-09
7.434065e-09
7.4155257e-09
7.3722191e-09
7.3348723e-09
7.2927312e-09
0.0011008356
0.0024105302
0.0028938429
0.0026736948
0.0015321176
0.00017185722
1.0726129e-08
5.4153971e-09
5.0419214e-09
5.0281337e-09
4.9098294e-09
4.9396106e-09
4.8639886e-09
4.9016822e-09
4.8998011e-09
4.9372282e-09
4.961774e-09
5.0089856e-09
5.0575976e-09
5.1246746e-09
5.2024659e-09
5.3027469e-09
5.4198691e-09
5.5554558e-09
5.7071056e-09
5.8772046e-09
6.0615519e-09
6.2548996e-09
6.4487053e-09
6.634507e-09
6.8048044e-09
6.9545877e-09
7.0811781e-09
7.1848549e-09
7.2673117e-09
7.3303917e-09
7.3773585e-09
7.4163283e-09
7.4447051e-09
7.4607191e-09
7.4670694e-09
7.4681802e-09
7.4661761e-09
7.4576151e-09
7.444823e-09
7.4339443e-09
7.415083e-09
7.3633357e-09
7.3309441e-09
7.2948949e-09
0.0010907421
0.0023584101
0.0027961111
0.0025249742
0.0013172687
9.320954e-05
7.817912e-09
5.3658791e-09
5.0064146e-09
4.9957313e-09
4.8811995e-09
4.9123101e-09
4.8379705e-09
4.876402e-09
4.8759118e-09
4.9142769e-09
4.9400701e-09
4.9883938e-09
5.0390031e-09
5.1095954e-09
5.1942941e-09
5.2992685e-09
5.4192318e-09
5.557416e-09
5.7146224e-09
5.8898162e-09
6.0790529e-09
6.2759497e-09
6.4716377e-09
6.657468e-09
6.8262024e-09
6.9733326e-09
7.0967594e-09
7.1972874e-09
7.2768916e-09
7.3373552e-09
7.3825997e-09
7.4211855e-09
7.4480477e-09
7.462963e-09
7.4687454e-09
7.4695749e-09
7.4663376e-09
7.4565583e-09
7.4443396e-09
7.4333325e-09
7.4127381e-09
7.3636341e-09
7.3311572e-09
7.2961473e-09
0.0010806068
0.0023073579
0.002699667
0.0023765007
0.0011148651
3.801041e-05
6.5438054e-09
5.3205371e-09
4.9741367e-09
4.9665187e-09
4.855707e-09
4.8882158e-09
4.8152051e-09
4.854387e-09
4.8552427e-09
4.8944706e-09
4.9217198e-09
4.9719613e-09
5.0265198e-09
5.1029726e-09
5.1913316e-09
5.2987184e-09
5.4211575e-09
5.5646256e-09
5.7269984e-09
5.9078484e-09
6.1018315e-09
6.3020394e-09
6.4991042e-09
6.6843403e-09
6.8508491e-09
6.9946918e-09
7.1143938e-09
7.2113065e-09
7.2876465e-09
7.3451998e-09
7.3886674e-09
7.4263898e-09
7.4515512e-09
7.4653364e-09
7.4705305e-09
7.4712686e-09
7.4666499e-09
7.4550572e-09
7.4437643e-09
7.4320348e-09
7.4082555e-09
7.3641606e-09
7.3309834e-09
7.2975459e-09
0.0010703604
0.002256663
0.0026042315
0.0022269054
0.00092816906
1.1575162e-05
5.9427917e-09
5.281717e-09
4.9454432e-09
4.9407935e-09
4.8335963e-09
4.8675025e-09
4.7958662e-09
4.8357809e-09
4.8379945e-09
4.8783372e-09
4.9079583e-09
4.962348e-09
5.0215484e-09
5.1005787e-09
5.1909586e-09
5.3007593e-09
5.4282821e-09
5.5768321e-09
5.7450284e-09
5.9313477e-09
6.1299439e-09
6.3330553e-09
6.530935e-09
6.714903e-09
6.8784971e-09
7.0184281e-09
7.1338708e-09
7.2267279e-09
7.2994185e-09
7.3538364e-09
7.3955639e-09
7.4318411e-09
7.4551037e-09
7.4676577e-09
7.4723754e-09
7.4731803e-09
7.4669927e-09
7.4534565e-09
7.443071e-09
7.4303502e-09
7.4030695e-09
7.3631258e-09
7.3311757e-09
7.2993795e-09
0.0010600074
0.0022066584
0.0025099024
0.0020774773
0.00075915689
2.9757032e-06
5.6422134e-09
5.2476082e-09
4.920426e-09
4.9187043e-09
4.8149115e-09
4.8501486e-09
4.7801367e-09
4.8209386e-09
4.8249464e-09
4.8676531e-09
4.9012877e-09
4.9585727e-09
5.0200407e-09
5.1004354e-09
5.1934618e-09
5.3078187e-09
5.4402462e-09
5.594533e-09
5.768606e-09
5.9604885e-09
6.1634571e-09
6.3690167e-09
6.5670645e-09
6.7490398e-09
6.9090109e-09
7.0444041e-09
7.1550703e-09
7.2434469e-09
7.3121169e-09
7.3632184e-09
7.4032955e-09
7.4374741e-09
7.4585638e-09
7.4699029e-09
7.4741996e-09
7.4751821e-09
7.4674859e-09
7.4533829e-09
7.4422402e-09
7.4282995e-09
7.3976272e-09
7.3610055e-09
7.3301482e-09
7.3054377e-09
0.0010497808
0.0021577492
0.0024164743
0.0019278468
0.0006088987
7.5244667e-07
5.4817917e-09
5.2180422e-09
4.8992767e-09
4.9006326e-09
4.7998907e-09
4.8367812e-09
4.7686599e-09
4.8109833e-09
4.8180494e-09
4.8631612e-09
4.898794e-09
4.9575889e-09
5.020205e-09
5.1034677e-09
5.2006795e-09
5.3195752e-09
5.4575817e-09
5.6177806e-09
5.7979709e-09
5.9953292e-09
6.2023653e-09
6.4098179e-09
6.607318e-09
6.7865348e-09
6.9421631e-09
7.0724058e-09
7.1778075e-09
7.2613037e-09
7.3256089e-09
7.3732581e-09
7.4117462e-09
7.4432951e-09
7.462179e-09
7.4721252e-09
7.4759863e-09
7.477141e-09
7.4682737e-09
7.4533419e-09
7.4412079e-09
7.4258775e-09
7.3921886e-09
7.3579163e-09
7.3255781e-09
7.3192383e-09
0.0010400208
0.0021106879
0.0023245696
0.0017743874
0.00047814718
2.1255718e-07
5.3896878e-09
5.1930785e-09
4.8831033e-09
4.8862008e-09
4.7893322e-09
4.8268444e-09
4.7627728e-09
4.806438e-09
4.8153302e-09
4.8615873e-09
4.8983828e-09
4.95825e-09
5.0241245e-09
5.1109207e-09
5.2124927e-09
5.3365265e-09
5.4803315e-09
5.6467722e-09
5.8331745e-09
6.0359116e-09
6.2466189e-09
6.4553287e-09
6.6515014e-09
6.827162e-09
6.9777248e-09
7.1022232e-09
7.2019034e-09
7.2801441e-09
7.3397764e-09
7.3838803e-09
7.420717e-09
7.4493139e-09
7.4659472e-09
7.4743742e-09
7.477723e-09
7.4789257e-09
7.4694477e-09
7.453262e-09
7.4398915e-09
7.423068e-09
7.3869491e-09
7.3529696e-09
7.3235642e-09
7.3177802e-09
0.0010306776
0.0020658527
0.0022383454
0.0016176499
0.00037040406
7.3751665e-08
5.3423864e-09
5.1715511e-09
4.8768554e-09
4.8750189e-09
4.7801201e-09
4.8155878e-09
4.7603562e-09
4.8045169e-09
4.8146344e-09
4.8613769e-09
4.900298e-09
4.9630124e-09
5.0321351e-09
5.1228556e-09
5.229277e-09
5.3587176e-09
5.5087034e-09
5.6816095e-09
5.8743101e-09
6.08223e-09
6.2961232e-09
6.5053658e-09
6.6993745e-09
6.8706564e-09
7.0154353e-09
7.1336192e-09
7.2271553e-09
7.2997947e-09
7.3545e-09
7.3950329e-09
7.4300374e-09
7.4554501e-09
7.4696924e-09
7.4767023e-09
7.4794245e-09
7.4803207e-09
7.4697631e-09
7.4533057e-09
7.4378089e-09
7.4199263e-09
7.3818311e-09
7.3479272e-09
7.3242061e-09
7.3058681e-09
0.0010215437
0.0020222572
0.0021595999
0.0014574095
0.00027507414
3.1685067e-08
5.3196778e-09
5.1544787e-09
4.8687231e-09
4.8655598e-09
4.7698922e-09
4.8051515e-09
4.7594504e-09
4.803844e-09
4.8156962e-09
4.864424e-09
4.9061073e-09
4.9716316e-09
5.0445867e-09
5.1395579e-09
5.2511254e-09
5.3863512e-09
5.5428032e-09
5.7223947e-09
5.9213991e-09
6.1342291e-09
6.3507271e-09
6.5597006e-09
6.7506616e-09
6.9167289e-09
7.055017e-09
7.1663472e-09
7.253353e-09
7.3200777e-09
7.3696747e-09
7.4067113e-09
7.4395112e-09
7.4616241e-09
7.4734952e-09
7.4791191e-09
7.4811492e-09
7.4813866e-09
7.4698863e-09
7.4535045e-09
7.434312e-09
7.4165797e-09
7.3765233e-09
7.3428187e-09
7.3229711e-09
7.285788e-09
0.0010125817
0.0019787639
0.0020775829
0.0012948388
0.00019131973
1.7171788e-08
5.3034681e-09
5.1439875e-09
4.8583103e-09
4.8559281e-09
4.7594282e-09
4.7970185e-09
4.7599732e-09
4.8060356e-09
4.820401e-09
4.8711552e-09
4.9158666e-09
4.9846231e-09
5.061602e-09
5.1611341e-09
5.2781987e-09
5.4195298e-09
5.5827495e-09
5.7692005e-09
5.9744521e-09
6.1918235e-09
6.4102464e-09
6.618071e-09
6.8050575e-09
6.9650641e-09
7.0961728e-09
7.200148e-09
7.2802754e-09
7.3408111e-09
7.3852048e-09
7.4189425e-09
7.4489301e-09
7.467753e-09
7.4773104e-09
7.4815733e-09
7.4829611e-09
7.4823082e-09
7.4700641e-09
7.4539808e-09
7.434005e-09
7.4130627e-09
7.3708276e-09
7.3376653e-09
7.3197647e-09
7.2876552e-09
0.0010039093
0.0019362459
0.0019981722
0.0011355556
0.00011876876
1.1417947e-08
5.291965e-09
5.1334161e-09
4.8522936e-09
4.8479246e-09
4.7542333e-09
4.7922448e-09
4.7639554e-09
4.8119503e-09
4.8289408e-09
4.881958e-09
4.9298903e-09
5.0020106e-09
5.0833258e-09
5.1877171e-09
5.3106045e-09
5.458368e-09
5.6286285e-09
5.8220619e-09
6.0334279e-09
6.2548657e-09
6.4744376e-09
6.6801669e-09
6.8622192e-09
7.0153171e-09
7.1385899e-09
7.2347605e-09
7.3077042e-09
7.3618242e-09
7.401009e-09
7.431699e-09
7.4581228e-09
7.4737767e-09
7.4811356e-09
7.4840879e-09
7.4848054e-09
7.4826634e-09
7.4701048e-09
7.4547855e-09
7.4356189e-09
7.409206e-09
7.364972e-09
7.3321597e-09
7.3159685e-09
7.2923611e-09
0.00099527046
0.0018927944
0.0019182479
0.00098831848
6.1583359e-05
8.8512833e-09
5.2909721e-09
5.1237201e-09
4.8554558e-09
4.850434e-09
4.7570505e-09
4.7957853e-09
4.7721554e-09
4.8218965e-09
4.8415359e-09
4.8968707e-09
4.9481867e-09
5.0239228e-09
5.1098306e-09
5.2193902e-09
5.3484379e-09
5.5029579e-09
5.6805146e-09
5.881011e-09
6.0982663e-09
6.3231904e-09
6.5430349e-09
6.7456521e-09
6.9217732e-09
7.067116e-09
7.1819438e-09
7.2699229e-09
7.3354281e-09
7.3829663e-09
7.4170226e-09
7.4446975e-09
7.4670937e-09
7.4796322e-09
7.4849188e-09
7.4867748e-09
7.4865814e-09
7.4826826e-09
7.4701787e-09
7.4561796e-09
7.4389359e-09
7.4047896e-09
7.3593501e-09
7.3305421e-09
7.3149767e-09
7.2956923e-09
0.00098631089
0.001846985
0.0018371591
0.00085209111
2.5724127e-05
7.5982984e-09
5.2845354e-09
5.1184043e-09
4.8594095e-09
4.8552971e-09
4.7662193e-09
4.8061942e-09
4.7844983e-09
4.8356665e-09
4.8580897e-09
4.9158743e-09
4.9708211e-09
5.050399e-09
5.1411891e-09
5.2562351e-09
5.3917758e-09
5.5533805e-09
5.7384572e-09
5.9460309e-09
6.168849e-09
6.396568e-09
6.6157137e-09
6.8141369e-09
6.9832988e-09
7.1200669e-09
7.2259141e-09
7.3053906e-09
7.3632506e-09
7.4041183e-09
7.4332042e-09
7.457688e-09
7.4757711e-09
7.485285e-09
7.4887031e-09
7.4896793e-09
7.4882469e-09
7.4826466e-09
7.4700096e-09
7.4569715e-09
7.4394868e-09
7.3994345e-09
7.35443e-09
7.3291664e-09
7.3145413e-09
7.2989862e-09
0.00097710098
0.0017991674
0.0017537348
0.00072715178
9.0095096e-06
6.9389908e-09
5.2761606e-09
5.1161062e-09
4.865313e-09
4.8628068e-09
4.7781015e-09
4.8190788e-09
4.8003695e-09
4.85321e-09
4.8786042e-09
4.9390237e-09
4.9978155e-09
5.0814852e-09
5.1774544e-09
5.2983188e-09
5.4407034e-09
5.6097183e-09
5.8025144e-09
6.0171098e-09
6.2450533e-09
6.4747565e-09
6.6921259e-09
6.8851961e-09
7.0463485e-09
7.1737814e-09
7.2702041e-09
7.340932e-09
7.3909834e-09
7.4251863e-09
7.449519e-09
7.4703748e-09
7.4840913e-09
7.4907552e-09
7.4926237e-09
7.4926538e-09
7.4899343e-09
7.482511e-09
7.4696404e-09
7.4570938e-09
7.4393321e-09
7.3931297e-09
7.350329e-09
7.3280752e-09
7.3144288e-09
7.3016832e-09
0.00096744875
0.0017484973
0.0016664052
0.00061335557
2.8851357e-06
6.5755426e-09
5.2701746e-09
5.1177641e-09
4.8742182e-09
4.8742611e-09
4.7929493e-09
4.835736e-09
4.8199488e-09
4.8745528e-09
4.903089e-09
4.96632e-09
5.0291911e-09
5.1172142e-09
5.2186786e-09
5.3457099e-09
5.4953005e-09
5.6720371e-09
5.8727085e-09
6.0941737e-09
6.3266873e-09
6.5574342e-09
6.7718448e-09
6.9583385e-09
7.1104619e-09
7.2279152e-09
7.3145626e-09
7.3763225e-09
7.4184402e-09
7.4460866e-09
7.4658764e-09
7.4824867e-09
7.4920243e-09
7.4961102e-09
7.4967165e-09
7.4956034e-09
7.4916144e-09
7.4821529e-09
7.4691617e-09
7.4570725e-09
7.4385121e-09
7.3858811e-09
7.3465725e-09
7.3269876e-09
7.3143834e-09
7.3033953e-09
0.00095718822
0.0016944758
0.0015685967
0.00051079796
9.2280362e-07
6.3707756e-09
5.2677831e-09
5.122631e-09
4.8862519e-09
4.8888749e-09
4.8114079e-09
4.8558773e-09
4.8431945e-09
4.8996754e-09
4.9315292e-09
4.997775e-09
5.0649594e-09
5.1576222e-09
5.2649188e-09
5.398492e-09
5.555664e-09
5.7404294e-09
5.9490815e-09
6.1771654e-09
6.4135583e-09
6.6442648e-09
6.8544131e-09
7.0330572e-09
7.1752325e-09
7.2822138e-09
7.3587827e-09
7.4113215e-09
7.4454171e-09
7.4667165e-09
7.4820191e-09
7.4938722e-09
7.4996163e-09
7.5015617e-09
7.5007721e-09
7.4984641e-09
7.4931457e-09
7.4818881e-09
7.4686163e-09
7.4568308e-09
7.4357311e-09
7.3772268e-09
7.3451829e-09
7.3243325e-09
7.3147797e-09
7.3049378e-09
0.00094648404
0.0016384385
0.0014632502
0.00041892484
3.1712353e-07
6.2523231e-09
5.2692748e-09
5.1311798e-09
4.9017155e-09
4.9072308e-09
4.8332912e-09
4.8795626e-09
4.8700904e-09
4.9285561e-09
4.9639175e-09
5.0333835e-09
5.1051413e-09
5.2027532e-09
5.3162427e-09
5.4567549e-09
5.6218862e-09
5.814963e-09
6.0316208e-09
6.2659501e-09
6.505378e-09
6.7348128e-09
6.9392888e-09
7.1088492e-09
7.2403568e-09
7.3365022e-09
7.4026492e-09
7.4456507e-09
7.4717058e-09
7.4869374e-09
7.4975319e-09
7.5045986e-09
7.5070427e-09
7.5070683e-09
7.5047025e-09
7.501146e-09
7.4945374e-09
7.4817223e-09
7.4680027e-09
7.4557071e-09
7.4284837e-09
7.3730847e-09
7.3428058e-09
7.321164e-09
7.3162023e-09
7.306238e-09
0.00093539014
0.0015808309
0.001351297
0.00033744042
1.227155e-07
6.1782782e-09
5.2744459e-09
5.1430617e-09
4.920488e-09
4.928754e-09
4.8585514e-09
4.9066813e-09
4.9005828e-09
4.9611675e-09
5.0002373e-09
5.0731629e-09
5.149769e-09
5.2526695e-09
5.3727484e-09
5.5206197e-09
5.6940986e-09
5.8957341e-09
6.1203495e-09
6.360406e-09
6.6018543e-09
6.8286129e-09
7.0259309e-09
7.1853231e-09
7.3056664e-09
7.3905801e-09
7.4458257e-09
7.4789917e-09
7.4971551e-09
7.5065696e-09
7.5121636e-09
7.5147892e-09
7.5145142e-09
7.5123901e-09
7.5084788e-09
7.5035894e-09
7.4956378e-09
7.481574e-09
7.4673145e-09
7.453654e-09
7.419386e-09
7.3704216e-09
7.3387699e-09
7.3217845e-09
7.3216785e-09
7.3074138e-09
0.0009238577
0.0015214581
0.0012362508
0.00026662421
5.5444343e-08
6.1315988e-09
5.2830123e-09
5.1581862e-09
4.9426003e-09
4.9535414e-09
4.8871206e-09
4.9372113e-09
4.9346616e-09
4.9974965e-09
5.0404989e-09
5.117142e-09
5.198897e-09
5.3074625e-09
5.4345467e-09
5.5902179e-09
5.7724088e-09
5.9828081e-09
6.2151996e-09
6.4603117e-09
6.7025618e-09
6.9250931e-09
7.1138056e-09
7.2622358e-09
7.3710041e-09
7.4439717e-09
7.4877142e-09
7.5111526e-09
7.5217298e-09
7.5254004e-09
7.5259435e-09
7.5248079e-09
7.5216573e-09
7.5175322e-09
7.5120789e-09
7.5057908e-09
7.4960789e-09
7.4813664e-09
7.466484e-09
7.450547e-09
7.4104903e-09
7.3662104e-09
7.3346205e-09
7.3227267e-09
7.3221361e-09
7.3085977e-09
0.00091218522
0.0014596202
0.0011273231
0.00020227822
2.924573e-08
6.1007577e-09
5.2949086e-09
5.176447e-09
4.9678196e-09
4.9814814e-09
4.918977e-09
4.9711403e-09
4.9723014e-09
5.0375498e-09
5.0847126e-09
5.1653516e-09
5.2526132e-09
5.3672538e-09
5.5017964e-09
5.6657164e-09
5.856983e-09
6.0762776e-09
6.3161512e-09
6.5654389e-09
6.8070645e-09
7.023702e-09
7.2025301e-09
7.3394978e-09
7.4359452e-09
7.4958909e-09
7.5279435e-09
7.5419866e-09
7.5453422e-09
7.5433995e-09
7.5392522e-09
7.5343125e-09
7.5285054e-09
7.5224384e-09
7.5154985e-09
7.507841e-09
7.4962267e-09
7.4810144e-09
7.4654332e-09
7.4464609e-09
7.4017657e-09
7.3604996e-09
7.3335163e-09
7.3233995e-09
7.3175997e-09
7.3098557e-09
0.00090084614
0.0013999746
0.0010188849
0.0001423162
1.8044626e-08
6.0802763e-09
5.3101267e-09
5.1977854e-09
4.9961615e-09
5.0126041e-09
4.9541327e-09
5.0084436e-09
5.0135132e-09
5.0813326e-09
5.1329312e-09
5.2178872e-09
5.3110436e-09
5.4321963e-09
5.5746622e-09
5.7472767e-09
5.9479448e-09
6.1761699e-09
6.4230557e-09
6.6754129e-09
6.9147889e-09
7.1238751e-09
7.2918746e-09
7.4168818e-09
7.499518e-09
7.5457986e-09
7.5662381e-09
7.5715896e-09
7.5682203e-09
7.5605202e-09
7.5518211e-09
7.5433752e-09
7.5349966e-09
7.5270895e-09
7.5187247e-09
7.5098233e-09
7.4962452e-09
7.4804655e-09
7.4641456e-09
7.4416673e-09
7.3932783e-09
7.3544585e-09
7.3326042e-09
7.3237448e-09
7.3176041e-09
7.311472e-09
0.00089006881
0.0013436553
0.0009121485
8.9973383e-05
1.2805545e-08
6.0669893e-09
5.3286876e-09
5.2223027e-09
5.0275929e-09
5.0468566e-09
4.9925468e-09
5.0491048e-09
5.0583032e-09
5.128902e-09
5.1852497e-09
5.2748799e-09
5.3743446e-09
5.5024797e-09
5.653352e-09
5.8351136e-09
6.0454711e-09
6.282555e-09
6.5357886e-09
6.7898531e-09
7.0251899e-09
7.2252135e-09
7.3817722e-09
7.4935032e-09
7.560971e-09
7.5932398e-09
7.6029194e-09
7.6002473e-09
7.5898731e-09
7.5767205e-09
7.5636984e-09
7.5519214e-09
7.5411303e-09
7.5314603e-09
7.5217205e-09
7.511686e-09
7.4962246e-09
7.4797872e-09
7.4626282e-09
7.4360118e-09
7.3849879e-09
7.3491557e-09
7.3314202e-09
7.3246455e-09
7.3224375e-09
7.3168884e-09
0.00087957287
0.0012866537
0.0008083874
4.9342247e-05
1.0152043e-08
6.058921e-09
5.3501467e-09
5.249802e-09
5.062e-09
5.0842104e-09
5.0342076e-09
5.0931652e-09
5.106751e-09
5.1803782e-09
5.2418148e-09
5.3365014e-09
5.4427075e-09
5.5783098e-09
5.73807e-09
5.9294154e-09
6.1496705e-09
6.3953897e-09
6.6540488e-09
6.9082114e-09
7.1376647e-09
7.3274454e-09
7.4719375e-09
7.5681714e-09
7.6195525e-09
7.6383662e-09
7.6385257e-09
7.6273468e-09
7.6103562e-09
7.5919499e-09
7.5748286e-09
7.5599523e-09
7.5468855e-09
7.5355429e-09
7.524464e-09
7.5132143e-09
7.4960742e-09
7.4790245e-09
7.4608552e-09
7.4291598e-09
7.3771487e-09
7.3446561e-09
7.3295644e-09
7.3249897e-09
7.3254317e-09
7.3312481e-09
0.00086944699
0.0012292096
0.00070926003
2.3324206e-05
8.7282128e-09
6.0559753e-09
5.3747188e-09
5.2803049e-09
5.0994669e-09
5.1246971e-09
5.0791954e-09
5.1407374e-09
5.1590066e-09
5.2359251e-09
5.3028004e-09
5.4029369e-09
5.5163451e-09
5.659925e-09
5.8290771e-09
6.0304267e-09
6.2607158e-09
6.5146604e-09
6.7775507e-09
7.0299743e-09
7.2517804e-09
7.4304868e-09
7.5611773e-09
7.6400755e-09
7.6749406e-09
7.682097e-09
7.6723043e-09
7.652957e-09
7.6295595e-09
7.6061842e-09
7.5852073e-09
7.5674444e-09
7.5522536e-09
7.5393392e-09
7.5269509e-09
7.5139178e-09
7.4957972e-09
7.4782771e-09
7.4587459e-09
7.4210159e-09
7.3701313e-09
7.3405442e-09
7.3290875e-09
7.3246091e-09
7.3214104e-09
7.3295846e-09
0.0008597962
0.0011709795
0.00061588885
9.8030858e-06
7.9297673e-09
6.0587548e-09
5.4022436e-09
5.3137685e-09
5.1400082e-09
5.1684159e-09
5.1276731e-09
5.1920016e-09
5.215254e-09
5.2957187e-09
5.3683896e-09
5.4744011e-09
5.5954934e-09
5.7475735e-09
5.9266127e-09
6.1383371e-09
6.3786627e-09
6.6401698e-09
6.905795e-09
7.1545158e-09
7.3671767e-09
7.5340256e-09
7.6481111e-09
7.7084201e-09
7.7279001e-09
7.723989e-09
7.7041946e-09
7.6769458e-09
7.6474763e-09
7.6194026e-09
7.5948231e-09
7.5743923e-09
7.5572238e-09
7.5428553e-09
7.5292435e-09
7.51428e-09
7.4954197e-09
7.4775992e-09
7.4561959e-09
7.4117752e-09
7.3641925e-09
7.3391268e-09
7.3290224e-09
7.3240143e-09
7.3179776e-09
7.3158632e-09
0.00085069617
0.0011133428
0.0005292348
3.8883871e-06
7.4681118e-09
6.0689949e-09
5.4327697e-09
5.3504779e-09
5.1838683e-09
5.2156521e-09
5.1798624e-09
5.2471467e-09
5.2756589e-09
5.3599292e-09
5.4387746e-09
5.5511257e-09
5.6804165e-09
5.8415533e-09
6.0309788e-09
6.2534118e-09
6.5036183e-09
6.7717532e-09
7.0383233e-09
7.281369e-09
7.4837108e-09
7.6367942e-09
7.7317695e-09
7.7729546e-09
7.7792465e-09
7.7634857e-09
7.7340675e-09
7.6993052e-09
7.6640773e-09
7.6316002e-09
7.6036787e-09
7.580792e-09
7.5617889e-09
7.5460902e-09
7.5314093e-09
7.5144347e-09
7.494956e-09
7.4769257e-09
7.4529976e-09
7.4022023e-09
7.3594119e-09
7.3382062e-09
7.3291398e-09
7.3238703e-09
7.3187546e-09
7.3083254e-09
0.00084189094
0.0010576714
0.00044951884
1.5380087e-06
7.1948686e-09
6.0823058e-09
5.4668222e-09
5.3906177e-09
5.2313109e-09
5.2665691e-09
5.2358988e-09
5.3062878e-09
5.3403557e-09
5.4287357e-09
5.5141998e-09
5.6333709e-09
5.7714072e-09
5.9421496e-09
6.1424465e-09
6.3758009e-09
6.6355192e-09
6.9089838e-09
7.1745075e-09
7.4100382e-09
7.6010823e-09
7.7372316e-09
7.8112371e-09
7.8347349e-09
7.8281257e-09
7.8005737e-09
7.7618922e-09
7.720005e-09
7.6793641e-09
7.6427838e-09
7.6117848e-09
7.5866475e-09
7.5659467e-09
7.5490275e-09
7.533376e-09
7.5145174e-09
7.494453e-09
7.4760703e-09
7.4487073e-09
7.3931513e-09
7.3555662e-09
7.3377709e-09
7.3292696e-09
7.3238869e-09
7.3197198e-09
7.3121018e-09
0.00083264366
0.0009945652
0.00037673017
6.3572787e-07
7.0317409e-09
6.0999538e-09
5.5045164e-09
5.4343554e-09
5.2824291e-09
5.3211669e-09
5.2958608e-09
5.3695209e-09
5.409598e-09
5.5023892e-09
5.5948989e-09
5.7214486e-09
5.8687845e-09
6.0497206e-09
6.2613408e-09
6.505747e-09
6.7743168e-09
7.0515123e-09
7.3138467e-09
7.5402696e-09
7.7182477e-09
7.8341078e-09
7.8862152e-09
7.8944463e-09
7.8740684e-09
7.8351336e-09
7.7876414e-09
7.7390485e-09
7.6933474e-09
7.6529734e-09
7.619158e-09
7.5919658e-09
7.5697071e-09
7.5516695e-09
7.5348613e-09
7.5145522e-09
7.4939476e-09
7.4748067e-09
7.442699e-09
7.3856306e-09
7.3531815e-09
7.3372679e-09
7.3277183e-09
7.3239814e-09
7.3205747e-09
7.3152634e-09
0.00082360134
0.00093113345
0.00031138713
2.8451638e-07
6.9355224e-09
6.1215026e-09
5.5456234e-09
5.4815938e-09
5.3370477e-09
5.3795325e-09
5.3598514e-09
5.4370746e-09
5.4834579e-09
5.5811256e-09
5.6811998e-09
5.8156895e-09
5.9728971e-09
6.1645933e-09
6.3879325e-09
6.6433009e-09
6.9197326e-09
7.1987178e-09
7.4557594e-09
7.6717461e-09
7.8334606e-09
7.9263733e-09
7.9577477e-09
7.9512232e-09
7.9170117e-09
7.8671455e-09
7.8113178e-09
7.7564523e-09
7.7060577e-09
7.6621978e-09
7.6258151e-09
7.5967542e-09
7.5730946e-09
7.5540727e-09
7.5354778e-09
7.5144996e-09
7.4934741e-09
7.4729646e-09
7.4345315e-09
7.3806053e-09
7.3519168e-09
7.336344e-09
7.3268838e-09
7.3245944e-09
7.3213264e-09
7.3181566e-09
0.00081474818
0.00086424975
0.00025280857
1.4123101e-07
6.8791915e-09
6.1463377e-09
5.5899614e-09
5.53222e-09
5.3954481e-09
5.441861e-09
5.4281539e-09
5.5092033e-09
5.5622545e-09
5.6652582e-09
5.7734213e-09
5.916441e-09
6.0841282e-09
6.2871673e-09
6.5225557e-09
6.7885751e-09
7.0715201e-09
7.3501302e-09
7.5998779e-09
7.8038836e-09
7.9450425e-09
8.0133679e-09
8.0268248e-09
8.0044351e-09
7.9568618e-09
7.8965966e-09
7.8329436e-09
7.7722532e-09
7.7175319e-09
7.670481e-09
7.6317633e-09
7.6010185e-09
7.5761418e-09
7.5563199e-09
7.5357432e-09
7.5142622e-09
7.4930444e-09
7.470531e-09
7.4260568e-09
7.3765636e-09
7.3501106e-09
7.3349298e-09
7.3272152e-09
7.3253523e-09
7.3220382e-09
7.3209867e-09
0.00080537022
0.0007958832
0.00020091049
7.8924206e-08
6.8462409e-09
6.1750548e-09
5.6380328e-09
5.5867555e-09
5.4579303e-09
5.5084792e-09
5.5010527e-09
5.5861834e-09
5.6462841e-09
5.7550263e-09
5.8719165e-09
6.0240977e-09
6.2028717e-09
6.4178052e-09
6.6654057e-09
6.9414229e-09
7.2291286e-09
7.5050936e-09
7.7457635e-09
7.9347916e-09
8.0518204e-09
8.0960532e-09
8.0924972e-09
8.0540325e-09
7.9935964e-09
7.9235083e-09
7.8525635e-09
7.7864995e-09
7.7278024e-09
7.6778291e-09
7.6369997e-09
7.604774e-09
7.5788944e-09
7.5583545e-09
7.535834e-09
7.5139119e-09
7.4926374e-09
7.4675807e-09
7.4177325e-09
7.3727383e-09
7.3476111e-09
7.3330297e-09
7.3274408e-09
7.3260107e-09
7.322899e-09
7.3234153e-09
0.00079491145
0.00072448226
0.00015597908
4.9239093e-08
6.8299752e-09
6.2080365e-09
5.6901759e-09
5.6454447e-09
5.5247432e-09
5.5796011e-09
5.5787925e-09
5.6682838e-09
5.7358522e-09
5.8509439e-09
5.9770662e-09
6.1390713e-09
6.3295837e-09
6.5569357e-09
6.8167402e-09
7.1017409e-09
7.3921243e-09
7.6631509e-09
7.8930978e-09
8.0625713e-09
8.1527339e-09
8.1755171e-09
8.1541289e-09
8.0999076e-09
8.027223e-09
7.947928e-09
7.8702387e-09
7.7992364e-09
7.7368772e-09
7.6842257e-09
7.6415219e-09
7.6080628e-09
7.5814193e-09
7.5598022e-09
7.5358688e-09
7.5134953e-09
7.4921414e-09
7.4639984e-09
7.4097412e-09
7.3687675e-09
7.3450291e-09
7.3322613e-09
7.3276402e-09
7.3265893e-09
7.3239125e-09
7.3254956e-09
0.00078423975
0.00064655964
0.00011779869
3.3807306e-08
6.8255399e-09
6.2452702e-09
5.7464276e-09
5.7083761e-09
5.5960694e-09
5.6554367e-09
5.6616435e-09
5.7557967e-09
5.831301e-09
5.953379e-09
6.0893018e-09
6.2618326e-09
6.4647212e-09
6.7048997e-09
6.9765834e-09
7.2691062e-09
7.5598196e-09
7.823668e-09
8.0404012e-09
8.185559e-09
8.2482207e-09
8.2512958e-09
8.2114147e-09
8.1420454e-09
8.0577813e-09
7.9699267e-09
7.8860358e-09
7.8104913e-09
7.7447482e-09
7.6896719e-09
7.6453674e-09
7.6109796e-09
7.5837751e-09
7.5604354e-09
7.5358732e-09
7.5130223e-09
7.491263e-09
7.4591323e-09
7.4021663e-09
7.3644803e-09
7.3426602e-09
7.3319865e-09
7.3282338e-09
7.3269754e-09
7.3251981e-09
7.3276148e-09
0.0007751333
0.00059239314
8.6958583e-05
2.5111452e-08
6.8302185e-09
6.2868065e-09
5.8068554e-09
5.7758075e-09
5.6721082e-09
5.7363123e-09
5.7498787e-09
5.8490932e-09
5.9329889e-09
6.062712e-09
6.2090952e-09
6.3928984e-09
6.6088127e-09
6.8620983e-09
7.1450089e-09
7.4431872e-09
7.7317815e-09
7.986308e-09
8.1856468e-09
8.3024697e-09
8.3393639e-09
8.3226109e-09
8.2643023e-09
8.1804641e-09
8.0853491e-09
7.9895925e-09
7.9000103e-09
7.8202733e-09
7.7514382e-09
7.694263e-09
7.648662e-09
7.6136585e-09
7.5858881e-09
7.5607182e-09
7.5357035e-09
7.5125001e-09
7.4896932e-09
7.4523081e-09
7.3952476e-09
7.3600078e-09
7.3402762e-09
7.3320453e-09
7.3290313e-09
7.3275384e-09
7.3266476e-09
7.3293128e-09
0.00076675947
0.00054405036
6.1667556e-05
1.9835383e-08
6.8427084e-09
6.3328686e-09
5.8718706e-09
5.8479677e-09
5.7532632e-09
5.8224537e-09
5.8438671e-09
5.9485016e-09
6.0413536e-09
6.1794383e-09
6.3369886e-09
6.5328388e-09
6.762328e-09
7.0287508e-09
7.3217361e-09
7.6233303e-09
7.907273e-09
8.1503277e-09
8.3263964e-09
8.4126831e-09
8.4266424e-09
8.388784e-09
8.3127368e-09
8.2152201e-09
8.1100223e-09
8.0070082e-09
7.9122006e-09
7.828616e-09
7.757089e-09
7.6982501e-09
7.6516305e-09
7.6161876e-09
7.5873769e-09
7.5608371e-09
7.5353987e-09
7.5119211e-09
7.487183e-09
7.4435948e-09
7.3888017e-09
7.3558058e-09
7.3386574e-09
7.3320773e-09
7.3298343e-09
7.3284992e-09
7.3281993e-09
7.330984e-09
0.00075934918
0.00050262812
4.2273148e-05
1.6477739e-08
6.8621377e-09
6.3836769e-09
5.9416196e-09
5.9251847e-09
5.8397262e-09
5.9141971e-09
5.9439348e-09
6.0544743e-09
6.1569022e-09
6.304097e-09
6.4735874e-09
6.682251e-09
6.9258249e-09
7.2050764e-09
7.5065869e-09
7.8090487e-09
8.0858017e-09
8.3136412e-09
8.4612727e-09
8.5172271e-09
8.5090421e-09
8.4498235e-09
8.3567592e-09
8.2464181e-09
8.1319114e-09
8.0222388e-09
7.9226486e-09
7.8356568e-09
7.761997e-09
7.7019337e-09
7.6544605e-09
7.618445e-09
7.588048e-09
7.5609135e-09
7.534985e-09
7.5112508e-09
7.483626e-09
7.43377e-09
7.3823663e-09
7.3527451e-09
7.338158e-09
7.3322154e-09
7.330571e-09
7.3297171e-09
7.3298599e-09
7.3326423e-09
0.00075313477
0.00046730492
2.8047316e-05
1.4246749e-08
6.8881562e-09
6.4395052e-09
6.0164398e-09
6.0075918e-09
5.9318433e-09
6.0119217e-09
6.0505454e-09
6.1675339e-09
6.2801969e-09
6.4373468e-09
6.6195521e-09
6.8417734e-09
7.0996835e-09
7.3910154e-09
7.6989486e-09
7.9995712e-09
8.2665324e-09
8.4736445e-09
8.5885981e-09
8.6173804e-09
8.5856033e-09
8.5056147e-09
8.3964344e-09
8.2741741e-09
8.1511074e-09
8.0353331e-09
7.9314606e-09
7.8416919e-09
7.7664715e-09
7.705283e-09
7.6569643e-09
7.6198972e-09
7.5883468e-09
7.5609049e-09
7.5344673e-09
7.5103253e-09
7.4789801e-09
7.4236024e-09
7.3765673e-09
7.3503976e-09
7.3381476e-09
7.3328518e-09
7.3312705e-09
7.3311898e-09
7.3316207e-09
7.3343093e-09
0.00074835423
0.00043797683
1.8087182e-05
1.2716264e-08
6.9203451e-09
6.5004552e-09
6.0965406e-09
6.0955712e-09
6.0300429e-09
6.1161391e-09
6.1642508e-09
6.2882838e-09
6.4119045e-09
6.5798645e-09
6.7755901e-09
7.0120748e-09
7.2843345e-09
7.5865346e-09
7.8984018e-09
8.1943052e-09
8.4483588e-09
8.6280442e-09
8.7089713e-09
8.7123118e-09
8.6561654e-09
8.5562191e-09
8.431897e-09
8.2986213e-09
8.1676898e-09
8.0463832e-09
7.9388798e-09
7.847071e-09
7.7704065e-09
7.7074444e-09
7.658224e-09
7.6206138e-09
7.5884537e-09
7.560685e-09
7.5338372e-09
7.5089212e-09
7.4730573e-09
7.4139012e-09
7.3716459e-09
7.3485299e-09
7.3380407e-09
7.3338776e-09
7.3322592e-09
7.3327564e-09
7.333412e-09
7.3358478e-09
0.00074506433
0.00041470492
1.134609e-05
1.1640899e-08
6.9587216e-09
6.5669081e-09
6.1823661e-09
6.1897126e-09
6.1348811e-09
6.2274279e-09
6.2856726e-09
6.4173989e-09
6.5527482e-09
6.7324228e-09
6.9424711e-09
7.1937286e-09
7.4799126e-09
7.7911708e-09
8.1041414e-09
8.3922732e-09
8.6283686e-09
8.7749652e-09
8.8233525e-09
8.8010158e-09
8.7205953e-09
8.601691e-09
8.4632788e-09
8.3198675e-09
8.1817555e-09
8.0556225e-09
7.9452838e-09
7.8518305e-09
7.7727812e-09
7.7084307e-09
7.6588677e-09
7.6209562e-09
7.5884979e-09
7.5603127e-09
7.5331022e-09
7.506786e-09
7.465224e-09
7.405244e-09
7.367977e-09
7.347883e-09
7.338406e-09
7.3352134e-09
7.3336346e-09
7.3345038e-09
7.3352899e-09
7.3372942e-09
0.00074297735
0.00039759657
6.9014105e-06
1.0875004e-08
7.0037296e-09
6.6394333e-09
6.2745303e-09
6.2906157e-09
6.2469881e-09
6.3464262e-09
6.4154973e-09
6.555628e-09
6.7034865e-09
6.8958323e-09
7.1209855e-09