/*--------------------------------*- C++ -*----------------------------------*\
  =========                 |
  \\      /  F ield         | OpenFOAM: The Open Source CFD Toolbox
   \\    /   O peration     | Website:  https://openfoam.org
    \\  /    A nd           | Version:  8
     \\/     M anipulation  |
\*---------------------------------------------------------------------------*/
FoamFile
{
    version     2.0;
    format      ascii;
    class       volScalarField;
    location    "0.219989";
    object      nuTilda;
}
// * * * * * * * * * * * * * * * * * * * * * * * * * * * * * * * * * * * * * //

dimensions      [0 2 -1 0 0 0 0];

internalField   nonuniform List<scalar> 
20000
(
0.0011343069
0.0025749714
0.0032044548
0.0031256216
0.0022171262
0.00050174008
2.2010008e-05
1.0341389e-05
1.0141699e-05
1.0118636e-05
1.00569e-05
1.0058833e-05
1.0016317e-05
1.0021457e-05
1.0010368e-05
1.0011055e-05
1.0006246e-05
1.0005234e-05
1.0003397e-05
1.000288e-05
1.0002603e-05
1.0002765e-05
1.0002784e-05
1.0002583e-05
1.0002312e-05
1.0002009e-05
1.0001733e-05
1.0001513e-05
1.0001364e-05
1.0001312e-05
1.0001312e-05
1.0001327e-05
1.0001224e-05
1.0001104e-05
1.0000964e-05
1.0000821e-05
1.0000763e-05
1.000074e-05
1.0000701e-05
1.00007e-05
1.0000672e-05
1.0000687e-05
1.0000712e-05
1.0000691e-05
1.0000683e-05
1.0000649e-05
1.0000611e-05
1.0000824e-05
1.000155e-05
1.000228e-05
0.0011230071
0.0025176987
0.0030993606
0.0029774436
0.0019892227
0.00038716796
1.6983959e-05
1.0325906e-05
1.0138305e-05
1.0116766e-05
1.005613e-05
1.0058512e-05
1.0016013e-05
1.0021222e-05
1.0010238e-05
1.0010914e-05
1.0006196e-05
1.0005189e-05
1.0003378e-05
1.0002856e-05
1.0002583e-05
1.0002749e-05
1.0002783e-05
1.0002579e-05
1.0002309e-05
1.000201e-05
1.0001738e-05
1.0001521e-05
1.0001369e-05
1.0001305e-05
1.00013e-05
1.0001307e-05
1.0001214e-05
1.0001101e-05
1.0000968e-05
1.000082e-05
1.0000756e-05
1.0000738e-05
1.0000699e-05
1.0000698e-05
1.0000671e-05
1.0000678e-05
1.000068e-05
1.0000663e-05
1.0000652e-05
1.0000613e-05
1.0000582e-05
1.0000764e-05
1.0001506e-05
1.0002246e-05
0.0011129138
0.0024632868
0.0029926525
0.0028262504
0.0017576102
0.00028823946
1.3944299e-05
1.0314277e-05
1.0134884e-05
1.0114518e-05
1.0055377e-05
1.0058091e-05
1.0015725e-05
1.0020877e-05
1.0010108e-05
1.0010752e-05
1.0006139e-05
1.000514e-05
1.0003363e-05
1.0002846e-05
1.0002577e-05
1.0002734e-05
1.0002758e-05
1.0002563e-05
1.0002299e-05
1.0002003e-05
1.0001733e-05
1.0001521e-05
1.0001372e-05
1.0001305e-05
1.0001298e-05
1.000131e-05
1.0001222e-05
1.0001117e-05
1.0000987e-05
1.000083e-05
1.0000754e-05
1.0000733e-05
1.0000699e-05
1.0000692e-05
1.0000677e-05
1.0000674e-05
1.0000648e-05
1.0000644e-05
1.0000635e-05
1.0000595e-05
1.0000578e-05
1.0000747e-05
1.0001478e-05
1.0002197e-05
0.0011029127
0.0024109621
0.0028941374
0.0026740284
0.001533065
0.00021047041
1.2245634e-05
1.0304591e-05
1.0131501e-05
1.0112334e-05
1.0054602e-05
1.0057655e-05
1.0015431e-05
1.0020549e-05
1.0009983e-05
1.0010585e-05
1.0006081e-05
1.0005084e-05
1.0003344e-05
1.0002829e-05
1.000257e-05
1.0002722e-05
1.0002751e-05
1.0002557e-05
1.0002295e-05
1.0002e-05
1.0001733e-05
1.0001523e-05
1.0001375e-05
1.0001308e-05
1.00013e-05
1.0001314e-05
1.0001229e-05
1.0001126e-05
1.0001002e-05
1.0000841e-05
1.0000753e-05
1.0000733e-05
1.0000704e-05
1.000069e-05
1.0000679e-05
1.0000667e-05
1.0000615e-05
1.0000621e-05
1.000062e-05
1.0000588e-05
1.0000582e-05
1.0000727e-05
1.0001457e-05
1.000216e-05
0.0010928736
0.002358864
0.0027964279
0.0025253491
0.0013185467
0.00015060293
1.1330404e-05
1.0295716e-05
1.0128147e-05
1.0110121e-05
1.0053811e-05
1.0057206e-05
1.0015138e-05
1.0020207e-05
1.000986e-05
1.0010417e-05
1.0006023e-05
1.000503e-05
1.0003326e-05
1.0002815e-05
1.0002564e-05
1.0002712e-05
1.0002738e-05
1.0002547e-05
1.0002287e-05
1.0001995e-05
1.000173e-05
1.0001523e-05
1.0001378e-05
1.000131e-05
1.00013e-05
1.0001318e-05
1.0001236e-05
1.0001137e-05
1.0001018e-05
1.0000853e-05
1.0000754e-05
1.0000732e-05
1.0000713e-05
1.000069e-05
1.0000679e-05
1.0000655e-05
1.0000598e-05
1.0000604e-05
1.000061e-05
1.0000585e-05
1.0000594e-05
1.0000717e-05
1.0001447e-05
1.0002115e-05
0.0010827929
0.0023078346
0.0027000081
0.0023769246
0.001116642
0.0001057908
1.0851467e-05
1.0287204e-05
1.0124811e-05
1.01079e-05
1.0053004e-05
1.0056741e-05
1.0014846e-05
1.0019861e-05
1.0009741e-05
1.0010245e-05
1.0005965e-05
1.0004974e-05
1.0003308e-05
1.0002799e-05
1.0002556e-05
1.0002704e-05
1.0002726e-05
1.0002536e-05
1.0002279e-05
1.000199e-05
1.0001728e-05
1.0001523e-05
1.000138e-05
1.0001312e-05
1.0001302e-05
1.0001322e-05
1.0001243e-05
1.0001146e-05
1.0001032e-05
1.0000866e-05
1.0000756e-05
1.0000732e-05
1.0000722e-05
1.0000705e-05
1.0000681e-05
1.0000643e-05
1.000059e-05
1.0000591e-05
1.0000605e-05
1.0000586e-05
1.000061e-05
1.0000705e-05
1.0001444e-05
1.000207e-05
0.0010726022
0.0022571636
0.002604599
0.0022273883
0.00093071753
7.3453147e-05
1.0605276e-05
1.027991e-05
1.0121496e-05
1.0105661e-05
1.0052179e-05
1.005626e-05
1.0014557e-05
1.0019509e-05
1.0009625e-05
1.0010072e-05
1.0005908e-05
1.0004916e-05
1.0003288e-05
1.000278e-05
1.0002546e-05
1.0002696e-05
1.0002713e-05
1.0002525e-05
1.000227e-05
1.0001984e-05
1.0001724e-05
1.0001522e-05
1.0001381e-05
1.0001314e-05
1.0001303e-05
1.0001327e-05
1.000125e-05
1.0001155e-05
1.0001046e-05
1.000088e-05
1.0000761e-05
1.0000733e-05
1.0000729e-05
1.0000721e-05
1.0000686e-05
1.0000636e-05
1.0000586e-05
1.0000586e-05
1.0000604e-05
1.0000599e-05
1.0000627e-05
1.0000693e-05
1.000145e-05
1.0002027e-05
0.0010623048
0.0022071838
0.0025102986
0.0020780315
0.00076293134
5.0907803e-05
1.0478756e-05
1.0272954e-05
1.0118197e-05
1.0103381e-05
1.0051331e-05
1.0055764e-05
1.0014275e-05
1.0019153e-05
1.0009513e-05
1.0009898e-05
1.000585e-05
1.0004856e-05
1.0003266e-05
1.0002761e-05
1.0002538e-05
1.0002687e-05
1.00027e-05
1.0002513e-05
1.0002261e-05
1.0001978e-05
1.0001721e-05
1.0001521e-05
1.0001382e-05
1.0001315e-05
1.0001304e-05
1.0001333e-05
1.0001256e-05
1.0001162e-05
1.0001058e-05
1.0000894e-05
1.0000769e-05
1.0000734e-05
1.0000732e-05
1.0000732e-05
1.0000696e-05
1.0000639e-05
1.0000585e-05
1.0000584e-05
1.0000604e-05
1.0000613e-05
1.0000637e-05
1.0000681e-05
1.0001452e-05
1.0001985e-05
0.0010521333
0.0021583002
0.0024169021
0.0019284887
0.00061467198
3.5771843e-05
1.041173e-05
1.0265928e-05
1.011492e-05
1.0101046e-05
1.0050428e-05
1.0055227e-05
1.0014019e-05
1.0018792e-05
1.0009405e-05
1.0009721e-05
1.0005791e-05
1.0004793e-05
1.0003243e-05
1.0002742e-05
1.0002531e-05
1.0002677e-05
1.0002686e-05
1.0002501e-05
1.0002252e-05
1.0001972e-05
1.0001716e-05
1.0001519e-05
1.0001382e-05
1.0001317e-05
1.0001305e-05
1.0001339e-05
1.0001264e-05
1.0001168e-05
1.000107e-05
1.0000907e-05
1.000078e-05
1.0000737e-05
1.0000732e-05
1.0000739e-05
1.0000712e-05
1.000065e-05
1.0000586e-05
1.0000584e-05
1.000061e-05
1.0000618e-05
1.0000634e-05
1.000067e-05
1.0001439e-05
1.0001956e-05
0.0010424249
0.0021112648
0.0023250316
0.0017751419
0.00048722441
2.6003936e-05
1.0373566e-05
1.0258947e-05
1.0111862e-05
1.0098568e-05
1.0049232e-05
1.0053528e-05
1.0013865e-05
1.0018429e-05
1.00093e-05
1.0009539e-05
1.000573e-05
1.000473e-05
1.0003222e-05
1.0002725e-05
1.0002524e-05
1.0002667e-05
1.0002672e-05
1.0002489e-05
1.0002242e-05
1.0001965e-05
1.0001712e-05
1.0001517e-05
1.0001382e-05
1.0001317e-05
1.0001306e-05
1.0001345e-05
1.0001271e-05
1.0001173e-05
1.0001079e-05
1.0000919e-05
1.0000791e-05
1.0000741e-05
1.0000733e-05
1.0000744e-05
1.0000737e-05
1.0000672e-05
1.0000591e-05
1.0000587e-05
1.0000622e-05
1.0000614e-05
1.0000617e-05
1.000066e-05
1.0001422e-05
1.0001924e-05
0.0010331317
0.0020664554
0.002238843
0.0016185527
0.00038465549
1.9940202e-05
1.0354611e-05
1.0252053e-05
1.0111736e-05
1.0095623e-05
1.0046325e-05
1.0049069e-05
1.0013743e-05
1.0018056e-05
1.0009196e-05
1.0009356e-05
1.0005671e-05
1.0004667e-05
1.0003201e-05
1.0002707e-05
1.0002518e-05
1.0002657e-05
1.0002658e-05
1.0002477e-05
1.0002233e-05
1.0001958e-05
1.0001707e-05
1.0001514e-05
1.0001381e-05
1.0001318e-05
1.0001307e-05
1.0001351e-05
1.0001279e-05
1.0001177e-05
1.0001088e-05
1.0000929e-05
1.00008e-05
1.0000747e-05
1.0000732e-05
1.0000745e-05
1.0000768e-05
1.0000708e-05
1.0000599e-05
1.0000595e-05
1.000064e-05
1.0000605e-05
1.0000589e-05
1.0000652e-05
1.0001404e-05
1.000187e-05
0.0010240465
0.0020228864
0.0021601336
0.0014585139
0.00029782414
1.613886e-05
1.0345942e-05
1.024564e-05
1.0109056e-05
1.0091636e-05
1.0041765e-05
1.0043971e-05
1.0013514e-05
1.0017676e-05
1.0009096e-05
1.0009174e-05
1.0005613e-05
1.0004604e-05
1.0003179e-05
1.000269e-05
1.0002513e-05
1.0002647e-05
1.0002644e-05
1.0002464e-05
1.0002222e-05
1.0001951e-05
1.0001702e-05
1.0001511e-05
1.000138e-05
1.0001318e-05
1.0001307e-05
1.0001356e-05
1.0001288e-05
1.000118e-05
1.0001095e-05
1.0000939e-05
1.0000808e-05
1.0000756e-05
1.0000732e-05
1.0000745e-05
1.0000798e-05
1.0000755e-05
1.0000611e-05
1.0000602e-05
1.0000658e-05
1.0000599e-05
1.0000566e-05
1.0000642e-05
1.0001363e-05
1.0001822e-05
0.0010151321
0.0019794208
0.0020781579
0.0012962262
0.00022698293
1.3844664e-05
1.0338891e-05
1.0240697e-05
1.0104077e-05
1.0086582e-05
1.0036496e-05
1.0039545e-05
1.001318e-05
1.0017292e-05
1.0009001e-05
1.0008992e-05
1.0005556e-05
1.0004541e-05
1.0003159e-05
1.0002673e-05
1.0002508e-05
1.0002637e-05
1.0002629e-05
1.0002451e-05
1.0002212e-05
1.0001943e-05
1.0001697e-05
1.0001507e-05
1.0001379e-05
1.0001318e-05
1.0001308e-05
1.000136e-05
1.0001297e-05
1.0001182e-05
1.0001099e-05
1.0000948e-05
1.0000813e-05
1.0000764e-05
1.0000735e-05
1.0000744e-05
1.0000814e-05
1.0000798e-05
1.0000625e-05
1.0000605e-05
1.0000669e-05
1.00006e-05
1.0000558e-05
1.0000631e-05
1.0001301e-05
1.0001789e-05
0.0010065055
0.0019369314
0.001998792
0.001137342
0.00017071353
1.2500019e-05
1.0333484e-05
1.0235803e-05
1.0100975e-05
1.0082406e-05
1.0032988e-05
1.0035556e-05
1.0012772e-05
1.0016905e-05
1.0008909e-05
1.000881e-05
1.0005499e-05
1.0004479e-05
1.0003138e-05
1.0002657e-05
1.0002505e-05
1.0002626e-05
1.0002614e-05
1.0002438e-05
1.0002201e-05
1.0001936e-05
1.0001691e-05
1.0001503e-05
1.0001377e-05
1.0001317e-05
1.0001308e-05
1.0001363e-05
1.0001306e-05
1.0001184e-05
1.0001102e-05
1.0000956e-05
1.0000818e-05
1.000077e-05
1.0000739e-05
1.0000742e-05
1.0000817e-05
1.0000829e-05
1.0000645e-05
1.0000606e-05
1.0000672e-05
1.0000606e-05
1.0000564e-05
1.0000618e-05
1.0001248e-05
1.0001765e-05
0.0009979127
0.0018935107
0.0019189177
0.00099064975
0.00012693958
1.1726737e-05
1.0331731e-05
1.0228689e-05
1.0100463e-05
1.0080525e-05
1.0031362e-05
1.0033708e-05
1.0012431e-05
1.0016521e-05
1.0008817e-05
1.0008626e-05
1.0005442e-05
1.0004416e-05
1.0003118e-05
1.0002641e-05
1.0002503e-05
1.0002615e-05
1.0002599e-05
1.0002424e-05
1.0002191e-05
1.0001928e-05
1.0001685e-05
1.0001499e-05
1.0001374e-05
1.0001317e-05
1.0001308e-05
1.0001365e-05
1.0001315e-05
1.0001185e-05
1.0001102e-05
1.0000963e-05
1.0000822e-05
1.0000776e-05
1.0000743e-05
1.0000741e-05
1.0000813e-05
1.0000846e-05
1.0000671e-05
1.0000605e-05
1.0000674e-05
1.0000614e-05
1.0000591e-05
1.0000603e-05
1.0001206e-05
1.000175e-05
0.00098899922
0.0018477353
0.0018378857
0.00085518465
9.3617349e-05
1.1284341e-05
1.0325213e-05
1.0222148e-05
1.0098295e-05
1.0078113e-05
1.0031045e-05
1.0033057e-05
1.0012272e-05
1.0016142e-05
1.000873e-05
1.0008432e-05
1.0005386e-05
1.0004355e-05
1.0003098e-05
1.0002625e-05
1.0002499e-05
1.0002604e-05
1.0002583e-05
1.0002411e-05
1.000218e-05
1.000192e-05
1.000168e-05
1.0001495e-05
1.0001372e-05
1.0001316e-05
1.0001308e-05
1.0001367e-05
1.0001324e-05
1.0001186e-05
1.00011e-05
1.000097e-05
1.0000827e-05
1.0000783e-05
1.0000748e-05
1.000074e-05
1.0000797e-05
1.000085e-05
1.0000692e-05
1.0000608e-05
1.0000677e-05
1.000062e-05
1.0000604e-05
1.0000585e-05
1.0001165e-05
1.0001739e-05
0.00097983606
0.0017999556
0.0017545274
0.00073132933
6.8787404e-05
1.1025222e-05
1.0315605e-05
1.0215389e-05
1.0095115e-05
1.0075773e-05
1.0030111e-05
1.0032095e-05
1.0012079e-05
1.0015756e-05
1.0008644e-05
1.0008242e-05
1.0005331e-05
1.0004294e-05
1.0003078e-05
1.000261e-05
1.0002495e-05
1.0002592e-05
1.0002567e-05
1.0002397e-05
1.0002169e-05
1.0001912e-05
1.0001674e-05
1.000149e-05
1.0001369e-05
1.0001315e-05
1.0001307e-05
1.0001368e-05
1.0001332e-05
1.0001189e-05
1.0001095e-05
1.0000976e-05
1.0000833e-05
1.0000792e-05
1.0000758e-05
1.000074e-05
1.0000781e-05
1.0000839e-05
1.0000704e-05
1.0000622e-05
1.000068e-05
1.0000621e-05
1.0000599e-05
1.0000563e-05
1.0001123e-05
1.0001732e-05
0.00097023214
0.0017493284
0.0016672769
0.00061910267
5.0659641e-05
1.0870179e-05
1.0305355e-05
1.0208623e-05
1.0092062e-05
1.0073411e-05
1.0029177e-05
1.0031195e-05
1.0011905e-05
1.0015375e-05
1.0008559e-05
1.0008056e-05
1.0005276e-05
1.0004234e-05
1.0003059e-05
1.0002596e-05
1.0002491e-05
1.0002579e-05
1.0002551e-05
1.0002383e-05
1.0002157e-05
1.0001904e-05
1.0001668e-05
1.0001486e-05
1.0001366e-05
1.0001313e-05
1.0001307e-05
1.0001369e-05
1.0001339e-05
1.0001192e-05
1.0001089e-05
1.0000979e-05
1.000084e-05
1.0000803e-05
1.0000771e-05
1.0000747e-05
1.0000771e-05
1.000081e-05
1.000071e-05
1.0000636e-05
1.0000678e-05
1.0000617e-05
1.0000583e-05
1.0000536e-05
1.0001084e-05
1.0001727e-05
0.00096002315
0.0016953564
0.0015695725
0.00051884598
3.7743907e-05
1.0775534e-05
1.029547e-05
1.0201931e-05
1.008901e-05
1.0071049e-05
1.0028256e-05
1.0030281e-05
1.0011738e-05
1.0014992e-05
1.0008476e-05
1.0007877e-05
1.0005221e-05
1.0004176e-05
1.0003041e-05
1.0002582e-05
1.0002486e-05
1.0002566e-05
1.0002535e-05
1.0002369e-05
1.0002146e-05
1.0001897e-05
1.0001662e-05
1.0001482e-05
1.0001363e-05
1.0001312e-05
1.0001306e-05
1.000137e-05
1.0001346e-05
1.0001196e-05
1.0001082e-05
1.000098e-05
1.0000847e-05
1.0000812e-05
1.0000785e-05
1.0000761e-05
1.0000769e-05
1.0000796e-05
1.0000716e-05
1.000064e-05
1.0000668e-05
1.000061e-05
1.0000562e-05
1.0000505e-05
1.0001053e-05
1.0001721e-05
0.00094937248
0.001639375
0.0014643611
0.00043036845
2.8770207e-05
1.0714351e-05
1.0285837e-05
1.0195258e-05
1.0085973e-05
1.0068684e-05
1.0027345e-05
1.0029372e-05
1.0011581e-05
1.0014615e-05
1.0008393e-05
1.0007703e-05
1.0005167e-05
1.0004119e-05
1.0003023e-05
1.0002569e-05
1.0002481e-05
1.0002553e-05
1.0002518e-05
1.0002355e-05
1.0002135e-05
1.0001889e-05
1.0001656e-05
1.0001477e-05
1.000136e-05
1.000131e-05
1.0001305e-05
1.0001371e-05
1.0001352e-05
1.0001201e-05
1.0001075e-05
1.0000977e-05
1.0000852e-05
1.0000817e-05
1.0000796e-05
1.0000776e-05
1.0000771e-05
1.0000799e-05
1.0000723e-05
1.000064e-05
1.0000656e-05
1.0000605e-05
1.0000542e-05
1.0000475e-05
1.0001036e-05
1.000171e-05
0.00093833375
0.0015818305
0.0013525857
0.00035384788
2.2632105e-05
1.067006e-05
1.0276367e-05
1.0188618e-05
1.008295e-05
1.006632e-05
1.0026448e-05
1.0028466e-05
1.0011435e-05
1.001424e-05
1.0008311e-05
1.0007538e-05
1.0005112e-05
1.0004063e-05
1.0003006e-05
1.0002557e-05
1.0002475e-05
1.000254e-05
1.0002502e-05
1.0002341e-05
1.0002124e-05
1.0001881e-05
1.0001651e-05
1.0001472e-05
1.0001356e-05
1.0001308e-05
1.0001304e-05
1.0001372e-05
1.0001358e-05
1.0001206e-05
1.0001069e-05
1.0000972e-05
1.0000855e-05
1.000082e-05
1.0000803e-05
1.000079e-05
1.0000784e-05
1.0000813e-05
1.0000731e-05
1.0000644e-05
1.0000647e-05
1.0000607e-05
1.0000522e-05
1.000045e-05
1.0001033e-05
1.0001693e-05
0.0009268589
0.0015225296
0.0012377722
0.00028993897
1.8519795e-05
1.0635893e-05
1.0267049e-05
1.018202e-05
1.0079947e-05
1.0063964e-05
1.0025566e-05
1.0027568e-05
1.0011299e-05
1.0013871e-05
1.0008229e-05
1.0007385e-05
1.0005058e-05
1.0004009e-05
1.0002989e-05
1.0002546e-05
1.0002469e-05
1.0002527e-05
1.0002486e-05
1.0002327e-05
1.0002113e-05
1.0001873e-05
1.0001645e-05
1.0001468e-05
1.0001353e-05
1.0001307e-05
1.0001303e-05
1.0001372e-05
1.0001363e-05
1.0001212e-05
1.0001067e-05
1.0000964e-05
1.0000857e-05
1.000082e-05
1.0000805e-05
1.0000802e-05
1.0000804e-05
1.0000836e-05
1.0000739e-05
1.0000656e-05
1.0000643e-05
1.0000611e-05
1.0000499e-05
1.0000428e-05
1.0001022e-05
1.000167e-05
0.00091524425
0.0014607751
0.0011291286
0.00023510298
1.575567e-05
1.0607066e-05
1.0257841e-05
1.017546e-05
1.0076964e-05
1.0061619e-05
1.00247e-05
1.0026678e-05
1.0011176e-05
1.0013508e-05
1.0008148e-05
1.0007234e-05
1.0005004e-05
1.0003957e-05
1.0002974e-05
1.0002536e-05
1.0002463e-05
1.0002513e-05
1.000247e-05
1.0002313e-05
1.0002102e-05
1.0001865e-05
1.0001639e-05
1.0001463e-05
1.000135e-05
1.0001305e-05
1.0001302e-05
1.0001373e-05
1.0001368e-05
1.0001219e-05
1.0001066e-05
1.0000956e-05
1.0000858e-05
1.000082e-05
1.0000804e-05
1.0000808e-05
1.000082e-05
1.000086e-05
1.000075e-05
1.0000678e-05
1.000064e-05
1.0000606e-05
1.0000474e-05
1.000041e-05
1.0001004e-05
1.0001641e-05
0.0009039608
0.0014012193
0.0010210635
0.00018742232
1.3940162e-05
1.0581375e-05
1.024875e-05
1.0168957e-05
1.007401e-05
1.0059293e-05
1.0023854e-05
1.0025802e-05
1.0011065e-05
1.0013153e-05
1.0008068e-05
1.0007088e-05
1.000495e-05
1.0003907e-05
1.0002959e-05
1.0002527e-05
1.0002456e-05
1.00025e-05
1.0002454e-05
1.00023e-05
1.0002091e-05
1.0001857e-05
1.0001633e-05
1.0001458e-05
1.0001348e-05
1.0001304e-05
1.0001301e-05
1.0001373e-05
1.0001372e-05
1.0001227e-05
1.0001068e-05
1.000095e-05
1.0000859e-05
1.0000822e-05
1.0000804e-05
1.0000808e-05
1.0000823e-05
1.0000868e-05
1.0000763e-05
1.0000696e-05
1.0000637e-05
1.0000585e-05
1.0000449e-05
1.0000391e-05
1.0000979e-05
1.0001603e-05
0.00089323384
0.0013449939
0.00091482361
0.00014767949
1.2772024e-05
1.0557291e-05
1.0239738e-05
1.0162492e-05
1.0071081e-05
1.0056984e-05
1.0023028e-05
1.0024938e-05
1.0010967e-05
1.0012806e-05
1.0007988e-05
1.0006947e-05
1.0004898e-05
1.000386e-05
1.0002946e-05
1.0002519e-05
1.0002449e-05
1.0002486e-05
1.0002439e-05
1.0002286e-05
1.000208e-05
1.0001849e-05
1.0001627e-05
1.0001455e-05
1.0001346e-05
1.0001303e-05
1.00013e-05
1.0001374e-05
1.0001375e-05
1.0001234e-05
1.0001071e-05
1.0000948e-05
1.0000859e-05
1.0000826e-05
1.0000806e-05
1.0000808e-05
1.0000818e-05
1.0000867e-05
1.0000775e-05
1.0000701e-05
1.0000631e-05
1.0000556e-05
1.0000427e-05
1.000037e-05
1.0000947e-05
1.0001548e-05
0.0008827855
0.0012880988
0.00081173311
0.0001152536
1.202937e-05
1.0534243e-05
1.0230828e-05
1.0156096e-05
1.0068187e-05
1.0054706e-05
1.0022225e-05
1.0024092e-05
1.0010881e-05
1.0012468e-05
1.0007908e-05
1.000681e-05
1.0004846e-05
1.0003814e-05
1.0002933e-05
1.0002513e-05
1.0002442e-05
1.0002472e-05
1.0002423e-05
1.0002273e-05
1.0002069e-05
1.0001841e-05
1.0001622e-05
1.0001452e-05
1.0001345e-05
1.0001302e-05
1.0001298e-05
1.0001374e-05
1.0001378e-05
1.0001241e-05
1.0001076e-05
1.0000948e-05
1.000086e-05
1.0000831e-05
1.0000815e-05
1.0000813e-05
1.0000814e-05
1.0000845e-05
1.0000785e-05
1.0000692e-05
1.0000623e-05
1.0000532e-05
1.0000409e-05
1.0000352e-05
1.0000908e-05
1.0001478e-05
0.00087270392
0.0012307757
0.00071351937
8.94055e-05
1.1560754e-05
1.0512108e-05
1.0222017e-05
1.0149766e-05
1.006533e-05
1.005246e-05
1.0021447e-05
1.0023266e-05
1.001081e-05
1.0012139e-05
1.0007829e-05
1.0006679e-05
1.0004795e-05
1.0003771e-05
1.0002921e-05
1.0002508e-05
1.0002435e-05
1.0002458e-05
1.0002408e-05
1.000226e-05
1.0002059e-05
1.0001833e-05
1.0001618e-05
1.0001451e-05
1.0001343e-05
1.00013e-05
1.0001297e-05
1.0001375e-05
1.0001381e-05
1.0001249e-05
1.0001082e-05
1.0000951e-05
1.0000862e-05
1.0000835e-05
1.0000828e-05
1.0000825e-05
1.0000813e-05
1.0000817e-05
1.0000791e-05
1.0000671e-05
1.0000612e-05
1.0000518e-05
1.0000395e-05
1.0000341e-05
1.0000866e-05
1.0001406e-05
0.00086309227
0.0011726849
0.00062140499
6.9175304e-05
1.1263478e-05
1.0491232e-05
1.0213299e-05
1.0143502e-05
1.0062512e-05
1.005025e-05
1.0020696e-05
1.002246e-05
1.0010753e-05
1.001182e-05
1.000775e-05
1.0006553e-05
1.0004745e-05
1.000373e-05
1.0002911e-05
1.0002504e-05
1.0002427e-05
1.0002445e-05
1.0002394e-05
1.0002247e-05
1.0002048e-05
1.0001826e-05
1.0001615e-05
1.0001449e-05
1.000134e-05
1.0001298e-05
1.0001296e-05
1.0001375e-05
1.0001383e-05
1.0001257e-05
1.000109e-05
1.0000956e-05
1.0000865e-05
1.0000837e-05
1.0000839e-05
1.0000839e-05
1.0000817e-05
1.0000799e-05
1.0000792e-05
1.0000646e-05
1.00006e-05
1.0000508e-05
1.000038e-05
1.0000333e-05
1.0000826e-05
1.0001336e-05
0.00085402638
0.0011152053
0.00053649104
5.3709851e-05
1.107185e-05
1.0472439e-05
1.0204701e-05
1.0137323e-05
1.005974e-05
1.0048084e-05
1.0019974e-05
1.0021677e-05
1.001071e-05
1.0011511e-05
1.0007671e-05
1.0006433e-05
1.0004696e-05
1.0003692e-05
1.0002901e-05
1.0002501e-05
1.0002419e-05
1.0002432e-05
1.000238e-05
1.0002234e-05
1.0002037e-05
1.0001819e-05
1.0001613e-05
1.0001447e-05
1.0001337e-05
1.0001296e-05
1.0001294e-05
1.0001375e-05
1.0001386e-05
1.0001265e-05
1.0001099e-05
1.0000962e-05
1.0000868e-05
1.0000838e-05
1.0000844e-05
1.0000854e-05
1.0000821e-05
1.0000793e-05
1.0000793e-05
1.0000628e-05
1.000059e-05
1.0000497e-05
1.0000357e-05
1.0000326e-05
1.0000792e-05
1.0001269e-05
0.00084525207
0.0010597071
0.0004592003
4.2086526e-05
1.0944065e-05
1.0453569e-05
1.0196189e-05
1.0131219e-05
1.0057015e-05
1.004596e-05
1.0019282e-05
1.0020918e-05
1.0010685e-05
1.0011214e-05
1.0007593e-05
1.0006317e-05
1.0004649e-05
1.0003656e-05
1.0002893e-05
1.00025e-05
1.0002411e-05
1.0002419e-05
1.0002365e-05
1.0002221e-05
1.0002027e-05
1.0001815e-05
1.0001611e-05
1.0001444e-05
1.0001335e-05
1.0001294e-05
1.0001293e-05
1.0001376e-05
1.0001388e-05
1.0001274e-05
1.000111e-05
1.0000971e-05
1.0000872e-05
1.0000839e-05
1.0000844e-05
1.0000866e-05
1.0000825e-05
1.0000791e-05
1.0000791e-05
1.0000621e-05
1.0000586e-05
1.0000484e-05
1.0000329e-05
1.000032e-05
1.0000762e-05
1.0001205e-05
0.00083603737
0.00099683306
0.00038979688
3.3506491e-05
1.0855041e-05
1.043507e-05
1.0187772e-05
1.0125197e-05
1.0054341e-05
1.0043886e-05
1.0018622e-05
1.0020184e-05
1.0010701e-05
1.0010928e-05
1.0007517e-05
1.0006208e-05
1.0004603e-05
1.0003622e-05
1.0002885e-05
1.00025e-05
1.0002404e-05
1.0002407e-05
1.0002351e-05
1.0002208e-05
1.0002018e-05
1.0001812e-05
1.0001609e-05
1.0001441e-05
1.0001332e-05
1.0001292e-05
1.0001291e-05
1.0001376e-05
1.0001391e-05
1.0001283e-05
1.0001123e-05
1.0000982e-05
1.0000877e-05
1.0000839e-05
1.0000839e-05
1.000087e-05
1.0000831e-05
1.0000792e-05
1.0000791e-05
1.0000624e-05
1.0000589e-05
1.0000482e-05
1.0000306e-05
1.0000316e-05
1.0000734e-05
1.0001141e-05
0.00082702354
0.00093367867
0.00032907035
2.7273888e-05
1.0789849e-05
1.0416803e-05
1.0179452e-05
1.0119265e-05
1.0051722e-05
1.0041866e-05
1.0017996e-05
1.0019478e-05
1.0010687e-05
1.0010653e-05
1.000744e-05
1.0006104e-05
1.0004559e-05
1.0003591e-05
1.0002878e-05
1.00025e-05
1.0002397e-05
1.0002396e-05
1.0002337e-05
1.0002196e-05
1.0002011e-05
1.0001809e-05
1.0001606e-05
1.0001438e-05
1.0001329e-05
1.000129e-05
1.0001289e-05
1.0001375e-05
1.0001393e-05
1.0001293e-05
1.0001137e-05
1.0000996e-05
1.0000883e-05
1.0000839e-05
1.0000831e-05
1.0000869e-05
1.0000842e-05
1.0000798e-05
1.0000806e-05
1.0000633e-05
1.0000595e-05
1.0000493e-05
1.0000295e-05
1.0000314e-05
1.0000707e-05
1.0001078e-05
0.00081819672
0.00086715172
0.00027661544
2.2802383e-05
1.0739122e-05
1.0398794e-05
1.0171237e-05
1.0113435e-05
1.0049165e-05
1.0039906e-05
1.0017405e-05
1.0018801e-05
1.0010661e-05
1.0010383e-05
1.0007364e-05
1.0006006e-05
1.0004516e-05
1.0003563e-05
1.0002871e-05
1.0002502e-05
1.000239e-05
1.0002384e-05
1.0002324e-05
1.0002184e-05
1.0002006e-05
1.0001806e-05
1.0001602e-05
1.0001435e-05
1.0001327e-05
1.0001287e-05
1.0001287e-05
1.0001375e-05
1.0001396e-05
1.0001304e-05
1.0001154e-05
1.0001014e-05
1.000089e-05
1.0000842e-05
1.0000824e-05
1.0000855e-05
1.000085e-05
1.000081e-05
1.000083e-05
1.0000642e-05
1.0000591e-05
1.000047e-05
1.0000282e-05
1.0000312e-05
1.0000682e-05
1.0001017e-05
0.0008088487
0.00079923956
0.00023236048
1.9648017e-05
1.0696255e-05
1.0381072e-05
1.0163136e-05
1.0107711e-05
1.0046672e-05
1.0038009e-05
1.0016852e-05
1.001815e-05
1.0010629e-05
1.0010084e-05
1.0007287e-05
1.0005913e-05
1.0004476e-05
1.0003537e-05
1.0002865e-05
1.0002503e-05
1.0002384e-05
1.0002372e-05
1.000231e-05
1.0002175e-05
1.0002002e-05
1.0001801e-05
1.0001598e-05
1.0001432e-05
1.0001324e-05
1.0001285e-05
1.0001285e-05
1.0001374e-05
1.0001398e-05
1.0001314e-05
1.0001171e-05
1.0001036e-05
1.0000899e-05
1.0000847e-05
1.0000821e-05
1.0000835e-05
1.0000853e-05
1.0000824e-05
1.0000839e-05
1.0000646e-05
1.0000568e-05
1.0000409e-05
1.0000266e-05
1.0000307e-05
1.0000658e-05
1.000096e-05
0.00079842757
0.00072844686
0.00019603796
1.7405868e-05
1.065846e-05
1.036359e-05
1.0155143e-05
1.0102094e-05
1.0044247e-05
1.0036177e-05
1.0016337e-05
1.0017528e-05
1.0010587e-05
1.0009829e-05
1.0007211e-05
1.0005827e-05
1.0004437e-05
1.0003512e-05
1.0002859e-05
1.0002505e-05
1.0002378e-05
1.0002359e-05
1.0002298e-05
1.0002169e-05
1.0001997e-05
1.0001795e-05
1.0001594e-05
1.0001429e-05
1.0001321e-05
1.0001282e-05
1.0001282e-05
1.0001372e-05
1.00014e-05
1.0001325e-05
1.0001188e-05
1.0001058e-05
1.0000912e-05
1.0000852e-05
1.000082e-05
1.0000819e-05
1.0000851e-05
1.0000834e-05
1.0000826e-05
1.0000643e-05
1.0000532e-05
1.0000356e-05
1.0000251e-05
1.0000299e-05
1.0000635e-05
1.0000906e-05
0.00078779386
0.00065141644
0.00016647494
1.5791307e-05
1.0623843e-05
1.0346359e-05
1.0147267e-05
1.0096593e-05
1.0041895e-05
1.0034416e-05
1.0015861e-05
1.0016936e-05
1.0010538e-05
1.0009612e-05
1.0007135e-05
1.0005745e-05
1.0004401e-05
1.0003489e-05
1.0002853e-05
1.0002507e-05
1.0002373e-05
1.0002348e-05
1.0002288e-05
1.0002163e-05
1.0001991e-05
1.0001788e-05
1.000159e-05
1.0001426e-05
1.0001319e-05
1.0001279e-05
1.0001279e-05
1.0001369e-05
1.0001402e-05
1.0001336e-05
1.0001205e-05
1.000108e-05
1.0000929e-05
1.0000859e-05
1.0000821e-05
1.000081e-05
1.0000836e-05
1.0000831e-05
1.0000786e-05
1.0000632e-05
1.00005e-05
1.0000337e-05
1.0000242e-05
1.0000288e-05
1.0000614e-05
1.0000859e-05
0.00077870981
0.00059803393
0.00014291664
1.4611148e-05
1.0591456e-05
1.0329415e-05
1.0139523e-05
1.0091225e-05
1.0039622e-05
1.003273e-05
1.0015427e-05
1.0016375e-05
1.0010481e-05
1.000941e-05
1.0007061e-05
1.0005669e-05
1.0004366e-05
1.0003468e-05
1.0002847e-05
1.0002508e-05
1.0002369e-05
1.0002338e-05
1.0002281e-05
1.0002159e-05
1.0001983e-05
1.0001782e-05
1.0001586e-05
1.0001424e-05
1.0001317e-05
1.0001276e-05
1.0001276e-05
1.0001365e-05
1.0001404e-05
1.0001346e-05
1.000122e-05
1.0001099e-05
1.0000945e-05
1.0000868e-05
1.0000826e-05
1.0000807e-05
1.0000818e-05
1.0000816e-05
1.000076e-05
1.000062e-05
1.0000485e-05
1.000032e-05
1.0000238e-05
1.0000277e-05
1.0000593e-05
1.0000818e-05
0.00077035057
0.00055055871
0.00012299896
1.3727115e-05
1.0560662e-05
1.031275e-05
1.0131914e-05
1.0085991e-05
1.0037434e-05
1.0031123e-05
1.0015035e-05
1.0015847e-05
1.0010419e-05
1.0009221e-05
1.0006988e-05
1.0005599e-05
1.0004333e-05
1.0003448e-05
1.000284e-05
1.000251e-05
1.0002367e-05
1.0002331e-05
1.0002276e-05
1.0002153e-05
1.0001974e-05
1.0001775e-05
1.0001583e-05
1.0001422e-05
1.0001314e-05
1.0001273e-05
1.0001272e-05
1.0001361e-05
1.0001406e-05
1.0001355e-05
1.0001233e-05
1.0001115e-05
1.000096e-05
1.000088e-05
1.0000834e-05
1.000081e-05
1.0000805e-05
1.0000812e-05
1.0000761e-05
1.000062e-05
1.0000501e-05
1.00003e-05
1.0000237e-05
1.0000267e-05
1.0000573e-05
1.000078e-05
0.00076294409
0.00051003747
0.00010634726
1.3058983e-05
1.0531075e-05
1.0296358e-05
1.0124442e-05
1.0080896e-05
1.0035333e-05
1.0029597e-05
1.0014686e-05
1.0015349e-05
1.0010352e-05
1.0009044e-05
1.0006917e-05
1.0005533e-05
1.0004301e-05
1.0003428e-05
1.0002832e-05
1.0002511e-05
1.0002366e-05
1.0002326e-05
1.0002272e-05
1.0002145e-05
1.0001965e-05
1.0001769e-05
1.0001579e-05
1.000142e-05
1.0001312e-05
1.000127e-05
1.0001268e-05
1.0001355e-05
1.0001406e-05
1.0001364e-05
1.0001244e-05
1.0001128e-05
1.000097e-05
1.0000894e-05
1.0000847e-05
1.0000821e-05
1.0000798e-05
1.000081e-05
1.0000723e-05
1.0000633e-05
1.0000535e-05
1.0000288e-05
1.0000238e-05
1.0000261e-05
1.0000557e-05
1.0000743e-05
0.0007567205
0.00047562167
9.2227706e-05
1.2546466e-05
1.050243e-05
1.0280245e-05
1.0117116e-05
1.0075951e-05
1.0033325e-05
1.0028154e-05
1.001438e-05
1.0014883e-05
1.0010281e-05
1.000888e-05
1.0006848e-05
1.0005471e-05
1.0004269e-05
1.0003408e-05
1.0002824e-05
1.0002511e-05
1.0002368e-05
1.0002324e-05
1.0002269e-05
1.0002134e-05
1.0001955e-05
1.0001763e-05
1.0001576e-05
1.0001418e-05
1.0001311e-05
1.0001267e-05
1.0001264e-05
1.0001349e-05
1.0001406e-05
1.0001372e-05
1.0001254e-05
1.0001139e-05
1.0000976e-05
1.0000906e-05
1.0000861e-05
1.0000827e-05
1.0000797e-05
1.0000805e-05
1.0000693e-05
1.0000645e-05
1.0000523e-05
1.0000285e-05
1.0000239e-05
1.0000256e-05
1.0000546e-05
1.000071e-05
0.00075191592
0.00044715584
8.0153443e-05
1.2148936e-05
1.0474619e-05
1.0264445e-05
1.0109955e-05
1.0071171e-05
1.0031416e-05
1.0026798e-05
1.0014117e-05
1.0014448e-05
1.0010208e-05
1.0008728e-05
1.0006781e-05
1.0005413e-05
1.0004239e-05
1.0003388e-05
1.0002816e-05
1.000251e-05
1.0002371e-05
1.0002325e-05
1.0002263e-05
1.0002121e-05
1.0001945e-05
1.0001756e-05
1.0001573e-05
1.0001417e-05
1.0001309e-05
1.0001264e-05
1.000126e-05
1.0001342e-05
1.0001405e-05
1.0001378e-05
1.0001263e-05
1.0001148e-05
1.0000979e-05
1.0000912e-05
1.0000873e-05
1.0000827e-05
1.0000806e-05
1.0000815e-05
1.0000698e-05
1.0000649e-05
1.000047e-05
1.0000294e-05
1.0000239e-05
1.0000252e-05
1.0000537e-05
1.0000682e-05
0.00074858677
0.00042463091
6.9673816e-05
1.1836955e-05
1.0447536e-05
1.0248962e-05
1.0102965e-05
1.0066564e-05
1.002961e-05
1.0025531e-05
1.0013898e-05
1.0014043e-05
1.0010136e-05
1.0008587e-05
1.0006716e-05
1.0005359e-05
1.0004208e-05
1.0003368e-05
1.0002806e-05
1.0002507e-05
1.0002371e-05
1.0002328e-05
1.0002253e-05
1.0002108e-05
1.0001934e-05
1.0001749e-05
1.000157e-05
1.0001416e-05
1.0001308e-05
1.0001261e-05
1.0001255e-05
1.0001333e-05
1.0001402e-05
1.0001383e-05
1.0001272e-05
1.0001157e-05
1.000098e-05
1.0000913e-05
1.0000884e-05
1.0000826e-05
1.0000806e-05
1.000083e-05
1.0000717e-05
1.0000661e-05
1.0000443e-05
1.0000317e-05
1.0000239e-05
1.0000249e-05
1.0000527e-05
1.0000655e-05
0.00074644876
0.00040807976
6.0418213e-05
1.1589975e-05
1.0421137e-05
1.023381e-05
1.0096159e-05
1.0062139e-05
1.0027911e-05
1.0024353e-05
1.0013723e-05
1.0013669e-05
1.0010059e-05
1.0008456e-05
1.0006653e-05
1.0005306e-05
1.0004176e-05