/*--------------------------------*- C++ -*----------------------------------*\
  =========                 |
  \\      /  F ield         | OpenFOAM: The Open Source CFD Toolbox
   \\    /   O peration     | Website:  https://openfoam.org
    \\  /    A nd           | Version:  8
     \\/     M anipulation  |
\*---------------------------------------------------------------------------*/
FoamFile
{
    version     2.0;
    format      ascii;
    class       volScalarField;
    location    "0.219989";
    object      p;
}
// * * * * * * * * * * * * * * * * * * * * * * * * * * * * * * * * * * * * * //

dimensions      [1 -1 -2 0 0 0 0];

internalField   nonuniform List<scalar> 
20000
(
81738.159
81754.889
81770.212
81792.634
81826.437
81864.541
81920.108
81980.37
82054.389
82149.018
82249.184
82388.794
82529.937
82727.985
82930.99
83205.732
83498.636
83876.434
84295.003
84809.735
85389.46
86072.075
86841.513
87740.161
88774.147
89919.019
91148.825
92425.327
93709.099
94948.157
96094.033
97111.968
97981.503
98698.508
99270.407
99712.765
100039.41
100280.87
100473.63
100593.41
100647.43
100665.25
100670
100628.95
100541.32
100460.89
100357.8
100108.67
99911.261
99550.568
81436.038
81452.872
81469.089
81492.344
81528.277
81568.398
81627.363
81690.863
81767.629
81866.16
81969.198
82113.749
82258.497
82462.978
82671.486
82955.11
83257.321
83647.606
84079.064
84606.94
85199.934
85899.663
86700.758
87652.976
88736.668
89911.57
91162.941
92465.805
93768.788
95018.132
96165.415
97177.727
98037.644
98743.714
99305.645
99738.905
100057.99
100299.95
100492.82
100606.82
100654.83
100667.48
100669.03
100622.47
100535.57
100460.33
100352.74
100094.6
99889.569
99578.324
81162.706
81179.623
81196.563
81220.436
81257.92
81298.893
81359.31
81424.604
81502.773
81604.404
81709.55
81858.757
82007
82218.105
82432.534
82725.45
83037.112
83438.986
83881.642
84421.78
85030.612
85758.432
86613.042
87614.123
88725.585
89924.104
91207.405
92536.541
93856.95
95113.298
96258.138
97260.951
98107.615
98799.65
99348.919
99770.61
100080.81
100323.65
100512.04
100619.99
100663.36
100671.5
100666.39
100616.34
100531.56
100459.94
100345.09
100068.23
99829.852
99603.489
80905.726
80922.965
80940.674
80965.352
81004.796
81047.014
81109.283
81176.966
81257.033
81362.368
81470.164
81624.624
81776.799
81995.124
82216.004
82518.487
82838.96
83250.863
83703.904
84259.747
84895.188
85673.051
86574.277
87602.409
88732.997
89969.482
91286.022
92640.83
93975.945
95235.566
96373.74
97362.878
98192.453
98867.188
99400.922
99808.451
100108.51
100351.27
100531.49
100632.81
100672.66
100678.08
100666.14
100610.62
100528.6
100458.98
100340.3
100008.64
99801.266
99620.013
80671.238
80688.967
80707.529
80733.075
80774.316
80817.921
80882.094
80952.333
81034.297
81143.479
81253.986
81413.959
81570.251
81796.122
82023.583
82335.234
82663.618
83085.21
83552.351
84134.098
84817.283
85635.702
86562.839
87610.575
88776.369
90050.547
91400.113
92778.442
94125.042
95383.804
96510.882
97482.122
98290.864
98945.189
99460.688
99851.829
100140.89
100381.67
100552.12
100646.54
100683.14
100687.05
100667.95
100604.52
100525.64
100455.04
100326.04
100013.04
99804.882
99627.306
80458.515
80476.865
80496.421
80523.07
80566.399
80611.718
80677.726
80750.883
80835.027
80948.476
81062.056
81228.038
81388.744
81622.29
81855.971
82176.304
82513.697
82949.934
83444.074
84067.602
84784.307
85624.863
86571.204
87653.449
88856.972
90169.407
91550.742
92950.056
94304.327
95557.713
96669.057
97618.109
98402.325
99033.207
99527.837
99900.647
100178.24
100414.3
100574.03
100661.12
100694.3
100698.04
100670.47
100595.53
100522.21
100447.67
100298.73
100017.14
99804.201
99637.616
80271.745
80290.722
80311.209
80338.884
80384.081
80431.003
80498.682
80574.735
80661.099
80779.076
80895.831
81068.125
81233.551
81474.819
81714.684
82045.11
82397.526
82863.228
83391.374
84041.02
84775.292
85634.385
86614.095
87733.756
88977.138
90327.074
91738.43
93155.479
94513.106
95756.265
96847.106
97769.71
98525.843
99130.396
99601.653
99954.559
100220.72
100448.61
100596.42
100675.62
100705.74
100710.43
100673.15
100585.81
100518.05
100437.56
100265.78
100010.06
99805.943
99652.554
80110.999
80130.714
80152.23
80181.126
80228.371
80277.129
80346.628
80425.835
80514.539
80637.262
80756.945
80935.556
81106.251
81356.201
81604.986
81953.908
82332.41
82823.679
83372.468
84034.737
84787.795
85677.7
86693.831
87853.498
89137.471
90524.274
91963.345
93394.353
94750.537
95978.339
97043.824
97935.785
98660.437
99235.925
99681.435
100013.18
100268.38
100484.15
100618.58
100689.73
100717.01
100723.37
100676.73
100585.94
100512.94
100425.2
100231.47
99996.556
99799.182
99693.292
79980.855
80001.448
80024.062
80054.36
80103.746
80154.493
80225.854
80308.285
80399.149
80526.478
80648.885
80834.153
81010.977
81274.404
81540.372
81909.82
82305.242
82810.877
83369.501
84051.488
84833.302
85757.231
86812.624
88013.727
89338.85
90761.319
92225.232
93665.836
95015.349
96222.454
97257.718
98114.974
98804.959
99348.827
99766.387
100076
100320.69
100520.82
100641.54
100703.68
100727.87
100735.81
100681.96
100585.77
100506.5
100410.69
100197.62
99976.383
99768.492
99781.948
79880.61
79902.337
79926.177
79958.126
80010.02
80063.107
80136.735
80222.62
80315.774
80447.779
80574.727
80770.206
80956.39
81234.206
81512.109
81894.489
82297.693
82813.126
83392.07
84100.258
84914.112
85874.908
86971.405
88215.299
89581.638
91038.172
92523.479
93968.785
95306.03
96486.956
97487.178
98305.838
98958.194
99468.082
99855.721
100142.51
100376.5
100558.72
100665.29
100717.81
100738.27
100746.59
100689.84
100585.44
100498.18
100393.93
100165.23
99945.723
99756.633
99771.546
79807.24
79830.001
79854.895
79888.188
79942.222
79997.08
80072.634
80162.36
80259.487
80399.662
80533.615
80739.469
80932.235
81219.756
81503.224
81892.447
82308.13
82843.08
83446.103
84183.493
85032.084
86031.792
87171.2
88458.817
89866.021
91354.418
92857.046
94301.64
95620.734
96769.935
97730.405
98506.799
99118.821
99592.583
99948.668
100212.33
100434.78
100597.4
100689.18
100732.47
100748.37
100754.84
100691.6
100585.63
100485
100375.18
100133.67
99913.129
99761.287
99690.943
79751.682
79775.755
79802.123
79837.222
79894.184
79952.044
80031.096
80126.595
80228.356
80376.537
80514.899
80728.542
80924.319
81217.49
81508.825
81912.831
82346.511
82903.819
83533.91
84302.734
85188.165
86228.776
87412.6
88744.606
90191.841
91709.325
93224.598
94662.61
95957.448
97069.369
97985.522
98716.23
99285.469
99721.184
100044.53
100285.38
100494.34
100636.32
100713.24
100747.75
100758.62
100760.89
100692.58
100586.8
100462.55
100355.06
100100.55
99881.057
99753.873
99568.568
79718.754
79744.086
79771.944
79808.876
79869.14
79930.014
80011.699
80111.483
80215.305
80367.777
80508.094
80727.638
80929.668
81235.292
81539.962
81961.742
82415.906
82997.651
83656.781
84458.984
85383.255
86466.528
87696.066
89072.738
90558.623
92101.754
93624.393
95049.552
96313.881
97383.025
98250.504
98932.411
99456.705
99852.711
100142.68
100361.78
100553.88
100675.02
100737.36
100763.4
100769.63
100765.8
100693.67
100589.82
100461.87
100333.85
100063.85
99847.695
99733.86
99584.874
79703.407
79730.058
79759.279
79797.574
79860.167
79923.147
80005.929
80108.666
80213.911
80372.526
80517.247
80747.204
80960.234
81281.336
81601.15
82042.019
82518.056
83125.602
83815.538
84652.914
85617.87
86745.466
88021.781
89443.053
90965.629
92530.33
94054.486
95460.178
96687.63
97708.575
98523.282
99153.632
99631.12
99986.051
100242.56
100441.45
100612.25
100713.13
100761.48
100779.47
100781.17
100768.04
100693.77
100594.88
100473.37
100310.78
100025.52
99813.166
99711.562
99615.543
79703.843
79732.193
79763.399
79803.692
79869.442
79935.434
80021.46
80130.23
80239.858
80407.488
80557.721
80799.487
81022.5
81358.654
81693.917
82154.416
82653.533
83288.231
84010.665
84884.965
85892.413
87065.836
88389.772
89855.078
91411.779
92993.25
94512.536
95891.856
97075.994
98043.466
98801.685
99378.174
99807.335
100120.2
100343.72
100522.97
100669.19
100750.25
100785.42
100796.44
100792.7
100768.85
100693.62
100602.68
100494.89
100284.36
99989.914
99803.51
99706.73
99637.55
79733.435
79763.442
79796.585
79838.708
79907.436
79976.412
80065.809
80180.823
80295.216
80471.801
80629.011
80882.988
81115.313
81466.425
81817.858
82298.955
82822.492
83485.738
84242.386
85155.359
86207.056
87427.729
88799.873
90308.206
91895.791
93488.568
94996.085
96341.84
97476.152
98385.111
99083.62
99604.438
99984.086
100254.36
100445.85
100604.74
100724.33
100786.13
100809.37
100814.53
100803.92
100768.98
100691.91
100607.03
100499.56
100252.13
99960.453
99795.501
99705.266
99658.627
79789.038
79821.007
79856.552
79900.956
79973.221
80046.101
80138.953
80260.209
80378.527
80564.169
80727.716
80993.742
81236.792
81603.917
81972.728
82475.501
83024.915
83718.189
84510.794
85464.223
86561.896
87831.128
89251.726
90801.516
92416.002
94013.939
95502.285
96807.002
97885.008
98730.885
99367.103
99830.897
100160.17
100387.87
100548.72
100684.99
100777.23
100820.78
100833.87
100833.24
100815.1
100768.21
100689.01
100608.64
100501.74
100213.18
99931.378
99789.326
99705.647
99675.763
79870.419
79904.286
79942.225
79988.872
80064.778
80141.516
80237.454
80365.158
80487.305
80682.76
80852.994
81132.192
81386.897
81770.969
82158.344
82683.915
83260.694
83985.509
84815.872
85811.591
86956.969
88275.948
89744.905
91333.986
92970.64
94566.9
96028.142
97284.076
98299.546
99078.513
99650.482
100056.13
100334.41
100520.18
100651.83
100761.97
100827.7
100854.56
100859.33
100851.78
100826.12
100766.7
100685.36
100608.85
100498.6
100166.13
99908.415
99782.485
99706.401
99687.718
79973.788
80009.738
80050.306
80099.376
80178.556
80259.75
80359.245
80494.615
80621.339
80827.605
81005.294
81298.317
81565.505
81967.322
82374.445
82923.932
83529.627
84287.584
85157.59
86197.495
87392.293
88762.001
90278.77
91904.236
93557.516
95144.496
96570.176
97769.493
98716.936
99426.187
99932.353
100278.63
100505.55
100650.65
100753.81
100834.59
100875.94
100888.66
100884.75
100869.68
100836.33
100765.52
100681.44
100606.75
100479.14
100111.83
99899.683
99765.527
99709.875
99697.316
80100.467
80138.778
80182.356
80234.158
80316.976
80403.635
80506.552
80650.18
80781.499
80999.036
81184.425
81491.803
81772.209
82192.546
82620.652
83195.256
83831.488
84624.3
85535.945
86622.025
87867.924
89289.12
90852.647
92510.832
94174.322
95743.627
97124.79
98259.953
99135.11
99772.717
100211.4
100496.73
100672.3
100778.46
100852.26
100903
100922.91
100923.19
100909.5
100886.45
100845.31
100764.57
100677.28
100599.66
100434.36
100086.59
99883.539
99746.302
99719.46
99705.674
80252.096
80292.758
80339.355
80393.944
80480.419
80572.626
80678.626
80830.812
80966.805
81195.963
81389.5
81711.861
82006.421
82446.155
82896.585
83497.579
84166.092
84995.628
85951.031
87085.327
88383.904
89857.002
91465.571
93151.901
94818.21
96360.63
97688.096
98752.615
99552.733
100116.82
100485.64
100708.48
100833.64
100902.56
100945.41
100967.89
100969.86
100956.93
100933.37
100901.76
100852.1
100763.48
100672.73
100587.09
100381.05
100067.71
99856.67
99750.803
99755.102
99714.12
80424.734
80468.111
80518.176
80576.028
80666.233
80764.748
80873.68
81035.14
81176.035
81417.548
81619.788
81957.908
82267.672
82727.735
83201.898
83830.685
84533.377
85401.678
86403.089
87587.672
88940.374
90465.368
92116.568
93825.455
95486.161
96991.73
98256.621
99245.783
99968.857
100455.94
100751.77
100912.57
100989.22
101021.69
101033.07
101031.15
101015.26
100989.55
100956.24
100915.62
100855.42
100761.74
100667.21
100567.82
100325.99
100038.53
99830.672
99756.866
99756.912
99722.322
80621.506
80667.296
80720.473
80781.226
80874.711
80979.266
81091.382
81262.339
81408.523
81663.135
81874.872
82229.5
82555.574
83036.912
83536.346
84194.494
84933.455
85842.745
86892.476
88129.391
89537.38
91113.76
92804.205
94528.96
96174.478
97632.808
98827.459
99738.541
100381.08
100785.57
101007.19
101108.07
101138.61
101135.45
101117.1
101091.67
101058.72
101020.76
100978.05
100928.52
100856.78
100759.02
100660.21
100542.89
100271.7
100001.04
99824.072
99761.254
99728.706
99730.96
80834.862
80883.709
80940.851
81005.59
81102.895
81214.518
81330.378
81512.276
81663.914
81932.53
82154.38
82526.25
82869.735
83373.422
83899.855
84589.166
85366.674
86319.314
87419.722
88710.925
90175.081
91801.688
93526.996
95259.634
96879.349
98280.219
99399.015
100229.72
100784.2
101102.12
101250.17
101295.32
101282.79
101243.66
101196.74
101149.19
101100.01
101050.36
100998.69
100941.08
100857.21
100755.36
100651.76
100514.32
100218.19
99962.438
99818.357
99763.781
99730.435
99741.535
81071.469
81123.328
81184.412
81253.095
81353.555
81472.489
81591.688
81784.717
81942.16
82225.147
82457.877
82847.661
83209.909
83737.241
84292.657
85015.131
85833.595
86832.008
87985.422
89332.684
90853.472
92528.295
94282.836
96013.964
97596.549
98930.866
99970.448
100714.61
101173.23
101402.78
101481.97
101475.84
101419.8
101345.99
101271.85
101203.47
101139.03
101078.19
101017.91
100953.19
100857.32
100751.09
100642.11
100481.86
100164.62
99928.574
99811.069
99770.007
99762.666
99779.301
81327.645
81382.601
81447.597
81520.377
81623.786
81751.021
81873.67
82078.522
82242.255
82540.377
82784.912
83193.584
83576.229
84128.754
84715.306
85473.058
86334.943
87381.604
88590.302
89995.21
91572.591
93292.656
95069.397
96788.264
98322.269
99582.965
100540.39
101186.4
101543.78
101687.87
101705.71
101647.18
101549.19
101442.21
101342.26
101254.38
101175.66
101104.18
101035.45
100963.52
100856.85
100746.67
100631.26
100442.94
100113.28
99899.234
99800.149
99772.421
99781.849
99871.7
81600.883
81659.502
81728.928
81806.562
81913.29
82049.811
82176.202
82393.782
82564.021
82878.088
83135.598
83564.406
83969.308
84548.674
85168.55
85963.747
86871.551
87968.952
89235.09
90698.938
92332.166
94093.268
95883.544
97578.312
99053.038
100235.43
101102.54
101639.61
101893.47
101962.07
101918.63
101808.79
101670.59
101532.13
101407.86
101301.86
101209.82
101128.35
101051.25
100969.14
100855.58
100742.39
100618.77
100394.99
100067.72
99873
99797.786
99770.008
99757.256
99859.085
81894.744
81957.024
82030.602
82113.04
82223.007
82368.701
82498.951
82729.708
82907.587
83238.609
83510.71
83960.992
84390.042
84997.821
85653.194
86488.059
87444.355
88595.013
89920.642
91444.367
93131.868
94928.356
96721.884
98380.156
99786.573
100886.78
101648.9
102069.71
102225.77
102224.73
102119.4
101960.23
101783.82
101615.64
101468.63
101345.84
101241.44
101150.76
101065.75
100971.83
100853.49
100738.26
100603.97
100339.06
100029.35
99863.926
99797.489
99766.546
99737.904
99770.725
82204.982
82271.513
82349.537
82437.372
82550.951
82706.954
82841.79
83087.413
83274.03
83623.379
83911.426
84384.303
84839.21
85476.935
86170.056
87046.986
88054.415
89260.809
90647.777
92231.787
93970.85
95795.346
97580.314
99189.951
100521.31
101530.32
102173.06
102474.72
102545.7
102472.65
102307.41
102101.3
101888.77
101692.71
101524.55
101386.31
101270.48
101171.38
101079.48
100973.02
100850.73
100733.92
100585.6
100279.84
99998.531
99857.951
99798.577
99765.977
99744.432
99725.221
82532.257
82604.063
82687.529
82782.018
82899.43
83067.156
83207.505
83468.715
83664.969
84033.421
84338.501
84834.833
85317.372
85986.751
86720.073
87641.66
88702.904
89967.482
91417.391
93061.464
94847.992
96691.31
98454.792
100004.75
101255.82
102157.26
102669.9
102859.63
102850.62
102705.08
102482.43
102231.92
101985.44
101763.37
101575.71
101423.29
101296.91
101190.13
101092.24
100973.52
100847.56
100728.51
100561.25
100222.82
99973.889
99855.021
99799.433
99766.181
99751.454
99751.041
82880.101
82957.628
83046.98
83150.106
83271.445
83451.587
83597.545
83874.574
84080.73
84468.703
84792.025
85312.914
85825.184
86528.226
87304.444
88273.352
89391.09
90716.162
92230.274
93933.214
95761.434
97612.436
99341.163
100822.09
101984.4
102759.76
103137.11
103229.21
103137.21
102921.55
102644.36
102352.1
102073.9
101827.75
101622.19
101456.83
101320.81
101206.96
101102.51
100973.73
100844.2
100720.87
100527.29
100174.56
99958.899
99851.048
99789.234
99766.895
99757.896
99772.081
83254.636
83336.659
83429.959
83542.473
83667.068
83859.482
84010.69
84303.772
84520.621
84928.981
85272.353
85819.32
86363.739
87102.667
87924.489
88943.458
90120.329
91508.101
93087.211
94846.666
96708.865
98554.837
100235.91
101640.34
102697.81
103331.9
103579.62
103580.72
103404.7
103121.93
102793.24
102461.98
102154.36
101886.03
101664.1
101486.97
101342.3
101222.17
101107.79
100973.56
100840.87
100710.01
100480.69
100140.97
99949.644
99843.763
99784.161
99770.795
99763.576
99791.546
83651.71
83738.031
83833.68
83954.8
84082.333
84287.91
84445.231
84755.775
84984.964
85415.217
85780.684
86355.372
86934.403
87711.477
88581.664
89653.473
90892.046
92344.508
93988.695
95800.708
97687.056
99514.177
101135.78
102455.84
103385.93
103869.62
104003.61
103910.19
103652.7
103306.21
102929.25
102561.78
102227.03
101938.37
101701.52
101513.72
101361.58
101236.27
101110.22
100972.46
100837.79
100695.76
100430.24
100114.32
99936.972
99834.074
99786.581
99775.691
99769.17
99809.768
84062.018
84155.47
84255.891
84386.255
84518.086
84738.47
84903.186
85232.685
85475.472
85929.027
86318.503
86922.436
87538.548
88356.118
89277.477
90404.954
91707.766
93226.645
94935.035
96793.756
98692.374
100486.57
102038.38
103259.49
104041.89
104377.09
104406.57
104216.74
103881.17
103474.61
103052.7
102651.85
102292.16
101984.86
101734.46
101537.19
101378.89
101249.19
101111.2
100970.77
100835
100678.67
100379.95
100088.86
99920.413
99823.366
99788.349
99780.026
99775.83
99825.636
84494.483
84595.578
84700.623
84841.797
84978.216
85214.371
85387.047
85736.279
85993.663
86471.517
86887.04
87521.776
88177.536
89038.112
90013.545
91199.585
92569.074
94155.61
95925.941
97823.261
99720.446
101467.99
102941.02
104039.84
104659.68
104860.84
104784.42
104499.98
104090.21
103627.42
103163.97
102732.47
102349.84
102025.42
101762.91
101557.61
101394.58
101259.04
101111.58
100968.59
100831.97
100658.43
100330.67
100062.22
99903.166
99819.711
99789.986
99783.566
99783.726
99839.245
84951.753
85060.981
85170.451
85323.007
85463.825
85716.184
85897.168
86266.986
86540.388
87043.59
87487.459
88154.725
88852.833
89759.126
90791.637
92039.198
93477.681
95132.409
96960.682
98886.172
100767.11
102454.95
103836.89
104787.7
105240.68
105320.83
105135.3
104759.94
104280.18
103765.17
103263.52
102803.89
102400.07
102060.07
101787.08
101575.57
101409.06
101264.06
101111.69
100965.95
100827.28
100631.96
100282.54
100033.72
99887.318
99817.748
99793.309
99786.653
99793.026
99852.194
85432.119
85549.854
85663.508
85828.39
85973.964
86243.427
86433.597
86825.547
87116.586
87646.463
88121.066
88822.756
89566.087
90521.031
91613.747
92925.821
94435.294
96157.61
98037.603
99978.529
101828.12
103444.24
104714.45
105495.46
105790.8
105753.16
105458.7
104996.82
104451.57
103888.38
103351.74
102866.21
102442.96
102089.29
101807.66
101591.85
101422.15
101266.26
101110.87
100962.87
100818.93
100594.78
100236.41
100004.26
99872.009
99817.24
99797.814
99791.307
99803.307
99863.702
85934.256
86061.519
86179.81
86358.237
86509.363
86797.084
86997.513
87413.37
87723.643
88281.451
88789.262
89527.519
90319.164
91325.947
92482.093
93861.629
95443.586
97231.342
99154.39
101096.13
102899.56
104432.39
105561.04
106159.74
106314.32
106154.28
105754.67
105211.13
104605.09
103997.67
103428.92
102919.62
102479.25
102114.42
101825.92
101607.06
101432.01
101267.1
101109.13
100959.38
100805.2
100544.61
100192.79
99976.407
99861.985
99817.263
99803.465
99798.216
99814.023
99873.751
86460.288
86598.163
86721.494
86914.108
87071.635
87378.964
87590.682
88031.308
88362.743
88949.801
89493.635
90270.943
91114.268
92176.308
93399.129
94848.901
96503.89
98352.874
100307.6
102234.35
103976.98
105408.48
106367.61
106784.77
106807.74
106523.46
106023.48
105403.53
104741.41
104093.46
103495.35
102964.86
102510.57
102137.27
101843.03
101620.76
101437.08
101267.44
101106.64
100955.31
100785.44
100485.13
100151.18
99955.103
99857.233
99818.59
99809.092
99806.778
99825.407
99883.827
87012.864
87161.968
87290.516
87497.876
87662.052
87990.2
88213.961
88680.271
89035.208
89653.172
90236.223
91055.427
91953.995
93074.814
94367.516
95889.919
97617.215
99520.716
101493.27
103388.71
105056.38
106359.06
107126.27
107378.47
107266.16
106860.67
106265.78
105574.86
104861.21
104176.14
103551.62
103003.53
102538.8
102158.08
101858.28
101630.25
101439.32
101267.35
101103.46
100949.99
100759.35
100421.92
100113.87
99939.053
99855.79
99822.408
99814.034
99816.873
99837.07
99893.615
87591.282
87752.531
87886.75
88109.647
88280.683
88631.218
88868.152
89361.839
89742.917
90393.898
91019.612
91883.8
92841.244
94024.441
95390.08
96986.804
98783.803
100732.25
102706.66
104554.18
106130.81
107270.89
107838.02
107939.32
107687.81
107166.23
106482.37
105725.96
104965.02
104246.25
103599.05
103037.68
102563.83
102172.73
101867.09
101635.03
101440.18
101266.17
101099.61
100942.16
100725.8
100359.97
100081.82
99927.354
99855.709
99827.879
99820.236
99828.107
99848.929
99903.063
88195.267
88369.769
88510.231
88750.069
88928.495
89303.629
89555.457
90078.46
90488.627
91174.805
91846.769
92759.176
93779.172
95028.357
96469.695
98141.367
100003.09
101984.02
103943.05
105725.78
107187.05
108134.32
108509.14
108462.77
108072.51
107440.88
106674.29
105857.63
105053.49
104305.05
103639.75
103067.98
102580.73
102179.97
101871.12
101637.08
101440.54
101264.08
101095.14
100930.21
100681.53
100303.69
100056.39
99921.405
99858.926
99835.499
99828.968
99840.325
99861.274
99911.864
88823.986
89013.844
89162.212
89421.831
89608.523
90010.47
90278.837
90833.28
91275.314
91998.886
92720.832
93684.909
94771.18
96089.942
97609.179
99354.749
101273.27
103271.37
105197.02
106897.95
108209.49
108943.66
109144.35
108944.37
108420.52
107685.54
106842.49
105970.62
105127.75
104354.79
103675.57
103090.78
102588.98
102182.77
101872.62
101637.9
101440.34
101261.31
101090.1
100912.83
100624.07
100256.83
100036.09
99918.866
99865.309
99845.913
99840.888
99853.781
99874.419
99919.919
89488.508
89693.731
89848.621
90129.27
90324.133
90754.725
91041.314
91628.444
92105.988
92869.318
93645.233
94664.671
95820.938
97212.691
98811.115
100627.31
102591.52
104589.19
106462.51
108060.22
109185.03
109702.54
109739.57
109383.56
108732.63
107901.37
106987.95
106065.97
105189.92
104397.93
103705.64
103102.72
102592.15
102183.75
101873.07
101638.12
101439.02
101258.05
101084.37
100889.47
100558.64
100217.09
100019.79
99918.105
99872.915
99858.229
99858.855
99873.066
99892.036
99927.839
90182.039
90405.308
90567.747
90872.384
91076.515
91538.297
91845.134
92467.558
92984
93789.792
94623.797
95702.511
96932.486
98400.163
100077.57
101958.22
103953.69
105931.76
107732.82
109196.09
110102.65
110419.36
110288.72
109780.44
109009.86
108089.51
107111.73
106145.44
105242.73
104434.49
103723.14
103107.63
102593.15
102183.17
101872.23
101637.36
101436.69
101254.38
101077.26
100859.84
100491.08
100180.43
100004.63
99918.107
99882.203
99872.606
99909.768
99931.326
99944.415
99938.567
90913.511
91156.048
91325.522
91656.2
91869.997
92364.986
92694.072
93353.462
93913.261
94764.437
95660.854
96802.911
98109.948
99655.673
101409.81
103345.39
105354.68
107292.87
109000.65
110287.95
110961.5
111092.88
110789.62
110135.81
109253.52
108251.26
107215.49
106211.86
105287.68
104458.94
103731.23
103109.44
102591.85
102180.22
101869.68
101635.37
101433.54
101250.32
101067.4
100821.85
100425.96
100146.47
99991.695
99920.424
99894.055
99895.649
99923.283
99944.598
99956.901
99977.997
91681.198
91945.447
92122.281
92482.293
92707.03
93237.724
93591.845
94290.396
94898.219
95798.136
96761.24
97970.619
99357.585
100982.13
102807.92
104785.22
106788.37
108664.67
110250.04
111322.26
111767.35
111717.32
111242.03
110450.73
109465
108388.08
107301.77
106268.1
105321.61
104471.38
103734.41
103108.75
102587.53
102174.99
101865.5
101632.25
101429.85
101245.89
101053.25
100771.48
100368.34
100119.15
99986.415
99926.751
99909.013
99923.18
99910.028
99927.486
99948.799
99987.655
92489.583
92778.305
92962.76
93355.503
93592.14
94160.526
94543.974
95283.347
95943.936
96896.108
97930.071
99210.478
100679.38
102381.58
104270.55
106272.75
108247.96
110038.73
111462.08
112290.44
112525.99
112287.26
111646.61
110726.68
109645.93
108502.19
107373.71
106314.28
105340.41
104476.55
103734.7
103104.52
102580.36
102167.65
101859.84
101628.18
101425.88
101241.07
101033.66
100707.33
100321.82
100098.3
99985.339
99937.394
99925.05
99919.984
99913.496
99932.17
99955.178
99959.216
93344.655
93660.181
93851.467
94280.02
94529.483
95137.812
95555.06
96337.398
97055.826
98063.986
99172.647
100527.37
102078.94
103854.94
105794.65
107801.45
109724.86
111402.53
112618.04
113195
113231.83
112801.88
112004.45
110965.3
109798.29
108596.66
107433.35
106343.46
105348.68
104477.79
103730.99
103096.92
102570.54
102158.41
101852.86
101623.36
101421.8
101235.43
101007.96
100637.81
100281.66
100082.35
99986.409
99950.206
99937.271
99920.159
99920.779
99942.254
99959.454
99960.044
94247.604
94593.264
94791.007
95259.453
95523.758
96174.814
96630.729
97458.683
98239.983
99307.718
100494.4
101925.96
103559.14
105401.65
107375.57
109363.86
111209.03
112735.52
113703.61
114045.22
113877.46
113261.61
112317.21
111168.63
109924.78
108674.89
107478.59
106357.98
105351.54
104474.68
103723.36
103086.22
102558.36
102147.45
101844.72
101618.03
101417.68
101227.89
100974.95
100567.63
100246.31
100072.11
99992.905
99961.633
99943.865
99926.248
99928.739
99952.066
99962.636
99967.907
95202.591
95582.924
95787.227
96300.222
96582.004
97278.132
97777.714
98653.62
99502.513
100633.17
101900.63
103410.61
105121.76
107019.31
109006.64
110950.75
112688.59
114015.27
114716.86
114837.58
114460.3
113667.49
112586.77
111339.13
110028.83
108738.34
107504.87
106364.04
105349.62
104466.97
103712.13
103072.77
102544.06
102134.97
101835.6
101612.45
101413.58
101216.98
100931.66
100501.84
100216.72
100066.85
100000.76
99968.03
99947.34
99935.631
99937.39
99958.747
99967.712
99975.264
96218.813
96638.158
96848.028
97409.524
97711.384
98454.14
99002.692
99928.41
100849.28
102046.32
103396.66
104984.95
106767
108703.37
110679.5
112550.56
114143.52
115223.51
115664.11
115564.59
114980.38
114021.3
112815.58
111480.08
110114.03
108782.66
107517.15
106364.56
105342.21
104455.04
103697.72
103056.88
102527.87
102121.15
101825.7
101606.93
101409.52
101201.32
100873.6
100447.47
100193.3
100063.27
100002.24
99970.268
99951.121
99945.847
99946.417
99965.443
99974.534
99982.058
97301.614
97764.781
97978.703
98592.263
98917.848
99708.913
100311.91
101289.25
102286.44
103553.54
104987.92
106651.84
108493.03
110446.87
112383.73
114149.44
115549.13
116350.67
116547.68
116220.53
115438.57
114325.22
113006.62
111595.23
110181.83
108807.34
107521.47
106358.64
105329.81
104439.4
103680.51
103038.84
102510.02
102106.15
101815.23
101601.7
101405.25
101179.63
100805.23
100403.36
100175.4
100059.57
100001.94
99971.72
99958
99956.043
99956.819
99973.949
99981.866
99988.148
98455.874
98968.313
99184.657
99852.852
100207.03
101048.34
101711.98
102743.35
103821.22
105161.99
106679.59
108412.24
110295.3
112240.31
114106.18
115728.71
116881.7
117399.98
117359.54
116804.86
115836.77
114582.21
113163.88
111688.32
110226.66
108818.73
107518.94
106346.73
105313
104420.54
103660.9
103018.96
102490.71
102090.14
101804.36
101596.82
101400.05
101151.14
100733.87
100365.26
100160.22
100055.24
100001.68
99975.507
99967.211
99965.629
99969.193
99983.822
99989.786
99993.974
99689.087
100255.36
100472.2
101196.75
101586.62
102477.23
103210.34
104300.21
105462.56
106879.03
108475.48
110264.53
112166.19
114071.55
115830.32
117260.53
118124.69
118378.22
118091.07
117318.21
116177.5
114795.91
113291.78
111761
110250.7
108821.49
107509.15
106329.51
105292.42
104398.92
103639.23
102997.5
102470.11
102073.28
101793.3
101592.25
101392.69
101115.33
100664.6
100331.02
100146.19
100051.13
100003.37
99982.759
99976.585
99974.85
99981.776
99993.417
99998.647
100000.18
101005.78
101629.34
101847.08
102630.27
103065.53
104007.83
104819.14
105971.99
107220.13
108710.85
110376.8
112203.47
114094.64
115925.4
117536.67
118716.05
119278.39
119276.38
118741.09
117762.59
116464.33
114970.93
113393.96
111807.42
110261.54
108816
107492.94
106307.78
105268.65
104375
103615.84
102974.71
102448.41
102055.76
101782.3
101588.12
101382.03
101070.16
100601.8
100300.12
100134.05
100049.68
100008.49
99991.137
99985.686
99984.135
99992.411
100002.9
100007.7
100007.76
102408.32
103095.44
103323.28
104168.9
104659.59
105656.86
106551.76
107769.71
109101.59
110660.82
112380.94
114219.82
116065.91
117781.77
119193.26
120073.29
120351.68
120083.39
119309.87
118140.96
116701.61
115112.18
113470.76
111831.8
110262.88
108802.64
107471.22
106282.25
105242.23
104349.18
103591.01
102950.8
102425.75
102037.79
101771.65
101584.54
101367.3
101011.39
100551.26
100273.98
100123.76
100049.3
100014.47
99999.904
99995.048
99993.525
100002.88
100012.43
100016.21
100016.15
103922.79
104679.47
104928.36
105836.1
106387.17
107436.91
108417.26
109700.71
111111.93
112729.02
114481
116299.61
118060.91
119616.82
120767.46
121330.02
121333.63
120797.39
119799.62
118457.55
116894.65
115223.59
113519.36
111842.46
110254.76
108782.52
107444.91
106253.63
105213.7
104321.85
103565.05
102926.02
102402.32
102019.57
101761.51
101581.08
101347.21
100945.57
100508.97
100252.57
100115.42
100049.34
100020.48
100008.9
100004.37
100002.74
100012.9
100020.9
100024.28
100024.31
105570.14
106402.58
106677.13
107642.96
108260.03
109360.31
110425.68
111771.55
113253.79
114911.51
116664.99
118424.01
120054.66
121394.63
122233.04
122493.96
122211.69
121418.45
120213.79
118717.63
117049
115304.74
113545.25
111842.53
110238.23
108756.75
107414.89
106222.57
105183.54
104293.36
103538.22
102900.61
102378.34
102001.19
101751.85
101576.64
101320.43
100878.75
100471.39
100235.14
100110.25
100051.05
100026.26
100017.21
100013.59
100011.68
100021.88
100028.67
100031.81
100031.97
107371.04
108277.25
108579.06
109596.85
110292.45
111441.2
112587
113990.97
115526.7
117197.85
118913.96
120568.18
122017.53
123077.83