/*--------------------------------*- C++ -*----------------------------------*\
  =========                 |
  \\      /  F ield         | OpenFOAM: The Open Source CFD Toolbox
   \\    /   O peration     | Website:  https://openfoam.org
    \\  /    A nd           | Version:  8
     \\/     M anipulation  |
\*---------------------------------------------------------------------------*/
FoamFile
{
    version     2.0;
    format      ascii;
    class       surfaceScalarField;
    location    "0.219989";
    object      phi;
}
// * * * * * * * * * * * * * * * * * * * * * * * * * * * * * * * * * * * * * //

dimensions      [1 0 -1 0 0 0 0];

internalField   nonuniform List<scalar> 
39600
(
7.7238945e-05
-0.0081447989
0.0081373885
9.3685552e-05
-0.011601867
0.011586633
0.00011334492
-0.015423435
0.015405037
0.00013568673
-0.020150063
0.020129224
0.00017043994
-0.026176203
0.026143364
6.4688221e-05
-0.033343626
0.033451509
-0.00020501107
-0.039991438
0.040263564
-0.0005290924
-0.048217935
0.048544889
-0.00091467181
-0.057468185
0.05785723
-0.001375129
-0.069067773
0.069532322
-0.0019218627
-0.08250698
0.083058693
-0.0025782001
-0.099005022
0.099667276
-0.0033570385
-0.11839551
0.11918166
-0.0042928507
-0.1419313
0.14287587
-0.0054045117
-0.1698295
0.17095197
-0.0067378022
-0.20346856
0.2048149
-0.0083225895
-0.24351418
0.24511529
-0.010217534
-0.29161823
0.2935333
-0.012471777
-0.34900839
0.35128788
-0.015168643
-0.4177727
0.4205007
-0.01838911
-0.49986903
0.50312783
-0.022244717
-0.59804676
0.60194923
-0.026861474
-0.71523303
0.71990744
-0.032358588
-0.85510768
0.86067567
-0.038879045
-1.0218974
1.0285031
-0.046745079
-1.2207958
1.2287644
-0.05623624
-1.4575167
1.4671289
-0.06768883
-1.7392295
1.7508153
-0.081441666
-2.0745563
2.0884727
-0.09790145
-2.4740594
2.4907116
-0.11750525
-2.950653
2.9704785
-0.1407196
-3.5201022
3.543571
-0.16806663
-4.2015421
4.2291718
-0.20010629
-5.0180409
5.0504084
-0.23750571
-5.9973819
6.0351385
-0.28093752
-7.1728848
7.2167272
-0.33112438
-8.584558
8.6351707
-0.38860826
-10.280386
10.338443
-0.45440394
-12.315582
12.381882
-0.52745386
-14.758321
14.831849
-0.60751929
-17.689912
17.770492
-0.69303997
-21.210506
21.296849
-0.78033587
-25.438804
25.527804
-0.86365924
-30.516207
30.599846
-0.93221011
-36.609736
36.677244
-0.96890049
-43.918722
43.949171
-0.94748281
-52.70527
52.66694
-0.82933212
-63.245155
63.100729
-0.53980636
-75.860202
75.537637
-91.024446
90.467806
7.5721881e-05
-0.0081640931
9.2635021e-05
-0.011617894
0.00011164383
-0.015441083
0.00013073335
-0.020167503
0.00015539156
-0.026199035
3.0251148e-05
-0.033216349
-0.00022576401
-0.039733058
-0.00053435117
-0.047906544
-0.00090140055
-0.05709772
-0.0013443018
-0.068620835
-0.0018708117
-0.081975424
-0.0025053102
-0.09836452
-0.0032586414
-0.11763477
-0.0041651141
-0.14101592
-0.0052412674
-0.16874247
-0.0065330167
-0.20216364
-0.0080670398
-0.24196381
-0.0099040503
-0.28976079
-0.012091583
-0.34679543
-0.014712492
-0.41512063
-0.017842527
-0.49670083
-0.021586643
-0.59425588
-0.026061567
-0.71070057
-0.03137882
-0.84971826
-0.037721323
-1.0154673
-0.045411238
-1.2130038
-0.054711631
-1.4480941
-0.06594117
-1.7278647
-0.079447761
-2.0608831
-0.095632629
-2.4576786
-0.11491984
-2.9311423
-0.13775944
-3.4970069
-0.16465561
-4.1743616
-0.19614945
-4.9862181
-0.23289077
-5.9602816
-0.27554589
-7.1298227
-0.32481903
-8.5348609
-0.38138125
-10.223222
-0.44586167
-12.250606
-0.51762483
-14.686228
-0.59631832
-17.610924
-0.68059878
-21.125494
-0.76696922
-25.350087
-0.84983525
-30.432762
-0.91886434
-36.54147
-0.95771431
-43.883842
-0.94135302
-52.734934
-0.83172472
-63.35634
-0.55729959
-76.120877
-91.519471
6.2701967e-05
-0.0081830793
8.1187081e-05
-0.01163533
0.00010282654
-0.015461492
0.00012600681
-0.020189132
0.00014978301
-0.026220862
1.285843e-05
-0.033077352
-0.00023630838
-0.039481473
-0.00053655999
-0.047603427
-0.00089302117
-0.05673768
-0.0013226044
-0.068187024
-0.0018320605
-0.08146075
-0.0024459807
-0.09774442
-0.0031735404
-0.11689957
-0.0040493696
-0.140131
-0.0050881937
-0.16769257
-0.0063354693
-0.20090302
-0.0078176416
-0.24046512
-0.0095956909
-0.28796232
-0.011716553
-0.34464901
-0.014257954
-0.41254771
-0.017289002
-0.49363081
-0.020915772
-0.59058179
-0.025222277
-0.70633345
-0.030364539
-0.84450267
-0.036551312
-1.0091938
-0.044071967
-1.2053786
-0.053170409
-1.4388729
-0.064183806
-1.7167138
-0.077456893
-2.0474401
-0.093383282
-2.4415531
-0.11237384
-2.9119261
-0.13486419
-3.4742596
-0.16133861
-4.1476003
-0.1923263
-4.9549
-0.22845805
-5.9237874
-0.27038621
-7.0874899
-0.31880821
-8.486014
-0.37446354
-10.166942
-0.43780402
-12.186769
-0.50844058
-14.615334
-0.58590262
-17.533273
-0.66903635
-21.041966
-0.7546904
-25.261903
-0.83730432
-30.34924
-0.90701596
-36.471995
-0.9482331
-43.846084
-0.93671227
-52.754469
-0.83556777
-63.401513
-0.57731598
-76.282955
-92.013753
4.9455133e-05
-0.0082020038
6.7130478e-05
-0.011653006
8.9196068e-05
-0.015482939
0.0001146122
-0.020213536
0.00013109923
-0.026236
-1.560061e-05
-0.032928839
-0.0002556485
-0.039239172
-0.00054488273
-0.047311359
-0.00088765011
-0.056391411
-0.0013015675
-0.067768864
-0.0017918295
-0.080965168
-0.0023838403
-0.097146067
-0.0030849536
-0.11619064
-0.0039300142
-0.13927667
-0.0049319376
-0.16667935
-0.0061365075
-0.19968487
-0.00756978
-0.2390151
-0.0092920562
-0.28621945
-0.011348972
-0.34256677
-0.013805212
-0.41006009
-0.016739395
-0.49065806
-0.020219216
-0.58705267
-0.024371044
-0.70212147
-0.029373144
-0.83942956
-0.035429505
-1.0030499
-0.042772989
-1.1979303
-0.051685249
-1.4298382
-0.062500373
-1.70576
-0.07556164
-2.0342066
-0.091251459
-2.4256618
-0.10997074
-2.8929797
-0.13213813
-3.4518346
-0.15822179
-4.1212279
-0.18873687
-4.9240532
-0.22430349
-5.8878554
-0.26555967
-7.0458303
-0.31319474
-8.4379496
-0.36796641
-10.111538
-0.43027735
-12.123964
-0.49991797
-14.545447
-0.57622079
-17.456895
-0.65850621
-20.959745
-0.74352875
-25.17625
-0.82607292
-30.265202
-0.89670323
-36.400908
-0.94055749
-43.804788
-0.93411937
-52.765363
-0.84192158
-63.475258
-0.60008254
-76.561744
-92.471013
3.9838149e-05
-0.0082209843
5.9367084e-05
-0.011671467
8.4304624e-05
-0.015506585
0.00011536815
-0.020243076
0.00012462368
-0.026243544
-2.8975217e-05
-0.032773307
-0.00026067628
-0.039005164
-0.00054043793
-0.047028837
-0.00087133394
-0.056056999
-0.0012713751
-0.067364604
-0.001744258
-0.08048702
-0.0023159188
-0.096568097
-0.0029918361
-0.11550689
-0.0038075397
-0.13845161
-0.0047746975
-0.16570074
-0.0059397821
-0.198506
-0.0073269593
-0.23761105
-0.0089950953
-0.28453079
-0.010979833
-0.34055715
-0.013356264
-0.40765217
-0.016159187
-0.48781453
-0.019511041
-0.58365093
-0.023543377
-0.69802985
-0.028429171
-0.83447147
-0.03433616
-0.99705463
-0.041515661
-1.1906451
-0.05025792
-1.4209734
-0.060895194
-1.6949828
-0.073765374
-2.0211626
-0.089242947
-2.4099811
-0.10771533
-2.8742798
-0.12958785
-3.4297043
-0.15531165
-4.0952141
-0.18539335
-4.8936389
-0.22043263
-5.8524486
-0.26106841
-7.0047908
-0.30797218
-8.3906022
-0.36192392
-10.056968
-0.42332204
-12.062086
-0.49207101
-14.476419
-0.56737947
-17.381553
-0.64895766
-20.878726
-0.73352276
-25.091737
-0.81616765
-30.180221
-0.8879468
-36.327987
-0.93463398
-43.758842
-0.93364107
-52.767458
-0.85094678
-63.614825
-0.62512742
-76.825802
-92.915467
2.8637103e-05
-0.0082401111
4.8342515e-05
-0.011690528
7.4691429e-05
-0.01553196
0.00011154258
-0.020278502
0.00011116537
-0.026241522
-4.6298393e-05
-0.032613839
-0.00026923952
-0.038779896
-0.00053911053
-0.046756066
-0.00085796592
-0.0557346
-0.0012441444
-0.066974167
-0.0016999321
-0.080025904
-0.0022519292
-0.096009739
-0.0029035792
-0.11484736
-0.0036913056
-0.13765449
-0.0046260618
-0.16475451
-0.0057549183
-0.19736336
-0.007095218
-0.2362537
-0.0087065711
-0.28289878
-0.010616287
-0.338621
-0.012879189
-0.40535664
-0.015578061
-0.48507539
-0.018830773
-0.58035031
-0.022764162
-0.69403729
-0.027517776
-0.82964619
-0.033283378
-0.99120097
-0.04031382
-1.1835093
-0.04890348
-1.4122619
-0.059383008
-1.6843628
-0.072085483
-2.0082851
-0.087374381
-2.394488
-0.105626
-2.8558003
-0.12723031
-3.4078422
-0.15262535
-4.0695282
-0.18230796
-4.8636228
-0.21686616
-5.8175212
-0.25693911
-6.9643122
-0.30317557
-8.3438994
-0.35637797
-10.003175
-0.41696859
-12.001034
-0.48488963
-14.408142
-0.55940649
-17.30693
-0.64041572
-20.798671
-0.72468475
-25.007869
-0.80764
-30.091122
-0.88079672
-36.253212
-0.93055846
-43.708967
-0.93553773
-52.76261
-0.8625688
-63.716888
-0.65273844
-77.074723
-93.335214
1.9726636e-05
-0.0082589096
3.9870961e-05
-0.011709337
6.7346324e-05
-0.01555802
0.0001103178
-0.020319664
9.8192422e-05
-0.026227584
-6.1026491e-05
-0.032452508
-0.00027583108
-0.038562578
-0.00053610154
-0.046492853
-0.00084315037
-0.05542389
-0.0012155051
-0.066597475
-0.0016548625
-0.079581197
-0.0021892517
-0.095468982
-0.0028176604
-0.11421102
-0.0035791998
-0.13688352
-0.0044822975
-0.16383987
-0.0055722714
-0.19625978
-0.0068686629
-0.23494028
-0.0084049266
-0.28134102
-0.010223367
-0.33677606
-0.012401905
-0.40314515
-0.015022751
-0.48241524
-0.018190362
-0.57713409
-0.022008161
-0.69016008
-0.02663662
-0.82494561
-0.032271515
-0.98547787
-0.039167792
-1.1765078
-0.047623623
-1.403685
-0.057966938
-1.6738786
-0.070524358
-1.9955521
-0.085650039
-2.3791581
-0.1037061
-2.8375173
-0.12506971
-3.3862219
-0.15016821
-4.0441388
-0.17948977
-4.8339678
-0.21361564
-5.7830259
-0.25317128
-6.9243483
-0.29880041
-8.297772
-0.35134494
-9.9500713
-0.41120307
-11.94071
-0.47840629
-14.340497
-0.55234515
-17.23275
-0.63289285
-20.719274
-0.71705114
-24.924504
-0.80053749
-30.006142
-0.87531408
-36.176493
-0.92843156
-43.654928
-0.93956252
-52.750986
-0.87674716
-63.803403
-0.68293309
-77.289009
-93.747164
1.0298912e-05
-0.0082777921
3.0373592e-05
-0.011728459
5.8777427e-05
-0.015585066
0.0001085481
-0.020367897
8.4718686e-05
-0.026201848
-7.3020606e-05
-0.032292652
-0.00027982669
-0.038353228
-0.0005296873
-0.046239983
-0.00082541273
-0.055124482
-0.0011836773
-0.066234881
-0.0016074912
-0.079151983
-0.0021263206
-0.094943805
-0.002731763
-0.11359767
-0.0034669456
-0.1361391
-0.0043400543
-0.1629553
-0.0053866207
-0.19519885
-0.006613663
-0.23369572
-0.0080838431
-0.27984936
-0.0098332404
-0.33500015
-0.011952029
-0.40099487
-0.014498238
-0.47982986
-0.017566755
-0.5740176
-0.021275858
-0.68639203
-0.025787411
-0.82036263
-0.031303322
-0.97987432
-0.038081553
-1.1696254
-0.046423436
-1.395223
-0.056652684
-1.6635083
-0.069089733
-1.9829391
-0.084075909
-2.3639677
-0.10196309
-2.8194041
-0.12311462
-3.3648145
-0.1479474
-4.0190153
-0.17694249
-4.8046394
-0.21067792
-5.7489212
-0.24977712
-6.8848381
-0.29490066
-8.2521145
-0.34682637
-9.8976177
-0.40605065
-11.881033
-0.47265298
-14.273383
-0.54619318
-17.158826
-0.62642467
-20.64015
-0.71069333
-24.841666
-0.79494242
-29.924152
-0.87155772
-36.097501
-0.92833118
-43.596625
-0.94591956
-52.73325
-0.8932986
-63.870931
-0.71657896
-77.464065
-94.295372
2.206625e-06
-0.0082963078
2.2762738e-05
-0.011747738
5.174808e-05
-0.015612405
0.00010842661
-0.020422787
7.2319603e-05
-0.026163632
-8.239702e-05
-0.032135702
-0.00028190362
-0.038151112
-0.00052166675
-0.045997198
-0.00080703437
-0.054835303
-0.0011528212
-0.065884702
-0.0015605515
-0.078738788
-0.0020591305
-0.094438938
-0.0026444044
-0.11300456
-0.0033534589
-0.1354204
-0.0041799328
-0.16211692
-0.0051727352
-0.19419185
-0.006350844
-0.23250002
-0.0077679664
-0.27841155
-0.0094736598
-0.33326892
-0.011525067
-0.39891168
-0.013987138
-0.4773286
-0.016961815
-0.57099478
-0.020568261
-0.68272663
-0.024973457
-0.81588611
-0.030383066
-0.97437762
-0.037060768
-1.1628446
-0.045309902
-1.3868551
-0.055447826
-1.6532298
-0.06778833
-1.9704233
-0.082660883
-2.3488924
-0.10040447
-2.8014366
-0.12137205
-3.3435932
-0.14597198
-3.9941258
-0.17468365
-4.7755956
-0.20807355
-5.7151635
-0.24677341
-6.8457249
-0.29148145
-8.2068565
-0.34285749
-9.845724
-0.40152714
-11.821926
-0.46765405
-14.206686
-0.54095707
-17.084979
-0.62104187
-20.560939
-0.70562764
-24.759983
-0.79083595
-29.840259
-0.8695715
-36.015696
-0.93033172
-43.534157
-0.95468837
-52.709965
-0.90799002
-63.918283
-0.75534905
-77.561672
-94.733232
-6.7093301e-06
-0.008314544
1.374601e-05
-0.011767213
4.2267159e-05
-0.015639699
0.00010433999
-0.020483294
5.507996e-05
-0.026112477
-9.715526e-05
-0.031981255
-0.00028799757
-0.037957723
-0.00052106386
-0.045761088
-0.00079331847
-0.054559313
-0.0011305714
-0.065543098
-0.0015205359
-0.078343307
-0.0019929899
-0.093959802
-0.0025488732
-0.11244053
-0.0032206706
-0.134739
-0.004013578
-0.16131212
-0.0049659624
-0.1932252
-0.0061079206
-0.23134113
-0.0074875876
-0.27701113
-0.0091323776
-0.3315986
-0.011111914
-0.39690075
-0.01349455
-0.4749072
-0.01638079
-0.56806095
-0.019893458
-0.67915564
-0.02420285
-0.81150608
-0.029521611
-0.96897268
-0.03611753
-1.1561468
-0.044294433
-1.3785607
-0.054365371
-1.6430184
-0.066633617
-1.9579801
-0.081417587
-2.3339066
-0.099044068
-2.7835878
-0.11985587
-3.3225292
-0.14425565
-3.9694373
-0.17271865
-4.7468016
-0.20581385
-5.6817016
-0.24416424
-6.8069586
-0.28851884
-8.1619446
-0.33946761
-9.7942572
-0.39766731
-11.763295
-0.46346051
-14.140294
-0.53663763
-17.011082
-0.61677736
-20.481278
-0.70187287
-24.677568
-0.78827507
-29.755206
-0.86942659
-35.930175
-0.93451514
-43.467768
-0.96598252
-52.680879
-0.92538704
-63.948774
-0.7971069
-77.729805
-94.949957
-1.467402e-05
-0.0083316592
5.3092024e-06
-0.011786067
3.3170741e-05
-0.01566617
9.8758722e-05
-0.020547101
3.6883252e-05
-0.0260488
-0.0001138955
-0.031828266
-0.00029689139
-0.037772179
-0.00052561335
-0.045529323
-0.00078658392
-0.05429458
-0.0011060301
-0.065219139
-0.0014719111
-0.077971896
-0.0019180347
-0.093507094
-0.0024509657
-0.11189951
-0.0030942828
-0.13408606
-0.0038593969
-0.16053562
-0.0047889775
-0.19228197
-0.0058923866
-0.23022082
-0.007218423
-0.27566455
-0.0088043353
-0.32998727
-0.010715864
-0.39495783
-0.013021959
-0.47256242
-0.015825456
-0.56521
-0.019253641
-0.67566945
-0.023480401
-0.80720925
-0.028723104
-0.96364492
-0.035256811
-1.1495132
-0.043384535
-1.3703176
-0.053412239
-1.6328515
-0.065633306
-1.9455856
-0.080353433
-2.3189869
-0.097888928
-2.7658331
-0.11857357
-3.3015952
-0.14280674
-3.9449176
-0.17106261
-4.7182172
-0.2039098
-5.6484893
-0.24197496
-6.7684722
-0.28604324
-8.1173219
-0.33664891
-9.7431318
-0.3945119
-11.705008
-0.46011
-14.074108
-0.53325462
-16.937042
-0.61364125
-20.400864
-0.69945713
-24.592071
-0.78729387
-29.668964
-0.87116889
-35.833679
-0.94097162
-43.397831
-0.97977079
-52.644635
-0.94965916
-63.965097
-0.84058288
-77.866772
-94.85363
-2.0929242e-05
-0.0083492738
-1.6288077e-07
-0.011805588
2.8361017e-05
-0.015693177
9.5274122e-05
-0.020612224
2.333007e-05
-0.025974916
-0.00012217065
-0.031680444
-0.00029494264
-0.037596838
-0.00050871247
-0.045312454
-0.00075582619
-0.054043644
-0.0010570493
-0.06491346
-0.0014118645
-0.077611578
-0.0018413099
-0.09307137
-0.0023544857
-0.11137865
-0.0029825345
-0.13344896
-0.0037232816
-0.15978362
-0.0046151029
-0.19137654
-0.0056747952
-0.22914435
-0.006951463
-0.27436742
-0.0084811534
-0.3284324
-0.010328321
-0.39307968
-0.01256383
-0.47028869
-0.015291278
-0.56243568
-0.018643849
-0.67225956
-0.022799939
-0.80298381
-0.027985041
-0.95837576
-0.034476964
-1.1429229
-0.042579027
-1.3621016
-0.052587836
-1.6227041
-0.064786587
-1.9332142
-0.079468101
-2.3041075
-0.096938118
-2.7481461
-0.11752512
-3.280761
-0.14162543
-3.9205326
-0.16971484
-4.6898018
-0.2023601
-5.6154797
-0.24019999
-6.7302026
-0.28405306
-8.0729243
-0.33440719
-9.6922583
-0.39207723
-11.646916
-0.4576161
-14.008013
-0.53082032
-16.862807
-0.61167755
-20.319749
-0.69843363
-24.506168
-0.78793539
-29.58165
-0.87487473
-35.738446
-0.94976428
-43.324653
-0.99605463
-52.599183
-0.98118357
-63.968056
-0.88338245
-77.970464
-94.958351
-2.8213953e-05
-0.0083655565
-7.0188648e-06
-0.011825396
2.3451364e-05
-0.01572197
8.989862e-05
-0.020676709
1.2798357e-05
-0.025895902
-0.00012428617
-0.031541
-0.00028770868
-0.037430749
-0.00049152033
-0.04510558
-0.00072640015
-0.053805136
-0.0010227537
-0.064613005
-0.0013657749
-0.07726344
-0.0017914706
-0.092639696
-0.0022870552
-0.1108755
-0.0028882343
-0.13283877
-0.0035964878
-0.1590642
-0.0044524723
-0.19050702
-0.0054719522
-0.22810816
-0.0067017132
-0.27311747
-0.0081776599
-0.32693156
-0.0099651359
-0.39126148
-0.012135512
-0.46808035
-0.014795704
-0.559729
-0.018081696
-0.66891683
-0.022181677
-0.79881549
-0.027326963
-0.95314802
-0.033799533
-1.1363546
-0.041899405
-1.3538904
-0.051913889
-1.6125532
-0.064114288
-1.9208437
-0.07878189
-2.2892452
-0.096213243
-2.7305014
-0.11673158
-3.2599988
-0.14073384
-3.8962487
-0.16869898
-4.6615146
-0.20119677
-5.5826176
-0.23887002
-6.6920879
-0.28258262
-8.0286863
-0.33279344
-9.6415346
-0.39038581
-11.588893
-0.45594006
-13.941903
-0.52945565
-16.788261
-0.61094301
-20.237746
-0.69886929
-24.419017
-0.79037443
-29.493193
-0.8807322
-35.656638
-0.96097028
-43.248159
-1.0144669
-52.543939
-1.0149468
-63.943397
-0.93044168
-78.024631
-95.240557
-3.1800994e-05
-0.0083844771
-6.7453567e-06
-0.011849233
2.9401146e-05
-0.015756656
9.6537196e-05
-0.020742085
1.5628959e-05
-0.025813031
-0.00011773217
-0.031405432
-0.00027676513
-0.037269254
-0.00047606202
-0.044903331
-0.00070630629
-0.053571318
-0.00099294062
-0.06432217
-0.0013239951
-0.076927174
-0.0017373052
-0.092220307
-0.0022083976
-0.11039681
-0.0027839131
-0.13225419
-0.0034638917
-0.15837303
-0.0042869501
-0.18967038
-0.0052684782
-0.22711011
-0.0064540892
-0.2719119
-0.0078807292
-0.32548047
-0.0096126321
-0.38949936
-0.011724338
-0.46593129
-0.014325226
-0.55708218
-0.017557866
-0.66562822
-0.021615325
-0.79469029
-0.026740287
-0.94794178
-0.033216567
-1.129784
-0.041338605
-1.3456584
-0.051383825
-1.6023722
-0.06361023
-1.9084485
-0.078288097
-2.2743747
-0.095706885
-2.7128719
-0.11618686
-3.2392775
-0.1401261
-3.8720304
-0.16800877
-4.6333134
-0.20041388
-5.5498473
-0.23805
-6.6539987
-0.28163821
-7.9845942
-0.3318022
-9.5908656
-0.38945486
-11.530787
-0.45511467
-13.87568
-0.52915014
-16.713251
-0.61145597
-20.154584
-0.70080375
-24.330279
-0.79464752
-29.403243
-0.88875207
-35.581392
-0.97465708
-43.168014
-1.0354144
-52.481436
-1.0513957
-63.922083
-0.98390099
-78.08299
-95.490516
-3.7617562e-05
-0.008403118
-1.2280625e-05
-0.011873465
2.6353149e-05
-0.015793997
9.1327076e-05
-0.020805337
5.9569506e-06
-0.025725922
-0.00012849635
-0.031268798
-0.00028288693
-0.037112419
-0.00047240755
-0.044710796
-0.00069254227
-0.053347506
-0.00096238025
-0.064048075
-0.0012795482
-0.076604678
-0.001672575
-0.091821089
-0.0021255326
-0.10993617
-0.002679316
-0.13169131
-0.0033335131
-0.15770757
-0.0041258253
-0.18886462
-0.0050717031
-0.22614782
-0.0062157997
-0.27074809
-0.0075963067
-0.32407583
-0.0092786408
-0.3877872
-0.011338375
-0.46383466
-0.013889115
-0.55448613
-0.017080301
-0.662382
-0.021113245
-0.7905909
-0.026237806
-0.94273802
-0.032740375
-1.1231901
-0.040909484
-1.3373822
-0.051008875
-1.5921397
-0.063285979
-1.8960058
-0.07799853
-2.2594732
-0.095430573
-2.6952331
-0.11590147
-3.218569
-0.13981431
-3.8478424
-0.16765912
-4.6051542
-0.20002505
-5.5171137
-0.23767372
-6.6158934
-0.28123075
-7.9405519
-0.33145914
-9.5401408
-0.38927431
-11.472475
-0.4552251
-13.809193
-0.52993513
-16.637643
-0.61327749
-20.070244
-0.70429525
-24.239792
-0.80081631
-29.311511
-0.89896995
-35.49835
-0.99079223
-43.083534
-1.0596933
-52.4141
-1.0910198
-63.905762
-1.0423945
-78.130995
-95.697501
-4.3514784e-05
-0.0084208613
-1.8189662e-05
-0.01189766
2.3188236e-05
-0.015834082
8.3732989e-05
-0.020864156
-4.2226011e-06
-0.025636283
-0.00013589005
-0.031134972
-0.00028313233
-0.036962758
-0.00046744374
-0.044523568
-0.00067622886
-0.053135093
-0.00094006431
-0.063780092
-0.0012425355
-0.076296902
-0.0016165477
-0.091440965
-0.0020529657
-0.10949211
-0.0025859313
-0.13114924
-0.0032155975
-0.15706672
-0.0039785898
-0.1880882
-0.0048910012
-0.22521913
-0.0059968337
-0.26962279
-0.0073354306
-0.32271344
-0.0089718754
-0.38612142
-0.010986322
-0.46178387
-0.013497251
-0.55193054
-0.016660665
-0.6591642
-0.020686756
-0.78649908
-0.025832791
-0.93751382
-0.032386026
-1.116547
-0.040625909
-1.3290367
-0.050804735
-1.5818289
-0.06315487
-1.8834919
-0.077926162
-2.2445154
-0.095396587
-2.6775588
-0.11588946
-3.1978414
-0.13981425
-3.8236457
-0.16766873
-4.5769885
-0.2000545
-5.4843561
-0.23775631
-6.5777352
-0.28138355
-7.8964559
-0.33178135
-9.4892587
-0.38983805
-11.413894
-0.45635704
-13.742112
-0.53185984
-16.561388
-0.61644156
-19.984722
-0.70937551
-24.147011
-0.80884736
-29.215075
-0.91138515
-35.406924
-1.0086404
-42.993178
-1.0880174
-52.341026
-1.1336113
-63.872721
-1.1059291
-78.165551
-95.865348
-4.8556359e-05
-0.0084381853
-2.2824599e-05
-0.011922245
2.1919233e-05
-0.015877546
7.6565266e-05
-0.020917103
-1.2219053e-05
-0.025545814
-0.00013587058
-0.031009143
-0.00027573647
-0.036820476
-0.0004537824
-0.044342609
-0.00065414284
-0.052931179
-0.00090941665
-0.06352072
-0.0011988342
-0.076002282
-0.0015597448
-0.091074035
-0.0019789585
-0.10906532
-0.002491588
-0.13062763
-0.0030978533
-0.15644937
-0.0038332811
-0.18733955
-0.0047146996
-0.22432165
-0.0057852317
-0.26853301
-0.0070858873
-0.32138928
-0.0086816842
-0.3844967
-0.010658501
-0.45977127
-0.013140008
-0.54940521
-0.016290898
-0.65596008
-0.020330063
-0.78239588
-0.025519846
-0.93224825
-0.032147446
-1.1098328
-0.040484266
-1.3205972
-0.050764906
-1.5714192
-0.063211362
-1.8708854
-0.078063311
-2.2294811
-0.095600244
-2.6598222
-0.11614784
-3.1770631
-0.1401234
-3.7994026
-0.16803557
-4.5487677
-0.20049468
-5.4515189
-0.23831707
-6.5394645
-0.28210036
-7.8522178
-0.33278098
-9.4381065
-0.39122987
-11.354889
-0.45846864
-13.674288
-0.53494562
-16.484302
-0.62099478
-19.89771
-0.71609995
-24.051751
-0.81885282
-29.114559
-0.92612048
-35.30877
-1.0288557
-42.895096
-1.1195455
-52.241468
-1.1786008
-63.823864
-1.1741469
-78.176865
-95.992805
-5.3390359e-05
-0.0084550725
-2.7625742e-05
-0.01194696
2.0334252e-05
-0.015924297
6.6577665e-05
-0.020961744
-2.1467018e-05
-0.025456156
-0.00014064208
-0.030887884
-0.00027488529
-0.036683866
-0.00044664206
-0.044168023
-0.00064007342
-0.052734248
-0.00088517294
-0.063271612
-0.0011636032
-0.07571872
-0.001510285
-0.090721413
-0.0019132411
-0.10865491
-0.0024068963
-0.13012513
-0.0029914387
-0.15585397
-0.003701364
-0.18661661
-0.0045543415
-0.22345286
-0.005592914
-0.26747544
-0.0068589275
-0.32010011
-0.0084214952
-0.3829056
-0.010369824
-0.45778774
-0.012833825
-0.5468979
-0.015987183
-0.65275426
-0.020059052
-0.77826058
-0.025316562
-0.92691616
-0.032043962
-1.1030201
-0.040500216
-1.3120394
-0.050905118
-1.5608862
-0.063468743
-1.8581639
-0.07842602
-2.2143439
-0.096057062
-2.6419942
-0.11669237
-3.1562002
-0.14075871
-3.7750721
-0.16877935
-4.5204396
-0.20139092
-5.4185225
-0.23938416
-6.5010365
-0.28341224
-7.807741
-0.33442952
-9.3866167
-0.39353976
-11.295215
-0.46159273
-13.605621
-0.53924183
-16.406083
-0.62699474
-19.809203
-0.72455264
-23.95373
-0.83092011
-29.010468
-0.94324123
-35.203358
-1.0515287
-42.785723
-1.155315
-52.155244
-1.2268868
-63.754472
-1.2469103
-78.165547
-96.083605
-5.6686338e-05
-0.0084726114
-3.0083447e-05
-0.011972489
2.1744556e-05
-0.01597491
6.0859156e-05
-0.020999256
-2.7981377e-05
-0.025365705
-0.00014293841
-0.030770893
-0.00027146105
-0.03655299
-0.00043673656
-0.04399996
-0.00062186616
-0.052545638
-0.00085754465
-0.063031944
-0.0011247487
-0.075446443
-0.001458849
-0.090381478
-0.0018469354
-0.10825948
-0.0023228337
-0.12964056
-0.002887442
-0.15527868
-0.0035740233
-0.1859173
-0.0044013265
-0.22261001
-0.0054110791
-0.26644698
-0.0066479821
-0.31884039
-0.0081837242
-0.3813418
-0.010113289
-0.45582364
-0.012572095
-0.54439676
-0.015745981
-0.64952932
-0.019870635
-0.77407444
-0.025219473
-0.92149548
-0.03207201
-1.0960855
-0.040670448
-1.3033424
-0.05122033
-1.5502114
-0.063923952
-1.8453063
-0.079011186
-2.1990807
-0.096763428
-2.6240489
-0.11751982
-3.1352205
-0.14171911
-3.7506127
-0.1698996
-4.4919527
-0.20275914
-5.3852815
-0.24095705
-6.4624154
-0.28531633
-7.7629325
-0.33684862
-9.3346034
-0.39671967
-11.23478
-0.46575905
-13.535953
-0.54478496
-16.32652
-0.63447659
-19.719084
-0.7347784
-23.852715
-0.8450538
-28.901296
-0.96245712
-35.08462
-1.0791312
-42.667944
-1.1936022
-52.056814
-1.2791169
-63.635694
-1.3245537
-78.133792
-96.136963
-5.9041147e-05
-0.0084914884
-3.0991373e-05
-0.011999477
2.4405641e-05
-0.016029112
5.6249633e-05
-0.021029537
-3.0342011e-05
-0.025277503
-0.00014144113
-0.030657812
-0.00026475399
-0.036427347
-0.00042451577
-0.043837471
-0.00060232804
-0.052364392
-0.0008296983
-0.062800679
-0.0010870266
-0.075184111
-0.0014093157
-0.090053453
-0.0017839786
-0.10787759
-0.0022436918
-0.12917233
-0.0027901855
-0.15472174
-0.003455552
-0.18523945
-0.004259981
-0.22179031
-0.0052448306
-0.26544374
-0.0064583555
-0.31760437
-0.0079748213
-0.3797977
-0.009894536
-0.45386986
-0.012362536
-0.54188697
-0.015573891
-0.64626746
-0.019774131
-0.76981339
-0.025239354
-0.91595945
-0.032240107
-1.089004
-0.0410027
-1.2944822
-0.051720286
-1.5393701
-0.064586728
-1.8322879
-0.079827273
-2.1836664
-0.097728705
-2.6059572
-0.1186456
-3.1140838
-0.14301573
-3.7259855
-0.17140784
-4.4632546
-0.20455062
-5.3517641
-0.24306828
-6.4234843
-0.28780358
-7.71774
-0.34008269
-9.281837
-0.40079749
-11.1735
-0.47099668
-13.465126
-0.5516146
-16.245466
-0.64349052
-19.627003
-0.74681402
-23.748499
-0.86125148
-28.786093
-0.98193407
-34.95731
-1.1105768
-42.558732
-1.2331066
-51.938016
-1.3365367
-63.53383
-1.4072114
-78.107917
-96.153075
-6.1653373e-05
-0.008511158
-3.2544336e-05
-0.012027539
2.498915e-05
-0.016085472
4.6913309e-05
-0.021049921
-3.5704927e-05
-0.02519331
-0.00014360765
-0.030547984
-0.00026237284
-0.036306254
-0.00041729705
-0.043679877
-0.00058806628
-0.052190228
-0.00080817585
-0.062576737
-0.0010562298
-0.074931125
-0.0013677123
-0.089736353
-0.0017300253
-0.10750818
-0.0021748757
-0.12871915
-0.0027049451
-0.15418142
-0.0033515977
-0.18458055
-0.0041357466
-0.22099116
-0.005099782
-0.26446159
-0.0062954205
-0.31638663
-0.0077997032
-0.37826629
-0.0097206613
-0.4519156
-0.012211782
-0.53935508
-0.015480602
-0.64294976
-0.019780735
-0.76545454
-0.025387605
-0.91028474
-0.032558582
-1.0817555
-0.041507836
-1.2854384
-0.05241495
-1.5283424
-0.06546445
-1.8190901
-0.08089219
-2.1680687
-0.098996343
-2.5876674
-0.12009208
-3.0927724
-0.14465976
-3.7011637
-0.173338
-4.4342722
-0.20679925
-5.3179375
-0.24562657
-6.3842508
-0.29106433
-7.6718418
-0.34409887
-9.2283081
-0.40580927
-11.111221
-0.47734753
-13.392965
-0.55977057
-16.162562
-0.65408766
-19.532529
-0.7607296
-23.640756
-0.87964794
-28.664759
-1.0062927
-34.828557
-1.1442579
-42.435542
-1.2755515
-51.79016
-1.4007064
-63.431436
-1.4938333
-78.087615
-96.135025
-6.2389463e-05
-0.008533312
-3.0839213e-05
-0.012058133
2.8959475e-05
-0.01614416
4.1844853e-05
-0.021061357
-3.8357586e-05
-0.025111554
-0.00014307703
-0.030441424
-0.00025701885
-0.036190023
-0.00040734271
-0.043526958
-0.00057152984
-0.052022697
-0.00078474526
-0.06235978
-0.0010244738
-0.074686549
-0.0013259663
-0.089429341
-0.0016770589
-0.10715015
-0.0021084702
-0.12827956
-0.0026242809
-0.15365561
-0.0032542711
-0.18393855
-0.0040214785
-0.2202092
-0.0049692239
-0.26349602
-0.0061527746
-0.31518127
-0.0076532828
-0.37673906
-0.0095865374
-0.44994938
-0.012118194
-0.53678322
-0.015465817
-0.63955356
-0.019889375
-0.76097304
-0.025661675
-0.90444548
-0.033027748
-1.0743131
-0.042184309
-1.2761884
-0.053300791
-1.5171064
-0.066561573
-1.8056824
-0.082220769
-2.1522421
-0.10052407
-2.5691819
-0.12184259
-3.0712412
-0.1466888
-3.6760651
-0.17567679
-4.4049864
-0.20941729
-5.2838354
-0.24887376
-6.344388
-0.29500105
-7.6252563
-0.34891264
-9.1738971
-0.41177432
-11.047787
-0.48483112
-13.319299
-0.5692908
-16.077552
-0.66630403
-19.435231
-0.77658114
-23.529065
-0.90039473
-28.537248
-1.034641
-34.695878
-1.1789279
-42.294361
-1.3236856
-51.645569
-1.4699572
-63.306527
-1.5842735
-77.924529
-96.082078
-6.3970932e-05
-0.0085568355
-3.1209492e-05
-0.012089988
2.8575837e-05
-0.016202873
3.0680984e-05
-0.021062085
-4.7069094e-05
-0.025032242
-0.0001495661
-0.03033711
-0.00025949737
-0.036077745
-0.00040575612
-0.04337819
-0.00056416342
-0.051860915
-0.00077097851
-0.062149279
-0.0010031
-0.074449593
-0.00129551
-0.089131529
-0.0016368374
-0.10680196
-0.002056413
-0.12785201
-0.002559648
-0.15314256
-0.0031753095
-0.18331111
-0.0039288481
-0.21944117
-0.0048650553
-0.2625423
-0.0060423527
-0.3139826
-0.0075483615
-0.3752069
-0.0095077756
-0.44795781
-0.012097771
-0.53415424
-0.015545955
-0.63605847
-0.020117864
-0.75634553
-0.02607951
-0.89841975
-0.033661848
-1.0666573
-0.043047882
-1.2667116
-0.054391181
-1.5056463
-0.067915236
-1.7920152
-0.083792153
-2.1362023
-0.10232895
-2.5504673
-0.12390277
-3.0494585
-0.14900642
-3.6507116
-0.17837166
-4.3753265
-0.21264743
-5.2492053
-0.25272251
-6.303909
-0.29963953
-7.5778821
-0.35456868
-9.1184657
-0.41874333
-10.98304
-0.49350272
-13.24394
-0.58022161
-15.990283
-0.68019602
-19.334755
-0.79444048
-23.413135
-0.92358351
-28.40445
-1.0658521
-34.556628
-1.2174845
-42.138153
-1.3780434
-51.494257
-1.5427721
-63.158005
-1.6818208
-77.735273
-95.995133
-6.3628159e-05
-0.0085833495
-2.8260877e-05
-0.012124503
3.1868796e-05
-0.016262034
2.4154872e-05
-0.021053032
-4.9936948e-05
-0.024956706
-0.00014915645
-0.030236204
-0.00025410802
-0.035970624
-0.00039603034
-0.043233754
-0.00054894713
-0.051704788
-0.00074965582
-0.061944963
-0.00097495348
-0.074219596
-0.0012592601
-0.088841919
-0.001591908
-0.10646261
-0.0020011336
-0.12743497
-0.0024937193
-0.15264037
-0.0030976721
-0.18269563
-0.0038412908
-0.21868338
-0.0047708474
-0.26159554
-0.0059495043
-0.3127829
-0.0074707997
-0.37365976
-0.0094712858
-0.44592555
-0.012138065
-0.53144883
-0.015710215
-0.63243979
-0.020455607
-0.75154507
-0.026630631
-0.89218149
-0.034450909
-1.0587646
-0.044085415
-1.2569871
-0.055703733
-1.4939122
-0.069475728
-1.7781027