/*--------------------------------*- C++ -*----------------------------------*\
  =========                 |
  \\      /  F ield         | OpenFOAM: The Open Source CFD Toolbox
   \\    /   O peration     | Website:  https://openfoam.org
    \\  /    A nd           | Version:  8
     \\/     M anipulation  |
\*---------------------------------------------------------------------------*/
FoamFile
{
    version     2.0;
    format      ascii;
    class       pointVectorField;
    location    "0.219989";
    object      pointDisplacement;
}
// * * * * * * * * * * * * * * * * * * * * * * * * * * * * * * * * * * * * * //

dimensions      [0 1 0 0 0 0 0];

internalField   nonuniform List<vector> 
40800
(
(-0.00019787528 0 -0.00016432549)
(-0.00019778105 0 -0.0001364296)
(-0.00019775235 0 -0.00013657212)
(-0.0001978448 0 -0.00016506349)
(-0.0001977489 0 -0.00013656017)
(-0.00019784152 0 -0.00016506475)
(-0.00019774219 0 -0.00013654902)
(-0.00019783507 0 -0.00016506775)
(-0.00019773082 0 -0.00013653875)
(-0.00019782408 0 -0.00016507396)
(-0.0001977129 0 -0.00013653072)
(-0.00019780669 0 -0.0001650851)
(-0.00019768571 0 -0.00013652699)
(-0.00019778025 0 -0.00016510359)
(-0.00019764566 0 -0.00013653046)
(-0.00019774122 0 -0.00016513284)
(-0.00019758773 0 -0.00013654544)
(-0.00019768468 0 -0.00016517776)
(-0.00019750524 0 -0.00013657794)
(-0.00019760405 0 -0.00016524516)
(-0.00019738907 0 -0.00013663693)
(-0.00019749036 0 -0.00016534507)
(-0.00019722707 0 -0.00013673511)
(-0.00019733168 0 -0.00016549133)
(-0.00019700311 0 -0.0001368913)
(-0.00019711209 0 -0.00016570415)
(-0.00019669565 0 -0.00013713314)
(-0.00019681048 0 -0.0001660122)
(-0.00019627699 0 -0.00013750093)
(-0.00019639948 0 -0.00016645639)
(-0.00019571075 0 -0.00013805283)
(-0.00019584335 0 -0.00016709485)
(-0.00019495127 0 -0.00013887376)
(-0.00019509698 0 -0.00016801161)
(-0.00019394212 0 -0.00014006876)
(-0.00019410439 0 -0.00016930837)
(-0.00019261406 0 -0.00014178888)
(-0.00019279693 0 -0.00017113403)
(-0.00019088327 0 -0.00014425828)
(-0.00019109109 0 -0.00017370707)
(-0.0001886508 0 -0.00014777895)
(-0.00018888826 0 -0.00017731478)
(-0.00018580683 0 -0.00015275029)
(-0.00018607805 0 -0.00018233914)
(-0.00018223718 0 -0.000159678)
(-0.0001825446 0 -0.00018926498)
(-0.00017783436 0 -0.00016917036)
(-0.00017817733 0 -0.00019867579)
(-0.00017251057 0 -0.00018190792)
(-0.00017288423 0 -0.00021122324)
(-0.00016621419 0 -0.00019856856)
(-0.00016660707 0 -0.00022755985)
(-0.00015896107 0 -0.00021966613)
(-0.00015935868 0 -0.00024816497)
(-0.00015080868 0 -0.00024557461)
(-0.00015118674 0 -0.00027342168)
(-0.0001418816 0 -0.00027610724)
(-0.00014221285 0 -0.00030315932)
(-0.00013234618 0 -0.00031033818)
(-0.00013260732 0 -0.00033644087)
(-0.00012235244 0 -0.00034677213)
(-0.00012252625 0 -0.00037169307)
(-0.00011208858 0 -0.00038351369)
(-0.00011216989 0 -0.00040696947)
(-0.0001017624 0 -0.00041823265)
(-0.00010175278 0 -0.00043995198)
(-9.1552041e-05 0 -0.00044863954)
(-9.1458849e-05 0 -0.00046840766)
(-8.1673519e-05 0 -0.00047234135)
(-8.1518495e-05 0 -0.00048994537)
(-7.2233492e-05 0 -0.00048772843)
(-7.203851e-05 0 -0.00050306079)
(-6.3107102e-05 0 -0.00049476902)
(-6.2877114e-05 0 -0.00050790658)
(-5.4027227e-05 0 -0.00049333442)
(-5.3733748e-05 0 -0.00050442881)
(-4.5197597e-05 0 -0.0004820952)
(-4.4868913e-05 0 -0.00049111259)
(-3.6542485e-05 0 -0.0004605353)
(-3.6155841e-05 0 -0.00046752834)
(-2.8066511e-05 0 -0.0004316494)
(-2.7648134e-05 0 -0.00043700798)
(-2.0027511e-05 0 -0.00039384847)
(-1.9570092e-05 0 -0.00039746969)
(-1.2567145e-05 0 -0.00035045776)
(-1.2125042e-05 0 -0.0003530147)
(-5.446233e-06 0 -0.00029674729)
(-4.956207e-06 0 -0.00029759546)
(7.6357833e-07 0 -0.00023925071)
(1.1821411e-06 0 -0.00023972133)
(6.4556876e-06 0 -0.00016983097)
(6.8964612e-06 0 -0.00016876938)
(1.3461454e-05 0 -7.032253e-05)
(1.4045075e-05 0 -6.6570096e-05)
(1.6936973e-05 0 7.9039131e-06)
(1.7426806e-05 0 1.1887082e-05)
(1.6584009e-05 0 5.6253513e-05)
(1.6915633e-05 0 5.8829312e-05)
(1.6121398e-05 0 0.00014819508)
(1.6677764e-05 0 0.00015657374)
(0 0 0)
(0 0 0)
(-0.0001975817 0 -0.00010913443)
(-0.00019755344 0 -0.00010926657)
(-0.00019754973 0 -0.00010923716)
(-0.00019754269 0 -0.00010920463)
(-0.00019753088 0 -0.00010916919)
(-0.00019751238 0 -0.00010913138)
(-0.00019748444 0 -0.00010909213)
(-0.00019744337 0 -0.00010905312)
(-0.00019738405 0 -0.00010901714)
(-0.00019729969 0 -0.00010898848)
(-0.00019718097 0 -0.00010897442)
(-0.00019701558 0 -0.00010898574)
(-0.000196787 0 -0.00010903965)
(-0.0001964735 0 -0.0001091622)
(-0.00019604686 0 -0.00010939193)
(-0.00019547031 0 -0.00010978723)
(-0.0001946979 0 -0.00011042652)
(-0.00019367259 0 -0.00011141903)
(-0.00019232457 0 -0.00011292038)
(-0.00019056929 0 -0.00011515521)
(-0.00018830788 0 -0.00011843832)
(-0.00018543135 0 -0.00012318221)
(-0.0001818272 0 -0.00012991044)
(-0.00017739086 0 -0.00013925419)
(-0.00017203823 0 -0.00015192445)
(-0.00016572481 0 -0.00016862635)
(-0.00015846818 0 -0.00018992145)
(-0.00015033659 0 -0.00021617549)
(-0.00014145858 0 -0.00024719094)
(-0.00013199441 0 -0.00028207519)
(-0.00012209012 0 -0.00031942421)
(-0.00011192238 0 -0.00035741783)
(-0.00010169276 0 -0.00039371287)
(-9.1573249e-05 0 -0.00042598275)
(-8.1767064e-05 0 -0.00045181645)
(-7.2375569e-05 0 -0.00046953761)
(-6.3293381e-05 0 -0.00047889069)
(-5.4285139e-05 0 -0.00047966821)
(-4.5515135e-05 0 -0.00047068548)
(-3.6921061e-05 0 -0.00045142305)
(-2.850902e-05 0 -0.00042449336)
(-2.0510552e-05 0 -0.00038863791)
(-1.3069223e-05 0 -0.00034674932)
(-5.9804367e-06 0 -0.00029475801)
(2.424565e-07 0 -0.00023838547)
(5.9585878e-06 0 -0.00017019049)
(1.276052e-05 0 -7.4327127e-05)
(1.6297334e-05 0 3.1013212e-06)
(1.6134748e-05 0 5.280172e-05)
(1.5441296e-05 0 0.00013852428)
(0 0 0)
(-0.00019727958 0 -8.2427499e-05)
(-0.00019725218 0 -8.25615e-05)
(-0.00019724831 0 -8.2527409e-05)
(-0.00019724099 0 -8.2486765e-05)
(-0.00019722873 0 -8.2436021e-05)
(-0.00019720948 0 -8.2373894e-05)
(-0.00019718047 0 -8.2300311e-05)
(-0.00019713792 0 -8.2216353e-05)
(-0.00019707664 0 -8.2123777e-05)
(-0.00019698966 0 -8.2026228e-05)
(-0.00019686753 0 -8.1930243e-05)
(-0.00019669768 0 -8.1845843e-05)
(-0.0001964633 0 -8.1789738e-05)
(-0.0001961424 0 -8.178643e-05)
(-0.00019570613 0 -8.1874167e-05)
(-0.00019511745 0 -8.2107409e-05)
(-0.00019432997 0 -8.2564628e-05)
(-0.00019328609 0 -8.3355148e-05)
(-0.00019191533 0 -8.463676e-05)
(-0.00019013247 0 -8.6642641e-05)
(-0.00018783881 0 -8.9694931e-05)
(-0.00018492623 0 -9.4219806e-05)
(-0.0001812842 0 -0.0001007591)
(-0.00017681133 0 -0.00010996687)
(-0.00017142779 0 -0.00012258294)
(-0.00016509628 0 -0.00013933835)
(-0.00015783744 0 -0.00016083521)
(-0.0001497299 0 -0.00018742895)
(-0.00014090618 0 -0.0002189104)
(-0.00013152031 0 -0.00025441745)
(-0.00012171334 0 -0.00029262938)
(-0.00011165124 0 -0.00033179909)
(-0.00010152839 0 -0.00036957747)
(-9.1510071e-05 0 -0.00040360884)
(-8.1787134e-05 0 -0.00043146889)
(-7.2455729e-05 0 -0.00045142046)
(-6.3427061e-05 0 -0.00046300803)
(-5.4494897e-05 0 -0.00046594034)
(-4.5790473e-05 0 -0.00045915555)
(-3.7262033e-05 0 -0.00044213322)
(-2.8916862e-05 0 -0.00041715071)
(-2.0963893e-05 0 -0.000383213)
(-1.3546015e-05 0 -0.00034283709)
(-6.4922975e-06 0 -0.0002925441)
(-2.6312791e-07 0 -0.00023733555)
(5.4686725e-06 0 -0.000170413)
(1.2082147e-05 0 -7.8012086e-05)
(1.5667713e-05 0 -1.4959294e-06)
(1.5678878e-05 0 4.9300567e-05)
(1.4786423e-05 0 0.00012934076)
(0 0 0)
(-0.00019687804 0 -5.6296584e-05)
(-0.00019685091 0 -5.6406895e-05)
(-0.00019684623 0 -5.6341693e-05)
(-0.00019683796 0 -5.6267244e-05)
(-0.00019682466 0 -5.6182708e-05)
(-0.00019680422 0 -5.6086645e-05)
(-0.00019677382 0 -5.5977408e-05)
(-0.00019672948 0 -5.585393e-05)
(-0.00019666595 0 -5.571533e-05)
(-0.00019657599 0 -5.5562985e-05)
(-0.00019644997 0 -5.5400229e-05)
(-0.000196275 0 -5.5235046e-05)
(-0.00019603397 0 -5.5081368e-05)
(-0.00019570448 0 -5.496202e-05)
(-0.00019525718 0 -5.4913399e-05)
(-0.00019465468 0 -5.4989562e-05)
(-0.00019384999 0 -5.5267602e-05)
(-0.00019278507 0 -5.5858584e-05)
(-0.00019138865 0 -5.6926428e-05)
(-0.00018957508 0 -5.8709109e-05)
(-0.00018724587 0 -6.153763e-05)
(-0.00018429385 0 -6.585246e-05)
(-0.00018061066 0 -7.2213746e-05)
(-0.00017609833 0 -8.1298996e-05)
(-0.00017068202 0 -9.3874551e-05)
(-0.00016433154 0 -0.00011069694)
(-0.00015707213 0 -0.00013240038)
(-0.00014899197 0 -0.00015932762)
(-0.00014022738 0 -0.00019126007)
(-0.00013092673 0 -0.00022736468)
(-0.00012122474 0 -0.00026639543)
(-0.0001112773 0 -0.00030667225)
(-0.00010127106 0 -0.0003458461)
(-9.1363754e-05 0 -0.0003815417)
(-8.1734496e-05 0 -0.00041132494)
(-7.2474118e-05 0 -0.00043340478)
(-6.3508226e-05 0 -0.00044714626)
(-5.465676e-05 0 -0.00045217378)
(-4.6023636e-05 0 -0.00044752771)
(-3.756531e-05 0 -0.00043268728)
(-2.9290132e-05 0 -0.00040963649)
(-2.1387435e-05 0 -0.00037758836)
(-1.3997901e-05 0 -0.00033873538)
(-6.9820165e-06 0 -0.00029011847)
(-7.5284913e-07 0 -0.00023610839)
(4.9866839e-06 0 -0.00017049993)
(1.1425842e-05 0 -8.1386559e-05)
(1.5048459e-05 0 -5.8892695e-06)
(1.5217701e-05 0 4.5767497e-05)
(1.4155432e-05 0 0.0001206176)
(0 0 0)
(-0.00019638027 0 -3.072966e-05)
(-0.00019635347 0 -3.0828176e-05)
(-0.00019634814 0 -3.0743283e-05)
(-0.00019633904 0 -3.0645018e-05)
(-0.00019632463 0 -3.0531662e-05)
(-0.00019630273 0 -3.0401024e-05)
(-0.00019627043 0 -3.0250848e-05)
(-0.00019622369 0 -3.0079324e-05)
(-0.00019615708 0 -2.988496e-05)
(-0.00019606323 0 -2.9668051e-05)
(-0.00019593228 0 -2.9430674e-05)
(-0.00019575109 0 -2.9179052e-05)
(-0.00019550218 0 -2.8924942e-05)
(-0.00019516274 0 -2.8688942e-05)
(-0.00019470288 0 -2.8504982e-05)
(-0.00019408465 0 -2.8425216e-05)
(-0.0001932606 0 -2.8526641e-05)
(-0.00019217199 0 -2.8922186e-05)
(-0.00019074692 0 -2.977965e-05)
(-0.00018889945 0 -3.1343489e-05)
(-0.00018653132 0 -3.3954832e-05)
(-0.00018353642 0 -3.8069228e-05)
(-0.00017980878 0 -4.4265016e-05)
(-0.00017525411 0 -5.3242766e-05)
(-0.00016980324 0 -6.5793608e-05)
(-0.00016343315 0 -8.2698002e-05)
(-0.00015617502 0 -0.00010461435)
(-0.00014812561 0 -0.00013187198)
(-0.00013942495 0 -0.00016424345)
(-0.00013021624 0 -0.00020092354)
(-0.00012062673 0 -0.00024073294)
(-0.0001108027 0 -0.00028205219)
(-0.00010092237 0 -0.00032253844)
(-9.1135578e-05 0 -0.00035980379)
(-8.160984e-05 0 -0.00039140976)
(-7.2430936e-05 0 -0.00041551636)
(-6.3536769e-05 0 -0.00043133051)
(-5.4770886e-05 0 -0.00043839147)
(-4.6214458e-05 0 -0.00043582388)
(-3.783075e-05 0 -0.00042310598)
(-2.962873e-05 0 -0.00040196526)
(-2.1781031e-05 0 -0.00037177787)
(-1.4424838e-05 0 -0.00033445522)
(-7.4496718e-06 0 -0.00028749314)
(-1.2264818e-06 0 -0.0002347114)
(4.5134054e-06 0 -0.00017045242)
(1.0790814e-05 0 -8.4464721e-05)
(1.4439802e-05 0 -1.008143e-05)
(1.4752507e-05 0 4.2218347e-05)
(1.3547039e-05 0 0.00011232944)
(0 0 0)
(-0.00019578866 0 -5.715032e-06)
(-0.00019576204 0 -5.8035594e-06)
(-0.00019575573 0 -5.7011223e-06)
(-0.00019574543 0 -5.5815242e-06)
(-0.00019572956 0 -5.441647e-06)
(-0.00019570586 0 -5.278233e-06)
(-0.00019567132 0 -5.0880538e-06)
(-0.00019562175 0 -4.8684088e-06)
(-0.0001955516 0 -4.6170649e-06)
(-0.00019545328 0 -4.3333584e-06)
(-0.0001953167 0 -4.0184058e-06)
(-0.00019512841 0 -3.6771659e-06)
(-0.00019487053 0 -3.3198851e-06)
(-0.00019451983 0 -2.9653338e-06)
(-0.00019404583 0 -2.6453578e-06)
(-0.00019341001 0 -2.4100769e-06)
(-0.00019256425 0 -2.3358276e-06)
(-0.00019144921 0 -2.5374047e-06)
(-0.00018999246 0 -3.1865688e-06)
(-0.00018810786 0 -4.5350645e-06)
(-0.00018569748 0 -6.935919e-06)
(-0.0001826564 0 -1.0860422e-05)
(-0.0001788811 0 -1.6904387e-05)
(-0.0001742814 0 -2.5790764e-05)
(-0.00016879441 0 -3.8333915e-05)
(-0.00016240438 0 -5.5336746e-05)
(-0.00015514977 0 -7.7474871e-05)
(-0.00014713491 0 -0.00010506317)
(-0.00013850281 0 -0.00013786319)
(-0.00012939233 0 -0.00017509752)
(-0.00011992259 0 -0.00021564947)
(-0.00011023027 0 -0.00025795174)
(-0.00010048473 0 -0.0002996717)
(-9.0827352e-05 0 -0.00033841641)
(-8.1414467e-05 0 -0.00037174702)
(-7.2326854e-05 0 -0.00039778078)
(-6.3513111e-05 0 -0.00041558453)
(-5.4837686e-05 0 -0.00042461518)
(-4.6363173e-05 0 -0.00042406485)
(-3.8058427e-05 0 -0.00041340951)
(-2.9932834e-05 0 -0.00039415236)
(-2.2144652e-05 0 -0.00036579569)
(-1.4826939e-05 0 -0.00033000829)
(-7.8953618e-06 0 -0.00028467935)
(-1.683819e-06 0 -0.00023315146)
(4.049449e-06 0 -0.00017027221)
(1.0176352e-05 0 -8.7259295e-05)
(1.384198e-05 0 -1.407499e-05)
(1.428446e-05 0 3.8667679e-05)
(1.2960121e-05 0 0.00010445354)
(0 0 0)
(-0.00019510597 0 1.8758698e-05)
(-0.00019507958 0 1.8683675e-05)
(-0.00019507217 0 1.8808466e-05)
(-0.00019506047 0 1.8955347e-05)
(-0.00019504283 0 1.9127125e-05)
(-0.00019501692 0 1.9327184e-05)
(-0.00019497967 0 1.9559003e-05)
(-0.00019492675 0 1.9826103e-05)
(-0.00019485246 0 2.0131796e-05)
(-0.00019474899 0 2.0478268e-05)
(-0.00019460598 0 2.0866202e-05)
(-0.00019440964 0 2.1292622e-05)
(-0.00019414169 0 2.1749502e-05)
(-0.00019377836 0 2.2220105e-05)
(-0.00019328859 0 2.2674668e-05)
(-0.00019263315 0 2.3064491e-05)
(-0.0001917633 0 2.3313526e-05)
(-0.00019061903 0 2.3305577e-05)
(-0.00018912745 0 2.286487e-05)
(-0.00018720244 0 2.1729389e-05)
(-0.00018474648 0 1.9531936e-05)
(-0.00018165592 0 1.5784829e-05)
(-0.00017782979 0 9.8769608e-06)
(-0.00017318246 0 1.0640194e-06)
(-0.00016765794 0 -1.1491036e-05)
(-0.00016124798 0 -2.8610904e-05)
(-0.0001539994 0 -5.0982235e-05)
(-0.00014602302 0 -7.8904251e-05)
(-0.00013746424 0 -0.0001121251)
(-0.00012845822 0 -0.00014989444)
(-0.00011911541 0 -0.00019115527)
(-0.00010956281 0 -0.00023438485)
(-9.996044e-05 0 -0.00027726391)
(-9.0440937e-05 0 -0.00031740045)
(-8.1149644e-05 0 -0.00035236024)
(-7.2162604e-05 0 -0.00038022278)
(-6.3437549e-05 0 -0.0003999327)
(-5.4857559e-05 0 -0.00041086699)
(-4.6469941e-05 0 -0.00041227137)
(-3.8248451e-05 0 -0.00040361766)
(-3.0202563e-05 0 -0.00038621296)
(-2.2478313e-05 0 -0.00035965572)
(-1.5204121e-05 0 -0.00032540453)
(-8.319156e-06 0 -0.00028168794)
(-2.1247308e-06 0 -0.00023143543)
(3.5954145e-06 0 -0.00016996115)
(9.5815988e-06 0 -8.9785734e-05)
(1.3255119e-05 0 -1.787372e-05)
(1.381467e-05 0 3.5128426e-05)
(1.2393591e-05 0 9.6968256e-05)
(0 0 0)
(-0.00019433511 0 4.2702831e-05)
(-0.00019430871 0 4.2639483e-05)
(-0.00019429989 0 4.2784328e-05)
(-0.00019428647 0 4.2955656e-05)
(-0.00019426676 0 4.3156399e-05)
(-0.00019423836 0 4.3390452e-05)
(-0.00019419808 0 4.3661895e-05)
(-0.00019414145 0 4.3975294e-05)
(-0.00019406254 0 4.433518e-05)
(-0.00019395332 0 4.4745229e-05)
(-0.00019380311 0 4.5207775e-05)
(-0.00019359775 0 4.5721608e-05)
(-0.00019331848 0 4.6280562e-05)
(-0.00019294103 0 4.686968e-05)
(-0.00019243367 0 4.7460884e-05)
(-0.00019175649 0 4.8006858e-05)
(-0.00019085998 0 4.8432011e-05)
(-0.00018968349 0 4.8618864e-05)
(-0.00018815384 0 4.8388681e-05)
(-0.00018618518 0 4.7464053e-05)
(-0.0001836805 0 4.5460917e-05)
(-0.00018053732 0 4.1875953e-05)
(-0.0001766573 0 3.6086746e-05)
(-0.00017195993 0 2.7328369e-05)
(-0.0001663968 0 1.4740193e-05)
(-0.00015996733 0 -2.5168677e-06)
(-0.00015272757 0 -2.5134648e-05)
(-0.00014479393 0 -5.3393294e-05)
(-0.00013631338 0 -8.7029127e-05)
(-0.00012741789 0 -0.00012531812)
(-0.0001182089 0 -0.0001672573)
(-0.00010880363 0 -0.00021136248)
(-9.9352347e-05 0 -0.00025532985)
(-8.9978591e-05 0 -0.00029677447)
(-8.0817094e-05 0 -0.00033327049)
(-7.1939267e-05 0 -0.00036286566)
(-6.3310793e-05 0 -0.00038439736)
(-5.4831121e-05 0 -0.00039716759)
(-4.6535212e-05 0 -0.00040046302)
(-3.8401098e-05 0 -0.00039374956)
(-3.0438234e-05 0 -0.00037816253)
(-2.2782126e-05 0 -0.00035337194)
(-1.5556469e-05 0 -0.00032065471)
(-8.7211807e-06 0 -0.00027852952)
(-2.5491359e-06 0 -0.00022957027)
(3.1517403e-06 0 -0.00016952201)
(9.005794e-06 0 -9.205792e-05)
(1.2679375e-05 0 -2.1481117e-05)
(1.3344167e-05 0 3.1612651e-05)
(1.1846509e-05 0 8.9854063e-05)
(0 0 0)
(-0.00019347894 0 6.6128336e-05)
(-0.00019345257 0 6.6074952e-05)
(-0.00019344246 0 6.623681e-05)
(-0.00019342742 0 6.6428106e-05)
(-0.00019340565 0 6.6653161e-05)
(-0.0001933746 0 6.6917153e-05)
(-0.00019333093 0 6.7225629e-05)
(-0.00019327002 0 6.7584409e-05)
(-0.00019318574 0 6.7999257e-05)
(-0.00019306982 0 6.8475067e-05)
(-0.00019291128 0 6.9015353e-05)
(-0.00019269559 0 6.9620225e-05)
(-0.00019240353 0 7.0284809e-05)
(-0.00019201026 0 7.0995552e-05)
(-0.00019148338 0 7.1725805e-05)
(-0.00019078215 0 7.2429437e-05)
(-0.0001898563 0 7.3031589e-05)
(-0.0001886445 0 7.3414266e-05)
(-0.00018707397 0 7.3384667e-05)
(-0.00018505931 0 7.2652781e-05)
(-0.00018250308 0 7.0831142e-05)
(-0.00017930347 0 6.7406399e-05)
(-0.0001753657 0 6.1732516e-05)
(-0.00017061597 0 5.3008782e-05)
(-0.00016501343 0 4.0363116e-05)
(-0.00015856523 0 2.2947103e-05)
(-0.00015133742 0 6.7650116e-08)
(-0.00014345099 0 -2.8533017e-05)
(-0.00013505387 0 -6.2580172e-05)
(-0.00012627502 0 -0.00010137539)
(-0.00011720664 0 -0.00014396412)
(-0.00010795597 0 -0.00018889578)
(-9.8663199e-05 0 -0.00023388422)
(-8.9442591e-05 0 -0.00027655603)
(-8.0418508e-05 0 -0.00031449809)
(-7.1657969e-05 0 -0.00034573148)
(-6.3133487e-05 0 -0.00036900076)
(-5.475899e-05 0 -0.00038353731)
(-4.6559384e-05 0 -0.00038865895)
(-3.8516677e-05 0 -0.00038382359)
(-3.0640115e-05 0 -0.00037001604)
(-2.3056247e-05 0 -0.00034695794)
(-1.5883961e-05 0 -0.00031576848)
(-9.1015312e-06 0 -0.00027521423)
(-2.9569687e-06 0 -0.00022756264)
(2.7188801e-06 0 -0.00016895732)
(8.4481794e-06 0 -9.4090333e-05)
(1.2114827e-05 0 -2.4901489e-05)
(1.2873917e-05 0 2.8131062e-05)
(1.1317974e-05 0 8.3092474e-05)
(0 0 0)
(-0.00019253974 0 8.904592e-05)
(-0.00019251315 0 8.900164e-05)
(-0.00019250141 0 8.9179794e-05)
(-0.00019248438 0 8.9390537e-05)
(-0.00019246015 0 8.9639822e-05)
(-0.00019242605 0 8.9934159e-05)
(-0.00019237856 0 9.0280431e-05)
(-0.00019231289 0 9.0685582e-05)
(-0.00019222268 0 9.1156549e-05)
(-0.00019209937 0 9.1699282e-05)
(-0.00019193167 0 9.231831e-05)
(-0.00019170464 0 9.301485e-05)
(-0.00019139855 0 9.3785155e-05)
(-0.00019098793 0 9.4617087e-05)
(-0.00019043967 0 9.5485449e-05)
(-0.00018971211 0 9.6346083e-05)
(-0.00018875422 0 9.7124716e-05)
(-0.00018750505 0 9.7691316e-05)
(-0.00018589246 0 9.7833044e-05)
(-0.00018382951 0 9.7266374e-05)
(-0.00018121784 0 9.5610784e-05)
(-0.00017795731 0 9.2346381e-05)
(-0.00017395841 0 8.6789827e-05)
(-0.00016915403 0 7.8096222e-05)
(-0.00016351089 0 6.5381978e-05)
(-0.00015704511 0 4.7784915e-05)
(-0.00014983274 0 2.4626673e-05)
(-0.00014199866 0 -4.3236253e-06)
(-0.00013369037 0 -3.8780198e-05)
(-0.00012503402 0 -7.8068808e-05)
(-0.00011611281 0 -0.00012128002)
(-0.00010702364 0 -0.000166992)
(-9.789632e-05 0 -0.00021293766)
(-8.8835667e-05 0 -0.00025675937)
(-7.9956058e-05 0 -0.00029605996)
(-7.132026e-05 0 -0.0003288397)
(-6.290672e-05 0 -0.00035376247)
(-5.4642042e-05 0 -0.00036999498)
(-4.6543151e-05 0 -0.00037687727)
(-3.8595682e-05 0 -0.00037385769)
(-3.080868e-05 0 -0.00036178873)
(-2.3300943e-05 0 -0.00034042754)
(-1.618674e-05 0 -0.00031075644)
(-9.4603442e-06 0 -0.00027175212)
(-3.3481946e-06 0 -0.00022541936)
(2.2971792e-06 0 -0.0001682703)
(7.9080923e-06 0 -9.5895909e-05)
(1.1561577e-05 0 -2.8138957e-05)
(1.2404825e-05 0 2.4693691e-05)
(1.0807199e-05 0 7.666676e-05)
(0 0 0)
(-0.00019151976 0 0.00011146606)
(-0.00019149308 0 0.00011143478)
(-0.00019147945 0 0.0001116349)
(-0.00019146004 0 0.00011187253)
(-0.00019143283 0 0.00011215344)
(-0.00019139507 0 0.00011248442)
(-0.00019134312 0 0.00011287272)
(-0.00019127199 0 0.00011332609)
(-0.00019117514 0 0.00011385239)
(-0.00019104371 0 0.00011445887)
(-0.00019086604 0 0.0001151517)
(-0.00019062675 0 0.00011593378)
(-0.00019030547 0 0.00011680356)
(-0.00018987609 0 0.00011775084)
(-0.00018930451 0 0.00011875312)
(-0.00018854833 0 0.00011976721)
(-0.00018755678 0 0.0001207112)
(-0.00018626973 0 0.00012143577)
(-0.00018461318 0 0.00012173162)
(-0.00018249767 0 0.00012132589)
(-0.00017982594 0 0.00011982584)
(-0.00017650098 0 0.00011669722)
(-0.00017243854 0 0.00011123378)
(-0.00016757627 0 0.000102579)
(-0.00016189116 0 8.980002e-05)
(-0.00015540997 0 7.1997888e-05)
(-0.00014821702 0 4.8541334e-05)
(-0.00014044069 0 1.9231953e-05)
(-0.0001322269 0 -1.5633515e-05)
(-0.00012369904 0 -5.540354e-05)
(-0.00011493146 0 -9.9211328e-05)
(-0.00010601033 0 -0.00014565981)
(-9.7054911e-05 0 -0.0001925018)
(-8.8160508e-05 0 -0.00023739889)
(-7.9431832e-05 0 -0.00027797327)
(-7.0927642e-05 0 -0.00031220954)
(-6.2631485e-05 0 -0.00033870237)
(-5.4481135e-05 0 -0.0003565592)
(-4.6487141e-05 0 -0.00036513568)
(-3.8638609e-05 0 -0.00036386901)
(-3.0944345e-05 0 -0.00035349528)
(-2.3516502e-05 0 -0.00033379409)
(-1.6464877e-05 0 -0.00030562831)
(-9.7977454e-06 0 -0.00026815283)
(-3.7227887e-06 0 -0.00022314695)
(1.8869868e-06 0 -0.00016746396)
(7.3849043e-06 0 -9.7487532e-05)
(1.1019655e-05 0 -3.1198113e-05)
(1.1937717e-05 0 2.1309353e-05)
(1.0313411e-05 0 7.0560835e-05)
(0 0 0)
(-0.00019042211 0 0.0001333991)
(-0.00019039471 0 0.00013337991)
(-0.00019037882 0 0.0001336014)
(-0.00019035659 0 0.00013386565)
(-0.00019032597 0 0.00013417857)
(-0.00019028409 0 0.0001345471)
(-0.00019022719 0 0.00013497858)
(-0.0001901501 0 0.0001354813)
(-0.00019004605 0 0.00013606371)
(-0.00018990583 0 0.00013673428)
(-0.00018971742 0 0.00013750031)
(-0.00018946482 0 0.00013836681)
(-0.0001891271 0 0.00013933434)
(-0.00018867722 0 0.00014039569)
(-0.0001880802 0 0.00014153039)
(-0.00018729382 0 0.00014269175)
(-0.00018626823 0 0.00014377994)
(-0.00018494171 0 0.00014464844)
(-0.00018323682 0 0.00014510456)
(-0.00018106418 0 0.00014486222)
(-0.00017832844 0 0.00014351084)
(-0.00017493588 0 0.0001404955)
(-0.00017080685 0 0.00013509632)
(-0.00016588459 0 0.0001264602)
(-0.00016015768 0 0.00011360915)
(-0.0001536635 0 9.5589656e-05)
(-0.00014649422 0 7.1814143e-05)
(-0.00013878118 0 4.2137338e-05)
(-0.00013066813 0 6.8629137e-06)
(-0.00012227475 0 -3.3379919e-05)
(-0.00011366702 0 -7.7760625e-05)
(-0.00010492011 0 -0.00012490411)
(-9.6142535e-05 0 -0.00017258445)
(-8.7420094e-05 0 -0.00021848561)
(-7.8848243e-05 0 -0.00026025177)
(-7.0481913e-05 0 -0.00029585744)
(-6.2309093e-05 0 -0.0003238377)
(-5.4277311e-05 0 -0.00034324708)
(-4.6392179e-05 0 -0.0003534509)
(-3.8646087e-05 0 -0.00035387422)
(-3.1047662e-05 0 -0.00034515036)
(-2.3703285e-05 0 -0.00032707091)
(-1.6718577e-05 0 -0.00030039454)
(-1.0113921e-05 0 -0.00026442613)
(-4.0807719e-06 0 -0.00022075228)
(1.4885498e-06 0 -0.00016654213)
(6.8780668e-06 0 -9.887685e-05)
(1.048913e-05 0 -3.4083371e-05)
(1.1473383e-05 0 1.7986289e-05)
(9.8359468e-06 0 6.476016e-05)
(0 0 0)
(-0.00018924829 0 0.00015485501)
(-0.00018922007 0 0.00015485655)
(-0.0001892014 0 0.00015510671)
(-0.00018917593 0 0.00015540264)
(-0.00018914156 0 0.00015574855)
(-0.00018909537 0 0.00015615166)
(-0.00018903335 0 0.0001566208)
(-0.00018895013 0 0.00015716565)
(-0.00018883856 0 0.00015779673)
(-0.00018868908 0 0.00015852462)
(-0.00018848915 0 0.00015935911)
(-0.00018822212 0 0.00016030743)
(-0.00018786642 0 0.00016137255)
(-0.00018739397 0 0.00016254937)
(-0.00018676977 0 0.00016381614)
(-0.00018595263 0 0.00016511077)
(-0.00018489152 0 0.00016633416)
(-0.00018352149 0 0.00016735493)
(-0.000181764 0 0.00016797305)
(-0.00017953031 0 0.00016788876)
(-0.00017672657 0 0.00016667819)
(-0.00017326266 0 0.00016376528)
(-0.00016906412 0 0.0001584105)
(-0.00016408193 0 0.00014974342)
(-0.00015831483 0 0.00013678452)
(-0.00015180971 0 0.00011854708)
(-0.00014466812 0 9.4444537e-05)
(-0.00013702416 0 6.4391038e-05)
(-0.00012901835 0 2.8707007e-05)
(-0.00012076564 0 -1.2000716e-05)
(-0.00011232383 0 -5.6931707e-05)
(-0.00010375693 0 -0.00010473025)
(-9.5162652e-05 0 -0.00015319352)
(-8.661736e-05 0 -0.0002000301)
(-7.8207629e-05 0 -0.00024290876)
(-6.9984836e-05 0 -0.00027979903)
(-6.1940787e-05 0 -0.00030918535)
(-5.403161e-05 0 -0.00033007494)
(-4.6259064e-05 0 -0.00034183881)
(-3.861875e-05 0 -0.00034388892)
(-3.1119156e-05 0 -0.00033676786)
(-2.3861674e-05 0 -0.00032027077)
(-1.6948004e-05 0 -0.00029506483)
(-1.0409038e-05 0 -0.00026058131)
(-4.4221618e-06 0 -0.00021824193)
(1.102128e-06 0 -0.00016550831)
(6.3870898e-06 0 -0.00010007507)
(9.9700267e-06 0 -3.6799389e-05)
(1.1012544e-05 0 1.4731673e-05)
(9.3741635e-06 0 5.9250845e-05)
(0 0 0)
(-0.0001880013 0 0.00017584373)
(-0.00018797315 0 0.00017584461)
(-0.00018795271 0 0.00017610146)
(-0.00018792491 0 0.00017640761)
(-0.00018788736 0 0.00017677104)
(-0.00018783695 0 0.00017720062)
(-0.00018776943 0 0.00017770617)
(-0.00018767927 0 0.00017829797)
(-0.00018755898 0 0.00017898707)
(-0.00018739875 0 0.00017978432)
(-0.00018718552 0 0.00018069988)
(-0.00018690214 0 0.00018174177)
(-0.0001865263 0 0.0001829138)
(-0.00018602929 0 0.00018421253)
(-0.00018537688 0 0.00018560679)
(-0.00018452736 0 0.00018703155)
(-0.00018342723 0 0.00018839826)
(-0.00018200976 0 0.00018957377)
(-0.00018019598 0 0.00019034941)
(-0.0001778973 0 0.00019041703)
(-0.00017502158 0 0.00018933904)
(-0.00017148298 0 0.00018651581)
(-0.0001672128 0 0.00018118379)
(-0.00016217079 0 0.00017244866)
(-0.00015636609 0 0.0001593302)
(-0.00014985301 0 0.00014085898)
(-0.00014274286 0 0.00011643517)
(-0.00013517415 0 8.5996674e-05)
(-0.00012728237 0 4.9901741e-05)
(-0.00011917661 0 8.7353607e-06)
(-0.00011090662 0 -3.6724213e-05)
(-0.00010252511 0 -8.5139525e-05)
(-9.4119071e-05 0 -0.00013433284)
(-8.5756084e-05 0 -0.00018205006)
(-7.7513748e-05 0 -0.0002259768)
(-6.9439377e-05 0 -0.00026406794)
(-6.1528561e-05 0 -0.0002947701)
(-5.3745281e-05 0 -0.00031705761)
(-4.6088788e-05 0 -0.00033031426)
(-3.8557378e-05 0 -0.00033392827)
(-3.1159487e-05 0 -0.00032836163)
(-2.3992143e-05 0 -0.00031340643)
(-1.7153445e-05 0 -0.00028964952)
(-1.0683309e-05 0 -0.00025662779)
(-4.7470049e-06 0 -0.00021562267)
(7.279136e-07 0 -0.00016436658)
(5.9115486e-06 0 -0.00010109238)
(9.4623991e-06 0 -3.9350639e-05)
(1.0555891e-05 0 1.1552246e-05)
(8.9275059e-06 0 5.4020172e-05)
(0 0 0)
(-0.00018668345 0 0.00019637482)
(-0.00018665449 0 0.00019638566)
(-0.00018663149 0 0.00019665997)
(-0.00018660059 0 0.00019698644)
(-0.00018655921 0 0.0001973738)
(-0.00018650409 0 0.00019783188)
(-0.00018643075 0 0.00019837165)
(-0.00018633337 0 0.00019900495)
(-0.0001862041 0 0.00019974427)
(-0.00018603269 0 0.00020060226)
(-0.00018580557 0 0.00020159063)
(-0.00018550492 0 0.00020271915)
(-0.0001851077 0 0.00020399317)
(-0.00018458513 0 0.00020540594)
(-0.00018390326 0 0.00020692109)
(-0.00018301883 0 0.00020847766)
(-0.00018187629 0 0.00020998913)
(-0.0001804079 0 0.00021131635)
(-0.00017853396 0 0.00021224526)
(-0.00017616613 0 0.00021245894)
(-0.00017321444 0 0.00021150565)
(-0.00016959807 0 0.0002087572)
(-0.0001652546 0 0.00020342367)
(-0.00016015274 0 0.00019459476)
(-0.00015431297 0 0.00018127458)
(-0.00014779579 0 0.00016253973)
(-0.00014072222 0 0.00013778634)
(-0.00013323572 0 0.0001069525)
(-0.00012546489 0 7.0445345e-05)
(-0.00011751246 0 2.8827028e-05)
(-0.00010941998 0 -1.7139694e-05)
(-0.00010122975 0 -6.6148215e-05)
(-9.3017466e-05 0 -0.00011603645)
(-8.484136e-05 0 -0.00016458268)
(-7.6770704e-05 0 -0.0002094947)
(-6.8848546e-05 0 -0.00024870272)
(-6.1074553e-05 0 -0.00028062815)
(-5.3419806e-05 0 -0.00030421989)
(-4.5882304e-05 0 -0.00031889157)
(-3.8462736e-05 0 -0.00032400652)
(-3.1169281e-05 0 -0.00031994478)
(-2.4095162e-05 0 -0.00030649009)
(-1.7335147e-05 0 -0.00028415823)
(-1.0936939e-05 0 -0.00025257452)
(-5.0553496e-06 0 -0.00021290096)
(3.6610133e-07 0 -0.00016312072)
(5.4510573e-06 0 -0.00010193855)
(8.9662495e-06 0 -4.1741779e-05)
(1.0104037e-05 0 8.4538092e-06)
(8.4954134e-06 0 4.9055982e-05)
(0 0 0)
(-0.00018529615 0 0.00021645773)
(-0.00018526657 0 0.00021647896)
(-0.00018524077 0 0.00021677167)
(-0.00018520642 0 0.00021711992)
(-0.00018516082 0 0.00021753308)
(-0.00018510051 0 0.00021802167)
(-0.00018502079 0 0.00021859756)
(-0.00018491555 0 0.00021927363)
(-0.00018477659 0 0.00022006362)
(-0.00018459318 0 0.00022098163)
(-0.0001843512 0 0.00022204101)
(-0.00018403211 0 0.00022325342)
(-0.00018361227 0 0.00022462649)
(-0.00018306317 0 0.0002261473)
(-0.00018235023 0 0.00022777879)
(-0.00018142822 0 0.00022946562)
(-0.00018024019 0 0.00023111802)
(-0.00017871731 0 0.00023259252)
(-0.00017677916 0 0.00023367008)
(-0.00017433792 0 0.00023402369)
(-0.0001713075 0 0.00023317352)
(-0.00016761204 0 0.00023046842)
(-0.00016319431 0 0.00022510619)
(-0.0001580331 0 0.00021615821)
(-0.0001521595 0 0.00020261755)
(-0.00014564285 0 0.00018359115)
(-0.00013861274 0 0.00015848764)
(-0.00013121435 0 0.00012725975)
(-0.00012357107 0 9.0341008e-05)
(-0.00011577833 0 4.8277477e-05)
(-0.00010787021 0 1.8082995e-06)
(-9.9878365e-05 0 -4.7790833e-05)
(-9.1864562e-05 0 -9.8344019e-05)
(-8.3877657e-05 0 -0.00014764843)
(-7.5980815e-05 0 -0.00019345843)
(-6.8214042e-05 0 -0.00023370045)
(-6.0580462e-05 0 -0.00026677372)
(-5.3057034e-05 0 -0.00029159359)
(-4.5640903e-05 0 -0.00030759302)
(-3.8335702e-05 0 -0.0003141374)
(-3.114927e-05 0 -0.00031153021)
(-2.4171276e-05 0 -0.0002995338)
(-1.7493465e-05 0 -0.00027860099)
(-1.1170195e-05 0 -0.00024843062)
(-5.3472903e-06 0 -0.00021008359)
(1.6813987e-08 0 -0.00016177518)
(5.00528e-06 0 -0.00010262262)
(8.4816277e-06 0 -4.3977214e-05)
(9.6575866e-06 0 5.441732e-06)
(8.0774177e-06 0 4.4347044e-05)
(0 0 0)
(-0.00018384205 0 0.00023610162)
(-0.00018381145 0 0.00023613324)
(-0.00018378261 0 0.00023644444)
(-0.00018374454 0 0.00023681469)
(-0.00018369438 0 0.000237254)
(-0.00018362846 0 0.0002377736)
(-0.00018354186 0 0.00023838619)
(-0.00018342814 0 0.00023910564)
(-0.00018327874 0 0.0002399468)
(-0.00018308245 0 0.00024092504)
(-0.00018282457 0 0.00024205507)
(-0.00018248581 0 0.00024334995)
(-0.00018204218 0 0.00024481833)
(-0.0001814653 0 0.00024644443)
(-0.00018071932 0 0.00024819082)
(-0.00017975711 0 0.00025000457)
(-0.00017852044 0 0.00025179374)
(-0.00017693932 0 0.00025341107)
(-0.00017493263 0 0.00025463329)
(-0.00017241508 0 0.0002551097)
(-0.00016930535 0 0.00025432367)
(-0.00016552982 0 0.00025162316)
(-0.00016103669 0 0.0002462034)
(-0.00015581669 0 0.00023711033)
(-0.00014991004 0 0.0002233432)