/*--------------------------------*- C++ -*----------------------------------*\
  =========                 |
  \\      /  F ield         | OpenFOAM: The Open Source CFD Toolbox
   \\    /   O peration     | Website:  https://openfoam.org
    \\  /    A nd           | Version:  8
     \\/     M anipulation  |
\*---------------------------------------------------------------------------*/
FoamFile
{
    version     2.0;
    format      ascii;
    class       volScalarField;
    location    "0.219989";
    object      rho;
}
// * * * * * * * * * * * * * * * * * * * * * * * * * * * * * * * * * * * * * //

dimensions      [1 -3 0 0 0 0 0];

internalField   nonuniform List<scalar> 
20000
(
0.95689193
0.95814308
0.96243235
0.97146841
0.98922525
1.0138941
1.0172747
1.0191844
1.0178856
1.0193717
1.0190003
1.0204709
1.0208363
1.0225648
1.0236864
1.0259375
1.0279724
1.0310428
1.0342704
1.0385049
1.0432145
1.0489147
1.0553585
1.0630724
1.0719538
1.0817014
1.092174
1.1030449
1.1139726
1.1244784
1.134155
1.1427173
1.1500057
1.1559966
1.1607674
1.1644547
1.1671813
1.1692239
1.1708712
1.1718624
1.1723116
1.1724607
1.172519
1.1721751
1.1714435
1.170803
1.1698831
1.1677168
1.1658177
1.1627007
0.95369514
0.95533644
0.96002992
0.96965536
0.98888567
1.0126089
1.0146029
1.0166084
1.0153417
1.0168819
1.0165419
1.0180689
1.0184715
1.0202638
1.0214418
1.0237767
1.0259044
1.0290899
1.0324395
1.0367906
1.0416229
1.0474843
1.0542293
1.0623638
1.0716337
1.081685
1.0923663
1.1034878
1.1145633
1.1251412
1.1348141
1.1433151
1.1505115
1.1564021
1.1610823
1.1646861
1.1673451
1.1693961
1.1710041
1.1719525
1.1723618
1.172477
1.1725021
1.1721192
1.1713982
1.1708013
1.1699066
1.167801
1.1660618
1.1628329
0.95091797
0.95299347
0.9581442
0.96838279
0.98919683
1.0115215
1.0123033
1.0143215
1.0130466
1.0146256
1.0142934
1.0158675
1.0163006
1.0181541
1.0193901
1.0218079
1.0240257
1.0273106
1.0307611
1.0352179
1.0401991
1.0463282
1.0535949
1.0621608
1.0716271
1.0818472
1.0928154
1.104145
1.1153612
1.1259867
1.1356274
1.144038
1.1511146
1.1568813
1.1614509
1.1649542
1.1675383
1.1695986
1.1711727
1.1720691
1.1724346
1.1725114
1.1724773
1.1720672
1.1713685
1.1707883
1.1698163
1.1675085
1.165416
1.1630677
0.94819322
0.95077981
0.95639426
0.96721954
0.9895884
1.0102667
1.0100823
1.0121558
1.0108913
1.0125206
1.0122107
1.0138408
1.0143124
1.0162339
1.0175343
1.0200379
1.0223398
1.0257102
1.0292577
1.0338608
1.0391035
1.0457216
1.0533645
1.0621075
1.0717283
1.0823204
1.0935662
1.1051102
1.1164373
1.1270755
1.1366453
1.144928
1.1518512
1.1574654
1.1618989
1.1652784
1.167777
1.1698343
1.1713302
1.1721723
1.1725066
1.1725666
1.1724696
1.1720201
1.1713492
1.1707831
1.1697924
1.1670393
1.1652118
1.1631875
0.94584812
0.94889156
0.9549987
0.96641553
0.99022329
1.009021
1.0081021
1.0102186
1.0089588
1.0106347
1.0103438
1.0120286
1.0125391
1.0145292
1.0158941
1.0184772
1.0208541
1.0243087
1.0279949
1.0328467
1.0385619
1.045495
1.0533249
1.0622347
1.0722005
1.0830956
1.0946188
1.1063493
1.1177596
1.1283747
1.1378361
1.145956
1.1526948
1.1581314
1.1624072
1.1656456
1.1680536
1.1700899
1.1715042
1.1722899
1.1725943
1.1726414
1.1724808
1.1719673
1.1713255
1.1707514
1.1696672
1.1670563
1.1652246
1.1632616
0.94360155
0.94719958
0.95385549
0.96591109
0.99096848
1.0077858
1.0063099
1.0084768
1.0072271
1.0089548
1.0086891
1.0104333
1.0109873
1.0130461
1.0144718
1.0171293
1.0195957
1.0231892
1.0271496
1.0324037
1.0383653
1.0454579
1.0534508
1.0626951
1.0729752
1.084201
1.0959854
1.1078812
1.1193395
1.1298916
1.1392046
1.147125
1.1536485
1.158882
1.1629777
1.1660591
1.1683734
1.1703636
1.1716865
1.172412
1.1726875
1.172732
1.1724984
1.1718918
1.1712961
1.1706831
1.1694287
1.1670871
1.1652159
1.163343
0.94170738
0.94581373
0.95305179
0.96580997
0.99181835
1.006636
1.004754
1.006967
1.0057254
1.0075063
1.0072646
1.0090676
1.0096705
1.0117971
1.013284
1.0160316
1.018651
1.0225384
1.0268136
1.0322459
1.038341
1.0455944
1.0539149
1.0634741
1.0741022
1.0856384
1.0976675
1.109697
1.1211648
1.1316119
1.1407359
1.1484212
1.1547
1.1597067
1.1636019
1.1665142
1.1687364
1.17065
1.1718719
1.1725311
1.1727833
1.1728332
1.172517
1.1718066
1.17126
1.1705928
1.1691529
1.1670343
1.1652253
1.1634471
0.94000831
0.94465863
0.9525377
0.96611653
0.99270661
1.0056148
1.0034305
1.0057003
1.0044619
1.0063035
1.0060777
1.0079327
1.0086026
1.0108065
1.0123857
1.0153151
1.0181981
1.0222876
1.0267144
1.0322366
1.0385088
1.0460592
1.0546904
1.0645999
1.0755715
1.0874153
1.0996661
1.111795
1.1232298
1.1335274
1.1424213
1.1498365
1.1558424
1.1605999
1.1642748
1.1670082
1.1691427
1.1709457
1.1720526
1.1726469
1.1728774
1.1729377
1.172543
1.171804
1.1712163
1.1704827
1.1688645
1.1669242
1.1651719
1.1637757
0.93865349
0.94381971
0.95237017
0.96691916
0.99364924
1.0048037
1.0023615
1.0047225
1.0034544
1.0053795
1.0051497
1.0070752
1.0078272
1.0101604
1.0119196
1.015026
1.0180345
1.0222268
1.0267272
1.0324446
1.0389915
1.0468333
1.0558125
1.0660753
1.077396
1.0895321
1.1019771
1.1141657
1.1255214
1.1356238
1.1442467
1.1513581
1.1570652
1.1615525
1.1649892
1.1675367
1.1695861
1.1712509
1.1722421
1.1727621
1.1729685
1.1730386
1.1725826
1.171802
1.1711613
1.1703545
1.1685781
1.1667624
1.1649285
1.1645112
0.93755704
0.9432523
0.95249702
0.96820071
0.99458216
1.0042112
1.0016018
1.0040274
1.0027506
1.0047188
1.0045713
1.0066167
1.0074349
1.0098907
1.011744
1.0149423
1.0180124
1.0222815
1.0269975
1.0329492
1.0397785
1.0479456
1.0572799
1.0679087
1.0795748
1.0919875
1.1045942
1.1167987
1.1280266
1.137887
1.1461985
1.1529742
1.1583583
1.1625562
1.1657387
1.1680956
1.1700564
1.1715662
1.1724394
1.1728791
1.1730556
1.1731287
1.172647
1.1717973
1.1710903
1.1702074
1.1683044
1.1665022
1.1648258
1.1644429
0.93674755
0.94294478
0.95288797
0.96992462
0.99546419
1.0037893
1.0010961
1.0035366
1.0023379
1.0043455
1.0043169
1.0064299
1.0072815
1.0098078
1.0117074
1.0149502
1.0181535
1.0226171
1.0275465
1.0337559
1.0408952
1.0493987
1.0591045
1.0701034
1.0821094
1.0947761
1.1075068
1.1196789
1.1307281
1.1402997
1.1482608
1.1546709
1.1597103
1.1636013
1.1665169
1.1686822
1.1705448
1.1718871
1.1726357
1.1730006
1.1731399
1.1731963
1.1726597
1.1717984
1.1709815
1.1700435
1.1680385
1.1662365
1.1648628
1.1638163
0.93608065
0.9427941
0.95344316
0.97199789
0.99628183
1.0035205
1.0007896
1.0032668
1.0021386
1.0042254
1.0042104
1.0063804
1.0072467
1.0098091
1.0117955
1.0151874
1.0185637
1.0232179
1.0283965
1.0348808
1.0423439
1.0512015
1.0612885
1.0726612
1.0849965
1.0978904
1.1107024
1.1227903
1.1336085
1.1428447
1.1504179
1.1564345
1.1611096
1.1646784
1.1673181
1.169296
1.1710413
1.1722094
1.1728347
1.1731271
1.1732253
1.1732446
1.1726648
1.1718077
1.170788
1.1698684
1.167762
1.1659676
1.1648034
1.1627558
0.93565255
0.94288536
0.95424177
0.9744576
0.99708463
1.0034493
1.0006882
1.0032319
1.0020813
1.0042288
1.0041734
1.0064012
1.0073287
1.010015
1.0121382
1.0156803
1.019247
1.0241171
1.0295551
1.0363303
1.0441341
1.0533583
1.0638356
1.0755812
1.0882304
1.1013185
1.114164
1.1261132
1.1366472
1.1455024
1.1526519
1.1582504
1.162544
1.1657773
1.1681373
1.1699384
1.1715347
1.1725292
1.173034
1.1732557
1.1733175
1.173286
1.1726722
1.1718321
1.1707737
1.1696833
1.1674624
1.1656969
1.1646428
1.1628604
0.93536774
0.94314878
0.95521607
0.97717051
0.99778641
1.003474
1.000654
1.0031816
1.0020741
1.0042302
1.0042754
1.0066001
1.0076648
1.0104818
1.0127483
1.016456
1.0202231
1.0253159
1.0310293
1.0381095
1.0462679
1.0558715
1.0667455
1.0788606
1.0918034
1.1050476
1.1178744
1.1296276
1.1398236
1.1482529
1.1549458
1.1601043
1.1640019
1.1668892
1.1689701
1.1706078
1.1720162
1.1728436
1.1732335
1.1733874
1.1734132
1.1732996
1.1726711
1.1718742
1.1708575
1.1694793
1.1671522
1.1654059
1.1644497
1.1631145
0.93524706
0.94360371
0.95642034
0.98015048
0.99848384
1.0036445
1.0008225
1.00348
1.0023607
1.0046543
1.0046912
1.0070953
1.0082891
1.0112294
1.0136411
1.0175146
1.0214922
1.0268204
1.0328221
1.0402214
1.0487484
1.058742
1.0700171
1.0824933
1.0957039
1.1090599
1.1218115
1.1333095
1.1431138
1.151074
1.1572807
1.1619817
1.1654717
1.1680058
1.1698131
1.1712892
1.1724856
1.1731492
1.1734308
1.1735282
1.1735067
1.1732979
1.1726709
1.1719474
1.1710324
1.1692454
1.1668507
1.1653231
1.1644032
1.163294
0.93543809
0.94437888
0.95797914
0.98340994
0.99929699
1.0039895
1.0012633
1.0039899
1.0029221
1.0053109
1.0053805
1.0079108
1.0091793
1.0122428
1.014807
1.0188565
1.023056
1.0286303
1.0349344
1.0426667
1.0515755
1.0619694
1.0736477
1.0864728
1.0999198
1.1133379
1.1259539
1.1371355
1.1464938
1.153944
1.1596395
1.1638694
1.1669431
1.1691207
1.1706641
1.1719695
1.1729391
1.1734438
1.1736279
1.1736802
1.1735961
1.1732952
1.1726586
1.1719886
1.1710604
1.1689623
1.1665882
1.1652529
1.1643867
1.163471
0.93585182
0.94539804
0.95984902
0.98684167
1.0002126
1.0046875
1.0019797
1.0047266
1.0037493
1.0061409
1.0063403
1.00894
1.0103208
1.013518
1.0162461
1.0204797
1.024913
1.030746
1.0373661
1.0454456
1.054749
1.0655519
1.0776321
1.0907888
1.1044342
1.1178592
1.1302755
1.1410775
1.1499364
1.1568406
1.1620055
1.1657549
1.1684061
1.1702291
1.1715212
1.1726333
1.1733735
1.1737284
1.1738313
1.1738357
1.1736869
1.1732895
1.1726374
1.171993
1.1710519
1.1686297
1.1663711
1.1651984
1.1643872
1.1636155
0.93650506
0.9466751
0.96206124
0.99035945
1.0012401
1.0056222
1.0029286
1.0057229
1.0047667
1.0072451
1.0075074
1.0102226
1.0117167
1.0150538
1.0179554
1.0223826
1.0270618
1.0331656
1.0401161
1.0485572
1.058268
1.0694876
1.0819655
1.0954315
1.1092311
1.1226022
1.1347504
1.1451078
1.1534168
1.1597457
1.164366
1.1676265
1.1698511
1.1713263
1.1723797
1.1732665
1.1737871
1.1740066
1.1740432
1.1739888
1.1737765
1.1732754
1.1726113
1.1719895
1.171009
1.168249
1.1661765
1.165145
1.1643908
1.1637074
0.93736311
0.94816334
0.9645965
0.99379359
1.0023684
1.0067344
1.0040613
1.0069224
1.0059997
1.0085669
1.0089235
1.0117465
1.013364
1.0168471
1.0199324
1.0245619
1.0294997
1.0358875
1.0431832
1.0520007
1.0621314
1.073773
1.0866399
1.1003859
1.114289
1.1275392
1.1393471
1.1491951
1.1569111
1.1626447
1.1667093
1.1694714
1.1712673
1.1724073
1.1732258
1.1738616
1.1741827
1.1742899
1.1742529
1.1741362
1.1738569
1.173264
1.1725819
1.1719761
1.1708645
1.1677912
1.1661053
1.1650088
1.1644166
1.1637903
0.93846754
0.94989664
0.9675054
0.99733027
1.003715
1.0080751
1.0054099
1.0083618
1.0074648
1.010144
1.0105741
1.0135119
1.0152586
1.0188933
1.0221726
1.0270144
1.0322239
1.0389096
1.0465664
1.0557757
1.0663383
1.0784053
1.0916485
1.1056391
1.1195874
1.1326436
1.1440353
1.1533125
1.160404
1.1655293
1.169025
1.1712756
1.1726443
1.1734648
1.1740378
1.1744221
1.1745697
1.1745764
1.1744563
1.1742739
1.1739293
1.1732549
1.1725487
1.1719172
1.1704854
1.1675744
1.1659825
1.1648453
1.1644917
1.163861
0.93984122
0.95188217
0.97078729
1.0009019
1.005267
1.0096371
1.006975
1.0100168
1.0091532
1.0119363
1.0124535
1.015509
1.0173941
1.0211876
1.0246721
1.0297367
1.0352321
1.042231
1.0502655
1.0598825
1.0708875
1.0833798
1.09698
1.1111717
1.1250991
1.1378815
1.1487805
1.1574366
1.1638853
1.1683882
1.1712951
1.1730224
1.1739742
1.1744895
1.1748025
1.1749546
1.1749589
1.1748537
1.1746523
1.1743992
1.1739848
1.1732451
1.1725113
1.1718089
1.1700086
1.1674335
1.1657718
1.1648823
1.1647893
1.1639262
0.94144544
0.95408315
0.97439897
1.004462
1.0069514
1.0113992
1.0087393
1.0118791
1.0110646
1.0139465
1.014554
1.0177336
1.0197663
1.0237259
1.0274273
1.0327264
1.0385229
1.0458519
1.0542818
1.064322
1.0757789
1.0886928
1.102625
1.116966
1.1307978
1.1432213
1.153555
1.1615559
1.1673482
1.1711976
1.1734894
1.1747027
1.1752557
1.1754705
1.1755215
1.1754782
1.175331
1.1751218
1.1748398
1.1745122
1.1740048
1.1732307
1.1724665
1.1716442
1.169541
1.1672103
1.1655551
1.1649356
1.1648129
1.1639927
0.94334808
0.95654716
0.97835537
1.0080624
1.0088405
1.013359
1.0107061
1.0139411
1.0131824
1.0161651
1.0168726
1.0201807
1.0223712
1.026504
1.0304353
1.0359819
1.0420968
1.0497739
1.058617
1.0690958
1.0810107
1.0943375
1.1085679
1.1229969
1.1366491
1.1486261
1.1583347
1.1656639
1.1707691
1.1739162
1.1755889
1.176309
1.1764844
1.1764066
1.1762146
1.1759745
1.1756877
1.1753775
1.1750182
1.1746182
1.17401
1.1732085
1.1724099
1.1714264
1.169082
1.166909
1.1655007
1.1649743
1.1645736
1.164064
0.94546327
0.95918047
0.9825569
1.0115801
1.0108835
1.0154978
1.0128667
1.0162021
1.0155014
1.0185925
1.0194049
1.022847
1.0252044
1.0295195
1.0336951
1.0395044
1.045956
1.0540004
1.0632748
1.0742062
1.0865832
1.1003086
1.1147949
1.1292399
1.1426205
1.1540669
1.1631096
1.1697506
1.1740993
1.1765181
1.1775807
1.1778472
1.1776726
1.1772955
1.1768681
1.1764472
1.1760257
1.1756197
1.1751865
1.1747215
1.1740104
1.1731783
1.1723404
1.1711719
1.1686351
1.1665926
1.1654563
1.1649952
1.164578
1.1641558
0.94790116
0.96209402
0.98706734
1.0150903
1.0131377
1.0178426
1.0152371
1.0186596
1.0180222
1.0212208
1.0221465
1.0257269
1.0282634
1.0327716
1.0372083
1.043297
1.0501047
1.0585357
1.0682588
1.0796547
1.0924934
1.1065952
1.1212842
1.1356615
1.1486741
1.1595177
1.1678735
1.1737679
1.1772998
1.1789803
1.1794822
1.1793323
1.1787949
1.1781352
1.1774848
1.1768922
1.1763449
1.1758467
1.1753425
1.1748187
1.17401
1.1731428
1.172259
1.170874
1.1681987
1.1663164
1.1653975
1.1650468
1.1648397
1.1644516
0.95058384
0.96523082
0.99177921
1.0185424
1.015555
1.0203589
1.0177801
1.0213012
1.0207321
1.0240445
1.0250926
1.0288192
1.0315494
1.0362639
1.0409794
1.0473649
1.0545483
1.0633853
1.0735738
1.0854447
1.0987405
1.1131881
1.1280151
1.1422302
1.1547791
1.1649671
1.1726146
1.1776575
1.1803354
1.1813134
1.1813223
1.1807334
1.1798547
1.1789235
1.1780618
1.1773095
1.1766441
1.1760586
1.1754841
1.1748979
1.1740028
1.1731063
1.1721645
1.1705153
1.1677862
1.1660825
1.1653007
1.1650675
1.1650046
1.1652244
0.95351021
0.96861137
0.99665258
1.0219547
1.0181476
1.023055
1.0205076
1.0241293
1.0236323
1.0270627
1.0282449
1.0321277
1.0350678
1.0400022
1.0450141
1.0517142
1.0592926
1.0685551
1.0792242
1.0915774
1.1053185
1.1200707
1.1349565
1.1489072
1.1609057
1.1704067
1.1772678
1.181378
1.1831906
1.1835654
1.1830625
1.1820543
1.1808465
1.1796592
1.178599
1.1776982
1.176923
1.1762555
1.1756117
1.1749327
1.1739885
1.1730716
1.1720529
1.1700903
1.1674171
1.1658658
1.1652783
1.1650493
1.1647978
1.1651476
0.9567204
0.9722884
1.0016606
1.0253683
1.0209221
1.0259237
1.0234099
1.0271333
1.0267229
1.0302786
1.0316108
1.0356602
1.0388261
1.0439928
1.0493183
1.056351
1.0643446
1.074052
1.085216
1.0980555
1.1122233
1.1272264
1.1420791
1.1556604
1.1670384
1.1758243
1.181767
1.1848935
1.1859087
1.1857151
1.184701
1.183289
1.1817705
1.1803415
1.1790961
1.1780581
1.1771809
1.1764381
1.1757294
1.1749494
1.1739682
1.173039
1.171919
1.1696081
1.1671051
1.1657928
1.1652771
1.1650186
1.1646218
1.1644304
0.96014962
0.97622713
1.0067118
1.0287764
1.0238508
1.0289573
1.0264885
1.0303283
1.0300151
1.0337067
1.0352004
1.0394244
1.0428296
1.0482408
1.0538981
1.0612829
1.0697121
1.0798829
1.0915538
1.1048782
1.1194437
1.1346286
1.1493444
1.162456
1.1731645
1.1811504
1.1860633
1.1881933
1.1885317
1.1877344
1.1862315
1.1844375
1.1826253
1.1809701
1.1795531
1.178389
1.1774176
1.1766062
1.1758412
1.1749552
1.1739433
1.1730048
1.1717512
1.1691068
1.166854
1.1657457
1.1652869
1.1650122
1.1646684
1.1640404
0.96381756
0.98047631
1.0118095
1.0322363
1.026968
1.0321865
1.0297749
1.0337289
1.0335237
1.0373533
1.0390185
1.0434224
1.0470816
1.0527515
1.0587604
1.0665185
1.0754037
1.0860561
1.0982435
1.1120462
1.1269682
1.1422514
1.1567187
1.169272
1.1792737
1.1863116
1.1901167
1.1913365
1.1910184
1.1896247
1.1876538
1.1854989
1.1834113
1.1815458
1.1799707
1.1786913
1.1776328
1.1767589
1.1759437
1.1749575
1.1739164
1.1729604
1.1715264
1.1686309
1.1666512
1.1657247
1.1652981
1.1650141
1.1647243
1.164251
0.96773517
0.98506789
1.0169528
1.0357947
1.030296
1.0356274
1.0332746
1.0373413
1.0372472
1.0412154
1.043063
1.0476561
1.0515869
1.0575326
1.0639149
1.0720673
1.0814285
1.0925789
1.105289
1.1195538
1.1347766
1.1500579
1.1641649
1.1760878
1.1853068
1.1912458
1.1939153
1.1943579
1.1933459
1.1913805
1.1889669
1.1864736
1.1841293
1.1820696
1.1803499
1.1789651
1.1778273
1.1768963
1.1760218
1.1749587
1.173889
1.172894
1.1712112
1.1682338
1.1665246
1.1656986
1.1652194
1.1650197
1.164774
1.1644288
0.97197438
0.99003988
1.022124
1.0394845
1.033831
1.0392664
1.0369719
1.0411487
1.0411769
1.0452893
1.0473377
1.052132
1.056355
1.062595
1.0693714
1.0779399
1.0877964
1.0994603
1.112695
1.127396
1.1428471
1.1580153
1.1716556
1.1828931
1.1911824
1.1959089
1.1975183
1.1972175
1.1955137
1.1930026
1.1901719
1.1873631
1.1847812
1.1825431
1.1806916
1.179211
1.1780022
1.1770211
1.1760551
1.174956
1.1738627
1.1727968
1.1707801
1.1679672
1.1664568
1.1656478
1.1651769
1.1650525
1.1648181
1.1645922
0.9764707
0.99535607
1.027271
1.0433792
1.0375237
1.0430726
1.0408502
1.0451491
1.0453177
1.0495861
1.0518534
1.0568619
1.061397
1.0679492
1.0751412
1.0841473
1.0945176
1.1067078
1.1204622
1.1355583
1.1511478
1.1660835
1.1791627
1.1896511
1.1968155
1.2002714
1.2009763
1.1998845
1.197518
1.1944909
1.1912703
1.1881694
1.185369
1.1829678
1.1809962
1.179429
1.1781592
1.1771375
1.17607
1.1749456
1.1738389
1.1726676
1.1703309
1.1677525
1.1663618
1.1655764
1.1651965
1.1650931
1.1648598
1.1647519
0.98111985
1.000958
1.0323722
1.0472951
1.0413988
1.0470724
1.0449365
1.0493654
1.0496866
1.0541198
1.0566219
1.0618563
1.0667231
1.0736065
1.0812355
1.090701
1.1016031
1.1143301
1.1285906
1.1440251
1.1596465
1.1742316
1.1866696
1.1962748
1.2021594
1.2043903
1.2042466
1.2023605
1.1993602
1.1958479
1.1922654
1.1888957
1.1858946
1.183344
1.1812638
1.17962
1.1783006
1.1772425
1.1760753
1.1749304
1.1738171
1.1725108
1.1698915
1.1675498
1.1662328
1.1654848
1.1652109
1.1651287
1.1649092
1.1648896
0.98607095
1.0068995
1.0374868
1.0513224
1.0454946
1.0512928
1.0492502
1.0538098
1.0542939
1.0588973
1.0616522
1.0671245
1.0723433
1.0795783
1.0876664
1.0976134
1.1090639
1.1223331
1.1370732
1.1527694
1.1683022
1.1824235
1.1941523
1.2026665
1.2071644
1.2083216
1.2072986
1.204641
1.2010412
1.1970765
1.1931603
1.1895444
1.1863586
1.1836711
1.1814943
1.1797866
1.1784295
1.1773169
1.1760772
1.1749112
1.1737913
1.1723214
1.1694729
1.1673404
1.1661016
1.1654525
1.1652238
1.1651606
1.1649665
1.1650084
0.99133301
1.0131694
1.0426298
1.0557198
1.0498109
1.0557309
1.0537887
1.0584824
1.0591449
1.0639253
1.0669527
1.0726768
1.0782689
1.0858775
1.0944473
1.1048982
1.1169123
1.1307228
1.145901
1.1617634
1.1770805
1.1906328
1.2015449
1.2087582
1.2118645
1.2120483
1.2101226
1.2067287
1.2025651
1.1981814
1.1939592
1.1901172
1.1867608
1.1839493
1.18169
1.179934
1.1785491
1.1773487
1.1760773
1.1748882
1.1737478
1.1720668
1.1690805
1.1671154
1.1659811
1.165441
1.1652567
1.1651828
1.165038
1.1651282
0.99691063
1.0197164
1.0477906
1.0602367
1.054336
1.0603805
1.0585524
1.06339
1.064247
1.0692135
1.0725339
1.0785244
1.0845128
1.0925184
1.1015934
1.1125701
1.1251596
1.1394995
1.1550544
1.1709686
1.1859433
1.1988323
1.2087416
1.2144895
1.2163162
1.2155334
1.2127174
1.2086254
1.2039363
1.1991672
1.194665
1.1906148
1.1871024
1.1841834
1.1818573
1.1800694
1.178656
1.177362
1.1760678
1.1748614
1.1736685
1.1717114
1.1687199
1.1668808
1.1658573
1.1654466
1.1652997
1.1652144
1.1651182
1.1652246
1.0027389
1.0265171
1.0530156
1.0649686
1.0590811
1.0652525
1.0635519
1.068545
1.0696116
1.0747726
1.0784054
1.0846806
1.0910892
1.0995173
1.1091214
1.1206454
1.1338174
1.1486609
1.1645109
1.1803489
1.1948594
1.2069942
1.2156389
1.2198466
1.2205509
1.2187509
1.2150849
1.2103367
1.2051612
1.2000391
1.1952803
1.1910391
1.1873908
1.1843865
1.1820082
1.1801976
1.1787308
1.1773663
1.1760507
1.1748308
1.1735393
1.1712549
1.1683797
1.1666586
1.1657693
1.1654514
1.1653424
1.1652669
1.1652035
1.1653191
1.0088383
1.0335736
1.0583432
1.0699038
1.0640606
1.0703621
1.0688031
1.0739515
1.0752469
1.0806113
1.0845801
1.0911605
1.0980155
1.1068933
1.1170499
1.1291403
1.1428924
1.1581953
1.1742354
1.1898618
1.2037892
1.2150074
1.2221719
1.2248831
1.2245205
1.2217027
1.217228
1.2118682
1.2062455
1.2008005
1.1958072
1.1913972
1.1876412
1.1845741
1.1821522
1.1803121
1.1787639
1.1773681
1.1760272
1.1747942
1.1733546
1.1707392
1.1680459
1.1664946
1.1657375
1.1654606
1.1653813
1.1653325
1.1652941
1.1654127
1.0152143
1.0408943
1.0638099
1.0750674
1.0692832
1.0757157
1.0743106
1.0796159
1.0811634
1.0867434
1.0910747
1.0979836
1.1053122
1.1146671
1.1253989
1.1380709
1.1523897
1.168086
1.1841927
1.1994708
1.2127029
1.2227615
1.2282788
1.2296731
1.2281877
1.2243895
1.2191539
1.213228
1.2071951
1.2014546
1.1962514
1.1917042
1.1878696
1.1847448
1.1822797
1.1803854
1.1787783
1.1773658
1.175998
1.1747448
1.1731117
1.1702057
1.1677447
1.1663687
1.1657385
1.1654949
1.1654183
1.1654114
1.1653892
1.1655062
1.0218318
1.0484594
1.0694213
1.0804557
1.0747462
1.0813137
1.0800803
1.0855516
1.0873765
1.0931885
1.09791
1.1051724
1.1130019
1.1228615
1.1341893
1.1474511
1.1623053
1.1783049
1.1943381
1.2091307
1.2215334
1.2301471
1.2339945
1.2341769
1.2315468
1.2268155
1.2208694
1.2144227
1.208014
1.202006
1.1966253
1.1919779
1.1880706
1.1848546
1.1823431
1.1804209
1.1787834
1.1773533
1.1759632
1.1746715
1.1728003
1.169694
1.1674841
1.1662692
1.1657412
1.165548
1.1654706
1.165495
1.1654856
1.1655922
1.0286638
1.0562579
1.0751919
1.086075
1.0804598
1.0871715
1.0861325
1.0917803
1.0939097
1.0999698
1.1051096
1.1127514
1.1211088
1.1315006
1.1434419
1.157292
1.17263
1.1888193
1.2046321
1.2188022
1.230159
1.2370974
1.239382
1.2383583
1.2346001
1.2289885
1.2223843
1.2154594
1.2087079
1.2024669
1.1969481
1.1922206
1.188192
1.1849044
1.1823749
1.1804373
1.1787855
1.1773338
1.1759232
1.1745602
1.1723902
1.1692357
1.1672872
1.1662329
1.165765
1.1656153
1.1655436
1.1655881
1.1655867
1.165673
1.0356743
1.0642361
1.0811473
1.0919541
1.0864542
1.0933159
1.0924921
1.0983287
1.1007863
1.1071107
1.1126978
1.1207467
1.1296594
1.1406095
1.1531764
1.1675972
1.1833416
1.1995839
1.2150255
1.2284368
1.2384476
1.243576
1.2444754
1.2421812
1.2373512
1.2309166
1.2237061
1.216344
1.2092873
1.2028579
1.1972345
1.1923918
1.188245
1.184924
1.1823881
1.180446
1.1787823
1.177309
1.1758781
1.1743992
1.1718654
1.1688679
1.1671338
1.1662269
1.1658254
1.1656992
1.1656403
1.1656955
1.1656962
1.1657521
1.0429838
1.0724934
1.0873597
1.0981287
1.092756
1.0997686
1.0991835
1.1052091
1.1080297
1.1146363
1.1207014
1.129187
1.138681
1.1502143
1.16341
1.1783646
1.1944117
1.2105542
1.2254677
1.2379371
1.2463015
1.2496412
1.2492204
1.2456546
1.2398089
1.2326108
1.2248436
1.217086
1.2097717
1.2031994
1.197471
1.1924674
1.1882634
1.184933
1.1823956
1.1804508
1.1787686
1.1772807
1.1758259
1.1741824
1.1712935
1.1685532
1.1670098
1.1662281
1.1658923
1.1658007
1.1657781
1.1658438
1.165835
1.1658299
1.0504627
1.081034
1.0937894
1.1045869
1.0993673
1.1065409
1.1062206
1.1124556
1.115666
1.1225765
1.12915
1.1381032
1.1482053
1.1603403
1.174154
1.1895797
1.2057983
1.2216782
1.2359011
1.2471534
1.2536353
1.2553712
1.2535682
1.2487786
1.2419824
1.2340804
1.2258056
1.2177014
1.2101849
1.2034862
1.1975862
1.1924965
1.1882683
1.1849281
1.1823912
1.1804467
1.1787468
1.1772495
1.17576
1.1739064
1.1707181
1.1682587
1.1668875
1.1662294
1.1659724
1.1659161
1.166201
1.166328
1.1662738
1.1659233
1.0582324
1.0899625
1.1005245
1.1113841
1.1063369
1.1136687
1.113638
1.1200853
1.1237272
1.1309633
1.1380778
1.1475311
1.1582619
1.17101
1.1854128
1.2012189
1.2174552
1.2329039
1.2462662
1.2559436
1.2604748
1.2607297
1.2575143
1.2515643
1.2438842
1.235337
1.2266073
1.218216
1.2105364
1.2036596
1.1976375
1.1925057
1.1882522
1.1849021
1.1823726
1.1804326
1.1787186
1.1772152
1.1756679
1.1735497
1.1701775
1.1679863
1.1667849
1.1662558
1.1660736
1.1660967
1.1663166
1.1664404
1.1663828
1.1662615
1.0662239
1.0992211
1.1075428
1.1185186
1.1136735
1.1211717
1.1214624
1.1281371
1.1322474
1.1398368
1.1475228
1.1575058
1.168882
1.1822416
1.1971795
1.2132438
1.2293258
1.2441606
1.2564075
1.2642081
1.2668826
1.2656654
1.2610606
1.2540206
1.2455259
1.236393
1.2272714
1.2186534
1.2107889
1.2037382
1.1976547
1.192494
1.18821
1.1848583
1.1823411
1.1804098
1.1786863
1.1771776
1.1755355
1.1730753
1.1697156
1.1677784
1.1667627
1.1663148
1.1661968
1.1663254
1.1662029
1.1662973
1.1663168
1.1663631
1.0744938
1.1088792
1.1149111
1.1260374
1.12142
1.1290839
1.1297437
1.1366511
1.1412665
1.1492375
1.157524
1.1680629
1.1800929
1.194045
1.2094351
1.2256078
1.2413518
1.2553809
1.2661703
1.2718936
1.2729072
1.2701379
1.2642171
1.2561623
1.2469221
1.2372685
1.2278253
1.2190079
1.2109087
1.2037679
1.1976513
1.1924503
1.1881448
1.1847973
1.1822978
1.1803799
1.1786525
1.1771359
1.175352
1.172483
1.1693586
1.1676218
1.1667655
1.1664075
1.1663288
1.1662961
1.166225
1.1663309
1.1663724
1.1661368
1.083095
1.1189773
1.1226699
1.1339683
1.1296064
1.1374385
1.1385115
1.145667
1.1508261
1.1592091
1.1681202
1.1792382
1.1919182
1.2064197
1.2221451
1.2382486
1.253456
1.2664496
1.2754015
1.2790537
1.2784721
1.2741559
1.2669936
1.2580032
1.2480897
1.2379906
1.228283
1.2192043
1.2109567
1.2037698
1.1976107
1.1923801
1.1880581
1.1847211
1.1822441
1.1803446
1.1786184
1.1770852
1.1751093
1.171874
1.1690408
1.1674994
1.1667779
1.1665191
1.1664293
1.1662901
1.166283
1.1664129
1.1664163
1.1661476
1.0920163
1.1294549
1.1308406
1.1423363
1.1382714
1.1462795
1.1478124
1.1552348
1.1609739
1.1697965
1.1793515
1.1910631
1.2043739
1.2193521
1.2352636
1.2511018
1.265555
1.2771823
1.2840018
1.285782
1.2835229
1.2777257
1.2694071
1.2595619
1.2490532
1.2385884
1.2286172
1.2192923
1.2109689
1.2037335
1.1975394
1.1922844
1.1879523
1.1846313
1.1821813
1.1803061
1.1785847
1.1770152
1.1747929
1.171277
1.1687592
1.1674214
1.1668382
1.1666188
1.1664808
1.1663319
1.1663473
1.1664955
1.1664476
1.166222
1.1013321
1.140341
1.139491
1.1511986
1.1474779
1.15566
1.1577009
1.1654028
1.1717551
1.1810414
1.191255
1.2035671
1.2174658
1.232812
1.2487258
1.2640843
1.2775464
1.2873942
1.2919918
1.2920117
1.2880537
1.2808588
1.2714737
1.2608594
1.249842
1.2390686
1.2287846
1.2193244
1.2109407
1.2036593
1.1974386
1.1921666
1.1878294
1.1845295
1.182111
1.1802669
1.1785514
1.176913
1.1743753
1.1707349
1.1685262
1.1673903
1.1669128
1.166673
1.1665053
1.1664055
1.1664179
1.1665513
1.1664914
1.1662939
1.1111453
1.1517041
1.148691
1.1606093
1.1572744
1.1656298
1.1682231
1.1762198
1.1832096
1.1929886
1.2038681
1.2167704
1.231185
1.2467519
1.2624575
1.2770972
1.2892483
1.2969525
1.2994477
1.2976841
1.2920729
1.2835733
1.2732158
1.2619249
1.2504867
1.2393803
1.2288547
1.2193151
1.210866
1.2035514
1.1973123
1.1920291
1.1876913
1.184417
1.1820349
1.1802297
1.1785178
1.1767664
1.1738177
1.1703106
1.1683492
1.1673754
1.1669302
1.1666904
1.1665318
1.1664891
1.1664898
1.1666039
1.1665481
1.1663621
1.1215113
1.1635402
1.1584872
1.1705968
1.1677037
1.1762331
1.179424
1.1877286
1.1953832
1.2056837
1.2172276
1.230688
1.2455052
1.2611036
1.2763645
1.2900224
1.3004508
1.3058061
1.3063748
1.3027594
1.2955907
1.2858884
1.2746589
1.2627901
1.2509928
1.239533
1.2288716
1.2192491
1.2107524
1.2034138
1.1971634
1.1918743
1.1875397
1.1842953
1.1819545
1.1801966
1.1784805
1.1765602
1.1731865
1.1699722
1.1682182
1.1673569
1.166932
1.1667006
1.1665848
1.1665752
1.1665705
1.1666678
1.1666086
1.1664249
1.1325245
1.1758296
1.1689286
1.1811918
1.178805
1.1875128
1.1913522
1.1999845
1.2083299
1.2191791
1.2313671
1.2453145
1.2603761
1.2757802
1.2903342
1.3026984
1.3109698
1.3140228
1.3126864
1.3072532
1.2986273
1.2878316
1.2758386
1.2634868
1.2512949
1.2395958
1.2288325
1.2191367
1.2106035
1.2032505
1.1969953
1.1917046
1.1873764
1.1841659
1.1818715
1.1801681
1.1784322
1.1762841
1.1725555
1.1696778
1.1681072
1.1673284
1.1669322
1.1667281
1.1666584
1.1666558
1.1666668
1.1667462
1.1666773
1.1664856
1.1443031
1.1885479
1.1800642
1.1924366
1.190639
1.1994984
1.2040604
1.2130633
1.2221178
1.2335251
1.2463057
1.2606235
1.2757226
1.2906726
1.304224
1.3148768
1.3206951
1.3216641
1.3183189
1.3111719
1.3012057
1.289434
1.2767917
1.2640216
1.251438
1.2395965
1.2287328
1.218982
1.210425
1.2030654
1.1968105
1.1915221
1.1872028
1.1840304
1.1817875
1.180144
1.1783614
1.1759312
1.171968
1.1694123
1.1680038
1.1672979
1.1669443
1.1667861
1.1667348
1.1667311
1.1667691
1.1668239
1.1667547
1.1665507
1.1569384
1.2015939
1.1919321
1.2043836
1.203273
1.2123074
1.2176518
1.2270622
1.2368169
1.2487591
1.2620376
1.2765547
1.291442
1.3056505
1.3178738
1.32633
1.3296836
1.3286154
1.323291
1.3145394
1.303359
1.2907365
1.2775472
1.2643247
1.2514952
1.2395285
1.2285837
1.2187921
1.2102214
1.2028621
1.1966119
1.1913287
1.1870201
1.1838907
1.1817047
1.1801246
1.1782598
1.1754797
1.1714625
1.169172
1.1679139
1.1672909
1.1669869
1.166855
1.1668092
1.1668042
1.1668605
1.1668994
1.1668301
1.1666262
1.1705341
1.2148803
1.2046493
1.2171744
1.2168429
1.2260769
1.2322202
1.2420556
1.2524715
1.2648923
1.2785236
1.2930188
1.3074022
1.3205393
1.3309921
1.3369033
1.3380284
1.334795
1.327606
1.3173823
1.3051243
1.2917793
1.2780982
1.2644654
1.2514805
1.239398
1.2283911
1.2185726
1.2099972
1.2026438
1.1964018
1.1911263
1.1868296
1.183749
1.1816258
1.1801093
1.1781221
1.1748951
1.1710837
1.1689707
1.1678377
1.1672912
1.1670376
1.1669274
1.1668858
1.1668771
1.1669474
1.1669758
1.1669018
1.1667083
1.1854622
1.2285089
1.2184571
1.2309935
1.2314938
1.2408781
1.2478182
1.2580786
1.2691086
1.2819061
1.2956884
1.3098847
1.3234389
1.3351448
1.3433261
1.3466431
1.3455862
1.3402231
1.3312918
1.3197409
1.3065486
1.2925931
1.2784118
1.2645173
1.2513871
1.2392155
1.2281633
1.2183292
1.2097568
1.2024137
1.1961826
1.1909165
1.1866325
1.1836073
1.1815529
1.1800906
1.1779317
1.1742752
1.1707617
1.1688082
1.1677764
1.1672939
1.1670878
1.1670016
1.1669613
1.1669507
1.1670285
1.167045
1.1669713
1.1667892
1.2017292
1.2425476
1.2333936
1.2458799
1.2472851
1.256803
1.2645007
1.2751742
1.2867296
1.2997471
1.3134179
1.3269858
1.3393372
1.3491464
1.3546845
1.3556392
1.3522676
1.3449019
1.3343795
1.3216598
1.3076769
1.293161
1.2785601
1.2644879
1.2512291
1.2389891
1.2279068
1.2180671
1.2095037
1.2021748
1.1959565
1.1907018
1.1864302
1.1834663
1.1814864
1.1800574
1.1776688
1.1736733
1.1704738
1.1686769
1.167741
1.1673116
1.1671357
1.1670691
1.1670358
1.1670231
1.1670976
1.1671083