/*--------------------------------*- C++ -*----------------------------------*\
  =========                 |
  \\      /  F ield         | OpenFOAM: The Open Source CFD Toolbox
   \\    /   O peration     | Website:  https://openfoam.org
    \\  /    A nd           | Version:  8
     \\/     M anipulation  |
\*---------------------------------------------------------------------------*/
FoamFile
{
    version     2.0;
    format      ascii;
    class       surfaceVectorField;
    location    "0.219989";
    object      rhoUf;
}
// * * * * * * * * * * * * * * * * * * * * * * * * * * * * * * * * * * * * * //

dimensions      [1 -2 -1 0 0 0 0];

internalField   nonuniform List<vector> 
39600
(
(209.46047 -8.5861925e-18 -1.1506726)
(193.63156 -1.0155416e-16 -1.765454)
(191.82905 -1.6526748e-17 -0.9882597)
(240.84378 2.6491576e-17 -1.4431788)
(230.29481 1.4242465e-17 -1.6762898)
(228.36558 8.7812505e-18 -0.77540598)
(265.05425 2.245783e-17 -1.7426213)
(255.52774 1.1688332e-17 -2.1415187)
(253.42202 1.5043292e-17 -1.1285823)
(288.2638 -4.9028898e-18 -2.0908514)
(278.6402 3.1007704e-17 -2.4154684)
(276.38948 1.1021067e-17 -1.3285803)
(309.98754 -1.9169735e-17 -2.506408)
(302.12077 7.5126618e-19 -3.0853876)
(299.62117 -1.8855667e-17 -1.8584177)
(321.11913 1.2330867e-17 -2.7448881)
(321.22674 -3.1409051e-17 -3.0444335)
(319.99765 2.2012089e-18 -1.8445586)
(322.49246 4.9427988e-18 -2.7741067)
(321.56966 3.9470684e-17 -3.8351233)
(321.49153 1.214133e-17 -2.5690465)
(322.83591 -1.92537e-17 -2.7976668)
(323.64086 -2.3171448e-17 -2.7775544)
(323.53848 -1.1817362e-17 -1.5874046)
(322.37687 -3.0246751e-18 -2.8191351)
(321.94275 -2.8563518e-17 -4.1569583)
(321.85919 -7.3694406e-18 -2.8749565)
(322.49978 -3.9184987e-18 -2.8538611)
(322.98316 7.3844647e-18 -2.7106582)
(322.86373 6.9563237e-18 -1.5113424)
(322.21705 4.421816e-18 -2.8941811)
(322.02352 -1.1235223e-18 -4.2256328)
(321.91578 -1.383154e-17 -2.9548216)
(322.22015 1.5828475e-17 -2.9449234)
(322.55462 2.0583546e-17 -2.893955)
(322.42802 2.2222113e-17 -1.6785672)
(321.983 3.2488556e-18 -3.0078736)
(321.941 -1.7520037e-17 -4.1777592)
(321.81951 -7.8548115e-18 -2.917973)
(321.89988 2.8884834e-18 -3.0815924)
(322.15017 3.2396077e-18 -3.2075895)
(322.02 1.2654341e-17 -1.9753872)
(321.67776 -1.0850275e-17 -3.1737288)
(321.73043 4.4512924e-19 -4.138471)
(321.60152 -1.2373861e-17 -2.8856677)
(321.51741 2.7609725e-18 -3.2799159)
(321.73864 -8.0990325e-20 -3.576804)
(321.60558 2.2632607e-18 -2.3307082)
(321.26342 1.5880497e-17 -3.4112971)
(321.38951 0 -4.1969252)
(321.25469 2.5518818e-19 -2.9436174)
(321.01861 1.912988e-17 -3.5635421)
(321.24609 1.3719741e-17 -3.9795671)
(321.10861 1.7671495e-17 -2.7216234)
(320.69627 1.1652211e-19 -3.7459457)
(320.89159 1.196814e-17 -4.4026011)
(320.75323 -7.3812656e-20 -3.144872)
(320.34184 3.8032203e-18 -3.9503889)
(320.60287 -9.7886256e-18 -4.4247578)
(320.46787 2.1544993e-19 -3.1652817)
(319.90383 1.0699426e-17 -4.1769406)
(320.16835 8.1503351e-18 -4.7501508)
(320.04025 4.0029012e-18 -3.5008854)
(319.39561 -2.4773421e-18 -4.4151571)
(319.70737 2.0520112e-17 -4.9068882)
(319.58941 6.548238e-18 -3.6656697)
(318.80432 -1.2122668e-17 -4.6558744)
(319.12095 -2.2399722e-17 -5.1896468)
(319.01735 -1.053968e-17 -3.9572535)
(318.11818 -1.0774695e-19 -4.9165727)
(318.43361 -9.5029229e-18 -5.4255118)
(318.33397 1.6731765e-19 -4.1857231)
(317.25109 -1.1504266e-17 -5.200586)
(317.61084 -1.1818032e-19 -5.7271387)
(317.50975 -1.3581801e-21 -4.4923353)
(316.19794 4.8443611e-18 -5.3884093)
(316.68342 1.3278772e-17 -5.9425189)
(316.61603 -1.1464601e-17 -4.7434099)
(314.99832 2.3059269e-17 -5.4467457)
(315.57037 2.0556575e-17 -6.0316375)
(315.5372 1.7965985e-17 -4.8993796)
(313.68342 1.2654451e-17 -5.3480365)
(314.3038 -8.3651396e-18 -5.9601418)
(314.3038 -1.5912496e-19 -4.9180631)
(312.29283 4.518487e-17 -5.0906978)
(312.9241 -1.4629398e-17 -5.7172321)
(312.95057 1.106174e-17 -4.7846013)
(310.88294 5.3281792e-17 -4.6869575)
(311.49614 -1.0979433e-18 -5.3026806)
(311.54231 2.5699903e-17 -4.4955422)
(309.52667 3.2964315e-17 -4.1813628)
(310.09421 8.8630217e-18 -4.7575051)
(310.15086 1.2322098e-17 -4.0834312)
(308.28904 1.582114e-17 -3.6382452)
(308.78949 1.4203706e-17 -4.1458071)
(308.84719 9.4075788e-18 -3.6025176)
(307.21802 0 -3.1215903)
(307.63827 -1.0232245e-16 -3.5411271)
(307.69011 3.6720114e-19 -3.1185269)
(306.34111 0 -2.68001)
(306.6745 0 -3.00431)
(306.71684 3.4145201e-19 -2.6869356)
(305.6677 1.8287027e-17 -2.3362905)
(305.91387 0 -2.5718163)
(305.9468 -2.7853878e-19 -2.342014)
(305.19191 8.9633357e-18 -2.0948)
(305.3544 2.0452955e-17 -2.2507506)
(305.37929 1.0966016e-17 -2.0919235)
(304.90026 -5.8872963e-17 -1.9524484)
(304.98651 -1.4120135e-16 -2.0347028)
(305.0054 -6.7438689e-18 -1.9309381)
(304.75463 -3.6502296e-17 -1.8886211)
(304.79087 8.3123427e-17 -1.933658)
(304.80812 -1.967012e-17 -1.8667856)
(304.73227 8.8303795e-18 -1.7429174)
(304.68486 -1.1465682e-16 -1.9040836)
(304.71167 6.3107974e-18 -1.8620919)
(304.71546 -1.4375338e-17 -1.7263295)
(304.65296 7.8568933e-17 -1.8723372)
(304.66531 -4.3980492e-18 -1.8528973)
(304.74779 8.355041e-20 -1.7317937)
(304.67506 -1.4479268e-16 -1.820654)
(304.68633 -4.4452844e-19 -1.8183457)
(304.84896 9.230068e-18 -1.7138591)
(304.76461 0 -1.759643)
(304.78262 0 -1.7674074)
(304.99748 -4.9901599e-17 -1.664424)
(304.90977 1.0400153e-17 -1.6940165)
(304.93892 2.8237593e-18 -1.7101518)
(305.1527 -7.7030186e-17 -1.5511201)
(305.07738 -2.3153571e-17 -1.604548)
(305.09674 -1.454303e-17 -1.6270855)
(305.26384 7.4285587e-18 -1.3738532)
(305.2248 2.2604817e-17 -1.4503501)
(305.2357 1.0887785e-19 -1.470129)
(305.33861 3.7519013e-18 -1.166864)
(305.31502 -1.337312e-16 -1.2674544)
(305.29215 1.8178839e-18 -1.2858857)
(305.40167 2.6891566e-17 -0.91026797)
(305.44002 -6.3125061e-18 -1.0306519)
(305.363 -9.3931596e-19 -1.061704)
(305.38914 4.1908012e-17 -0.46886796)
(305.46988 -7.8607224e-17 -0.68141713)
(305.372 5.1052368e-18 -0.71457017)
(305.08437 -2.061344e-17 -0.80015862)
(305.28902 -5.3312377e-17 -0.21261418)
(305.13526 1.5418773e-20 -0.24084385)
(305.08224 4.3606093e-17 0.73859935)
(305.00897 -4.3712951e-18 0.74801952)
(211.2013 -8.8184116e-17 -1.9890258)
(195.42225 -1.6298403e-16 -2.5441137)
(242.71807 -1.0401728e-20 -2.4047174)
(232.2048 -4.826918e-19 -2.6166301)
(267.04162 1.8541222e-17 -2.7982293)
(257.58165 2.4788378e-17 -3.1783944)
(290.39354 3.887187e-17 -3.2339862)
(280.80129 1.9478645e-17 -3.534931)
(311.65417 -8.7085565e-18 -3.7165407)
(304.45706 5.5169368e-17 -4.3439072)
(321.6788 -1.0408972e-17 -3.9577164)
(322.20101 -6.3000541e-17 -4.2623547)
(322.56105 1.6881349e-17 -3.9934183)
(321.67465 2.6012485e-17 -5.1254531)
(322.92348 -3.1842906e-17 -4.0260073)
(323.76619 -1.1442325e-17 -3.9802681)
(322.47213 -2.1203766e-17 -4.0549022)
(322.04664 -1.5681094e-17 -5.4569606)
(322.60206 1.0783869e-17 -4.0954608)
(323.10355 -1.8456871e-20 -3.927136)
(322.32312 1.2957522e-17 -4.1402638)
(322.12648 1.3364932e-17 -5.520438)
(322.33196 -9.0085822e-18 -4.194757)
(322.67046 -1.353637e-17 -4.1281302)
(322.09682 -1.916949e-17 -4.2605371)
(322.04838 -5.2872226e-18 -5.4639341)
(322.01733 1.0749619e-18 -4.3367877)
(322.26429 -5.3138863e-18 -4.4602018)
(321.79765 1.1011066e-17 -4.4319536)
(321.84329 1.2067873e-17 -5.4184549)
(321.64053 -2.7861453e-18 -4.5410241)
(321.85449 -2.5222579e-18 -4.8465787)
(321.38971 -3.2151327e-18 -4.6763865)
(321.50781 8.7250578e-18 -5.4781793)
(321.14701 6.8507803e-18 -4.8305967)
(321.36396 -1.7986114e-17 -5.2616313)
(320.82558 4.0610245e-18 -5.0130424)
(321.00877 1.1691334e-17 -5.6826766)
(320.46914 -7.0122065e-18 -5.2118003)
(320.71296 3.7507125e-19 -5.7013361)
(320.02772 1.6742142e-17 -5.4311205)
(320.27168 4.0506554e-18 -6.0175228)
(319.51376 4.6069228e-18 -5.6640846)
(319.80234 2.0393537e-17 -6.1749518)
(318.8964 -2.0938291e-17 -5.9041967)
(319.20477 -1.1223e-17 -6.4687737)
(318.15855 -1.0324099e-17 -6.1706317)
(318.51663 1.9552388e-17 -6.7167407)
(317.26611 2.3033011e-17 -6.4294509)
(317.68414 -7.8942849e-18 -6.9907219)
(316.21375 2.8051863e-17 -6.5595851)
(316.71558 -9.4217694e-19 -7.1513303)
(315.00768 -7.7104955e-18 -6.5374345)
(315.56525 3.2315755e-17 -7.1722788)
(313.67634 -3.464823e-17 -6.3458647)
(314.26711 2.7023374e-19 -7.0113839)
(312.26227 -6.1513105e-17 -5.9738238)
(312.86083 -4.230156e-17 -6.6566047)
(310.83794 -4.5852508e-17 -5.4420767)
(311.41478 -2.2325785e-17 -6.1134908)
(309.47675 -1.0180728e-17 -4.8048856)
(310.00568 -8.3306583e-17 -5.4332341)
(308.24245 -9.0978095e-17 -4.1352375)
(308.70421 1.4712733e-17 -4.6897654)
(307.17984 -1.1269994e-16 -3.5040283)
(307.56365 -9.1023015e-18 -3.9641169)
(306.31265 0 -2.9637349)
(306.61408 -1.3398497e-16 -3.3221171)
(305.64715 0 -2.5386735)
(305.86722 6.8086816e-20 -2.8020212)
(305.17674 -1.1143857e-16 -2.2323299)
(305.31955 1.0527811e-17 -2.4098359)
(304.88773 -2.4256945e-17 -2.0397925)
(304.96065 -1.4045882e-17 -2.1390704)
(304.74622 2.6761153e-17 -1.9055479)
(304.76411 2.2172988e-17 -2.0006222)
(304.70955 -6.563785e-17 -1.763988)
(304.65837 1.9003663e-17 -1.9447796)
(304.6992 -2.7301999e-17 -1.7359398)
(304.64214 -2.2389499e-16 -1.8908993)
(304.72715 -1.6102474e-16 -1.7389348)
(304.66768 -8.8750841e-18 -1.8233358)
(304.81952 0 -1.7112301)
(304.74747 1.4244354e-17 -1.7527987)
(304.96691 4.0924059e-17 -1.6480775)
(304.87199 1.5687778e-16 -1.6784064)
(305.13275 7.1475391e-17 -1.530618)
(305.05511 5.3834233e-17 -1.5831569)
(305.25902 -1.0131313e-16 -1.3571266)
(305.21168 1.141067e-17 -1.4323979)
(305.38321 -1.5815001e-16 -1.1472116)
(305.32124 -1.531255e-18 -1.2499189)
(305.51158 -1.0446528e-16 -0.87538582)
(305.4938 -1.9731152e-16 -1.0028632)
(305.551 -1.7769788e-16 -0.44774681)
(305.44852 -4.3344424e-17 -0.65296105)
(305.19457 1.4344792e-18 -0.73095023)
(305.25265 -3.5336003e-19 -0.19114681)
(305.02945 2.5964047e-17 0.72093175)
(213.06659 -8.990544e-17 -2.8600655)
(197.16995 -8.110136e-17 -3.3513154)
(244.73105 2.1776815e-17 -3.406084)
(234.09886 -9.4237241e-19 -3.5851441)
(269.19566 2.6114996e-17 -3.9022728)
(259.63333 2.4209315e-17 -4.2507485)
(292.68096 3.2626443e-17 -4.4384306)
(282.96936 2.9872822e-20 -4.6919993)
(313.35949 1.1314615e-17 -4.9960906)
(306.72653 3.7397826e-17 -5.6490737)
(322.22394 -3.4347182e-17 -5.2396165)
(322.98651 -3.1124564e-17 -5.5119376)
(322.67734 1.263928e-18 -5.2707182)
(321.7471 0 -6.4540458)
(323.0356 4.6712205e-18 -5.3035032)
(323.86367 1.3733275e-18 -5.2117368)
(322.5784 3.7847224e-18 -5.3298511)
(322.12248 2.0045666e-17 -6.7865806)
(322.70927 1.4620901e-18 -5.3709319)
(323.20208 2.0666452e-20 -5.1691504)
(322.42673 -1.0408469e-17 -5.4158313)
(322.20934 -1.157094e-17 -6.8403849)
(322.43762 -1.0541305e-17 -5.4718836)
(322.76838 -2.6960392e-17 -5.3877071)
(322.20163 8.2471019e-18 -5.5398634)
(322.13915 4.5570794e-17 -6.7738671)
(322.12396 4.0635336e-18 -5.6191532)
(322.36225 -1.9158017e-17 -5.7399535)
(321.90529 0 -5.7183813)
(321.94057 1.9074326e-17 -6.72375)
(321.74933 7.8332093e-18 -5.8319689)
(321.95431 9.3051293e-21 -6.1452529)
(321.49911 -3.5664571e-18 -5.97127)
(321.60841 -3.1507286e-19 -6.7851242)
(321.25473 -1.5655409e-17 -6.1263617)
(321.46067 5.3538856e-19 -6.5689906)
(320.93022 9.0163576e-18 -6.3052004)
(321.10109 1.224313e-17 -6.9843336)
(320.56827 1.0902427e-17 -6.4995931)
(320.79809 -3.7630179e-19 -7.0018363)
(320.1221 6.2717159e-18 -6.7182074)
(320.35245 8.5511303e-18 -7.3173124)
(319.61247 7.55482e-18 -6.9485491)
(319.873 -4.2698679e-17 -7.4922379)
(318.99366 2.5831014e-17 -7.2142418)
(319.276 2.3488255e-17 -7.8027839)
(318.22395 2.429757e-17 -7.4798278)
(318.57818 -2.0376638e-17 -8.0479278)
(317.28451 -3.20522e-17 -7.6867247)
(317.72153 8.4973274e-18 -8.2796165)
(316.19784 2.8013935e-19 -7.7452446)
(316.70834 2.7750099e-17 -8.3802868)
(314.96323 4.3090276e-17 -7.6467782)
(315.52346 -1.1886487e-17 -8.3298683)
(313.59976 -3.307666e-18 -7.3529842)
(314.19201 -7.208242e-17 -8.0731023)
(312.16385 -5.5575059e-18 -6.8580113)
(312.75923 -2.8899293e-17 -7.5984013)
(310.72788 -5.3395778e-17 -6.1916552)
(311.29731 2.3009314e-17 -6.9201907)
(309.36671 -6.8329076e-17 -5.4186762)
(309.8849 -1.7002719e-17 -6.1004645)
(308.14206 9.8024265e-17 -4.6209629)
(308.59144 2.9333494e-17 -5.2232966)
(307.09493 -1.7503007e-17 -3.8757374)
(307.46655 7.9460134e-17 -4.3768469)
(306.24499 -1.4783409e-16 -3.2385176)
(306.53594 2.0675037e-17 -3.6311875)
(305.59544 9.3841059e-18 -2.7343188)
(305.80711 1.396414e-17 -3.0253458)
(305.13831 1.0982305e-16 -2.3657856)
(305.27498 -2.1235222e-17 -2.5639026)
(304.85584 2.8117964e-17 -2.1254917)
(304.928 1.2604264e-16 -2.241565)
(304.72369 1.4474837e-17 -1.9401678)
(304.72999 -1.0632329e-16 -2.066849)
(304.69289 -1.1183335e-16 -1.7903583)
(304.63028 4.3464863e-16 -1.9828204)
(304.69346 -2.3005957e-16 -1.7420278)
(304.63039 -3.1397965e-16 -1.9071874)
(304.71545 1.6292735e-16 -1.7428937)
(304.66227 4.2654616e-16 -1.8252003)
(304.7927 1.5489042e-16 -1.7114627)
(304.73557 2.8487234e-17 -1.7457526)
(304.93789 1.8146174e-16 -1.6294936)
(304.83066 3.3447771e-16 -1.6616717)
(305.11289 -1.4648296e-18 -1.5083802)
(305.02942 -2.4508325e-16 -1.5602299)
(305.25357 1.1318117e-16 -1.3372473)
(305.19426 -1.1303249e-17 -1.4124484)
(305.39998 -1.8590142e-17 -1.1232439)
(305.32353 -1.2249864e-16 -1.2288993)
(305.49745 -1.5367307e-16 -0.84445181)
(305.51693 -3.0060964e-18 -0.97476643)
(305.42894 1.2922528e-16 -0.43107398)
(305.1526 -7.1127857e-17 -0.62099077)
(305.12476 2.6585963e-17 -0.64356657)
(304.88255 5.3205048e-17 -0.16557983)
(305.05505 -1.2741502e-16 0.70280895)
(214.87296 -4.2882291e-19 -3.7541269)
(198.89835 0 -4.1891314)
(246.68225 -5.138048e-19 -4.4312821)
(235.97144 5.0952885e-19 -4.5790459)
(271.28092 6.1140244e-19 -5.0310211)
(261.67051 0 -5.3536086)
(294.85187 1.7913051e-18 -5.6680067)
(285.1357 4.4903745e-17 -5.8825736)
(314.87028 1.2688101e-18 -6.288281)
(308.86567 -3.1169797e-20 -6.9872244)
(322.62506 0 -6.5284131)
(323.60445 -3.2861805e-17 -6.7756412)
(322.74605 0 -6.5562963)
(321.80613 0 -7.8044592)
(323.11164 1.4935003e-17 -6.5927252)
(323.95048 2.3069829e-17 -6.460045)
(322.65512 1.7936609e-17 -6.6202344)
(322.18698 -5.3945722e-18 -8.1378808)
(322.79075 -1.1810844e-17 -6.664501)
(323.28825 2.0188402e-20 -6.4318813)
(322.50823 -2.653465e-17 -6.7120263)
(322.27903 -6.191448e-18 -8.183431)
(322.52315 2.2183839e-17 -6.771477)
(322.85205 -4.1248904e-17 -6.6704049)
(322.28785 2.3910064e-17 -6.8430227)
(322.21524 5.8747771e-17 -8.107601)
(322.21265 -7.5147195e-18 -6.9263308)
(322.44468 8.6114958e-18 -7.0452548)
(321.99537 2.0610873e-17 -7.0302049)
(322.02201 -6.6559972e-19 -8.0537183)
(321.84022 -7.9329008e-18 -7.1479561)
(322.03644 -2.1473927e-17 -7.4685579)
(321.58944 3.629967e-18 -7.2895807)
(321.68862 -8.6528149e-18 -8.1125561)
(321.34207 2.6880087e-17 -7.4435391)
(321.5334 4.4249573e-17 -7.8958265)
(321.01485 4.0828783e-18 -7.6188899)
(321.16809 -1.2850107e-17 -8.3077369)
(320.65049 -3.4130569e-18 -7.81756)
(320.86316 -3.0698105e-17 -8.3348115)
(320.21272 -3.5120024e-17 -8.0368933)
(320.40948 -3.0501923e-19 -8.6649393)
(319.69562 -3.2655228e-17 -8.2998121)
(319.93498 -4.1380896e-17 -8.8660978)
(319.03422 -1.807607e-17 -8.5759877)
(319.33011 8.2752241e-17 -9.1791347)
(318.2215 -3.8386308e-17 -8.8098565)
(318.60805 -2.7961235e-17 -9.4009498)
(317.26459 6.554747e-17 -8.9492839)
(317.7159 2.4099038e-17 -9.5856746)
(316.15821 1.9341626e-17 -8.9508059)
(316.66537 -1.5373606e-18 -9.6286865)
(314.88926 -1.1970221e-16 -8.7680947)
(315.44311 -4.2966079e-17 -9.5011521)
(313.49637 -1.0130819e-16 -8.364738)
(314.07698 -1.5802829e-17 -9.1399893)
(312.03903 -5.6533993e-18 -7.7401458)
(312.61832 -7.1129033e-18 -8.5376489)
(310.59431 6.2829033e-17 -6.9343988)
(311.14328 -4.7598494e-19 -7.718427)
(309.23701 7.4925301e-17 -6.023064)
(309.73187 2.1738826e-16 -6.7558007)
(308.02619 5.8857955e-18 -5.0967874)
(308.45147 1.3505925e-16 -5.7439293)
(306.99854 1.2334211e-16 -4.2384673)
(307.3474 -1.1556557e-17 -4.7775675)
(306.16922 1.8167352e-16 -3.5059615)
(306.44051 1.7027798e-16 -3.9302208)
(305.53814 -1.2753094e-17 -2.9244227)
(305.73394 2.3787951e-16 -3.2407344)
(305.09626 -2.0924068e-17 -2.4956473)
(305.22101 -6.3395452e-17 -2.712163)
(304.82123 1.7644677e-17 -2.2091668)
(304.88866 3.1847733e-17 -2.3414296)
(304.69268 2.5217257e-16 -1.9845481)
(304.69059 -1.9233667e-16 -2.1308901)
(304.66833 3.1633434e-16 -1.8204836)
(304.60033 -2.4126745e-18 -2.0175987)
(304.68429 2.5788059e-16 -1.7480087)
(304.61609 2.1148922e-16 -1.9211721)
(304.70263 3.3640523e-16 -1.7562246)
(304.65985 -3.1260733e-16 -1.8265837)
(304.77548 1.7338994e-16 -1.7015259)
(304.72868 2.2840038e-16 -1.7387666)
(304.91109 -2.6203468e-17 -1.6101649)
(304.81182 -1.7776206e-16 -1.6453502)
(305.08849 -2.8163015e-16 -1.4856694)
(304.99786 6.7063596e-18 -1.536721)
(305.24564 -2.3526592e-16 -1.3161138)
(305.17102 0 -1.3913905)
(305.41932 -1.2042934e-16 -1.0984114)
(305.31906 2.5169043e-16 -1.205881)
(305.47642 8.7798153e-17 -0.81681791)
(305.51996 3.9702859e-16 -0.94690974)
(305.37486 -1.6225881e-16 -0.41430098)
(305.03893 -2.8432759e-16 -0.58955171)
(305.1419 -7.6478059e-17 -0.55498555)
(305.04045 0 -0.14607977)
(305.03872 -3.8875352e-18 0.68359694)
(216.6481 8.7690812e-19 -4.6751423)
(200.59107 8.6744121e-17 -5.0559723)
(248.62007 1.0506943e-18 -5.4884936)
(237.81586 -3.6338744e-20 -5.6017049)
(273.38115 3.9772831e-17 -6.1962316)
(263.69616 0 -6.4900039)
(296.98509 4.6616243e-17 -6.9379083)
(287.32426 4.1801325e-17 -7.11092)
(316.24994 -3.0819365e-17 -7.61315)
(310.85844 -1.1534524e-18 -8.3616583)
(322.94715 -3.5416958e-17 -7.8453011)
(324.07763 -6.5475936e-17 -8.0608011)
(322.81492 2.0737247e-17 -7.8693648)
(321.84964 2.8110397e-17 -9.1835449)
(323.18361 5.4281978e-18 -7.9086734)
(324.02166 4.8829167e-17 -7.7306788)
(322.72431 -2.331472e-17 -7.9365742)
(322.23481 -8.2042919e-17 -9.5140985)
(322.86286 5.9903826e-18 -7.9834879)
(323.35856 -4.5497541e-20 -7.7177431)
(322.5784 -1.7817082e-17 -8.0331506)
(322.333 2.67759e-17 -9.5506954)
(322.59581 -1.3361234e-17 -8.0958004)
(322.91993 -2.1562647e-17 -7.97713)
(322.36006 4.7772414e-17 -8.1710284)
(322.27584 1.8101244e-17 -9.4646483)
(322.28617 1.6027412e-17 -8.2583875)
(322.51044 2.239339e-17 -8.3754974)
(322.06909 -4.0143149e-17 -8.3660704)
(322.0853 -3.196543e-17 -9.405658)
(321.91279 -2.3204916e-17 -8.4858228)
(322.09716 7.6096162e-19 -8.8130064)
(321.65958 2.6806898e-17 -8.628083)
(321.74601 -1.8139565e-17 -9.457547)
(321.40859 1.0006031e-17 -8.7822301)
(321.58269 1.4075826e-17 -9.2448554)
(321.0806 -4.5429685e-17 -8.965073)
(321.21722 -3.6956023e-17 -9.6640891)
(320.72665 -3.017374e-17 -9.1671189)
(320.90404 -9.7736327e-18 -9.7176902)
(320.28346 -2.991284e-18 -9.4274696)
(320.46324 -4.3495686e-17 -10.070142)
(319.72799 6.1229852e-17 -9.7028464)
(319.97915 -2.2153177e-17 -10.282145)
(319.0324 8.2584213e-17 -9.9586677)
(319.35338 1.0103241e-17 -10.577595)
(318.20563 2.8818854e-17 -10.144424)
(318.59701 1.9443424e-17 -10.770178)
(317.22641 -3.954509e-17 -10.238626)
(317.67402 7.998538e-18 -10.912963)
(316.07774 -5.9043285e-17 -10.173758)
(316.5841 -5.3244603e-17 -10.896427)
(314.77179 5.6818214e-17 -9.8980356)
(315.32203 9.0656177e-17 -10.682499)
(313.34756 7.6175967e-17 -9.3761679)
(313.92044 7.202733e-17 -10.207641)
(311.87112 -2.6364025e-18 -8.6146157)
(312.43722 1.4903557e-17 -9.4692668)
(310.4216 1.3094093e-16 -7.664485)
(310.95249 -2.2978477e-16 -8.5030569)
(309.07333 2.8502451e-16 -6.6124814)
(309.54688 -1.3920513e-16 -7.3944406)
(307.88189 1.3260693e-16 -5.5577212)
(308.28492 1.2652791e-17 -6.2474623)
(306.87911 1.6231415e-17 -4.5879996)
(307.20692 -1.1852427e-17 -5.1627868)
(306.07532 2.1895053e-16 -3.7626661)
(306.32848 -3.4109672e-19 -4.2164066)
(305.46718 2.1952313e-16 -3.1063514)
(305.64828 -2.012594e-16 -3.4459932)
(305.04431 -2.1119282e-17 -2.6199511)
(305.15805 -4.2423136e-17 -2.8530707)
(304.7793 -1.5256349e-16 -2.2901356)
(304.84265 -2.4261509e-16 -2.4374318)
(304.65613 -4.6677221e-16 -2.032175)
(304.64719 1.877414e-18 -2.1921003)
(304.6412 -1.3062807e-16 -1.8487769)
(304.5684 -3.0293044e-16 -2.0485195)
(304.67368 -2.9882004e-16 -1.7547612)
(304.5986 2.2419079e-16 -1.9321815)
(304.69561 -4.8171006e-16 -1.7671308)
(304.65871 -6.0229956e-16 -1.8270073)
(304.7664 -7.6261943e-17 -1.6910887)
(304.72745 -2.3615534e-19 -1.7317157)
(304.88737 -1.6551144e-16 -1.5905903)
(304.80103 -7.0011097e-16 -1.6293278)
(305.0575 2.8973555e-16 -1.462082)
(304.95802 2.6038706e-16 -1.5127106)
(305.22704 4.6013499e-16 -1.2933447)
(305.14205 3.5655285e-16 -1.3692986)
(305.41216 7.5542292e-16 -1.0730194)
(305.3018 2.5917481e-16 -1.1812139)
(305.50564 9.4479656e-17 -0.79626578)
(305.50338 3.9317356e-16 -0.91728537)
(305.44453 -1.6049802e-16 -0.39735302)
(305.28658 1.4672926e-16 -0.56480189)
(305.1865 7.344034e-17 -0.49908765)
(305.20077 3.3202788e-18 -0.129526)
(305.06165 2.4224605e-16 0.66231321)
(218.40169 9.2561222e-17 -5.6248871)
(202.25429 8.4721172e-17 -5.9526075)
(250.53801 -1.0653171e-18 -6.5767594)
(239.63117 4.1724682e-20 -6.6548856)
(275.48343 -1.263258e-18 -7.3952012)
(265.70571 -5.3165819e-17 -7.6617038)
(299.05524 -1.5141892e-18 -8.2428157)
(289.54729 4.5861306e-17 -8.3780728)
(317.47727 -3.0008281e-17 -8.9622531)
(312.67738 0 -9.7695385)
(323.18535 -1.0709673e-17 -9.1834336)
(324.43454 1.2676028e-18 -9.3657486)
(322.86223 5.3937134e-17 -9.2036132)
(321.87909 -5.4491885e-17 -10.588927)
(323.2351 -2.6413811e-17 -9.2464738)
(324.07872 6.7099603e-17 -9.0231083)
(322.77472 -6.5733091e-17 -9.2750865)
(322.2669 -5.4572814e-17 -10.914557)
(322.91696 1.8177532e-17 -9.3250532)
(323.41348 -4.4455643e-20 -9.0263196)
(322.63122 2.6914901e-17 -9.3771878)
(322.37097 2.6651339e-17 -10.941682)
(322.65149 6.0742792e-18 -9.4430503)
(322.9707 -2.1660662e-19 -9.3073953)
(322.41555 -7.0460976e-18 -9.522124)
(322.32014 0 -10.843591)
(322.34209 -2.0218839e-17 -9.6131397)
(322.55793 -3.9453257e-17 -9.7280278)
(322.12382 5.4094426e-18 -9.7233574)
(322.12793 4.28097e-19 -10.776282)
(321.96517 7.2308302e-18 -9.8429761)
(322.13308 3.2357956e-17 -10.177675)
(321.71049 -3.3199265e-17 -9.989129)
(321.78271 9.9022821e-18 -10.826129)
(321.46287 -2.7730408e-17 -10.149169)
(321.6111 -1.4821489e-17 -10.630066)
(321.14848 -4.3014962e-18 -10.347831)
(321.24936 -1.2386398e-17 -11.071015)
(320.78448 -2.0043136e-17 -10.59308)
(320.94582 3.1626577e-17 -11.156418)
(320.30436 -6.4075269e-17 -10.864721)
(320.49867 1.0198066e-17 -11.514685)
(319.71844 -7.5035404e-17 -11.126039)
(319.99354 -8.043397e-17 -11.718905)
(319.00938 -5.2643752e-17 -11.346221)
(319.33758 -2.2936577e-17 -11.992722)
(318.16296 0 -11.504805)
(318.55291 1.3689313e-19 -12.161467)
(317.14607 0 -11.54847)
(317.59445 -8.4050928e-18 -12.261966)
(315.95847 8.0967715e-17 -11.409711)
(316.46249 0 -12.178872)
(314.61369 1.0733218e-16 -11.031628)
(315.15835 -2.7207178e-18 -11.869113)
(313.15916 1.7020839e-17 -10.382181)
(313.72102 -1.4150459e-16 -11.270556)
(311.66605 -1.8577348e-16 -9.4763281)
(312.21529 1.1446018e-16 -10.387685)
(310.216 -5.0546146e-16 -8.3772525)
(310.72496 -6.8177567e-18 -9.2688327)
(308.88194 -4.2361427e-16 -7.1829574)
(309.33049 -1.3939246e-16 -8.0117985)
(307.71518 -1.2784999e-16 -6.0005413)
(308.09262 -1.053741e-16 -6.7301033)
(306.74216 -2.9466185e-17 -4.9218004)
(307.04602 -1.1740722e-17 -5.5294798)
(305.96813 -3.9613787e-16 -4.0066867)
(306.20068 -1.8310193e-17 -4.487355)
(305.38643 -4.7826209e-16 -3.2786353)
(305.55084 -1.9276878e-16 -3.6393028)
(304.98525 -2.4091661e-16 -2.7374171)
(305.08657 -1.0634553e-17 -2.985407)
(304.73238 -1.1564845e-16 -2.3676051)
(304.79015 -1.3416228e-17 -2.528276)
(304.61561 1.9879399e-16 -2.0788094)
(304.60063 2.0459924e-16 -2.2496762)
(304.61167 -9.0880867e-18 -1.8744939)
(304.53453 -5.9471969e-16 -2.0754322)
(304.65958 1.4717735e-17 -1.7674015)
(304.57805 8.5094325e-16 -1.9397749)
(304.69189 -1.8972888e-16 -1.7740294)
(304.65583 3.2211643e-16 -1.8259158)
(304.76241 -5.4396763e-16 -1.6808956)
(304.73078 -2.1420143e-16 -1.7245207)
(304.86171 -3.8421428e-16 -1.5712209)
(304.7945 -1.1018263e-17 -1.6138333)
(305.01895 3.1636226e-16 -1.4375084)
(304.87993 0 -1.4864393)
(305.2003 1.6579559e-16 -1.2694565)
(305.10913 3.5795176e-16 -1.3461683)
(305.38751 -1.2067852e-16 -1.0469963)
(305.2787 2.4803371e-16 -1.1551573)
(305.53156 4.6809623e-16 -0.76355655)
(305.47997 -1.9336405e-16 -0.88526646)
(305.5215 3.20358e-16 -0.38026349)
(305.40074 2.9614094e-16 -0.53671008)
(305.22537 1.423622e-16 -0.45979843)
(305.36287 2.1246598e-16 -0.11691119)
(305.08506 1.6095728e-16 0.63950902)
(220.10739 9.0596658e-19 -6.603904)
(203.87708 8.9325984e-17 -6.8766676)
(252.42076 -4.6718029e-17 -7.6987756)
(241.4041 -6.3459463e-17 -7.7344613)
(277.58839 -1.4824011e-17 -8.6322366)
(267.68444 -5.1933609e-17 -8.8660898)
(301.06052 5.0905273e-17 -9.5861249)
(291.80696 4.6140485e-17 -9.6817442)
(318.55625 3.0453917e-17 -10.338117)
(314.29404 -2.5212595e-18 -11.205714)
(323.3622 -3.7161035e-17 -10.545717)
(324.69579 2.8800747e-17 -10.687172)
(322.89839 -5.1115052e-17 -10.561823)
(321.89037 -8.368071e-17 -12.017636)
(323.27439 4.9091351e-17 -10.608219)
(324.12092 3.7469275e-17 -10.336205)
(322.81124 5.3307344e-18 -10.637531)
(322.28154 -3.0241264e-17 -12.338947)
(322.95669 6.1566423e-18 -10.690987)
(323.45308 5.8349188e-17 -10.357135)
(322.66826 2.2492681e-18 -10.745132)
(322.39062 -3.4988361e-17 -12.355425)
(322.69076 -6.1706377e-18 -10.812435)
(322.99867 -1.7169732e-17 -10.660751)
(322.45459 -2.8556419e-17 -10.895008)
(322.3463 -2.9000638e-17 -12.243413)
(322.37998 -2.2422467e-17 -10.988695)
(322.58442 1.1318191e-18 -11.101299)
(322.15963 2.421787e-17 -11.102081)
(322.14982 1.2931354e-17 -12.166642)
(322.00007 3.6767357e-17 -11.226765)
(322.14939 1.082521e-17 -11.571027)
(321.75502 2.9883604e-17 -11.376046)
(321.79448 8.3450097e-18 -12.235112)
(321.51709 0 -11.567094)
(321.6372 0 -12.07053)
(321.18688 1.9146013e-17 -11.802184)
(321.28174 0 -12.529479)
(320.78929 6.3009888e-17 -12.058233)
(320.96834 2.0911621e-17 -12.62894)
(320.28614 1.7682087e-18 -12.317421)
(320.50254 4.3607131e-17 -12.976403)
(319.69048 -3.4236052e-17 -12.554655)
(319.9703 9.2710614e-18 -13.172316)
(318.96526 2.6869327e-17 -12.761218)
(319.29087 3.6737602e-17 -13.43103)
(318.08415 -7.3668308e-18 -12.887575)
(318.47324 -1.0180167e-17 -13.576476)
(317.02803 -9.1559236e-18 -12.875951)
(317.47536 -8.2611552e-18 -13.629296)
(315.79606 -8.21252e-17 -12.654118)
(316.29818 0 -13.471781)
(314.41137 -2.3493359e-16 -12.16366)
(314.95023 -9.0546287e-17 -13.055733)
(312.92745 -6.9597678e-17 -11.377095)
(313.47761 -1.5856234e-16 -12.323046)
(311.42112 3.0282571e-16 -10.319701)
(311.95224 2.3766548e-16 -11.287208)
(309.9756 3.6792197e-16 -9.0676186)
(310.46114 2.0582644e-16 -10.010525)
(308.66149 1.7192251e-16 -7.7301541)
(309.08362 1.5454871e-16 -8.6033979)
(307.52507 0 -6.4217065)
(307.87575 1.5658607e-17 -7.1882174)
(306.58688 0 -5.2370648)
(306.86587 -3.8952403e-16 -5.8747867)
(305.84695 2.0201737e-16 -4.2358741)
(306.05816 -9.3598243e-18 -4.7408267)
(305.29534 2.5211857e-16 -3.439707)
(305.44251 6.8580933e-16 -3.8190113)
(304.91851 2.1593865e-16 -2.8466628)
(305.00715 3.481979e-16 -3.1081592)
(304.68029 2.8126524e-16 -2.4399239)
(304.73131 2.4255649e-16 -2.6126654)
(304.57332 -4.9712074e-16 -2.1214639)
(304.55122 -3.7843543e-16 -2.3026919)
(304.57901 9.9871136e-17 -1.9021055)
(304.49889 3.6180165e-18 -2.0982163)
(304.6406 1.2170997e-15 -1.7838625)
(304.55465 3.9634561e-16 -1.9439848)
(304.69098 3.5892167e-16 -1.7716755)
(304.64873 3.5116641e-16 -1.8228136)
(304.76198 2.9554059e-16 -1.6708898)
(304.73662 -1.4286349e-17 -1.7168523)
(304.83974 3.7231342e-16 -1.5527402)
(304.7928 1.0006436e-15 -1.5986367)
(304.98158 -1.4511715e-20 -1.4124438)
(304.84887 0 -1.4625615)
(305.16965 4.5362137e-16 -1.2442597)
(305.07358 -3.5319417e-16 -1.3221177)
(305.35899 2.2674454e-16 -1.0196921)
(305.25007 -5.1656156e-16 -1.1273458)
(305.53877 -4.2382934e-16 -0.73696457)
(305.45259 -3.8975864e-16 -0.85082792)
(305.57628 1.9695381e-16 -0.35800259)
(305.48834 2.8588959e-16 -0.50892797)
(305.26683 2.3388298e-16 -0.4422354)
(305.4513 4.7756886e-18 -0.10496229)
(305.16527 -1.5597969e-16 0.61518039)
(221.7881 3.8290466e-17 -7.6072523)
(205.46816 2.699956e-16 -7.8294227)
(254.27459 -6.9449257e-17 -8.8473301)
(243.14178 -1.9921491e-16 -8.8386341)
(279.70067 0 -9.8998656)
(269.63358 -1.1017332e-16 -10.103087)
(302.99743 -2.2669324e-18 -10.958707)
(294.11953 9.1894221e-17 -11.021891)
(319.48379 -6.5758565e-18 -11.732401)
(315.70502 1.0453746e-19 -12.666798)
(323.48659 -7.8749301e-18 -11.926817)
(324.89504 1.6832381e-19 -12.024788)
(322.91772 -6.5865075e-18 -11.939141)
(321.88453 -7.1889713e-18 -13.4686)
(323.29726 -3.4754453e-17 -11.99099)
(324.15645 5.1847612e-17 -11.668749)
(322.83126 1.4613406e-17 -12.0212)
(322.27894 -3.9298309e-17 -13.785554)
(322.97956 2.5448701e-17 -12.079634)
(323.48202 6.5537142e-17 -11.707864)
(322.68377 -5.5371697e-17 -12.135677)
(322.39118 -6.1858137e-17 -13.789019)
(322.70894 -3.8553388e-17 -12.202897)
(322.99886 4.3956894e-19 -12.036759)
(322.47661 -2.380626e-18 -12.290345)
(322.35564 -1.8550792e-17 -13.665903)
(322.40131 3.4775002e-17 -12.388575)
(322.59214 4.7866715e-17 -12.500639)
(322.18489 0 -12.505087)
(322.14826 -1.3604755e-17 -13.587951)
(322.03644 -1.6783213e-17 -12.643546)
(322.15113 0 -13.011176)
(321.79235 -2.0209421e-17 -12.830729)
(321.81561 -1.8293832e-17 -13.698148)
(321.53302 0 -13.042566)
(321.65304 0 -13.556976)
(321.17708 0 -13.289063)
(321.296 1.3244507e-17 -14.014889)
(320.76212 0 -13.531387)
(320.95677 -2.2004152e-17 -14.114869)
(320.25349 5.3878628e-17 -13.778367)
(320.47286 1.8338112e-17 -14.454786)
(319.64231 7.6539183e-17 -14.012009)
(319.91899 1.1253791e-16 -14.650015)
(318.88587 4.4474697e-18 -14.20076)
(319.21138 1.235146e-17 -14.895134)
(317.96771 -1.1224019e-17 -14.290787)
(318.35659 -9.473867e-17 -15.012942)
(316.8671 0 -14.216481)
(317.31474 -1.314865e-16 -15.011615)
(315.58939 0 -13.90196)
(316.08918 7.4020003e-18 -14.770121)
(314.16421 -8.9572379e-18 -13.288417)
(314.69597 -2.0241871e-16 -14.236595)
(312.65292 1.0686206e-16 -12.355037)
(313.18925 -6.0235056e-19 -13.358978)
(311.13755 1.4495793e-16 -11.139155)
(311.64798 -3.8106411e-16 -12.161928)