/*--------------------------------*- C++ -*----------------------------------*\
  =========                 |
  \\      /  F ield         | OpenFOAM: The Open Source CFD Toolbox
   \\    /   O peration     | Website:  https://openfoam.org
    \\  /    A nd           | Version:  8
     \\/     M anipulation  |
\*---------------------------------------------------------------------------*/
FoamFile
{
    version     2.0;
    format      ascii;
    class       volScalarField;
    location    "0.219989";
    object      T;
}
// * * * * * * * * * * * * * * * * * * * * * * * * * * * * * * * * * * * * * //

dimensions      [0 0 0 1 0 0 0];

internalField   nonuniform List<scalar> 
20000
(
296.91028
296.58326
295.31682
292.65017
287.5158
280.65093
279.90814
279.5892
280.19869
280.11288
280.55665
280.62786
281.00799
281.20618
281.58737
281.90034
282.33272
282.76556
283.28983
283.85752
284.50763
285.22355
286.0162
286.87906
287.85496
288.93984
290.08317
291.24673
292.39539
293.49363
294.50133
295.39096
296.14701
296.76817
297.26096
297.6401
297.91754
298.11491
298.26771
298.37069
298.41655
298.43144
298.43067
298.3965
298.32282
298.24727
298.17549
297.98707
297.88394
297.60422
296.8044
296.35573
294.96559
292.12093
286.56652
279.99061
279.64234
279.30779
279.91905
279.83186
280.27778
280.35091
280.7341
280.93755
281.32309
281.64444
282.08422
282.52928
283.06522
283.647
284.30991
285.04092
285.85847
286.78517
287.81938
288.92028
290.077
291.25735
292.42658
293.53693
294.54894
295.43644
296.18643
296.79996
297.28583
297.65898
297.93104
298.1277
298.29081
298.38753
298.4257
298.43389
298.43211
298.39151
298.3173
298.24604
298.15446
297.9237
297.7569
297.65335
296.67212
296.08771
294.55747
291.52884
285.52639
279.3655
279.35719
279.02511
279.64446
279.55743
280.00932
280.08597
280.47362
280.68371
281.07454
281.40586
281.85429
282.31277
282.86043
283.45623
284.13328
284.8867
285.74123
286.71283
287.78521
288.91724
290.09922
291.30666
292.49212
293.61027
294.6218
295.50263
296.24253
296.84509
297.32097
297.68506
297.9497
298.14652
298.30493
298.39692
298.43248
298.43706
298.43058
298.38654
298.31297
298.24819
298.15473
297.91984
297.74381
297.66845
296.58261
295.83878
294.16644
290.96277
284.52433
278.8459
279.11107
278.77172
279.39573
279.30776
279.76342
279.84316
280.23453
280.45141
280.84751
281.18892
281.64538
282.11575
282.67334
283.28354
283.97984
284.76817
285.6758
286.68889
287.78206
288.93665
290.14994
291.38026
292.58066
293.70369
294.71146
295.58234
296.30912
296.89812
297.3619
297.71512
297.97126
298.16852
298.32251
298.40865
298.44171
298.4425
298.43181
298.38161
298.3091
298.24664
298.14659
297.86215
297.71071
297.68718
296.45623
295.57033
293.74774
290.36941
283.53287
278.40095
278.87599
278.5334
279.16354
279.07614
279.53665
279.62072
280.01628
280.24085
280.64259
280.99441
281.45826
281.93964
282.50816
283.13885
283.86722
284.70571
285.64881
286.68126
287.79592
288.99001
290.23321
291.48625
292.69818
293.82217
294.82196
295.67889
296.389
296.96148
297.4106
297.75068
297.99704
298.19369
298.33944
298.41943
298.45046
298.45007
298.4343
298.37694
298.30638
298.24305
298.13615
297.87092
297.71822
297.69002
296.37846
295.31997
293.33052
289.76534
282.59038
278.03101
278.66676
278.32014
278.95583
278.86899
279.33384
279.42264
279.82204
280.05468
280.46176
280.82368
281.29454
281.78858
282.37423
283.03646
283.81058
284.67976
285.64226
286.69731
287.84924
289.07644
290.34902
291.62163
292.84179
293.9627
294.95041
295.78962
296.47982
297.03314
297.46539
297.7906
298.02656
298.22087
298.35799
298.43156
298.45983
298.45959
298.4373
298.36952
298.30368
298.23855
298.11578
297.87524
297.71841
297.69997
296.28523
295.06861
292.9024
289.13281
281.7093
277.72456
278.47891
278.12941
278.77124
278.6855
279.15526
279.24998
279.65272
279.89378
280.30586
280.67825
281.15903
281.67317
282.28825
282.99021
283.78704
284.67427
285.65795
286.74977
287.93609
289.19848
290.49841
291.7879
293.01229
294.1257
295.097
295.9146
296.58165
297.11319
297.52633
297.83509
298.06036
298.24978
298.37722
298.44423
298.46933
298.47053
298.44052
298.36236
298.30054
298.23154
298.08816
297.86763
297.7212
297.71797
296.22638
294.84067
292.48036
288.47349
280.91202
277.47474
278.31949
277.9651
278.61474
278.52877
279.00478
279.10724
279.51011
279.7602
280.17796
280.56409
281.0618
281.60781
282.2515
282.9716
283.78302
284.6917
285.71067
286.83748
288.06088
289.35626
290.68137
291.98407
293.20834
294.30963
295.26018
296.05241
296.69325
297.20059
297.59256
297.8836
298.09849
298.27995
298.39693
298.4566
298.47878
298.48228
298.4445
298.36343
298.29649
298.22289
298.05967
297.85554
297.71469
297.75559
296.17201
294.62668
292.06403
287.77833
280.20959
277.27449
278.19751
277.82895
278.49481
278.40173
278.88869
278.99489
279.39656
279.65765
280.08507
280.49304
281.0142
281.58102
282.23794
282.97099
283.80343
284.74525
285.79812
286.96292
288.22276
289.55031
290.89781
292.20974
293.42915
294.51351
295.4389
296.20211
296.81385
297.2947
297.66353
297.93578
298.14093
298.31105
298.41677
298.46862
298.48781
298.49347
298.44993
298.36343
298.29137
298.21246
298.03202
297.83674
297.68531
297.83214
296.14673
294.43869
291.66793
287.05193
279.6192
277.12178
278.09924
277.72471
278.40127
278.31255
278.79266
278.90115
279.31703
279.59398
280.03659
280.46366
280.99454
281.57361
282.24004
282.99686
283.85878
284.83335
285.92345
287.12636
288.42277
289.78048
291.14709
292.46371
293.67321
294.73571
295.63165
296.36233
296.94232
297.39459
297.73851
297.99112
298.18689
298.34321
298.43696
298.48074
298.49645
298.50249
298.45688
298.36365
298.28477
298.20017
298.00549
297.81181
297.67616
297.81857
296.1304
294.26807
291.28825
286.2911
279.13471
277.00962
278.01716
277.65182
278.3207
278.24948
278.72099
278.84677
279.2762
279.56722
280.01619
280.45447
280.99122
281.58302
282.27204
283.05589
283.94819
284.95857
286.08656
287.32846
288.66067
290.04642
291.4283
292.7447
293.93897
294.97466
295.83695
296.5318
297.07759
297.49938
297.81684
298.04923
298.2355
298.37624
298.4578
298.49324
298.50494
298.50976
298.45889
298.36392
298.27334
298.18622
297.97939
297.78251
297.6806
297.73819
296.13507
294.11511
290.92625
285.49819
278.73803
276.92781
277.95805
277.60259
278.26806
278.20271
278.68578
278.82275
279.25854
279.55905
280.01103
280.45874
281.00902
281.624
282.3355
283.14872
284.074
285.1212
286.28845
287.56939
288.93635
290.34729
291.74007
293.05092
294.22452
295.22848
296.05307
296.70904
297.21844
297.60806
297.89787
298.10992
298.28585
298.40962
298.47847
298.50635
298.51356
298.51537
298.46049
298.36503
298.25599
298.17109
297.95136
297.75559
297.67366
297.64391
296.14825
293.9699
290.57284
284.67643
278.4263
276.87116
277.91883
277.5599
278.23872
278.17146
278.67249
278.81388
279.25427
279.56331
280.02317
280.49001
281.05729
281.69519
282.43261
283.27675
284.23639
285.32194
286.52919
287.8491
289.24923
290.68206
292.0809
293.38054
294.52792
295.49528
296.27832
296.89262
297.36369
297.71966
297.98101
298.17321
298.33687
298.44295
298.49922
298.51998
298.52273
298.51938
298.46184
298.36777
298.25762
298.15526
297.91856
297.72525
297.65497
297.66589
296.18139
293.83609
290.23038
283.84588
278.19921
276.84057
277.9083
277.56403
278.23587
278.18751
278.67587
278.82633
279.26656
279.59256
280.06448
280.55049
281.13642
281.7996
282.56397
283.44056
284.43614
285.56107
286.8089
288.16721
289.5984
291.04919
292.44875
293.7313
294.84687
295.77291
296.51082
297.08098
297.51208
297.83317
298.06571
298.23926
298.38744
298.47587
298.51993
298.53407
298.53254
298.52255
298.46241
298.37206
298.27044
298.13868
297.88361
297.6966
297.63779
297.69252
296.22123
293.70229
289.87991
283.0046
278.03718
276.83608
277.91545
277.55621
278.2463
278.19102
278.70056
278.86969
279.30831
279.65162
280.13591
280.64257
281.24812
281.93723
282.73018
283.6405
284.67332
285.83861
287.12734
288.52317
289.98278
291.44708
292.84162
294.10098
295.17913
296.05929
296.74876
297.27269
297.66242
297.94767
298.15149
298.30768
298.43677
298.50814
298.54067
298.54852
298.54292
298.5254
298.46203
298.37657
298.28975
298.11978
297.85449
297.68895
297.63523
297.71232
296.27069
293.57623
289.52863
282.19036
277.94309
276.88283
277.94705
277.59039
278.2824
278.2317
278.75594
278.932
279.38158
279.74173
280.23857
280.76603
281.39227
282.10854
282.93138
283.87669
284.94801
286.15444
287.48409
288.91603
290.40084
291.87359
293.25698
294.48691
295.52209
296.35203
296.99022
297.46625
297.81356
298.06238
298.23799
298.37704
298.48476
298.53947
298.56144
298.56343
298.55341
298.52647
298.46007
298.37897
298.29649
298.09615
297.83374
297.683
297.6351
297.73001
296.34623
293.47139
289.18176
281.4283
277.91727
276.93155
278.00205
277.6615
278.34155
278.32128
278.83102
279.02904
279.48386
279.86128
280.37144
280.92078
281.56891
282.31336
283.16749
284.14902
285.26001
286.50824
287.87859
289.34481
290.85102
292.32666
293.69242
294.88651
295.87321
296.64892
297.23346
297.66036
297.96448
298.17665
298.32499
298.44601
298.531
298.56968
298.58226
298.57928
298.56341
298.52565
298.45687
298.38263
298.30513
298.06514
297.80255
297.6785
297.63609
297.74421
296.44157
293.38127
288.82633
280.73722
277.94991
277.00396
278.08042
277.74914
278.43601
278.42539
278.94021
279.15114
279.61396
280.00988
280.53444
281.10648
281.77776
282.55154
283.43832
284.45731
285.60906
286.89957
288.30998
289.80807
291.33124
292.80367
294.14498
295.29673
296.22965
296.94771
297.47684
297.85372
298.11414
298.28994
298.41226
298.513
298.57523
298.59895
298.60374
298.59524
298.57326
298.52476
298.45271
298.38413
298.30672
298.02231
297.7838
297.67175
297.63743
297.75643
296.55352
293.30736
288.45667
280.1536
278.03157
277.10614
278.18832
277.86515
278.55787
278.5597
279.0734
279.30141
279.77204
280.18724
280.72713
281.32282
282.01849
282.82272
283.74357
284.80126
285.99481
287.32796
288.77742
290.3045
291.83953
293.30217
294.61187
295.71467
296.58894
297.24669
297.7191
298.04515
298.26155
298.40173
298.49919
298.57672
298.61745
298.62783
298.62569
298.61075
298.58305
298.52417
298.44857
298.38132
298.28579
297.97752
297.77594
297.65594
297.6412
297.76388
296.67371
293.24433
288.0638
279.62988
278.13793
277.23374
278.32443
278.00475
278.70536
278.71467
279.23369
279.47845
279.95765
280.39287
280.94911
281.56929
282.29067
283.12655
284.08292
285.18056
286.41688
287.79271
289.27975
290.83219
292.37334
293.819
295.08962
296.1371
296.94878
297.54446
297.95904
298.23327
298.40558
298.5114
298.5842
298.63668
298.65808
298.65717
298.64721
298.62538
298.59123
298.52366
298.4447
298.37527
298.2494
297.95767
297.75918
297.64037
297.65062
297.77074
296.80087
293.19493
287.65209
279.18695
278.27364
277.38659
278.4858
278.17085
278.87729
278.89745
279.41941
279.68204
280.17018
280.62615
281.19978
281.8454
282.59386
283.46266
284.45609
285.59497
286.87494
288.29323
289.8159
291.38944
292.93027
294.35122
295.57511
296.56144
297.30777
297.8401
298.19541
298.41662
298.54524
298.61821
298.66547
298.69327
298.69802
298.6865
298.66802
298.63884
298.59721
298.52292
298.44071
298.36558
298.21257
297.93742
297.73287
297.64434
297.68092
297.77928
296.93251
293.15739
287.22377
278.82749
278.44955
277.56358
278.67085
278.36077
279.06939
279.10412
279.62986
279.91105
280.40892
280.8864
281.47862
282.15063
282.92766
283.83079
284.86286
286.04423
287.36852
288.82866
290.38433
291.97387
293.50718
294.89517
296.06481
296.98547
297.66485
298.13209
298.4261
298.59366
298.67984
298.72129
298.74199
298.74732
298.73772
298.71484
298.68802
298.6511
298.60194
298.52143
298.43576
298.35035
298.16816
297.90753
297.71071
297.6488
297.6803
297.78676
297.05865
293.12603
286.78097
278.53918
278.64643
277.76262
278.87725
278.57353
279.28365
279.33479
279.8642
280.16496
280.67327
281.17312
281.78508
282.4846
283.29181
284.23078
285.30315
286.52824
287.89733
289.39828
290.98368
292.58334
294.10114
295.44753
296.55609
297.4082
298.01896
298.41767
298.64831
298.76361
298.80928
298.81972
298.81425
298.8001
298.77557
298.74216
298.70718
298.66233
298.60466
298.51901
298.42943
298.33187
298.12382
297.87277
297.70493
297.65202
297.65729
297.79433
297.17845
293.10552
286.33427
278.34152
278.86788
277.98283
279.10252
278.80863
279.52003
279.58841
280.12204
280.44305
280.96275
281.4857
282.11879
282.84707
283.6862
284.66264
285.77692
287.04681
288.46082
290.00096
291.61193
293.21485
294.70836
296.00456
297.04669
297.82869
298.36709
298.69293
298.86039
298.926
298.93336
298.91357
298.88353
298.84999
298.81175
298.76816
298.72545
298.67322
298.60584
298.51585
298.42203
298.31188
298.07865
297.83855
297.69922
297.65422
297.66132
297.8024
297.28176
293.08359
285.88353
278.22652
279.1074
278.22339
279.34552
279.06561
279.77791
279.86481
280.40277
280.74484
281.27682
281.82376
282.47956
283.23801
284.11094
285.12651
286.2843
287.59992
289.05865
290.63576
292.26728
293.86561
295.32548
296.56351
297.53571
298.24523
298.70452
298.95552
299.06169
299.08163
299.05274
299.00243
298.94873
298.8973
298.84595
298.79272
298.74266
298.68433
298.60626
298.51224
298.41417
298.2914
298.03063
297.80814
297.6925
297.6596
297.69061
297.83948
297.37951
293.0648
285.4477
278.19565
279.36794
278.48608
279.61056
279.34375
280.05705
280.16308
280.70578
281.06971
281.61515
282.18722
282.86749
283.65764
284.56627
285.62263
286.82535
288.18738
289.6901
291.30112
292.94703
294.53191
295.94857
297.12191
298.02215
298.65268
299.02752
299.20392
299.25417
299.23114
299.1653
299.08619
299.01004
298.94167
298.87815
298.81571
298.75851
298.69478
298.60668
298.50843
298.40605
298.26726
297.98309
297.78042
297.68466
297.66152
297.7057
297.91758
297.46288
293.03563
285.03308
278.24012
279.64489
278.76732
279.89368
279.64233
280.35617
280.48266
281.03067
281.41754
281.97787
282.57635
283.28291
284.10631
285.05253
286.15132
287.40031
288.80914
290.35469
291.99564
293.64874
295.21037
296.5747
297.67868
298.50394
299.04558
299.3332
299.43987
299.43955
299.37196
299.27135
299.16461
299.06723
298.98311
298.90822
298.8371
298.7728
298.70255
298.60658
298.50458
298.39741
298.23314
297.94164
297.75756
297.68334
297.65897
297.68519
297.8996
297.5324
292.99104
284.65484
278.35275
279.9394
279.06824
280.19609
279.96127
280.67538
280.82348
281.37764
281.78867
282.36549
282.99162
283.72628
284.58445
285.57013
286.71289
288.00927
289.46493
291.05132
292.7171
294.36884
295.89698
297.20098
298.2326
298.97446
299.42004
299.6211
299.667
299.61447
299.5044
299.3704
299.23761
299.12029
299.02154
298.9361
298.85692
298.78575
298.70625
298.60555
298.50066
298.38764
298.18992
297.90701
297.74916
297.68275
297.65647
297.67242
297.81931
297.59285
292.92867
284.32776
278.52645
280.25196
279.38814
280.51665
280.29986
281.01483
281.18596
281.74741
282.18377
282.77861
283.43349
284.19799
285.09254
286.11953
287.3078
288.65248
290.15462
291.77909
293.46341
295.10415
296.58858
297.82591
298.78159
299.4276
299.77328
299.8955
299.88304
299.77879
299.62799
299.46249
299.30513
299.1692
299.05694
298.96174
298.87516
298.79793
298.70832
298.60371
298.49648
298.37584
298.14168
297.87934
297.74336
297.68349
297.65642
297.67999
297.78323
297.64059
292.8381
284.05637
278.75337
280.58078
279.72703
280.85583
280.65988
281.37564
281.57144
282.14079
282.60337
283.21758
283.90232
284.69852
285.63109
286.70126
287.9364
289.32999
290.87763
292.53628
294.23141
295.85054
297.28181
298.44797
299.3186
299.85882
300.10538
300.15922
300.08565
299.93202
299.74272
299.54752
299.36718
299.21398
299.08932
298.98513
298.89174
298.80962
298.70921
298.60116
298.49175
298.36086
298.0935
297.85769
297.73999
297.68319
297.65655
297.68665
297.80644
297.68504
292.7207
283.84831
279.03095
280.9295
280.0879
281.21666
281.04247
281.7588
281.98014
282.55808
283.04748
283.6827
284.3985
285.22838
286.20079
287.31592
288.5992
290.04202
291.63355
293.32127
295.01814
296.60468
297.97457
299.06543
299.83683
300.26498
300.42175
300.40856
300.27493
300.07416
299.84856
299.62557
299.42384
299.25473
299.11873
299.00628
298.90657
298.82012
298.70954
298.59819
298.486
298.34035
298.05126
297.84537
297.73482
297.67288
297.65725
297.69317
297.82377
297.72608
292.58136
283.71461
279.35251
281.29904
280.47138
281.59882
281.44758
282.16389
282.4117
282.99892
283.51634
284.1743
284.92265
285.78837
286.80237
287.96414
289.29655
290.78844
292.42119
294.13142
295.81958
297.36281
298.66469
299.67202
300.3306
300.64599
300.72474
300.64155
300.45047
300.20516
299.94558
299.69673
299.47523
299.29153
299.1452
299.02531
298.91977
298.82726
298.7097
298.59502
298.47856
298.31188
298.0193
297.83508
297.72606
297.6686
297.66051
297.69886
297.84008
297.76858
292.42032
283.65914
279.68335
281.68906
280.8756
282.00069
281.87355
282.59016
282.8658
283.46378
284.01049
284.69319
285.47567
286.37928
287.43661
288.64655
290.02896
291.56923
293.23954
294.96413
296.63239
298.12223
299.35078
300.26003
300.79621
301.00747
301.01072
300.85819
300.61238
300.32519
300.03399
299.76123
299.52153
299.32447
299.16876
299.04233
298.93187
298.83065
298.70909
298.59196
298.46921
298.27656
297.9948
297.82159
297.71542
297.67081
297.66475
297.7049
297.85362
297.81119
292.23335
283.67905
280.06956
282.09531
281.29834
282.42124
282.32067
283.03826
283.34346
283.95371
284.53089
285.24032
286.05845
287.00197
288.10433
289.36381
290.7967
292.38383
294.08648
295.81571
297.45244
298.88008
300.02833
300.82189
301.23206
301.3531
301.27706
301.05821
300.7607
300.43443
300.11401
299.81926
299.56283
299.35357
299.18944
299.05751
298.94333
298.83222
298.70794
298.58923
298.45845
298.23916
297.97074
297.80517
297.70686
297.67239
297.66858
297.71215
297.86575
297.8403
292.0282
283.77054
280.50282
282.51993
281.74255
282.86304
282.79106
283.50975
283.84583
284.4697
285.0784
285.81654
286.67186
287.6573
288.80633
290.11663
291.60012
293.23168
294.9599
296.68274
298.27666
299.63463
300.68913
301.3535
301.64356
301.67916
301.52397
301.24181
300.89577
300.53324
300.18595
299.87099
299.59918
299.37886
299.20739
299.07107
298.95355
298.83285
298.70638
298.58682
298.44665
298.19944
297.94484
297.78726
297.70423
297.674
297.67098
297.72106
297.87598
297.86264
291.81768
283.93707
280.91877
282.96617
282.21031
283.3274
283.28545
284.0055
284.37337
285.01249
285.65377
286.42271
287.31683
288.34621
289.54352
290.90564
292.43923
294.11137
295.85652
297.56093
299.10135
300.38271
301.32429
301.85117
302.03524
301.98296
301.7511
301.40915
301.01788
300.62196
300.25005
299.91647
299.63052
299.40041
299.2229
299.08341
298.96028
298.83316
298.70444
298.58402
298.433
298.15643
297.91744
297.77081
297.70132
297.6755
297.67452
297.73052
297.884
297.871
291.61049
284.1742
281.37882
283.43351
282.70111
283.81378
283.80381
284.52583
284.92676
285.58277
286.25794
287.05967
287.99438
289.06971
290.31687
291.73159
293.314
295.0214
296.77326
298.44691
299.92394
301.11779
301.9279
302.31847
302.40553
302.26377
301.95881
301.56071
301.12758
300.70101
300.3065
299.95576
299.65703
299.41853
299.2365
299.0949
298.96342
298.83316
298.70213
298.57944
298.41323
298.11123
297.88957
297.75677
297.69837
297.67796
297.68032
297.74071
297.89369
297.88026
291.41109
284.46837
281.85792
283.92076
283.21473
284.32261
284.34678
285.07152
285.50659
286.18157
286.89168
287.72851
288.70572
289.829
291.12745
292.595
294.22374
295.95909
297.70587
299.33671
300.74147
301.82997
302.4948
302.76046
302.75117
302.52148
302.14733
301.69695
301.2253
300.77067
300.3554
299.98913
299.67939
299.434
299.24882
299.10501
298.96479
298.83235
298.69958
298.57165
298.38063
298.06829
297.8633
297.74938
297.6972
297.6839
297.68753
297.75087
297.89949
297.89169
291.22625
284.81541
282.36368
284.42883
283.75233
284.85476
284.91529
285.64343
286.11375
286.80966
287.55611
288.4305
289.45218
290.62536
291.97635
293.49638
295.1675
296.92171
298.65071
300.2272
301.55038
302.51044
303.02463
303.17958
303.07004
302.75644
302.31732
301.81856
301.31159
300.83124
300.3971
300.01754
299.69897
299.44782
299.26011
299.11156
298.96534
298.83095
298.69686
298.5601
298.33547
298.02962
297.84169
297.74332
297.69881
297.69075
297.69629
297.76169
297.90562
297.91268
291.06078
285.21101
282.89488
284.95886
284.31518
285.41102
285.50979
286.24222
286.749
287.46812
288.25261
289.16711
290.23532
291.46023
292.86463
294.43561
296.14332
297.90522
299.60337
301.11424
302.3403
303.15329
303.52244
303.57169
303.36226
302.96899
302.46935
301.92609
301.38676
300.88303
300.43249
300.04246
299.71685
299.46039
299.26949
299.1145
298.96564
298.82897
298.69366
298.54464
298.28373
297.99543
297.82603
297.73876
297.70143
297.69604
297.70626
297.77216
297.91092
297.95093
290.91847
285.65237
283.45215
285.51113
284.90382
285.99166
286.131
286.86892
287.41361
288.15855
288.98292
289.94012
291.05685
292.33507
293.79319
295.41245
297.14889
298.90597
300.56015
301.99476
303.10151
303.75397
303.99438
303.93371
303.62811
303.15992
302.60425
302.02013
301.45124
300.92679
300.4631
300.06495
299.73207
299.47024
299.27455
299.11576
298.96533
298.82643
298.68914
298.52445
298.23015
297.96654
297.81658
297.73784
297.70418
297.70116
297.7184
297.7829
297.9171
298.01292
290.80175
286.13485
284.03519
286.08534
285.51855
286.59758
286.78007
287.52511
288.10935
288.88287
289.74903
290.75146
291.91856
293.25138
294.76263
296.4256
298.1807
299.91921
301.51638
302.86167
303.8246
304.31572
304.43716
304.26513
303.86804
303.32994
302.72269
302.10115
301.50566
300.96383
300.49028
300.08369
299.74071
299.47401
299.27645
299.11627
298.96413
298.82337
298.68207
298.49763
298.17973
297.94107
297.80809
297.74135
297.70972
297.70856
297.73106
297.79389
297.9227
298.10572
290.7253
286.6548
284.64428
286.68249
286.16112
287.23073
287.45903
288.21301
288.8383
289.64323
290.55306
291.60304
292.82234
294.2105
295.77321
297.4733
299.23514
300.94097
302.46826
303.70431
304.50392
304.8444
304.84784
304.56624
304.08293
303.48005
302.82542
302.16986
301.55141
300.99584
300.5136
300.09448
299.74395
299.47507
299.27665
299.11649
298.96224
298.81996
298.67158
298.4609
298.13423
297.91977
297.80206
297.74495
297.71936
297.7194
297.74374
297.80513
297.92651
298.23113
290.69042
287.21126
285.283
287.30544
286.83437
287.89332
288.17023
288.93472
289.60252
290.44174
291.39718
292.49714
293.77002
295.21355
296.8243
298.5525
300.30726
301.96603
303.41043
304.51118
305.13683
305.34264
305.22332
304.83752
304.27359
303.61098
302.91311
302.22747
301.59042
301.02368
300.52934
300.0991
299.74457
299.47451
299.27609
299.11607
298.95979
298.81628
298.65758
298.41243
298.0963
297.90289
297.7995
297.75053
297.73014
297.73778
297.76339
297.82217
297.93023
298.40266
290.6818
287.80817
285.95342
287.95647
287.54023
288.58762
288.91492
289.69253
290.40419
291.2809
292.28394
293.43579
294.7635
296.26133
297.91474
299.65983
301.39263
302.9895
304.33401
305.27403
305.72881
305.8063
305.56442
305.07991
304.44116
303.72372
302.98687
302.27596
301.62414
301.04552
300.53632
300.10078
299.74411
299.47315
299.27488
299.11472
298.95689
298.812
298.64008
298.35852
298.06235
297.88895
297.79917
297.75778
297.74355
297.78158
297.81338
297.86624
297.93835
298.61432
290.69477
288.44015
286.65593
288.6354
288.28007
289.31515
289.69607
290.48873
291.24612
292.16325
293.21571
294.42152
295.80445
297.35388
299.04201
300.79051
302.48574
304.00557
305.22577
305.9859
306.28624
306.2312
305.87125
305.29434
304.58658
303.81923
303.04838
302.31726
301.65132
301.05609
300.53925
300.10105
299.74202
299.47037
299.27257
299.11261
298.95361
298.80628
298.6183
298.30293
298.03083
297.8766
297.79933
297.76726
297.76612
297.79234
297.82423
297.8756
297.96947
298.87881
290.74244
289.11287
287.39464
289.34639
289.05655
290.07919
290.5152
291.32651
292.13099
293.0916
294.19545
295.45655
296.8941
298.49053
300.20311
301.93972
303.58142
305.00819
306.07421
306.6492
306.80674
306.61701
306.14501
305.48213
304.7111
303.89919
303.10004
302.35164
301.66751
301.06097
300.54021
300.09907
299.73777
299.46607
299.26917
299.10991
298.95007
298.79809
298.58982
298.24948
298.00255
297.86653
297.80312
297.78038
297.78977
297.78186
297.80979
297.86833
297.97229
299.19353
290.8208
289.82246
288.17108
290.09106
289.87178
290.88224
291.37554
292.2091
293.0622
294.06907
295.22598
296.54294
298.03304
299.66937
301.39336
303.10152
304.67255
305.9837
306.8706
307.26944
307.28607
306.96381
306.38661
305.64442
304.81604
303.96574
303.14357
302.3757
301.67502
301.06269
300.53889
300.09453
299.73167
299.46039
299.26477
299.10679
298.94643
298.78681
298.5505
298.20226
297.98045
297.86262
297.81118
297.79448
297.78774
297.78656
297.81517
297.87314
297.94536
299.56161
290.93568
290.57099
288.98947
290.87299
290.72909
291.72895
292.28047
293.14007
294.04312
295.09894
296.30983
297.68227
299.22095
300.88755
302.60772
304.27005
305.75279
306.91937
307.61093
307.85097
307.72094
307.27281
306.59757
305.78279
304.90347
304.02125
303.17794
302.38744
301.67809
301.06211
300.53443
300.08773
299.72381
299.45347
299.25953
299.1034
298.94266
298.77249
298.49944
298.16392
297.96422
297.86265
297.82087
297.80524
297.78978
297.79343
297.82427
297.87468
297.94505
299.9884
291.1083
291.35938
289.85271
291.69491
291.63129
292.62244
293.23349
294.12307
295.0774
296.1842
297.44954
298.87555
300.45647
302.14062
303.83963
305.43746
306.81115
307.80232
308.29964
308.38795
308.11182
307.54497
306.77925
305.89893
304.97586
304.06654
303.19745
302.39262
301.67824
301.05788
300.52737
300.07881
299.71439
299.44543
299.25358
299.09982
298.93818
298.75529
298.44333
298.13066
297.95362
297.86659
297.82946
297.81173
297.79726
297.80075
297.83242
297.87615
297.94948
300.46488
291.34585
292.18638
290.76379
292.56015
292.58255
293.56669
294.239
295.162
296.1688
297.32771
298.64693
300.1229
301.73699
303.42345
305.08263
306.59603
307.83268
308.62475
308.94479
308.876
308.4596
307.78202
306.9336
305.99523
305.03567
304.09944
303.20672
302.39414
301.67456
301.05065
300.51784
300.06802
299.70355
299.43643
299.24711
299.09618
298.9319
298.73339
298.38618
298.10206
297.94589
297.87095
297.83466
297.81584
297.80644
297.8085
297.8381
297.8801
297.95305
300.99024
291.65607
293.05616
291.72836
293.47566
293.58685
294.56726
295.30021
296.26095
297.32013
298.53198
299.90359
301.4234
303.05833
304.72894
306.3282
307.73574
308.80214
309.38774
309.54164
309.31429
308.76537
307.98553
307.06267
306.07428
305.08326
304.11685
303.21053
302.39151
301.66715
301.04057
300.50617
300.05554
299.69144
299.42662
299.24029
299.09272
298.92292
298.7034
298.3329
298.07755
297.93907
297.87093
297.83689
297.82034
297.81552
297.81704
297.8446
297.88594
297.95587
301.5641
292.05479
293.97047
292.75127
294.44575
294.64825
295.62815
296.4213
297.42275
298.5347
299.79944
301.21989
302.77467
304.41491
306.04972
307.56707
308.84175
309.70874
310.0981
310.08582
309.70371
309.031
308.15781
307.16924
306.13883
305.11489
304.12489
303.21006
302.3843
301.65648
301.02805
300.49261
300.04159
299.67821
299.41616
299.23328
299.08961
298.91121
298.66152
298.28811
298.05772
297.93277
297.86956
297.83863
297.82731
297.82392
297.82743
297.85364
297.89233
297.95797
302.17415
292.56008
294.93057
293.83485
295.47415
295.77002
296.75306
297.60578
298.65092
299.81583
301.1321
302.59555
304.17262
305.79916
307.37619
308.78806
309.89682
310.54775
310.75682
310.57356
310.04531
309.25832
308.30129
307.25597
306.18947
305.13136
304.12741
303.20406
302.37323
301.64291
301.0134
300.47741
300.02631
299.66396
299.40522
299.2261
299.08654
298.89718
298.61071
298.24998
298.0409
297.92711
297.86875
297.84289
297.83596
297.83191
297.83972
297.86303
297.89838
297.95983
302.80972
293.1934
295.9399
294.98132
296.56485
296.95524
297.94643
298.85806
299.94975
301.16728
302.53128
304.0281
305.61099
307.20234
308.69764
309.97744
310.88616
311.325
311.35787
311.00621
310.34114
309.45007
308.41936
307.32583
306.22121
305.13892
304.12438
303.19344
302.35872
301.62689
300.99693
300.46083
300.0099
299.64876
299.39397
299.2188
299.08279
298.88104
298.55496
298.21594
298.02553
297.92267
297.87069
297.84969
297.84438
297.84015
297.8511
297.87177
297.90503
297.9617
303.45847
293.98466
297.00265
296.19241
297.7231
298.2061
299.21318
300.18417
301.32431
302.59204
303.99662
305.51329
307.08147
308.61352
310.00082
311.11514
311.80046
312.04585
311.89538
311.38452
310.59335
309.6091
308.51497
307.37978
306.23733
305.14024
304.11544
303.17869
302.3413
301.60874
300.97893
300.44309
299.9925
299.63269
299.3826
299.21152
299.07712
298.86226
298.49745
298.18536
298.01232
297.92017
297.87505
297.85705
297.85251
297.84916
297.85945
297.88077
297.91273
297.96499
304.09862
294.96417
298.12665
297.47368
298.95637
299.53204
300.56304
301.5914
302.77953
304.09104
305.52531
307.0435
308.57357
310.02021
311.27159
312.18331
312.64399
312.70272
312.37079
311.71085
310.80518
309.73924
308.59081
307.41258
306.24465
305.13492
304.10165
303.16049
302.32144
301.58886
300.95967
300.42441
299.9743
299.6158
299.37126
299.20488
299.06861
298.83711
298.44401
298.15898
298.00116
297.91895
297.87993
297.8647
297.86083
297.85852
297.86844
297.88964
297.91979
297.96903
304.70975
296.17368
299.32702
298.84179
300.27579
300.94537
302.00238
303.08535
304.31628
305.66293
307.11151
308.60889
310.07412
311.40613
312.48684
313.16918
313.4245
313.28797
312.78468
311.98761
310.97992
309.8438
308.64726
307.42925
306.24494
305.12343
304.08361
303.1394
302.29956
301.56755
300.93938
300.40497
299.95551
299.59816
299.35994
299.19942
299.05768
298.80003
298.40052
298.13676
297.99196
297.91835
297.88502
297.87253
297.86932
297.86719
297.87758
297.89718
297.92611
297.97265
305.34988
297.6476
300.63041
300.31203
301.69331
302.45153
303.53886
304.66674
305.93467
307.30381
308.74568
310.1964
311.56765
312.75457
313.6272
314.07533
314.13286
313.80318
313.13973
312.21864
311.12186
309.92587
308.68184
307.43658
306.23773
305.10688
304.06216
303.116
302.27612
301.54513
300.91828
300.38499
299.93637
299.57987
299.34835
299.19476
299.0454
298.75537
298.36233
298.11841
297.98562
297.91896
297.89002
297.88007
297.87778
297.87533
297.8867
297.90418
297.93159
297.97534
306.05297
299.08553
302.02749
301.88673
303.21125
304.06161
305.16427
306.33658
307.63198
309.00551
310.41557
311.78967
313.03442
314.04009
314.67693
314.90934