/*--------------------------------*- C++ -*----------------------------------*\
  =========                 |
  \\      /  F ield         | OpenFOAM: The Open Source CFD Toolbox
   \\    /   O peration     | Website:  https://openfoam.org
    \\  /    A nd           | Version:  8
     \\/     M anipulation  |
\*---------------------------------------------------------------------------*/
FoamFile
{
    version     2.0;
    format      ascii;
    class       volVectorField;
    location    "0.219989";
    object      U;
}
// * * * * * * * * * * * * * * * * * * * * * * * * * * * * * * * * * * * * * //

dimensions      [0 1 -1 0 0 0 0];

internalField   nonuniform List<vector> 
20000
(
(201.48776 -4.1643279e-17 -1.4422278)
(239.42064 3.0104145e-17 -1.2636495)
(264.49989 2.4596695e-17 -1.6933776)
(285.78212 2.1618918e-17 -1.9177945)
(304.29073 -3.6347912e-17 -2.4945713)
(316.35455 9.3945111e-19 -2.4113816)
(316.10212 2.5530921e-17 -3.145862)
(317.51813 -1.9887444e-17 -2.1414279)
(316.25327 -1.771933e-17 -3.4493647)
(316.79961 1.4699474e-17 -2.0645647)
(315.9751 -2.6100205e-17 -3.5117596)
(316.03045 4.0820781e-17 -2.2316814)
(315.3183 -1.4852987e-17 -3.461313)
(314.98476 2.4798483e-17 -2.5246381)
(314.23035 -2.352662e-17 -3.4166557)
(313.54597 4.9287127e-18 -2.868427)
(312.58424 0 -3.4595352)
(311.51153 3.3940495e-17 -3.2385559)
(310.1948 3.5279792e-20 -3.637073)
(308.65302 1.9243688e-19 -3.6452495)
(306.84745 7.8219415e-18 -3.946067)
(304.74911 1.3121001e-17 -4.0775041)
(302.3457 -2.0962327e-17 -4.3185274)
(299.57075 0 -4.5033844)
(296.36868 -2.2258012e-19 -4.7576036)
(292.78939 -2.3307755e-17 -4.935942)
(288.93841 3.7991628e-17 -5.0003235)
(284.93652 4.8123435e-19 -4.9258643)
(280.91412 2.4691841e-17 -4.7082417)
(277.02728 5.9481737e-17 -4.3517044)
(273.43115 3.2211553e-17 -3.892829)
(270.24024 2.5034083e-17 -3.3859518)
(267.52352 0 -2.8916753)
(265.29934 0 -2.4584829)
(263.55032 0 -2.1142312)
(262.23334 3.527028e-17 -1.8630035)
(261.30475 -2.6578147e-17 -1.6978953)
(260.68006 -8.013445e-17 -1.6250509)
(260.23621 2.9978571e-17 -1.6083249)
(259.98284 -2.2150733e-17 -1.5893428)
(259.90123 1.2808105e-19 -1.5516945)
(259.94527 0 -1.5036053)
(260.05841 1.7746154e-17 -1.4510364)
(260.27813 -1.1817038e-16 -1.3774635)
(260.56201 -3.7873337e-20 -1.245145)
(260.76058 1.4321224e-17 -1.0889669)
(261.03825 -1.0755942e-17 -0.89222485)
(261.56709 6.4982977e-17 -0.59524367)
(261.89764 -1.5258637e-21 -0.19110719)
(262.38327 -3.9405785e-17 0.64298884)
(203.9387 -1.6963526e-16 -2.2464563)
(242.02029 -1.24708e-20 -2.2310278)
(267.1879 -1.1955039e-20 -2.7516928)
(288.42172 4.2052583e-17 -3.0478687)
(306.65695 3.7000497e-17 -3.730593)
(317.72757 -6.2220856e-17 -3.5852136)
(316.98448 5.1893102e-17 -4.3914807)
(318.41039 -2.5580488e-17 -3.3041143)
(317.12925 -3.8256632e-17 -4.7156342)
(317.67961 -3.6733946e-20 -3.2479445)
(316.83564 2.3368235e-17 -4.7787775)
(316.88876 0 -3.4342712)
(316.15778 -1.9463553e-17 -4.7200942)
(315.81096 -1.8006441e-17 -3.743408)
(315.03578 2.3902872e-17 -4.6648045)
(314.3269 -4.9839108e-18 -4.0990553)
(313.33611 0 -4.7014921)
(312.22647 -6.8850262e-18 -4.4757186)
(310.87083 2.2897664e-17 -4.8715095)
(309.28694 -1.8869509e-17 -4.8710317)
(307.43738 7.8159974e-18 -5.1559316)
(305.28071 2.590902e-17 -5.2738036)
(302.77751 -2.1504961e-17 -5.5108573)
(299.8299 -1.7717905e-17 -5.6978367)
(296.46874 0 -5.9211514)
(292.81189 4.7211839e-17 -6.0425813)
(288.89846 -1.8503178e-20 -6.0351254)
(284.82687 -1.5512705e-17 -5.8707194)
(280.74546 -5.0362128e-17 -5.5468628)
(276.82795 -6.0547528e-17 -5.0713772)
(273.22846 -1.6252406e-17 -4.4899591)
(270.05562 -2.8447127e-20 -3.8649911)
(267.36891 -1.7688947e-16 -3.2631147)
(265.17819 0 -2.7367929)
(263.45865 0 -2.3153405)
(262.16671 0 -2.0017021)
(261.25725 -2.1468387e-16 -1.7879934)
(260.63034 2.2138895e-16 -1.6820242)
(260.17907 -2.2515739e-16 -1.6438661)
(259.94761 1.5587043e-16 -1.6060382)
(259.87725 -2.467657e-16 -1.5543829)
(259.92441 0 -1.4980209)
(260.03285 0 -1.4384523)
(260.26942 7.8720248e-17 -1.3603557)
(260.55891 3.867621e-17 -1.2310822)
(260.76776 -2.4330678e-16 -1.0759343)
(261.11061 0 -0.8695214)
(261.65837 -2.0069095e-16 -0.57200548)
(262.0172 -9.2090718e-17 -0.17447078)
(262.33629 1.1607935e-16 0.62733793)
(206.43326 -1.7263873e-16 -3.0868871)
(244.65555 -9.8882489e-19 -3.2421994)
(269.90795 5.1143197e-17 -3.8634699)
(291.09148 -1.3591556e-18 -4.2340415)
(308.95872 7.4112613e-17 -5.0371375)
(318.96697 -6.2278776e-17 -4.8233311)
(317.81264 0 -5.7089598)
(319.25144 2.7402239e-18 -4.5219561)
(317.94387 6.8505742e-18 -6.0314397)
(318.50115 0 -4.4714426)
(317.63384 3.1709752e-18 -6.080713)
(317.68392 -2.6341996e-17 -4.6712132)
(316.93296 8.7716449e-18 -6.0076058)
(316.57116 7.3126483e-18 -4.9958577)
(315.77414 0 -5.9421328)
(315.0386 0 -5.3651051)
(314.01828 1.685161e-17 -5.9750277)
(312.87264 -2.7886524e-17 -5.7460462)
(311.48123 0 -6.1331113)
(309.855 1.9214713e-17 -6.1232394)
(307.95155 4.6021984e-20 -6.3946933)
(305.70558 1.3182981e-17 -6.5120491)
(303.05956 0 -6.7555024)
(299.96985 5.3816929e-17 -6.9396301)
(296.50799 -1.4598323e-17 -7.1170296)
(292.76147 -4.8094417e-17 -7.1695514)
(288.75447 5.8666787e-17 -7.0849444)
(284.59853 1.5744357e-17 -6.825435)
(280.46342 -2.571043e-17 -6.387144)
(276.52452 2.0284075e-17 -5.7864129)
(272.93368 -1.2974278e-16 -5.0781999)
(269.79197 2.5597623e-17 -4.3333337)
(267.14839 1.591708e-16 -3.6241246)
(265.00333 -2.3051188e-16 -3.0062926)
(263.32477 1.1673809e-19 -2.5096158)
(262.06908 1.8005282e-17 -2.135492)
(261.18666 1.8923898e-16 -1.8762811)
(260.55689 -1.8229443e-16 -1.7391161)
(260.12086 2.564475e-16 -1.6773818)
(259.91482 -5.3662897e-16 -1.6206965)
(259.85693 2.3097685e-16 -1.5560534)
(259.90411 2.4278322e-17 -1.4918672)
(260.00997 2.6755406e-16 -1.4245452)
(260.26053 1.3104782e-17 -1.3410414)
(260.55234 -1.9270497e-17 -1.2145093)
(260.77663 2.4201652e-16 -1.0588724)
(261.15565 -3.3851866e-16 -0.84477939)
(261.66495 1.2697519e-16 -0.54799784)
(262.00454 9.0647381e-17 -0.15608062)
(262.32637 -7.2849516e-17 0.61196495)
(208.84206 0 -3.9631803)
(247.18989 -9.9125896e-19 -4.2798984)
(272.51858 0 -5.0053273)
(293.65608 1.389739e-18 -5.4487727)
(311.05105 2.3516886e-18 -6.3663845)
(320.04311 0 -6.0680962)
(318.56506 0 -7.0423982)
(320.01824 0 -5.7524978)
(318.68636 3.2492698e-17 -7.3672806)
(319.25065 4.034844e-20 -5.715429)
(318.36044 -2.5702827e-17 -7.4073261)
(318.407 -2.6785591e-17 -5.9333378)
(317.63547 8.0240645e-17 -7.3222749)
(317.25741 -4.4436245e-17 -6.2767444)
(316.43728 3.7069262e-17 -7.2481734)
(315.67434 1.8041277e-20 -6.66021)
(314.62575 -1.71169e-17 -7.2745237)
(313.44713 2.8354916e-17 -7.0396626)
(312.02019 2.3535619e-17 -7.4162103)
(310.34107 -1.9552653e-17 -7.4012201)
(308.35524 1.6244389e-17 -7.671026)
(305.97683 -9.3732836e-17 -7.8043588)
(303.18721 4.4162996e-17 -8.0503353)
(299.99642 -9.0817949e-17 -8.2064147)
(296.46212 3.0047268e-17 -8.3248379)
(292.61204 9.8079406e-17 -8.3096655)
(288.50145 -7.9223126e-17 -8.1455649)
(284.26744 -1.4493004e-16 -7.7835037)
(280.08741 -2.6082017e-17 -7.2246684)
(276.13965 2.0563608e-17 -6.4941435)
(272.57129 9.8284207e-17 -5.6567395)
(269.47412 2.5662554e-17 -4.7915129)
(266.88576 -2.0167251e-17 -3.9759273)
(264.79647 2.6381703e-16 -3.2682903)
(263.16743 2.3821625e-17 -2.6980896)
(261.95515 -5.4183967e-17 -2.2650904)
(261.10353 2.717646e-17 -1.9628584)
(260.47374 0 -1.7945923)
(260.05979 4.8523881e-16 -1.7084223)
(259.8806 -4.7362978e-20 -1.6336046)
(259.83654 4.9631435e-16 -1.5573962)
(259.8835 2.4312337e-17 -1.4858702)
(259.99012 3.0322247e-16 -1.4106729)
(260.24687 -4.3163716e-16 -1.321314)
(260.53955 0 -1.1970321)
(260.78403 -4.5298165e-16 -1.0400954)
(261.19013 3.3570423e-16 -0.82184812)
(261.69197 -2.5088503e-16 -0.52541639)
(262.04549 0 -0.1385769)
(262.32052 -1.4699154e-16 0.59559301)
(211.18457 0 -4.8742751)
(249.65267 2.0311937e-18 -5.3506269)
(275.05604 0 -6.1852119)
(296.15974 9.0482698e-17 -6.7058659)
(312.95387 -2.3574305e-18 -7.7340266)
(320.97758 -6.4376178e-17 -7.3396292)
(319.24767 0 -8.4112973)
(320.71434 4.5142521e-17 -7.0112271)
(319.35547 -4.2370679e-17 -8.7340517)
(319.92617 0 -6.9876413)
(319.01139 1.3043285e-17 -8.7627834)
(319.05305 -5.4365151e-17 -7.2235933)
(318.25993 3.6167537e-17 -8.6641659)
(317.86414 6.0291122e-17 -7.5867046)
(317.02039 -3.7593912e-17 -8.5807039)
(316.23016 -4.1719169e-17 -7.9810861)
(315.15454 0 -8.5943491)
(313.94141 5.768558e-17 -8.3541206)
(312.46738 -4.7793461e-17 -8.7254385)
(310.7088 -3.9660428e-17 -8.7194963)
(308.60026 -1.6503486e-17 -9.0033454)
(306.09239 1.3518933e-17 -9.1477911)
(303.20869 1.123e-16 -9.3702709)
(299.9461 3.6949707e-17 -9.4843742)
(296.31517 1.5053013e-17 -9.5484171)
(292.3439 -9.91545e-17 -9.4665416)
(288.1317 0 -9.2134306)
(283.82497 1.1421883e-16 -8.7406964)
(279.61071 1.3044793e-17 -8.0542393)
(275.66754 -2.1107711e-17 -7.1892264)
(272.13612 2.8280212e-16 -6.2204488)
(269.09739 2.0905624e-16 -5.2349123)
(266.57667 0 -4.3145935)
(264.55363 3.1433014e-17 -3.5195842)
(262.98322 3.8404825e-16 -2.878241)
(261.82188 -5.4604706e-17 -2.3886874)
(261.00483 2.73607e-17 -2.0465134)
(260.38115 -3.2794826e-16 -1.8478971)
(259.99481 -4.8736835e-16 -1.7362432)
(259.83942 3.6033278e-16 -1.6441722)
(259.81635 -1.0280156e-15 -1.5581563)
(259.86347 3.6509912e-16 -1.479783)
(259.97494 -6.0621737e-16 -1.3968456)
(260.22885 4.4388886e-16 -1.3010197)
(260.52209 0 -1.178563)
(260.78384 8.8654724e-16 -1.0197269)
(261.21374 3.4316259e-16 -0.7979207)
(261.75297 -2.4789577e-16 -0.502357)
(262.09815 0 -0.12253691)
(262.31078 1.4139397e-16 0.57790315)
(213.45635 1.8169916e-16 -5.8199665)
(252.02672 -2.0630743e-18 -6.4553249)
(277.4986 0 -7.4014178)
(298.59202 -2.8754014e-18 -7.9994823)
(314.64701 0 -9.1314319)
(321.77608 -6.547335e-17 -8.6335838)
(319.8505 5.5220774e-17 -9.8097741)
(321.33065 5.1543046e-17 -8.2934802)
(319.94369 -1.1956609e-16 -10.126788)
(320.52053 -8.9152123e-20 -8.2845171)
(319.58032 3.9717977e-17 -10.144088)
(319.61587 1.1018092e-17 -8.5396942)
(318.8006 0 -10.030846)
(318.38625 -1.5310509e-17 -8.9226018)
(317.51924 -2.5508744e-17 -9.9353849)
(316.70148 4.2334044e-17 -9.3231411)
(315.5947 -3.5195214e-17 -9.9330972)
(314.33291 -2.9285656e-17 -9.695273)
(312.78376 -2.4375118e-17 -10.074669)
(310.91522 2.0089212e-17 -10.095081)
(308.69468 -6.6759191e-17 -10.385321)
(306.10451 -5.521876e-17 -10.514285)
(303.1512 -9.1137028e-17 -10.701709)
(299.79218 0 -10.777781)
(296.04141 0 -10.789348)
(291.95298 0 -10.633793)
(287.64276 1.6412545e-16 -10.283412)
(283.27234 1.6694922e-17 -9.6914665)
(279.03626 1.3598824e-17 -8.8706041)
(275.11244 -3.8332235e-16 -7.8669068)
(271.63307 -5.2210395e-16 -6.7653214)
(268.66675 -1.8467581e-16 -5.6603165)
(266.22569 -2.0448962e-17 -4.6376207)
(264.27883 -3.1730008e-17 -3.7582356)
(262.77551 -7.2578871e-16 -3.048599)
(261.67139 -1.8296324e-17 -2.5052738)
(260.89124 -4.4136245e-16 -2.1262127)
(260.28189 3.2959125e-16 -1.8983957)
(259.92536 -3.0604538e-17 -1.760639)
(259.79647 2.2581566e-17 -1.6519765)
(259.79441 -5.9660854e-20 -1.5578673)
(259.84458 -3.6531534e-16 -1.4736244)
(259.96237 -5.8800556e-16 -1.3833634)
(260.20747 0 -1.280459)
(260.50203 6.0994537e-16 -1.1593383)
(260.78096 -4.4752783e-16 -0.99819719)
(261.24325 3.2968045e-16 -0.77166283)
(261.82445 4.8969758e-16 -0.47868586)
(262.15276 5.7417351e-18 -0.1092273)
(262.29534 2.764531e-16 0.55876138)
(215.6397 0 -6.7992069)
(254.29989 2.105357e-18 -7.5941948)
(279.83177 -1.1027494e-16 -8.6559748)
(300.94569 9.6678735e-17 -9.3332229)
(316.11835 0 -10.560089)
(322.44708 6.6522316e-17 -9.9494006)
(320.36938 -1.6124815e-16 -11.23652)
(321.86359 8.1305186e-17 -9.6006966)
(320.44685 9.7185561e-18 -11.546994)
(321.02962 0 -9.6069202)
(320.06292 1.344692e-17 -11.551387)
(320.09065 -1.1207707e-17 -9.8813078)
(319.253 0 -11.42022)
(318.81893 -6.2129514e-17 -10.280827)
(317.9276 2.5810088e-17 -11.308663)
(317.0766 2.1545139e-17 -10.687898)
(315.9234 5.3691516e-17 -11.301405)
(314.58424 0 -11.082072)
(312.94095 0 -11.480959)
(310.97969 4.0935455e-17 -11.514057)
(308.69311 8.4839394e-17 -11.7855)
(306.03739 -9.8230874e-17 -11.891415)
(302.99104 4.6270493e-17 -12.049177)
(299.5129 2.5512251e-19 -12.089779)
(295.63992 -1.5515347e-17 -12.043225)
(291.43466 0 -11.80698)
(287.03251 -1.6625173e-16 -11.349983)
(282.60885 -2.6960498e-16 -10.630144)
(278.36511 1.8940776e-16 -9.6682536)
(274.47647 3.6600476e-16 -8.5222398)
(271.06473 2.7247332e-16 -7.2871696)
(268.18477 0 -6.0643358)
(265.83507 0 -4.9423408)
(263.97389 0 -3.9821562)
(262.54579 3.9007987e-16 -3.207605)
(261.50436 0 -2.6138375)
(260.76215 4.1606238e-16 -2.2007798)
(260.17727 2.0679302e-17 -1.9454071)
(259.85506 -9.8287851e-16 -1.7815998)
(259.75187 1.4273495e-15 -1.6568485)
(259.76942 5.4907091e-16 -1.5560275)
(259.82649 0 -1.4672557)
(259.95251 5.6958227e-16 -1.3703379)
(260.19111 0 -1.2603388)
(260.48107 -2.7994032e-20 -1.1391399)
(260.77851 8.7526058e-16 -0.97528471)
(261.27966 -6.6389715e-16 -0.74329052)
(261.88403 1.5135033e-17 -0.45442326)
(262.19623 3.6161328e-16 -0.097841358)
(262.29396 7.6338288e-20 0.53836991)
(217.73444 1.8784922e-16 -7.8083109)
(256.46574 -1.3485619e-16 -8.7585937)
(282.04427 0 -9.9405813)
(303.21263 0 -10.696981)
(317.36124 -5.0210146e-18 -12.009251)
(322.99641 -8.4364562e-18 -11.280857)
(320.79562 -7.1204217e-18 -12.685919)
(322.30566 -5.8833946e-18 -10.928046)
(320.85709 -6.9035783e-17 -12.99101)
(321.44658 1.1464962e-16 -10.951506)
(320.45247 -8.192517e-17 -12.981075)
(320.4689 -2.2718114e-17 -11.246637)
(319.6109 -5.68643e-17 -12.830729)
(319.15338 6.3023176e-17 -11.660514)
(318.2304 0 -12.704063)
(317.32942 0 -12.087755)
(316.10856 -3.6323889e-17 -12.720622)
(314.68845 0 -12.525514)
(312.97362 0 -12.920744)
(310.95944 0 -12.945988)
(308.61242 0 -13.194895)
(305.86819 1.1385668e-16 -13.285631)
(302.70646 2.3639768e-17 -13.416585)
(299.10475 -1.9205142e-17 -13.416678)
(295.1057 0 -13.305908)
(290.78696 0 -12.980336)
(286.30053 0 -12.407201)
(281.83619 -1.7930168e-17 -11.550748)
(277.60046 2.3381829e-16 -10.441656)
(273.76375 0 -9.150434)
(270.43546 0 -7.7820792)
(267.65554 2.7100939e-17 -6.4439026)
(265.40834 -6.7102541e-16 -5.2263976)
(263.64182 -1.6066478e-17 -4.1895258)
(262.29653 7.8689013e-16 -3.3539492)
(261.3223 5.9502626e-16 -2.7136294)
(260.61788 0 -2.2690987)
(260.06874 -6.6575728e-16 -1.9880797)
(259.78593 9.8612094e-16 -1.7992111)
(259.70531 -7.4925111e-16 -1.6588973)
(259.74068 4.9978676e-17 -1.5523581)
(259.80833 -2.4363747e-17 -1.4602305)
(259.94688 1.1376496e-15 -1.3573237)
(260.18344 0 -1.2412489)
(260.45951 -6.044676e-16 -1.1183557)
(260.77607 -1.7662996e-15 -0.95079875)
(261.3189 0 -0.71305209)
(261.93235 4.7749697e-16 -0.42997733)
(262.21461 -3.5559443e-16 -0.086484725)
(262.32807 -2.6843881e-16 0.51643251)
(219.72404 3.8488213e-16 -8.8498938)
(258.51403 -2.8541736e-16 -9.9493652)
(284.12035 -2.287077e-16 -11.258718)
(305.37792 1.8789314e-16 -12.093747)
(318.37241 5.1092299e-18 -13.48042)
(323.42646 8.5810628e-18 -12.629277)
(321.11735 -7.2150685e-18 -14.157674)
(322.64861 1.0778691e-16 -12.274097)
(321.1633 -9.9006049e-18 -14.455805)
(321.76336 1.6738047e-17 -12.313848)
(320.73777 -4.1542713e-17 -14.428182)
(320.72907 2.3089927e-17 -12.634102)
(319.86324 1.9237206e-17 -14.26494)
(319.37272 3.205221e-17 -13.07073)
(318.40334 -2.6595879e-17 -14.139344)
(317.4429 0 -13.542506)
(316.16333 0 -14.1843)
(314.69032 0 -13.992559)
(312.93316 2.5534949e-17 -14.369283)
(310.86039 -4.219813e-17 -14.386569)
(308.42956 3.4955305e-17 -14.622506)
(305.57681 1.0135255e-16 -14.700451)
(302.29414 0 -14.800735)
(298.56296 -1.5733428e-16 -14.755147)
(294.43699 -2.4204377e-16 -14.572416)
(290.00864 1.348003e-17 -14.148118)
(285.44755 -3.6464245e-16 -13.448831)
(280.95683 1.6579633e-17 -12.447173)
(276.74622 -9.0316396e-16 -11.185294)
(272.97887 0 -9.7468485)
(269.74992 0 -8.2463581)
(267.08334 -2.7388653e-17 -6.7961912)
(264.9491 -1.1541233e-18 -5.4876541)
(263.28559 -5.3689413e-16 -4.3787044)
(262.03014 -7.6739613e-16 -3.4864791)
(261.12682 -6.1718156e-16 -2.8040614)
(260.45984 1.7817809e-15 -2.3302232)
(259.95691 4.1519337e-17 -2.0254106)
(259.70916 -1.5448141e-17 -1.8132942)
(259.65691 1.0151666e-19 -1.6583247)
(259.70805 0 -1.5466859)
(259.78939 2.4350556e-17 -1.4519279)
(259.94603 -1.1356631e-15 -1.3442036)
(260.1779 8.1344485e-16 -1.2231147)
(260.43683 1.87869e-17 -1.0971252)
(260.77553 8.632538e-16 -0.92440725)
(261.36186 -2.0017768e-17 -0.68153417)
(261.96533 4.8600628e-16 -0.40589089)
(262.21784 0 -0.072993887)
(262.35518 0 0.49333418)
(221.59999 -6.0626458e-18 -9.9280108)
(260.44553 4.4370667e-18 -11.166623)
(286.05509 2.3287487e-16 -12.610769)
(307.43025 -1.8482361e-16 -13.521958)
(319.15831 0 -14.971593)
(323.7425 0 -13.99356)
(321.31697 6.9892689e-21 -15.649197)
(322.89003 -9.7219906e-17 -13.6346)
(321.34986 9.1280209e-17 -15.936174)
(321.9751 -6.7532873e-17 -13.690852)
(320.89886 7.0309031e-17 -15.893209)
(320.89 2.3417635e-17 -14.046167)
(319.99582 0 -15.732457)
(319.46703 0 -14.530873)
(318.45464 5.4095961e-17 -15.619879)
(317.44959 4.501253e-17 -15.025817)
(316.13725 0 -15.658821)
(314.62488 -3.1206303e-17 -15.464601)
(312.81312 2.5730109e-17 -15.827684)
(310.65877 1.0725666e-16 -15.848255)
(308.12759 -3.5491329e-17 -16.071016)
(305.15982 -2.2028636e-16 -16.133491)
(301.74907 0 -16.198914)
(297.88497 1.5939701e-16 -16.100847)
(293.63205 2.7802231e-16 -15.837457)
(289.09987 -1.3257426e-17 -15.304121)
(284.47563 6.959073e-16 -14.468417)
(279.97464 1.6725395e-17 -13.313264)
(275.80744 4.0767799e-16 -11.893787)
(272.12734 -2.5520773e-19 -10.307108)
(269.01345 5.8330543e-16 -8.6766392)
(266.47293 4.1421423e-16 -7.1187042)
(264.46139 7.0427381e-16 -5.724265)
(262.90856 5.2419388e-16 -4.5482996)
(261.74918 -7.9846574e-16 -3.6042378)
(260.91955 6.2130729e-16 -2.8846328)
(260.29066 -1.7896682e-15 -2.3835339)
(259.84171 1.3211966e-15 -2.0566601)
(259.63609 -9.9222249e-16 -1.8235552)
(259.60621 -7.5213636e-16 -1.6551916)
(259.67159 1.6681614e-17 -1.5388644)
(259.76951 7.5455852e-16 -1.4417763)
(259.94555 1.7714325e-17 -1.3306186)
(260.172 -8.4914754e-16 -1.2061012)
(260.41137 1.8704236e-17 -1.0751729)
(260.77971 8.7036129e-16 -0.89576339)
(261.40893 0 -0.64960579)
(261.98596 -2.9444075e-19 -0.38248762)
(262.22887 0 -0.059580778)
(262.31231 5.1752447e-16 0.47137898)
(223.36882 -3.9108494e-16 -11.036718)
(262.26874 -8.5800273e-20 -12.415552)
(287.86054 -8.5226151e-20 -13.999923)
(309.36577 1.877823e-16 -14.983899)
(319.74035 0 -16.485989)
(323.96072 0 -15.377353)
(321.46231 2.2292331e-17 -17.164214)
(323.04133 -1.2320909e-17 -15.013027)
(321.47436 -1.0300185e-17 -17.43727)
(322.08189 0 -15.093233)
(320.99851 -1.4284499e-17 -17.394395)
(320.97109 -7.1376958e-17 -15.498411)
(320.02332 3.9567823e-17 -17.233267)
(319.46528 -3.2982956e-17 -16.017661)
(318.42744 -2.7401098e-17 -17.112451)
(317.39256 -6.8479179e-17 -16.515654)
(316.04398 -7.6009229e-17 -17.134904)
(314.47582 3.1681851e-17 -16.951276)
(312.58824 -2.6116082e-17 -17.308697)
(310.34141 -1.0880861e-16 -17.331141)
(307.70268 3.6034301e-17 -17.538897)
(304.61241 1.0431216e-16 -17.582442)
(301.06853 2.218655e-16 -17.607409)
(297.06863 -1.8239547e-16 -17.449169)
(292.69043 2.6638769e-16 -17.095325)
(288.06191 2.7355179e-17 -16.441925)
(283.38804 -7.2801224e-16 -15.45938)
(278.89458 -1.897244e-17 -14.142931)
(274.79002 -4.4330642e-16 -12.561981)
(271.21531 0 -10.827164)
(268.23185 -1.1429047e-15 -9.0699162)
(265.8294 4.1938914e-16 -7.4092919)
(263.94946 -6.4721071e-16 -5.9346871)
(262.51424 1.6616697e-17 -4.6971823)
(261.45611 1.58197e-15 -3.7064673)
(260.70176 -6.0546887e-16 -2.9548095)
(260.11353 9.0659842e-16 -2.4286578)
(259.7242 6.7382886e-16 -2.0813261)
(259.56125 9.9439445e-16 -1.8299637)
(259.55341 0 -1.6495931)
(259.63178 0 -1.5288171)
(259.74859 -8.0231739e-16 -1.4297009)
(259.94176 1.7672426e-17 -1.3161247)
(260.16708 0 -1.1905099)
(260.38046 0 -1.0519285)
(260.79191 -8.6387374e-16 -0.86459958)
(261.45945 0 -0.61749136)
(262.00102 -9.1865423e-16 -0.35913095)
(262.2425 0 -0.04951469)
(262.19094 -5.0656028e-16 0.45379696)
(225.05429 3.1265959e-18 -12.171719)
(264.00628 -2.9814506e-16 -13.68719)
(289.56318 2.4114159e-16 -15.418839)
(311.18351 6.3602667e-18 -16.468156)
(320.1471 0 -18.014493)
(324.09995 0 -16.774392)
(321.53691 9.0528217e-17 -18.704639)
(323.11164 -7.4962915e-17 -16.422354)
(321.52486 0 -18.983697)
(322.12937 -6.9557142e-17 -16.541684)
(321.01836 5.79174e-17 -18.931264)
(320.9768 0 -16.973893)
(319.98347 0 -18.742784)
(319.40459 6.69556e-17 -17.510974)
(318.34053 -2.7814182e-17 -18.603828)
(317.26454 -2.3124839e-17 -18.01544)
(315.86193 7.7111632e-17 -18.632293)
(314.22104 -3.1979536e-17 -18.461451)
(312.25053 -2.6506574e-17 -18.81064)
(309.90395 2.2186278e-17 -18.834506)
(307.1504 -1.4631713e-16 -19.02413)
(303.93182 -1.3626298e-16 -19.044161)
(300.25008 -4.2492874e-16 -19.02224)
(296.11282 1.6395464e-16 -18.795013)
(291.61253 -2.6976845e-16 -18.339961)
(286.89723 4.5562382e-16 -17.55485)
(282.18927 3.5749779e-16 -16.415088)
(277.72262 -2.7254092e-16 -14.930236)
(273.70068 4.4749771e-16 -13.185032)
(270.24949 0 -11.303356)
(267.41134 -1.5332682e-18 -9.4235944)
(265.15812 1.9415523e-18 -7.6661836)
(263.41778 -1.1837635e-18 -6.1177017)
(262.10634 -3.3339197e-17 -4.8245201)
(261.15328 -1.6427289e-15 -3.7926512)
(260.47404 1.2753256e-15 -3.0139647)
(259.93179 -1.3666006e-17 -2.4653673)
(259.60572 -2.7022582e-15 -2.0990724)
(259.48628 9.6553035e-16 -1.8324336)
(259.49905 4.5687265e-17 -1.6417489)
(259.58913 -1.0844638e-15 -1.5165144)
(259.72559 2.4272398e-17 -1.4154566)
(259.93816 -1.1627916e-15 -1.3010136)
(260.16522 1.6463593e-15 -1.1769097)
(260.35665 -1.8471215e-17 -1.0285418)
(260.81529 8.7026589e-16 -0.83090314)
(261.51035 1.9417171e-17 -0.58504175)
(262.01224 -1.4179085e-17 -0.33640116)
(262.2421 0 -0.044245905)
(262.08458 0 0.43722313)
(226.65976 8.0988267e-16 -13.341461)
(265.66209 -5.9205629e-16 -14.994285)
(291.17677 2.4533796e-16 -16.884054)
(312.8519 -2.0666407e-16 -17.989463)
(320.39339 3.4847009e-16 -19.579368)
(324.16571 -2.8237841e-16 -18.207888)
(321.54522 1.3758602e-16 -20.289534)
(323.13787 7.6179656e-17 -17.869507)
(321.50661 1.3313055e-19 -20.561909)
(322.12769 -7.044692e-17 -18.012701)
(320.97132 -5.889041e-17 -20.479843)
(320.92537 4.8889716e-17 -18.45857)
(319.88819 -4.0804413e-17 -20.251263)
(319.27778 -6.7990339e-17 -19.013648)
(318.17326 2.8187003e-17 -20.115325)
(317.04035 -4.7181405e-17 -19.54189)
(315.57472 3.9021683e-17 -20.152127)
(313.85595 6.5031909e-17 -19.994362)
(311.79515 -1.0817537e-16 -20.333477)
(309.34255 2.0206932e-16 -20.356272)
(306.46806 1.2995825e-16 -20.524065)
(303.1156 1.2275539e-16 -20.515217)
(299.29225 2.0261907e-16 -20.439009)
(295.01721 0 -20.132957)
(290.39987 2.9199048e-16 -19.565004)
(285.60944 -4.6055271e-16 -18.636073)
(280.8849 0 -17.32896)
(276.46566 5.6633536e-16 -15.669492)
(272.54682 -4.2557343e-16 -13.75848)
(269.23711 2.3330966e-19 -11.732473)
(266.55846 5.6500036e-16 -9.7355233)
(264.46463 -9.0830896e-16 -7.8880025)
(262.87095 7.0095624e-16 -6.2724181)
(261.68855 1.0737217e-15 -4.9297859)
(260.84287 8.1318041e-16 -3.8625519)
(260.23653 -1.2425268e-15 -3.0613367)
(259.74912 -1.8132026e-15 -2.4935643)
(259.48735 -5.1677992e-19 -2.1098464)
(259.41047 -9.9811759e-16 -1.8307676)
(259.44438 0 -1.6318807)
(259.54401 1.0670832e-15 -1.5020024)
(259.69833 0 -1.3984176)
(259.93711 1.141636e-15 -1.2852505)
(260.16887 -1.6642678e-15 -1.1647432)
(260.35897 1.1938825e-15 -1.0073295)
(260.85256 -8.5003824e-16 -0.79620687)
(261.55728 -1.2305363e-15 -0.55176128)
(262.01892 -8.9406744e-16 -0.31483015)
(262.22749 0 -0.04050407)
(262.05465 7.5305827e-18 0.41699835)
(228.18198 0 -14.539478)
(267.24182 0 -16.325319)
(292.71322 0 -18.387455)
(314.30103 0 -19.535165)
(320.50092 0 -21.172667)
(324.16617 1.4795539e-16 -19.65813)
(321.47616 1.5658059e-17 -21.888757)
(323.05933 -1.0288961e-16 -19.322157)
(321.41131 0 -22.139971)
(322.00142 0 -19.483988)
(320.84606 0 -22.030934)
(320.77552 -4.9735479e-17 -19.960146)
(319.71299 8.2654073e-17 -21.786441)
(319.05743 3.4392747e-17 -20.548014)
(317.90478 -1.6198208e-19 -21.65142)
(316.71096 4.7620879e-17 -21.093461)
(315.17769 7.9510927e-17 -21.694424)
(313.37563 -1.3221895e-16 -21.54886)
(311.21917 1.0959964e-16 -21.875136)
(308.65477 2.3333163e-17 -21.8941)
(305.65347 -1.8741562e-17 -22.035712)
(302.16217 0 -21.991793)
(298.19419 1.8056655e-16 -21.852966)
(293.78233 2.1021776e-17 -21.457195)
(289.05493 -2.6015222e-16 -20.763806)
(284.20324 1.4540345e-17 -19.678665)
(279.48149 -2.283466e-17 -18.194551)
(275.13142 0 -16.355345)
(271.33649 4.7367474e-16 -14.278331)
(268.1859 -7.5308493e-16 -12.111822)
(265.68003 1.8491411e-17 -10.004049)
(263.75457 9.3319438e-16 -8.0737851)
(262.31355 -2.2041202e-17 -6.3982768)
(261.26444 -1.0796402e-15 -5.0127475)
(260.52682 -1.6372597e-15 -3.9162198)
(259.98996 0 -3.0962078)
(259.5688 1.8052098e-15 -2.5131441)
(259.37007 1.3790963e-15 -2.1138362)
(259.33402 3.1238364e-17 -1.8248473)
(259.39013 -2.2861552e-17 -1.6200851)
(259.49754 3.3316211e-17 -1.4855362)
(259.67066 -1.547901e-15 -1.3791317)
(259.9377 -1.7511137e-17 -1.2680859)
(260.17687 0 -1.1522955)
(260.38846 1.8426676e-17 -0.98870451)
(260.90681 -1.3180243e-17 -0.76285154)
(261.60304 -1.855586e-17 -0.51863144)
(262.03274 1.7782244e-15 -0.29578199)
(262.21267 1.2745784e-15 -0.037125621)
(262.05248 -9.3456652e-16 0.39556306)
(229.63286 0 -15.768226)
(268.75795 -4.8154879e-18 -17.67868)
(294.199 -7.9296533e-18 -19.922825)
(315.6255 0 -21.088945)
(320.4909 1.686712e-16 -22.775287)
(324.08292 -1.4996324e-16 -21.108367)
(321.3194 -1.5729868e-17 -23.489615)
(322.93162 1.3050267e-17 -20.776644)
(321.22135 8.732407e-17 -23.730691)
(321.83327 1.4414411e-19 -20.975808)
(320.61817 -6.0464262e-17 -23.605215)
(320.49416 5.0464916e-17 -21.496191)
(319.43408 -4.1834053e-17 -23.35178)
(318.73236 7.0137187e-17 -22.111432)
(317.53034 2.9329281e-17 -23.209995)
(316.27251 -4.8320085e-17 -22.668437)
(314.66788 -4.0107876e-17 -23.25689)
(312.77819 2.3478987e-16 -23.122795)
(310.52061 0 -23.433539)
(307.83886 -1.8457724e-16 -23.445311)
(304.70519 0 -23.55584)
(301.07053 0 -23.469842)
(296.95578 -2.3519037e-16 -23.259067)
(292.40955 2.1341464e-17 -22.76163)
(287.58117 0 -21.929507)
(282.68436 0 -20.675691)
(277.98658 0 -19.005636)
(273.72838 -1.8915062e-17 -16.982849)
(270.07841 4.9641643e-16 -14.741111)
(267.10406 7.5901921e-16 -12.439271)
(264.78302 -1.8674014e-17 -10.228028)
(263.03347 -9.1040778e-16 -8.2229691)
(261.75002 6.6866366e-16 -6.4950303)
(260.83723 3.3921305e-17 -5.073421)
(260.20681 1.6443294e-15 -3.9538584)
(259.73763 -1.2351959e-15 -3.1183774)
(259.3925 -9.1954651e-16 -2.5238164)
(259.25496 0 -2.1114448)
(259.25738 0 -1.8147128)
(259.33513 -1.440347e-15 -1.6059709)
(259.452 -4.991111e-17 -1.4670763)
(259.64921 1.5681943e-15 -1.3586814)
(259.93796 0 -1.2490565)
(260.18168 0 -1.1371298)
(260.42587 -1.1417844e-15 -0.96971637)
(260.98065 -1.3068956e-17 -0.73235003)
(261.66389 2.408403e-15 -0.48801184)
(262.06394 -8.8383541e-16 -0.27978016)
(262.20993 -2.5161378e-15 -0.035279244)
(262.04881 -1.994018e-19 0.37395384)
(230.97816 0 -17.032125)
(270.16901 3.1805663e-16 -19.062898)
(295.59324 -2.5780127e-16 -21.50455)
(316.7729 0 -22.667387)
(320.35056 2.0556107e-16 -24.403078)
(323.85145 -1.7115247e-16 -22.581375)
(321.05548 0 -25.127911)
(322.7002 2.6487365e-17 -22.264026)
(320.93595 -2.2131004e-17 -25.353363)
(321.55015 0 -22.493915)
(320.29179 3.0765523e-17 -25.19892)
(320.1566 -5.1045433e-17 -23.055558)
(319.05066 0 -24.934137)
(318.30241 -7.0922402e-17 -23.697515)
(317.04938 5.9241276e-17 -24.787258)
(315.72447 -4.9027336e-17 -24.26416)
(314.0444 4.1060818e-17 -24.837727)
(312.0624 -3.3520267e-17 -24.714137)
(309.69833 0 -25.0064)
(306.89371 1.6439606e-16 -25.007121)
(303.62228 1.9310463e-17 -25.081026)
(299.84017 2.5798988e-16 -24.945051)
(295.57747 1.8628783e-16 -24.651945)
(290.90102 2.1666368e-17 -24.039838)
(285.98301 0 -23.055058)
(281.05949 -4.987327e-16 -21.620257)
(276.40855 4.2757936e-16 -19.756297)
(272.26582 5.9251583e-16 -17.547556)
(268.78193 -4.8538459e-16 -15.14396)
(266.00005 7.7005999e-16 -12.71331)
(263.87427 -1.8852152e-17 -10.406847)
(262.30662 -9.2030567e-16 -8.3353904)
(261.18451 -7.172163e-16 -6.5627421)
(260.40968 3.4217026e-17 -5.1120426)
(259.88415 1.6283528e-15 -3.9755508)
(259.48452 1.2389552e-15 -3.1282093)
(259.2212 0 -2.5254333)
(259.14297 0 -2.1030689)
(259.18073 0 -1.8005673)
(259.27746 -2.6686163e-19 -1.5889079)
(259.40887 0 -1.4464004)
(259.63204 2.4049969e-17 -1.3366199)
(259.93606 -2.2229504e-15 -1.2283398)
(260.18244 -1.2515165e-17 -1.1192767)
(260.46886 0 -0.94951563)
(261.07427 2.5839738e-17 -0.70363946)
(261.74588 -1.2281964e-15 -0.46178601)
(262.10203 -1.6897201e-15 -0.26680245)
(262.21047 1.2320154e-15 -0.03456015)
(262.04101 9.0278409e-16 0.35227409)
(232.20132 0 -18.320887)
(271.46303 0 -20.462939)
(296.88798 8.1853893e-18 -23.119872)
(317.73358 1.3668916e-17 -24.252636)
(320.08493 -1.8550226e-16 -26.046053)
(323.5331 1.6392541e-16 -24.065763)
(320.70401 0 -26.788945)
(322.37308 3.0882558e-20 -23.772434)
(320.56703 -6.7406409e-17 -26.99807)
(321.17343 -1.6274522e-19 -24.036988)
(319.87886 9.3322482e-17 -26.815148)
(319.70992 0 -24.63674)
(318.56807 -4.8331914e-20 -26.530724)
(317.76989 -3.6166105e-17 -25.304284)
(316.46274 0 -26.382099)
(315.06676 0 -25.879294)
(313.30684 4.1677456e-17 -26.435313)
(311.2277 -3.3959542e-17 -26.32085)
(308.75165 0 -26.591416)
(305.81861 -1.9015648e-16 -26.576626)
(302.40418 1.9869904e-17 -26.607696)
(298.47099 -1.4943976e-17 -26.412875)
(294.0603 -2.1526771e-16 -26.025934)
(289.25966 0 -25.285115)
(284.26581 -2.9210432e-16 -24.133296)
(279.33623 4.7353582e-16 -22.505607)
(274.75663 -4.0770516e-16 -20.440991)
(270.75383 -1.2167398e-15 -18.045593)
(267.4569 -9.8647921e-16 -15.484683)
(264.88218 -7.7559662e-16 -12.933033)
(262.96018 -1.2168469e-15 -10.54036)
(261.57902 9.9930555e-16 -8.4112523)
(260.62096 -6.7706541e-17 -6.6017932)
(259.98411 2.2536198e-15 -5.1290594)
(259.56005 -1.6599976e-15 -3.981275)
(259.23572 -1.9419173e-17 -3.1263047)
(259.0562 1.8783297e-15 -2.5181894)
(259.03418 -4.2647141e-17 -2.0890337)