/*--------------------------------*- C++ -*----------------------------------*\
  =========                 |
  \\      /  F ield         | OpenFOAM: The Open Source CFD Toolbox
   \\    /   O peration     | Website:  https://openfoam.org
    \\  /    A nd           | Version:  8
     \\/     M anipulation  |
\*---------------------------------------------------------------------------*/
FoamFile
{
    version     2.0;
    format      ascii;
    class       volVectorField;
    location    "0.219989";
    object      wallShearStress;
}
// * * * * * * * * * * * * * * * * * * * * * * * * * * * * * * * * * * * * * //

dimensions      [1 -1 -2 0 0 0 0];

internalField   uniform (0 0 0);

boundaryField
{
    aerofoil
    {
        type            calculated;
        value           nonuniform List<vector> 
300
(
(-130.248 2.6922253e-17 1.178175)
(-132.8696 1.1052991e-16 1.7108683)
(-135.66659 1.1346293e-16 2.2777908)
(-138.38478 1.2037062e-35 2.8784863)
(-141.0807 -5.8241042e-21 3.5132693)
(-143.72169 -1.2234855e-16 4.1803065)
(-146.31262 2.4346036e-22 4.8803552)
(-148.83479 -1.2845158e-16 5.610307)
(-151.2858 -2.650263e-16 6.3733819)
(-153.644 4.2039083e-18 7.1721139)
(-155.91905 2.7294027e-16 8.0015723)
(-158.12118 -2.2379848e-18 8.8596764)
(-160.26463 -5.7272488e-16 9.7513378)
(-162.33601 5.6274574e-20 10.674006)
(-164.35166 7.4455782e-22 11.629007)
(-166.28409 -7.6388929e-20 12.618826)
(-168.10187 6.5754735e-20 13.636239)
(-169.82123 6.1313816e-20 14.687151)
(-171.45533 -3.2578688e-16 15.770301)
(-173.03065 -3.8518599e-33 16.890799)
(-174.55153 5.2305597e-18 18.050575)
(-176.02556 -5.1127562e-18 19.250514)
(-177.47711 5.8626355e-18 20.496241)
(-178.90923 -5.6249893e-18 21.785287)
(-180.33593 -3.6761352e-16 23.128364)
(-181.72603 5.1857693e-21 24.518299)
(-183.09054 3.8222241e-16 25.961388)
(-184.42865 -1.2206741e-17 27.463181)
(-185.72577 4.0926286e-16 29.022378)
(-186.98221 -5.914587e-22 30.651482)
(-188.17101 -4.1208844e-16 32.362145)
(-189.29948 3.8518599e-34 34.159428)
(-190.35213 4.2737897e-16 36.030974)
(-191.35526 -7.4148303e-33 37.963263)
(-192.3453 4.4335178e-16 39.992597)
(-193.30974 -1.2580896e-17 42.103285)
(-194.26954 1.4326159e-17 44.294037)
(-195.15258 4.6776387e-16 46.559758)
(-195.93876 -1.4604111e-18 48.904946)
(-196.59194 1.190253e-18 51.327072)
(-197.07025 -1.7150892e-17 53.820898)
(-197.33832 3.1290188e-17 56.387281)
(-197.35247 -2.0391927e-17 59.033774)
(-197.08769 1.6120378e-17 61.760054)
(-196.49472 -1.6242629e-17 64.557117)
(-195.58819 4.007084e-18 67.439567)
(-194.32363 -2.3233196e-17 70.399064)
(-192.69046 1.4233636e-17 73.445204)
(-190.66163 5.5292197e-16 76.573857)
(-188.20887 -5.6590146e-16 79.78119)
(-185.32223 -5.9273501e-16 83.075755)
(-181.98061 1.6447182e-17 86.45027)
(-178.15596 5.7958342e-16 89.888359)
(-173.85929 -5.7307724e-16 93.373337)
(-169.1136 5.8739888e-16 96.861942)
(-163.96027 6.4210858e-16 100.27539)
(-158.49386 1.9949486e-17 103.53692)
(-152.75652 -2.6548843e-17 106.58068)
(-146.53537 2.046011e-17 109.32573)
(-139.68339 -4.1796817e-17 111.62062)
(-132.07515 3.1724532e-17 113.30172)
(-123.64273 2.1624139e-17 114.23203)
(-114.32768 -1.3902681e-15 114.21663)
(-104.13774 -7.2667616e-16 113.01098)
(-93.0205 6.9821871e-16 110.33235)
(-80.957641 1.1049071e-17 105.93878)
(-68.169728 -1.1413155e-17 99.333981)
(-54.976272 7.2211386e-16 90.047428)
(-41.926856 3.5866941e-16 77.923649)
(-29.298014 -3.4540289e-16 62.847562)
(-17.398405 -5.414634e-18 45.252671)
(-8.8539503 3.674637e-20 26.16942)
(-3.9419347 -1.3108421e-16 10.922885)
(-1.3906212 9.2109216e-17 1.9050711)
(-1.1065996 -2.2643938e-17 -2.0654004)
(0.34205611 -1.732648e-16 -0.37431181)
(-0.89464633 1.2325392e-22 -0.11621313)
(-0.8806066 -2.4331283e-23 -0.1264325)
(-1.3559825 -4.5077885e-16 -0.18781505)
(-1.7886606 -1.6473172e-28 -0.24244207)
(-2.390866 2.6006971e-16 -0.31827014)
(-3.0482644 -2.7767416e-16 -0.39918078)
(-3.7912476 -2.2131996e-28 -0.48912849)
(-4.6013024 1.4845184e-22 -0.58530912)
(-5.4799016 -3.8259097e-21 -0.68808131)
(-6.4217681 3.3659129e-20 -0.79675079)
(-7.4241152 -2.4645383e-20 -0.90852914)
(-8.4930253 3.7333766e-16 -1.0234761)
(-9.6195768 3.8777267e-16 -1.1437652)
(-10.786039 -3.8216536e-22 -1.2674061)
(-11.987973 -4.1452919e-16 -1.3921257)
(-13.223449 -3.5554973e-20 -1.5174955)
(-14.487725 4.3882874e-16 -1.642783)
(-15.775185 -3.6015879e-20 -1.7675535)
(-17.080603 3.6316156e-20 -1.8910002)
(-18.399527 -1.102026e-39 -2.0127615)
(-19.733698 4.5797375e-22 -2.132479)
(-21.086811 4.9059422e-16 -2.2507963)
(-22.462315 4.9969357e-16 -2.3676436)
(-23.857159 5.0856556e-16 -2.4830998)
(-25.272765 -4.9412127e-22 -2.5966321)
(-26.704308 3.1578222e-26 -2.7083696)
(-28.148703 -5.3356322e-16 -2.8173012)
(-29.600694 -3.3739979e-22 -2.9233898)
(-31.065107 2.612233e-22 -3.0261754)
(-32.545167 3.8403844e-20 -3.1260767)
(-34.050609 2.6812758e-22 -3.2243823)
(-35.585957 -2.7243096e-22 -3.3204607)
(-37.142525 -1.154628e-15 -3.4137795)
(-38.719246 -3.9450826e-20 -3.5041249)
(-40.313973 2.1287473e-21 -3.5912645)
(-41.925473 -9.0099644e-33 -3.6746278)
(-43.552861 3.5296675e-26 -3.7538847)
(-45.200947 -2.7473773e-26 -3.8289222)
(-46.877644 -3.0796001e-16 -3.9003772)
(-48.589947 -6.2202642e-16 -3.9682039)
(-50.331646 3.1403407e-16 -4.0315981)
(-52.101042 -3.1699365e-16 -4.0901351)
(-53.896881 3.1991698e-16 -4.1438022)
(-55.714096 -1.860955e-20 -4.1912264)
(-57.548378 -3.2562223e-16 -4.2320939)
(-59.409957 -3.2845076e-16 -4.2661246)
(-61.309255 3.3125447e-16 -4.2932223)
(-63.253797 1.8574528e-20 -4.3140314)
(-65.241684 -3.3674615e-16 -4.3281513)
(-67.268292 3.3946555e-16 -4.3337641)
(-69.324925 1.2564429e-20 -4.3293485)
(-71.407676 -6.8996988e-16 -4.3155246)
(-73.519613 3.4778062e-16 -4.2904641)
(-75.656737 -3.5070424e-16 -4.2530695)
(-77.818032 -3.5376327e-16 -4.2031385)
(-80.009855 3.5691949e-16 -4.1412326)
(-82.247149 -8.5674748e-23 -4.0672068)
(-84.540922 -3.6264605e-16 -3.979734)
(-86.881703 1.7370474e-22 -3.8771945)
(-89.254281 2.8940743e-20 -3.7564295)
(-91.646163 -1.847836e-16 -3.6175386)
(-94.062958 -1.8587399e-16 -3.4583205)
(-96.51412 1.8694141e-16 -3.2779723)
(-99.020322 -2.0984235e-20 -3.0760851)
(-101.57805 3.6380543e-21 -2.8505558)
(-104.18152 1.9016166e-16 -2.6006299)
(-106.83295 2.1853388e-21 -2.3233411)
(-109.54207 -3.6754088e-22 -2.0199819)
(-112.32535 -7.3572545e-22 -1.6896375)
(-115.18642 9.7182691e-17 -1.3392109)
(-118.10681 4.8839114e-17 -0.94199781)
(-121.07326 -4.9111592e-17 -0.46119327)
(-124.07481 2.4687472e-17 0.042620835)
(-127.2062 -6.2057631e-18 0.60131144)
(-161.17826 6.8011716e-22 0.12474696)
(-160.84586 -3.1963118e-24 -0.56499298)
(-160.5303 -7.005207e-19 -1.2631858)
(-160.22411 7.2851352e-19 -1.8820868)
(-159.96345 4.7743799e-17 -2.5310816)
(-159.72338 9.764632e-17 -3.1947855)
(-159.50884 -1.9965423e-16 -3.8697401)
(-159.32037 1.0205632e-16 -4.5549101)
(-159.16185 -7.071774e-35 -5.2510446)
(-159.03471 1.0823176e-16 -5.9606611)
(-158.9294 -1.6420266e-18 -6.6891177)
(-158.83717 -2.2226048e-16 -7.4319369)
(-158.76639 -2.3065602e-16 -8.1891582)
(-158.70366 3.53229e-18 -8.9564672)
(-158.67225 -2.3644528e-16 -9.7395918)
(-158.6683 -3.6901873e-18 -10.540189)
(-158.67205 3.8370153e-18 -11.354244)
(-158.69422 -2.5524516e-16 -12.185978)
(-158.71868 -1.9395693e-19 -13.031693)
(-158.75978 -2.1550934e-20 -13.896707)
(-158.81514 4.1572514e-18 -14.782842)
(-158.88047 -2.6792237e-16 -15.689859)
(-158.96486 -2.8192818e-16 -16.620552)
(-159.04734 -9.5141402e-20 -17.568952)
(-159.13988 -2.885149e-16 -18.544516)
(-159.22568 -4.6113354e-18 -19.542622)
(-159.33293 4.6707309e-18 -20.569755)
(-159.46276 -6.1140441e-16 -21.629316)
(-159.58862 -6.2324076e-16 -22.715338)
(-159.71565 3.1756652e-16 -23.835518)
(-159.83831 3.2382264e-16 -24.99244)
(-159.95033 -6.3555688e-33 -26.186665)
(-160.02831 7.3185338e-33 -27.414257)
(-160.06341 3.427426e-16 -28.678988)
(-160.07365 3.4939774e-16 -29.993013)
(-160.07344 -5.4365753e-19 -31.361994)
(-160.0734 2.5513545e-19 -32.788722)
(-160.10048 2.3111159e-33 -34.282868)
(-160.16389 -7.5500264e-16 -35.85822)
(-160.26566 3.9661023e-16 -37.521155)
(-160.3875 -4.0436397e-16 -39.27255)
(-160.5792 4.0110594e-16 -41.136902)
(-160.78284 8.2014524e-16 -43.11868)
(-160.97966 1.3119452e-17 -45.216988)
(-161.09189 -1.3267855e-17 -47.414607)
(-161.12071 3.0814879e-33 -49.743534)
(-160.99636 -4.4084246e-16 -52.208799)
(-160.74696 9.0353935e-16 -54.841783)
(-160.33128 9.1055074e-16 -57.645193)
(-159.74909 -4.5545042e-16 -60.609458)
(-158.98405 4.7934392e-16 -63.738258)
(-157.89468 1.613805e-17 -67.023855)
(-156.33254 4.9447748e-16 -70.461497)
(-154.1774 -2.7609991e-17 -74.064059)
(-151.30408 -4.9411171e-16 -77.849896)
(-147.64566 4.9125586e-16 -81.909058)
(-143.18943 1.6518859e-17 -86.345559)
(-138.00185 1.0615921e-17 -91.287432)
(-132.30747 -1.7102856e-17 -96.858104)
(-126.64807 1.9836574e-17 -102.74346)
(-122.33161 5.9944674e-16 -108.9525)
(-118.93901 5.5766909e-16 -115.34928)
(-115.40339 1.6948184e-32 -121.40003)
(-110.59885 1.2293685e-15 -126.54545)
(-104.07305 -9.5674159e-20 -130.33949)
(-95.871973 2.5115559e-17 -132.34103)
(-85.72103 5.2963073e-34 -131.87542)
(-73.663387 -3.3703774e-34 -128.19809)
(-60.217125 -9.1258318e-18 -120.72208)
(-46.166145 7.725317e-19 -109.0414)
(-32.471569 7.0514073e-16 -92.96237)
(-20.107991 -6.9260478e-16 -73.1201)
(-10.664434 -1.7301894e-16 -50.71395)
(-5.1539098 -1.5017752e-16 -27.465796)
(-2.30303 3.3280977e-17 -11.567989)
(-198.86114 1.2710033e-37 28.712409)
(-198.33213 -2.7002211e-22 29.244526)
(-200.50982 1.7616681e-19 29.218469)
(-201.89968 0 29.075503)
(-202.11266 1.1327796e-15 28.774078)
(-201.85567 -1.1289881e-15 28.404246)
(-201.13351 -1.4152577e-19 27.978049)
(-200.16159 1.1198154e-15 27.524417)
(-199.02922 3.7615819e-37 27.056805)
(-197.761 1.1121159e-15 26.583836)
(-196.35768 1.6301521e-19 26.102587)
(-194.80064 -1.1071435e-15 25.610699)
(-193.04223 1.1052205e-15 25.105349)
(-191.03274 -1.1026937e-15 24.578982)
(-188.75641 -1.2106183e-25 24.025478)
(-186.30868 5.1934368e-22 23.459273)
(-183.84018 1.084237e-15 22.90073)
(-181.36225 -1.0774558e-15 22.347805)
(-178.88371 -1.070543e-15 21.803306)
(-176.41714 -1.0634553e-15 21.266337)
(-173.96757 -1.0057467e-21 20.73922)
(-171.53165 1.0024427e-21 20.219776)
(-169.09997 1.0419926e-15 19.710376)
(-166.68568 -1.2038117e-19 19.206886)
(-164.27798 4.9094641e-22 18.709013)
(-161.8785 0 18.218171)
(-159.48366 -1.6692709e-20 17.735773)
(-157.09582 -9.6168493e-22 17.258567)
(-154.70321 -7.3468397e-40 16.787186)
(-152.31339 1.9851869e-15 16.32142)
(-149.94271 9.3986425e-20 15.864305)
(-147.60479 9.7820091e-16 15.418452)
(-145.26788 9.7075188e-16 14.975686)
(-142.90942 9.6296914e-16 14.535384)
(-140.57895 -7.6352343e-20 14.102642)
(-138.29653 -2.3200502e-20 13.679108)
(-136.03251 -4.8148249e-33 13.260267)
(-133.79082 9.3212919e-16 12.846962)
(-131.56726 1.7631916e-21 12.43812)
(-129.34789 -1.4154029e-20 12.033921)
(-127.11011 9.084513e-16 11.631369)
(-124.82382 9.003224e-16 11.22833)
(-122.45585 4.4604109e-16 10.823019)
(-119.98336 -4.4186582e-16 10.415581)
(-117.39656 -4.3756024e-16 10.005927)
(-114.74015 -8.66092e-16 9.5984277)
(-112.11817 2.8460614e-21 9.1980878)
(-109.68149 4.2379618e-16 8.8081686)
(-107.43208 4.1931776e-16 8.4229067)
(-104.95756 -5.7136568e-21 8.0274366)
(-101.6454 -4.0978967e-16 7.5864231)
(-97.348731 7.1341431e-20 7.0793606)
(-91.757797 -9.3788016e-20 6.5121582)
(-84.044988 3.8821971e-16 5.8555272)
(-74.412344 3.467574e-20 5.1318632)
(-64.613395 -3.6095123e-16 4.392205)
(-56.428137 3.4567178e-16 3.7642085)
(-51.890212 6.6674291e-26 3.3345833)
(-56.636412 -3.3451295e-16 3.3796001)
(-75.050373 3.3978817e-16 3.9488412)
(-101.83267 -6.9074263e-16 4.9522209)
(-128.68795 -1.2667788e-21 5.9612742)
(-147.72844 -1.5444751e-20 6.5660116)
(-157.72193 -1.6800166e-16 6.695434)
(-162.15351 2.0325674e-20 6.4780127)
(-163.85378 1.6592504e-16 6.0860055)
(-164.33545 1.6538482e-16 5.6079996)
(-164.29875 1.6502967e-16 5.0870151)
(-164.09211 1.6462363e-16 4.539692)
(-163.85046 -6.2732535e-22 3.9793654)
(-163.50516 -1.1456586e-24 3.4051051)
(-163.12492 -8.1852785e-17 2.8292046)
(-162.72749 -8.8975667e-21 2.2224691)
(-162.29829 2.5818016e-20 1.5337414)
(-161.69925 -4.0764423e-17 0.81323628)
)
;
    }
    inlet
    {
        type            calculated;
        value           uniform (0 0 0);
    }
    outlet
    {
        type            calculated;
        value           uniform (0 0 0);
    }
    back
    {
        type            empty;
    }
    front
    {
        type            empty;
    }
}


// ************************************************************************* //
