/*--------------------------------*- C++ -*----------------------------------*\
  =========                 |
  \\      /  F ield         | OpenFOAM: The Open Source CFD Toolbox
   \\    /   O peration     | Website:  https://openfoam.org
    \\  /    A nd           | Version:  8
     \\/     M anipulation  |
\*---------------------------------------------------------------------------*/
FoamFile
{
    version     2.0;
    format      ascii;
    class       volScalarField;
    location    "0.219989";
    object      yPlus;
}
// * * * * * * * * * * * * * * * * * * * * * * * * * * * * * * * * * * * * * //

dimensions      [0 0 0 0 0 0 0];

internalField   uniform 0;

boundaryField
{
    aerofoil
    {
        type            calculated;
        value           nonuniform List<scalar> 
300
(
129.4596
129.65603
129.93474
130.18233
130.44992
130.70351
130.96602
131.21957
131.47481
131.71929
131.96123
132.19522
132.43711
132.6727
132.91138
133.15596
133.3859
133.61126
133.83433
134.06913
134.31952
134.58464
134.88006
135.19716
135.55415
135.92969
136.32671
136.75055
137.18826
137.64336
138.10728
138.58815
139.07387
139.56478
140.08851
140.64143
141.2282
141.81876
142.4097
142.9901
143.54176
144.05416
144.5086
144.91766
145.24211
145.51357
145.70596
145.83024
145.88829
145.87059
145.78654
145.65086
145.4627
145.23856
145.0038
144.77773
144.59009
144.50605
144.42026
144.2997
144.03581
143.59642
142.91123
141.87571
140.3045
137.98588
134.5737
129.48149
122.11281
111.35796
95.808527
73.959984
48.516365
21.136419
20.912572
8.4352454
12.182908
12.0481
14.937631
17.131576
19.78245
22.307334
24.844355
27.332523
29.785392
32.197423
34.568522
36.918265
39.231535
41.480316
43.665081
45.791071
47.858141
49.864298
51.808885
53.691505
55.521076
57.306879
59.058064
60.772588
62.456168
64.104539
65.717904
67.291471
68.834026
70.349886
71.850252
73.341537
74.81549
76.271419
77.708387
79.125819
80.524564
81.908483
83.283888
84.657516
86.024839
87.383508
88.733433
90.070944
91.392729
92.706066
94.018913
95.336202
96.657272
97.976671
99.289829
100.59248
101.88889
103.17352
104.44498
105.70898
106.97813
108.25695
109.53892
110.81368
112.07321
113.32062
114.56143
115.80739
117.05906
118.30958
119.56355
120.82259
122.09527
123.3847
124.68312
125.98389
127.28457
128.59426
127.36071
126.48291
125.69875
124.94715
124.25403
123.60585
123.00317
122.44348
121.92667
121.45517
121.0245
120.6289
120.27518
119.94912
119.66208
119.41451
119.19375
119.00834
118.84466
118.70945
118.60223
118.51808
118.4678
118.43259
118.42677
118.43538
118.46715
118.53066
118.60751
118.7042
118.81686
118.94592
119.08112
119.2162
119.36077
119.52445
119.70835
119.92345
120.17794
120.48295
120.82036
121.21663
121.6495
122.13377
122.61761
123.1242
123.61582
124.12015
124.63147
125.15299
125.6882
126.20045
126.64233
126.98745
127.22098
127.37325
127.4847
127.68582
128.14208
129.0501
130.90835
133.63882
136.8302
139.96893
142.75071
145.08826
146.62249
146.79183
145.09185
140.80042
132.85093
120.19744
101.71131
75.558779
49.097921
175.03073
176.68817
176.71953
176.84468
176.36564
175.79966
175.04497
174.22336
173.35649
172.45451
171.51318
170.5258
169.46725
168.31359
167.05739
165.73328
164.40293
163.0727
161.74318
160.422
159.10924
157.80433
156.49797
155.20025
153.9018
152.60643
151.30839
150.01241
148.70948
147.40731
146.11246
144.82729
143.53927
142.23553
140.94077
139.66304
138.38723
137.11582
135.84874
134.58028
133.29967
131.99233
130.63916
129.2279
127.74286
126.19929
124.6276
123.09886
121.63876
120.10834
118.16178
115.63521
112.4406
107.93494
101.90971
95.067333
88.78649
84.614394
86.745217
96.676372
108.07767
117.34556
123.22913
126.02139
127.23222
127.6668
127.7955
127.79127
127.75782
127.76877
127.76765
127.77402
127.78803
127.7974
127.79477
)
;
    }
    inlet
    {
        type            calculated;
        value           uniform 0;
    }
    outlet
    {
        type            calculated;
        value           uniform 0;
    }
    back
    {
        type            empty;
    }
    front
    {
        type            empty;
    }
}


// ************************************************************************* //
