/*--------------------------------*- C++ -*----------------------------------*\
  =========                 |
  \\      /  F ield         | OpenFOAM: The Open Source CFD Toolbox
   \\    /   O peration     | Website:  https://openfoam.org
    \\  /    A nd           | Version:  8
     \\/     M anipulation  |
\*---------------------------------------------------------------------------*/
FoamFile
{
    version     2.0;
    format      ascii;
    class       volScalarField;
    location    "0.269994";
    object      alphat;
}
// * * * * * * * * * * * * * * * * * * * * * * * * * * * * * * * * * * * * * //

dimensions      [1 -1 -1 0 0 0 0];

internalField   nonuniform List<scalar> 
20000
(
0.00093759376
0.0023939371
0.00328448
0.0036986068
0.0035288834
0.0025601031
0.00067096402
2.563606e-07
1.8089797e-09
1.7961333e-09
1.7390816e-09
1.7583755e-09
1.7349757e-09
1.763527e-09
1.7668573e-09
1.8011362e-09
1.8258953e-09
1.8722886e-09
1.9204089e-09
1.9899149e-09
2.0705982e-09
2.1782319e-09
2.3095609e-09
2.4794294e-09
2.6905364e-09
2.9573103e-09
3.2854197e-09
3.6833174e-09
4.1479709e-09
4.6696038e-09
5.2222809e-09
5.7699634e-09
6.2771478e-09
6.7236917e-09
7.1014771e-09
7.4130559e-09
7.6642997e-09
7.8653496e-09
8.023455e-09
8.1500723e-09
8.2524525e-09
8.3369256e-09
8.403868e-09
8.4574669e-09
8.5021162e-09
8.5444099e-09
8.6005203e-09
8.6371714e-09
8.6621639e-09
8.6743429e-09
0.00094366752
0.0023896163
0.0032531108
0.0036367229
0.0034314156
0.0024085046
0.00056568837
9.3831261e-08
1.812785e-09
1.8104435e-09
1.752933e-09
1.7732655e-09
1.750013e-09
1.7797639e-09
1.7836915e-09
1.8195209e-09
1.8456302e-09
1.8941248e-09
1.9445469e-09
2.0171067e-09
2.1014436e-09
2.2136642e-09
2.35062e-09
2.5272838e-09
2.7464587e-09
3.0220594e-09
3.3586414e-09
3.7621939e-09
4.2269922e-09
4.7413578e-09
5.2809823e-09
5.8141378e-09
6.3090713e-09
6.746543e-09
7.1180373e-09
7.4249671e-09
7.6727423e-09
7.8711879e-09
8.0277297e-09
8.1535932e-09
8.255361e-09
8.3393149e-09
8.405903e-09
8.4592359e-09
8.5038297e-09
8.5475089e-09
8.6034904e-09
8.6400492e-09
8.6627515e-09
8.6745135e-09
0.00094163174
0.0023729449
0.0032155352
0.0035734831
0.0033355053
0.0022555325
0.00046816489
3.7475242e-08
1.8205124e-09
1.8250706e-09
1.7676223e-09
1.7890061e-09
1.7661005e-09
1.7970032e-09
1.8016849e-09
1.8390737e-09
1.8666836e-09
1.9173675e-09
1.9702825e-09
2.046118e-09
2.1344204e-09
2.2516478e-09
2.3947757e-09
2.5789615e-09
2.8071179e-09
3.0926902e-09
3.4389916e-09
3.8494268e-09
4.3152769e-09
4.8228804e-09
5.349254e-09
5.8666013e-09
6.3471664e-09
6.7732671e-09
7.1364791e-09
7.4376295e-09
7.6814514e-09
7.8770319e-09
8.0317897e-09
8.1566644e-09
8.2577391e-09
8.341169e-09
8.4074962e-09
8.4606129e-09
8.5051812e-09
8.550919e-09
8.6070109e-09
8.643687e-09
8.6659183e-09
8.6730498e-09
0.00094028543
0.0023578675
0.0031788877
0.0035109296
0.0032402276
0.0020975663
0.00037951953
1.6898642e-08
1.8318598e-09
1.84096e-09
1.7834999e-09
1.8059013e-09
1.7833792e-09
1.8154418e-09
1.8209379e-09
1.8599526e-09
1.8891409e-09
1.9421089e-09
1.9976294e-09
2.0768706e-09
2.169308e-09
2.2917557e-09
2.4413469e-09
2.6334634e-09
2.8710971e-09
3.1672319e-09
3.5238968e-09
3.942077e-09
4.410364e-09
4.9131712e-09
5.428079e-09
5.9303345e-09
6.3958965e-09
6.8092485e-09
7.1625806e-09
7.4563158e-09
7.6946657e-09
7.8862369e-09
8.0383977e-09
8.161721e-09
8.2616496e-09
8.3441931e-09
8.409998e-09
8.4628034e-09
8.5073412e-09
8.5560668e-09
8.6116783e-09
8.6469323e-09
8.6664928e-09
8.6723287e-09
0.0009390066
0.0023428867
0.0031418589
0.0034480182
0.0031448188
0.0019344582
0.00029857788
8.8056256e-09
1.8453357e-09
1.8576225e-09
1.8003785e-09
1.8238604e-09
1.801849e-09
1.8351217e-09
1.8415452e-09
1.8822628e-09
1.9131618e-09
1.9685513e-09
2.0268842e-09
2.109777e-09
2.2066823e-09
2.3347724e-09
2.4913773e-09
2.6920961e-09
2.9400082e-09
3.247538e-09
3.6152964e-09
4.0417225e-09
4.5127555e-09
5.0110466e-09
5.5146895e-09
6.0016343e-09
6.4513623e-09
6.8507415e-09
7.1928878e-09
7.4781201e-09
7.7101571e-09
7.8970962e-09
8.0461761e-09
8.1675538e-09
8.2660804e-09
8.3475498e-09
8.4126588e-09
8.4650501e-09
8.5097259e-09
8.5625752e-09
8.6171662e-09
8.6499483e-09
8.667289e-09
8.6714838e-09
0.00093797143
0.0023284268
0.0031052687
0.0033848279
0.0030494579
0.0017676351
0.00022465662
5.3570213e-09
1.8608637e-09
1.8753807e-09
1.8184208e-09
1.8429782e-09
1.8215418e-09
1.8560737e-09
1.8635183e-09
1.9060136e-09
1.9387464e-09
1.996703e-09
2.0580433e-09
2.144824e-09
2.2465162e-09
2.3806575e-09
2.5448076e-09
2.75478e-09
3.0137289e-09
3.3333993e-09
3.7128221e-09
4.147848e-09
4.6218993e-09
5.1160396e-09
5.6087903e-09
6.080475e-09
6.5138616e-09
6.8983521e-09
7.2282118e-09
7.5038582e-09
7.7286205e-09
7.9101832e-09
8.0556215e-09
8.1746287e-09
8.271428e-09
8.3515784e-09
8.4157361e-09
8.4674958e-09
8.5124909e-09
8.570611e-09
8.6231847e-09
8.6530606e-09
8.6677986e-09
8.6706828e-09
0.0009372056
0.0023143275
0.0030685545
0.0033205679
0.0029533404
0.0015992739
0.00015721185
3.7621119e-09
1.8778288e-09
1.8940568e-09
1.837524e-09
1.8632093e-09
1.8424513e-09
1.8782982e-09
1.886867e-09
1.9312216e-09
1.9659363e-09
2.0266221e-09
2.0911984e-09
2.1821447e-09
2.2890048e-09
2.4296844e-09
2.6020032e-09
2.8219805e-09
3.0928096e-09
3.4253947e-09
3.8169786e-09
4.2607099e-09
4.7376011e-09
5.2273677e-09
5.7090816e-09
6.165296e-09
6.5818741e-09
6.9507511e-09
7.2674615e-09
7.5326849e-09
7.7494419e-09
7.9250518e-09
8.0663943e-09
8.1826692e-09
8.2774706e-09
8.3561098e-09
8.4190875e-09
8.4699399e-09
8.5154555e-09
8.5793175e-09
8.6298035e-09
8.6567506e-09
8.668515e-09
8.669762e-09
0.0009364742
0.0023005461
0.0030317609
0.0032548266
0.0028558328
0.0014355916
9.7830715e-05
2.9741176e-09
1.8962022e-09
1.9137959e-09
1.8577856e-09
1.8846041e-09
1.8645922e-09
1.9017905e-09
1.9115867e-09
1.9578949e-09
1.9947498e-09
2.0583404e-09
2.1263851e-09
2.2217921e-09
2.3342283e-09
2.4819629e-09
2.6631061e-09
2.8938717e-09
3.1774342e-09
3.5236587e-09
3.9277763e-09
4.3801466e-09
4.8595164e-09
5.344513e-09
5.8149101e-09
6.2554078e-09
6.654795e-09
7.0074987e-09
7.3103713e-09
7.5644497e-09
7.7725442e-09
7.941672e-09
8.0784963e-09
8.1917044e-09
8.2842405e-09
8.3611891e-09
8.4227824e-09
8.4724293e-09
8.5187005e-09
8.5880385e-09
8.636894e-09
8.6612597e-09
8.6695588e-09
8.6685879e-09
0.00093585989
0.0022874543
0.002995244
0.0031872421
0.0027561266
0.0012768706
5.1219775e-05
2.5674769e-09
1.9158274e-09
1.9345587e-09
1.8791574e-09
1.9071127e-09
1.88793e-09
1.9265356e-09
1.9376899e-09
1.9860644e-09
2.0252311e-09
2.0919078e-09
2.1636804e-09
2.2638799e-09
2.3823471e-09
2.5377049e-09
2.728387e-09
2.9707821e-09
3.2679573e-09
3.6284995e-09
4.0453864e-09
4.5061117e-09
4.9873214e-09
5.4668591e-09
5.9254205e-09
6.3498399e-09
6.7316901e-09
7.0677954e-09
7.3563107e-09
7.5986866e-09
7.7975985e-09
7.9598167e-09
8.0917683e-09
8.2016196e-09
8.2916548e-09
8.3667626e-09
8.4268288e-09
8.4750665e-09
8.522462e-09
8.5963022e-09
8.6439464e-09
8.6665148e-09
8.6715234e-09
8.6669342e-09
0.00093560885
0.0022751668
0.0029595492
0.0031186762
0.0026535251
0.0011243652
2.1932566e-05
2.3551825e-09
1.9366245e-09
1.956315e-09
1.9016102e-09
1.9307123e-09
1.9124625e-09
1.9525522e-09
1.9652124e-09
2.0157714e-09
2.0574209e-09
2.1273787e-09
2.2031606e-09
2.3085205e-09
2.4335127e-09
2.597104e-09
2.7980873e-09
3.0529972e-09
3.3646667e-09
3.7401275e-09
4.1698611e-09
4.6384534e-09
5.1206599e-09
5.5938692e-09
6.0399392e-09
6.4478582e-09
6.8118603e-09
7.1310513e-09
7.4048221e-09
7.6350626e-09
7.8243711e-09
7.9793298e-09
8.106109e-09
8.2123483e-09
8.2996732e-09
8.3728033e-09
8.4312451e-09
8.4780643e-09
8.527197e-09
8.6039438e-09
8.6503874e-09
8.6717113e-09
8.6753175e-09
8.6644e-09
0.00093567527
0.0022634915
0.0029245721
0.0030546268
0.0025456081
0.00097892471
7.9071674e-06
2.2473717e-09
1.9584301e-09
1.9789978e-09
1.9251131e-09
1.9554104e-09
1.938223e-09
1.9798868e-09
1.9942006e-09
2.0470553e-09
2.0913651e-09
2.1648178e-09
2.244932e-09
2.3558618e-09
2.4879169e-09
2.6604005e-09
2.8725042e-09
3.140861e-09
3.4678991e-09
3.8587813e-09
4.3012567e-09
4.7770045e-09
5.2591439e-09
5.7249691e-09
6.157759e-09
6.5486994e-09
6.8945733e-09
7.1966317e-09
7.4553973e-09
7.6731917e-09
7.852582e-09
8.0000157e-09
8.1213849e-09
8.2237941e-09
8.3082321e-09
8.3792558e-09
8.4359823e-09
8.4815702e-09
8.5333202e-09
8.610952e-09
8.6562437e-09
8.6764892e-09
8.6794816e-09
8.6612039e-09
0.00093593632
0.0022519484
0.0028895976
0.0029843022
0.0024305163
0.00084192256
2.5590579e-06
2.1975112e-09
1.9812892e-09
2.0026783e-09
1.9497321e-09
1.9812724e-09
1.965271e-09
2.0085875e-09
2.0246861e-09
2.0799474e-09
2.1271124e-09
2.2043138e-09
2.2891183e-09
2.4060653e-09
2.5457624e-09
2.7278484e-09
2.9519512e-09
3.2347278e-09
3.5779818e-09
3.9846639e-09
4.4395747e-09
4.9215441e-09
5.4023597e-09
5.8596052e-09
6.2782401e-09
6.6516945e-09
6.9791924e-09
7.2639822e-09
7.5075856e-09
7.7127271e-09
7.8819756e-09
8.0216927e-09
8.1374724e-09
8.2358696e-09
8.3172737e-09
8.3860635e-09
8.4409493e-09
8.4855821e-09
8.5407424e-09
8.6176642e-09
8.6616385e-09
8.6805577e-09
8.6830085e-09
8.6573357e-09
0.00093655855
0.00224066
0.0028548803
0.0029142103
0.0023084782
0.00071453234
7.8680999e-07
2.180276e-09
2.0052323e-09
2.027392e-09
1.975514e-09
2.0083453e-09
1.9936477e-09
2.0386729e-09
2.0566878e-09
2.1144827e-09
2.1647397e-09
2.2459789e-09
2.3358721e-09
2.4593194e-09
2.6072827e-09
2.7997392e-09
3.036785e-09
3.3349877e-09
3.6952551e-09
4.1179609e-09
4.5847759e-09
5.0718008e-09
5.5498493e-09
5.9971991e-09
6.400742e-09
6.7561895e-09
7.065102e-09
7.3325647e-09
7.5609446e-09
7.7533227e-09
7.9122934e-09
8.0441728e-09
8.1542406e-09
8.2484836e-09
8.3267338e-09
8.3931639e-09
8.4460433e-09
8.4899834e-09
8.5492691e-09
8.6243028e-09
8.6664364e-09
8.6837156e-09
8.6851118e-09
8.6529681e-09
0.00093726866
0.002228792
0.0028174401
0.0028411913
0.002178804
0.00059846899
2.4528635e-07
2.1818242e-09
2.0302802e-09
2.0532217e-09
2.0025203e-09
2.0366635e-09
2.023352e-09
2.0701442e-09
2.090224e-09
2.1507274e-09
2.2043488e-09
2.2899534e-09
2.3853571e-09
2.5158234e-09
2.6727272e-09
2.8763883e-09
3.1273875e-09
3.4420477e-09
3.8200489e-09
4.2588179e-09
4.7367633e-09
5.2274482e-09
5.7011259e-09
6.1371775e-09
6.5246611e-09
6.8615882e-09
7.1517479e-09
7.4018967e-09
7.6150732e-09
7.7946601e-09
7.9432938e-09
8.0672764e-09
8.1715612e-09
8.2615486e-09
8.3365497e-09
8.4004973e-09
8.4511932e-09
8.494677e-09
8.5588336e-09
8.6308203e-09
8.6703422e-09
8.6856537e-09
8.6860277e-09
8.6483384e-09
0.00093816494
0.0022171837
0.0027801635
0.0027679294
0.0020415864
0.00049631876
8.2634731e-08
2.1944823e-09
2.056579e-09
2.0802105e-09
2.0307369e-09
2.0661814e-09
2.0543615e-09
2.103011e-09
2.1253611e-09
2.1887831e-09
2.2460786e-09
2.3363938e-09
2.437757e-09
2.5758041e-09
2.7423825e-09
2.9581556e-09
3.2241855e-09
3.5563378e-09
3.9526852e-09
4.4073378e-09
4.8953778e-09
5.3880995e-09
5.8556603e-09
6.2789487e-09
6.6493976e-09
6.9673148e-09
7.2386054e-09
7.4715241e-09
7.6695925e-09
7.8364347e-09
7.9747439e-09
8.0908281e-09
8.1893047e-09
8.2749764e-09
8.3466564e-09
8.4080041e-09
8.4563717e-09
8.499696e-09
8.5692604e-09
8.6371308e-09
8.6734163e-09
8.6867326e-09
8.6861355e-09
8.6435842e-09
0.00093926204
0.0022053361
0.0027419472
0.0026932698
0.0018968807
0.0004005509
3.0939042e-08
2.2136172e-09
2.0839339e-09
2.1082077e-09
2.0600762e-09
2.096869e-09
2.0866958e-09
2.1373527e-09
2.1622085e-09
2.2287905e-09
2.2900711e-09
2.3854552e-09
2.4932624e-09
2.6395065e-09
2.8165635e-09
3.0454355e-09
3.3276342e-09
3.6782948e-09
4.0934555e-09
4.5635648e-09
5.0603877e-09
5.5533118e-09
6.0128922e-09
6.4219245e-09
6.7743805e-09
7.0728401e-09
7.3252058e-09
7.5410426e-09
7.7241636e-09
7.8783694e-09
8.006429e-09
8.1146643e-09
8.2073452e-09
8.2886802e-09
8.3569887e-09
8.4156245e-09
8.4615981e-09
8.5052448e-09
8.580219e-09
8.6432272e-09
8.6759378e-09
8.6871049e-09
8.6858901e-09
8.6386531e-09
0.00094044132
0.002192772
0.002701953
0.002612291
0.001745821
0.00031308419
1.3613813e-08
2.2367854e-09
2.1122915e-09
2.1372183e-09
2.0905671e-09
2.1288002e-09
2.1204636e-09
2.173295e-09
2.2009054e-09
2.2708788e-09
2.3364673e-09
2.4373041e-09
2.5520899e-09
2.7072134e-09
2.89563e-09
3.1386698e-09
3.4382267e-09
3.808363e-09
4.2426173e-09
4.7274755e-09
5.2314896e-09
5.7225813e-09
6.1722297e-09
6.5655051e-09
6.8990482e-09
7.1776576e-09
7.4111059e-09
7.6100791e-09
7.7784724e-09
7.9202047e-09
8.038146e-09
8.1386309e-09
8.2255618e-09
8.3025686e-09
8.3674774e-09
8.4232945e-09
8.4669415e-09
8.5117216e-09
8.5912595e-09
8.6489702e-09
8.6780725e-09
8.6871892e-09
8.6854663e-09
8.6334131e-09
0.00094170489
0.0021794363
0.0026606383
0.0025289263
0.001590474
0.00023271195
7.2356426e-09
2.2627323e-09
2.141721e-09
2.1673137e-09
2.1223164e-09
2.1621074e-09
2.1558004e-09
2.2109751e-09
2.2415717e-09
2.315178e-09
2.3854093e-09
2.4921216e-09
2.6144817e-09
2.7792383e-09
2.979976e-09
3.2383376e-09
3.5564815e-09
3.9469764e-09
4.4003752e-09
4.8989654e-09
5.4082982e-09
5.8953489e-09
6.3330534e-09
6.7090961e-09
7.0228683e-09
7.2813043e-09
7.495914e-09
7.6783069e-09
7.8322426e-09
7.9617085e-09
8.0697115e-09
8.1625884e-09
8.2438443e-09
8.316556e-09
8.3780493e-09
8.4309441e-09
8.472512e-09
8.5196996e-09
8.6018366e-09
8.6540612e-09
8.679737e-09
8.6871809e-09
8.6845291e-09
8.6279388e-09
0.00094290968
0.0021648124
0.0026156393
0.0024442426
0.0014326638
0.00015893099
4.6393495e-09
2.2906148e-09
2.1723335e-09
2.1986621e-09
2.1554787e-09
2.1969388e-09
2.1928335e-09
2.2504981e-09
2.2843145e-09
2.3617997e-09
2.4370498e-09
2.5501196e-09
2.6807195e-09
2.8559373e-09
3.0700432e-09
3.3449661e-09
3.682943e-09
4.094553e-09
4.5668746e-09
5.0778486e-09
5.5903532e-09
6.0710015e-09
6.4947185e-09
6.8521007e-09
7.1453248e-09
7.3833463e-09
7.5792704e-09
7.7454296e-09
7.8852217e-09
8.0026666e-09
8.1009549e-09
8.186407e-09
8.2620933e-09
8.3305611e-09
8.3886262e-09
8.4384903e-09
8.4784051e-09
8.5297092e-09
8.6113643e-09
8.65845e-09
8.6803734e-09
8.6861374e-09
8.681877e-09
8.622317e-09
0.00094420931
0.0021500347
0.0025670936
0.0023574756
0.0012743055
9.3563762e-05
3.4843848e-09
2.3201005e-09
2.2043107e-09
2.2314241e-09
2.1901849e-09
2.233388e-09
2.2316371e-09
2.2919464e-09
2.3292262e-09
2.4108794e-09
2.4915692e-09
2.6115429e-09
2.7511187e-09
2.9377004e-09
3.1663146e-09
3.4591223e-09
3.8181682e-09
4.251472e-09
4.742176e-09
5.263841e-09
5.7771111e-09
6.2488749e-09
6.656563e-09
6.9939332e-09
7.2659337e-09
7.4833989e-09
7.6608685e-09
7.8111918e-09
7.9371912e-09
8.0428929e-09
8.1317254e-09
8.2099707e-09
8.2802215e-09
8.3445124e-09
8.3991294e-09
8.44584e-09
8.4846208e-09
8.5415688e-09
8.6195499e-09
8.662279e-09
8.6805668e-09
8.6845283e-09
8.6771283e-09
8.6168747e-09
0.00094575533
0.0021356459
0.0025218224
0.0022667528
0.0011176902
4.3787644e-05
2.9422543e-09
2.3509633e-09
2.2377315e-09
2.2656571e-09
2.2264651e-09
2.2714919e-09
2.2722707e-09
2.3354004e-09
2.3764243e-09
2.4625704e-09
2.5491843e-09
2.6766779e-09
2.8260371e-09
3.0249664e-09
3.2693315e-09
3.5814241e-09
3.9627221e-09
4.4180676e-09
4.926255e-09
5.4565631e-09
5.9679524e-09
6.4282593e-09
6.8179101e-09
7.1340165e-09
7.3842352e-09
7.5811077e-09
7.7404349e-09
7.8753644e-09
7.9879539e-09
8.0822215e-09
8.1618852e-09
8.2331726e-09
8.2981496e-09
8.3583451e-09
8.4094834e-09
8.4529324e-09
8.4911614e-09
8.5539555e-09
8.6268306e-09
8.665448e-09
8.6805683e-09
8.6832272e-09
8.6699313e-09
8.6116825e-09
0.00094724074
0.0021200713
0.0024734089
0.002170265
0.00096558372
1.5695439e-05
2.6872625e-09
2.3833397e-09
2.2725995e-09
2.3013621e-09
2.2643256e-09
2.3113002e-09
2.3148093e-09
2.3809706e-09
2.426047e-09
2.5170692e-09
2.6101499e-09
2.7458427e-09
2.9058601e-09
3.1182127e-09
3.3796841e-09
3.7125195e-09
4.1171552e-09
4.5945988e-09
5.1189777e-09
5.655523e-09
6.1621693e-09
6.6083973e-09
6.9780769e-09
7.2718005e-09
7.4998115e-09
7.6761656e-09
7.8177367e-09
7.9377535e-09
8.0373443e-09
8.1205167e-09
8.1913166e-09
8.2559184e-09
8.3158055e-09
8.3720018e-09
8.4196202e-09
8.4597725e-09
8.4981123e-09
8.5665753e-09
8.6329032e-09
8.6672805e-09
8.680542e-09
8.6819084e-09
8.6602922e-09
8.6067321e-09
0.00094888197
0.0021039977
0.0024229602
0.002067357
0.00082058723
4.5160929e-06
2.5752154e-09
2.4178231e-09
2.3088651e-09
2.3385383e-09
2.3038438e-09
2.3529077e-09
2.359364e-09
2.4287858e-09
2.478269e-09
2.5745963e-09
2.6747604e-09
2.8193953e-09
2.9910208e-09
3.2179804e-09
3.4980284e-09
3.8530961e-09
4.2819964e-09
4.7812457e-09
5.3200988e-09
5.8601218e-09
6.3589762e-09
6.7884914e-09
7.1363825e-09
7.4067695e-09
7.6122839e-09
7.7682951e-09
7.8925676e-09
7.9981912e-09
8.0852195e-09
8.1576635e-09
8.2199185e-09
8.2781233e-09
8.3331196e-09
8.3854237e-09
8.429477e-09
8.4664577e-09
8.5057787e-09
8.5791602e-09
8.6381442e-09
8.6680931e-09
8.6797677e-09
8.6804855e-09
8.6496079e-09
8.6021595e-09
0.0009504365
0.0020871872
0.0023700514
0.001960552
0.00068577642
1.1631358e-06
2.5362118e-09
2.4533233e-09
2.3463949e-09
2.377404e-09
2.3451616e-09
2.3964437e-09
2.4060455e-09
2.4790011e-09
2.5333015e-09
2.6354072e-09
2.7433379e-09
2.8977161e-09
3.0819875e-09
3.324861e-09
3.6250704e-09
4.003851e-09
4.4577199e-09
4.978073e-09
5.5292298e-09
6.0696295e-09
6.5574965e-09
6.9677038e-09
7.2921622e-09
7.538463e-09
7.7213313e-09
7.8572534e-09
7.9647504e-09
8.0565543e-09
8.1314738e-09
8.193567e-09
8.2476133e-09
8.2997165e-09
8.3500268e-09
8.3985412e-09
8.4389961e-09
8.473186e-09
8.5147749e-09
8.5913885e-09
8.6429531e-09
8.6683353e-09
8.6780116e-09
8.6780321e-09
8.639846e-09
8.5981027e-09
0.00095222344
0.0020705589
0.0023156618
0.0018464514
0.00056206849
2.9895793e-07
2.5346306e-09
2.490419e-09
2.3855357e-09
2.417818e-09
2.3882769e-09
2.441981e-09
2.45501e-09
2.5318193e-09
2.591402e-09
2.6998341e-09
2.8162355e-09
2.9812301e-09
3.1792966e-09
3.43953e-09
3.7615836e-09
4.1654943e-09
4.6447348e-09
5.1850233e-09
5.7458381e-09
6.2831967e-09
6.7567786e-09
7.1451825e-09
7.4447933e-09
7.6664815e-09
7.8266847e-09
7.9428198e-09
8.034125e-09
8.1127625e-09
8.176036e-09
8.228131e-09
8.2743405e-09
8.3206394e-09
8.3664679e-09
8.411271e-09
8.4481176e-09
8.4801963e-09
8.5259153e-09
8.6024992e-09
8.6475384e-09
8.668319e-09
8.6754405e-09
8.6745169e-09
8.6310449e-09
8.5946047e-09
0.00095423357
0.0020541113
0.0022642934
0.0017243284
0.00045225515
8.7908795e-08
2.5526716e-09
2.5290123e-09
2.4262724e-09
2.460127e-09
2.4333015e-09
2.4896367e-09
2.5064519e-09
2.5874979e-09
2.652848e-09
2.7681946e-09
2.893823e-09
3.0703976e-09
3.2835411e-09
3.5627304e-09
3.908386e-09
4.338712e-09
4.8433442e-09
5.4018773e-09
5.969223e-09
6.4998418e-09
6.9558046e-09
7.3201033e-09
7.5937335e-09
7.7904826e-09
7.9281207e-09
8.0248188e-09
8.1005767e-09
8.1667916e-09
8.2188744e-09
8.261254e-09
8.3000527e-09
8.3408505e-09
8.3823982e-09
8.4235321e-09
8.4567845e-09
8.4876209e-09
8.5394169e-09
8.61148e-09
8.6515243e-09
8.6682186e-09
8.6724265e-09
8.6695174e-09
8.6234726e-09
8.5916519e-09
0.00095635682
0.0020367138
0.0022119587
0.0015935387
0.00035612381
3.227609e-08
2.5813317e-09
2.5692854e-09
2.4688352e-09
2.5044948e-09
2.4803859e-09
2.5396366e-09
2.5606171e-09
2.6463082e-09
2.7179293e-09
2.8408219e-09
2.9765124e-09
3.1657489e-09
3.3954063e-09
3.6952964e-09
4.0663435e-09
4.5241545e-09
5.0537332e-09
5.6282496e-09
6.19853e-09
6.7184838e-09
7.1535609e-09
7.4917668e-09
7.7385628e-09
7.9101401e-09
8.0254064e-09
8.1031337e-09
8.1640708e-09
8.2186398e-09
8.2599383e-09
8.292835e-09
8.324692e-09
8.3603236e-09
8.3977894e-09
8.4352654e-09
8.4649679e-09
8.4954575e-09
8.5533254e-09
8.618845e-09
8.6536103e-09
8.6672916e-09
8.6701071e-09
8.6621178e-09
8.6169833e-09
8.5891649e-09
0.00095865096
0.0020182235
0.0021564064
0.0014549394
0.00026841405
1.4393259e-08
2.6159973e-09
2.6111696e-09
2.5131554e-09
2.5508814e-09
2.5299483e-09
2.5923104e-09
2.6177748e-09
2.7085042e-09
2.7869369e-09
2.9180909e-09
3.0647677e-09
3.267884e-09
3.5156605e-09
3.8381346e-09
4.2363362e-09
4.722395e-09
5.2759246e-09
5.8635535e-09
6.4327301e-09
6.9379579e-09
7.3491262e-09
7.6596883e-09
7.8789789e-09
8.0250916e-09
8.1182474e-09
8.1777364e-09
8.2247115e-09
8.2682836e-09
8.2991345e-09
8.3228317e-09
8.3481787e-09
8.3790484e-09
8.4126236e-09
8.4464461e-09
8.4727116e-09
8.5037274e-09
8.5669928e-09
8.6247108e-09
8.6545571e-09
8.6659971e-09
8.6678595e-09
8.6527959e-09
8.6114275e-09
8.5870269e-09
0.00096116454
0.0019987074
0.0020990755
0.0013107185
0.000188953
7.9757253e-09
2.6548812e-09
2.6549124e-09
2.5595534e-09
2.5995636e-09
2.5819253e-09
2.6479005e-09
2.6781443e-09
2.7743473e-09
2.8601818e-09
3.0003894e-09
3.1591285e-09
3.3775012e-09
3.6451751e-09
3.9922254e-09
4.4192411e-09
4.9339044e-09
5.5097625e-09
6.1070093e-09
6.6706579e-09
7.1571149e-09
7.5418178e-09
7.8236158e-09
8.0146839e-09
8.1349101e-09
8.2062868e-09
8.2486675e-09
8.2827223e-09
8.3156089e-09
8.3362787e-09
8.3513298e-09
8.3704221e-09
8.3970207e-09
8.4268733e-09
8.457061e-09
8.4801725e-09
8.5127412e-09
8.5799028e-09
8.6296583e-09
8.6548768e-09
8.6643796e-09
8.6655643e-09
8.6431649e-09
8.6066412e-09
8.5851502e-09
0.00096391563
0.0019779748
0.0020392705
0.0011646286
0.00011781897
5.3839439e-09
2.6973433e-09
2.7008582e-09
2.6082196e-09
2.6505758e-09
2.6365097e-09
2.706488e-09
2.7419331e-09
2.8441278e-09
2.9380341e-09
3.088197e-09
3.26022e-09
3.4953953e-09
3.7849151e-09
4.158602e-09
4.6158949e-09
5.1590063e-09
5.7548677e-09
6.3576115e-09
6.9110253e-09
7.374924e-09
7.7312419e-09
7.9832744e-09
8.1450762e-09
8.2391877e-09
8.2893081e-09
8.3159847e-09
8.3382669e-09
8.3604073e-09
8.3711578e-09
8.3785572e-09
8.3914038e-09
8.4142254e-09
8.4404884e-09
8.4670791e-09
8.4876061e-09
8.5232382e-09
8.5916764e-09
8.6341214e-09
8.654888e-09
8.6623745e-09
8.6629416e-09
8.6344727e-09
8.6023658e-09
8.5834712e-09
0.00096663972
0.001953727
0.001976187
0.0010259355
6.0453918e-05
4.2388502e-09
2.7425267e-09
2.7488857e-09
2.6591481e-09
2.7042061e-09
2.6940629e-09
2.7682213e-09
2.8093818e-09
2.9181489e-09
3.0209372e-09
3.1820795e-09
3.3687693e-09
3.6224707e-09
3.9359469e-09
4.3383357e-09
4.8270635e-09
5.3978403e-09
6.0106265e-09
6.6141686e-09
7.1525412e-09
7.5906446e-09
7.9171569e-09
8.1377477e-09
8.2692667e-09
8.3375806e-09
8.3675881e-09
8.3796889e-09
8.39101e-09
8.4024699e-09
8.4038501e-09
8.4046829e-09
8.4112995e-09
8.4306154e-09
8.4533959e-09
8.4764367e-09
8.4952706e-09
8.5358986e-09
8.6016676e-09
8.6381993e-09
8.6547607e-09
8.6598941e-09
8.6594491e-09
8.62673e-09
8.5986021e-09
8.5819637e-09
0.00096922398
0.0019254316
0.0019084117
0.00089312455
2.4107601e-05
3.7096439e-09
2.7902051e-09
2.7991263e-09
2.7125231e-09
2.7606744e-09
2.754796e-09
2.8336097e-09
2.8808267e-09
2.996783e-09
3.1093976e-09
3.2826992e-09
3.4856079e-09
3.7597376e-09
4.0994189e-09
4.5325065e-09
5.0533959e-09
5.6503113e-09
6.2761476e-09
6.8753151e-09
7.3940108e-09
7.8038459e-09
8.0988356e-09
8.2857227e-09
8.3865495e-09
8.4299492e-09
8.4416088e-09
8.4397479e-09
8.440376e-09
8.4423253e-09
8.4344495e-09
8.4293455e-09
8.4305213e-09
8.4461141e-09
8.4655269e-09
8.4850835e-09
8.5033224e-09
8.5499034e-09
8.6097935e-09
8.6414561e-09
8.6541998e-09
8.6572509e-09
8.6542293e-09
8.6198452e-09
8.5952452e-09
8.580596e-09
0.00097148501
0.0018927451
0.001834486
0.00076746937
7.6590382e-06
3.4686789e-09
2.8403317e-09
2.8518003e-09
2.7686554e-09
2.8202626e-09
2.8190507e-09
2.9029358e-09
2.9566292e-09
3.0805486e-09
3.2040124e-09
3.3908215e-09
3.6116826e-09
3.9083226e-09
4.2765585e-09
4.7421694e-09
5.2953819e-09
5.9160658e-09
6.5502868e-09
7.1396283e-09
7.6345089e-09
8.0141804e-09
8.2745557e-09
8.4261222e-09
8.4962933e-09
8.5166814e-09
8.5118863e-09
8.496216e-09
8.4867239e-09
8.4801361e-09
8.4632492e-09
8.4518096e-09
8.4493876e-09
8.4606583e-09
8.4768464e-09
8.4930816e-09
8.5118585e-09
8.5639062e-09
8.6161581e-09
8.6426892e-09
8.65315e-09
8.655154e-09
8.6466742e-09
8.6137529e-09
8.5922387e-09
8.5793639e-09
0.0009732387
0.0018549037
0.0017470185
0.0006498694
2.1221848e-06
3.3714041e-09
2.8932005e-09
2.9072908e-09
2.8279081e-09
2.8832373e-09
2.8869849e-09
2.9763014e-09
3.037376e-09
3.170049e-09
3.3054918e-09
3.5073088e-09
3.7480498e-09
4.0694548e-09
4.4686463e-09
4.968309e-09
5.553288e-09
6.1944396e-09
6.8316586e-09
7.4057123e-09
7.8734206e-09
8.220446e-09
8.4427189e-09
8.5577115e-09
8.598716e-09
8.5994903e-09
8.5778196e-09
8.5493771e-09
8.5302016e-09
8.5155509e-09
8.4899995e-09
8.4727488e-09
8.4676315e-09
8.4742966e-09
8.4873712e-09
8.5007132e-09
8.5211093e-09
8.577054e-09
8.6212614e-09
8.6432179e-09
8.6516424e-09
8.6531222e-09
8.6379977e-09
8.6085313e-09
8.5895893e-09
8.5782789e-09
0.00097476475
0.001813342
0.0016480514
0.00054216022
5.6951545e-07
3.3485879e-09
2.9491307e-09
2.9658863e-09
2.8904648e-09
2.9498685e-09
2.9589224e-09
3.0542156e-09
3.1234034e-09
3.2658763e-09
3.4146676e-09
3.6331434e-09
3.8958845e-09
4.2444722e-09
4.6769926e-09
5.2117925e-09
5.8271085e-09
6.4844554e-09
7.1187388e-09
7.6723585e-09
8.1103024e-09
8.4204614e-09
8.6018022e-09
8.6800636e-09
8.6960388e-09
8.6772404e-09
8.6394918e-09
8.5990884e-09
8.5711697e-09
8.5486972e-09
8.5147629e-09
8.4922611e-09
8.4849771e-09
8.4872689e-09
8.497153e-09
8.5084788e-09
8.5316037e-09
8.5887166e-09
8.6255039e-09
8.6433092e-09
8.6498263e-09
8.650707e-09
8.6295636e-09
8.6039051e-09
8.5872997e-09
8.5773601e-09
0.00097636659
0.0017689894
0.0015374504
0.00044509272
1.6520004e-07
3.3653426e-09
3.0081402e-09
3.0276818e-09
2.9564434e-09
3.0203825e-09
3.035182e-09
3.1370863e-09
3.2153611e-09
3.3688461e-09
3.5324897e-09
3.7694164e-09
4.0564791e-09
4.4348139e-09
4.9028978e-09
5.4733076e-09
6.116513e-09
6.7848138e-09
7.409946e-09
7.9386131e-09
8.3438921e-09
8.6119969e-09
8.7504697e-09
8.7947449e-09
8.7882744e-09
8.7498948e-09
8.6969661e-09
8.645564e-09
8.6096554e-09
8.5795884e-09
8.5377717e-09
8.5105381e-09
8.5008683e-09
8.4999139e-09
8.5062676e-09
8.5168412e-09
8.5438874e-09
8.5983689e-09
8.6290875e-09
8.6431931e-09
8.6476261e-09
8.647569e-09
8.6220193e-09
8.5998904e-09
8.5853685e-09
8.5765967e-09
0.00097812849
0.0017222963
0.0014187619
0.00035773295
5.8084579e-08
3.4037454e-09
3.0702924e-09
3.0928347e-09
3.0261408e-09
3.0950759e-09
3.1162311e-09
3.2255487e-09
3.3139878e-09
3.4798765e-09
3.6599991e-09
3.9173341e-09
4.2312596e-09
4.6420162e-09
5.1476003e-09
5.7532853e-09
6.4208165e-09
7.0939808e-09
7.7038097e-09
8.2038296e-09
8.5715355e-09
8.7932189e-09
8.8882161e-09
8.9041983e-09
8.8744252e-09
8.8175002e-09
8.7504027e-09
8.6889216e-09
8.6457865e-09
8.6083406e-09
8.5592902e-09
8.5277566e-09
8.515074e-09
8.512157e-09
8.514836e-09
8.5256302e-09
8.5574547e-09
8.6060786e-09
8.6318869e-09
8.642823e-09
8.6453648e-09
8.6429092e-09
8.6156189e-09
8.5964854e-09
8.583726e-09
8.5759591e-09
0.00097977275
0.0016713588
0.0013043464
0.00027941855
2.5125514e-08
3.4546162e-09
3.1358015e-09
3.1616267e-09
3.0999195e-09
3.1744092e-09
3.2026988e-09
3.3204274e-09
3.4203048e-09
3.5998095e-09
3.7983488e-09
4.0782323e-09
4.421787e-09
4.8676802e-09
5.4122243e-09
6.0518246e-09
6.738933e-09
7.4102559e-09
7.999029e-09
8.4670445e-09
8.7901075e-09
8.9625322e-09
9.0174714e-09
9.007426e-09
8.9546509e-09
8.8802089e-09
8.7999661e-09
8.7293354e-09
8.6796512e-09
8.635066e-09
8.5794036e-09
8.543668e-09
8.5280716e-09
8.5235641e-09
8.523061e-09
8.5345215e-09
8.5708345e-09
8.6125474e-09
8.63379e-09
8.6423102e-09
8.6439775e-09
8.6361704e-09
8.6104043e-09
8.5936862e-09
8.5823617e-09
8.5754346e-09
0.00098149457
0.001611808
0.0011847102
0.00020633823
1.3099721e-08
3.513498e-09
3.204881e-09
3.2344227e-09
3.1782268e-09
3.2590728e-09
3.2953877e-09
3.4225348e-09
3.5351428e-09
3.7298255e-09
3.9488165e-09
4.2536184e-09
4.6297643e-09
5.1134208e-09
5.6976803e-09
6.36863e-09
7.0694093e-09
7.7319118e-09
8.2945682e-09
8.725218e-09
8.997465e-09
9.1191762e-09
9.140804e-09
9.1035369e-09
9.0290002e-09
8.938202e-09
8.8458427e-09
8.7669629e-09
8.7113638e-09
8.6598867e-09
8.5981634e-09
8.5583975e-09
8.539991e-09
8.5337343e-09
8.5312157e-09
8.5433469e-09
8.5834527e-09
8.6179636e-09
8.635041e-09
8.6417862e-09
8.6428478e-09
8.6286641e-09
8.6060925e-09
8.5913109e-09
8.5812176e-09
8.5749959e-09
0.0009853395
0.0015612166
0.001064857
0.00013936888
8.2632816e-09
3.578216e-09
3.2779211e-09
3.3118197e-09
3.2618413e-09
3.3499338e-09
3.3951919e-09
3.5327547e-09
3.6595216e-09
3.8710668e-09
4.1127974e-09
4.4451927e-09
4.8570497e-09
5.3808097e-09
6.0045784e-09
6.7029597e-09
7.4104853e-09
8.0572506e-09
8.5893958e-09
8.9747458e-09
9.191588e-09
9.2658149e-09
9.2569548e-09
9.1926923e-09
9.0976886e-09
8.9916863e-09
8.8882286e-09
8.8019719e-09
8.7410371e-09
8.6829096e-09
8.6155783e-09
8.57195e-09
8.5509639e-09
8.5429558e-09
8.5392413e-09
8.5523278e-09
8.5946915e-09
8.6226067e-09
8.6359031e-09
8.6409555e-09
8.6413622e-09
8.6217156e-09
8.6022558e-09
8.5892573e-09
8.580283e-09
8.5746276e-09
0.00098998101
0.0015055183
0.00094497375
8.1243292e-05
6.1095562e-09
3.647786e-09
3.3557167e-09
3.3947382e-09
3.3517789e-09
3.4478361e-09
3.5029367e-09
3.6520025e-09
3.794545e-09
4.0247662e-09
4.291877e-09
4.6548886e-09
5.1056213e-09
5.6712783e-09
6.3331171e-09
7.0535985e-09
7.7602488e-09
8.3847255e-09
8.8809934e-09
9.2124508e-09
9.3712717e-09
9.4052328e-09
9.3649841e-09
9.2750028e-09
9.1609333e-09
9.0408854e-09
8.9273266e-09
8.8345259e-09
8.7687859e-09
8.7042196e-09
8.6316287e-09
8.5842826e-09
8.560917e-09
8.5516482e-09
8.5473097e-09
8.5630065e-09
8.6038711e-09
8.6265265e-09
8.6366624e-09
8.6398347e-09
8.6391368e-09
8.6157988e-09
8.5989671e-09
8.5875514e-09
8.5794843e-09
8.5743288e-09
0.00099587017
0.0014463565
0.00082811814
3.8557638e-05
5.0957915e-09
3.7225147e-09
3.4393383e-09
3.4841769e-09
3.4487705e-09
3.5534748e-09
3.6194194e-09
3.7812931e-09
3.9415395e-09
4.1923346e-09
4.4878908e-09
4.8848707e-09
5.3775071e-09
5.9860257e-09
6.6830242e-09
7.4188904e-09
8.1167226e-09
8.7129885e-09
9.1652239e-09
9.4359441e-09
9.5387042e-09
9.536675e-09
9.4648438e-09
9.3507283e-09
9.218992e-09
9.0860349e-09
8.9633439e-09
8.864785e-09
8.7947266e-09
8.7238799e-09
8.6462442e-09
8.5953974e-09
8.5700366e-09
8.5600642e-09
8.5555566e-09
8.5751404e-09
8.6108623e-09
8.6295082e-09
8.6372144e-09
8.6393811e-09
8.6347687e-09
8.6111402e-09
8.5963269e-09
8.5860978e-09
8.5788948e-09
8.5742531e-09
0.0010032498
0.0013827533
0.00071621262
1.4693119e-05
4.6161858e-09
3.8036438e-09
3.5295429e-09
3.5805711e-09
3.5532936e-09
3.6674594e-09
3.7455875e-09
3.9218411e-09
4.1018347e-09
4.3756944e-09
4.7029767e-09
5.1374787e-09
5.6746537e-09
6.3258461e-09
7.053475e-09
7.7968541e-09
8.4779691e-09