/*--------------------------------*- C++ -*----------------------------------*\
  =========                 |
  \\      /  F ield         | OpenFOAM: The Open Source CFD Toolbox
   \\    /   O peration     | Website:  https://openfoam.org
    \\  /    A nd           | Version:  8
     \\/     M anipulation  |
\*---------------------------------------------------------------------------*/
FoamFile
{
    version     2.0;
    format      ascii;
    class       volVectorField;
    location    "0.269994";
    object      cellDisplacement;
}
// * * * * * * * * * * * * * * * * * * * * * * * * * * * * * * * * * * * * * //

dimensions      [0 1 0 0 0 0 0];

internalField   nonuniform List<vector> 
20000
(
(0.0022968606 0 0.0018235923)
(0.0022968436 0 0.0018232301)
(0.0022968053 0 0.0018222742)
(0.0022967243 0 0.0018211671)
(0.0022965822 0 0.0018198818)
(0.0022963525 0 0.001818401)
(0.0022959987 0 0.001816711)
(0.0022954707 0 0.0018148062)
(0.0022946996 0 0.0018126925)
(0.0022935925 0 0.0018103978)
(0.0022920234 0 0.0018079822)
(0.0022898239 0 0.0018055576)
(0.0022867696 0 0.0018033136)
(0.0022825645 0 0.0018015559)
(0.0022768218 0 0.0018007616)
(0.0022690418 0 0.0018016551)
(0.0022585884 0 0.0018053105)
(0.0022446666 0 0.0018132933)
(0.0022263002 0 0.0018278478)
(0.0022023297 0 0.0018521055)
(0.0021714182 0 0.0018903602)
(0.0021321058 0 0.0019482479)
(0.002082905 0 0.0020328278)
(0.0020224397 0 0.0021525465)
(0.0019496917 0 0.0023166044)
(0.0018641626 0 0.0025340298)
(0.0017661781 0 0.0028120075)
(0.001656915 0 0.0031539611)
(0.001538482 0 0.0035572758)
(0.0014134462 0 0.0040136052)
(0.0012851654 0 0.0045054907)
(0.0011566571 0 0.0050132927)
(0.0010310414 0 0.0055111613)
(0.00091121944 0 0.0059754526)
(0.00079917806 0 0.00638403)
(0.00069609671 0 0.0067234115)
(0.00060258755 0 0.0069835476)
(0.00051865359 0 0.0071576561)
(0.00044369208 0 0.0072461689)
(0.00037765046 0 0.0072438382)
(0.00031868922 0 0.007154317)
(0.00026716917 0 0.0069709636)
(0.00022189055 0 0.006700303)
(0.00018211773 0 0.0063157071)
(0.00014647834 0 0.0058174152)
(0.00011485103 0 0.0051829808)
(8.6062457e-05 0 0.0044050675)
(5.9518329e-05 0 0.0034191015)
(3.4167521e-05 0 0.002219083)
(9.5232017e-06 0 0.00073859956)
(0.0023019933 0 0.0014979514)
(0.0023019831 0 0.0014969608)
(0.0023019427 0 0.0014958117)
(0.0023018592 0 0.0014944583)
(0.0023017132 0 0.0014928788)
(0.002301478 0 0.0014910454)
(0.0023011162 0 0.0014889317)
(0.0023005767 0 0.0014865172)
(0.0022997896 0 0.0014837918)
(0.0022986601 0 0.0014807653)
(0.0022970603 0 0.0014774791)
(0.0022948192 0 0.001474025)
(0.002291709 0 0.0014705718)
(0.0022874295 0 0.001467405)
(0.0022815894 0 0.0014649815)
(0.0022736825 0 0.001464008)
(0.002263067 0 0.0014655479)
(0.0022489399 0 0.0014711736)
(0.0022303207 0 0.0014831527)
(0.0022060446 0 0.001504698)
(0.0021747773 0 0.0015402441)
(0.0021350661 0 0.0015956292)
(0.0020854425 0 0.0016781291)
(0.0020245728 0 0.0017964909)
(0.0019514867 0 0.0019602684)
(0.0018657605 0 0.0021788261)
(0.0017677776 0 0.0024597)
(0.0016587649 0 0.0028066157)
(0.0015408185 0 0.0032173372)
(0.001416473 0 0.0036836772)
(0.0012889516 0 0.004188617)
(0.0011611832 0 0.0047122551)
(0.0010361856 0 0.0052287245)
(0.00091673231 0 0.0057139965)
(0.0008048206 0 0.0061453846)
(0.00070164751 0 0.006508358)
(0.00060787716 0 0.0067921006)
(0.00052355474 0 0.0069894368)
(0.00044816704 0 0.0070998332)
(0.00038160833 0 0.0071183673)
(0.00032223709 0 0.0070479067)
(0.00027024036 0 0.006882519)
(0.00022452772 0 0.0066272916)
(0.0001843375 0 0.0062581065)
(0.00014836864 0 0.005773362)
(0.00011640295 0 0.0051515868)
(8.7320506e-05 0 0.004383552)
(6.0477153e-05 0 0.0034080446)
(3.4829966e-05 0 0.0022146141)
(9.8174305e-06 0 0.00073804266)
(0.0023057517 0 0.001179287)
(0.002305739 0 0.0011780966)
(0.0023056952 0 0.0011767042)
(0.002305607 0 0.0011750685)
(0.0023054546 0 0.001173154)
(0.0023052105 0 0.0011709244)
(0.0023048368 0 0.0011683431)
(0.0023042812 0 0.0011653781)
(0.0023034724 0 0.0011620047)
(0.0023023141 0 0.0011582171)
(0.0023006756 0 0.0011540373)
(0.0022983833 0 0.0011495369)
(0.0022952052 0 0.0011448628)
(0.0022908371 0 0.0011402786)
(0.002284881 0 0.0011362179)
(0.0022768255 0 0.0011333722)
(0.0022660206 0 0.0011327889)
(0.002251657 0 0.0011360493)
(0.002232748 0 0.0011454604)
(0.0022081259 0 0.0011643162)
(0.0021764589 0 0.0011972289)
(0.0021363029 0 0.0012502494)
(0.0020862106 0 0.0013308228)
(0.0020248972 0 0.0014480122)
(0.001951446 0 0.0016117008)
(0.0018655156 0 0.0018315468)
(0.0017675517 0 0.0021153972)
(0.0016588395 0 0.0024672095)
(0.0015414591 0 0.002885089)
(0.0014179139 0 0.0033609673)
(0.0012912854 0 0.0038782482)
(0.0011644104 0 0.0044168093)
(0.0010401884 0 0.0049508325)
(0.00092127161 0 0.005455959)
(0.00080964562 0 0.005909062)
(0.00070652523 0 0.0062946489)
(0.0006126187 0 0.0066011735)
(0.00052801511 0 0.0068210611)
(0.00045228603 0 0.0069528515)
(0.00038528702 0 0.006991857)
(0.00032555507 0 0.0069402154)
(0.0002731336 0 0.0067925977)
(0.00022702481 0 0.0065527867)
(0.00018644974 0 0.0061988812)
(0.00015017324 0 0.0057276902)
(0.000117892 0 0.0051185852)
(8.8532157e-05 0 0.00436065)
(6.1405532e-05 0 0.003395665)
(3.547352e-05 0 0.0022092471)
(1.0100037e-05 0 0.00073713222)
(0.0023081723 0 0.000867475)
(0.002308155 0 0.00086610131)
(0.0023081055 0 0.00086449078)
(0.0023080098 0 0.00086259038)
(0.0023078477 0 0.0008603551)
(0.0023075912 0 0.00085773863)
(0.0023072013 0 0.00085469359)
(0.0023066246 0 0.00085117572)
(0.0023057883 0 0.00084714701)
(0.0023045935 0 0.00084258678)
(0.0023029078 0 0.00083750042)
(0.0023005534 0 0.00083194129)
(0.0022972947 0 0.00082603526)
(0.0022928218 0 0.00082002192)
(0.0022867311 0 0.00081431558)
(0.0022785037 0 0.00080957822)
(0.0022674823 0 0.00080685969)
(0.0022528504 0 0.00080773631)
(0.0022336156 0 0.00081457975)
(0.0022086085 0 0.0008307441)
(0.0021765019 0 0.00086109656)
(0.002135858 0 0.00091191543)
(0.0020852552 0 0.00099070362)
(0.0020234629 0 0.0011069089)
(0.0019496264 0 0.0012707056)
(0.0018634878 0 0.0014920092)
(0.001765567 0 0.0017789267)
(0.0016572046 0 0.0021356059)
(0.0015404717 0 0.0025604223)
(0.0014178289 0 0.0030454297)
(0.0012922227 0 0.0035743827)
(0.0011663815 0 0.0041270344)
(0.0010430827 0 0.0046776159)
(0.00092485674 0 0.0052015339)
(0.00081366545 0 0.0056752808)
(0.0007107338 0 0.0060825192)
(0.00061681233 0 0.0064109994)
(0.00053203129 0 0.0066527474)
(0.00045604476 0 0.0068054246)
(0.00038868107 0 0.0068644808)
(0.00032863859 0 0.0068313964)
(0.00027584348 0 0.0067013242)
(0.00022937749 0 0.0064768936)
(0.00018845064 0 0.0061381208)
(0.00015188914 0 0.0056804782)
(0.00011931546 0 0.0050840338)
(8.9696567e-05 0 0.0043363891)
(6.230316e-05 0 0.0033820022)
(3.6098273e-05 0 0.0022029853)
(1.0372706e-05 0 0.00073588517)
(0.0023092972 0 0.00056234746)
(0.0023092745 0 0.00056075818)
(0.0023092179 0 0.00055889261)
(0.0023091128 0 0.00055669686)
(0.0023089385 0 0.00055412382)
(0.0023086659 0 0.00055111503)
(0.0023082551 0 0.00054761423)
(0.0023076513 0 0.00054355967)
(0.0023067801 0 0.00053890039)
(0.0023055405 0 0.00053359355)
(0.0023037971 0 0.00052762644)
(0.0023013685 0 0.00052102838)
(0.0022980147 0 0.00051390282)
(0.0022934199 0 0.00050646654)
(0.002287174 0 0.00049910647)
(0.0022787502 0 0.00049247375)
(0.0022674834 0 0.0004875852)
(0.0022525502 0 0.00048604465)
(0.0022329526 0 0.00049033269)
(0.0022075217 0 0.00050376158)
(0.0021749378 0 0.00053166434)
(0.002133763 0 0.00058053028)
(0.0020826058 0 0.00065767889)
(0.0020203016 0 0.00077312501)
(0.0019460601 0 0.00093726427)
(0.0018597129 0 0.0011602238)
(0.0017618603 0 0.0014503375)
(0.0016539003 0 0.0018118794)
(0.0015378939 0 0.0022434562)
(0.0014162553 0 0.0027372186)
(0.0012917925 0 0.0032772335)
(0.0011671199 0 0.003843182)
(0.0010448836 0 0.0044093656)
(0.00092749596 0 0.0049510351)
(0.00081688043 0 0.0054443732)
(0.00071426999 0 0.0058722913)
(0.00062045094 0 0.0062218807)
(0.00053559569 0 0.0064847695)
(0.00045943493 0 0.0066577892)
(0.00039178272 0 0.0067364428)
(0.00033148165 0 0.0067216149)
(0.00027836459 0 0.0066088368)
(0.00023158099 0 0.0063997087)
(0.00019033663 0 0.006075912)
(0.00015351403 0 0.0056317843)
(0.0001206719 0 0.0050479838)
(9.0811513e-05 0 0.004310801)
(6.3168188e-05 0 0.0033670855)
(3.6702905e-05 0 0.0021958495)
(1.0634375e-05 0 0.00073430363)
(0.0023091613 0 0.00026380423)
(0.0023091306 0 0.00026204285)
(0.0023090638 0 0.00025996978)
(0.0023089461 0 0.00025751889)
(0.0023087558 0 0.00025462839)
(0.0023084632 0 0.00025123365)
(0.0023080272 0 0.00024726558)
(0.0023073912 0 0.00024265505)
(0.002306479 0 0.00023733554)
(0.0023051871 0 0.00023125318)
(0.0023033766 0 0.00022437676)
(0.0023008623 0 0.00021671734)
(0.0022973991 0 0.00020835564)
(0.002292665 0 0.00019948199)
(0.0022862423 0 0.00019045813)
(0.0022775961 0 0.00018189526)
(0.0022660529 0 0.00017480197)
(0.0022507849 0 0.00017073943)
(0.0022307866 0 0.00017259556)
(0.0022048979 0 0.00018391202)
(0.0021718061 0 0.00020953127)
(0.0021300501 0 0.00025599949)
(0.0020782921 0 0.00033159535)
(0.0020154454 0 0.00044653985)
(0.0019407813 0 0.00061127996)
(0.0018542272 0 0.00083611427)
(0.0017564714 0 0.0011295741)
(0.0016489666 0 0.0014960105)
(0.0015337673 0 0.0019342003)
(0.001413231 0 0.0024363865)
(0.0012900302 0 0.0029868883)
(0.0011666527 0 0.0035653914)
(0.0010456114 0 0.0041462577)
(0.00092920015 0 0.0047046782)
(0.00081929605 0 0.0052165716)
(0.0007171332 0 0.0056642048)
(0.00062353126 0 0.0060340497)
(0.00053870226 0 0.0063173445)
(0.00046245031 0 0.0065101411)
(0.00039458464 0 0.0066079125)
(0.0003340782 0 0.0066110159)
(0.0002806905 0 0.0065152552)
(0.00023363011 0 0.0063213279)
(0.00019210304 0 0.0060123357)
(0.00015504428 0 0.0055816752)
(0.00012195803 0 0.005010484)
(9.1875887e-05 0 0.0042839092)
(6.4000054e-05 0 0.0033509438)
(3.7287535e-05 0 0.0021878468)
(1.0886407e-05 0 0.00073239794)
(0.0023077989 0 -2.8333831e-05)
(0.0023077591 0 -3.0308568e-05)
(0.0023076808 0 -3.2633759e-05)
(0.0023075484 0 -3.5376701e-05)
(0.0023073396 0 -3.8601917e-05)
(0.0023070234 0 -4.2386114e-05)
(0.0023065574 0 -4.6808006e-05)
(0.0023058836 0 -5.1953695e-05)
(0.0023049233 0 -5.7903115e-05)
(0.0023035704 0 -6.4731958e-05)
(0.0023016826 0 -7.2490004e-05)
(0.0022990701 0 -8.118999e-05)
(0.0022954821 0 -9.0775182e-05)
(0.00229059 0 -0.00010108085)
(0.0022839676 0 -0.00011177803)
(0.0022750704 0 -0.00012228035)
(0.0022632157 0 -0.00013161746)
(0.0022475891 0 -0.0001377574)
(0.0022271836 0 -0.00013806591)
(0.0022007999 0 -0.00012867651)
(0.0021671173 0 -0.00010514731)
(0.0021247316 0 -6.0936497e-05)
(0.0020723562 0 1.3150204e-05)
(0.0020089276 0 0.00012710982)
(0.001933825 0 0.00029274541)
(0.0018470689 0 0.00051969567)
(0.0017494415 0 0.00081668042)
(0.0016424487 0 0.0011880602)
(0.0015281363 0 0.0016327472)
(0.0014087997 0 0.0021430538)
(0.0012869722 0 0.0027035147)
(0.0011650106 0 0.003293866)
(0.0010452886 0 0.0038885322)
(0.00092998444 0 0.004462729)
(0.00082091916 0 0.0049921642)
(0.00071932551 0 0.0054585473)
(0.00062605078 0 0.0058477817)
(0.00054134678 0 0.0061507279)
(0.00046508535 0 0.0063627043)
(0.00039708104 0 0.006479087)
(0.00033642352 0 0.0064997616)
(0.00028281684 0 0.0064207171)
(0.00023552082 0 0.0062418497)
(0.00019374672 0 0.0059474788)
(0.00015647781 0 0.0055302113)
(0.0001231725 0 0.0049715866)
(9.2887443e-05 0 0.0042557471)
(6.4796923e-05 0 0.0033336076)
(3.7850726e-05 0 0.0021789955)
(1.1127791e-05 0 0.00073017258)
(0.0023052456 0 -0.0003141585)
(0.0023051943 0 -0.00031630862)
(0.0023051019 0 -0.00031884601)
(0.0023049519 0 -0.00032184906)
(0.0023047212 0 -0.00032539506)
(0.0023043776 0 -0.00032956695)
(0.0023038772 0 -0.00033445526)
(0.00230316 0 -0.00034015424)
(0.0023021451 0 -0.00034675907)
(0.0023007231 0 -0.00035435764)
(0.0022987479 0 -0.00036301868)
(0.0022960246 0 -0.00037277454)
(0.0022922964 0 -0.0003835925)
(0.0022872269 0 -0.00039533656)
(0.0022803805 0 -0.00040770925)
(0.0022712028 0 -0.00042019038)
(0.0022590288 0 -0.00043141385)
(0.0022430286 0 -0.00043936643)
(0.00222216 0 -0.00044167985)
(0.0021952281 0 -0.00043456221)
(0.0021609159 0 -0.0004130769)
(0.0021178584 0 -0.00037044867)
(0.0020648051 0 -0.00029763385)
(0.0020007724 0 -0.00018454525)
(0.0019252262 0 -1.8418274e-05)
(0.0018382765 0 0.00021089775)
(0.0017408133 0 0.00051160562)
(0.0016343905 0 0.00088800017)
(0.0015210466 0 0.0013390909)
(0.0014030048 0 0.0018572449)
(0.0012826592 0 0.0024271665)
(0.0011622267 0 0.0030287028)
(0.0010439412 0 0.0036363216)
(0.00092986579 0 0.0042253575)
(0.00082176048 0 0.0047713434)
(0.00072085109 0 0.0052555251)
(0.00062801002 0 0.0056632828)
(0.00054352636 0 0.0059851185)
(0.00046733616 0 0.0062156626)
(0.00039926632 0 0.0063501289)
(0.00033851264 0 0.0063879922)
(0.00028473813 0 0.006325342)
(0.00023724849 0 0.0061613709)
(0.00019526332 0 0.0058814237)
(0.0001578111 0 0.0054774598)
(0.00012431207 0 0.0049313423)
(9.3845131e-05 0 0.0042263428)
(6.5558185e-05 0 0.0033151036)
(3.839265e-05 0 0.0021693079)
(1.135967e-05 0 0.00072763409)
(0.0023015384 0 -0.00059383978)
(0.0023014742 0 -0.00059620175)
(0.0023013657 0 -0.00059898865)
(0.0023011956 0 -0.00060228096)
(0.0023009397 0 -0.00060615876)
(0.0023005645 0 -0.00061071743)
(0.0023000246 0 -0.00061605702)
(0.0022992579 0 -0.00062228915)
(0.0022981808 0 -0.00062952243)
(0.0022966806 0 -0.00063786601)
(0.0022946068 0 -0.00064740706)
(0.0022917592 0 -0.00065820115)
(0.0022878743 0 -0.00067023737)
(0.0022826071 0 -0.00068340061)
(0.0022755113 0 -0.00069740742)
(0.0022660425 0 -0.00071169203)
(0.0022535326 0 -0.00072463237)
(0.0022371117 0 -0.00073457925)
(0.0022157371 0 -0.00073894746)
(0.0021882105 0 -0.00073395255)
(0.0021532234 0 -0.00071441612)
(0.0021094456 0 -0.0006733278)
(0.0020556764 0 -0.00060152473)
(0.0019910146 0 -0.00048847636)
(0.0019149992 0 -0.00032223654)
(0.0018278904 0 -9.0259881e-05)
(0.001730632 0 0.00021439383)
(0.0016248413 0 0.00059588224)
(0.0015125479 0 0.0010533021)
(0.0013958952 0 0.0015790522)
(0.0012771338 0 0.0021579715)
(0.0011583378 0 0.0027700625)
(0.0010415977 0 0.0033898181)
(0.00092886512 0 0.0039927843)
(0.00082183247 0 0.0045543548)
(0.00072171676 0 0.0050553905)
(0.00062941074 0 0.0054807995)
(0.00054524003 0 0.0058207503)
(0.00046919983 0 0.0060692252)
(0.00040113669 0 0.0062212252)
(0.00034034221 0 0.0062758654)
(0.00028645103 0 0.0062292651)
(0.00023880986 0 0.0060799913)
(0.00019665014 0 0.0058142569)
(0.00015904237 0 0.0054234831)
(0.00012537552 0 0.0048898039)
(9.4746673e-05 0 0.0041957305)
(6.6281986e-05 0 0.0032954629)
(3.8911763e-05 0 0.0021588)
(1.1581074e-05 0 0.00072478855)
(0.0022967104 0 -0.0008674657)
(0.0022966312 0 -0.00087000101)
(0.0022965041 0 -0.00087299616)
(0.0022963108 0 -0.00087654401)
(0.0022960262 0 -0.00088073831)
(0.0022956153 0 -0.00088568093)
(0.0022950308 0 -0.00089148433)
(0.0022942085 0 -0.00089826822)
(0.0022930617 0 -0.00090615677)
(0.0022914741 0 -0.0009152704)
(0.0022892907 0 -0.00092571551)
(0.0022863055 0 -0.00093756621)
(0.0022822475 0 -0.00095083643)
(0.0022767632 0 -0.00096544211)
(0.0022693985 0 -0.00098114658)
(0.0022596206 0 -0.0009969445)
(0.0022467414 0 -0.0010116796)
(0.0022298642 0 -0.0010235724)
(0.0022079408 0 -0.0010299632)
(0.0021797721 0 -0.0010270019)
(0.002144062 0 -0.0010093254)
(0.0020995172 0 -0.00096968794)
(0.0020449953 0 -0.00089865741)
(0.0019796694 0 -0.00078538035)
(0.0019032043 0 -0.00061814525)
(0.0018159535 0 -0.00038384194)
(0.0017189433 0 -7.5001456e-05)
(0.0016138492 0 0.00031167033)
(0.0015026904 0 0.00077535874)
(0.0013875192 0 0.0013084756)
(0.0012704411 0 0.0018959521)
(0.001153382 0 0.0025180051)
(0.0010382888 0 0.0031491134)
(0.00092700461 0 0.0037651368)
(0.00082115051 0 0.0043413516)
(0.00072193105 0 0.0048583151)
(0.00063025701 0 0.0053005106)
(0.00054648793 0 0.0056578013)
(0.00047067472 0 0.005923561)
(0.00040268836 0 0.0060925285)
(0.00034190839 0 0.0061635152)
(0.00028795105 0 0.0061326027)
(0.0002402009 0 0.0059978068)
(0.00019790322 0 0.0057460606)
(0.00016016826 0 0.0053683483)
(0.00012635967 0 0.0048470231)
(9.559108e-05 0 0.0041639417)
(6.6967704e-05 0 0.0032747119)
(3.9408248e-05 0 0.0021474873)
(1.179301e-05 0 0.00072164063)
(0.0022907909 0 -0.0011352001)
(0.0022906947 0 -0.001137946)
(0.0022905467 0 -0.0011411897)
(0.0022903277 0 -0.001145026)
(0.002290011 0 -0.0011495515)
(0.0022895603 0 -0.0011548807)
(0.0022889264 0 -0.0011611354)
(0.0022880424 0 -0.0011684521)
(0.0022868186 0 -0.001176969)
(0.0022851345 0 -0.0011868273)
(0.00228283 0 -0.0011981517)
(0.0022796927 0 -0.0012110386)
(0.0022754435 0 -0.0012255225)
(0.0022697183 0 -0.0012415335)
(0.002262075 0 -0.0012588284)
(0.0022519757 0 -0.0012761963)
(0.0022386869 0 -0.0012926882)
(0.0022213129 0 -0.0013064772)
(0.0021987957 0 -0.0013148458)
(0.002169936 0 -0.0013138428)
(0.0021334538 0 -0.0012979303)
(0.0020880972 0 -0.0012596271)
(0.002032791 0 -0.0011891082)
(0.0019667879 0 -0.0010752978)
(0.0018898855 0 -0.000906142)
(0.001802491 0 -0.0006698269)
(0.0017057972 0 -0.00035653916)
(0.0016014678 0 3.5402024e-05)
(0.0014915287 0 0.00050530982)
(0.0013779304 0 0.0010455794)
(0.0012626293 0 0.0016411973)
(0.0011474011 0 0.0022726465)
(0.0010340644 0 0.0029149982)
(0.00092432358 0 0.0035432676)
(0.00081974139 0 0.0041331697)
(0.00072151092 0 0.0046650699)
(0.00063055758 0 0.0051230997)
(0.0005472723 0 0.0054964867)
(0.00047176047 0 0.0057788628)
(0.00040391955 0 0.0059642139)
(0.00034320925 0 0.0060510928)
(0.00028923593 0 0.0060354864)
(0.00024141912 0 0.0059149177)
(0.00019902038 0 0.0056769206)
(0.00016118724 0 0.0053121195)
(0.00012726346 0 0.0048030535)
(9.6376084e-05 0 0.0041310124)
(6.7613469e-05 0 0.0032528823)
(3.9880478e-05 0 0.0021353841)
(1.1994526e-05 0 0.00071819782)
(0.0022838141 0 -0.0013971276)
(0.0022836992 0 -0.0014000509)
(0.002283528 0 -0.0014035092)
(0.0022832803 0 -0.0014076078)
(0.002282928 0 -0.0014124558)
(0.0022824331 0 -0.0014181734)
(0.0022817443 0 -0.0014248942)
(0.002280792 0 -0.0014327631)
(0.002279483 0 -0.0014419328)
(0.0022776926 0 -0.0014525578)
(0.0022752553 0 -0.0014647821)
(0.0022719517 0 -0.0014787233)
(0.0022674943 0 -0.0014944467)
(0.002261511 0 -0.0015119281)
(0.002253574 0 -0.0015305128)
(0.002243121 0 -0.0015495077)
(0.0022293917 0 -0.0015677506)
(0.0022114812 0 -0.0015834115)
(0.0021883238 0 -0.0015937171)
(0.0021587228 0 -0.0015946111)
(0.0021214185 0 -0.0015803728)
(0.0020752075 0 -0.0015432993)
(0.0020190909 0 -0.001472997)
(0.0019523997 0 -0.0013583397)
(0.0018750565 0 -0.0011869087)
(0.0017875791 0 -0.0009476528)
(0.0016912441 0 -0.00063025945)
(0.0015877486 0 -0.00023296725)
(0.0014791168 0 0.00024311764)
(0.0013671812 0 0.0007903378)
(0.0012537718 0 0.0013943224)
(0.0011404724 0 0.0020348072)
(0.0010289749 0 0.0026877409)
(0.00092085292 0 0.0033274358)
(0.00081762612 0 0.0039300507)
(0.00072046911 0 0.0044758847)
(0.0006303174 0 0.0049487945)
(0.00054759529 0 0.0053373842)
(0.00047245752 0 0.0056352867)
(0.00040482825 0 0.0058364214)
(0.00034424213 0 0.0059387242)
(0.00029030216 0 0.0059380271)
(0.00024246115 0 0.0058314184)
(0.00019999808 0 0.005606918)
(0.00016209616 0 0.0052548637)
(0.00012808383 0 0.0047579472)
(9.7100758e-05 0 0.0040969768)
(6.8218666e-05 0 0.0032300007)
(4.0328639e-05 0 0.0021225091)
(1.2186522e-05 0 0.00071446352)
(0.0022758096 0 -0.0016534032)
(0.0022756737 0 -0.0016565366)
(0.0022754765 0 -0.001660243)
(0.0022751968 0 -0.0016646298)
(0.0022748051 0 -0.0016698097)
(0.0022742617 0 -0.0016759144)
(0.0022735127 0 -0.0016830873)
(0.0022724856 0 -0.0016914897)
(0.0022710836 0 -0.0017012877)
(0.002269177 0 -0.0017126567)
(0.0022665944 0 -0.0017257574)
(0.0022631082 0 -0.0017407311)
(0.0022584215 0 -0.0017576552)
(0.002252173 0 -0.0017765186)
(0.0022439322 0 -0.0017964817)
(0.0022330884 0 -0.0018170385)
(0.0022188812 0 -0.0018370003)
(0.0022003915 0 -0.0018544984)
(0.0021765454 0 -0.0018667027)
(0.0021461517 0 -0.0018694322)
(0.002107976 0 -0.0018567446)
(0.0020609032 0 -0.0018200718)
(0.0020039603 0 -0.0017496217)
(0.0019365745 0 -0.0016338431)
(0.0018587763 0 -0.0014604511)
(0.0017712713 0 -0.0012173018)
(0.0016753215 0 -0.00089610512)
(0.001572749 0 -0.0004934149)
(0.0014655143 0 -1.1191933e-05)
(0.0013553734 0 0.00054347702)
(0.001243952 0 0.0011557503)
(0.0011326497 0 0.0018048626)
(0.0010230414 0 0.0024670639)
(0.00091661182 0 0.0031172612)
(0.00081481817 0 0.0037316373)
(0.00071881536 0 0.0042904646)
(0.00062954493 0 0.0047773701)
(0.00054746263 0 0.0051807144)
(0.00047276537 0 0.0054930121)
(0.0004054146 0 0.0057093117)
(0.00034500649 0 0.0058265523)
(0.00029114853 0 0.0058403508)
(0.00024332528 0 0.0057474076)
(0.00020083466 0 0.0055361375)
(0.00016289378 0 0.005196646)
(0.00012881988 0 0.0047117585)
(9.7762841e-05 0 0.004061872)
(6.8781405e-05 0 0.0032060995)
(4.0751037e-05 0 0.0021088754)
(1.236805e-05 0 0.00071044599)
(0.0022668068 0 -0.0019041125)
(0.002266648 0 -0.0019074304)
(0.0022664228 0 -0.0019113572)
(0.0022661085 0 -0.0019160095)
(0.002265674 0 -0.0019215106)
(0.0022650777 0 -0.001928)
(0.002264263 0 -0.0019356336)
(0.0022631545 0 -0.0019445812)
(0.0022616509 0 -0.0019550264)
(0.0022596181 0 -0.0019671563)
(0.0022568774 0 -0.001981156)
(0.0022531942 0 -0.0019971865)
(0.0022482624 0 -0.002015368)
(0.0022417367 0 -0.0020353547)
(0.0022331607 0 -0.0020567597)
(0.0022218987 0 -0.0020788843)
(0.0022071772 0 -0.0021005472)
(0.0021880641 0 -0.002119851)
(0.0021634783 0 -0.0021339305)
(0.0021322413 0 -0.0021384298)
(0.0020932007 0 -0.002126554)
(0.0020452434 0 -0.0020899517)
(0.0019874299 0 -0.0020190112)
(0.0019193287 0 -0.0019017633)
(0.0018410992 0 -0.0017261542)
(0.0017535849 0 -0.0014794339)
(0.0016580794 0 -0.0011541868)
(0.0015565252 0 -0.00074600058)
(0.0014508368 0 -0.00025690787)
(0.0013425982 0 0.00030541137)
(0.0012332084 0 0.00092522582)
(0.0011239574 0 0.0015822395)
(0.0010162985 0 0.0022529214)
(0.0009116276 0 0.0029127456)
(0.00081133851 0 0.0035379709)
(0.00071656423 0 0.0041088848)
(0.00062824976 0 0.0046089237)
(0.00054687738 0 0.0050262259)
(0.00047268853 0 0.0053525306)
(0.00040567831 0 0.005583013)
(0.00034550086 0 0.0057146936)
(0.00029177253 0 0.0057425622)
(0.00024400878 0 0.005662977)
(0.00020152705 0 0.0054646578)
(0.00016357718 0 0.0051375327)
(0.0001294687 0 0.0046645399)
(9.8361475e-05 0 0.0040257344)
(6.9301078e-05 0 0.0031812057)
(4.1147847e-05 0 0.0020945037)
(1.2539954e-05 0 0.00070614891)
(0.002256839 0 -0.0021493878)
(0.0022566551 0 -0.0021528985)
(0.0022563991 0 -0.0021570542)
(0.0022560467 0 -0.002161978)
(0.0022555653 0 -0.002167802)
(0.002254911 0 -0.0021746744)
(0.0022540246 0 -0.0021827624)
(0.0022528271 0 -0.0021922486)
(0.002251213 0 -0.0022033308)
(0.0022490423 0 -0.0022162123)
(0.0022461293 0 -0.0022310948)
(0.0022422301 0 -0.0022481565)
(0.002237047 0 -0.002267538)
(0.0022302336 0 -0.0022887334)
(0.0022212905 0 -0.0023115131)
(0.002209576 0 -0.0023351758)
(0.0021943008 0 -0.0023585032)
(0.0021745173 0 -0.0023795733)
(0.002149139 0 -0.0023955133)
(0.0021170633 0 -0.0024011475)
(0.0020771279 0 -0.0023897834)
(0.0020282054 0 -0.0023534973)
(0.0019694975 0 -0.0022818425)
(0.001900685 0 -0.0021627669)
(0.0018220717 0 -0.0019840263)
(0.0017345568 0 -0.0017339535)
(0.0016396167 0 -0.0014038782)
(0.0015392106 0 -0.00098992008)
(0.0014351968 0 -0.00049347034)
(0.0013288991 0 7.5894535e-05)
(0.0012215889 0 0.00070266817)
(0.0011144389 0 0.0013669028)
(0.0010087833 0 0.0020453153)
(0.00090593076 0 0.002713936)
(0.0008072103 0 0.003349137)
(0.00071373273 0 0.0039312605)
(0.0006264433 0 0.0044435885)
(0.0005458487 0 0.0048740594)
(0.00047223184 0 0.0052140054)
(0.00040562108 0 0.0054579896)
(0.00034572602 0 0.0056032833)
(0.00029217396 0 0.0056447804)
(0.00024451073 0 0.0055782231)
(0.00020207409 0 0.0053925623)
(0.0001641454 0 0.0050775893)
(0.00013002953 0 0.0046163462)
(9.8894424e-05 0 0.0039886026)
(6.9775789e-05 0 0.0031553529)
(4.1517334e-05 0 0.0020794072)
(1.2701256e-05 0 0.00070158015)
(0.0022459309 0 -0.0023893367)
(0.0022457197 0 -0.0023930406)
(0.0022454301 0 -0.0023974262)
(0.0022450364 0 -0.0024026231)
(0.0022445042 0 -0.0024087712)
(0.0022437871 0 -0.0024160279)
(0.0022428231 0 -0.0024245714)
(0.0022415295 0 -0.002434596)
(0.002239796 0 -0.0024463144)
(0.0022374769 0 -0.0024599467)
(0.0022343791 0 -0.0024757149)
(0.0022302502 0 -0.0024938233)
(0.0022248048 0 -0.002514211)
(0.0022176767 0 -0.0025366627)
(0.0022083407 0 -0.0025608341)
(0.0021961414 0 -0.0025860103)
(0.0021802723 0 -0.0026109666)
(0.0021597707 0 -0.002633717)
(0.0021335911 0 -0.0026511275)
(0.0021006497 0 -0.0026575994)
(0.002059731 0 -0.0026470188)
(0.0020098065 0 -0.0026108544)
(0.0019501893 0 -0.0025381988)
(0.001880675 0 -0.0024169239)
(0.0018017036 0 -0.0022346804)
(0.0017142924 0 -0.0019803655)
(0.001620009 0 -0.0016453385)
(0.0015209166 0 -0.0012245493)
(0.0014186354 0 -0.00072121473)
(0.0013143232 0 -0.00014527691)
(0.0012091389 0 0.00048791142)
(0.0011041353 0 0.0011587318)
(0.0010005312 0 0.0018441657)
(0.00089955027 0 0.0025207995)
(0.0008024564 0 0.0031651427)
(0.00071033763 0 0.0037576337)
(0.00062413721 0 0.0042814353)
(0.00054438381 0 0.0047243028)
(0.00047139863 0 0.0050771899)
(0.00040524492 0 0.0053343726)
(0.00034567995 0 0.0054924283)
(0.0002923512 0 0.0055471027)
(0.00024482904 0 0.0054932336)
(0.00020247318 0 0.0053199274)
(0.00016459579 0 0.0050168813)
(0.00013049963 0 0.0045672301)
(9.9360912e-05 0 0.0039505149)
(7.020494e-05 0 0.0031285685)
(4.1859637e-05 0 0.0020636078)
(1.2852754e-05 0 0.00069674415)
(0.0022341086 0 -0.0026240682)
(0.0022338678 0 -0.0026279655)
(0.0022335419 0 -0.002632581)
(0.0022331036 0 -0.0026380509)
(0.0022325164 0 -0.002644523)
(0.0022317316 0 -0.0026521634)
(0.0022306839 0 -0.0026611608)
(0.0022292866 0 -0.002671722)
(0.0022274244 0 -0.0026840729)
(0.002224945 0 -0.0026984487)
(0.0022216469 0 -0.0027150883)
(0.0022172799 0 -0.0027342302)
(0.0022115616 0 -0.0027556652)
(0.0022040925 0 -0.0027793251)
(0.0021943347 0 -0.0028048462)
(0.0021816154 0 -0.0028315122)
(0.0021651118 0 -0.0028580635)
(0.0021438549 0 -0.002882521)
(0.0021168582 0 -0.0029008372)
(0.0020829777 0 -0.0029083138)
(0.0020410262 0 -0.0028983593)
(0.001990068 0 -0.0028621133)
(0.0019295365 0 -0.0027881105)
(0.0018593387 0 -0.0026642479)
(0.0017800594 0 -0.0024781289)
(0.0016928539 0 -0.0022186373)
(0.0015993601 0 -0.0018781189)
(0.0015017112 0 -0.0014502167)
(0.001401204 0 -0.00094032672)
(0.001298922 0 -0.00035825096)
(0.0011959068 0 0.00028084587)
(0.0010930907 0 0.00095765872)
(0.00099158055 0 0.0016494406)
(0.00089251822 0 0.0023333476)
(0.00079710197 0 0.0029860373)
(0.00070639804 0 0.0035880866)
(0.00062134514 0 0.0041225673)
(0.00054249202 0 0.0045770752)
(0.00047019488 0 0.0049422056)
(0.00040455167 0 0.0052119973)
(0.0003453645 0 0.0053822451)
(0.00029230506 0 0.0054496403)
(0.00024496354 0 0.0054081017)
(0.00020272369 0 0.0052468339)
(0.00016492772 0 0.0049554744)
(0.0001308784 0 0.004517247)
(9.9758725e-05 0 0.0039115111)
(7.0586626e-05 0 0.0031008872)
(4.2173004e-05 0 0.0020471195)
(1.299345e-05 0 0.00069164863)
(0.0022213984 0 -0.0028536891)
(0.0022211257 0 -0.0028577799)
(0.0022207607 0 -0.0028626254)
(0.0022202743 0 -0.0028683682)
(0.0022196281 0 -0.0028751638)
(0.0022187705 0 -0.0028831871)
(0.002217633 0 -0.002892637)
(0.0022161246 0 -0.0029037311)
(0.0022141249 0 -0.0029167077)
(0.0022114747 0 -0.0029318142)
(0.0022079648 0 -0.0029492972)
(0.0022033472 0 -0.0029693914)
(0.0021973346 0 -0.0029919226)
(0.0021895007 0 -0.0030167957)
(0.0021792915 0 -0.0030436578)
(0.0021660165 0 -0.0030717695)
(0.0021488333 0 -0.0030998464)
(0.0021268063 0 -0.0031257243)
(0.0020989502 0 -0.0031450609)
(0.0020640641 0 -0.0031533778)
(0.0020210293 0 -0.0031438879)
(0.0019690538 0 -0.0031067422)
(0.001907619 0 -0.0030309586)
(0.0018367645 0 -0.0029041267)
(0.0017572337 0 -0.0027138166)
(0.0016702739 0 -0.0024495036)
(0.0015777991 0 -0.0021017119)
(0.0014816334 0 -0.0016671773)
(0.0013829481 0 -0.0011510592)
(0.0012827417 0 -0.00056324615)
(0.0011819375 0 8.1287885e-05)
(0.0010813461 0 0.00076354036)
(0.00098196683 0 0.0014610346)
(0.00088486424 0 0.0021515194)
(0.00079117089 0 0.0028117991)
(0.00070193212 0 0.0034226328)
(0.00061808036 0 0.0039670285)
(0.00054018212 0 0.0044324431)
(0.00046862613 0 0.0048091329)
(0.00040354397 0 0.0050909539)
(0.00034478267 0 0.0052730941)
(0.00029203483 0 0.005352483)
(0.00024491277 0 0.0053229104)
(0.00020282347 0 0.0051733552)
(0.00016513876 0 0.0048934325)
(0.00013116328 0 0.0044664494)
(0.0001000872 0 0.0038716313)
(7.0920293e-05 0 0.0030723379)
(4.2457546e-05 0 0.0020299652)
(1.3124106e-05 0 0.00068629865)
(0.002207825 0 -0.0030783038)
(0.0022075181 0 -0.0030825884)
(0.0022071111 0 -0.0030876644)
(0.0022065733 0 -0.0030936808)
(0.0022058637 0 -0.003100801)
(0.0022049281 0 -0.0031092092)
(0.0022036942 0 -0.0031191148)
(0.0022020666 0 -0.0031307486)
(0.0021999189 0 -0.0031443641)
(0.0021970846 0 -0.0031602289)
(0.0021933455 0 -0.0031786196)
(0.0021884666 0 -0.0031995992)
(0.0021821434 0 -0.0032231664)
(0.0021739217 0 -0.0032492113)
(0.0021632313 0 -0.0032773712)
(0.0021493636 0 -0.0033069087)
(0.0021314652 0 -0.0033365374)
(0.0021086514 0 -0.0033633506)
(0.0020798677 0 -0.0033837876)
(0.0020439248 0 -0.003392809)
(0.0019998147 0 -0.0033832047)
(0.0019468251 0 -0.0033447121)
(0.0018844766 0 -0.0032667114)
(0.0018129962 0 -0.0031365334)
(0.001733268 0 -0.0029416274)
(0.0016467128 0 -0.0026718172)
(0.0015553728 0 -0.0023166844)
(0.0014607313 0 -0.0018756677)
(0.0013639188 0 -0.0013536097)
(0.0012658335 0 -0.00076042823)
(0.0011672793 0 -0.00011089334)
(0.0010689454 0 0.00057628413)
(0.00097172852 0 0.0012788882)
(0.00087662111 0 0.001975297)
(0.0007846894 0 0.0026424465)
(0.00069696049 0 0.0032613237)
(0.00061435806 0 0.0038148947)
(0.00053746507 0 0.004290501)
(0.00046669985 0 0.0046780739)
(0.00040222815 0 0.0049713474)
(0.00034393813 0 0.0051650905)
(0.00029154081 0 0.0052557327)
(0.00024467728 0 0.0052377484)
(0.00020277239 0 0.0050995696)
(0.0001652286 0 0.0048308207)
(0.00013135384 0 0.0044148931)
(0.00010034414 0 0.0038309167)
(7.1204006e-05 0 0.0030429555)
(4.2711503e-05 0 0.0020121601)
(1.3243696e-05 0 0.0006807019)
(0.0021934157 0 -0.0032980151)
(0.002193072 0 -0.003302494)