/*--------------------------------*- C++ -*----------------------------------*\
  =========                 |
  \\      /  F ield         | OpenFOAM: The Open Source CFD Toolbox
   \\    /   O peration     | Website:  https://openfoam.org
    \\  /    A nd           | Version:  8
     \\/     M anipulation  |
\*---------------------------------------------------------------------------*/
FoamFile
{
    version     2.0;
    format      ascii;
    class       volScalarField;
    location    "0.269994";
    object      Ma;
}
// * * * * * * * * * * * * * * * * * * * * * * * * * * * * * * * * * * * * * //

dimensions      [0 0 0 0 0 0 0];

internalField   nonuniform List<scalar> 
20000
(
0.77911523
0.90696484
0.98934323
1.0606448
1.1286656
1.1957664
1.2474514
1.2599028
1.2540244
1.2560445
1.251185
1.2511566
1.2466956
1.2448201
1.2399512
1.2360645
1.2299698
1.2236272
1.2153299
1.2057688
1.194053
1.180134
1.1635097
1.1438005
1.1207146
1.0939377
1.0635577
1.0299157
0.99397013
0.95715155
0.92150117
0.88903741
0.86109732
0.83796291
0.81931198
0.80450678
0.79284896
0.78374088
0.77669993
0.77121547
0.76686048
0.76346835
0.76083516
0.75880272
0.75717124
0.75579
0.75389546
0.75264154
0.7517877
0.75085207
0.77945091
0.90787108
0.99057112
1.0622061
1.130632
1.1983801
1.2472085
1.2581001
1.2520025
1.2540697
1.2490662
1.2490295
1.2444359
1.2424841
1.237474
1.2334367
1.2271634
1.2205903
1.2120432
1.2021613
1.1900962
1.1757607
1.1586866
1.1384953
1.1149394
1.0877799
1.0572295
1.0238067
0.98858438
0.95293014
0.91856707
0.88718599
0.85998875
0.83732317
0.81895733
0.80432351
0.79275919
0.78371179
0.7767032
0.77123305
0.76688297
0.76349162
0.76085613
0.75881738
0.75718574
0.75576356
0.75384068
0.75255133
0.75155951
0.75095052
0.77865441
0.90770467
0.99098341
1.0631833
1.1321796
1.2007936
1.2466073
1.2560248
1.2498462
1.251964
1.2468296
1.2467736
1.2420586
1.2400193
1.2348777
1.2306835
1.2242399
1.2174347
1.2086466
1.1984464
1.1860422
1.1712923
1.1537728
1.1330895
1.1090459
1.0814597
1.0506666
1.0173352
0.98264666
0.94794621
0.91474407
0.88445442
0.85811007
0.83605038
0.81809742
0.80375122
0.7923834
0.78347247
0.77654822
0.77112647
0.76680758
0.7634385
0.76081682
0.75878144
0.75715268
0.75566313
0.75373102
0.75243823
0.75148711
0.75098283
0.77802712
0.90776211
0.99158458
1.0643076
1.1338017
1.2032441
1.245714
1.25395
1.2475765
1.2497289
1.2444575
1.244374
1.2395344
1.2374016
1.2321246
1.2277669
1.2211476
1.2141025
1.2050656
1.1945366
1.1817813
1.1666012
1.1486175
1.1274185
1.1028609
1.0748192
1.0437554
1.0104804
0.97627817
0.94247597
0.91040855
0.88124341
0.85583477
0.83447771
0.81702444
0.80303093
0.79190585
0.78316321
0.77634642
0.77099011
0.76671382
0.76337427
0.76077132
0.75874421
0.75711222
0.75552708
0.75359499
0.75232342
0.7514285
0.75101624
0.77736256
0.90774323
0.99210861
1.0653694
1.1353507
1.2055898
1.2444542
1.2516737
1.245153
1.2473379
1.2419372
1.2418197
1.2368583
1.2346226
1.2292092
1.2246778
1.2178788
1.2105834
1.2012893
1.1904199
1.1773005
1.1616744
1.143207
1.1214705
1.0963755
1.0678577
1.0365068
1.0032672
0.9695115
0.93655087
0.90557717
0.87754367
0.85312746
0.8325514
0.81567607
0.80210368
0.79127728
0.78274388
0.77606432
0.77079502
0.76657719
0.76327861
0.7607029
0.75869192
0.75705276
0.75533447
0.75342462
0.75221722
0.75139909
0.75104119
0.77672107
0.90774278
0.99264553
1.0664529
1.136909
1.2078336
1.2428676
1.2492771
1.2426026
1.2448077
1.2392776
1.2391151
1.2340307
1.2316818
1.2261288
1.2214135
1.2144282
1.2068704
1.1973069
1.1860812
1.1725787
1.1564839
1.137506
1.1152046
1.0895457
1.0605354
1.028895
0.99569773
0.96238972
0.93025778
0.9003641
0.87347119
0.85008737
0.83035004
0.81411292
0.80101461
0.79052976
0.78223765
0.77571937
0.7705552
0.76640896
0.76316037
0.76061878
0.75863178
0.75698259
0.75509221
0.75323205
0.75211232
0.75137258
0.75106484
0.77605619
0.90770556
0.99314479
1.0675188
1.13846
1.209868
1.2409325
1.2467281
1.2399133
1.2421319
1.2364769
1.2362603
1.2310536
1.228582
1.2228876
1.2179783
1.2107998
1.2029666
1.1931211
1.1815226
1.1676167
1.1510291
1.1315131
1.1086191
1.0823719
1.0528583
1.0209359
0.9877998
0.95495323
0.92364866
0.89482661
0.86907815
0.84675355
0.82789796
0.81234742
0.79976904
0.78966491
0.78164419
0.77531005
0.77026846
0.76620678
0.76301727
0.76051693
0.75856239
0.75690314
0.75481314
0.75302209
0.75199602
0.751346
0.7510888
0.77542556
0.90767208
0.9936373
1.0685945
1.1400404
1.2117412
1.2386689
1.244053
1.2371007
1.2393201
1.2335418
1.2332604
1.2279319
1.2253286
1.2194906
1.2143763
1.2069961
1.1988739
1.1887324
1.1767431
1.1624106
1.1453039
1.1252196
1.1017043
1.0748457
1.044824
1.0126375
0.97959569
0.94724138
0.91677985
0.88903193
0.86443183
0.84318368
0.82523958
0.81041161
0.79838911
0.78869749
0.78097337
0.77484299
0.76993943
0.76597395
0.76285165
0.7603991
0.75848481
0.75681546
0.75452167
0.75279741
0.75185833
0.75130634
0.75111713
0.77480806
0.90762657
0.99411914
1.0696721
1.1416587
1.2133828
1.2361012
1.2412422
1.2341601
1.2363698
1.2304734
1.2301194
1.2246717
1.2219273
1.2159424
1.210611
1.2030199
1.1945948
1.1841424
1.1717426
1.1569585
1.1393051
1.118622
1.094457
1.0669675
1.0364403
1.0040174
0.97111347
0.93929211
0.90969808
0.88303223
0.85958364
0.83942201
0.82240885
0.80832942
0.79689096
0.78763801
0.78023186
0.77432229
0.76957056
0.76571192
0.7626644
0.76026586
0.75839766
0.75671234
0.75423493
0.75256867
0.75169936
0.75123879
0.75115505
0.77418418
0.9075802
0.99460568
1.0707597
1.1433417
1.2147524
1.23341
1.2383016
1.2311002
1.2332905
1.2272816
1.2268459
1.2212797
1.2183827
1.2122454
1.2066839
1.1988725
1.1901307
1.1793509
1.166519
1.1512562
1.1330274
1.1117143
1.0868722
1.0587361
1.0277142
0.9950934
0.96238115
0.93114286
0.90244878
0.87687791
0.85458375
0.83551297
0.81944139
0.80612737
0.79529343
0.78649932
0.7794283
0.77375368
0.76916562
0.76542323
0.76245738
0.7601187
0.75829895
0.75657979
0.75396303
0.75235045
0.75153324
0.75113791
0.75121497
0.77356217
0.90753931
0.99509892
1.0718583
1.1451121
1.2157999
1.2305415
1.235241
1.2279304
1.2300913
1.2239734
1.2234445
1.2177582
1.2146954
1.2084
1.2025964
1.1945557
1.1854823
1.174356
1.1610684
1.1452981
1.1264646
1.10449
1.0789447
1.0501519
1.0186555
0.98588556
0.95342781
0.92282948
0.89507279
0.87061265
0.84947533
0.83149525
0.81636876
0.80382943
0.79361387
0.78529355
0.77857088
0.77314264
0.76872822
0.76511027
0.76223235
0.75995926
0.75818631
0.7564024
0.75370859
0.75214979
0.75137725
0.75101042
0.75130402
0.77295366
0.9075287
0.99560984
1.0729832
1.1469996
1.216482
1.2275026
1.2320724
1.2246579
1.2267767
1.2205507
1.2199151
1.2141064
1.2108654
1.2044073
1.1983506
1.1900704
1.1806485
1.1691542
1.1553856
1.1390781
1.1196097
1.0969419
1.0706696
1.0412165
1.0092756
0.97641588
0.94428367
0.91438774
0.88760932
0.86427729
0.84429829
0.82740483
0.81322086
0.80145884
0.79186957
0.78403301
0.77766813
0.77249501
0.76826232
0.76477568
0.76199138
0.75978956
0.75805855
0.75617422
0.75346675
0.75196513
0.75123934
0.75089869
0.75141519
0.77233575
0.90754355
0.99615321
1.0741318
1.1489801
1.2167967
1.2243021
1.2287914
1.2212793
1.2233428
1.2170108
1.2162553
1.2103236
1.206894
1.2002701
1.1939487
1.185416
1.175626
1.1637397
1.1494638
1.1325884
1.1124544
1.0890615
1.062041
1.031932
0.99958778
0.96670773
0.93497927
0.9058521
0.88009456
0.85790832
0.83908791
0.82327367
0.81002458
0.79903694
0.79007675
0.78272952
0.77672836
0.77181656
0.7677719
0.76442214
0.76173665
0.75961196
0.75791622
0.75589935
0.75322954
0.75179864
0.75112998
0.75083341
0.7515407
0.77170505
0.90755507
0.99671915
1.0753018
1.1510232
1.2167197
1.2209366
1.2253994
1.217793
1.219788
1.2133524
1.2124659
1.2064126
1.2027856
1.1959913
1.1893907
1.1805891
1.1704092
1.1581059
1.1432959
1.125821
1.1049897
1.0808398
1.0530544
1.0223028
0.98960789
0.95678695
0.92554648
0.89725691
0.87256315
0.85153971
0.83387643
0.81913085
0.80680463
0.79658361
0.78825078
0.78139451
0.77575972
0.77111305
0.76726101
0.76405236
0.76147044
0.75942911
0.7577612
0.75558189
0.75299571
0.75165809
0.75105843
0.75079732
0.75167397
0.77110014
0.90759636
0.99733773
1.0765153
1.1531149
1.2161625
1.217415
1.221893
1.2141969
1.216111
1.2095784
1.2085525
1.2023794
1.1985441
1.1915709
1.1846732
1.1755834
1.1649916
1.1522455
1.1368737
1.1187663
1.0972049
1.0722672
1.043705
1.0123348
0.97935389
0.94668082
0.9160174
0.88863526
0.86504729
0.84520214
0.82869257
0.81500218
0.80358303
0.79411686
0.78640588
0.78003875
0.77477004
0.77039003
0.76673363
0.76366905
0.76119506
0.75924317
0.7575948
0.75522693
0.75276821
0.75154708
0.75102442
0.75078684
0.75180838
0.77047788
0.90763783
0.99798878
1.0777697
1.1552014
1.21515
1.2138614
1.2182702
1.2104964
1.2123209
1.2056981
1.204523
1.1982282
1.1941689
1.1870043
1.1797893
1.1703918
1.1593662
1.1461508
1.1301883
1.1114137
1.0890885
1.0633336
1.0339902
1.0020372
0.96884703
0.93641903
0.90642511
0.88001993
0.85757777
0.83892413
0.82356242
0.81091087
0.80037959
0.79165304
0.78455516
0.77867231
0.77376678
0.76965289
0.76619363
0.76327496
0.76091283
0.75905475
0.75741379
0.75484456
0.75254956
0.75145882
0.75101505
0.75079245
0.75195047
0.76983364
0.90769244
0.99869169
1.0790981
1.1572487
1.2136804
1.2101737
1.2145519
1.2067081
1.2084303
1.2017183
1.200379
1.1939553
1.1896534
1.1822831
1.1747316
1.1650074
1.1535262
1.1398135
1.1232291
1.1037511
1.0806276
1.0540291
1.0239084
0.99142157
0.95811105
0.92603256
0.89680256
0.87144236
0.85018321
0.83273139
0.81850906
0.8068772
0.79721163
0.78920667
0.7827105
0.77730448
0.77275695
0.76890671
0.76564467
0.7628729
0.76062619
0.75886218
0.7572066
0.75444998
0.75234359
0.75138714
0.75102084
0.75080649
0.75210325
0.76919708
0.90778292
0.99948648
1.0805491
1.1592157
1.2117745
1.2064069
1.2107449
1.2028336
1.2044376
1.197634
1.1961122
1.1895517
1.1849885
1.1773998
1.1694939
1.1594242
1.1474648
1.133224
1.1159846
1.0957652
1.0718089
1.0443443
1.0134612
0.98050334
0.94717304
0.91555448
0.88718326
0.86293352
0.84289086
0.82664764
0.81355324
0.80291914
0.79409443
0.78679066
0.78088264
0.77594377
0.77174706
0.76815637
0.76509021
0.76246585
0.76033777
0.7586621
0.75695331
0.75406235
0.75215808
0.7513346
0.75103615
0.75083112
0.75226687
0.76856087
0.90789919
1.0003623
1.0821428
1.1610276
1.2094168
1.2025473
1.2068429
1.198864
1.2003329
1.1934344
1.1917122
1.1850079
1.1801675
1.172349
1.1640719
1.1536365
1.1411736
1.1263709
1.1084414
1.0874415
1.0626182
1.034271
1.0026523
0.96930109
0.93606241
0.90501868
0.87760035
0.85452297
0.83572584
0.82069405
0.80871299
0.79905206
0.79104105
0.78441626
0.77908111
0.77459781
0.77074305
0.7674064
0.76453355
0.76205689
0.76005054
0.75845112
0.75663387
0.75370208
0.75199844
0.75130814
0.75106989
0.75089312
0.75243563
0.7679651
0.90805698
1.0013252
1.0839211
1.1626285
1.2066108
1.1985956
1.2028374
1.1947871
1.196103
1.189109
1.1871712
1.1803192
1.1751871
1.1671274
1.1584612
1.1476371
1.1346423
1.1192412
1.1005851
1.0787646
1.0530414
1.0238029
0.99148982
0.95783786
0.9248117
0.89446053
0.86808715
0.84623945
0.82871188
0.81488994
0.80400417
0.79528921
0.78806277
0.78209324
0.77731437
0.77327348
0.76975028
0.76666096
0.76397781
0.76164915
0.75976773
0.75822821
0.75624477
0.75338349
0.75186262
0.75130243
0.75112752
0.7510254
0.75260202
0.76736467
0.9082149
1.0023285
1.0858798
1.1639154
1.2033094
1.1945247
1.1987116
1.1905924
1.1917412
1.1846542
1.1824879
1.1754841
1.1700456
1.1617314
1.1526561
1.1414165
1.1278582
1.1118202
1.0923998
1.0697176
1.0430641
1.0129357
0.97998544
0.94614
0.91345548
0.88391593
0.85867623
0.83811011
0.82187054
0.80925218
0.79944009
0.79164147
0.785169
0.77982991
0.77558962
0.77197682
0.76877347
0.7659238
0.76342602
0.76124565
0.75949205
0.75799478
0.75581028
0.7531058
0.75175328
0.75130663
0.7511848
0.7512426
0.75276625
0.76671629
0.90833121
1.0033442
1.0880396
1.1647991
1.1995425
1.1903283
1.1944601
1.1862787
1.18725
1.180073
1.1776635
1.170502
1.1647403
1.1561557
1.1466481
1.1349629
1.1208073
1.1040925
1.0838689
1.0602833
1.0326732
1.001669
0.96815564
0.93423797
0.90203094
0.87342198
0.84940008
0.83016104
0.8152216
0.80379562
0.79503206
0.78811794
0.78236769
0.7776333
0.77391295
0.77071314
0.76781678
0.76519821
0.76288105
0.7608491
0.7592242
0.75774968
0.75535671
0.75286644
0.75167607
0.75131882
0.75122686
0.7515693
0.75292538
0.76603728
0.90842242
1.0043704
1.0904246
1.165229
1.1955776
1.1860066
1.1900933
1.1818514
1.1826329
1.1753661
1.1726966
1.1653693
1.159266
1.1503922
1.1404261
1.1282621
1.113474
1.0960415
1.0749741
1.0504431
1.0218565
0.9900056
0.95602131
0.92216578
0.89057727
0.86301618
0.84029041
0.8224164
0.80878217
0.79853252
0.7907893
0.78472591
0.77966511
0.77550899
0.77228931
0.76948689
0.7668838
0.76448697
0.76234562
0.76046192
0.75896176
0.75748296
0.75489505
0.75266282
0.75164056
0.75135552
0.75128969
0.75188751
0.75307343
0.76534682
0.90851323
1.0054059
1.0930438
1.1651531
1.1917265
1.1815876
1.1856304
1.1773187
1.1778872
1.1705283
1.167582
1.1600809
1.1536158
1.1444301
1.1339767
1.1212987
1.1058422
1.0876497
1.0656961
1.0401786
1.0106047
0.97795363
0.94360867
0.90996164
0.87913624
0.85273703
0.83137856
0.81489862
0.8025668
0.79347283
0.78671961
0.78147149
0.77706592
0.77346126
0.77072284
0.76830169
0.76597763
0.76379249
0.7618223
0.76008627
0.75869929
0.75717549
0.75443908
0.75248219
0.75162928
0.75141933
0.75136898
0.75220818
0.75320638
0.76470416
0.90863798
1.0064678
1.0959212
1.1645494
1.187528
1.1770753
1.1810672
1.1726733
1.1730095
1.1655566
1.1623152
1.1546296
1.1477793
1.1382561
1.1272847
1.1140566
1.0978951
1.0788981
1.0560138
1.0294714
0.99891125
0.96552632
0.93094912
0.89766761
0.86775139
0.84262312
0.82269424
0.80762708
0.79658681
0.78862382
0.78282921
0.77835943
0.77457273
0.77149284
0.76921726
0.76716033
0.7651009
0.76311689
0.76131352
0.75972425
0.75843016
0.75680406
0.75401204
0.75231745
0.751631
0.75150709
0.75147429
0.75249458
0.75332198
0.76402384
0.9087446
1.0074972
1.0989729
1.1633389
1.1831589
1.1724506
1.1763799
1.1678977
1.1679992
1.1604501
1.156891
1.1490046
1.1417431
1.1318549
1.1203347
1.1065198
1.0896148
1.069766
1.0459044
1.0183037
0.98677419
0.95274309
0.91807983
0.88532957
0.85646799
0.83271274
0.81426442
0.80061751
0.79085114
0.78399108
0.77912274
0.77539289
0.77218625
0.7696053
0.76777638
0.76606505
0.76425572
0.76246208
0.7608216
0.75937791
0.75815005
0.75635644
0.75364425
0.75217562
0.75163816
0.75160967
0.75162628
0.75274381
0.75342052
0.76332168
0.9088599
1.0085337
1.102176
1.1615079
1.1785935
1.167714
1.171569
1.1629898
1.1628388
1.1551995
1.1512981
1.1431921
1.1354919
1.1252117
1.113112
1.0986716
1.0809819
1.0602302
1.035344
1.0066598
0.97419672
0.93962979
0.90504329
0.87299631
0.84533177
0.8230415
0.80611011
0.7938805
0.78536732
0.77957967
0.77560234
0.77257193
0.76990585
0.76779981
0.76640372
0.76501804
0.76344356
0.76182983
0.76034872
0.75904855
0.75785901
0.75585922
0.75334581
0.75208136
0.75166858
0.7517099
0.75184752
0.75295896
0.75350406
0.76260148
0.90899202
1.0095979
1.1054508
1.1590365
1.1739887
1.1628596
1.1666293
1.1579454
1.157526
1.1497867
1.1455197
1.1371767
1.129012
1.1183129
1.1056018
1.0904939
1.0719743
1.0502651
1.0243081
0.99452749
0.96118858
0.92621928
0.89188732
0.86071932
0.83438801
0.81363933
0.79824401
0.78742238
0.78014378
0.77539631
0.77226726
0.76989233
0.76773145
0.76607885
0.76510106
0.76402204
0.76266517
0.76122179
0.75989695
0.75873538
0.75755708
0.755355
0.7531043
0.75203448
0.75172289
0.75179791
0.75213552
0.7531434
0.75357568
0.76183659
0.90914265
1.0107116
1.1086791
1.1559149
1.1691986
1.1578879
1.1615548
1.1527602
1.1520582
1.1441984
1.1395388
1.1309454
1.1222918
1.1111451
1.0977875
1.0819655
1.0625664
1.0398425
1.0127729
0.98189894
0.94776665
0.91255133
0.87866421
0.84855137
0.82367811
0.80452608
0.79067032
0.78124857
0.77519064
0.77144899
0.76911377
0.76734577
0.76566537
0.76444744
0.76386606
0.76307999
0.76192071
0.76063943
0.75946819
0.7584341
0.75723504
0.75486475
0.75290441
0.75201616
0.75179072
0.75188014
0.75242615
0.75330175
0.75363814
0.76102349
0.9093208
1.0119244
1.1117091
1.1522518
1.1642647
1.1527775
1.1563283
1.1474165
1.1464251
1.1384334
1.1333494
1.1244893
1.1153194
1.1036931
1.0896498
1.073062
1.0527298
1.0289333
1.0007167
0.96877281
0.93395596
0.89867276
0.8654307
0.83654517
0.81323596
0.79571059
0.78339278
0.77537166
0.77051854
0.7677424
0.76613718
0.76492488
0.76371297
0.76291203
0.76269169
0.76219293
0.76121039
0.76008413
0.75906408
0.75813712
0.75687103
0.75440657
0.75273107
0.75201191
0.75187323
0.75197056
0.75270309
0.75343773
0.75369305
0.76010025
0.90949426
1.0132429
1.1144649
1.1483163
1.1591619
1.1475197
1.1509416
1.1419115
1.1406176
1.1324751
1.1269491
1.1177989
1.1080812
1.0959382
1.0811653
1.0637549
1.042433
1.0175073
0.98812129
0.95515508
0.91979015
0.88463702
0.85224623
0.82474952
0.80308339
0.78719582
0.77642925
0.7698143
0.76613476
0.76426885
0.76333391
0.76263246
0.76187849
0.76147458
0.76157114
0.7613564
0.76053527
0.75955709
0.7586855
0.75783647
0.75644151
0.75400049
0.75257973
0.75201285
0.75196928
0.75208272
0.75295278
0.75355828
0.75374218
0.75908491
0.9096771
1.0146927
1.1168602
1.1439011
1.1539237
1.1421259
1.1453976
1.1362446
1.1346197
1.1263051
1.1203218
1.1108609
1.1005609
1.0878578
1.0723066
1.0540123
1.0316425
1.0055354
0.97497342
0.94106026
0.90531188
0.8705043
0.83917129
0.8132054
0.79323034
0.77899563
0.7698163
0.76459962
0.76203874
0.76100844
0.7607021
0.76048149
0.76015429
0.76013142
0.76050889
0.76055854
0.75989775
0.75905925
0.75833163
0.75752754
0.75595043
0.7536612
0.75245975
0.75202333
0.75207067
0.75224722
0.75317572
0.75366963
0.75378617
0.75800891
0.90988351
1.0162968
1.1188092
1.1391454
1.1485451
1.1365895
1.1396851
1.1304011
1.1284174
1.119911
1.1134462
1.1036564
1.0927379
1.0794258
1.0630421
1.0437994
1.0203236
0.99299017
0.96126673
0.92651248
0.89057263
0.85633972
0.82626337
0.80194167
0.78368338
0.77115025
0.76359226
0.75974033
0.75821385
0.75794079
0.75823823
0.7584741
0.75852668
0.75887703
0.75952197
0.75978593
0.75930057
0.75859121
0.75799896
0.75720835
0.75543498
0.75338863
0.75239077
0.75206923
0.75216559
0.75246524
0.75337349
0.75376961
0.75382531
0.7569219
0.91013161
1.0180582
1.1202246
1.1340551
1.1430163
1.1308936
1.1337849
1.1243601
1.1219963
1.113282
1.106316
1.0961615
1.0845853
1.0706111
1.0533376
1.0330793
1.0084415
0.97984822
0.94700309
0.91154662
0.87563271
0.84221114
0.81357339
0.79097481
0.77446736
0.76371488
0.75778758
0.75522665
0.75462146
0.75506282
0.75593431
0.75659908
0.75699639
0.75770926
0.75861336
0.75903635
0.75874372
0.75815324
0.75768054
0.75687299
0.75493324
0.75317362
0.75236275
0.7521211
0.75225546
0.75272147
0.75354452
0.7538561
0.75385934
0.75587545
0.91044941
1.0199509
1.1209615
1.1286736
1.1373123
1.1250142
1.1276773
1.1181074
1.1153441
1.1064103
1.0989193
1.0883514
1.0760737
1.0613781
1.0431561
1.021814
0.99596209
0.9660914
0.93219413
0.89620841
0.86055992
0.82818553
0.80114182
0.78031585
0.76563902
0.75673708
0.75241207
0.75100802
0.75124469
0.75238155
0.75378409
0.7548463
0.75556623
0.75662873
0.7577697
0.75832017
0.75822114
0.75774506
0.75736606
0.75650627
0.75447254
0.75299959
0.75235629
0.75219112
0.75234742
0.75298642
0.75369027
0.75392633
0.75388842
0.75486525
0.91084542
1.021913
1.120771
1.1230687
1.1314167
1.1189416
1.1213534
1.1116402
1.1084498
1.0992808
1.0912306
1.0802032
1.0671706
1.051687
1.0324587
1.0099647
0.98285317
0.95170874
0.91686262
0.88055432
0.84542756
0.81432522
0.78899714
0.76999277
0.75727044
0.75025198
0.74742661
0.74704037
0.74810053
0.74989142
0.7517838
0.75320685
0.75423191
0.75562851
0.75698539
0.75765237
0.75772231
0.7573651
0.75704612
0.75608957
0.75407409
0.75285743
0.75235967
0.75227448
0.75245953
0.7532325
0.75381372
0.75398522
0.75391242
0.75389955
0.91137523
1.0238916
1.1198163
1.1171375
1.1253326
1.1126793
1.1148096
1.1049531
1.1013016
1.0918731
1.0832229
1.0716802
1.0578364
1.0414969
1.0212056
0.99749291
0.96908549
0.93669813
0.90104391
0.86465093
0.83031088
0.80068344
0.77715841
0.7600721
0.74942234
0.74426572
0.74275564
0.7433329
0.74518584
0.74758477
0.74992528
0.75167612
0.75298927
0.75469881
0.75625442
0.75704624
0.75724216
0.75700921
0.75672836
0.75562305
0.75374651
0.75274632
0.75236914
0.75236325
0.7526103
0.75344651
0.75391793
0.75403346
0.75393383
0.75302097
0.91210713
1.0258221
1.118036
1.1109609
1.119057
1.1062221
1.1080362
1.0980298
1.0938786
1.0841565
1.0748574
1.0627388
1.0480318
1.0307659
1.0093562
0.98436079
0.95463464
0.92106825
0.88478652
0.84857399
0.81528334
0.78730228
0.76565203
0.75064674
0.74213562
0.73872451
0.73836545
0.7398974
0.74249226
0.74545276
0.7482011
0.75024849
0.75183292
0.7538329
0.75557588
0.75649918
0.75678886
0.75667053
0.75640057
0.75513785
0.7534789
0.75266768
0.75239528
0.75243379
0.75280677
0.75362456
0.75400577
0.75407269
0.75395174
0.75228234
0.91305716
1.0276067
1.1154387
1.1045307
1.1125743
1.0995551
1.1010144
1.0908458
1.0861468
1.07609
1.0660915
1.0533357
1.0377171
1.0194519
0.99686831
0.97053131
0.93948349
0.90484092
0.86815222
0.83240558
0.80041251
0.77421402
0.75454543
0.74179573
0.73542012
0.73353614
0.73427981
0.73672536
0.74000981
0.74348609
0.74660335
0.74891858
0.75075766
0.75302794
0.75495091
0.75600056
0.75637526
0.75633953
0.75606841
0.75466774
0.75325764
0.75261523
0.75242469
0.75250204
0.75303902
0.75377094
0.75408151
0.75410287
0.75396662
0.75174218
0.91426973
1.0291161
1.1119585
1.0978518
1.1058659
1.0926584
1.0937122
1.0833633
1.078061
1.0676289
1.0568854
1.043434
1.0268497
1.0075116
0.98369708
0.9559692
0.92362449
0.88805292
0.85121528
0.81622985
0.78575768
0.76145067
0.7439455
0.73356919
0.72922014
0.72866657
0.73050785
0.73380651
0.73772772
0.74167527
0.7451243
0.74768083
0.74975857
0.75228224
0.75437708
0.75554517
0.75600262
0.75601181
0.7557221
0.75423466
0.7530753
0.75258315
0.75246323
0.75257806
0.75326851
0.75389482
0.75414383
0.75412844
0.75397866
0.75126118
0.91580451
1.0302629
1.107566
1.0909165
1.0988983
1.085494
1.0860802
1.0755316
1.0695763
1.058733
1.0472018
1.0329934
1.0153913
0.99490075
0.96979511
0.94064286
0.90706239
0.87075668
0.83406045
0.80012828
0.771369
0.74907195
0.73395331
0.72598824
0.72343386
0.7241428
0.72703882
0.73112832
0.73563473
0.74001063
0.74375625
0.74652974
0.74883137
0.75159576
0.75385472
0.75512981
0.75565819
0.75568638
0.75534646
0.75386022
0.75292675
0.75256277
0.75251003
0.75268537
0.75347237
0.75399725
0.75419162
0.75414743
0.75398796
0.75084124
0.91768588
1.0308857
1.102189
1.0836968
1.0916143
1.0780057
1.0780668
1.0673065
1.0606604
1.0493696
1.0370042
1.0219703
1.0033005
0.98157034
0.95511346
0.92452805
0.88981755
0.85302025
0.81677909
0.78417581
0.75728988
0.73718575
0.72464103
0.71900823
0.71801378
0.7199762
0.72385988
0.7286778
0.73371943
0.73848258
0.74249167
0.74545983
0.7479725
0.75097
0.75338416
0.75475098
0.75532944
0.7553593
0.75491858
0.7535575
0.75281266
0.75254621
0.75255171
0.75283099
0.75364172
0.75407684
0.75422522
0.75415841
0.75399365
0.75039517
0.91989293
1.0307989
1.0957991
1.0761356
1.08395
1.0701496
1.0696423
1.0586682
1.0512907
1.0395047
1.026251
1.0103198
0.99052311
0.96746592
0.93960499
0.90761254
0.87192884
0.83492645
0.79946432
0.76843911
0.74357203
0.72592122
0.71604653
0.71252624
0.7129787
0.71615747
0.72095581
0.72644135
0.73197031
0.73708159
0.74132308
0.74446552
0.74717874
0.75040762
0.75296325
0.7544017
0.75500863
0.75502903
0.7545032
0.75331453
0.75272957
0.7525375
0.75259503
0.75301668
0.75377684
0.75413683
0.75424799
0.75416416
0.75399699
0.74982449
0.92239658
1.0298414
1.0887836
1.0681962
1.0758878
1.0619213
1.0608016
1.0496053
1.0414388
1.0290922
1.0148923
0.99798884
0.97699366
0.95252874
0.92322876
0.88989998
0.85345479
0.8165705
0.78220679
0.75297851
0.73031617
0.71538018
0.70815045
0.70646935
0.70834684
0.71267133
0.71831093
0.72440535
0.73037602
0.73579836
0.74024313
0.74354104
0.74644696
0.74991128
0.75258746
0.75407527
0.75469266
0.75470239
0.75410236
0.75311177
0.75266684
0.75254104
0.75263198
0.75321716
0.75388851
0.75418317
0.75426203
0.75416611
0.75399951
0.74900973
0.92519146
1.0279008
1.0820052
1.0599319
1.0674481
1.0533344
1.0515261
1.0400778
1.0310576
1.0180773
1.0028729
0.98490987
0.96264257
0.93670009
0.90595452
0.87141345
0.83447341
0.79805569
0.76509218
0.73785439
0.71766798
0.70562116
0.7008597
0.7008368
0.70411403
0.70949995
0.71590882
0.72255608
0.72892527
0.73462372
0.73924449
0.74268088
0.74577494
0.74948197
0.75225061
0.75376547
0.7543797
0.75438347
0.75373662
0.75294259
0.75261785
0.75254901
0.75268333
0.75339948
0.753982
0.75421958
0.75427099
0.75416605
0.75400086
0.74804964
0.9283515
1.0250164
1.0744767
1.0513743
1.0586175
1.0443488
1.0417666
1.0300116
1.0200892
1.0064051
0.99013559
0.97100554
0.94739667
0.91992571
0.88776735
0.85219771
0.81507976
0.77948776
0.74820196
0.72315547
0.70576275
0.69665999
0.6940689
0.69565718
0.70026241
0.70662459
0.713733
0.72088004
0.7276071
0.7335487
0.73832009
0.74188105
0.74516415
0.74911624
0.75194562
0.7534667
0.75406725
0.75407166
0.75341428
0.752806
0.75257315
0.75256331
0.75277065
0.75355504
0.75405666
0.75424737
0.75427585
0.75416285
0.75399988
0.74695897
0.93168558
1.0210708
1.0662265
1.042451
1.0493018
1.0348883
1.0314485
1.0193475
1.0084751
0.99401504
0.97660666
0.95620168
0.9311848
0.90215899
0.86867166
0.83232036
0.79538195
0.76096913
0.73161354
0.70902674
0.69469491
0.68842539
0.68774762
0.69093459
0.69677153
0.70402558
0.71176692
0.71936387
0.72641069
0.73256448
0.73746339
0.74114011
0.74462191
0.74880324
0.75166458
0.75317384
0.75375218
0.75376237
0.75314445
0.75269967
0.75254187
0.75258695
0.75289595
0.75368074
0.75411351
0.75426821
0.75427604
0.75415521
0.75399729
0.74570027
0.93495396
1.0160435
1.0574341
1.0330711
1.0394299
1.0248833
1.0205247
1.0080324
0.99615991
0.98083603
0.96220018
0.94042849
0.91393754
0.88336627
0.84869644
0.81187246
0.77549763
0.74259926
0.71541249
0.69564249
0.68451248
0.68078958
0.68193087
0.68664869
0.69361943
0.7016832
0.7099944
0.7179947
0.72532562
0.73166262
0.73666881
0.74045873
0.74415646
0.74852742
0.75139898
0.75288299
0.75343591
0.75345599
0.75292774
0.75261901
0.75252529
0.75261024
0.7530516
0.75378347
0.75415708
0.75428432
0.7542708
0.75414555
0.75399462
0.7442172
0.93795834
1.0100078
1.0480247
1.0231923
1.028953
1.0142843
1.0089493
0.99600926
0.98307199
0.96678198
0.94683564
0.92359944
0.89558926
0.86353354
0.82789827
0.79096567
0.75554778
0.72447742
0.69973794
0.68313973
0.67517853
0.67368744
0.67663198
0.68277697
0.69078304
0.69957764
0.70839957
0.71675995
0.72434177
0.7308351
0.7359318
0.73983767
0.74376543
0.74827737
0.75114119
0.7525934
0.75312688
0.75316754
0.75275436
0.75254204
0.75251384
0.75263426
0.75321704
0.75387473
0.75419208
0.75429418
0.75425638
0.75413664
0.75399285
0.74246154
0.94069298
1.0029789
1.0380089
1.0128087
1.0178353
1.0030458
0.99666505
0.98320151
0.96911764
0.95174627
0.93042121
0.90562761
0.87608579
0.84267325
0.80636246
0.76972763
0.73565323
0.70670643
0.68478218
0.67159498
0.66657045
0.66714239
0.6718341
0.67929357
0.68823886
0.69768945
0.70696705
0.71564756
0.7234494
0.73007443
0.73524867
0.7392764
0.74343755
0.74804601
0.75088641
0.75230849
0.75283457
0.75290957
0.75261192
0.75248192
0.75249397
0.75267274
0.75337313
0.75395327
0.75421646
0.75429758
0.7542447
0.75412814
0.75399163
0.74018193
0.94316143
0.99502788
1.0273084
1.0018859
1.0060275
0.99110658
0.98359525
0.96950821
0.95418498
0.93561772
0.9128422
0.88642838
0.85539514
0.82082977
0.78420127
0.74829567
0.71593642
0.68941818
0.67072484
0.66101647
0.65858694
0.6611773
0.66751191
0.67617152
0.68596321
0.6959995
0.70568191
0.7146458
0.72263909
0.7293737
0.73461631
0.73877304
0.74316119
0.74782563
0.75063366
0.75203319
0.75256503
0.75267991
0.75249378
0.75243358
0.75248403
0.75274436
0.75351164
0.75401521
0.75422919
0.75428507
0.75423124
0.75411914
0.75399063
0.73718681
0.94526681
0.98617196
1.015888
0.9903603
0.9934605
0.97837081
0.96962946
0.95480238
0.93814792
0.9182712
0.89397739
0.86593306
0.83351651
0.79808123
0.7615491
0.72680998
0.69652268
0.67280859
0.65769197
0.65130783
0.65121626
0.65578698
0.66363566
0.67338301
0.6839328
0.69448938
0.70452995
0.71374355
0.72190198
0.72872672
0.73403194
0.73832396
0.74292373
0.74761128
0.75038546
0.75177318
0.75232164
0.75247435
0.75238903
0.75239577
0.75249548
0.75285933
0.75362236
0.75405917
0.75423556
0.7542726
0.75421629
0.7541107
0.75398965
0.73324299
0.94693175
0.97641401
1.0036634
0.97813234
0.98001067
0.96469899
0.95462618
0.9389397
0.92087235
0.89956599
0.87373249
0.84410243
0.81048436
0.77453812
0.7385571
0.70541368
0.67755054
0.65710471
0.64573586
0.64233187
0.64449636
0.65094247
0.66017389
0.67089995
0.68212481
0.69314134
0.70349753
0.7129301
0.72122966
0.72812791
0.73349279
0.73792422
0.74271362
0.7474004
0.75014543
0.75153259
0.75210547
0.7522945
0.75229446
0.75234997
0.75251318
0.75300913
0.75370902
0.75408846
0.75423586
0.75425841
0.75420186
0.75410294
0.75398812
0.72820708
0.94761321
0.96566121
0.99048139
0.96504787
0.96552196
0.9499214
0.93842759
0.92176851
0.9022206
0.87939792
0.852037
0.82092788
0.78636937
0.75034008
0.71538765
0.68425994
0.65922345
0.64248304
0.63479432
0.63404109
0.63843397
0.64661034
0.65709384
0.66869465
0.68051725
0.69193851
0.70257174
0.71219535
0.72061433
0.72757227
0.73299598
0.73756818
0.74252203
0.74719211
0.7499144
0.7513092
0.75191309
0.75213916
0.75221536
0.75230655
0.75254193
0.75315951
0.75378269
0.75410699
0.75423109
0.75424371
0.75418814
0.75409517
0.75398612
0.72199811
0.94741584
0.95362994
0.97615719
0.95091974
0.94982734
0.93386236
0.92087745
0.90314729
0.88207397
0.85769568
0.82884558
0.79643161
0.7612786
0.72565164
0.69221216
0.6635179
0.64180117
0.62903669
0.62471312
0.6264806
0.63299662
0.64275365
0.65436201
0.66673976
0.67908883
0.69086467
0.70174021
0.71152959
0.72004862
0.7270552
0.73253834
0.73725001
0.74234308
0.74698554
0.74968995
0.75109541
0.75173534
0.75200739
0.75215402
0.75229275
0.75259359
0.75329741
0.75384226
0.7541188
0.75422361
0.75422891
0.75417494
0.75408707
0.75398358
0.71438124
0.94612936
0.94034193
0.96055247
0.93556652
0.93275815
0.91635847
0.90183799
0.88295677
0.86035305
0.83438479
0.80412777
0.77067043
0.73535581
0.70065762
0.66921547
0.64340254
0.62550955
0.61673946
0.61541486
0.61966542
0.628147