/*--------------------------------*- C++ -*----------------------------------*\
  =========                 |
  \\      /  F ield         | OpenFOAM: The Open Source CFD Toolbox
   \\    /   O peration     | Website:  https://openfoam.org
    \\  /    A nd           | Version:  8
     \\/     M anipulation  |
\*---------------------------------------------------------------------------*/
FoamFile
{
    version     2.0;
    format      ascii;
    class       surfaceScalarField;
    location    "0.269994";
    object      meshPhi;
}
// * * * * * * * * * * * * * * * * * * * * * * * * * * * * * * * * * * * * * //

dimensions      [0 3 -1 0 0 0 0];

internalField   nonuniform List<scalar> 
39600
(
3.3406795e-05
2.0714997e-06
-2.0639338e-06
3.3425168e-05
2.4957714e-06
-2.528773e-06
3.3446435e-05
2.9904198e-06
-3.0291091e-06
3.3473741e-05
3.5822039e-06
-3.6287068e-06
3.3508974e-05
4.2908897e-06
-4.3468729e-06
3.3553139e-05
5.1396189e-06
-5.2069252e-06
3.3608811e-05
6.1559248e-06
-6.2367132e-06
3.3678741e-05
7.3726381e-06
-7.4694658e-06
3.3764701e-05
8.8289466e-06
-8.9447444e-06
3.3871077e-05
1.0571404e-05
-1.0709552e-05
3.4004358e-05
1.2654965e-05
-1.2819508e-05
3.4177891e-05
1.514436e-05
-1.534016e-05
3.4409782e-05
1.8115371e-05
-1.8348288e-05
3.4723412e-05
2.1656139e-05
-2.1933325e-05
3.5121244e-05
2.5868931e-05
-2.619858e-05
3.5660395e-05
3.0871181e-05
-3.1263118e-05
3.624771e-05
3.6796761e-05
-3.7264317e-05
3.6892477e-05
4.3802695e-05
-4.4361114e-05
3.7934537e-05
5.2043541e-05
-5.2710896e-05
3.9585063e-05
6.1633167e-05
-6.2436504e-05
4.2076981e-05
7.2642196e-05
-7.3619598e-05
4.5756701e-05
8.50394e-05
-8.6242183e-05
5.0203602e-05
9.8895699e-05
-0.00010039552
5.5100115e-05
0.00011430812
-0.00011618697
6.0067814e-05
0.00013163401
-0.00013405851
6.8151097e-05
0.00015052285
-0.00015370642
7.9974342e-05
0.0001705292
-0.00017474469
0.00010103545
0.00018948193
-0.00019521466
0.00012927
0.00020439448
-0.00021232357
0.00016896668
0.00021472197
-0.00022564673
0.00021716322
0.00021994698
-0.00023494627
0.00026766518
0.00022599766
-0.00024636148
0.0003259096
0.00023422634
-0.00026175947
0.00039274325
0.00023909821
-0.00027511153
0.00046949796
0.00023595051
-0.00028181252
0.00054313534
0.00023028439
-0.00028740654
0.00062452173
0.00022505565
-0.00029433753
0.0006994047
0.00022493469
-0.00030699905
0.00078319382
0.0002383715
-0.00033369749
0.00087260871
0.00026825193
-0.00037945586
0.00096519461
0.00031007019
-0.00043695642
0.0010227392
0.00034617388
-0.00048371093
0.0010686679
0.00038144701
-0.00052465591
0.0011015816
0.00044066844
-0.00058823172
0.0011177981
0.00054207723
-0.00069032067
0.0010585436
0.00067941489
-0.00081979363
0.00088285945
0.00086158698
-0.00097847702
0.00074374034
0.0010810653
-0.0011669659
0.00051941837
0.0013351293
-0.0013935743
0.00080924384
-0.00082816195
2.686882e-05
2.0531717e-06
2.6887232e-05
2.4738009e-06
2.6910684e-05
2.9635553e-06
2.6938984e-05
3.5502269e-06
2.6970018e-05
4.2529593e-06
2.700366e-05
5.0944947e-06
2.7038575e-05
6.1022965e-06
2.7076814e-05
7.3088079e-06
2.7119786e-05
8.7529252e-06
2.7173289e-05
1.0480639e-05
2.7244137e-05
1.2546499e-05
2.7347429e-05
1.5014731e-05
2.7494442e-05
1.7960877e-05
2.7703828e-05
2.147285e-05
2.7965144e-05
2.5653548e-05
2.8316251e-05
3.0619168e-05
2.8723911e-05
3.6501025e-05
2.9218937e-05
4.3449048e-05
3.0074947e-05
5.161138e-05
3.149079e-05
6.1105662e-05
3.3692248e-05
7.19944e-05
3.69808e-05
8.4253716e-05
4.106002e-05
9.7920617e-05
4.5707071e-05
0.00011306443
5.0812327e-05
0.00012992224
5.8816099e-05
0.00014814289
7.0193967e-05
0.00016732033
9.0475127e-05
0.00018492563
0.00011794118
0.00019787189
0.00015652219
0.00020536226
0.00020331151
0.00020676065
0.00025305425
0.00020771711
0.00031111003
0.00020922634
0.00037698769
0.00020578062
0.00045352449
0.00019291934
0.00052714395
0.00017626987
0.00060910073
0.00015888283
0.00068461673
0.00014609463
0.00076905898
0.00014636397
0.0008601642
0.00016062092
0.00095450204
0.00018596971
0.0010162712
0.00020979993
0.0010639931
0.00023754396
0.0011020077
0.00029170143
0.0011188329
0.00039084456
0.001068832
0.00053478441
0.00089284871
0.00073939598
0.00076157108
0.00098895668
0.00053294122
0.0012682418
0.00078512145
2.0653812e-05
2.0421461e-06
2.0563895e-05
2.461385e-06
2.0476677e-05
2.9496204e-06
2.0407568e-05
3.5345209e-06
2.0360634e-05
4.2350294e-06
2.033194e-05
5.0737693e-06
2.0320982e-05
6.0779719e-06
2.0327832e-05
7.2799131e-06
2.0356219e-05
8.7181225e-06
2.0408328e-05
1.0438321e-05
2.0486593e-05
1.2494646e-05
2.0596564e-05
1.4951301e-05
2.0734922e-05
1.7883649e-05
2.0903328e-05
2.1380387e-05
2.1090909e-05
2.5544709e-05
2.1313098e-05
3.0491556e-05
2.1588588e-05
3.6350498e-05
2.1996944e-05
4.3265494e-05
2.2720438e-05
5.1383412e-05
2.3936326e-05
6.0824185e-05
2.5875796e-05
7.1642836e-05
2.8775912e-05
8.3820696e-05
3.2494354e-05
9.7360989e-05
3.6877298e-05
0.00011230882
4.2040258e-05
0.00012878559
4.9808823e-05
0.00014644102
6.069129e-05
0.00016490731
8.014901e-05
0.00018133504
0.00010684053
0.00019248242
0.00014438754
0.00019730782
0.0001897989
0.00019509133
0.00023888467
0.00019112817
0.0002963773
0.00018610119
0.00036167555
0.00017454265
0.00043756962
0.00015216467
0.00051133207
0.00012467111
0.0005934605
9.5143765e-05
0.00066972912
6.9591938e-05
0.00075466535
5.6543101e-05
0.00084768323
5.5296542e-05
0.00094389477
6.3932166e-05
0.0010090349
7.4518246e-05
0.0010590183
9.3827306e-05
0.0011015963
0.00014214042
0.0011206033
0.00023823722
0.0010767401
0.00038787174
0.00090269537
0.00061391688
0.00077856192
0.00089193832
0.00054681009
0.0011964653
0.00075885411
1.4902315e-05
2.0378167e-06
1.4793317e-05
2.4556509e-06
1.4677641e-05
2.9421305e-06
1.4566717e-05
3.525085e-06
1.4467212e-05
4.2236539e-06
1.4377557e-05
5.060598e-06
1.4302053e-05
6.0631382e-06
1.4246058e-05
7.2636785e-06
1.4216682e-05
8.700753e-06
1.4220222e-05
1.0420048e-05
1.4256885e-05
1.2475728e-05
1.4328938e-05
1.4931995e-05
1.4426239e-05
1.7864101e-05
1.4538373e-05
2.1361225e-05
1.4657047e-05
2.5526591e-05
1.4784739e-05
3.0474636e-05
1.4958167e-05
3.63325e-05
1.526525e-05
4.3242401e-05
1.5841209e-05
5.1352514e-05
1.6864884e-05
6.078073e-05
1.8551999e-05
7.1577562e-05
2.1104485e-05
8.3726921e-05
2.44863e-05
9.7203752e-05
2.8601639e-05
0.00011203094
3.3730099e-05
0.00012822536
4.1218457e-05
0.00014543711
5.1657666e-05
0.00016330213
7.0371836e-05
0.00017867193
9.6352842e-05
0.00018814127
0.00013289275
0.0001904738
0.0001770675
0.0001848453
0.00022555181
0.00017612835
0.00028245121
0.00016471566
0.00034724627
0.00014523409
0.00042246632
0.00011353528
0.00049641633
7.5310543e-05
0.00057871482
3.3655994e-05
0.00065574041
-4.779875e-06
0.00074127819
-3.1362242e-05
0.00083606381
-4.8242786e-05
0.0009341409
-5.6659752e-05
0.0010022559
-6.0118258e-05
0.0010547778
-5.0071216e-05
0.0011013195
-8.4833341e-06
0.0011228933
8.3716682e-05
0.0010837805
0.00023829193
0.00091239888
0.00048504231
0.00079424164
0.00079021593
0.00056006878
0.0011199115
0.00073028388
9.5905103e-06
2.0407931e-06
9.5499202e-06
2.4592043e-06
9.4921101e-06
2.9463293e-06
9.4118197e-06
3.5300898e-06
9.3151422e-06
4.2295767e-06
9.205189e-06
5.0676472e-06
9.0909592e-06
6.0715987e-06
8.9807228e-06
7.2739524e-06
8.8821865e-06
8.7134783e-06
8.8055525e-06
1.0436263e-05
8.7496749e-06
1.2496883e-05
8.7222594e-06
1.4960154e-05
8.7131264e-06
1.7901988e-05
8.7192667e-06
2.1412043e-05
8.7281767e-06
2.5593969e-05
8.7439715e-06
3.0561819e-05
8.7993642e-06
3.6441907e-05
8.9697365e-06
4.3375884e-05
9.3866952e-06
5.151143e-05
1.0218626e-05
6.0965444e-05
1.1657658e-05
7.1787849e-05
1.3888247e-05
8.396151e-05
1.6947083e-05
9.743801e-05
2.07873e-05
0.00011222101
2.5809322e-05
0.00012822892
3.2979817e-05
0.00014510615
4.3032971e-05
0.00016247
6.1126197e-05
0.00017688114
8.6448652e-05
0.00018478041
0.00012200049
0.00018478508
0.0001650339
0.00017595075
0.00021293988
0.00016265733
0.00026924819
0.00014500893
0.00033354781
0.00011777945
0.00040809377
7.6957373e-05
0.00048224113
2.8122004e-05
0.00056474586
-2.5656358e-05
0.00064254903
-7.708833e-05
0.00072878655
-0.00011742247
0.00082518975
-0.00015013509
0.00092509473
-0.00017599348
0.00099601
-0.00019420775
0.0010512959
-0.00019425863
0.0011014176
-0.0001602831
0.0011257178
-7.2856212e-05
0.0010903225
8.5872407e-05
0.00092202546
0.00035265151
0.00080881221
0.00068402534
0.00057280476
0.0010388037
0.00069942783
4.5311363e-06
2.0506986e-06
4.4798347e-06
2.4713511e-06
4.4129065e-06
2.9611725e-06
4.3300154e-06
3.5481443e-06
4.2386752e-06
4.2514072e-06
4.1395364e-06
5.0938693e-06
4.0384397e-06
6.1029436e-06
3.9367968e-06
7.3113162e-06
3.8356936e-06
8.7580643e-06
3.7387517e-06
1.0489725e-05
3.639716e-06
1.2561525e-05
3.5449691e-06
1.503919e-05
3.4448088e-06
1.7999681e-05
3.3443038e-06
2.1533874e-05
3.2405164e-06
2.5746338e-05
3.1347021e-06
3.0751509e-05
3.0560793e-06
3.6675379e-05
3.0800488e-06
4.3659369e-05
3.3370031e-06
5.1850681e-05
3.9804762e-06
6.1366722e-05
5.1737168e-06
7.2259385e-05
7.0962551e-06
8.4508132e-05
9.8355109e-06
9.804867e-05
1.3390386e-05
0.00011286359
1.8240812e-05
0.00012878775
2.5069557e-05
0.00014546064
3.4793157e-05
0.00016242445
5.237252e-05
0.00017594845
7.707391e-05
0.00018236979
0.00011165608
0.00018021176
0.00015361246
0.00016836304
0.00020094583
0.00015067135
0.0002566692
0.00012694914
0.00032045703
9.2161265e-05
0.00039434062
4.2408323e-05
0.0004686765
-1.6926813e-05
0.00055143101
-8.2823481e-05
0.00063004251
-0.00014738801
0.00071705046
-0.00020172064
0.00081492795
-0.00025052384
0.00091662335
-0.00029417651
0.00099026816
-0.00032780386
0.0010484799
-0.00033880878
0.0011019462
-0.00031339553
0.0011290264
-0.00023160917
0.0010965732
-6.9378502e-05
0.00093159366
0.0002168501
0.00082243482
0.00057353218
0.00058505607
0.00095324828
0.00066621932
-2.0052009e-07
2.067056e-06
-2.526881e-07
2.4908635e-06
-3.160256e-07
2.9843269e-06
-3.9120835e-07
3.5755953e-06
-4.7077973e-07
4.2840142e-06
-5.5723243e-07
5.1326975e-06
-6.4799444e-07
6.1493702e-06
-7.4621836e-07
7.367128e-06
-8.5556288e-07
8.8255687e-06
-9.7629787e-07
1.0571906e-05
-1.1182302e-06
1.2662176e-05
-1.2759856e-06
1.5163118e-05
-1.4598459e-06
1.815287e-05
-1.660515e-06
2.1723579e-05
-1.8750369e-06
2.5981211e-05
-2.0994121e-06
3.1040631e-05
-2.3045575e-06
3.7027516e-05
-2.4204955e-06
4.4085191e-05
-2.3218332e-06
5.2362093e-05
-1.8665137e-06
6.1975443e-05
-9.1221868e-07
7.2978249e-05
7.1670607e-07
8.5350346e-05
3.1351344e-06
9.9017831e-05
6.3867086e-06
0.00011394287
1.1003712e-05
0.0001298852
1.7474247e-05
0.00014647267
2.6926033e-05
0.00016312903
4.4085212e-05
0.00017582888
6.8194025e-05
0.00018085912
0.00010182842
0.0001766926
0.00014275738
0.00016201959
0.00018951191
0.0001401117
0.00024465735
0.0001104769
0.00030790631
6.8308901e-05
0.00038114685
9.8164397e-06
0.00045564825
-5.9898809e-05
0.00053870061
-0.00013791734
0.00061817037
-0.00021576833
0.00070600772
-0.0002843627
0.00080520159
-0.00034948642
0.00090865003
-0.00041125948
0.00098500378
-0.00046093172
0.0010462566
-0.00048376011
0.0011029231
-0.00046784364
0.0011327722
-0.00039256414
0.0011027051
-0.00022751411
0.00094114535
7.7589924e-05
0.00083528817
0.00045892309
0.00059686796
0.00086348824
0.00063073582
-4.6146268e-06
2.0898578e-06
-4.6487468e-06
2.5182514e-06
-4.6857932e-06
3.0169955e-06
-4.7351163e-06
3.6144821e-06
-4.7941095e-06
4.3303366e-06
-4.8701815e-06
5.1880432e-06
-4.9629378e-06
6.2157582e-06
-5.0768908e-06
7.447104e-06
-5.2158894e-06
8.9223066e-06
-5.3796517e-06
1.0689306e-05
-5.5778984e-06
1.2805064e-05
-5.8036901e-06
1.53374e-05
-6.0673363e-06
1.8365754e-05
-6.3574903e-06
2.1983844e-05
-6.6693325e-06
2.6299087e-05
-6.9963858e-06
3.1427111e-05
-7.3126642e-06
3.749549e-05
-7.5584588e-06
4.4649794e-05
-7.616011e-06
5.3040049e-05
-7.3487644e-06
6.2784701e-05
-6.6239137e-06
7.393696e-05
-5.2726714e-06
8.6478147e-05
-3.168265e-06
0.00010032919
-2.3165203e-07
0.00011543467
4.1064005e-06
0.00013149335
1.0207148e-05
0.00014811635
1.9428984e-05
0.0001645562
3.624615e-05
0.00017648641
5.9788441e-05
0.00018019712
9.2505646e-05
0.0001741557
0.00013244824
0.00015681895
0.00017861564
0.00013086511
0.0002331859
9.5488096e-05
0.00029587091
4.6129388e-05
0.00036848566
-2.0923666e-05
0.00044312479
-0.00010090846
0.00052651299
-0.0001910435
0.00060689769
-0.00028234244
0.00069561044
-0.00036547353
0.00079595726
-0.00044714097
0.00090112028
-0.00052728896
0.00098016987
-0.00059359387
0.0010445346
-0.00062911025
0.0011043041
-0.00062363409
0.0011368916
-0.00055568447
0.0011087855
-0.0003883749
0.00095069924
-6.4956491e-05
0.00084748865
0.00034029785
0.00060823521
0.00076959633
0.00059295158
-8.7538276e-06
2.1188647e-06
-8.7911764e-06
2.55326e-06
-8.8317811e-06
3.0591584e-06
-8.8864048e-06
3.6653834e-06
-8.9540071e-06
4.3918344e-06
-9.0424079e-06
5.2623153e-06
-9.1508579e-06
6.3053803e-06
-9.2844977e-06
7.5551368e-06
-9.4469114e-06
9.0523807e-06
-9.6388048e-06
1.08459e-05
-9.8708708e-06
1.2993606e-05
-1.0137131e-05
1.5564578e-05
-1.0450319e-05
1.86398e-05
-1.0800377e-05
2.2314816e-05
-1.1181472e-05
2.6698654e-05
-1.158793e-05
3.1909335e-05
-1.2002592e-05
3.8077521e-05
-1.2370311e-05
4.5350524e-05
-1.2576094e-05
5.3880581e-05
-1.2490221e-05
6.3787876e-05
-1.1986303e-05
7.5128123e-05
-1.0900728e-05
8.7883719e-05
-9.0977187e-06
0.00010197181
-6.4705176e-06
0.00011732171
-2.4437649e-06
0.0001335879
3.2705868e-06
0.00015035879
1.2287487e-05
0.00016666854
2.8826835e-05
0.00017787918
5.1830997e-05
0.00018033474
8.3662621e-05
0.00017254242
0.00012265836
0.00015270226
0.00016823017
0.00012287005
0.00022222642
8.1913928e-05
0.00028432628
2.5540197e-05
0.00035633381
-4.989521e-05
0.00043107844
-0.00014003162
0.00051482833
-0.00024227904
0.0005961815
-0.00034719871
0.00068581542
-0.00044516756
0.00078716091
-0.00054358131
0.00089398959
-0.00064232443
0.00097572149
-0.00072582284
0.0010432379
-0.00077488437
0.0011060407
-0.00078076798
0.0011413209
-0.00072097032
0.0011149006
-0.00055203347
0.0009603068
-0.00021088006
0.00085919667
0.00021776731
0.00061920905
0.00067176489
0.00055294252
-1.2633155e-05
2.1539888e-06
-1.269759e-05
2.5958572e-06
-1.2773108e-05
3.1107124e-06
-1.2862969e-05
3.7278198e-06
-1.2962329e-05
4.4673448e-06
-1.3076263e-05
5.353429e-06
-1.3203669e-05
6.4151143e-06
-1.3350768e-05
7.6870546e-06
-1.3522689e-05
9.2107986e-06
-1.3723192e-05
1.103588e-05
-1.3965887e-05
1.3221463e-05
-1.4248741e-05
1.5837895e-05
-1.4588612e-05
1.8968153e-05
-1.4980882e-05
2.2710188e-05
-1.5416322e-05
2.7174811e-05
-1.5896796e-05
3.2484073e-05
-1.6407219e-05
3.8771653e-05
-1.6885183e-05
4.6185134e-05
-1.7226392e-05
5.4880133e-05
-1.7311437e-05
6.498083e-05
-1.7019774e-05
7.6546077e-05
-1.6188182e-05
8.9558478e-05
-1.4673693e-05
0.00010393369
-1.2334597e-05
0.00011957938
-8.6270605e-06
0.0001361195
-3.3064753e-06
0.00015313845
5.5106979e-06
0.0001694082
2.1795873e-05
0.00017996941
4.4279581e-05
0.0001812622
7.5253468e-05
0.00017184849
0.00011333724
0.00014965294
0.00015831267
0.00011610439
0.00021174221
6.9735031e-05
0.00027324064
6.5302868e-06
0.00034465418
-7.7111443e-05
0.00041947045
-0.00017727538
0.00050358787
-0.00029160101
0.00058595284
-0.00041028518
0.00067655878
-0.00052338397
0.00077876027
-0.000638727
0.000887195
-0.00075621236
0.00097158663
-0.0008574188
0.0010422763
-0.0009208642
0.0011080557
-0.00093901718
0.0011459976
-0.00088816008
0.0011210886
-0.00071816884
0.0009700041
-0.00035995712
0.00087052667
9.1378601e-05
0.00062981347
0.00057002617
0.0005107001
-1.6235269e-05
2.1946942e-06
-1.630361e-05
2.6445361e-06
-1.6382837e-05
3.1686816e-06
-1.6476718e-05
3.796823e-06
-1.6581278e-05
4.5495556e-06
-1.6702846e-05
5.4517428e-06
-1.6841253e-05
6.532961e-06
-1.7003561e-05
7.828816e-06
-1.7195581e-05
9.3818425e-06
-1.7420988e-05
1.1242844e-05
-1.7695016e-05
1.3472239e-05
-1.8015742e-05
1.6142328e-05
-1.8405142e-05
1.9338039e-05
-1.885671e-05
2.3159341e-05
-1.9368342e-05
2.7721089e-05
-1.9936014e-05
3.3147882e-05
-2.0537408e-05
3.9573053e-05
-2.1120246e-05
4.7148143e-05
-2.1586059e-05
5.6033863e-05
-2.18317e-05
6.6357657e-05
-2.1743262e-05
7.8183803e-05
-2.1152004e-05
9.1493024e-05
-1.9911616e-05
0.00010620207
-1.7832528e-05
0.00012219117
-1.442798e-05
0.00013906305
-9.4949451e-06
0.00015641925
-8.865808e-07
0.00017273358
1.5139279e-05
0.0001827115
3.7108127e-05
0.00018293055
6.7258358e-05
0.00017201484
0.00010446956
0.0001475997
0.00014885363
0.00011048221
0.00020172954
5.884353e-05
0.00026261416
-1.1032641e-05
0.00033344342
-0.00010270985
0.0004082957
-0.00021277475
0.00049276591
-0.00033913843
0.00057614352
-0.00047169083
0.00066776635
-0.00060017955
0.00077072769
-0.00073266069
0.00088070184
-0.00086906343
0.00096772412
-0.00098846658
0.0010415988
-0.0010671214
0.0011103046
-0.0010984328
0.001150882
-0.0010573053
0.0011273932
-0.00088692234
0.00097981941
-0.00051234066
0.00088157917
-3.880561e-05
0.00064007691
0.00046458331
0.00046633743
-1.9576169e-05
2.2411465e-06
-1.9626654e-05
2.700337e-06
-1.9679925e-05
3.2353142e-06
-1.9747134e-05
3.8762645e-06
-1.9829046e-05
4.6442395e-06
-1.9936851e-05
5.564561e-06
-2.0072271e-05
6.6676878e-06
-2.0244688e-05
7.9900428e-06
-2.0459569e-05
9.5752768e-06
-2.0722446e-05
1.1475729e-05
-2.1047127e-05
1.3753603e-05
-2.1432399e-05
1.6483496e-05
-2.1899094e-05
1.9753139e-05
-2.2437228e-05
2.3665203e-05
-2.3037915e-05
2.8336763e-05
-2.3687008e-05
3.3893131e-05
-2.436662e-05
4.0470192e-05
-2.5049425e-05
4.8225523e-05
-2.5652042e-05
5.7327916e-05
-2.6063864e-05
6.7909712e-05
-2.6170397e-05
8.0032248e-05
-2.5804949e-05
9.3675996e-05
-2.4819492e-05
0.00010875985
-2.2976895e-05
0.00012513078
-1.9847929e-05
0.00014237315
-1.5278511e-05
0.00016011867
-6.8996452e-06
0.00017656338
8.8492512e-06
0.00018606115
3.0313611e-05
0.00018529481
5.9691459e-05
0.00017296725
9.6076311e-05
0.00014643005
0.00013986698
0.00010587788
0.00019218787
4.9138436e-05
0.00025245063
-2.7229996e-05
0.00032270249
-0.00012677969
0.00039755602
-0.00024661914
0.00048235798
-0.00038496591
0.00056671612
-0.00053146554
0.00065937769
-0.00067555862
0.0007630504
-0.00082535491
0.00087449932
-0.00098081697
0.00096411318
-0.0011188602
0.0010411693
-0.0012135041
0.0011127521
-0.0012588233
0.0011559453
-0.0012281668
0.001133825
-0.0010579781
0.00098976744
-0.00066779975
0.00089240617
-0.00017274436
0.00064998953
0.00035547215
0.00041986935
-2.2638834e-05
2.2925146e-06
-2.2637764e-05
2.7607151e-06
-2.2642984e-05
3.3062605e-06
-2.2676994e-05
3.9600743e-06
-2.2743785e-05
4.7440186e-06
-2.2851192e-05
5.6842954e-06
-2.3001627e-05
6.8121443e-06
-2.3201899e-05
8.164984e-06
-2.3456196e-05
9.7878449e-06
-2.3770225e-05
1.1734295e-05
-2.4153793e-05
1.4068456e-05
-2.460877e-05
1.6866781e-05
-2.5147537e-05
2.021912e-05
-2.5755817e-05
2.4229864e-05
-2.6412887e-05
2.9017706e-05
-2.7106784e-05
3.4710002e-05
-2.7851329e-05
4.1449436e-05
-2.8642938e-05
4.9405548e-05
-2.9407516e-05
5.8754153e-05
-3.0006628e-05
6.9626241e-05
-3.0304071e-05
8.2079263e-05
-3.0150864e-05
9.6093118e-05
-2.9399145e-05
0.00011158843
-2.777111e-05
0.00012837591
-2.4894277e-05
0.00014602733
-2.065698e-05
0.00016421408
-1.253275e-05
0.00018086877
2.9165631e-06
0.00018997439
2.3902688e-05
0.00018829231
5.2554595e-05
0.00017463208
8.8147316e-05
0.00014608275
0.00013133386
0.00010223427
0.00018308521
4.0551977e-05
0.00024272016
-4.2138567e-05
0.0003124019
-0.00014939719
0.00038722486
-0.00027888488
0.00047233811
-0.00042916403
0.00055762075
-0.00058965542
0.00065131826
-0.00074951829
0.00075569925
-0.00091684704
0.00086857154
-0.0010915915
0.00096073049
-0.0012487206
0.0010409525
-0.0013601184
0.0011153622
-0.001420279
0.0011611509
-0.0014008353
0.0011403959
-0.0012315299
0.00099985499
-0.00082652076
0.0009030679
-0.0003103914
0.00065957343
0.00024286598
0.00037139894
-2.5543538e-05
2.3504825e-06
-2.5558734e-05
2.8321271e-06
-2.5584771e-05
3.3938093e-06
-2.5638967e-05
4.0669187e-06
-2.5725409e-05
4.8736138e-06
-2.5847193e-05
5.8403053e-06
-2.6010412e-05
6.9988835e-06
-2.6219871e-05
8.3877411e-06
-2.648421e-05
1.0052547e-05
-2.6809515e-05
1.2048766e-05
-2.7206801e-05
1.4441938e-05
-2.7680546e-05
1.7310993e-05
-2.8235065e-05
2.0747372e-05
-2.8850965e-05
2.4858033e-05
-2.9512986e-05
2.9764463e-05
-3.0226027e-05
3.5599877e-05
-3.1026642e-05
4.2517071e-05
-3.1942575e-05
5.0696023e-05
-3.2882354e-05
6.0317289e-05
-3.3670959e-05
7.1506807e-05
-3.4158108e-05
8.4319582e-05
-3.4209903e-05
9.8738746e-05
-3.3672053e-05
0.00011467766
-3.2237487e-05
0.00013190958
-2.9586869e-05
0.00014999311
-2.5661816e-05
0.00016865128
-1.7815215e-05
0.00018559952
-2.6694151e-06
0.00019442052
1.7860811e-05
0.00019190862
4.5805759e-05
0.0001770141
8.062286e-05
0.00014656984
0.00012319952
9.9568564e-05
0.0001743735
3.3108805e-05
0.00023337689
-5.572614e-05
0.00030249401
-0.00017052548
0.00037725766
-0.00030952241
0.0004626543
-0.00047164757
0.00054878638
-0.00064612519
0.00064350923
-0.00082187779
0.0007486252
-0.001006924
0.00086287996
-0.0012011343
0.00095753425
-0.0013777546
0.0010408998
-0.00150663
0.0011180903
-0.0015824313
0.0011664659
-0.0015749263
0.0011471101
-0.0014071671
0.001010093
-0.00098824072
0.00091360666
-0.0004517235
0.00066883518
0.00012678327
0.00032095036
-2.8286849e-05
2.4129925e-06
-2.8367076e-05
2.9074095e-06
-2.8458495e-05
3.4843017e-06
-2.8564978e-05
4.1759528e-06
-2.8688921e-05
5.0049803e-06
-2.8835094e-05
5.9988564e-06
-2.9010906e-05
7.1903558e-06
-2.922252e-05
8.6187243e-06
-2.9481526e-05
1.0331302e-05
-2.9796548e-05
1.2384323e-05
-3.0179604e-05
1.4845281e-05
-3.063737e-05
1.779402e-05
-3.1168812e-05
2.1323852e-05
-3.176486e-05
2.5544632e-05
-3.2416601e-05
3.0582088e-05
-3.3145063e-05
3.6576077e-05
-3.4007701e-05
4.3690832e-05
-3.5036702e-05
5.2115391e-05
-3.6124996e-05
6.2025924e-05
-3.7080829e-05
7.3549422e-05
-3.77539e-05
8.6749397e-05
-3.8004893e-05
0.00010160577
-3.7664269e-05
0.00011802022
-3.6402544e-05
0.00013572298
-3.3939372e-05
0.00015425451
-3.0310812e-05
0.00017341279
-2.2757709e-05
0.0001907293
-7.908118e-06
0.0001993502
1.2161625e-05
0.00019608919
3.9408414e-05
0.00018006314
7.3467037e-05
0.00014783707
0.00011543232
9.7815328e-05
0.00016602776
2.6724944e-05
0.00022439749
-6.8093951e-05
0.00029295435
-0.00019027106
0.00036763215
-0.0003386443
0.00045327937
-0.00051253962
0.00054017568
-0.00070097403
0.00063590617
-0.0008926923
0.00074179862
-0.0010956765
0.00085740011
-0.0013096115
0.00095450014
-0.001506137
0.001040983
-0.0016532072
0.0011209108
-0.0017454409
0.0011718713
-0.0017505995
0.0011539721
-0.0015851456
0.0010204735
-0.00115317
0.00092404719
-0.00059668052
0.00067778578
7.4311793e-06
0.00026865541
-3.0770571e-05
2.4804506e-06
-3.0860088e-05
2.9886224e-06
-3.0965489e-05
3.5818326e-06
-3.1090199e-05
4.2929961e-06
-3.1237059e-05
5.1455961e-06
-3.1410676e-05
6.1679536e-06
-3.1616092e-05
7.3937505e-06
-3.1859687e-05
8.8636864e-06
-3.2148994e-05
1.0626458e-05
-3.2492498e-05
1.2740019e-05
-3.2898575e-05
1.527405e-05
-3.3371011e-05
1.8309577e-05
-3.3910062e-05
2.194305e-05
-3.451353e-05
2.6287227e-05
-3.5182237e-05
3.1471442e-05
-3.5946215e-05
3.7644512e-05
-3.6872524e-05
4.497908e-05
-3.7980665e-05
5.3663652e-05
-3.9168791e-05
6.3876499e-05
-4.026721e-05
7.5754582e-05
-4.1115275e-05
8.9366934e-05
-4.1555055e-05
0.00010469029
-4.1397705e-05
0.00012161088
-4.0294363e-05
0.00013981415
-3.798805e-05
0.00015880863
-3.4634522e-05
0.00017847634
-2.7373458e-05
0.00019621926
-1.2816551e-05
0.000204735
6.7858233e-06
0.00020080771
3.3354176e-05
0.00018372861
6.6676125e-05
0.00014981004
0.00010803093
9.6888848e-05
0.00015804826
2.1316463e-05
0.0002157853
-7.9326702e-05
0.00028378658
-0.00020872895
0.00035835379
-0.00036634545
0.00044421996
-0.00055191767
0.00053178567
-0.00075424429
0.00062848801
-0.00096193985
0.00073521077
-0.001183025
0.00085213369
-0.0014169172
0.00095162838
-0.0016337319
0.0010411945
-0.001799655
0.0011238148
-0.0019090542
0.0011773563
-0.0019275658
0.0011609715
-0.0017651036
0.0010309792
-0.0013210459
0.00093439162
-0.00074522503
0.00068641846
-0.00011515547
0.00021455404
-3.3062475e-05
2.5527977e-06
-3.3158078e-05
3.0757538e-06
-3.3271272e-05
3.6863619e-06
-3.340584e-05
4.4184948e-06
-3.356519e-05
5.2962997e-06
-3.3754231e-05
6.3489823e-06
-3.3978234e-05
7.6112308e-06
-3.4244147e-05
9.1252767e-06
-3.4558801e-05
1.0940923e-05
-3.4930662e-05
1.3118512e-05
-3.536672e-05
1.5729438e-05
-3.586946e-05
1.8857548e-05
-3.6443303e-05
2.2602315e-05
-3.7087112e-05
2.7080803e-05
-3.7806126e-05
3.2427599e-05
-3.8632425e-05
3.8798124e-05
-3.9617971e-05
4.6369492e-05
-4.0777746e-05
5.5331125e-05
-4.2038044e-05
6.586517e-05
-4.3256191e-05
7.8118094e-05
-4.4261022e-05
9.2165217e-05
-4.4873785e-05
0.00010798121
-4.4886832e-05
0.00012543591
-4.3932452e-05
0.00014416762
-4.1770818e-05
0.00016364176
-3.8662931e-05
0.00018383103
-3.168528e-05
0.00020205223
-1.743017e-05
0.00021054709
1.7145454e-06
0.00020602223
2.7628683e-05
0.00018795723
6.0237269e-05
0.00015243549
0.00010098527
9.6726661e-05
0.00015042691
1.6801463e-05
0.00020753492
-8.952349e-05
0.00027498592
-0.00022600481
0.00034942161
-0.00039274079
0.00043547559
-0.00058991126
0.0005236206
-0.00080606951
0.00062124446
-0.0010297408
0.00072884282
-0.0012690935
0.00084707785
-0.001523227
0.00094891106
-0.0017607389
0.0010415176
-0.0019461637
0.0011267868
-0.0020734587
0.0011829014
-0.0021060029
0.0011680951
-0.001947304
0.0010415894
-0.0014920518
0.00094464311
-0.00089726221
0.00069473528
-0.00024077775
0.00015876636
-3.5172002e-05
2.6299201e-06
-3.5273102e-05
3.1686154e-06
-3.5392975e-05
3.7977526e-06
-3.553552e-05
4.552077e-06
-3.5704698e-05
5.4567426e-06
-3.590557e-05
6.5414822e-06
-3.6143963e-05
7.8425841e-06
-3.6426871e-05
9.403199e-06
-3.6761759e-05
1.1275151e-05
-3.7156856e-05
1.3520426e-05
-3.7619483e-05
1.6212548e-05
-3.8154303e-05
1.943863e-05
-3.8771281e-05
2.3302092e-05
-3.9474184e-05
2.7924726e-05
-4.026992e-05
3.3447716e-05
-4.1173235e-05
4.0031926e-05
-4.2216304e-05
4.7856171e-05
-4.3419787e-05
5.7111548e-05
-4.4740043e-05
6.7986478e-05
-4.6059018e-05
8.063538e-05
-4.7198835e-05
9.5138888e-05
-4.7968461e-05
0.0001114734
-4.8140795e-05
0.00012949162
-4.7331513e-05
0.00014878274
-4.5318727e-05
0.00016877734
-4.24368e-05
0.00018950435
-3.5730287e-05
0.00020822461
-2.1777993e-05
0.00021677316
-3.0781898e-06
0.00021173683
2.2202324e-05
0.00019276727
5.4119105e-05
0.0001557297
9.4264581e-05
9.7349802e-05
0.00014313331
1.3217156e-05
0.00019961713
-9.8633904e-05
0.00026652279
-0.00024204288
0.00034080705
-0.0004177603
0.00042701887
-0.00062641985
0.00051566306
-0.00085631644
0.00061415163
-0.0010959161
0.00072266244
-0.001353646
0.00084220793
-0.0016282537
0.00094631734
-0.0018868203
0.0010419192
-0.002092335
0.0011297924
-0.0022382126
0.001188478
-0.0022854692
0.0011753283
-0.0021312889
0.0010522897
-0.0016658994
0.00095480636
-0.0010527725
0.00070274108
-0.00036941874
0.0001013325
-3.7110411e-05
2.7117239e-06
-3.7216838e-05
3.2670073e-06
-3.7343191e-05
3.9158589e-06
-3.7493653e-05
4.693826e-06
-3.7672148e-05
5.6269025e-06
-3.7884442e-05
6.7458445e-06
-3.8136309e-05
8.0881415e-06
-3.8435462e-05
9.6982142e-06
-3.8789328e-05
1.1629814e-05
-3.920806e-05
1.394706e-05
-3.9698456e-05
1.6725656e-05
-4.0269805e-05
2.0056157e-05
-4.0935582e-05
2.404713e-05
-4.1709515e-05
2.8825517e-05
-4.2589006e-05
3.4537808e-05
-4.3570246e-05
4.1348412e-05
-4.4669021e-05
4.943873e-05
-4.5908695e-05
5.9003524e-05
-4.7282261e-05
7.0237193e-05
-4.8685468e-05
8.3301098e-05
-4.9940858e-05
9.8281914e-05
-5.0858216e-05
0.00011516235
-5.1179235e-05
0.00013377158
-5.0515167e-05
0.00015365273
-4.8652349e-05
0.00017419652
-4.5991457e-05
0.00019547667
-3.9548887e-05
0.00021473266
-2.5879018e-05
0.00022339447
-7.6132658e-06
0.00021790749
1.7053983e-05
0.00019810728
4.8298898e-05
0.00015963866
8.7846138e-05
9.8694886e-05
0.0001361447
1.0480468e-05
0.00019200977
-0.00010675843
0.00025837473
-0.00025695248
0.00033248962
-0.0004415259
0.00041883085
-0.00066158686
0.00050790615
-0.00090515166
0.0006072065
-0.0011606571
0.00071665043
-0.0014368815
0.00083750167
-0.0017322107
0.00094382671
-0.0020122126
0.0010423777
-0.0022384182
0.0011328156
-0.0024035647
0.0011940707
-0.0024662026
0.0011826506
-0.0023173578
0.0010630514
-0.0018427737
0.00096487804
-0.0012116434
0.00071044322
-0.00050086337
4.2383417e-05
-3.8887674e-05
2.7980337e-06
-3.9001649e-05
3.3709127e-06
-3.9137373e-05
4.040654e-06
-3.9298788e-05
4.8438708e-06
-3.9490022e-05
5.8071465e-06
-3.9716855e-05
6.9626174e-06
-3.9985812e-05
8.3488382e-06
-4.0304056e-05
1.0011837e-05
-4.0680949e-05
1.2007325e-05
-4.1126237e-05
1.440159e-05
-4.1649674e-05
1.7272944e-05
-4.2262576e-05
2.071591e-05
-4.2982766e-05
2.4843539e-05
-4.3824053e-05
2.9787162e-05
-4.4775964e-05
3.5697221e-05
-4.5824778e-05
4.2743661e-05
-4.6969571e-05
5.1111136e-05
-4.8245011e-05
6.0999779e-05
-4.9666845e-05
7.2611173e-05
-5.1141395e-05
8.6110838e-05
-5.250141e-05
0.00010159339
-5.3559501e-05
0.00011904922
-5.4020569e-05
0.00013828017
-5.350693e-05
0.00015879528
-5.1793141e-05
0.00017993615
-4.933893e-05
0.00020177581
-4.3147467e-05
0.00022155553
-2.9740623e-05
0.00023036775
-1.1893907e-05
0.00022449808
1.2182365e-05
0.00020392816
4.2775339e-05
0.00016409708
8.1732507e-05
0.00010068291
0.00012946577
8.5069474e-06
0.00018471671
-0.00011398242
0.00025054679
-0.00027082587
0.00032447643
-0.00046413223
0.00041091955
-0.00069548877
0.00050037054
-0.00095263195
0.00060043243
-0.0012239912
0.00071081218
-0.0015187722
0.00083295932
-0.0018350039
0.00094144573
-0.0021367712
0.001042893
-0.0023842085
0.0011358534
-0.0025692473
0.0011996688
-0.0026479
0.0011900496
-0.0025051368
0.0010738495
-0.002022408
0.00097483904
-0.0013738427
0.00071783796
-0.00063507476
-1.8031516e-05
-4.054641e-05
2.8892811e-06
-4.0703286e-05
3.4826837e-06
-4.0878791e-05
4.1766997e-06
-4.1070497e-05
5.0087836e-06
-4.1281782e-05
6.0063289e-06
-4.1521526e-05
7.2021762e-06
-4.1798352e-05
8.6358011e-06
-4.212271e-05
1.0355221e-05
-4.2508981e-05
1.2417614e-05
-4.2965246e-05
1.4891832e-05
-4.3508845e-05
1.7859372e-05
-4.4150181e-05
2.1418754e-05
-4.4908409e-05
2.568709e-05
-4.5796934e-05
3.0800062e-05
-4.6805669e-05
3.6914787e-05
-4.7910772e-05
4.4204069e-05
-4.9102568e-05
5.2860978e-05
-5.0424266e-05
6.3093436e-05
-5.1893004e-05
7.5101826e-05
-5.3431779e-05
8.905824e-05
-5.4891694e-05
0.00010506752
-5.6080817e-05