/*--------------------------------*- C++ -*----------------------------------*\
  =========                 |
  \\      /  F ield         | OpenFOAM: The Open Source CFD Toolbox
   \\    /   O peration     | Website:  https://openfoam.org
    \\  /    A nd           | Version:  8
     \\/     M anipulation  |
\*---------------------------------------------------------------------------*/
FoamFile
{
    version     2.0;
    format      ascii;
    class       volScalarField;
    location    "0.269994";
    object      nut;
}
// * * * * * * * * * * * * * * * * * * * * * * * * * * * * * * * * * * * * * //

dimensions      [0 2 -1 0 0 0 0];

internalField   nonuniform List<scalar> 
20000
(
0.001316346
0.003354508
0.0045879579
0.0051357655
0.0048450479
0.0034419457
0.00087319982
3.3036638e-07
2.3342868e-09
2.3119521e-09
2.2386922e-09
2.2574374e-09
2.2247969e-09
2.2537158e-09
2.2522169e-09
2.2854193e-09
2.3068872e-09
2.3504903e-09
2.3947629e-09
2.4592056e-09
2.5331948e-09
2.631112e-09
2.7490242e-09
2.899233e-09
3.08243e-09
3.3088834e-09
3.580512e-09
3.9009841e-09
4.2644649e-09
4.660604e-09
5.0684323e-09
5.4620372e-09
5.8182517e-09
6.1259703e-09
6.3823382e-09
6.591109e-09
6.757889e-09
6.8904526e-09
6.9940977e-09
7.0766826e-09
7.1432642e-09
7.1981541e-09
7.2416506e-09
7.2765708e-09
7.3055802e-09
7.3330609e-09
7.3693962e-09
7.3931678e-09
7.4093725e-09
7.4162435e-09
0.0013216643
0.003340562
0.0045332054
0.0050368164
0.0046970216
0.0032250338
0.00073383353
1.2067114e-07
2.3345875e-09
2.3256353e-09
2.2519145e-09
2.2716978e-09
2.2391848e-09
2.2692322e-09
2.2682304e-09
2.3028578e-09
2.3255225e-09
2.3709918e-09
2.4172782e-09
2.4843458e-09
2.5614271e-09
2.6631296e-09
2.7855779e-09
2.941076e-09
3.1303306e-09
3.363042e-09
3.6401668e-09
3.9634474e-09
4.325237e-09
4.7142056e-09
5.1110914e-09
5.49336e-09
5.8404218e-09
6.1415708e-09
6.3934966e-09
6.5990501e-09
6.7634657e-09
6.8942802e-09
6.9968862e-09
7.0789709e-09
7.1451459e-09
7.1997002e-09
7.2429754e-09
7.2776834e-09
7.3066971e-09
7.3350565e-09
7.3713102e-09
7.3950095e-09
7.4097274e-09
7.4163346e-09
0.0013158756
0.0033101535
0.0044711426
0.0049376763
0.0045528989
0.0030080135
0.00060546737
4.8104886e-08
2.3398311e-09
2.339492e-09
2.2659153e-09
2.2867224e-09
2.2545522e-09
2.2856533e-09
2.2853113e-09
2.3213516e-09
2.3453518e-09
2.3927511e-09
2.4412127e-09
2.511084e-09
2.5915084e-09
2.6973281e-09
2.8247339e-09
2.9860634e-09
3.1820373e-09
3.4218155e-09
3.7052814e-09
4.0321683e-09
4.3928065e-09
4.7748564e-09
5.1605582e-09
5.5304889e-09
5.8668453e-09
6.1597993e-09
6.4059109e-09
6.6074877e-09
6.7692195e-09
6.8981157e-09
6.9995407e-09
7.08097e-09
7.1466905e-09
7.2009079e-09
7.2440367e-09
7.2785871e-09
7.3075708e-09
7.3372416e-09
7.3735666e-09
7.3973301e-09
7.411731e-09
7.4153578e-09
0.0013107425
0.0032811265
0.0044092249
0.0048383676
0.0044090327
0.0027849198
0.00048927935
2.1643112e-08
2.3492433e-09
2.3545001e-09
2.2810147e-09
2.3028008e-09
2.2710291e-09
2.3031681e-09
2.3035466e-09
2.3410436e-09
2.3664437e-09
2.4158383e-09
2.4665581e-09
2.5393186e-09
2.6232007e-09
2.7332745e-09
2.8658266e-09
3.0332629e-09
3.2362715e-09
3.4834805e-09
3.7736726e-09
4.1047268e-09
4.465193e-09
4.8417335e-09
5.2174772e-09
5.5754824e-09
5.900589e-09
6.1843164e-09
6.4234701e-09
6.6199321e-09
6.7779471e-09
6.9041544e-09
7.0038588e-09
7.0842648e-09
7.1492319e-09
7.2028723e-09
7.2456834e-09
7.2800435e-09
7.3089632e-09
7.3405503e-09
7.3765637e-09
7.3994023e-09
7.4120725e-09
7.4148574e-09
0.0013055892
0.0032521662
0.0043468286
0.0047387716
0.0042655414
0.0025564614
0.00038374247
1.1252312e-08
2.3611001e-09
2.3701572e-09
2.297027e-09
2.3198392e-09
2.2886017e-09
2.3218093e-09
2.323017e-09
2.3620248e-09
2.3889377e-09
2.4404328e-09
2.493578e-09
2.5694171e-09
2.6570133e-09
2.7716565e-09
2.9097574e-09
3.08377e-09
3.2943506e-09
3.5495099e-09
3.8468387e-09
4.1822921e-09
4.542707e-09
4.9138824e-09
5.2797803e-09
5.6256746e-09
5.938919e-09
6.2125499e-09
6.4438384e-09
6.6344433e-09
6.7881753e-09
6.9112781e-09
7.008941e-09
7.0880621e-09
7.1521101e-09
7.2050486e-09
7.2474189e-09
7.281538e-09
7.3104936e-09
7.3447314e-09
7.380084e-09
7.4013249e-09
7.4125539e-09
7.414274e-09
0.0013006115
0.0032235348
0.0042845679
0.0046383762
0.0041221113
0.0023245146
0.00028783893
6.8287837e-09
2.3751477e-09
2.3867782e-09
2.3141016e-09
2.3379198e-09
2.3072876e-09
2.3415962e-09
2.3437233e-09
2.3842918e-09
2.4128208e-09
2.4665263e-09
2.5222501e-09
2.6013443e-09
2.6928933e-09
2.8124025e-09
2.9564298e-09
3.1374627e-09
3.3561077e-09
3.6196571e-09
3.9243994e-09
4.2643765e-09
4.6248496e-09
4.9908877e-09
5.3471951e-09
5.6810017e-09
5.9820107e-09
6.2448941e-09
6.4675506e-09
6.6515586e-09
6.8003597e-09
6.9198605e-09
7.0151103e-09
7.0926675e-09
7.1555834e-09
7.2076577e-09
7.2494058e-09
7.2831438e-09
7.3122667e-09
7.3498946e-09
7.3839435e-09
7.4033079e-09
7.4128494e-09
7.4137191e-09
0.0012958669
0.0031950331
0.0042219067
0.0045364578
0.0039780041
0.0020924145
0.00020080697
4.7835634e-09
2.3906826e-09
2.4041908e-09
2.3321333e-09
2.3569922e-09
2.3270725e-09
2.3625198e-09
2.3656644e-09
2.4078486e-09
2.4381185e-09
2.4941577e-09
2.5526411e-09
2.6352e-09
2.7309901e-09
2.8557222e-09
3.0061208e-09
3.1946863e-09
3.4219362e-09
3.6943159e-09
4.0066733e-09
4.3510974e-09
4.7114002e-09
5.0721092e-09
5.4187345e-09
5.7403253e-09
6.028786e-09
6.2804274e-09
6.4938642e-09
6.6707101e-09
6.8140919e-09
6.9296077e-09
7.0221443e-09
7.0978997e-09
7.1595063e-09
7.2105911e-09
7.2515527e-09
7.2847176e-09
7.3141676e-09
7.3554874e-09
7.3881859e-09
7.4056585e-09
7.413275e-09
7.4130878e-09
0.0012910538
0.0031667989
0.0041588895
0.004432381
0.0038322324
0.0018683682
0.00012457536
3.7715854e-09
2.4076049e-09
2.4225305e-09
2.3512076e-09
2.3770959e-09
2.3479618e-09
2.3845656e-09
2.3888248e-09
2.4326903e-09
2.4648337e-09
2.5233396e-09
2.5847634e-09
2.6710081e-09
2.7713455e-09
2.9016746e-09
3.0589057e-09
3.2555281e-09
3.4919151e-09
3.7735103e-09
4.093579e-09
4.4422469e-09
4.8020289e-09
5.1571093e-09
5.4938839e-09
5.8031258e-09
6.0788028e-09
6.3188344e-09
6.5225917e-09
6.691792e-09
6.8293178e-09
6.9404985e-09
7.0300431e-09
7.1037776e-09
7.1638996e-09
7.2138799e-09
7.253913e-09
7.2862893e-09
7.316251e-09
7.3610878e-09
7.392729e-09
7.4085324e-09
7.4139081e-09
7.4122938e-09
0.001286212
0.0031392619
0.0040961456
0.0043258143
0.0036838417
0.00165286
6.502144e-05
3.246909e-09
2.4257174e-09
2.441754e-09
2.3712712e-09
2.3981751e-09
2.3699135e-09
2.4077092e-09
2.4132049e-09
2.4588332e-09
2.4929926e-09
2.5541007e-09
2.6186668e-09
2.7088462e-09
2.8140707e-09
2.9504058e-09
3.1149664e-09
3.3202006e-09
3.5662575e-09
3.8573987e-09
4.1851601e-09
4.5377076e-09
4.8964275e-09
5.2453872e-09
5.571994e-09
5.8686946e-09
6.1313971e-09
6.3595584e-09
6.5533011e-09
6.7144895e-09
6.8458177e-09
6.9523823e-09
7.0387021e-09
7.1102261e-09
7.168709e-09
7.2174909e-09
7.2565047e-09
7.2879417e-09
7.3186708e-09
7.3663924e-09
7.397245e-09
7.4118858e-09
7.4151313e-09
7.4111899e-09
0.0012817857
0.0031125692
0.0040343688
0.0042179369
0.0035318867
0.0014474992
2.7756198e-05
2.969856e-09
2.444912e-09
2.4618271e-09
2.3922885e-09
2.4201996e-09
2.3929162e-09
2.4319578e-09
2.4388263e-09
2.4863019e-09
2.5226169e-09
2.5864725e-09
2.6543983e-09
2.7487877e-09
2.8592654e-09
3.0020403e-09
3.1744533e-09
3.3888725e-09
3.6451136e-09
3.9460541e-09
4.2813641e-09
4.6372846e-09
4.9942707e-09
5.3365094e-09
5.6525539e-09
5.9364958e-09
6.1860717e-09
6.4021879e-09
6.5856775e-09
6.7385769e-09
6.8634341e-09
6.9651551e-09
7.0480542e-09
7.1172015e-09
7.1739083e-09
7.2214069e-09
7.2593496e-09
7.2898394e-09
7.3217209e-09
7.371295e-09
7.4013657e-09
7.4152032e-09
7.417523e-09
7.4095212e-09
0.0012776497
0.003086505
0.0039734681
0.0041163582
0.0033733463
0.0012533974
9.9756214e-06
2.825499e-09
2.4650127e-09
2.4826823e-09
2.4142228e-09
2.4431688e-09
2.4169916e-09
2.4573443e-09
2.4657196e-09
2.5151188e-09
2.5537324e-09
2.6204946e-09
2.6920303e-09
2.7909354e-09
2.9070612e-09
3.0567389e-09
3.2375582e-09
3.4617532e-09
3.7286656e-09
4.039567e-09
4.3821411e-09
4.7407753e-09
5.0952176e-09
5.4300248e-09
5.7350381e-09
6.0059811e-09
6.2423119e-09
6.4462844e-09
6.6193748e-09
6.763794e-09
6.8819804e-09
6.9786874e-09
7.0580115e-09
7.1246403e-09
7.1794564e-09
7.2255908e-09
7.2624161e-09
7.292092e-09
7.3256648e-09
7.3757887e-09
7.4051077e-09
7.4182437e-09
7.4201487e-09
7.4074343e-09
0.0012736621
0.0030606527
0.0039126615
0.0040065977
0.0032058345
0.0010721922
3.2184119e-06
2.7543585e-09
2.4860466e-09
2.5043819e-09
2.4371283e-09
2.4671356e-09
2.4421851e-09
2.4839019e-09
2.4939006e-09
2.545298e-09
2.5863663e-09
2.6562271e-09
2.7316487e-09
2.8354007e-09
2.9575947e-09
3.1146681e-09
3.3044791e-09
3.5390522e-09
3.8170794e-09
4.1379941e-09
4.4873989e-09
4.8479422e-09
5.1989168e-09
5.5255069e-09
5.8189779e-09
6.0766746e-09
6.2996736e-09
6.4914666e-09
6.6540869e-09
6.789908e-09
6.901286e-09
6.9928589e-09
7.0684927e-09
7.1324853e-09
7.1853159e-09
7.2300041e-09
7.2656361e-09
7.2946863e-09
7.3304418e-09
7.380091e-09
7.4085516e-09
7.4208096e-09
7.4223624e-09
7.4049041e-09
0.0012699933
0.0030347749
0.0038520583
0.0038973408
0.0030297829
0.000905109
9.8641486e-07
2.7241347e-09
2.5080308e-09
2.5269507e-09
2.4610403e-09
2.4921337e-09
2.4685243e-09
2.5116357e-09
2.523373e-09
2.576856e-09
2.6205703e-09
2.6937493e-09
2.7733623e-09
2.8823153e-09
3.0110248e-09
3.1760202e-09
3.3754422e-09
3.6209989e-09
3.9105232e-09
4.2413744e-09
4.5970161e-09
4.9585166e-09
5.3049943e-09
5.6225213e-09
5.9039132e-09
6.148118e-09
6.3577326e-09
6.5373678e-09
6.6895147e-09
6.8166871e-09
6.9211792e-09
7.0075454e-09
7.0794119e-09
7.1406769e-09
7.191445e-09
7.234605e-09
7.2689352e-09
7.2975223e-09
7.3359264e-09
7.384345e-09
7.411612e-09
7.4227939e-09
7.4236617e-09
7.402037e-09
0.0012664381
0.0030081843
0.0037879919
0.0037847116
0.0028447159
0.00075412274
3.0654446e-07
2.7172309e-09
2.5309751e-09
2.5504617e-09
2.4860072e-09
2.5181864e-09
2.4959966e-09
2.5405349e-09
2.5541394e-09
2.6098371e-09
2.6564172e-09
2.7331636e-09
2.8172866e-09
2.9318165e-09
3.0675183e-09
3.2410009e-09
3.4506855e-09
3.7078261e-09
4.0091485e-09
4.3497125e-09
4.7108302e-09
5.0721974e-09
5.4130657e-09
5.7206471e-09
5.989418e-09
6.2198996e-09
6.4161105e-09
6.5836615e-09
6.7253893e-09
6.8439193e-09
6.9415003e-09
7.0226282e-09
7.0906851e-09
7.149158e-09
7.1978026e-09
7.239354e-09
7.272267e-09
7.300528e-09
7.3420774e-09
7.3885202e-09
7.4140994e-09
7.424002e-09
7.4241887e-09
7.39899e-09
0.0012629861
0.0029817138
0.0037240667
0.0036720995
0.0026508683
0.0006221557
1.0294313e-07
2.7238317e-09
2.5550057e-09
2.5749445e-09
2.5120058e-09
2.5452403e-09
2.5245697e-09
2.5705955e-09
2.5862456e-09
2.6443167e-09
2.694011e-09
2.7745844e-09
2.8635513e-09
2.9840606e-09
3.1272683e-09
3.3098451e-09
3.5304742e-09
3.7997749e-09
4.1130922e-09
4.462978e-09
4.828637e-09
5.1886485e-09
5.5227262e-09
5.8194602e-09
6.0750774e-09
6.2916278e-09
6.4744534e-09
6.6300437e-09
6.7614582e-09
6.8714028e-09
6.9620958e-09
7.0379919e-09
7.1022274e-09
7.1578713e-09
7.2043462e-09
7.2442124e-09
7.275619e-09
7.3037382e-09
7.3487825e-09
7.3925615e-09
7.4160512e-09
7.4246608e-09
7.4241885e-09
7.395856e-09
0.0012596604
0.0029546946
0.0036588079
0.0035580402
0.002448676
0.00049954568
3.8410135e-08
2.738136e-09
2.579931e-09
2.6002511e-09
2.5389453e-09
2.5732584e-09
2.5542501e-09
2.6018773e-09
2.6197754e-09
2.6804032e-09
2.7334564e-09
2.8181209e-09
2.9122882e-09
3.0392147e-09
3.190485e-09
3.3828077e-09
3.6150856e-09
3.8970806e-09
4.2224607e-09
4.5810955e-09
4.9501846e-09
5.3075031e-09
5.6335596e-09
5.9185488e-09
6.1605035e-09
6.3629483e-09
6.53245e-09
6.6762458e-09
6.7974968e-09
6.8989547e-09
6.9828247e-09
7.0535293e-09
7.1139565e-09
7.1667602e-09
7.2110335e-09
7.2491412e-09
7.2790074e-09
7.3073027e-09
7.3558272e-09
7.3964643e-09
7.4176475e-09
7.4248691e-09
7.4239532e-09
7.392612e-09
0.0012564066
0.002926698
0.0035913385
0.0034362679
0.0022400689
0.00038852591
1.6843051e-08
2.7570923e-09
2.6056933e-09
2.6263823e-09
2.5668433e-09
2.6022999e-09
2.5851254e-09
2.6344814e-09
2.6548376e-09
2.7181927e-09
2.7748537e-09
2.8638888e-09
2.9636476e-09
3.0974726e-09
3.2574086e-09
3.4601729e-09
3.7048158e-09
3.9999728e-09
4.3373269e-09
4.7039401e-09
5.0751768e-09
5.4283622e-09
5.7451398e-09
6.0175022e-09
6.2453218e-09
6.4335272e-09
6.5898084e-09
6.7220226e-09
6.8332992e-09
6.9264047e-09
7.003554e-09
7.0691395e-09
7.1257935e-09
7.1757649e-09
7.2178196e-09
7.2540986e-09
7.2824759e-09
7.3114804e-09
7.3629191e-09
7.4001394e-09
7.4189954e-09
7.4248991e-09
7.4235971e-09
7.3891748e-09
0.0012531484
0.0028975065
0.0035220888
0.0033118662
0.0020279482
0.00028739041
8.920333e-09
2.7790784e-09
2.6323476e-09
2.6533955e-09
2.5957883e-09
2.6324748e-09
2.6173058e-09
2.6685162e-09
2.691521e-09
2.7577789e-09
2.8183018e-09
2.9120141e-09
3.017797e-09
3.1590481e-09
3.3282996e-09
3.5422438e-09
3.7999678e-09
4.108662e-09
4.4577191e-09
4.8313296e-09
5.2032678e-09
5.5507998e-09
5.8570317e-09
6.1159224e-09
6.3291845e-09
6.5030642e-09
6.6462744e-09
6.7671617e-09
6.8686851e-09
6.9536011e-09
7.024164e-09
7.0847316e-09
7.1376664e-09
7.1848302e-09
7.2246571e-09
7.2590396e-09
7.2860921e-09
7.3166275e-09
7.3697066e-09
7.4033952e-09
7.4200418e-09
7.4248773e-09
7.4229026e-09
7.3855941e-09
0.001249795
0.0028666669
0.0034482103
0.0031864526
0.0018150257
0.00019536216
5.699116e-09
2.8030338e-09
2.6599861e-09
2.6814385e-09
2.6259109e-09
2.6639065e-09
2.6508916e-09
2.7040599e-09
2.729901e-09
2.7992372e-09
2.8639059e-09
2.962645e-09
3.0749327e-09
3.2241829e-09
3.4034475e-09
3.6293502e-09
3.9008518e-09
4.2233351e-09
4.583617e-09
4.9630279e-09
5.3340692e-09
5.6743648e-09
5.9687945e-09
6.2134177e-09
6.4117601e-09
6.5712826e-09
6.7016176e-09
6.8114723e-09
6.9034914e-09
6.9804051e-09
7.0445437e-09
7.1002215e-09
7.1495103e-09
7.1939032e-09
7.2314956e-09
7.2639106e-09
7.2899097e-09
7.3230745e-09
7.3758153e-09
7.4061991e-09
7.4204299e-09
7.4241801e-09
7.421114e-09
7.3819278e-09
0.0012464997
0.0028355692
0.0033697683
0.0030588425
0.0016038173
0.00011449156
4.2646435e-09
2.8284612e-09
2.6887635e-09
2.7106461e-09
2.6573176e-09
2.6966652e-09
2.6859336e-09
2.7411676e-09
2.7700375e-09
2.8426616e-09
2.911792e-09
3.0159542e-09
3.135273e-09
3.2931391e-09
3.4831652e-09
3.7218401e-09
4.0077732e-09
4.3441394e-09
4.7149358e-09
5.098735e-09
5.4671466e-09
5.7985833e-09
6.0799857e-09
6.3096119e-09
6.4927442e-09
6.6379423e-09
6.7556461e-09
6.8547922e-09
6.9375777e-09
7.0066965e-09
7.0645956e-09
7.1155341e-09
7.1612683e-09
7.2029378e-09
7.2382845e-09
7.2686522e-09
7.2939219e-09
7.3307043e-09
7.3810604e-09
7.4086417e-09
7.4205368e-09
7.4231166e-09
7.4180028e-09
7.3783918e-09
0.0012434181
0.0028048787
0.0032956807
0.0029265652
0.0013973314
5.3345651e-05
3.5875721e-09
2.8550242e-09
2.7187383e-09
2.7410595e-09
2.6900216e-09
2.7307694e-09
2.7224674e-09
2.7798914e-09
2.8120111e-09
2.8881592e-09
2.9621143e-09
3.0721445e-09
3.1990651e-09
3.3662095e-09
3.5678006e-09
3.8200868e-09
4.1210286e-09
4.471179e-09
4.8515293e-09
5.2380925e-09
5.6020261e-09
5.922964e-09
6.1901635e-09
6.4041414e-09
6.5718526e-09
6.7028255e-09
6.8081911e-09
6.8969773e-09
6.9708189e-09
7.0323691e-09
7.084231e-09
7.1306006e-09
7.1728891e-09
7.2118914e-09
7.2449748e-09
7.2732262e-09
7.298141e-09
7.3386704e-09
7.3857244e-09
7.4106603e-09
7.4205266e-09
7.4222535e-09
7.4133346e-09
7.375034e-09
0.0012401888
0.0027726115
0.0032176262
0.0027873172
0.0011990734
1.9038699e-05
3.2639627e-09
2.8828301e-09
2.7499007e-09
2.772667e-09
2.7240137e-09
2.7662488e-09
2.7605417e-09
2.820309e-09
2.855918e-09
2.9358716e-09
3.0150553e-09
3.1314395e-09
3.2665704e-09
3.443708e-09
3.6577263e-09
3.9244704e-09
4.2408883e-09
4.6044942e-09
4.9931753e-09
5.3806745e-09
5.7381876e-09
6.046996e-09
6.2988916e-09
6.4966668e-09
6.6488325e-09
6.7657477e-09
6.8591111e-09
6.9379076e-09
7.0031107e-09
7.0573368e-09
7.1033745e-09
7.1453605e-09
7.1843264e-09
7.2207269e-09
7.2515228e-09
7.2776358e-09
7.302622e-09
7.3467853e-09
7.3896135e-09
7.4118283e-09
7.4205055e-09
7.4213846e-09
7.4071046e-09
7.3718385e-09
0.001236992
0.002739574
0.0031370377
0.0026403603
0.001012182
5.4543484e-06
3.1154465e-09
2.9126453e-09
2.7821914e-09
2.8054539e-09
2.7593486e-09
2.8031712e-09
2.8002359e-09
2.8625117e-09
2.9018839e-09
2.985955e-09
3.070826e-09
3.1940892e-09
3.338081e-09
3.5259883e-09
3.7533526e-09
4.0353843e-09
4.3675918e-09
4.7440626e-09
5.1395784e-09
5.5259945e-09
5.8750736e-09
6.1701545e-09
6.4057437e-09
6.5868769e-09
6.7234603e-09
6.8265454e-09
6.9082834e-09
6.9774809e-09
7.0343641e-09
7.0815274e-09
7.1219616e-09
7.1597597e-09
7.1955363e-09
7.2294069e-09
7.2578884e-09
7.281944e-09
7.3075543e-09
7.3548749e-09
7.3929689e-09
7.4123464e-09
7.4200077e-09
7.420448e-09
7.4002071e-09
7.3688866e-09
0.0012337631
0.0027059054
0.003053912
0.0024893432
0.00084035358
1.3987209e-06
3.0559317e-09
2.9432146e-09
2.8154646e-09
2.8396059e-09
2.7961375e-09
2.8416354e-09
2.841627e-09
2.9066114e-09
2.9500634e-09
3.0385881e-09
3.1296543e-09
3.2603542e-09
3.4139076e-09
3.6134308e-09
3.8551111e-09
4.1532102e-09
4.5013236e-09
4.889775e-09
5.2903509e-09
5.6734912e-09
6.0120812e-09
6.2919007e-09
6.5103132e-09
6.6745019e-09
6.7955522e-09
6.8850792e-09
6.955605e-09
7.0156243e-09
7.0645147e-09
7.1048819e-09
7.1399435e-09
7.1737528e-09
7.2064772e-09
7.2378876e-09
7.2640343e-09
7.2862794e-09
7.3133405e-09
7.3627312e-09
7.3960451e-09
7.4124956e-09
7.4188617e-09
7.4188357e-09
7.3939009e-09
7.3662675e-09
0.0012306444
0.0026723845
0.002969144
0.0023298108
0.0006843133
3.5800835e-07
3.0414458e-09
2.9750606e-09
2.8500155e-09
2.8749781e-09
2.8343577e-09
2.8816849e-09
2.8848298e-09
2.9527589e-09
3.0006464e-09
3.0940256e-09
3.1917876e-09
3.3305233e-09
3.4944046e-09
3.7064682e-09
3.9634671e-09
4.2783202e-09
4.6422081e-09
5.0414356e-09
5.4450174e-09
5.8225403e-09
6.1485742e-09
6.4116991e-09
6.612228e-09
6.7593148e-09
6.86496e-09
6.9412246e-09
7.0009843e-09
7.0522937e-09
7.0935216e-09
7.1273407e-09
7.1572827e-09
7.1873027e-09
7.2171112e-09
7.2461155e-09
7.2699223e-09
7.2907962e-09
7.3205173e-09
7.369865e-09
7.398974e-09
7.412477e-09
7.4171787e-09
7.4165391e-09
7.3882099e-09
7.3640094e-09
0.0012277536
0.0026391991
0.0028888074
0.002161322
0.0005471586
1.0483074e-07
3.0502155e-09
3.0080726e-09
2.8858162e-09
2.9118692e-09
2.8740927e-09
2.9233945e-09
2.9299901e-09
3.0011492e-09
3.0538345e-09
3.152492e-09
3.2574786e-09
3.4049036e-09
3.5799587e-09
3.8055682e-09
4.0788985e-09
4.4110483e-09
4.790282e-09
5.1987378e-09
5.6030019e-09
5.9724474e-09
6.2838896e-09
6.5290439e-09
6.7111751e-09
6.8411288e-09
6.9315661e-09
6.994887e-09
7.0443596e-09
7.0874814e-09
7.1213706e-09
7.1488407e-09
7.1739498e-09
7.2003833e-09
7.227409e-09
7.2540383e-09
7.2755162e-09
7.2955792e-09
7.3292089e-09
7.3756271e-09
7.4015134e-09
7.4124079e-09
7.4152123e-09
7.4132874e-09
7.3833078e-09
7.3621044e-09
0.0012249129
0.0026048898
0.0028077688
0.0019833834
0.00042822673
3.8326969e-08
3.0711678e-09
3.0423978e-09
2.9230574e-09
2.9504061e-09
2.9154553e-09
2.9669489e-09
2.9772945e-09
3.0519837e-09
3.1098344e-09
3.2142193e-09
3.3270068e-09
3.4838491e-09
3.6710158e-09
3.9112501e-09
4.2018968e-09
4.5516831e-09
4.9454908e-09
5.3612682e-09
5.7636434e-09
6.1224736e-09
6.4173851e-09
6.6435229e-09
6.8069261e-09
6.9197683e-09
6.9952466e-09
7.0460103e-09
7.0857207e-09
7.1211938e-09
7.1480317e-09
7.1693194e-09
7.1899092e-09
7.2129785e-09
7.237352e-09
7.2616173e-09
7.2807975e-09
7.3006274e-09
7.3381549e-09
7.3803487e-09
7.4028315e-09
7.4118012e-09
7.4136956e-09
7.408497e-09
7.3791018e-09
7.3605003e-09
0.00122219
0.0025692437
0.0027231885
0.0017974929
0.00032084895
1.7015253e-08
3.0987158e-09
3.077958e-09
2.9616605e-09
2.9905427e-09
2.9587906e-09
3.0126107e-09
3.0269452e-09
3.1054433e-09
3.1688475e-09
3.2794696e-09
3.4006849e-09
3.5677564e-09
3.7680693e-09
4.0240661e-09
4.3329393e-09
4.7004381e-09
5.1076615e-09
5.5284869e-09
5.9261849e-09
6.2718465e-09
6.5484958e-09
6.7548726e-09
6.8993319e-09
6.9950349e-09
7.0558376e-09
7.094595e-09
7.1251475e-09
7.1534222e-09
7.1734477e-09
7.1887525e-09
7.2051107e-09
7.2250822e-09
7.2469291e-09
7.2688365e-09
7.2857947e-09
7.3059548e-09
7.3469374e-09
7.3841064e-09
7.4034257e-09
7.410954e-09
7.4122321e-09
7.4024761e-09
7.3754962e-09
7.3591208e-09
0.0012196615
0.0025324087
0.0026369911
0.0016068409
0.00022457884
9.3866218e-09
3.1306093e-09
3.1149565e-09
3.0018921e-09
3.0324883e-09
3.0040158e-09
3.0605612e-09
3.0790959e-09
3.1617099e-09
3.2310854e-09
3.348498e-09
3.4788765e-09
3.6570863e-09
3.8716732e-09
4.1445995e-09
4.472475e-09
4.8574376e-09
5.2764977e-09
5.6997408e-09
6.0898039e-09
6.4198278e-09
6.6768281e-09
6.8629856e-09
6.9882465e-09
7.0666888e-09
7.1131347e-09
7.1406856e-09
7.1627959e-09
7.1840996e-09
7.1975043e-09
7.2071982e-09
7.2194976e-09
7.2366929e-09
7.2561233e-09
7.2756873e-09
7.2906089e-09
7.3117614e-09
7.3552287e-09
7.387275e-09
7.4036253e-09
7.4099022e-09
7.410738e-09
7.3962565e-09
7.372387e-09
7.3579092e-09
0.0012172804
0.0024940072
0.0025481116
0.001416263
0.00013924911
6.3071455e-09
3.1658976e-09
3.1536747e-09
3.0438943e-09
3.0762519e-09
3.0512692e-09
3.1108362e-09
3.133885e-09
3.2209837e-09
3.2968024e-09
3.4216309e-09
3.5620007e-09
3.752358e-09
3.9824303e-09
4.2734449e-09
4.6208977e-09
5.0226882e-09
5.4515557e-09
5.8742468e-09
6.2536239e-09
6.5657789e-09
6.8021861e-09
6.9677394e-09
7.0733259e-09
7.1345036e-09
7.1670248e-09
7.184336e-09
7.1987816e-09
7.2130977e-09
7.2200677e-09
7.2248066e-09
7.2330595e-09
7.247802e-09
7.2649035e-09
7.2821503e-09
7.2954049e-09
7.3185221e-09
7.362789e-09
7.3901348e-09
7.4036273e-09
7.4085975e-09
7.4090283e-09
7.3906376e-09
7.3696079e-09
7.3568243e-09
0.0012147295
0.0024512309
0.0024555905
0.0012372546
7.1055909e-05
4.9423752e-09
3.2036054e-09
3.1939851e-09
3.0876399e-09
3.1220572e-09
3.100834e-09
3.163528e-09
3.1914747e-09
3.2834634e-09
3.3663053e-09
3.4992548e-09
3.6505432e-09
3.8541562e-09
4.100994e-09
4.4111946e-09
4.7785247e-09
5.1960594e-09
5.6322451e-09
6.0511254e-09
6.4167963e-09
6.7092704e-09
6.9244762e-09
7.0685932e-09
7.1540424e-09
7.1982945e-09
7.2177133e-09
7.2255621e-09
7.2328965e-09
7.2402885e-09
7.2411931e-09
7.2416886e-09
7.2459114e-09
7.2583797e-09
7.2732236e-09
7.2881855e-09
7.3003491e-09
7.326674e-09
7.3691997e-09
7.3927487e-09
7.4035425e-09
7.4069863e-09
7.40676e-09
7.3856246e-09
7.3671591e-09
7.3558487e-09
0.0012118739
0.0024034977
0.002357781
0.0010679896
2.8184653e-05
4.3045674e-09
3.2434035e-09
3.2359812e-09
3.1332666e-09
3.1700648e-09
3.1528576e-09
3.219034e-09
3.2521044e-09
3.3494013e-09
3.4399421e-09
3.5818204e-09
3.7450539e-09
3.9631227e-09
4.228049e-09
4.5584155e-09
4.9455673e-09
5.3772557e-09
5.8178072e-09
6.2294137e-09
6.5785643e-09
6.850086e-09
7.0432872e-09
7.1647563e-09
7.2299914e-09
7.2580083e-09
7.2655344e-09
7.2643571e-09
7.264778e-09
7.2660202e-09
7.260947e-09
7.2576123e-09
7.258321e-09
7.2683776e-09
7.28104e-09
7.2937615e-09
7.3055421e-09
7.3356868e-09
7.3744072e-09
7.3948341e-09
7.4031766e-09
7.4052657e-09
7.4033811e-09
7.3811618e-09
7.3649727e-09
7.3549621e-09
0.0012084886
0.002350483
0.002252947
0.00090991588
8.9074189e-06
4.0052161e-09
3.2851692e-09
3.2798305e-09
3.181017e-09
3.2204842e-09
3.2075945e-09
3.2775495e-09
3.3160263e-09
3.4191792e-09
3.5181235e-09
3.6698449e-09
3.8461518e-09
4.0799609e-09
4.3643049e-09
4.7156225e-09
5.1221055e-09
5.5658102e-09
6.0073424e-09
6.4081467e-09
6.7383716e-09
6.9880672e-09
7.157569e-09
7.2555999e-09
7.3008177e-09
7.3139289e-09
7.3108399e-09
7.3007691e-09
7.2946674e-09
7.2904031e-09
7.279523e-09
7.2721053e-09
7.2704946e-09
7.2777558e-09
7.2883306e-09
7.2989191e-09
7.3110463e-09
7.3446924e-09
7.378482e-09
7.3956186e-09
7.402493e-09
7.4038961e-09
7.3985017e-09
7.3772096e-09
7.3630131e-09
7.3541617e-09
0.0012043595
0.0022913854
0.0021321811
0.00076394366
2.455366e-06
3.8733084e-09
3.3291057e-09
3.3258353e-09
3.2311709e-09
3.2735063e-09
3.2651359e-09
3.3391107e-09
3.3836723e-09
3.4932232e-09
3.601337e-09
3.7639028e-09
3.9545151e-09
4.2054192e-09
4.5104738e-09
4.8832478e-09
5.30805e-09
5.7610589e-09
6.1998249e-09
6.5864126e-09
6.8958815e-09
7.1225018e-09
7.2663688e-09
7.3403996e-09
7.3667122e-09
7.3671867e-09
7.3532596e-09
7.3349929e-09
7.3226681e-09
7.3132156e-09
7.2967634e-09
7.2856049e-09
7.2822603e-09
7.2865466e-09
7.2951069e-09
7.3038407e-09
7.3170098e-09
7.3531434e-09
7.3817477e-09
7.3959556e-09
7.4014979e-09
7.4025725e-09
7.3929017e-09
7.3738197e-09
7.3612844e-09
7.353455e-09
0.0011997547
0.0022279551
0.0019981408
0.00063200545
6.5550389e-07
3.8271277e-09
3.375442e-09
3.3742103e-09
3.2838474e-09
3.329319e-09
3.3257085e-09
3.4040916e-09
3.4552528e-09
3.5719372e-09
3.6901508e-09
3.8646398e-09
4.0708835e-09
4.3402916e-09
4.6672493e-09
5.0616095e-09
5.5031186e-09
5.9621518e-09
6.3941784e-09
6.7634547e-09
7.0508761e-09
7.2520594e-09
7.3687961e-09
7.4189536e-09
7.4291429e-09
7.4170739e-09
7.3928637e-09
7.3669475e-09
7.3490193e-09
7.3345446e-09
7.3127104e-09
7.2981761e-09
7.2934409e-09
7.2949054e-09
7.3014025e-09
7.3088494e-09
7.3237726e-09
7.3606371e-09
7.3844588e-09
7.3960132e-09
7.4003101e-09
7.4010059e-09
7.38746e-09
7.3708158e-09
7.3597874e-09
7.352855e-09
0.001194997
0.0021613646
0.0018510056
0.00051457471
1.8911697e-07
3.8257024e-09
3.4241452e-09
3.4250007e-09
3.3391085e-09
3.3880687e-09
3.389529e-09
3.4727725e-09
3.5312284e-09
3.6558953e-09
3.7852046e-09
3.9727596e-09
4.196052e-09
4.4854062e-09
4.8352762e-09
5.2508737e-09
5.7068115e-09
6.1680571e-09
6.589332e-09
6.9387064e-09
7.2026111e-09
7.3754047e-09
7.464089e-09
7.4923301e-09
7.4881485e-09
7.4635901e-09
7.4297083e-09
7.39678e-09
7.3737446e-09
7.3544031e-09
7.3275156e-09
7.3099443e-09
7.3036788e-09
7.3030512e-09
7.3072659e-09
7.3142423e-09
7.3316843e-09
7.3668386e-09
7.3867425e-09
7.3959271e-09
7.3988763e-09
7.3989665e-09
7.3825914e-09
7.3682079e-09
7.3585212e-09
7.3523551e-09
0.001190221
0.0020923017
0.0016954808
0.00041020605
6.6132511e-08
3.8480834e-09
3.4752199e-09
3.4783029e-09
3.3971659e-09
3.4499551e-09
3.4569308e-09
3.545611e-09
3.6121172e-09
3.7457261e-09
3.8871833e-09
4.0890235e-09
4.3308773e-09
4.6416173e-09
5.0151139e-09
5.4510087e-09
5.9184059e-09
6.3776318e-09
6.7843299e-09
7.111818e-09
7.3494649e-09
7.491478e-09
7.5520197e-09
7.5621371e-09
7.5431211e-09
7.5067867e-09
7.4639096e-09
7.4245745e-09
7.3969312e-09
7.3728697e-09
7.341353e-09
7.3210246e-09
7.3128266e-09
7.310936e-09
7.3127741e-09
7.3198998e-09
7.3404168e-09
7.3717911e-09
7.3885202e-09
7.3956698e-09
7.3974071e-09
7.3959562e-09
7.3784558e-09
7.3659941e-09
7.357441e-09
7.3519379e-09
0.0011850903
0.0020185475
0.0015466269
0.00031784757
2.8447724e-08
3.883498e-09
3.5287958e-09
3.534314e-09
3.4582774e-09
3.5153079e-09
3.5283696e-09
3.62321e-09
3.6986465e-09
3.8419672e-09
3.9968308e-09
4.2142561e-09
4.4762733e-09
4.8097776e-09
5.2072017e-09
5.6617454e-09
6.1369382e-09
6.5896725e-09
6.9783618e-09
7.2822441e-09
7.4895518e-09
7.5993837e-09
7.6342182e-09
7.6277761e-09
7.5941924e-09
7.54678e-09
7.4955851e-09
7.4504503e-09
7.4186407e-09
7.39002e-09
7.3542796e-09
7.3312582e-09
7.3211929e-09
7.3182809e-09
7.3180582e-09
7.3255988e-09
7.3490202e-09
7.3759439e-09
7.3897223e-09
7.3953273e-09
7.3965085e-09
7.3916151e-09
7.3750869e-09
7.3641708e-09
7.3565417e-09
7.3515927e-09
0.0011797826
0.0019349147
0.0013932959
0.00023287561
1.4747424e-08
3.9266852e-09
3.5850007e-09
3.5932945e-09
3.5227635e-09
3.5846363e-09
3.6044279e-09
3.7061245e-09
3.7913637e-09
3.9454095e-09
4.1149534e-09
4.3493716e-09
4.6332087e-09
4.9906974e-09
5.4117945e-09
5.8825498e-09
6.3612432e-09
6.8030097e-09
7.170817e-09
7.448123e-09
7.6216484e-09
7.6987603e-09
7.7123737e-09
7.68872e-09
7.6414201e-09
7.5837027e-09
7.5248645e-09
7.4745149e-09
7.4389508e-09
7.4059353e-09
7.3663291e-09
7.340727e-09
7.328862e-09
7.3248283e-09
7.3232973e-09
7.3312487e-09
7.3571274e-09
7.3794213e-09
7.3905121e-09
7.3949896e-09
7.3957872e-09
7.3867821e-09
7.3722957e-09
7.3626205e-09
7.3557856e-09
7.3513024e-09
0.0011767195
0.0018625403
0.0012416796
0.00015609076
9.248436e-09
3.9750257e-09
3.6441089e-09
3.6556894e-09
3.5912095e-09
3.6585783e-09
3.6857443e-09
3.7949572e-09
3.8909435e-09
4.0567776e-09
4.2424085e-09
4.4953815e-09
4.8027108e-09
5.1851027e-09
5.6289143e-09
6.1126064e-09
6.5900065e-09
7.0165413e-09
7.3611058e-09
7.6072819e-09
7.7446251e-09
7.7914004e-09
7.7857361e-09
7.7451086e-09
7.6849648e-09
7.617701e-09
7.5518822e-09
7.4968814e-09
7.4579374e-09
7.4206869e-09
7.3775086e-09
7.3494353e-09
7.3359199e-09
7.330764e-09
7.3284544e-09
7.3369981e-09
7.3643445e-09
7.3824047e-09
7.3910622e-09
7.3944496e-09
7.3948255e-09
7.3823065e-09
7.3698059e-09
7.361275e-09
7.3551683e-09
7.351057e-09
0.0011743003
0.0017845211
0.0010921574
9.0312307e-05
6.7970483e-09
4.0271822e-09
3.7067233e-09
3.7221973e-09
3.6643775e-09
3.7377322e-09
3.7728787e-09
3.8903112e-09
3.9980982e-09
4.1768319e-09
4.3801549e-09
4.653416e-09
4.985832e-09
5.3935701e-09
5.8582877e-09
6.3508199e-09
6.8218748e-09
7.229306e-09
7.5477071e-09
7.7578715e-09
7.8578755e-09
7.8791364e-09
7.8537612e-09
7.7970458e-09
7.7249852e-09
7.6489302e-09
7.5767753e-09
7.5176593e-09
7.4756773e-09
7.4343311e-09
7.3878067e-09
7.3573566e-09
7.3423185e-09
7.3363583e-09
7.3336407e-09
7.3438453e-09
7.3702398e-09
7.3849271e-09
7.3915555e-09
7.3937264e-09
7.3933729e-09
7.3784887e-09
7.3676642e-09
7.3601512e-09
7.354638e-09
7.3508559e-09
0.0011730053
0.0017028216
0.00094837845
4.2547901e-05
5.6340375e-09
4.0831023e-09
3.7736574e-09
3.7935593e-09
3.7427723e-09
3.8225554e-09
3.8663457e-09
3.9928427e-09
4.1136808e-09
4.3064322e-09
4.5292885e-09
4.8247107e-09
5.1835934e-09
5.6164692e-09
6.0993274e-09
6.5958556e-09
7.0555143e-09
7.4405046e-09
7.7281214e-09
7.8985727e-09
7.9629134e-09
7.9615541e-09
7.9164664e-09
7.8447252e-09
7.7616624e-09
7.6775509e-09
7.5996824e-09
7.5369545e-09
7.4922471e-09
7.4469105e-09
7.3971792e-09
7.3644927e-09
7.3481793e-09
7.3417737e-09
7.3389429e-09
7.3516379e-09
7.3747343e-09
7.3868503e-09
7.3919201e-09
7.3934422e-09
7.3905387e-09
7.3754762e-09
7.3659404e-09
7.3591895e-09
7.3542375e-09
7.3507982e-09
0.0011730714
0.0016162843
0.00081253224
1.6095658e-05
5.0705856e-09
4.1437726e-09
3.8454469e-09
3.8700368e-09
3.8266764e-09
3.9134182e-09
3.9667577e-09
4.1033351e-09
4.2385065e-09
4.446783e-09
4.6910696e-09
5.0105543e-09
5.396889e-09
5.8538571e-09
6.3510999e-09
6.8462314e-09
7.2896747e-09
7.6491468e-09
7.89966e-09
8.0283745e-09