/*--------------------------------*- C++ -*----------------------------------*\
  =========                 |
  \\      /  F ield         | OpenFOAM: The Open Source CFD Toolbox
   \\    /   O peration     | Website:  https://openfoam.org
    \\  /    A nd           | Version:  8
     \\/     M anipulation  |
\*---------------------------------------------------------------------------*/
FoamFile
{
    version     2.0;
    format      ascii;
    class       volScalarField;
    location    "0.269994";
    object      nuTilda;
}
// * * * * * * * * * * * * * * * * * * * * * * * * * * * * * * * * * * * * * //

dimensions      [0 2 -1 0 0 0 0];

internalField   nonuniform List<scalar> 
20000
(
0.0013197643
0.0033550354
0.0045882373
0.0051359846
0.0048452859
0.0034423887
0.00087932869
3.527453e-05
1.020004e-05
1.0156535e-05
1.00757e-05
1.0076352e-05
1.0030945e-05
1.0037702e-05
1.0016846e-05
1.0019085e-05
1.0010178e-05
1.0009252e-05
1.0005539e-05
1.0004443e-05
1.0002798e-05
1.0002005e-05
1.000135e-05
1.0001107e-05
1.0001032e-05
1.0000967e-05
1.0000878e-05
1.0000793e-05
1.0000722e-05
1.0000693e-05
1.0000709e-05
1.0000725e-05
1.0000719e-05
1.0000757e-05
1.0000804e-05
1.0000678e-05
1.0000631e-05
1.0000722e-05
1.000078e-05
1.0000755e-05
1.0000791e-05
1.0000972e-05
1.0001248e-05
1.0001676e-05
1.0001984e-05
1.0002319e-05
1.0002665e-05
1.0002983e-05
1.000321e-05
1.0001942e-05
0.0013250311
0.0033410901
0.0045334895
0.0050370424
0.0046972725
0.0032255324
0.00074231577
2.7344632e-05
1.0185258e-05
1.0156025e-05
1.0075089e-05
1.0076083e-05
1.0030686e-05
1.0037581e-05
1.0016579e-05
1.0018937e-05
1.0010012e-05
1.0009136e-05
1.0005443e-05
1.0004368e-05
1.0002736e-05
1.000195e-05
1.000129e-05
1.0001035e-05
1.0000959e-05
1.0000894e-05
1.0000814e-05
1.0000749e-05
1.0000704e-05
1.000069e-05
1.00007e-05
1.0000714e-05
1.000071e-05
1.0000748e-05
1.0000806e-05
1.0000679e-05
1.0000624e-05
1.0000711e-05
1.0000773e-05
1.0000749e-05
1.0000782e-05
1.0000972e-05
1.0001263e-05
1.0001639e-05
1.0002001e-05
1.0002321e-05
1.0002673e-05
1.0002975e-05
1.000318e-05
1.0001918e-05
0.0013192492
0.0033106879
0.0044714328
0.0049379098
0.0045531637
0.0030085797
0.00061751697
2.1682689e-05
1.0175603e-05
1.0155068e-05
1.0074482e-05
1.0075723e-05
1.0030453e-05
1.003739e-05
1.0016327e-05
1.0018763e-05
1.0009854e-05
1.0009024e-05
1.0005367e-05
1.0004324e-05
1.0002719e-05
1.0001957e-05
1.0001309e-05
1.0001038e-05
1.0000958e-05
1.0000891e-05
1.0000814e-05
1.0000752e-05
1.0000704e-05
1.0000681e-05
1.0000693e-05
1.0000712e-05
1.0000708e-05
1.0000739e-05
1.0000801e-05
1.000068e-05
1.0000621e-05
1.0000708e-05
1.0000774e-05
1.0000749e-05
1.0000784e-05
1.0000982e-05
1.0001307e-05
1.0001663e-05
1.0002005e-05
1.0002308e-05
1.0002666e-05
1.0002957e-05
1.0003143e-05
1.0001866e-05
0.0013141175
0.0032816663
0.0044095211
0.0048386089
0.0044093125
0.0027855717
0.000506741
1.7720662e-05
1.0169025e-05
1.015399e-05
1.007383e-05
1.0075294e-05
1.0030253e-05
1.0037168e-05
1.0016088e-05
1.0018572e-05
1.0009696e-05
1.0008895e-05
1.0005279e-05
1.000426e-05
1.000268e-05
1.0001933e-05
1.0001294e-05
1.0001032e-05
1.0000954e-05
1.0000888e-05
1.0000808e-05
1.0000743e-05
1.0000695e-05
1.0000675e-05
1.0000688e-05
1.0000711e-05
1.0000706e-05
1.0000732e-05
1.0000797e-05
1.000068e-05
1.0000617e-05
1.00007e-05
1.0000775e-05
1.0000754e-05
1.000079e-05
1.0000991e-05
1.0001349e-05
1.0001724e-05
1.0002006e-05
1.0002304e-05
1.0002664e-05
1.0002943e-05
1.0003107e-05
1.0001814e-05
0.0013089652
0.0032527117
0.004347131
0.0047390211
0.0042658375
0.0025572242
0.00040946824
1.5016874e-05
1.0164317e-05
1.0152676e-05
1.0073138e-05
1.0074795e-05
1.0030062e-05
1.0036919e-05
1.0015861e-05
1.0018373e-05
1.0009544e-05
1.0008766e-05
1.0005196e-05
1.00042e-05
1.0002648e-05
1.000192e-05
1.000129e-05
1.0001032e-05
1.0000955e-05
1.0000887e-05
1.0000808e-05
1.0000741e-05
1.000069e-05
1.000067e-05
1.0000683e-05
1.000071e-05
1.0000705e-05
1.0000725e-05
1.0000793e-05
1.000068e-05
1.0000614e-05
1.0000694e-05
1.0000776e-05
1.0000755e-05
1.0000794e-05
1.0000996e-05
1.000137e-05
1.0001785e-05
1.0001997e-05
1.0002296e-05
1.0002658e-05
1.0002925e-05
1.0003067e-05
1.0001758e-05
0.0013039859
0.0032240856
0.0042848767
0.0046386344
0.0041224251
0.0023254237
0.00032580143
1.3226521e-05
1.0160734e-05
1.0151183e-05
1.0072409e-05
1.0074227e-05
1.0029858e-05
1.0036639e-05
1.0015647e-05
1.0018163e-05
1.0009395e-05
1.0008631e-05
1.0005112e-05
1.0004136e-05
1.0002614e-05
1.0001902e-05
1.0001283e-05
1.000103e-05
1.0000955e-05
1.0000886e-05
1.0000805e-05
1.0000737e-05
1.0000685e-05
1.0000665e-05
1.0000679e-05
1.0000709e-05
1.0000703e-05
1.0000718e-05
1.0000788e-05
1.0000679e-05
1.0000612e-05
1.0000688e-05
1.0000776e-05
1.0000758e-05
1.00008e-05
1.0000998e-05
1.0001367e-05
1.0001822e-05
1.0001986e-05
1.0002289e-05
1.0002651e-05
1.0002907e-05
1.0003025e-05
1.0001702e-05
0.0012992373
0.0031955891
0.004222222
0.0045367253
0.0039783376
0.0020935192
0.00025533567
1.2074901e-05
1.0157818e-05
1.0149533e-05
1.0071648e-05
1.0073593e-05
1.0029644e-05
1.0036332e-05
1.0015447e-05
1.0017943e-05
1.0009249e-05
1.0008492e-05
1.0005028e-05
1.0004072e-05
1.000258e-05
1.0001884e-05
1.0001278e-05
1.0001029e-05
1.0000955e-05
1.0000885e-05
1.0000804e-05
1.0000733e-05
1.0000681e-05
1.000066e-05
1.0000675e-05
1.0000706e-05
1.0000701e-05
1.0000711e-05
1.0000782e-05
1.0000678e-05
1.000061e-05
1.0000682e-05
1.0000777e-05
1.000076e-05
1.0000804e-05
1.0001e-05
1.0001342e-05
1.0001816e-05
1.0001974e-05
1.0002282e-05
1.0002641e-05
1.0002884e-05
1.0002979e-05
1.0001647e-05
0.0012944196
0.0031673599
0.0041592116
0.0044326585
0.0038325876
0.0018697313
0.00019727206
1.1353907e-05
1.0155292e-05
1.0147747e-05
1.0070858e-05
1.0072895e-05
1.0029424e-05
1.0035996e-05
1.0015259e-05
1.0017712e-05
1.0009108e-05
1.0008349e-05
1.0004945e-05
1.0004005e-05
1.0002546e-05
1.0001866e-05
1.0001272e-05
1.0001027e-05
1.0000954e-05
1.0000884e-05
1.0000802e-05
1.000073e-05
1.0000677e-05
1.0000657e-05
1.0000672e-05
1.0000704e-05
1.0000699e-05
1.0000705e-05
1.0000777e-05
1.0000677e-05
1.0000608e-05
1.0000677e-05
1.0000777e-05
1.0000763e-05
1.0000808e-05
1.0001003e-05
1.0001306e-05
1.0001768e-05
1.0001966e-05
1.0002275e-05
1.000263e-05
1.0002859e-05
1.000293e-05
1.0001591e-05
0.0012895718
0.0031398276
0.0040964746
0.0043261027
0.0036842216
0.0016545725
0.00015020649
1.091277e-05
1.0152986e-05
1.0145835e-05
1.0070041e-05
1.0072135e-05
1.0029197e-05
1.0035632e-05
1.0015086e-05
1.0017471e-05
1.0008971e-05
1.0008203e-05
1.0004862e-05
1.0003938e-05
1.0002512e-05
1.0001847e-05
1.0001266e-05
1.0001026e-05
1.0000954e-05
1.0000884e-05
1.0000801e-05
1.0000727e-05
1.0000674e-05
1.0000654e-05
1.0000669e-05
1.0000701e-05
1.0000696e-05
1.0000699e-05
1.0000772e-05
1.0000675e-05
1.0000606e-05
1.0000671e-05
1.0000777e-05
1.0000765e-05
1.0000811e-05
1.0001011e-05
1.0001277e-05
1.0001702e-05
1.0001963e-05
1.0002266e-05
1.0002616e-05
1.0002836e-05
1.0002881e-05
1.0001533e-05
0.0012851367
0.0031131393
0.0040347047
0.0042182371
0.0035322949
0.0014496931
0.00011281336
1.0648358e-05
1.0150801e-05
1.0143809e-05
1.0069203e-05
1.0071316e-05
1.0028966e-05
1.0035241e-05
1.0014925e-05
1.001722e-05
1.0008838e-05
1.0008053e-05
1.0004781e-05
1.0003869e-05
1.0002478e-05
1.0001828e-05
1.0001261e-05
1.0001025e-05
1.0000953e-05
1.0000883e-05
1.00008e-05
1.0000725e-05
1.0000671e-05
1.0000651e-05
1.0000667e-05
1.0000698e-05
1.0000694e-05
1.0000692e-05
1.0000767e-05
1.0000673e-05
1.0000604e-05
1.0000666e-05
1.0000777e-05
1.0000768e-05
1.0000813e-05
1.0001024e-05
1.0001269e-05
1.0001655e-05
1.0001964e-05
1.0002257e-05
1.00026e-05
1.0002816e-05
1.0002825e-05
1.0001473e-05
0.0012809892
0.0030870791
0.0039738109
0.0041166699
0.0033737879
0.0012562698
8.382098e-05
1.0492682e-05
1.0148679e-05
1.0141682e-05
1.0068345e-05
1.0070441e-05
1.0028731e-05
1.0034824e-05
1.0014777e-05
1.0016961e-05
1.0008709e-05
1.00079e-05
1.00047e-05
1.00038e-05
1.0002444e-05
1.0001809e-05
1.0001255e-05
1.0001023e-05
1.0000952e-05
1.0000882e-05
1.0000798e-05
1.0000723e-05
1.0000669e-05
1.000065e-05
1.0000665e-05
1.0000695e-05
1.0000691e-05
1.0000686e-05
1.0000761e-05
1.000067e-05
1.0000601e-05
1.0000661e-05
1.0000777e-05
1.0000771e-05
1.0000815e-05
1.0001039e-05
1.0001281e-05
1.0001646e-05
1.0001967e-05
1.0002246e-05
1.0002579e-05
1.0002785e-05
1.0002766e-05
1.0001423e-05
0.0012769885
0.0030612308
0.0039130115
0.0040069231
0.0032063166
0.0010760404
6.1880317e-05
1.0401812e-05
1.0146589e-05
1.013947e-05
1.0067471e-05
1.0069516e-05
1.0028493e-05
1.0034383e-05
1.0014642e-05
1.0016692e-05
1.0008583e-05
1.0007745e-05
1.000462e-05
1.0003729e-05
1.000241e-05
1.0001789e-05
1.000125e-05
1.0001022e-05
1.0000952e-05
1.0000882e-05
1.0000798e-05
1.0000721e-05
1.0000667e-05
1.0000648e-05
1.0000662e-05
1.0000692e-05
1.0000688e-05
1.000068e-05
1.0000755e-05
1.0000667e-05
1.0000598e-05
1.0000657e-05
1.0000777e-05
1.0000773e-05
1.0000817e-05
1.0001055e-05
1.00013e-05
1.0001657e-05
1.0001966e-05
1.0002234e-05
1.0002557e-05
1.0002727e-05
1.0002702e-05
1.0001357e-05
0.0012733036
0.0030353568
0.0038524156
0.0038976807
0.0030303148
0.00091038868
4.5570898e-05
1.0348462e-05
1.0144516e-05
1.0137173e-05
1.0066584e-05
1.0068542e-05
1.0028253e-05
1.0033919e-05
1.0014518e-05
1.0016416e-05
1.0008462e-05
1.0007588e-05
1.0004542e-05
1.0003659e-05
1.0002377e-05
1.0001769e-05
1.0001245e-05
1.000102e-05
1.0000951e-05
1.0000881e-05
1.0000797e-05
1.0000719e-05
1.0000666e-05
1.0000647e-05
1.0000659e-05
1.0000688e-05
1.0000686e-05
1.0000674e-05
1.0000749e-05
1.0000663e-05
1.0000593e-05
1.0000652e-05
1.0000777e-05
1.0000775e-05
1.000082e-05
1.0001071e-05
1.0001316e-05
1.0001655e-05
1.0001962e-05
1.0002222e-05
1.0002535e-05
1.0002674e-05
1.0002637e-05
1.0001268e-05
0.0012697318
0.0030087704
0.0037883574
0.0037850678
0.0028453099
0.0007615214
3.3833002e-05
1.0316664e-05
1.0142458e-05
1.013481e-05
1.0065687e-05
1.0067525e-05
1.0028014e-05
1.0033435e-05
1.0014406e-05
1.0016132e-05
1.0008344e-05
1.000743e-05
1.0004464e-05
1.0003587e-05
1.0002344e-05
1.000175e-05
1.000124e-05
1.0001018e-05
1.000095e-05
1.0000881e-05
1.0000797e-05
1.0000718e-05
1.0000665e-05
1.0000646e-05
1.0000656e-05
1.0000685e-05
1.0000683e-05
1.0000668e-05
1.0000741e-05
1.0000659e-05
1.0000589e-05
1.0000646e-05
1.0000777e-05
1.0000777e-05
1.0000822e-05
1.0001084e-05
1.0001327e-05
1.0001627e-05
1.0001959e-05
1.000221e-05
1.0002511e-05
1.0002628e-05
1.0002556e-05
1.0001164e-05
0.0012662612
0.0029823039
0.0037244407
0.0036724733
0.0026515411
0.00063264123
2.5658358e-05
1.0296918e-05
1.0140409e-05
1.0132378e-05
1.0064784e-05
1.0066467e-05
1.0027774e-05
1.0032932e-05
1.0014304e-05
1.0015842e-05
1.0008229e-05
1.0007275e-05
1.0004388e-05
1.0003516e-05
1.0002311e-05
1.000173e-05
1.0001235e-05
1.0001017e-05
1.0000949e-05
1.000088e-05
1.0000797e-05
1.0000717e-05
1.0000664e-05
1.0000645e-05
1.0000653e-05
1.0000681e-05
1.000068e-05
1.0000663e-05
1.0000734e-05
1.0000655e-05
1.0000584e-05
1.000064e-05
1.0000777e-05
1.000078e-05
1.0000823e-05
1.0001095e-05
1.0001342e-05
1.0001595e-05
1.0001958e-05
1.0002198e-05
1.0002485e-05
1.0002584e-05
1.0002462e-05
1.0001051e-05
0.0012629156
0.0029552889
0.0036591909
0.0035584334
0.0024494508
0.00051492658
1.9987601e-05
1.0283795e-05
1.013837e-05
1.0129885e-05
1.0063875e-05
1.0065373e-05
1.0027536e-05
1.003241e-05
1.0014213e-05
1.0015546e-05
1.0008118e-05
1.0007119e-05
1.0004313e-05
1.0003445e-05
1.0002279e-05
1.000171e-05
1.000123e-05
1.0001015e-05
1.0000948e-05
1.000088e-05
1.0000796e-05
1.0000716e-05
1.0000663e-05
1.0000642e-05
1.000065e-05
1.0000677e-05
1.0000679e-05
1.0000658e-05
1.0000726e-05
1.0000651e-05
1.0000579e-05
1.0000633e-05
1.0000777e-05
1.0000783e-05
1.0000824e-05
1.0001103e-05
1.0001366e-05
1.0001582e-05
1.0001956e-05
1.0002185e-05
1.0002458e-05
1.0002543e-05
1.0002357e-05
1.0000943e-05
0.0012596412
0.0029272968
0.0035917314
0.003436684
0.0022409779
0.0004116085
1.6215658e-05
1.0274439e-05
1.0136342e-05
1.0127351e-05
1.0062965e-05
1.0064251e-05
1.00273e-05
1.0031875e-05
1.001413e-05
1.0015246e-05
1.0008011e-05
1.0006962e-05
1.0004238e-05
1.0003374e-05
1.0002247e-05
1.0001691e-05
1.0001226e-05
1.0001013e-05
1.0000947e-05
1.0000879e-05
1.0000795e-05
1.0000715e-05
1.0000661e-05
1.000064e-05
1.0000646e-05
1.0000674e-05
1.0000677e-05
1.0000654e-05
1.0000718e-05
1.0000647e-05
1.0000574e-05
1.0000624e-05
1.0000777e-05
1.0000785e-05
1.0000825e-05
1.0001108e-05
1.0001396e-05
1.000159e-05
1.000195e-05
1.0002171e-05
1.000243e-05
1.0002511e-05
1.0002243e-05
1.0000842e-05
0.0012563618
0.0028981103
0.0035224924
0.0033123082
0.0020290365
0.00032241543
1.3791876e-05
1.0267175e-05
1.0134323e-05
1.012478e-05
1.0062056e-05
1.0063103e-05
1.0027067e-05
1.0031325e-05
1.0014056e-05
1.0014942e-05
1.0007907e-05
1.0006805e-05
1.0004165e-05
1.0003304e-05
1.0002216e-05
1.0001672e-05
1.0001221e-05
1.0001011e-05
1.0000946e-05
1.0000878e-05
1.0000794e-05
1.0000713e-05
1.0000658e-05
1.0000637e-05
1.0000642e-05
1.0000669e-05
1.0000675e-05
1.0000651e-05
1.0000712e-05
1.0000642e-05
1.0000569e-05
1.0000615e-05
1.0000777e-05
1.0000788e-05
1.0000826e-05
1.000111e-05
1.0001429e-05
1.0001602e-05
1.0001938e-05
1.0002157e-05
1.0002402e-05
1.0002489e-05
1.0002117e-05
1.0000752e-05
0.0012529876
0.0028672764
0.0034486262
0.0031869237
0.0018163577
0.00024736808
1.2294192e-05
1.0260997e-05
1.0132312e-05
1.0122184e-05
1.0061149e-05
1.0061935e-05
1.0026837e-05
1.0030765e-05
1.0013989e-05
1.0014636e-05
1.0007805e-05
1.0006649e-05
1.0004094e-05
1.0003234e-05
1.0002186e-05
1.0001653e-05
1.0001217e-05
1.0001009e-05
1.0000945e-05
1.0000877e-05
1.0000792e-05
1.0000711e-05
1.0000656e-05
1.0000633e-05
1.0000638e-05
1.0000665e-05
1.0000672e-05
1.0000648e-05
1.0000705e-05
1.0000638e-05
1.0000565e-05
1.0000606e-05
1.0000776e-05
1.0000791e-05
1.0000826e-05
1.0001109e-05
1.0001453e-05
1.0001604e-05
1.0001922e-05
1.0002142e-05
1.0002376e-05
1.000245e-05
1.0001997e-05
1.0000674e-05
0.0012496709
0.0028361846
0.0033701982
0.0030593465
0.0016054888
0.00018564694
1.1400945e-05
1.0255238e-05
1.0130303e-05
1.0119565e-05
1.0060247e-05
1.0060747e-05
1.0026612e-05
1.0030195e-05
1.0013928e-05
1.0014327e-05
1.0007707e-05
1.0006493e-05
1.0004023e-05
1.0003166e-05
1.0002156e-05
1.0001634e-05
1.0001212e-05
1.0001007e-05
1.0000944e-05
1.0000875e-05
1.000079e-05
1.0000708e-05
1.0000652e-05
1.000063e-05
1.0000634e-05
1.0000661e-05
1.0000669e-05
1.0000646e-05
1.00007e-05
1.0000633e-05
1.000056e-05
1.0000596e-05
1.0000773e-05
1.0000794e-05
1.0000826e-05
1.0001106e-05
1.0001459e-05
1.0001598e-05
1.0001906e-05
1.0002124e-05
1.0002352e-05
1.0002406e-05
1.0001907e-05
1.0000617e-05
0.0012465661
0.0028054999
0.0032961242
0.0029271077
0.001399487
0.00013620971
1.0886499e-05
1.024947e-05
1.0128293e-05
1.0116932e-05
1.0059351e-05
1.0059546e-05
1.0026391e-05
1.0029618e-05
1.0013872e-05
1.0014018e-05
1.000761e-05
1.0006338e-05
1.0003954e-05
1.0003099e-05
1.0002127e-05
1.0001616e-05
1.0001207e-05
1.0001004e-05
1.0000943e-05
1.0000874e-05
1.0000788e-05
1.0000706e-05
1.0000649e-05
1.0000625e-05
1.0000629e-05
1.0000656e-05
1.0000667e-05
1.0000645e-05
1.0000694e-05
1.0000628e-05
1.0000555e-05
1.0000586e-05
1.0000768e-05
1.0000797e-05
1.0000827e-05
1.0001102e-05
1.0001464e-05
1.0001593e-05
1.0001892e-05
1.0002106e-05
1.0002338e-05
1.0002367e-05
1.0001834e-05
1.0000584e-05
0.001243314
0.0027732392
0.0032180851
0.0027879059
0.0012019359
9.7838428e-05
1.0600534e-05
1.0243679e-05
1.0126283e-05
1.0114289e-05
1.0058463e-05
1.0058335e-05
1.0026176e-05
1.0029036e-05
1.0013821e-05
1.0013708e-05
1.0007515e-05
1.0006186e-05
1.0003886e-05
1.0003032e-05
1.0002098e-05
1.0001598e-05
1.0001203e-05
1.0001002e-05
1.0000941e-05
1.0000872e-05
1.0000785e-05
1.0000703e-05
1.0000645e-05
1.0000621e-05
1.0000625e-05
1.0000652e-05
1.0000664e-05
1.0000644e-05
1.0000689e-05
1.0000623e-05
1.000055e-05
1.0000576e-05
1.0000763e-05
1.0000798e-05
1.0000827e-05
1.0001098e-05
1.0001465e-05
1.000159e-05
1.000188e-05
1.0002096e-05
1.0002332e-05
1.0002335e-05
1.0001768e-05
1.0000563e-05
0.0012400933
0.0027402085
0.0031375137
0.0026410054
0.0010161023
6.8995928e-05
1.0446138e-05
1.0238723e-05
1.0124271e-05
1.0111638e-05
1.0057585e-05
1.0057117e-05
1.0025968e-05
1.0028451e-05
1.0013772e-05
1.0013391e-05
1.0007422e-05
1.0006035e-05
1.0003819e-05
1.0002968e-05
1.000207e-05
1.000158e-05
1.0001198e-05
1.0001e-05
1.000094e-05
1.0000869e-05
1.0000783e-05
1.0000699e-05
1.000064e-05
1.0000616e-05
1.000062e-05
1.0000648e-05
1.0000662e-05
1.0000643e-05
1.0000683e-05
1.0000617e-05
1.0000544e-05
1.0000566e-05
1.0000758e-05
1.00008e-05
1.0000828e-05
1.0001092e-05
1.0001455e-05
1.0001587e-05
1.0001869e-05
1.0002092e-05
1.000233e-05
1.0002302e-05
1.0001708e-05
1.0000543e-05
0.0012368413
0.0027065474
0.0030544071
0.0024900563
0.00084588634
4.8294252e-05
1.0364306e-05
1.0233704e-05
1.012221e-05
1.0108995e-05
1.0056718e-05
1.0055899e-05
1.0025765e-05
1.0027863e-05
1.0013726e-05
1.001305e-05
1.000733e-05
1.0005887e-05
1.0003753e-05
1.0002905e-05
1.0002043e-05
1.0001563e-05
1.0001193e-05
1.0000997e-05
1.0000938e-05
1.0000867e-05
1.0000779e-05
1.0000696e-05
1.0000636e-05
1.000061e-05
1.0000615e-05
1.0000643e-05
1.0000659e-05
1.0000641e-05
1.0000677e-05
1.0000612e-05
1.0000539e-05
1.0000557e-05
1.0000753e-05
1.0000803e-05
1.000083e-05
1.0001088e-05
1.0001443e-05
1.0001582e-05
1.0001855e-05
1.0002084e-05
1.0002302e-05
1.0002249e-05
1.0001651e-05
1.0000525e-05
0.0012336977
0.0026730339
0.00296966
0.0023306098
0.00069237309
3.4077784e-05
1.0319887e-05
1.0228664e-05
1.0120089e-05
1.0106352e-05
1.0055854e-05
1.0054679e-05
1.002557e-05
1.0027275e-05
1.0013682e-05
1.001272e-05
1.0007238e-05
1.0005742e-05
1.0003687e-05
1.0002843e-05
1.0002016e-05
1.0001545e-05
1.0001188e-05
1.0000995e-05
1.0000936e-05
1.0000864e-05
1.0000776e-05
1.0000692e-05
1.0000631e-05
1.0000605e-05
1.000061e-05
1.0000639e-05
1.0000656e-05
1.0000638e-05
1.0000671e-05
1.0000606e-05
1.0000533e-05
1.0000547e-05
1.0000748e-05
1.0000807e-05
1.0000831e-05
1.0001083e-05
1.0001447e-05
1.0001575e-05
1.0001837e-05
1.0002073e-05
1.0002255e-05
1.0002191e-05
1.0001593e-05
1.000051e-05
0.0012307807
0.0026398559
0.0028893444
0.002162232
0.00055916461
2.4942597e-05
1.0294683e-05
1.022358e-05
1.0117914e-05
1.010373e-05
1.0055e-05
1.0053432e-05
1.0025382e-05
1.002669e-05
1.0013637e-05
1.0012398e-05
1.0007147e-05
1.00056e-05
1.0003623e-05
1.0002784e-05
1.0001989e-05
1.0001528e-05
1.0001183e-05
1.0000993e-05
1.0000933e-05
1.0000861e-05
1.0000772e-05
1.0000688e-05
1.0000627e-05
1.00006e-05
1.0000604e-05
1.0000634e-05
1.0000653e-05
1.0000636e-05
1.0000668e-05
1.0000601e-05
1.0000528e-05
1.0000538e-05
1.0000742e-05
1.0000812e-05
1.0000834e-05
1.0001079e-05
1.0001448e-05
1.0001566e-05
1.0001813e-05
1.0002066e-05
1.0002209e-05
1.0002128e-05
1.0001538e-05
1.00005e-05
0.0012279131
0.0026055548
0.0028083287
0.0019844413
0.00044636797
1.9319249e-05
1.0278946e-05
1.0218451e-05
1.0115694e-05
1.0101134e-05
1.0054157e-05
1.0052192e-05
1.0025202e-05
1.002611e-05
1.0013592e-05
1.0012091e-05
1.0007057e-05
1.0005461e-05
1.000356e-05
1.0002726e-05
1.0001963e-05
1.0001512e-05
1.0001178e-05
1.000099e-05
1.0000931e-05
1.0000857e-05
1.0000768e-05
1.0000683e-05
1.0000622e-05
1.0000595e-05
1.0000599e-05
1.0000629e-05
1.000065e-05
1.0000633e-05
1.0000663e-05
1.0000595e-05
1.0000522e-05
1.0000529e-05
1.0000734e-05
1.0000817e-05
1.0000838e-05
1.0001076e-05
1.0001443e-05
1.0001555e-05
1.0001786e-05
1.0002049e-05
1.0002169e-05
1.0002067e-05
1.0001484e-05
1.0000492e-05
0.0012251623
0.0025699178
0.0027237745
0.0017987521
0.00034883262
1.5709419e-05
1.0267896e-05
1.0213279e-05
1.0113434e-05
1.0098601e-05
1.0053324e-05
1.0050963e-05
1.0025031e-05
1.0025537e-05
1.0013545e-05
1.0011808e-05
1.0006967e-05
1.0005326e-05
1.0003498e-05
1.000267e-05
1.0001937e-05
1.0001495e-05
1.0001172e-05
1.0000988e-05
1.0000929e-05
1.0000854e-05
1.0000764e-05
1.0000679e-05
1.0000617e-05
1.000059e-05
1.0000594e-05
1.0000625e-05
1.0000646e-05
1.0000629e-05
1.0000657e-05
1.0000589e-05
1.0000516e-05
1.0000519e-05
1.0000724e-05
1.0000821e-05
1.0000842e-05
1.0001075e-05
1.0001432e-05
1.0001544e-05
1.0001768e-05
1.0002027e-05
1.0002139e-05
1.0002011e-05
1.0001433e-05
1.0000484e-05
0.0012226046
0.0025330928
0.0026376064
0.0016083797
0.0002673574
1.3488964e-05
1.0259422e-05
1.0208069e-05
1.0111145e-05
1.009609e-05
1.0052502e-05
1.004975e-05
1.0024868e-05
1.0024972e-05
1.0013497e-05
1.0011533e-05
1.0006879e-05
1.0005195e-05
1.0003436e-05
1.0002615e-05
1.0001911e-05
1.0001478e-05
1.0001167e-05
1.0000986e-05
1.0000926e-05
1.0000849e-05
1.0000759e-05
1.0000674e-05
1.0000612e-05
1.0000586e-05
1.0000588e-05
1.000062e-05
1.0000641e-05
1.0000625e-05
1.000065e-05
1.0000583e-05
1.0000511e-05
1.000051e-05
1.0000712e-05
1.0000823e-05
1.0000847e-05
1.0001075e-05
1.000142e-05
1.0001534e-05
1.0001761e-05
1.0002007e-05
1.0002109e-05
1.0001956e-05
1.0001386e-05
1.0000476e-05
0.0012201929
0.0024947023
0.00254876
0.0014181942
0.00020081053
1.2167427e-05
1.0252337e-05
1.0202823e-05
1.0108818e-05
1.0093612e-05
1.0051681e-05
1.0048554e-05
1.0024713e-05
1.0024417e-05
1.0013446e-05
1.0011265e-05
1.0006791e-05
1.0005069e-05
1.0003376e-05
1.0002562e-05
1.0001885e-05
1.0001462e-05
1.0001161e-05
1.0000985e-05
1.0000923e-05
1.0000844e-05
1.0000753e-05
1.0000669e-05
1.0000608e-05
1.0000581e-05
1.0000583e-05
1.0000615e-05
1.0000636e-05
1.0000619e-05
1.000064e-05
1.0000577e-05
1.0000505e-05
1.00005e-05
1.0000699e-05
1.0000825e-05
1.0000853e-05
1.0001076e-05
1.000141e-05
1.0001528e-05
1.0001755e-05
1.0001982e-05
1.0002072e-05
1.0001901e-05
1.0001342e-05
1.0000469e-05
0.0012176115
0.0024519399
0.002456277
0.0012397183
0.00014809894
1.1405756e-05
1.0246003e-05
1.0197546e-05
1.0106463e-05
1.0091168e-05
1.0050866e-05
1.0047376e-05
1.0024564e-05
1.0023853e-05
1.0013393e-05
1.0011005e-05
1.0006703e-05
1.0004947e-05
1.0003316e-05
1.0002511e-05
1.0001859e-05
1.0001446e-05
1.0001155e-05
1.0000983e-05
1.000092e-05
1.0000839e-05
1.0000748e-05
1.0000665e-05
1.0000604e-05
1.0000577e-05
1.0000578e-05
1.000061e-05
1.0000631e-05
1.0000612e-05
1.0000629e-05
1.0000571e-05
1.00005e-05
1.0000492e-05
1.0000687e-05
1.0000827e-05
1.000086e-05
1.0001079e-05
1.0001399e-05
1.0001523e-05
1.0001751e-05
1.0001954e-05
1.0002033e-05
1.0001843e-05
1.00013e-05
1.000046e-05
0.0012147264
0.002404224
0.002358513
0.0010712037
0.00010729234
1.0977746e-05
1.0240072e-05
1.0192247e-05
1.0104091e-05
1.0088759e-05
1.005006e-05
1.0046222e-05
1.0024425e-05
1.0023272e-05
1.0013335e-05
1.0010754e-05
1.0006615e-05
1.0004829e-05
1.0003258e-05
1.000246e-05
1.0001833e-05
1.0001429e-05
1.0001149e-05
1.0000982e-05
1.0000916e-05
1.0000833e-05
1.0000742e-05
1.0000661e-05
1.0000601e-05
1.0000572e-05
1.0000572e-05
1.0000605e-05
1.0000626e-05
1.0000604e-05
1.0000618e-05
1.0000564e-05
1.0000495e-05
1.0000484e-05
1.0000675e-05
1.0000829e-05
1.0000867e-05
1.000108e-05
1.0001382e-05
1.0001517e-05
1.0001742e-05
1.000192e-05
1.0001992e-05
1.0001786e-05
1.000126e-05
1.0000449e-05
0.0012113135
0.0023512307
0.0022537344
0.00091421014
7.6584007e-05
1.0741424e-05
1.0234359e-05
1.0186933e-05
1.0101709e-05
1.0086386e-05
1.0049265e-05
1.0045095e-05
1.0024295e-05
1.0022716e-05
1.0013274e-05
1.0010511e-05
1.0006526e-05
1.0004716e-05
1.00032e-05
1.0002411e-05
1.0001806e-05
1.0001413e-05
1.0001144e-05
1.0000981e-05
1.0000911e-05
1.0000827e-05
1.0000738e-05
1.0000658e-05
1.0000598e-05
1.0000568e-05
1.0000566e-05
1.00006e-05
1.0000621e-05
1.0000596e-05
1.0000609e-05
1.0000556e-05
1.0000491e-05
1.0000477e-05
1.0000663e-05
1.0000833e-05
1.0000875e-05
1.0001077e-05
1.0001365e-05
1.0001508e-05
1.0001728e-05
1.0001886e-05
1.0001948e-05
1.0001732e-05
1.0001222e-05
1.0000438e-05
0.0012071597
0.0022921598
0.0021330439
0.00076983003
5.4217977e-05
1.0611338e-05
1.0228783e-05
1.0181608e-05
1.0099319e-05
1.0084052e-05
1.0048483e-05
1.0043999e-05
1.0024175e-05
1.0022181e-05
1.0013209e-05
1.0010278e-05
1.0006438e-05
1.0004608e-05
1.0003142e-05
1.0002363e-05
1.0001779e-05
1.0001396e-05
1.0001138e-05
1.0000981e-05
1.0000906e-05
1.0000821e-05
1.0000734e-05
1.0000656e-05
1.0000594e-05
1.0000563e-05
1.0000561e-05
1.0000594e-05
1.0000615e-05
1.0000588e-05
1.00006e-05
1.0000548e-05
1.0000487e-05
1.0000471e-05
1.0000652e-05
1.0000839e-05
1.0000883e-05
1.0001074e-05
1.0001349e-05
1.0001505e-05
1.000169e-05
1.0001859e-05
1.0001904e-05
1.0001683e-05
1.0001187e-05
1.0000425e-05
0.0012025312
0.0022287611
0.0019991039
0.00064026091
3.8535072e-05
1.0538202e-05
1.0223298e-05
1.0176275e-05
1.0096921e-05
1.0081757e-05
1.0047714e-05
1.0042937e-05
1.0024063e-05
1.0021674e-05
1.0013141e-05
1.0010055e-05
1.000635e-05
1.0004504e-05
1.0003084e-05
1.0002315e-05
1.0001752e-05
1.000138e-05
1.0001132e-05
1.0000982e-05
1.0000901e-05
1.0000817e-05
1.0000731e-05
1.0000652e-05
1.0000589e-05
1.0000558e-05
1.0000556e-05
1.0000589e-05
1.0000609e-05
1.0000579e-05
1.0000591e-05
1.0000539e-05
1.0000483e-05
1.0000466e-05
1.0000641e-05
1.0000847e-05
1.0000892e-05
1.000107e-05
1.0001332e-05
1.0001503e-05
1.0001659e-05
1.0001836e-05
1.0001866e-05
1.0001639e-05
1.0001152e-05
1.0000413e-05
0.0011977491
0.0021622067
0.0018521042
0.00052637678
2.8050124e-05
1.0494847e-05
1.0217865e-05
1.0170942e-05
1.0094522e-05
1.0079506e-05
1.0046963e-05
1.0041914e-05
1.0023961e-05
1.0021207e-05
1.001307e-05
1.0009842e-05
1.0006261e-05
1.0004404e-05
1.0003027e-05
1.0002268e-05
1.0001724e-05
1.0001363e-05
1.0001127e-05
1.0000982e-05
1.0000897e-05
1.0000813e-05
1.0000728e-05
1.0000648e-05
1.0000584e-05
1.0000553e-05
1.0000551e-05
1.0000583e-05
1.0000602e-05
1.000057e-05
1.0000581e-05
1.000053e-05
1.000048e-05
1.0000462e-05
1.0000629e-05
1.0000857e-05
1.00009e-05
1.0001069e-05
1.0001309e-05
1.0001487e-05
1.0001629e-05
1.00018e-05
1.0001832e-05
1.00016e-05
1.0001118e-05
1.00004e-05
0.0011929474
0.0020931849
0.0016967609
0.00042735997
2.1456799e-05
1.0466766e-05
1.0212444e-05
1.0165617e-05
1.0092134e-05
1.0077299e-05
1.0046231e-05
1.0040936e-05
1.0023869e-05
1.0020775e-05
1.0012994e-05
1.000964e-05
1.0006173e-05
1.0004308e-05
1.0002969e-05
1.000222e-05
1.0001695e-05
1.0001346e-05
1.0001122e-05
1.0000983e-05
1.0000894e-05
1.0000811e-05
1.0000724e-05
1.0000641e-05
1.0000578e-05
1.0000548e-05
1.0000546e-05
1.0000578e-05
1.0000595e-05
1.0000561e-05
1.0000572e-05
1.000052e-05
1.0000476e-05
1.000046e-05
1.0000615e-05
1.0000854e-05
1.0000905e-05
1.0001069e-05
1.0001283e-05
1.0001461e-05
1.0001605e-05
1.0001773e-05
1.0001797e-05
1.0001565e-05
1.0001084e-05
1.000039e-05
0.0011877914
0.0020194799
0.0015481289
0.00034296055
1.729521e-05
1.0446217e-05
1.0206998e-05
1.0160305e-05
1.008976e-05
1.007514e-05
1.0045522e-05
1.0040023e-05
1.0023789e-05
1.0020358e-05
1.0012914e-05
1.0009448e-05
1.0006085e-05
1.0004214e-05
1.000291e-05
1.0002172e-05
1.0001665e-05
1.000133e-05
1.0001119e-05
1.0000983e-05
1.0000893e-05
1.0000809e-05
1.0000718e-05
1.0000634e-05
1.0000573e-05
1.0000543e-05
1.0000541e-05
1.0000572e-05
1.0000587e-05
1.0000551e-05
1.0000564e-05
1.0000511e-05
1.0000473e-05
1.000046e-05
1.0000598e-05
1.000082e-05
1.0000904e-05
1.0001067e-05
1.0001257e-05
1.0001442e-05
1.0001594e-05
1.0001751e-05
1.000177e-05
1.0001531e-05
1.0001054e-05
1.0000379e-05
0.0011824575
0.001935911
0.0013951001
0.00026979262
1.4607658e-05
1.0429354e-05
1.0201499e-05
1.0155013e-05
1.0087403e-05
1.0073033e-05
1.0044835e-05
1.0039144e-05
1.002372e-05
1.0019961e-05
1.001283e-05
1.0009266e-05
1.0005997e-05
1.0004124e-05
1.0002851e-05
1.0002124e-05
1.0001635e-05
1.0001314e-05
1.0001116e-05
1.0000985e-05
1.0000894e-05
1.0000805e-05
1.0000709e-05
1.0000627e-05
1.0000567e-05
1.0000537e-05
1.0000536e-05
1.0000567e-05
1.000058e-05
1.0000541e-05
1.0000556e-05
1.0000501e-05
1.000047e-05
1.000046e-05
1.0000583e-05
1.000078e-05
1.0000898e-05
1.0001066e-05
1.0001239e-05
1.0001441e-05
1.0001598e-05
1.000173e-05
1.0001741e-05
1.0001499e-05
1.0001026e-05
1.0000368e-05
0.0011793565
0.0018635955
0.0012438908
0.00020849318
1.2939368e-05
1.041422e-05
1.0195932e-05
1.0149748e-05
1.0085071e-05
1.0070979e-05
1.0044173e-05
1.0038304e-05
1.0023663e-05
1.0019585e-05
1.0012742e-05
1.0009095e-05
1.0005908e-05
1.0004036e-05
1.000279e-05
1.0002075e-05
1.0001605e-05
1.0001299e-05
1.0001113e-05
1.0000985e-05
1.0000895e-05
1.0000799e-05
1.00007e-05
1.0000619e-05
1.000056e-05
1.0000532e-05
1.0000532e-05
1.0000561e-05
1.0000571e-05
1.0000531e-05
1.0000549e-05
1.0000492e-05
1.0000467e-05
1.0000462e-05
1.0000572e-05
1.0000741e-05
1.0000891e-05
1.0001069e-05
1.0001235e-05
1.0001431e-05
1.0001587e-05
1.0001711e-05
1.0001707e-05
1.0001464e-05
1.0001003e-05
1.0000356e-05
0.0011768954
0.0017856484
0.0010949344
0.00015819139
1.1924869e-05
1.0399603e-05
1.0190289e-05
1.0144519e-05
1.008277e-05
1.0068983e-05
1.004354e-05
1.0037502e-05
1.002362e-05
1.001923e-05
1.001265e-05
1.0008934e-05
1.000582e-05
1.0003949e-05
1.0002728e-05
1.0002026e-05
1.0001574e-05
1.0001284e-05
1.0001108e-05
1.0000984e-05
1.0000895e-05
1.000079e-05
1.000069e-05
1.000061e-05
1.0000554e-05
1.0000526e-05
1.0000528e-05
1.0000556e-05
1.0000563e-05
1.000052e-05
1.0000541e-05
1.0000484e-05
1.0000462e-05
1.0000464e-05
1.0000565e-05
1.0000712e-05
1.0000889e-05
1.0001078e-05
1.0001244e-05
1.0001426e-05
1.0001553e-05
1.0001686e-05
1.0001667e-05
1.0001426e-05
1.000098e-05
1.0000344e-05
0.001175552
0.0017040345
0.00095194875
0.00011797216
1.1324187e-05
1.0384875e-05
1.0184564e-05
1.0139332e-05
1.0080504e-05
1.0067049e-05
1.0042937e-05
1.003674e-05
1.0023591e-05
1.0018897e-05
1.0012555e-05
1.0008783e-05
1.0005731e-05
1.0003863e-05
1.0002664e-05
1.0001976e-05
1.0001544e-05
1.0001269e-05
1.0001101e-05
1.0000982e-05
1.0000891e-05
1.0000779e-05
1.000068e-05
1.0000602e-05
1.0000547e-05
1.000052e-05
1.0000524e-05
1.000055e-05
1.0000553e-05
1.0000508e-05
1.0000534e-05
1.0000476e-05
1.0000457e-05
1.0000467e-05
1.0000561e-05
1.0000699e-05
1.0000894e-05
1.0001091e-05
1.0001258e-05
1.0001436e-05
1.0001512e-05
1.0001657e-05
1.000163e-05
1.0001389e-05
1.0000951e-05
1.0000332e-05
0.0011755629
0.0016176015
0.00081723258
8.6618166e-05
1.0975284e-05
1.0370155e-05
1.0178764e-05
1.0134198e-05
1.007828e-05
1.0065181e-05
1.0042366e-05
1.0036018e-05
1.0023578e-05
1.0018587e-05
1.0012457e-05
1.000864e-05
1.0005641e-05
1.0003777e-05
1.0002598e-05
1.0001926e-05
1.0001513e-05
1.0001253e-05
1.0001092e-05
1.0000982e-05