/*--------------------------------*- C++ -*----------------------------------*\
  =========                 |
  \\      /  F ield         | OpenFOAM: The Open Source CFD Toolbox
   \\    /   O peration     | Website:  https://openfoam.org
    \\  /    A nd           | Version:  8
     \\/     M anipulation  |
\*---------------------------------------------------------------------------*/
FoamFile
{
    version     2.0;
    format      ascii;
    class       volScalarField;
    location    "0.269994";
    object      p;
}
// * * * * * * * * * * * * * * * * * * * * * * * * * * * * * * * * * * * * * //

dimensions      [1 -1 -2 0 0 0 0];

internalField   nonuniform List<scalar> 
20000
(
55526.71
55543.021
55562.061
55588.684
55625.095
55673.548
55740.115
55818.456
55916.067
56031.693
56168.104
56338.386
56531.395
56780.599
57058.564
57420.744
57827.269
58352.131
58952.645
59714.528
60604.746
61712.678
63024.853
64625.229
66517.861
68764.254
71356.167
74284.252
77464.53
80776.309
84032.189
87037.353
89649.899
91829.479
93595.258
95004.095
96113.667
96983.479
97657.217
98189.694
98619.941
98968.31
99244.405
99463.02
99646.46
99817.161
100051.88
100212.79
100320.3
100417.93
55670.76
55687.959
55707.503
55734.428
55771.219
55820.369
55888.122
55968.138
56067.988
56186.849
56327.028
56503.242
56702.223
56960.74
57247.766
57623.454
58043.789
58587.755
59209.113
59997.617
60918.128
62062.123
63415.391
65061.022
67001.225
69290.796
71911.426
74836.96
77971.214
81193.723
84340.9
87247.708
89788.553
91920.562
93655.965
95044.815
96141.428
97002
97670.318
98200.151
98628.54
98975.273
99250.192
99468.692
99651.498
99827.468
100063.58
100225.68
100336.57
100412.83
55812.725
55830.564
55850.93
55878.982
55917.389
55968.821
56039.543
56122.657
56226.31
56349.859
56494.946
56677.833
56883.329
57151.415
57447.868
57837.241
58271.77
58835.117
59477.711
60293.337
61244.713
62425.809
63821.338
65514.312
67504.593
69841.096
72495.055
75424.767
78521.931
81665.048
84708.585
87513.688
89973.015
92046.233
93741.406
95102.851
96181.037
97028.657
97688.985
98214.388
98639.703
98983.969
99257.199
99475.069
99657.831
99841.524
100078.22
100240.14
100346.85
100408.11
55968.55
55987.065
56008.266
56037.371
56077.277
56130.817
56204.303
56290.248
56397.158
56524.917
56674.594
56864.132
57076.176
57354.184
57660.406
58064.027
58513.261
59096.63
59761.192
60604.793
61588.055
62807.531
64246.95
65989.331
68032.136
70418.374
73108.626
76046.586
79112.893
82184.536
85129.81
87832.319
90203.292
92208.68
93854.932
95181.671
96235.583
97066.091
97715.457
98234.308
98655.007
98995.688
99266.451
99482.941
99666.279
99861.305
100096.88
100254.19
100351.86
100404.65
56131.463
56150.623
56173.001
56203.501
56245.264
56301.302
56377.987
56467.091
56577.88
56710.448
56865.226
57061.977
57281.039
57569.568
57886.141
58304.705
58769.394
59373.71
60061.372
60934.258
61951.091
63210.941
64696.723
66491.264
68589.52
71027.987
73756.13
76703.421
79740.625
82743.838
85593.287
88192.295
90470.034
92400.761
93991.194
95277.368
96302.355
97112.378
97748.3
98258.758
98673.516
99009.692
99277.319
99491.675
99676.277
99887.155
100119.19
100267.06
100355.4
100401.46
56307.186
56326.267
56349.595
56381.496
56425.101
56483.535
56563.404
56655.619
56770.174
56907.511
57067.419
57271.682
57498.09
57797.679
58125.114
58559.293
59040.213
59666.474
60378.506
61282.133
62334.408
63636.861
65171.705
67021.321
69177.951
71670.737
74437.437
77393.68
80401.739
83337.76
86092.86
88587.907
90769.014
92619.87
94148.844
95389.332
96381.136
97167.498
97787.612
98287.896
98695.401
99026.152
99289.931
99501.31
99687.612
99919.06
100143.87
100280.22
100358.32
100398.39
56491.443
56511.348
56535.383
56568.679
56614.275
56675.159
56758.277
56853.864
56972.569
57115.094
57280.54
57492.892
57727.119
58038.312
58377.103
58827.604
59325.651
59974.986
60712.742
61648.711
62738.557
64086.137
65673.038
67580.876
69798.824
72347.616
75152.588
78115.907
81092.845
83960.888
86621.793
89012.38
91094.539
92861.75
94324.911
95515.564
96470.633
97230.607
97832.833
98321.334
98720.388
99044.875
99304.13
99511.663
99699.82
99954.472
100170.96
100295.38
100361.55
100394.99
56683.984
56706.685
56731.43
56766.103
56813.69
56876.886
56963.136
57062.222
57185.471
57333.608
57504.845
57725.635
57967.934
58291.14
58641.781
59109.393
59625.568
60299.141
61064.07
62034.129
63163.871
64559.281
66201.376
68170.652
70452.699
73058.633
75900.675
78868.053
81810.656
84608.741
87174.806
89460.428
91442.097
93123.004
94517.055
95654.525
96569.864
97301.092
97883.593
98358.852
98748.345
99065.788
99319.856
99522.749
99712.909
99990.45
100200.07
100313.73
100366.28
100390.74
56886.443
56910.635
56936.052
56972.475
57022.493
57088.304
57178.138
57280.773
57408.763
57562.806
57739.946
57969.395
58220.002
58555.742
58918.909
59404.572
59939.943
60638.962
61432.579
62438.632
63610.799
65056.906
66757.462
68791.433
71140.128
73803.681
76680.598
79647.896
82551.815
85276.929
87746.827
89926.928
91807.173
93400.074
94722.682
95804.412
96677.628
97378.162
97939.375
98400.111
98779.042
99088.732
99336.99
99534.692
99727.689
100025.02
100229.34
100335.05
100374.6
100384.78
57098.591
57124.753
57150.63
57188.75
57241.361
57309.855
57403.651
57509.571
57642.042
57802.054
57985.177
58223.599
58482.939
58831.953
59208.488
59713.172
60268.78
60994.461
61818.469
62862.647
64079.969
65579.776
67342.15
69444.046
71861.587
74582.465
77491.04
80453.101
83313.109
85961.525
88333.471
90407.459
92185.807
93689.762
94939.403
95963.525
96792.762
97461.04
97999.673
98444.775
98812.256
99113.547
99355.398
99547.783
99745.866
100057.29
100256.53
100356.73
100389.13
100375.61
57318.293
57346.886
57373.347
57412.828
57467.999
57539.186
57637.535
57747.104
57884.158
58050.504
58240.016
58488.022
58756.742
59119.889
59510.621
60035.213
60612.083
61365.768
62222.066
63306.696
64572.057
66128.678
67956.315
70129.294
72617.425
75394.459
78330.402
81281.109
84091.232
86658.692
88930.597
90897.906
92574.283
93989.009
95164.874
96130.153
96914.067
97548.909
98063.935
98492.476
98847.735
99140.039
99374.906
99562.35
99769.275
100087.1
100281.34
100376.87
100406.76
100363.41
57545.113
57574.914
57602.991
57644.286
57702.565
57776.355
57879.366
57993.221
58135.187
58308.293
58504.652
58762.929
59041.681
59419.715
59825.319
60370.621
60969.881
61753.132
62643.898
63771.5
65087.924
66704.592
68601.02
70848.108
73407.994
76239.033
79196.97
82129.32
84882.996
87364.894
89534.512
91394.636
92969.302
94295.052
95396.926
96302.674
97040.381
97640.961
98131.608
98542.834
98885.222
99167.996
99395.303
99578.61
99798.109
100115.44
100304.16
100394.62
100422.65
100348.42
57782.377
57812.709
57842.317
57885.258
57946.579
58022.844
58130.066
58248.355
58395.39
58575.66
58779.375
59048.603
59337.902
59731.365
60152.413
60719.333
61342.388
62157.05
63084.628
64257.821
65628.439
67308.51
69277.335
71601.35
74233.44
77115.248
80088.723
82994.906
85685.119
88076.667
90141.731
91894.293
93367.822
94605.323
95633.515
96479.527
97170.564
97736.39
98202.131
98595.462
98924.451
99197.192
99416.322
99596.546
99831.655
100143.34
100324.64
100408.77
100433.3
100331.55
58025.371
58056.699
58087.853
58132.592
58197.192
58276.703
58388.368
58511.973
58664.9
58853.021
59064.488
59345.08
59645.174
60054.514
60491.731
61081.491
61730.071
62578.166
63545.043
64766.554
66194.633
67941.618
69986.5
72389.948
75093.838
78022.006
81003.484
83874.987
86494.423
88790.794
90749.113
92393.898
93767.151
94917.523
95872.776
96659.264
97303.536
97834.418
98274.949
98649.972
98965.16
99227.391
99437.673
99615.927
99869.578
100170.75
100341.8
100418.33
100438.53
100313.73
58276.062
58308.794
58341.886
58388.813
58457.238
58540.46
58656.762
58785.67
58944.557
59140.596
59359.703
59651.791
59962.967
60388.92
60843.43
61457.602
62133.622
63017.246
64025.945
65298.605
66787.577
68605.153
70729.748
73214.684
75988.969
78957.84
81938.746
84766.472
87307.669
89504.131
91353.688
92890.7
94164.832
95229.558
96112.993
96840.525
97438.271
97934.296
98349.518
98705.98
99007.085
99258.363
99459.126
99636.571
99911.265
100197.36
100355.55
100423.89
100440.89
100295.46
58536.811
58570.856
58605.71
58654.534
58726.882
58813.789
58934.759
59068.438
59233.025
59437.117
59664.016
59968.097
60291.098
60734.853
61208.128
61848.413
62553.826
63475.056
64528.211
65855.048
67408.561
69300.567
71508.446
74076.304
76918.416
79921.049
82891.837
85666.249
88121.734
90213.752
91952.775
93382.264
94558.708
95539.586
96352.634
97022.079
97573.817
98035.316
98425.317
98763.111
99049.958
99289.873
99480.64
99658.814
99955.545
100223.04
100366.78
100426.32
100441.81
100276.47
58803.231
58838.9
58875.783
58926.902
59003.336
59094.32
59219.804
59358.708
59529.206
59741.918
59977.19
60294.198
60630.108
61093.093
61586.652
62254.709
62991.384
63952.322
65052.746
66437.026
68058.944
70029.344
72323.892
74975.315
77881.374
80909.521
83859.783
86571.053
88933.476
90916.819
92543.858
93866.364
94946.843
95845.959
96590.319
97202.795
97709.295
98136.813
98501.848
98820.999
99093.499
99321.677
99502.45
99684.02
100000.73
100247.36
100376.34
100427.25
100442
100256.17
59078.033
59115.238
59154.016
59207.4
59287.792
59382.676
59512.488
59656.87
59833.362
60055.351
60299.855
60630.967
60980.966
61464.526
61979.76
62677.1
63446.932
64449.849
65600.645
67045.899
68740.285
70793.138
73177.422
75912.062
78876.754
81920.865
84839.453
87477.623
89739.873
91610.702
93124.683
94341.051
95327.565
96147.263
96824.841
97381.665
97843.908
98238.176
98578.647
98879.297
99137.407
99353.501
99525.022
99714.596
100044.69
100269.27
100384.2
100427.45
100440.7
100234.7
59357.224
59396.13
59436.928
59492.872
59577.634
59676.796
59811.322
59962.924
60146.266
60378.499
60633.14
60979.473
61344.508
61849.782
62387.942
63116.091
63921.119
64968.558
66173.131
67683.107
69454.198
71593.604
74070.212
76886.534
79903.017
82952.299
85827.478
88382.601
90537.929
92292.876
93693.155
94804.576
95699.406
96442.256
97055.134
97557.784
97976.933
98338.845
98655.284
98937.677
99181.361
99385.012
99548.858
99753.001
100085.01
100288.36
100388.06
100424.45
100433.2
100212.65
59642.73
59683.592
59726.632
59785.605
59875.185
59978.997
60118.8
60278.345
60469.324
60712.663
60978.012
61340.343
61721.147
62249.184
62811.579
63572.187
64414.742
65509.595
66771.641
68350.283
70202.486
72432.512
75003.347
77898.409
80958.234
84000.771
86820.391
89282.676
91324.797
92961.027
94247.426
95255.45
96061.142
96729.901
97280.285
97730.365
98107.729
98438.319
98731.37
98995.837
99225.033
99415.826
99574.092
99799.188
100120.15
100305.01
100389.77
100418.45
100417.43
100190.87
59937.831
59980.87
60025.995
60087.988
60182.299
60290.764
60436.315
60604.507
60803.213
61058.215
61334.591
61713.624
62110.997
62662.985
63251.104
64046.081
64928.823
66074.286
67397.723
69049.139
70987.033
73311.601
75977.635
78946.897
82039.996
85062.871
87814.536
90174.5
92097.694
93612.966
94785.815
95692.378
96411.733
97009.3
97499.505
97898.721
98235.726
98536.149
98806.558
99053.495
99268.112
99445.651
99600.525
99848.701
100151.2
100318.93
100390.35
100413.43
100391.13
100169.68
60241.861
60287.432
60335.047
60400.494
60499.761
60613.451
60765.121
60942.199
61147.896
61414.875
61702.573
62099.304
62514.277
63091.597
63707.14
64538.678
65464.614
66664.15
68053.065
69781.559
71809.882
74232.601
76993.62
80030.772
83145.512
86134.954
88806.188
91054.799
92854.014
94246.749
95306.895
96114.307
96750.352
97279.726
97712.14
98062.295
98360.433
98631.946
98880.537
99110.386
99310.314
99474.433
99628.337
99899.541
100177.57
100328.12
100390.43
100408.96
100353.94
100149.28
60557.39
60605.223
60654.94
60723.648
60828.011
60947.355
61104.589
61290.014
61502.698
61782.362
62082.188
62497.754
62931.449
63535.595
64180.535
65051.157
66023.576
67280.807
68739.433
70549.532
72673.139
75197.088
78051.42
81148.259
84271.495
87213.039
89791.463
91920.272
93591.255
94860.629
95809.439
96520.339
97076.304
97540.576
97917.654
98220.627
98481.432
98725.368
98953.032
99166.249
99351.39
99502.477
99658.665
99950.704
100200.16
100332.49
100388.03
100403.49
100311.69
100130.29
60875.385
60926.101
60978.657
61051.641
61162.053
61287.748
61451.24
61645.695
61866.607
62161.732
62474.177
62909.608
63363.012
63995.724
64672.377
65584.905
66607.29
67925.965
69458.731
71355.243
73579.003
76206.467
79150.711
82297.062
85414.232
88292.913
90766.425
92767.719
94307.159
95453.186
96292.507
96909.749
97389.032
97791.431
98115.661
98373.348
98598.4
98816.127
99023.804
99220.815
99391.113
99530.481
99693.731
100000.97
100220.72
100334.29
100381.98
100395.17
100271.41
100113.3
61203.947
61257.524
61312.835
61389.99
61506.085
61637.628
61807.718
62011.967
62241.685
62552.219
62878.483
63335.168
63809.729
64473.04
65184.057
66141.472
67217.412
68601.402
70213.01
72201.037
74529.67
77261.814
80290.564
83474.241
86569.491
89370.055
91727.019
93594.004
94999.698
96023.278
96755.386
97281.915
97688.06
98032.054
98305.908
98520.105
98711.091
98903.976
99092.639
99273.802
99429.245
99559.335
99736.548
100047.55
100240.23
100334.85
100372.69
100383.21
100235.36
100098.53
61541.471
61597.939
61655.963
61737.37
61859.311
61997.131
62174.213
62389.166
62628.342
62955.322
63295.39
63775.079
64272.666
64968.962
65717.067
66722.399
67855.598
69309.025
71004.555
73089.483
75527.326
78363.824
81469.437
84676.256
87732.644
90439.795
92669.26
94396.33
95667.297
96570.075
97197.593
97636.402
97973.087
98262.432
98488.289
98660.528
98819.319
98988.731
99159.36
99324.944
99465.543
99589.598
99788.654
100086.53
100257.69
100334.91
100361.38
100365.22
100204.12
100085.95
61885.867
61945.743
62007.193
62093.675
62222.318
62367.338
62551.743
62778.077
63027.57
63372.377
63725.745
64230.43
64753.212
65484.994
66272.88
67329.212
68523.584
70050.922
71835.887
74023.279
76573.972
79512.629
82685.053
85898.899
88898.639
91497.296
93589.338
95172.462
96308.886
97092.831
97618.632
97972.994
98244.11
98482.673
98662.715
98794.242
98922.879
99070.267
99223.818
99374.006
99499.843
99621.265
99844.203
100118.5
100268.72
100332.52
100351.75
100338.19
100177.19
100075.29
62240.586
62303.803
62368.595
62460.04
62595.439
62747.919
62939.958
63178.448
63438.937
63802.854
64172.062
64703.179
65252.934
66022.439
66852.861
67963.457
69223.311
70829.489
72709.827
75005.242
77671.331
80707.73
83934.397
87137.38
90062.14
92537.793
94484.106
95921.183
96923.966
97590.726
98017.805
98291.824
98501.643
98692.833
98828.946
98921.061
99021.486
99148.533
99285.882
99420.81
99532.246
99654.3
99899.609
100144.19
100274.01
100328.24
100343.07
100302.99
100154.08
100066.1
62602.456
62669.371
62737.894
62834.681
62977.614
63138.538
63339.373
63591.292
63863.906
64248.023
64634.279
65194.843
65772.963
66582.494
67458.353
68626.874
69956.994
71647.433
73629.425
76038.136
78820.657
81947.845
85213.633
88386.315
91217.558
93556.83
95351.476
96642.254
97512.114
98062.662
98394.142
98593.305
98746.691
98892.639
98986.389
99041.273
99114.801
99223.526
99345.412
99465.199
99563.288
99689.724
99952.697
100165.68
100276.28
100322.41
100334.31
100265.11
100134.15
100058.03
62975.708
63046.68
63119.548
63222.167
63373.41
63543.29
63752.981
64018.852
64303.957
64708.313
65112.975
65705.647
66314.189
67166.406
68090.979
69321.499
70727.232
72507.821
74597.946
77124.588
80022.612
83230.841
86518.143
89639.825
92359.305
94550.803
96190.739
97335.592
98071.934
98507.572
98747.083
98877.954
98980.155
99081.421
99134.273
99155.752
99202.697
99295.227
99402.245
99507.008
99593.926
99730.25
100001.81
100184.83
100277.04
100315.01
100324.75
100230.3
100116.4
100050.8
63360.54
63435.85
63513.605
63622.363
63781.994
63961.151
64179.98
64460.699
64758.847
65185.035
65610.248
66235.88
66877.553
67775.624
68752.684
70049.775
71536.998
73414.01
75618.737
78266.905
81277.079
84553.611
87842.489
90891.612
93482.108
95517.418
97001.905
97998.923
98600.8
98924.609
99077.742
99146.081
99201.287
99258.444
99272.707
99265.324
99285.725
99363.508
99456.189
99546.059
99625.176
99778.815
100044.56
100202.34
100277.16
100305.63
100312.25
100199.06
100100.7
100044.3
63756.754
63836.564
63919.479
64034.512
64202.626
64391.729
64620.153
64916.932
65229.109
65679.494
66127.375
66788.118
67464.594
68411.782
69445.749
70814.572
72389.646
74369.624
76695.146
79466.933
82583.066
85912.039
89180.457
92135.25
94581.574
96455.902
97783.555
98628.202
99096.497
99313.681
99388.328
99397.811
99408.136
99425.299
99402.085
99369.082
99365.36
99428.097
99507.072
99582.301
99657.653
99833.664
100079.94
100216.87
100275.87
100295.45
100293.59
100171.14
100086.69
100038.39
64163.575
64248.101
64336.547
64458.206
64635.269
64835.264
65074.116
65388.664
65716.464
66193.134
66665.974
67364.024
68076.981
69077.065
70172.85
71619.127
73288.84
75378.441
77830.355
80725.85
83938.54
87300.975
90525.168
93364.515
95654.616
97365.98
98530.626
99219.846
99557.282
99676.501
99681.253
99633.494
99601.442
99583.157
99523.385
99464.43
99443.045
99488.698
99554.785
99616.047
99691.628
99889.887
100108.14
100224.08
100272.55
100287.05
100265.92
100146.33
100074.11
100033.06
64580.126
64669.981
64764.902
64893.998
65080.953
65293.482
65543.968
65878.112
66223.097
66727.335
67226.697
67963.625
68717.654
69774.3
70937.134
72467.004
74238.496
76444.319
79027.239
82043.992
85340.292
88714.25
91869.396
94573.917
96699.74
98244.775
99237.778
99770.213
99984.185
100019.25
99955.464
99854.268
99782.152
99731.181
99636.159
99552.735
99518.355
99545.363
99599.309
99648.204
99727.827
99943.758
100130.69
100227.29
100267.66
100279.04
100232.76
100124.84
100062.94
100028.34
65010.043
65105.874
65208.204
65345.445
65543.09
65769.346
66032.021
66387.064
66750.019
67283.361
67810.718
68589.05
69388.204
70506.184
71742.272
73362.07
75242.698
77571.08
80288.172
83420.676
86783.862
90144.749
93205.884
95759.055
97716.279
99085.608
99900.206
100278.08
100385.01
100340.47
100210.85
100060.17
99951.596
99869.529
99740.462
99634.937
99590.24
99598.873
99640.705
99680.304
99768.186
99992.546
100149.4
100228.44
100261.3
100270.25
100199.37
100105.92
100053.25
100024.25
65456.578
65558.589
65668.594
65814.502
66022.939
66263.648
66538.663
66915.907
67297.379
67862.116
68419.451
69242.3
70091.429
71276.2
72592.305
74308.435
76305.64
78762.439
81614.828
84854.015
88263.548
91584.663
94527.871
96917.018
98701.244
99881.161
100514.01
100749.06
100762.48
100639.28
100447.98
100251.88
100110.32
99998.477
99837.151
99711.681
99656.76
99650.534
99679.166
99713.903
99815.109
100033.93
100165.31
100228.65
100253.15
100259.16
100168.79
100089.36
100045.03
100020.77
65918.322
66026.843
66144.958
66300.149
66519.324
66775.762
67063.791
67464.968
67866.141
68464.738
69054.975
69926.271
70830.846
72088.535
73491.457
75310.316
77431.577
80021.872
83007.969
86340.729
89772.429
93025.833
95829.546
98046.253
99646.681
100625.58
101078.08
101192.84
101114.05
100916.15
100667.62
100430.13
100258.83
100118.48
99927.292
99783.703
99716.656
99700.519
99715.157
99748.92
99867.771
100067.48
100178.16
100228.03
100244.37
100242.52
100142.35
100075.25
100038.02
100017.77
66393.96
66509.685
66636.873
66802.512
67032.864
67306.613
67608.427
68035.349
68457.939
69093.339
69720.425
70644.952
71611.269
72946.837
74444.058
76372.087
78624.777
81352.419
84467.217
87876.007
91302.464
94460.263
97106.425
99144.665
100542.53
101314.43
101600.7
101609.44
101439.68
101171.94
100870.65
100595.69
100397.63
100230.07
100011.41
99850.467
99771.126
99747.483
99749.534
99784.639
99921.224
100095.43
100187.4
100226.67
100238.66
100217.74
100120.44
100063.57
100032.1
100015.19
66885.128
67008.751
67145.918
67323.167
67564.84
67857.407
68173.763
68628.744
69075.081
69751.424
70419.932
71402.498
72436.513
73855.639
75454.608
77498.352
79889.467
82756.395
85990.774
89453.493
92844.748
95880.541
98355.327
100203.6
101381.68
101946.06
102092.75
101995.86
101740.13
101407.63
101057.96
100749.31
100527.24
100333.77
100089.79
99912.172
99821.002
99789.808
99783.408
99820.658
99972.521
100118.88
100193.66
100224.95
100234.65
100188.51
100102.45
100053.73
100027.1
100012.97
67394.067
67526.198
67673.829
67863.349
68116.293
68429.403
68761.743
69248.329
69721.544
70443.6
71157.958
72202.856
73310.479
74819.21
76527.652
78694.034
81229.775
84235.104
87575.139
91065.328
94390.05
97280.196
99573.676
101211.62
102158.76
102529.44
102553.78
102352.34
102016.51
101624.26
101230.49
100891.75
100648.18
100430.07
100162.53
99968.983
99866.807
99827.999
99816.832
99857.358
100019.23
100138.87
100197.93
100222.09
100230.01
100160.47
100086.69
100045.29
100022.86
100011.01
67919.779
68061.605
68220.538
68423.695
68688.941
69025.576
69376.645
69899.161
70402.796
71174.144
71938.252
73049.702
74237.394
75841.487
77667.983
79964.414
82649.514
85788.532
89214.981
92702.325
95929.365
98653.859
100754.57
102158.63
102870.99
103076.39
102980.68
102679.88
102270.01
101822.92
101389.16
101023.75
100760.99
100519.38
100229.63
100020.77
99908.502
99863.638
99850.109
99897.936
100058.64
100155.78
100201.41
100217.88
100222.34
100136.2
100073.34
100038.18
100019.12
100009.31
68466.164
68618.845
68789.669
69008.401
69288.233
69652.201
70024.577
70586.482
71122.653
71946.06
72763.882
73946.827
75221.901
76926.902
78880.938
81314.977
84151.73
87414.933
90903.113
94354.403
97454.44
99997.5
101885.73
103037.87
103525.91
103588.37
103373.21
102979.87
102501.91
102004.72
101534.92
101146.04
100866.18
100602.01
100290.86
100067.5
99946.617
99897.851
99883.761
99944.324
100089.47
100169.02
100204.23
100215.58
100207.1
100116.67
100062.32
100032.1
100016.4
100008.43
69037.732
69203.139
69387.269
69624.899
69921.528
70315.315
70709.624
71312.162
71882.621
72761.268
73638.379
74898.625
76268.397
78081.671
80172.519
82751.029
85738.167
89110.457
92630.559
96011.178
98957.973
101306.53
102953.05
103844.76
104135.86
104062.48
103732.54
103253.75
102713.52
102170.76
101668.67
101259.34
100964.32
100678.24
100345.93
100109.42
99981.85
99931.299
99918.017
99990.869
100114.91
100179.35
100206.41
100214.52
100184.19
100100.95
100053.17
100027.52
100014.3
100007.23
69646.014
69824.238
70021.529
70280.047
70591.835
71015.403
71430.314
72076.74
72683.078
73623.156
74566.865
75910.623
77382.768
79312.478
81549.183
84277.251
87408.801
90868.908
94386.762
97662.553
100433.68
102568.37
103947.84
104583.31
104706.53
104497.3
104060.25
103503.09
102906.15
102322.14
101791.31
101364.37
101056
100748.34
100394.55
100147.02
100014.9
99964.194
99952.479
100034.47
100136.63
100187.57
100208.02
100213.84
100160.31
100087.03
100045.84
100023.89
100012.33
100006.4
70276.977
70470.514
70682.978
70964.335
71290.793
71747.758
72186.138
72881.459
73530.325
74536.843
75554.856
76988.448
78571.997
80626.992
83017.396
85897.215
89161.436
92681.767
96160.08
99299.007
101876.09
103767.38
104863.53
105265.67
105235.65
104894.08
104358.11
103729.47
103081.13
102459.92
101903.74
101461.85
101141.82
100812.48
100436.64
100180.91
100046.38
99996.613
99986.676
100073.87
100155.43
100194.56
100208.84
100211.49
100138.43
100075.35
100039.91
100020.81
100010.93
100006.02
70934.597
71144.872
71372.146
71677.648
72021.658
72517.884
72982.694
73733.717
74431.117
75508.614
76607.763
78137.585
79844.906
82032.86
84583.146
87612.819
90991.326
94538.376
97938.505
100911.59
103275.47
104890.04
105699.07
105903.45
105719.95
105254.61
104627.97
103934.5
103239.74
102585.18
102006.82
101552.47
101222.17
100870.34
100472.65
100211.78
100076.88
100028.89
100020.74
100107.95
100171.04
100200.45
100210.29
100203.88
100120.5
100065.87
100035.19
100018.73
100010.23
100005.89
71621.693
71851.582
72095.476
72429.283
72792.953
73333.726
73828.219
74639.739
75391.176
76543.934
77731.947
79366.944
81207.925
83537.662
86251.687
89423.792
92891.007
96426.422
99710.498
102492.47
104615.07
105927.74
106465.57
106495.3
106160.7
105580.95
104871.75
104119.77
103383.25
102698.93
102101.41
101636.87
101297.14
100920.8
100503.97
100240.42
100106.93
100061.49
100055.44
100135.93
100183.53
100204.72
100211.32
100189.02
100107.24
100058.61
100031.48
100017.17
100009.94
100005.86
72347.941
72600.259
72862.796
73229.295
73613.426
74202.692
74728.729
75604.039
76415.414
77648.537
78934.579
80684.737
82669.341
85148.963
88026.847
91326.98
94850.11
98332.353
101464.99
104033.89
105875.88
106874.7
107178.94
107037.11
106559.88
105875.3
105091.38
104286.82
103512.9
102802.18
102188.34
101715.62
101366.46
100962.94
100532.28
100267.78
100137.01
100094.22
100090.32
100158.09
100193.68
100208.06
100211.75
100170.67
100095.99
100052.62
100028.85
100016.36
100009.86
100005.89
73120.297
73396.531
73678.225
74080.522
74485.354
75127.966
75688.814
76631.592
77509.762
78829.972
80224.871
82099.386
84238.145
86873.915
89910.168
93315.896
96855.668
100242.24
103191.18
105518.82
107046.19
107739.35
107840.93
107529.09
106919.88
106139.9
105288.76
104437.17
103629.88
102895.89
102268.41
101789.14
101429.86
100997.77
100558.24
100294.64
100167.14
100126.07
100122.56
100176.39
100202.77
100211.73
100211.91
100152.19
100085.62
100047.43
100026.79
100016.01
100009.88
100006.22
73937.527
74240.397
74542.726
74984.582
75410.733
76113.508
76713.003
77728.052
78681.998
80098.163
81614.291
83620.304
85923.676
88718.392
91900.084
95380.518
98892.658
102142.33
104879.09
106926.57
108117.65
108537.21
108448.14
107973.4
107243.27
106377.07
105465.77
104572.29
103735.32
102981.02
102342.37
101857.78
101487.19
101026.52
100582.64
100321.46
100196.88
100156.2
100151.25
100191.25
100210.76
100217.65
100209.37
100134.89
100076.6
100043.39
100025.46
100015.94
100010.31
100006.75
74801.514
75135.136
75460.435
75946.605
76394.06
77162.938
77807.418
78901.477
79942.547
81464.566
83113.027
85261.03
87735.187
90685.577
93991.166
97507.454
100944.87
104018.89
106514.65
108239.1
109092.27
109277.38
108998.55
108372.75
107532.7
106589.09
105624.22
104693.58
103830.35
103058.46
102410.89
101921.77
101538.48
101050.6
100606.16
100348.27
100225.78
100184.01
100177.02
100203.97
100216.66
100220.92
100201.7
100120.28
100069.32
100040.57
100024.9
100016.16
100011.03
100007.63
75719.078
76087.376
76436.193
76971.658
77442.192
78283.95
78982.098
80163.524
81304.533
82942.726
84735.393
87033.326
89679.55
92774.9
96173.787
99680.492
102995.98
105858.75
108075.24
109445.22
109984.5
109957.41
109494.39
108730.13
107790.91
106778.2
105765.89
104802.41
103916.02
103129.09
102474.59
101981.31
101584.02
101071.48
100629.2
100374.66
100253.06
100209.26
100200.1
100215.81
100221.94
100222.25
100187.62
100109.66
100063.84
100038.57
100024.76
100016.84
100012.09
100008.84
76688.723
77098.244
77473.159
78068.267
78565.369
79488.961
80251.494
81528.965
82782.486
84545.889
86496.314
88947.152
91760.352
94981.567
98434.252
101881.33
105029.69
107648.75
109536.52
110540.14
110811.03
110572.81
109938.66
109048.68
108020.61
106946.59
105892.44
104900.04
103993.35
103193.71
102533.99
102036.57
101624.27
101090.44
100651.92
100400.22
100278.33
100231.69
100219.93
100226.83
100230.11
100222.58
100171.1
100100.6
100059.69
100037.06
100024.75
100017.73
100013.33
100010.25
77713.89
78176.148
78584.8
79254.702
79781.262
80794.211
81632.646
83014.335
84392.362
86290.118
88404.463
91008.792
93977.53
97296.229
100755.11
104090.49
107029.06
109364.59
110883.69
111536.98
111570.2
111125.87
110334.86
109331.65
108224.48
107096.34
106005.48
104987.71
104063.3
103253.1
102589.56
102087.77
101659.82
101108.39
100674.33
100424.89
100301.9
100251.91
100237.29
100236.21
100237
100221.12
100154.61
100092.53
100056.45
100036.41
100025.33
100018.9
100014.8
100011.87
78836.361
79352.385
79785.074
80543.422
81106.164
82216.864
83143.412
84635.869
86147.999
88185.936
90467.372
93222.215
96327.126
99704.77
103115.7
106287.85
108977.11
110978.5
112106.79
112456.46
112256.84
111619.93
110686.67
109582.26
108405.12
107229.48
106106.53
105066.57
104126.79
103307.95
102641.7
102135.13
101691.27
101125.87
100696.44
100449.01
100324.89
100271.26
100251.41
100244.17
100240.22
100216.09
100140.01
100085.64
100053.93
100036.16
100026.13
100020.23
100016.43
100013.67
80069.857
80647.641
81093.121
81952.575
82559.798
83775.307
84800.695
86407.853
88061.64
90239.88
92691.638
95589.186
98800.472
102188.19
105493.07
108452.43
110850.23
112469.36
113216.74
113299.67
112872.33
112059.08
110997.98
109803.74
108565.04
107347.91
106197.04
105137.73
104184.71
103358.93
102690.79
102178.93
101719.25
101143.36
100718.51
100472.81
100347.16
100289.34
100263.8
100250.86
100241.38
100206.89
100128.52
100080.12
100052
100036.13
100027.09
100021.73
100018.23
100015.64
81400.035
82066.16
82531.686
83504.093
84160.531
85482.466
86615.145
88339.934
90141.935
92463.419
95084.323
98107.596
101382.84
104722.72
107862.8
110562.81
112617.32
113824.4
114234.19
114061.82
113420.44
112447.67
111272.63
109999.18
108706.63
107453.46
106278.36
105202.24
104237.87
103406.64
102737.16
102219.47
101744.35
101161.39
100740.81
100496.19
100368.14
100305.57
100274.79
100257.74
100241.66
100193.61
100120.05
100076
100050.7
100036.44
100028.3
100023.42
100020.19
100017.77
82867.185
83636.857
84107.85
85203.297
85915.274
87343.328
88593.308
90442.494
92403.744
94871.666
97650.247
100768.61
104052.59
107280.76
110199.2
112594.21
114250.85
115050.44
115164.78
114743
113905.91
112790.26
111514.46
110171.59
108832.19
107547.82
106351.78
105261.08
104287.08
103451.63
102781.13
102257.09
101767.21
101180.5
100763.5
100519
100387.67
100320.07
100284.48
100264
100240.54
100179.41
100112.64
100072.81
100050
100037.12
100029.73
100025.27
100022.28
100020.01
84456.46
85361.011
85830.036
87052.547
87830.079
89365.224
90747.377
92732.501
94869.452
97477.593
100387.14
103554.5
106781.57
109832.44
112475.51
114511.43
115734.95
116168.68
116003.89
115347.54
114333.89
113091.46
111727.18
110323.84
108943.88
107632.62
106418.51
105315.21
104333.05
103494.4
102823
102292.18
101788.45
101201.12
100786.69
100541.32
100406.04
100333.07
100292.13
100267.22
100237.1
100166.09
100106.1
100070.29
100049.75
100038.04
100031.31
100027.22
100024.46
100022.35
86192.071
87247.103
87705.628
89057.266
89920.538
91571.495
93105.947
95239.089
97551.738
100284.43
103282.38
106437.88