/*--------------------------------*- C++ -*----------------------------------*\
  =========                 |
  \\      /  F ield         | OpenFOAM: The Open Source CFD Toolbox
   \\    /   O peration     | Website:  https://openfoam.org
    \\  /    A nd           | Version:  8
     \\/     M anipulation  |
\*---------------------------------------------------------------------------*/
FoamFile
{
    version     2.0;
    format      ascii;
    class       surfaceScalarField;
    location    "0.269994";
    object      phi;
}
// * * * * * * * * * * * * * * * * * * * * * * * * * * * * * * * * * * * * * //

dimensions      [1 0 -1 0 0 0 0];

internalField   nonuniform List<scalar> 
39600
(
6.2541758e-05
-0.0076944897
0.0076083638
1.0634692e-05
-0.010799445
0.010851632
-4.501955e-05
-0.014142174
0.014198178
-0.0001059047
-0.018224494
0.018285851
-0.00016700041
-0.02337766
0.023439475
-0.00021125888
-0.030011304
0.03005671
-0.00036945752
-0.038092046
0.038251517
-0.00066920166
-0.046301467
0.046602366
-0.0010314748
-0.055216351
0.055579933
-0.0014634249
-0.066396829
0.066830399
-0.0019821036
-0.079325128
0.079845692
-0.0026022816
-0.095280777
0.095903285
-0.0033433913
-0.1139924
0.11473622
-0.0042299581
-0.13685202
0.13774197
-0.0052861142
-0.16389215
0.16495222
-0.0065488226
-0.19672851
0.19799605
-0.0080505952
-0.23579402
0.23730155
-0.0098437949
-0.2830738
0.28487427
-0.011974264
-0.33955761
0.34169647
-0.0145187
-0.40780188
0.41035635
-0.017545398
-0.48960095
0.49263954
-0.021163558
-0.58835648
0.59198906
-0.025484407
-0.70702686
0.71136604
-0.030679083
-0.85018318
0.8554022
-0.036952286
-1.0223272
1.0286337
-0.04461068
-1.2294384
1.2371405
-0.054045606
-1.4776529
1.4871477
-0.065757216
-1.7741989
1.7859904
-0.080234436
-2.1266709
2.1412617
-0.097881016
-2.5440975
2.5618981
-0.11899717
-3.0374588
3.0587754
-0.14391695
-3.6211695
3.6463386
-0.17311825
-4.3139061
4.343394
-0.20718156
-5.1389533
5.1733364
-0.24674511
-6.1242795
6.1641983
-0.29242607
-7.3033333
7.3494293
-0.34489377
-8.7152223
8.7681568
-0.40470867
-10.407718
10.468058
-0.47225941
-12.437633
12.505763
-0.54743869
-14.873283
14.949164
-0.62951898
-17.794804
17.877736
-0.71663704
-21.301857
21.389952
-0.80523866
-25.510385
25.599989
-0.88872254
-30.562088
30.646768
-0.95570731
-36.626614
36.695377
-0.98873833
-43.911627
43.947765
-0.96170355
-52.646594
52.623815
-0.83593393
-63.146096
63.024442
-0.55408851
-75.758821
75.48085
-90.928695
90.390001
-5.5979917e-05
-0.0076573545
-9.902699e-05
-0.010756037
-0.00015201175
-0.014088814
-0.00021162431
-0.018164363
-0.00027371935
-0.023314869
-0.00031908598
-0.029964821
-0.00048503931
-0.037924933
-0.00076912645
-0.04601632
-0.0011104245
-0.054873825
-0.0015147688
-0.065990914
-0.0019998184
-0.078838327
-0.0025774328
-0.094700954
-0.0032673722
-0.11329995
-0.004091511
-0.13602478
-0.0050725004
-0.16290753
-0.0062451874
-0.19555137
-0.0076373712
-0.23439651
-0.0093008062
-0.28140386
-0.011274669
-0.33757603
-0.013632765
-0.40543446
-0.016436013
-0.48678659
-0.019791218
-0.58498773
-0.023799087
-0.70300188
-0.028629508
-0.84533016
-0.03447969
-1.0164465
-0.041659398
-1.2222186
-0.050565841
-1.4686919
-0.061723841
-1.7629689
-0.075658178
-2.112635
-0.092823032
-2.5267953
-0.11354217
-3.0165588
-0.13812367
-3.5963592
-0.1669855
-4.284777
-0.20064839
-5.1049858
-0.23971656
-6.0848691
-0.28478204
-7.2578649
-0.33649802
-8.6630515
-0.39542969
-10.348272
-0.46197186
-12.370517
-0.53605274
-14.798503
-0.61699273
-17.713021
-0.7030578
-21.214832
-0.79083026
-25.421622
-0.87401865
-30.477711
-0.94163158
-36.557176
-0.97676941
-43.873058
-0.95446142
-52.664386
-0.83733844
-63.258974
-0.56961623
-76.022713
-91.442258
-5.3999934e-05
-0.0076179417
-9.9164948e-05
-0.01071055
-0.0001500801
-0.014037536
-0.00020539504
-0.018108573
-0.00026085344
-0.023258715
-0.00029347606
-0.02993108
-0.00045475249
-0.037762573
-0.00072306013
-0.045747022
-0.0010454346
-0.054550336
-0.001428614
-0.065606337
-0.001888292
-0.078377078
-0.002437162
-0.094150105
-0.0030920357
-0.11264282
-0.0038754232
-0.13523855
-0.0048063291
-0.16197332
-0.0059194828
-0.19443408
-0.0072393979
-0.23307173
-0.0088163749
-0.27982087
-0.010685863
-0.33569957
-0.012920142
-0.40319182
-0.015576503
-0.48412039
-0.018755236
-0.58179708
-0.022553759
-0.69918844
-0.027136049
-0.8407283
-0.032696541
-1.0108598
-0.039544658
-1.215336
-0.048082849
-1.4601069
-0.058845581
-1.7521452
-0.072374126
-2.0990214
-0.089148807
-2.5099048
-0.10950994
-2.9960413
-0.13375627
-3.5719091
-0.16226114
-4.2560269
-0.19550222
-5.0714583
-0.23405131
-6.0459914
-0.2784763
-7.213049
-0.32942806
-8.611656
-0.38747227
-10.289723
-0.4530129
-12.304408
-0.52600834
-14.724812
-0.60585454
-17.632337
-0.69091821
-21.12882
-0.77795946
-25.333598
-0.86095447
-30.393528
-0.92931273
-36.486932
-0.96670538
-43.8318
-0.94927922
-52.676974
-0.84204375
-63.361865
-0.58799392
-76.274227
-91.930848
-4.6906583e-05
-0.0075813508
-8.7502156e-05
-0.010669516
-0.00013270321
-0.013991896
-0.00018088733
-0.018059841
-0.0002281283
-0.023210705
-0.000249573
-0.029908474
-0.00040994776
-0.037601125
-0.00066392626
-0.045492069
-0.00097131426
-0.054241868
-0.001336709
-0.065239621
-0.0017739791
-0.077938365
-0.0022962152
-0.09362605
-0.0029179837
-0.112019
-0.0036619016
-0.13449202
-0.004544286
-0.1610879
-0.0055996016
-0.19337497
-0.0068490055
-0.23181787
-0.0083419898
-0.27832245
-0.01011048
-0.33392464
-0.012224168
-0.40107035
-0.014739223
-0.48159611
-0.017749976
-0.5787751
-0.021346558
-0.69557785
-0.025693074
-0.83636353
-0.030981251
-1.0055475
-0.037522328
-1.2087631
-0.045727412
-1.4518588
-0.056137979
-1.7416794
-0.069308511
-2.0857743
-0.085729953
-2.4933798
-0.10575596
-2.9758743
-0.129677
-3.5478023
-0.15783516
-4.2276413
-0.1906703
-5.0383528
-0.22873086
-6.0076157
-0.27256073
-7.1688413
-0.32280555
-8.5609797
-0.38002813
-10.232007
-0.4446517
-12.239222
-0.51666701
-14.652105
-0.59553795
-17.552637
-0.67975668
-21.043664
-0.76622957
-25.246151
-0.84922613
-30.309341
-0.9185477
-36.415646
-0.95843663
-43.787506
-0.94634184
-52.683865
-0.84866301
-63.455487
-0.60922876
-76.511348
-92.394679
-4.0296973e-05
-0.0075480772
-7.7287729e-05
-0.010632429
-0.00011769696
-0.013951325
-0.00015928277
-0.018017941
-0.0001980475
-0.023171322
-0.0002088969
-0.029896552
-0.00036736486
-0.037441721
-0.00060913036
-0.045249401
-0.00090043325
-0.053949574
-0.0012473104
-0.064891504
-0.001661802
-0.077522508
-0.0021576595
-0.093128467
-0.0027467562
-0.11142797
-0.0034522729
-0.13378406
-0.0042872576
-0.1602501
-0.0052861451
-0.19237256
-0.0064661103
-0.23063378
-0.0078785802
-0.2769049
-0.0095540563
-0.33224332
-0.011557512
-0.39905992
-0.013932179
-0.47921328
-0.016774626
-0.57592279
-0.020177842
-0.69216244
-0.024299931
-0.83222563
-0.029332598
-1.0004941
-0.035591314
-1.2024769
-0.043497043
-1.443916
-0.053598331
-1.731531
-0.066452743
-2.0728548
-0.08255674
-2.4771873
-0.10226817
-2.9560403
-0.12587533
-3.5240301
-0.15369557
-4.1996137
-0.18614336
-5.0056529
-0.22373627
-5.9697229
-0.26701226
-7.125202
-0.3166017
-8.5109725
-0.37307779
-10.17505
-0.43687061
-12.174875
-0.50801571
-14.580273
-0.58604166
-17.47379
-0.66955985
-20.95922
-0.75565111
-25.159091
-0.838829
-30.224967
-0.90934075
-36.343093
-0.95206924
-43.739885
-0.94595554
-52.684572
-0.85726655
-63.540305
-0.63323127
-76.733587
-92.833556
-3.3728402e-05
-0.0075173422
-6.6749532e-05
-0.010598971
-0.00010209667
-0.01391556
-0.00013700752
-0.01798258
-0.00016713786
-0.023140547
-0.00017022504
-0.029892412
-0.00032772372
-0.037283361
-0.00055768708
-0.045018608
-0.00083421785
-0.053672129
-0.0011639352
-0.064560629
-0.0015569305
-0.077128259
-0.0020273856
-0.092656391
-0.0025849693
-0.11086858
-0.0032532216
-0.1331135
-0.0040423712
-0.15945832
-0.0049866255
-0.19142501
-0.0061030862
-0.22951351
-0.0074430511
-0.2755603
-0.0090332697
-0.33064767
-0.01093231
-0.39715435
-0.013170511
-0.4769674
-0.015848974
-0.57323501
-0.01905997
-0.68893998
-0.022964101
-0.82830672
-0.027757453
-0.9956815
-0.033758387
-1.1964506
-0.041398094
-1.4362422
-0.051230866
-1.7216553
-0.063813755
-2.0602132
-0.07963867
-2.4612828
-0.099064604
-2.9365037
-0.12237534
-3.5005691
-0.14987272
-4.1719249
-0.18195032
-4.9733388
-0.21910677
-5.9322807
-0.26187509
-7.0820846
-0.31086769
-8.4615763
-0.36666429
-10.118785
-0.42971441
-12.111279
-0.500089
-14.509219
-0.57740509
-17.395663
-0.6603774
-20.875333
-0.74626199
-25.072242
-0.82982302
-30.140202
-0.90174702
-36.269069
-0.94828015
-43.688153
-0.947815
-52.679623
-0.86827437
-63.615874
-0.66002163
-76.940148
-93.247332
-2.7580406e-05
-0.0074895128
-5.7463767e-05
-0.01056916
-8.8152535e-05
-0.013884674
-0.00011653747
-0.017953897
-0.00013755453
-0.023118974
-0.0001339123
-0.029895083
-0.00029055928
-0.037125991
-0.00050917505
-0.044799222
-0.0007711594
-0.053409322
-0.001083944
-0.064246775
-0.0014556533
-0.076755374
-0.0019014436
-0.092209062
-0.0024284609
-0.11033986
-0.0030608592
-0.13247892
-0.0038058169
-0.15871091
-0.0047001912
-0.19052756
-0.0057611584
-0.228449
-0.0070338906
-0.27428322
-0.0085347405
-0.32914188
-0.010324241
-0.395359
-0.012439317
-0.47484553
-0.01496906
-0.57069709
-0.017995721
-0.68590332
-0.021685681
-0.82460394
-0.026251951
-0.99109866
-0.032019663
-1.1906609
-0.039427086
-1.4288054
-0.049031785
-1.7120141
-0.061384856
-2.0478099
-0.076970004
-2.4456293
-0.096139805
-2.9172374
-0.1191753
-3.4774003
-0.14636865
-4.1445577
-0.17809869
-4.9413894
-0.21485321
-5.895256
-0.25714756
-7.039457
-0.30559536
-8.4127402
-0.36079132
-10.063134
-0.42318907
-12.048344
-0.49291039
-14.438827
-0.56964189
-17.318132
-0.65222181
-20.79185
-0.73808453
-24.985418
-0.82222923
-30.054843
-0.895798
-36.193372
-0.94663965
-43.632361
-0.95219349
-52.668566
-0.88191758
-63.681622
-0.68952427
-77.130332
-93.635554
-2.1330862e-05
-0.0074646971
-4.7577273e-05
-0.01054277
-7.3730932e-05
-0.013858297
-9.5745399e-05
-0.017931553
-0.00010744141
-0.023106737
-9.8325955e-05
-0.029903276
-0.00025331571
-0.036970389
-0.00046059243
-0.044591255
-0.00070813194
-0.053160994
-0.0010043656
-0.063949508
-0.001355551
-0.076403089
-0.0017776599
-0.0917855
-0.0022755662
-0.10984036
-0.0028741066
-0.13187833
-0.0035782126
-0.15800451
-0.0044274309
-0.18967547
-0.0054322027
-0.22744095
-0.0066326271
-0.27307881
-0.008043678
-0.32772623
-0.0097260477
-0.39367113
-0.01171973
-0.47284543
-0.014108213
-0.56830088
-0.016970755
-0.68303136
-0.02046306
-0.8210996
-0.024814074
-0.98673227
-0.030374282
-1.1850803
-0.037583583
-1.4215692
-0.047000059
-1.7025645
-0.05916605
-2.0355986
-0.074549022
-2.4301846
-0.0934955
-2.8982036
-0.1162813
-3.4544932
-0.14319133
-4.1174875
-0.17459541
-4.9097802
-0.21097728
-5.858618
-0.25284693
-6.9972689
-0.30081676
-8.3643972
-0.35547784
-10.008031
-0.41731283
-11.985981
-0.48649432
-14.368984
-0.56277803
-17.241061
-0.64513005
-20.708606
-0.73115315
-24.898434
-0.81610038
-29.968669
-0.8915479
-36.115795
-0.9468582
-43.57262
-0.95922237
-52.65084
-0.89874745
-63.736827
-0.72166664
-77.304203
-93.997882
-1.5907012e-05
-0.0074425243
-3.8600703e-05
-0.010520054
-6.0011353e-05
-0.013836733
-7.5614469e-05
-0.017915703
-7.7186341e-05
-0.023104659
-6.4421554e-05
-0.029915191
-0.0002143148
-0.036819917
-0.00041043229
-0.044394493
-0.00064418418
-0.052926525
-0.00092475979
-0.063667969
-0.001256418
-0.076070413
-0.0016559642
-0.091384598
-0.002125794
-0.10936906
-0.0026910132
-0.13131121
-0.0033575525
-0.15733585
-0.0041622679
-0.18886809
-0.005106721
-0.22649346
-0.0062352934
-0.27194652
-0.0075618037
-0.32639554
-0.0091443498
-0.39208367
-0.011017009
-0.47096711
-0.013264472
-0.56604664
-0.015971684
-0.68031594
-0.019290449
-0.81777038
-0.023449601
-0.98255982
-0.02882431
-1.1796879
-0.035870648
-1.4144999
-0.045138223
-1.693269
-0.057157423
-2.0235407
-0.072377133
-2.4149118
-0.091132166
-2.8793722
-0.11369519
-3.4318225
-0.14034707
-4.0906907
-0.17145747
-4.8784802
-0.20750075
-5.8223338
-0.24899226
-6.9554749
-0.29653546
-8.316497
-0.35073947
-9.9534011
-0.41211318
-11.92409
-0.48086157
-14.299584
-0.55684301
-17.164306
-0.63913108
-20.625439
-0.72550988
-24.811093
-0.81146492
-29.881474
-0.88903595
-36.036082
-0.94882858
-43.508958
-0.96863026
-52.62607
-0.91929357
-63.780254
-0.75648487
-77.462105
-94.333711
-1.0316462e-05
-0.0074227561
-2.9528725e-05
-0.010500721
-4.630582e-05
-0.013819621
-5.5837167e-05
-0.017905843
-4.7231346e-05
-0.023112674
-3.3675829e-05
-0.029927947
-0.00017759691
-0.036675385
-0.00036377931
-0.044207724
-0.00058472915
-0.052704931
-0.0008506457
-0.063401176
-0.0011637457
-0.07575641
-0.0015416388
-0.091005466
-0.0019843333
-0.10892503
-0.0025176396
-0.13077613
-0.0031465147
-0.15670502
-0.0039052693
-0.18810687
-0.0047929201
-0.22560302
-0.0058536995
-0.27088234
-0.007099064
-0.32514629
-0.0085838843
-0.39059422
-0.010340343
-0.46920529
-0.012453265
-0.5639273
-0.015009689
-0.67775177
-0.018173065
-0.8145972
-0.022166268
-0.9785542
-0.027378626
-1.1744591
-0.034296091
-1.4075614
-0.043454731
-1.6840852
-0.055366701
-2.0115938
-0.070460424
-2.3997702
-0.089057443
-2.8607062
-0.11143096
-3.4093512
-0.13785725
-4.0641311
-0.16869964
-4.8474611
-0.20444514
-5.7863607
-0.24559822
-6.9140342
-0.29277764
-8.2689759
-0.34660142
-9.8991657
-0.40760578
-11.862579
-0.47604887
-14.2305
-0.55186099
-17.087736
-0.63425826
-20.542177
-0.72118427
-24.723204
-0.80839295
-29.793005
-0.88833283
-35.953931
-0.95271983
-43.441106
-0.97978841
-52.594495
-0.94185956
-63.812592
-0.79556972
-77.60148
-94.644034
-5.6735696e-06
-0.0074050944
-2.186056e-05
-0.010484574
-3.4670675e-05
-0.01380667
-3.8456305e-05
-0.017901823
-1.9067552e-05
-0.023131528
-7.1402133e-06
-0.029939156
-0.00014622554
-0.036535815
-0.00032267883
-0.044030715
-0.00053105659
-0.052495973
-0.00078256935
-0.063148846
-0.0010773794
-0.075460752
-0.001433895
-0.090647776
-0.0018496388
-0.10850803
-0.0023544287
-0.13026968
-0.0029470455
-0.15611059
-0.0036595861
-0.18739202
-0.0044926866
-0.22476734
-0.0054879675
-0.2698839
-0.0066543503
-0.3239764
-0.0080444018
-0.38920005
-0.0096886649
-0.46755632
-0.011673578
-0.56193679
-0.014088996
-0.67532962
-0.017107417
-0.8115703
-0.020960215
-0.97469066
-0.026044833
-1.1693602
-0.032864679
-1.4007236
-0.041952737
-1.6749761
-0.053796601
-1.9997204
-0.068805046
-2.3847207
-0.087283369
-2.8421678
-0.1094989
-3.3870492
-0.13572951
-4.0377801
-0.16633746
-4.8166902
-0.20182257
-5.7506624
-0.24269289
-6.872892
-0.28956791
-8.2217751
-0.34308816
-9.8452488
-0.40381456
-11.801358
-0.47207381
-14.161611
-0.54787384
-17.011194
-0.63054762
-20.458656
-0.7182316
-24.634557
-0.80693215
-29.703013
-0.89007092
-35.868451
-0.95878769
-43.369168
-0.99311894
-52.555937
-0.9668625
-63.833419
-0.83858721
-77.722272
-94.928345
-8.6718379e-07
-0.007389924
-1.2852831e-05
-0.010472399
-2.0861774e-05
-0.013798573
-1.8359895e-05
-0.017904127
1.2647834e-05
-0.023162017
2.2535392e-05
-0.029948449
-0.00011110575
-0.036401747
-0.00027771607
-0.043863583
-0.0004737761
-0.052299367
-0.00071124038
-0.062910598
-0.0009882396
-0.07518296
-0.0013240488
-0.090310843
-0.0017140488
-0.10811684
-0.0021903135
-0.12979183
-0.0027476985
-0.15555149
-0.00341664
-0.18672093
-0.0041970342
-0.22398456
-0.0051284395
-0.26894961
-0.0062180341
-0.32288352
-0.0075164518
-0.38789774
-0.0090592926
-0.46600902
-0.01092883
-0.56006196
-0.013213242
-0.67303887
-0.016090385
-0.80868523
-0.019826158
-0.97094487
-0.024818945
-1.1643541
-0.031572626
-1.3939536
-0.040627988
-1.665902
-0.052446826
-1.987875
-0.067413366
-2.3697172
-0.085808095
-2.8237187
-0.10788841
-3.3648904
-0.13394247
-4.0116157
-0.16434928
-4.7861317
-0.19961305
-5.7151977
-0.24025629
-6.8319911
-0.28690057
-8.17482
-0.34019892
-9.7915679
-0.40075697
-11.740318
-0.46895379
-14.092796
-0.54489268
-16.934532
-0.62803144
-20.374688
-0.71668506
-24.544947
-0.807132
-29.611242
-0.89391947
-35.779222
-0.96722977
-43.292687
-1.0092529
-52.509845
-0.99490594
-63.842767
-0.88517897
-77.8263
-95.185717
3.0737614e-06
-0.0073764995
-6.2032241e-06
-0.010463092
-1.0178166e-05
-0.013794601
-2.5194617e-06
-0.017911678
3.8406193e-05
-0.023202439
4.4594299e-05
-0.029954115
-8.4859108e-05
-0.036271947
-0.00024267172
-0.043705237
-0.00042697898
-0.052114556
-0.00065072987
-0.062686089
-0.0009102039
-0.07492273
-0.0012256121
-0.089994342
-0.0015934083
-0.10774792
-0.0020422901
-0.12934144
-0.0025636441
-0.15502857
-0.0031911075
-0.18609147
-0.0039204264
-0.22325307
-0.0047898818
-0.26807744
-0.0058042827
-0.32186612
-0.0070197347
-0.3866788
-0.0084722427
-0.4645526
-0.010235953
-0.55829365
-0.012399552
-0.67086981
-0.015152118
-0.80592586
-0.018783292
-0.96730507
-0.023710872
-1.1594149
-0.030439731
-1.3872109
-0.039506257
-1.6568201
-0.051344795
-1.9760142
-0.066298518
-2.3547321
-0.084630798
-2.8053392
-0.10660217
-3.3428498
-0.1325104
-3.985608
-0.16275315
-4.7557495
-0.19784433
-5.6799188
-0.23831457
-6.791278
-0.28480065
-8.1280383
-0.33797657
-9.7380232
-0.39846811
-11.679359
-0.46673639
-14.023925
-0.542968
-16.857597
-0.62675912
-20.290089
-0.71659825
-24.454164
-0.80905324
-29.517432
-0.89959093
-35.686128
-0.97811578
-43.211022
-1.0284291
-52.455597
-1.0259552
-63.840545
-0.93556607
-77.912355
-95.41546
7.5297727e-06
-0.0073651305
1.2557083e-06
-0.010456699
1.6733725e-06
-0.013794929
1.5179625e-05
-0.017925059
6.645745e-05
-0.023253221
6.8657863e-05
-0.029955651
-5.5566404e-05
-0.036147626
-0.00020358446
-0.043556798
-0.00037565913
-0.051942017
-0.00058568474
-0.062475357
-0.0008284003
-0.074679339
-0.0011248924
-0.089696854
-0.001470732
-0.10740107
-0.0018935404
-0.12891728
-0.0023811662
-0.15453952
-0.0029679244
-0.18550293
-0.0036474987
-0.22257146
-0.0044563155
-0.26726608
-0.0054031953
-0.32091638
-0.0065445659
-0.3855341
-0.0079046067
-0.46318884
-0.0095592035
-0.55663472
-0.011613666
-0.66881021
-0.014268253
-0.80326495
-0.017821724
-0.96374358
-0.022716374
-1.1545094
-0.029468123
-1.3804465
-0.038589092
-1.6476856
-0.050477473
-1.9641061
-0.065437066
-2.3397444
-0.08373152
-2.7870023
-0.10562759
-3.3208911
-0.13142902
-3.9597156
-0.1615475
-4.7255015
-0.19651559
-5.6447744
-0.23687344
-6.750691
-0.28327427
-8.0813564
-0.33641177
-9.6845297
-0.39696341
-11.618351
-0.46542856
-13.954873
-0.54211941
-16.780223
-0.6267521
-20.20467
-0.71800324
-24.361983
-0.81273444
-29.421323
-0.90734464
-35.588857
-0.99148991
-43.123803
-1.0503078
-52.393213
-1.060435
-63.827729
-0.98991347
-77.979045
-95.616592
1.2163982e-05
-0.0073563153
9.5075814e-06
-0.010453914
1.5090974e-05
-0.013800362
3.4991873e-05
-0.017944804
9.6384046e-05
-0.023314023
9.3046583e-05
-0.029951848
-2.1825406e-05
-0.036032469
-0.00016138352
-0.043416848
-0.00032271262
-0.051780286
-0.00052093179
-0.062276506
-0.00074858303
-0.074451101
-0.0010294824
-0.089415058
-0.0013541083
-0.10707559
-0.0017496831
-0.12852049
-0.0022048814
-0.1540831
-0.0027521069
-0.18495404
-0.0033839084
-0.22193783
-0.0041370965
-0.26651058
-0.0050234293
-0.32002746
-0.0060890484
-0.38446551
-0.007352449
-0.46192219
-0.0089038601
-0.55507957
-0.01085997
-0.66684971
-0.013437987
-0.80068158
-0.016951917
-0.96022283
-0.021856713
-1.1495953
-0.028675351
-1.3736173
-0.037883849
-1.6384663
-0.049840409
-1.9521334
-0.064832774
-2.3247286
-0.083122113
-2.7686765
-0.10497539
-3.298983
-0.13070677
-3.9339027
-0.16074406
-4.6953454
-0.1956397
-5.6097145
-0.23595301
-6.7101626
-0.28233861
-8.0347043
-0.3355364
-9.6309886
-0.39625865
-11.557185
-0.46507112
-13.885492
-0.5423846
-16.702247
-0.62806273
-20.118228
-0.7209486
-24.268186
-0.81823507
-29.322635
-0.9172479
-35.487112
-1.0072593
-43.030793
-1.0747907
-52.322609
-1.0986261
-63.800958
-1.0483112
-78.025806
-95.788279
1.5482673e-05
-0.0073489115
1.5428632e-05
-0.010453749
2.5184954e-05
-0.013809996
5.0782037e-05
-0.017970279
0.00012008129
-0.023382746
0.00011022801
-0.029941575
3.2383073e-06
-0.035925123
-0.0001288153
-0.043284397
-0.00028035565
-0.051628375
-0.00046736866
-0.062088891
-0.00068053316
-0.074237411
-0.0009455211
-0.089149253
-0.0012495684
-0.10677076
-0.0016190796
-0.12814989
-0.0020422534
-0.15365881
-0.0025509886
-0.18444384
-0.003136081
-0.22135109
-0.0038400129
-0.26580451
-0.0046669926
-0.31919806
-0.005651776
-0.38347793
-0.0068262477
-0.46074463
-0.008287726
-0.55361457
-0.010160152
-0.6649732
-0.012677727
-0.7981591
-0.01618686
-0.95670745
-0.02114552
-1.1446279
-0.02806462
-1.3666885
-0.037389799
-1.6291319
-0.049439214
-1.9400699
-0.064496418
-2.3096506
-0.082811123
-2.7503291
-0.10465531
-3.2770895
-0.13035474
-3.9081288
-0.16035654
-4.6652334
-0.1952382
-5.5746788
-0.2355635
-6.6696347
-0.28202016
-7.9879947
-0.33537437
-9.5773031
-0.39638609
-11.49574
-0.46569282
-13.815634
-0.54380695
-16.623493
-0.63072837
-20.030566
-0.72549055
-24.172526
-0.82562211
-29.221063
-0.92930176
-35.380692
-1.025588
-42.931625
-1.1020328
-52.24329
-1.1406211
-63.759792
-1.1110327
-78.051835
-95.93026
1.9433394e-05
-0.0073436475
2.2742878e-05
-0.010456935
3.7564521e-05
-0.013824703
7.0157773e-05
-0.018002715
0.00014678192
-0.023458802
0.00013052457
-0.029924932
2.924155e-05
-0.03582358
-9.5210129e-05
-0.043159562
-0.00023719937
-0.051486056
-0.00041360383
-0.061911923
-0.00061347575
-0.074037061
-0.00086145242
-0.088900505
-0.0011436444
-0.10648788
-0.0014879823
-0.12780453
-0.0018803922
-0.1532654
-0.0023522066
-0.18397064
-0.0028943264
-0.22080748
-0.0035486249
-0.26514832
-0.0043140488
-0.31843052
-0.0052242234
-0.3825653
-0.0063240087
-0.45964218
-0.00771044
-0.55222514
-0.0095158415
-0.66316436
-0.011996284
-0.79567459
-0.015521188
-0.95317736
-0.020572062
-1.1395696
-0.027630455
-1.3596223
-0.037092538
-1.619663
-0.049267055
-1.9278843
-0.064417438
-2.2944832
-0.082789116
-2.7319298
-0.10465825
-3.2551776
-0.13036493
-3.8823557
-0.16037829
-4.6351192
-0.19530119
-5.5396125
-0.23571457
-6.6290315
-0.28232635
-7.9411436
-0.33593308
-9.5233771
-0.39736028
-11.433888
-0.46731348
-13.745146
-0.54641021
-16.54378
-0.6347953
-19.941465
-0.73168124
-24.074745
-0.83494475
-29.116268
-0.94351093
-35.26945
-1.0466751
-42.825678
-1.1323327
-52.154715
-1.1864828
-63.703167
-1.1781043
-78.056638
-96.041898
2.2490202e-05
-0.007339754
2.8365245e-05
-0.010462679
4.7609524e-05
-0.013843833
8.6786605e-05
-0.018041737
0.00016794619
-0.02353941
0.00014370412
-0.029900343
4.7994049e-05
-0.035727628
-6.9285986e-05
-0.043041912
-0.00020163307
-0.051353409
-0.00036652038
-0.061746495
-0.00055293068
-0.073850219
-0.00078528486
-0.088667423
-0.0010467434
-0.10622576
-0.0013667643
-0.12748354
-0.0017295776
-0.15290163
-0.002165606
-0.18353336
-0.0026702891
-0.22030146
-0.0032762847
-0.2645406
-0.0039793929
-0.31772547
-0.0048256325
-0.38171677
-0.005862358
-0.45860296
-0.0071865956
-0.55089811
-0.0089414086
-0.6614064
-0.011410444
-0.79320189
-0.014982779
-0.94960039
-0.020157024
-1.1343886
-0.027381097
-1.3523911
-0.037008381
-1.6100302
-0.049336052
-1.9155472
-0.064608297
-2.2791963
-0.083066803
-2.7134469
-0.10499547
-3.2332107
-0.13075018
-3.8565407
-0.16082556
-4.6049505
-0.19584924
-5.5044548
-0.23642774
-6.5882748
-0.28327644
-7.8940681
-0.33725095
-9.4690955
-0.39921594
-11.37151
-0.46997491
-13.673866
-0.55024598
-16.462915
-0.64031655
-19.850706
-0.73959674
-23.974562
-0.84627546
-29.007895
-0.96009814
-35.153073
-1.0703731
-42.712823
-1.1666308
-52.056535
-1.2359806
-63.631337
-1.2498962
-78.040237
-96.122654
2.5866174e-05
-0.0073377279
3.4448497e-05
-0.010471144
5.843178e-05
-0.013867708
0.0001053708
-0.018088542
0.00018974995
-0.023623253
0.00015798983
-0.029868277
6.8455508e-05
-0.035637885
-4.1382447e-05
-0.042931724
-0.00016390296
-0.051230626
-0.000317225
-0.061592658
-0.00048966625
-0.073677375
-0.00070674576
-0.088449634
-0.00094914366
-0.10598276
-0.0012462053
-0.12718554
-0.0015812824
-0.15256569
-0.0019843386
-0.18312912
-0.0024514069
-0.2198332
-0.0030101703
-0.26398034
-0.0036559837
-0.317078
-0.004445791
-0.38092501
-0.0054246419
-0.457622
-0.0066892994
-0.54963112
-0.0084116715
-0.65968144
-0.010896336
-0.79071428
-0.014567776
-0.94592525
-0.019900898
-1.1290498
-0.027307676
-1.3449789
-0.037132029
-1.6002023
-0.049640244
-1.9030323
-0.06506142
-2.2637637
-0.083636636
-2.6948515
-0.10566014
-3.2111546
-0.13150564
-3.8306418
-0.16169509
-4.574676
-0.19688716
-5.4691385
-0.23770258
-6.5472929
-0.28488926
-7.8466671
-0.3393292
-9.4143605
-0.4019764
-11.308461
-0.47370334
-13.601632
-0.55534201
-16.380708
-0.64732508
-19.758065
-0.74929999
-23.871682
-0.86019754
-28.895108
-0.97943676
-35.03154
-1.0970648
-42.592807
-1.2050975
-51.946418
-1.2889084
-63.545907
-1.3264738
-78.001641
-96.171172
2.9520004e-05
-0.0073379024
4.1034036e-05
-0.010482591
6.9915144e-05
-0.013896486
0.00012579601
-0.018144284
0.00021167597
-0.02370863
0.00017218009
-0.029828506
8.8784115e-05
-0.035554295
-1.375379e-05
-0.042828834
-0.00012748561
-0.051116643
-0.0002714179
-0.061448209
-0.00043097905
-0.073517438
-0.00063215275
-0.088247778
-0.0008556869
-0.10575865
-0.0011305629
-0.12690979
-0.0014387286
-0.15225672
-0.0018131328
-0.18275366
-0.0022431593
-0.21940212
-0.0027538588
-0.2634683
-0.003349987
-0.31648036
-0.0040865885
-0.38018661
-0.0050085269
-0.45669812
-0.0062255774
-0.54841193
-0.0079390145
-0.65796569
-0.010476545
-0.78817418
-0.014280992
-0.94211761
-0.019801641
-1.1235241
-0.027421971
-1.3373537
-0.03747169
-1.5901502
-0.050185889
-1.8903127
-0.065782104
-2.2481579
-0.084504017
-2.6761121
-0.10666163
-3.1889682
-0.13264249
-3.8046126
-0.16299709
-4.5442428
-0.19842265
-5.4335969
-0.23955691
-6.5060026
-0.2871711
-7.7988497
-0.34220562
-9.3590421
-0.40566799
-11.24461
-0.47852858
-13.52828
-0.56173598
-16.296957
-0.65586784
-19.663306
-0.76083466
-23.765801
-0.87731346
-28.776737
-1.0015792
-34.905194
-1.1267938
-42.465424
-1.246929
-51.824312
-1.3456615
-63.445107
-1.4080856
-77.941321
-96.186604
3.2238928e-05
-0.0073393959
4.5996529e-05
-0.010496238
7.9151123e-05
-0.013929497
0.00014453854
-0.018209464
0.00022930486
-0.023792943
0.00018268447
-0.029781673
0.00010561888
-0.035477072
1.0687437e-05
-0.04273353
-9.409501e-05
-0.051011658
-0.00022909648
-0.061312717
-0.00037737528
-0.073368829
-0.00056441276
-0.088060103
-0.00077050784
-0.10555206
-0.0010246774
-0.1266548
-0.0013078012
-0.15197286
-0.0016533375
-0.18240713
-0.0020477221
-0.21900681
-0.0025134983
-0.26300136
-0.0030668559
-0.31592574
-0.0037535771
-0.3794984
-0.0046241701
-0.45582593
-0.0058145275
-0.54721984
-0.0075474273
-0.65623097
-0.010177521
-0.78554215
-0.014139171
-0.93815361
-0.019865594
-1.1177937
-0.02773438
-1.3294816
-0.038035208
-1.5798489
-0.050982674
-1.8773621
-0.06678394
-2.2323499
-0.085683224
-2.6571989
-0.10801124
-3.1666161
-0.13417353
-3.7784078
-0.16474951
-4.5135953
-0.20047908
-5.39776
-0.24200828
-6.4643279
-0.29015251
-7.7505131
-0.34589927
-9.3030219
-0.410326
-11.17981
-0.48449743
-13.453636
-0.56947658
-16.21146
-0.6660041
-19.566183
-0.77425303
-23.656629
-0.89585935
-28.653289
-1.0263786
-34.772835
-1.1594963
-42.330095
-1.2916948
-51.69022
-1.4081644
-63.326365
-1.4949104
-77.860078
-96.16827
3.5705115e-05
-0.0073430192
5.2358579e-05
-0.010512733
9.0221134e-05
-0.013967146
0.00016633896
-0.01828533
0.00024831234
-0.023874396
0.00019919965
-0.029732269
0.00012808276
-0.03540575
3.9561554e-05
-0.042644652
-5.7152876e-05
-0.050914724
-0.00018346664
-0.061185928
-0.00032122749
-0.073230781
-0.00049556589
-0.087885168
-0.00068556574
-0.10536162
-0.0009203909
-0.12641921
-0.0011817818
-0.1517108
-0.0014980385
-0.18208997
-0.0018565957
-0.21864741
-0.0022835911
-0.26257332
-0.0027960712
-0.31541213
-0.0034375809
-0.37885555
-0.004272837
-0.45498924
-0.0054580653
-0.54603305
-0.0072343161
-0.65445316
-0.0099816128
-0.78279323
-0.014129035
-0.93400428
-0.020096606
-1.1118227
-0.028241566
-1.3213339
-0.038822355
-1.5692685
-0.052032009
-1.8641505
-0.068063461
-2.2163132
-0.08717007
-2.6380806
-0.10970003
-3.1440652
-0.13608952
-3.7519801
-0.16695344
-4.4826657
-0.20305212
-5.3615614
-0.24507143
-6.4221726
-0.2938454
-7.7015566
-0.35042412
-9.2461792
-0.41596873
-11.113905
-0.49163319
-13.377521
-0.57860891
-16.123993
-0.67778007
-19.466446
-0.78961588
-23.54387
-0.91637065
-28.524739
-1.0531755
-34.63444
-1.1960339
-42.185973
-1.3404011
-51.54393
-1.4752462
-63.189621
-1.5871998
-77.755486
-96.115136
3.6964109e-05
-0.0073468894
5.4564993e-05
-0.010530261
9.4807455e-05
-0.014007279
0.00018020151
-0.018370507
0.00025524627
-0.023948968
0.00020910708
-0.029685842
0.00014167352
-0.035338143
5.7307753e-05
-0.042559956
-3.3603986e-05
-0.050823608
-0.00015091388
-0.061068152
-0.00027698398
-0.07310444
-0.0004380376
-0.087723544
-0.00061216078
-0.10518708
-0.00082729797
-0.12620335
-0.0010671294
-0.15147034
-0.0013569994
-0.18179923
-0.0016821817
-0.21832147
-0.0020764213
-0.26217818
-0.0025508655
-0.31493676
-0.003154119
-0.37825121
-0.0039724308
-0.45416978
-0.0051696495
-0.54483462
-0.0070159137
-0.65260574
-0.0099040609
-0.779904
-0.014265172
-0.92964202
-0.020514547
-1.105571
-0.02896984
-1.3128773
-0.039855465
-1.5583849
-0.053340927
-1.8506652
-0.069618804
-2.2000326
-0.088962198
-2.6187287
-0.11173302
-3.1212775
-0.13839857
-3.7252814
-0.16961275
-4.4513921
-0.20617056
-5.3249116
-0.2487696
-6.3794469
-0.29827686
-7.6518766
-0.35582331
-9.1883775
-0.42264329
-11.046736
-0.49998325
-13.299753
-0.58917435
-16.034335
-0.69125238
-19.36382
-0.80698999
-23.427165
-0.93909387
-28.390866
-1.0825073
-34.489536
-1.2359046
-42.031464
-1.3934101
-51.38503
-1.547154
-63.034651
-1.685073
-77.62452
-96.026016
4.0523395e-05
-0.0073531754
6.1006394e-05
-0.010550657
0.00010538745
-0.014051523
0.00020236
-0.018467242
0.00027050489
-0.024016707
0.00022533304
-0.02964049
0.00016297649
-0.035275635
8.4264898e-05
-0.042480898
1.926697e-07
-0.050739369
-0.00010954837
-0.060957976
-0.00022511105
-0.072988639
-0.00037399966
-0.087574095
-0.0005332666
-0.10502743
-0.00073011696
-0.12600579
-0.00094826674
-0.15125161
-0.001212736
-0.18153396
-0.0015090654
-0.21802444
-0.0018715218
-0.2618149
-0.0023120156
-0.31449544
-0.0028895827
-0.37767268
-0.0037003707
-0.453358
-0.004925934
-0.54360801
-0.0068676325
-0.65066311
-0.0099252657
-0.77684555
-0.014544991
-0.92502151
-0.021118749
-1.0989953