/*--------------------------------*- C++ -*----------------------------------*\
  =========                 |
  \\      /  F ield         | OpenFOAM: The Open Source CFD Toolbox
   \\    /   O peration     | Website:  https://openfoam.org
    \\  /    A nd           | Version:  8
     \\/     M anipulation  |
\*---------------------------------------------------------------------------*/
FoamFile
{
    version     2.0;
    format      ascii;
    class       pointVectorField;
    location    "0.269994";
    object      pointDisplacement;
}
// * * * * * * * * * * * * * * * * * * * * * * * * * * * * * * * * * * * * * //

dimensions      [0 1 0 0 0 0 0];

internalField   nonuniform List<vector> 
40800
(
(0.0022939539 0 0.0019881878)
(0.0022997817 0 0.0016590062)
(0.0022994204 0 0.0016604209)
(0.002293423 0 0.0019964555)
(0.0022993939 0 0.0016595558)
(0.0022934024 0 0.0019955754)
(0.0022993331 0 0.0016584144)
(0.0022933456 0 0.0019946012)
(0.00229922 0 0.0016570831)
(0.002293238 0 0.0019934705)
(0.0022990317 0 0.0016555384)
(0.0022930577 0 0.0019921615)
(0.0022987366 0 0.001653759)
(0.0022927735 0 0.0019906586)
(0.0022982908 0 0.0016517283)
(0.0022923427 0 0.0019889512)
(0.0022976343 0 0.0016494387)
(0.0022917064 0 0.0019870382)
(0.0022966857 0 0.0016468987)
(0.0022907848 0 0.0019849351)
(0.0022953343 0 0.001644143)
(0.0022894696 0 0.0019826843)
(0.002293432 0 0.0016412479)
(0.002287615 0 0.0019803702)
(0.0022907808 0 0.0016383538)
(0.0022850267 0 0.0019781416)
(0.0022871187 0 0.0016356982)
(0.0022814471 0 0.0019762431)
(0.0022821022 0 0.0016336623)
(0.002276538 0 0.0019750608)
(0.0022752854 0 0.001632837)
(0.0022698602 0 0.0019751852)
(0.0022660977 0 0.0016341142)
(0.0022608506 0 0.0019774991)
(0.0022538204 0 0.0016388118)
(0.0022487985 0 0.0019832954)
(0.0022375659 0 0.0016488407)
(0.0022328238 0 0.0019944358)
(0.0022162655 0 0.0016669118)
(0.0022118636 0 0.002013545)
(0.0021886729 0 0.0016967867)
(0.0021846734 0 0.0020442431)
(0.0021533967 0 0.0017435043)
(0.0021498567 0 0.0020913692)
(0.002108977 0 0.0018134949)
(0.0021059376 0 0.0021611201)
(0.0020540085 0 0.0019146021)
(0.0020514779 0 0.0022610672)
(0.0019873326 0 0.0020557498)
(0.0019852684 0 0.00239983)
(0.0019082424 0 0.0022461298)
(0.0019065355 0 0.0025863144)
(0.0018167075 0 0.002493895)
(0.0018151776 0 0.002828432)
(0.0017135266 0 0.0028043775)
(0.0017119349 0 0.0031313363)
(0.0016003587 0 0.003178063)
(0.0015984448 0 0.0034953772)
(0.0014795188 0 0.0036096181)
(0.0014770486 0 0.0039151396)
(0.0013538774 0 0.0040865521)
(0.0013507036 0 0.0043780194)
(0.0012265044 0 0.0045907285)
(0.0012225949 0 0.0048659101)
(0.0011003352 0 0.0050999588)
(0.0010957643 0 0.0053567841)
(0.00097824806 0 0.0055898394)
(0.00097320241 0 0.005826472)
(0.0008626311 0 0.0060375815)
(0.00085735543 0 0.0062525903)
(0.00075508399 0 0.0064248273)
(0.00074980674 0 0.0066175337)
(0.00065654822 0 0.0067392083)
(0.00065146202 0 0.0069097107)
(0.00056740259 0 0.0069717746)
(0.00056264771 0 0.0071206783)
(0.0004874345 0 0.0071185295)
(0.00048308533 0 0.0072470184)
(0.00041632207 0 0.0071770487)
(0.00041243656 0 0.0072864798)
(0.00035326501 0 0.0071458635)
(0.00034982402 0 0.0072378091)
(0.00029743247 0 0.0070239054)
(0.00029442152 0 0.0070998187)
(0.00024847856 0 0.0068101871)
(0.00024589634 0 0.0068718908)
(0.00020544058 0 0.0064966268)
(0.00020325562 0 0.0065452175)
(0.00016731369 0 0.0060687278)
(0.00016547211 0 0.0061052366)
(0.00013328125 0 0.0055162877)
(0.00013174858 0 0.0055419255)
(0.00010274131 0 0.0048232797)
(0.00010149435 0 0.004839799)
(7.4780242e-05 0 0.0039568857)
(7.3798949e-05 0 0.0039652138)
(4.8585014e-05 0 0.0028780939)
(4.7864253e-05 0 0.002880018)
(2.3334531e-05 0 0.001552117)
(2.2896783e-05 0 0.0015506141)
(0 0 0)
(0 0 0)
(0.0023042198 0 0.0013368867)
(0.0023038669 0 0.0013380614)
(0.0023038401 0 0.0013368809)
(0.0023037762 0 0.0013354983)
(0.0023036586 0 0.0013338775)
(0.0023034642 0 0.0013319883)
(0.0023031605 0 0.0013297989)
(0.0023027029 0 0.0013272804)
(0.0023020301 0 0.0013244109)
(0.0023010592 0 0.0013211828)
(0.0022996777 0 0.0013176128)
(0.0022977348 0 0.0013137578)
(0.0022950295 0 0.0013097374)
(0.0022912957 0 0.0013057679)
(0.0022861851 0 0.0013022089)
(0.002279246 0 0.0012996326)
(0.0022699015 0 0.0012989158)
(0.002257426 0 0.0013013738)
(0.0022409254 0 0.0013089373)
(0.0022193263 0 0.0013243734)
(0.0021913819 0 0.0013515643)
(0.0021557057 0 0.0013957322)
(0.0021108519 0 0.0014635076)
(0.0020554477 0 0.0015629846)
(0.0019883825 0 0.0017034112)
(0.0019090135 0 0.0018943058)
(0.0018173793 0 0.0021441411)
(0.0017143349 0 0.0024585428)
(0.0016015599 0 0.0028383001)
(0.0014813471 0 0.0032783202)
(0.0013564851 0 0.00376638)
(0.0012299311 0 0.0042844465)
(0.0011045221 0 0.0048102169)
(0.00098302054 0 0.005319142)
(0.00086774735 0 0.0057880322)
(0.00076030865 0 0.0061978206)
(0.00066167621 0 0.0065352651)
(0.00057227377 0 0.0067908314)
(0.00049195118 0 0.0069598797)
(0.00042041417 0 0.0070395861)
(0.00035692098 0 0.0070282957)
(0.00030067476 0 0.0069248098)
(0.00025128642 0 0.0067278952)
(0.00020783999 0 0.0064297612)
(0.00016934923 0 0.0060164672)
(0.00013499521 0 0.0054772698)
(0.00010414778 0 0.0047958616)
(7.5900257e-05 0 0.0039398894)
(4.9416908e-05 0 0.002870259)
(2.3847247e-05 0 0.0015504607)
(0 0 0)
(0.0023072988 0 0.0010216826)
(0.0023069546 0 0.0010227283)
(0.0023069238 0 0.0010213366)
(0.0023068545 0 0.001019702)
(0.0023067298 0 0.0010177805)
(0.0023065261 0 0.0010155317)
(0.00230621 0 0.0010129136)
(0.0023057361 0 0.0010098865)
(0.0023050417 0 0.0010064154)
(0.0023040422 0 0.001002478)
(0.0023026229 0 0.00099807469)
(0.0023006302 0 0.00099324346)
(0.0022978594 0 0.00098808374)
(0.0022940401 0 0.00098278946)
(0.0022888185 0 0.00097769838)
(0.0022817367 0 0.00097336072)
(0.0022722106 0 0.00097063877)
(0.0022595074 0 0.00097084559)
(0.0022427267 0 0.0009759388)
(0.002220791 0 0.00098874704)
(0.0021924539 0 0.001013296)
(0.0021563347 0 0.0010550259)
(0.0021110027 0 0.0011207345)
(0.0020551226 0 0.0012187471)
(0.0019876382 0 0.0013586412)
(0.0019079764 0 0.0015502268)
(0.0018162511 0 0.0018022536)
(0.0017133792 0 0.0021205912)
(0.0016010628 0 0.0025062778)
(0.0014815705 0 0.0029544263)
(0.0013576064 0 0.0034530516)
(0.0012320096 0 0.0039842347)
(0.001107509 0 0.0045256095)
(0.00098674797 0 0.0050525322)
(0.00087197401 0 0.005541489)
(0.00076478905 0 0.0059727953)
(0.00066619107 0 0.006332404)
(0.00057664601 0 0.006610212)
(0.00049606423 0 0.0068009552)
(0.00042418283 0 0.0069013919)
(0.00036031757 0 0.0069096586)
(0.00030370797 0 0.0068244108)
(0.00025393075 0 0.0066441704)
(0.00021011171 0 0.0063613841)
(0.0001712851 0 0.0059626153)
(0.00013663203 0 0.0054366569)
(0.00010549756 0 0.0047669361)
(7.6980426e-05 0 0.0039215201)
(5.0223139e-05 0 0.0028612603)
(2.4344376e-05 0 0.0015480875)
(0 0 0)
(0.0023090615 0 0.00071325041)
(0.0023087248 0 0.00071415964)
(0.0023086883 0 0.00071254996)
(0.0023086115 0 0.00071065697)
(0.0023084773 0 0.00070843094)
(0.0023082609 0 0.00070582264)
(0.0023079284 0 0.00070277999)
(0.0023074331 0 0.00069925056)
(0.0023067111 0 0.00069518562)
(0.0023056757 0 0.00069054706)
(0.0023042098 0 0.00068531715)
(0.0023021568 0 0.00067951475)
(0.002299308 0 0.00067321785)
(0.0022953882 0 0.00066659786)
(0.0022900374 0 0.00065996913)
(0.0022827911 0 0.00065386015)
(0.0022730574 0 0.00064911557)
(0.0022600964 0 0.00064704647)
(0.0022430011 0 0.00064965952)
(0.0022206911 0 0.00065983151)
(0.0021919226 0 0.0006817727)
(0.0021553194 0 0.00072121328)
(0.0021094664 0 0.00078502958)
(0.002053072 0 0.0008817523)
(0.0019851413 0 0.0010213247)
(0.0019051758 0 0.0012138005)
(0.0018133705 0 0.0014681657)
(0.0017107088 0 0.0017904862)
(0.0015989163 0 0.0021819968)
(0.0014802351 0 0.0026379828)
(0.0013572815 0 0.0031466662)
(0.0012327721 0 0.0036902485)
(0.0011093194 0 0.0042463433)
(0.00098944469 0 0.0047902578)
(0.00087531717 0 0.0052982295)
(0.00076852539 0 0.0057500379)
(0.00067008884 0 0.0061309045)
(0.00058051304 0 0.0064301774)
(0.00049976641 0 0.0066419907)
(0.00042762068 0 0.0067626712)
(0.0003634481 0 0.0067901265)
(0.0003065263 0 0.0067228538)
(0.00025640621 0 0.006559129)
(0.00021225134 0 0.0062915892)
(0.00017311794 0 0.0059072502)
(0.00013818921 0 0.0053945104)
(0.00010678874 0 0.0047365459)
(7.801939e-05 0 0.0039018105)
(5.1002799e-05 0 0.0028511224)
(2.4825669e-05 0 0.0015450085)
(0 0 0)
(0.0023095484 0 0.00041144913)
(0.0023092159 0 0.0004122281)
(0.0023091717 0 0.00041040587)
(0.0023090852 0 0.00040825964)
(0.0023089383 0 0.00040573219)
(0.0023087059 0 0.00040276554)
(0.0023083528 0 0.00039929758)
(0.0023078312 0 0.00039526426)
(0.0023070754 0 0.00039060348)
(0.0023059967 0 0.00038526173)
(0.0023044754 0 0.00037920383)
(0.0023023512 0 0.00037242891)
(0.0022994113 0 0.00036499312)
(0.002295375 0 0.00035704428)
(0.002289876 0 0.0003488713)
(0.002282442 0 0.00034097684)
(0.0022724732 0 0.00033418261)
(0.0022592227 0 0.00032978563)
(0.0022417776 0 0.00032991779)
(0.0022190563 0 0.00033763195)
(0.0021898211 0 0.00035717942)
(0.0021526936 0 0.00039435106)
(0.0021062737 0 0.00045628359)
(0.0020493265 0 0.00055189459)
(0.0019809245 0 0.00069138852)
(0.0019006463 0 0.00088498156)
(0.0018087748 0 0.0011418588)
(0.0017063629 0 0.0014682396)
(0.0015951602 0 0.0018655022)
(0.0014773794 0 0.0023290727)
(0.0013555453 0 0.0028473491)
(0.0012322476 0 0.0034026588)
(0.0011099749 0 0.003972631)
(0.00099112466 0 0.0045325664)
(0.00087778345 0 0.005058526)
(0.00077151835 0 0.0055298301)
(0.00067336611 0 0.0059310418)
(0.00058386885 0 0.0062509859)
(0.00050305066 0 0.0064832192)
(0.00043072025 0 0.0066236277)
(0.00036630568 0 0.0066698728)
(0.00030912374 0 0.006620283)
(0.00025870727 0 0.0064728859)
(0.00021425426 0 0.0062204677)
(0.00017484408 0 0.0058504467)
(0.00013966401 0 0.0053508878)
(0.00010801925 0 0.0047047314)
(7.9015624e-05 0 0.0038807887)
(5.1754891e-05 0 0.0028398669)
(2.529083e-05 0 0.0015412351)
(0 0 0)
(0.0023087906 0 0.00011614133)
(0.0023084624 0 0.0001167918)
(0.0023084085 0 0.00011475831)
(0.0023083097 0 0.00011236038)
(0.0023081474 0 0.0001095331)
(0.0023078955 0 0.00010620957)
(0.0023075178 0 0.0001023175)
(0.0023069648 0 9.778115e-05)
(0.0023061693 0 9.2525091e-05)
(0.0023050399 0 8.6480337e-05)
(0.0023034542 0 7.9594253e-05)
(0.002301248 0 7.1846193e-05)
(0.0022982036 0 6.3270111e-05)
(0.0022940344 0 5.3989148e-05)
(0.0022883669 0 4.4264733e-05)
(0.0022807204 0 3.4568871e-05)
(0.0022704863 0 2.5695489e-05)
(0.0022569155 0 1.9036968e-05)
(0.0022390951 0 1.6870856e-05)
(0.0022159337 0 2.2426822e-05)
(0.0021861857 0 3.9872531e-05)
(0.0021484809 0 7.4789253e-05)
(0.0021014536 0 0.00013479415)
(0.0020439205 0 0.00022926994)
(0.0019750213 0 0.00036876553)
(0.0018944238 0 0.00056372855)
(0.0018025028 0 0.00082331471)
(0.0017003831 0 0.0011538584)
(0.0015898374 0 0.0015568294)
(0.0014730455 0 0.0020277635)
(0.0013524364 0 0.0025552057)
(0.0012304687 0 0.0031216131)
(0.0011095011 0 0.0037046602)
(0.00099180547 0 0.0042796805)
(0.00087938273 0 0.0048226279)
(0.00077377168 0 0.0053124338)
(0.00067602201 0 0.0057330751)
(0.00058670961 0 0.0060728833)
(0.00050591151 0 0.0063248655)
(0.00043347537 0 0.0064844598)
(0.00036888422 0 0.0065490681)
(0.00031149487 0 0.0065168414)
(0.00026082883 0 0.0063855563)
(0.00021611613 0 0.0061481116)
(0.00017646006 0 0.0057922802)
(0.00014105379 0 0.0053058475)
(0.00010918701 0 0.0046715338)
(7.9967651e-05 0 0.0038584851)
(5.2478453e-05 0 0.0028275178)
(2.5739542e-05 0 0.0015367789)
(0 0 0)
(0.0023068236 0 -0.00017280679)
(0.0023064994 0 -0.00017228608)
(0.0023064339 0 -0.00017453283)
(0.0023063207 0 -0.00017718487)
(0.0023061402 0 -0.00018031405)
(0.0023058654 0 -0.00018399573)
(0.0023054588 0 -0.00018831213)
(0.0023048695 0 -0.00019335064)
(0.002304028 0 -0.00019920011)
(0.0023028405 0 -0.00020594521)
(0.002301181 0 -0.00021365646)
(0.0022988813 0 -0.00022237472)
(0.0022957184 0 -0.00023208889)
(0.0022913992 0 -0.00024270139)
(0.0022855419 0 -0.00025398044)
(0.0022776567 0 -0.00026549281)
(0.002267132 0 -0.00027637802)
(0.0022532205 0 -0.00028504119)
(0.0022349995 0 -0.0002892215)
(0.0022113598 0 -0.00028575663)
(0.002181046 0 -0.00027039293)
(0.0021427108 0 -0.00023746812)
(0.0020950344 0 -0.00017911665)
(0.0020368807 0 -8.5797606e-05)
(0.0019674637 0 5.3579627e-05)
(0.001886545 0 0.00025000609)
(0.0017945946 0 0.00051251761)
(0.0016928125 0 0.00084734891)
(0.0015829926 0 0.0012560075)
(0.0014672777 0 0.0017341124)
(0.001347996 0 0.0022703261)
(0.0012274709 0 0.0028472402)
(0.0011079262 0 0.0034425975)
(0.00099150758 0 0.0040318005)
(0.00088012776 0 0.004590763)
(0.00077529165 0 0.005098092)
(0.00067805777 0 0.0055372489)
(0.00058903308 0 0.0058961049)
(0.00050834485 0 0.0061671468)
(0.00043588083 0 0.0063453614)
(0.00037117839 0 0.00642788)
(0.00031363477 0 0.0064126707)
(0.0002627662 0 0.0062972555)
(0.00021783284 0 0.0060746133)
(0.00017796252 0 0.0057328266)
(0.00014235594 0 0.0052594483)
(0.00011028999 0 0.0046369956)
(8.0873978e-05 0 0.0038349304)
(5.3172472e-05 0 0.0028140975)
(2.6171445e-05 0 0.0015316517)
(0 0 0)
(0.0023036844 0 -0.00045552784)
(0.002303363 0 -0.00045513524)
(0.0023032839 0 -0.00045759423)
(0.0023031537 0 -0.00046049903)
(0.002302952 0 -0.00046392869)
(0.0023026506 0 -0.00046796712)
(0.0023022109 0 -0.00047270655)
(0.0023015799 0 -0.00047824607)
(0.0023006859 0 -0.00048468809)
(0.0022994324 0 -0.00049213281)
(0.0022976895 0 -0.00050066844)
(0.0022952846 0 -0.00051035592)
(0.0022919888 0 -0.00052120629)
(0.0022875015 0 -0.00053314583)
(0.0022814322 0 -0.00054596652)
(0.0022732857 0 -0.00055925165)
(0.0022624543 0 -0.00057198297)
(0.0022481804 0 -0.00058249819)
(0.0022295187 0 -0.00058864455)
(0.0022053511 0 -0.00058729232)
(0.0021744256 0 -0.00057402434)
(0.0021354164 0 -0.00054287715)
(0.0020870435 0 -0.00048587568)
(0.002028233 0 -0.00039335403)
(0.0019582787 0 -0.00025405194)
(0.0018770417 0 -5.6224618e-05)
(0.0017850919 0 0.00020945308)
(0.0016836965 0 0.00054871507)
(0.001574673 0 0.00096305823)
(0.0014601229 0 0.0014481638)
(0.0013422681 0 0.0019927839)
(0.0012232927 0 0.0025796483)
(0.0011052816 0 0.0031865868)
(0.0009902544 0 0.0037891036)
(0.00088003409 0 0.0043631375)
(0.00077608702 0 0.0048870285)
(0.00067947691 0 0.0053437911)
(0.00059083907 0 0.0057208727)
(0.00051034808 0 0.0060102711)
(0.00043793261 0 0.0062065195)
(0.0003731837 0 0.0063064723)
(0.00031553914 0 0.0063079108)
(0.00026451514 0 0.0062080985)
(0.00021940059 0 0.0060000654)
(0.00017934831 0 0.0056721623)
(0.00014356795 0 0.0052117499)
(0.00011132616 0 0.0046011601)
(8.1733087e-05 0 0.0038101549)
(5.3835948e-05 0 0.0027996296)
(2.6586168e-05 0 0.0015258652)
(0 0 0)
(0.0022994096 0 -0.00073215057)
(0.0022990884 0 -0.00073188456)
(0.0022989937 0 -0.00073455428)
(0.0022988439 0 -0.00073770971)
(0.0022986179 0 -0.00074143764)
(0.0022982863 0 -0.00074583082)
(0.0022978087 0 -0.00075099168)
(0.0022971304 0 -0.00075703119)
(0.0022961772 0 -0.00076406535)
(0.0022948492 0 -0.00077220973)
(0.002293013 0 -0.0007815701)
(0.0022904906 0 -0.00079222725)
(0.0022870468 0 -0.00080421432)
(0.0022823734 0 -0.00081748222)
(0.0022760708 0 -0.0008318511)
(0.0022676447 0 -0.00084679824)
(0.002256487 0 -0.00086123632)
(0.0022418176 0 -0.00087361409)
(0.002222673 0 -0.00088176427)
(0.0021979326 0 -0.00088246964)
(0.0021663486 0 -0.00087119194)
(0.0021266182 0 -0.00084174351)
(0.0020775065 0 -0.00078593474)
(0.0020180054 0 -0.00069381182)
(0.0019474974 0 -0.00055418413)
(0.0018659536 0 -0.00035483854)
(0.0017740381 0 -8.5890811e-05)
(0.0016730819 0 0.00025796011)
(0.0015649277 0 0.00067799743)
(0.0014516304 0 0.0011699526)
(0.0013352989 0 0.0017226388)
(0.0012179749 0 0.0023189289)
(0.0011016011 0 0.002936753)
(0.00098807178 0 0.0035517464)
(0.0008791198 0 0.0041399367)
(0.00077616887 0 0.0046794486)
(0.00068028497 0 0.0051529143)
(0.00059212894 0 0.0055473967)
(0.00051191992 0 0.0058544372)
(0.00043962778 0 0.0060681154)
(0.00037489641 0 0.0061850047)
(0.00031720423 0 0.0062026992)
(0.00026607184 0 0.0061181992)
(0.00022081586 0 0.0059245604)
(0.00018061439 0 0.0056103634)
(0.0001446874 0 0.0051628119)
(0.00011229357 0 0.0045640715)
(8.2543488e-05 0 0.0037841903)
(5.4467848e-05 0 0.0027841372)
(2.6983312e-05 0 0.0015194319)
(0 0 0)
(0.0022940288 0 -0.0010028007)
(0.0022937066 0 -0.0010026602)
(0.002293594 0 -0.0010055401)
(0.0022934222 0 -0.0010089457)
(0.0022931688 0 -0.0010129715)
(0.0022928031 0 -0.0010177193)
(0.0022922831 0 -0.0010233015)
(0.0022915519 0 -0.0010298409)
(0.0022905327 0 -0.0010374671)
(0.0022891221 0 -0.001046311)
(0.0022871823 0 -0.0010564959)
(0.0022845297 0 -0.001068122)
(0.0022809224 0 -0.0010812442)
(0.0022760435 0 -0.0010958358)
(0.0022694895 0 -0.0011117385)
(0.0022607689 0 -0.0011282783)
(0.002249259 0 -0.0011443748)
(0.0022341566 0 -0.0011586006)
(0.0022144881 0 -0.0011687109)
(0.002189129 0 -0.0011714136)
(0.0021568381 0 -0.0011620389)
(0.0021163394 0 -0.0011341918)
(0.0020664489 0 -0.0010793997)
(0.0020062282 0 -0.00098740748)
(0.0019351624 0 -0.00084686183)
(0.0018533237 0 -0.00064570348)
(0.0017614742 0 -0.00037352638)
(0.0016610182 0 -2.4916987e-05)
(0.0015538085 0 0.00040083181)
(0.0014418519 0 0.00089950097)
(0.0013271373 0 0.0014599337)
(0.0012115608 0 0.0020651527)
(0.0010969249 0 0.00269335)
(0.00098499571 0 0.0033201922)
(0.00087741119 0 0.0039216523)
(0.00077555452 0 0.0044758356)
(0.00068049178 0 0.0049650715)
(0.00059290674 0 0.0053760013)
(0.00051306055 0 0.0056998351)
(0.00044096449 0 0.0059303225)
(0.00037631368 0 0.0060636321)
(0.00031862688 0 0.0060971706)
(0.00026743295 0 0.0060276706)
(0.00022207544 0 0.0058481907)
(0.00018175794 0 0.0055475064)
(0.00014571196 0 0.0051126949)
(0.00011319028 0 0.0045257745)
(8.3303711e-05 0 0.0037570695)
(5.5067135e-05 0 0.0027676442)
(2.7362445e-05 0 0.0015123631)
(0 0 0)
(0.0022875709 0 -0.0012676013)
(0.0022872496 0 -0.0012675876)
(0.002287117 0 -0.0012706803)
(0.0022869205 0 -0.0012743394)
(0.0022866366 0 -0.0012786663)
(0.002286233 0 -0.0012837712)
(0.0022856659 0 -0.0012897765)
(0.0022848761 0 -0.0012968166)
(0.0022837839 0 -0.0013050343)
(0.0022822821 0 -0.0013145763)
(0.002280228 0 -0.0013255838)
(0.0022774324 0 -0.0013381773)
(0.0022736457 0 -0.0013524353)
(0.0022685422 0 -0.001368359)
(0.0022617204 0 -0.0013857006)
(0.002252688 0 -0.0014037595)
(0.0022407967 0 -0.001421532)
(0.0022252236 0 -0.0014375764)
(0.0022049884 0 -0.0014496068)
(0.0021789628 0 -0.0014542514)
(0.0021459155 0 -0.0014466992)
(0.002104602 0 -0.0014203518)
(0.0020538964 0 -0.0013663826)
(0.0019929356 0 -0.001274228)
(0.0019213084 0 -0.0011322915)
(0.0018391917 0 -0.00092884716)
(0.0017474505 0 -0.0006533054)
(0.0016475567 0 -0.00029991784)
(0.0015413688 0 0.0001315621)
(0.001430841 0 0.00063682074)
(0.0013178401 0 0.0012048472)
(0.0012041108 0 0.0018187264)
(0.001091308 0 0.0024568717)
(0.00098106942 0 0.0030949816)
(0.00087493839 0 0.0037088317)
(0.00077426388 0 0.0042767106)
(0.00068010871 0 0.004780743)
(0.00059317731 0 0.005207119)
(0.00051377125 0 0.0055467607)
(0.00044194191 0 0.0057933084)
(0.00037743344 0 0.0059425039)
(0.00031980456 0 0.0059914566)
(0.00026859554 0 0.0059366238)
(0.00022317642 0 0.0057710479)
(0.00018277633 0 0.0054836673)
(0.00014663939 0 0.0050614595)
(0.00011401442 0 0.0044863147)
(8.4012272e-05 0 0.0037288254)
(5.5632767e-05 0 0.0027501745)
(2.7723143e-05 0 0.0015046728)
(0 0 0)
(0.0022800756 0 -0.0015266737)
(0.002279749 0 -0.0015267856)
(0.0022795942 0 -0.0015300908)
(0.0022793702 0 -0.0015340032)
(0.0022790524 0 -0.0015386313)
(0.0022786068 0 -0.0015440937)
(0.0022779878 0 -0.0015505224)
(0.0022771335 0 -0.0015580634)
(0.0022759609 0 -0.0015668728)
(0.002274359 0 -0.0015771128)
(0.0022721798 0 -0.001588942)
(0.0022692274 0 -0.0016025012)
(0.0022652441 0 -0.0016178909)
(0.0022599004 0 -0.0016351377)
(0.0022527984 0 -0.0016538594)
(0.0022434305 0 -0.0016733824)
(0.0022311236 0 -0.0016928193)
(0.002215042 0 -0.001710658)
(0.0021941958 0 -0.0017245742)
(0.0021674547 0 -0.0017311101)
(0.0021336007 0 -0.0017252967)
(0.0020914349 0 -0.001700163)
(0.0020398913 0 -0.0016466183)
(0.0019781757 0 -0.0015539897)
(0.0019059782 0 -0.0014105044)
(0.0018236081 0 -0.0012042992)
(0.0017320216 0 -0.0009250768)
(0.0016327463 0 -0.00056704323)
(0.0015276639 0 -0.00012981983)
(0.0014186641 0 0.00038207852)
(0.0013074849 0 0.00095780958)
(0.0011956971 0 0.0015802055)
(0.0010848021 0 0.0022276343)
(0.00097632358 0 0.0028760845)
(0.00087172273 0 0.0035014159)
(0.00077231132 0 0.0040820284)
(0.00067914487 0 0.0045999124)
(0.00059294605 0 0.0050409302)
(0.00051405409 0 0.0053955121)
(0.00044255959 0 0.0056572334)
(0.0003782544 0 0.0058217641)
(0.00032073528 0 0.0058856849)
(0.00026955714 0 0.0058451681)
(0.00022411619 0 0.0056932232)
(0.00018366709 0 0.0054189222)
(0.00014746756 0 0.0050091665)
(0.00011476413 0 0.0044457382)
(8.4667721e-05 0 0.003699492)
(5.6163686e-05 0 0.0027317524)
(2.8064932e-05 0 0.0014963726)
(0 0 0)
(0.0022715627 0 -0.0017801353)
(0.0022712343 0 -0.0017803762)
(0.0022710551 0 -0.0017838972)
(0.002270801 0 -0.0017880651)
(0.0022704459 0 -0.001792995)
(0.0022699545 0 -0.0017988136)
(0.0022692786 0 -0.0018056635)
(0.0022683538 0 -0.0018137023)
(0.0022670935 0 -0.0018231002)
(0.0022653823 0 -0.0018340353)
(0.0022630667 0 -0.0018466845)
(0.0022599436 0 -0.0018612099)
(0.0022557468 0 -0.0018777364)
(0.0022501488 0 -0.001896224)
(0.0022427515 0 -0.0019162769)
(0.0022330217 0 -0.0019372873)
(0.0022202646 0 -0.0019583613)
(0.0022036344 0 -0.0019779655)
(0.0021821305 0 -0.0019937354)
(0.0021546234 0 -0.0020021156)
(0.0021199266 0 -0.0019977939)
(0.0020768905 0 -0.0019733687)
(0.0020244863 0 -0.0019197822)
(0.001961994 0 -0.0018263476)
(0.0018892219 0 -0.0016811721)
(0.001806619 0 -0.0014720641)
(0.0017152271 0 -0.001189017)
(0.0016166373 0 -0.0008263162)
(0.0015127658 0 -0.00038314468)
(0.0014054135 0 0.00013573912)
(0.0012961514 0 0.00071915747)
(0.0011863705 0 0.0013495863)
(0.0010774411 0 0.0020055099)
(0.00097078397 0 0.0026633258)
(0.00086778476 0 0.0032992297)
(0.00076971183 0 0.0038916521)
(0.00067761103 0 0.0044224904)
(0.00059221995 0 0.0048773902)
(0.00051391252 0 0.005246233)
(0.00044281861 0 0.0055223472)
(0.0003787761 0 0.0057015509)
(0.00032141766 0 0.0057799793)
(0.00027031574 0 0.0057534105)
(0.00022489248 0 0.0056148064)
(0.00018442799 0 0.0053533463)
(0.00014819445 0 0.0049558769)
(0.00011543767 0 0.0044040915)
(8.5268595e-05 0 0.0036691032)
(5.6658844e-05 0 0.0027124031)
(2.8387335e-05 0 0.0014874758)
(0 0 0)
(0.0022620701 0 -0.0020281023)
(0.002261737 0 -0.0020284624)
(0.0022615311 0 -0.0020321901)
(0.0022612441 0 -0.0020366046)
(0.0022608484 0 -0.0020418297)
(0.0022603068 0 -0.0020480012)
(0.0022595689 0 -0.0020552718)
(0.0022585671 0 -0.0020638104)
(0.0022572112 0 -0.0020738003)
(0.002255381 0 -0.0020854345)
(0.0022529167 0 -0.0020989073)
(0.0022496078 0 -0.0021144001)
(0.0022451836 0 -0.0021320628)
(0.0022393204 0 -0.0021517477)
(0.0022316063 0 -0.0021730877)
(0.0022214833 0 -0.0021955785)
(0.0022082415 0 -0.0022182702)
(0.002191021 0 -0.0022396085)
(0.0021688108 0 -0.0022572049)
(0.0021405003 0 -0.002267245)
(0.0021049432 0 -0.0022639803)
(0.0020610051 0 -0.0022399821)
(0.0020076976 0 -0.0021861917)
(0.0019444074 0 -0.0020916336)
(0.0018710742 0 -0.0019443005)
(0.0017882633 0 -0.0017321288)
(0.0016971172 0 -0.0014451417)
(0.001599314 0 -0.0010774227)
(0.0014967785 0 -0.00062791174)
(0.0013911804 0 -0.00010182817)
(0.0012838951 0 0.00048885489)
(0.0011761695 0 0.0011266374)
(0.0010692596 0 0.0017903264)
(0.00096448315 0 0.0024567053)
(0.00086315021 0 0.0031023154)
(0.0007664846 0 0.0037056598)
(0.00067552055 0 0.0042485812)
(0.0005910075 0 0.0047165392)
(0.00051335192 0 0.0050990369)
(0.00044272189 0 0.005388966)
(0.00037899873 0 0.0055820846)
(0.00032185088 0 0.0056744601)
(0.00027086973 0 0.0056614554)
(0.00022550329 0 0.0055358863)
(0.00018505696 0 0.0052870144)
(0.00014881815 0 0.0049016518)
(0.00011603329 0 0.0043614217)
(8.5813473e-05 0 0.0036376946)
(5.7117168e-05 0 0.0026921514)
(2.8689873e-05 0 0.0014779961)
(0 0 0)
(0.0022516277 0 -0.0022706872)
(0.002251286 0 -0.0022711707)
(0.0022510508 0 -0.0022751095)
(0.0022507279 0 -0.0022797748)
(0.002250288 0 -0.0022852979)
(0.0022496917 0 -0.002291823)
(0.0022488863 0 -0.0022995128)
(0.0022478009 0 -0.0023085481)
(0.0022463413 0 -0.0023191256)
(0.0022443819 0 -0.0023314537)
(0.0022417569 0 -0.0023457441)
(0.0022382473 0 -0.0023621985)
(0.0022335833 0 -0.0023809323)
(0.002227441 0 -0.0024017849)
(0.0022193864 0 -0.0024244326)
(0.0022088391 0 -0.0024483777)
(0.0021950761 0 -0.0024726555)
(0.0021772217 0 -0.0024956785)
(0.002154266 0 -0.002514969)
(0.0021251311 0 -0.0025263349)
(0.0020886788 0 -0.0025238866)
(0.0020437797 0 -0.0025003216)
(0.0019895297 0 -0.002446213)
(0.0019254354 0 -0.0023502219)
(0.0018515628 0 -0.0022002285)
(0.0017685902 0 -0.0019845049)
(0.001677771 0 -0.0016931856)
(0.0015808809 0 -0.0013198943)
(0.0014798024 0 -0.0008636999)
(0.0013760264 0 -0.00033067416)
(0.0012707619 0 0.00026672546)
(0.0011651387 0 0.00091125668)
(0.0010602971 0 0.0015820237)
(0.00095745435 0 0.0022562051)
(0.0008578457 0 0.002910698)
(0.00076264983 0 0.0035241126)
(0.00067288795 0 0.0040782742)
(0.00058931872 0 0.0045584849)
(0.00051237864 0 0.0049539682)
(0.00044227251 0 0.0052571993)
(0.00037892307 0 0.0054635858)
(0.0003220342 0 0.005569243)
(0.00027121795 0 0.0055694044)
(0.00022594695 0 0.0054565501)
(0.00018555214 0 0.0052200007)
(0.00014933687 0 0.004846552)
(0.00011654934 0 0.0043177766)
(8.630093e-05 0 0.0036053014)
(5.7537595e-05 0 0.0026710232)
(2.8972019e-05 0 0.0014679466)
(0 0 0)
(0.0022402544 0 -0.002508001)
(0.0022399065 0 -0.0025086072)
(0.0022396397 0 -0.0025127576)
(0.0022392778 0 -0.0025176744)
(0.00223879 0 -0.002523496)
(0.0022381347 0 -0.0025303751)
(0.0022372563 0 -0.0025384843)
(0.0022360806 0 -0.0025480157)
(0.002234509 0 -0.002559179)
(0.0022324105 0 -0.0025721979)
(0.002229612 0 -0.0025873012)
(0.0022258891 0 -0.0026047148)
(0.0022209744 0 -0.002624482)
(0.0022145344 0 -0.0026464641)
(0.0022061122 0 -0.0026704131)
(0.0021951101 0 -0.0026957943)
(0.0021807889 0 -0.0027216287)
(0.0021622591 0 -0.0027463042)
(0.0021385306 0 -0.0027670357)
(0.0021085402 0 -0.0027794557)
(0.0020711329 0 -0.0027778201)
(0.0020252212 0 -0.0027546178)
(0.0019700067 0 -0.0026999337)
(0.0019051102 0 -0.0026021617)
(0.0018307241 0 -0.0024491328)
(0.0017476602 0 -0.0022292189)
(0.0016572754 0 -0.0019329442)
(0.0015614279 0 -0.0015535837)
(0.001461906 0 -0.0010905612)
(0.0013599991 0 -0.00055101872)
(0.0012568001 0 5.2610972e-05)
(0.0011533229 0 0.00070332619)
(0.0010505934 0 0.0013805248)
(0.00094973154 0 0.0020617893)
(0.00085189885 0 0.0027243841)
(0.00075822886 0 0.0033470533)
(0.00066972877 0 0.0039116426)
(0.00058716435 0 0.0044033218)
(0.00051099939 0 0.004811057)
(0.0004414739 0 0.0051270038)
(0.00037855016 0 0.0053460959)
(0.00032196738 0 0.0054644367)
(0.00027135966 0 0.0054773561)
(0.00022622211 0 0.0053768835)
(0.0001859119 0 0.0051523785)
(0.00014974894 0 0.0047906386)
(0.00011698421 0 0.0042732041)
(8.6729563e-05 0 0.0035719599)
(5.7919047e-05 0 0.0026490444)
(2.9233273e-05 0 0.0014573421)
(0 0 0)
(0.0022279835 0 -0.0027401513)
(0.0022276249 0 -0.0027408798)
(0.0022273238 0 -0.0027452419)
(0.0022269199 0 -0.0027504102)
(0.0022263804 0 -0.0027565301)
(0.0022256615 0 -0.0027637627)
(0.0022247046 0 -0.0027722902)
(0.0022234319 0 -0.0027823155)
(0.00222174 0 -0.0027940608)
(0.0022194922 0 -0.0028077627)
(0.0022165079 0 -0.0028236632)
(0.0022125598 0 -0.002842002)
(0.0022073811 0 -0.0028628014)
(0.002200623 0 -0.0028859247)
(0.002191806 0 -0.0029111517)
(0.0021803166 0 -0.0029379393)
(0.0021653981 0 -0.0029652876)
(0.0021461585 0 -0.002991525)
(0.0021216297 0 -0.0030135196)
(0.0020907342 0 -0.0030268822)
(0.0020523121 0 -0.0030259803)
(0.002005359 0 -0.0030028063)
(0.0019491776 0 -0.0029470963)
(0.0018834917 0 -0.0028471565)
(0.0018086299 0 -0.0026907278)
(0.0017255368 0 -0.0024663063)
(0.0016357116 0 -0.0021643605)
(0.0015410404 0 -0.0017783903)
(0.0014431401 0 -0.0013087516)
(0.0013431471 0 -0.00076306343)
(0.0012420571 0 -0.00015365395)
(0.0011407668 0 0.00050271911)
(0.0010401884 0 0.0011857418)
(0.00094134874 0 0.0018734102)
(0.00084533752 0 0.0025433668)
(0.00075324346 0 0.0031745119)
(0.00066605931 0 0.003748746)
(0.00058455584 0 0.0042511323)
(0.00050922168 0 0.0046704003)
(0.00044033025 0 0.0049984198)
(0.00037788231 0 0.0052297)
(0.00032165178 0 0.0053602188)
(0.00027129452 0 0.005385406)
(0.00022632769 0 0.0052969703)
(0.00018613478 0 0.0050842202)
(0.00015005279 0 0.0047339723)
(0.00011733638 0 0.0042277527)
(8.7098021e-05 0 0.0035377077)
(5.8260454e-05 0 0.0026262417)
(2.9473073e-05 0 0.0014461956)
(0 0 0)
(0.0022148345 0 -0.0029672435)
(0.0022144665 0 -0.0029680941)
(0.0022141287 0 -0.0029726682)
(0.0022136796 0 -0.0029780882)
(0.0022130846 0 -0.0029845067)
(0.0022122974 0 -0.0029920934)
(0.0022112563 0 -0.0030010398)
(0.0022098795 0 -0.0030115603)
(0.0022080586 0 -0.0030238899)
(0.0022056507 0 -0.0030382802)
(0.0022024674 0 -0.0030549907)
(0.0021982812 0 -0.0030742267)
(0.0021928233 0 -0.0030960185)
(0.0021857258 0 -0.0031202711)
(0.0021764876 0 -0.003146754)
(0.002164478 0 -0.003174919)
(0.0021489237 0 -0.0032037543)
(0.0021289463 0 -0.00323135)
(0.0021035817 0 -0.0032544634)
(0.0020717241 0 -0.0032687422)
(0.0020322471 0 -0.0032683144)
(0.0019842467 0 -0.0032446675)
(0.0019271037 0 -0.0031873981)
(0.0018606428 0 -0.0030848836)
(0.0017853473 0 -0.0029246862)
(0.0017023021 0 -0.0026954976)
(0.0016131721 0 -0.002387342)
(0.0015197846 0 -0.0019944508)
(0.0014235505 0 -0.0015185072)
(0.0013255188 0 -0.00096701796)
(0.0012265808 0 -0.00035224528)
(0.0011275149 0 0.00030929627)
(0.0010291221 0 0.00099757284)
(0.00093234029 0 0.0016910046)
(0.00083819015 0 0.0023676237)
(0.00074771613 0 0.0030065018)
(0.00066189667 0 0.0035896292)
(0.00058150549 0 0.0041019855)
(0.00050705396 0 0.0045320831)
(0.00043884719 0 0.0048715415)
(0.00037692349 0 0.0051145577)
(0.00032108918 0 0.005256765)
(0.00027102222 0 0.0052936458)
(0.00022626292 0 0.0052168923)
(0.00018621952 0 0.0050155969)
(0.00015024699 0 0.0046766136)
(0.00011760436 0 0.0041814711)
(8.7404938e-05 0 0.0035025819)