/*--------------------------------*- C++ -*----------------------------------*\
  =========                 |
  \\      /  F ield         | OpenFOAM: The Open Source CFD Toolbox
   \\    /   O peration     | Website:  https://openfoam.org
    \\  /    A nd           | Version:  8
     \\/     M anipulation  |
\*---------------------------------------------------------------------------*/
FoamFile
{
    version     2.0;
    format      ascii;
    class       volScalarField;
    location    "0.269994";
    object      rho;
}
// * * * * * * * * * * * * * * * * * * * * * * * * * * * * * * * * * * * * * //

dimensions      [1 -3 0 0 0 0 0];

internalField   nonuniform List<scalar> 
20000
(
0.71227092
0.71364854
0.71589146
0.72016608
0.72834837
0.74379534
0.76839693
0.7759888
0.77496018
0.77689036
0.7768291
0.77892565
0.77983528
0.78249766
0.78449671
0.78809892
0.79149725
0.7965526
0.80192013
0.80916962
0.81738578
0.8278747
0.84013807
0.85520145
0.87286171
0.89374824
0.91758328
0.94420158
0.97268208
1.0019306
1.030354
1.0563755
1.0788717
1.0975717
1.1126764
1.1247054
1.1341263
1.1414852
1.1471751
1.1516798
1.1552775
1.1582033
1.1604907
1.1622875
1.1637838
1.1651901
1.167059
1.168264
1.169082
1.1696411
0.71400907
0.71534047
0.71762128
0.72203101
0.73055224
0.74681549
0.77086762
0.77757816
0.77649068
0.77847324
0.77841881
0.78059071
0.78154004
0.78430235
0.78638011
0.79011434
0.79364107
0.79887435
0.80443653
0.81192685
0.8204192
0.83122688
0.84385386
0.85930612
0.87737047
0.89860916
0.92266169
0.94922289
0.97728599
1.0057599
1.0332399
1.0583939
1.0802425
1.0985045
1.1133246
1.125157
1.1344394
1.1416983
1.1473289
1.1518049
1.1553803
1.1582864
1.1605594
1.1623528
1.1638405
1.1652956
1.1671589
1.1683622
1.1691053
1.1696497
0.71559492
0.71687052
0.71917547
0.72371758
0.73261183
0.74984122
0.77322918
0.77903211
0.77805277
0.78011428
0.78009173
0.7823454
0.7833484
0.78621004
0.78837593
0.79224274
0.79590757
0.80132359
0.80709158
0.8148344
0.8236206
0.83476942
0.84778776
0.86366569
0.88217594
0.90381525
0.92813202
0.95467876
0.98235044
1.0100574
1.0365648
1.0607743
1.0818704
1.0995921
1.1140459
1.1256365
1.1347617
1.1419107
1.1474738
1.1519134
1.1554634
1.1583496
1.1606093
1.1623977
1.1638863
1.1654133
1.1672792
1.1684874
1.1692165
1.1696064
0.71738412
0.71862409
0.72096634
0.72564553
0.73490858
0.75318711
0.77567103
0.78078558
0.77976578
0.78189005
0.78188834
0.78421966
0.78527326
0.78823695
0.79049297
0.79449728
0.79830363
0.80390677
0.80988539
0.81788516
0.82697007
0.83846548
0.85188253
0.86819516
0.88716226
0.909215
0.93381118
0.96037521
0.98772102
1.0147548
1.0403648
1.0636452
1.0839421
1.1010512
1.1150641
1.1263433
1.1352502
1.1422452
1.1477098
1.1520915
1.1555996
1.1584536
1.1606908
1.162466
1.16396
1.1655893
1.1674377
1.1685988
1.1692402
1.1695881
0.71920226
0.72040206
0.72278719
0.72761393
0.73726013
0.75669231
0.77806807
0.78256097
0.78155708
0.78375496
0.78378596
0.78620146
0.78731401
0.79038448
0.79273833
0.79688538
0.80084197
0.80664042
0.81284158
0.82111098
0.83051209
0.84237411
0.85621448
0.87298835
0.89243908
0.91492547
0.93980943
0.96638905
0.99340641
1.0197732
1.0444921
1.0668291
1.0862855
1.1027262
1.1162427
1.1271662
1.1358217
1.142639
1.1479874
1.1522972
1.1557541
1.1585695
1.16078
1.162536
1.1640426
1.1658119
1.1676244
1.1687027
1.1692716
1.1695661
0.72119021
0.72233662
0.72476452
0.72974659
0.73978192
0.76043173
0.78049497
0.78447642
0.78347263
0.78573761
0.78579936
0.78829855
0.78947287
0.79265343
0.79510997
0.79940464
0.80351851
0.80952023
0.81595528
0.82450617
0.834239
0.84648557
0.86077072
0.87802818
0.89798358
0.92091599
0.94608692
0.97267416
0.99936227
1.0250762
1.0489221
1.0703175
1.0889085
1.1046388
1.117612
1.1281353
1.1365017
1.1431131
1.1483243
1.1525464
1.1559404
1.1587091
1.1608863
1.1626155
1.1641385
1.1660863
1.1678292
1.16881
1.1692938
1.1695456
0.72322885
0.72433729
0.72681541
0.73197099
0.74241719
0.76431902
0.78290034
0.78646667
0.78547773
0.78781492
0.78791511
0.79050339
0.79174605
0.79504046
0.7976053
0.80205291
0.80633325
0.8125479
0.81922921
0.82807543
0.83815909
0.85081237
0.86556813
0.88333547
0.90381836
0.92720653
0.9526551
0.97922628
1.005561
1.0306101
1.053582
1.0740324
1.0917411
1.1067322
1.1191274
1.1292178
1.137267
1.1436508
1.1487081
1.1528297
1.156151
1.1588661
1.1610048
1.1626998
1.1642412
1.1663833
1.1680545
1.1689373
1.1693233
1.169521
0.72536252
0.72645915
0.72898498
0.73432983
0.74521459
0.76836616
0.78531291
0.78855883
0.78758872
0.78999937
0.79014054
0.79281833
0.79413188
0.79754203
0.80022031
0.80482717
0.80928357
0.81572074
0.82266143
0.83181794
0.84227272
0.85535553
0.87060763
0.88891028
0.90994048
0.93378819
0.95949704
0.98602068
1.0119717
1.036339
1.0584335
1.0779377
1.0947543
1.108986
1.1207771
1.1304072
1.1381143
1.144251
1.1491389
1.1531476
1.156387
1.1590419
1.1611364
1.1627907
1.1643532
1.1666806
1.1682958
1.1690925
1.1693642
1.1694879
0.72759763
0.72865445
0.73123395
0.7367938
0.7481665
0.77252095
0.7877369
0.79074487
0.78979814
0.7922831
0.79246793
0.79523552
0.79662359
0.80015321
0.80295262
0.80772654
0.81236935
0.81903907
0.82625252
0.83573572
0.84658373
0.86012043
0.8758959
0.89475961
0.91635463
0.94065952
0.96660234
0.99303682
1.0185631
1.0422221
1.063429
1.081985
1.0979047
1.1113657
1.1225351
1.1316849
1.139031
1.1449049
1.1496109
1.1534963
1.1566455
1.1592342
1.1612793
1.1628889
1.1644822
1.1669623
1.1685359
1.1692726
1.1694363
1.1694389
0.72994243
0.73096126
0.73359265
0.73938521
0.75130795
0.77676226
0.79018835
0.79302857
0.79210344
0.79466026
0.79489087
0.79774962
0.79921781
0.80287287
0.80580226
0.81075103
0.81558975
0.82250199
0.83000379
0.83983239
0.8510973
0.86511313
0.88143928
0.90088897
0.92306239
0.94781471
0.97395635
1.0002522
1.025307
1.0482264
1.0685329
1.0861388
1.101161
1.113846
1.1243828
1.1330379
1.1400082
1.1456069
1.1501201
1.1538732
1.1569249
1.1594421
1.1614326
1.1629974
1.1646438
1.1672228
1.1687556
1.1694503
1.1695707
1.1693603
0.73234817
0.73334119
0.73602349
0.74206737
0.75462478
0.78101449
0.79264928
0.79538895
0.79449001
0.79712121
0.79740413
0.80035881
0.80191493
0.80570219
0.80876992
0.81390023
0.81894432
0.82611053
0.83391763
0.8441118
0.85581834
0.87033926
0.88724382
0.90730338
0.93006421
0.9552461
0.98154212
1.0076419
1.0321724
1.0543172
1.0737084
1.0903629
1.1044903
1.1163999
1.1262993
1.1344508
1.1410352
1.1463496
1.1506619
1.154275
1.157223
1.1596638
1.1615945
1.1631189
1.1648527
1.1674619
1.1689558
1.169615
1.169718
1.1692583
0.73483126
0.73578226
0.73852193
0.74484444
0.75815562
0.78523085
0.79513103
0.79783042
0.79696305
0.79967027
0.80001115
0.8030664
0.80471772
0.8086424
0.8118549
0.81717264
0.82243262
0.82986648
0.83799879
0.8485805
0.86075442
0.87580725
0.89331831
0.91400979
0.93736125
0.9629459
0.98934268
1.0151822
1.0391319
1.0604648
1.078925
1.0946275
1.1078657
1.1190048
1.1282669
1.1359104
1.1421025
1.1471263
1.1512316
1.1546984
1.1575377
1.1598975
1.1617633
1.1632553
1.1651061
1.1676908
1.1691406
1.1697589
1.1698443
1.1691354
0.73743454
0.73832828
0.74112541
0.74773733
0.76192982
0.78944021
0.79764534
0.80035614
0.79952352
0.80230834
0.80271405
0.80587454
0.80762668
0.8116918
0.81505457
0.82056718
0.8260565
0.83377448
0.84225264
0.85324426
0.86591187
0.88152419
0.89967008
0.92101305
0.94495142
0.97090232
0.99733722
1.0228462
1.0461554
1.0666386
1.0841524
1.0989036
1.1112612
1.1216387
1.130268
1.1374033
1.1432002
1.1479302
1.1518246
1.1551403
1.1578666
1.1601413
1.1619368
1.1634063
1.1653973
1.1679171
1.1693052
1.1698716
1.1699229
1.1689982
0.74008368
0.7409166
0.74378257
0.75069803
0.76591429
0.7935983
0.80016061
0.80295816
0.80217262
0.80504027
0.80551582
0.80878263
0.81063835
0.81484621
0.81836688
0.82408508
0.82982027
0.83784006
0.84668605
0.85811095
0.87129963
0.88750015
0.90630919
0.92831975
0.95283312
0.97910343
1.0055051
1.0306083
1.0532158
1.0728118
1.0893649
1.1031671
1.1146548
1.1242827
1.1322874
1.1389176
1.1443195
1.1487546
1.1524361
1.1555974
1.1582076
1.1603932
1.1621126
1.1635702
1.1657237
1.1681392
1.1694397
1.1699423
1.1699632
1.1688539
0.74281429
0.74359841
0.74654121
0.75376876
0.77016178
0.79773561
0.80272314
0.80565931
0.80492045
0.80786697
0.80841149
0.81178325
0.81374635
0.81810317
0.8217935
0.82773157
0.83373016
0.84206987
0.85130536
0.86318749
0.87692568
0.89374426
0.91324415
0.93593366
0.96100072
0.98753282
1.0138217
1.0384398
1.0602843
1.0789571
1.094537
1.1073946
1.1180257
1.1269193
1.1343104
1.1404418
1.1454516
1.1495933
1.1530615
1.1560667
1.1585585
1.1606512
1.162289
1.163746
1.1660789
1.1683543
1.1695464
1.1699837
1.1699778
1.1687064
0.74564492
0.74638727
0.74940961
0.75694682
0.77465862
0.80182633
0.80549263
0.80843913
0.80774653
0.81077167
0.81138926
0.8148699
0.81694966
0.82146601
0.82534085
0.83151336
0.83779301
0.84647031
0.85611803
0.86848322
0.88280114
0.90026868
0.92048568
0.94385917
0.96944799
0.99617335
1.0222625
1.0463135
1.0673345
1.0850506
1.0996473
1.1115665
1.1213566
1.1295334
1.1363247
1.1419657
1.1465889
1.1504403
1.1536963
1.1565449
1.1589169
1.1609133
1.1624659
1.1639377
1.1664519
1.168562
1.1696347
1.1700011
1.1699818
1.1685522
0.74851596
0.74923567
0.75235178
0.76020732
0.77936271
0.80582232
0.80827361
0.81128399
0.81064289
0.81375064
0.81444916
0.81804649
0.82025458
0.82494287
0.82901648
0.83543752
0.84201442
0.85104706
0.86113119
0.87400707
0.88893649
0.90708452
0.92804243
0.9520971
0.97816393
1.0050032
1.0307994
1.0542002
1.0743392
1.0910681
1.1046745
1.1156644
1.1246314
1.1321115
1.1383187
1.1434799
1.1477239
1.1512902
1.1543362
1.1570291
1.1592805
1.1611773
1.162646
1.1641584
1.1668279
1.1687577
1.1697099
1.1700077
1.1699808
1.1683866
0.75147172
0.75218274
0.75541441
0.76359144
0.78427961
0.80973851
0.81113924
0.81420255
0.81361445
0.81680863
0.81759833
0.82132207
0.82367076
0.82854162
0.83282682
0.83950847
0.84639932
0.85580702
0.86635438
0.87977093
0.89534497
0.91420527
0.93592421
0.96064773
0.98713614
1.0139995
1.0394043
1.0620721
1.0812736
1.0969885
1.1096009
1.1196729
1.127837
1.1346422
1.1402827
1.1449763
1.1488501
1.152138
1.1549775
1.157516
1.1596466
1.1614407
1.1628335
1.1644299
1.1671885
1.1689314
1.1697693
1.17001
1.169964
1.1682119
0.75444677
0.75517249
0.75854893
0.76706772
0.7893373
0.8135169
0.81404556
0.81719148
0.81666877
0.81995728
0.82084832
0.82470684
0.82720506
0.83226716
0.83677505
0.84373025
0.85095299
0.86075777
0.8717976
0.88578626
0.90203908
0.92164311
0.94413804
0.96950689
0.99634723
1.0231351
1.0480465
1.0698997
1.0881122
1.1027909
1.1144092
1.1235776
1.1309613
1.1371153
1.1422078
1.1464473
1.1499616
1.1529791
1.1556167
1.1580029
1.1600126
1.1617007
1.1630329
1.1647716
1.1675135
1.1690815
1.1697939
1.1699793
1.1698886
1.1680305
0.75748406
0.75823835
0.76179976
0.77070274
0.79454608
0.81720826
0.81703832
0.82027021
0.819821
0.82320905
0.82420734
0.82820498
0.83085998
0.83612122
0.84086407
0.84810668
0.85568222
0.86590949
0.87747341
0.89206701
0.90903377
0.92941193
0.95269077
0.97866848
1.0057775
1.0323819
1.0566959
1.0776555
1.0948321
1.108457
1.1190852
1.1273673
1.133995
1.1395228
1.1440868
1.1478866
1.1510532
1.1538095
1.1562507
1.1584874
1.1603757
1.1619541
1.1632454
1.1651771
1.1677929
1.1692128
1.1698031
1.1699302
1.1697392
1.1678527
0.76060726
0.7614072
0.76519019
0.77454101
0.79987429
0.82082494
0.82012168
0.82344977
0.8230747
0.82656439
0.82767386
0.83181525
0.83463536
0.84010565
0.84509721
0.85264405
0.86059596
0.87127347
0.8833945
0.89862677
0.91634356
0.93752416
0.96158561
0.9881213
1.0154024
1.0417079
1.0653202
1.0853111
1.1014102
1.1139692
1.1236154
1.1310316
1.1369297
1.1418574
1.1459133
1.1492886
1.1521201
1.1546254
1.1568769
1.1589671
1.1607333
1.1621985
1.1634691
1.1656002
1.1680412
1.169322
1.1698049
1.1698909
1.1695049
1.1676804
0.76379421
0.76465386
0.76870999
0.77861937
0.80527718
0.82439611
0.82331139
0.82673725
0.82642733
0.83001921
0.83124386
0.83553721
0.83853317
0.84422407
0.84948004
0.85735023
0.86570526
0.87686295
0.88957521
0.90548127
0.923985
0.94599257
0.97082384
0.99785101
1.025195
1.0510808
1.0738878
1.0928398
1.1078262
1.1193126
1.1279893
1.1345628
1.1397595
1.1441135
1.147682
1.1506489
1.1531585
1.1554236
1.1574927
1.1594403
1.161083
1.1624342
1.163707
1.1660304
1.1682483
1.169385
1.1698047
1.1698502
1.1691872
1.167515
0.76708227
0.76800323
0.77236994
0.7829792
0.81071292
0.82798019
0.82659347
0.8301131
0.82987001
0.8335704
0.83492075
0.83937483
0.84255763
0.84848146
0.85402011
0.86223597
0.87102286
0.88269149
0.89602982
0.91264628
0.93197422
0.95482745
0.98040206
1.0078377
1.0351235
1.0604646
1.0823653
1.1002141
1.1140599
1.1244736
1.1321973
1.137954
1.1424788
1.1462864
1.1493888
1.1519638
1.154165
1.1562013
1.1580957
1.1599048
1.1614228
1.1626645
1.1639706
1.166459
1.168427
1.1694129
1.1697788
1.1698061
1.1688332
1.1673622
0.77035858
0.7713479
0.77607082
0.78757495
0.81605754
0.83156834
0.82992818
0.8335542
0.83339184
0.83723198
0.83871209
0.84333408
0.84671265
0.85288448
0.85872716
0.86731346
0.87656237
0.88877355
0.90277414
0.92013975
0.9403284
0.96403771
0.99031319
1.0180578
1.0451538
1.0698228
1.09072
1.1074085
1.120094
1.1294421
1.1362331
1.1412002
1.1450838
1.1483731
1.1510308
1.1532306
1.155137
1.156956
1.1586836
1.1603581
1.1617506
1.1628961
1.1642798
1.1668752
1.1685912
1.169422
1.1697228
1.1697296
1.1685098
1.1672265
0.77375459
0.77479942
0.77990649
0.79252852
0.82136144
0.83505619
0.8333603
0.83710109
0.83702127
0.84098885
0.84261397
0.84741592
0.85100538
0.8574429
0.86361394
0.87259643
0.88233775
0.89512366
0.90982482
0.92798036
0.94906379
0.97362839
1.0005442
1.0284815
1.0552469
1.0791159
1.0989178
1.1143976
1.1259129
1.1342098
1.1400918
1.1442966
1.1475707
1.1503722
1.1526061
1.1544461
1.1560729
1.1576859
1.1592544
1.1607973
1.1620644
1.1631372
1.1646602
1.1672533
1.1687483
1.1694227
1.1696416
1.1696179
1.1682187
1.1671094
0.77721815
0.77831166
0.78381485
0.79780968
0.82655161
0.83857711
0.83687843
0.84074401
0.84075368
0.84486429
0.84663024
0.85162714
0.85544568
0.86217007
0.8686934
0.8780977
0.88836268
0.9017577
0.91720081
0.9361889
0.95819644
0.98360115
1.0110771
1.0390749
1.0653617
1.0883047
1.1069267
1.1211601
1.1315059
1.1387716
1.1437705
1.1472407
1.149938
1.152284
1.1541141
1.1556075
1.1569711
1.1583898
1.1598068
1.1612197
1.1623621
1.1633923
1.1651212
1.167559
1.1688858
1.1694201
1.1695453
1.1694565
1.1679687
1.1670103
0.78073832
0.78187569
0.78779382
0.80344002
0.83162349
0.84212416
0.84050029
0.84449582
0.8446029
0.84886701
0.85076895
0.85597798
0.86004653
0.8670791
0.87397804
0.88383005
0.8946515
0.90869289
0.92492267
0.94478647
0.96773988
0.99395196
1.021887
1.0497981
1.0754533
1.0973478
1.1147158
1.1276798
1.1368659
1.1431221
1.1472656
1.1500315
1.1521863
1.1541098
1.1555542
1.1567116
1.1578299
1.1590668
1.16034
1.1616235
1.162643
1.1636613
1.1655962
1.16781
1.1689595
1.1693907
1.1694717
1.1692139
1.167755
1.1669268
0.78436876
0.78553406
0.79186896
0.80942226
0.83657249
0.84590209
0.84421595
0.84834835
0.84855879
0.85298629
0.8550582
0.86048854
0.8648221
0.87218064
0.87947893
0.8898062
0.90122056
0.91594942
0.93301372
0.95379514
0.97770495
1.0046713
1.0329433
1.0606074
1.0854759
1.1062067
1.1222618
1.1339502
1.1419916
1.1472555
1.1505718
1.1526714
1.1543216
1.1558501
1.1569241
1.1577575
1.1586468
1.1597167
1.1608536
1.162008
1.1629084
1.1639447
1.1660631
1.1680101
1.1689936
1.1693497
1.1693994
1.1689056
1.1675726
1.166855
0.7880528
0.78924869
0.79601147
0.81570362
0.84136854
0.84969154
0.84803564
0.85231521
0.85264216
0.85724037
0.85948744
0.86517057
0.86978066
0.87748447
0.88520699
0.89604095
0.90808851
0.92354976
0.94149849
0.96323545
0.98809737
1.0157422
1.0442082
1.0714538
1.0953813
1.1148452
1.1295509
1.1399725
1.1468805
1.1511629
1.1536807
1.1551646
1.1563532
1.1575019
1.1582179
1.1587484
1.1594189
1.1603395
1.1613465
1.1623728
1.1631638
1.1642532
1.1665039
1.1681788
1.1690052
1.1692974
1.1693254
1.1685864
1.1674158
1.1667921
0.79185705
0.79308676
0.80030892
0.82231917
0.8461017
0.85362575
0.85199283
0.8564198
0.85686367
0.86162848
0.86406563
0.87002203
0.87492907
0.88300101
0.89117637
0.9025517
0.91527759
0.93151972
0.95040332
0.97312638
0.99891738
1.0271405
1.0556378
1.0822855
1.1051234
1.1232368
1.136582
1.1457482
1.1515201
1.1548369
1.1565899
1.1575161
1.1582887
1.1590592
1.1594293
1.1596929
1.1601458
1.1609348
1.161817
1.1627169
1.1634181
1.1646119
1.1669052
1.1683307
1.1690064
1.1692327
1.1692413
1.1682988
1.1672759
1.1667359
0.79576146
0.79703544
0.8047702
0.82919495
0.8507888
0.85765445
0.85606748
0.86064893
0.86121709
0.86616581
0.86881451
0.87504543
0.88027486
0.88874279
0.89740384
0.9093596
0.92281291
0.9398868
0.95975426
0.98348311
1.0101577
1.0388334
1.0671812
1.0930476
1.1146591
1.1313666
1.1433582
1.1512541
1.1558872
1.1582716
1.1593129
1.1597283
1.1601175
1.1605159
1.1605615
1.1605971
1.1608339
1.161501
1.1622626
1.163038
1.16368
1.1650441
1.1672458
1.1684692
1.1690026
1.1691522
1.1691278
1.1680434
1.167153
1.1666857
0.79977163
0.80109421
0.80941272
0.83626096
0.85534199
0.86179404
0.86026266
0.8650062
0.86571018
0.87086241
0.87374154
0.88027019
0.88583274
0.89472351
0.90390916
0.91648946
0.93072281
0.94868062
0.96957693
0.99431622
1.0218031
1.0507798
1.0787824
1.1036859
1.1239552
1.1392334
1.149866
1.1564557
1.1599668
1.1614687
1.1618704
1.1618025
1.1618216
1.1618913
1.1616184
1.1614489
1.1614975
1.1620357
1.162681
1.1633344
1.163955
1.1655219
1.1675235
1.1685801
1.1689846
1.1690669
1.1689564
1.1678168
1.1670437
1.1666404
0.80388085
0.80525337
0.81426304
0.84344417
0.85984358
0.86604223
0.86458337
0.86950246
0.87036047
0.87573178
0.87886314
0.88570619
0.89161621
0.90096312
0.91071559
0.92396886
0.9390377
0.95793134
0.97989444
1.0056295
1.0338292
1.0629298
1.0903801
1.1141486
1.1329901
1.1468378
1.1560566
1.1613267
1.1637454
1.1644468
1.1642829
1.1637426
1.1634148
1.1631916
1.1626104
1.1622232
1.1621476
1.1625367
1.1630711
1.1636081
1.1642463
1.1659993
1.1677413
1.1686229
1.1689508
1.1689999
1.1687061
1.1676167
1.166946
1.1665998
0.80809165
0.80950635
0.81936181
0.85066953
0.86429923
0.87042279
0.86905295
0.87416055
0.87518835
0.88078536
0.88418068
0.89134876
0.89765475
0.90748703
0.91785046
0.93182793
0.94778976
0.96766923
0.99072652
1.017419
1.0462012
1.075226
1.1019117
1.1243925
1.1417571
1.1541516
1.1618898
1.1658373
1.1672393
1.1672693
1.166533
1.1655604
1.1649035
1.1644058
1.1635295
1.1629438
1.1627752
1.1630059
1.1634334
1.1638689
1.1645617
1.1664473
1.167916
1.1686411
1.1689042
1.1689345
1.1684178
1.1674453
1.1668601
1.1665644
0.81246529
0.8138996
0.82479418
0.85783302
0.86881445
0.87496619
0.87369159
0.87899455
0.88019875
0.88603371
0.88970704
0.89722231
0.90395586
0.9143169
0.92534567
0.94009897
0.95701176
0.97792322
1.0020876
1.029671
1.0588739
1.0876032
1.1133156
1.1343845
1.1502545
1.161113
1.167328
1.1699848
1.1705305
1.1699007
1.1686258
1.1672525
1.1663011
1.1655389
1.1643785
1.1636142
1.1633709
1.1634515
1.16377
1.1641338
1.1649193
1.1668442
1.1680618
1.1686444
1.1688465
1.1688556
1.1681368
1.1672935
1.1667864
1.1665346
0.8170394
0.81845447
0.83060424
0.86496849
0.8735243
0.87967366
0.87849709
0.88400338
0.88539062
0.89148265
0.89545335
0.90334116
0.91054833
0.92148456
0.93323552
0.94881581
0.96673689
0.98872065
1.013985
1.0423613
1.0717917
1.0999922
1.1245369
1.1441058
1.1584539
1.1676644
1.1723427
1.1738331
1.1736245
1.172344
1.1705663
1.1688281
1.1676097
1.1665921
1.165166
1.1642412
1.163916
1.1638853
1.1640835
1.1644188
1.1653376
1.1671722
1.1681858
1.1686423
1.1687756
1.1687536
1.1678852
1.1671618
1.1667247
1.1665101
0.82180014
0.82315437
0.83679034
0.8720776
0.87829337
0.884539
0.88346833
0.88918928
0.89077449
0.89714201
0.90143902
0.90973369
0.91746223
0.92902685
0.94155508
0.95801227
0.97699805
1.0000859
1.0264175
1.0554534
1.0848895
1.1123221
1.1355298
1.1535487
1.1662801
1.1737628
1.1769322
1.1774711
1.1764924
1.1746038
1.1723618
1.1702922
1.1688342
1.1675699
1.1659009
1.164831
1.1644026
1.1643047
1.1643784
1.1647195
1.1657996
1.1674339
1.1682836
1.1686329
1.168702
1.1685993
1.1676724
1.1670503
1.1666728
1.1664896
0.82674634
0.82799719
0.84335206
0.87909796
0.88320389
0.88957395
0.88861722
0.89456259
0.89636558
0.90303186
0.9076936
0.9164363
0.92474271
0.93697187
0.95033961
0.96772317
0.98782754
1.0120385
1.0393729
1.0688974
1.0980938
1.1245258
1.1462619
1.1626973
1.1736495
1.1793763
1.1811913
1.1808719
1.1791446
1.1766885
1.1740199
1.1716521
1.1699786
1.1684767
1.1665866
1.1653754
1.1648473
1.1646948
1.1646615
1.1650272
1.1662554
1.1676536
1.1683511
1.1686177
1.1686565
1.1683739
1.1674987
1.1669591
1.1666299
1.166473
0.83191654
0.83300585
0.85029054
0.88604747
0.88825473
0.89478707
0.89395262
0.90013868
0.90218514
0.90918601
0.91425528
0.92348454
0.93241785
0.94536
0.95962553
0.97798468
0.99925641
1.0245905
1.0528265
1.082631
1.1113251
1.1365428
1.1567117
1.1714652
1.1805142
1.1844992
1.1852127
1.184012
1.1815866
1.1786066
1.1755484
1.172914
1.1710474
1.1693171
1.167225
1.1658787
1.1652547
1.1650422
1.1649419
1.1653331
1.1666853
1.1678373
1.1683955
1.1686002
1.1686177
1.1681222
1.1673559
1.1668822
1.1665943
1.1664594
0.837356
0.83822223
0.85759315
0.89287846
0.89345842
0.90018843
0.89949381
0.90594911
0.90827247
0.91564713
0.92116288
0.93091158
0.94052073
0.95422387
0.96944836
0.98883545
1.011314
1.037744
1.0667383
1.0965798
1.1245037
1.1483224
1.1668624
1.1797574
1.1868346
1.1892362
1.1889634
1.186903
1.1838296
1.1803675
1.1769554
1.1740845
1.1720449
1.1700951
1.1678168
1.1663413
1.1656294
1.1653568
1.1652172
1.165644
1.1670681
1.1679943
1.1684252
1.1685732
1.1685688
1.1678891
1.1672296
1.1668165
1.1665651
1.1664483
0.84301795
0.84365808
0.86522839
0.89958961
0.89883022
0.90580758
0.90528568
0.91204239
0.91467963
0.92245047
0.92844584
0.9387468
0.94908634
0.96359387
0.97984569
1.0003164
1.0240259
1.0514888
1.0810527
1.1106596
1.1375537
1.1598243
1.1766477
1.1874971
1.192596
1.1936882
1.1924202
1.1895534
1.1858836
1.1819804
1.1782488
1.1751697
1.1729754
1.1708141
1.1683615
1.1667618
1.1659692
1.165653
1.1654934
1.1660113
1.1673801
1.1681261
1.1684499
1.1685359
1.1684974
1.1676915
1.1671226
1.1667629
1.1665407
1.1664395
0.84896369
0.84939864
0.8731792
0.90622676
0.90444009
0.91170876
0.91138673
0.91846424
0.92143379
0.92961815
0.93612754
0.94702146
0.95815274
0.97350602
0.9908598
1.0124691
1.037409
1.0657987
1.0956987
1.1247808
1.1504086
1.1710214
1.1859578
1.1946393
1.1978913
1.197841
1.1955895
1.1919766
1.18776
1.1834549
1.1794366
1.176176
1.1738436
1.1714764
1.1688569
1.1671404
1.1662803
1.1659395
1.1657751
1.1664258
1.1676166
1.1682257
1.168467
1.1685195
1.1683545
1.1675368
1.1670373
1.1667179
1.166524
1.1664384
0.85521825
0.85553232
0.88143711
0.91288469
0.91036152
0.917942
0.91782662
0.92522011
0.92854145
0.93716217
0.94423792
0.95577238
0.9677535
0.98401415
1.0025381
1.0253314
1.0514676
1.0806289
1.1105912
1.1388535
1.1630106
1.1818768
1.1946764
1.2011527
1.2028323
1.2016677
1.1984838
1.1941849
1.1894699
1.1848003
1.1805266
1.1771092
1.1746541
1.1720842
1.1693006
1.1674798
1.1665684
1.1662209
1.1660631
1.1668185
1.1678156
1.1683032
1.1684812
1.1685092
1.1681433
1.1674132
1.1669662
1.1666848
1.1665131
1.1664338
0.86188026
0.86220632
0.89001832
0.91972724
0.9166074
0.92449533
0.9245748
0.93231277
0.93600046
0.94511411
0.95282275
0.96504784
0.97793946
0.99517073
1.0149304
1.0389344
1.066189
1.0959142
1.1256337
1.1527935
1.175313
1.1922689
1.2027507
1.2070979
1.2074488
1.2051627
1.2011179
1.1961923
1.1910247
1.1860259
1.1815264
1.1779755
1.1754121
1.1726395
1.1696905
1.1677845
1.1668396
1.1664975
1.1663552
1.1671864
1.1679856
1.1683641
1.1684916
1.1684974
1.1679433
1.1673013
1.1669096
1.1666598
1.1665028
1.1664321
0.86871575
0.86929486
0.89870076
0.92690085
0.9230762
0.93131008
0.93163252
0.93974896
0.94388281
0.95352036
0.96192622
0.9748928
0.98876763
1.0070389
1.0280846
1.0532972
1.081541
1.1115707
1.1407226
1.1665231
1.1872754
1.2020685
1.2101311
1.2125961
1.2117064
1.2083438
1.2035071
1.1980122
1.1924353
1.1871408
1.1824433
1.1787808
1.1761223
1.1731429
1.1700267
1.1680599
1.1670989
1.16677
1.1666477
1.1675117
1.1681333
1.1684165
1.1684968
1.1684659
1.1677647
1.1672094
1.1668645
1.1666384
1.1664966
1.1664349
0.87579762
0.87692952
0.90750258
0.93410249
0.92984159
0.93846609
0.93906222
0.94761133
0.95224051
0.96243555
0.97159131
0.9853489
1.0003137
1.0196767
1.0420425
1.0684229
1.097469
1.1274978
1.1557548
1.1799712
1.1988095
1.2111741
1.2168298
1.2177412
1.2155816
1.211227
1.2056679
1.1996583
1.1937127
1.1881539
1.1832849
1.179531
1.1767879
1.1735904
1.1703151
1.1683118
1.1673512
1.1670413
1.1669426
1.1677855
1.1682542
1.1684599
1.1685125
1.1683789
1.1676216
1.1671357
1.1668286
1.1666258
1.1664978
1.16644
0.88311873
0.88516954
0.91642739
0.94120975
0.93698278
0.94602553
0.94693896
0.95594268
0.96111937
0.9719003
0.98187089
0.99649876
1.0126172
1.033141
1.0568376
1.0842944
1.1138953
1.1435831
1.1706342
1.193079
1.2097643
1.2195304
1.2229732
1.2224888
1.2190988
1.2138307
1.2076165
1.2011438
1.1948674
1.1890737
1.1840582
1.1802313
1.1774086
1.1739703
1.1705695
1.1685471
1.1676009
1.1673153
1.1672468
1.1680041
1.1683515
1.1684905
1.168519
1.1682425
1.1675203
1.1670802
1.1668011
1.1666175
1.1665024
1.1664462
0.89076629
0.89411189
0.92557058
0.94882466
0.94457633
0.95405186
0.95530866
0.96477672
0.97055583
0.98196198
0.99282355
1.0084014
1.0257491
1.0474869
1.0724887
1.1008681
1.1307184
1.1597072
1.1852711
1.2057863
1.2199848
1.2270998
1.2287042
1.2268083
1.2222745
1.2161741
1.2093695
1.2024818
1.1959099
1.1899086
1.1847703
1.1808862
1.1779816
1.1742767
1.1708041
1.1687741
1.167852
1.1675887
1.1675517
1.1681733
1.1684307
1.1685161
1.1685192
1.1680698
1.1674318
1.1670343
1.1667835
1.1666168
1.1665083
1.1664515
0.89877701
0.90380905
0.93496273
0.95686468
0.95262471
0.96255969
0.96420287
0.97415666
0.9805998
0.99268502
1.0045294
1.0211231
1.0397762
1.0627637
1.0889922
1.1180714
1.1478169
1.1757513
1.1995794
1.2179316
1.2293996
1.2339973
1.2339975
1.2307152
1.2251309
1.2182764
1.2109426
1.2036849
1.1968497
1.1906667
1.1854278
1.181499
1.1785036
1.1745238
1.1710208
1.1689994
1.1681036
1.1678524
1.1678275
1.1683146
1.1685036
1.1685467
1.1685151
1.1679186
1.1673489
1.1669955
1.1667704
1.1666195
1.1665141
1.1664593
0.90710574
0.91435279
0.94456813
0.96537256
0.9611514
0.97158416
0.97365818
0.98412804
0.99131689
1.0041545
1.0170846
1.0347381
1.0547687
1.0790062
1.106316
1.1358021
1.1650551
1.1916013
1.2134836
1.2293452
1.2379496
1.2403677
1.2388242
1.2342316
1.2276904
1.2201576
1.2123518
1.2047654
1.1976965
1.191356
1.1860371
1.1820722
1.1789726
1.1747228
1.1712272
1.169226
1.1683515
1.1681001
1.1680715
1.1684275
1.1685669
1.1686007
1.1684767
1.1677747
1.1672777
1.1669673
1.1667648
1.166624
1.1665243
1.1664687
0.91569299
0.92579549
0.95443301
0.97430612
0.97020077
0.98114287
0.98372765
0.99476201
1.0027969
1.016465
1.0305621
1.0493634
1.0707929
1.0962219
1.1243934
1.1539318
1.1822921
1.2071454
1.2268603
1.239891
1.2456876
1.2462691
1.2431734
1.2373826
1.2299758
1.2218364
1.213612
1.2057346
1.1984595
1.1919839
1.1866035
1.1826072
1.1793889
1.1748876
1.1714275
1.1694532
1.1685921
1.1683271
1.1682904
1.1685266
1.1686117
1.1686197
1.1683889
1.1676595
1.1672216
1.1669489
1.1667641
1.1666313
1.1665362
1.1664811
0.92454482
0.93814995
0.96461097
0.98374277
0.97983791
0.99131282
0.99450288
1.0061616
1.015151
1.0297319
1.0450858
1.0650788
1.0878871
1.1143834
1.1431223
1.1723113
1.1993906
1.222281
1.2395083
1.2495008
1.2527689
1.2516558
1.2470782
1.2401942
1.2320105
1.2233319
1.2147378
1.2066038
1.1991473
1.1925576
1.1871322
1.1831052
1.179755
1.1750315
1.1716243
1.1696765
1.1688177
1.1685323
1.1684843
1.1686211
1.1686568
1.1686244
1.1682488
1.1675823
1.1671805
1.1669364
1.1667667
1.1666415
1.1665506
1.166497
0.93352321
0.9513642
0.97514498
0.99377035
0.99015448
1.0022045
1.0061114
1.0184543
1.0284967
1.0440564
1.0607684
1.0819524
1.1060591
1.1334263
1.1623682
1.1907785
1.216217
1.236905
1.2512328
1.258157
1.2593359
1.2564942
1.2505639
1.2426936
1.233817
1.2246618
1.2157429
1.2073833
1.1997683
1.1930839
1.1876271
1.1835674
1.1800751
1.1751658
1.171818
1.1698927
1.1690259
1.1687136
1.1686473
1.1687077
1.1687326
1.1686212
1.1681068
1.1675119
1.1671502
1.1669277
1.1667697
1.1666533
1.1665671
1.1665151
0.94271499
0.96537773
0.9861637
1.0045725
1.0013227
1.01396
1.0186956
1.0317771
1.0429621
1.059573
1.0776504
1.1000113
1.125284
1.153248
1.1819679
1.2091668
1.2326341
1.2507934
1.2619465
1.2660254
1.2653254
1.2608267
1.2536626
1.2449085
1.2354178
1.2258437
1.2166406
1.2080834
1.2003305
1.1935691
1.188092
1.183995
1.1803544
1.1752978
1.172008
1.1701016
1.169221
1.1688782
1.1687901
1.1687793
1.1687825
1.1685974
1.1679646
1.1674499
1.1671263
1.1669256
1.1667782
1.166668
1.1665859
1.1665354
0.95268035
0.98068788
0.99769118
1.0161861
1.0134668
1.0267257
1.0324014
1.0462564
1.0586452
1.0763374
1.0957796
1.1192669
1.1455032
1.1737065
1.2017358
1.2273088
1.2485095
1.2637224
1.2715818
1.2732947
1.2707005
1.2646806
1.2564056
1.2468657
1.2368341
1.2268937
1.2174431
1.2087133
1.2008415
1.194019
1.1885299
1.1843898
1.1805987
1.1754319
1.1721941
1.1703066
1.1694132
1.1690386
1.1689008
1.1688438
1.1687998
1.168537
1.1678479
1.1673973
1.1671081
1.1669262
1.1667883
1.1666842
1.1666064
1.1665576
0.96319677
0.99743623
1.0101351
1.0288258
1.0267497
1.0406491
1.0473564
1.0619949
1.0756352
1.0943778
1.1151876
1.1397092
1.1666166
1.194621
1.2214727
1.2450334
1.2636383
1.2755455
1.2802993
1.2799184
1.2754952
1.2680944
1.2588264
1.2485923
1.2380867
1.2278278
1.2181622
1.2092822
1.2013085
1.1944389
1.1889438
1.1847539
1.1808135
1.175572
1.1723787
1.1705088
1.1695975
1.1691867
1.1690007
1.1688968
1.1688041
1.1684416
1.1677611
1.1673559
1.1670943
1.1669282
1.1667998
1.1667021
1.1666283
1.1665816
0.9742187
1.0156269
1.0236384
1.0426807
1.0413183
1.0558137
1.0636167
1.0790443
1.0939756
1.1137867
1.1359149
1.1612913
1.1884722
1.2157752
1.2409744
1.2621718
1.2777571
1.2861858
1.2882929
1.285858
1.2797458
1.2711047
1.2609568
1.2501134
1.2391949
1.2286603
1.2188088
1.2097984
1.2017382
1.1948336
1.1893359
1.1850899
1.1810043
1.1757229
1.1725637
1.1707069
1.1697697
1.1693181
1.1690879
1.1689541
1.1688031
1.1683187
1.167698
1.1673259
1.1670862
1.1669334
1.1668139
1.1667217