/*--------------------------------*- C++ -*----------------------------------*\
  =========                 |
  \\      /  F ield         | OpenFOAM: The Open Source CFD Toolbox
   \\    /   O peration     | Website:  https://openfoam.org
    \\  /    A nd           | Version:  8
     \\/     M anipulation  |
\*---------------------------------------------------------------------------*/
FoamFile
{
    version     2.0;
    format      ascii;
    class       surfaceVectorField;
    location    "0.269994";
    object      rhoUf;
}
// * * * * * * * * * * * * * * * * * * * * * * * * * * * * * * * * * * * * * //

dimensions      [1 -2 -1 0 0 0 0];

internalField   nonuniform List<vector> 
39600
(
(196.966 4.3610275e-17 7.2993183)
(183.5946 -3.5057923e-18 6.1968472)
(183.11723 1.6470862e-17 6.9058059)
(222.60018 -2.3606389e-17 8.2203594)
(213.99844 2.993333e-18 7.5254218)
(213.37422 -6.9882505e-17 8.3354615)
(241.41743 1.6850424e-17 8.8553134)
(233.8744 5.321405e-17 8.1270948)
(233.06227 1.5148341e-16 9.0165963)
(259.08083 -5.0039608e-17 9.4075291)
(251.57869 -4.4973863e-17 8.6567498)
(250.5588 -8.8941545e-17 9.6127709)
(277.4247 -2.5313581e-19 9.926443)
(269.38592 -4.1188495e-17 9.1482352)
(268.10092 3.5601176e-17 10.169454)
(295.82995 -9.4205888e-20 10.355201)
(288.68008 3.5810699e-17 9.6474154)
(286.97977 -3.1368921e-17 10.739774)
(307.58023 6.067625e-19 10.607255)
(305.85973 -3.0426482e-17 9.7929143)
(304.87512 2.5030863e-19 10.990843)
(309.56311 7.323418e-19 10.619806)
(310.35688 2.6055323e-17 10.251205)
(310.06309 4.1360249e-19 11.460392)
(309.35812 3.6096976e-19 10.553605)
(308.95846 1.1596566e-17 9.6372917)
(308.69886 3.4563717e-19 10.893988)
(309.63612 4.1881846e-19 10.48753)
(310.1561 -1.0226218e-17 10.257442)
(309.86733 -1.6179988e-17 11.478448)
(309.58304 5.0242907e-19 10.398332)
(309.33093 -1.9119357e-20 9.401611)
(309.06304 1.4036435e-17 10.676343)
(309.88527 -5.2570304e-18 10.299187)
(310.20137 -7.9410542e-18 10.117335)
(309.91069 0 11.358517)
(310.0125 -2.4259405e-18 10.171793)
(309.82652 2.364976e-19 9.1850774)
(309.54481 3.6209955e-18 10.48109)
(310.39354 7.9339053e-18 10.021253)
(310.56295 -2.132508e-19 9.8127625)
(310.26135 -3.643436e-18 11.08908)
(310.69446 2.5763908e-18 9.8298883)
(310.52595 9.1048544e-18 8.9223756)
(310.22363 3.8003074e-18 10.249139)
(311.19659 -1.6233885e-18 9.5974808)
(311.24343 8.6709471e-19 9.3254178)
(310.92282 -1.6103056e-18 10.653122)
(311.69158 1.1966719e-18 9.3031409)
(311.49914 -3.2488177e-18 8.512032)
(311.17024 -4.898003e-18 9.8875449)
(312.36819 3.4506958e-18 8.9411806)
(312.29417 -8.6982585e-19 8.6091821)
(311.94764 5.7173518e-18 10.008558)
(313.09891 7.5108109e-19 8.4850977)
(312.84394 2.1907478e-18 7.8231552)
(312.48365 2.2190523e-18 9.2740641)
(314.01133 -1.4514629e-18 7.9237302)
(313.80393 -1.8232079e-18 7.5644252)
(313.42701 -1.8270988e-18 9.0627473)
(315.02165 -2.6896236e-18 7.2263176)
(314.67359 6.1551109e-19 6.6933359)
(314.28218 -6.9058772e-19 8.2548304)
(316.2052 -1.6992446e-18 6.3823741)
(315.85902 -8.0768808e-18 6.0353306)
(315.45713 -4.1650278e-18 7.6674278)
(317.4877 -2.5684945e-18 5.3709873)
(317.04481 6.2250905e-18 4.9480637)
(316.63813 3.4792769e-18 6.6601303)
(318.87389 -1.465899e-17 4.2070131)
(318.43265 -6.0606134e-18 3.873664)
(318.0345 -5.6262806e-18 5.6752423)
(320.25027 -9.7937014e-18 2.9219359)
(319.79435 -1.4294944e-17 2.5236919)
(319.42051 -1.1216683e-17 4.4167908)
(321.51392 1.1560741e-17 1.6128627)
(321.14097 -1.7890119e-17 1.1732107)
(320.81661 -4.6992268e-20 3.1558146)
(322.46645 1.977194e-17 0.42556817)
(322.23612 -2.3212003e-18 -0.17811932)
(321.98689 1.2302216e-17 1.8729321)
(322.91203 2.8377437e-17 -0.45338415)
(322.92828 6.2408083e-18 -1.2465478)
(322.77467 6.3752509e-18 0.83496103)
(322.67525 1.8688508e-17 -0.89869285)
(322.99366 2.2387152e-18 -1.894003)
(322.93298 2.3163558e-17 0.15569407)
(321.71141 3.7566268e-18 -0.91813471)
(322.33805 -1.7586794e-17 -2.0151364)
(322.34238 -1.1946318e-17 -0.078464489)
(320.1271 5.9163699e-18 -0.63963119)
(320.98818 2.185719e-17 -1.7180576)
(321.0199 1.0698467e-17 0.017212525)
(318.15404 -4.2287141e-18 -0.21058149)
(319.13351 -1.1539361e-17 -1.1715314)
(319.16672 -1.0237241e-17 0.29892312)
(316.05366 -1.132631e-17 0.26294907)
(317.03834 9.5931012e-18 -0.54342322)
(317.0633 1.1220134e-17 0.64535866)
(314.03031 -1.8180099e-17 0.71042678)
(314.94681 -4.0097459e-17 0.063242481)
(314.96168 -1.4526817e-17 0.99371472)
(312.20966 1.2416226e-17 1.0874964)
(313.0159 2.2154297e-17 0.59455741)
(313.0218 9.9045743e-18 1.3069819)
(310.63712 1.2751273e-18 1.3590936)
(311.32917 1.1434094e-18 1.0035475)
(311.32637 5.8456103e-19 1.541412)
(309.31574 -3.7828084e-17 1.5257755)
(309.88517 0 1.2815671)
(309.87625 -1.0154445e-19 1.6838412)
(308.23837 -3.3107291e-17 1.5957657)
(308.69746 -1.0248706e-17 1.4431304)
(308.68431 -1.7764557e-17 1.7416664)
(307.38366 -4.5736667e-17 1.5848692)
(307.74427 2.4020024e-17 1.5049946)
(307.72928 8.4818046e-18 1.7256374)
(306.71236 -8.7572668e-17 1.4998206)
(307.00181 -2.3410269e-17 1.4756383)
(306.98631 -2.8362654e-17 1.6398411)
(306.19526 1.3355103e-17 1.3616248)
(306.41116 -8.899057e-18 1.3732857)
(306.39676 -6.2850913e-18 1.4956938)
(305.81038 1.198924e-17 1.1993476)
(305.97786 2.6201435e-17 1.2314783)
(305.96521 6.9813027e-18 1.321474)
(305.51927 -1.5197114e-17 1.0379947)
(305.64629 -1.9363491e-17 1.0773273)
(305.63552 -4.5878989e-18 1.1432726)
(305.30428 3.5984174e-17 0.86541997)
(305.40022 1.0716347e-16 0.93114509)
(305.3915 1.5175494e-18 0.979983)
(305.15497 9.8013938e-17 0.6186964)
(305.2192 8.4325607e-17 0.74261941)
(305.21037 9.6793068e-18 0.77658178)
(305.02528 3.6556345e-17 0.30868084)
(305.10691 1.628724e-17 0.43771734)
(305.10207 1.1771546e-17 0.47087343)
(304.8839 -5.617695e-17 0.0019676959)
(304.93761 9.2540539e-17 0.090975843)
(304.93759 -5.684999e-18 0.12028198)
(304.79163 1.1425652e-18 -0.2019153)
(304.8256 -8.868563e-18 -0.124984)
(304.83039 -6.0032993e-19 -0.11009314)
(304.72841 -1.1562805e-17 -0.061770374)
(304.70402 6.8080212e-18 -0.30117046)
(304.72616 2.7634807e-18 -0.29374615)
(304.61382 3.8589007e-17 -0.63981306)
(304.60194 -4.5045073e-18 -0.65599677)
(197.68619 -4.3324618e-17 6.5419206)
(183.97816 -9.4842051e-17 5.4740978)
(223.43591 7.4111107e-17 7.3459978)
(214.60522 6.7076268e-17 6.6907572)
(242.39522 4.5038393e-19 7.8988172)
(234.64636 1.0587849e-19 7.2096621)
(260.23421 -3.6625164e-17 8.3780191)
(252.52797 -1.6439488e-20 7.6667869)
(278.85869 -1.1940923e-17 8.8280216)
(270.56674 -4.0217204e-17 8.0886975)
(297.1204 1.1329745e-17 9.1760865)
(290.27446 3.5235325e-17 8.5158769)
(308.20833 -9.9590664e-18 9.3762963)
(306.66871 -3.0424328e-17 8.5578062)
(309.86357 3.7789054e-17 9.3700646)
(310.63058 2.5064026e-17 9.0229243)
(309.63784 2.9559269e-18 9.3014247)
(309.20759 -8.4669329e-19 8.3558721)
(309.92019 -1.1450131e-17 9.2283065)
(310.44571 4.5063016e-19 9.0232062)
(309.86468 -7.6475457e-18 9.131871)
(309.59931 7.3095016e-18 8.1003244)
(310.17591 -3.2122576e-18 9.0203555)
(310.50064 -6.1185379e-18 8.8621261)
(310.30637 2.4305908e-18 8.8790606)
(310.11505 4.1134811e-19 7.8619756)
(310.69903 1.9932213e-19 8.710072)
(310.87474 -4.3390683e-18 8.5203628)
(311.00757 8.0897747e-18 8.4968934)
(310.83744 2.5860442e-18 7.5691256)
(311.52294 -3.951332e-19 8.2382243)
(311.57369 -8.9859056e-20 7.9793907)
(312.02927 -5.4598446e-18 7.9115653)
(311.83812 -6.5143594e-18 7.1115294)
(312.72016 -2.348182e-18 7.5121699)
(312.64993 -1.5717379e-18 7.1901776)
(313.46357 0 7.0098324)
(313.21419 0 6.3494599)
(314.38814 0 6.3959537)
(314.18886 0 6.0470776)
(315.40714 -3.9404919e-18 5.6354722)
(315.07321 0 5.1127742)
(316.59353 -1.5106731e-18 4.721616)
(316.26663 1.3578974e-17 4.388115)
(317.86942 3.8437357e-18 3.6306761)
(317.45605 3.5575976e-18 3.2239894)
(319.23417 -5.0066091e-18 2.3834236)
(318.83184 -1.0224069e-19 2.0663804)
(320.56989 -2.1932229e-17 1.0139879)
(320.16566 3.7776459e-17 0.63289551)
(321.76953 -3.2916394e-17 -0.36843158)
(321.45674 3.7341042e-17 -0.79449036)
(322.63939 -1.6400515e-17 -1.6043971)
(322.46902 -1.4782169e-17 -2.1975488)
(323.00094 -1.9086611e-17 -2.4869401)
(323.05497 -6.6591937e-18 -3.276849)
(322.70366 -3.1553389e-17 -2.8705414)
(323.01486 -5.9822658e-17 -3.8764243)
(321.71554 -3.5821979e-18 -2.7450663)
(322.28106 -8.2480961e-17 -3.8795848)
(320.13588 7.9735192e-18 -2.2442809)
(320.89495 6.0052187e-17 -3.3907682)
(318.17918 0 -1.5490984)
(319.03801 6.0365365e-18 -2.5976662)
(316.09465 -1.3804744e-17 -0.8096194)
(316.95784 8.8982649e-17 -1.7054936)
(314.0832 -6.5472446e-18 -0.12450875)
(314.8863 1.0188029e-16 -0.85280128)
(312.26834 1.3187572e-17 0.45038789)
(312.97453 -8.5702381e-17 -0.11046821)
(310.69423 0 0.87994369)
(311.3054 1.8881128e-17 0.46953991)
(309.36699 2.8527039e-17 1.1689077)
(309.87466 1.4527755e-19 0.88157525)
(308.28448 4.2857941e-17 1.3326222)
(308.69642 -1.5189572e-16 1.1463482)
(307.42603 5.1467126e-17 1.391451)
(307.74898 7.9926275e-18 1.2860843)
(306.75122 5.3385583e-17 1.3572769)
(307.00996 2.4094179e-16 1.3136984)
(306.22947 0 1.2572467)
(306.42041 0 1.2536126)
(305.83964 0 1.1237178)
(305.98701 2.109129e-16 1.1443484)
(305.54447 8.8746706e-17 0.98338327)
(305.65466 0 1.0141841)
(305.32648 1.5814736e-16 0.82708984)
(305.40714 -1.4063143e-17 0.88500991)
(305.1754 1.0002796e-17 0.59169642)
(305.22653 -3.1237527e-17 0.71216879)
(305.03954 6.4132247e-17 0.28262524)
(305.10928 -4.7109444e-17 0.40888791)
(304.88695 1.515791e-16 -0.016790369)
(304.93574 2.2748434e-16 0.065328207)
(304.76082 -4.8724417e-18 -0.20861178)
(304.81992 -4.4281765e-18 -0.13799762)
(304.70015 5.7402265e-17 -0.11686848)
(304.68484 -1.0558877e-16 -0.30548557)
(304.62173 2.2284976e-17 -0.61199524)
(198.05903 0 5.7613128)
(184.30901 -3.9715576e-19 4.7326401)
(224.01547 0 6.4693951)
(215.1635 -3.5943104e-17 5.8382464)
(243.17028 -3.4041713e-19 6.9512822)
(235.39458 2.9549005e-17 6.2804777)
(261.23443 -4.0799582e-19 7.3625097)
(253.47668 -2.5216728e-17 6.6669639)
(280.20239 0 7.7419229)
(271.76173 -1.7733922e-20 7.0156415)
(298.33851 -4.4272524e-19 8.001128)
(291.92855 3.7502484e-17 7.3667509)
(308.73848 -5.3076488e-19 8.1412333)
(307.4359 -1.6606131e-17 7.3035936)
(310.10836 -1.0654452e-17 8.1135821)
(310.92461 0 7.7781684)
(309.90589 -3.39446e-18 8.0368529)
(309.47622 -1.1577913e-17 7.0544313)
(310.20304 1.8239876e-17 7.9529642)
(310.75092 1.0197322e-17 7.7689544)
(310.15107 9.8565188e-18 7.844729)
(309.88172 7.5936441e-18 6.7775708)
(310.47448 -3.0913459e-18 7.7195405)
(310.81075 4.9160644e-18 7.5843289)
(310.61033 -5.8295399e-18 7.5618444)
(310.41448 -5.2809456e-18 6.5167038)
(311.01512 -2.5507693e-18 7.3738414)
(311.19589 1.1589056e-18 7.2031233)
(311.33274 -5.1981817e-18 7.1371724)
(311.15895 -3.9824482e-18 6.1925024)
(311.86198 -5.5611589e-18 6.850853)
(311.91331 3.5602574e-18 6.6064272)
(312.38141 -3.1088319e-18 6.4904229)
(312.1868 2.8282004e-18 5.6855226)
(313.08791 5.9844598e-19 6.0512588)
(313.0146 5.4170988e-19 5.7420816)
(313.84683 0 5.5013288)
(313.59319 -1.9234581e-18 4.8474772)
(314.7865 0 4.832086)
(314.58147 1.7727666e-17 4.4983897)
(315.81815 1.6035464e-17 4.0072427)
(315.47945 -2.6823783e-18 3.5010031)
(317.01115 1.9385404e-17 3.0209951)
(316.6788 3.9318431e-18 2.7076845)
(318.28418 0 1.8506221)
(317.86934 2.3244783e-17 1.467187)
(319.62966 3.8603873e-17 0.52138857)
(319.2292 -1.6373075e-17 0.22731065)
(320.92384 9.602926e-17 -0.92532618)
(320.53002 1.4879748e-17 -1.2847971)
(322.05246 5.9824486e-17 -2.3672078)
(321.75849 5.4279582e-17 -2.778909)
(322.82266 -5.9437849e-18 -3.628309)
(322.67936 0 -4.2154392)
(323.06756 -4.1852213e-17 -4.4856972)
(323.14992 2.6847645e-19 -5.2807335)
(322.66187 -1.0786961e-16 -4.7824804)
(322.99533 1.2569279e-17 -5.8071783)
(321.59893 -3.3537157e-17 -4.5023865)
(322.17482 -8.2151998e-17 -5.6766954)
(319.98785 6.3459347e-17 -3.7866282)
(320.7466 -9.1468395e-18 -4.9963479)
(318.03382 8.5672368e-17 -2.8415268)
(318.88681 1.0610254e-16 -3.9694654)
(315.96958 2.0214335e-16 -1.8517704)
(316.82676 -1.5214837e-16 -2.8296564)
(313.9836 4.2980645e-17 -0.94074023)
(314.78343 -1.5253986e-16 -1.7446555)
(312.19442 -9.1085e-17 -0.17576134)
(312.89951 1.5177214e-18 -0.80086177)
(310.6442 2.0977772e-17 0.40661563)
(311.25584 9.0957186e-18 -0.056008186)
(309.33597 -1.6273929e-16 0.8145962)
(309.84494 -2.020474e-16 0.48616953)
(308.26705 -2.0403846e-16 1.0696868)
(308.68126 -1.9574272e-17 0.85162014)
(307.41737 1.7092498e-16 1.1966627)
(307.74348 -2.7708599e-16 1.067443)
(306.74788 2.1456568e-16 1.212544)
(307.01078 1.0693259e-17 1.1510835)
(306.22913 1.868111e-16 1.1503866)
(306.42445 3.0462003e-16 1.1328713)
(305.84092 2.34686e-16 1.0458404)
(305.99247 -2.69316e-17 1.0560402)
(305.54612 -1.0126264e-16 0.92663718)
(305.66051 -3.104521e-16 0.95034314)
(305.32822 -2.0177779e-16 0.78603575)
(305.41223 1.2076766e-16 0.83831288)
(305.17562 -8.6698783e-17 0.5615078)
(305.23225 -8.4297057e-17 0.67964554)
(305.03457 8.6116436e-17 0.25301685)
(305.10843 2.5497384e-16 0.37797357)
(304.88036 9.6539129e-17 -0.037095186)
(304.93127 -1.0175306e-16 0.038606129)
(304.76931 -9.4956724e-17 -0.1573519)
(304.80888 -4.293263e-18 -0.1514673)
(304.69539 -1.5565765e-16 -0.15461688)
(304.67606 3.9463744e-21 -0.30895383)
(304.62683 -4.0636717e-17 -0.5851912)
(198.52369 -3.264954e-17 4.9674871)
(184.65982 -5.1906296e-17 3.9853248)
(224.70194 -1.2158463e-17 5.5721101)
(215.75685 -7.1867874e-17 4.9674193)
(244.05208 9.5001995e-18 5.9762348)
(236.18115 2.837992e-17 5.3312258)
(262.33417 -2.6790564e-17 6.3130789)
(254.46639 -2.5078751e-17 5.643534)
(281.64536 3.3696763e-17 6.6159502)
(272.99328 2.205459e-17 5.9126636)
(299.60342 2.5923185e-17 6.7861143)
(293.63489 3.662966e-17 6.1837102)
(309.29574 -1.7379421e-17 6.8744855)
(308.13651 -1.5750591e-17 6.0201023)
(310.4151 0 6.8282055)
(311.23745 -1.7399898e-18 6.5116467)
(310.19895 0 6.7453364)
(309.74893 5.8168117e-18 5.7299199)
(310.50387 0 6.6526623)
(311.06098 1.2184477e-20 6.4934885)
(310.45115 2.9787307e-18 6.5342291)
(310.17066 -4.0412616e-18 5.4317866)
(310.78393 3.5747367e-18 6.3958919)
(311.12803 -1.3453535e-19 6.2849619)
(310.9237 1.0413059e-18 6.2220774)
(310.72196 0 5.1485292)
(311.33996 1.6527538e-19 6.0145882)
(311.52517 -3.6010125e-18 5.8628807)
(311.66613 3.9802857e-18 5.7539013)
(311.48916 -6.8424574e-19 4.7922233)
(312.20864 1.1823594e-17 5.4392349)
(312.26117 3.9267299e-19 5.2088006)
(312.74013 6.5816042e-18 5.0443186)
(312.54382 -6.5447508e-18 4.2347191)
(313.46077 -1.7265553e-18 4.5648135)
(313.38679 -9.3362303e-18 4.2676869)
(314.23286 1.3825488e-17 3.9665949)
(313.97931 -1.8825958e-18 3.3191226)
(315.18441 1.6777341e-17 3.2414929)
(314.97981 -5.64677e-18 2.9218518)
(316.22448 -1.5093529e-17 2.3521238)
(315.89012 -5.3730636e-18 1.861291)
(317.41872 6.093968e-18 1.293813)
(317.09309 5.444881e-18 0.99847145)
(318.68229 1.0556473e-17 0.045637242)
(318.28181 -8.7058846e-18 -0.31766041)
(320.00054 -4.2365245e-17 -1.3618889)
(319.62136 1.7386149e-17 -1.6380015)
(321.24429 -2.9608332e-17 -2.8781813)
(320.88318 -3.2556011e-17 -3.223481)
(322.29303 3.4446593e-19 -4.3663329)
(322.04113 -3.3106385e-17 -4.7739288)
(322.95749 6.089954e-18 -5.6330169)
(322.86139 -1.228201e-17 -6.2265963)
(323.0861 5.2737734e-17 -6.4425546)
(323.20769 -4.1769483e-17 -7.2551639)
(322.57959 4.7025496e-17 -6.6333548)
(322.9312 5.0021796e-17 -7.6856475)
(321.45253 -6.520239e-17 -6.1908309)
(322.01835 5.6926147e-17 -7.4062323)
(319.81991 2.1542975e-17 -5.2654604)
(320.54484 -6.0875869e-17 -6.5320585)
(317.87668 -1.0307449e-16 -4.0840236)
(318.68292 -1.1075105e-16 -5.2808314)
(315.83988 -5.0333063e-16 -2.8586429)
(316.64797 -6.5697054e-17 -3.9080737)
(313.88571 -2.0962311e-16 -1.7337392)
(314.64032 -1.223701e-16 -2.6047116)
(312.12627 1.0013104e-16 -0.7871847)
(312.79226 8.5111156e-17 -1.4701455)
(310.60078 -1.8971571e-16 -0.057644204)
(311.18146 -9.5752992e-18 -0.56791142)
(309.31101 -7.9576499e-17 0.4658174)
(309.79663 3.1614414e-17 0.099370298)
(308.25536 -6.4002168e-17 0.80990981)
(308.65236 1.6250364e-16 0.56211556)
(307.41467 -4.6863374e-16 1.0035925)
(307.72796 2.3956118e-18 0.85171573)
(306.75068 6.7650478e-17 1.0688215)
(307.00437 -2.0543294e-16 0.99010393)
(306.23464 1.2853492e-16 1.0441826)
(306.42333 3.1298777e-16 1.0131099)
(305.84756 -5.3953195e-16 0.96863393)
(305.99427 -2.2409119e-16 0.96828464)
(305.55273 -1.373163e-16 0.87084861)
(305.66384 -9.9209678e-18 0.88724207)
(305.33438 2.6190338e-16 0.74540446)
(305.41556 -6.2757916e-18 0.79274155)
(305.17908 2.1982199e-16 0.53164119)
(305.23622 1.0420615e-17 0.6459397)
(305.03108 1.0691582e-16 0.22438238)
(305.10361 2.7705255e-18 0.34667816)
(304.87519 -2.1466505e-16 -0.046216704)
(304.92324 -1.9050826e-16 0.012764812)
(304.76413 8.994595e-17 -0.13328388)
(304.797 -4.3387128e-18 -0.16389385)
(304.68825 1.1964893e-16 -0.16917307)
(304.6704 1.1184968e-16 -0.31128413)
(304.63053 -1.1122623e-18 -0.55744249)
(198.99776 -8.8608044e-17 4.1603862)
(185.04978 -5.0315213e-17 3.2335652)
(225.39131 -4.0044613e-17 4.6588242)
(216.38231 -3.6497787e-17 4.0744059)
(244.9405 -1.2455014e-18 4.9831438)
(237.00179 1.4772994e-17 4.3580234)
(263.4451 1.8969467e-17 5.2429411)
(255.49779 -2.6002452e-17 4.5964341)
(283.10756 2.3786647e-17 5.4646354)
(274.26913 4.4165423e-17 4.780624)
(300.84653 0 5.5457597)
(295.38862 -8.5813735e-18 4.9685654)
(309.79595 -1.5642486e-18 5.5858108)
(308.77882 -8.4393651e-18 4.7100284)
(310.7047 3.3534011e-18 5.5259515)
(311.55427 7.1594602e-18 5.2239433)
(310.48973 6.2822076e-18 5.4355104)
(310.03228 8.6545317e-18 4.383374)
(310.80633 -3.6201945e-18 5.3326011)
(311.37968 1.1905341e-20 5.1972053)
(310.75594 -7.3899857e-18 5.2026897)
(310.46834 -3.9490721e-18 4.0632844)
(311.09991 -3.6385967e-18 5.0502508)
(311.45288 -3.2967737e-18 4.963211)
(311.24496 -4.2536018e-18 4.8593675)
(311.03755 -1.8075027e-19 3.7572204)
(311.67319 -4.6632792e-18 4.6316238)
(311.86183 3.3916177e-19 4.4984253)
(312.00838 -4.2783228e-18 4.3461044)
(311.82718 8.5798077e-18 3.3679311)
(312.56409 -1.7019113e-17 4.0023838)
(312.61592 -5.241332e-18 3.7854449)
(313.1078 -2.1892584e-17 3.5722195)
(312.90781 -1.2285979e-17 2.7586921)
(313.84247 -1.0092442e-17 3.0514399)
(313.76495 7.5172468e-18 2.765935)
(314.62789 -2.0644325e-17 2.4040163)
(314.37116 1.4002604e-17 1.7636275)
(315.59107 -2.7366205e-17 1.6220966)
(315.38252 -1.9269984e-17 1.3162618)
(316.63916 1.385378e-17 0.66745927)
(316.30377 -2.6899668e-18 0.19241103)
(317.83345 -7.8812608e-18 -0.46328867)
(317.50793 -6.9550907e-19 -0.74114213)
(319.08539 -4.2356041e-18 -1.7884106)
(318.69149 -3.5005673e-17 -2.1323005)
(320.37249 3.1384136e-17 -3.271131)
(320.0058 3.6220575e-17 -3.5314362)
(321.5596 -3.5957708e-17 -4.8497161)
(321.22184 3.5375459e-17 -5.1848214)
(322.51969 -4.7386932e-17 -6.370836)
(322.30054 5.6361626e-17 -6.7806803)
(323.06763 -5.6720009e-17 -7.6232494)
(323.01063 -1.6179413e-17 -8.2315423)
(323.06775 -5.3031513e-17 -8.3615564)
(323.22451 1.1600773e-18 -9.2004931)
(322.44776 5.9197304e-17 -8.425606)
(322.82069 5.7708262e-18 -9.512312)
(321.24585 7.272941e-17 -7.8096477)
(321.81257 6.5603755e-17 -9.0681742)
(319.58575 -1.8671765e-16 -6.6762949)
(320.29288 -1.284571e-16 -7.9960949)
(317.65367 -7.8216054e-17 -5.269504)
(318.43055 -1.1752814e-16 -6.5277088)
(315.64984 3.1750743e-16 -3.8225692)
(316.42534 1.8053424e-16 -4.9353604)
(313.73554 1.4800566e-16 -2.4966247)
(314.45991 4.0190598e-16 -3.4276155)
(312.01497 -1.3632683e-17 -1.3783448)
(312.65477 -1.2226076e-17 -2.1138028)
(310.52354 2.0598185e-16 -0.50871256)
(311.08349 0 -1.0626883)
(309.26045 2.5795537e-16 0.12537406)
(309.73047 2.3123554e-16 -0.27630786)
(308.22434 2.4636525e-16 0.55505867)
(308.61016 0 0.27954542)
(307.39717 2.8779705e-16 0.8132117)
(307.70268 5.4048854e-16 0.64000102)
(306.74204 -1.9032611e-17 0.92653085)
(306.99086 -2.4232279e-17 0.83137721)
(306.23137 2.1749148e-17 0.93870493)
(306.41711 -2.7886453e-16 0.89463766)
(305.8475 2.8099473e-16 0.89189232)
(305.99239 4.4958583e-16 0.88116913)
(305.5541 1.2069795e-16 0.81559589)
(305.66458 3.0077919e-16 0.82468263)
(305.33617 -2.601783e-16 0.7043264)
(305.41715 -2.4924862e-16 0.74789067)
(305.17714 -2.0676057e-16 0.50116931)
(305.2384 5.8097177e-20 0.610139)
(305.02363 -2.7402797e-16 0.20392275)
(305.09445 -2.3937463e-16 0.31464651)
(304.87697 0 -0.016588508)
(304.91013 0 -0.011616953)
(304.75906 2.8632907e-18 -0.13326937)
(304.78784 8.3679965e-18 -0.17486231)
(304.68606 1.9210395e-18 -0.17820394)
(304.66736 -2.0387099e-16 -0.31256465)
(304.63332 -3.7412655e-18 -0.52955799)
(199.50381 -5.2749162e-19 3.3343108)
(185.45797 8.5016996e-19 2.4557411)
(226.12033 1.3069714e-17 3.7223944)
(217.0335 2.5125123e-20 3.1710369)
(245.87676 -6.243853e-18 3.963402)
(237.85201 3.1458725e-17 3.3598877)
(264.61199 -6.8425195e-18 4.1425604)
(256.56801 -2.4617149e-17 3.5244012)
(284.6246 1.6647759e-17 4.2779632)
(275.59003 1.0518965e-17 3.6177618)
(302.09375 -1.6836925e-17 4.2726742)
(297.16321 -9.6368705e-18 3.7213983)
(310.2782 -1.1312034e-18 4.2706673)
(309.35424 -8.2452046e-18 3.3733757)
(311.01322 1.222204e-17 4.1989491)
(311.87497 1.2281289e-17 3.9144871)
(310.79414 3.2037183e-18 4.1015785)
(310.32066 -3.1433778e-18 3.0136689)
(311.11964 0 3.9888419)
(311.70283 0 3.8792079)
(311.07 0 3.847694)
(310.77179 4.2277545e-18 2.6711057)
(311.4239 -1.6244051e-19 3.6809538)
(311.78347 0 3.6179879)
(311.57376 4.2681925e-18 3.4726123)
(311.35984 -1.7669643e-19 2.3419098)
(312.01338 1.2634043e-17 3.2240271)
(312.20458 1.3501939e-17 3.1089618)
(312.35726 8.7399348e-18 2.9131675)
(312.17152 7.1048935e-19 1.9190205)
(312.92552 -4.8003366e-20 2.539753)
(312.97607 0 2.3357242)
(313.48094 1.4896257e-17 2.0735943)
(313.27734 2.8031302e-18 1.2567289)
(314.22869 3.0577555e-17 1.5106088)
(314.14778 6.6158154e-18 1.2360177)
(315.02617 1.8069416e-17 0.8130348)
(314.76712 -2.1051838e-17 0.1801093)
(315.99898 3.5300526e-18 -0.026628498)
(315.7877 -1.0714289e-17 -0.31929784)
(317.05251 -1.7122063e-17 -1.0472637)
(316.71826 -5.8639158e-18 -1.5067093)
(318.24317 -2.4386963e-17 -2.2506964)
(317.92089 -1.387448e-17 -2.5122573)
(319.47843 -1.4352318e-18 -3.6516233)
(319.09551 -4.0248114e-18 -3.97779)
(320.72758 4.0234946e-17 -5.2058404)
(320.37902 3.3182288e-18 -5.4537214)
(321.84945 1.2423573e-16 -6.8385798)
(321.54166 -7.4128543e-18 -7.1688509)
(322.71133 9.3648279e-17 -8.3783939)
(322.53161 7.0715022e-18 -8.7980549)
(323.13451 3.9200551e-17 -9.5962094)
(323.12168 -4.0294577e-18 -10.22814)
(323.00171 5.8665911e-17 -10.240268)
(323.19566 4.8216245e-17 -11.114262)
(322.26811 6.3251191e-18 -10.157618)
(322.66079 -7.9002717e-17 -11.285114)
(320.99376 -1.1405564e-16 -9.3572171)
(321.5569 1.4026886e-16 -10.660716)
(319.30966 -6.1052832e-17 -8.0163016)
(319.99248 1.1117172e-17 -9.3859298)
(317.39309 1.0820238e-16 -6.3936732)
(318.13281 8.9037214e-17 -7.7061558)
(315.42765 2.4122673e-16 -4.7385867)
(316.1622 2.0580174e-17 -5.9065217)
(313.55925 2.8657178e-16 -3.2246678)
(314.24503 -1.2679735e-17 -4.208224)
(311.88327 0 -1.9452671)
(312.48915 -1.2763853e-17 -2.7272305)
(310.4307 0 -0.943465)
(310.96341 9.6567304e-18 -1.536587)
(309.19817 0 -0.20437954)
(309.64745 0 -0.63800086)
(308.18474 2.3295625e-16 0.30689628)
(308.5553 1.1108863e-17 0.0060333124)
(307.37363 2.9265465e-16 0.6268347)
(307.66804 -1.0108664e-17 0.43387716)
(306.7293 -2.5477404e-16 0.78663745)
(306.97051 0 0.67605507)
(306.22533 6.5713525e-17 0.83465413)
(306.40593 9.5258528e-19 0.7782874)
(305.8456 4.8628862e-16 0.81601044)
(305.98688 1.3041759e-17 0.79526783)
(305.55443 -6.2709838e-18 0.76092259)
(305.66271 -9.6644951e-18 0.76284274)
(305.33739 -1.7129143e-17 0.66253245)
(305.41711 -3.482316e-20 0.7035718)
(305.17332 -4.9234428e-18 0.46999896)
(305.23889 3.2054801e-16 0.57184264)
(305.02836 8.5085289e-18 0.24138214)
(305.07732 7.6656705e-18 0.28211296)
(304.87742 7.4700051e-18 0.014407895)
(304.89697 1.1168657e-17 -0.033917173)
(304.75199 -1.7476885e-16 -0.14370557)
(304.7809 -2.6419408e-16 -0.18389963)
(304.68304 -2.3129646e-16 -0.18771514)
(304.66473 -1.2718525e-17 -0.3127347)
(304.63549 0 -0.50146307)
(200.03587 1.4563492e-18 2.4922554)
(185.8883 2.8608587e-17 1.6166066)
(226.87862 1.5548041e-17 2.767437)
(217.71299 -9.2455967e-18 2.269722)
(246.84338 1.7867354e-17 2.9225208)
(238.73311 2.3173329e-17 2.3395101)
(265.81649 -1.0388556e-17 3.017903)
(257.67966 -1.532618e-17 2.4288888)
(286.16515 -1.3591458e-17 3.0615963)
(276.96383 5.4384408e-19 2.4244253)
(303.30894 -1.3508957e-18 2.971531)
(298.94924 -1.2178532e-18 2.4442903)
(310.71827 3.2593441e-18 2.9332075)
(309.86365 -6.6058073e-18 2.0114039)
(311.31923 -1.5277784e-18 2.8512711)
(312.19814 5.3892925e-18 2.582667)
(311.09998 -6.5199896e-18 2.7463745)
(310.6151 -6.6827964e-18 1.6201888)
(311.43579 3.8003753e-18 2.6229101)
(312.03158 6.4332891e-19 2.5388294)
(311.38843 4.5600329e-18 2.4695358)
(311.08184 -1.6698904e-19 1.2545004)
(311.7531 0 2.2876026)
(312.11971 7.2116909e-18 2.2482154)
(311.90833 7.7690071e-18 2.0611149)
(311.68804 0 0.90200161)
(312.35914 2.8584877e-18 1.7911928)
(312.55201 -1.5944167e-18 1.6938193)
(312.71157 -7.7810975e-18 1.4544996)
(312.52067 -7.0482634e-18 0.44502454)
(313.292 2.5649372e-18 1.0506845)
(313.34019 -3.5473159e-18 0.85879462)
(313.85892 -5.6065024e-18 0.54758738)
(313.65108 1.756448e-17 -0.2720399)
(314.61908 -4.1681142e-17 -0.058754221)
(314.53381 -4.4734049e-18 -0.32309928)
(315.42786 -5.0093208e-17 -0.80747957)
(315.16571 -2.1508612e-17 -1.4324847)
(316.40894 -2.0319184e-17 -1.7059246)
(316.1939 -1.3806803e-17 -1.9860785)
(317.46605 -2.0139006e-18 -2.7934335)
(317.13211 -5.7479471e-18 -3.2374702)
(318.65008 5.2616109e-18 -4.0698664)
(318.33026 4.7571104e-18 -4.3163007)
(319.86421 0 -5.5453179)
(319.49168 0 -5.8554068)
(321.0689 -4.2566263e-17 -7.1668807)
(320.7382 0 -7.4056783)
(322.11688 -1.2394889e-16 -8.844742)
(321.83902 -8.9795918e-17 -9.1754421)
(322.87065 -8.8013343e-17 -10.387824)
(322.73008 -7.9188394e-17 -10.824479)
(323.16004 0 -11.549883)
(323.19028 4.6466312e-18 -12.213513)
(322.88821 -7.5498778e-17 -12.076565)
(323.11786 -7.2524656e-18 -12.993154)
(322.03831 3.2042673e-17 -11.82759)
(322.45006 2.7328254e-17 -13.001268)
(320.69161 2.7673876e-16 -10.83162)
(321.25211 1.1953708e-16 -12.181817)
(318.98556 1.5171674e-16 -9.2827045)
(319.64633 1.4448751e-16 -10.699602)
(317.0883 9.3442357e-18 -7.4526486)
(317.79347 1.3471182e-17 -8.8135273)
(315.16652 -2.2776877e-16 -5.6022421)
(315.86238 3.3925613e-16 -6.8181632)
(313.35 -3.0964835e-16 -3.9135186)
(313.99893 -2.0935027e-18 -4.9428952)
(311.72473 -5.5279392e-18 -2.4841634)
(312.29785 2.1227662e-19 -3.3070407)
(310.31684 1.0706951e-17 -1.3588558)
(310.82295 -1.3976498e-19 -1.9867492)
(309.11987 9.8335577e-18 -0.5211512)
(309.54872 0 -0.98347154)
(308.13307 -2.2878047e-16 0.067101868)
(308.48855 1.1064613e-17 -0.25675141)
(307.34105 -3.030342e-16 0.4456642)
(307.6245 -8.0234084e-16 0.23457284)
(306.70983 2.5523656e-16 0.64997776)
(306.94361 -4.0482634e-16 0.52500631)
(306.21432 -5.3227872e-17 0.73259706)
(306.38997 8.4083822e-18 0.66465302)
(305.84 -4.8043302e-16 0.74125314)
(305.97784 -8.4656233e-16 0.71098178)
(305.55213 -4.5263949e-18 0.70671794)
(305.65825 6.1862898e-16 0.70177852)
(305.33684 3.0145313e-16 0.61969808)
(305.41548 3.956784e-20 0.65942961)
(305.16581 3.6963458e-16 0.4372667)
(305.23794 2.9765833e-18 0.53074173)
(305.03335 9.9372485e-18 0.29632015)
(305.05441 4.8223664e-16 0.24868571)
(304.88186 -2.2779164e-16 0.064354194)
(304.88303 3.6523006e-16 -0.053752046)
(304.74725 -1.281007e-16 -0.1469001)
(304.77479 2.5452745e-16 -0.19062431)
(304.67866 2.2084216e-16 -0.20809116)
(304.66123 1.9745264e-16 -0.31152377)
(304.63689 -2.9474215e-16 -0.47317799)
(200.59171 2.1208197e-17 1.6343106)
(186.34999 2.6252004e-17 0.75339581)
(227.66292 -4.3152011e-18 1.7922299)
(218.41738 -1.463528e-17 1.3557621)
(247.84702 -6.2629486e-18 1.8582733)
(239.64166 6.8214976e-18 1.2955029)
(267.0715 -5.8794991e-18 1.8665438)
(258.83023 -9.7575081e-18 1.3102402)
(287.74525 1.2770858e-17 1.813364)
(278.3951 1.1571587e-17 1.2004415)
(304.50451 -5.9316056e-18 1.6410015)
(300.73595 1.9813543e-18 1.1372086)
(311.12744 -5.460674e-18 1.5713948)
(310.31318 -5.8931087e-18 0.62502973)
(311.63278 1.2957861e-18 1.4797745)
(312.52557 1.8049157e-18 1.2268292)
(311.41319 -2.5582799e-19 1.3667496)
(310.91558 8.2310956e-19 0.20051858)
(311.75879 -3.1711226e-18 1.2320444)
(312.36508 -6.8449822e-19 1.17441)
(311.7133 1.8446618e-18 1.0661719)
(311.39706 -4.2029109e-18 -0.18723134)
(312.08773 7.7808256e-18 0.86889702)
(312.4596 7.0825854e-18 0.85321512)
(312.24771 -9.0305556e-18 0.62418577)
(312.02007 0 -0.5627112)
(312.70892 -1.0848074e-17 0.33262924)
(312.90229 -1.2406699e-17 0.25247913)
(313.06968 -3.1868149e-18 -0.030516863)
(312.87324 2.1456111e-18 -1.0546625)
(313.66183 9.4386712e-18 -0.46576422)
(313.70716 -3.4709464e-18 -0.64638445)
(314.23993 2.0460306e-17 -1.006924)
(314.02787 1.1412093e-17 -1.8286716)
(315.01152 1.6662263e-17 -1.6577437)
(314.92173 1.2552099e-17 -1.912566)
(315.83031 1.3403513e-17 -2.4587225)
(315.56531 8.0273203e-18 -3.075345)
(316.8178 -1.9451261e-19 -3.4171785)
(316.59932 -3.6938136e-19 -3.685521)
(317.87595 0 -4.5725311)
(317.54325 -4.8893918e-17 -5.0014811)
(319.04944 0 -5.9221576)
(318.73354 0 -6.1548518)
(320.23683 0 -7.470442)
(319.87692 0 -7.7664936)
(321.38938 -3.8519976e-17 -9.1544067)
(321.0795 6.7069295e-17 -9.3880014)
(322.3538 -4.6693832e-17 -10.867045)
(322.10925 1.5846254e-18 -11.20406)
(322.98929 4.3798224e-18 -12.396405)
(322.89068 -8.0281558e-17 -12.857666)
(323.13702 -1.3653782e-18 -13.480473)
(323.21139 9.3447531e-18 -14.183871)
(322.72292 9.0935477e-17 -13.866606)
(322.98725 -1.4442781e-16 -14.83285)
(321.75816 1.0469382e-16 -13.432472)
(322.18646 1.1568371e-16 -14.657028)
(320.34325 -1.3657671e-17 -12.230568)
(320.89827 -1.8462444e-16 -13.628738)
(318.62018 2.0955769e-17 -10.473265)
(319.25637 -2.6338591e-16 -11.93494)
(316.74724 3.0672373e-16 -8.4436912)
(317.41563 2.7023927e-17 -9.8474974)
(314.87422 5.9875045e-16 -6.410363)
(315.52929 -2.7211814e-17 -7.6675128)
(313.11469 3.0516985e-16 -4.5599493)
(313.72467 1.2575516e-17 -5.6286121)
(311.54505 5.595242e-18 -2.9921056)
(312.0833 1.2968169e-17 -3.8503152)