/*--------------------------------*- C++ -*----------------------------------*\
  =========                 |
  \\      /  F ield         | OpenFOAM: The Open Source CFD Toolbox
   \\    /   O peration     | Website:  https://openfoam.org
    \\  /    A nd           | Version:  8
     \\/     M anipulation  |
\*---------------------------------------------------------------------------*/
FoamFile
{
    version     2.0;
    format      ascii;
    class       volScalarField;
    location    "0.269994";
    object      T;
}
// * * * * * * * * * * * * * * * * * * * * * * * * * * * * * * * * * * * * * //

dimensions      [0 0 0 1 0 0 0];

internalField   nonuniform List<scalar> 
20000
(
270.96925
270.52561
269.77048
268.29773
265.45742
260.17089
252.14218
250.02626
250.79594
250.69016
251.32029
251.4037
251.97073
252.22039
252.80926
253.25111
253.94902
254.62763
255.52621
256.50965
257.71686
259.10336
260.75008
262.66181
264.88423
267.43042
270.30202
273.46094
276.81858
280.22678
283.48005
286.38522
288.83064
290.81212
292.38039
293.60727
294.56897
295.31856
295.89518
296.34488
296.71649
297.01243
297.25395
297.44821
297.61363
297.76367
297.9859
298.15731
298.26831
298.41587
271.01086
270.59002
269.82467
268.30636
265.35186
259.8021
252.00142
250.18431
250.98166
250.8732
251.51667
251.60152
252.18086
252.43837
253.04007
253.49688
254.21132
254.9128
255.83505
256.85047
258.09168
259.51969
261.21054
263.16992
265.43794
268.02048
270.90604
274.03826
277.31662
280.60241
283.72679
286.52991
288.91027
290.85337
292.39968
293.61524
294.57272
295.31983
295.89521
296.34425
296.71596
297.01202
297.2537
297.44844
297.6142
297.76745
297.99524
298.17057
298.31075
298.39854
271.09983
270.70393
269.93476
268.37535
265.29937
259.4419
251.91244
250.40681
251.18506
251.07176
251.72549
251.8129
252.40231
252.66883
253.28171
253.75381
254.48304
255.20664
256.1502
257.19542
258.46674
259.9327
261.66283
263.66579
265.97535
268.59298
271.49504
274.6123
277.83554
281.03049
284.04964
286.75847
289.0682
290.96293
292.47694
293.66936
294.61037
295.34604
295.91439
296.35929
296.72821
297.0219
297.2619
297.45603
297.6214
297.77929
298.00812
298.18164
298.31293
298.39555
271.1787
270.80034
270.02278
268.42101
265.22647
259.03697
251.85772
250.59052
251.39482
251.27976
251.9457
252.0368
252.63722
252.91325
253.53794
254.02591
254.77069
255.51729
256.48322
257.5597
258.86299
260.36932
262.14168
264.19198
266.54732
269.20472
272.12774
275.23398
278.40449
281.50899
284.41943
287.02573
289.25413
291.09019
292.56377
293.72833
294.65063
295.37347
295.9337
296.37359
296.73926
297.03041
297.26873
297.46208
297.62776
297.79332
298.02324
298.19502
298.32178
298.38993
271.28051
270.92114
270.13474
268.48846
265.1725
258.62017
251.85771
250.80749
251.62237
251.50466
252.18111
252.27617
252.88681
253.17326
253.80958
254.31443
255.07486
255.84532
256.83405
257.94252
259.27836
260.82578
262.64128
264.73991
267.14217
269.84045
272.78569
275.88367
279.00754
282.03003
284.83794
287.34196
289.48364
291.25349
292.67916
293.80899
294.70669
295.41245
295.96159
296.39444
296.75527
297.04269
297.27843
297.47029
297.63651
297.81353
298.04196
298.20678
298.32428
298.38606
271.37965
271.04076
270.24467
268.55163
265.11354
258.18137
251.90031
251.03043
251.86027
251.74179
252.42934
252.52971
253.1509
253.44885
254.0972
254.61995
255.39671
256.19222
257.20492
258.34688
259.71715
261.30785
263.16908
265.31866
267.7704
270.51112
273.47879
276.56765
279.64417
282.58488
285.29041
287.69021
289.74071
291.43865
292.81089
293.90155
294.77131
295.45754
295.99376
296.4182
296.77324
297.0563
297.28896
297.47876
297.64584
297.83857
298.06318
298.21851
298.32732
298.38215
271.50023
271.18027
270.37061
268.62439
265.05817
257.73972
251.99156
251.27133
252.11298
251.99386
252.69168
252.79803
253.42955
253.73992
254.40039
254.94201
255.73562
256.55734
257.59515
258.77205
260.17846
261.81442
263.72368
265.92638
268.42948
271.21332
274.20257
277.28073
280.30923
283.16914
285.77361
288.06885
290.02533
291.64706
292.96122
294.00836
294.84649
295.51043
296.03169
296.4462
296.7943
297.0722
297.30113
297.48813
297.65602
297.86825
298.0863
298.23114
298.32938
298.37832
271.62424
271.32283
270.50072
268.69598
264.99331
257.29471
252.12414
251.52308
252.37683
252.25849
252.9667
253.08028
253.7222
254.04593
254.71871
255.28021
256.09145
256.94069
258.00486
259.21831
260.66293
262.34651
264.30648
266.56479
269.12121
271.94835
274.95731
278.02149
280.99901
283.77664
286.27979
288.46994
290.33059
291.87317
293.1259
294.12631
294.93004
295.56956
296.07424
296.47754
296.81776
297.08986
297.31452
297.49802
297.66646
297.89953
298.11133
298.24611
298.333
298.37414
271.75702
271.47827
270.64143
268.77099
264.91784
256.86217
252.297
251.78842
252.65352
252.53689
253.25495
253.37646
254.02843
254.36632
255.0516
255.6341
256.46379
257.34185
258.43374
259.68549
261.17055
262.90413
264.91746
267.23372
269.84497
272.71488
275.74073
278.78681
281.7098
284.40325
286.80466
288.88952
290.65328
292.11476
293.30355
294.25459
295.02153
295.63471
296.12136
296.51225
296.84369
297.10936
297.32921
297.5086
297.67761
297.93059
298.13712
298.26354
298.33937
298.36891
271.89427
271.6397
270.78794
268.84571
264.82272
256.45103
252.50627
252.06617
252.94187
252.82793
253.55533
253.68554
254.3474
254.70047
255.39874
256.0035
256.85257
257.76071
258.88175
260.17365
261.70158
263.48767
265.55706
267.9335
270.60076
273.51211
276.55102
279.57385
282.43772
285.04426
287.34303
289.32249
290.98897
292.36828
293.49154
294.39135
295.11969
295.70501
296.17247
296.54994
296.87178
297.13049
297.34507
297.51996
297.69055
297.96019
298.16196
298.28268
298.34825
298.36175
272.04385
271.811
270.9454
268.92357
264.70264
256.07542
252.74793
252.35617
253.24131
253.13075
253.86701
254.00688
254.67873
255.04824
255.76008
256.38827
257.25753
258.19706
259.34897
260.68314
262.25652
264.09765
266.22578
268.66445
271.38834
274.33892
277.38609
280.37977
283.17944
285.69597
287.89103
289.7651
291.33437
292.63114
293.68795
294.53522
295.22358
295.77986
296.22714
296.59037
296.90187
297.1531
297.362
297.53242
297.70703
297.98793
298.18465
298.30049
298.36304
298.35151
272.19747
271.98644
271.10961
269.00103
264.54529
255.75024
253.01621
252.65617
253.55032
253.44437
254.18951
254.34034
255.02245
255.40966
256.13556
256.78822
257.67856
258.65092
259.8356
261.21424
262.83575
264.73445
266.92399
269.42673
272.20721
275.19387
278.24354
281.20141
283.93131
286.35446
288.44465
290.21352
291.68608
292.90057
293.89068
294.68466
295.33213
295.85851
296.28487
296.63319
296.93373
297.17701
297.37981
297.54613
297.7283
298.01388
298.20536
298.31657
298.37806
298.33827
272.3549
272.16802
271.27967
269.08047
264.34804
255.47184
253.31112
252.96687
253.86953
253.76934
254.52319
254.68623
255.37877
255.78469
256.52496
257.20305
258.11556
259.12246
260.34212
261.7676
263.43996
265.39884
267.65241
270.22075
273.05704
276.07558
279.12106
282.03587
284.69016
287.01648
289.00066
290.66465
292.04134
293.17428
294.09792
294.83833
295.44436
295.94028
296.34516
296.67808
296.96714
297.20203
297.39828
297.56109
297.75394
298.03914
298.22427
298.32987
298.38965
298.32315
272.52125
272.36185
271.45797
269.16444
264.11017
255.24516
253.6369
253.28828
254.19896
254.10571
254.86819
255.04462
255.74752
256.17296
256.92788
257.63262
258.56873
259.61213
260.86904
262.34368
264.06967
266.09133
268.41153
271.04659
273.93702
276.98217
280.01589
282.87991
285.4526
287.67866
289.55582
291.11546
292.39747
293.45001
294.3079
294.99486
295.55929
296.02451
296.40754
296.72468
297.00187
297.22796
297.41715
297.57706
297.78365
298.06405
298.24099
298.34022
298.3949
298.30699
272.69251
272.55796
271.63764
269.24942
263.82722
255.07061
253.98939
253.61989
254.53882
254.4539
255.22459
255.41516
256.12816
256.57389
257.34413
258.07704
259.03857
260.12049
261.41705
262.94325
264.72574
266.81285
269.20212
271.9045
274.84644
277.9118
280.92538
283.73053
286.21563
288.33818
290.10746
291.56347
292.75224
293.72589
294.51909
295.15306
295.67601
296.11054
296.47157
296.77264
297.03771
297.25464
297.43618
297.59378
297.8172
298.08833
298.25462
298.34618
298.39822
298.29028
272.87281
272.75996
271.82159
269.33915
263.5056
254.95417
254.31572
253.96357
254.88958
254.8135
255.59155
255.79689
256.51996
256.98729
257.77395
258.53694
259.52572
260.64814
261.9867
263.56693
265.40887
267.56414
270.02475
272.79435
275.78401
278.86212
281.84646
284.58446
286.97611
288.99213
290.65293
292.00629
293.10353
294.00014
294.73004
295.31179
295.79365
296.19774
296.5368
296.82161
297.07442
297.28188
297.45523
297.61119
297.85391
298.11174
298.26551
298.34897
298.3999
298.27317
273.06334
272.96651
272.00633
269.42931
263.14808
254.89993
254.66651
254.31666
255.24884
255.18262
255.96784
256.18919
256.92298
257.41361
258.21811
259.01296
260.03086
261.19569
262.57876
264.21563
266.12014
268.34628
270.88018
273.71609
276.74847
279.83076
282.77621
285.43871
287.73129
289.63807
291.19006
292.44196
293.44964
294.27128
294.93954
295.47006
295.91143
296.28551
296.60285
296.87132
297.1118
297.3095
297.47436
297.63001
297.89255
298.13413
298.27472
298.35005
298.40074
298.25505
273.26037
273.17399
272.18378
269.51206
262.75901
254.90493
255.02101
254.67791
255.61599
255.56105
256.35367
256.59269
257.338
257.85376
258.67738
259.50581
260.55451
261.76365
263.19389
264.89019
266.86044
269.16012
271.76886
274.66916
277.73797
280.81483
283.7113
286.29005
288.47828
290.27351
291.71669
292.86861
293.78893
294.53796
295.14643
295.62691
296.02861
296.37329
296.66929
296.92149
297.1496
297.3373
297.49387
297.65191
297.93144
298.15501
298.28295
298.35006
298.40113
298.23576
273.46909
273.38536
272.35542
269.58423
262.35171
254.97769
255.38651
255.04819
255.99176
255.94954
256.74998
257.00842
257.76608
258.30849
259.15238
260.0158
261.09711
262.3527
263.8331
265.59177
267.631
270.00681
272.69135
275.65296
278.75055
281.81149
284.64861
287.13557
289.21456
290.89636
292.23111
293.28476
294.12014
294.79908
295.34979
295.78157
296.14456
296.46057
296.73571
296.97187
297.18755
297.36503
297.51409
297.67918
297.96853
298.1735
298.28816
298.34897
298.39809
298.21647
273.68266
273.59772
272.51503
269.63297
261.9335
255.11131
255.75913
255.4275
256.37717
256.34947
257.15801
257.43739
258.20783
258.7782
259.64334
260.54332
261.65922
262.96363
264.49737
266.32143
268.4329
270.88726
273.6478
276.6663
279.78367
282.81743
285.58472
287.97216
289.93755
291.50454
292.7316
293.68899
294.44209
295.05365
295.54875
295.93328
296.25869
296.54688
296.80173
297.02219
297.22538
297.39238
297.53516
297.71336
298.00182
298.18948
298.29087
298.34367
298.38937
298.19705
273.90744
273.81614
272.66742
269.65378
261.52325
255.30746
256.14327
255.81798
256.7737
256.76196
257.57844
257.87987
258.66341
259.26294
260.15053
261.08869
262.24155
263.59748
265.18796
267.0805
269.26751
271.80254
274.63829
277.7078
280.83466
283.82937
286.51641
288.79706
290.64504
292.09633
293.21685
294.08026
294.75389
295.30091
295.74263
296.08145
296.37049
296.63183
296.86698
297.07216
297.26282
297.41904
297.55692
297.75296
298.03088
298.20302
298.29213
298.33877
298.37097
298.17799
274.14813
274.04707
272.81635
269.63642
261.13888
255.56204
256.53907
256.2205
257.18173
257.18681
258.01092
258.33557
259.13271
259.76286
260.67429
261.65261
262.84506
264.25542
265.90609
267.87024
270.13606
272.75343
275.66243
278.77548
281.90035
284.84369
287.44025
289.60737
291.33476
292.67003
293.68558
294.45759
295.05475
295.54016
295.93083
296.22554
296.47952
296.71509
296.93119
297.12147
297.29961
297.44479
297.57916
297.79464
298.0565
298.21428
298.29242
298.33586
298.34146
298.15948
274.40276
274.29019
272.96319
269.56959
260.79532
255.85752
256.94793
256.6349
257.60089
257.62351
258.45505
258.80445
259.61596
260.27833
261.21524
262.23591
263.47096
264.93877
266.65317
268.69211
271.03994
273.74071
276.71956
279.86711
282.97743
285.8568
288.35299
290.40051
292.00481
293.22434
294.13686
294.8203
295.34414
295.77091
296.11288
296.36514
296.58538
296.79637
296.99417
297.1699
297.33557
297.46971
297.60232
297.83768
298.07814
298.22015
298.29189
298.33086
298.30618
298.14198
274.67053
274.54678
273.11136
269.44412
260.51009
256.17633
257.36732
257.05862
258.03007
258.07181
258.91124
259.28691
260.11358
260.80986
261.77423
262.83977
264.12056
265.64887
267.43054
269.54753
271.9804
274.76479
277.8085
280.97985
284.06211
286.86481
289.25124
291.1738
292.65333
293.75802
294.56986
295.16775
295.62153
295.99274
296.28841
296.49991
296.68776
296.87542
297.05579
297.21726
297.37053
297.49417
297.62797
297.88117
298.09741
298.22318
298.28821
298.32563
298.26892
298.12604
274.94097
274.81056
273.25753
269.24394
260.28374
256.56268
257.79422
257.4903
258.46879
258.53286
259.38011
259.78351
260.62607
261.35825
262.35238
263.46546
264.79525
266.38712
268.23971
270.43813
272.95878
275.82584
278.9276
282.11052
285.15045
287.86389
290.13179
291.9249
293.27882
294.27028
294.9841
295.49952
295.88659
296.20543
296.45719
296.62958
296.78641
296.952
297.11591
297.26348
297.40429
297.51873
297.65855
297.92341
298.11535
298.22467
298.2813
298.31862
298.23599
298.11197
275.22521
275.0907
273.41659
268.97511
260.13475
256.97558
258.23268
257.93404
258.91989
259.00537
259.86128
260.29437
261.15428
261.92458
262.95106
264.1144
265.4964
267.15493
269.08225
271.36552
273.97619
276.92353
280.07459
283.25532
286.23808
288.84998
290.99137
292.65148
293.87995
294.76045
295.37918
295.81521
296.13902
296.4089
296.61909
296.75384
296.88114
297.02589
297.17435
297.30842
297.43664
297.5439
297.69622
297.96142
298.13219
298.22551
298.27227
298.30631
298.20688
298.09979
275.51754
275.38293
273.5853
268.63165
260.06548
257.42122
258.68117
258.38885
259.38285
259.49178
260.35538
260.82037
261.69935
262.5103
263.57159
264.78784
266.22537
267.95385
269.95993
272.33153
275.03363
278.0571
281.24667
284.41014
287.32063
289.81924
291.82702
293.35182
294.45598
295.22819
295.75493
296.11467
296.37875
296.60329
296.7741
296.87239
296.97182
297.09692
297.23088
297.35187
297.46735
297.56971
297.74056
297.99256
298.14619
298.2259
298.26239
298.28786
298.18128
298.08938
275.81422
275.68479
273.76373
268.21952
260.07726
257.83537
259.14102
258.85586
259.85868
259.9928
260.86366
261.36281
262.2627
263.11669
264.21522
265.48702
266.98357
268.78553
270.87464
273.33785
276.13166
279.22507
282.44035
285.57035
288.39343
290.76768
292.63606
294.02471
295.00646
295.67301
296.11099
296.39792
296.606
296.78871
296.92213
296.98496
297.05826
297.165
297.28522
297.39348
297.4963
297.59591
297.78649
298.01797
298.15322
298.22364
298.25505
298.26186
298.15906
298.08035
276.12093
275.99724
273.95162
267.7505
260.17359
258.2834
259.6109
259.33473
260.34662
260.50761
261.3886
261.92369
262.84573
263.74479
264.88305
266.21323
267.77266
269.65197
271.82854
274.38621
277.27044
280.42538
283.6516
286.73114
289.45189
291.69179
293.41674
294.67
295.53143
296.09439
296.44687
296.66535
296.82147
296.96518
297.06293
297.09156
297.14019
297.23014
297.33722
297.43289
297.52373
297.62283
297.83217
298.03886
298.157
298.21964
298.24786
298.23065
298.13977
298.07238
276.43278
276.31521
274.13816
267.23432
260.34412
258.74112
260.0925
259.8271
260.84904
261.03774
261.9293
262.50387
263.4492
264.39558
265.57622
266.96795
268.59449
270.55531
272.82376
275.47797
278.44949
281.65514
284.87579
287.88724
290.49132
292.58844
294.16822
295.28797
296.03053
296.49149
296.76191
296.91743
297.02609
297.1323
297.19591
297.19272
297.21736
297.29241
297.38683
297.46985
297.55024
297.65209
297.87604
298.05709
298.15897
298.21415
298.2409
298.20051
298.12266
298.06518
276.7574
276.64346
274.32043
266.69595
260.57911
259.21922
260.58826
260.33481
261.36639
261.58337
262.48705
263.10311
264.07382
265.07008
266.29622
267.75301
269.45132
271.49802
273.86255
276.61423
279.66762
282.91079
286.10781
289.03337
291.50747
293.45567
294.89081
295.87847
296.50242
296.86377
297.05626
297.15468
297.22038
297.28955
297.32057
297.28935
297.2898
297.35181
297.43414
297.50443
297.5766
297.68656
297.9164
298.07384
298.16028
298.20678
298.2327
298.17273
298.10728
298.05864
277.09167
276.98049
274.48996
266.15556
260.90132
259.71071
261.09598
260.85673
261.898
262.14617
263.06409
263.72207
264.72042
265.76961
267.04481
268.57057
270.34564
272.48263
274.94693
277.79549
280.92284
284.18789
287.34199
290.16405
292.49659
294.29262
295.58465
296.43903
296.945
297.21097
297.33154
297.37728
297.40328
297.43679
297.4372
297.38185
297.35827
297.4082
297.47922
297.53692
297.60329
297.72811
297.9509
298.08876
298.16106
298.19828
298.22096
298.14748
298.09346
298.05264
277.43429
277.32627
274.63526
265.63491
261.28434
260.21689
261.61622
261.39358
262.445
262.72724
263.66121
264.36357
265.39064
266.49565
267.82407
269.42318
271.28019
273.51178
276.07875
279.02163
282.21228
285.48136
288.57234
291.27418
293.45607
295.09952
296.24799
296.96647
297.35711
297.53387
297.58993
297.58546
297.57355
297.57599
297.54606
297.46887
297.42427
297.46121
297.52205
297.56773
297.63027
297.77381
297.97924
298.09931
298.1598
298.19037
298.20251
298.12474
298.08098
298.04712
277.78036
277.68073
274.7434
265.15934
261.72972
260.73711
262.14994
261.94687
263.00938
263.32795
264.27983
265.02823
266.08614
267.25038
268.63647
270.31357
272.25786
274.588
277.25941
280.29169
283.53206
286.78532
289.79264
292.35915
294.38445
295.87609
296.87619
297.45838
297.73827
297.83504
297.83298
297.77973
297.73246
297.70755
297.64791
297.54849
297.48886
297.51056
297.5624
297.59708
297.6577
297.81998
298.00179
298.1042
298.15714
298.18328
298.17746
298.10451
298.06964
298.04209
278.12428
278.04341
274.80202
264.7743
262.21839
261.27359
262.69978
262.51888
263.59303
263.94942
264.9199
265.71618
266.80975
268.03637
269.48488
271.24471
273.28157
275.7137
278.48972
281.60379
284.8774
288.09335
290.99687
293.41536
295.28151
296.61926
297.46561
297.91272
298.09138
298.11949
298.0592
297.96116
297.88066
297.83072
297.74224
297.62261
297.55129
297.55647
297.59999
297.62521
297.68676
297.86401
298.02029
298.10678
298.15296
298.17724
298.14982
298.08695
298.05962
298.03752
278.46689
278.41866
274.8064
264.47497
262.71395
261.82856
263.26736
263.11082
264.19616
264.59265
265.58277
266.42989
267.56246
268.856
270.37255
272.21965
274.3542
276.89099
279.76979
282.955
286.24258
289.3986
292.1793
294.44022
296.14686
297.3232
298.01307
298.33067
298.42345
298.38412
298.26922
298.12965
298.01933
297.94605
297.82946
297.69144
297.61061
297.59986
297.63468
297.65267
297.71985
297.90356
298.03597
298.10795
298.14681
298.17029
298.12304
298.07128
298.05087
298.03341
278.8067
278.80626
274.75358
264.25465
263.25189
262.40079
263.852
263.72261
264.8187
265.25833
266.26979
267.17103
268.34747
269.71258
271.30288
273.2415
275.47848
278.12158
281.09882
284.34129
287.62109
290.69414
293.33518
295.43253
296.97729
297.98288
298.5168
298.71898
298.73466
298.62939
298.46363
298.28609
298.14875
298.05379
297.91045
297.75561
297.66504
297.64189
297.66674
297.68032
297.75889
297.93665
298.04925
298.10851
298.13946
298.16018
298.09868
298.05772
298.04325
298.0297
279.13838
279.20249
274.64328
264.13064
263.80928
262.98983
264.45353
264.35477
265.46173
265.94779
266.98325
267.94282
269.16818
270.60959
272.27921
274.31325
276.65694
279.40664
282.47504
285.75745
289.00564
291.9732
294.46073
296.39163
297.76568
298.59475
298.97834
299.08494
299.02263
298.85592
298.6432
298.43103
298.26947
298.15442
297.98601
297.81565
297.71393
297.68233
297.69697
297.70828
297.80182
297.96379
298.05953
298.10833
298.13412
298.14396
298.07778
298.04623
298.03657
298.02626
279.45576
279.60616
274.48305
264.10147
264.39089
263.59722
265.07333
265.00856
266.12704
266.66352
267.72652
268.74912
270.02889
271.54994
273.30479
275.43789
277.89187
280.74661
283.89538
287.19716
290.38854
293.2297
295.55346
297.31526
298.50493
299.15683
299.40694
299.42616
299.28847
299.06462
298.80874
298.5652
298.38196
298.24839
298.05641
297.87105
297.75861
297.71985
297.7264
297.73755
297.8449
297.98672
298.06683
298.10767
298.13207
298.12124
298.06068
298.03655
298.03077
298.02314
279.75303
280.01184
274.28541
264.18381
264.99637
264.2242
265.71249
265.68606
266.81738
267.4094
268.50372
269.59337
270.93241
272.5374
274.38286
276.61839
279.18526
282.14096
285.35547
288.65302
291.76192
294.45834
296.61163
298.19539
299.19113
299.67033
299.81024
299.74077
299.5329
299.2564
298.96104
298.68923
298.4867
298.33614
298.12188
297.92221
297.79948
297.75339
297.75575
297.76758
297.88634
298.00616
298.07195
298.10606
298.13075
298.09728
298.04599
298.0282
298.02559
298.02014
280.04171
280.41354
274.06126
264.37803
265.62713
264.8728
266.37343
266.3914
267.53719
268.18993
269.31874
270.47881
271.88188
273.57479
275.5165
277.85782
280.53862
283.58799
286.84956
290.11683
293.1183
295.65494
297.63334
299.02382
299.82157
300.14532
300.1855
300.03001
299.75712
299.43225
299.10096
298.80382
298.58416
298.41808
298.1825
297.96912
297.837
297.784
297.78444
297.79474
297.92408
298.02284
298.07599
298.10304
298.12614
298.07548
298.03358
298.02069
298.02071
298.01728
280.31746
280.79871
273.83131
264.6844
266.2827
265.54736
267.06136
267.12993
268.2916
269.0083
270.17435
271.40822
272.88071
274.66472
276.7089
279.15926
281.95273
285.08456
288.37054
291.57988
294.45084
296.81618
298.61209
299.79429
300.39653
300.59039
300.53092
300.29484
299.9622
299.59313
299.22927
298.90958
298.67481
298.49453
298.23819
298.01163
297.87115
297.81282
297.81282
297.82714
297.9555
298.03684
298.08004
298.10041
298.11727
298.05682
298.02253
298.01411
298.01683
298.01497
280.59041
281.15942
273.62245
265.10134
266.96866
266.25511
267.78186
267.90561
269.08276
269.86638
271.07287
272.38465
273.93223
275.81064
277.9636
280.52554
283.42723
286.62585
289.91008
293.03346
295.75383
297.93979
299.5382
300.50356
300.92516
301.00456
300.84729
300.5367
300.14935
299.74004
299.3468
299.00717
298.75912
298.56581
298.28873
298.04982
297.90255
297.84067
297.84137
297.86556
297.98043
298.04779
298.08287
298.09986
298.10299
298.04158
298.01344
298.00891
298.01336
298.01256
280.87469
281.48695
273.46132
265.60501
267.69138
266.9999
268.53678
268.71801
269.91096
270.76558
272.01762
273.41163
275.03981
277.01749
279.28437
281.95871
284.96022
288.20533
291.45886
294.46916
297.02235
299.02155
300.40222
301.15019
301.41741
301.38572
301.13588
300.75687
300.31972
299.87392
299.45431
299.0972
298.8376
298.63221
298.3338
298.08396
297.93176
297.86805
297.86949
297.90153
298.00169
298.05669
298.08501
298.10085
298.08297
298.0287
298.00605
298.00447
298.01015
298.0105
281.18921
281.77574
273.37765
266.11547
268.44737
267.77948
269.32238
269.56808
270.77694
271.70917
273.01335
274.49344
276.20836
278.28993
280.67486
283.45978
286.54797
289.81475
293.00703
295.87948
298.25249
300.05088
301.20024
301.74067
301.8761
301.73363
301.39831
300.95683
300.4745
299.99573
299.55258
299.18029
298.91075
298.69408
298.3731
298.11453
297.95933
297.89507
297.89668
297.93582
298.01997
298.06413
298.08614
298.1019
298.06344
298.0174
297.99992
298.00076
298.00753
298.00868
281.52542
281.9955
273.36578
266.7181
269.22626
268.58998
270.13994
270.45757
271.68843
272.70187
274.06428
275.63427
277.44331
279.63312
282.13805
285.02813
288.18475
291.4444
294.54459
297.25755
299.44031
301.01695
301.92883
302.28623
302.29856
302.05
301.63614
301.13793
300.61479
300.10635
299.64234
299.25704
298.97904
298.75157
298.40654
298.14209
297.98575
297.92194
297.92288
297.96738
298.03557
298.07059
298.08643
298.10148
298.04658
298.00797
297.99503
297.99779
298.00517
298.00697
281.8959
282.14551
273.44704
267.47983
270.03558
269.4413
270.9965
271.3948
272.6506
273.74887
275.17465
276.83829
278.75097
281.05157
283.67601
286.66133
289.86284
293.08365
296.06219
298.5974
300.5777
301.912
302.59064
302.79509
302.68307
302.3366
301.8511
301.30162
300.74176
300.20673
299.72431
299.32805
299.04272
298.80428
298.43467
298.16725
298.01149
297.94909
297.94855
297.99492
298.04791
298.07548
298.08784
298.09203
298.03296
298.00055
297.99097
297.99525
298.00312
298.00533
282.30962
282.23416
273.62738
268.26385
270.88393
270.3404
271.89871
272.38391
273.66781
274.85388
276.34938
278.11295
280.13451
282.54918
285.28944
288.35472
291.57255
294.72117
297.55126
299.89397
301.65178
302.73196
303.19736
303.26406
303.03184
302.59529
302.04481
301.44921
300.85644
300.29767
299.7992
299.39383
299.10182
298.85105
298.45893
298.19068
298.03694
297.97675
297.97459
298.01767
298.0579
298.0789
298.0891
298.08152
298.02208
297.9944
297.98765
297.99301
298.00137
298.00404
282.78037
282.26831
273.91015
269.10191
271.77676
271.29215
272.85163
273.42758
274.74378
276.02166
277.59371
279.4635
281.59971
284.12926
286.97713
290.10109
293.30245
296.34565
299.00389
301.14127
302.65049
303.47534
303.76141
303.69083
303.34669
302.82806
302.21898
301.58208
300.95991
300.38005
299.86768
299.45485
299.15634
298.89125
298.48074
298.2131
298.06239
298.00426
298.00016
298.03608
298.06636
298.08198
298.0906
298.06511
298.01237
297.98884
297.98485
297.99129
297.99993
298.00305
283.31546
282.22128
274.30597
269.98541
272.71224
272.29808
273.85819
274.52977
275.88376
277.25878
278.91535
280.89536
283.15152
285.79393
288.73537
291.8907
295.03996
297.94634
300.41269
302.32569
303.56865
304.15255
304.28161
304.07685
303.62984
303.03681
302.37517
301.70145
301.05313
300.45462
299.93039
299.51148
299.20633
298.92568
298.50057
298.23505
298.08761
298.03072
298.0233
298.05148
298.07397
298.08586
298.09286
298.05034
298.00368
297.98401
297.98234
297.98991
297.99861
298.00221
283.93816
282.09233
274.8129
270.94192
273.69146
273.36302
274.92194
275.6952
277.09474
278.57337
280.32265
282.4151
284.79449
287.54315
290.55746
293.7115
296.77188
299.51314
301.771
303.43379
304.40244
304.77667
304.75601
304.42433
303.88359
303.22358
302.51502
301.80861
301.13709
300.52219
299.98793
299.56406
299.25187
298.95502
298.51931
298.25679
298.11222
298.05556
298.04413
298.06404
298.08009
298.09072
298.09243
298.03627
297.99631
297.98032
297.98086
297.98872
297.99773
298.00168
284.66929
281.90554
275.42929
271.96471
274.71772
274.48921
276.04882
276.93148
278.38598
279.97381
281.82282
284.03191
286.53182
289.37376
292.43361
295.54967
298.48526
301.03635
303.06796
304.4553
305.15733
305.35346
305.18379
304.73579
304.11021
303.39022
302.64
301.90469
301.21268
300.58345
300.04085
299.61288
299.29318
298.98018
298.53751
298.27825
298.13582
298.07832
298.06333
298.07516
298.08431
298.09347
298.08626
298.02436
297.99049
297.97754
297.97977
297.98814
297.9972
298.0012
285.54178
281.6832
276.15019
273.05603
275.79823
275.68537
277.24921
278.24904
279.76851
281.4698
283.42641
285.75061
288.36332
291.27909
294.35118
297.39036
300.16794
302.50735
304.28747
305.3855
305.84732
305.88005
305.56796
305.0139
304.31206
303.53867
302.7516
301.99083
301.2808
300.63913
300.08965
299.6582
299.33057
299.00209
298.55556
298.29908
298.15782
298.09882
298.08074
298.08584
298.08926
298.09526
298.07335
298.01536
297.98587
297.97528
297.97897
297.98777
297.9967
298.0008
286.53752
281.47528
276.98281
274.22498
276.94282
276.96358
278.53688
279.66008
281.25347
283.06975
285.14094
287.57391
290.28538
293.24902
296.29522
299.21827
301.80803
303.91661
305.41475
306.22435
306.48501
306.35365
305.91118
305.26129
304.49134
303.67064
302.85117
302.06807
301.34223
300.68986
300.13479
299.70027
299.3644
299.02157
298.57362
298.3191
298.17816
298.11695
298.09592
298.09548
298.09702
298.09701
298.06058
298.00716
297.9823
297.97387
297.97854
297.98751
297.99627
298.00043
287.6356
281.24994
277.96415
275.49904
278.16827
278.33623
279.92554
281.17688
282.8512
284.78307
286.96705
289.50031
292.29109
295.27026
298.24905
301.01841
303.39378
305.24633
306.44382
306.98613
307.06683
306.77796
306.2166
305.48075
304.65031
303.78792
302.94006
302.13743
301.39779
300.73626
300.1767
299.73936
299.39507
299.03916
298.5918
298.3385
298.19748
298.13357
298.10968
298.10269
298.1022
298.09746
298.04691
298.00005
297.97947
297.973
297.97834
297.98733
297.99589
298.00011
288.94641
281.04107
279.04087
276.87517
279.49066
279.81756
281.42857
282.80955
284.56731
286.61208
288.90556
291.52646
294.3704
297.32665
300.19497
302.77607
304.9138
306.47957
307.37066
307.68735
307.5898
307.15582
306.48731
305.67488
304.79104
303.89211
303.01948
302.19984
301.4482
300.77889
300.21574
299.77572
299.42296
299.05522
298.61022
298.35763
298.21668
298.14957
298.12106
298.10906
298.10454
298.09441
298.03485
297.99419
297.97723
297.97239
297.97823
297.98723
297.99564
297.99988
290.42326
280.86212
280.2447
278.36826
280.92361
281.41873
283.05574
284.56473
286.40627
288.55671
290.95539
293.64645
296.50956
299.39941
302.11491
304.47655
306.35161
307.60609
308.20861
308.3263
308.05688
307.491
306.72658
305.84636
304.91562
303.98478
303.09064
302.25621
301.49419
300.81832
300.25229
299.80964
299.44847
299.07015
298.6292
298.37654
298.23513
298.1643
298.1315
298.11494
298.10563
298.08626
298.02576
297.98958
297.97544
297.97197
297.97825
297.98726
297.9955
297.99972
292.03006
280.7557
281.57634
279.99482
282.47808
283.14311
284.81063
286.44411
288.37026
290.62229
293.11521
295.85044
298.69066
301.46764
303.99085
306.10563
307.6873
308.62093
308.97454
308.90023
308.47148
307.78703
306.93749
305.99763
305.02592
304.06737
303.15459
302.30737
301.53638
300.85502
300.28666
299.84136
299.47201
299.08441
298.64898
298.39514
298.25257
298.17753
298.14072
298.12105
298.10644
298.07729
298.0181
297.98597
297.9741
297.97189
297.97843
297.98739
297.99544
297.99962
293.74279
280.78364
283.02788
281.7492
284.15448
284.9908
286.69547
288.44923
290.4703
292.81417
295.37987
298.12311
300.892
303.50955
305.8049
307.647
308.90658
309.53436
309.67129
309.41089
308.83795
308.04778
307.12319
306.13115
305.12382
304.14129
303.21242
302.35414
301.57544
300.88947
300.31918
299.87117
299.49397
299.09845
298.66971
298.41344
298.26904
298.18952
298.14835
298.12549
298.10656
298.06619
298.01161
297.98308
297.97308
297.97199
297.9787
297.98758
297.99544
297.99957
295.42047
281.07304
284.61788
283.63186
285.95683
286.96635
288.71846
290.59217
292.71591
295.13223
297.73674
300.44252