/*--------------------------------*- C++ -*----------------------------------*\
  =========                 |
  \\      /  F ield         | OpenFOAM: The Open Source CFD Toolbox
   \\    /   O peration     | Website:  https://openfoam.org
    \\  /    A nd           | Version:  8
     \\/     M anipulation  |
\*---------------------------------------------------------------------------*/
FoamFile
{
    version     2.0;
    format      ascii;
    class       volVectorField;
    location    "0.269994";
    object      U;
}
// * * * * * * * * * * * * * * * * * * * * * * * * * * * * * * * * * * * * * //

dimensions      [0 1 -1 0 0 0 0];

internalField   nonuniform List<vector> 
20000
(
(257.32645 2.6536633e-16 9.2039134)
(299.29178 -1.863659e-16 11.132182)
(326.02466 1.5015789e-16 12.002392)
(348.56982 -1.2745123e-16 12.721218)
(368.96149 -6.6674233e-21 13.301362)
(386.99231 -7.4043632e-19 13.743717)
(397.46072 5.8961549e-19 13.558292)
(399.72713 1.0193927e-18 14.010005)
(398.49783 8.5418831e-19 13.269173)
(399.03115 0 14.002197)
(398.02111 1.1858376e-18 12.944372)
(398.04955 0 13.796473)
(397.11501 -1.4831512e-17 12.629632)
(396.68943 1.0930597e-17 13.366742)
(395.63415 9.1653279e-18 12.23826)
(394.72349 -3.7732639e-18 12.686733)
(393.34894 0 11.640484)
(391.84003 3.3096083e-18 11.698135)
(389.89669 5.5244275e-18 10.674601)
(387.58184 -4.5555738e-18 10.284665)
(384.74456 1.5221727e-18 9.1545308)
(381.29906 -8.987472e-18 8.2829996)
(377.1461 6.241958e-18 6.9138137)
(372.13475 -1.4069637e-17 5.584387)
(366.18274 -2.0446158e-17 3.9739608)
(359.16045 0 2.4159172)
(351.06261 2.79573e-17 0.91390535)
(341.93975 1.3328363e-17 -0.23052525)
(332.02416 4.897852e-17 -0.9069625)
(321.68702 -1.7015558e-17 -1.0563834)
(311.49849 2.8523944e-17 -0.83297488)
(302.06143 -2.1982552e-17 -0.41630156)
(293.81517 1.7884269e-17 0.047042513)
(286.90016 -4.4950672e-17 0.48282329)
(281.26893 1.8454382e-17 0.85614458)
(276.76415 2.0415437e-18 1.1327067)
(273.19914 0 1.3080731)
(270.40359 -7.4589244e-17 1.3950924)
(268.23571 2.7945104e-17 1.4075355)
(266.54419 -1.243374e-16 1.3514435)
(265.20567 -1.542944e-17 1.2401571)
(264.16479 4.5288921e-17 1.1004631)
(263.36126 -3.3383374e-17 0.95520072)
(262.74399 1.2293358e-17 0.82056242)
(262.25244 5.426259e-17 0.65049775)
(261.84053 1.2146006e-16 0.38721022)
(261.28189 -8.0759822e-17 0.088338843)
(260.92232 -7.639359e-18 -0.10182349)
(260.67472 1.1564905e-17 -0.25582883)
(260.41422 -4.174701e-17 -0.55954379)
(257.49156 -2.6887079e-16 8.1881591)
(299.66858 1.8979664e-16 9.9489772)
(326.50819 2.9863842e-19 10.692659)
(349.13789 1.0156291e-18 11.307666)
(369.58248 -1.1142424e-16 11.801429)
(387.61666 9.5493785e-17 12.166536)
(397.32494 -7.858734e-17 11.912069)
(399.33387 6.5237149e-17 12.404599)
(398.05423 2.868716e-17 11.599289)
(398.60175 -2.5966145e-17 12.39769)
(397.55313 -1.2044892e-18 11.257272)
(397.58151 -2.0110874e-17 12.173864)
(396.6106 1.505667e-17 10.922503)
(396.16799 -1.1193482e-17 11.705761)
(395.0733 1.3957674e-17 10.502852)
(394.12627 5.8491497e-18 10.969995)
(392.70219 -8.0958415e-18 9.8611496)
(391.13508 -5.3805899e-18 9.9086108)
(389.12286 0 8.8285773)
(386.7237 0 8.4033247)
(383.78912 0 7.216156)
(380.22879 -1.0466717e-17 6.2919592)
(375.94589 8.5162712e-18 4.8640304)
(370.79222 -2.4026787e-19 3.478156)
(364.69324 -1.232421e-17 1.8191963)
(357.54053 -3.946011e-17 0.22783819)
(349.36232 -3.2314858e-17 -1.2761401)
(340.26189 0 -2.3793506)
(330.51004 -4.3471074e-17 -2.9570012)
(320.47107 -1.8013712e-17 -2.9403864)
(310.63295 1.3960703e-17 -2.4828684)
(301.50351 0 -1.7888198)
(293.4755 0 -1.0460433)
(286.70163 -2.8176557e-17 -0.36218134)
(281.15768 2.1341558e-17 0.21602639)
(276.7064 0 0.6540626)
(273.17142 0 0.95332198)
(270.39535 5.6255613e-17 1.134285)
(268.23778 1.3965492e-17 1.2168274)
(266.55066 8.3279844e-17 1.2114728)
(265.21367 0 1.1374575)
(264.17296 0 1.0261843)
(263.36859 0 0.9015334)
(262.74929 1.7214937e-16 0.78172709)
(262.25777 9.0668302e-17 0.62571885)
(261.83307 -9.3983337e-17 0.36408415)
(261.26701 2.4040946e-16 0.067516429)
(260.89685 -7.5419962e-18 -0.11216771)
(260.61414 0 -0.25951825)
(260.44085 1.0929961e-16 -0.53420557)
(257.30163 0 7.1409817)
(299.71405 0 8.7523382)
(326.75083 0 9.3948472)
(349.5465 -1.0341043e-18 9.9215084)
(370.09627 0 10.330003)
(388.17406 0 10.613517)
(397.1087 -1.2589547e-18 10.277968)
(398.89858 0 10.801272)
(397.57459 -3.0114114e-17 9.9221256)
(398.13649 2.6452054e-17 10.779943)
(397.05015 1.9697672e-17 9.553992)
(397.07665 4.1424408e-18 10.527506)
(396.07015 -1.363997e-17 9.1950895)
(395.60836 0 10.016233)
(394.47502 -7.12176e-18 8.7452475)
(393.49006 -5.9272705e-18 9.2226657)
(392.01672 -8.2944879e-18 8.0569718)
(390.39014 1.3670099e-18 8.0871649)
(388.30894 0 6.9546399)
(385.82394 0 6.4892305)
(382.79127 0 5.2475235)
(379.11292 4.2416531e-17 4.2685068)
(374.69654 0 2.7846486)
(369.39294 0 1.3449938)
(363.13688 9.6895423e-17 -0.35420776)
(355.83724 1.2045381e-16 -1.9648325)
(347.55606 0 -3.4479117)
(338.44364 -1.3840269e-17 -4.4815318)
(328.80827 -7.8285414e-17 -4.93474)
(319.01626 -1.4449747e-16 -4.740704)
(309.49937 1.0138557e-16 -4.0566855)
(300.68432 1.1314105e-17 -3.1047586)
(292.90874 1.6361166e-16 -2.1025933)
(286.31751 2.1227897e-16 -1.1853382)
(280.89934 -1.7433123e-16 -0.41159944)
(276.53571 3.341868e-17 0.18215124)
(273.06038 2.551946e-19 0.60175248)
(270.32574 -3.2120642e-16 0.87432153)
(268.19375 0 1.025269)
(266.52118 3.3459509e-16 1.0697165)
(265.1935 0 1.0325812)
(264.15926 3.6387629e-16 0.94970034)
(263.35881 0 0.84614611)
(262.74031 -1.9651275e-16 0.74098027)
(262.24956 -1.4463927e-16 0.59801637)
(261.80351 1.3372296e-17 0.33754142)
(261.23465 1.4908634e-16 0.044310434)
(260.86247 0 -0.12406891)
(260.58998 -1.8192032e-16 -0.26309303)
(260.4508 -7.3023682e-17 -0.51207001)
(257.15878 -1.0942413e-18 6.0843347)
(299.81958 -9.8861653e-17 7.5323557)
(327.03802 8.1010897e-17 8.0667858)
(349.9837 -6.76814e-17 8.4970266)
(370.61512 -4.7697871e-20 8.8127108)
(388.7033 9.8421868e-17 9.0136057)
(396.82062 -4.1093251e-17 8.6056913)
(398.4263 0 9.1661526)
(397.05696 0 8.2133729)
(397.63107 0 9.1358515)
(396.50562 0 7.8243002)
(396.52894 8.3560464e-18 8.8591055)
(395.4856 0 7.4446194)
(395.00341 2.9072729e-18 8.305368)
(393.82979 -3.019461e-18 6.9655117)
(392.8051 1.464198e-17 7.4535727)
(391.28048 1.509572e-17 6.2312101)
(389.59205 0 6.2442053)
(387.43913 -4.6992907e-18 5.0602903)
(384.86495 4.2896032e-17 4.5552861)
(381.73026 -6.4207362e-18 3.26117)
(377.92892 -3.2100864e-17 2.2294496)
(373.37314 5.4042795e-17 0.69376648)
(367.9123 -3.736339e-17 -0.7939639)
(361.49114 -6.137175e-17 -2.5241431)
(354.03599 6.8933933e-19 -4.1400938)
(345.64387 0 -5.5829936)
(336.50975 1.4099498e-17 -6.525171)
(326.97697 1.0201787e-16 -6.8355632)
(317.41464 -1.8890841e-17 -6.4564252)
(308.20938 -1.1726365e-16 -5.5523753)
(299.71655 1.8720952e-16 -4.3591877)
(292.21693 -4.4090396e-16 -3.1163667)
(285.83701 -4.8583821e-16 -1.9810006)
(280.57101 1.7545762e-16 -1.0222723)
(276.31554 -1.7061792e-17 -0.2795266)
(272.91499 -3.5508323e-16 0.25627189)
(270.23229 2.8524058e-16 0.61786764)
(268.13346 -4.818043e-16 0.83555967)
(266.48101 -3.1490952e-16 0.92899265)
(265.1664 5.2660114e-16 0.92836808)
(264.14108 -4.0988697e-16 0.87365075)
(263.34625 -5.3494687e-16 0.79148388)
(262.7302 4.0469407e-16 0.70135913)
(262.23841 0 0.5698169)
(261.76258 4.251409e-16 0.31099591)
(261.19413 -3.2513092e-16 0.021768822)
(260.82852 -7.3861024e-18 -0.13524083)
(260.57352 1.8450302e-16 -0.26548096)
(260.45998 4.3229489e-18 -0.48837284)
(257.01015 -1.4158532e-16 5.025224)
(299.90886 -1.0087757e-16 6.2909671)
(327.30924 -1.3083862e-18 6.7204769)
(350.40912 -2.2055155e-18 7.0545511)
(371.11735 5.9179004e-17 7.2722557)
(389.18206 0 7.3900753)
(396.45221 0 6.9145292)
(397.90949 -4.39551e-18 7.5153428)
(396.49669 1.4713633e-17 6.4880315)
(397.08232 3.0735479e-20 7.4750801)
(395.9179 -1.0194204e-17 6.075003)
(395.93673 -8.483697e-18 7.1706356)
(394.85585 0 5.6734558)
(394.35122 -1.1843935e-17 6.5722545)
(393.13588 1.2367755e-18 5.164646)
(392.06892 -1.3301856e-17 5.6615496)
(390.49086 -3.0886342e-17 4.3844555)
(388.73735 -2.2899558e-17 4.3785918)
(386.50926 0 3.1452881)
(383.84158 -5.5453083e-17 2.6000313)
(380.5997 -6.5442573e-18 1.2557295)
(376.66908 4.4119445e-17 0.17236326)
(371.96628 -7.2883906e-17 -1.4114093)
(366.33964 7.5938527e-17 -2.9422216)
(359.74431 -1.2387381e-17 -4.6942778)
(352.12572 -7.2443879e-17 -6.3015319)
(343.61705 -2.5926472e-17 -7.6846294)
(334.45626 -9.9586338e-17 -8.5132931)
(325.01778 0 -8.6618649)
(315.67261 1.2950077e-16 -8.0879985)
(306.76991 -4.767664e-19 -6.9670993)
(298.60269 -3.910916e-16 -5.5462035)
(291.39609 3.1522783e-16 -4.0801253)
(285.25082 2.5981702e-16 -2.7423294)
(280.16043 -2.1989284e-17 -1.6103768)
(276.03357 0 -0.72673071)
(272.72442 4.0830451e-16 -0.080151743)
(270.10588 0 0.36684599)
(268.04918 4.8394095e-16 0.64882871)
(266.4234 -4.2113543e-17 0.78983531)
(265.12664 1.5587793e-17 0.82498249)
(264.11368 2.2825981e-17 0.79795576)
(263.32702 5.180012e-16 0.73724166)
(262.71582 -4.1617555e-16 0.66244714)
(262.22173 1.7934075e-17 0.54000066)
(261.70476 -4.2255143e-16 0.28376481)
(261.14329 0 5.1140645e-05)
(260.79683 0 -0.14538107)
(260.56441 5.5000299e-18 -0.26702319)
(260.46699 -6.3333749e-18 -0.46465162)
(256.86341 0 3.9685895)
(299.99886 -1.610462e-18 5.0223613)
(327.57852 4.1568111e-17 5.3401217)
(350.83346 -6.8290242e-17 5.5804692)
(371.61311 6.0407189e-17 5.695166)
(389.60354 -2.2308914e-17 5.7327372)
(396.00637 -2.1376314e-17 5.1963871)
(397.352 2.2326959e-17 5.8408378)
(395.8962 7.4983588e-18 4.7377762)
(396.49156 0 5.7920889)
(395.28756 0 4.3026761)
(395.30001 0 5.4601904)
(394.18039 -4.5275052e-19 3.8806634)
(393.65115 1.2392818e-17 4.8166604)
(392.39243 2.0136782e-17 3.3427184)
(391.28058 0 3.847093)
(389.6465 -1.315955e-19 2.5171274)
(387.82427 4.0706115e-17 2.4909829)
(385.51683 3.3961908e-17 1.2102306)
(382.75054 7.8281274e-18 0.62434131)
(379.39516 0 -0.76793545)
(375.32767 -4.4677146e-17 -1.9015926)
(370.46891 -9.4407696e-18 -3.5294433)
(364.66692 7.6276924e-18 -5.0977341)
(357.88811 9.0193324e-17 -6.8618109)
(350.09971 1.9215134e-16 -8.4454666)
(341.47296 -8.5852368e-18 -9.7488475)
(332.28766 9.9873213e-17 -10.442633)
(322.94504 1.1468871e-17 -10.411703)
(313.8149 0 -9.6341397)
(305.21202 -2.4301803e-16 -8.2987234)
(297.37368 1.672455e-16 -6.6620182)
(290.47223 1.8555554e-17 -4.9889999)
(284.57907 4.6740322e-16 -3.4644573)
(279.68265 0 -2.1717481)
(275.70072 0 -1.1562028)
(272.49636 0 -0.40509426)
(269.95201 0 0.12303383)
(267.94497 4.5759974e-16 0.46639487)
(266.35156 0 0.65320721)
(265.07677 -4.9767756e-16 0.72312983)
(264.07903 7.5302331e-16 0.72310393)
(263.30271 4.0463372e-20 0.68358203)
(262.69883 -1.2198879e-17 0.62412227)
(262.2016 -1.7898936e-17 0.50823452)
(261.63185 1.3108838e-17 0.25608471)
(261.08583 0 -0.020050362)
(260.76559 1.4397542e-17 -0.15399786)
(260.55654 -3.5690521e-16 -0.26766965)
(260.47352 0 -0.44070402)
(256.71539 2.3237714e-18 2.8472182)
(300.08223 1.6373312e-18 3.7616507)
(327.83956 4.5073102e-17 3.936704)
(351.25237 2.4723538e-20 4.0833027)
(372.10242 -3.0794976e-17 4.0890452)
(389.94697 -3.2417115e-18 4.0527711)
(395.48034 0 3.4572017)
(396.75264 9.1134239e-18 4.1480191)
(395.2547 -1.5220985e-17 2.9680863)
(395.8584 0 4.0906676)
(394.61452 1.0610066e-17 2.5094797)
(394.61877 0 3.7283947)
(393.45941 0 2.0667964)
(392.9035 2.1507142e-17 3.0387576)
(391.59992 -1.7870894e-17 1.5002587)
(390.4405 0 2.0103643)
(388.74762 7.0072038e-18 0.62947139)
(386.85273 -2.3585209e-17 0.58137049)
(384.46154 -8.3983846e-17 -0.74479673)
(381.59113 -3.3247566e-17 -1.3717594)
(378.11537 -1.3853272e-17 -2.8098003)
(373.90279 1.1291384e-17 -3.9923237)
(368.87852 0 -5.6599954)
(362.89129 0 -7.259669)
(355.92001 -1.0434627e-16 -9.0250691)
(347.95696 -1.7262863e-16 -10.569169)
(339.21356 0 -11.772344)
(330.01006 0 -12.310279)
(320.76963 -1.6731215e-16 -12.083224)
(311.857 2.7050536e-16 -11.093681)
(303.5538 2.6022986e-16 -9.5456396)
(296.04678 0 -7.7037924)
(289.45896 1.9190967e-17 -5.8391422)
(283.83091 -4.8555993e-16 -4.1432985)
(279.14309 -2.2728478e-17 -2.7026759)
(275.32 1.7050708e-17 -1.5648947)
(272.23231 0 -0.71623113)
(269.77135 1.9386426e-17 -0.11187263)
(267.82099 -4.7355832e-16 0.28948109)
(266.26531 0 0.51996004)
(265.0165 4.9864942e-16 0.62338995)
(264.03677 -7.3034897e-16 0.6494721)
(263.27297 -1.6698341e-17 0.63054837)
(262.67903 1.2168229e-17 0.58609231)
(262.17863 5.6974174e-16 0.47406638)
(261.54821 0 0.22781831)
(261.02318 1.9202697e-17 -0.038063976)
(260.73078 -4.6912531e-16 -0.16075582)
(260.54822 3.4032117e-16 -0.26730329)
(260.4802 0 -0.41662166)
(256.57595 7.5707036e-17 1.6324906)
(300.16309 -2.6755764e-17 2.5119751)
(328.0951 1.8940468e-17 2.5100916)
(351.66758 -4.1286548e-17 2.5624118)
(372.58783 3.1418523e-17 2.4515361)
(390.22743 1.7122247e-20 2.3497506)
(394.87422 -1.6631233e-17 1.6961946)
(396.1138 4.6308331e-18 2.4330735)
(394.57379 -1.9420627e-18 1.1748145)
(395.18362 1.6102694e-18 2.3678852)
(393.89931 -1.0760159e-17 0.69372657)
(393.89353 1.7988995e-17 1.97402)
(392.69358 0 0.23186413)
(392.10904 -2.4921968e-17 1.2387154)
(390.75905 0 -0.36234194)
(389.54909 -8.71988e-18 0.15129878)
(387.79428 3.6112643e-17 -1.2786101)
(385.82258 1.214727e-17 -1.3503042)
(383.34292 3.0159719e-17 -2.7197723)
(380.36243 -4.2748479e-19 -3.3883791)
(376.75868 0 -4.8700237)
(372.39212 0 -6.0997467)
(367.19227 0 -7.8025537)
(361.00963 0 -9.4267509)
(353.83738 -9.3806485e-17 -11.181646)
(345.69674 4.1000054e-19 -12.668911)
(336.84136 9.6120226e-18 -13.750688)
(327.63017 -1.4606097e-17 -14.112206)
(318.50303 2.1778268e-16 -13.673678)
(309.81505 -3.6558087e-17 -12.465084)
(301.8144 1.5338115e-17 -10.706621)
(294.64119 2.4869813e-17 -8.669712)
(288.37278 5.9806243e-16 -6.6279763)
(283.01905 4.7701977e-16 -4.7759211)
(278.55082 2.2918536e-17 -3.2003407)
(274.89761 -1.7181104e-17 -1.9503869)
(271.93638 0 -1.0116482)
(269.56661 0 -0.33642736)
(267.67902 -9.2240828e-16 0.11916977)
(266.16586 -7.014853e-16 0.39087736)
(264.94666 -4.8361547e-16 0.52630785)
(263.98747 -7.305586e-16 0.57744932)
(263.23823 1.0830757e-15 0.57825067)
(262.65661 -1.2133721e-17 0.54807984)
(262.15292 -5.6702768e-16 0.43743194)
(261.46096 8.2927889e-16 0.19856503)
(260.95625 6.0855681e-16 -0.05390193)
(260.68958 9.1243092e-16 -0.16534351)
(260.53605 -5.2252237e-18 -0.26562937)
(260.48824 -5.0920992e-16 -0.39234728)
(256.43906 -2.4070274e-18 0.45670373)
(300.242 -1.3646575e-17 1.2309868)
(328.34747 -5.8962805e-21 1.0573109)
(352.07921 1.4023636e-17 1.0199277)
(373.07082 0 0.78571951)
(390.43406 5.0544954e-18 0.62590254)
(394.19438 1.4111335e-18 -0.083665493)
(395.43406 0 0.69657544)
(393.85282 3.9537047e-18 -0.64277494)
(394.46694 -3.2779955e-18 0.62373868)
(393.14227 0 -1.143177)
(393.12504 7.8501341e-20 0.19815197)
(391.88395 0 -1.6229127)
(391.26865 -6.3747225e-18 -0.58304636)
(389.87033 5.2863178e-18 -2.2449258)
(388.60649 0 -1.7303887)
(386.78646 -7.4155529e-18 -3.2072299)
(384.73366 1.8485539e-17 -3.3041833)
(382.16054 -1.0183023e-17 -4.7148152)
(379.06347 -4.5380913e-19 -5.4257913)
(375.32355 -1.1438501e-16 -6.9488655)
(370.79366 0 -8.2238366)
(365.40783 0 -9.9565813)
(359.01965 1.4860614e-16 -11.597508)
(351.63892 9.5050359e-17 -13.32874)
(343.32002 -1.6974441e-16 -14.740489)
(334.36061 9.7920157e-18 -15.679028)
(325.15577 -2.7456335e-16 -15.844105)
(316.15639 1.2095325e-17 -15.180168)
(307.70314 -3.1638815e-16 -13.74686)
(300.0098 -5.078143e-16 -11.780815)
(293.1728 2.5173804e-17 -9.5586806)
(287.22751 -6.4075018e-16 -7.3538081)
(282.1542 -4.4997693e-16 -5.360208)
(277.91353 2.9483743e-19 -3.6625443)
(274.43878 -1.7307183e-17 -2.3106811)
(271.61202 7.8549265e-16 -1.2897018)
(269.33999 3.8876796e-17 -0.54935438)
(267.52045 8.9602753e-16 -0.043561606)
(266.05407 7.026574e-16 0.2666849)
(264.86776 0 0.4323946)
(263.93148 1.4605651e-15 0.50743343)
(263.19871 1.9041519e-19 0.52693351)
(262.63118 -2.4238387e-17 0.50986814)
(262.12217 -4.2285356e-20 0.39872114)
(261.37524 1.3119149e-17 0.16796324)
(260.88824 1.6975751e-19 -0.0679336)
(260.64208 -4.5732204e-16 -0.16767885)
(260.51541 1.0280502e-17 -0.26213144)
(260.49914 4.9412181e-16 -0.36780991)
(256.29656 2.4575185e-18 -0.75727163)
(300.31843 3.4840884e-18 -0.069585411)
(328.59851 -5.629031e-18 -0.42362191)
(352.48722 -4.784652e-18 -0.55403658)
(373.55342 8.1667274e-18 -0.91699939)
(390.56071 6.8697379e-18 -1.1246243)
(393.49473 -1.1506636e-17 -1.8850405)
(394.71398 1.4411239e-17 -1.0590983)
(393.09313 -8.0269468e-18 -2.4833767)
(393.70999 6.6911476e-18 -1.140971)
(392.34511 -5.5745033e-18 -2.9996656)
(392.31473 8.2845962e-20 -1.5984518)
(391.03153 3.1130444e-17 -3.4971534)
(390.38269 0 -2.4270322)
(388.93369 0 -4.1479432)
(387.61245 4.5155235e-17 -3.6351599)
(385.72387 3.768009e-17 -5.1564444)
(383.58554 6.270148e-17 -5.2803631)
(380.91346 0 -6.7301332)
(377.6927 7.8208733e-17 -7.4843393)
(373.8078 -2.2717561e-17 -9.0465509)
(369.10485 1.0906224e-16 -10.364411)
(363.52241 1.0204189e-17 -12.121317)
(356.91874 -2.9296163e-16 -13.770086)
(349.32325 -1.9554617e-16 -15.462936)
(340.82807 3.6794245e-16 -16.779001)
(331.77598 -3.1341223e-16 -17.55194)
(322.59495 5.1059801e-16 -17.501286)
(313.7408 3.910037e-16 -16.599616)
(305.53478 0 -14.937574)
(298.15492 5.1155243e-16 -12.767738)
(291.65654 2.5474167e-17 -10.370286)
(286.03643 -1.9462511e-17 -8.0157978)
(281.24707 0 -5.8948742)
(277.23918 7.6560169e-16 -4.0877736)
(273.9492 -5.9655961e-16 -2.644287)
(271.2631 -8.0204834e-16 -1.549098)
(269.0941 -1.9523832e-17 -0.74960863)
(267.34699 8.9931608e-16 -0.19788386)
(265.93106 -6.6170577e-16 0.14801863)
(264.78055 1.0003473e-15 0.34210774)
(263.86934 1.8888078e-19 0.43980423)
(263.15488 -1.0623445e-15 0.47700154)
(262.60208 0 0.47157056)
(262.08201 0 0.35878881)
(261.29402 -1.6348668e-15 0.13599814)
(260.82345 -5.9676346e-16 -0.080777151)
(260.59284 1.368411e-17 -0.1682934)
(260.48431 -6.5723917e-16 -0.25615033)
(260.51683 4.8700515e-16 -0.34283477)
(256.15443 0 -1.9946494)
(300.39632 -3.5371179e-18 -1.3989994)
(328.8517 -2.2957253e-17 -1.9209546)
(352.89383 2.4306205e-17 -2.1543639)
(374.03871 -2.0783997e-17 -2.6541561)
(390.60195 -1.0173187e-20 -2.9016768)
(392.75439 -1.1739432e-17 -3.7077548)
(393.9561 0 -2.8282404)
(392.29681 -1.4493084e-20 -4.3428666)
(392.91457 -2.7200842e-17 -2.9247966)
(391.50903 1.1393234e-17 -4.8751343)
(391.4631 9.5273283e-18 -3.4161574)
(390.13624 -6.3208227e-17 -5.3915622)
(389.45072 1.3208973e-17 -4.2942119)
(387.94866 4.416012e-17 -6.0718255)
(386.56663 -7.324045e-17 -5.5631632)
(384.6062 -8.3970535e-17 -7.126171)
(382.37756 -5.1023623e-17 -7.2790328)
(379.60036 8.5202969e-17 -8.766156)
(376.24814 8.7845842e-18 -9.564442)
(372.20895 2.3654966e-16 -11.163231)
(367.32288 1.3309497e-17 -12.521074)
(361.533 -1.0103167e-17 -14.295676)
(354.70429 1.3576602e-16 -15.942145)
(346.88943 4.5288091e-16 -17.58018)
(338.22291 -1.8625086e-16 -18.778915)
(329.09306 3.2611931e-16 -19.363588)
(319.95637 -2.6600231e-16 -19.078917)
(311.26725 -8.1636027e-16 -17.928993)
(303.32254 -3.0817468e-16 -16.035989)
(296.26323 -1.6030284e-17 -13.667268)
(290.10568 -2.5770037e-17 -11.104667)
(284.81145 6.3721829e-16 -8.6137837)
(280.3074 1.5180121e-17 -6.3793043)
(276.53523 1.7958209e-18 -4.4750803)
(273.43427 5.6409979e-16 -2.9501424)
(270.89341 8.4684726e-16 -1.7888471)
(268.83151 0 -0.93635147)
(267.16038 -9.0111645e-16 -0.34310274)
(265.79799 2.0304256e-15 0.035431411)
(264.6858 3.1674891e-17 0.25585954)
(263.8016 -7.5178819e-16 0.37490446)
(263.10725 0 0.42889011)
(262.56863 -7.6935044e-16 0.43363987)
(262.02786 1.7468558e-17 0.31868503)
(261.21801 -1.2889941e-17 0.1031527)
(260.7638 -1.1634797e-15 -0.092767576)
(260.54653 -1.3497714e-17 -0.16808811)
(260.44656 6.3617453e-16 -0.24761529)
(260.54327 -4.7645472e-16 -0.31706031)
(256.01336 4.0812727e-17 -3.1667881)
(300.48016 -2.8895628e-17 -2.7770481)
(329.10797 -1.7557681e-17 -3.4306033)
(353.30148 8.4328267e-17 -3.7754481)
(374.52717 3.8332944e-20 -4.423447)
(390.55529 -1.41069e-17 -4.70624)
(391.97042 3.5754865e-17 -5.5586334)
(393.16207 -9.8953391e-18 -4.6143677)
(391.4645 3.3271201e-17 -6.2224132)
(392.08082 -5.140196e-20 -4.729651)
(390.63373 -1.152871e-17 -6.7712838)
(390.56943 -3.8507696e-17 -5.2566781)
(389.19728 3.2073964e-17 -7.3071735)
(388.4721 0 -6.1852836)
(386.91493 -4.4615028e-17 -8.0165189)
(385.46887 1.8467412e-17 -7.5142774)
(383.43296 1.5478362e-17 -9.1164376)
(381.10856 -5.2097156e-17 -9.3006106)
(378.21932 -8.6325631e-17 -10.823442)
(374.72731 0 -11.666486)
(370.52414 -1.0475047e-16 -13.298909)
(365.44456 -1.2504998e-16 -14.693217)
(359.43627 -3.1282849e-19 -16.478225)
(352.37354 1.4832877e-16 -18.110783)
(344.33674 -4.6159754e-16 -19.675721)
(335.50715 3.7171928e-16 -20.734075)
(326.31802 9.6075594e-18 -21.107768)
(317.24911 0 -20.572096)
(308.74666 9.2396545e-18 -19.165412)
(301.07843 2.998952e-16 -17.041132)
(294.34717 -3.7363134e-19 -14.47967)
(288.53234 1.2785292e-17 -11.762482)
(283.56352 -6.4133852e-16 -9.1482118)
(279.34431 9.898859e-16 -6.8134919)
(275.80876 -1.4815381e-15 -4.8240459)
(272.89929 -1.7655761e-17 -3.2276046)
(270.50673 -8.4971905e-16 -2.008268)
(268.55484 1.9786725e-17 -1.1089605)
(266.96238 1.466829e-17 -0.47867066)
(265.65607 -1.4117003e-15 -0.070619093)
(264.58432 -1.98526e-15 0.17400798)
(263.72889 1.4793708e-15 0.3130167)
(263.05645 1.0407847e-15 0.38282792)
(262.5305 7.660343e-16 0.39631263)
(261.95822 -1.7367067e-17 0.27918058)
(261.14558 8.174448e-16 0.070296765)
(260.70883 2.3395821e-15 -0.10398181)
(260.50573 -8.6637283e-16 -0.1674807)
(260.41438 1.9543851e-17 -0.23714331)
(260.57608 -4.6970762e-16 -0.29039234)
(255.86542 0 -4.3406965)
(300.56894 0 -4.193775)
(329.37117 -5.9497921e-18 -4.9744665)
(353.71041 -5.0449513e-18 -5.430048)
(375.00844 3.4465339e-17 -6.2273007)
(390.41735 -3.5832665e-17 -6.5316363)
(391.14482 1.2150952e-17 -7.4377663)
(392.33059 -1.0084446e-17 -6.4212014)
(390.59506 6.1004993e-20 -8.1229295)
(391.20746 1.413329e-17 -6.5568514)
(389.71807 -4.7027312e-17 -8.6891678)
(389.63262 1.9436682e-17 -7.1212297)
(388.21397 0 -9.2441229)
(387.44662 -1.3662761e-17 -8.1001319)
(385.83256 -5.6970055e-17 -9.9815067)
(384.31892 -3.8075049e-17 -9.4885067)
(382.20315 6.3543972e-17 -11.12768)
(379.77672 5.2677976e-17 -11.34588)
(376.7679 -8.8491288e-17 -12.902698)
(373.12741 1.4768976e-16 -13.790806)
(368.75019 -1.076876e-16 -15.453461)
(363.46638 -1.2607844e-17 -16.880002)
(357.22857 0 -18.66713)
(349.92374 1.4401199e-16 -20.27245)
(341.66493 2.1892912e-16 -21.744071)
(332.68419 -3.624166e-16 -22.637762)
(323.45783 3.1171542e-16 -22.778048)
(314.48267 -1.6535283e-17 -21.976004)
(306.18993 4.3257563e-16 -20.306251)
(298.81386 -6.7745413e-16 -17.952374)
(292.41813 -5.5286542e-16 -15.205591)
(286.94746 -8.2641135e-16 -12.344829)
(282.3025 0 -9.6200229)
(278.3661 -1.9930432e-15 -7.1979315)
(275.06639 -1.8851032e-18 -5.1346994)
(272.34928 0 -3.4763958)
(270.10674 8.8129534e-16 -2.2069579)
(268.26667 -1.9740589e-17 -1.2670139)
(266.75481 -9.3487936e-16 -0.60418149)
(265.50653 0 -0.1697693)
(264.47692 9.9982356e-16 0.096854838)
(263.65189 -1.4537608e-15 0.25436963)
(263.00319 -1.0703791e-15 0.33875289)
(262.48785 1.1904767e-17 0.35914268)
(261.87431 1.7260889e-17 0.24062036)
(261.07444 -1.622222e-15 0.038385294)
(260.65937 -1.1484892e-15 -0.11439268)
(260.47361 1.6833346e-15 -0.16658546)
(260.39681 -1.2301033e-15 -0.22526909)
(260.61302 4.5969011e-16 -0.26313245)
(255.71125 -8.9920204e-17 -5.5438609)
(300.65656 3.7543133e-18 -5.617936)
(329.63932 4.8624108e-17 -6.5393723)
(354.12133 3.811191e-20 -7.109072)
(375.47146 4.2949576e-20 -8.0607586)
(390.18424 -3.6416195e-17 -8.3715357)
(390.27916 -6.1666586e-17 -9.3401188)
(391.46161 4.1053756e-17 -8.2484344)
(389.68749 1.7240383e-17 -10.045024)
(390.29339 0 -8.4072575)
(388.76114 -8.7860454e-21 -10.62959)
(388.65237 -1.9963949e-17 -9.0098686)
(387.18655 0 -11.201661)
(386.37472 2.765732e-17 -10.037936)
(384.70159 4.6159968e-17 -11.966509)
(383.11594 3.850539e-17 -11.486367)
(380.91498 -1.5798711e-17 -13.160789)
(378.37966 -1.9373643e-19 -13.415642)
(375.24335 1.0458871e-17 -15.004436)
(371.44534 -1.4917519e-16 -15.937466)
(366.88361 1.4018133e-16 -17.626507)
(361.38446 -1.2836858e-17 -19.080274)
(354.90605 -1.1015266e-17 -20.860044)
(347.35224 -2.7837566e-16 -22.422818)
(338.87435 2.5635065e-16 -23.778905)
(329.75829 -1.2125578e-17 -24.482701)
(320.52023 -3.2365139e-16 -24.367843)
(311.66701 0 -23.28601)
(303.60791 -4.3030207e-16 -21.34925)
(296.5397 6.8163781e-16 -18.769479)
(290.48666 5.2216305e-16 -15.846064)
(285.36098 1.7057726e-15 -12.853218)
(281.03732 -2.0586466e-17 -10.030607)
(277.38034 -3.4784007e-18 -7.5335674)
(274.31422 7.7366382e-16 -5.4074757)
(271.78897 0 -3.696576)
(269.69695 -8.5675301e-16 -2.3847776)
(267.96952 1.2716257e-15 -1.4102837)
(266.53942 9.0636611e-16 -0.71936983)
(265.35062 2.1375371e-17 -0.26175239)
(264.36446 0 0.024640213)
(263.57129 -2.2694177e-17 0.19915731)
(262.94827 1.6394702e-17 0.29647714)
(262.44126 0 0.32114181)
(261.77742 1.0963827e-15 0.20328587)
(261.0043 1.5959718e-15 0.008238767)
(260.61794 -2.6841959e-17 -0.12389341)
(260.45332 -8.1739159e-16 -0.16564021)
(260.38659 2.4186708e-15 -0.21215199)
(260.6522 0 -0.23568598)
(255.56145 5.371486e-18 -6.7714829)
(300.74804 -7.6270428e-18 -7.0631192)
(329.91773 -9.9028495e-17 -8.1328418)
(354.53865 7.861315e-17 -8.8201284)
(375.90762 0 -9.9349837)
(389.82758 -3.3932674e-20 -10.234835)
(389.37219 -5.0192801e-17 -11.270967)
(390.55294 4.1733185e-17 -10.103715)
(388.74061 -1.7443396e-17 -11.992678)
(389.33796 0 -10.281985)
(387.76338 -1.1413088e-19 -12.59116)
(387.62958 8.0996199e-17 -10.92138)
(386.11595 1.6962424e-17 -13.178481)
(385.2566 -1.4046397e-17 -11.99866)
(383.5212 -2.3645289e-17 -13.972189)
(381.85809 9.8349157e-17 -13.509169)
(379.566 -6.5347743e-17 -15.216907)
(376.91465 1.098399e-16 -15.510717)
(373.64265 -7.0126458e-19 -17.129123)
(369.67773 1.5310251e-16 -18.106447)
(364.92056 1.2778367e-16 -19.81754)
(359.19456 2.2671489e-16 -21.292679)
(352.46465 -1.0869206e-17 -23.054193)
(344.6567 -1.8707052e-17 -24.556877)
(335.96607 -2.2783884e-16 -25.773189)
(326.73467 0 -26.261201)
(317.51379 0 -25.870585)
(308.81249 5.5944426e-16 -24.497806)
(301.01132 4.1953657e-16 -22.292587)
(294.26631 0 -19.492628)
(288.56251 -1.7243059e-17 -16.402502)
(283.78188 -1.6705992e-15 -13.289526)
(279.77599 -6.6227575e-16 -10.381731)
(276.39386 1.9766968e-15 -7.8217127)
(273.5578 -7.4457255e-16 -5.6431462)
(271.22276 1.1548888e-15 -3.8884941)
(269.2807 -2.6948359e-17 -2.5418212)
(267.66583 -1.2534995e-15 -1.5387166)
(266.31796 -9.3750759e-16 -0.82410262)
(265.18956 0 -0.34639698)
(264.24777 -3.1226845e-17 -0.042458125)
(263.48783 2.2587759e-17 0.14755081)
(262.89234 -1.0467655e-15 0.25590955)
(262.39104 0 0.28151469)
(261.66921 -1.0886455e-15 0.16742756)
(260.93607 1.5704531e-15 -0.019358456)
(260.5854 1.1330337e-15 -0.13241738)
(260.44413 0 -0.16468318)
(260.38442 -1.1889346e-15 -0.19794458)
(260.69154 8.6711099e-16 -0.20827594)
(255.40324 0 -8.0246663)
(300.83502 7.7631178e-18 -8.5385717)
(330.20088 0 -9.7634231)
(354.9634 8.5451557e-17 -10.570226)
(376.30294 -7.2246763e-17 -11.854063)
(389.35973 6.7633009e-17 -12.119537)
(388.4226 -5.0906942e-17 -13.224649)
(389.60494 0 -11.980127)
(387.75605 0 -13.961273)
(388.34325 -2.96352e-17 -12.177353)
(386.72668 2.4761495e-17 -14.570964)
(386.56552 -1.234999e-16 -12.854599)
(385.00235 1.7137717e-17 -15.174821)
(384.09115 2.8774675e-17 -13.983616)
(382.28926 2.4183072e-17 -16.00015)
(380.54272 2.0592631e-17 -15.558373)
(378.15339 -1.6567246e-17 -17.296974)
(375.37881 -1.2496027e-16 -17.631577)
(371.96263 -9.5128481e-19 -19.276976)
(367.82087 -1.4492756e-16 -20.297519)
(362.85674 -2.7541934e-16 -22.025801)
(356.89199 -2.0172185e-16 -23.515421)
(349.90018 0 -25.246083)
(341.8352 0 -26.668736)
(332.94216 0 -27.71914)
(323.61961 1.3060705e-17 -27.965235)
(314.44788 1.1062216e-17 -27.279829)
(305.92979 -5.6240044e-16 -25.607506)
(298.41077 4.4355798e-16 -23.134941)
(292.00355 0 -20.122471)
(286.65466 -1.7438352e-17 -16.87672)
(282.21828 1.7416619e-15 -13.65599)
(278.52567 -6.5007891e-16 -10.675498)
(275.41275 -1.0335468e-15 -8.0640009)
(272.80219 7.7095541e-16 -5.8427746)
(270.65469 -1.1578623e-15 -4.052755)
(268.86109 0 -2.6783933)
(267.35789 1.9981053e-17 -1.6524206)
(266.09209 9.5230024e-16 -0.91836937)
(265.02455 -2.137434e-17 -0.42362497)
(264.12771 3.1178938e-17 -0.10432438)
(263.40223 -4.5106073e-17 0.099682706)
(262.83555 1.0423207e-15 0.21708879)
(262.33607 1.1723852e-17 0.24035966)
(261.55286 -1.0815827e-15 0.13302341)
(260.87051 -1.531883e-15 -0.043786566)
(260.55955 -1.1379089e-15 -0.13960288)
(260.44209 1.6033092e-15 -0.16360477)
(260.38711 -1.1597544e-15 -0.18273418)
(260.73335 -8.4909996e-16 -0.18109167)
(255.23547 4.9009392e-20 -9.2968364)
(300.92101 -2.5277307e-16 -10.032824)
(330.49297 1.0257873e-16 -11.418919)
(355.4034 5.4228322e-18 -12.351693)
(376.64766 0 -13.813866)
(388.78301 0 -14.021501)
(387.43618 0 -15.196427)
(388.62199 2.1621076e-17 -13.871315)
(386.73678 -1.8102716e-17 -15.948728)
(387.3113 2.9963027e-17 -14.093336)
(385.65167 5.0338405e-17 -16.569853)
(385.4595 2.0868897e-17 -14.811143)
(383.84393 0 -17.192836)
(382.87579 8.7732654e-17 -15.99498)
(381.00288 -7.2738298e-17 -18.052063)
(379.167 5.4080653e-19 -17.63503)
(376.67444 0 -19.40155)
(373.76931 -9.943371e-17 -19.778483)
(370.19988 -1.2488961e-17 -21.448147)
(365.87062 -1.9958846e-17 -22.510342)
(360.68742 1.4747599e-16 -24.250279)
(354.47177 0 -25.7462)
(347.20851 0 -27.431392)
(338.88645 0 -28.75153)
(329.80576 2.5517152e-16 -29.60828)
(320.42055 4.345695e-16 -29.586587)
(311.33261 -3.227041e-17 -28.589404)
(303.02982 5.5977758e-16 -26.611743)
(295.81665 -4.3220733e-16 -23.875555)
(289.76076 -7.1530701e-16 -20.660144)
(284.77136 0 -17.270917)
(280.67747 -8.42992e-16 -13.955163)
(277.2927 -1.3738139e-15 -10.914292)
(274.44239 1.0117938e-15 -8.2623233)
(272.05188 -1.5176285e-15 -6.0076616)
(270.08844 1.1466005e-15 -4.1901758)
(268.441 0 -2.7949811)
(267.04788 0 -1.7516453)
(265.86341 0 -1.0022662)
(264.85671 -1.3700351e-15 -0.49344351)