/*--------------------------------*- C++ -*----------------------------------*\
  =========                 |
  \\      /  F ield         | OpenFOAM: The Open Source CFD Toolbox
   \\    /   O peration     | Website:  https://openfoam.org
    \\  /    A nd           | Version:  8
     \\/     M anipulation  |
\*---------------------------------------------------------------------------*/
FoamFile
{
    version     2.0;
    format      ascii;
    class       volVectorField;
    location    "0.269994";
    object      wallShearStress;
}
// * * * * * * * * * * * * * * * * * * * * * * * * * * * * * * * * * * * * * //

dimensions      [1 -1 -2 0 0 0 0];

internalField   uniform (0 0 0);

boundaryField
{
    aerofoil
    {
        type            calculated;
        value           nonuniform List<vector> 
300
(
(-158.75348 -1.63716e-16 -7.6620705)
(-160.44612 1.6753129e-16 -7.1047301)
(-160.78486 -2.4205105e-20 -6.4672499)
(-161.18649 6.8578198e-19 -5.8209826)
(-161.58021 8.9048873e-17 -5.1709114)
(-161.99623 -1.8287306e-21 -4.5234758)
(-162.40747 -1.3651295e-18 -3.8204569)
(-162.83444 -4.810807e-17 -3.0370467)
(-163.28176 1.532168e-18 -2.2844738)
(-163.7338 -1.5694409e-18 -1.4984583)
(-164.19134 1.9835385e-19 -0.69128177)
(-164.66251 -2.6336837e-17 0.06365341)
(-165.14021 -2.2432163e-21 0.81951846)
(-165.6098 5.8348585e-17 1.6039219)
(-166.09076 -3.4863574e-18 2.4113098)
(-166.574 -2.0211975e-19 3.2407064)
(-167.04804 -3.8512089e-19 4.0898405)
(-167.52916 -2.9307131e-22 4.9612664)
(-168.00653 2.9514468e-19 5.8535103)
(-168.49822 2.4074124e-35 6.7728756)
(-168.99312 -1.2260397e-16 7.7271011)
(-169.47569 -8.0981891e-18 8.7041079)
(-169.95703 -1.3178633e-16 9.7065785)
(-170.42496 -1.3440018e-16 10.733372)
(-170.91704 8.5604766e-18 11.79545)
(-171.3986 -2.8398158e-16 12.88454)
(-171.87038 2.8499243e-16 14.004082)
(-172.33909 -1.346706e-20 15.160418)
(-172.78882 2.9540767e-20 16.35065)
(-173.22399 -1.074495e-21 17.579798)
(-173.62001 -1.7316202e-20 18.848293)
(-173.98229 -3.040789e-16 20.160217)
(-174.32008 6.4133693e-20 21.518677)
(-174.64959 6.6783842e-20 22.931289)
(-174.99549 -1.0375505e-17 24.408663)
(-175.36063 -3.2806559e-16 25.954354)
(-175.74379 7.678266e-20 27.570135)
(-176.1574 -1.0970265e-17 29.266458)
(-176.62248 -1.1874839e-18 31.056587)
(-177.16365 1.3122514e-18 32.949753)
(-177.72005 3.6014927e-16 34.948922)
(-178.29352 3.9290423e-16 37.069102)
(-178.85219 3.8483398e-16 39.315971)
(-179.37045 -3.8330382e-16 41.685558)
(-179.76728 -2.515156e-17 44.176377)
(-180.07118 4.3921929e-16 46.834056)
(-180.28629 4.008598e-16 49.667013)
(-180.40079 1.0841432e-17 52.68782)
(-180.39507 -1.7042159e-17 55.882479)
(-180.23219 4.4437924e-16 59.247921)
(-179.78063 9.109375e-19 62.787852)
(-178.93705 -1.0415546e-18 66.509533)
(-177.55807 4.7502902e-16 70.415152)
(-175.5163 -7.6077062e-19 74.559097)
(-172.76119 6.9216656e-18 79.024108)
(-169.16113 -1.5300357e-17 83.748709)
(-164.57177 1.5516071e-17 88.753678)
(-159.17177 -1.0917704e-17 94.235223)
(-152.93529 -5.0296788e-16 100.21419)
(-146.35084 -1.7953803e-17 106.78201)
(-140.54385 3.7876763e-17 113.77344)
(-135.96307 -1.7036104e-17 120.95279)
(-131.65213 5.4526306e-16 128.03314)
(-126.55725 1.8389863e-17 134.53433)
(-119.83317 5.9476492e-16 139.80285)
(-111.19748 -9.6060545e-18 143.31192)
(-100.74764 6.2830724e-16 144.67436)
(-88.156541 -1.014568e-17 142.95793)
(-73.718551 -2.1666639e-18 137.3487)
(-58.213436 -6.5709099e-16 127.39216)
(-42.543638 1.0426332e-17 112.624)
(-27.89644 -3.3254246e-16 93.358443)
(-15.933736 -5.6524701e-18 70.882659)
(-8.1614332 1.6328136e-16 46.724745)
(-3.6378836 -1.1074097e-33 23.646258)
(-74.99672 1.4996053e-15 -12.739189)
(-71.144271 4.3140831e-32 -14.131888)
(-74.830379 -3.3708376e-21 -14.761284)
(-78.210278 -1.7824964e-15 -15.259705)
(-80.802595 -3.4195467e-21 -15.604681)
(-83.028477 -8.9251499e-16 -15.875524)
(-84.89229 -6.045747e-20 -16.079293)
(-86.494411 -8.9164725e-16 -16.232419)
(-87.869098 -8.9008603e-16 -16.341543)
(-89.062477 -5.4479006e-19 -16.417548)
(-90.105371 8.858407e-16 -16.465109)
(-91.01718 1.7639828e-15 -16.487979)
(-91.811561 8.7888417e-16 -16.490659)
(-92.509238 -5.5799227e-19 -16.477049)
(-93.118366 8.7157448e-16 -16.447094)
(-93.649462 8.6777657e-16 -16.404264)
(-94.110939 6.4454632e-20 -16.349663)
(-94.511131 7.1840795e-20 -16.283998)
(-94.847831 8.5627094e-16 -16.208565)
(-95.133452 8.5222809e-16 -16.124272)
(-95.367363 -8.4842966e-16 -16.032302)
(-95.560025 1.614359e-21 -15.932869)
(-95.704813 -8.4064997e-16 -15.82674)
(-95.807971 -3.5683031e-19 -15.712889)
(-95.866939 -8.3274268e-16 -15.59294)
(-95.890504 -8.2895593e-16 -15.466357)
(-95.875698 -8.2503231e-16 -15.334751)
(-95.827294 8.2111236e-16 -15.196887)
(-95.744908 5.7777898e-33 -15.054403)
(-95.638756 -8.1323776e-16 -14.906748)
(-95.507229 -8.0941416e-16 -14.754736)
(-95.350564 1.321057e-25 -14.600245)
(-95.166916 -1.3056064e-25 -14.439668)
(-94.948937 4.1776792e-19 -14.273081)
(-94.695632 1.4878663e-19 -14.100608)
(-94.404939 -7.8906422e-16 -13.922236)
(-94.072203 7.8487365e-16 -13.736979)
(-93.694367 -1.4529393e-25 -13.54431)
(-93.267121 7.7629031e-16 -13.343407)
(-92.789426 3.842925e-19 -13.135012)
(-92.259568 8.7339481e-20 -12.918283)
(-91.670816 -7.6285489e-16 -12.691968)
(-91.008177 -1.8323361e-19 -12.454206)
(-90.244048 5.2920961e-24 -12.202951)
(-89.344017 2.6753529e-19 -11.933739)
(-88.28158 -9.3520113e-20 -11.645794)
(-87.057757 7.3648498e-16 -11.340347)
(-85.711075 -9.6567263e-20 -11.022566)
(-84.331881 7.2344527e-16 -10.703433)
(-83.053647 -1.5678986e-19 -10.393223)
(-81.902602 7.0995844e-16 -10.089768)
(-80.625462 3.9520589e-20 -9.7627513)
(-78.556341 6.9485752e-16 -9.3575576)
(-75.178716 1.1353916e-19 -8.8144386)
(-70.411755 -6.7026795e-16 -8.1365553)
(-63.959136 6.5081076e-16 -7.3305471)
(-56.288001 6.2537665e-16 -6.4123806)
(-48.596607 1.5852881e-25 -5.4916734)
(-41.866596 5.639816e-16 -4.7025488)
(-39.010754 -5.4201734e-16 -4.2619746)
(-45.334016 -1.1499438e-19 -4.6963395)
(-64.722859 5.7975038e-16 -6.2321563)
(-92.448351 -3.0185153e-16 -8.4885627)
(-118.81518 -3.0473068e-16 -10.57808)
(-137.7421 1.0787138e-19 -11.940936)
(-148.36135 -1.0856619e-19 -12.505509)
(-153.55621 -1.33327e-19 -12.519903)
(-156.07698 -3.0286614e-16 -12.23916)
(-157.37437 -3.024484e-16 -11.826342)
(-158.15999 -9.2357423e-21 -11.340037)
(-158.729 3.6734198e-40 -10.809711)
(-159.22975 4.7041311e-20 -10.252145)
(-159.66323 -3.0311286e-16 -9.6666184)
(-160.03975 -4.0111532e-20 -9.0553319)
(-158.76163 1.5162549e-16 -8.3161247)
(-132.70931 -1.693799e-20 -7.4031272)
(-133.43785 -2.1724026e-16 -7.9577553)
(-135.42826 -9.0489074e-19 -8.627051)
(-137.22184 2.2930732e-16 -9.3065738)
(-139.0066 -8.3632056e-19 -10.00903)
(-140.72144 -9.3673174e-19 -10.732608)
(-142.3962 -4.8928268e-16 -11.479215)
(-144.02657 3.4693275e-20 -12.245341)
(-145.60395 -2.5732816e-16 -13.032189)
(-147.14042 2.0578407e-18 -13.844427)
(-148.65558 -1.8986085e-18 -14.679792)
(-150.13355 5.5069497e-16 -15.537285)
(-151.57935 -2.3120871e-19 -16.421408)
(-152.98089 1.1199282e-19 -17.325718)
(-154.34048 -1.0690491e-19 -18.253667)
(-155.6371 -4.8038534e-18 -19.20489)
(-156.86652 -1.2221286e-15 -20.176126)
(-158.03358 6.2630141e-16 -21.1706)
(-159.11983 9.0512353e-20 -22.182945)
(-160.12794 6.5262889e-16 -23.217138)
(-161.05919 -5.35058e-18 -24.274945)
(-161.91429 4.9006197e-18 -25.355683)
(-162.7085 -4.3300245e-19 -26.464295)
(-163.44877 7.1288785e-16 -27.599154)
(-164.16169 -7.2728287e-16 -28.773322)
(-164.83718 -2.9297938e-22 -29.980142)
(-165.49357 -6.0847349e-33 -31.226025)
(-166.1435 1.1995708e-17 -32.517284)
(-166.79431 -1.2183058e-17 -33.853087)
(-167.42984 -3.9832381e-16 -35.237666)
(-168.04647 -4.6222319e-33 -36.675961)
(-168.63103 4.0080555e-16 -38.167688)
(-169.16697 1.314498e-17 -39.710126)
(-169.6273 4.1640109e-16 -41.300436)
(-170.00064 -4.2420022e-16 -42.946204)
(-170.2958 -1.503954e-18 -44.654979)
(-170.51165 2.663817e-19 -46.425981)
(-170.65958 4.6366402e-16 -48.268521)
(-170.75862 1.0664082e-18 -50.196516)
(-170.82999 4.6542376e-16 -52.209797)
(-170.86872 -4.7395252e-16 -54.302761)
(-170.79228 1.5613081e-17 -56.468629)
(-170.57977 -5.1912794e-16 -58.722927)
(-170.19043 -5.1753802e-16 -61.072354)
(-169.55586 -5.2657242e-16 -63.496823)
(-168.66068 -5.3487721e-16 -65.988263)
(-167.43949 -5.2292995e-16 -68.488563)
(-165.89691 5.356725e-16 -71.074628)
(-163.99433 5.0982306e-18 -73.716459)
(-161.70798 -5.7133017e-16 -76.418477)
(-159.02507 1.8244009e-17 -79.181755)
(-155.92684 -6.064601e-16 -82.005208)
(-152.39058 -6.0566315e-16 -84.883281)
(-148.43668 -1.2643676e-17 -87.808765)
(-144.11127 -5.9594812e-16 -90.728477)
(-139.51897 -6.540663e-16 -93.554885)
(-134.80909 6.4593707e-16 -96.226705)
(-129.85929 -6.2833448e-16 -98.655379)
(-124.44206 6.4567365e-16 -100.70694)
(-118.37316 3.0464337e-18 -102.26282)
(-111.57657 1.3526329e-15 -103.15934)
(-104.02998 7.0878785e-16 -103.29875)
(-95.66626 7.0492227e-16 -102.40602)
(-86.359389 7.2020096e-16 -100.24711)
(-76.179875 7.0613886e-16 -96.651107)
(-65.238872 1.6947077e-17 -91.193603)
(-53.789981 -1.1083558e-17 -83.569736)
(-42.243308 1.540744e-33 -73.519621)
(-30.983328 -3.5048222e-16 -60.883644)
(-19.729528 1.0515696e-17 -45.720071)
(-10.520844 -9.7621931e-18 -28.808758)
(-4.9108641 -4.3415792e-18 -12.932071)
(-1.8098418 -1.959646e-16 -3.2058383)
(-0.91193719 -3.607832e-17 1.10826)
(-1.7118449 6.3172645e-22 9.6730955)
(-4.7462338 1.5553802e-22 1.224203)
(-11.945588 1.3947454e-20 0.96537903)
(-13.284378 4.541248e-16 1.1527802)
(-16.238617 2.585118e-21 1.3857681)
(-18.559877 7.0131905e-26 1.5605526)
(-20.970199 -4.6234794e-20 1.7342838)
(-23.213728 -5.3731889e-16 1.8869961)
(-25.379025 1.6999427e-21 2.0268468)
(-27.430444 -5.6327199e-16 2.1511313)
(-29.385597 1.9813877e-20 2.2628412)
(-31.254182 5.8328139e-16 2.3622722)
(-33.048246 5.9213549e-16 2.4507143)
(-34.779854 3.0001122e-16 2.5299032)
(-36.457913 -2.1898372e-19 2.6011426)
(-38.083292 3.0700802e-16 2.664125)
(-39.658147 3.1011935e-16 2.7198564)
(-41.192994 2.2242479e-19 2.7688216)
(-42.689698 -8.5673937e-33 2.8111885)
(-44.149013 1.9741708e-25 2.847897)
(-45.574829 -2.312423e-19 2.8787565)
(-46.968387 -1.2299169e-21 2.9045921)
(-48.334129 3.2521048e-16 2.9250225)
(-49.678519 -6.545342e-16 2.9410829)
(-51.012647 -3.2907299e-16 2.952432)
(-52.336156 1.2611833e-21 2.9602056)
(-53.650485 6.660298e-16 2.9635602)
(-54.953782 -7.7542898e-20 2.9633963)
(-56.252266 2.1133396e-25 2.9586049)
(-57.544278 3.3819659e-16 2.9502217)
(-58.832885 3.3991572e-16 2.9372966)
(-60.112411 -2.6153565e-19 2.9201321)
(-61.387256 2.2058951e-25 2.8997717)
(-62.663668 -3.4441942e-16 2.8742495)
(-63.938305 3.4597553e-16 2.844274)
(-65.218271 2.777254e-19 2.8099393)
(-66.506348 -3.4853714e-16 2.7716346)
(-67.803278 -1.3372532e-21 2.7286355)
(-69.107272 -2.4529709e-25 2.6808237)
(-70.418598 -7.0526735e-16 2.6275348)
(-71.737273 1.413197e-19 2.5694277)
(-73.066304 -3.5500617e-16 2.5055744)
(-74.401665 -1.3998795e-19 2.4357726)
(-75.743248 3.5745905e-16 2.359616)
(-77.094114 2.741085e-21 2.2775864)
(-78.462409 2.3416596e-19 2.1883069)
(-79.854415 1.8028861e-16 2.0925374)
(-81.279041 1.8084298e-16 1.9896836)
(-82.732724 3.6264962e-16 1.8793461)
(-84.211846 1.8164488e-16 1.7611348)
(-85.712743 -1.0537472e-19 1.634819)
(-87.227309 -1.8227056e-16 1.4978467)
(-88.738692 -3.8535184e-20 1.3492704)
(-90.243423 -3.663465e-16 1.1907726)
(-91.75563 -1.8351708e-16 1.0210823)
(-93.284715 1.2497046e-19 0.83926058)
(-94.837936 -1.2037062e-35 0.64591119)
(-96.419852 9.2511078e-17 0.4398137)
(-98.032824 -9.2917355e-17 0.22039033)
(-99.674459 1.3961595e-19 -0.011825506)
(-101.33858 -1.3809057e-19 -0.25273211)
(-103.02338 -1.5830424e-19 -0.5089961)
(-104.72091 4.7007605e-17 -0.79830796)
(-106.43639 2.3571992e-17 -1.1139904)
(-108.16068 7.4908738e-20 -1.4449835)
(-109.89771 5.8473389e-20 -1.803735)
(-111.65957 2.3651429e-17 -2.1901738)
(-113.45762 1.1658866e-20 -2.5638753)
(-115.28983 -9.5672622e-17 -2.9693327)
(-117.15042 -9.5896792e-17 -3.4018339)
(-119.04432 -1.1762614e-20 -3.8633769)
(-120.97172 1.1760458e-20 -4.3555934)
(-122.931 3.5339087e-20 -4.879017)
(-124.92163 2.1925342e-20 -5.4380081)
(-126.96231 1.8869019e-20 -6.0384355)
(-130.31531 -1.1910588e-20 -6.748087)
)
;
    }
    inlet
    {
        type            calculated;
        value           uniform (0 0 0);
    }
    outlet
    {
        type            calculated;
        value           uniform (0 0 0);
    }
    back
    {
        type            empty;
    }
    front
    {
        type            empty;
    }
}


// ************************************************************************* //
