/*--------------------------------*- C++ -*----------------------------------*\
  =========                 |
  \\      /  F ield         | OpenFOAM: The Open Source CFD Toolbox
   \\    /   O peration     | Website:  https://openfoam.org
    \\  /    A nd           | Version:  8
     \\/     M anipulation  |
\*---------------------------------------------------------------------------*/
FoamFile
{
    version     2.0;
    format      ascii;
    class       volScalarField;
    location    "0.269994";
    object      yPlus;
}
// * * * * * * * * * * * * * * * * * * * * * * * * * * * * * * * * * * * * * //

dimensions      [0 0 0 0 0 0 0];

internalField   uniform 0;

boundaryField
{
    aerofoil
    {
        type            calculated;
        value           nonuniform List<scalar> 
300
(
123.95153
123.52157
122.93812
122.43048
121.94991
121.5199
121.12082
120.7623
120.4423
120.15841
119.90561
119.68468
119.49906
119.3369
119.20715
119.10761
119.02754
118.97668
118.94462
118.94086
118.96338
119.00275
119.06673
119.13862
119.24517
119.36738
119.50287
119.65993
119.82592
120.00852
120.19669
120.39285
120.59829
120.81745
121.06536
121.34674
121.65811
122.00307
122.39335
122.84266
123.32558
123.85063
124.4077
125.00533
125.58887
126.19095
126.80932
127.45547
128.13184
128.82524
129.49687
130.1297
130.67758
131.12613
131.53083
131.84987
132.05528
132.33086
132.6795
133.39662
134.89888
137.38324
140.55349
144.03125
147.38793
150.32562
152.79571
154.18195
153.89721
151.34645
145.42226
135.14219
119.75337
98.189592
69.954603
97.559814
107.68625
110.05472
112.18302
113.65323
114.87982
115.84582
116.63906
117.28297
117.81207
118.24665
118.60143
118.88313
119.10828
119.28057
119.40771
119.49171
119.54309
119.55545
119.54091
119.49358
119.426
119.32852
119.21
119.06372
118.89856
118.7102
118.50403
118.27642
118.03497
117.77809
117.50522
117.21644
116.90739
116.57707
116.22469
115.84592
115.441
115.00569
114.53876
114.03839
113.50144
112.91976
112.27902
111.55958
110.74354
109.82493
108.82032
107.76176
106.72848
105.74175
104.68788
103.22089
100.93363
97.721997
93.277763
87.581869
81.375834
75.40522
72.225971
76.460027
88.250933
101.33992
110.95263
116.99186
120.17362
121.71156
122.47716
122.88052
123.16464
123.39071
123.62253
123.85622
124.08688
124.17204
131.88969
131.58993
131.58126
131.49112
131.44442
131.39062
131.35561
131.33346
131.32044
131.31718
131.33821
131.3723
131.42898
131.49649
131.57985
131.67252
131.76679
131.87011
131.96933
132.06664
132.16441
132.25918
132.36311
132.46937
132.60169
132.74867
132.91724
133.11703
133.34565
133.59767
133.8741
134.16905
134.47497
134.77891
135.07832
135.3792
135.67779
135.97803
136.29275
136.63369
136.99747
137.35308
137.69103
138.01195
138.27259
138.49608
138.62537
138.69542
138.69636
138.62213
138.47792
138.27908
138.02868
137.74618
137.46295
137.21784
137.06678
137.00173
136.88847
136.67155
136.23918
135.5768
134.59093
133.0631
130.87438
127.73598
123.27417
116.96654
108.00107
94.909505
76.478311
52.29447
26.924233
15.397396
44.68604
31.411472
44.412882
46.683929
51.512782
54.927845
58.255721
61.155497
63.809152
66.20396
68.388307
70.396524
72.257135
73.99525
75.628953
77.168245
78.620404
80.000991
81.316335
82.570282
83.770278
84.919487
86.024932
87.09212
88.133342
89.148022
90.140063
91.107195
92.056787
92.986463
93.90091
94.795822
95.673611
96.541412
97.39569
98.242134
99.082328
99.917137
100.74564
101.56854
102.38474
103.19771
104.00455
104.80532
105.60162
106.39937
107.2008
108.01299
108.83363
109.66016
110.48862
111.31433
112.12749
112.92478
113.7157
114.50611
115.2998
116.09983
116.90745
117.72211
118.53908
119.35975
120.17649
120.99448
121.80655
122.61567
123.42774
124.24923
125.08224
125.9219
126.7714
127.63215
128.5019
129.38389
130.27577
131.3283
)
;
    }
    inlet
    {
        type            calculated;
        value           uniform 0;
    }
    outlet
    {
        type            calculated;
        value           uniform 0;
    }
    back
    {
        type            empty;
    }
    front
    {
        type            empty;
    }
}


// ************************************************************************* //
