/*--------------------------------*- C++ -*----------------------------------*\
  =========                 |
  \\      /  F ield         | OpenFOAM: The Open Source CFD Toolbox
   \\    /   O peration     | Website:  https://openfoam.org
    \\  /    A nd           | Version:  8
     \\/     M anipulation  |
\*---------------------------------------------------------------------------*/
FoamFile
{
    version     2.0;
    format      ascii;
    class       volScalarField;
    location    "0.240005";
    object      alphat;
}
// * * * * * * * * * * * * * * * * * * * * * * * * * * * * * * * * * * * * * //

dimensions      [1 -1 -1 0 0 0 0];

internalField   nonuniform List<scalar> 
20000
(
0.0010582986
0.0025615123
0.0033491424
0.0035020637
0.0029195498
0.0011333115
1.4500642e-05
5.0223642e-09
4.1378983e-09
4.1013854e-09
3.9472428e-09
3.9756106e-09
3.8957976e-09
3.9362475e-09
3.9251457e-09
3.9717841e-09
3.9931582e-09
4.0480536e-09
4.0977736e-09
4.1747729e-09
4.2593104e-09
4.3718607e-09
4.5036121e-09
4.6688173e-09
4.8669633e-09
5.1080217e-09
5.4040951e-09
5.7395968e-09
6.0972823e-09
6.4634038e-09
6.8204307e-09
7.1547554e-09
7.4532828e-09
7.7099803e-09
7.9240229e-09
8.09794e-09
8.2364314e-09
8.3458207e-09
8.4319697e-09
8.4994154e-09
8.5494948e-09
8.5901717e-09
8.6305467e-09
8.6654798e-09
8.6858945e-09
8.6982313e-09
8.7021433e-09
8.7030656e-09
8.7084769e-09
8.5957296e-09
0.0010525439
0.0025080129
0.0032362428
0.0033225829
0.0026876668
0.00091198026
3.1825764e-06
4.6582288e-09
4.0039271e-09
3.9738816e-09
3.8267651e-09
3.8565594e-09
3.7798439e-09
3.8208889e-09
3.8114626e-09
3.8589596e-09
3.8821595e-09
3.9388982e-09
3.9913794e-09
4.0713855e-09
4.1599308e-09
4.2774077e-09
4.4163931e-09
4.5918621e-09
4.8044168e-09
5.0650988e-09
5.3802325e-09
5.7315939e-09
6.0974382e-09
6.470351e-09
6.8327308e-09
7.1683706e-09
7.4662978e-09
7.7212789e-09
7.9332138e-09
8.1051267e-09
8.2419414e-09
8.3501808e-09
8.4355625e-09
8.5022969e-09
8.5518138e-09
8.5926577e-09
8.6348872e-09
8.6676438e-09
8.6879211e-09
8.6984228e-09
8.7023668e-09
8.7011343e-09
8.7076484e-09
8.5940966e-09
0.001040704
0.0024464612
0.0031219069
0.0031578594
0.0024624438
0.00072104966
6.9563616e-07
4.4224202e-09
3.8806853e-09
3.8564387e-09
3.7164073e-09
3.7476186e-09
3.6739994e-09
3.7154986e-09
3.7079142e-09
3.756272e-09
3.7814195e-09
3.8400183e-09
3.8951009e-09
3.9780045e-09
4.0706176e-09
4.193454e-09
4.3408596e-09
4.5288744e-09
4.7590744e-09
5.0460418e-09
5.3751584e-09
5.7317968e-09
6.1054416e-09
6.485055e-09
6.8502222e-09
7.1861701e-09
7.4824345e-09
7.7347116e-09
7.9437336e-09
8.1130389e-09
8.2477926e-09
8.3546725e-09
8.4392662e-09
8.5053484e-09
8.5543712e-09
8.5958586e-09
8.640249e-09
8.6717822e-09
8.6901232e-09
8.7001268e-09
8.7026699e-09
8.7020432e-09
8.6933728e-09
8.5927104e-09
0.0010293423
0.0023880491
0.0030139498
0.0030013708
0.0022398569
0.00056377522
1.7448294e-07
4.2485127e-09
3.7698517e-09
3.7507629e-09
3.6171429e-09
3.6497508e-09
3.5791526e-09
3.6214195e-09
3.615864e-09
3.6654152e-09
3.6926475e-09
3.7532042e-09
3.8110954e-09
3.8974063e-09
3.9951792e-09
4.125058e-09
4.2837941e-09
4.4888109e-09
4.7413734e-09
5.0392303e-09
5.3738076e-09
5.7397606e-09
6.1241528e-09
6.5095139e-09
6.8767694e-09
7.2114684e-09
7.5046477e-09
7.7530326e-09
7.9581178e-09
8.1239549e-09
8.2559436e-09
8.3608928e-09
8.444173e-09
8.5091415e-09
8.5574632e-09
8.5999665e-09
8.6452595e-09
8.6746936e-09
8.6919042e-09
8.7010482e-09
8.7036368e-09
8.7016794e-09
8.6848018e-09
8.5900677e-09
0.0010176288
0.0023307548
0.0029098988
0.0028525431
0.0020210013
0.00043138791
5.3414728e-08
4.1114259e-09
3.6727335e-09
3.6585173e-09
3.5308309e-09
3.56502e-09
3.4973638e-09
3.5406324e-09
3.5371785e-09
3.5879831e-09
3.6173085e-09
3.6799282e-09
3.7409482e-09
3.8315378e-09
3.9360925e-09
4.0755933e-09
4.2507872e-09
4.4725353e-09
4.7345364e-09
5.0387112e-09
5.3829163e-09
5.7605461e-09
6.1532883e-09
6.5429308e-09
6.9104158e-09
7.242448e-09
7.5312714e-09
7.7746898e-09
7.9749645e-09
8.1366446e-09
8.2653595e-09
8.368007e-09
8.4496935e-09
8.5133196e-09
8.5609618e-09
8.6049122e-09
8.6501018e-09
8.6778833e-09
8.6936004e-09
8.7022085e-09
8.7046361e-09
8.7009042e-09
8.6673025e-09
8.5866761e-09
0.0010061818
0.002276045
0.002808943
0.0027110283
0.0018067324
0.00031839773
2.0928411e-08
3.9998386e-09
3.5896634e-09
3.5799875e-09
3.4577799e-09
3.4936974e-09
3.4288484e-09
3.4732561e-09
3.4718368e-09
3.5239795e-09
3.5555747e-09
3.6208194e-09
3.6858432e-09
3.7822603e-09
3.895878e-09
4.0503939e-09
4.2375897e-09
4.4668408e-09
4.734182e-09
5.0480591e-09
5.4049416e-09
5.7930305e-09
6.1931782e-09
6.5855067e-09
6.9517206e-09
7.2795586e-09
7.5627099e-09
7.8000775e-09
7.9946591e-09
8.1514732e-09
8.2763683e-09
8.3762935e-09
8.4560174e-09
8.5179929e-09
8.564975e-09
8.6104642e-09
8.6545932e-09
8.6809028e-09
8.6952952e-09
8.7030846e-09
8.7053939e-09
8.6985075e-09
8.6515176e-09
8.5819888e-09
0.00099489593
0.002224247
0.0027096042
0.0025689109
0.0015992221
0.00022167394
1.0701858e-08
3.9083872e-09
3.5203136e-09
3.5149964e-09
3.3978373e-09
3.4356257e-09
3.3733185e-09
3.4188317e-09
3.4193765e-09
3.4730933e-09
3.5075124e-09
3.5764629e-09
3.6471319e-09
3.7526227e-09
3.8779564e-09
4.040353e-09
4.2336863e-09
4.466703e-09
4.7440334e-09
5.0711716e-09
5.4399576e-09
5.837722e-09
6.2434367e-09
6.6367488e-09
6.9999706e-09
7.3221377e-09
7.5983698e-09
7.8286768e-09
8.0167634e-09
8.1680812e-09
8.2886865e-09
8.3855359e-09
8.4629879e-09
8.5230816e-09
8.5694909e-09
8.6162645e-09
8.6589698e-09
8.6839974e-09
8.6971322e-09
8.7038901e-09
8.7056792e-09
8.6944806e-09
8.6350351e-09
8.5760269e-09
0.00098444847
0.0021771107
0.0026222798
0.0024355003
0.0014011675
0.00013813265
6.9074042e-09
3.8331838e-09
3.4637277e-09
3.4626277e-09
3.3501149e-09
3.3896866e-09
3.3295637e-09
3.3762463e-09
3.3791571e-09
3.4352195e-09
3.4735085e-09
3.5483534e-09
3.627823e-09
3.740311e-09
3.8707736e-09
4.0378817e-09
4.2339602e-09
4.4774661e-09
4.7675715e-09
5.1073738e-09
5.4878458e-09
5.8939707e-09
6.3037279e-09
6.6962886e-09
7.0548798e-09
7.3699143e-09
7.6380228e-09
7.8603172e-09
8.0411607e-09
8.1863969e-09
8.3022754e-09
8.3957136e-09
8.4705879e-09
8.5286041e-09
8.5745214e-09
8.6221984e-09
8.6631676e-09
8.6870203e-09
8.6991515e-09
8.7047178e-09
8.7056377e-09
8.6878718e-09
8.6213066e-09
8.5699766e-09
0.00097467781
0.0021325553
0.0025386755
0.0023068588
0.0012133569
7.0674595e-05
5.2902038e-09
3.7721626e-09
3.419018e-09
3.4217155e-09
3.3131022e-09
3.3543361e-09
3.2963939e-09
3.3450246e-09
3.3513711e-09
3.4118034e-09
3.4561543e-09
3.5363403e-09
3.6200195e-09
3.7360152e-09
3.8694958e-09
4.039137e-09
4.2464022e-09
4.5012518e-09
4.8041554e-09
5.1568449e-09
5.5481482e-09
5.9614209e-09
6.3735012e-09
6.763552e-09
7.1158597e-09
7.4223617e-09
7.6812241e-09
7.8946322e-09
8.0675627e-09
8.2062011e-09
8.3169741e-09
8.4067072e-09
8.478734e-09
8.5345531e-09
8.5800571e-09
8.6282062e-09
8.6671853e-09
8.6898814e-09
8.7012844e-09
8.7057908e-09
8.7054809e-09
8.6787945e-09
8.610887e-09
8.5647122e-09
0.00096520087
0.0020905162
0.0024587532
0.0021806453
0.0010373265
2.765593e-05
4.5342732e-09
3.7249468e-09
3.3847395e-09
3.390507e-09
3.2854216e-09
3.3288331e-09
3.275036e-09
3.3275066e-09
3.3380284e-09
3.4017242e-09
3.4490076e-09
3.5316229e-09
3.6180399e-09
3.7355947e-09
3.8739778e-09
4.0535034e-09
4.2705509e-09
4.5376147e-09
4.853707e-09
5.2188863e-09
5.6203203e-09
6.0394006e-09
6.4521416e-09
6.8379356e-09
7.1823663e-09
7.4790027e-09
7.7275794e-09
7.9313112e-09
8.0957331e-09
8.2273216e-09
8.3326608e-09
8.4184268e-09
8.4873659e-09
8.5409415e-09
8.5860979e-09
8.6342154e-09
8.6710349e-09
8.6924863e-09
8.7033046e-09
8.7072793e-09
8.704964e-09
8.668377e-09
8.6030063e-09
8.5599195e-09
0.00095668344
0.0020506406
0.0023819598
0.0020551703
0.00087456403
8.5309272e-06
4.1576752e-09
3.6898312e-09
3.3599253e-09
3.3703921e-09
3.2698339e-09
3.3161228e-09
3.2657533e-09
3.319911e-09
3.3324663e-09
3.3976602e-09
3.4470746e-09
3.5306764e-09
3.6191723e-09
3.743279e-09
3.8899911e-09
4.0781771e-09
4.306747e-09
4.5862912e-09
4.9156356e-09
5.2931079e-09
5.7037974e-09
6.1272963e-09
6.5389699e-09
6.9187635e-09
7.2537662e-09
7.5392868e-09
7.7766302e-09
7.969993e-09
8.1253937e-09
8.2495519e-09
8.3491857e-09
8.4307592e-09
8.4964096e-09
8.5477658e-09
8.5926382e-09
8.6401615e-09
8.674719e-09
8.6949335e-09
8.7051917e-09
8.7089489e-09
8.7037997e-09
8.6579705e-09
8.5964848e-09
8.556332e-09
0.00094863051
0.0020124254
0.0023072473
0.0019316545
0.00072654591
2.3393699e-06
3.9625524e-09
3.6657718e-09
3.3456587e-09
3.3590946e-09
3.2619061e-09
3.3095504e-09
3.2619134e-09
3.3170441e-09
3.3309145e-09
3.3966454e-09
3.4475156e-09
3.5354412e-09
3.6303905e-09
3.7607403e-09
3.9156812e-09
4.114029e-09
4.3541281e-09
4.6466324e-09
4.9894451e-09
5.3788782e-09
5.7979227e-09
6.224378e-09
6.6332464e-09
7.0053264e-09
7.3294228e-09
7.6026718e-09
7.8279372e-09
8.0103315e-09
8.1562792e-09
8.2726962e-09
8.3664063e-09
8.4435968e-09
8.5057965e-09
8.5550018e-09
8.5996319e-09
8.6460498e-09
8.6782408e-09
8.6972259e-09
8.707028e-09
8.710588e-09
8.7022144e-09
8.6479853e-09
8.5907377e-09
8.5530424e-09
0.0009413524
0.0019761258
0.0022340356
0.0018068694
0.00059337363
6.4081061e-07
3.867755e-09
3.6510011e-09
3.3433365e-09
3.352631e-09
3.2562889e-09
3.3020057e-09
3.2607017e-09
3.3160738e-09
3.3319928e-09
3.4008002e-09
3.4564667e-09
3.5489387e-09
3.6497007e-09
3.7873751e-09
3.9513666e-09
4.1599677e-09
4.4123635e-09
4.7182825e-09
5.0747083e-09
5.4757447e-09
5.9020914e-09
6.3299436e-09
6.7342134e-09
7.0968862e-09
7.4086685e-09
7.6685898e-09
7.8810412e-09
8.051965e-09
8.1881123e-09
8.2965495e-09
8.3841729e-09
8.456827e-09
8.5154565e-09
8.5626048e-09
8.6070751e-09
8.6519162e-09
8.6816584e-09
8.6993219e-09
8.7087413e-09
8.7121157e-09
8.7000567e-09
8.6386097e-09
8.5856201e-09
8.5502297e-09
0.00093435556
0.0019415264
0.0021629415
0.0016785764
0.00047560839
1.9261902e-07
3.8232781e-09
3.6421635e-09
3.3376193e-09
3.3473562e-09
3.2495883e-09
3.2956872e-09
3.26277e-09
3.3209404e-09
3.3404944e-09
3.4125702e-09
3.4725101e-09
3.5701176e-09
3.6775686e-09
3.822739e-09
3.9961081e-09
4.2156982e-09
4.4809166e-09
4.8007619e-09
5.1709708e-09
5.5831184e-09
6.0156083e-09
6.443204e-09
6.8410699e-09
7.1926894e-09
7.490842e-09
7.7364894e-09
7.9355014e-09
8.0945504e-09
8.2206298e-09
8.3209162e-09
8.4023415e-09
8.4703436e-09
8.5253296e-09
8.5705223e-09
8.6149358e-09
8.6577621e-09
8.685116e-09
8.7012648e-09
8.7101407e-09
8.7132308e-09
8.6968697e-09
8.6300629e-09
8.5810312e-09
8.5477375e-09
0.00092764455
0.0019086155
0.0020997402
0.0015454775
0.0003753901
6.8487963e-08
3.7950442e-09
3.6383688e-09
3.3348125e-09
3.3449228e-09
3.2494845e-09
3.2959849e-09
3.2713357e-09
3.3324301e-09
3.3554942e-09
3.431111e-09
3.4959141e-09
3.5988346e-09
3.7130855e-09
3.8663004e-09
4.0496658e-09
4.2808131e-09
4.5595793e-09
4.8938832e-09
5.2779401e-09
5.7005654e-09
6.1378584e-09
6.5634101e-09
6.9530266e-09
7.2919839e-09
7.5752793e-09
7.8058167e-09
7.990875e-09
8.1377433e-09
8.2535677e-09
8.3455995e-09
8.4207673e-09
8.4840421e-09
8.5353633e-09
8.5786903e-09
8.6229702e-09
8.6635502e-09
8.6887319e-09
8.7032262e-09
8.7112134e-09
8.7139158e-09
8.6920671e-09
8.6225779e-09
8.5768146e-09
8.5455828e-09
0.00092119164
0.0018763539
0.0020360691
0.0014074958
0.00028631836
2.9504573e-08
3.7899836e-09
3.6379832e-09
3.3443241e-09
3.3527157e-09
3.2600569e-09
3.3076937e-09
3.2862463e-09
3.3502321e-09
3.3769218e-09
3.4561751e-09
3.5258512e-09
3.6343809e-09
3.7559251e-09
3.9176372e-09
4.1115762e-09
4.3550415e-09
4.6480668e-09
4.9973575e-09
5.3952258e-09
5.8275304e-09
6.2681189e-09
6.6897483e-09
7.0692627e-09
7.3940165e-09
7.6613354e-09
7.8760458e-09
8.0467492e-09
8.1812248e-09
8.2866822e-09
8.370416e-09
8.4393143e-09
8.4978266e-09
8.5455102e-09
8.5870589e-09
8.6309043e-09
8.6692435e-09
8.6924646e-09
8.7053904e-09
8.7122028e-09
8.7140589e-09
8.6854361e-09
8.616245e-09
8.5728902e-09
8.5436964e-09
0.00091506467
0.0018450305
0.0019743304
0.0012673216
0.00020736179
1.5631645e-08
3.786358e-09
3.6382256e-09
3.354495e-09
3.3632207e-09
3.2762036e-09
3.3253303e-09
3.3070006e-09
3.373558e-09
3.4040008e-09
3.4870072e-09
3.5619483e-09
3.6764338e-09
3.8057066e-09
3.9765108e-09
4.1817432e-09
4.4383213e-09
4.7463913e-09
5.1111472e-09
5.5226231e-09
5.9635825e-09
6.4057414e-09
6.8214489e-09
7.1889825e-09
7.4980478e-09
7.7483736e-09
7.9466603e-09
8.1027192e-09
8.2246817e-09
8.3197358e-09
8.395187e-09
8.457849e-09
8.5116046e-09
8.5557135e-09
8.5954297e-09
8.6385084e-09
8.6747468e-09
8.69634e-09
8.7079069e-09
8.7133475e-09
8.7139686e-09
8.6774642e-09
8.610461e-09
8.5692374e-09
8.5420206e-09
0.00090950585
0.0018144605
0.0019133733
0.0011303625
0.00013759887
9.9859636e-09
3.7847373e-09
3.6448385e-09
3.3682792e-09
3.3807342e-09
3.2959647e-09
3.3476449e-09
3.3324879e-09
3.4019076e-09
3.4362751e-09
3.5233423e-09
3.603827e-09
3.7246558e-09
3.8621984e-09
4.0427129e-09
4.2600082e-09
4.5305667e-09
4.8544743e-09
5.2350717e-09
5.6597692e-09
6.1081149e-09
6.5499498e-09
6.9576589e-09
7.3113611e-09
7.6033443e-09
7.8357861e-09
8.0171809e-09
8.1584163e-09
8.2678321e-09
8.3525158e-09
8.4197527e-09
8.4762487e-09
8.525301e-09
8.5659524e-09
8.6039609e-09
8.6457163e-09
8.6798973e-09
8.7001813e-09
8.7107498e-09
8.7149883e-09
8.7137609e-09
8.6687805e-09
8.6048984e-09
8.5659267e-09
8.5405456e-09
0.00090442347
0.0017841755
0.0018524477
0.0010022508
7.9547379e-05
7.4134613e-09
3.7867679e-09
3.6555006e-09
3.3860813e-09
3.4016219e-09
3.3200291e-09
3.3742784e-09
3.3625098e-09
3.4348877e-09
3.4734816e-09
3.5648128e-09
3.6512727e-09
3.7789099e-09
3.9253108e-09
4.1162609e-09
4.3464871e-09
4.6319655e-09
4.9725018e-09
5.3691874e-09
5.806468e-09
6.2606458e-09
6.7000498e-09
7.0975758e-09
7.4356054e-09
7.7091999e-09
7.9229908e-09
8.0871495e-09
8.2134872e-09
8.3104068e-09
8.3848189e-09
8.4439639e-09
8.4943973e-09
8.5388408e-09
8.5761893e-09
8.6124845e-09
8.6526115e-09
8.6846032e-09
8.7036187e-09
8.7135464e-09
8.7175028e-09
8.7130751e-09
8.659631e-09
8.5994186e-09
8.5629025e-09
8.5392606e-09
0.00089942908
0.0017517661
0.0017897409
0.00088186425
3.8232094e-05
6.1494781e-09
3.7931136e-09
3.6702364e-09
3.4076596e-09
3.4266078e-09
3.3480985e-09
3.4052051e-09
3.3967156e-09
3.4723045e-09
3.5153669e-09
3.611334e-09
3.7041563e-09
3.8390895e-09
3.99499e-09
4.1971567e-09
4.4412392e-09
4.7426149e-09
5.1005074e-09
5.5133444e-09
5.9622949e-09
6.4205005e-09
6.8551921e-09
7.2403078e-09
7.5608843e-09
7.8149239e-09
8.0094498e-09
8.1561541e-09
8.2676212e-09
8.3521737e-09
8.4164665e-09
8.4676927e-09
8.5121941e-09
8.5521603e-09
8.5863855e-09
8.6210783e-09
8.6593303e-09
8.6889605e-09
8.7066414e-09
8.7161245e-09
8.7201877e-09
8.7113745e-09
8.650237e-09
8.594042e-09
8.5601579e-09
8.5381465e-09
0.00089448602
0.0017170719
0.0017243362
0.00076950659
1.5308125e-05
5.4930998e-09
3.8036675e-09
3.6885074e-09
3.4328201e-09
3.4550422e-09
3.380075e-09
3.4398912e-09
3.4350339e-09
3.5139975e-09
3.5618739e-09
3.6627443e-09
3.7624333e-09
3.9052223e-09
4.0713568e-09
4.2856195e-09
4.5445941e-09
4.8628796e-09
5.2387879e-09
5.6675924e-09
6.126986e-09
6.5871001e-09
7.0145857e-09
7.3849946e-09
7.686401e-09
7.9198736e-09
8.0946715e-09
8.2238139e-09
8.3205325e-09
8.3929235e-09
8.4472901e-09
8.4908156e-09
8.5295487e-09
8.5651989e-09
8.596504e-09
8.6296724e-09
8.6660422e-09
8.6932051e-09
8.7093525e-09
8.7182071e-09
8.7220408e-09
8.708308e-09
8.6409077e-09
8.5889349e-09
8.5576841e-09
8.5371965e-09
0.00088929206
0.0016795445
0.0016549842
0.00066538813
5.4104305e-06
5.1421617e-09
3.8177659e-09
3.7101764e-09
3.4615957e-09
3.487068e-09
3.415643e-09
3.4784226e-09
3.4773413e-09
3.5598976e-09
3.6128935e-09
3.7190788e-09
3.8261148e-09
3.9773737e-09
4.1545203e-09
4.3818503e-09
4.6567767e-09
4.9930006e-09
5.3873928e-09
5.8317304e-09
6.2999741e-09
6.7596038e-09
7.1772522e-09
7.5306672e-09
7.8113531e-09
8.0234543e-09
8.1782209e-09
8.2898032e-09
8.3719887e-09
8.4324918e-09
8.4771507e-09
8.5132134e-09
8.5463877e-09
8.5779067e-09
8.6065044e-09
8.6382455e-09
8.6727857e-09
8.6974952e-09
8.7118791e-09
8.719617e-09
8.7229051e-09
8.7032651e-09
8.6320087e-09
8.5842049e-09
8.555448e-09
8.5364233e-09
0.0008838893
0.0016389018
0.0015793717
0.00056953773
1.8250683e-06
4.9548288e-09
3.8361266e-09
3.7354825e-09
3.4937506e-09
3.5226417e-09
3.4548128e-09
3.5206571e-09
3.5235641e-09
3.6099596e-09
3.6684477e-09
3.7803151e-09
3.8953008e-09
4.0557224e-09
4.2447939e-09
4.4862486e-09
4.7783101e-09
5.1334428e-09
5.5466531e-09
6.0057123e-09
6.480848e-09
6.9372672e-09
7.3422745e-09
7.6764405e-09
7.9350557e-09
8.1251598e-09
8.2597034e-09
8.3538332e-09
8.421791e-09
8.4707291e-09
8.5059311e-09
8.5347551e-09
8.5626422e-09
8.5902404e-09
8.6163423e-09
8.6466946e-09
8.6794327e-09
8.70184e-09
8.7144429e-09
8.7206921e-09
8.7231157e-09
8.6957857e-09
8.6239786e-09
8.5799809e-09
8.5535813e-09
8.5359282e-09
0.00087805605
0.0015949364
0.0014932033
0.00048220311
6.203926e-07
4.8528666e-09
3.8582666e-09
3.7641486e-09
3.5292298e-09
3.5615097e-09
3.4974735e-09
3.5665098e-09
3.5736868e-09
3.6641818e-09
3.7285679e-09
3.8465965e-09
3.9701388e-09
4.1404914e-09
4.342461e-09
4.5991848e-09
4.9095561e-09
5.2844878e-09
5.7165562e-09
6.1891615e-09
6.6688371e-09
7.1190639e-09
7.5085669e-09
7.8214503e-09
8.0569306e-09
8.2245429e-09
8.3387388e-09
8.4156576e-09
8.4697827e-09
8.5074942e-09
8.5335551e-09
8.5553242e-09
8.5782457e-09
8.6021686e-09
8.6259707e-09
8.654897e-09
8.6857645e-09
8.7062081e-09
8.7173171e-09
8.7220637e-09
8.7230174e-09
8.6857541e-09
8.6170297e-09
8.576278e-09
8.5520275e-09
8.5355332e-09
0.00087225836
0.0015491043
0.0013996231
0.00040373726
2.2488685e-07
4.8000794e-09
3.8840448e-09
3.7960229e-09
3.5678058e-09
3.6035789e-09
3.5435464e-09
3.6159887e-09
3.6277509e-09
3.7226301e-09
3.7933632e-09
3.9180331e-09
4.0508626e-09
4.2320411e-09
4.4480042e-09
4.7212508e-09
5.0511521e-09
5.4466637e-09
5.8973307e-09
6.3818631e-09
6.8632847e-09
7.3040554e-09
7.6752024e-09
7.9650963e-09
8.1765954e-09
8.3211938e-09
8.4149318e-09
8.4750421e-09
8.5157961e-09
8.5426104e-09
8.5599585e-09
8.574861e-09
8.59312e-09
8.6136676e-09
8.6353517e-09
8.6627968e-09
8.6916198e-09
8.7103396e-09
8.7203968e-09
8.7242354e-09
8.7227595e-09
8.6746593e-09
8.6103701e-09
8.5730298e-09
8.550733e-09
8.5353618e-09
0.00086628933
0.0015015454
0.0012990644
0.00033217415
9.1338185e-08
4.7760953e-09
3.9128679e-09
3.8308705e-09
3.6095514e-09
3.6489504e-09
3.593085e-09
3.6691578e-09
3.6858245e-09
3.7854038e-09
3.8629723e-09
3.9948738e-09
4.1377868e-09
4.3307577e-09
4.5618871e-09
4.852944e-09
5.2035446e-09
5.6201932e-09
6.0887988e-09
6.5831593e-09
7.0631323e-09
7.491048e-09
7.8412938e-09
8.1069462e-09
8.293667e-09
8.4146165e-09
8.4878881e-09
8.5317671e-09
8.5596343e-09
8.575905e-09
8.5850564e-09
8.593438e-09
8.6071939e-09
8.6247223e-09
8.6444487e-09
8.670379e-09
8.6970364e-09
8.7139887e-09
8.7231556e-09
8.7269193e-09
8.7210716e-09
8.6631324e-09
8.6040337e-09
8.5701841e-09
8.5496173e-09
8.5352532e-09
0.0008603196
0.0014521087
0.0011958907
0.00026440388
4.2513277e-08
4.7689868e-09
3.9447583e-09
3.8687817e-09
3.6544394e-09
3.6976407e-09
3.6461375e-09
3.7261006e-09
3.7480379e-09
3.8526499e-09
3.9376001e-09
4.0773482e-09
4.2313155e-09
4.4371834e-09
4.6847614e-09
4.9950039e-09
5.3674477e-09
5.8055587e-09
6.2909941e-09
6.7925454e-09
7.2674692e-09
7.6790991e-09
8.0063687e-09
8.2467443e-09
8.4075122e-09
8.5041506e-09
8.5573338e-09
8.585616e-09
8.6010363e-09
8.6073187e-09
8.6086759e-09
8.6112502e-09
8.6204394e-09
8.6353137e-09
8.6532361e-09
8.6776922e-09
8.7021734e-09
8.7172321e-09
8.7252562e-09
8.7285638e-09
8.7176594e-09
8.6516581e-09
8.5980885e-09
8.5676793e-09
8.5487122e-09
8.5351837e-09
0.00085429164
0.0013995393
0.0010982691
0.00020199576
2.3039785e-08
4.7724193e-09
3.9796927e-09
3.9097849e-09
3.7025066e-09
3.7497238e-09
3.7028492e-09
3.78692e-09
3.8145097e-09
3.9245574e-09
4.0175251e-09
4.1659219e-09
4.3319328e-09
4.5518692e-09
4.8172209e-09
5.1480183e-09
5.5432872e-09
6.002811e-09
6.5034224e-09
7.0089903e-09
7.4750251e-09
7.8672629e-09
8.1700836e-09
8.3837426e-09
8.5169022e-09
8.5892121e-09
8.6229761e-09
8.6364371e-09
8.6400441e-09
8.6369336e-09
8.6306047e-09
8.6284234e-09
8.6329492e-09
8.6454162e-09
8.6617079e-09
8.6848004e-09
8.7071199e-09
8.72019e-09
8.7268061e-09
8.7293525e-09
8.7118366e-09
8.6407848e-09
8.5926851e-09
8.5655671e-09
8.5480771e-09
8.5351287e-09
0.00084898829
0.0013479959
0.00099907678
0.00014428168
1.449724e-08
4.7824878e-09
4.0176066e-09
3.9538332e-09
3.7537741e-09
3.8054617e-09
3.7633622e-09
3.8517105e-09
3.8854569e-09
4.001395e-09
4.1031399e-09
4.2610655e-09
4.4402217e-09
4.6755098e-09
4.9600644e-09
5.3128419e-09
5.7317724e-09
6.2122634e-09
6.7257813e-09
7.2316641e-09
7.6848384e-09
8.0550846e-09
8.3321026e-09
8.516394e-09
8.6210228e-09
8.6692984e-09
8.6848619e-09
8.6844943e-09
8.6770488e-09
8.6645966e-09
8.6508574e-09
8.6445353e-09
8.6449602e-09
8.6549984e-09
8.6698288e-09
8.691646e-09
8.7118787e-09
8.7231525e-09
8.7281166e-09
8.7295194e-09
8.7032542e-09
8.6311729e-09
8.5879121e-09
8.5637644e-09
8.5477476e-09
8.5353294e-09
0.00084442011
0.0012993061
0.00090118908
9.3434556e-05
1.0397805e-08
4.7976453e-09
4.0587064e-09
4.0013734e-09
3.8086876e-09
3.8645714e-09
3.8276963e-09
3.9206918e-09
3.9611372e-09
4.0835629e-09
4.1949325e-09
4.3633588e-09
4.5568001e-09
4.8087608e-09
5.1140097e-09
5.4900682e-09
5.9332378e-09
6.4336229e-09
6.9571723e-09
7.4592271e-09
7.8958211e-09
8.2421478e-09
8.4908497e-09
8.6433876e-09
8.7189477e-09
8.7445344e-09
8.7438617e-09
8.7297255e-09
8.7116225e-09
8.6903705e-09
8.6697449e-09
8.6591107e-09
8.6567117e-09
8.6640431e-09
8.6775653e-09
8.6980009e-09
8.7163647e-09
8.7262735e-09
8.7298123e-09
8.7294178e-09
8.6918039e-09
8.6233232e-09
8.5837571e-09
8.5621969e-09
8.5475741e-09
8.5356308e-09
0.00084053936
0.0012491089
0.00080537741
5.3063478e-05
8.2883542e-09
4.8167421e-09
4.1029799e-09
4.052198e-09
3.8670068e-09
3.9273825e-09
3.8961429e-09
3.9941761e-09
4.0419965e-09
4.1715672e-09
4.2934034e-09
4.4733908e-09
4.6823643e-09
4.9524817e-09
5.2799652e-09
5.6806472e-09
6.1482393e-09
6.6669141e-09
7.1968813e-09
7.690734e-09
8.1074517e-09
8.4280543e-09
8.644382e-09
8.7634089e-09
8.8105986e-09
8.8164048e-09
8.7991894e-09
8.7720267e-09
8.7438863e-09
8.7142173e-09
8.6871487e-09
8.6724953e-09
8.6680107e-09
8.6725733e-09
8.6848992e-09
8.703851e-09
8.7203539e-09
8.7291797e-09
8.7323547e-09
8.7285605e-09
8.6792873e-09
8.6161484e-09
8.5800891e-09
8.560754e-09
8.5474741e-09
8.5360471e-09
0.00083764018
0.0011979972
0.00071319038
2.6219869e-05
7.146712e-09
4.8402183e-09
4.1504673e-09
4.1064521e-09
3.9289631e-09
3.9941548e-09
3.9691009e-09
4.07263e-09
4.128524e-09
4.2659014e-09
4.3991742e-09
4.5918246e-09
4.8176549e-09
5.1074494e-09
5.458737e-09
5.8851159e-09
6.3768244e-09
6.911378e-09
7.4436095e-09
7.9249279e-09
8.3191554e-09
8.6106685e-09
8.7910677e-09
8.8756697e-09
8.8975859e-09
8.8841306e-09
8.8508782e-09
8.8114179e-09
8.7738002e-09
8.7361394e-09
8.7030878e-09
8.6848251e-09
8.6787295e-09
8.6806792e-09
8.6918392e-09
8.7093285e-09
8.7238669e-09
8.7317325e-09
8.7347928e-09
8.7259676e-09
8.6665555e-09
8.6094521e-09
8.5769415e-09
8.5595964e-09
8.5475205e-09
8.5366354e-09
0.00083550437
0.0011453315
0.00062587703
1.1568728e-05
6.5068699e-09
4.8701765e-09
4.2013623e-09
4.1644357e-09
3.9949826e-09
4.0654177e-09
4.0470516e-09
4.1565415e-09
4.2212339e-09
4.3670878e-09
4.5128461e-09
4.7193699e-09
4.963525e-09
5.2746655e-09
5.6513862e-09
6.1043557e-09
6.6192869e-09
7.1665683e-09
7.6964259e-09
8.1611417e-09
8.5305089e-09
8.7876426e-09
8.9293876e-09
8.980992e-09
8.980406e-09
8.947305e-09
8.8988698e-09
8.8479379e-09
8.8014116e-09
8.75615e-09
8.717667e-09
8.6962313e-09
8.6886129e-09
8.6885036e-09
8.6984e-09
8.7145999e-09
8.7270091e-09
8.7335259e-09
8.7357959e-09
8.7212612e-09
8.6543348e-09
8.6032539e-09
8.574366e-09
8.5589863e-09
8.5478907e-09
8.537395e-09
0.00083425492
0.0010919953
0.00054424556
4.7877993e-06
6.141829e-09
4.9056078e-09
4.256198e-09
4.2267879e-09
4.06568e-09
4.1417011e-09
4.1304192e-09
4.2463692e-09
4.3205667e-09
4.4757484e-09
4.6350988e-09
4.8568306e-09
5.1208353e-09
5.4550682e-09
5.8587206e-09
6.3387047e-09
6.8751607e-09
7.4312193e-09
7.9539073e-09
8.398501e-09
8.7391958e-09
8.9568351e-09
9.0584281e-09
9.0814217e-09
9.0578953e-09
9.0059543e-09
8.9432477e-09
8.881649e-09
8.8267552e-09
8.7743129e-09
8.7310168e-09
8.7068135e-09
8.697507e-09
8.6961176e-09
8.7045731e-09
8.7196966e-09
8.7299783e-09
8.7348315e-09
8.7361413e-09
8.7139591e-09
8.6432134e-09
8.5976778e-09
8.5722128e-09
8.5586423e-09
8.548476e-09
8.5383165e-09
0.00083383848
0.0010411232
0.00046869134
1.9510487e-06
5.9341662e-09
4.9452163e-09
4.3155606e-09
4.2939793e-09
4.1414695e-09
4.2233181e-09
4.2196194e-09
4.3424853e-09
4.4271272e-09
4.5924895e-09
4.7666891e-09
5.0050708e-09
5.2906381e-09
5.6498453e-09
6.0818722e-09
6.5888192e-09
7.1442849e-09
7.704494e-09
8.2152029e-09
8.6366075e-09
8.9424887e-09
9.1165596e-09
9.1796633e-09
9.176579e-09
9.1299305e-09
9.0601001e-09
8.98409e-09
8.9126288e-09
8.8498832e-09
8.790704e-09
8.7431896e-09
8.7165503e-09
8.705639e-09
8.7034022e-09
8.7103166e-09
8.7244669e-09
8.7330344e-09
8.7363119e-09
8.7360571e-09
8.7037114e-09
8.6337823e-09
8.592823e-09
8.5703829e-09
8.5584502e-09
8.5492141e-09
8.5394011e-09
0.0008333704
0.00098140323
0.00039914133
8.1651601e-07
5.8201799e-09
4.9898773e-09
4.3797412e-09
4.3661511e-09
4.2225101e-09
4.3104695e-09
4.3150767e-09
4.4453978e-09
4.5415164e-09
4.7180875e-09
4.9084553e-09
5.1650591e-09
5.4739912e-09
5.8600393e-09
6.321525e-09
6.8545738e-09
7.4255775e-09
7.9848327e-09
8.4790732e-09
8.8734584e-09
9.1374651e-09
9.2655452e-09
9.2952024e-09
9.2653834e-09
9.196467e-09
9.1098432e-09
9.0215135e-09
8.9409666e-09
8.8708608e-09
8.8054014e-09
8.7542096e-09
8.7254404e-09
8.7131624e-09
8.7103315e-09
8.7156136e-09
8.728631e-09
8.7359383e-09
8.7386033e-09
8.7354651e-09
8.6908258e-09
8.6259434e-09
8.5887606e-09
8.5689229e-09
8.5584245e-09
8.5501196e-09
8.540646e-09
0.00083328534
0.00092087316
0.00033650495
3.6395338e-07
5.764525e-09
5.0391095e-09
4.4486871e-09
4.4434987e-09
4.3089805e-09
4.4036467e-09
4.4172423e-09
4.5558072e-09
4.6644466e-09
4.853304e-09
5.0613083e-09
5.3378859e-09
5.6722159e-09
6.0869994e-09
6.5787173e-09
7.1361678e-09
7.7184194e-09
8.2713293e-09
8.7450412e-09
9.1059604e-09
9.3222329e-09
9.4053128e-09
9.4045828e-09
9.3476527e-09
9.2576043e-09
9.1553138e-09
9.0556493e-09
8.9667683e-09
8.8897628e-09
8.8184708e-09
8.764104e-09
8.7335395e-09
8.720177e-09
8.7168933e-09
8.7205478e-09
8.7321808e-09
8.7384358e-09
8.7409722e-09
8.7330218e-09
8.6774864e-09
8.6187894e-09
8.5855482e-09
8.5683274e-09
8.5588578e-09
8.5512174e-09
8.5420254e-09
0.0008330796
0.00085541466
0.00028017658
1.7709041e-07
5.7454924e-09
5.0928459e-09
4.5227719e-09
4.5262315e-09
4.4015518e-09
4.5033641e-09
4.5268701e-09
4.6743471e-09
4.7966811e-09
4.9990683e-09
5.2262536e-09
5.5247982e-09
5.8865387e-09
6.3318385e-09
6.8536618e-09
7.4328749e-09
8.0211439e-09
8.5625082e-09
9.0116574e-09
9.3301094e-09
9.4949083e-09
9.5380539e-09
9.5066099e-09
9.4233696e-09
9.3134535e-09
9.1966646e-09
9.0866448e-09
8.9901529e-09
8.906681e-09
8.8299853e-09
8.7729279e-09
8.7409065e-09
8.7267192e-09
8.7230847e-09
8.7253028e-09
8.7352992e-09
8.7401864e-09
8.7418948e-09
8.7285235e-09
8.6644395e-09
8.612258e-09
8.5829534e-09
8.5680946e-09
8.5594541e-09
8.55238e-09
8.5434865e-09
0.00083260428
0.00078790946
0.00023014879
9.5605429e-08
5.7489308e-09
5.1518064e-09
4.6023538e-09
4.6151303e-09
4.500765e-09
4.6103732e-09
4.6446218e-09
4.8017706e-09
4.9390824e-09
5.1561788e-09
5.4045015e-09
5.7271574e-09
6.1186006e-09
6.5958487e-09
7.1470783e-09
7.7442431e-09
8.3329268e-09
8.8575545e-09
9.275668e-09
9.5437827e-09
9.6563953e-09
9.6639359e-09
9.6008723e-09
9.4926643e-09
9.3642021e-09
9.2340789e-09
9.1146595e-09
9.0112428e-09
8.9217032e-09
8.8400274e-09
8.7807603e-09
8.7475943e-09
8.7327783e-09
8.7288545e-09
8.7299307e-09
8.738172e-09
8.7415893e-09
8.7422731e-09
8.7215298e-09
8.6524636e-09
8.6064572e-09
8.5807904e-09
8.5680085e-09
8.560145e-09
8.5535797e-09
8.5449845e-09
0.00083255382
0.00071833739
0.00018610337
5.7258667e-08
5.7682768e-09
5.2167639e-09
4.688279e-09
4.7107978e-09
4.6073282e-09
4.7251997e-09
4.7711657e-09
4.938822e-09
5.0924586e-09
5.3260584e-09
5.5974401e-09
5.9465136e-09
6.3697943e-09
6.879798e-09
7.4585256e-09
8.0687833e-09
8.6519261e-09
9.154919e-09
9.5326715e-09
9.7443356e-09
9.8089546e-09
9.7815159e-09
9.6873997e-09
9.5556751e-09
9.4100408e-09
9.2677481e-09
9.1398575e-09
9.0301505e-09
8.9348952e-09
8.8486951e-09
8.7876998e-09
8.7536586e-09
8.7383156e-09
8.7340969e-09
8.7342859e-09
8.7410292e-09
8.7431183e-09
8.7421868e-09
8.7117227e-09
8.64221e-09
8.601501e-09
8.5789668e-09
8.567954e-09
8.5609608e-09
8.5547926e-09
8.546503e-09
0.00083428706
0.00066652125
0.00014827221
3.7781186e-08
5.80033e-09
5.2878921e-09
4.780831e-09
4.8136389e-09
4.7215502e-09
4.8486141e-09
4.9071896e-09
5.0863846e-09
5.2579106e-09
5.5100193e-09
5.8066071e-09
6.1846977e-09
6.6417981e-09
7.1847761e-09
7.7880018e-09
8.405661e-09
8.9771405e-09
9.4524979e-09
9.779222e-09
9.9313273e-09
9.9541133e-09
9.8899252e-09
9.7663326e-09
9.6126486e-09
9.4512115e-09
9.2978865e-09
9.1624053e-09
9.0469623e-09
8.9462719e-09
8.8560961e-09
8.7938389e-09
8.7591552e-09
8.7433161e-09
8.7386883e-09
8.7382183e-09
8.7437353e-09
8.7455057e-09
8.741176e-09
8.6985258e-09
8.6339983e-09
8.5973149e-09
8.5775349e-09
8.5680034e-09
8.561867e-09
8.556013e-09
8.5480463e-09
0.00083733253
0.00062387835
0.00011578334
2.7128237e-08
5.8427216e-09
5.3660613e-09
4.88077e-09
4.9243122e-09
4.8444277e-09
4.9809149e-09
5.0535728e-09
5.2456254e-09
5.4367797e-09
5.7096153e-09
6.0338367e-09
6.4434673e-09
6.9358788e-09
7.5108336e-09
8.1341908e-09
8.7529113e-09
9.3066243e-09
9.7451655e-09
1.001224e-08
1.0106902e-08
1.009e-08
9.9892507e-09
9.8378295e-09
9.6638147e-09
9.4879516e-09
9.324709e-09
9.1824688e-09
9.0617649e-09
8.9558529e-09
8.8623549e-09
8.7992406e-09
8.7641134e-09
8.7478453e-09
8.7426907e-09
8.7417996e-09
8.7461439e-09
8.7476017e-09
8.7383454e-09
8.6847467e-09
8.6264186e-09
8.5937815e-09
8.5765731e-09
8.5683969e-09
8.5628866e-09
8.5573025e-09
8.5496365e-09
0.00084187608
0.00058781652
8.7304462e-05
2.0702819e-08
5.8951038e-09
5.4516839e-09
4.9885419e-09
5.0430233e-09
4.9763929e-09
5.123215e-09
5.2116028e-09
5.41789e-09
5.6306742e-09
5.9265921e-09