/*--------------------------------*- C++ -*----------------------------------*\
  =========                 |
  \\      /  F ield         | OpenFOAM: The Open Source CFD Toolbox
   \\    /   O peration     | Website:  https://openfoam.org
    \\  /    A nd           | Version:  8
     \\/     M anipulation  |
\*---------------------------------------------------------------------------*/
FoamFile
{
    version     2.0;
    format      ascii;
    class       volVectorField;
    location    "0.240005";
    object      cellDisplacement;
}
// * * * * * * * * * * * * * * * * * * * * * * * * * * * * * * * * * * * * * //

dimensions      [0 1 0 0 0 0 0];

internalField   nonuniform List<vector> 
20000
(
(0.0018178213 0 0.0014311388)
(0.001817806 0 0.0014309)
(0.0018177705 0 0.001430297)
(0.0018177006 0 0.0014296035)
(0.0018175813 0 0.0014288066)
(0.0018173917 0 0.0014278997)
(0.0018171028 0 0.001426881)
(0.0018166748 0 0.0014257556)
(0.0018160536 0 0.0014245424)
(0.0018151653 0 0.0014232787)
(0.0018139109 0 0.0014220333)
(0.0018121572 0 0.0014209201)
(0.0018097277 0 0.001420121)
(0.0018063894 0 0.0014199177)
(0.0018018383 0 0.0014207364)
(0.0017956825 0 0.0014232064)
(0.0017874232 0 0.0014282498)
(0.0017764346 0 0.001437189)
(0.0017619564 0 0.0014518813)
(0.0017430794 0 0.0014749184)
(0.0017187703 0 0.001509784)
(0.0016878983 0 0.0015610443)
(0.0016493098 0 0.0016344168)
(0.00160197 0 0.0017366364)
(0.0015450671 0 0.0018750482)
(0.0014783159 0 0.0020567653)
(0.0014018429 0 0.0022877026)
(0.0013167399 0 0.0025701756)
(0.0012243245 0 0.0029030994)
(0.0011271232 0 0.0032781544)
(0.0010269339 0 0.003684934)
(0.00092733211 0 0.0041025441)
(0.00082989685 0 0.0045152688)
(0.0007375317 0 0.0049008552)
(0.00065052177 0 0.0052487331)
(0.00057141351 0 0.0055412415)
(0.00049889684 0 0.0057763045)
(0.00043492277 0 0.0059462098)
(0.00037720749 0 0.0060528737)
(0.0003272184 0 0.0060947153)
(0.00028221624 0 0.0060702326)
(0.00024334558 0 0.0059764446)
(0.00020662509 0 0.0057926728)
(0.00017570093 0 0.0055384962)
(0.00014653082 0 0.0051689552)
(0.00012165557 0 0.0047199577)
(9.7495048e-05 0 0.0041095975)
(7.2516086e-05 0 0.0033286019)
(4.683944e-05 0 0.002336518)
(1.6820562e-05 0 0.00091874059)
(0.0018208163 0 0.0011742326)
(0.0018208038 0 0.0011735697)
(0.0018207669 0 0.0011728024)
(0.001820695 0 0.0011719043)
(0.0018205729 0 0.0011708631)
(0.001820379 0 0.0011696638)
(0.0018200839 0 0.001168296)
(0.0018196469 0 0.001166754)
(0.001819013 0 0.0011650444)
(0.0018181069 0 0.0011631909)
(0.0018168281 0 0.0011612475)
(0.0018150413 0 0.0011593119)
(0.0018125675 0 0.0011575499)
(0.0018091709 0 0.0011562263)
(0.0018045432 0 0.0011557501)
(0.0017982889 0 0.0011567376)
(0.0017899027 0 0.0011601029)
(0.0017787561 0 0.0011671669)
(0.0017640813 0 0.0011798261)
(0.0017449702 0 0.0012007196)
(0.0017203888 0 0.0012334329)
(0.0016892147 0 0.0012826746)
(0.0016503135 0 0.0013543538)
(0.0016026751 0 0.0014554293)
(0.0015455408 0 0.0015935122)
(0.0014786554 0 0.0017760118)
(0.0014022333 0 0.0020090668)
(0.0013173422 0 0.0022953915)
(0.0012253658 0 0.0026339802)
(0.0011287062 0 0.0030169275)
(0.001029208 0 0.0034335483)
(0.00093018468 0 0.003863615)
(0.00083327142 0 0.0042907018)
(0.00074118417 0 0.004692753)
(0.00065437691 0 0.0050578973)
(0.00057516666 0 0.0053687951)
(0.00050255251 0 0.0056218985)
(0.00043822916 0 0.0058096056)
(0.00038025515 0 0.0059329171)
(0.00032982577 0 0.0059902899)
(0.00028452673 0 0.0059800571)
(0.00024522629 0 0.0058991862)
(0.0002083896 0 0.0057288192)
(0.00017707025 0 0.0054849338)
(0.0001477474 0 0.0051273099)
(0.00012250803 0 0.0046852035)
(9.8113873e-05 0 0.0040836553)
(7.2993466e-05 0 0.0033092909)
(4.7057323e-05 0 0.0023183744)
(1.6784856e-05 0 0.00090436491)
(0.0018227497 0 0.00092283695)
(0.0018227351 0 0.00092201693)
(0.0018226953 0 0.00092106018)
(0.0018226194 0 0.00091993901)
(0.0018224918 0 0.00091863223)
(0.0018222907 0 0.00091711673)
(0.0018219859 0 0.00091537424)
(0.001821536 0 0.00091338869)
(0.0018208848 0 0.00091115748)
(0.0018199555 0 0.00090869208)
(0.0018186462 0 0.00090603408)
(0.0018168185 0 0.00090326552)
(0.0018142916 0 0.0009005359)
(0.0018108247 0 0.00089809039)
(0.0018061071 0 0.00089632291)
(0.0017997363 0 0.00089582862)
(0.0017912032 0 0.00089752293)
(0.0017798726 0 0.00090272671)
(0.0017649733 0 0.00091336373)
(0.001745596 0 0.00093213859)
(0.0017207084 0 0.00096274688)
(0.0016891968 0 0.0010100464)
(0.0016499488 0 0.0010801451)
(0.0016019823 0 0.001180209)
(0.0015445963 0 0.0013180995)
(0.0014775723 0 0.0015014959)
(0.0014012152 0 0.0017367286)
(0.0013165737 0 0.0020268592)
(0.0012250966 0 0.0023709198)
(0.0011290649 0 0.0027613805)
(0.0010303581 0 0.0031873012)
(0.00093203145 0 0.0036291002)
(0.00083576571 0 0.0040697289)
(0.00074408431 0 0.0044873607)
(0.00065759575 0 0.0048689597)
(0.00057840063 0 0.0051974637)
(0.00050577796 0 0.0054679867)
(0.00044119619 0 0.0056729728)
(0.00038302354 0 0.005812568)
(0.00033221803 0 0.0058851963)
(0.00028665936 0 0.0058890405)
(0.00024697474 0 0.0058209739)
(0.00021002847 0 0.0056637978)
(0.00017835555 0 0.0054302725)
(0.00014888665 0 0.0050843677)
(0.00012331258 0 0.0046493935)
(9.8696864e-05 0 0.0040565819)
(7.3440586e-05 0 0.0032889851)
(4.7261988e-05 0 0.002299836)
(1.6751541e-05 0 0.00089036656)
(0.0018236501 0 0.00067683575)
(0.0018236324 0 0.00067584202)
(0.0018235883 0 0.00067467844)
(0.0018235068 0 0.00067331888)
(0.0018233717 0 0.00067173839)
(0.0018231607 0 0.00066990821)
(0.0018228427 0 0.00066779975)
(0.0018223757 0 0.00066538749)
(0.0018217017 0 0.00066265523)
(0.0018207435 0 0.00065959946)
(0.0018193957 0 0.00065624511)
(0.0018175191 0 0.00065265692)
(0.0018149279 0 0.00064896596)
(0.0018113792 0 0.00064540234)
(0.0018065559 0 0.00064233776)
(0.0018000512 0 0.00064037044)
(0.0017913494 0 0.00064038098)
(0.00177981 0 0.00064372029)
(0.0017646584 0 0.00065232975)
(0.0017449845 0 0.00066901302)
(0.0017197579 0 0.00069758217)
(0.001687876 0 0.00074303976)
(0.0016482486 0 0.00081170155)
(0.0015999285 0 0.0009109089)
(0.0015422722 0 0.0010487678)
(0.0014751125 0 0.0012331921)
(0.0013988334 0 0.0014706948)
(0.0013144857 0 0.001764598)
(0.001223565 0 0.0021139727)
(0.0011282491 0 0.002511587)
(0.0010304202 0 0.0029463348)
(0.00093290592 0 0.0033991665)
(0.00083740066 0 0.0038525687)
(0.00074624986 0 0.00428491)
(0.00066018461 0 0.0046821781)
(0.00058111967 0 0.0050274994)
(0.00050857137 0 0.0053148096)
(0.00044382186 0 0.0055365305)
(0.00038550835 0 0.005692012)
(0.00033439182 0 0.0057795982)
(0.00028861054 0 0.0057973116)
(0.00024858869 0 0.0057419249)
(0.00021154021 0 0.0055976979)
(0.00017955457 0 0.0053745853)
(0.00014994736 0 0.0050401865)
(0.00012406767 0 0.0046125708)
(9.9243063e-05 0 0.0040284398)
(7.3856744e-05 0 0.0032677147)
(4.7452524e-05 0 0.0022809217)
(1.6719498e-05 0 0.0008767032)
(0.0018235494 0 0.0004361555)
(0.0018235262 0 0.00043504704)
(0.0018234753 0 0.00043374309)
(0.0018233853 0 0.00043220208)
(0.0018232397 0 0.0004303821)
(0.0018230154 0 0.00042825155)
(0.0018226808 0 0.00042576995)
(0.0018221925 0 0.00042290963)
(0.0018214914 0 0.00041964077)
(0.0018204981 0 0.00041595666)
(0.0018191052 0 0.00041186723)
(0.0018171707 0 0.0004074277)
(0.0018145051 0 0.00040275233)
(0.0018108611 0 0.00039805231)
(0.0018059168 0 0.00039368719)
(0.0017992591 0 0.00039021897)
(0.0017903661 0 0.0003885506)
(0.0017785921 0 0.00039000235)
(0.0017631596 0 0.00039656521)
(0.0017431587 0 0.00041118661)
(0.0017175608 0 0.00043778573)
(0.0016852757 0 0.00048149845)
(0.0016452376 0 0.00054888068)
(0.0015965379 0 0.00064739231)
(0.0015385953 0 0.00078539223)
(0.0014713022 0 0.00097099516)
(0.0013951183 0 0.0012108722)
(0.0013111062 0 0.0015085521)
(0.0012207998 0 0.0018631128)
(0.0011262821 0 0.002267568)
(0.0010294199 0 0.0027106878)
(0.00093282611 0 0.0031739018)
(0.00083818852 0 0.0036393457)
(0.0007476858 0 0.0040855588)
(0.00066214614 0 0.0044977177)
(0.00058332093 0 0.0048590761)
(0.0005109296 0 0.0051625361)
(0.00044610017 0 0.0054004334)
(0.00038770424 0 0.0055713895)
(0.00033634081 0 0.0056736138)
(0.0002903747 0 0.0057049688)
(0.00025006194 0 0.0056621162)
(0.00021292266 0 0.0055306039)
(0.00018066313 0 0.0053179229)
(0.00015092761 0 0.0049948239)
(0.00012477099 0 0.0045747619)
(9.9751023e-05 0 0.0039992462)
(7.4241773e-05 0 0.0032455006)
(4.7628719e-05 0 0.0022616207)
(1.6688803e-05 0 0.00086335732)
(0.0018224762 0 0.00020061674)
(0.0018224472 0 0.0001993177)
(0.0018223889 0 0.00019779076)
(0.0018222893 0 0.00019599925)
(0.0018221311 0 0.00019390589)
(0.0018218908 0 0.00019146628)
(0.0018215357 0 0.00018863442)
(0.0018210213 0 0.00018536418)
(0.001820287 0 0.00018161527)
(0.0018192516 0 0.0001773586)
(0.0018178053 0 0.00017258884)
(0.0018158029 0 0.00016733984)
(0.0018130512 0 0.00016170824)
(0.0018092979 0 0.0001558889)
(0.0018042157 0 0.00015021909)
(0.0017973849 0 0.00014526437)
(0.001788277 0 0.00014188271)
(0.0017762407 0 0.00014142572)
(0.0017604984 0 0.00014587415)
(0.0017401421 0 0.00015850173)
(0.0017141408 0 0.000183242)
(0.0016814196 0 0.00022533175)
(0.0016409406 0 0.00029164739)
(0.0015918356 0 0.00038964928)
(0.0015335932 0 0.00052799236)
(0.0014661712 0 0.00071495101)
(0.001390102 0 0.00095733898)
(0.0013064707 0 0.0012588123)
(0.0012168369 0 0.0016184532)
(0.0011231992 0 0.002029459)
(0.0010273847 0 0.0024805378)
(0.00093181532 0 0.00295351)
(0.00083814579 0 0.0034302907)
(0.00074840347 0 0.0038895544)
(0.00066348502 0 0.0043158357)
(0.00058500513 0 0.00469245)
(0.00051285034 0 0.0050114035)
(0.00044802688 0 0.0052649009)
(0.00038960673 0 0.0054508855)
(0.00033805998 0 0.0055674045)
(0.00029194816 0 0.0056121416)
(0.00025139086 0 0.0055816571)
(0.00021417385 0 0.0054626031)
(0.0001816782 0 0.005260347)
(0.00015182587 0 0.004948336)
(0.00012542036 0 0.0045359955)
(0.00010021934 0 0.0039690461)
(7.4594897e-05 0 0.0032223729)
(4.7789567e-05 0 0.0022419411)
(1.6658478e-05 0 0.00085029905)
(0.0018204556 0 -2.9810287e-05)
(0.0018204188 0 -3.1226033e-05)
(0.0018203507 0 -3.2896154e-05)
(0.001820239 0 -3.4871634e-05)
(0.0018200657 0 -3.7206272e-05)
(0.0018198065 0 -3.9946747e-05)
(0.0018194276 0 -4.315047e-05)
(0.0018188832 0 -4.6865766e-05)
(0.0018181111 0 -5.1145875e-05)
(0.0018170277 0 -5.6024432e-05)
(0.0018155206 0 -6.1521798e-05)
(0.001813441 0 -6.7615719e-05)
(0.0018105917 0 -7.422793e-05)
(0.001806715 0 -8.118494e-05)
(0.0018014774 0 -8.8165037e-05)
(0.0017944523 0 -9.4640927e-05)
(0.0017851039 0 -9.9735849e-05)
(0.0017727749 0 -0.0001021229)
(0.0017567021 0 -9.9368065e-05)
(0.0017359684 0 -8.8523174e-05)
(0.0017095319 0 -6.5513167e-05)
(0.0016763428 0 -2.4992632e-05)
(0.0016353821 0 3.9885465e-05)
(0.0015858458 0 0.00013755352)
(0.0015272922 0 0.00027645534)
(0.0014597481 0 0.0004649584)
(0.0013838165 0 0.00071000541)
(0.00130061 0 0.0010153188)
(0.0012117083 0 0.0013799566)
(0.0011190286 0 0.0017972586)
(0.0010243443 0 0.0022558992)
(0.0009298961 0 0.0027380479)
(0.0008372896 0 0.0032254952)
(0.00074841238 0 0.0036970219)
(0.00066420794 0 0.0041366694)
(0.00058617305 0 0.0045277717)
(0.00051433326 0 0.0048615629)
(0.00044959828 0 0.0051300758)
(0.00039121216 0 0.0053306333)
(0.00033954421 0 0.0054610849)
(0.00029332621 0 0.005518928)
(0.00025256992 0 0.005500625)
(0.00021529158 0 0.0053937785)
(0.00018259599 0 0.0052019105)
(0.00015264029 0 0.0049007805)
(0.0001260136 0 0.0044962995)
(0.00010064666 0 0.0039378602)
(7.4915799e-05 0 0.0031983508)
(4.7934897e-05 0 0.0022218806)
(1.6628545e-05 0 0.00083750957)
(0.0018175163 0 -0.00025530435)
(0.0018174706 0 -0.00025690483)
(0.0018173914 0 -0.00025878852)
(0.0018172657 0 -0.00026100474)
(0.001817075 0 -0.00026360458)
(0.0018167939 0 -0.00026664834)
(0.0018163875 0 -0.00027020062)
(0.0018158086 0 -0.0002743268)
(0.001814993 0 -0.00027909101)
(0.0018138548 0 -0.00028454722)
(0.0018122786 0 -0.00029073085)
(0.0018101118 0 -0.00029763997)
(0.0018071525 0 -0.00030521482)
(0.0018031372 0 -0.00031330052)
(0.0017977257 0 -0.00032160189)
(0.0017904837 0 -0.00032959537)
(0.0017808685 0 -0.0003364436)
(0.0017682429 0 -0.00034037108)
(0.0017518243 0 -0.00033908864)
(0.0017306682 0 -0.00032985548)
(0.0017037561 0 -0.00030845217)
(0.0016700502 0 -0.00026936998)
(0.00162858 0 -0.00020584313)
(0.0015785941 0 -0.00010890083)
(0.001519722 0 3.0810741e-05)
(0.0014520647 0 0.00022106934)
(0.0013762975 0 0.00046894474)
(0.001293564 0 0.00077815154)
(0.0012054546 0 0.0011477149)
(0.0011138098 0 0.0015710789)
(0.001020332 0 0.0020369154)
(0.00092709645 0 0.0025276852)
(0.00083564222 0 0.003025151)
(0.00074772817 0 0.0035081745)
(0.00066432457 0 0.0039604424)
(0.00058682889 0 0.0043652717)
(0.00051537961 0 0.0047132307)
(0.00045081245 0 0.0049961635)
(0.00039251835 0 0.0052108095)
(0.00034078975 0 0.0053548113)
(0.00029450648 0 0.005425457)
(0.00025359605 0 0.0054191271)
(0.00021627431 0 0.0053242191)
(0.0001834138 0 0.0051426748)
(0.00015336954 0 0.0048522169)
(0.00012654851 0 0.0044557018)
(0.00010103146 0 0.0039057272)
(7.520373e-05 0 0.0031734675)
(4.8063706e-05 0 0.0022014426)
(1.6598181e-05 0 0.00082496806)
(0.0018136865 0 -0.00047589882)
(0.0018136305 0 -0.000477619)
(0.0018135385 0 -0.00047964978)
(0.0018133967 0 -0.00048205428)
(0.0018131859 0 -0.00048489947)
(0.0018128798 0 -0.00048824717)
(0.001812442 0 -0.00049217279)
(0.0018118238 0 -0.00049674377)
(0.0018109589 0 -0.00050203714)
(0.0018097589 0 -0.00050811148)
(0.001808105 0 -0.00051501801)
(0.0018058404 0 -0.00052276774)
(0.0018027581 0 -0.00053132148)
(0.0017985882 0 -0.00054054915)
(0.0017929829 0 -0.00055018039)
(0.0017855001 0 -0.0005597322)
(0.0017756168 0 -0.00056800009)
(0.0017626795 0 -0.00057330478)
(0.0017458677 0 -0.00057367581)
(0.0017242529 0 -0.00056606916)
(0.0016968261 0 -0.00054620945)
(0.0016625695 0 -0.00050842405)
(0.0016205573 0 -0.00044563126)
(0.0015701042 0 -0.00034926)
(0.001510909 0 -0.00020903843)
(0.0014431511 0 -1.6808974e-05)
(0.0013675778 0 0.00023407418)
(0.0012853657 0 0.0005472485)
(0.0011981102 0 0.00092168409)
(0.0011075746 0 0.0013509004)
(0.0010153801 0 0.0018235814)
(0.00092344249 0 0.0023224505)
(0.00083322432 0 0.0028293199)
(0.00074636424 0 0.0033231056)
(0.00066384469 0 0.0037872654)
(0.00058697666 0 0.0042050763)
(0.0005159914 0 0.0045665388)
(0.0004516679 0 0.0048632929)
(0.00039352305 0 0.0050915374)
(0.00034179275 0 0.0052486919)
(0.00029548502 0 0.005331823)
(0.00025446447 0 0.0053372398)
(0.00021711984 0 0.0052540048)
(0.00018412823 0 0.0050826938)
(0.0001540118 0 0.0048027012)
(0.00012702304 0 0.0044142322)
(0.00010137245 0 0.0038726707)
(7.5458239e-05 0 0.0031477403)
(4.8175825e-05 0 0.0021806313)
(1.6567327e-05 0 0.00081265466)
(0.001808992 0 -0.00069176385)
(0.0018089239 0 -0.00069367107)
(0.0018088167 0 -0.0006959213)
(0.0018086564 0 -0.00069857318)
(0.0018084227 0 -0.00070168984)
(0.0018080882 0 -0.0007053453)
(0.0018076151 0 -0.0007096203)
(0.001806953 0 -0.00071460072)
(0.0018060332 0 -0.0007203732)
(0.0018047643 0 -0.0007270187)
(0.0018030241 0 -0.00073460319)
(0.001800651 0 -0.00074316017)
(0.0017974323 0 -0.00075267005)
(0.0017930909 0 -0.00076302656)
(0.0017872707 0 -0.00077399985)
(0.0017795453 0 -0.00078486736)
(0.0017693815 0 -0.00079442146)
(0.0017560884 0 -0.00080127944)
(0.0017388506 0 -0.00080326865)
(0.0017167407 0 -0.00079725334)
(0.0016887612 0 -0.00077886)
(0.0016539203 0 -0.00074222927)
(0.0016113393 0 -0.00068002592)
(0.0015604052 0 -0.00058353258)
(0.0015008677 0 -0.000443074)
(0.0014330413 0 -0.00024862443)
(0.0013576976 0 5.4640046e-06)
(0.0012760588 0 0.0003226778)
(0.0011897203 0 0.00070193698)
(0.0011003668 0 0.0011368102)
(0.0010095269 0 0.0016160081)
(0.00091896674 0 0.0021224776)
(0.00083006275 0 0.0026381567)
(0.00074434042 0 0.0031419913)
(0.00066278219 0 0.0036173277)
(0.00058662427 0 0.0040473865)
(0.00051617307 0 0.0044216804)
(0.00045216533 0 0.0047316517)
(0.0003942262 0 0.0049729821)
(0.00034255112 0 0.0051428756)
(0.00029626063 0 0.0052381517)
(0.00025517296 0 0.0052550683)
(0.00021782702 0 0.0051832237)
(0.00018473707 0 0.0050220303)
(0.00015456586 0 0.0047522941)
(0.00012743518 0 0.0043719209)
(0.0001016681 0 0.0038387263)
(7.5678578e-05 0 0.0031212043)
(4.8270258e-05 0 0.0021594484)
(1.6535274e-05 0 0.00080055413)
(0.0018034559 0 -0.00090292759)
(0.0018033747 0 -0.00090495505)
(0.0018032514 0 -0.0009073528)
(0.0018030709 0 -0.00091019286)
(0.0018028119 0 -0.00091355342)
(0.001802446 0 -0.00091751057)
(0.0018019336 0 -0.00092215579)
(0.0018012226 0 -0.00092757689)
(0.0018002417 0 -0.00093387335)
(0.0017988965 0 -0.0009411314)
(0.0017970607 0 -0.00094943182)
(0.001794568 0 -0.0009588206)
(0.0017911991 0 -0.00096929513)
(0.0017866692 0 -0.00098076299)
(0.0017806273 0 -0.00099298575)
(0.0017726485 0 -0.0010050592)
(0.0017621678 0 -0.001016033)
(0.001748489 0 -0.0010244201)
(0.0017307914 0 -0.0010279838)
(0.001708149 0 -0.0010235188)
(0.0016795785 0 -0.0010065281)
(0.0016441205 0 -0.00097092254)
(0.001600944 0 -0.00090914144)
(0.0015495048 0 -0.00081229854)
(0.0014896484 0 -0.00067088848)
(0.0014217693 0 -0.0004744654)
(0.0013466919 0 -0.00021695973)
(0.0012656791 0 0.00010437557)
(0.0011803218 0 0.00048841924)
(0.0010922215 0 0.00092877076)
(0.0010028071 0 0.0014141702)
(0.0009136986 0 0.0019277674)
(0.00082618131 0 0.0024516947)
(0.00074167365 0 0.0029648934)
(0.00066114977 0 0.003450712)
(0.00058577881 0 0.0038923028)
(0.0005159289 0 0.0042787663)
(0.00045230553 0 0.0046013519)
(0.00039462708 0 0.0048552545)
(0.0003430624 0 0.0050374626)
(0.00029683023 0 0.0051445323)
(0.00025571762 0 0.0051726869)
(0.00021839378 0 0.0051119523)
(0.00018523737 0 0.0049607391)
(0.00015503 0 0.0047010497)
(0.00012778303 0 0.0043287999)
(0.00010191719 0 0.0038039204)
(7.5864216e-05 0 0.0030938765)
(4.8346826e-05 0 0.0021379029)
(1.650191e-05 0 0.00078864722)
(0.001797104 0 -0.0011095532)
(0.0017970074 0 -0.0011117615)
(0.0017968652 0 -0.0011143677)
(0.0017966616 0 -0.001117443)
(0.0017963744 0 -0.0011210635)
(0.0017959736 0 -0.0011253188)
(0.0017954182 0 -0.0011303073)
(0.0017946536 0 -0.0011361348)
(0.001793606 0 -0.0011429111)
(0.0017921775 0 -0.0011507432)
(0.0017902374 0 -0.0011597263)
(0.001787614 0 -0.0011699271)
(0.0017840818 0 -0.001181362)
(0.0017793488 0 -0.0011939682)
(0.0017730744 0 -0.0012072704)
(0.0017648183 0 -0.0012206017)
(0.0017539952 0 -0.0012329689)
(0.0017399 0 -0.0012428375)
(0.0017217074 0 -0.0012479288)
(0.0016984937 0 -0.0012449628)
(0.0016692948 0 -0.0012293043)
(0.0016331895 0 -0.0011945649)
(0.0015893953 0 -0.0011330008)
(0.0015374445 0 -0.0010355567)
(0.0014772892 0 -0.00089244626)
(0.0014093572 0 -0.00069427436)
(0.0013346045 0 -0.00043313303)
(0.0012542742 0 -0.00010760215)
(0.0011699636 0 0.0002811858)
(0.0010831861 0 0.00072684654)
(0.00099526274 0 0.0012181503)
(0.00090767419 0 0.0017384206)
(0.00082161044 0 0.0022700522)
(0.00073839966 0 0.002792434)
(0.00065897437 0 0.0032880475)
(0.00058445824 0 0.0037404212)
(0.00051527055 0 0.0041383298)
(0.00045209176 0 0.0044725661)
(0.00039472746 0 0.0047385066)
(0.00034332614 0 0.0049325929)
(0.00029719371 0 0.0050510848)
(0.00025609714 0 0.0050901983)
(0.00021881941 0 0.005040277)
(0.00018562745 0 0.0048988842)
(0.00015540316 0 0.0046490285)
(0.00012806483 0 0.0042849026)
(0.00010211819 0 0.0037682865)
(7.6014362e-05 0 0.0030657924)
(4.8404565e-05 0 0.0021159964)
(1.6466624e-05 0 0.00077692138)
(0.0017899605 0 -0.0013116716)
(0.0017898479 0 -0.0013140013)
(0.001789686 0 -0.0013167555)
(0.0017894578 0 -0.0013200186)
(0.0017891399 0 -0.0013238811)
(0.0017887008 0 -0.0013284356)
(0.0017880978 0 -0.0013337912)
(0.0017872739 0 -0.0013400563)
(0.0017861525 0 -0.0013473539)
(0.0017846322 0 -0.0013557952)
(0.0017825773 0 -0.0013654927)
(0.0017798109 0 -0.0013765204)
(0.0017760988 0 -0.0013889157)
(0.0017711552 0 -0.0014026212)
(0.0017646378 0 -0.001417027)
(0.0017560784 0 -0.0014315911)
(0.0017448836 0 -0.0014453121)
(0.0017303395 0 -0.0014566237)
(0.0017116147 0 -0.0014631981)
(0.0016877887 0 -0.0014616976)
(0.001657924 0 -0.0014473351)
(0.0016211447 0 -0.0014132825)
(0.0015767128 0 -0.0013517171)
(0.0015242465 0 -0.0012534223)
(0.0014637959 0 -0.0011083126)
(0.0013958685 0 -0.00090765353)
(0.0013214736 0 -0.00064312309)
(0.0012418819 0 -0.00031332426)
(0.0011586847 0 8.0173272e-05)
(0.0010732982 0 0.00053098402)
(0.00098693017 0 0.0010279029)
(0.00090094768 0 0.0015549665)
(0.00081640223 0 0.0020938423)
(0.00073454773 0 0.0026247763)
(0.00065627347 0 0.0031294989)
(0.00058267318 0 0.0035918976)
(0.00051420285 0 0.004000529)
(0.000451528 0 0.0043457294)
(0.00039452804 0 0.004622838)
(0.00034334116 0 0.004828357)
(0.00029734879 0 0.0049578912)
(0.00025630843 0 0.0050076728)
(0.00021910203 0 0.0049682692)
(0.00018590475 0 0.0048365196)
(0.00015568371 0 0.0045962824)
(0.00012827878 0 0.0042402622)
(0.00010226996 0 0.0037318536)
(7.6128443e-05 0 0.0030369695)
(4.8443263e-05 0 0.0020937413)
(1.6429243e-05 0 0.0007653589)
(0.0017820467 0 -0.0015094308)
(0.0017819156 0 -0.0015119289)
(0.0017817312 0 -0.0015148812)
(0.0017814753 0 -0.0015183738)
(0.0017811235 0 -0.0015224979)
(0.0017806425 0 -0.0015273572)
(0.001779988 0 -0.0015330652)
(0.0017790999 0 -0.0015397482)
(0.0017778992 0 -0.0015475343)
(0.0017762794 0 -0.0015565581)
(0.0017741012 0 -0.0015669395)
(0.0017711799 0 -0.0015787815)
(0.001767276 0 -0.0015921381)
(0.0017621115 0 -0.0016067839)
(0.0017553315 0 -0.0016223032)
(0.0017464454 0 -0.0016381006)
(0.0017348508 0 -0.0016531517)
(0.0017198241 0 -0.0016658719)
(0.0017005282 0 -0.0016738755)
(0.0016760474 0 -0.0016737978)
(0.0016455077 0 -0.0016601734)
(0.0016080385 0 -0.0016265146)
(0.0015629541 0 -0.0015647038)
(0.0015099726 0 -0.0014653413)
(0.0014492191 0 -0.0013184612)
(0.0013813483 0 -0.0011145551)
(0.0013073346 0 -0.00084685544)
(0.0012285528 0 -0.00051275056)
(0.0011465372 0 -0.00011458335)
(0.0010626082 0 0.00034122197)
(0.00097789466 0 0.00084411343)
(0.00089357803 0 0.0013776875)
(0.00081059364 0 0.001923339)
(0.0007301311 0 0.0024617149)
(0.00065305927 0 0.0029748198)
(0.00058043192 0 0.003446521)
(0.00051273343 0 0.0038651943)
(0.00045062055 0 0.0042210212)
(0.00039403329 0 0.0045086755)
(0.00034310861 0 0.0047248861)
(0.00029729643 0 0.0048650644)
(0.00025635117 0 0.0049252096)
(0.00021924136 0 0.0048960128)
(0.00018606813 0 0.00477371)
(0.00015587074 0 0.0045428716)
(0.0001284234 0 0.0041949156)
(0.00010237098 0 0.0036946545)
(7.6205626e-05 0 0.0030074431)
(4.8461974e-05 0 0.0020711397)
(1.6389246e-05 0 0.00075394971)
(0.0017733895 0 -0.0017028888)
(0.0017732385 0 -0.0017055411)
(0.0017730296 0 -0.001708677)
(0.0017727435 0 -0.0017123883)
(0.0017723546 0 -0.0017167714)
(0.0017718278 0 -0.0017219375)
(0.0017711167 0 -0.0017280073)
(0.0017701587 0 -0.0017351152)
(0.001768871 0 -0.0017434011)
(0.0017671433 0 -0.0017530102)
(0.0017648304 0 -0.0017640777)
(0.0017617406 0 -0.0017767192)
(0.0017576364 0 -0.0017910195)
(0.0017522424 0 -0.0018066168)
(0.0017451759 0 -0.0018232274)
(0.0017359379 0 -0.0018402214)
(0.0017239135 0 -0.0018565774)
(0.0017083693 0 -0.0018706668)
(0.0016884632 0 -0.0018800136)
(0.0016633217 0 -0.0018809899)
(0.0016320918 0 -0.0018678281)
(0.0015938943 0 -0.0018343016)
(0.0015481393 0 -0.0017720174)
(0.0014946345 0 -0.001671309)
(0.0014336049 0 -0.0015224355)
(0.0013658051 0 -0.00131553)
(0.0012922239 0 -0.0010444478)
(0.0012143274 0 -0.0007059557)
(0.0011335624 0 -0.0003031574)
(0.0010512117 0 0.00015822291)
(0.00096821597 0 0.00066699366)
(0.00088558078 0 0.0012062515)
(0.00080419527 0 0.0017580573)
(0.00072516958 0 0.0023032198)
(0.00064934734 0 0.0028240125)
(0.00057774527 0 0.00330432)
(0.00051086973 0 0.0037323747)
(0.00044937169 0 0.0040982081)
(0.00039324579 0 0.0043961192)
(0.00034262694 0 0.0046222633)
(0.0002970352 0 0.0047726783)
(0.00025622303 0 0.0048428747)
(0.00021923584 0 0.0048235748)
(0.00018611543 0 0.0047105084)
(0.00015596277 0 0.0044888457)
(0.00012849705 0 0.004148897)
(0.00010242025 0 0.0036567202)
(7.6245324e-05 0 0.0029772323)
(4.8460473e-05 0 0.0020482074)
(1.6346394e-05 0 0.0007426773)
(0.0017640077 0 -0.0018921415)
(0.0017638352 0 -0.0018949458)
(0.0017635997 0 -0.0018982628)
(0.0017632811 0 -0.0019021893)
(0.001762852 0 -0.001906828)
(0.0017622758 0 -0.001912297)
(0.0017615036 0 -0.0019187253)
(0.0017604699 0 -0.0019262569)
(0.0017590886 0 -0.0019350414)
(0.0017572446 0 -0.0019452352)
(0.0017547873 0 -0.0019569833)
(0.0017515184 0 -0.0019704076)
(0.0017472027 0 -0.0019855791)
(0.0017415605 0 -0.0020021704)
(0.0017341878 0 -0.0020198611)
(0.001724572 0 -0.0020380479)
(0.0017120871 0 -0.0020556795)
(0.0016959895 0 -0.0020711216)
(0.0016754453 0 -0.0020817956)
(0.0016496345 0 -0.0020832987)
(0.0016176609 0 -0.0020706886)
(0.001578705 0 -0.0020371627)
(0.0015322643 0 -0.0019741912)
(0.0014782493 0 -0.0018718332)
(0.0014169944 0 -0.0017202096)
(0.0013492728 0 -0.001510469)
(0.0012762282 0 -0.0012354012)
(0.0011992612 0 -0.00089291825)
(0.0011198877 0 -0.00048472747)
(0.0010391918 0 -1.767098e-05)
(0.0009579156 0 0.00049621656)
(0.00087699288 0 0.0010406374)
(0.00079723944 0 0.0015980062)
(0.00071968971 0 0.0021493291)
(0.00064515862 0 0.0026771433)
(0.00057462883 0 0.0031653858)
(0.00050862298 0 0.0036021745)
(0.00044778867 0 0.0039774047)
(0.00039216781 0 0.0042850234)
(0.00034189856 0 0.0045206017)
(0.00029656705 0 0.0046808372)
(0.00025592461 0 0.0047607628)
(0.00021908566 0 0.0047510356)
(0.00018604598 0 0.0046469792)
(0.0001559591 0 0.0044342644)
(0.00012849846 0 0.0041022461)
(0.00010241625 0 0.0036180833)
(7.6246636e-05 0 0.0029463714)
(4.8437824e-05 0 0.0020249466)
(1.6300257e-05 0 0.00073153305)
(0.0017539217 0 -0.0020772755)
(0.0017537257 0 -0.0020802331)
(0.0017534616 0 -0.0020837319)
(0.0017531077 0 -0.0020878746)
(0.0017526353 0 -0.0020927696)
(0.0017520057 0 -0.0020985426)
(0.0017511675 0 -0.0021053308)
(0.0017500524 0 -0.002113288)
(0.0017485701 0 -0.0021225756)
(0.0017466005 0 -0.0021333646)
(0.0017439868 0 -0.0021458201)
(0.0017405234 0 -0.0021600952)
(0.0017359878 0 -0.0021760608)
(0.0017300836 0 -0.00219358)
(0.0017223834 0 -0.0022123229)
(0.0017123642 0 -0.002231655)
(0.0016993852 0 -0.0022505353)
(0.0016826942 0 -0.0022673217)
(0.0016615104 0 -0.0022789397)
(0.001634993 0 -0.0022810769)
(0.001602227 0 -0.0022688666)
(0.0015624837 0 -0.0022351879)
(0.0015153478 0 -0.0021713255)
(0.0014608411 0 -0.0020670023)
(0.0013993915 0 -0.0019122887)
(0.0013318361 0 -0.001699032)
(0.0012593932 0 -0.0014197823)
(0.0011834728 0 -0.0010728517)
(0.0011055977 0 -0.00065899015)
(0.0010265554 0 -0.00018694815)
(0.00094702547 0 0.0003316252)
(0.00086784336 0 0.00088071826)
(0.0007897513 0 0.0014430971)
(0.00071371194 0 0.0019999863)
(0.00064050955 0 0.0025341894)
(0.0005710946 0 0.0030297234)
(0.00050600182 0 0.0034746225)
(0.00044587686 0 0.0038586559)
(0.00039080227 0 0.0041754497)
(0.00034092428 0 0.0044199621)
(0.00029589137 0 0.0045896053)
(0.00025545427 0 0.0046789343)
(0.00021878956 0 0.0046784568)
(0.00018585797 0 0.0045831736)
(0.0001558584 0 0.0043791753)
(0.00012842611 0 0.0040549976)
(0.00010235808 0 0.0035787767)
(7.6208991e-05 0 0.0029148815)
(4.8393777e-05 0 0.0020013757)
(1.6250539e-05 0 0.00072050273)
(0.0017431517 0 -0.0022583748)
(0.0017429306 0 -0.0022614848)
(0.0017426355 0 -0.0022651647)
(0.0017422437 0 -0.0022695224)
(0.0017417247 0 -0.0022746727)
(0.0017410376 0 -0.0022807483)
(0.0017401286 0 -0.0022878945)
(0.0017389257 0 -0.0022962753)
(0.0017373344 0 -0.0023060627)
(0.0017352293 0 -0.0023174393)
(0.0017324462 0 -0.0023305822)
(0.0017287849 0 -0.0023456676)
(0.0017240245 0 -0.0023624473)
(0.0017178343 0 -0.0023808885)
(0.0017097822 0 -0.0024006533)
(0.0016993296 0 -0.0024211152)
(0.0016858228 0 -0.0024411781)
(0.0016685296 0 -0.0024590852)
(0.0016466867 0 -0.0024714191)
(0.0016193971 0 -0.0024743012)
(0.0015858031 0 -0.0024624004)
(0.0015452504 0 -0.0024283796)
(0.0014974549 0 -0.0023629171)
(0.0014424858 0 -0.002256313)
(0.001380851 0 -0.0020986498)
(0.0013135467 0 -0.0018811789)
(0.0012417446 0 -0.0015980784)
(0.0011670725 0 -0.0012453141)
(0.0010907091 0 -0.00082637824)
(0.0010133467 0 -0.00034971139)
(0.00093558679 0 0.00017314426)
(0.00085816929 0 0.00072644677)
(0.00078176354 0 0.0012933114)
(0.00070726365 0 0.0018552023)
(0.00063542216 0 0.0023951897)
(0.0005671596 0 0.0028973976)
(0.00050301898 0 0.0033497993)
(0.00044364511 0 0.0037420568)
(0.00038915543 0 0.0040674973)
(0.00033971167 0 0.0043206923)
(0.00029501106 0 0.0044990785)
(0.0002548135 0 0.0045974788)
(0.00021834821 0 0.0046059151)
(0.00018555123 0 0.0045191551)
(0.00015566016 0 0.0043236371)
(0.000128279 0 0.0040071938)
(0.00010224429 0 0.0035388336)
(7.6131461e-05 0 0.002882797)
(4.8327407e-05 0 0.0019774978)
(1.6196871e-05 0 0.00070957877)
(0.0017317171 0 -0.0024355223)
(0.0017314689 0 -0.0024387855)
(0.0017311407 0 -0.0024426474)
(0.0017307082 0 -0.0024472208)
(0.0017301392 0 -0.0024526266)
(0.0017293907 0 -0.0024590046)
(0.0017284059 0 -0.0024665083)
(0.0017271093 0 -0.0024753104)
(0.001725402 0 -0.0024855937)
(0.0017231529 0 -0.0024975528)
(0.0017201913 0 -0.0025113781)
(0.0017163254 0 -0.0025271481)
(0.0017113198 0 -0.0025447774)
(0.0017048255 0 -0.0025641513)
(0.0016963974 0 -0.0025849445)
(0.0016854841 0 -0.0026065027)
(0.0016714201 0 -0.0026277651)
(0.0016535116 0 -0.0026464625)
(0.0016309557 0 -0.0026596151)
(0.0016028553 0 -0.0026630912)
(0.0015683992 0 -0.0026513819)
(0.0015270718 0 -0.0026163947)
(0.0014786304 0 -0.0025490072)
(0.0014232032 0 -0.0024397449)
(0.0013614343 0 -0.0022788711)
(0.0012944108 0 -0.0020574097)
(0.001223428 0 -0.0017694044)
(0.0011500821 0 -0.0014109011)
(0.0010752529 0 -0.00098711349)
(0.00099959682 0 -0.00050615542)
(0.00092363047 0 2.0603171e-05)
(0.00084799896 0 0.00057768011)
(0.00077330092 0 0.0011485412)
(0.00070036541 0 0.0017149005)
(0.00062991331 0 0.0022600998)
(0.00056283663 0 0.0027683913)
(0.00049968394 0 0.0032277135)
(0.0004410998 0 0.0036276341)
(0.00038723234 0 0.0039612041)
(0.00033826308 0 0.0042228456)
(0.00029392837 0 0.0044095405)
(0.00025400132 0 0.0045164516)
(0.00021776069 0 0.0045334666)
(0.00018512427 0 0.0044549723)
(0.00015536322 0 0.0042676954)
(0.00012805573 0 0.0039588697)
(0.00010207408 0 0.0034982885)
(7.6013473e-05 0 0.0028501403)
(4.8238449e-05 0 0.0019533333)