/*--------------------------------*- C++ -*----------------------------------*\
  =========                 |
  \\      /  F ield         | OpenFOAM: The Open Source CFD Toolbox
   \\    /   O peration     | Website:  https://openfoam.org
    \\  /    A nd           | Version:  8
     \\/     M anipulation  |
\*---------------------------------------------------------------------------*/
FoamFile
{
    version     2.0;
    format      ascii;
    class       volScalarField;
    location    "0.240005";
    object      Ma;
}
// * * * * * * * * * * * * * * * * * * * * * * * * * * * * * * * * * * * * * //

dimensions      [0 0 0 0 0 0 0];

internalField   nonuniform List<scalar> 
20000
(
0.60424285
0.71820632
0.79698831
0.86843302
0.93767519
1.0041864
1.0145387
1.0233289
1.0158009
1.0194937
1.0148313
1.0159024
1.0123144
1.011526
1.0081739
1.0058604
1.0020006
0.99813115
0.99311063
0.9873938
0.98053451
0.97247447
0.96303696
0.95194188
0.93901637
0.92407871
0.90716532
0.88817222
0.86851448
0.84928301
0.83128763
0.81513425
0.80117281
0.78948781
0.78000988
0.77251743
0.7667199
0.7623241
0.75902133
0.75659929
0.75492416
0.75371932
0.75269894
0.75192837
0.75150024
0.75148155
0.75143066
0.75165889
0.75021249
0.75407568
0.61730052
0.73272385
0.81230723
0.88414618
0.95351888
1.0177628
1.0237789
1.032495
1.0249229
1.0286138
1.0238852
1.0249443
1.0212895
1.0204423
1.0170095
1.0145744
1.0105787
1.0064983
1.001241
0.99520451
0.98797284
0.97943557
0.96938778
0.95749
0.9435467
0.92732622
0.90864836
0.88875888
0.8687406
0.8492434
0.83107625
0.81483409
0.80087235
0.78924136
0.77983356
0.77240534
0.76665519
0.76228386
0.75898712
0.7565664
0.75489165
0.7536708
0.75256402
0.75175915
0.75142788
0.75137097
0.75143429
0.7514945
0.75094838
0.75400401
0.629553
0.74654333
0.82695433
0.89919053
0.96878055
1.0303842
1.0326128
1.0413237
1.0336705
1.0373959
1.0325879
1.0336292
1.0299056
1.0289764
1.0254553
1.0228649
1.0187158
1.0143919
1.0088792
1.0024918
0.99484965
0.98576662
0.9749923
0.96211123
0.9469464
0.92928495
0.90958788
0.88904269
0.86856127
0.84871461
0.8303633
0.81410403
0.80021821
0.78870688
0.77942576
0.77211004
0.76644784
0.76213524
0.758874
0.75648056
0.75482483
0.75358308
0.75240073
0.7516491
0.75135397
0.7513253
0.75140833
0.75150461
0.75106564
0.75399102
0.64152249
0.76001092
0.84113347
0.91363511
0.98335298
1.0419116
1.0407966
1.0495442
1.041806
1.0455451
1.0406547
1.0416642
1.0378624
1.0368344
1.0332091
1.030447
1.0261326
1.021558
1.0157793
1.0090142
1.0009056
0.99118669
0.97953858
0.96550582
0.94901668
0.93018396
0.90985967
0.88885013
0.8678789
0.84773758
0.82930195
0.81310175
0.79935835
0.78802067
0.77890895
0.77173843
0.76618804
0.76195103
0.7587371
0.75637962
0.75474572
0.75347061
0.75223452
0.75153697
0.75128377
0.75127174
0.75136901
0.75146857
0.75161129
0.75400348
0.65291768
0.77276268
0.85451792
0.92721476
0.9969498
1.0521297
1.0481729
1.0569766
1.0491488
1.0528973
1.047917
1.0488798
1.0449888
1.0438409
1.0400999
1.0371501
1.0326629
1.0278227
1.0217528
1.0145522
1.0058746
0.99537093
0.98266531
0.9674555
0.94992068
0.93048704
0.90965968
0.88806352
0.86662258
0.84627899
0.82784425
0.81178696
0.79825664
0.78714946
0.77825256
0.77126316
0.76585217
0.76171176
0.75856199
0.75625435
0.7546469
0.75332716
0.75207632
0.7514362
0.75121849
0.75122375
0.75132279
0.75146473
0.75206423
0.75405642
0.66360387
0.78463789
0.86698177
0.93984782
1.0094326
1.0609649
1.0546452
1.0635083
1.0555807
1.0593262
1.0542466
1.0551448
1.051155
1.0498725
1.0460118
1.0428655
1.0381938
1.0330572
1.0266425
1.018913
1.0095418
0.99808278
0.98436227
0.9683053
0.95022333
0.93024217
0.90876343
0.88658868
0.86480118
0.84436052
0.82602638
0.81019376
0.79694337
0.78611947
0.77747868
0.77070234
0.76545463
0.76142841
0.75835675
0.75610997
0.75453024
0.75315978
0.75192605
0.75133494
0.75115297
0.75117674
0.7512833
0.75148647
0.75261985
0.75415455
0.67350331
0.79556745
0.87844621
0.95148286
1.0206768
1.0684259
1.0601735
1.0690855
1.0610479
1.0647785
1.0595909
1.0604096
1.0563202
1.054896
1.0509135
1.0475527
1.0426622
1.0371595
1.0303072
1.0219247
1.0117723
0.99945173
0.98508305
0.96856113
0.94994021
0.92925264
0.90709965
0.8844486
0.86242475
0.84199677
0.82385919
0.8083323
0.79542657
0.78493629
0.77659063
0.77005758
0.76499582
0.76110072
0.75812122
0.75594599
0.7543948
0.75297755
0.75178166
0.75123445
0.75108442
0.75113426
0.7512562
0.75156294
0.75314291
0.75429455
0.68251609
0.80550814
0.8889055
0.96214702
1.0306243
1.0745668
1.0647552
1.0737034
1.0655482
1.0692519
1.0639536
1.0646851
1.0605023
1.0589262
1.0547998
1.0511757
1.0460037
1.0400407
1.0326389
1.0236062
1.0128267
1.0000152
0.98526014
0.96821729
0.94886894
0.92743215
0.90468663
0.88166179
0.85952277
0.83921713
0.82137136
0.80622712
0.79372633
0.78361578
0.77560061
0.76933795
0.76448228
0.76073331
0.75785867
0.75576362
0.75424097
0.75278744
0.75164135
0.75113155
0.75101205
0.7510921
0.7512368
0.75172102
0.75361109
0.7544354
0.69064969
0.81445719
0.89838676
0.97193033
1.0392723
1.0794833
1.0684165
1.0773892
1.0691162
1.0727917
1.0673919
1.0680259
1.0637421
1.0619751
1.057653
1.0536833
1.0481512
1.0417054
1.0338136
1.0243464
1.0132387
1.0000807
0.98482682
0.96704992
0.94693097
0.92481027
0.90155398
0.87826725
0.85612906
0.83605306
0.81858984
0.80390082
0.79186062
0.78217162
0.77451865
0.76855059
0.76391886
0.76032953
0.75757136
0.75556299
0.75406865
0.75259287
0.75150594
0.75103304
0.75093736
0.75104647
0.75122388
0.75197146
0.75396772
0.75457473
0.69789615
0.822427
0.90690912
0.98090088
1.0466138
1.0832768
1.0711849
1.0801821
1.0718019
1.0754599
1.069962
1.0704535
1.0660345
1.0640005
1.0594395
1.0551103
1.0492539
1.0424595
1.0343104
1.0245784
1.0131462
0.99951573
0.9835419
0.9650178
0.94416727
0.92142195
0.89774834
0.87430903
0.85228599
0.83254247
0.81554728
0.80138013
0.78985051
0.78061996
0.77335678
0.76770423
0.76331174
0.75989378
0.75726226
0.75534433
0.75387751
0.75239669
0.75137577
0.75094073
0.75086387
0.75099318
0.75121765
0.75228211
0.75422451
0.75467731
0.70424518
0.82948054
0.91452661
0.98915812
1.0526783
1.0860802
1.0731258
1.0821554
1.0736457
1.0772724
1.0716255
1.0718456
1.0673824
1.0650801
1.0603354
1.0557553
1.0497329
1.0427354
1.0343789
1.0243013
1.0123835
0.99808426
0.98141991
0.96216027
0.94061631
0.91731715
0.89331838
0.86983579
0.84803776
0.82872443
0.81227662
0.79869186
0.78771707
0.77897679
0.77212692
0.76680751
0.762667
0.75943047
0.75693427
0.75510805
0.75366666
0.75220133
0.75125092
0.75085405
0.75079341
0.75093352
0.75122511
0.75261019
0.75443345
0.75476905
0.70989749
0.83575443
0.92136977
0.99685356
1.0575585
1.0880467
1.0742486
1.0833391
1.0746577
1.0782698
1.0724203
1.0726021
1.0680108
1.0655501
1.0607298
1.0559869
1.0498328
1.0425762
1.0339079
1.023319
1.0108142
0.99587223
0.97849985
0.95852862
0.93633486
0.91254972
0.88831951
0.86490047
0.84343278
0.824641
0.80881298
0.79586426
0.78548225
0.77725879
0.77084147
0.76586943
0.76199108
0.75894425
0.75659044
0.75485545
0.7534359
0.75200756
0.75113125
0.75077231
0.7507251
0.75087221
0.75124742
0.7529338
0.75460947
0.7548419
0.71494907
0.84139664
0.92756827
1.0041244
1.0613825
1.0893196
1.0749972
1.0840134
1.075277
1.0787373
1.072933
1.0729992
1.0682778
1.065687
1.0607859
1.0558296
1.0494651
1.0418194
1.0327013
1.0215968
1.0085069
0.99290344
0.97483756
0.95417475
0.93137283
0.9071723
0.88280491
0.85955492
0.83851851
0.8203335
0.80519072
0.7929249
0.78316752
0.77548225
0.7695126
0.76489889
0.76129037
0.75843978
0.75623374
0.75458869
0.75318749
0.75181449
0.75101533
0.7506961
0.7506607
0.75081271
0.75128771
0.75324221
0.75476366
0.75490297
0.719585
0.84658975
0.9332755
1.0111218
1.0643282
1.0900856
1.0753904
1.0843951
1.0755977
1.0790304
1.0731564
1.0731638
1.0682346
1.0654553
1.060403
1.0551257
1.0484441
1.0403893
1.0308325
1.0191907
1.0055033
0.98924519
0.97048662
0.94915125
0.92578419
0.90124016
0.87683105
0.85385351
0.83334431
0.81584431
0.8014447
0.78990146
0.78079423
0.77366335
0.76815243
0.76390475
0.76057126
0.75792166
0.75586694
0.75431019
0.75292566
0.75162146
0.75089978
0.75062468
0.75060579
0.75076258
0.75135819
0.75352685
0.75490167
0.7549544
0.72398664
0.85152683
0.93866272
1.0179844
1.066552
1.0905134
1.0754957
1.0845847
1.0755626
1.0788108
1.072939
1.072738
1.0677418
1.0646836
1.0594221
1.0538138
1.0468234
1.0383475
1.0283315
1.01615
1.0018602
0.98494049
0.96549227
0.94350217
0.91961504
0.8948037
0.87045049
0.84784768
0.82795691
0.81121358
0.79760792
0.78682016
0.77838265
0.77181746
0.76677249
0.76289554
0.75983998
0.7573943
0.75549241
0.75402238
0.75265578
0.75142902
0.75078311
0.75055377
0.75055914
0.75072825
0.7514777
0.7537794
0.7550318
0.75499609
0.72810944
0.85611498
0.94365788
1.0245605
1.0679855
1.0905533
1.0751269
1.0839442
1.0749978
1.0782509
1.0721673
1.0716851
1.0666897
1.0633548
1.0578951
1.0519503
1.0446391
1.0357391
1.0252589
1.0125276
0.99762348
0.98003625
0.95989703
0.93727132
0.91291331
0.88791558
0.86371798
0.84159016
0.82240359
0.80648136
0.79371292
0.78370657
0.77595238
0.76995942
0.76538392
0.76187952
0.75910253
0.75686191
0.75511232
0.7537274
0.75238531
0.75123877
0.75066301
0.75047845
0.75051581
0.75070774
0.75165775
0.75399617
0.75514817
0.75503127
0.73178173
0.86019808
0.94813191
1.0305269
1.0685546
1.0898331
1.0741893
1.0830861
1.0739681
1.0770405
1.0709457
1.070259
1.0651324
1.0615246
1.0558661
1.0495849
1.0419481
1.0326159
1.0216559
1.0083632
0.99283061
0.97456449
0.95373315
0.9304936
0.90572042
0.88062311
0.85668371
0.83512951
0.81672793
0.80168465
0.78978977
0.78058422
0.77352145
0.76810291
0.76399701
0.76086438
0.75836463
0.75632842
0.75472881
0.75342733
0.75212237
0.75105335
0.75053284
0.75039483
0.75047196
0.75069493
0.75189327
0.75418615
0.75525172
0.75506062
0.73498016
0.86380762
0.95217478
1.0359134
1.0683607
1.088389
1.0728235
1.0816907
1.0725221
1.0754618
1.0692673
1.0683586
1.063139
1.0592535
1.0533934
1.0467676
1.0387919
1.0290171
1.0175615
1.003692
0.9875132
0.96855556
0.94703138
0.92320501
0.89808011
0.87297633
0.84939976
0.82851501
0.81097348
0.79685985
0.78586753
0.77747559
0.77110693
0.76626084
0.76262141
0.75985733
0.75763165
0.75579745
0.75434386
0.75312424
0.75187097
0.75087716
0.7504047
0.75030206
0.75041712
0.75068743
0.75216513
0.75436473
0.75534372
0.75508323
0.73769795
0.8669703
0.95583981
1.0407949
1.0674993
1.0868081
1.0711568
1.079924
1.0706795
1.0734666
1.067215
1.0660823
1.0607606
1.0565868
1.050515
1.0435357
1.0352057
1.0249745
1.013003
0.99853808
0.98169272
0.9620289
0.93981391
0.91543481
0.89003101
0.86502103
0.84191402
0.82179215
0.80518022
0.79204003
0.78197231
0.77440076
0.76872407
0.76444474
0.76126579
0.75886478
0.75690851
0.75527226
0.75395921
0.75281955
0.75163015
0.75071361
0.75028605
0.75020679
0.75034418
0.75069118
0.75246208
0.75453773
0.7554255
0.75509969
0.74002324
0.8697956
0.95923739
1.0451927
1.066108
1.0849046
1.0691363
1.0778208
1.0685231
1.0711473
1.0648332
1.0634633
1.0580305
1.053557
1.0472623
1.0399172
1.0312152
1.0205121
1.0080029
0.9929215
0.97538704
0.95500281
0.93210363
0.90721553
0.88161538
0.85680629
0.83427642
0.81500741
0.7993881
0.78725716
0.77812866
0.77137838
0.7663869
0.76266511
0.75993816
0.75789256
0.75619968
0.75475579
0.75357661
0.75251435
0.75139593
0.7505613
0.75018018
0.75011771
0.75026157
0.75072303
0.7527754
0.75470493
0.75549807
0.75511078
0.74201607
0.87233151
0.96242037
1.0490844
1.0643177
1.0826836
1.0668399
1.0754215
1.0660805
1.0685145
1.0621549
1.0605209
1.0549732
1.0501884
1.0436566
1.0359344
1.0268406
1.0156475
1.0025755
0.98685342
0.96860539
0.94748756
0.92391776
0.89857531
0.87287231
0.84837746
0.8265335
0.8082039
0.79363344
0.7825393
0.77435759
0.76842446
0.76410738
0.76093076
0.75864554
0.75694588
0.75550902
0.75425064
0.75319781
0.75221011
0.75116389
0.75041465
0.75008546
0.75004268
0.75019499
0.75079896
0.75309384
0.75486364
0.75556103
0.75511688
0.74373772
0.87461814
0.9654273
1.0524456
1.0623781
1.0802149
1.0642902
1.0727441
1.0633773
1.0655926
1.059186
1.057276
1.0516067
1.046499
1.0397162
1.0316033
1.0220961
1.0103931
0.99673114
0.98034183
0.96135513
0.93949427
0.91527654
0.88954718
0.86384554
0.83978375
0.81873442
0.80142565
0.78795134
0.77791233
0.77067816
0.76555336
0.76189594
0.75924923
0.75739412
0.75602983
0.75483987
0.75375909
0.75282456
0.75190873
0.75093167
0.75026864
0.74999667
0.7499896
0.7501586
0.75093833
0.75340311
0.75500954
0.75561312
0.75511784
0.7452339
0.87668463
0.96828228
1.0552452
1.0593931
1.077492
1.0614962
1.0697966
1.0604104
1.0623888
1.0559432
1.0537423
1.0479462
1.0425044
1.0354542
1.0269363
1.0169917
1.0047557
0.99047329
0.97338747
0.95363711
0.93102895
0.90619708
0.88016187
0.85457682
0.83107235
0.81092564
0.79471233
0.78237108
0.77339734
0.76710642
0.76277682
0.75976076
0.75762666
0.75618883
0.75514947
0.75419511
0.75328304
0.75245861
0.7516127
0.75070169
0.75012084
0.7499077
0.74994308
0.75014654
0.75115173
0.75368854
0.75513898
0.75565366
0.7551124
0.74652195
0.87852912
0.97094498
1.0574503
1.0565448
1.0745052
1.0584518
1.0665854
1.0571982
1.0589218
1.0524393
1.0499364
1.0440048
1.0382167
1.03088
1.0219409
1.0115328
0.99873771
0.9838022
0.96598892
0.94545265
0.9221004
0.89670209
0.87045623
0.84511382
0.82229475
0.80315502
0.78810051
0.77691725
0.76901305
0.76365772
0.76010523
0.75770883
0.75606905
0.75503343
0.75430946
0.75357752
0.75282399
0.75210168
0.75132482
0.75048007
0.74996924
0.74981418
0.74989892
0.75014655
0.75145043
0.75394092
0.75524992
0.75567809
0.7551014
0.74768204
0.88023385
0.97343323
1.0590073
1.053334
1.0712798
1.0551852
1.0631279
1.0537579
1.0552087
1.0486901
1.045869
1.0397913
1.0336433
1.0259992
1.0166213
1.0057202
0.99233622
0.97671198
0.95813972
0.93679847
0.91271541
0.88681306
0.86046705
0.83550317
0.81349996
0.79546415
0.78161659
0.77160665
0.76477537
0.76034643
0.75754726
0.75574627
0.75458257
0.75393067
0.75351255
0.75298992
0.75238301
0.75175537
0.75104747
0.75027225
0.74982617
0.74971592
0.74983808
0.75015455
0.75180813
0.75416726
0.75534327
0.7556931
0.75508656
0.74874053
0.88183226
0.97572239
1.0598952
1.049904
1.0678335
1.0517212
1.0594481
1.0500964
1.0512598
1.0447023
1.0415474
1.0353099
1.0287888
1.0208143
1.0109771
0.99955004
0.98554437
0.96919456
0.94983278
0.92767385
0.90288568
0.876559
0.85023822
0.82579748
0.80473866
0.78788903
0.7752792
0.7664547
0.76070234
0.75718704
0.75511114
0.75388004
0.75317361
0.75288379
0.75275761
0.75243505
0.75196088
0.75142094
0.75078157
0.75007936
0.74969542
0.74962251
0.74976294
0.75018818
0.75219172
0.75437793
0.75542258
0.75570285
0.75507007
0.74975607
0.88340391
0.97780932
1.0601346
1.046248
1.0641863
1.0480621
1.0555552
1.0462218
1.0470768
1.0404802
1.036975
1.0305631
1.0236549
1.0153245
1.0050039
0.99301411
0.97835062
0.96123773
0.94105793
0.91807617
0.89262325
0.86596967
0.83981472
0.816048
0.79605454
0.78045242
0.76910084
0.76148202
0.75681494
0.75419068
0.75280353
0.75211704
0.7518458
0.75189796
0.75203933
0.75191433
0.75155827
0.75109923
0.75052594
0.74989818
0.74957969
0.74954526
0.74970481
0.75027957
0.7525809
0.75457143
0.75548922
0.75570634
0.75505174
0.75077467
0.88498407
0.97966467
1.0597036
1.042402
1.0603388
1.0442119
1.0514485
1.0421396
1.0426639
1.0360239
1.0321544
1.0255512
1.0182406
1.0095243
0.99869191
0.9860997
0.9707411
0.95282865
0.9318065
0.90800746
0.88194775
0.85508397
0.82924933
0.8063088
0.78748518
0.77316934
0.76310436
0.75672393
0.75313518
0.75136492
0.75062878
0.75045941
0.75059873
0.75098014
0.75135308
0.75142597
0.75117606
0.75079098
0.75027902
0.74972509
0.74947543
0.74949112
0.74968238
0.75044868
0.75295552
0.7547449
0.75554233
0.7557013
0.75503188
0.75181015
0.886556
0.98122144
1.0586067
1.0383679
1.0562932
1.0401741
1.0471328
1.0378504
1.0380224
1.0313329
1.027087
1.0202718
1.01254
1.0034032
0.99202703
0.9787908
0.96269912
0.94395218
0.92206832
0.8974702
0.87088083
0.84394338
0.81859467
0.79662661
0.77905359
0.76605463
0.75733283
0.75221651
0.74967713
0.74870869
0.74858373
0.74890017
0.74943236
0.75013355
0.75070457
0.7509636
0.75081538
0.75049709
0.7500422
0.74955911
0.74937575
0.7494459
0.74968225
0.75069847
0.7532963
0.75489574
0.75558279
0.75568743
0.75500906
0.75290396
0.88819835
0.98246586
1.0568722
1.0341693
1.0520493
1.0359504
1.0426034
1.0333516
1.0331557
1.0264086
1.0217704
1.014718
1.0065414
0.99694565
0.98499144
0.97106971
0.95420755
0.93459419
0.91183669
0.88647409
0.85945385
0.83259887
0.80790732
0.78704257
0.77077594
0.75914808
0.75183954
0.74798567
0.7464391
0.74620655
0.74666411
0.7474385
0.74834784
0.74935348
0.75010821
0.7505191
0.75047728
0.7502186
0.74982047
0.74940199
0.74927492
0.74939646
0.74969521
0.75104455
0.75358922
0.75502408
0.75561393
0.75566746
0.75498319
0.75399178
0.88989345
0.98333344
1.054501
1.0297908
1.0475986
1.0315338
1.0378586
1.0286411
1.0280677
1.0212462
1.016196
1.0088748
1.0002279
0.99013332
0.97756613
0.96291758
0.94524795
0.92473904
0.90110518
0.87503125
0.84770202
0.82110252
0.7972378
0.77758409
0.76267103
0.75251373
0.74666639
0.74403685
0.74339211
0.74385378
0.74487222
0.74607899
0.74734397
0.74863573
0.74956704
0.75009094
0.75016176
0.74995604
0.74961656
0.74925864
0.74917717
0.74933427
0.74972639
0.7514522
0.7538436
0.75513314
0.75563882
0.75564355
0.75495543
0.75503545
0.89168576
0.98377198
1.0515399
1.0252498
1.0429479
1.0269319
1.0329037
1.0237213
1.0227468
1.0158306
1.010346
1.0027233
0.99358056
0.9829465
0.96973126
0.95431513
0.93580219
0.91437296
0.88987346
0.86316332
0.83567162
0.8095123
0.78663349
0.76827248
0.75479054
0.74621619
0.74183924
0.74033768
0.74052128
0.74166332
0.74320817
0.74481956
0.74642098
0.74798062
0.74907298
0.74968492
0.74986661
0.74970927
0.74942763
0.74913243
0.7490927
0.74927243
0.74979963
0.75188131
0.75407817
0.75522445
0.75565793
0.75561495
0.75492508
0.75605281
0.89359195
0.98370689
1.0480423
1.0205461
1.0380943
1.0221406
1.0277294
1.0185766
1.0171741
1.0101415
1.0042005
0.99624386
0.98658027
0.97536593
0.96146636
0.94524216
0.92585021
0.90348218
0.87814324
0.85089738
0.82341202
0.7978828
0.77612934
0.75913025
0.7472148
0.74030255
0.7373426
0.73684991
0.73784454
0.73963384
0.74166944
0.74365878
0.74557788
0.74738498
0.74862123
0.74930773
0.74958766
0.74947804
0.74924835
0.749021
0.74903278
0.74924004
0.74993838
0.75230876
0.7542935
0.75529792
0.75566582
0.75557533
0.75489186
0.75706082
0.89562304
0.98310752
1.0440511
1.0156769
1.033025
1.017143
1.0223128
1.0131819
1.0113258
1.0041597
0.99774203
0.98941896
0.97920839
0.96737157
0.95275018
0.93567769
0.91537266
0.89205654
0.86592568
0.83827211
0.8109819
0.78626807
0.76575494
0.75021297
0.74002196
0.73479913
0.73312309
0.73358053
0.73536769
0.73776281
0.74025293
0.74259429
0.74481267
0.74684416
0.74820788
0.74896566
0.74932118
0.74926285
0.74907598
0.74891775
0.74898646
0.74924019
0.75015439
0.75271076
0.75448672
0.75535586
0.7556594
0.75552602
0.75485606
0.75802244
0.897755
0.98192902
1.0395551
1.0106101
1.0277051
1.0119078
1.0166255
1.0075143
1.0051858
0.99786953
0.99095777
0.98223099
0.97144552
0.95894226
0.94356034
0.92559883
0.904349
0.88008778
0.85323703
0.82533206
0.79843893
0.7747131
0.75553645
0.74161063
0.73326814
0.72967996
0.72914751
0.73054922
0.73308666
0.73604528
0.73895461
0.74162326
0.74412232
0.74635461
0.74783098
0.74865764
0.74906716
0.74906501
0.74891323
0.74881779
0.74894609
0.74925797
0.75046881
0.75306694
0.75465434
0.75540137
0.75563524
0.75547235
0.75481777
0.75885057
0.89991689
0.98012095
1.0345665
1.0053159
1.0221092
1.006416
1.010656
1.0015662
0.9987483
0.99125734
0.98383336
0.97466086
0.96326945
0.95005535
0.93387254
0.91498155
0.89276031
0.86757495
0.84010586
0.81213266
0.78584338
0.76325887
0.74552556
0.73341966
0.7269858
0.7248793
0.7254355
0.72775676
0.73099675
0.73447595
0.73777016
0.74074249
0.74350377
0.74591466
0.74749012
0.74837744
0.74882739
0.74888514
0.74876677
0.74872308
0.7488949
0.74929329
0.75086843
0.75337099
0.75479373
0.75543406
0.7556098
0.7554131
0.75477716
0.75955862
0.90202364
0.97763869
1.0292261
0.99978608
1.0162376
1.0006693
1.0044061
0.9953348
0.99200406
0.98430831
0.97634861
0.9666867
0.95465678
0.94068678
0.92366038
0.90379932
0.88058821
0.85452223
0.8265682
0.79873157
0.77324789
0.75193823
0.73581451
0.72571206
0.72115182
0.72036236
0.72200529
0.72519791
0.72909096
0.73304838
0.7366945
0.73994824
0.74295403
0.74552283
0.7471837
0.74812094
0.74860211
0.74872109
0.74864038
0.74864448
0.74883927
0.74936794
0.75131705
0.75363641
0.75490366
0.75544911
0.75557308
0.75535153
0.75473478
0.76017463
0.90404856
0.97451755
1.023869
0.9940356
1.0101001
0.99467007
0.99787261
0.9888065
0.98493456
0.97700128
0.96848135
0.95828528
0.94558274
0.93081051
0.91289474
0.89202521
0.86781934
0.8409458
0.81267332
0.78519269
0.76070336
0.74079555
0.72652181
0.71853263
0.71569572
0.71615052
0.71885701
0.72286568
0.72736189
0.73175596
0.73572237
0.73923651
0.74247028
0.74517701
0.7469093
0.74788594
0.74839143
0.74856778
0.74853078
0.74857924
0.74881186
0.74950645
0.75177278
0.75387487
0.75498762
0.75544769
0.75552667
0.75529058
0.75469202
0.76076366
0.90589251
0.9707767
1.0181676
0.98807525
1.0036867
0.98840572
0.9910342
0.98195802
0.97751454
0.96931174
0.96020988
0.94943337
0.93602112
0.92039687
0.9015432
0.87963117
0.85444539
0.82687047
0.79847649
0.77157583
0.74825401
0.7299169
0.71774181
0.71187457
0.71057013
0.71226545
0.71598362
0.72075106
0.72580097
0.73059135
0.7348481
0.73860308
0.74204937
0.74487419
0.74666448
0.74767187
0.74819637
0.74842135
0.74843421
0.74853795
0.74882036
0.74971302
0.75220873
0.75408586
0.75505273
0.75543867
0.75547648
0.75522932
0.75465029
0.76134211
0.90751123
0.96645239
1.0120302
0.98187608
0.99696481
0.98184657
0.98386496
0.97476553
0.96972402
0.96121678
0.95151331
0.94010628
0.92594062
0.90941133
0.88957015
0.8665924
0.84046857
0.81233655
0.78404257
0.75794251
0.73594878
0.71943285
0.70953705
0.70567238
0.70578839
0.70871003
0.71337627
0.71884449
0.7243995
0.7295474
0.73406653
0.73804452
0.74168781
0.74461071
0.74644695
0.74747912
0.74801955
0.74828362
0.74834316
0.7484993
0.7488459
0.75001084
0.75260181
0.7542674
0.75510328
0.75542642
0.75542599
0.75516887
0.75461019
0.76190188
0.90883912
0.9615553
1.0056567
0.97540237
0.98990971
0.97497098
0.97634793
0.96721142
0.96155072
0.95269726
0.94236658
0.93027365
0.91530444
0.89781412
0.87693786
0.85288747
0.82590106
0.79739283
0.76943686
0.74434893
0.72385946
0.70946361
0.70193056
0.69985661
0.70137999
0.70547542
0.71102362
0.71713502
0.72314796
0.72861655
0.73337295
0.73755841
0.74138156
0.74438284
0.74625452
0.74730789
0.74786385
0.74815905
0.74825737
0.7484514
0.74889471
0.75040517
0.75293691
0.7544201
0.75514009
0.75540818
0.75537633
0.75510917
0.7545716
0.76231546
0.90988271
0.95615718
0.99888442
0.96865283
0.98251303
0.96776799
0.96847043
0.95927713
0.95298316
0.94373016
0.93273636
0.91989696
0.90406891
0.88556078
0.86360955
0.83850416
0.81077071
0.78210187
0.75472824
0.73085463
0.71211247
0.70010222
0.69487442
0.69442218
0.69735412
0.70255103
0.70891368
0.71561164
0.72203699
0.72779163
0.73276302
0.73714254
0.74112595
0.74418753
0.7460856
0.74715695
0.74772918
0.74804824
0.74818349
0.74840529
0.74898885
0.75086304
0.75322431
0.75454735
0.75516383
0.75537592
0.75532039
0.75504956
0.7545338
0.76248547
0.91060913
0.95028676
0.9917562
0.96161349
0.97476599
0.96022754
0.96022152
0.95094576
0.94399142
0.93427932
0.92258033
0.90893035
0.89218501
0.87260445
0.84955144
0.82344059
0.79511743
0.76653103
0.7399828
0.71752469
0.70085921
0.69140239
0.68827652
0.68940808
0.69370044
0.69992314
0.70703291
0.71426252
0.72105683
0.72706526
0.7322311
0.73679086
0.74091557
0.74402268
0.74593973
0.74702482
0.74761128
0.74794716
0.74812871
0.74839162
0.74913614
0.75133248
0.75348208
0.75465023
0.75517392
0.75533884
0.75526186
0.75498885
0.75449587
0.76232998
0.91100286
0.94403376
0.98424541
0.95428258
0.96666435
0.95233976
0.95157727
0.94218497
0.93453332
0.92429927
0.91184887
0.89732215
0.87959867
0.85889767
0.83473764
0.8077111
0.77899802
0.75075577
0.72527325
0.70447304
0.69022833
0.68334808
0.68210517
0.68483343
0.69040716
0.69757729
0.70536779
0.71307603
0.72019819
0.72643053
0.73176965
0.73648937
0.740745
0.74388686
0.74581675
0.74691049
0.74750607
0.74785327
0.74808881
0.74841019
0.74934521
0.75178405
0.75370745
0.75473013
0.75517104
0.7552976
0.75519564
0.75492722
0.75445668
0.76177635
0.91104989
0.93774599
0.97638011
0.94666332
0.95818671
0.94406352
0.94249265
0.93294488
0.9245614
0.91373851
0.90048658
0.88501546
0.8662532
0.84439514
0.81915232
0.79134445
0.76247882
0.73485089
0.71067389
0.69186026
0.6803008
0.6758512
0.67639838
0.68068919
0.68745813
0.69549704
0.70390369
0.71203997
0.71945166
0.72588048
0.73137033
0.73622011
0.74061059
0.7437788
0.74571515
0.7468117
0.74741241
0.74776828
0.7480448
0.74844675
0.74963175
0.75219011
0.7538985
0.75479105
0.75516187
0.75525429
0.75513815
0.75486795
0.75441362
0.76079765
0.91077343
0.92976421
0.96810699
0.93868018
0.94925884
0.93533526
0.9329139
0.9231757
0.91402504
0.9025411
0.88843225
0.87194757
0.85209071
0.82905796
0.80279573
0.7743885
0.745639
0.71889941
0.69628444
0.67985174
0.67110604
0.66885032
0.67118506
0.6769629
0.68483619
0.69366571
0.70262609
0.71114258
0.71880834
0.72540803
0.7310274
0.73598224
0.74051356
0.74369685
0.74563166
0.74672564
0.74732932
0.74769351
0.74799387
0.74851291
0.75000775
0.75253151
0.75405724
0.75483757
0.75514991
0.75521062
0.75508283
0.75481373
0.75436736
0.75915747
0.9099267
0.92214211
0.95932513
0.93026226
0.93982621
0.92610772
0.92280036
0.91282361
0.90286964
0.89064251
0.87561618
0.85805253
0.83705482
0.81285726
0.78568378
0.75690519
0.72855996
0.70298803
0.68225832
0.6685717
0.66258563
0.66235396
0.66646858
0.67363573
0.68252145
0.6920652
0.70151992
0.71037227
0.71825941
0.72500497
0.73073711
0.73581368
0.74046262
0.74363836
0.7455615
0.74664814
0.74725523
0.74763213
0.74796394
0.74862831
0.75044196
0.75281895
0.75418996
0.75487135
0.75513519
0.75516567
0.75502863
0.75476122
0.75432201
0.75670227
0.9086996
0.91400968
0.95004015
0.92140789
0.92986941
0.91634875
0.91211407
0.90182004
0.89102185
0.87796955
0.86196389
0.84326306
0.8210955
0.79577962
0.76785467
0.73897425
0.71133447
0.68721954
0.66879265
0.65809302
0.65464714
0.65640912
0.66223499
0.67068783
0.68049373
0.69067791
0.7005714
0.70971899
0.71779691
0.72466321
0.73049276
0.73573319
0.74045285
0.74359853
0.74549996
0.74657454
0.74718721
0.74758925
0.74797038
0.74878823
0.75088783
0.75307635
0.75429856
0.75488823
0.75511239
0.75511756
0.75497437
0.75470943
0.75427812
0.75349783
0.90702449
0.90523684
0.94020288
0.91206895
0.91933441
0.90599514
0.90078504
0.89008799
0.87840152
0.86444166
0.84739958
0.82751472
0.80417276
0.77782903
0.74936441
0.72068439
0.69406356
0.67173697
0.65605583
0.64839969
0.64726573
0.65103394
0.65846395
0.66809569
0.67873141
0.68948631
0.69976785
0.70917351
0.71741269
0.7243757
0.73028781
0.73570413
0.7404663
0.74357262
0.74544472
0.74650462
0.74712456
0.74755981
0.74799899
0.74899289
0.75132603
0.75330333
0.7543836
0.75488955
0.75507597
0.75506557
0.75492022
0.75465838
0.75423554
0.7494791
0.9048085
0.89596623
0.929744
0.9021799
0.90815353
0.89496826
0.88872915
0.87754478
0.86492185
0.84997773
0.83184731
0.81074832
0.7862599
0.759031
0.7302898
0.7021365
0.67686489
0.65674642
0.64416762
0.63939917
0.64049488
0.64621406
0.65513241
0.66583526
0.67721374
0.68847484
0.69909817
0.70872625
0.71709729
0.72413703
0.7301388
0.73570594
0.74049391
0.74355689
0.74539611
0.74644279
0.74707112
0.74753553
0.74804619
0.74925552
0.75173114
0.75349852
0.75445075
0.75488418
0.75503658
0.75501115
0.75486542
0.75460754
0.75419485
0.74463912
0.90199466
0.88610624
0.91858554
0.89166694
0.89624879
0.88317735
0.87585397
0.86409593
0.85049435
0.8344983
0.81523585
0.79291317
0.76734714
0.73943178
0.71072163
0.68344082
0.65987585
0.64246291
0.63316156
0.63103645
0.63436467
0.64192904
0.652213
0.6638808
0.67592014
0.68762845
0.69854939
0.70836336
0.71683824
0.72394093
0.73005941
0.73573572
0.74053173
0.74354873
0.74535476
0.74639144
0.7470289
0.7475176
0.74812559
0.74959418
0.75207795
0.75366194
0.75450428
0.75487406
0.7549947
0.7549569
0.75481025
0.75455566
0.75415788
0.73894392
0.89844846
0.87562699
0.90663478
0.88043469
0.88353598
0.87051896
0.86206858
0.8496457
0.8350362
0.81792748
0.79749593
0.77396824
0.74744518
0.71910211
0.69076838
0.66473023
0.6433046
0.62905876
0.62297439
0.62334423
0.62887375
0.63815261
0.6496775
0.6622077
0.67483167
0.68693128
0.69810366
0.70806626
0.71662228
0.72378288
0.73003059
0.73579424
0.74057862
0.74354515
0.74531955
0.7463495
0.74700048
0.74751973
0.7482505
0.74999198
0.75236941
0.75379893
0.75454559
0.75485966
0.75495204
0.75490442
0.75475798
0.75449957
0.7541253
0.73232505
0.89397769
0.86447344
0.89378623
0.868385
0.86991883
0.85689087
0.84729012
0.83411333
0.81846425
0.80018672
0.77856173
0.75388554
0.72658825
0.69813309
0.67055342
0.64615837
0.627402
0.6166205
0.61352355
0.61636967
0.62400005
0.63485353
0.6474955
0.66079117
0.67392836
0.68636253
0.69773819
0.7078197
0.71644463
0.72367529
0.73003195
0.73587599
0.74063285
0.74354343
0.7452889
0.74631543
0.74698672
0.74754486
0.74841411
0.75040835
0.75263029
0.75391486
0.75457389
0.75484012
0.75490856
0.75485406
0.7547102
0.75443947
0.75409868
0.72479547
0.88840893
0.85259973
0.87994013
0.85540915
0.85530468
0.84219195
0.83145032
0.81742145
0.80068796
0.78118969
0.75836831
0.73265612
0.70483895
0.67664171
0.65022828
0.6279388
0.61239113
0.60513014
0.60481255
0.61012824
0.61971499
0.63199877
0.64563759
0.65960764
0.67318838
0.68589783
0.69743795
0.7076288
0.71631983
0.72362427
0.73005547
0.73597784
0.74069302
0.74354579
0.74526252
0.74628756
0.7469819
0.74758397
0.74861361
0.75082492
0.75286435
0.75401081
0.75458806
0.75481571
0.75486251
0.75480201
0.75466235
0.7543848
0.75407823
0.71639007
0.88151815
0.83993877
0.86500387
0.84140209
0.83962222
0.82634724
0.8144584
0.79947367
0.78159628
0.76083906
0.73686286
0.71029984
0.68229028
0.65476726
0.62997129
0.61034568
0.59842032
0.59448691
0.59690878
0.60459735
0.61598282
0.62955233
0.64407352
0.65863156
0.67258607
0.68551801
0.69721271
0.70750831
0.71625371
0.7236097
0.73010214
0.73609596
0.74075967
0.74355648
0.74524179
0.74626613
0.74698152
0.74763839