/*--------------------------------*- C++ -*----------------------------------*\
  =========                 |
  \\      /  F ield         | OpenFOAM: The Open Source CFD Toolbox
   \\    /   O peration     | Website:  https://openfoam.org
    \\  /    A nd           | Version:  8
     \\/     M anipulation  |
\*---------------------------------------------------------------------------*/
FoamFile
{
    version     2.0;
    format      ascii;
    class       surfaceScalarField;
    location    "0.240005";
    object      meshPhi;
}
// * * * * * * * * * * * * * * * * * * * * * * * * * * * * * * * * * * * * * //

dimensions      [0 3 -1 0 0 0 0];

internalField   nonuniform List<scalar> 
39600
(
-5.1836272e-05
-3.2363204e-06
3.2394314e-06
-5.1872562e-05
-3.8938305e-06
3.9492286e-06
-5.1914694e-05
-4.665223e-06
4.7307949e-06
-5.1967248e-05
-5.5885077e-06
5.6672587e-06
-5.203205e-05
-6.6941903e-06
6.7888898e-06
-5.2111254e-05
-8.018371e-06
8.1321198e-06
-5.2208117e-05
-9.6039834e-06
9.7404379e-06
-5.232692e-05
-1.1502208e-05
1.1665725e-05
-5.2473033e-05
-1.3774102e-05
1.3969714e-05
-5.2654275e-05
-1.6492146e-05
1.6725708e-05
-5.2891574e-05
-1.974184e-05
2.0020358e-05
-5.3212308e-05
-2.3623697e-05
2.3955602e-05
-5.3653834e-05
-2.825521e-05
2.8650679e-05
-5.4262006e-05
-3.377254e-05
3.4244045e-05
-5.5041272e-05
-4.0333291e-05
4.0895302e-05
-5.6084219e-05
-4.8118256e-05
4.8788086e-05
-5.7250751e-05
-5.7330404e-05
5.8130682e-05
-5.8474087e-05
-6.820575e-05
6.9161459e-05
-6.0012995e-05
-8.0989141e-05
8.2127765e-05
-6.1893299e-05
-9.5898208e-05
9.7255204e-05
-6.4102294e-05
-0.00011314545
0.00011476506
-6.6669961e-05
-0.00013286294
0.00013480233
-6.9490685e-05
-0.00015529894
0.00015765876
-7.2995395e-05
-0.00018055152
0.00018349186
-7.963255e-05
-0.00020804311
0.00021175771
-9.1001308e-05
-0.00023704994
0.00024189385
-0.00010639146
-0.00026741609
0.00027365069
-0.00012692668
-0.00029971152
0.00030787386
-0.00015563787
-0.00033268568
0.00034394712
-0.00020878736
-0.00035419494
0.0003695208
-0.00027493219
-0.00035636558
0.00037660325
-0.00033263234
-0.00036039072
0.00038721573
-0.00039929067
-0.00037486085
0.00041079729
-0.00047984064
-0.00037892928
0.00042494521
-0.00057225064
-0.00036603586
0.00042368977
-0.00066449578
-0.00034410732
0.00041528498
-0.000763278
-0.00031447138
0.00040014172
-0.00086299948
-0.00028534822
0.00038728513
-0.00095996393
-0.00026527345
0.00038385035
-0.0010842985
-0.00024433483
0.00038143692
-0.0012035506
-0.00022580459
0.00038341565
-0.0012736272
-0.00016685105
0.00033755446
-0.0012979469
-3.8582797e-05
0.0002123313
-0.0013269576
7.4407558e-05
0.00010076569
-0.0012908395
0.00013672765
3.4169394e-05
-0.0010956767
0.00020601469
-6.1388929e-05
-0.00087892442
0.00026773553
-0.00015937909
-0.0007889665
0.0002636279
-0.00017455254
-0.00060964242
0.00021925428
-0.00015284108
9.8765281e-05
-7.8037853e-05
-4.1683333e-05
-3.2037477e-06
-4.1719886e-05
-3.8548322e-06
-4.1764908e-05
-4.6180242e-06
-4.1818526e-05
-5.5322212e-06
-4.1876039e-05
-6.627273e-06
-4.193807e-05
-7.9386055e-06
-4.2000618e-05
-9.5089867e-06
-4.2067033e-05
-1.1388938e-05
-4.2138322e-05
-1.3638985e-05
-4.2222779e-05
-1.6330671e-05
-4.2335838e-05
-1.9548769e-05
-4.2503533e-05
-2.3392945e-05
-4.2752269e-05
-2.7980248e-05
-4.3117921e-05
-3.3446402e-05
-4.3589441e-05
-3.9949975e-05
-4.4240079e-05
-4.7669236e-05
-4.5026158e-05
-5.6803333e-05
-4.5932481e-05
-6.7579596e-05
-4.7171506e-05
-8.0235265e-05
-4.8772447e-05
-9.499635e-05
-5.0731315e-05
-0.00011206461
-5.3074846e-05
-0.0001315743
-5.5800727e-05
-0.0001537099
-5.9398433e-05
-0.00017848552
-6.5880247e-05
-0.00020534429
-7.6838048e-05
-0.0002334691
-9.1314656e-05
-0.00026278043
-0.00011128426
-0.00029338928
-0.00013984617
-0.00032327748
-0.00019149134
-0.00034082478
-0.00025557809
-0.0003386872
-0.00031339998
-0.00033651164
-0.00038034181
-0.00034179336
-0.00045991448
-0.00033572294
-0.0005519977
-0.00031145043
-0.00064423651
-0.00027635551
-0.00074403345
-0.00023219726
-0.00084396222
-0.00018719306
-0.00094316904
-0.00015021291
-0.0010674891
-0.00011064821
-0.0011889971
-7.0992957e-05
-0.0012630528
3.7563374e-06
-0.0012924826
0.00013662589
-0.0013220555
0.00025065681
-0.0012881243
0.00030850173
-0.0011246204
0.00035520729
-0.00089941978
0.00038233075
-0.00080610456
0.0003579129
-0.00062351364
0.00029185503
0.00012346508
-3.2042675e-05
-3.1829737e-06
-3.191159e-05
-3.8310071e-06
-3.1785004e-05
-4.5907491e-06
-3.1687264e-05
-5.5008601e-06
-3.1622691e-05
-6.5908669e-06
-3.1585611e-05
-7.8959921e-06
-3.1572154e-05
-9.4586148e-06
-3.1582384e-05
-1.1328962e-05
-3.1619315e-05
-1.3566975e-05
-3.1684826e-05
-1.6243759e-05
-3.1784045e-05
-1.9443425e-05
-3.1924945e-05
-2.3265597e-05
-3.210974e-05
-2.7826998e-05
-3.2344748e-05
-3.3264597e-05
-3.2623585e-05
-3.9737387e-05
-3.2989284e-05
-4.7421403e-05
-3.3480128e-05
-5.6513084e-05
-3.4169535e-05
-6.7231699e-05
-3.5181247e-05
-7.9814239e-05
-3.6548095e-05
-9.4492164e-05
-3.8293902e-05
-0.00011145578
-4.0435541e-05
-0.0001308385
-4.3048936e-05
-0.00015276665
-4.6611262e-05
-0.00017720215
-5.2828075e-05
-0.00020355721
-6.3204927e-05
-0.00023095953
-7.675523e-05
-0.00025940927
-9.6099874e-05
-0.00028851762
-0.00012455073
-0.00031560694
-0.00017469145
-0.00032950632
-0.00023666625
-0.00032324973
-0.00029456543
-0.00031498617
-0.00036152426
-0.00031143737
-0.0004402336
-0.00029546895
-0.00053171751
-0.00026001962
-0.00062386588
-0.00021192462
-0.00072457933
-0.00015320191
-0.00082472368
-9.2252534e-05
-0.00092623815
-3.8199968e-05
-0.0010507661
2.017358e-05
-0.0011742214
8.095982e-05
-0.0012517979
0.00017212384
-0.0012868332
0.00031129836
-0.0013175737
0.00042745912
-0.0012860419
0.00048121095
-0.0011494677
0.00050910661
-0.00092072012
0.00050502648
-0.00082439426
0.00045723037
-0.00063822744
0.00036846778
0.00015067928
-2.3120589e-05
-3.1727061e-06
-2.2959308e-05
-3.8179625e-06
-2.2787149e-05
-4.5743002e-06
-2.2621724e-05
-5.4805861e-06
-2.2471048e-05
-6.566572e-06
-2.2332386e-05
-7.8676349e-06
-2.220886e-05
-9.4260936e-06
-2.2107835e-05
-1.1292332e-05
-2.2037196e-05
-1.3526276e-05
-2.2004944e-05
-1.6198958e-05
-2.2011914e-05
-1.9394526e-05
-2.2060588e-05
-2.3212619e-05
-2.2141826e-05
-2.7769796e-05
-2.2243134e-05
-3.3203829e-05
-2.2365451e-05
-3.9673677e-05
-2.2532972e-05
-4.735438e-05
-2.2812422e-05
-5.6438702e-05
-2.3297901e-05
-6.714434e-05
-2.4073542e-05
-7.9711348e-05
-2.5208624e-05
-9.436973e-05
-2.6732221e-05
-0.00011130214
-2.8662659e-05
-0.0001306375
-3.1118184e-05
-0.00015245595
-3.4538547e-05
-0.00017668249
-4.0480536e-05
-0.00020267214
-5.0271919e-05
-0.00022952431
-6.3041086e-05
-0.00025726024
-8.1862182e-05
-0.00028497837
-0.00011011227
-0.00030948943
-0.00015882947
-0.00032001353
-0.00021896284
-0.00030979219
-0.00027681906
-0.00029559571
-0.00034360772
-0.00028357712
-0.00042159422
-0.00025794952
-0.00051239995
-0.00021150209
-0.00060458317
-0.00015054008
-0.00070597319
-7.7243566e-05
-0.00080665089
-2.5387071e-07
-0.00091011929
7.1052257e-05
-0.0010351749
0.0001484816
-0.0011604297
0.00023053108
-0.0012415298
0.00033870514
-0.0012818663
0.00048571261
-0.0013141806
0.00060504329
-0.0012857191
0.00065516105
-0.0011692237
0.00066694686
-0.0009407481
0.00063440945
-0.00084219041
0.00056173414
-0.00065240884
0.00044931343
0.00018031575
-1.4879208e-05
-3.1739165e-06
-1.4820735e-05
-3.8193766e-06
-1.473257e-05
-4.5759336e-06
-1.4606168e-05
-5.4825695e-06
-1.4448717e-05
-6.5689606e-06
-1.4264629e-05
-7.8706272e-06
-1.4064592e-05
-9.4299979e-06
-1.3860328e-05
-1.1297629e-05
-1.3661103e-05
-1.3533779e-05
-1.3481497e-05
-1.6210064e-05
-1.3320552e-05
-1.9411212e-05
-1.3189949e-05
-2.3237742e-05
-1.3080785e-05
-2.7807143e-05
-1.2993053e-05
-3.3257855e-05
-1.2922077e-05
-3.9749409e-05
-1.2895421e-05
-4.7456016e-05
-1.2971207e-05
-5.6569209e-05
-1.3221835e-05
-6.730802e-05
-1.3748082e-05
-7.9913366e-05
-1.4637067e-05
-9.4612983e-05
-1.5918456e-05
-0.00011158602
-1.7615955e-05
-0.00013095406
-1.9872622e-05
-0.00015275941
-2.3083513e-05
-0.00017689754
-2.8737874e-05
-0.00020265316
-3.7936574e-05
-0.00022910812
-5.0058859e-05
-0.00025626812
-6.8511941e-05
-0.00028270039
-9.6512067e-05
-0.00030479489
-0.0001438759
-0.00031216289
-0.00020235781
-0.0002981688
-0.00026005374
-0.00027824195
-0.00032656373
-0.00025803528
-0.00040389444
-0.00022295225
-0.00049399401
-0.00016569607
-0.000586251
-9.201352e-05
-0.00068817095
-4.1522712e-06
-0.00078954303
8.8951132e-05
-0.00089474823
0.00017771466
-0.0010205171
0.00027446725
-0.0011474929
0.00037801854
-0.0012320976
0.00050387825
-0.0012775099
0.00066005066
-0.0013116845
0.00078355991
-0.0012866706
0.00083069383
-0.0011856002
0.00082839399
-0.0009598216
0.00076943875
-0.00085955481
0.00067097067
-0.00066614774
0.00053413894
0.00021232895
-7.0291799e-06
-3.1860033e-06
-6.9503809e-06
-3.8342543e-06
-6.8416907e-06
-4.5942187e-06
-6.7015726e-06
-5.504944e-06
-6.5395135e-06
-6.5961912e-06
-6.3560765e-06
-7.9035702e-06
-6.1574909e-06
-9.4697063e-06
-5.9458112e-06
-1.134542e-05
-5.72081e-06
-1.3591445e-05
-5.4885002e-06
-1.6280077e-05
-5.2408201e-06
-1.9496991e-05
-4.9889328e-06
-2.3344022e-05
-4.7256483e-06
-2.7940126e-05
-4.4641995e-06
-3.3425427e-05
-4.215688e-06
-3.9960625e-05
-4.0014617e-06
-4.7720293e-05
-3.8659313e-06
-5.6896716e-05
-3.8790553e-06
-6.7709561e-05
-4.1510452e-06
-8.0401853e-05
-4.7791488e-06
-9.5201828e-05
-5.7952477e-06
-0.00011228559
-7.2298287e-06
-0.0001317669
-9.2463347e-06
-0.00015365805
-1.2205153e-05
-0.00017782405
-1.7542772e-05
-0.00020348848
-2.6153583e-05
-0.00022972129
-3.775621e-05
-0.00025641535
-5.5970149e-05
-0.00028161174
-8.3686189e-05
-0.00030143834
-0.00012975287
-0.00030587316
-0.00018671099
-0.00028827873
-0.00024414682
-0.00026283458
-0.00031031063
-0.00023474137
-0.00038701023
-0.00019043085
-0.00047639878
-0.00012255395
-0.0005687202
-3.6295489e-05
-0.00067107913
6.6091063e-05
-0.00077320728
0.00017538032
-0.00088001403
0.00028178232
-0.001006594
0.00039813021
-0.0011352594
0.00052344606
-0.0012233246
0.0006676266
-0.0012736483
0.00083422792
-0.0013098731
0.00096288912
-0.0012884921
0.001007675
-0.0011996846
0.0009929933
-0.00097810416
0.000909567
-0.00087656833
0.00078515676
-0.00067949592
0.00062316599
0.00024668633
3.1183943e-07
-3.2082054e-06
3.9458475e-07
-3.8607003e-06
5.022672e-07
-4.625607e-06
6.3776411e-07
-5.5422079e-06
7.9169227e-07
-6.6405804e-06
9.6861717e-07
-7.9566576e-06
1.1669465e-06
-9.5335484e-06
1.3906743e-06
-1.1422705e-05
1.6463693e-06
-1.3685656e-05
1.9319429e-06
-1.6395708e-05
2.2597126e-06
-1.9639713e-05
2.618124e-06
-2.3520966e-05
3.0143567e-06
-2.8160073e-05
3.4282068e-06
-3.3698921e-05
3.83945e-06
-4.0300075e-05
4.2287523e-06
-4.8139536e-05
4.5624581e-06
-5.7410087e-05
4.7713502e-06
-6.8333441e-05
4.7457188e-06
-8.1157853e-05
4.389323e-06
-9.6114059e-05
3.6617764e-06
-0.00011337539
2.5242896e-06
-0.00013305064
7.9396462e-07
-0.0001551258
-1.8741571e-06
-0.00017943393
-6.8600877e-06
-0.00020514418
-1.4896475e-05
-0.00023131338
-2.6106284e-05
-0.00025764933
-4.4190843e-05
-0.00028166154
-7.1593493e-05
-0.00029933474
-0.00011641428
-0.00030102632
-0.00017194255
-0.00028002838
-0.00022903101
-0.00024929127
-0.00029480194
-0.00021355421
-0.0003708729
-0.0001602159
-0.00045955644
-8.1912071e-05
-0.00055190654
1.6762714e-05
-0.00065464311
0.00013362829
-0.00075753598
0.00025915348
-0.00086585113
0.00038337809
-0.00099329122
0.00051958928
-0.0011236395
0.00066696805
-0.0012151105
0.00083014563
-0.0012702086
0.0010083359
-0.0013086159
0.0011431176
-0.0012909441
0.0011862751
-0.0012122496
0.0011606382
-0.0009957383
0.0010543322
-0.00089323382
0.00090396358
-0.00069246337
0.00071611733
0.00028325708
7.1597736e-06
-3.240531e-06
7.2162768e-06
-3.8995064e-06
7.2862708e-06
-4.6719232e-06
7.3867471e-06
-5.5974006e-06
7.5158686e-06
-6.7064431e-06
7.6858364e-06
-8.0355519e-06
7.8978166e-06
-9.6284931e-06
8.1566489e-06
-1.1537517e-05
8.4680647e-06
-1.3825084e-05
8.8273141e-06
-1.6565564e-05
9.2455661e-06
-1.9847162e-05
9.7077514e-06
-2.3774729e-05
1.0221199e-05
-2.8470764e-05
1.0763469e-05
-3.4079509e-05
1.1313332e-05
-4.0765734e-05
1.1855517e-05
-4.8707374e-05
1.2360986e-05
-5.8099416e-05
1.2771265e-05
-6.916888e-05
1.2987807e-05
-8.2169721e-05
1.2911618e-05
-9.733578e-05
1.2491312e-05
-0.00011483932
1.1672315e-05
-0.00013478333
1.0261182e-05
-0.00015713658
7.9168124e-06
-0.00018169812
3.3061913e-06
-0.00020759182
-4.175013e-06
-0.00023384997
-1.5092338e-05
-0.00025990212
-3.3135876e-05
-0.00028275784
-6.0207514e-05
-0.00029838817
-0.00010383577
-0.00029750936
-0.00015800616
-0.00027326401
-0.00021467738
-0.00023743944
-0.00028001991
-0.00019431789
-0.0003554545
-0.00013216871
-0.00044343939
-4.3622386e-05
-0.00053577072
6.7316524e-05
-0.00063883612
0.00019859248
-0.0007424671
0.00034039019
-0.00085221515
0.000482583
-0.00098052992
0.00063889446
-0.0011125596
0.00080860891
-0.0012073611
0.00099139749
-0.0012671044
0.0011822853
-0.001307768
0.0013240938
-0.0012937998
0.0013662851
-0.001223677
0.0013310057
-0.0010127818
0.001203492
-0.00090954743
0.0010275654
-0.00070500846
0.00081313271
0.00032200781
1.3581221e-05
-3.2825912e-06
1.3644005e-05
-3.9502384e-06
1.3721396e-05
-4.7330423e-06
1.3832779e-05
-5.6712312e-06
1.3978543e-05
-6.795723e-06
1.4171137e-05
-8.1434986e-06
1.4410413e-05
-9.7589226e-06
1.4701182e-05
-1.1694962e-05
1.5047794e-05
-1.4014909e-05
1.5446119e-05
-1.6794371e-05
1.590856e-05
-2.0122915e-05
1.6421776e-05
-2.4107241e-05
1.6998129e-05
-2.8872143e-05
1.7619142e-05
-3.456467e-05
1.8267092e-05
-4.135286e-05
1.8926795e-05
-4.9417381e-05
1.9579148e-05
-5.8958126e-05
2.0181895e-05
-7.0208905e-05
2.0639404e-05
-8.3429227e-05
2.0847141e-05
-9.8856358e-05
2.0743226e-05
-0.00011666461
2.0251935e-05
-0.00013695037
1.917055e-05
-0.00015966669
1.7166538e-05
-0.00018458279
1.295484e-05
-0.00021078865
6.0139506e-06
-0.00023727377
-4.682159e-06
-0.00026312427
-2.2754009e-05
-0.00028485714
-4.9489522e-05
-0.00029852355
-9.1974352e-05
-0.00029522121
-0.00014485081
-0.00026789883
-0.00020104875
-0.00022718887
-0.00026593481
-0.000176894
-0.00034072404
-0.00010612116
-0.00042801856
-7.5171079e-06
-0.00052027833
0.0001155236
-0.00062362698
0.00026113691
-0.00072795304
0.00041922262
-0.00083906225
0.00057952311
-0.00096824741
0.00075615845
-0.001101955
0.00094849094
-0.0012000016
0.0011515215
-0.0012642533
0.0013561387
-0.001307211
0.0015058761
-0.001296893
0.0015477962
-0.0012342888
0.0015040742
-0.0010293424
0.0013568018
-0.00092553992
0.001155677
-0.00071716286
0.00091400741
0.00036284852
1.9599462e-05
-3.334245e-06
1.9704854e-05
-4.0128449e-06
1.9836763e-05
-4.8088297e-06
2.0002409e-05
-5.7630341e-06
2.0195715e-05
-6.9067607e-06
2.0424359e-05
-8.2774739e-06
2.0686987e-05
-9.9202469e-06
2.0989746e-05
-1.1888821e-05
2.1339046e-05
-1.4247573e-05
2.1735754e-05
-1.7073164e-05
2.2197444e-05
-2.0457016e-05
2.2717995e-05
-2.4507708e-05
2.3317989e-05
-2.9353077e-05
2.3988983e-05
-3.5143875e-05
2.4712393e-05
-4.2051531e-05
2.5480844e-05
-5.0262526e-05
2.6280271e-05
-5.9982638e-05
2.7067229e-05
-7.1449194e-05
2.7756605e-05
-8.4929252e-05
2.8244892e-05
-0.00010066771
2.8459973e-05
-0.00011884118
2.8300684e-05
-0.00013953957
2.7550456e-05
-0.00016270141
2.5879019e-05
-0.00018806121
2.2069886e-05
-0.00021468402
1.5643501e-05
-0.00024151839
5.1267399e-06
-0.00026723122
-1.298723e-05
-0.00028788585
-3.9372026e-05
-0.00029972179
-8.0752046e-05
-0.00029416698
-0.0001323872
-0.00026392313
-0.00018806618
-0.00021853009
-0.00025247249
-0.00016130835
-0.00032660675
-8.2131253e-05
-0.00041321745
2.6337375e-05
-0.00050535446
0.00016130803
-0.00060894377
0.00032115422
-0.00071391305
0.00049551634
-0.00082631703
0.00067401592
-0.00095636181
0.00087116136
-0.0010917468
0.0010863683
-0.0011929552
0.0013102253
-0.0012615827
0.0015295684
-0.0013068461
0.0016880738
-0.0013000974
0.0017303962
-0.0012442467
0.0016794186
-0.0010454926
0.00151405
-0.00094124614
0.001288456
-0.00072894599
0.0010188644
0.00040576538
2.5186672e-05
-3.3946449e-06
2.5296754e-05
-4.0849923e-06
2.5431604e-05
-4.89471e-06
2.5598556e-05
-5.8652046e-06
2.5792392e-05
-7.0283913e-06
2.6022454e-05
-8.4227902e-06
2.6288531e-05
-1.0094211e-05
2.659839e-05
-1.2097779e-05
2.6959852e-05
-1.4499286e-05
2.7374787e-05
-1.7377265e-05
2.786427e-05
-2.0824971e-05
2.8423517e-05
-2.4953942e-05
2.9082233e-05
-2.9894966e-05
2.9831013e-05
-3.5802377e-05
3.0662009e-05
-4.2853421e-05
3.1560499e-05
-5.1239078e-05
3.2506622e-05
-6.1166668e-05
3.3474438e-05
-7.2881584e-05
3.438379e-05
-8.6661929e-05
3.5144491e-05
-0.00010275949
3.5676144e-05
-0.00012135669
3.5847337e-05
-0.00014253482
3.5429531e-05
-0.00016622124
3.4063564e-05
-0.00019210279
3.062968e-05
-0.00021922911
2.468448e-05
-0.00024652162
1.4323499e-05
-0.00027216735
-3.8084825e-06
-0.00029179247
-2.9813814e-05
-0.00030190808
-7.0124852e-05
-0.0002942529
-0.00012056354
-0.00026125219
-0.00017568271
-0.00021137203
-0.00023959375
-0.00014741999
-0.00031307401
-6.001064e-05
-0.00039900597
5.8145979e-05
-0.00049097257
0.00020487416
-0.00059475343
0.00037884376
-0.00070030568
0.00056944264
-0.00081394035
0.00076622471
-0.00094483273
0.00098406136
-0.0010818954
0.0012224045
-0.0011861897
0.0014676833
-0.0012590612
0.0017026936
-0.0013066255
0.0018708028
-0.0013033495
0.001914205
-0.0012536765
0.0018570916
-0.0010612712
0.0016750925
-0.00095665558
0.0014255948
-0.00074033947
0.0011273832
0.00045058474
3.0367893e-05
-3.4640502e-06
3.0447465e-05
-4.1682747e-06
3.053687e-05
-4.9941028e-06
3.0654414e-05
-5.98361e-06
3.0801951e-05
-7.1693629e-06
3.0996396e-05
-8.5905177e-06
3.124051e-05
-1.0294165e-05
3.1546706e-05
-1.2336597e-05
3.1922784e-05
-1.4785231e-05
3.2374734e-05
-1.7720862e-05
3.2922192e-05
-2.1239398e-05
3.3562055e-05
-2.5455823e-05
3.4323241e-05
-3.0505199e-05
3.5192061e-05
-3.6546497e-05
3.6149738e-05
-4.3760015e-05
3.7168208e-05
-5.233836e-05
3.8240236e-05
-6.2494796e-05
3.9381072e-05
-7.4486604e-05
4.0530338e-05
-8.8607763e-05
4.1576654e-05
-0.00010511911
4.2425279e-05
-0.00012419979
4.2923208e-05
-0.0001459228
4.2834689e-05
-0.00017020828
4.1743289e-05
-0.0001966844
3.8649789e-05
-0.00022438862
3.3142937e-05
-0.00025221401
2.2917916e-05
-0.00027783852
4.8036274e-06
-0.00029650237
-2.079681e-05
-0.00030502723
-6.0078861e-05
-0.00029541419
-0.00010937037
-0.00025978117
-0.00016390737
-0.00020557672
-0.00022731768
-0.0001350998
-0.00030015563
-3.9636306e-05
-0.00038541178
8.8046646e-05
-0.00047716002
0.00024636459
-0.0005810762
0.00043432102
-0.00068713656
0.00064107985
-0.00080193276
0.00085616066
-0.00093365214
0.0010948078
-0.0010723805
0.0013564949
-0.0011796794
0.0016237166
-0.0012566641
0.001875279
-0.0013065073
0.0020537525
-0.001306587
0.0020988684
-0.001262629
0.0020366815
-0.0010766854
0.0018397013
-0.00097173828
0.0015671899
-0.00075129562
0.0012396103
0.0004972694
3.5117449e-05
-3.5411676e-06
3.5114215e-05
-4.2588369e-06
3.5124115e-05
-5.100492e-06
3.5182266e-05
-6.1092279e-06
3.5295628e-05
-7.3187762e-06
3.5475995e-05
-8.7695793e-06
3.5727337e-05
-1.0509845e-05
3.6059021e-05
-1.2597304e-05
3.6476943e-05
-1.5101395e-05
3.6988517e-05
-1.8104692e-05
3.7607412e-05
-2.1705967e-05
3.8335763e-05
-2.6022955e-05
3.9190856e-05
-3.119432e-05
4.0151926e-05
-3.7381368e-05
4.1181505e-05
-4.4766742e-05
4.2259112e-05
-5.354728e-05
4.3433677e-05
-6.3948502e-05
4.4758644e-05
-7.6248582e-05
4.6184225e-05
-9.0755585e-05
4.7550407e-05
-0.00010773101
4.8721797e-05
-0.00012735201
4.9542506e-05
-0.00014968198
4.9777557e-05
-0.00017463695
4.8937294e-05
-0.00020177736
4.6157831e-05
-0.00023012448
4.1036075e-05
-0.00025854721
3.0932401e-05
-0.0002842027
1.2880858e-05
-0.00030196786
-1.2297542e-05
-0.00030900302
-5.0596298e-05
-0.0002975484
-9.8808545e-05
-0.00025939569
-0.00015275833
-0.00020099862
-0.00021565252
-0.00012416026
-0.00028784413
-2.0816652e-05
-0.00037242615
0.00011621963
-0.00046390947
0.00028595797
-0.00056791384
0.00048778213
-0.00067441742
0.000710648
-0.00079028869
0.00094404955
-0.00092280078
0.0012035941
-0.0010631671
0.001488814
-0.0011733823
0.0017784899
-0.0012543502
0.0020474418
-0.0013064391
0.0022370413
-0.0013097475
0.0022844904
-0.0012711555
0.0022182732
-0.0010917575
0.0020077678
-0.00098649263
0.0017128982
-0.00076181855
0.0013552641
0.00054569558
3.9622542e-05
-3.6286446e-06
3.9642456e-05
-4.3664518e-06
3.9680902e-05
-5.2323213e-06
3.9764238e-05
-6.2699471e-06
3.9899899e-05
-7.5135134e-06
4.0092172e-05
-9.0037396e-06
4.0350811e-05
-1.0789786e-05
4.0682486e-05
-1.2930819e-05
4.1099792e-05
-1.5497165e-05
4.1611409e-05
-1.8574208e-05
4.2232672e-05
-2.2262757e-05
4.2970287e-05
-2.6684219e-05
4.3830428e-05
-3.1979999e-05
4.4783517e-05
-3.8314718e-05
4.5801039e-05
-4.5875238e-05
4.6896204e-05
-5.4868916e-05
4.8158409e-05
-6.5538404e-05
4.9687588e-05
-7.818038e-05
5.1406564e-05
-9.3113905e-05
5.3095497e-05
-0.00011059596
5.4585444e-05
-0.00013080084
5.5724249e-05
-0.00015379311
5.6272597e-05
-0.0001794803
5.5677661e-05
-0.00020735745
5.3203619e-05
-0.00023642979
4.8416171e-05
-0.00026550412
3.8422422e-05
-0.00029122758
2.0476314e-05
-0.00030817835
-4.2719298e-06
-0.00031385422
-4.1643692e-05
-0.0003006817
-8.8836526e-05
-0.0002601106
-0.00014218266
-0.00019767772
-0.00020453322
-0.00011469676
-0.00027605747
-3.6900151e-06
-0.000359965
0.00014250082
-0.00045114197
0.00032346968
-0.00055520141
0.0005390088
-0.00066210753
0.0007779128
-0.00077897311
0.0010296349
-0.0009122316
0.0013101188
-0.0010542058
0.0016190116
-0.0011672552
0.0019316133
-0.0012520832
0.0022187604
-0.0013063793
0.0024201937
-0.0013127852
0.0024705903
-0.0012792933
0.0024013562
-0.0011065107
0.002179026
-0.0010009251
0.001862825
-0.00077191224
0.0014743994
0.00059583702
4.387761e-05
-3.7232384e-06
4.3997207e-05
-4.4802711e-06
4.4134538e-05
-5.3691046e-06
4.4295107e-05
-6.4346975e-06
4.4483356e-05
-7.711889e-06
4.4706158e-05
-9.2429755e-06
4.4975004e-05
-1.1078405e-05
4.5298752e-05
-1.3278556e-05
4.5694391e-05
-1.5916231e-05
4.6174317e-05
-1.9077842e-05
4.6755337e-05
-2.2867024e-05
4.7449156e-05
-2.740694e-05
4.8254268e-05
-3.2841409e-05
4.9155207e-05
-3.9338947e-05
5.0137754e-05
-4.7093645e-05
5.1246453e-05
-5.632412e-05
5.2606449e-05
-6.7292772e-05
5.4322445e-05
-8.0312958e-05
5.6288994e-05
-9.5698743e-05
5.8258147e-05
-0.00011371127
6.0049892e-05
-0.00013453972
6.1497651e-05
-0.00015824504
6.2348683e-05
-0.00018472454
6.1994844e-05
-0.00021340331
5.9821081e-05
-0.0002432707
5.532053e-05
-0.00027304831
4.54186e-05
-0.00029887661
2.7607115e-05
-0.00031507226
3.2837833e-06
-0.00031947479
-3.3210484e-05
-0.00030468509
-7.940849e-05
-0.00026181705
-0.00013211737
-0.00019551271
-0.0001939008
-0.00010657073
-0.00026474462
1.1924892e-05
-0.0003479755
0.00016709137
-0.00043880954
0.00035910645
-0.00054288777
0.00058821164
-0.00065016576
0.00084307781
-0.0007679607
0.0011131373
-0.00090191983
0.0014146219
-0.0010454684
0.0017473277
-0.0011612759
0.0020833086
-0.0012498485
0.0023894218
-0.0013063101
0.0026034032
-0.0013156822
0.0026573328
-0.0012870639
0.0025860767
-0.001120932
0.0023533787
-0.0010150033
0.0020165445
-0.00078155173
0.0015966042
0.00064749543
4.773024e-05
-3.8255942e-06
4.7863819e-05
-4.6033809e-06
4.8021476e-05
-5.5169255e-06
4.8208201e-05
-6.6120382e-06
4.8428383e-05
-7.9248594e-06
4.8688784e-05
-9.4989426e-06
4.8996651e-05
-1.1386064e-05
4.936112e-05
-1.3648752e-05
4.9792726e-05
-1.6361784e-05
5.0303171e-05
-1.9614073e-05
5.0903815e-05
-2.3512417e-05
5.1602921e-05
-2.8181857e-05
5.2401308e-05
-3.3770418e-05
5.3294067e-05
-4.0451002e-05
5.4286577e-05
-4.8424001e-05
5.5443038e-05
-5.7922692e-05
5.6905819e-05
-6.9225063e-05
5.8758173e-05
-8.2647361e-05
6.0892351e-05
-9.8505751e-05
6.3091305e-05
-0.00011707812
6.5160791e-05
-0.00013856745
6.690205e-05
-0.00016303398
6.8044589e-05
-0.00019036254
6.79294e-05
-0.00021991629
6.6043727e-05
-0.00025065908
6.1779933e-05
-0.00028117727
5.1936504e-05
-0.00030711866
3.4260794e-05
-0.00032260197
1.0353243e-05
-0.0003258176
-2.5285924e-05
-0.00030951391
-7.0501494e-05
-0.00026445383
-0.0001225508
-0.00019442234
-0.00018375325
-9.9709073e-05
-0.00025391468
2.6093628e-05
-0.00033646723
0.0001900645
-0.00042692283
0.00039294058
-0.00053098108
0.0006354403
-0.00063859117
0.0009061591
-0.00075725642
0.0011945187
-0.00089187747
0.001517021
-0.0010369482
0.0018736183
-0.0011554298
0.0022333429
-0.0012476419
0.0025591379
-0.0013062244
0.0027863349
-0.0013184226
0.0028443637
-0.001294473
0.0027719858
-0.0011349893
0.0025305569
-0.001028679
0.0021741222
-0.00079069391
0.0017218751
0.00070061381
5.1285392e-05
-3.9356095e-06
5.1428187e-05
-4.7357646e-06
5.1597131e-05
-5.6757231e-06
5.1797919e-05
-6.8026609e-06
5.2035211e-05
-8.1537098e-06
5.2316302e-05
-9.7737419e-06
5.2648162e-05
-1.1716023e-05
5.3040674e-05
-1.404536e-05
5.3503117e-05
-1.6838128e-05
5.4046795e-05
-2.0186807e-05
5.4682171e-05
-2.4200786e-05
5.541267e-05
-2.9008702e-05
5.6246167e-05
-3.4762956e-05
5.7182696e-05
-4.1643395e-05
5.8238801e-05
-4.9858506e-05
5.9487998e-05
-5.9653432e-05
6.1048751e-05
-7.1315666e-05
6.299365e-05
-8.5165587e-05
6.5249528e-05
-0.00010152564
6.7637857e-05
-0.00012068933
6.9955879e-05
-0.0001428759
7.1966843e-05
-0.00016814585
7.3385121e-05
-0.00019637493
7.3514569e-05
-0.00022687541
7.1910147e-05
-0.00025856581
6.7833648e-05
-0.00028986452
5.799754e-05
-0.00031591897
4.0443638e-05
-0.00033069761
1.6962699e-05
-0.00033278871
-1.7831763e-05
-0.00031506718
-6.2091209e-05
-0.00026791567
-0.00011347276
-0.00019428057
-0.00017408682
-9.3941635e-05
-0.00024356698
3.9021817e-05
-0.00032543782
0.00021163664
-0.00041548162
0.00042519061
-0.00051947969
0.00068091958
-0.00062738076
0.00096738851
-0.00074685962
0.0012740369
-0.00088210282
0.0016175831
-0.0010286113
0.0019981032
-0.0011496693
0.0023818595
-0.0012454323
0.0027280279
-0.0013060975
0.0029691472
-0.0013209783
0.0030318121
-0.0013015184
0.0029592132
-0.0011486637
0.0027104202
-0.001041932
0.0023350711
-0.00079933348
0.0018498364
0.00075504457
5.455779e-05
-4.0531161e-06
5.4709178e-05
-4.8771261e-06
5.4888227e-05
-5.8452775e-06
5.5100878e-05
-7.005967e-06
5.5351964e-05
-8.39785e-06
5.5649032e-05
-1.0066555e-05
5.5999253e-05
-1.2067756e-05
5.6412381e-05
-1.4467564e-05
5.6898358e-05
-1.7345338e-05
5.7468039e-05
-2.0795902e-05
5.8133885e-05
-2.4932013e-05
5.8900202e-05
-2.9886809e-05
5.9781737e-05
-3.5818073e-05
6.0791258e-05
-4.2912678e-05
6.1949685e-05
-5.1389175e-05
6.3314624e-05
-6.1503512e-05
6.4980486e-05
-7.3551434e-05
6.7010243e-05
-8.785674e-05
6.9369043e-05
-0.00010475032
7.192053e-05
-0.00012454057
7.4454183e-05
-0.00014745977
7.6705221e-05
-0.00017357199
7.8378578e-05
-0.00020274852
7.8756625e-05
-0.00023426273
7.7442936e-05
-0.00026699689
7.3514806e-05
-0.0002991202
6.3636756e-05
-0.00032527783
4.620382e-05
-0.00033938921
2.3170636e-05
-0.00034045005
-1.0796763e-05
-0.0003214174
-5.4131158e-05
-0.000272268
-0.00010484054
-0.00019516371
-0.00016486115
-8.938233e-05
-0.00023366029
5.0560245e-05
-0.00031484206
0.00023163459
-0.00040443849
0.00045565491
-0.00050833771
0.00072440655
-0.00061649354
0.0010264885
-0.00073673881
0.0013513738
-0.00087256878
0.0017159641
-0.0010204077
0.0021203915
-0.0011439357
0.0025283937
-0.0012431794
0.0028955833
-0.0013058937
0.0031513198
-0.0013233202
0.0032191907
-0.0013082025
0.0031472153
-0.0011619469
0.0028926776
-0.0010547538
0.0024994945
-0.00080747561
0.0019805185
0.00081074149
5.7564626e-05
-4.1779545e-06
5.7724183e-05
-5.0271326e-06
5.7912712e-05
-6.0253085e-06
5.8136621e-05
-7.2219756e-06
5.8400206e-05
-8.6570484e-06
5.871197e-05
-1.0377679e-05
5.9078415e-05
-1.2441305e-05
5.9509872e-05
-1.4915858e-05
6.0016611e-05
-1.7883517e-05
6.0610965e-05
-2.144211e-05
6.1306882e-05
-2.5707682e-05
6.2112822e-05
-3.0818238e-05
6.3052036e-05
-3.6938698e-05
6.4146434e-05
-4.4262615e-05
6.5418169e-05
-5.3018498e-05
6.6910765e-05
-6.3473653e-05
6.8687633e-05
-7.5930243e-05
7.0805309e-05
-9.0717794e-05
7.3263044e-05
-0.00010817565
7.5955708e-05
-0.00012862449
7.8670225e-05
-0.00015230732
8.1136648e-05
-0.00017930078
8.3045014e-05
-0.00020946973
8.3665491e-05
-0.00024205512
8.2652366e-05
-0.00027591085
7.8833315e-05
-0.00030889246
6.8877749e-05
-0.00033513883
5.1587004e-05
-0.00034860558
2.9014873e-05
-0.00034870796
-4.1496714e-06
-0.00032845144
-4.6588643e-05
-0.00027739573
-9.6624101e-05
-0.0001969379
-0.00015604827
-8.5850579e-05
-0.00022416558
6.0927718e-05
-0.00030464643
0.00025028864
-0.00039375905
0.00048456506
-0.00049752167
0.00076614411
-0.00060590013
0.0010837176
-0.00072686876
0.0014268134
-0.00086325703
0.0018124599
-0.0010123047
0.0022407519
-0.0011381787
0.0026731172
-0.0012408576
0.0030619517
-0.0013056024
0.0033330715
-0.0013254387
0.0034066914
-0.0013145075
0.0033361587
-0.0011748004
0.0030771724
-0.0010671127
0.0026668306
-0.00081510098
0.0021134429
0.00086750298
6.0318695e-05
-4.3098042e-06
6.0486186e-05
-5.1855801e-06
6.0683723e-05
-6.2153716e-06
6.0918343e-05
-7.4501502e-06
6.1194046e-05
-8.9306739e-06
6.1520006e-05
-1.0706139e-05
6.1902562e-05
-1.2835496e-05
6.2352817e-05
-1.5389037e-05
6.2882999e-05
-1.845184e-05
6.3506959e-05
-2.2125011e-05
6.4241291e-05
-2.652842e-05
6.5098871e-05
-3.1806068e-05
6.6108591e-05
-3.8128972e-05
6.7294677e-05
-4.5698791e-05
6.8683341e-05
-5.4753612e-05
7.0300265e-05
-6.5570109e-05
7.2179657e-05
-7.8456605e-05
7.4384644e-05
-9.3749904e-05
7.6937244e-05
-0.00011179987
7.9747804e-05
-0.00013293638
8.2614915e-05
-0.00015741392
8.5280339e-05
-0.00018533013
8.7405149e-05
-0.00021653562
8.8267809e-05
-0.00025025473
8.7533521e-05
-0.00028529734
8.3769854e-05
-0.00031912793
7.3735308e-05
-0.00034545038
5.6610293e-05
-0.00035832895
3.4500173e-05
-0.00035754755
2.1107137e-06
-0.00033614078
-3.946331e-05
-0.00028324717
-8.882804e-05
-0.00019953964
-0.00014765826
-8.3291991e-05
-0.00021509713
7.017767e-05
-0.0002948668
0.00026766625
-0.00038346225
0.00051199699
-0.00048705086
0.00080619256
-0.00059562134
0.0011391094
-0.00071726209
0.0015003345
-0.00085417192
0.0019069815
-0.0010042993
0.0023590308
-0.0011323803
0.0028158143
-0.001238462
0.0032268552
-0.0013052243
0.0035140943
-0.0013273298
0.0035940126
-0.001320432
0.0035256266
-0.001187185
0.0032636521
-0.0010789545
0.00283716
-0.00082217645
0.0022485878
0.00092525166
6.2831942e-05
-4.4482945e-06
6.3007338e-05
-5.3524103e-06