/*--------------------------------*- C++ -*----------------------------------*\
  =========                 |
  \\      /  F ield         | OpenFOAM: The Open Source CFD Toolbox
   \\    /   O peration     | Website:  https://openfoam.org
    \\  /    A nd           | Version:  8
     \\/     M anipulation  |
\*---------------------------------------------------------------------------*/
FoamFile
{
    version     2.0;
    format      ascii;
    class       volScalarField;
    location    "0.240005";
    object      nut;
}
// * * * * * * * * * * * * * * * * * * * * * * * * * * * * * * * * * * * * * //

dimensions      [0 2 -1 0 0 0 0];

internalField   nonuniform List<scalar> 
20000
(
0.0011910246
0.0028822544
0.0037563496
0.0038970618
0.0031975716
0.0012046361
1.52481e-05
5.2635293e-09
4.3460049e-09
4.2982216e-09
4.1401544e-09
4.1616732e-09
4.0778423e-09
4.1113481e-09
4.0958501e-09
4.1335734e-09
4.1476101e-09
4.1900218e-09
4.2274107e-09
4.286472e-09
4.3509442e-09
4.4367439e-09
4.5365959e-09
4.6608032e-09
4.8082908e-09
4.98571e-09
5.2008062e-09
5.4410246e-09
5.6932961e-09
5.9477352e-09
6.1924387e-09
6.4187437e-09
6.618556e-09
6.7887008e-09
6.9294485e-09
7.043101e-09
7.1331799e-09
7.2040847e-09
7.2597819e-09
7.3032921e-09
7.3353711e-09
7.3613996e-09
7.3872927e-09
7.4097042e-09
7.4227071e-09
7.4305743e-09
7.4330236e-09
7.4342413e-09
7.438455e-09
7.3656362e-09
0.0011948467
0.0028454079
0.0036580438
0.0037231423
0.0029602971
0.00097455095
3.3720648e-06
4.9193499e-09
4.2375677e-09
4.1963862e-09
4.0444225e-09
4.067577e-09
3.9862718e-09
4.0205262e-09
4.0064931e-09
4.0451364e-09
4.0608057e-09
4.104966e-09
4.1448123e-09
4.2066001e-09
4.2745763e-09
4.3646467e-09
4.4705307e-09
4.6030527e-09
4.7618539e-09
4.9542284e-09
5.1835383e-09
5.4353014e-09
5.6933782e-09
5.9525095e-09
6.2007947e-09
6.4278854e-09
6.6272122e-09
6.7961596e-09
6.935474e-09
7.0477849e-09
7.1367507e-09
7.2068966e-09
7.262089e-09
7.305141e-09
7.3368671e-09
7.3629805e-09
7.3900592e-09
7.411059e-09
7.4240024e-09
7.4307002e-09
7.4331689e-09
7.432987e-09
7.4378064e-09
7.3645731e-09
0.0011914349
0.0027978932
0.0035552481
0.0035622939
0.0027261657
0.00077446057
7.4241255e-07
4.7043259e-09
4.1370699e-09
4.1017426e-09
3.9560657e-09
3.98081e-09
3.9020773e-09
3.936912e-09
3.924513e-09
3.9640511e-09
3.9814795e-09
4.0274038e-09
4.0695914e-09
4.1340273e-09
4.2055645e-09
4.3002462e-09
4.4130699e-09
4.5556188e-09
4.7281099e-09
4.9402412e-09
5.1798727e-09
5.4354486e-09
5.6989839e-09
5.9626475e-09
6.2126904e-09
6.4398491e-09
6.6379511e-09
6.8050268e-09
6.9423721e-09
7.0529468e-09
7.1405518e-09
7.2098015e-09
7.2644793e-09
7.3071132e-09
7.3385253e-09
7.3650325e-09
7.3934916e-09
7.4137046e-09
7.425413e-09
7.4317935e-09
7.4333657e-09
7.4335648e-09
7.4286728e-09
7.3636707e-09
0.0011874823
0.0027509131
0.0034554884
0.0034060128
0.0024905305
0.00060835742
1.8747343e-07
4.549789e-09
4.0459665e-09
4.0159296e-09
3.8759997e-09
3.9022946e-09
3.8261003e-09
3.8617595e-09
3.8511527e-09
3.8918435e-09
3.9111361e-09
3.9588875e-09
4.003576e-09
4.0710407e-09
4.1469736e-09
4.2475349e-09
4.3694905e-09
4.5253632e-09
4.714917e-09
4.9352419e-09
5.1788959e-09
5.4411102e-09
5.712076e-09
5.9795012e-09
6.2307313e-09
6.4568351e-09
6.6527181e-09
6.8171118e-09
6.9517973e-09
7.0600616e-09
7.1458407e-09
7.213823e-09
7.2676425e-09
7.3095593e-09
7.3405253e-09
7.3676668e-09
7.396698e-09
7.4155568e-09
7.4265483e-09
7.4323864e-09
7.4339867e-09
7.4333208e-09
7.4230745e-09
7.3619626e-09
0.001182419
0.0027027251
0.0033563387
0.0032542031
0.0022550602
0.00046745991
5.7740807e-08
4.4294868e-09
3.9654695e-09
3.9404262e-09
3.8058843e-09
3.8338609e-09
3.7601606e-09
3.7968157e-09
3.7880674e-09
3.8299389e-09
3.8511002e-09
3.9007425e-09
3.9481701e-09
4.0193228e-09
4.1008907e-09
4.2092789e-09
4.3442176e-09
4.5130513e-09
4.7098173e-09
4.9348609e-09
5.1854783e-09
5.4558808e-09
5.7324444e-09
6.0025047e-09
6.2535748e-09
6.4776193e-09
6.6704058e-09
6.8313888e-09
6.9628314e-09
7.0683306e-09
7.1519508e-09
7.2184228e-09
7.2712022e-09
7.3122531e-09
7.3427835e-09
7.3708405e-09
7.399799e-09
7.4175888e-09
7.4276247e-09
7.4331323e-09
7.4346275e-09
7.4328168e-09
7.4118481e-09
7.3597808e-09
0.0011761739
0.0026538376
0.0032562385
0.0031062651
0.0020211848
0.00034630997
2.2743635e-08
4.3318255e-09
3.8960165e-09
3.875643e-09
3.7461405e-09
3.7758969e-09
3.7046014e-09
3.742344e-09
3.7354071e-09
3.7785046e-09
3.8016671e-09
3.853621e-09
3.9044601e-09
3.9804833e-09
4.0694263e-09
4.1897431e-09
4.3340994e-09
4.5087419e-09
4.7095536e-09
4.9417247e-09
5.2013809e-09
5.4789368e-09
5.7602908e-09
6.0317707e-09
6.2815805e-09
6.5024878e-09
6.691272e-09
6.8481117e-09
6.9757228e-09
7.0779882e-09
7.1590917e-09
7.2237794e-09
7.2752792e-09
7.3152644e-09
7.3453718e-09
7.3744031e-09
7.4026746e-09
7.4195095e-09
7.4286941e-09
7.4336946e-09
7.4351117e-09
7.4312613e-09
7.4017015e-09
7.3567769e-09
0.0011689975
0.0026054517
0.0031540313
0.002953679
0.001792045
0.00024187499
1.1682313e-08
4.2514131e-09
3.8374967e-09
3.8215944e-09
3.6967989e-09
3.7284285e-09
3.659339e-09
3.6981203e-09
3.692941e-09
3.7374284e-09
3.7630256e-09
3.8181244e-09
3.8736516e-09
3.9570579e-09
4.0553757e-09
4.1819471e-09
4.3311035e-09
4.5086374e-09
4.7168997e-09
4.9586807e-09
5.2266295e-09
5.5106036e-09
5.7953108e-09
6.0669315e-09
6.3142436e-09
6.5309831e-09
6.7149146e-09
6.8669335e-09
6.990182e-09
7.0887995e-09
7.1670793e-09
7.2297527e-09
7.2797724e-09
7.3185417e-09
7.3482853e-09
7.3781252e-09
7.4054771e-09
7.421479e-09
7.4298519e-09
7.4342103e-09
7.4352906e-09
7.4286476e-09
7.3911103e-09
7.3529491e-09
0.0011616847
0.0025596932
0.0030621166
0.0028075608
0.0015714658
0.00015111882
7.5680459e-09
4.1845774e-09
3.7892556e-09
3.7776607e-09
3.6572619e-09
3.6906696e-09
3.6235096e-09
3.6633582e-09
3.6602642e-09
3.7067371e-09
3.7355972e-09
3.7955581e-09
3.8582457e-09
3.947305e-09
4.049736e-09
4.1800231e-09
4.3313124e-09
4.5167805e-09
4.7344372e-09
4.9852015e-09
5.2610939e-09
5.5503729e-09
5.837228e-09
6.1077007e-09
6.3513469e-09
6.5629081e-09
6.7411718e-09
6.8877362e-09
7.0061295e-09
7.1007157e-09
7.1758872e-09
7.2363286e-09
7.2846705e-09
7.322097e-09
7.3515316e-09
7.3819331e-09
7.4081655e-09
7.4234057e-09
7.431129e-09
7.4347376e-09
7.4352557e-09
7.4243768e-09
7.3822893e-09
7.3490674e-09
0.0011539098
0.0025143517
0.0029711934
0.0026636817
0.0013609557
7.7478128e-05
5.8128364e-09
4.1294434e-09
3.7506628e-09
3.7429828e-09
3.6263876e-09
3.6614504e-09
3.5962301e-09
3.6377577e-09
3.6376196e-09
3.6876865e-09
3.7215556e-09
3.7858764e-09
3.8520029e-09
3.94389e-09
4.0487277e-09
4.1809925e-09
4.3408535e-09
4.53476e-09
4.7616528e-09
5.0213672e-09
5.3043858e-09
5.5979368e-09
5.8856122e-09
6.1536494e-09
6.3924683e-09
6.5978953e-09
6.7697405e-09
6.9102733e-09
7.0233736e-09
7.1135926e-09
7.1854101e-09
7.2434295e-09
7.2899192e-09
7.3259254e-09
7.3551027e-09
7.3857887e-09
7.4107388e-09
7.4252344e-09
7.4324878e-09
7.4354203e-09
7.4351409e-09
7.418533e-09
7.3755968e-09
7.345703e-09
0.0011458691
0.0024696689
0.0028817419
0.0025198593
0.0011628304
3.036228e-05
4.9926837e-09
4.0859924e-09
3.7206026e-09
3.7161893e-09
3.6031077e-09
3.6402278e-09
3.5785707e-09
3.6232912e-09
3.6267065e-09
3.679425e-09
3.7157461e-09
3.7820457e-09
3.8504049e-09
3.9435424e-09
4.0522396e-09
4.1921359e-09
4.3593509e-09
4.5622017e-09
4.7984335e-09
5.0666003e-09
5.3560448e-09
5.6527582e-09
5.9399865e-09
6.2043291e-09
6.4372166e-09
6.635611e-09
6.8003506e-09
6.9343353e-09
7.0417572e-09
7.1273168e-09
7.1955685e-09
7.2509966e-09
7.2954795e-09
7.3300347e-09
7.358994e-09
7.3896449e-09
7.4132045e-09
7.4269035e-09
7.4337808e-09
7.4363684e-09
7.4347946e-09
7.4118358e-09
7.3705386e-09
7.3426356e-09
0.0011376523
0.0024254344
0.0027932248
0.0023744971
0.0009792662
9.3747317e-06
4.5847774e-09
4.0531066e-09
3.6983412e-09
3.6984702e-09
3.5897249e-09
3.629446e-09
3.570802e-09
3.6169103e-09
3.6221289e-09
3.6760364e-09
3.7141471e-09
3.7812427e-09
3.851291e-09
3.9496101e-09
4.064791e-09
4.2112542e-09
4.3870285e-09
4.5988509e-09
4.84427e-09
5.1205377e-09
5.4155891e-09
5.7143387e-09
5.9998296e-09
6.2592433e-09
6.4851422e-09
6.6756745e-09
6.8326903e-09
6.9596807e-09
7.0610958e-09
7.1417526e-09
7.2062643e-09
7.2589564e-09
7.3013031e-09
7.3344227e-09
7.3631917e-09
7.39346e-09
7.4155634e-09
7.4284738e-09
7.4349904e-09
7.4374326e-09
7.4340376e-09
7.4051494e-09
7.3663459e-09
7.340347e-09
0.0011294018
0.0023816488
0.0027054066
0.0022298366
0.00081231167
2.571903e-06
4.3732899e-09
4.0294046e-09
3.6849335e-09
3.6879651e-09
3.5825281e-09
3.6231261e-09
3.5675383e-09
3.614384e-09
3.6208221e-09
3.6751202e-09
3.7144675e-09
3.7850271e-09
3.8602233e-09
3.9634048e-09
4.0849023e-09
4.2389839e-09
4.4231712e-09
4.6441482e-09
4.8987122e-09
5.1826327e-09
5.482468e-09
5.7820987e-09
6.0645812e-09
6.3178762e-09
6.5357964e-09
6.7177127e-09
6.8664627e-09
6.9860783e-09
7.081214e-09
7.1567715e-09
7.2174048e-09
7.2672392e-09
7.307346e-09
7.3390751e-09
7.3676576e-09
7.3972371e-09
7.4178173e-09
7.4299441e-09
7.4361726e-09
7.4384747e-09
7.4330173e-09
7.3987372e-09
7.3626449e-09
7.3382538e-09
0.0011212856
0.0023388131
0.0026178712
0.0020824292
0.00066225394
7.0455431e-07
4.2698425e-09
4.0141067e-09
3.6830125e-09
3.6813272e-09
3.5765716e-09
3.6150062e-09
3.5664211e-09
3.613402e-09
3.6216628e-09
3.6783978e-09
3.7216635e-09
3.795817e-09
3.8755945e-09
3.9844227e-09
4.1127851e-09
4.2744283e-09
4.4674594e-09
4.6977448e-09
4.9613528e-09
5.2524641e-09
5.5561672e-09
5.8554806e-09
6.133673e-09
6.3796967e-09
6.5887135e-09
6.7613381e-09
6.9013601e-09
7.0132881e-09
7.1019294e-09
7.1722396e-09
7.2288924e-09
7.2757718e-09
7.3135628e-09
7.3439631e-09
7.3724087e-09
7.4009996e-09
7.420003e-09
7.4312855e-09
7.4372834e-09
7.4394445e-09
7.4316407e-09
7.3927197e-09
7.3593422e-09
7.33647e-09
0.0011133758
0.002297433
0.0025321721
0.0019303991
0.00052990929
2.1175852e-07
4.2211222e-09
4.0045676e-09
3.6768685e-09
3.6753995e-09
3.5692326e-09
3.6077434e-09
3.5679492e-09
3.6171855e-09
3.6285559e-09
3.6878475e-09
3.7345773e-09
3.8127499e-09
3.8977489e-09
4.0122763e-09
4.1476559e-09
4.3172972e-09
4.5194075e-09
4.7591909e-09
5.031759e-09
5.3295102e-09
5.6361107e-09
5.9338717e-09
6.2065131e-09
6.4441691e-09
6.6434364e-09
6.8061771e-09
6.9370875e-09
7.0410831e-09
7.1230691e-09
7.1880293e-09
7.2406337e-09
7.2844856e-09
7.3199147e-09
7.3490528e-09
7.377441e-09
7.4047486e-09
7.4222134e-09
7.432525e-09
7.4381924e-09
7.4401443e-09
7.4296033e-09
7.3872373e-09
7.3563714e-09
7.3348949e-09
0.0011055177
0.0022574977
0.002455354
0.0017727972
0.00041755133
7.527577e-08
4.1895382e-09
3.9996242e-09
3.6730756e-09
3.6716855e-09
3.567762e-09
3.6062012e-09
3.57474e-09
3.6263698e-09
3.6407361e-09
3.7027686e-09
3.7534047e-09
3.8356839e-09
3.9259277e-09
4.0465008e-09
4.1892703e-09
4.3672063e-09
4.5787724e-09
4.8282489e-09
5.1096129e-09
5.4133613e-09
5.7217835e-09
6.0166937e-09
6.282525e-09
6.5107645e-09
6.6995106e-09
6.8518575e-09
6.9733514e-09
7.0692368e-09
7.1444604e-09
7.2040123e-09
7.2525349e-09
7.293313e-09
7.3263677e-09
7.3543032e-09
7.3825799e-09
7.4084603e-09
7.4245248e-09
7.4337728e-09
7.4388871e-09
7.4405621e-09
7.4265275e-09
7.3824393e-09
7.3536326e-09
7.333539e-09
0.0010974046
0.0022173194
0.0023769819
0.0016092567
0.0003178852
3.2407562e-08
4.1816593e-09
3.9969824e-09
3.6810304e-09
3.6770205e-09
3.5760952e-09
3.6150505e-09
3.5867452e-09
3.6406878e-09
3.6581277e-09
3.7229391e-09
3.777451e-09
3.8640181e-09
3.95983e-09
4.0867131e-09
4.2372043e-09
4.4238701e-09
4.6452467e-09
4.9046004e-09
5.1945232e-09
5.5035231e-09
5.8126016e-09
6.1033327e-09
6.3611188e-09
6.5789604e-09
6.7564994e-09
6.8980288e-09
7.0098794e-09
7.0975404e-09
7.1659444e-09
7.2200697e-09
7.2645079e-09
7.3021922e-09
7.3328906e-09
7.3596809e-09
7.3876528e-09
7.4121111e-09
7.4269107e-09
7.4351485e-09
7.4395254e-09
7.4406289e-09
7.4222869e-09
7.3783831e-09
7.3510774e-09
7.3323565e-09
0.0010892365
0.0021774733
0.0023002268
0.0014434739
0.0002297686
1.7152999e-08
4.1736778e-09
3.9929101e-09
3.6880196e-09
3.6844009e-09
3.5889318e-09
3.6290682e-09
3.6035821e-09
3.6594786e-09
3.6800763e-09
3.7477218e-09
3.8063841e-09
3.8974566e-09
3.9991071e-09
4.1326689e-09
4.2913136e-09
4.4871574e-09
4.7187407e-09
4.9881085e-09
5.2862325e-09
5.5995943e-09
5.9080409e-09
6.1932142e-09
6.4417308e-09
6.6482501e-09
6.8139761e-09
6.9443496e-09
7.0464063e-09
7.12579e-09
7.187367e-09
7.2360856e-09
7.2764665e-09
7.3110631e-09
7.3394456e-09
7.3650305e-09
7.3925171e-09
7.4156394e-09
7.4293885e-09
7.4367508e-09
7.440261e-09
7.440546e-09
7.4171875e-09
7.3746805e-09
7.3486907e-09
7.3313082e-09
0.0010813067
0.0021377202
0.0022236898
0.0012817791
0.00015213785
1.0944019e-08
4.1662414e-09
3.9944724e-09
3.6976572e-09
3.6975238e-09
3.6046093e-09
3.6468081e-09
3.6242377e-09
3.6823099e-09
3.7061857e-09
3.776873e-09
3.8398645e-09
3.9356887e-09
4.0435251e-09
4.184144e-09
4.3514009e-09
4.5569127e-09
4.799091e-09
5.0785273e-09
5.3843701e-09
5.701055e-09
6.0074986e-09
6.2857175e-09
6.5237864e-09
6.718138e-09
6.8715378e-09
6.9905061e-09
7.0826924e-09
7.1538028e-09
7.2085908e-09
7.251957e-09
7.2883317e-09
7.3198784e-09
7.3460217e-09
7.3704995e-09
7.3971285e-09
7.4189411e-09
7.4318458e-09
7.4385637e-09
7.4413107e-09
7.4403929e-09
7.4116352e-09
7.37112e-09
7.3465266e-09
7.3303791e-09
0.0010735901
0.0020977291
0.0021468138
0.0011310277
8.7755156e-05
8.1115393e-09
4.1614595e-09
3.9991982e-09
3.7106298e-09
3.7133725e-09
3.6237796e-09
3.6680449e-09
3.64855e-09
3.7088407e-09
3.7362142e-09
3.8100647e-09
3.8776821e-09
3.9785602e-09
4.0929588e-09
4.2410858e-09
4.4174745e-09
4.6331817e-09
4.8863248e-09
5.1757808e-09
5.4886873e-09
5.8074813e-09
6.1104393e-09
6.3802676e-09
6.6067421e-09
6.7881531e-09
6.9288029e-09
7.036201e-09
7.1185094e-09
7.1814057e-09
7.2294848e-09
7.2675877e-09
7.3000286e-09
7.3285899e-09
7.3525949e-09
7.3759486e-09
7.4015381e-09
7.4219574e-09
7.4340445e-09
7.4403486e-09
7.4429102e-09
7.4399433e-09
7.4057888e-09
7.3676108e-09
7.3445515e-09
7.3295629e-09
0.0010657169
0.0020548166
0.002067619
0.00099006229
4.2078972e-05
6.7155548e-09
4.1604898e-09
4.0072986e-09
3.7266662e-09
3.7325236e-09
3.6461849e-09
3.6927194e-09
3.676205e-09
3.7388867e-09
3.7699266e-09
3.8471946e-09
3.9196928e-09
4.0259386e-09
4.1473071e-09
4.3034245e-09
4.4894933e-09
4.715934e-09
4.98035e-09
5.2796405e-09
5.5987759e-09
5.9183238e-09
6.2162334e-09
6.4762404e-09
6.6900379e-09
6.8578415e-09
6.9854226e-09
7.0811693e-09
7.1536583e-09
7.2084502e-09
7.2499349e-09
7.2828959e-09
7.3114926e-09
7.3371569e-09
7.3591394e-09
7.3814512e-09
7.4058327e-09
7.4247491e-09
7.4359767e-09
7.4419937e-09
7.4446285e-09
7.4388484e-09
7.3997902e-09
7.3641653e-09
7.342759e-09
7.3288476e-09
0.0010576511
0.002008914
0.0019851862
0.00085929594
1.6807293e-05
5.9861118e-09
4.1631436e-09
4.0182524e-09
3.7456004e-09
3.7544304e-09
3.671723e-09
3.7203788e-09
3.7071214e-09
3.7722918e-09
3.8072444e-09
3.8880965e-09
3.9658173e-09
4.0777938e-09
4.2066012e-09
4.3712526e-09
4.5676142e-09
4.8053321e-09
5.0812618e-09
5.3900211e-09
5.7143473e-09
6.0331107e-09
6.3243043e-09
6.5730455e-09
6.7731462e-09
6.9267866e-09
7.0410826e-09
7.1251687e-09
7.1879574e-09
7.2348034e-09
7.2698334e-09
7.2978023e-09
7.322666e-09
7.3455402e-09
7.3656324e-09
7.3869546e-09
7.4101245e-09
7.4274657e-09
7.4377084e-09
7.4433232e-09
7.4458178e-09
7.4368837e-09
7.3938351e-09
7.3608911e-09
7.3411429e-09
7.3282291e-09
0.0010491812
0.0019596283
0.0018983142
0.00073899813
5.9253846e-06
5.5908086e-09
4.1688421e-09
4.0319578e-09
3.7674406e-09
3.7791926e-09
3.7001162e-09
3.7510705e-09
3.7411728e-09
3.8089709e-09
3.8480454e-09
3.9327597e-09
4.0160177e-09
4.1341217e-09
4.2708583e-09
4.4446415e-09
4.6519066e-09
4.9014366e-09
5.188968e-09
5.5066569e-09
5.8349072e-09
6.1512026e-09
6.4339624e-09
6.6700317e-09
6.8555437e-09
6.9946084e-09
7.0955082e-09
7.1679944e-09
7.2212608e-09
7.2603616e-09
7.2890925e-09
7.3122313e-09
7.3335017e-09
7.353708e-09
7.3720479e-09
7.3924514e-09
7.4144363e-09
7.4302089e-09
7.4393214e-09
7.4442223e-09
7.4463692e-09
7.4336512e-09
7.3881493e-09
7.3578582e-09
7.33968e-09
7.3277164e-09
0.0010401668
0.0019063927
0.0018042148
0.0006291029
1.9938536e-06
5.3735054e-09
4.1781303e-09
4.0485761e-09
3.7919736e-09
3.8067526e-09
3.7313504e-09
3.7846547e-09
3.7782722e-09
3.8488577e-09
3.8923109e-09
3.981125e-09
4.0703231e-09
4.1950023e-09
4.3402471e-09
4.523806e-09
4.7426543e-09
5.004464e-09
5.3035754e-09
5.6293946e-09
5.9600806e-09
6.2720409e-09
6.5445748e-09
6.7666159e-09
6.9367929e-09
7.0609896e-09
7.1484536e-09
7.2094671e-09
7.2534447e-09
7.2850314e-09
7.3076384e-09
7.3260992e-09
7.3439559e-09
7.3616324e-09
7.3783575e-09
7.3978676e-09
7.4186886e-09
7.4329861e-09
7.4409581e-09
7.4449023e-09
7.4464804e-09
7.4288594e-09
7.3830114e-09
7.3551494e-09
7.3384536e-09
7.3273751e-09
0.0010305369
0.0018493468
0.0016983351
0.00052973765
6.7578915e-07
5.2484929e-09
4.1905623e-09
4.0678722e-09
3.8191364e-09
3.8368876e-09
3.7653129e-09
3.8210393e-09
3.8183785e-09
3.8919186e-09
3.9400272e-09
4.0332616e-09
4.1287955e-09
4.2605445e-09
4.4149056e-09
4.6089287e-09
4.8400084e-09
5.1144862e-09
5.4249379e-09
5.7578517e-09
6.0892551e-09
6.3948916e-09
6.6554107e-09
6.8622396e-09
7.016532e-09
7.1256544e-09
7.1996843e-09
7.2494358e-09
7.2844133e-09
7.3087248e-09
7.3254238e-09
7.3393324e-09
7.3539862e-09
7.3692936e-09
7.3845309e-09
7.4031163e-09
7.4227392e-09
7.435777e-09
7.4427947e-09
7.4457748e-09
7.4463904e-09
7.4224423e-09
7.378558e-09
7.3527743e-09
7.337426e-09
7.3270914e-09
0.0010205962
0.0017899885
0.0015843524
0.00044110357
2.4426893e-07
5.1762443e-09
4.2059598e-09
4.0896885e-09
3.8487215e-09
3.8694984e-09
3.8019161e-09
3.8602033e-09
3.8614942e-09
3.938172e-09
3.9912399e-09
4.0892088e-09
4.1915603e-09
4.3309565e-09
4.4951152e-09
4.700348e-09
4.9443129e-09
5.2317443e-09
5.5530792e-09
5.8917659e-09
6.2219125e-09
6.5190978e-09
6.7658606e-09
6.9565271e-09
7.0945317e-09
7.1883543e-09
7.2489574e-09
7.2877579e-09
7.3140635e-09
7.3313313e-09
7.3424096e-09
7.3518935e-09
7.3635431e-09
7.3766765e-09
7.3905448e-09
7.4081652e-09
7.4264818e-09
7.4384162e-09
7.4447644e-09
7.4471584e-09
7.4461985e-09
7.4153477e-09
7.3742832e-09
7.3506898e-09
7.3365637e-09
7.3269457e-09
0.0010104278
0.0017287823
0.0014631611
0.00036095097
9.8906578e-08
5.1344343e-09
4.2238147e-09
4.113837e-09
3.8807704e-09
3.9046499e-09
3.8411785e-09
3.9021724e-09
3.9076415e-09
3.9876609e-09
4.0460136e-09
4.1491097e-09
4.2587994e-09
4.406458e-09
4.5811316e-09
4.7983179e-09
5.0557568e-09
5.3562485e-09
5.6877337e-09
6.030577e-09
6.3572775e-09
6.6438498e-09
6.8753539e-09
7.0492187e-09
7.170565e-09
7.2487872e-09
7.296033e-09
7.3243009e-09
7.3422743e-09
7.3527434e-09
7.358543e-09
7.3638307e-09
7.3725814e-09
7.3837716e-09
7.3963747e-09
7.4130056e-09
7.4299441e-09
7.4407486e-09
7.4465288e-09
7.4488742e-09
7.4450878e-09
7.4079724e-09
7.3702114e-09
7.3488615e-09
7.3358208e-09
7.3268342e-09
0.00099992758
0.0016654439
0.0013397735
0.00028576079
4.5890088e-08
5.11013e-09
4.244106e-09
4.1403653e-09
3.9152389e-09
3.942331e-09
3.8831125e-09
3.9469836e-09
3.9568898e-09
4.040462e-09
4.1044626e-09
4.2130795e-09
4.3307549e-09
4.487378e-09
4.6733401e-09
4.9032582e-09
5.174711e-09
5.4881873e-09
5.8287876e-09
6.1738443e-09
6.4946959e-09
6.7685243e-09
6.983603e-09
7.140173e-09
7.2442458e-09
7.3065474e-09
7.3407491e-09
7.3589346e-09
7.3688836e-09
7.3729266e-09
7.3737149e-09
7.37527e-09
7.3810838e-09
7.3905671e-09
7.4020034e-09
7.4176679e-09
7.4332298e-09
7.4428221e-09
7.447871e-09
7.4499271e-09
7.4428769e-09
7.4006111e-09
7.3663884e-09
7.3472487e-09
7.3352163e-09
7.3267451e-09
0.00098929441
0.00159874
0.0012235201
0.0002171573
2.4787173e-08
5.0963774e-09
4.2667787e-09
4.1692771e-09
3.9521341e-09
3.9825765e-09
3.927806e-09
3.9946873e-09
4.0092957e-09
4.0966822e-09
4.166754e-09
4.2814275e-09
4.4077225e-09
4.5740397e-09
4.7720675e-09
5.0154599e-09
5.3013224e-09
5.6274347e-09
5.9757638e-09
6.3207848e-09
6.6332926e-09
6.8925106e-09
7.0904096e-09
7.2289321e-09
7.3148084e-09
7.3612817e-09
7.382933e-09
7.3915708e-09
7.3939242e-09
7.3919368e-09
7.387791e-09
7.3862931e-09
7.3891106e-09
7.3970465e-09
7.4074304e-09
7.4221954e-09
7.4363964e-09
7.444714e-09
7.4488647e-09
7.4504305e-09
7.4391322e-09
7.3936168e-09
7.3629125e-09
7.3458852e-09
7.3347879e-09
7.3266642e-09
0.00097916501
0.0015333463
0.0011065136
0.00015430947
1.5542788e-08
5.0890099e-09
4.2917634e-09
4.2005244e-09
3.9914512e-09
4.0255713e-09
3.9753419e-09
4.0453259e-09
4.0649908e-09
4.1564868e-09
4.2331364e-09
4.3544543e-09
4.4900616e-09
4.6668612e-09
4.8777777e-09
5.1353925e-09
5.4359285e-09
5.7740471e-09
6.1283301e-09
6.4707738e-09
6.772421e-09
7.0155331e-09
7.1955837e-09
7.31453e-09
7.3817617e-09
7.4126908e-09
7.4226292e-09
7.422388e-09
7.4176522e-09
7.409679e-09
7.400783e-09
7.3966298e-09
7.3968144e-09
7.4031899e-09
7.4126323e-09
7.4265608e-09
7.4394419e-09
7.4466097e-09
7.4497056e-09
7.4505341e-09
7.4336287e-09
7.3874222e-09
7.3598408e-09
7.3447172e-09
7.3345572e-09
7.3267466e-09
0.00096979239
0.0014714371
0.00099209566
9.94238e-05
1.1107481e-08
5.0861707e-09
4.3191921e-09
4.2344306e-09
4.0335184e-09
4.0710606e-09
4.0257036e-09
4.0990368e-09
4.1241339e-09
4.2201372e-09
4.3039246e-09
4.43253e-09
4.5781457e-09
4.7662156e-09
4.9908554e-09
5.2633167e-09
5.5785858e-09
5.9276564e-09
6.2857596e-09
6.6228666e-09
6.9113692e-09
7.137347e-09
7.2981388e-09
7.3961651e-09
7.4445464e-09
7.4608779e-09
7.4604087e-09
7.4513543e-09
7.4397982e-09
7.4261963e-09
7.412892e-09
7.4059763e-09
7.4043491e-09
7.4089868e-09
7.4175875e-09
7.4306152e-09
7.4423118e-09
7.4486061e-09
7.4507956e-09
7.4504616e-09
7.4262896e-09
7.3823618e-09
7.3571662e-09
7.3436967e-09
7.3344278e-09
7.3268925e-09
0.0009610054
0.0014080018
0.00088103308
5.6184415e-05
8.8207239e-09
5.0866888e-09
4.3490318e-09
4.2708116e-09
4.0781174e-09
4.119279e-09
4.0790868e-09
4.1560261e-09
4.1870251e-09
4.2879689e-09
4.3794333e-09
4.5160088e-09
4.6723923e-09
4.8726103e-09
5.1118064e-09
5.3997324e-09
5.7294975e-09
6.0881208e-09
6.447473e-09
6.7764083e-09
7.0498132e-09
7.257724e-09
7.3968701e-09
7.4730427e-09
7.5031482e-09
7.5068122e-09
7.495779e-09
7.4784103e-09
7.4604446e-09
7.4414673e-09
7.4240434e-09
7.4145556e-09
7.4115913e-09
7.4144522e-09
7.4222844e-09
7.434352e-09
7.4448617e-09
7.4504632e-09
7.4524285e-09
7.4499022e-09
7.4182671e-09
7.3777525e-09
7.3548054e-09
7.3427518e-09
7.3343472e-09
7.3271113e-09
0.00095307799
0.0013437589
0.00077526106
2.7627284e-05
7.5759687e-09
5.0909945e-09
4.3812994e-09
4.309764e-09
4.1254043e-09
4.1704009e-09
4.135766e-09
4.2166138e-09
4.2539897e-09
4.3602979e-09
4.4600583e-09
4.6052965e-09
4.7732358e-09
4.9864717e-09
5.2410398e-09
5.5448237e-09
5.8885026e-09
6.2547697e-09
6.6125205e-09
6.9305594e-09
7.1874028e-09
7.3753245e-09
7.4907897e-09
7.5447107e-09
7.5586262e-09
7.5500116e-09
7.5287732e-09
7.5035759e-09
7.4795698e-09
7.4554959e-09
7.4342509e-09
7.4224559e-09
7.4184594e-09
7.4196443e-09
7.4267284e-09
7.4378558e-09
7.4471059e-09
7.4520935e-09
7.453995e-09
7.4482328e-09
7.4100995e-09
7.3734496e-09
7.3527811e-09
7.3419855e-09
7.3343629e-09
7.3274402e-09
0.00094586965
0.0012780119
0.00067595938
1.2131273e-05
6.869728e-09
5.1012603e-09
4.4161314e-09
4.3514996e-09
4.1756839e-09
4.2248051e-09
4.1960735e-09
4.2811285e-09
4.325363e-09
4.4374517e-09
4.5461669e-09
4.7008176e-09
4.8811761e-09
5.1083698e-09
5.379126e-09
5.6990028e-09
6.0556097e-09
6.4271645e-09
6.7802266e-09
7.084889e-09
7.3238935e-09
7.4886995e-09
7.5789942e-09
7.611742e-09
7.6113199e-09
7.5902334e-09
7.5593643e-09
7.5268822e-09
7.4972082e-09
7.468293e-09
7.4435827e-09
7.4297617e-09
7.4247903e-09
7.424655e-09
7.4309286e-09
7.4412285e-09
7.4491129e-09
7.4532396e-09
7.4546412e-09
7.4452164e-09
7.4022631e-09
7.3694665e-09
7.3511279e-09
7.3415687e-09
7.3345894e-09
7.3278792e-09
0.0009394975
0.0012118536
0.0005840203
4.9968537e-06
6.4570574e-09
5.1162638e-09
4.4539149e-09
4.3964831e-09
4.2293994e-09
4.2828605e-09
4.2602882e-09
4.3498663e-09
4.4014137e-09
4.5198226e-09
4.6381721e-09
4.8030505e-09
4.9966977e-09
5.238804e-09
5.5264297e-09
5.8622834e-09
6.230307e-09
6.6043354e-09
6.9496162e-09
7.2388448e-09
7.4578349e-09
7.5965568e-09
7.6609729e-09
7.6754753e-09
7.6605115e-09
7.6275104e-09
7.5876155e-09
7.548375e-09
7.5133855e-09
7.4799015e-09
7.4521234e-09
7.4365374e-09
7.4304858e-09
7.42953e-09
7.4348798e-09
7.444488e-09
7.4510089e-09
7.4540646e-09
7.4548618e-09
7.4405459e-09
7.3951259e-09
7.3658831e-09
7.3497497e-09
7.3413246e-09
7.3349566e-09
7.3284233e-09
0.00093384982
0.0011486944
0.00049969186
2.0265346e-06
6.2112835e-09
5.1343757e-09
4.4950648e-09
4.4450349e-09
4.286828e-09
4.3447597e-09
4.3286748e-09
4.4230486e-09
4.4825256e-09
4.6077774e-09
4.7365289e-09
4.9124984e-09
5.1204029e-09
5.3784277e-09
5.6835215e-09
6.0348909e-09
6.412304e-09
6.7856303e-09
7.1201176e-09
7.392195e-09
7.5875478e-09
7.6979116e-09
7.7377255e-09
7.7356993e-09
7.7061458e-09
7.661871e-09
7.613585e-09
7.5681091e-09
7.5281381e-09
7.490372e-09
7.4599073e-09
7.4427697e-09
7.435692e-09
7.4341931e-09
7.4385555e-09
7.4475386e-09
7.4529606e-09
7.4550043e-09
7.4547989e-09
7.4339784e-09
7.3890715e-09
7.3627638e-09
7.348582e-09
7.341185e-09
7.3354197e-09
7.3290742e-09
0.00092792918
0.0010761095
0.00042278275
8.440114e-07
6.0639659e-09
5.1563389e-09
4.5397701e-09
4.4972228e-09
4.3480443e-09
4.4106056e-09
4.4014963e-09
4.5009924e-09
4.5690672e-09
4.7017968e-09
4.8417357e-09
5.0297201e-09
5.252871e-09
5.5277604e-09
5.8506322e-09
6.2165047e-09
6.6007051e-09
6.969947e-09
7.2909272e-09
7.5436911e-09
7.7112635e-09
7.7920514e-09
7.8106347e-09
7.7917613e-09
7.7482163e-09
7.6933922e-09
7.6373548e-09
7.5861455e-09
7.5415107e-09
7.4997557e-09
7.4669507e-09
7.4484581e-09
7.4405076e-09
7.4386278e-09
7.4419449e-09
7.4502016e-09
7.4548165e-09
7.4564621e-09
7.4544083e-09
7.4257283e-09
7.3840402e-09
7.3601538e-09
7.3476526e-09
7.3411685e-09
7.3359922e-09
7.32983e-09
0.00092220131
0.0010030949
0.00035412365
3.7435856e-07
5.977149e-09
5.1817162e-09
4.587953e-09
4.5531582e-09
4.4131355e-09
4.480719e-09
4.4790283e-09
4.5841501e-09
4.6614772e-09
4.8023325e-09
4.9543229e-09
5.1553379e-09
5.3948423e-09
5.6875095e-09
6.0282194e-09
6.4070303e-09
6.794953e-09
7.1566469e-09
7.4617539e-09
7.6914256e-09
7.8278938e-09
7.8800209e-09
7.8794479e-09
7.8435771e-09
7.7868051e-09
7.722168e-09
7.659015e-09
7.6025557e-09
7.5535534e-09
7.5080963e-09
7.473272e-09
7.4536387e-09
7.4449966e-09
7.4428266e-09
7.4451016e-09
7.4524713e-09
7.4564111e-09
7.4579707e-09
7.4528346e-09
7.4171783e-09
7.3794482e-09
7.3580903e-09
7.3472761e-09
7.3414459e-09
7.3366898e-09
7.3306732e-09
0.00091626342
0.00092540013
0.00029295282
1.8122106e-07
5.9277073e-09
5.2104231e-09
4.6398598e-09
4.6129527e-09
4.4825596e-09
4.5554262e-09
4.561765e-09
4.6729076e-09
4.7602158e-09
4.9099394e-09
5.0748669e-09
5.2900594e-09
5.5469551e-09
5.8581821e-09
6.2161533e-09
6.6057562e-09
6.9938265e-09
7.344747e-09
7.6316976e-09
7.8329628e-09
7.9363687e-09
7.9632635e-09
7.9434541e-09
7.8911646e-09
7.8219999e-09
7.7483052e-09
7.678665e-09
7.6174183e-09
7.5643268e-09
7.5154414e-09
7.4789068e-09
7.4583495e-09
7.4491823e-09
7.4467876e-09
7.4481432e-09
7.4544634e-09
7.4575186e-09
7.4585558e-09
7.4499487e-09
7.4088065e-09
7.3752469e-09
7.3564242e-09
7.3471301e-09
7.3418297e-09
7.3374251e-09
7.331571e-09
0.00090976715
0.00084623196
0.0002391053
9.7327166e-08
5.9005228e-09
5.2429696e-09
4.6957166e-09
4.6771453e-09
4.5566627e-09
4.6352221e-09
4.6501157e-09
4.7677254e-09
4.865802e-09
5.0250339e-09
5.2040679e-09
5.4346406e-09
5.7101052e-09
6.0403796e-09
6.4146435e-09
6.8121777e-09
7.1966963e-09
7.5337194e-09
7.7987464e-09
7.9670958e-09
8.0373671e-09
8.0419359e-09
8.0024356e-09
7.9346312e-09
7.8539341e-09
7.7719285e-09
7.6964107e-09
7.6308141e-09
7.5738884e-09
7.5218447e-09
7.4839065e-09
7.4626244e-09
7.4530582e-09
7.4504782e-09
7.451103e-09
7.4562992e-09
7.4584129e-09
7.4587924e-09
7.4454536e-09
7.4011149e-09
7.3715107e-09
7.355038e-09
7.347075e-09
7.3422741e-09
7.338185e-09
7.3324938e-09
0.00090350534
0.00076567372
0.0001921048
5.7985821e-08
5.8884921e-09
5.2799003e-09
4.7561146e-09
4.7461276e-09
4.6359066e-09
4.7204179e-09
4.7444805e-09
4.869042e-09
4.9786738e-09
5.1485339e-09
5.3427221e-09
5.5899344e-09
5.8849714e-09
6.2343128e-09
6.623112e-09
7.0251319e-09
7.4023041e-09
7.7225883e-09
7.9602239e-09
8.0923104e-09
8.1323916e-09
8.1151876e-09
8.0564491e-09
7.9740864e-09
7.8827407e-09
7.7931662e-09
7.7123606e-09
7.6428171e-09
7.5822818e-09
7.5273695e-09
7.4883346e-09
7.4664995e-09
7.4565996e-09
7.4538309e-09
7.453888e-09
7.4581252e-09
7.4593874e-09
7.4587292e-09
7.4391657e-09
7.3945358e-09
7.3683259e-09
7.3538716e-09
7.3470345e-09
7.3427979e-09
7.3389518e-09
7.3334305e-09
0.00089893548
0.00070483929
0.00015206594
3.8045775e-08
5.8879152e-09
5.3213016e-09
4.8212072e-09
4.8201347e-09
4.7204407e-09
4.8114972e-09
4.8452592e-09
4.9773811e-09
5.0994723e-09
5.2811938e-09
5.4916956e-09
5.7569477e-09
6.0723902e-09
6.4403905e-09
6.8412894e-09
7.243925e-09
7.6099727e-09
7.9100604e-09
8.114111e-09
8.2084766e-09
8.2224613e-09
8.18253e-09
8.1056157e-09
8.0097045e-09
7.9085832e-09
7.8121598e-09
7.7266232e-09
7.6534842e-09
7.5895176e-09
7.5320851e-09
7.4922507e-09
7.4700105e-09
7.4597969e-09
7.4567671e-09
7.4564027e-09
7.4598547e-09
7.4609109e-09
7.4580738e-09
7.4306977e-09
7.3892515e-09
7.3656335e-09
7.3529614e-09
7.347054e-09
7.343377e-09
7.3397227e-09
7.3343833e-09
0.00089565203
0.000654354
0.00011797396
2.7161942e-08
5.896223e-09
5.3677788e-09
4.8914984e-09
4.8995809e-09
4.8109189e-09
4.9085772e-09
4.9529757e-09
5.0934509e-09
5.228994e-09
5.4238904e-09
5.6520216e-09
5.9365857e-09
6.2728728e-09
6.6583044e-09
7.0680578e-09
7.4671683e-09
7.8184545e-09
8.0929999e-09
8.2586616e-09
8.3170495e-09
8.306479e-09
8.2440668e-09
8.1500638e-09
8.0416461e-09
7.93162e-09
7.8290501e-09
7.7393067e-09
7.6628722e-09
7.5956094e-09
7.5360713e-09
7.4956954e-09
7.4731766e-09
7.4626924e-09
7.4593265e-09
7.4586931e-09
7.4613945e-09
7.4622483e-09
7.4562555e-09
7.4218646e-09
7.3843714e-09
7.3633604e-09
7.3523592e-09
7.3473026e-09
7.344025e-09
7.3405369e-09
7.3353662e-09
0.00089371959
0.00061134206
8.8373306e-05
2.0604785e-08
5.9126378e-09
5.4196024e-09
4.9672471e-09
4.9845343e-09
4.9075574e-09
5.0123659e-09
5.0684314e-09
5.2180601e-09
5.3681907e-09
5.5776177e-09
5.8248063e-09
6.1298934e-09
6.4870703e-09
6.8880081e-09
7.3027698e-09