/*--------------------------------*- C++ -*----------------------------------*\
  =========                 |
  \\      /  F ield         | OpenFOAM: The Open Source CFD Toolbox
   \\    /   O peration     | Website:  https://openfoam.org
    \\  /    A nd           | Version:  8
     \\/     M anipulation  |
\*---------------------------------------------------------------------------*/
FoamFile
{
    version     2.0;
    format      ascii;
    class       volScalarField;
    location    "0.240005";
    object      nuTilda;
}
// * * * * * * * * * * * * * * * * * * * * * * * * * * * * * * * * * * * * * //

dimensions      [0 2 -1 0 0 0 0];

internalField   nonuniform List<scalar> 
20000
(
0.001193182
0.0028826245
0.0037565655
0.0038972578
0.0031978492
0.0012064213
8.291004e-05
1.069505e-05
1.0210589e-05
1.0165699e-05
1.0077188e-05
1.0075308e-05
1.0023632e-05
1.0028006e-05
1.0011379e-05
1.0014486e-05
1.0008129e-05
1.0007474e-05
1.0004761e-05
1.0003898e-05
1.0002847e-05
1.0002535e-05
1.0002438e-05
1.0002383e-05
1.0002226e-05
1.0002047e-05
1.0001893e-05
1.0001751e-05
1.0001627e-05
1.0001555e-05
1.0001552e-05
1.0001633e-05
1.0001651e-05
1.000156e-05
1.0001426e-05
1.0001308e-05
1.0001235e-05
1.000121e-05
1.0001219e-05
1.0001232e-05
1.0001008e-05
1.0000834e-05
1.0000785e-05
1.0000786e-05
1.0000676e-05
1.0000626e-05
1.000055e-05
1.0001394e-05
1.0002399e-05
1.0001738e-05
0.0011970469
0.0028457972
0.0036582768
0.0037233615
0.0029606265
0.00097731218
5.5208854e-05
1.0575725e-05
1.0204603e-05
1.016271e-05
1.0075693e-05
1.0074604e-05
1.002311e-05
1.0027687e-05
1.0011206e-05
1.0014327e-05
1.000803e-05
1.0007381e-05
1.0004721e-05
1.000386e-05
1.0002815e-05
1.0002494e-05
1.0002397e-05
1.0002339e-05
1.0002177e-05
1.0001984e-05
1.0001822e-05
1.000169e-05
1.000158e-05
1.0001523e-05
1.0001525e-05
1.0001609e-05
1.0001638e-05
1.000156e-05
1.0001426e-05
1.0001304e-05
1.0001225e-05
1.0001196e-05
1.0001202e-05
1.0001222e-05
1.0001013e-05
1.0000812e-05
1.0000759e-05
1.0000742e-05
1.0000671e-05
1.000063e-05
1.0000553e-05
1.0001371e-05
1.000224e-05
1.000172e-05
0.0011937042
0.0027983056
0.0035555003
0.0035625382
0.0027265602
0.0007788641
3.7611631e-05
1.0515041e-05
1.0198924e-05
1.0159511e-05
1.0074241e-05
1.0073866e-05
1.0022628e-05
1.002728e-05
1.0011021e-05
1.0014099e-05
1.0007921e-05
1.0007286e-05
1.0004682e-05
1.0003837e-05
1.0002811e-05
1.0002496e-05
1.0002399e-05
1.0002335e-05
1.0002172e-05
1.0001979e-05
1.0001823e-05
1.0001695e-05
1.0001584e-05
1.0001518e-05
1.0001519e-05
1.0001607e-05
1.000164e-05
1.0001565e-05
1.000143e-05
1.0001309e-05
1.0001228e-05
1.0001193e-05
1.0001201e-05
1.000123e-05
1.0001031e-05
1.0000806e-05
1.0000747e-05
1.0000732e-05
1.000067e-05
1.0000633e-05
1.0000557e-05
1.0001365e-05
1.0002256e-05
1.0001704e-05
0.0011898195
0.002751349
0.0034557609
0.0034062849
0.0024910095
0.0006154659
2.6704371e-05
1.0480136e-05
1.0193439e-05
1.0156396e-05
1.0072794e-05
1.0073098e-05
1.0022139e-05
1.0026874e-05
1.0010844e-05
1.0013885e-05
1.0007816e-05
1.0007184e-05
1.0004641e-05
1.0003805e-05
1.0002797e-05
1.0002483e-05
1.0002396e-05
1.0002334e-05
1.0002174e-05
1.0001984e-05
1.0001822e-05
1.0001694e-05
1.0001584e-05
1.0001514e-05
1.0001511e-05
1.0001596e-05
1.0001633e-05
1.0001567e-05
1.0001431e-05
1.0001309e-05
1.0001225e-05
1.0001189e-05
1.0001196e-05
1.0001234e-05
1.0001045e-05
1.0000799e-05
1.0000736e-05
1.0000713e-05
1.0000662e-05
1.0000637e-05
1.0000559e-05
1.000135e-05
1.0002114e-05
1.0001691e-05
0.0011848268
0.0027031858
0.0033566328
0.0032545058
0.0022556506
0.00047918742
1.9959299e-05
1.0457061e-05
1.01881e-05
1.0153289e-05
1.0071348e-05
1.0072321e-05
1.0021652e-05
1.002646e-05
1.0010674e-05
1.0013664e-05
1.0007712e-05
1.0007083e-05
1.0004602e-05
1.0003778e-05
1.0002788e-05
1.0002478e-05
1.0002394e-05
1.0002331e-05
1.0002173e-05
1.0001985e-05
1.0001824e-05
1.0001696e-05
1.0001588e-05
1.0001514e-05
1.0001506e-05
1.0001589e-05
1.0001629e-05
1.0001571e-05
1.0001433e-05
1.000131e-05
1.0001224e-05
1.0001185e-05
1.0001192e-05
1.0001238e-05
1.0001056e-05
1.0000795e-05
1.0000729e-05
1.0000696e-05
1.0000648e-05
1.000064e-05
1.000056e-05
1.000134e-05
1.0002103e-05
1.0001688e-05
0.0011786509
0.0026543234
0.0032565557
0.0031066018
0.0020219254
0.00036603299
1.5864415e-05
1.0439697e-05
1.0182872e-05
1.0150193e-05
1.0069899e-05
1.0071524e-05
1.0021164e-05
1.0026036e-05
1.0010511e-05
1.0013441e-05
1.0007609e-05
1.0006981e-05
1.0004562e-05
1.0003749e-05
1.000278e-05
1.000247e-05
1.0002395e-05
1.0002332e-05
1.0002175e-05
1.0001984e-05
1.0001823e-05
1.0001698e-05
1.0001591e-05
1.0001513e-05
1.0001501e-05
1.0001581e-05
1.0001625e-05
1.0001574e-05
1.0001435e-05
1.0001311e-05
1.0001223e-05
1.0001181e-05
1.0001188e-05
1.000124e-05
1.0001066e-05
1.000079e-05
1.0000722e-05
1.0000676e-05
1.0000625e-05
1.0000642e-05
1.0000559e-05
1.0001313e-05
1.0002073e-05
1.00017e-05
0.0011715436
0.0026059627
0.0031543736
0.0029540553
0.0017929917
0.0002747705
1.3469564e-05
1.042516e-05
1.0177733e-05
1.0147102e-05
1.0068445e-05
1.0070707e-05
1.0020677e-05
1.0025602e-05
1.0010355e-05
1.0013214e-05
1.0007508e-05
1.0006878e-05
1.0004522e-05
1.000372e-05
1.000277e-05
1.0002459e-05
1.0002391e-05
1.0002331e-05
1.0002172e-05
1.0001981e-05
1.0001822e-05
1.0001698e-05
1.0001593e-05
1.0001514e-05
1.0001497e-05
1.0001574e-05
1.0001621e-05
1.0001577e-05
1.0001437e-05
1.0001311e-05
1.0001222e-05
1.0001177e-05
1.0001183e-05
1.000124e-05
1.0001079e-05
1.0000787e-05
1.0000716e-05
1.0000658e-05
1.00006e-05
1.0000641e-05
1.0000553e-05
1.0001267e-05
1.0002054e-05
1.0001707e-05
0.0011642955
0.0025602285
0.0030624832
0.0028079805
0.0015726998
0.00020273206
1.211369e-05
1.0411869e-05
1.0172659e-05
1.0144e-05
1.0066983e-05
1.0069864e-05
1.002019e-05
1.0025156e-05
1.0010208e-05
1.0012985e-05
1.0007409e-05
1.0006774e-05
1.0004481e-05
1.0003687e-05
1.0002756e-05
1.0002445e-05
1.0002389e-05
1.0002328e-05
1.0002168e-05
1.0001978e-05
1.000182e-05
1.0001698e-05
1.0001595e-05
1.0001514e-05
1.0001494e-05
1.0001567e-05
1.0001616e-05
1.0001579e-05
1.0001439e-05
1.0001311e-05
1.000122e-05
1.0001173e-05
1.0001178e-05
1.000124e-05
1.0001096e-05
1.0000784e-05
1.0000711e-05
1.0000644e-05
1.0000578e-05
1.0000637e-05
1.0000542e-05
1.0001218e-05
1.0002044e-05
1.0001719e-05
0.0011565814
0.0025149111
0.0029715855
0.0026641503
0.0013626
0.00014715038
1.136238e-05
1.0399078e-05
1.0167631e-05
1.0140869e-05
1.0065511e-05
1.0068992e-05
1.0019703e-05
1.0024699e-05
1.001007e-05
1.0012751e-05
1.0007311e-05
1.0006665e-05
1.0004435e-05
1.000365e-05
1.0002742e-05
1.0002433e-05
1.0002387e-05
1.0002322e-05
1.0002163e-05
1.0001974e-05
1.0001818e-05
1.0001698e-05
1.0001596e-05
1.0001514e-05
1.0001491e-05
1.000156e-05
1.0001612e-05
1.0001581e-05
1.0001442e-05
1.0001311e-05
1.0001218e-05
1.0001169e-05
1.0001173e-05
1.0001238e-05
1.0001113e-05
1.0000783e-05
1.0000707e-05
1.0000639e-05
1.0000569e-05
1.0000631e-05
1.0000523e-05
1.0001183e-05
1.0002043e-05
1.0001748e-05
0.0011486006
0.0024702522
0.0028821605
0.0025203842
0.0011650749
0.00010527849
1.0954191e-05
1.0387298e-05
1.0162643e-05
1.0137697e-05
1.0064017e-05
1.0068089e-05
1.0019223e-05
1.0024228e-05
1.000994e-05
1.001251e-05
1.0007212e-05
1.0006552e-05
1.0004388e-05
1.0003612e-05
1.0002731e-05
1.0002424e-05
1.0002383e-05
1.0002316e-05
1.0002158e-05
1.000197e-05
1.0001816e-05
1.0001697e-05
1.0001597e-05
1.0001514e-05
1.0001489e-05
1.0001554e-05
1.0001608e-05
1.0001582e-05
1.0001444e-05
1.000131e-05
1.0001215e-05
1.0001164e-05
1.0001167e-05
1.0001235e-05
1.0001124e-05
1.0000782e-05
1.0000704e-05
1.0000639e-05
1.0000568e-05
1.0000624e-05
1.0000502e-05
1.0001158e-05
1.0002048e-05
1.0001768e-05
0.0011404365
0.0024260413
0.002793671
0.002375088
0.00098240974
7.4599903e-05
1.0734286e-05
1.0377148e-05
1.0157731e-05
1.0134481e-05
1.006246e-05
1.0067109e-05
1.0018776e-05
1.0023739e-05
1.0009817e-05
1.001226e-05
1.0007111e-05
1.0006439e-05
1.0004342e-05
1.0003577e-05
1.0002723e-05
1.0002416e-05
1.000238e-05
1.000231e-05
1.0002152e-05
1.0001966e-05
1.0001813e-05
1.0001696e-05
1.0001597e-05
1.0001514e-05
1.0001486e-05
1.0001548e-05
1.0001603e-05
1.0001583e-05
1.0001446e-05
1.000131e-05
1.0001212e-05
1.0001158e-05
1.000116e-05
1.000123e-05
1.0001116e-05
1.0000781e-05
1.00007e-05
1.0000642e-05
1.0000569e-05
1.0000617e-05
1.0000487e-05
1.000114e-05
1.0002045e-05
1.0001794e-05
0.0011322362
0.0023822794
0.0027058821
0.0022305049
0.00081683055
5.2883789e-05
1.0614539e-05
1.0367203e-05
1.0153256e-05
1.0131172e-05
1.006058e-05
1.0064523e-05
1.0018455e-05
1.0023229e-05
1.0009701e-05
1.0012008e-05
1.0007015e-05
1.0006328e-05
1.0004299e-05
1.0003542e-05
1.0002714e-05
1.0002409e-05
1.0002375e-05
1.0002304e-05
1.0002146e-05
1.0001962e-05
1.000181e-05
1.0001695e-05
1.0001598e-05
1.0001514e-05
1.0001484e-05
1.0001542e-05
1.0001598e-05
1.0001583e-05
1.0001448e-05
1.000131e-05
1.0001209e-05
1.0001152e-05
1.0001153e-05
1.0001226e-05
1.0001079e-05
1.000078e-05
1.0000696e-05
1.0000644e-05
1.0000578e-05
1.0000607e-05
1.0000481e-05
1.0001131e-05
1.0002034e-05
1.0001826e-05
0.0011241648
0.0023394671
0.0026183782
0.0020831918
0.00066893085
3.7963538e-05
1.0553198e-05
1.0359187e-05
1.0153301e-05
1.0127553e-05
1.0056822e-05
1.0059162e-05
1.0018107e-05
1.0022705e-05
1.0009596e-05
1.0011754e-05
1.0006923e-05
1.0006218e-05
1.0004256e-05
1.0003507e-05
1.0002706e-05
1.0002402e-05
1.000237e-05
1.0002297e-05
1.0002141e-05
1.0001958e-05
1.0001807e-05
1.0001694e-05
1.0001597e-05
1.0001514e-05
1.0001482e-05
1.0001537e-05
1.0001594e-05
1.0001583e-05
1.000145e-05
1.0001309e-05
1.0001206e-05
1.0001146e-05
1.0001146e-05
1.0001223e-05
1.0001038e-05
1.0000779e-05
1.0000689e-05
1.0000643e-05
1.0000597e-05
1.0000596e-05
1.0000488e-05
1.0001128e-05
1.0002016e-05
1.0001861e-05
0.0011162989
0.0022981103
0.0025327123
0.0019312808
0.00054001757
2.802281e-05
1.0523505e-05
1.0353385e-05
1.0149382e-05
1.0123188e-05
1.0051695e-05
1.005338e-05
1.0017633e-05
1.0022171e-05
1.00095e-05
1.0011501e-05
1.0006834e-05
1.0006108e-05
1.0004213e-05
1.0003471e-05
1.0002698e-05
1.0002395e-05
1.0002365e-05
1.000229e-05
1.0002135e-05
1.0001953e-05
1.0001804e-05
1.0001692e-05
1.0001597e-05
1.0001514e-05
1.0001479e-05
1.0001531e-05
1.0001589e-05
1.0001582e-05
1.0001451e-05
1.0001309e-05
1.0001203e-05
1.000114e-05
1.0001138e-05
1.0001221e-05
1.0001016e-05
1.0000778e-05
1.0000682e-05
1.0000635e-05
1.0000614e-05
1.0000576e-05
1.0000494e-05
1.0001132e-05
1.0001987e-05
1.00019e-05
0.0011084835
0.0022581982
0.0024559265
0.0017738346
0.00043293202
2.160424e-05
1.050289e-05
1.0348702e-05
1.0145391e-05
1.0118477e-05
1.0047814e-05
1.0048412e-05
1.0016983e-05
1.0021627e-05
1.0009412e-05
1.0011244e-05
1.0006746e-05
1.0005998e-05
1.000417e-05
1.0003436e-05
1.000269e-05
1.0002389e-05
1.000236e-05
1.0002283e-05
1.0002128e-05
1.0001949e-05
1.0001801e-05
1.000169e-05
1.0001597e-05
1.0001513e-05
1.0001477e-05
1.0001526e-05
1.0001584e-05
1.000158e-05
1.0001452e-05
1.0001309e-05
1.00012e-05
1.0001134e-05
1.000113e-05
1.0001219e-05
1.0000989e-05
1.0000778e-05
1.0000674e-05
1.0000624e-05
1.0000624e-05
1.0000548e-05
1.0000495e-05
1.0001142e-05
1.0001949e-05
1.0001942e-05
0.0011004104
0.0022180436
0.0023775898
0.0016105031
0.00034160247
1.7478566e-05
1.0493553e-05
1.0342683e-05
1.014562e-05
1.0115509e-05
1.0046797e-05
1.0046344e-05
1.0016408e-05
1.0021076e-05
1.0009331e-05
1.0010988e-05
1.0006661e-05
1.0005888e-05
1.0004126e-05
1.0003401e-05
1.0002682e-05
1.0002383e-05
1.0002354e-05
1.0002276e-05
1.0002122e-05
1.0001944e-05
1.0001797e-05
1.0001688e-05
1.0001596e-05
1.0001513e-05
1.0001475e-05
1.000152e-05
1.000158e-05
1.0001577e-05
1.0001452e-05
1.0001308e-05
1.0001198e-05
1.0001127e-05
1.000112e-05
1.0001217e-05
1.0000962e-05
1.0000779e-05
1.0000667e-05
1.000061e-05
1.000063e-05
1.0000514e-05
1.0000506e-05
1.0001155e-05
1.0001905e-05
1.0001984e-05
0.0010922799
0.0021782213
0.0023008721
0.0014450048
0.00026591334
1.4889648e-05
1.0480988e-05
1.0331624e-05
1.0141737e-05
1.011206e-05
1.004556e-05
1.0045152e-05
1.0016026e-05
1.0020522e-05
1.0009256e-05
1.001073e-05
1.0006577e-05
1.0005779e-05
1.0004083e-05
1.0003367e-05
1.0002675e-05
1.0002378e-05
1.0002348e-05
1.0002269e-05
1.0002116e-05
1.000194e-05
1.0001794e-05
1.0001685e-05
1.0001595e-05
1.0001513e-05
1.0001474e-05
1.0001515e-05
1.0001575e-05
1.0001574e-05
1.0001451e-05
1.0001308e-05
1.0001195e-05
1.000112e-05
1.0001107e-05
1.0001177e-05
1.0000941e-05
1.0000779e-05
1.000066e-05
1.0000597e-05
1.0000634e-05
1.000048e-05
1.0000519e-05
1.0001171e-05
1.0001853e-05
1.0002025e-05
0.0010843831
0.0021384923
0.0022243751
0.0012836928
0.00020446306
1.3289612e-05
1.0465638e-05
1.0321594e-05
1.0137017e-05
1.0108625e-05
1.0044042e-05
1.0043754e-05
1.0015605e-05
1.001996e-05
1.0009185e-05
1.0010474e-05
1.0006494e-05
1.0005671e-05
1.0004041e-05
1.0003333e-05
1.0002668e-05
1.0002374e-05
1.0002343e-05
1.0002262e-05
1.000211e-05
1.0001935e-05
1.000179e-05
1.0001683e-05
1.0001594e-05
1.0001513e-05
1.0001472e-05
1.000151e-05
1.000157e-05
1.0001571e-05
1.000145e-05
1.0001307e-05
1.0001193e-05
1.0001114e-05
1.0001094e-05
1.0001161e-05
1.0000922e-05
1.000078e-05
1.0000655e-05
1.0000587e-05
1.0000632e-05
1.0000454e-05
1.0000539e-05
1.0001188e-05
1.0001805e-05
1.0002053e-05
0.001076696
0.0020985259
0.0021475429
0.0011334461
0.00015568651
1.2312481e-05
1.0449418e-05
1.0311189e-05
1.0132445e-05
1.0105167e-05
1.0042522e-05
1.0042385e-05
1.0015204e-05
1.0019397e-05
1.0009118e-05
1.0010218e-05
1.0006413e-05
1.0005564e-05
1.0003998e-05
1.0003299e-05
1.0002661e-05
1.0002371e-05
1.0002336e-05
1.0002255e-05
1.0002104e-05
1.000193e-05
1.0001786e-05
1.000168e-05
1.0001592e-05
1.0001512e-05
1.0001471e-05
1.0001504e-05
1.0001565e-05
1.0001566e-05
1.0001448e-05
1.0001306e-05
1.0001191e-05
1.0001108e-05
1.0001082e-05
1.0001126e-05
1.0000904e-05
1.000078e-05
1.0000651e-05
1.000058e-05
1.0000619e-05
1.0000441e-05
1.0000566e-05
1.0001203e-05
1.0001764e-05
1.0002068e-05
0.0010688512
0.0020556413
0.0020683976
0.00099316158
0.00011744676
1.1725506e-05
1.0433867e-05
1.0300944e-05
1.012787e-05
1.0101687e-05
1.0041016e-05
1.0041e-05
1.0014812e-05
1.0018831e-05
1.0009055e-05
1.0009964e-05
1.0006332e-05
1.0005459e-05
1.0003956e-05
1.0003267e-05
1.0002654e-05
1.0002368e-05
1.000233e-05
1.0002248e-05
1.0002097e-05
1.0001925e-05
1.0001782e-05
1.0001677e-05
1.0001591e-05
1.0001512e-05
1.000147e-05
1.0001499e-05
1.000156e-05
1.0001562e-05
1.0001446e-05
1.0001305e-05
1.0001188e-05
1.0001103e-05
1.000107e-05
1.0001105e-05
1.0000884e-05
1.0000779e-05
1.0000646e-05
1.0000572e-05
1.0000617e-05
1.0000433e-05
1.0000602e-05
1.0001215e-05
1.0001727e-05
1.000207e-05
0.0010608132
0.0020097701
0.001986022
0.00086332687
8.7960198e-05
1.137391e-05
1.0418785e-05
1.0290702e-05
1.0123323e-05
1.0098198e-05
1.0039523e-05
1.0039615e-05
1.0014432e-05
1.0018268e-05
1.0008994e-05
1.0009714e-05
1.0006253e-05
1.0005356e-05
1.0003915e-05
1.0003235e-05
1.0002648e-05
1.0002366e-05
1.0002324e-05
1.0002241e-05
1.0002091e-05
1.000192e-05
1.0001778e-05
1.0001674e-05
1.000159e-05
1.0001512e-05
1.0001469e-05
1.0001493e-05
1.0001554e-05
1.0001558e-05
1.0001442e-05
1.0001303e-05
1.0001186e-05
1.0001099e-05
1.0001057e-05
1.0001087e-05
1.0000867e-05
1.0000775e-05
1.000064e-05
1.0000567e-05
1.0000621e-05
1.0000431e-05
1.0000643e-05
1.0001225e-05
1.0001693e-05
1.000206e-05
0.0010523729
0.0019605207
0.0018992182
0.00074432129
6.56926e-05
1.1161252e-05
1.0404135e-05
1.0280537e-05
1.0118806e-05
1.0094708e-05
1.0038046e-05
1.0038231e-05
1.0014065e-05
1.0017708e-05
1.0008934e-05
1.0009466e-05
1.0006174e-05
1.0005256e-05
1.0003874e-05
1.0003205e-05
1.0002643e-05
1.0002365e-05
1.0002318e-05
1.0002234e-05
1.0002085e-05
1.0001916e-05
1.0001774e-05
1.000167e-05
1.0001588e-05
1.0001512e-05
1.0001468e-05
1.0001488e-05
1.0001549e-05
1.0001553e-05
1.0001439e-05
1.0001301e-05
1.0001183e-05
1.0001095e-05
1.0001045e-05
1.0001079e-05
1.0000851e-05
1.0000768e-05
1.0000634e-05
1.0000562e-05
1.0000619e-05
1.0000428e-05
1.0000676e-05
1.0001235e-05
1.000166e-05
1.000204e-05
0.0010433891
0.001907327
0.0018052034
0.00063624185
4.9278996e-05
1.1029762e-05
1.0389862e-05
1.0270416e-05
1.011432e-05
1.0091218e-05
1.0036589e-05
1.0036852e-05
1.0013713e-05
1.0017154e-05
1.0008876e-05
1.0009223e-05
1.0006095e-05
1.0005157e-05
1.0003833e-05
1.0003176e-05
1.0002637e-05
1.0002364e-05
1.0002311e-05
1.0002227e-05
1.0002079e-05
1.0001911e-05
1.0001769e-05
1.0001667e-05
1.0001586e-05
1.0001511e-05
1.0001467e-05
1.0001483e-05
1.0001543e-05
1.0001548e-05
1.0001434e-05
1.0001298e-05
1.000118e-05
1.0001091e-05
1.0001034e-05
1.0001072e-05
1.000084e-05
1.000076e-05
1.0000627e-05
1.0000551e-05
1.0000587e-05
1.0000427e-05
1.0000698e-05
1.0001243e-05
1.0001625e-05
1.0002009e-05
0.0010337929
0.0018503301
0.0016994362
0.00053944392
3.729839e-05
1.094222e-05
1.0375895e-05
1.0260369e-05
1.0109874e-05
1.0087744e-05
1.0035155e-05
1.0035485e-05
1.0013377e-05
1.0016609e-05
1.0008816e-05
1.0008985e-05
1.0006017e-05
1.0005062e-05
1.0003794e-05
1.0003148e-05
1.0002632e-05
1.0002364e-05
1.0002305e-05
1.000222e-05
1.0002072e-05
1.0001906e-05
1.0001765e-05
1.0001663e-05
1.0001584e-05
1.0001511e-05
1.0001466e-05
1.0001478e-05
1.0001538e-05
1.0001543e-05
1.000143e-05
1.0001294e-05
1.0001177e-05
1.0001087e-05
1.0001023e-05
1.0001055e-05
1.000083e-05
1.0000751e-05
1.0000622e-05
1.0000544e-05
1.0000551e-05
1.0000441e-05
1.0000709e-05
1.000125e-05
1.0001587e-05
1.0001969e-05
0.0010238848
0.0017910272
0.0015855996
0.00045440871
2.8782817e-05
1.0880338e-05
1.0362141e-05
1.0250368e-05
1.0105467e-05
1.0084283e-05
1.0033747e-05
1.0034129e-05
1.0013057e-05
1.0016073e-05
1.0008756e-05
1.0008752e-05
1.000594e-05
1.000497e-05
1.0003755e-05
1.0003122e-05
1.0002628e-05
1.0002365e-05
1.0002299e-05
1.0002214e-05
1.0002066e-05
1.0001901e-05
1.000176e-05
1.0001659e-05
1.0001582e-05
1.0001511e-05
1.0001465e-05
1.0001473e-05
1.0001531e-05
1.0001538e-05
1.0001425e-05
1.000129e-05
1.0001173e-05
1.0001084e-05
1.0001013e-05
1.0001032e-05
1.0000818e-05
1.0000742e-05
1.000062e-05
1.0000535e-05
1.0000515e-05
1.0000463e-05
1.0000711e-05
1.0001255e-05
1.0001547e-05
1.000192e-05
0.0010137507
0.0017298837
0.0014646011
0.00037936312
2.2876779e-05
1.0833e-05
1.034859e-05
1.0240471e-05
1.0101111e-05
1.0080854e-05
1.0032369e-05
1.0032794e-05
1.0012756e-05
1.001555e-05
1.0008692e-05
1.0008523e-05
1.0005865e-05
1.000488e-05
1.0003718e-05
1.0003097e-05
1.0002623e-05
1.0002366e-05
1.0002293e-05
1.0002207e-05
1.0002061e-05
1.0001895e-05
1.0001755e-05
1.0001655e-05
1.000158e-05
1.0001511e-05
1.0001464e-05
1.0001468e-05
1.0001525e-05
1.0001533e-05
1.000142e-05
1.0001286e-05
1.0001168e-05
1.000108e-05
1.0001003e-05
1.0001003e-05
1.0000807e-05
1.0000736e-05
1.0000617e-05
1.0000532e-05
1.0000474e-05
1.0000482e-05
1.0000708e-05
1.0001257e-05
1.0001513e-05
1.0001864e-05
0.0010032843
0.0016666169
0.0013414624
0.00031164212
1.8821778e-05
1.0793734e-05
1.0335198e-05
1.0230671e-05
1.0096808e-05
1.0077461e-05
1.0031023e-05
1.0031482e-05
1.0012474e-05
1.001504e-05
1.0008625e-05
1.0008279e-05
1.000579e-05
1.0004794e-05
1.0003681e-05
1.0003073e-05
1.0002619e-05
1.0002367e-05
1.0002288e-05
1.0002201e-05
1.0002055e-05
1.000189e-05
1.000175e-05
1.0001651e-05
1.0001578e-05
1.0001512e-05
1.0001463e-05
1.0001463e-05
1.0001518e-05
1.0001528e-05
1.0001415e-05
1.0001281e-05
1.0001163e-05
1.0001076e-05
1.0000991e-05
1.0000968e-05
1.0000801e-05
1.0000732e-05
1.0000615e-05
1.0000533e-05
1.0000438e-05
1.0000479e-05
1.0000703e-05
1.0001254e-05
1.0001482e-05
1.0001803e-05
0.0009926856
0.0015999977
0.0012255098
0.00025324589
1.6087099e-05
1.0758862e-05
1.0321933e-05
1.0220977e-05
1.0092565e-05
1.0074108e-05
1.0029713e-05
1.0030195e-05
1.0012212e-05
1.0014544e-05
1.0008556e-05
1.0008041e-05
1.0005715e-05
1.0004712e-05
1.0003645e-05
1.0003051e-05
1.0002615e-05
1.0002369e-05
1.0002283e-05
1.0002195e-05
1.0002049e-05
1.0001885e-05
1.0001744e-05
1.0001646e-05
1.0001576e-05
1.0001513e-05
1.0001463e-05
1.0001459e-05
1.0001511e-05
1.0001523e-05
1.0001409e-05
1.0001277e-05
1.0001158e-05
1.0001072e-05
1.0000982e-05
1.000093e-05
1.0000799e-05
1.000073e-05
1.0000617e-05
1.0000531e-05
1.0000416e-05
1.0000454e-05
1.0000697e-05
1.0001247e-05
1.0001456e-05
1.0001741e-05
0.00098258403
0.0015346957
0.0011089006
0.00020320022
1.4272818e-05
1.0726336e-05
1.030881e-05
1.0211423e-05
1.008839e-05
1.0070809e-05
1.0028442e-05
1.002894e-05
1.0011971e-05
1.0014065e-05
1.0008483e-05
1.0007824e-05
1.000564e-05
1.0004633e-05
1.0003611e-05
1.0003029e-05
1.0002611e-05
1.000237e-05
1.0002278e-05
1.000219e-05
1.0002043e-05
1.0001879e-05
1.0001739e-05
1.0001643e-05
1.0001575e-05
1.0001514e-05
1.0001462e-05
1.0001454e-05
1.0001503e-05
1.0001517e-05
1.0001404e-05
1.0001272e-05
1.0001153e-05
1.0001067e-05
1.0000975e-05
1.0000902e-05
1.0000796e-05
1.0000729e-05
1.000062e-05
1.0000527e-05
1.0000406e-05
1.0000417e-05
1.0000691e-05
1.0001235e-05
1.000143e-05
1.0001677e-05
0.00097323339
0.0014728828
0.00099500575
0.00016138267
1.3083771e-05
1.0694942e-05
1.0295806e-05
1.0201992e-05
1.0084284e-05
1.0067563e-05
1.0027213e-05
1.0027717e-05
1.0011751e-05
1.0013603e-05
1.0008406e-05
1.0007634e-05
1.0005565e-05
1.0004557e-05
1.0003577e-05
1.0003009e-05
1.0002606e-05
1.0002372e-05
1.0002274e-05
1.0002184e-05
1.0002037e-05
1.0001872e-05
1.0001734e-05
1.000164e-05
1.0001574e-05
1.0001514e-05
1.0001462e-05
1.000145e-05
1.0001496e-05
1.0001512e-05
1.0001398e-05
1.0001268e-05
1.0001148e-05
1.0001062e-05
1.0000969e-05
1.0000879e-05
1.0000793e-05
1.0000727e-05
1.0000626e-05
1.0000517e-05
1.0000401e-05
1.0000387e-05
1.0000685e-05
1.0001218e-05
1.0001406e-05
1.0001611e-05
0.00096446228
0.0014095583
0.00088464194
0.00012698716
1.2313649e-05
1.066421e-05
1.0282928e-05
1.0192704e-05
1.0080255e-05
1.0064382e-05
1.0026027e-05
1.0026532e-05
1.0011554e-05
1.001316e-05
1.0008327e-05
1.0007451e-05
1.0005492e-05
1.0004485e-05
1.0003545e-05
1.000299e-05
1.0002602e-05
1.0002373e-05
1.000227e-05
1.0002178e-05
1.0002031e-05
1.0001867e-05
1.0001731e-05
1.0001637e-05
1.0001572e-05
1.0001514e-05
1.0001462e-05
1.0001447e-05
1.0001489e-05
1.0001506e-05
1.0001393e-05
1.0001264e-05
1.0001143e-05
1.0001057e-05
1.0000965e-05
1.0000865e-05
1.0000787e-05
1.0000723e-05
1.0000634e-05
1.0000503e-05
1.0000398e-05
1.0000383e-05
1.000068e-05
1.0001195e-05
1.0001384e-05
1.0001544e-05
0.00095654172
0.0013454422
0.00077981091
9.932784e-05
1.1817662e-05
1.0634384e-05
1.0270207e-05
1.0183585e-05
1.0076309e-05
1.0061273e-05
1.0024888e-05
1.0025386e-05
1.0011379e-05
1.0012736e-05
1.0008244e-05
1.0007277e-05
1.0005418e-05
1.0004416e-05
1.0003513e-05
1.0002971e-05
1.0002597e-05
1.0002373e-05
1.0002267e-05
1.0002173e-05
1.0002024e-05
1.0001862e-05
1.0001728e-05
1.0001634e-05
1.0001569e-05
1.0001513e-05
1.0001462e-05
1.0001444e-05
1.0001481e-05
1.00015e-05
1.0001387e-05
1.000126e-05
1.0001139e-05
1.0001052e-05
1.0000961e-05
1.0000859e-05
1.0000781e-05
1.0000719e-05
1.0000643e-05
1.0000489e-05
1.000039e-05
1.0000379e-05
1.0000679e-05
1.0001166e-05
1.0001364e-05
1.0001476e-05
0.00094933332
0.001279843
0.00068178249
7.7489642e-05
1.1495929e-05
1.0606614e-05
1.0257668e-05
1.0174648e-05
1.0072456e-05
1.0058243e-05
1.0023799e-05
1.0024284e-05
1.0011228e-05
1.0012332e-05
1.0008157e-05
1.0007111e-05
1.0005346e-05
1.0004351e-05
1.0003482e-05
1.0002952e-05
1.0002591e-05
1.0002374e-05
1.0002264e-05
1.0002167e-05
1.0002018e-05
1.0001859e-05
1.0001725e-05
1.000163e-05
1.0001565e-05
1.0001513e-05
1.0001463e-05
1.0001442e-05
1.0001475e-05
1.0001493e-05
1.000138e-05
1.0001256e-05
1.0001135e-05
1.0001047e-05
1.0000956e-05
1.0000855e-05
1.0000775e-05
1.0000717e-05
1.0000648e-05
1.0000484e-05
1.000039e-05
1.0000376e-05
1.0000683e-05
1.0001133e-05
1.0001349e-05
1.0001408e-05
0.00094295312
0.0012138554
0.00059157573
6.0567929e-05
1.1282882e-05
1.0580142e-05
1.024531e-05
1.0165892e-05
1.0068697e-05
1.0055294e-05
1.0022761e-05
1.0023226e-05
1.00111e-05
1.0011948e-05
1.0008068e-05
1.0006953e-05
1.0005275e-05
1.0004289e-05
1.0003452e-05
1.0002933e-05
1.0002585e-05
1.0002374e-05
1.0002261e-05
1.0002161e-05
1.0002014e-05
1.0001857e-05
1.0001722e-05
1.0001625e-05
1.0001561e-05
1.0001512e-05
1.0001464e-05
1.000144e-05
1.0001468e-05
1.0001487e-05
1.0001373e-05
1.0001252e-05
1.0001131e-05
1.0001042e-05
1.0000953e-05
1.000085e-05
1.0000769e-05
1.0000702e-05
1.0000647e-05
1.000049e-05
1.0000386e-05
1.0000374e-05
1.0000691e-05
1.0001102e-05
1.0001336e-05
1.0001341e-05
0.00093728992
0.0011508831
0.00050961138
4.7647236e-05
1.1136656e-05
1.0553755e-05
1.0233117e-05
1.0157306e-05
1.0065034e-05
1.0052427e-05
1.0021776e-05
1.0022213e-05
1.0010997e-05
1.0011583e-05
1.0007977e-05
1.0006804e-05
1.0005205e-05
1.0004229e-05
1.0003421e-05
1.0002915e-05
1.0002578e-05
1.0002374e-05
1.0002258e-05
1.0002155e-05
1.0002011e-05
1.0001856e-05
1.0001717e-05
1.0001618e-05
1.0001557e-05
1.0001511e-05
1.0001465e-05
1.000144e-05
1.0001462e-05
1.000148e-05
1.0001366e-05
1.0001248e-05
1.0001127e-05
1.0001038e-05
1.0000949e-05
1.0000846e-05
1.0000764e-05
1.0000692e-05
1.0000635e-05
1.0000483e-05
1.0000382e-05
1.0000374e-05
1.0000703e-05
1.000108e-05
1.000132e-05
1.0001277e-05
0.00093135325
0.0010785547
0.00043593286
3.7933865e-05
1.1031591e-05
1.0527679e-05
1.0221103e-05
1.0148903e-05
1.0061473e-05
1.0049651e-05
1.0020847e-05
1.0021248e-05
1.0010916e-05
1.0011238e-05
1.0007885e-05
1.0006662e-05
1.0005136e-05
1.0004172e-05
1.0003391e-05
1.0002895e-05
1.0002571e-05
1.0002374e-05
1.0002255e-05
1.0002151e-05
1.000201e-05
1.0001853e-05
1.0001711e-05
1.0001612e-05
1.0001552e-05
1.000151e-05
1.0001466e-05
1.0001439e-05
1.0001456e-05
1.0001474e-05
1.0001357e-05
1.0001244e-05
1.0001124e-05
1.0001034e-05
1.0000946e-05
1.0000843e-05
1.0000761e-05
1.0000681e-05
1.000062e-05
1.0000488e-05
1.0000383e-05
1.0000375e-05
1.0000716e-05
1.000108e-05
1.0001306e-05
1.0001215e-05
0.00092560546
0.0010058507
0.00037156806
3.075825e-05
1.0952145e-05
1.050188e-05
1.0209294e-05
1.0140706e-05
1.0058024e-05
1.0046973e-05
1.0019976e-05
1.0020334e-05
1.0010861e-05
1.0010911e-05
1.0007793e-05
1.0006528e-05
1.0005068e-05
1.0004117e-05
1.000336e-05
1.0002875e-05
1.0002562e-05
1.0002375e-05
1.0002253e-05
1.0002149e-05
1.0002009e-05
1.0001849e-05
1.0001704e-05
1.0001606e-05
1.0001548e-05
1.0001508e-05
1.0001467e-05
1.000144e-05
1.0001451e-05
1.0001467e-05
1.0001349e-05
1.000124e-05
1.0001121e-05
1.000103e-05
1.0000943e-05
1.000084e-05
1.0000756e-05
1.0000671e-05
1.0000606e-05
1.0000486e-05
1.0000383e-05
1.0000376e-05
1.0000725e-05
1.0001078e-05
1.0001294e-05
1.0001154e-05
0.00091964824
0.00092856596
0.00031596925
2.5519143e-05
1.0888433e-05
1.0476388e-05
1.0197703e-05
1.0132723e-05
1.0054691e-05
1.0044397e-05
1.0019165e-05
1.0019471e-05
1.0010829e-05
1.0010597e-05
1.0007698e-05
1.0006402e-05
1.0005002e-05
1.0004063e-05
1.0003328e-05
1.0002855e-05
1.0002553e-05
1.0002375e-05
1.0002252e-05
1.000215e-05
1.0002009e-05
1.0001843e-05
1.0001697e-05
1.0001599e-05
1.0001543e-05
1.0001506e-05
1.0001468e-05
1.000144e-05
1.0001446e-05
1.000146e-05
1.000134e-05
1.0001235e-05
1.0001118e-05
1.0001026e-05
1.0000939e-05
1.0000835e-05
1.0000739e-05
1.0000664e-05
1.0000596e-05
1.0000476e-05
1.0000373e-05
1.0000378e-05
1.000073e-05
1.0001078e-05
1.0001277e-05
1.0001096e-05
0.00091313378
0.00084992698
0.00026897637
2.1742497e-05
1.0833598e-05
1.045122e-05
1.0186345e-05
1.0124958e-05
1.0051477e-05
1.0041925e-05
1.0018417e-05
1.0018657e-05
1.0010825e-05
1.001025e-05
1.0007602e-05
1.0006283e-05
1.0004936e-05
1.000401e-05
1.0003295e-05
1.0002833e-05
1.0002543e-05
1.0002376e-05
1.0002254e-05
1.0002152e-05
1.0002006e-05
1.0001835e-05
1.000169e-05
1.0001592e-05
1.0001537e-05
1.0001504e-05
1.0001469e-05
1.000144e-05
1.0001442e-05
1.0001454e-05
1.0001331e-05
1.000123e-05
1.0001115e-05
1.0001022e-05
1.0000936e-05
1.0000832e-05
1.0000735e-05
1.0000657e-05
1.0000571e-05
1.000046e-05
1.0000358e-05
1.0000384e-05
1.000073e-05
1.0001079e-05
1.0001261e-05
1.000104e-05
0.00090684949
0.00077006825
0.00022983282
1.9017041e-05
1.0784281e-05
1.0426402e-05
1.0175231e-05
1.0117415e-05
1.0048388e-05
1.003956e-05
1.0017732e-05
1.0017894e-05
1.0010815e-05
1.0009961e-05
1.0007504e-05
1.000617e-05
1.0004871e-05
1.0003957e-05
1.0003261e-05
1.000281e-05
1.0002533e-05
1.0002376e-05
1.0002258e-05
1.0002154e-05
1.0002e-05
1.0001828e-05
1.0001682e-05
1.0001584e-05
1.0001532e-05
1.0001502e-05
1.000147e-05
1.000144e-05
1.0001439e-05
1.0001448e-05
1.0001322e-05
1.0001225e-05
1.0001112e-05
1.0001019e-05
1.0000934e-05
1.0000829e-05
1.000073e-05
1.0000646e-05
1.0000559e-05
1.0000458e-05
1.0000356e-05
1.0000392e-05
1.0000723e-05
1.0001077e-05
1.0001242e-05
1.0000985e-05
0.0009022422
0.0007098792
0.00019792154
1.7036921e-05
1.0738491e-05
1.0401978e-05
1.016438e-05
1.0110106e-05
1.004543e-05
1.003731e-05
1.0017113e-05
1.0017182e-05
1.0010783e-05
1.000972e-05
1.0007407e-05
1.0006063e-05
1.0004805e-05
1.0003904e-05
1.0003224e-05
1.0002786e-05
1.0002522e-05
1.0002373e-05
1.000226e-05
1.0002154e-05
1.0001992e-05
1.0001819e-05
1.0001674e-05
1.0001577e-05
1.0001526e-05
1.0001499e-05
1.000147e-05
1.000144e-05
1.0001435e-05
1.0001441e-05
1.0001314e-05
1.0001219e-05
1.0001109e-05
1.0001017e-05
1.0000931e-05
1.0000827e-05
1.0000725e-05
1.0000635e-05
1.0000537e-05
1.0000438e-05
1.0000352e-05
1.0000406e-05
1.0000706e-05
1.0001072e-05
1.0001223e-05
1.000093e-05
0.00089891121
0.00066003318
0.00017154497
1.5588965e-05
1.0695072e-05
1.0377989e-05
1.0153807e-05
1.0103042e-05
1.0042609e-05
1.0035178e-05
1.0016561e-05
1.0016523e-05
1.0010735e-05
1.0009491e-05
1.0007309e-05
1.000596e-05
1.0004739e-05
1.0003849e-05
1.0003187e-05
1.0002762e-05
1.0002509e-05
1.0002367e-05
1.0002261e-05
1.000215e-05
1.0001983e-05
1.0001811e-05
1.0001666e-05
1.0001569e-05
1.000152e-05
1.0001495e-05
1.000147e-05
1.000144e-05
1.0001433e-05
1.0001434e-05
1.0001306e-05
1.0001213e-05
1.0001106e-05
1.0001015e-05
1.000093e-05
1.0000826e-05
1.000072e-05
1.0000625e-05
1.0000531e-05
1.0000418e-05
1.0000348e-05
1.0000428e-05
1.00007e-05
1.0001062e-05
1.0001202e-05
1.0000875e-05
0.00089691984
0.00061765345
0.00014873768
1.4480656e-05
1.0653297e-05
1.0354524e-05
1.0143538e-05
1.0096239e-05
1.0039932e-05
1.0033171e-05
1.0016077e-05
1.0015914e-05
1.0010673e-05
1.000928e-05
1.0007211e-05
1.0005861e-05
1.0004671e-05
1.0003793e-05
1.0003147e-05
1.0002736e-05