/*--------------------------------*- C++ -*----------------------------------*\
  =========                 |
  \\      /  F ield         | OpenFOAM: The Open Source CFD Toolbox
   \\    /   O peration     | Website:  https://openfoam.org
    \\  /    A nd           | Version:  8
     \\/     M anipulation  |
\*---------------------------------------------------------------------------*/
FoamFile
{
    version     2.0;
    format      ascii;
    class       volScalarField;
    location    "0.240005";
    object      p;
}
// * * * * * * * * * * * * * * * * * * * * * * * * * * * * * * * * * * * * * //

dimensions      [1 -1 -2 0 0 0 0];

internalField   nonuniform List<scalar> 
20000
(
74577.198
74589.868
74605.047
74626.228
74657.656
74696.291
74752.818
74812.197
74888.466
74983.469
75083.232
75224.641
75361.888
75563.572
75759.414
76039.679
76324.122
76710.451
77125.705
77660.115
78260.44
79000.611
79851.702
80873.518
82064.116
83455.99
85074.463
86872.154
88728.384
90554.063
92269.403
93819.066
95164.158
96295.196
97219.925
97959.279
98540.612
98993.64
99347.848
99623.325
99829.204
99994.904
100154.28
100291.8
100381.64
100428.69
100455.83
100451.99
100526.7
100108.02
73775.746
73788.597
73804.019
73825.023
73856.906
73894.925
73952.794
74013.674
74090.498
74187.289
74288.286
74433.602
74573.27
74781.497
74982.582
75273.745
75569.667
75974.238
76410.433
76971.841
77604.817
78385.838
79290.938
80384.522
81668.685
83180.563
84941.615
86827.82
88722.383
90577.275
92313.517
93869.945
95212.946
96336.831
97253.006
97984.454
98559.509
99008.572
99360.592
99634.11
99838.178
100005.02
100173.26
100308.05
100390.61
100435.48
100455.65
100454.84
100493.64
100104.03
73010.461
73023.241
73039.136
73060.501
73093.617
73132.188
73191.789
73254.262
73332.659
73432.434
73535.226
73685.353
73828.193
74044.03
74251.787
74555.414
74864.558
75288.339
75746.399
76335.938
77003.46
77829.657
78797.604
79978.566
81375.817
83039.084
84888.152
86817.846
88753.435
90640.984
92391.626
93948.399
95283.087
96394.624
97298.023
98018.257
98584.564
99027.843
99376.334
99646.871
99848.506
100017.72
100194.54
100323.21
100399.56
100440.94
100457.23
100455.78
100454.45
100097.64
72303.848
72316.284
72332.887
72355.128
72390.191
72429.816
72491.277
72555.415
72635.484
72738.634
72843.676
72999.427
73146.437
73371.482
73587.534
73905.361
74228.776
74672.553
75153.311
75773.445
76481.133
77361.317
78407.805
79698.584
81231.32
82982.683
84875.067
86849.97
88835.777
90749.919
92507.75
94057.246
95376.913
96470.621
97356.8
98062.289
98617.137
99052.562
99395.879
99662.06
99860.695
100033.84
100215.79
100336.83
100407.43
100445.64
100460.99
100455.94
100411.55
100087.65
71670.961
71683.459
71700.408
71723.394
71760.391
71801.013
71864.574
71930.756
72012.98
72120.395
72228.576
72391.278
72543.865
72779.812
73005.426
73338.254
73676.365
74140.596
74646.03
75301.682
76059.376
77008.587
78161.054
79563.276
81174.283
82969.717
84910.796
86943.869
88971.375
90903.273
92659.284
94193.799
95491.972
96562.655
97427.491
98115.021
98656
99081.791
99418.523
99679.178
99874.685
100053.35
100236
100350.04
100414.81
100450.32
100465.44
100454
100351.2
100073.88
71112.945
71128.131
71146.049
71170.244
71209.862
71252.193
71319.131
71388.456
71473.529
71586.185
71698.535
71869.6
72028.916
72276.7
72512.123
72860.155
73214.073
73701.626
74236.871
74937.537
75758.668
76805.584
78046.396
79511.689
81161.612
83009.298
85015.313
87100.992
89160.636
91100.4
92845.576
94357.31
95627.615
96670.239
97509.781
98176.283
98701.088
99115.529
99444.25
99698.208
99890.627
100075.54
100254.95
100363.12
100422.26
100454.41
100469.26
100446.91
100286.11
100055.64
70641.246
70657.751
70676.336
70701.941
70744.318
70788.573
70858.575
70931.687
71020.287
71139.311
71256.941
71437.381
71603.522
71862.975
72108.263
72472.724
72845.775
73363.676
73938.191
74701.654
75601.707
76715.441
78005.81
79501.313
81205.138
83123.033
85190.879
87320.927
89401.698
91339.122
93064.336
94545.737
95782.136
96792.008
97602.621
98245.293
98751.842
99153.384
99472.766
99719.015
99908.52
100098.96
100273.23
100376.23
100430.29
100458.05
100471.09
100433.65
100221.47
100033.24
70250.124
70268.457
70287.606
70314.741
70360.226
70406.832
70480.369
70558.184
70651.328
70777.919
70901.385
71091.176
71263.361
71534.635
71792.304
72178.016
72576.696
73136.754
73769.852
74588.759
75535.151
76686.553
78000.151
79551.675
81326.376
83312.754
85436.43
87601.061
89692.143
91616.984
93313.344
94757.154
95953.971
96926.751
97705.113
98321.412
98807.827
99195.06
99503.854
99741.568
99928.381
100123.05
100290.81
100389.09
100439.01
100461.8
100471.88
100411.22
100164.91
100009.45
69936.417
69957.443
69977.698
70006.758
70055.901
70105.602
70183.081
70265.876
70363.168
70496.505
70624.463
70823.239
71003.085
71289.885
71566.513
71984.703
72422.583
73025.233
73695.242
74545.459
75515.722
76688.244
78060.862
79679.993
81525.793
83576.659
85748.438
87937.827
90028.425
91930.71
93589.712
94989.157
96141.2
97072.989
97816.152
98403.84
98868.481
99240.157
99537.235
99765.859
99950.226
100147.52
100307.61
100401.21
100448.04
100466.47
100472.1
100377.54
100121.55
99986.296
69701.853
69724.674
69746.539
69777.376
69829.809
69882.307
69963.027
70049.884
70149.661
70287.608
70418.765
70629.328
70826.506
71141.267
71443.152
71890.662
72353.424
72979.861
73670.984
74536.229
75536.381
76763.001
78198.277
79886.696
81801.388
83911.149
86123.096
88327.242
90406.815
92276.898
93890.503
95239.309
96341.889
97229.24
97934.63
98491.773
98933.241
99288.264
99572.634
99791.916
99974.139
100172.09
100323.71
100412.2
100456.61
100472.75
100471.39
100337.53
100088.19
99966.416
69536.088
69559.75
69583.366
69616.029
69671.755
69726.432
69809.444
69900.591
70005.323
70154.754
70298.115
70528.342
70739.691
71072.99
71388.698
71853.069
72330.299
72967.822
73673.372
74576.631
75626.542
76910.359
78411.357
80167.992
82148.408
84311.548
86555.492
88764.519
90822.885
92651.642
94212.418
95504.936
96553.944
97393.91
98059.36
98584.352
99001.498
99338.931
99609.755
99819.729
100000.28
100196.49
100339.14
100422.41
100464.54
100479.91
100468.19
100296.91
100060.97
99950.144
69427.368
69452.396
69477.992
69512.934
69572.584
69631.063
69719.472
69818.707
69931.616
70092.686
70244.816
70487.745
70704.137
71048.376
71370.709
71843.238
72329.857
72993.79
73736.31
74683.029
75785.784
77129.563
78695.965
80519.657
82562.715
84773.44
87041.048
89245.078
91272.349
93051.14
94552.243
95783.428
96775.318
97565.435
98189.173
98680.724
99072.639
99391.703
99648.302
99849.189
100028.67
100220.67
100353.9
100432
100472.13
100487.06
100463.15
100257.36
100037.28
99936.096
69366.99
69393.347
69420.727
69457.998
69521.871
69584.41
69677.931
69783.914
69901.699
70070.743
70226.579
70476.013
70693.289
71043.963
71374.578
71868.214
72381.294
73078.225
73860.243
74853.581
76011.007
77414.875
79047.082
80936.756
83039.312
85291.723
87574.51
89763.796
91750.49
93471.293
94906.578
96072.065
97003.905
97742.219
98322.875
98780.02
99146.039
99446.118
99687.982
99880.108
100059.02
100244.74
100368.19
100440.84
100479.1
100493.8
100455.83
100219.82
100016.31
99923.824
69338.13
69365.975
69395.225
69434.804
69502.101
69567.747
69663.906
69773.644
69892.274
70065.512
70222.82
70481.111
70707.284
71076.362
71425.849
71945.495
72487.419
73219.688
74043.519
75084.52
76297.433
77762.399
79460.64
81415.443
83574.191
85862.023
88151.198
90315.968
92252.93
93908.271
95272.235
96368.294
97237.719
97922.748
98459.328
98881.405
99221.089
99501.729
99728.535
99912.262
100090.91
100268.71
100382.56
100449.08
100484.92
100499.29
100444.86
100185.19
99997.655
99912.844
69328.429
69357.976
69389.129
69430.695
69501.002
69569.681
69668.521
69782.914
69905.486
70088.294
70252.332
70525.606
70766.451
71157.445
71527.366
72074.261
72646.354
73414.684
74281.038
75370.823
76640.534
78167.523
79932.49
81951.494
84162.886
86479.364
88765.872
90896.445
92774.998
94358.08
95645.95
96669.539
97474.779
98105.521
98597.404
98984.049
99297.187
99558.105
99769.739
99945.381
100123.69
100292.46
100397.47
100457.32
100489.49
100503.13
100427.93
100154.44
99980.786
99903.355
69354.715
69386.12
69419.382
69463.369
69537.903
69610.145
69712.546
69833.569
69962.245
70156.91
70329.921
70619.835
70873.94
71286.198
71676.541
72250.598
72853.339
73658.506
74568.836
75708.722
77036.781
78627.259
80459.742
82541.913
84801.849
87139.57
89413.937
91500.641
93312.484
94817.102
96024.756
96973.45
97713.273
98289.16
98736.063
99087.176
99373.759
99614.844
99811.403
99979.264
100156.31
100315.82
100412.84
100466.3
100493.61
100504.91
100403.43
100128.13
99965.347
99894.754
69417.91
69451.559
69487.471
69534.396
69613.666
69690.237
69798.059
69927.852
70062.695
70269.279
70451.094
70757.688
71024.078
71457.115
71868.01
72469.759
73104.222
73947.236
74903.033
76094.661
77482.924
79138.567
81039.379
83183.335
85486.991
87837.922
90090.346
92123.676
93861.02
95281.652
96405.678
97277.716
97951.441
98472.33
98874.307
99190.041
99450.253
99671.569
99853.327
100013.66
100187.66
100338.47
100428.78
100476.61
100498.21
100505.71
100373.12
100104.51
99951.363
99886.94
69521.943
69557.712
69596.176
69645.633
69729.09
69810.087
69922.748
70060.608
70201.12
70419.733
70608.759
70931.504
71210.916
71665.302
72097.677
72727.832
73395.441
74277.717
75280.942
76526.293
77976.944
79699.697
81669.567
83873.376
86215.04
88570.352
90790.648
92761.213
94416.712
95748.44
96786.072
97580.285
98187.718
98653.84
99011.239
99291.973
99526.16
99727.943
99895.36
100048.36
100217.42
100359.79
100444.67
100488.19
100504.68
100505.94
100339.39
100081.92
99938.678
99880.131
69656.879
69694.906
69736.131
69788.26
69876.346
69962.487
70078.975
70224.909
70370.411
70601.257
70798.16
71137.864
71430.761
71907.28
72362.241
73021.983
73724.398
74647.503
75700.264
77001.534
78516.99
80308.837
82348.213
84609.12
86982.11
89332.157
91509.94
93408.609
94975.517
96214.149
97163.343
97879.18
98420.61
98832.562
99146.019
99392.354
99601.003
99783.659
99937.354
100083.25
100245.86
100379.36
100459.1
100499.79
100514.6
100504.73
100303.23
100059.79
99927.099
99874.254
69817.783
69858.249
69902.523
69957.561
70050.473
70141.66
70261.992
70416.558
70567.176
70811.144
71016.326
71373.725
71680.948
72180.538
72659.517
73349.994
74089.083
75054.874
76159.591
77519.317
79102.249
80965.238
83074.092
85388.387
87784.901
90119.235
92243.866
94061.73
95533.833
96675.889
97535.275
98172.712
98648.842
99007.536
99277.907
99490.651
99674.361
99838.444
99979.165
100118.24
100273.52
100397.46
100471.85
100510.61
100525.51
100499.69
100265.51
100038.21
99916.571
99869.221
70002.729
70045.607
70092.969
70151.078
70249.113
70345.027
70469.295
70633.036
70788.829
71046.792
71260.913
71637.047
71959.67
72483.358
72987.77
73710.354
74488.087
75498.555
76657.816
78078.756
79731.959
81667.941
83845.502
86208.274
88619.36
90926.883
92987.611
94716.142
96087.95
97130.832
97899.786
98459.307
98871.243
99177.905
99406.221
99586.367
99745.864
99892.055
100020.63
100153.22
100301.02
100414.94
100483.26
100519.55
100533.78
100489.49
100227.47
100017.6
99907.117
99864.977
70205.722
70251.45
70302.351
70363.762
70466.425
70568.224
70697.347
70872.747
71034.253
71307.481
71530.88
71926.73
72265.673
72814.353
73345.745
74101.803
74920.412
75977.845
77194.582
78679.798
80406.237
82416.751
84661.383
87066.377
89481.906
91750.823
93736.774
95367.832
96634.676
97576.668
98255.196
98737.694
99086.889
99343.003
99530.391
99679.026
99815.206
99944.281
100061.6
100187.97
100328.61
100432.48
100493.85
100525.82
100538.03
100471.83
100190.79
99998.452
99898.816
99861.571
70432.529
70480.866
70534.969
70599.078
70706.518
70814.788
70948.545
71135.739
71303.225
71592.366
71825.373
72241.47
72597.694
73172.36
73732.463
74523.633
75385.483
76492.407
77769.751
79322.543
81125.049
83211.116
85519.909
87959.488
90368.098
92586.049
94486.458
96012.635
97170.993
98011.282
98599.927
99006.725
99294.992
99502.245
99649.943
99768.121
99882.113
99994.946
100101.88
100222.25
100355.88
100450.31
100504.46
100530.67
100540.14
100444.4
100157.35
99981.22
99891.867
99859.32
70676.85
70728.462
70786.787
70854.929
70968.201
71083.446
71221.974
71421.493
71593.778
71899.946
72142.841
72580.121
72954.744
73556.63
74147.374
74975.369
75883.119
77042.427
78383.871
80007.743
81889.054
84050.937
86419.694
88884.651
91273.824
93427.927
95232.257
96647.229
97694.79
98433.096
98932.637
99265.51
99494.968
99655.106
99764.563
99853.178
99946.325
100043.91
100141.31
100255.72
100382.04
100468.3
100516.08
100536.23
100540.99
100406.54
100128.25
99966.047
99886.156
99857.642
70942.249
70997.071
71059.603
71131.614
71250.188
71373.028
71515.862
71728.108
71905
72228.564
72482.456
72941.871
73336.366
73966.73
74590.217
75456.99
76413.548
77628.431
79037.678
80736.166
82698.581
84935.51
87358.388
89837.933
92194.075
94271.218
95969.731
97268.905
98204.472
98840.56
99251.862
99513.186
99686.218
99800.944
99874.012
99933.92
100007.54
100091.09
100179.7
100288.08
100406.42
100485.45
100528.47
100544.54
100541.18
100363.34
100101.1
99952.683
99881.557
99856.939
71226.111
71284.074
71350.722
71426.476
71550.171
71681.023
71828.033
72053.478
72236.413
72578.107
72843.676
73326.438
73742.369
74402.522
75060.987
75968.726
76977.414
78251.479
79732.454
81509.083
83554.413
85864.397
88333.843
90815.543
93124.083
95111.214
96695.65
97876.334
98698.975
99232.098
99556.255
99749.016
99868.071
99939.112
99978.005
100010.54
100065.49
100136.41
100216.94
100319.21
100428.96
100500.79
100540.03
100555.27
100537.29
100317.69
100075.41
99940.828
99877.731
99856.585
71523.454
71585.14
71656.728
71737.102
71866.418
72006.423
72158.188
72397.703
72587.218
72948.358
73226.365
73733.7
74172.711
74864.034
75559.983
76511.324
77575.804
78912.893
80469.546
82327.573
84456.79
86836.269
89342.796
91812.599
94058.26
95943.149
97407.695
98468.491
99176.124
99605.379
99844.764
99972.252
100039.63
100069.31
100075.96
100083.74
100120
100179.81
100252.92
100349.28
100450.2
100514.41
100549.38
100563.18
100526.75
100271.81
100051.38
99930.567
99874.581
99856.395
71840.156
71905.418
71981.757
72066.363
72200.69
72349.965
72506.386
72760.681
72957.368
73338.993
73630.753
74163.599
74627.533
75351.573
76087.942
77085.919
78210.217
79614.394
81250.666
83193.055
85406.161
87849.838
90381.952
92824.269
94991.533
96763.653
98105.088
99043.387
99632.004
99958.375
100116.53
100182.41
100200.89
100191.81
100167.06
100154.12
100171.34
100221.21
100287.58
100378.51
100470.55
100526.75
100556.06
100566.99
100507
100227.96
100029.54
99922.005
99872.361
99856.249
72169.694
72239.196
72321.204
72410.833
72550.244
72709.985
72871.726
73141.954
73346.578
73750.713
74056.917
74616.209
75107.115
75865.913
76646.107
77694.191
78882.439
80357.776
82077.41
84106.569
86402.186
88902.685
91446.733
93844.757
95918.764
97570.376
98786.614
99595.712
100063.27
100289.33
100371.63
100380.3
100353.2
100306.28
100251.17
100220.53
100220.33
100260.47
100320.79
100406.64
100490.12
100538.8
100561.51
100568.57
100475.96
100188.71
100010.22
99914.87
99871.343
99857.038
72514.191
72588.832
72677.829
72773.66
72917.711
73088.58
73255.74
73542.77
73756.111
74182.401
74504.695
75091.762
75612.404
76408.436
77236.195
78338.029
79594.452
81145.058
82951.624
85069.341
87444.507
89992.252
92532.462
94868.715
96836.212
98362.513
99447.828
100120.76
100467.03
100598.65
100613.1
100566.16
100495.66
100412.82
100329.25
100281.14
100267.96
100297.51
100352.42
100432.85
100508.66
100551.4
100568.22
100569.04
100433.2
100155.94
99993.413
99908.828
99870.938
99858.273
72877.527
72956.101
73050.207
73153.244
73302.112
73485.006
73657.711
73962.508
74185.139
74634.358
74974.819
75591.499
76145.028
76980.98
77860.205
79019.483
80348.277
81978.168
83874.96
86081.94
88531.76
91114.564
93633.381
95890.498
97740.956
99138.484
100081.54
100613.86
100842.69
100891.3
100839.51
100739.63
100628.33
100511.45
100401.25
100336.54
100313.9
100332.36
100382.39
100456.9
100525.39
100563.58
100578.13
100567.35
100384.92
100126.44
99978.634
99903.495
99870.843
99859.934
73257.826
73341.008
73440.329
73550.537
73703.895
73899.319
74077.487
74401.089
74633.982
75107.739
75468.993
76117.346
76707.009
77585.577
78520.145
79740.676
81146.046
82859.273
84849.206
87144.993
89662.26
92265.443
94743.92
96905.695
98631.674
99892.258
100682.08
101072.38
101195.79
101166.66
101050.35
100900.85
100751.29
100602.17
100467.17
100387.49
100357.6
100365.31
100410.74
100479.21
100540.18
100574.42
100588.23
100559.69
100334.9
100098.95
99965.947
99899.37
99871.194
99862.233
73652.423
73740.941
73845.825
73963.758
74121.874
74330.963
74515.137
74859.396
75104.35
75604.774
75989.337
76671.433
77300.306
78224.186
79218.087
80503.809
81989.941
83790.462
85875.795
88258.163
90832.966
93439.298
95857.983
97910.483
99506.484
100615.04
101244.18
101498.86
101529.63
101422.9
101245.67
101050.03
100864.71
100685.06
100527.38
100434.47
100398.19
100396.9
100437.53
100500.55
100553.39
100582.32
100593.33
100544.22
100285.74
100073.5
99955.483
99897.396
99872.759
99865.183
74061.201
74155.749
74266.391
74393.36
74557.179
74782.029
74973.344
75340.367
75599.251
76128.016
76537.721
77255.437
77926.7
78898.718
79956.14
81311.158
82882.307
84774.024
86956.185
89420.832
92040.348
94630.488
96970.38
98902.606
100359.1
101299.76
101765.11
101901.04
101841.62
101660.03
101425.85
101187.52
100968.82
100760.38
100582.41
100477.92
100434.95
100427.5
100462.73
100521.21
100565.74
100588.17
100595.51
100518.6
100240.13
100050.51
99946.716
99896.585
99875.184
99868.719
74486.678
74588.355
74705.433
74842.829
75013.199
75256.261
75455.607
75846.749
76120.689
76678.762
77115.644
77870.641
78587.952
79611.314
80736.588
82165.142
83825.55
85812.089
88091.147
90631.056
93279.342
95832.45
98076.094
99879.75
101179.44
101940.45
102249.33
102280.02
102130.53
101878.35
101591.33
101313.69
101063.87
100828.44
100632.56
100517.88
100468.43
100456.83
100486.15
100540.7
100578.21
100594.3
100596.19
100480.96
100200.64
100030.34
99939.175
99896.383
99878.297
99872.817
74935.064
75044.277
75167.644
75316.485
75493.733
75755.547
75963.117
76379.191
76669.019
77257.458
77724.454
78518.662
79286.161
80364.321
81561.848
83068.344
84822.344
86906.899
89281.19
91886.305
94544.542
97039.301
99171.466
100836.78
101958.2
102533.63
102705.48
102632.87
102396.58
102078.44
101742.69
101428.99
101150.16
100889.56
100677.96
100554.36
100499.31
100484.74
100507.7
100557.98
100590.27
100603.27
100595.25
100432.85
100167.52
100013.37
99932.98
99896.553
99882.046
99877.466
75406.339
75523.577
75653.292
75814.612
75998.435
76279.631
76495.283
76937.298
77244.52
77865.229
78365.712
79201.757
80023.667
81160.243
82434.469
84023.55
85875.455
88060.288
90525.659
93182.377
95829.335
98245.092
100253.34
101762.79
102688.42
103083.74
103134.59
102958.41
102640.25
102260.94
101880.52
101533.87
101228.04
100944.02
100718.72
100587.54
100528.01
100511.21
100527.62
100572.82
100600.9
100613.29
100588.23
100380.93
100137.7
99999.845
99929.809
99898.468
99886.526
99882.589
75897.459
76023.805
76160.332
76334.985
76524.796
76827.073
77051.847
77521.836
77848.91
78504.463
79041.74
79922.344
80802.861
82001.594
83357.173
85033.833
86987.879
89273.903
91823.232
94514.392
97127.363
99444.999
101318.47
102645.49
103365.22
103599.96
103533.62
103257
102862.33
102426.63
102005.51
101628.89
101297.91
100992.11
100755.07
100617.67
100554.73
100536.24
100546.59
100585.87
100608.85
100618.51
100573.59
100329.05
100110.65
99989.018
99928.387
99901.351
99891.378
99887.968
76407.733
76544.364
76688.037
76877.179
77073.467
77399.396
77635.236
78135.442
78484.985
79177.842
79755.184
80682.569
81626.072
82891.175
84333.048
86102.598
88162.392
90548.484
93170.79
95875.988
98431.697
100634.36
102355.72
103476.47
103990.97
104085.29
103900.75
103529.3
103063.66
102576.3
102118.34
101714.57
101360.14
101034.17
100787.3
100644.97
100579.44
100559.66
100564.97
100597.77
100614.85
100620.75
100549.69
100280.36
100086.57
99980.075
99927.863
99904.721
99896.356
99893.425
76943.237
77090.783
77241.563
77446.299
77649.845
78000.83
78248.64
78780.595
79154.876
79887.225
80508.224
81484.598
82495.87
83832.163
85365.712
87233.547
89401.757
91883.932
94564.368
97260.45
99736.345
101809.36
103351.83
104249.07
104574.76
104536.88
104236.44
103776.31
103245.24
102710.86
102219.74
101791.42
101415.08
101070.57
100815.81
100669.65
100602.02
100581.05
100582.37
100609.41
100621.03
100621.42
100514.43
100237.47
100065.69
99972.54
99927.765
99908.34
99901.384
99898.897
77503.818
77663.329
77821.812
78043.587
78254.9
78632.745
78893.594
79458.962
79860.53
80633.453
81302.512
82331.085
83415.429
84828.429
86459.322
88430.515
90708.012
93278.52
95998.128
98660.197
101034.99
102961.95
104294.48
104961.56
105123.6
104951.6
104541.48
103999.08
103408.08
102831.17
102310.41
101859.85
101462.84
101101.72
100840.97
100691.96
100622.39
100599.91
100598.2
100620.61
100630.25
100619.25
100466.25
100202.39
100048
99966.428
99928.173
99912.205
99906.44
99904.404
78090.462
78262.866
78429.427
78669.662
78889.437
79296.358
79571.415
80171.848
80603.397
81418.261
82140.551
83225.531
84388.742
85884.415
87618.375
89697.34
92082.454
94729.361
97465.483
100068.24
102322.36
104078.12
105175.46
105622
105635.15
105329.89
104817.08
104198.88
103553.31
102938.21
102391.07
101920.23
101503.56
101128.11
100863.08
100712.04
100640.75
100616.35
100612.53
100630.7
100639.37
100610.57
100413.19
100170.95
100033.01
99962.019
99929.771
99916.588
99911.73
99910.044
78702.792
78890.113
79066.277
79326.997
79555.205
79992.657
80282.758
80920.135
81385.033
82245.151
83026.088
84172.3
85420.452
87005.127
88847.611
91037.28
93524.825
96231.491
98958.402
101477.06
103592.32
105141.26
105988.15
106241.97
106104.78
105672.63
105064.53
104376.94
103682.02
103032.86
102462.41
101973.1
101537.78
101150.32
100882.29
100729.83
100657.13
100631.05
100626.01
100638.39
100643.9
100594.81
100359.82
100142.49
100020.71
99959.494
99932.368
99921.524
99917.42
99915.894
79346.826
79549.849
79735.336
80016.718
80251.821
80721.252
81028.577
81706.44
82209.51
83117.975
83963.869
85176.373
86515.737
88195.906
90151.797
92452.876
95033.447
97778.713
100468.95
102879.46
104831.79
106140.36
106738.67
106820.37
106532.38
105981.23
105285.35
104534.66
103795.38
103116.06
102525.09
102019.25
101567.23
101168.98
100898.71
100745.31
100671.63
100644.47
100638.78
100644.91
100645.66
100571.12
100309.69
100117.38
100010.91
99958.359
99935.479
99926.772
99923.445
99922.147
80012.004
80232.599
80426.142
80731.447
80977.603
81484.713
81813.704
82535.983
83081.359
84042.169
84958.858
86243.236
87680.353
89462.451
91535.348
93945.257
96604.409
99362.921
101988.45
104268
106023.11
107066.44
107437.85
107352.99
106918.85
106257.22
105481.08
104673.39
103894.53
103188.68
102579.72
102059.59
101594.18
101184.66
100912.44
100758.59
100684.48
100656.69
100650.31
100653.53
100646.05
100537.1
100266.11
100096.03
100003.09
99957.947
99938.528
99931.496
99928.961
99929.611
80708.121
80947.178
81152.811
81487.723
81745.499
82292.965
82645.62
83414.211
84005.612
85021.948
86016.537
87379.144
88920.478
90810.451
93001.973
95514.009
98232.157
100975.41
103508.33
105633.19
107149.71
107919.16
108091
107837.46
107265.81
106502.44
105653.42
104794.59
103980.65
103251.59
102626.97
102094.67
101618.49
101197.26
100923.63
100770.03
100695.93
100667.74
100661.01
100663.35
100642.09
100491.04
100231.49
100078.26
99996.612
99957.888
99941.587
99935.825
99933.723
99937.653
81444.586
81705.17
81923.724
82288.248
82557.202
83147.688
83526.634
84343.851
84987.387
86063.478
87143.372
88591.014
90242.727
92245.351
94554.097
97156.406
99908.882
102606.45
105019.18
106956.51
108200.24
108707.56
108694.54
108274.56
107575.03
106718.73
105804.07
104899.67
104054.8
103305.59
102667.64
102124.8
101632.9
101204.6
100932.49
100780.21
100706.62
100677.83
100670.16
100669.75
100631.45
100440.94
100201.21
100063.17
99991.257
99958.334
99944.896
99940.309
99938.577
99945.512
82218.009
82502.739
82734.234
83133.272
83414.31
84051.715
84460.736
85329.627
86033.565
87174.085
88346.73
89886.142
91653.562
93771.772
96192.391
98867.607
101625.34
104246.21
106511.75
108217.67
109167.56
109443.96
109243.31
108666
107848.66
106908.18
105934.78
104989.99
104117.94
103351.46
102702.69
102150.86
101639.26
101208.4
100939.5
100789.63
100717.16
100687.61
100677.28
100672.58
100614.66
100390.58
100173.93
100050.99
99988.146
99959.841
99948.707
99945.014
99943.607
99953.168
83035.126
83346.275
83590.344
84028.316
84322.541
85010.7
85454.276
86378.689
87151.212
88361.811
89634.436
91271.973
93159.12
95393.08
97915.229
100640.03
103370.63
105883.09
107969.41
109400.5
110058.24
110125.38
109737.81
109013.82
108088.95
107072.81
106047.19
105066.67
104170.84
103389.88
102732.84
102173.3
101641.53
101210.16
100945.19
100798.47
100727.32
100696.77
100683.32
100673.48
100591.84
100342.41
100149.63
100041.36
99986.792
99962.356
99953.076
99949.964
99948.827
99960.634
83898.451
84239.68
84496.75
84978.847
85287.899
86031.087
86515.001
87499.508
88348.85
89635.344
91014.506
92755.613
94764.697
97110.98
99718.615
102464.29
105133.52
107505.63
109370.01
110493.55
110885.52
110746.59
110179.79
109320.53
108298.37
107214.7
106142.78
105130.7
104214.35
103421.81
102758.62
102188.46
101641.39
101210.86
100949.91
100806.57
100736.48
100704.89
100689.64
100673.17
100560.94
100299.52
100128.64
100033.6
99986.352
99965.561
99957.886
99955.265
99954.301
99967.808
84812.609
85188.833
85459.448
85992.106
86318.146
87120.574
87651.942
88701.722
89635.98
91003.193
92494.313
94343.607
96474.482
98924.982
101595.62
104328.68
106901.12
109099.84
110690.89
111497.56
111651.67
111305.76
110571.5
109588.78
108479.32
107335.7
106222.84
105183.21
104249.9
103448.69
102780.72
102196.48
101638.15
101210.66
100953.91
100813.83
100744.47
100711.98
100695.76
100667.85
100519.68
100264.77
100111.14
100027.23
99986.32
99968.996
99962.895
99960.836
99960.224
99974.457
85787.976
86203.958
86487.614
87077.328
87422.407
88287.84
88874.768
89994.725
91021.464
92473.273
94080.664
96041.685
98291.206
100831.98
103536.82
106220.41
108659.47
110641.71
111917.41
112423.88
112351.93
111804.62
110915.82
109821.47
108634.26
107437.62
106288.86
105226.13
104279.69
103472.22
102799.44
102200.13
101632.36
101209.51
100957.55
100820.46
100751.52
100717.52
100698.97
100656.59
100473.25
100235.37
100096.38
100022.2
99986.934
99972.417
99967.505
99965.954
99967.626
99980.356
86831.473
87293.248
87589.099
88243.23
88610.979
89543.202
90194.762
91385.216
92512.096
94052.911
95780.32
97855.325
100215.83
102825.78
105529.71
108124.69
110392.9
112104.79
113042.5
113281.86
112981.68
112245.58
111215.84
110021.47
108765.42
107522.23
106342.94
105262.06
104305.45
103492.79
102811.7
102201.29
101624.47
101207.75
100961.19
100826.63
100757.71
100721.66
100700.33
100639.63
100426.23
100208.85
100083.72
100018.25
99988.074
99975.828
99971.764
99970.502
99975.953
99985.445
87950.6
88466.017
88772.786
89499.113
89894.25
90895.639
91619.681
92880.921
94114.6
95750.033
97600.742
99789.002
102246.54
104896.73
107559.65
110024.76
112077.96
113468.88
114075.09
114066.98
113542.46
112631.96
111474.98
110191.69
108875.04
107591.68
106387.83
105292.61
104325.55
103507.19
102818.78
102199.92
101614.98
101205.27
100964.21
100832.4
100763.32
100725.32
100700.76
100617.49
100380.52
100184.76
100073.26
100015.92
99989.946
99979.65
99976.327
99975.274
99983.437
99990.029
89156.082
89733.728
90048.225
90853.281
91281.305
92351.919
93155.142
94489.542
95837.285
97574.207
99549.891
101845.54
104377.71
107031.16
109609.28
111901.57
113684.57
114720.08
115030.29
114771.99
114036.81
112967.32
111696.63
110334.85
108965.42
107648.62
106425.5
105314.96
104338.42
103515.9
102822.74
102195.73
101604.3
101201.97
100966.19
100837.53
100768.22
100729.31
100699.82
100589.44
100338.03
100163.41
100064.89
100014.99
99992.618
99984.187
99981.527
99980.897
99989.631
99993.908
90455.123
91104.686
91422.095
92310.936
92779.232
93918.222
94808.104
96221.252
97691.883
99537.203
101635.19
104023.95
106598.85
109211.77
111658.64
113731.67
115186.38
115865.12
115903.29
115398.25
114468.5
113255.72
111884.25
110453.77
109039.39
107695.82
106454.42
105328.89
104345.74
103520.92
102824.88
102189.08
101592.8
101198.13
100967.3
100841.04
100771.71
100731.82
100695.19
100553.39
100301.41
100145.18
100058.18
100014.82
99995.789
99988.958
99986.915
99988.097
99994.62
99997.329
91848.877
92582.559
92899.566
93875.661
94394.718
95602.896
96592.709
98092.854
99693.815
101650.75
103860.5
106317.82
108893.98
111417.62
113684.3
115480.92
116564.56
116919.95
116686.28
115948.5
114841.67
113501.18
112041.17
110551.41
109100.1
107734.58
106473.42
105336.9
104349.88
103523.81
102825.69
102180.34
101580.85
101194
100967.73
100842.9
100773.55
100732.95
100685.31
100509.8
100271.7
100130.04
100052.95
100015.36
99999.406
99993.812
99992.154
99995.266
99999.526
100000.87
93356.138
94179.045
94491.201
95554.93
96139.352
97422.329
98532.291
100126.26
101858.84
103922.6
106223.48
108713.61
111241.93
113624.5
115660.41
117116.77
117822.78
117881.26
117379.41
116427.03
115161.08
113707.89
112170.89
110631.1
109150.15
107762.16
106484.7
105341.26
104351.72
103525.15
102825.31
102169.48
101569.15
101189.6
100967.39
100843.74
100774.39
100733.34
100669.65
100464.72
100245.44
100117.42
100049.2
100016.87
100003.45
99998.873
99997.522
100001.68
100004.27
100004.66
94976.184
95895.112
96213.111
97369.405
98040.466
99408.746
100648.66
102339.82
104197.35
106353.73
108714.19
111191.21
113617.05
115803.74
117548.08
118616.84
118976.56
118740.67
117985.76
116838.7
115431.54
113879.92
112277.02
110696.23
109189.35
107779.98
106491.38
105343.01
104351.94
103525.35
102823.36
102156.32
101558.45
101184.95
100966.39
100844.13
100774.74
100733.1
100648.62
100420.46
100221.87
100107.4
100047.37
100019.27
100007.88
100004.09
100002.96
100006.94
100008.83
100009.03
96741.886
97765.043
98109.899
99360.414
100134.43
101590.47
102960.76
104744.26
106712.14
108937.11
111314.37
113723.82