/*--------------------------------*- C++ -*----------------------------------*\
  =========                 |
  \\      /  F ield         | OpenFOAM: The Open Source CFD Toolbox
   \\    /   O peration     | Website:  https://openfoam.org
    \\  /    A nd           | Version:  8
     \\/     M anipulation  |
\*---------------------------------------------------------------------------*/
FoamFile
{
    version     2.0;
    format      ascii;
    class       surfaceScalarField;
    location    "0.240005";
    object      phi;
}
// * * * * * * * * * * * * * * * * * * * * * * * * * * * * * * * * * * * * * //

dimensions      [1 0 -1 0 0 0 0];

internalField   nonuniform List<scalar> 
39600
(
0.00017442616
-0.0077607335
0.007633943
0.00020641683
-0.011090649
0.011060665
0.00024491085
-0.014766798
0.014730895
0.00028811484
-0.019349061
0.019309377
0.00033751593
-0.025228081
0.025182703
0.00031547674
-0.032809678
0.032836559
4.021069e-05
-0.039832255
0.040112965
-0.00031251679
-0.048219585
0.048578782
-0.00072947084
-0.057316807
0.057741814
-0.0012327609
-0.069014777
0.069527784
-0.0018293029
-0.082331354
0.082939367
-0.0025488755
-0.098897837
0.099631155
-0.0034004011
-0.11817919
0.1190475
-0.0044245641
-0.1417652
0.14280948
-0.005636639
-0.16956377
0.17080073
-0.0070881552
-0.2032475
0.20472862
-0.0088052417
-0.24320952
0.24496306
-0.010851578
-0.29137498
0.29346369
-0.013268668
-0.3487298
0.35119985
-0.01613982
-0.41762331
0.42055932
-0.019532827
-0.49983259
0.50330502
-0.023552106
-0.59835816
0.60247385
-0.028300457
-0.71603206
0.72089637
-0.033913797
-0.85682273
0.86257516
-0.040552298
-1.0249356
1.0317403
-0.048474232
-1.2256218
1.2337404
-0.057873946
-1.4646546
1.4742812
-0.069138714
-1.7494105
1.7609291
-0.082812131
-2.0881738
2.1021369
-0.099329044
-2.4909862
2.5078403
-0.11916187
-2.9706528
2.9908628
-0.14282176
-3.5427827
3.5668351
-0.17080012
-4.2264022
4.2548086
-0.203633
-5.0444618
5.0777701
-0.24191391
-6.0247063
6.0635176
-0.28628445
-7.2002226
7.2451739
-0.33736531
-8.610438
8.6621668
-0.39571809
-10.302939
10.362029
-0.46169371
-12.334216
12.401043
-0.53522109
-14.77264
14.847175
-0.61554759
-17.700223
17.781747
-0.70074192
-21.215167
21.301839
-0.78716191
-25.434733
25.523251
-0.86974018
-30.498717
30.583437
-0.93527621
-36.581304
36.648337
-0.97193665
-43.886745
43.923947
-0.94628815
-52.656676
52.63092
-0.83322801
-63.193782
63.079036
-0.53975833
-75.77793
75.480094
-91.064686
90.538607
6.8558899e-05
-0.0077922655
0.00010519054
-0.011125892
0.0001431705
-0.014802374
0.00018012784
-0.019383149
0.00022083628
-0.025264129
0.00016292717
-0.032746242
-0.00010951873
-0.039553549
-0.00044809469
-0.04787357
-0.00084583345
-0.056910416
-0.0013274358
-0.068522848
-0.0018961818
-0.08174994
-0.0025819372
-0.09819694
-0.003392427
-0.11735029
-0.0043671951
-0.14076833
-0.0055189683
-0.16838536
-0.0068984501
-0.20183579
-0.0085268082
-0.24154253
-0.010468608
-0.28938568
-0.012760623
-0.34638011
-0.015485894
-0.41482842
-0.018704867
-0.49652884
-0.022522922
-0.59443811
-0.027032209
-0.71140022
-0.032365847
-0.85134429
-0.038680447
-1.018449
-0.046242647
-1.2178598
-0.055245605
-1.4554242
-0.066171944
-1.7382274
-0.079532474
-2.0745262
-0.095720694
-2.4744612
-0.11520095
-2.9507981
-0.13847154
-3.5191211
-0.16600654
-4.1984411
-0.19832504
-5.0116715
-0.23599684
-5.986507
-0.27965292
-7.1559878
-0.32989179
-8.5595515
-0.38727446
-10.244821
-0.45215805
-12.26848
-0.52451348
-14.699284
-0.60361948
-17.61992
-0.68764872
-21.129622
-0.77334904
-25.346827
-0.85494642
-30.415109
-0.92211127
-36.512746
-0.95948633
-43.84883
-0.93927362
-52.676953
-0.83198647
-63.302785
-0.55697836
-76.057857
-91.567702
5.7986311e-05
-0.0078192588
9.2409668e-05
-0.011157073
0.00012877392
-0.014835056
0.0001634799
-0.01941336
0.00020340717
-0.025298849
0.00013079367
-0.032667745
-0.00013388601
-0.03928218
-0.00045963152
-0.047540045
-0.00084275548
-0.056517776
-0.0013066784
-0.068047535
-0.0018545908
-0.081188459
-0.0025161994
-0.097519211
-0.0032969276
-0.11655004
-0.004236756
-0.13980522
-0.0053450543
-0.16724879
-0.0066728878
-0.20047416
-0.0082389422
-0.23993534
-0.010108204
-0.28746705
-0.012315004
-0.34411286
-0.01494044
-0.41213005
-0.018039598
-0.49334153
-0.021713051
-0.59065932
-0.026049748
-0.70693851
-0.031172266
-0.84607333
-0.037275354
-1.0121754
-0.044547262
-1.2103901
-0.053313691
-1.4464328
-0.064036782
-1.7272525
-0.077163542
-2.0611138
-0.09308675
-2.4582063
-0.11227356
-2.9312431
-0.13520046
-3.495807
-0.16232182
-4.1708975
-0.19414293
-4.9793826
-0.23121716
-5.9489083
-0.27415562
-7.1124722
-0.32355993
-8.5094991
-0.37999034
-10.187654
-0.4438178
-12.203799
-0.51504698
-14.627059
-0.59300337
-17.540761
-0.67594137
-21.045103
-0.76099963
-25.259513
-0.8420885
-30.332047
-0.91020768
-36.443391
-0.94939178
-43.809125
-0.93476382
-52.691304
-0.83286523
-63.406569
-0.57659862
-76.321625
-92.047498
4.9118097e-05
-0.0078456625
8.2780766e-05
-0.0111876
0.00011796766
-0.014866562
0.00015055957
-0.019441522
0.00018958274
-0.025332342
0.00010325734
-0.032574805
-0.0001532171
-0.039018795
-0.00046638074
-0.047218374
-0.00083468578
-0.056139743
-0.0012813056
-0.067589193
-0.0018076474
-0.080648105
-0.0024438388
-0.0968663
-0.0031930888
-0.1157806
-0.0040953533
-0.13887897
-0.005157934
-0.16615719
-0.006432198
-0.19916531
-0.0079353353
-0.23839008
-0.0097310557
-0.28562025
-0.011852945
-0.34192872
-0.014377024
-0.4095309
-0.017350573
-0.49027823
-0.020874608
-0.58702902
-0.025031116
-0.70265467
-0.029957697
-0.84100236
-0.03580716
-1.0061568
-0.042852608
-1.2031483
-0.051443828
-1.4376194
-0.061981587
-1.7164629
-0.074885981
-2.0479255
-0.090575254
-2.442189
-0.10950049
-2.9119548
-0.13211367
-3.4728106
-0.1588546
-4.1437385
-0.19021276
-4.9475613
-0.22673394
-5.9118673
-0.26901057
-7.0696219
-0.31764538
-8.4602184
-0.37319423
-10.131371
-0.43605245
-12.140088
-0.50625938
-14.555864
-0.58318519
-17.462628
-0.66518644
-20.96144
-0.74965903
-25.172884
-0.83059301
-30.249198
-0.8995077
-36.373272
-0.9412999
-43.766778
-0.93185211
-52.70036
-0.83926984
-63.500919
-0.59875467
-76.571394
-92.504157
4.310869e-05
-0.007869769
7.7027773e-05
-0.011215332
0.00011168904
-0.014895577
0.00014320955
-0.019467122
0.00017992949
-0.025362639
7.8516179e-05
-0.032466501
-0.00016863601
-0.038764272
-0.00046950194
-0.046909038
-0.00082249743
-0.055776749
-0.0012509568
-0.067148906
-0.0017548209
-0.080130116
-0.0023644719
-0.096239906
-0.0030807109
-0.11504416
-0.003944286
-0.13799138
-0.004960784
-0.16511163
-0.0061820109
-0.19790922
-0.0076222145
-0.23690753
-0.0093438118
-0.28384765
-0.011376429
-0.33983422
-0.013795586
-0.40703818
-0.016634778
-0.48735175
-0.020012123
-0.58354772
-0.023977097
-0.69856948
-0.028688815
-0.83615001
-0.034340316
-1.000341
-0.041222022
-1.1960757
-0.049646223
-1.4289784
-0.059995782
-1.7058682
-0.072704674
-2.0349397
-0.088189966
-2.4263846
-0.10688142
-2.8929098
-0.12921189
-3.4501044
-0.15560437
-4.116935
-0.18653862
-4.9161708
-0.22254303
-5.8753494
-0.26420897
-7.027387
-0.31213196
-8.4116527
-0.3668793
-10.075891
-0.4288592
-12.077258
-0.4981554
-14.485588
-0.57418233
-17.385385
-0.65550163
-20.878368
-0.73952422
-25.086865
-0.82043844
-30.166369
-0.89034778
-36.302133
-0.9350724
-43.721528
-0.9310236
-52.704081
-0.84789532
-63.586788
-0.62387405
-76.806598
-92.93752
3.354551e-05
-0.0078931664
6.3805689e-05
-0.011241155
9.606691e-05
-0.014923194
0.00012635238
-0.01949232
0.00016023678
-0.025390369
4.7235652e-05
-0.032346978
-0.00018884474
-0.038520914
-0.00047622338
-0.046613221
-0.00081314095
-0.055429976
-0.0012226635
-0.066727761
-0.0017030668
-0.079635877
-0.0022850534
-0.095641516
-0.0029679516
-0.11434143
-0.0037935308
-0.1371422
-0.0047655225
-0.16411104
-0.0059353976
-0.19670521
-0.0073129133
-0.23548842
-0.0089595809
-0.2821512
-0.010903616
-0.33782988
-0.01320619
-0.40466189
-0.015924002
-0.48454773
-0.019116172
-0.58025573
-0.022898013
-0.69466925
-0.027437884
-0.83147124
-0.032941524
-0.99467329
-0.039663303
-1.1891644
-0.047914836
-1.4205122
-0.058099835
-1.6954404
-0.070644414
-2.0221221
-0.085954785
-2.4107607
-0.10444223
-2.8740754
-0.12651876
-3.4276579
-0.15259462
-4.0904541
-0.18313895
-4.8851765
-0.21867164
-5.8393096
-0.2597837
-6.9857112
-0.30706098
-8.3637367
-0.36107979
-10.021143
-0.42227362
-12.015217
-0.49075961
-14.416132
-0.56602218
-17.308896
-0.64688198
-20.795763
-0.73058079
-25.001276
-0.81179673
-30.083266
-0.88287077
-36.229683
-0.93065971
-43.673284
-0.93244734
-52.702453
-0.85918075
-63.663688
-0.6515393
-77.026046
-93.346988
2.5119404e-05
-0.0079142323
5.298129e-05
-0.011264584
8.3528479e-05
-0.014949121
0.00011354478
-0.019517312
0.00014234893
-0.025413114
1.9969159e-05
-0.032218237
-0.00020548617
-0.03828837
-0.00048000028
-0.046330504
-0.00080088364
-0.055099495
-0.0011911257
-0.066326241
-0.0016474763
-0.079166038
-0.0022024268
-0.095070764
-0.0028539051
-0.11367093
-0.0036441996
-0.1363292
-0.0045725814
-0.16315482
-0.0056892411
-0.19555527
-0.0070054399
-0.23413192
-0.0085732317
-0.28053376
-0.010430864
-0.33591426
-0.012616427
-0.40240935
-0.015181266
-0.48190258
-0.01822122
-0.57712071
-0.021843616
-0.69093461
-0.026249692
-0.82693067
-0.031601941
-0.98916426
-0.038157803
-1.1824275
-0.046257883
-1.4122068
-0.056304144
-1.6851611
-0.068712517
-2.0094511
-0.083877382
-2.395294
-0.1021884
-2.8554291
-0.12403987
-3.4054464
-0.14983134
-4.0642668
-0.18002315
-4.8545438
-0.21513144
-5.8037028
-0.25573352
-6.9445523
-0.30242451
-8.3164125
-0.35579975
-9.9670422
-0.41630271
-11.953871
-0.48409736
-14.347375
-0.55871887
-17.233033
-0.63916618
-20.713587
-0.72282695
-24.91584
-0.80468888
-29.999558
-0.87718351
-36.155653
-0.92808936
-43.62186
-0.93616151
-52.694636
-0.87305502
-63.731303
-0.68146339
-77.229193
-93.732433
1.6779526e-05
-0.007932905
4.1977089e-05
-0.011285737
7.1333646e-05
-0.014974263
0.00010333185
-0.019544521
0.00012668334
-0.025430741
-1.2789809e-06
-0.032084258
-0.00021481438
-0.038068074
-0.00047558761
-0.046061955
-0.0007799257
-0.054786008
-0.0011516033
-0.06594378
-0.0015863853
-0.07871843
-0.0021178451
-0.094524169
-0.0027408578
-0.11302966
-0.0034976538
-0.1355505
-0.0043797647
-0.16224589
-0.0054379862
-0.19446413
-0.0066923672
-0.2328386
-0.0081853264
-0.27899686
-0.009923779
-0.33412193
-0.011988519
-0.40027934
-0.01443817
-0.47937443
-0.017349625
-0.57411389
-0.020864361
-0.68730628
-0.025113637
-0.82254907
-0.030304894
-0.98381798
-0.036714332
-1.17584
-0.044686304
-1.4040326
-0.054620193
-1.6749983
-0.066921761
-1.996892
-0.081967945
-2.3799529
-0.10013093
-2.8369385
-0.12178661
-3.3834379
-0.1473241
-4.038341
-0.17719703
-4.8242377
-0.21192156
-5.7684875
-0.25207239
-6.9038515
-0.29825126
-8.2696062
-0.35105516
-9.9135179
-0.41096188
-11.893128
-0.47818045
-14.279201
-0.55229625
-17.157653
-0.6324403
-20.631721
-0.71625978
-24.830361
-0.79909961
-29.914979
-0.87337753
-36.079739
-0.92745543
-43.567017
-0.9421872
-52.680348
-0.88973421
-63.789148
-0.71395436
-77.415227
-94.092871
8.3663837e-06
-0.0079503231
3.1779969e-05
-0.011305749
6.1395901e-05
-0.01500023
9.8069984e-05
-0.01957707
0.00011632853
-0.025443788
-1.3094889e-05
-0.031949224
-0.00021434934
-0.03786056
-0.00046113988
-0.045807663
-0.00075015109
-0.054488463
-0.0011065232
-0.065577431
-0.0015247094
-0.078288019
-0.002037423
-0.09399673
-0.0026284323
-0.11241972
-0.0033456464
-0.13481159
-0.0041798311
-0.16138611
-0.0051836293
-0.19343105
-0.0063578593
-0.23162911
-0.0077574132
-0.27755433
-0.0094037457
-0.33242418
-0.011371831
-0.39825012
-0.013711986
-0.47695818
-0.016537016
-0.57119918
-0.019917763
-0.68381931
-0.024017283
-0.81832514
-0.029059488
-0.97863021
-0.035343479
-1.1693887
-0.043212383
-1.3959731
-0.053060496
-1.6649334
-0.065282647
-1.984425
-0.080238231
-2.3647157
-0.098279363
-2.818583
-0.11976744
-3.3616085
-0.14508299
-4.012648
-0.17467895
-4.7942193
-0.20906354
-5.7336224
-0.24881838
-6.8635554
-0.29454368
-8.2232606
-0.34686035
-9.8604872
-0.40627742
-11.832882
-0.47302927
-14.211498
-0.54678427
-17.082603
-0.62677487
-20.550012
-0.71091372
-24.744663
-0.7949469
-29.829428
-0.87151222
-36.001582
-0.92887759
-43.50845
-0.95064392
-52.658961
-0.90611942
-63.839764
-0.75049739
-77.579488
-94.426546
2.9635621e-06
-0.0079649033
2.4546502e-05
-0.011323911
5.459934e-05
-0.015025938
9.6866469e-05
-0.019614905
0.00010768381
-0.02544937
-2.2868775e-05
-0.031813559
-0.00021545206
-0.037662205
-0.00045235761
-0.045563932
-0.00072767384
-0.054204771
-0.0010695548
-0.065225088
-0.0014681264
-0.07787712
-0.0019619
-0.093488717
-0.0025148165
-0.11185062
-0.0031801986
-0.13412689
-0.0039610361
-0.1605819
-0.0049046358
-0.19245953
-0.0060125373
-0.23048728
-0.0073451107
-0.27618152
-0.0089092083
-0.3308088
-0.010799402
-0.39629791
-0.01304757
-0.47463614
-0.015744779
-0.56841398
-0.018998879
-0.68046086
-0.022969381
-0.81423253
-0.0278845
-0.97357221
-0.034061612
-1.1630476
-0.041851836
-1.3879959
-0.051642049
-1.6549304
-0.063811947
-1.9720159
-0.078703497
-2.3495499
-0.096649599
-2.8003306
-0.11799778
-3.339927
-0.14312286
-3.9871536
-0.17247523
-4.764453
-0.20656979
-5.699056
-0.24597746
-6.8236144
-0.29132271
-8.1773018
-0.34323902
-9.8078635
-0.40226355
-11.773037
-0.46868082
-14.144131
-0.54220847
-17.007744
-0.62222087
-20.468296
-0.70685276
-24.658539
-0.79221436
-29.742705
-0.87140772
-35.921045
-0.93262259
-43.445578
-0.96167286
-52.631055
-0.92672889
-63.880919
-0.79036262
-77.723788
-94.733186
-6.1402289e-06
-0.0079773238
1.2910319e-05
-0.011340583
4.1632279e-05
-0.015051596
8.9263879e-05
-0.019659194
9.0542125e-05
-0.025446298
-3.9694524e-05
-0.031678314
-0.00022663899
-0.037469489
-0.00045647015
-0.045327288
-0.00072373535
-0.053929575
-0.0010444352
-0.064895556
-0.0014101157
-0.077500693
-0.0018524322
-0.093033877
-0.0023656959
-0.11132196
-0.0029966101
-0.1334774
-0.003739617
-0.1598166
-0.0046404001
-0.19153209
-0.005688667
-0.22940586
-0.0069596821
-0.2748699
-0.0084676525
-0.32925242
-0.010262756
-0.39444518
-0.01240177
-0.47242806
-0.014983667
-0.56575024
-0.018117174
-0.67723042
-0.021977133
-0.81025904
-0.026787141
-0.96862933
-0.03287656
-1.1568056
-0.040614987
-1.3800825
-0.0503744
-1.6449705
-0.062519567
-1.9596445
-0.077372803
-2.334436
-0.095249828
-2.7821608
-0.11648583
-3.3183699
-0.141456
-3.9618259
-0.17060869
-4.734898
-0.20445846
-5.6647454
-0.24358208
-6.7839671
-0.28861156
-8.1316668
-0.34021114
-9.7555646
-0.39894306
-11.713494
-0.46515539
-14.076967
-0.53861511
-16.932912
-0.61880489
-20.386432
-0.70414406
-24.57177
-0.79103294
-29.654543
-0.8729754
-35.837824
-0.93880872
-43.378116
-0.97531786
-52.59595
-0.95144664
-63.910798
-0.83360545
-77.849097
-95.01311
-1.1025958e-05
-0.0079889765
6.7057751e-06
-0.011356145
3.4726485e-05
-0.015076761
8.7819762e-05
-0.019708637
7.5590622e-05
-0.025430121
-5.5277471e-05
-0.031543064
-0.00022931192
-0.037290612
-0.00044135311
-0.045109497
-0.00068107784
-0.05368293
-0.00097635572
-0.064591949
-0.0013143512
-0.077152494
-0.0017264639
-0.092610086
-0.0022203267
-0.11081343
-0.0028244334
-0.13285609
-0.0035292601
-0.15908932
-0.0043878161
-0.19064689
-0.0053992863
-0.22836172
-0.0066062313
-0.273625
-0.0080302737
-0.32778191
-0.009734021
-0.3926856
-0.01177401
-0.470321
-0.014247716
-0.56319667
-0.017272379
-0.67411085
-0.021032777
-0.80638733
-0.025762683
-0.96376913
-0.031792712
-1.1506262
-0.039502826
-1.3722011
-0.049258904
-1.6350187
-0.061406263
-1.9472768
-0.076246962
-2.3193421
-0.094083897
-2.7640394
-0.11524094
-3.2969
-0.14008869
-3.9366293
-0.16908067
-4.7055129
-0.20272952
-5.6306453
-0.24162878
-6.7445531
-0.28641466
-8.0862832
-0.33777784
-9.7035105
-0.39633244
-11.654138
-0.46246098
-14.009883
-0.53600285
-16.857954
-0.61656601
-20.304227
-0.70281222
-24.484145
-0.79149532
-29.56467
-0.87652583
-35.751589
-0.94731324
-43.305757
-0.99173558
-52.553215
-0.97975026
-63.928582
-0.88031586
-77.955637
-95.265235
-1.7952935e-05
-0.0079991535
-1.5007535e-06
-0.011370923
2.6386029e-05
-0.015102217
8.7535151e-05
-0.019766325
6.7518026e-05
-0.025406932
-5.6799346e-05
-0.031414785
-0.00021359838
-0.037129498
-0.00040938198
-0.04490814
-0.00063389027
-0.05345193
-0.00091554787
-0.064302364
-0.001235964
-0.076822549
-0.0016335259
-0.092200519
-0.0021046815
-0.11032756
-0.0026859544
-0.1322571
-0.0033622487
-0.1583919
-0.004175184
-0.18980874
-0.0051265647
-0.22737986
-0.0062671617
-0.27244809
-0.0076160717
-0.32638945
-0.0092377875
-0.39101194
-0.011188294
-0.46830805
-0.013565635
-0.56074529
-0.016492384
-0.671096
-0.020162217
-0.80261449
-0.024832155
-0.95897834
-0.03083305
-1.144487
-0.038538599
-1.364336
-0.04831874
-1.6250554
-0.060493819
-1.9348945
-0.075351507
-2.3042447
-0.093180281
-2.7459396
-0.11428717
-3.2754929
-0.13903894
-3.9115408
-0.16790235
-4.6762683
-0.20140184
-5.5967062
-0.24013466
-6.7053159
-0.28475782
-8.0410712
-0.33598796
-9.6515991
-0.39446497
-11.594872
-0.46063941
-13.942748
-0.53441765
-16.782713
-0.61558243
-20.221458
-0.70292181
-24.395449
-0.79364869
-29.47285
-0.8821237
-35.662046
-0.95822673
-43.228122
-1.0109556
-52.502466
-1.011555
-63.933515
-0.93072354
-78.04326
-95.489295
-2.0266517e-05
-0.0080098799
-1.2981505e-06
-0.011387718
3.0024165e-05
-0.015130903
0.00010243323
-0.019835623
7.8415785e-05
-0.025379025
-3.9880733e-05
-0.031292248
-0.00018751923
-0.036976998
-0.00037354303
-0.044716327
-0.00058855827
-0.053229954
-0.00086301574
-0.0640198
-0.0011737766
-0.076501758
-0.0015625836
-0.091800032
-0.0020096816
-0.10986635
-0.00255698
-0.13169333
-0.0031897409
-0.1577389
-0.0039556576
-0.18901896
-0.0048544657
-0.22645197
-0.0059341226
-0.27133391
-0.0072148068
-0.325067
-0.0087638588
-0.3894126
-0.010635566
-0.4663758
-0.012925738
-0.55838267
-0.015768749
-0.66816697
-0.019363483
-0.79891835
-0.023988103
-0.95423546
-0.02998224
-1.1383571
-0.037715602
-1.3564465
-0.047547962
-1.6150437
-0.059781935
-1.9224587
-0.074687694
-2.2891062
-0.092527384
-2.7278367
-0.11360336
-3.2541249
-0.13829085
-3.8865253
-0.16706581
-4.6471215
-0.20046779
-5.5628741
-0.23909871
-6.6661897
-0.28363946
-7.9959494
-0.33482753
-9.5997388
-0.39335326
-11.535567
-0.45970582
-13.875433
-0.5339038
-16.707023
-0.61590539
-20.137898
-0.70456124
-24.305458
-0.797551
-29.378838
-0.88978727
-35.56894
-0.97161805
-43.145102
-1.033159
-52.443308
-1.046817
-63.925085
-0.98500888
-78.111542
-95.684849
-2.0430954e-05
-0.0080238122
1.2401758e-06
-0.011407428
3.53089e-05
-0.015162199
0.00011516437
-0.019912247
8.0582431e-05
-0.025340765
-3.5362211e-05
-0.031172442
-0.00017808968
-0.036829733
-0.00036235319
-0.04452662
-0.0005684827
-0.053017283
-0.00082696635
-0.063753722
-0.0011202777
-0.076198987
-0.0014914174
-0.091417889
-0.0019073139
-0.10943713
-0.0024215681
-0.13116333
-0.0030181953
-0.15712311
-0.0037415607
-0.18827268
-0.0045903137
-0.22557555
-0.0056114317
-0.2702801
-0.0068324482
-0.32380669
-0.0083142231
-0.3878838
-0.010107672
-0.46452593
-0.012319122
-0.55610387
-0.015091238
-0.66531511
-0.018639183
-0.79527649
-0.023242936
-0.94952243
-0.029256928
-1.1322175
-0.03705069
-1.3485076
-0.046964228
-1.6049625
-0.059291045
-1.9099424
-0.074262199
-2.2739152
-0.092126538
-2.7097221
-0.11319645
-3.2327752
-0.13785657
-3.861549
-0.16659042
-4.6180276
-0.19994738
-5.5290985
-0.23854696
-6.6271051
-0.28307714
-7.950847
-0.33432614
-9.5478273
-0.39301482
-11.476109
-0.45969729
-13.807787
-0.53453488
-16.630691
-0.61759126
-20.053357
-0.70784053
-24.213875
-0.80330694
-29.282317
-0.8995245
-35.471965
-0.98756358
-43.056331
-1.0583444
-52.375354
-1.0854193
-63.90286
-1.0433149
-78.159884
-95.850983
-2.4568443e-05
-0.0080371749
-3.629137e-06
-0.011426817
3.0525476e-05
-0.015193981
0.00011365204
-0.01999255
7.0911275e-05
-0.025294822
-4.3181414e-05
-0.03105481
-0.00017960253
-0.036689073
-0.00035516344
-0.044345968
-0.00054814287
-0.052818153
-0.00079256922
-0.063501972
-0.0010659125
-0.075916882
-0.0014149135
-0.091058802
-0.0018084169
-0.10903078
-0.0022949286
-0.13066185
-0.002858156
-0.15654134
-0.0035419183
-0.18756743
-0.0043441474
-0.22474697
-0.0053130712
-0.26927988
-0.006477508
-0.32260429
-0.0078916921
-0.38642404
-0.0096126777
-0.4627499
-0.011755157
-0.55389555
-0.014471181
-0.66252076
-0.017992867
-0.79166242
-0.022609788
-0.94479801
-0.028680639
-1.1260235
-0.036565191
-1.3404807
-0.046593304
-1.5947708
-0.059028689
-1.8973225
-0.074076141
-2.2586542
-0.09198891
-2.6915665
-0.11308498
-3.2114072
-0.13775427
-3.8365721
-0.16649276
-4.5889383
-0.19986416
-5.495318
-0.23849099
-6.5880024
-0.2831
-7.9056737
-0.33451045
-9.4957633
-0.39348876
-11.41637
-0.46064824
-13.739666
-0.53633259
-16.553572
-0.62064786
-19.9676
-0.71283073
-24.12032
-0.81102087
-29.18298
-0.91141415
-35.370803
-1.0061598
-42.961028
-1.0851985
-52.29958
-1.1273736
-63.865174
-1.1058906
-78.187343
-95.987444
-2.7221657e-05
-0.0080511515
-5.2807408e-06
-0.011447444
3.1401298e-05
-0.015228485
0.0001176791
-0.020076247
6.9588283e-05
-0.025243754
-4.646728e-05
-0.03093538
-0.00017505184
-0.036556574
-0.00033655989
-0.044179717
-0.00051603869
-0.052632968
-0.00074914388
-0.063262176
-0.0010057654
-0.075651885
-0.0013338863
-0.090720819
-0.0017067931
-0.10864572
-0.0021675604
-0.13018669
-0.0027002271
-0.15599123
-0.0033467905
-0.18690003
-0.0041071367
-0.22396137
-0.0050303763
-0.26832681
-0.0061395563
-0.32145916
-0.0074884017
-0.38503234
-0.0091468597
-0.46103989
-0.011235551
-0.55174555
-0.013915964
-0.65976755
-0.017426505
-0.78806644
-0.022082767
-0.94004237
-0.028238752
-1.1197539
-0.036250597
-1.3323368
-0.046421953
-1.5844469
-0.058975735
-1.8845958
-0.074120253
-2.2433083
-0.092110579
-2.6733455
-0.11326336
-3.1899943
-0.13797929
-3.8115602
-0.16676908
-4.5598094
-0.20021047
-5.4614789
-0.23894183
-6.5488054
-0.28371638
-7.8603439
-0.33538738
-9.4434481
-0.39478264
-11.35622
-0.46256743
-13.67092
-0.53924607
-16.475538
-0.62508967
-19.880387
-0.7195465
-24.02448
-0.82084654
-29.080416
-0.92549375
-35.265222
-1.0275202
-42.858521
-1.1156183
-52.215047
-1.1730233
-63.812154
-1.1727835
-78.193335
-96.093309
-3.0832637e-05
-0.0080641099
-8.67536e-06
-0.011468114
3.0275683e-05
-0.015265164
0.00011842713
-0.020161719
6.5117998e-05
-0.025187656
-4.5864324e-05
-0.030821162
-0.0001650211
-0.036433694
-0.00032018539
-0.044019973
-0.00048996338
-0.052457592
-0.00070926352
-0.063036327
-0.00095392974
-0.07539909
-0.0012659214
-0.090399523
-0.0016168827
-0.10828304
-0.0020524102
-0.12973751
-0.0025554026
-0.1554713
-0.0031666696
-0.18626913
-0.0038902272
-0.22321367
-0.0047702524
-0.26741797
-0.0058260398
-0.32036853
-0.007118342
-0.38369821
-0.0087262211
-0.4593817
-0.010777986
-0.54963343
-0.01344068
-0.65703339
-0.016963434
-0.78445916
-0.021679991
-0.93522819
-0.027950705
-1.1133709
-0.036119596
-1.324038
-0.046451098
-1.5739658
-0.059143935
-1.8717346
-0.074411748
-2.2278449
-0.09250513
-2.6550282
-0.11374601
-3.1685006
-0.13854759
-3.7864707
-0.16743836
-4.5305882
-0.201009
-5.4275197
-0.2399225
-6.5094348
-0.2849466
-7.8147721
-0.33699636
-9.390762
-0.39693539
-11.295529
-0.46550445
-13.601389
-0.5433289
-16.396428
-0.63092304
-19.791527
-0.72793758
-23.926172
-0.83289164
-28.974162
-0.9419575
-35.154805
-1.0517601
-42.748255
-1.1498842
-52.120654
-1.2226967
-63.743666
-1.2443843
-78.177187
-96.16788
-3.444829e-05
-0.0080762472
-1.2182339e-05
-0.01148906
2.9443336e-05
-0.015304636
0.00011821919
-0.020247993
6.1097272e-05
-0.02512788
-4.0592161e-05
-0.030716457
-0.00015242223
-0.036318329
-0.00030007944
-0.043867945
-0.00046051157
-0.052291912
-0.00066968184
-0.062820982
-0.00090059314
-0.075160469
-0.0011960834
-0.090094986
-0.0015272167
-0.10794074
-0.0019388896
-0.1293127
-0.0024147221
-0.15497943
-0.0029933618
-0.18567144
-0.003681332
-0.22250246
-0.0045186437
-0.26655311
-0.0055278183
-0.31932621
-0.006774779
-0.38241172
-0.008345796
-0.45776341
-0.010368085
-0.54755476
-0.013026314
-0.65430879
-0.016592516
-0.78081478
-0.021401446
-0.93032929
-0.027823805
-1.1068446
-0.036172402
-1.3155687
-0.046674038
-1.5633244
-0.059530853
-1.8587199
-0.074944907
-2.2122463
-0.093167471
-2.636593
-0.11452891
-3.1468974
-0.13945718
-3.7612654
-0.16849996
-4.501226
-0.20226666
-5.393375
-0.24143422
-6.4698199
-0.28681058
-7.7688568
-0.33933923
-9.3376054
-0.39996568
-11.23415
-0.4694852
-13.530899
-0.5486356
-16.316036
-0.6381542
-19.700839
-0.73791941
-23.825239
-0.84675709
-28.864073
-0.96132489
-35.038693
-1.0789926
-42.630741
-1.1878552
-52.015646
-1.2765234
-63.659267
-1.3207713
-78.13828
-96.210414
-3.7126732e-05
-0.0080883413
-1.3977251e-05
-0.011511113
3.1222219e-05
-0.015347918
0.00011960894
-0.020334018
6.1671712e-05
-0.025067442
-3.5392805e-05
-0.030616473
-0.00014133399
-0.036209051
-0.00028230468
-0.043722848
-0.00043321507
-0.052135971
-0.00063214238
-0.062616097
-0.00084881336
-0.074936382
-0.0011283309
-0.089806882
-0.0014411786
-0.10761705
-0.0018308103
-0.12891053
-0.0022813588
-0.15451331
-0.0028315835
-0.18510317
-0.0034857821
-0.22182589
-0.0042826061
-0.26572963
-0.005251125
-0.31832538
-0.0064635877
-0.3811606
-0.0080051501
-0.45617539
-0.010007112
-0.54549722
-0.012679327
-0.65157098
-0.016314772
-0.77710198
-0.021257674
-0.92529748
-0.027863014
-1.1001369
-0.036407424
-1.3069053
-0.047101782
-1.5524934
-0.060143709
-1.8455242
-0.075726709
-2.1964841
-0.094105211
-2.6180081
-0.11562077
-3.1251469
-0.14071818
-3.7358986
-0.16996649
-4.4716668
-0.2039932
-5.3589792
-0.24349631
-6.4298777
-0.28931583
-7.722506
-0.34245452
-9.2838458
-0.40390138
-11.17195
-0.47453847
-13.459281
-0.55521638
-16.234134
-0.64686143
-19.608096
-0.7496349
-23.721417
-0.86285838
-28.749757
-0.98329652
-34.916682
-1.1093146
-42.505279
-1.2295803
-51.8993
-1.3347032
-63.558314
-1.402192
-78.075918
-96.220051
-4.0134488e-05
-0.0080998989
-1.6653942e-05
-0.0115336
3.1727732e-05
-0.015394533
0.0001166707
-0.020416666
5.9976991e-05
-0.025008617
-3.4453296e-05
-0.030519261
-0.00013500965
-0.036105304
-0.0002695247
-0.043584322
-0.00041077355
-0.051989912
-0.00060023331
-0.062420901
-0.0008039961
-0.074725414
-0.0010685238
-0.089534049
-0.0013639963
-0.1073112
-0.0017325979
-0.12852985
-0.0021588347
-0.1540722
-0.0026822095
-0.18456219
-0.003307156
-0.22117936
-0.0040688993
-0.26494226
-0.0050038748
-0.31735959
-0.0061863933
-0.37994134
-0.0077048569
-0.45461324
-0.0097073849
-0.5434426
-0.012422948
-0.6487947
-0.016153105
-0.77330024
-0.021259908
-0.92010897
-0.028069587
-1.0932329
-0.036829134
-1.2980354
-0.047741065
-1.5414541
-0.060988468
-1.8321326
-0.076763063
-2.1805403
-0.095325377
-2.5992497
-0.11702955
-3.103218
-0.14234103
-3.7103281
-0.17185068
-4.4418568
-0.20621016
-5.3242609
-0.24612773
-6.3895304
-0.29249392
-7.6756171
-0.34636205
-9.2293643
-0.40877984
-11.108775
-0.48071458
-13.386353
-0.56315424
-16.150479
-0.65718172
-19.512999
-0.76328158
-23.614359
-0.88112196
-28.630995
-1.0079461
-34.788477
-1.1428485
-42.371461
-1.2751412
-51.77086
-1.3973595
-63.440118
-1.4888259
-77.98928
-96.195906
-4.0582097e-05
-0.0081129205
-1.4917866e-05
-0.011558072
3.8729924e-05
-0.015446291
0.00011952474
-0.020495177
5.734563e-05
-0.024944442
-3.1652863e-05
-0.03042747
-0.00012484088
-0.036008965
-0.00025234314
-0.043452792
-0.00038381122
-0.051853734
-0.00056369824
-0.062235409
-0.00075627068
-0.074525898
-0.0010074726
-0.089274866
-0.0012873783
-0.10702125
-0.0016370634
-0.12816852
-0.002041963
-0.15365289
-0.0025397457
-0.18404759
-0.0031376168
-0.22056059
-0.0038689916
-0.264186
-0.0047795081
-0.31641885
-0.0059391342
-0.37874577
-0.0074454228
-0.45306366
-0.0094722232
-0.54136452
-0.01225574
-0.64595062
-0.016113683
-0.76937165
-0.021407792
-0.91473375
-0.028440207
-1.0861068
-0.037437065
-1.2889296
-0.048587069
-1.530179
-0.062060904
-1.8185183
-0.078049253
-2.1643874
-0.096823325
-2.580285
-0.11875288
-3.0810699
-0.14432499
-3.684504
-0.17415496
-4.4117344
-0.20891159
-5.2891535
-0.24934134
-6.3486787
-0.29635809
-7.628085
-0.35107575
-9.1740394
-0.41461983
-11.044469
-0.4880405
-13.311928
-0.57252342
-16.064786
-0.66922422
-19.41519
-0.77891376
-23.503721
-0.90159387
-28.507471
-1.0353807
-34.653768
-1.1797417
-42.228749
-1.3245695
-51.629656
-1.4645928
-63.303917
-1.5809193
-77.877508
-96.137071
-4.2350511e-05
-0.0081261916
-1.6089671e-05
-0.011583281
4.1414253e-05
-0.015501956
0.00011574607
-0.020567472
5.2971023e-05
-0.024879408
-3.21859e-05
-0.030339449
-0.00011930526
-0.035918845
-0.00024088918
-0.043327365
-0.00036486818
-0.051725043
-0.00053655645
-0.062058407
-0.00071885
-0.074336756
-0.00095780567
-0.089028287
-0.0012237141
-0.10674556
-0.0015562331
-0.12782487
-0.0019438504
-0.15325141
-0.0024190482
-0.18355602
-0.0029909968
-0.21996846
-0.0036972183
-0.2634558
-0.004586619
-0.31550055
-0.0057304567
-0.37756768
-0.007243274
-0.45151008
-0.0093110377
-0.53924878
-0.012184789
-0.64302087
-0.016204687
-0.76528668
-0.02171278
-0.90915114
-0.028988387
-1.0787445
-0.038245943
-1.2795708
-0.049653131
-1.5186548
-0.06337425
-1.8046653
-0.079603535
-2.1480027
-0.098619938
-2.5610872
-0.12081299
-3.0586675
-0.14669341
-3.6583812
-0.17690355
-4.3812418
-0.21213649
-5.2535793
-0.25315882
-6.3072432
-0.30093349
-7.5798033
-0.35663945
-9.1177328
-0.42146742
-10.978875
-0.49656154
-13.235826
-0.58334808
-15.976814
-0.68306384
-19.314364
-0.79657563
-23.389216
-0.92437907
-28.378829
-1.065637
-34.511832
-1.2196829
-42.076946
-1.3778617
-51.474768
-1.5365606
-63.148803
-1.678722
-77.739602
-96.042201
-4.2337386e-05
-0.0081410197
-1.4306024e-05
-0.011610176
4.7411071e-05
-0.015561871
0.00011508781
-0.020632948
5.8581535e-05
-0.024821152
-2.3142218e-05
-0.030255068
-0.00010469701
-0.035834472
-0.00022127151
-0.043206988
-0.00033878312
-0.051603165
-0.00050282049
-0.061889205
-0.00067521787
-0.074157861
-0.00090237798
-0.088793758
-0.0011548841
-0.10648364
-0.0014703604
-0.12749868
-0.0018416949
-0.15286668
-0.0022980388
-0.18308401
-0.0028483074
-0.21939869
-0.0035369714
-0.26274377
-0.0044110979
-0.31459809
-0.005547203
-0.3763979
-0.0070806309
-0.44993621
-0.0092055541
-0.53707639
-0.012202613
-0.63996781
-0.016413835
-0.76101098
-0.022159061
-0.9033318
-0.029703701
-1.0711143
-0.039242129
-1.2699326
-0.050927403
-1.5068551
-0.06491913
-1.7905448
-0.081413508