/*--------------------------------*- C++ -*----------------------------------*\
  =========                 |
  \\      /  F ield         | OpenFOAM: The Open Source CFD Toolbox
   \\    /   O peration     | Website:  https://openfoam.org
    \\  /    A nd           | Version:  8
     \\/     M anipulation  |
\*---------------------------------------------------------------------------*/
FoamFile
{
    version     2.0;
    format      ascii;
    class       pointVectorField;
    location    "0.240005";
    object      pointDisplacement;
}
// * * * * * * * * * * * * * * * * * * * * * * * * * * * * * * * * * * * * * //

dimensions      [0 1 0 0 0 0 0];

internalField   nonuniform List<vector> 
40800
(
(0.0018160603 0 0.0015609903)
(0.0018195921 0 0.0013012909)
(0.001819312 0 0.0013024501)
(0.0018156673 0 0.0015675826)
(0.0018192869 0 0.0013018816)
(0.0018156459 0 0.0015670301)
(0.0018192334 0 0.0013011412)
(0.0018155953 0 0.0015664229)
(0.0018191376 0 0.0013002838)
(0.0018155038 0 0.0015657241)
(0.0018189813 0 0.0012992977)
(0.0018153536 0 0.0015649241)
(0.0018187395 0 0.0012981745)
(0.0018151202 0 0.0015640186)
(0.0018183773 0 0.0012969111)
(0.0018147696 0 0.0015630091)
(0.0018178472 0 0.0012955136)
(0.0018142552 0 0.0015619072)
(0.0018170849 0 0.0012940036)
(0.0018135138 0 0.0015607407)
(0.001816003 0 0.001292427)
(0.0018124598 0 0.0015595622)
(0.0018144846 0 0.0012908676)
(0.0018109782 0 0.0015584621)
(0.0018123737 0 0.001289465)
(0.0018089158 0 0.0015575869)
(0.0018094643 0 0.0012884428)
(0.0018060698 0 0.0015571658)
(0.0018054861 0 0.0012881462)
(0.0018021742 0 0.0015575477)
(0.0018000894 0 0.0012890953)
(0.0017968839 0 0.0015592522)
(0.0017928264 0 0.0012920602)
(0.001789757 0 0.0015630411)
(0.001783133 0 0.00129816)
(0.0017802354 0 0.0015700134)
(0.0017703142 0 0.0013089927)
(0.0017676299 0 0.0015817263)
(0.0017535349 0 0.0013268015)
(0.0017511094 0 0.0016003539)
(0.001731826 0 0.0013546562)
(0.0017297054 0 0.0016288625)
(0.001704111 0 0.0013966329)
(0.0017023358 0 0.0016711829)
(0.0016692602 0 0.0014579387)
(0.0016678569 0 0.0017323361)
(0.0016261991 0 0.0015448721)
(0.0016251683 0 0.0018184053)
(0.0015740363 0 0.0016645441)
(0.0015733381 0 0.001936271)
(0.0015122597 0 0.0018242474)
(0.001511805 0 0.0020929988)
(0.0014408383 0 0.0020305226)
(0.0014404791 0 0.0022949405)
(0.001360411 0 0.0022875348)
(0.0013599608 0 0.002546087)
(0.0012722029 0 0.0025959323)
(0.0012714572 0 0.0028469851)
(0.0011781015 0 0.002951179)
(0.0011768832 0 0.0031930213)
(0.0010802322 0 0.0033440656)
(0.0010784089 0 0.0035750328)
(0.00098113812 0 0.0037595109)
(0.00097869034 0 0.0039778427)
(0.00088332474 0 0.0041794632)
(0.00088033112 0 0.0043834905)
(0.00078890168 0 0.0045853919)
(0.00078552111 0 0.0047736482)
(0.00069950593 0 0.0049605094)
(0.00069589443 0 0.0051320929)
(0.00061643559 0 0.0052908642)
(0.00061279507 0 0.005445233)
(0.00054049092 0 0.0055656711)
(0.000536955 0 0.0057028865)
(0.00047187785 0 0.0057798534)
(0.0004685808 0 0.005900477)
(0.00041066841 0 0.0059297559)
(0.00040766619 0 0.0060347496)
(0.00035630922 0 0.0060153837)
(0.00035365782 0 0.006105992)
(0.00030840364 0 0.0060350856)
(0.00030609625 0 0.0061125704)
(0.00026598006 0 0.0059865835)
(0.0002640258 0 0.0060522535)
(0.00022793778 0 0.0058593839)
(0.00022622855 0 0.0059136363)
(0.00019367643 0 0.0056503229)
(0.0001922272 0 0.0056945908)
(0.00016338791 0 0.0053503589)
(0.00016218122 0 0.005385098)
(0.00013599445 0 0.004950163)
(0.0001350341 0 0.0049772003)
(0.00011127159 0 0.0044329344)
(0.00011056762 0 0.0044532574)
(8.662841e-05 0 0.0037497831)
(8.6088258e-05 0 0.0037638147)
(6.1205746e-05 0 0.0028753171)
(6.0841863e-05 0 0.0028863349)
(3.3395191e-05 0 0.0016909355)
(3.3248028e-05 0 0.001700288)
(0 0 0)
(0 0 0)
(0.0018220505 0 0.0010471671)
(0.0018217763 0 0.0010481541)
(0.0018217504 0 0.0010473524)
(0.0018216942 0 0.0010464166)
(0.0018215948 0 0.0010453248)
(0.0018214336 0 0.0010440592)
(0.0018211849 0 0.001042603)
(0.0018208133 0 0.0010409435)
(0.0018202703 0 0.0010390765)
(0.0018194902 0 0.0010370116)
(0.0018183843 0 0.0010347816)
(0.0018168337 0 0.0010324552)
(0.00181468 0 0.0010301562)
(0.001811714 0 0.0010280909)
(0.0018076621 0 0.0010265875)
(0.00180217 0 0.0010261493)
(0.0017947848 0 0.0010275362)
(0.0017849374 0 0.0010318655)
(0.0017719278 0 0.0010407513)
(0.0017549182 0 0.0010564818)
(0.0017329396 0 0.0010822082)
(0.0017049199 0 0.0011221325)
(0.001669744 0 0.0011816323)
(0.0016263607 0 0.0012672114)
(0.0015739193 0 0.0013862171)
(0.0015119518 0 0.0015462114)
(0.0014404877 0 0.0017539782)
(0.0013602002 0 0.002013967)
(0.0012723354 0 0.0023270376)
(0.0011787552 0 0.0026888669)
(0.0010815419 0 0.0030903134)
(0.00098313766 0 0.0035164644)
(0.00088593667 0 0.0039493009)
(0.00079198707 0 0.00437005)
(0.0007028984 0 0.0047614846)
(0.00061995314 0 0.0051091385)
(0.00054396345 0 0.0054017593)
(0.00047518677 0 0.0056335416)
(0.00041370873 0 0.0058004747)
(0.00035904182 0 0.0059020743)
(0.00031078664 0 0.0059366179)
(0.00026802809 0 0.0059017057)
(0.00022971004 0 0.0057875778)
(0.0001952201 0 0.005590522)
(0.00016465772 0 0.0053015922)
(0.00013702647 0 0.0049111398)
(0.00011200973 0 0.0044018163)
(8.7181448e-05 0 0.003726687)
(6.1574169e-05 0 0.0028568636)
(3.3524374e-05 0 0.0016757797)
(0 0 0)
(0.0018234591 0 0.000798503)
(0.0018231919 0 0.00079937368)
(0.0018231628 0 0.00079839021)
(0.0018231025 0 0.00079723999)
(0.0018229975 0 0.00079589803)
(0.0018228287 0 0.00079433985)
(0.00182257 0 0.00079254075)
(0.0018221851 0 0.00079047863)
(0.0018216246 0 0.00078813839)
(0.0018208214 0 0.00078551732)
(0.0018196853 0 0.00078263403)
(0.001818095 0 0.00077954184)
(0.0018158895 0 0.00077634759)
(0.0018128562 0 0.00077324019)
(0.0018087173 0 0.0007705298)
(0.0018031137 0 0.00076870604)
(0.001795587 0 0.00076851596)
(0.0017855625 0 0.00077107588)
(0.0017723356 0 0.00077801878)
(0.001755066 0 0.00079168538)
(0.0017327854 0 0.00081532458)
(0.0017044274 0 0.00085326855)
(0.0016688928 0 0.00091107007)
(0.0016251572 0 0.00099543011)
(0.0015724139 0 0.0011139146)
(0.0015102458 0 0.0012743342)
(0.001438746 0 0.0014836903)
(0.0013586258 0 0.0017466726)
(0.0012711546 0 0.0020643083)
(0.0011781682 0 0.0024324499)
(0.0010817012 0 0.0028420214)
(0.0009840908 0 0.003278277)
(0.00088761928 0 0.0037232521)
(0.00079426452 0 0.0041579946)
(0.00070560069 0 0.0045649107)
(0.0006228924 0 0.0049290756)
(0.00054695917 0 0.0052388001)
(0.00047810633 0 0.0054876001)
(0.0004164357 0 0.0056711001)
(0.00036152224 0 0.0057883336)
(0.00031296959 0 0.0058374752)
(0.00026991716 0 0.0058159941)
(0.00023135196 0 0.0057147695)
(0.00019665566 0 0.0055296185)
(0.00016584544 0 0.0052516621)
(0.00013799348 0 0.0048709422)
(0.00011270451 0 0.0043696184)
(8.7700344e-05 0 0.003702521)
(6.1919173e-05 0 0.0028376665)
(3.3646056e-05 0 0.0016605062)
(0 0 0)
(0.0018238512 0 0.00055518534)
(0.0018235895 0 0.0005559615)
(0.0018235555 0 0.00055481913)
(0.0018234889 0 0.00055347715)
(0.0018233759 0 0.00055190195)
(0.0018231969 0 0.00055006172)
(0.0018229249 0 0.0005479241)
(0.0018225229 0 0.00054545854)
(0.0018219403 0 0.00054264022)
(0.0018211087 0 0.00053945509)
(0.0018199356 0 0.00053590931)
(0.0018182977 0 0.00053204159)
(0.0018160308 0 0.00052794325)
(0.0018129186 0 0.0005237859)
(0.0018086788 0 0.00051986265)
(0.0018029468 0 0.00051664624)
(0.0017952584 0 0.00051487234)
(0.0017850331 0 0.00051565409)
(0.001771562 0 0.00052064113)
(0.0017540033 0 0.00053225178)
(0.0017313891 0 0.00055385159)
(0.0017026602 0 0.00058989818)
(0.0016667346 0 0.00064612574)
(0.0016226178 0 0.00072942064)
(0.0015695513 0 0.00084754593)
(0.0015071752 0 0.0010085441)
(0.0014356485 0 0.0012196089)
(0.0013557247 0 0.0014856272)
(0.001268697 0 0.0018077509)
(0.0011763753 0 0.0021819694)
(0.0010807404 0 0.0025992708)
(0.00098402238 0 0.0030450704)
(0.00088839064 0 0.003501478)
(0.0007957451 0 0.0039494197)
(0.00070761839 0 0.0043709996)
(0.00062525399 0 0.0047508947)
(0.00054947578 0 0.0050770075)
(0.00048063219 0 0.0053422283)
(0.0004188441 0 0.0055418099)
(0.00036374504 0 0.0056743151)
(0.00031494735 0 0.0057377861)
(0.00027164253 0 0.0057295546)
(0.00023286024 0 0.005641051)
(0.0001979805 0 0.0054676872)
(0.00016694849 0 0.0052006284)
(0.00013889367 0 0.004829617)
(0.00011335426 0 0.0043363773)
(8.818423e-05 0 0.0036773196)
(6.2240213e-05 0 0.0028177407)
(3.3759636e-05 0 0.0016451034)
(0 0 0)
(0.0018232584 0 0.00031710269)
(0.0018229997 0 0.00031777627)
(0.0018229594 0 0.00031646673)
(0.0018228847 0 0.00031492594)
(0.0018227613 0 0.00031311454)
(0.0018225692 0 0.00031099375)
(0.0018222806 0 0.00030852294)
(0.0018218575 0 0.00030566205)
(0.001821248 0 0.0003023751)
(0.001820382 0 0.00029863562)
(0.0018191651 0 0.00029443582)
(0.0018174711 0 0.0002897991)
(0.0018151326 0 0.00028480047)
(0.0018119291 0 0.00027959415)
(0.0018075734 0 0.00027445583)
(0.0018016952 0 0.00026984149)
(0.0017938238 0 0.00026647303)
(0.0017833727 0 0.00026545812)
(0.0017696297 0 0.00026845652)
(0.0017517527 0 0.00027801382)
(0.0017287744 0 0.00029764364)
(0.0016996419 0 0.00033189255)
(0.0016632935 0 0.00038669316)
(0.0016187673 0 0.00046910193)
(0.0015653573 0 0.00058704792)
(0.0015027676 0 0.00074880006)
(0.0014312248 0 0.00096171532)
(0.0013515282 0 0.0012308356)
(0.0012649947 0 0.0015573957)
(0.0011734071 0 0.0019374858)
(0.0010786875 0 0.0023621539)
(0.00098295623 0 0.0028169703)
(0.00088826849 0 0.0032841391)
(0.00079644033 0 0.003744514)
(0.00070895763 0 0.0041799574)
(0.00062703941 0 0.0045748086)
(0.00055151141 0 0.004916591)
(0.00048276049 0 0.0051976224)
(0.00042092886 0 0.0054127803)
(0.00036570491 0 0.0055601718)
(0.00031671468 0 0.0056376792)
(0.00027319942 0 0.0056424921)
(0.00023423117 0 0.0055665126)
(0.00019919185 0 0.0054048012)
(0.00016796407 0 0.005148548)
(0.00013972503 0 0.004787208)
(0.0001139571 0 0.0043021228)
(8.8632068e-05 0 0.0036511109)
(6.2536695e-05 0 0.0027970986)
(3.3864553e-05 0 0.0016295605)
(0 0 0)
(0.0018217047 0 8.4146559e-05)
(0.0018214494 0 8.471712e-05)
(0.0018214014 0 8.3239231e-05)
(0.0018213169 0 8.1498285e-05)
(0.0018211812 0 7.9449617e-05)
(0.0018209735 0 7.7047688e-05)
(0.0018206651 0 7.4243882e-05)
(0.0018202169 0 7.0988734e-05)
(0.0018195756 0 6.7235253e-05)
(0.0018186693 0 6.2944384e-05)
(0.0018174013 0 5.8094025e-05)
(0.0018156425 0 5.2691785e-05)
(0.0018132218 0 4.6795423e-05)
(0.0018099142 0 4.0540755e-05)
(0.001805427 0 3.4184587e-05)
(0.0017993836 0 2.8164802e-05)
(0.0017913065 0 2.3188093e-05)
(0.0017806029 0 2.0357299e-05)
(0.0017665611 0 2.1444508e-05)
(0.0017483408 0 2.9106516e-05)
(0.0017249697 0 4.6896033e-05)
(0.0016954016 0 7.9451052e-05)
(0.0016585965 0 0.00013282933)
(0.0016136303 0 0.00021440209)
(0.0015598578 0 0.00033236314)
(0.001497051 0 0.00049506464)
(0.0014255057 0 0.00070999264)
(0.001346069 0 0.00098230234)
(0.0012600813 0 0.0013132687)
(0.0011692968 0 0.0016990502)
(0.0010755728 0 0.0021307508)
(0.00098091831 0 0.0025940881)
(0.00088727296 0 0.0030713794)
(0.00079636413 0 0.0035434498)
(0.0007096267 0 0.0039919752)
(0.00062825212 0 0.0044010175)
(0.00055306592 0 0.0047577502)
(0.00048448875 0 0.0050539709)
(0.00042268599 0 0.0052841831)
(0.00036739733 0 0.0054460537)
(0.00031826687 0 0.0055372823)
(0.00027458344 0 0.0055549117)
(0.0002354613 0 0.0054912446)
(0.00020028701 0 0.0053410336)
(0.00016888953 0 0.0050954786)
(0.00014048563 0 0.0047437599)
(0.00011451114 0 0.0042668856)
(8.9042851e-05 0 0.0036239251)
(6.2808045e-05 0 0.0027757556)
(3.3960243e-05 0 0.001613869)
(0 0 0)
(0.0018192177 0 -0.00014378872)
(0.0018189652 0 -0.00014331826)
(0.0018189078 0 -0.0001449607)
(0.0018188116 0 -0.000146897)
(0.0018186613 0 -0.00014917846)
(0.0018184352 0 -0.00015185803)
(0.0018181038 0 -0.00015499297)
(0.0018176267 0 -0.00015864219)
(0.0018169489 0 -0.00016286345)
(0.0018159966 0 -0.00016770801)
(0.0018146704 0 -0.00017321168)
(0.001812838 0 -0.00017938236)
(0.0018103243 0 -0.00018617949)
(0.0018068993 0 -0.00019348646)
(0.0018022644 0 -0.00020106696)
(0.0017960358 0 -0.00020850412)
(0.0017877291 0 -0.00021510686)
(0.0017767514 0 -0.00021967161)
(0.0017623932 0 -0.00022024305)
(0.001743804 0 -0.00021422034)
(0.0017200052 0 -0.00019811262)
(0.0016899633 0 -0.0001671424)
(0.0016526643 0 -0.00011521119)
(0.0016072299 0 -3.459958e-05)
(0.0015530791 0 8.3437761e-05)
(0.0014900546 0 0.00024730474)
(0.0014185231 0 0.00046442436)
(0.0013393816 0 0.00074002814)
(0.0012539925 0 0.0010753882)
(0.0011640793 0 0.0014667036)
(0.0010714291 0 0.001905128)
(0.00097793719 0 0.0023765186)
(0.00088542673 0 0.0028633249)
(0.00079553292 0 0.0033463811)
(0.00070963616 0 0.0038072272)
(0.00062889778 0 0.004229706)
(0.00055414086 0 0.0046006724)
(0.0004858159 0 0.0049114537)
(0.00042411259 0 0.0051561841)
(0.00036881868 0 0.0053321074)
(0.00031959988 0 0.0054367213)
(0.00027579067 0 0.0054669179)
(0.00023654736 0 0.0054153368)
(0.00020126345 0 0.005276458)
(0.00016972233 0 0.0050414785)
(0.00014117356 0 0.0046993176)
(0.00011501453 0 0.004230695)
(8.9415529e-05 0 0.0035957909)
(6.3053655e-05 0 0.0027537258)
(3.4046172e-05 0 0.0015980208)
(0 0 0)
(0.0018158261 0 -0.00036680787)
(0.0018155759 0 -0.00036643814)
(0.0018155076 0 -0.00036824684)
(0.001815398 0 -0.00037038056)
(0.0018152307 0 -0.00037289691)
(0.0018149836 0 -0.00037585591)
(0.0018146257 0 -0.00037932311)
(0.0018141154 0 -0.00038336671)
(0.001813396 0 -0.0003880552)
(0.0018123913 0 -0.00039345199)
(0.0018109993 0 -0.00039960686)
(0.001809084 0 -0.00040654373)
(0.0018064658 0 -0.00041424013)
(0.0018029092 0 -0.00042260005)
(0.001798109 0 -0.00043141087)
(0.0017916742 0 -0.0004402796)
(0.0017831194 0 -0.00044844436)
(0.0017718559 0 -0.00045453144)
(0.0017571609 0 -0.0004566132)
(0.0017381667 0 -0.00045218083)
(0.0017139002 0 -0.00043766932)
(0.001683344 0 -0.00040816932)
(0.0016455152 0 -0.00035744191)
(0.0015995886 0 -0.00027767398)
(0.0015450475 0 -0.00015963206)
(0.0014818078 0 5.4932844e-06)
(0.0014103095 0 0.00022499776)
(0.0013315014 0 0.00050401489)
(0.0012467653 0 0.00084377042)
(0.0011577913 0 0.0012404802)
(0.0010662907 0 0.0016853422)
(0.00097404297 0 0.0021643447)
(0.00088275426 0 0.0026600873)
(0.00079396496 0 0.0031534466)
(0.00070899834 0 0.0036258728)
(0.0006289835 0 0.0040610467)
(0.00055473921 0 0.0044455347)
(0.00048674211 0 0.0047702418)
(0.0004252067 0 0.0050289431)
(0.00036996601 0 0.0052184754)
(0.00032071017 0 0.0053361198)
(0.00027681761 0 0.005378614)
(0.00023748634 0 0.0053388783)
(0.00020211876 0 0.0052111472)
(0.00017046007 0 0.0049866059)
(0.00014178699 0 0.0046539266)
(0.00011546543 0 0.0041935814)
(8.9749029e-05 0 0.0035667368)
(6.3272921e-05 0 0.0027310255)
(3.41218e-05 0 0.0015820101)
(0 0 0)
(0.0018115584 0 -0.00058501257)
(0.0018113081 0 -0.00058474412)
(0.0018112273 0 -0.00058672114)
(0.001811102 0 -0.0005890554)
(0.0018109153 0 -0.00059180986)
(0.001810644 0 -0.00059505099)
(0.0018102561 0 -0.00059885179)
(0.0018097084 0 -0.00060328961)
(0.0018089421 0 -0.0006084437)
(0.0018078787 0 -0.00061438985)
(0.001806413 0 -0.00062119223)
(0.0018044051 0 -0.00062889124)
(0.0018016705 0 -0.0006374833)
(0.0017979676 0 -0.00064689459)
(0.0017929837 0 -0.00065694096)
(0.0017863258 0 -0.00066719604)
(0.0017775131 0 -0.00067675556)
(0.0017659456 0 -0.00068425135)
(0.001750879 0 -0.00068788316)
(0.0017314417 0 -0.00068507253)
(0.00170667 0 -0.00067211714)
(0.0016755632 0 -0.00064398154)
(0.0016371731 0 -0.00059419711)
(0.0015907316 0 -0.00051487126)
(0.0015357866 0 -0.00039675382)
(0.0014723367 0 -0.00023039963)
(0.0014008992 0 -8.3004455e-06)
(0.0013224658 0 0.0002742609)
(0.0012384388 0 0.00061842389)
(0.0011504716 0 0.0010204039)
(0.001060194 0 0.0014714363)
(0.00096926807 0 0.0019576325)
(0.00087928226 0 0.0024617603)
(0.00079168071 0 0.0029647666)
(0.00070772769 0 0.0034480534)
(0.00062851847 0 0.0038951957)
(0.0005548657 0 0.0042924999)
(0.00048726894 0 0.0046304961)
(0.00042596759 0 0.0049026124)
(0.00037083735 0 0.0051052951)
(0.00032159492 0 0.0052355984)
(0.00027766124 0 0.0052901017)
(0.00023827552 0 0.0052619572)
(0.00020285074 0 0.0051451744)
(0.00017110048 0 0.0049309196)
(0.00014232414 0 0.0046076327)
(0.00011586207 0 0.0041555751)
(9.0042282e-05 0 0.0035367916)
(6.346521e-05 0 0.0027076701)
(3.4186618e-05 0 0.0015658316)
(0 0 0)
(0.0018064376 0 -0.00079850213)
(0.0018061865 0 -0.0007983349)
(0.0018060915 0 -0.00080048047)
(0.0018059487 0 -0.00080301537)
(0.0018057404 0 -0.00080600754)
(0.0018054421 0 -0.00080952987)
(0.0018050206 0 -0.00081366292)
(0.001804431 0 -0.00081849316)
(0.0018036125 0 -0.00082411054)
(0.0018024838 0 -0.00083060337)
(0.0018009363 0 -0.00083805011)
(0.0017988259 0 -0.00084650732)
(0.0017959627 0 -0.00085598928)
(0.0017920981 0 -0.00086644074)
(0.0017869151 0 -0.00087769493)
(0.0017800241 0 -0.00088922815)
(0.001770938 0 -0.00090009429)
(0.0017590358 0 -0.00090903685)
(0.0017435625 0 -0.000914237)
(0.0017236469 0 -0.00091300936)
(0.0016983325 0 -0.00090155587)
(0.0016666396 0 -0.0008746817)
(0.0016276582 0 -0.00082569458)
(0.001580679 0 -0.00074650371)
(0.0015253216 0 -0.0006279704)
(0.0014616746 0 -0.00046027538)
(0.0013903279 0 -0.00023548043)
(0.0013123133 0 5.0766211e-05)
(0.0012290534 0 0.00039935398)
(0.0011421604 0 0.00080649102)
(0.0010531771 0 0.0012634433)
(0.0009636464 0 0.0017564358)
(0.00087503905 0 0.0022684233)
(0.00078870229 0 0.0027804463)
(0.00070584023 0 0.003273896)
(0.00062751336 0 0.0037322956)
(0.00055452638 0 0.0041417199)
(0.00048739913 0 0.0044923681)
(0.00042639547 0 0.004777337)
(0.00037143144 0 0.0049926991)
(0.00032225191 0 0.0051352746)
(0.00027831898 0 0.0052014811)
(0.00023891248 0 0.0051846605)
(0.00020345734 0 0.0050786119)
(0.00017164149 0 0.0048744783)
(0.00014278331 0 0.0045604823)
(0.00011620272 0 0.0041167076)
(9.0294239e-05 0 0.0035059847)
(6.3629887e-05 0 0.0026836768)
(3.4240083e-05 0 0.0015494811)
(0 0 0)
(0.001800486 0 -0.0010073737)
(0.0018002353 0 -0.0010073044)
(0.0018001245 0 -0.0010096143)
(0.0017999621 0 -0.001012344)
(0.0017997296 0 -0.001015568)
(0.0017994013 0 -0.0010193662)
(0.0017989427 0 -0.0010238276)
(0.0017983069 0 -0.001029048)
(0.0017974309 0 -0.0010351281)
(0.0017962303 0 -0.0010421685)
(0.001794593 0 -0.0010502615)
(0.00179237 0 -0.0010594793)
(0.0017893658 0 -0.0010698534)
(0.001785325 0 -0.0010813485)
(0.0017799305 0 -0.0010937472)
(0.0017727933 0 -0.0011064784)
(0.0017634097 0 -0.0011186636)
(0.0017511423 0 -0.0011290618)
(0.0017352298 0 -0.0011357897)
(0.0017147997 0 -0.0011360993)
(0.0016889046 0 -0.0011260912)
(0.001656591 0 -0.001100373)
(0.0016169903 0 -0.0010520182)
(0.0015694535 0 -0.0009727498)
(0.001513687 0 -0.00085331742)
(0.0014498577 0 -0.00068402987)
(0.0013786292 0 -0.00045655245)
(0.0013010846 0 -0.00016647372)
(0.0012186512 0 0.00018655869)
(0.0011329 0 0.00059874793)
(0.00104528 0 0.0010613835)
(0.00095721367 0 0.0015607935)
(0.00087005475 0 0.0020801383)
(0.0007850565 0 0.0026006853)
(0.00070335936 0 0.0031037483)
(0.0006259847 0 0.0035726985)
(0.00055373178 0 0.0039935303)
(0.00048713797 0 0.0043560978)
(0.00042649171 0 0.0046532543)
(0.00037174794 0 0.004880814)
(0.00032267961 0 0.0050352617)
(0.0002787888 0 0.00511285)
(0.00023939513 0 0.0051070738)
(0.00020393675 0 0.0050115316)
(0.00017208115 0 0.004817341)
(0.00014316288 0 0.004512522)
(0.00011648572 0 0.004077011)
(9.0503812e-05 0 0.0034743448)
(6.3766302e-05 0 0.0026590626)
(3.4281725e-05 0 0.0015329565)
(0 0 0)
(0.0017937346 0 -0.0012117231)
(0.0017934798 0 -0.0012117516)
(0.0017933515 0 -0.0012142262)
(0.0017931675 0 -0.0012171507)
(0.0017929083 0 -0.001220606)
(0.001792547 0 -0.001224679)
(0.0017920475 0 -0.0012294673)
(0.0017913608 0 -0.0012350763)
(0.0017904214 0 -0.0012416176)
(0.0017891419 0 -0.0012492041)
(0.001787406 0 -0.0012579422)
(0.0017850599 0 -0.0012679189)
(0.0017819015 0 -0.0012791829)
(0.0017776715 0 -0.0012917175)
(0.0017720547 0 -0.0013052214)
(0.0017646535 0 -0.0013191209)
(0.0017549462 0 -0.0013326153)
(0.001742284 0 -0.0013444311)
(0.0017258985 0 -0.0013526424)
(0.0017049158 0 -0.0013544453)
(0.0016784015 0 -0.0013458347)
(0.0016454341 0 -0.0013211615)
(0.0016051894 0 -0.0012732488)
(0.001557082 0 -0.001193672)
(0.0015009095 0 -0.0010729546)
(0.0014369182 0 -0.00090168449)
(0.0013658452 0 -0.00067140158)
(0.0012888214 0 -0.00037746266)
(0.0012072755 0 -1.9967133e-05)
(0.0011227333 0 0.00039717533)
(0.0010365434 0 0.00086526892)
(0.00095001183 0 0.001370865)
(0.00086437266 0 0.0018972444)
(0.00078078046 0 0.00242586)
(0.00070031284 0 0.0029380049)
(0.00062395107 0 0.0034167921)
(0.00055249342 0 0.0038482943)
(0.00048649164 0 0.0042220147)
(0.00042625881 0 0.0045305881)
(0.00037178712 0 0.0047697613)
(0.00032287699 0 0.0049356692)
(0.00027906902 0 0.0050243034)
(0.00023972166 0 0.0050292808)
(0.00020428727 0 0.0049440041)
(0.00017241767 0 0.0047595659)
(0.0001434613 0 0.0044637983)
(0.00011670949 0 0.004036518)
(9.0669958e-05 0 0.0034419017)
(6.3873794e-05 0 0.0026338455)
(3.4311009e-05 0 0.0015162553)
(0 0 0)
(0.0017861986 0 -0.001411643)
(0.0017859425 0 -0.0014117625)
(0.001785795 0 -0.001414396)
(0.0017855874 0 -0.0014175115)
(0.001785299 0 -0.0014211969)
(0.0017849015 0 -0.0014255469)
(0.0017843571 0 -0.001430666)
(0.0017836148 0 -0.0014366687)
(0.0017826063 0 -0.0014436764)
(0.0017812407 0 -0.0014518133)
(0.0017793975 0 -0.0014611988)
(0.0017769173 0 -0.0014719354)
(0.0017735915 0 -0.00148409)
(0.0017691607 0 -0.0014976149)
(0.0017633097 0 -0.0015121828)
(0.0017556246 0 -0.001527253)
(0.001745567 0 -0.0015420348)
(0.0017324791 0 -0.0015552342)
(0.001715585 0 -0.0015648861)
(0.0016940098 0 -0.0015681386)
(0.0016668437 0 -0.0015607585)
(0.0016332003 0 -0.0015368635)
(0.0015922923 0 -0.0014891593)
(0.0015436046 0 -0.0014090423)
(0.0014870245 0 -0.0012869052)
(0.0014228973 0 -0.0011132648)
(0.0013520214 0 -0.00087991355)
(0.0012755641 0 -0.00058220608)
(0.0011949713 0 -0.00022023818)
(0.0011117053 0 0.00020176187)
(0.0010270195 0 0.00067524836)
(0.00094209976 0 0.0011870092)
(0.00085804381 0 0.0017201637)
(0.00077590803 0 0.0022561982)
(0.00069671906 0 0.0027766353)
(0.00062142493 0 0.0032645414)
(0.00055081936 0 0.0037059941)
(0.00048546592 0 0.0040902536)
(0.00042570083 0 0.004409628)
(0.00037155042 0 0.0046597356)
(0.00032284379 0 0.0048366023)
(0.00027915851 0 0.0049359335)
(0.00023989064 0 0.0049513635)
(0.00020450748 0 0.0048760995)
(0.00017264947 0 0.0047012114)
(0.00014367712 0 0.0044143583)
(0.00011687251 0 0.0039952624)
(9.0791599e-05 0 0.0034086845)
(6.3951704e-05 0 0.0026080441)
(3.4327448e-05 0 0.0014993767)
(0 0 0)
(0.0017779076 0 -0.0016072253)
(0.0017776474 0 -0.0016074515)
(0.0017774785 0 -0.001610261)
(0.0017772447 0 -0.0016135839)
(0.001776924 0 -0.0016175116)
(0.0017764869 0 -0.0016221446)
(0.0017758936 0 -0.0016275952)
(0.0017750907 0 -0.0016339871)
(0.0017740071 0 -0.0016414526)
(0.0017725481 0 -0.0016501285)
(0.0017705885 0 -0.0016601484)
(0.0017679631 0 -0.0016716309)
(0.0017644584 0 -0.0016846652)
(0.0017598169 0 -0.0016991392)
(0.0017537161 0 -0.0017147312)
(0.0017457241 0 -0.00173096)
(0.0017352895 0 -0.0017470078)
(0.0017217442 0 -0.0017615601)
(0.0017043049 0 -0.0017725993)
(0.0016821056 0 -0.0017771639)
(0.0016542695 0 -0.001770703)
(0.0016199306 0 -0.0017472394)
(0.0015783374 0 -0.0016994873)
(0.0015290593 0 -0.0016185886)
(0.0014720743 0 -0.0014949092)
(0.0014078326 0 -0.0013187728)
(0.0013371892 0 -0.0010822266)
(0.0012613534 0 -0.00078072332)
(0.0011817845 0 -0.00041427237)
(0.0010998753 0 1.2667069e-05)
(0.0010167808 0 0.00049171898)
(0.00093353321 0 0.0010094508)
(0.00085109904 0 0.0015488337)
(0.00077045958 0 0.0020915903)
(0.00069259323 0 0.0026195202)
(0.00061841814 0 0.0031158386)
(0.00054871817 0 0.0035665526)
(0.00048406686 0 0.0039607677)
(0.0004248217 0 0.0042904771)
(0.00037103973 0 0.0045509322)
(0.00032257975 0 0.0047381623)
(0.00027905656 0 0.004847829)
(0.00023990091 0 0.0048734017)
(0.00020459613 0 0.0048078861)
(0.00017277507 0 0.0046423349)
(0.00014380897 0 0.0043642488)
(0.00011697332 0 0.0039532785)
(9.0867717e-05 0 0.003374724)
(6.3999354e-05 0 0.0025816777)
(3.4330546e-05 0 0.0014823212)
(0 0 0)
(0.0017688846 0 -0.0017985587)
(0.0017686176 0 -0.0017988831)
(0.0017684256 0 -0.0018018604)
(0.0017681633 0 -0.0018053829)
(0.0017678076 0 -0.0018095477)
(0.0017673274 0 -0.0018144617)
(0.0017666808 0 -0.0018202448)
(0.0017658121 0 -0.001827029)
(0.0017646469 0 -0.0018349562)
(0.0017630868 0 -0.0018441741)
(0.0017610014 0 -0.0018548283)
(0.0017582192 0 -0.001867048)
(0.0017545247 0 -0.0018809316)
(0.0017496609 0 -0.0018963456)
(0.0017432924 0 -0.0019129668)
(0.0017349699 0 -0.0019303356)
(0.0017241304 0 -0.0019476257)
(0.0017100948 0 -0.0019635034)
(0.0016920758 0 -0.0019758903)
(0.0016692321 0 -0.0019815178)
(0.0016407052 0 -0.0019757052)
(0.0016056364 0 -0.0019525285)
(0.0015633327 0 -0.0019045199)
(0.0015134572 0 -0.0018225841)
(0.0014560878 0 -0.0016969736)
(0.0013917566 0 -0.0015181963)
(0.0013213895 0 -0.0012783586)
(0.0012462441 0 -0.00097292989)
(0.0011677808 0 -0.00060190148)
(0.00108733 0 -0.00016967305)
(0.0010058936 0 0.00031491522)
(0.00092434592 0 0.00083807625)
(0.00084356227 0 0.0013830495)
(0.0007644573 0 0.0019319097)
(0.00068795628 0 0.0024666774)
(0.00061494664 0 0.0029707297)
(0.00054620134 0 0.0034300374)
(0.0004823017 0 0.0038335736)
(0.0004236251 0 0.004173091)
(0.00037025655 0 0.0044433832)
(0.00032208524 0 0.0046404436)
(0.0002787629 0 0.0047600757)
(0.00023975168 0 0.0047954732)
(0.0002045522 0 0.0047394314)
(0.00017279319 0 0.0045829939)
(0.00014385557 0 0.004313517)
(0.00011701055 0 0.0039106017)
(9.0897257e-05 0 0.0033400498)
(6.4016061e-05 0 0.0025547657)
(3.4319808e-05 0 0.0014650891)
(0 0 0)
(0.0017591444 0 -0.0019857309)
(0.0017588724 0 -0.0019861525)
(0.0017586554 0 -0.0019892968)
(0.0017583623 0 -0.0019930179)
(0.0017579688 0 -0.0019974185)
(0.001757442 0 -0.0020026123)
(0.001756738 0 -0.0020087267)
(0.0017557982 0 -0.0020159028)
(0.0017545452 0 -0.0020242927)
(0.0017528759 0 -0.0020340561)
(0.0017506548 0 -0.0020453521)
(0.001747704 0 -0.0020583272)
(0.0017438083 0 -0.0020730355)
(0.0017387091 0 -0.0020893463)
(0.0017320547 0 -0.0021069809)
(0.0017233784 0 -0.0021254672)
(0.001712105 0 -0.0021439728)
(0.0016975442 0 -0.0021611556)
(0.0016789191 0 -0.0021747844)
(0.0016554122 0 -0.0021812697)
(0.0016261576 0 -0.0021759851)
(0.0015903186 0 -0.0021530083)
(0.0015472834 0 -0.0021045679)
(0.0014968121 0 -0.0020213362)
(0.0014390867 0 -0.0018933668)
(0.0013747101 0 -0.001711546)
(0.0013046851 0 -0.001468089)
(0.0012303126 0 -0.0011585188)
(0.0011530566 0 -0.00078264429)
(0.0010741462 0 -0.00034500335)
(0.00099439394 0 0.0001446826)
(0.00091456758 0 0.00067272246)
(0.00083546456 0 0.0012227524)
(0.00075792755 0 0.0017771302)
(0.00068282955 0 0.0023181114)
(0.00061102698 0 0.0028292479)
(0.00054328094 0 0.0032965047)
(0.00048017882 0 0.0037087437)
(0.00042211574 0 0.004057496)
(0.00036920307 0 0.0043371034)
(0.00032136144 0 0.0045435323)
(0.00027827769 0 0.0046727552)
(0.00023944243 0 0.004717653)
(0.00020437484 0 0.004670801)
(0.00017270269 0 0.0045232448)
(0.00014381575 0 0.0042622097)
(0.00011698286 0 0.0038672675)
(9.0879208e-05 0 0.003304693)
(6.4001137e-05 0 0.0025273285)
(3.4294754e-05 0 0.0014476831)
(0 0 0)
(0.0017487129 0 -0.0021688269)
(0.0017484322 0 -0.0021693453)
(0.0017481882 0 -0.0021726567)
(0.0017478619 0 -0.0021765764)
(0.0017474277 0 -0.0021812127)
(0.0017468506 0 -0.002186686)
(0.0017460847 0 -0.0021931316)
(0.0017450684 0 -0.0022006994)
(0.0017437206 0 -0.0022095523)
(0.0017419335 0 -0.0022198621)
(0.0017395657 0 -0.0022318026)
(0.0017364354 0 -0.0022455416)
(0.0017323304 0 -0.0022610672)
(0.001726983 0 -0.0022782425)
(0.0017200218 0 -0.002296858)
(0.0017109666 0 -0.0023164315)
(0.0016992285 0 -0.0023361135)
(0.0016841134 0 -0.0023545203)
(0.0016648648 0 -0.0023691803)
(0.0016406638 0 -0.0023764249)
(0.0016106346 0 -0.0023716623)
(0.0015739915 0 -0.0023487395)
(0.0015302186 0 -0.0022995544)
(0.0014791701 0 -0.0022146406)
(0.0014211106 0 -0.002084104)
(0.0013567415 0 -0.0018988488)
(0.0012871282 0 -0.0016514575)
(0.0012136332 0 -0.0013373302)
(0.0011376953 0 -0.00095621684)
(0.001060362 0 -0.00051350027)
(0.00098231256 0 -1.918802e-05)
(0.000904233 0 0.00051328731)
(0.00082683693 0 0.0010678712)
(0.00075089687 0 0.0016272128)
(0.00067723475 0 0.0021738138)
(0.00060667618 0 0.0026914138)
(0.00053996973 0 0.0031659986)
(0.00047770727 0 0.0035863397)
(0.00042029956 0 0.0039437668)
(0.00036788368 0 0.0042322288)
(0.00032041119 0 0.0044475774)
(0.00027760152 0 0.0045859455)
(0.00023897296 0 0.0046400138)
(0.00020406343 0 0.0046020592)
(0.0001725026 0 0.0044631434)
(0.00014368841 0 0.0042103741)
(0.00011688904 0 0.0038233126)
(9.0812588e-05 0 0.0032686851)
(6.3953888e-05 0 0.0024993867)
(3.4254871e-05 0 0.0014301045)
(0 0 0)
(0.001737605 0 -0.0023479299)
(0.0017373169 0 -0.0023485449)
(0.0017370437 0 -0.0023520235)
(0.0017366818 0 -0.0023561416)
(0.0017362038 0 -0.0023610133)
(0.0017355729 0 -0.0023667655)
(0.0017347405 0 -0.0023735412)
(0.0017336422 0 -0.0023814991)
(0.0017321928 0 -0.0023908122)
(0.0017302796 0 -0.0024016634)
(0.0017277549 0 -0.0024142388)
(0.001724437 0 -0.002428694)
(0.0017201139 0 -0.0024450092)
(0.0017145016 0 -0.0024630641)
(0.0017072108 0 -0.0024826558)
(0.0016977501 0 -0.0025032983)
(0.0016855174 0 -0.0025241322)
(0.0016698267 0 -0.0025436122)
(0.0016499309 0 -0.0025591334)
(0.0016249912 0 -0.0025670963)
(0.001594144 0 -0.0025627936)
(0.0015566827 0 -0.0025396699)
(0.0015121876 0 -0.0024892782)
(0.0014605826 0 -0.002402251)
(0.0014022125 0 -0.0022689435)
(0.0013378947 0 -0.0020801055)
(0.0012687755 0 -0.0018284843)
(0.0011962821 0 -0.0015092982)
(0.0011217422 0 -0.0011228192)
(0.001046008 0 -0.00067540494)
(0.00096968636 0 -0.00017683359)
(0.00089337664 0 0.00035966058)
(0.00081771022 0 0.00091832525)
(0.00074339178 0 0.0014821078)
(0.0006711938 0 0.0020337651)
(0.00060191164 0 0.0025572367)
(0.00053628095 0 0.003038552)
(0.00047489659 0 0.0034664137)
(0.00041818334 0 0.0038319678)
(0.00036630375 0 0.0041288864)
(0.0003192384 0 0.0043527758)
(0.00027673593 0 0.0044997844)
(0.00023834339 0 0.0045626257)
(0.00020361754 0 0.0045332681)
(0.00017219208 0 0.0044027445)
(0.00014347256 0 0.0041580566)
(0.0001167279 0 0.0037787739)