/*--------------------------------*- C++ -*----------------------------------*\
  =========                 |
  \\      /  F ield         | OpenFOAM: The Open Source CFD Toolbox
   \\    /   O peration     | Website:  https://openfoam.org
    \\  /    A nd           | Version:  8
     \\/     M anipulation  |
\*---------------------------------------------------------------------------*/
FoamFile
{
    version     2.0;
    format      ascii;
    class       volScalarField;
    location    "0.240005";
    object      rho;
}
// * * * * * * * * * * * * * * * * * * * * * * * * * * * * * * * * * * * * * //

dimensions      [1 -3 0 0 0 0 0];

internalField   nonuniform List<scalar> 
20000
(
0.88854006
0.88870116
0.89158623
0.89864648
0.91304553
0.94078336
0.95097772
0.95418053
0.95211678
0.95420855
0.95340471
0.95529146
0.95535848
0.95741052
0.95832534
0.9608601
0.96276396
0.96611518
0.96933491
0.97394299
0.97894108
0.98537774
0.99273075
1.0017208
1.0122027
1.0245331
1.0390882
1.054874
1.0709584
1.0866999
1.1014127
1.114666
1.1261192
1.1357078
1.1435286
1.1497691
1.1546647
1.1584845
1.1614632
1.1637786
1.1655163
1.166921
1.1682963
1.1694772
1.1701788
1.1706001
1.1707407
1.170673
1.1707373
1.1670044
0.88077445
0.88135612
0.88465736
0.89237641
0.90790352
0.93579511
0.94380975
0.94692567
0.94486419
0.94697758
0.9461859
0.94812443
0.9482181
0.95034773
0.95132261
0.95397659
0.95600695
0.95954724
0.96298388
0.96785761
0.97318096
0.98001312
0.98789144
0.9975693
1.0089395
1.0223794
1.0379462
1.0545131
1.0709702
1.0869956
1.1019122
1.1151989
1.1266122
1.1361239
1.1438604
1.1500247
1.1548591
1.1586375
1.161589
1.1638785
1.1655948
1.1670081
1.1684463
1.1695554
1.1702476
1.1706061
1.1707479
1.1706107
1.170728
1.1669511
0.87355792
0.87444658
0.87815008
0.88650443
0.90328159
0.93104612
0.9370039
0.9400825
0.93803553
0.94020364
0.9394254
0.94142488
0.94155314
0.9437617
0.94481128
0.94758532
0.94975419
0.95347256
0.95712475
0.96226001
0.96791355
0.97516677
0.98363732
0.99413095
1.0065496
1.0214161
1.0377011
1.0545212
1.071321
1.0876133
1.1026176
1.115891
1.1272205
1.1366173
1.1442391
1.1503048
1.1550638
1.1587937
1.1617166
1.163982
1.1656799
1.1671175
1.168629
1.1696962
1.1703219
1.1706631
1.1707577
1.170642
1.1702458
1.1669058
0.86686831
0.8681369
0.87225858
0.88123113
0.89938108
0.92675125
0.93072381
0.93380423
0.9317654
0.93398164
0.9332226
0.93528891
0.93546195
0.93776678
0.93890691
0.94182056
0.94413796
0.94804676
0.9519252
0.95735166
0.96339878
0.97116688
0.98039093
0.99192327
1.0056122
1.0210712
1.0376362
1.0548882
1.0721417
1.0886385
1.1036859
1.1168736
1.1280574
1.13729
1.1447569
1.1506918
1.1553495
1.15901
1.1618861
1.1641114
1.1657835
1.1672578
1.1687999
1.1697967
1.1703828
1.1706937
1.1707899
1.1706315
1.1699737
1.1668176
0.86096345
0.86261374
0.86712668
0.87666963
0.89626951
0.92287623
0.9251044
0.92821371
0.92619197
0.92846801
0.92773728
0.92988269
0.93011483
0.93252936
0.93377099
0.9368266
0.93929389
0.94339272
0.94751607
0.95327949
0.95981398
0.96824175
0.9784931
0.99102195
1.0052478
1.0210435
1.0380746
1.0558412
1.0734141
1.0900332
1.1050343
1.1180724
1.1290574
1.1380833
1.1453623
1.1511409
1.155679
1.159257
1.1620765
1.1642539
1.1659014
1.1674262
1.1689644
1.1699062
1.1704415
1.1707324
1.1708234
1.1706066
1.1693848
1.1667027
0.85563474
0.8577709
0.86272235
0.8728232
0.89395068
0.91943473
0.9202124
0.9233805
0.92137957
0.92372393
0.92303104
0.92526741
0.92556908
0.92809874
0.9294422
0.93263904
0.93526857
0.93958881
0.94401007
0.9502065
0.9573562
0.96674144
0.97773388
0.9907075
1.005231
1.0215187
1.0391369
1.0573282
1.0751508
1.0918036
1.1066836
1.1195037
1.1302351
1.1390115
1.1460689
1.1516653
1.156064
1.1595445
1.1622946
1.1644135
1.1660369
1.1676151
1.1691171
1.1700103
1.1705012
1.1707616
1.1708491
1.1705291
1.1688552
1.1665419
0.85125625
0.8538254
0.85918477
0.86979618
0.8924535
0.9165157
0.91609665
0.91933292
0.91735747
0.9197807
0.91913627
0.92147034
0.92184023
0.92447882
0.92592471
0.92927455
0.93210061
0.93671301
0.94152562
0.94833516
0.95624974
0.96613925
0.97750505
0.99069822
1.0057515
1.0226846
1.0408149
1.0593611
1.0773252
1.0939215
1.1085999
1.1211386
1.1315661
1.1400542
1.1468604
1.1522517
1.1564943
1.1598648
1.1625347
1.1645874
1.1661892
1.1678122
1.1692656
1.1701168
1.170566
1.1707888
1.1708593
1.1703989
1.1683001
1.1663384
0.84761741
0.85065002
0.85643475
0.86753606
0.89167683
0.91409724
0.91272662
0.91604133
0.91410113
0.91661365
0.91602148
0.91844906
0.91887881
0.92162662
0.92320323
0.92675712
0.92984482
0.93486603
0.94027703
0.94756135
0.95580912
0.96599724
0.97752617
0.99129771
1.0070004
1.0245083
1.0431009
1.0619062
1.0799186
1.0963686
1.1107693
1.1229649
1.1330409
1.1412048
1.1477323
1.1528974
1.1569685
1.1602173
1.1627963
1.1647762
1.1663585
1.1680136
1.169408
1.1702203
1.1706366
1.1708171
1.1708592
1.170182
1.1678364
1.1661312
0.84471149
0.84823206
0.85447683
0.86607261
0.89157971
0.91221424
0.91010354
0.91349581
0.91158115
0.91416868
0.91361211
0.91612572
0.91663928
0.91953612
0.92131315
0.92518624
0.92868354
0.93408751
0.93977353
0.94728784
0.95573105
0.96606996
0.97824
0.99260933
1.0089248
1.0269789
1.0459538
1.0649309
1.0828946
1.099112
1.1131628
1.1249589
1.1346408
1.1424486
1.1486734
1.1535944
1.1574808
1.1605976
1.1630765
1.1649795
1.1665448
1.1682173
1.169544
1.1703175
1.1707095
1.1708539
1.1708562
1.1698802
1.1674834
1.1659486
0.84261297
0.84656652
0.85332029
0.8654401
0.89211142
0.91088137
0.90818887
0.91164351
0.9097357
0.91237711
0.91184143
0.91446412
0.91517802
0.91836392
0.92040081
0.92452361
0.92821255
0.93378141
0.93965376
0.94727145
0.9560112
0.96693245
0.97963221
0.99461256
1.011521
1.0300582
1.0493427
1.0683998
1.0862222
1.1021237
1.1157568
1.127101
1.1363502
1.1437739
1.1496752
1.1543365
1.1580268
1.1610027
1.1633733
1.165198
1.1667489
1.1684209
1.1696743
1.1704052
1.1707777
1.1709048
1.1708412
1.1695317
1.1672154
1.165783
0.84100659
0.84549406
0.85279425
0.86552435
0.89309386
0.91001538
0.90685814
0.91038625
0.90850249
0.91129136
0.91088591
0.91366782
0.91456986
0.91788505
0.92002721
0.9242692
0.92809282
0.93373586
0.93972954
0.94775803
0.95699537
0.968398
0.98169869
0.9972672
1.0147306
1.0337
1.0532172
1.0722661
1.0898587
1.105367
1.1185205
1.1293669
1.1381505
1.1451664
1.150727
1.1551159
1.1586011
1.1614285
1.163684
1.1654313
1.166972
1.1686222
1.169799
1.1704872
1.170841
1.1709617
1.1708038
1.1691824
1.1669945
1.1656577
0.84005042
0.84498228
0.85285074
0.86630562
0.89442157
0.9095972
0.90607505
0.90975227
0.90792464
0.91082311
0.91050345
0.91344416
0.91432952
0.91772797
0.91993735
0.92422824
0.92813492
0.93405808
0.94046226
0.94886749
0.95857588
0.97052426
0.98439271
1.0005367
1.0185237
1.0378673
1.05754
1.076492
1.0937689
1.1088107
1.1214279
1.1317354
1.1400248
1.1466135
1.1518194
1.1559257
1.1591987
1.1618713
1.1640063
1.1656785
1.1672138
1.1688215
1.1699184
1.1705641
1.1709018
1.171018
1.1707513
1.1688461
1.1668005
1.1655419
0.83949759
0.84490115
0.85337467
0.86769436
0.89596897
0.90952675
0.90581584
0.90954267
0.90776521
0.91070952
0.91044485
0.91341863
0.91428187
0.91771883
0.9200189
0.92453356
0.92874311
0.93496022
0.94171308
0.95054406
0.96075078
0.97322015
0.98766593
1.0043698
1.0228464
1.042508
1.0622582
1.0810279
1.0979081
1.112417
1.1244481
1.1341821
1.1419547
1.1481012
1.1529419
1.1567585
1.1598143
1.1623271
1.1643376
1.1659379
1.1674712
1.16902
1.1700343
1.1706349
1.1709573
1.1710707
1.1706778
1.1685293
1.1666287
1.1654419
0.83927996
0.84510556
0.85420032
0.8695516
0.8975455
0.90963275
0.90575583
0.90951102
0.90774108
0.91074985
0.91045134
0.91350712
0.91447
0.91810023
0.92061458
0.92535498
0.92982804
0.93636315
0.94351184
0.95276202
0.96346326
0.97646894
0.99148487
1.0087369
1.0276682
1.0475871
1.0673344
1.0858357
1.1022411
1.1161551
1.1275556
1.1366866
1.1439242
1.1496173
1.1540854
1.1576075
1.1604428
1.1627923
1.1646761
1.1662077
1.1677404
1.1692176
1.1701517
1.1707011
1.1710023
1.1711105
1.1705699
1.1682396
1.1664761
1.1653524
0.83920527
0.84547036
0.85520653
0.87179244
0.89904265
0.90983541
0.90583988
0.9096826
0.90791024
0.91100586
0.91079526
0.91397762
0.91512679
0.91894318
0.92165317
0.92663428
0.93139916
0.93825062
0.94578488
0.9554665
0.96667417
0.98021641
0.99580637
1.0135923
1.0329414
1.0530533
1.0727166
1.0908658
1.1067243
1.1199885
1.130721
1.1392262
1.1459159
1.1511487
1.1552402
1.1584655
1.1610792
1.1632631
1.1650198
1.1664858
1.1680158
1.1694131
1.1702745
1.1707684
1.1710372
1.1711368
1.170408
1.1679849
1.1663371
1.1652741
0.83950434
0.84621395
0.85659696
0.87462706
0.90070078
0.91042544
0.90633416
0.9101847
0.90853061
0.91180297
0.91162523
0.91497431
0.91622222
0.92021793
0.92313045
0.9283432
0.93339469
0.94057022
0.94850778
0.95862894
0.97035268
0.98444327
1.0006088
1.0189142
1.0386388
1.0588741
1.0783683
1.096082
1.1113244
1.1238887
1.1339211
1.1417823
1.1479156
1.1526845
1.1563978
1.1593262
1.1617187
1.1637364
1.1653672
1.1667705
1.1682878
1.1696052
1.1704011
1.1708428
1.1710697
1.1711455
1.1701833
1.1677687
1.1662087
1.1652047
0.84015339
0.84729814
0.85833075
0.87795799
0.90248149
0.91130979
0.90719437
0.91117073
0.9095632
0.91282307
0.91286423
0.91630255
0.91769926
0.92186779
0.92498055
0.93043317
0.93578328
0.94328972
0.95163868
0.96221253
0.97446578
0.98911496
1.0058581
1.0246648
1.0447164
1.0650009
1.0842399
1.1014382
1.116001
1.1278223
1.1371293
1.1443345
1.1499079
1.1542133
1.1575498
1.1601835
1.1623566
1.1642089
1.1657166
1.1670596
1.1685476
1.1697908
1.1705324
1.170929
1.1711078
1.1711464
1.169913
1.1675707
1.1660904
1.1651427
0.84120747
0.84877856
0.86047666
0.88187514
0.90443668
0.91246351
0.90842528
0.91247195
0.91092402
0.9143231
0.9143774
0.91796306
0.91950253
0.92384966
0.92717469
0.93287001
0.93852989
0.94637974
0.95515724
0.96619946
0.9789983
0.99422029
1.011542
1.0308268
1.0511492
1.0714022
1.0902968
1.1069005
1.1207241
1.131764
1.1403252
1.1468672
1.1518807
1.1557255
1.1586892
1.1610318
1.1629889
1.1646779
1.1660669
1.1673511
1.1687936
1.1699644
1.1706623
1.1710258
1.1711631
1.1711426
1.1696178
1.16738
1.1659832
1.1650892
0.84250489
0.85051175
0.8629053
0.88614011
0.90647008
0.91394075
0.90995559
0.91405895
0.91253396
0.91604361
0.91617974
0.9199103
0.92160302
0.92613397
0.92967935
0.93562927
0.94161269
0.94981782
0.95903948
0.97056678
0.98392907
0.99973627
1.0176346
1.0373662
1.0578954
1.0780299
1.0964913
1.1124253
1.1254566
1.1356841
1.143486
1.1493629
1.1538211
1.1572117
1.1598086
1.1618661
1.1636115
1.165141
1.1664167
1.1676443
1.1690288
1.170123
1.1707784
1.1711207
1.1712492
1.1711212
1.1693057
1.1671923
1.165885
1.1650436
0.84402321
0.85248577
0.86561484
0.89071203
0.90857925
0.91570854
0.91169019
0.91588635
0.91439728
0.91803831
0.91824855
0.92213734
0.92397619
0.92869791
0.93247773
0.93868975
0.94501235
0.95358872
0.96327441
0.97530738
0.98925325
1.0056596
1.024128
1.0442672
1.0649297
1.0848525
1.1027898
1.1179808
1.1301711
1.1395606
1.1465951
1.1518091
1.1557194
1.1586643
1.1609024
1.1626821
1.1642211
1.1655959
1.1667649
1.1679381
1.1692582
1.1702699
1.1708807
1.1712083
1.1713395
1.1710649
1.1689841
1.1670083
1.1657958
1.1650053
0.84576157
0.8546893
0.8686035
0.89550586
0.91078746
0.91764161
0.9136444
0.91793809
0.91649181
0.92025531
0.92057199
0.92460551
0.92660613
0.9315268
0.93555211
0.94203901
0.94871616
0.95767963
0.96784913
0.98040931
0.99495885
1.0119749
1.0309993
1.051496
1.0722089
1.0918232
1.1091462
1.1235262
1.1348341
1.1433687
1.1496343
1.154192
1.1575655
1.1600762
1.1619647
1.1634757
1.1648147
1.1660407
1.1671101
1.1682314
1.1694867
1.1704134
1.1709726
1.1712789
1.1714013
1.170962
1.1686638
1.1668336
1.1657155
1.164974
0.84766307
0.85706067
0.87183564
0.90039521
0.91308049
0.91976031
0.91578004
0.9201978
0.91881944
0.92270187
0.92312059
0.92731227
0.92948163
0.9346072
0.93889179
0.94566361
0.95271435
0.96208428
0.97276162
0.98587353
1.001049
1.0186827
1.038242
1.0590345
1.0797058
1.098909
1.115527
1.1290309
1.1394219
1.1470916
1.1525915
1.1565026
1.1593528
1.1614424
1.1629913
1.1642429
1.1653898
1.1664737
1.167451
1.1685225
1.1697161
1.1705586
1.1710583
1.1713268
1.1714306
1.1707928
1.1683587
1.1666717
1.1656432
1.16495
0.84981159
0.85966788
0.87539729
0.90531213
0.91534832
0.92209853
0.91813642
0.92266893
0.92135752
0.92536345
0.92589351
0.93024141
0.93258994
0.93792767
0.94248675
0.94955792
0.95700095
0.96679808
0.97800747
0.99169705
1.0075174
1.0257713
1.0458313
1.0668468
1.0873742
1.1060609
1.1218862
1.1344572
1.1439079
1.1507109
1.155453
1.1587309
1.1610746
1.162758
1.1639781
1.1649794
1.1659441
1.1668934
1.167786
1.1688091
1.1699416
1.1707058
1.1711453
1.1713642
1.1714414
1.1705412
1.1680842
1.1665271
1.1655836
1.1649367
0.85212403
0.86242813
0.87923843
0.91028494
0.91800497
0.92463185
0.92069408
0.92534383
0.92408989
0.92822731
0.92887005
0.93338404
0.93592114
0.94148208
0.94633173
0.95371597
0.96157367
0.97182248
0.98359241
0.99788714
1.0143716
1.0332409
1.0537576
1.0749097
1.0951826
1.1132435
1.1281907
1.1397816
1.1482786
1.1542161
1.1582092
1.1608708
1.1627269
1.164019
1.1649231
1.1656815
1.1664756
1.1672989
1.1681136
1.1690884
1.1701562
1.1708538
1.1712425
1.1714112
1.1714424
1.1702016
1.1678474
1.1664003
1.1655351
1.1649279
0.85467271
0.86540435
0.88341047
0.91529793
0.92064275
0.92735388
0.92344245
0.92820085
0.92701006
0.9312756
0.93204666
0.93673143
0.93947178
0.94526557
0.95042375
0.95813787
0.96643366
0.97716045
0.98951966
1.0044463
1.0216079
1.0410781
1.0619915
1.0831813
1.1030809
1.1204074
1.1344004
1.1449809
1.1525203
1.1575934
1.160847
1.1629148
1.1643043
1.1652195
1.1658241
1.1663473
1.1669817
1.1676895
1.1684324
1.1693579
1.170355
1.1709938
1.1713462
1.1714851
1.171438
1.169825
1.1676213
1.1662892
1.1654956
1.1649277
0.85746496
0.86856746
0.88788317
0.92029855
0.92346576
0.93023234
0.92636785
0.93122084
0.93011308
0.93451154
0.93541667
0.94028171
0.94323949
0.94927667
0.95476175
0.96282415
0.97158594
0.98282116
0.99580075
1.011386
1.029234
1.0492799
1.0705166
1.0916316
1.1110325
1.1275173
1.1404939
1.1500495
1.1566272
1.1608312
1.1633568
1.1648576
1.1658015
1.1663545
1.1666789
1.1669793
1.16746
1.1680646
1.1687413
1.1696172
1.1705386
1.1711172
1.1714392
1.1715756
1.171386
1.1694337
1.1674066
1.1661921
1.1654616
1.1649306
0.86040774
0.87187078
0.8926106
0.92527357
0.92638862
0.93326542
0.92945324
0.93441038
0.93338952
0.93793023
0.93897915
0.94403292
0.94722288
0.95351445
0.95934794
0.96778155
0.97703931
0.98881405
1.002444
1.0187105
1.0372451
1.0578262
1.0792957
1.1002109
1.1189837
1.1345297
1.1464516
1.1549776
1.1605776
1.1639079
1.1657301
1.1666927
1.1672102
1.1674222
1.1674815
1.1675844
1.1679097
1.1684237
1.1690397
1.169868
1.1707123
1.1712267
1.1715101
1.1716308
1.1712755
1.1690465
1.1672054
1.1661071
1.1654342
1.1649353
0.86365208
0.87542272
0.89765626
0.93021303
0.92948483
0.93646353
0.93270324
0.93776514
0.93684086
0.94152819
0.94273568
0.9479839
0.95142256
0.95798128
0.96418824
0.97301901
0.98280613
0.99515369
1.009464
1.0264318
1.0456452
1.0667068
1.0883025
1.1088812
1.1268965
1.1414229
1.1522732
1.1597491
1.1643374
1.1668095
1.1679609
1.1684171
1.168533
1.1684264
1.1682253
1.1681669
1.168334
1.168766
1.1693269
1.1701121
1.1708789
1.1713264
1.1715619
1.1716575
1.1710824
1.1686817
1.1670226
1.1660361
1.1654157
1.1649406
0.86707123
0.87910626
0.90290978
0.93503999
0.93269374
0.93980094
0.93610537
0.94128056
0.94046165
0.94531474
0.94668481
0.95213494
0.95583954
0.96268405
0.9692934
0.97855144
0.98890063
1.001853
1.0168702
1.0345532
1.0544234
1.0758916
1.0974888
1.1175862
1.1347237
1.1481771
1.1579458
1.1643111
1.1678811
1.1695209
1.1700517
1.1700404
1.1697837
1.1693619
1.1689111
1.1687127
1.168741
1.1690904
1.1696019
1.170346
1.1710393
1.171426
1.1716056
1.1716636
1.1707948
1.1683606
1.1668611
1.165976
1.1654074
1.1649549
0.87076057
0.8830162
0.90841684
0.93981822
0.93608252
0.94330885
0.9396834
0.94496983
0.94426738
0.94927298
0.95082449
0.95648626
0.96048364
0.96763499
0.97467809
0.9843939
0.99533878
1.0089283
1.0246779
1.0430846
1.0635764
1.0853598
1.106817
1.1262853
1.1424408
1.1547926
1.1634276
1.1686315
1.1711862
1.1720518
1.1720354
1.1715624
1.1709488
1.1702317
1.1695496
1.1692058
1.1691388
1.1693965
1.1698636
1.1705627
1.1711905
1.1715311
1.1716618
1.1716613
1.17041
1.1680982
1.1667206
1.1659246
1.1654043
1.1649728
0.87474535
0.88716111
0.91409519
0.94449902
0.93961587
0.94696786
0.94341708
0.94882076
0.94824269
0.95340915
0.95516237
0.96105144
0.96536906
0.97284998
0.98035933
0.99056279
1.0021359
1.0163927
1.0328964
1.0520235
1.0730838
1.0950674
1.1162307
1.1349258
1.1500222
1.1612521
1.1686532
1.1726691
1.1742531
1.1744537
1.1738858
1.17298
1.1720328
1.1710348
1.1701371
1.1696581
1.1695209
1.169685
1.1701113
1.1707612
1.1713252
1.1716291
1.1717462
1.1716342
1.1699885
1.1678554
1.1665964
1.1658782
1.1654035
1.1649949
0.87896301
0.89156919
0.91996264
0.94912525
0.94331186
0.95078399
0.94730991
0.95283586
0.95239497
0.95773325
0.9597145
0.96584776
0.9705133
0.97834623
0.98635254
0.99707495
1.0093086
1.0242636
1.0415397
1.0613748
1.0829306
1.1049805
1.1256859
1.1434774
1.1574646
1.1674981
1.1735842
1.1764098
1.1771435
1.1767044
1.1756071
1.1742959
1.1730354
1.1717718
1.1706745
1.1700743
1.169883
1.1699589
1.1703456
1.1709461
1.1714439
1.1717154
1.171827
1.1715487
1.1695599
1.1676288
1.1664894
1.1658422
1.1654074
1.1650229
0.88339947
0.89622515
0.92590552
0.95369525
0.94715143
0.95474605
0.95136127
0.95702281
0.95674043
0.96226769
0.96449947
0.97089343
0.97593193
0.98413943
0.99267453
1.0039476
1.016873
1.0325548
1.0506143
1.0711267
1.0930813
1.1150417
1.1351255
1.1519058
1.1647489
1.1734525
1.1781751
1.1798858
1.1798747
1.1787916
1.177198
1.1755116
1.1739585
1.1724433
1.1711655
1.170459
1.1702166
1.1702232
1.170567
1.1711238
1.1715501
1.1717758
1.17186
1.1713912
1.1691471
1.1674188
1.1664014
1.1658253
1.1654218
1.1650567
0.88806245
0.90116201
0.9318961
0.95824803
0.95115193
0.95888126
0.95560318
0.96141263
0.96130862
0.96703462
0.96953217
0.97620075
0.98163927
0.99024414
0.9993417
1.0111983
1.0248476
1.0412842
1.0601309
1.0812729
1.1035055
1.1252064
1.1445116
1.1602006
1.1718157
1.179066
1.1824125
1.1831743
1.1824142
1.1807202
1.1786639
1.1766307
1.174804
1.1730519
1.1716146
1.1708155
1.1705166
1.1704802
1.1707752
1.1712957
1.1716505
1.1718213
1.1718717
1.1711451
1.1687716
1.1672297
1.1663272
1.1658172
1.1654433
1.165096
0.89296613
0.90642641
0.93794319
0.96283608
0.9553454
0.96322262
0.960067
0.96602725
0.9661128
0.97204119
0.9748236
0.98177932
0.98764847
0.99667847
1.0063721
1.0188459
1.0332493
1.0504652
1.0700886
1.0917868
1.1141499
1.1354112
1.1537986
1.1683396
1.1785729
1.1842892
1.1863507
1.1862633
1.1847593
1.1824917
1.1800077
1.1776559
1.1755739
1.1736005
1.1720239
1.1711434
1.1707907
1.1707259
1.1709688
1.1714564
1.1717537
1.1718721
1.1718703
1.1708013
1.1684529
1.1670649
1.1662635
1.1658132
1.1654703
1.1651405
0.89816585
0.91208564
0.94406909
0.96751788
0.95977198
0.96777892
0.96475512
0.9708665
0.97115153
0.97728897
0.98038393
0.98764295
0.99397734
1.0034609
1.0137847
1.0269102
1.0420992
1.0601148
1.0804896
1.1026456
1.12497
1.1456118
1.1629635
1.1762774
1.1849516
1.1891025
1.1900705
1.189126
1.1869143
1.1841128
1.1812354
1.1785916
1.1762711
1.1740918
1.1723942
1.1714425
1.1710441
1.1709594
1.1711473
1.1715966
1.1718515
1.1719503
1.1718522
1.1703668
1.1681875
1.1669268
1.1662123
1.1658123
1.1655028
1.1651902
0.90364567
0.91812623
0.95022795
0.9723178
0.96441235
0.97254548
0.96965766
0.97592291
0.97642701
0.98278774
0.98622661
0.99381053
1.0006451
1.0106115
1.0215991
1.0354123
1.051417
1.0702419
1.0913186
1.1138025
1.1359007
1.1557535
1.1719786
1.1839085
1.1908979
1.193563
1.193558
1.1917584
1.1888832
1.1855884
1.1823516
1.1794413
1.1768981
1.1745282
1.1727265
1.1717149
1.1712802
1.1711805
1.1713135
1.1717161
1.1719359
1.1720309
1.1717718
1.1699175
1.167945
1.1668175
1.166191
1.1658273
1.1655416
1.1652443
0.9093715
0.9245258
0.95639333
0.97733534
0.96923396
0.97750678
0.97477156
0.98120787
0.98195511
0.98856188
0.99237109
1.0003028
1.00767
1.018149
1.0298364
1.0443757
1.061226
1.0808572
1.1025625
1.1252152
1.1468927
1.1658025
1.1808218
1.1911355
1.1963798
1.1977576
1.1967859
1.1941675
1.1906744
1.1869261
1.1833627
1.18021
1.1774585
1.1749124
1.1730228
1.1719626
1.1715003
1.171389
1.1714736
1.1718213
1.1719966
1.1720627
1.171622
1.1694784
1.1677247
1.166729
1.1661825
1.1658476
1.1655833
1.1653009
0.9153145
0.93123721
0.96253857
0.98245745
0.97425936
0.98267879
0.98012851
0.98674588
0.98776325
0.99463273
0.99884004
1.007135
1.0150692
1.0260965
1.0385202
1.0538271
1.0715432
1.0919593
1.1141819
1.1368205
1.1578798
1.1757179
1.189377
1.1978982
1.201436
1.2016921
1.1997432
1.1963583
1.1922942
1.1881321
1.184274
1.1809018
1.1779554
1.1752473
1.1732857
1.1721874
1.171704
1.1715831
1.1716293
1.1719181
1.1720442
1.1720762
1.17139
1.1690757
1.1675296
1.1666548
1.1661795
1.1658711
1.1656261
1.1653586
0.92158331
0.9383301
0.9687482
0.98759605
0.97955517
0.98810566
0.98575491
0.9925554
0.99386587
1.0010122
1.0056492
1.0143244
1.0228636
1.0344785
1.0476795
1.0637945
1.0823891
1.1035427
1.1261418
1.1485628
1.168819
1.1854755
1.1975399
1.2041479
1.2061594
1.2053351
1.2024408
1.1983413
1.1937526
1.1892149
1.1850922
1.1815213
1.1783914
1.1755362
1.1735186
1.1723912
1.1718901
1.1717595
1.1717758
1.1720143
1.172096
1.1720746
1.1710618
1.1687292
1.1673616
1.1665919
1.1661785
1.165899
1.1656695
1.1654168
0.9281769
0.94578784
0.97502798
0.99318641
0.98510301
0.99378981
0.99165659
0.99864924
1.0002799
1.0077011
1.0128084
1.021893
1.0310789
1.0433267
1.0573478
1.0743054
1.0937732
1.115581
1.138381
1.1603701
1.1796522
1.1949937
1.2052089
1.2098843
1.2105989
1.2086626
1.2048842
1.2001249
1.1950573
1.1901812
1.1858226
1.182071
1.1787669
1.1757828
1.1737246
1.172576
1.1720582
1.1719138
1.171908
1.1721053
1.1721767
1.172042
1.1706203
1.1684537
1.16722
1.1665415
1.1661822
1.1659305
1.1657134
1.1654758
0.9350703
0.95359587
0.98141715
0.99891169
0.99091444
0.99974147
0.99784383
1.0050363
1.0070105
1.0147201
1.0203396
1.02987
1.0397481
1.0526766
1.0675591
1.0853886
1.1057012
1.1280457
1.1508436
1.1721889
1.1903446
1.2041499
1.212333
1.215203
1.2147154
1.2116902
1.2070865
1.2017212
1.1962188
1.1910397
1.1864718
1.1825547
1.1790829
1.1759914
1.1739058
1.1727427
1.1722104
1.1720483
1.1720283
1.1721862
1.1722475
1.1719482
1.170157
1.1681994
1.1671005
1.1665063
1.1661963
1.1659664
1.1657598
1.1655364
0.9421919
0.9617371
0.98793816
1.0049106
0.99700182
1.0059662
1.0043183
1.0117226
1.0140708
1.0221018
1.028274
1.0382923
1.0489083
1.0625684
1.0783494
1.0970639
1.1181595
1.140882
1.1634513
1.1839498
1.2008396
1.2128001
1.2188588
1.2202041
1.2184698
1.2144231
1.2090577
1.2031398
1.1972455
1.1917976
1.187045
1.1829763
1.1793452
1.176167
1.1740635
1.1728905
1.1723461
1.1721694
1.1721422
1.1722462
1.1722739
1.1717896
1.1697025
1.1679704
1.1670036
1.1664882
1.1662197
1.1660073
1.1658097
1.1655992
0.94959383
0.97025571
0.99465121
1.0111453
1.0033619
1.0124562
1.0110925
1.0187313
1.021503
1.0298738
1.0366535
1.0472002
1.0586009
1.073043
1.089754
1.1093464
1.131128
1.154035
1.1761411
1.1955998
1.2110171
1.2208768
1.2248789
1.224846
1.2218774
1.2168772
1.2108126
1.2043935
1.1981482
1.192463
1.187548
1.1833436
1.1795704
1.1763151
1.1741985
1.1730193
1.1724667
1.1722807
1.1722498
1.1722999
1.1722819
1.1715595
1.1692877
1.1677692
1.1669265
1.1664806
1.166247
1.1660512
1.1658629
1.1656656
0.9571416
0.97899781
1.0015783
1.0175537
1.0099749
1.0192407
1.0182107
1.0261112
1.0293395
1.0380858
1.0455171
1.0566369
1.0688726
1.0841441
1.101803
1.1222345
1.1445596
1.1674238
1.1888326
1.207073
1.2207201
1.2283058
1.2304887
1.2290948
1.2249444
1.2190643
1.212363
1.2054928
1.1989355
1.1930425
1.1879854
1.1836638
1.1797782
1.1764405
1.1743115
1.1731303
1.172574
1.1723829
1.1723453
1.1723769
1.1722785
1.1712369
1.1689379
1.1675993
1.1668648
1.1664786
1.1662731
1.1660899
1.1659104
1.1657431
0.96496172
0.9881261
1.008278
1.0243396
1.0169819
1.0264194
1.0257401
1.0339072
1.0376232
1.0467661
1.0549081
1.0666552
1.0797704
1.0959138
1.1145201
1.1357171
1.1584021
1.1809768
1.2014597
1.2182928
1.2298245
1.2351182
1.2357202
1.232939
1.2276897
1.2210023
1.2137248
1.2064511
1.199618
1.1935441
1.1883632
1.1839413
1.1799605
1.1765419
1.174404
1.1732271
1.1726699
1.1724749
1.1724347
1.1724598
1.1722277
1.1708082
1.1686709
1.1674587
1.1668128
1.1664793
1.1662994
1.1661262
1.1659528
1.1658239
0.97305508
0.99769106
1.0155048
1.0314714
1.0243597
1.0339783
1.0336843
1.0421295
1.046399
1.0559721
1.0648796
1.0773098
1.0913463
1.1083906
1.1279151
1.149756
1.1725764
1.1946023
1.2139386
1.229079
1.2382485
1.2414098
1.2405223
1.2363929
1.2301265
1.2227054
1.214911
1.207279
1.2002039
1.1939737
1.1886881
1.1841788
1.1800392
1.176597
1.1744778
1.1733145
1.1727605
1.1725588
1.1725099
1.1725019
1.1721189
1.1703659
1.1684292
1.1673391
1.1667694
1.1664856
1.1663279
1.1661649
1.1659972
1.1659022
0.98130653
1.0076911
1.023394
1.0389628
1.0321368
1.0419503
1.0420833
1.0508301
1.0557207
1.0657634
1.0754922
1.0886564
1.1036468
1.1216043
1.141983
1.1643027
1.1870021
1.2082231
1.2262014
1.2392735
1.2459513
1.2472934
1.2448582
1.2394746
1.2322762
1.2241931
1.2159376
1.2079887
1.2007013
1.194338
1.1889684
1.1843849
1.180061
1.1766287
1.1745371
1.1733966
1.1728512
1.1726418
1.1725688
1.1725189
1.1719532
1.1699313
1.1682122
1.1672453
1.1667469
1.1665016
1.1663587
1.166206
1.1660438
1.1659781
0.98983134
1.0182178
1.0312365
1.0468653
1.0403646
1.050383
1.0509916
1.0600684
1.0656423
1.0762061
1.0868054
1.1007527
1.1167159
1.1355724
1.1566959
1.1792779
1.201577
1.2217337
1.2380864
1.2487526
1.2530266
1.252699
1.248748
1.2422008
1.2341563
1.2254809
1.2168167
1.208588
1.2011156
1.1946425
1.1892101
1.1845584
1.1800559
1.1766464
1.1745863
1.173474
1.1729378
1.1727181
1.1726201
1.1725188
1.1717313
1.1695275
1.1680188
1.1671715
1.1667375
1.1665237
1.1663914
1.1662504
1.1660931
1.1660516
0.99860997
1.029249
1.0395978
1.0552191
1.0490916
1.0593285
1.060475
1.0699143
1.0762378
1.0873686
1.0988814
1.1136482
1.1305875
1.1502966
1.1720092
1.1945978
1.21621
1.2350488
1.2494098
1.2574414
1.2596031
1.2575939
1.2522096
1.2445966
1.2357899
1.2265875
1.2175615
1.2090858
1.2014549
1.194896
1.1894175
1.1846581
1.1800347
1.1766576
1.1746283
1.173545
1.1730152
1.1727845
1.1726751
1.1725087
1.1714314
1.1691823
1.1678525
1.1671121
1.1667351
1.1665503
1.1664283
1.1662986
1.1661459
1.1661217
1.0077066
1.0408878
1.0483675
1.0640793
1.0583857
1.0688489
1.0706099
1.0804477
1.0875846
1.0993127
1.1117725
1.1273897
1.1452852
1.1657588
1.187848
1.210151
1.2307847
1.2480416
1.259984
1.2653831
1.265664
1.2619712
1.255263
1.2466822
1.2371951
1.2275264
1.2181812
1.2094911
1.2017316
1.195111
1.1895961
1.1847002
1.1799852
1.1766622
1.1746652
1.1736091
1.1730829
1.1728426
1.1727271
1.1724471
1.1710361
1.1689159
1.1677152
1.1670635
1.1667353
1.1665791
1.1664709
1.1663495
1.1662036
1.1661865
1.0172087
1.0532201
1.0576971
1.0735317
1.0683151
1.0790228
1.0814656
1.0917462
1.0997429
1.1120995
1.1255256
1.1420108
1.1608182
1.1819178
1.204125
1.2258303
1.2451914
1.2604986
1.2697212
1.2727049
1.2711652
1.2658593
1.2579363
1.248485
1.2383941
1.2283137
1.2186894
1.2098219
1.2019658
1.1953028
1.1897453
1.1847119
1.1799171
1.1766587
1.1747005
1.1736683
1.1731432
1.172887
1.1727493
1.1723327
1.1706156
1.1686843
1.1675994
1.1670262
1.1667423
1.1666078
1.1665101
1.1663951
1.1662766
1.1662439
1.0271354
1.0662192
1.0676521
1.0836381
1.0789807
1.0899362
1.0931474
1.1038393
1.1127567
1.1257798
1.140186
1.1575484
1.1771802
1.1987051
1.2207194
1.2415034
1.2592938
1.2721994
1.2785834
1.2794716
1.2760711
1.2692773
1.2602539
1.2500268
1.2394033
1.2289629
1.219104
1.2101006
1.2021698
1.1954715
1.1898312
1.1847057
1.1798334
1.1766509
1.1747367
1.1737239
1.1731966
1.1729212
1.1727578
1.1721637
1.1702028
1.1684753
1.1675003
1.1669968
1.1667534
1.1666361
1.166546
1.1664375
1.1663558
1.166294
1.0376042
1.079934
1.0783276
1.0944704
1.0904604
1.1016522
1.1056887
1.1168022
1.1266737
1.1404105
1.1558076
1.174023
1.1943378
1.2160262
1.2375057
1.2570341
1.2728883
1.2830074
1.2867011
1.2856165
1.2804199
1.2722587
1.2622478
1.2513338
1.2402427
1.2294936
1.2194496
1.2103382
1.2023227
1.1955814
1.1898799
1.1846757
1.1797398
1.1766363
1.1747658
1.1737764
1.1732457
1.1729539
1.172758
1.1719443
1.1698149
1.1682841
1.1674201
1.166982
1.1667713
1.1666683
1.166585
1.1664844
1.1664249
1.1663406
1.0487579
1.0944234
1.089801
1.1060812
1.1028093
1.114219
1.1191196
1.1306883
1.1415557
1.1560607
1.1724441
1.1914435
1.2122261
1.2337484
1.2543288
1.2722589
1.2857131
1.2928256
1.2942057
1.2910804
1.2842296
1.2748321
1.2639438
1.2524262
1.2409301
1.2299274
1.2197396
1.2104997
1.2024161
1.1956481
1.1899061
1.184619
1.1796398
1.1766145
1.1747866
1.1738229
1.1732881
1.1729918
1.1727429
1.171666
1.1694678
1.1681154
1.1673557
1.1669763
1.1667964
1.1667069
1.1666295
1.1665396
1.1664826
1.1663811
1.0607034
1.1096613
1.1021436
1.1185092
1.1160648
1.1276791
1.1335002
1.1455716
1.1574953
1.172819
1.1901421
1.2097772
1.2307371
1.2517196
1.2710242
1.2869844
1.2975795
1.301781
1.301008
1.29591
1.2875403
1.2770356
1.2653731
1.2533291
1.241491
1.2302889
1.2199531
1.2105963
1.2024686
1.1956877
1.1899195
1.1845402
1.1795367
1.1765881
1.1748009
1.1738531
1.1733168
1.1730136
1.1726905
1.1713135
1.1691817
1.1679726
1.1673046
1.1669752
1.1668246
1.1667467
1.1666738
1.1666079
1.1665318
1.1664194
1.073528
1.1254757
1.1153819
1.131776
1.1302635
1.1420924
1.1489552
1.1616025
1.1746055
1.1907678
1.2089083
1.2289491
1.2497168
1.269754
1.287391
1.3009031
1.3083521
1.3100242
1.3070476
1.3001241
1.2903844
1.2788994
1.2665604
1.2540654
1.2419509
1.2305832
1.2200837
1.2106501
1.2024991
1.1957116
1.1899227
1.184442
1.1794339
1.1765582
1.1748098
1.1738709
1.1733324
1.1730271
1.1725873
1.1708994
1.1689558
1.1678557
1.1672662
1.1669813
1.1668548
1.1667876
1.166718
1.1666726
1.1665816
1.16646
1.0876455
1.1417132
1.1296408
1.1459305
1.1455183
1.1576052
1.1656764
1.1789463
1.1930106
1.2099406
1.2286933
1.2488166
1.2689759
1.287651
1.3032246
1.3137761
1.3181426
1.3174762
1.312361
1.3037697
1.292807
1.2804614
1.2675368
1.2546649
1.2423312
1.2307785
1.2201584
1.2106781
1.2025116
1.1957241
1.1899163