/*--------------------------------*- C++ -*----------------------------------*\
  =========                 |
  \\      /  F ield         | OpenFOAM: The Open Source CFD Toolbox
   \\    /   O peration     | Website:  https://openfoam.org
    \\  /    A nd           | Version:  8
     \\/     M anipulation  |
\*---------------------------------------------------------------------------*/
FoamFile
{
    version     2.0;
    format      ascii;
    class       surfaceVectorField;
    location    "0.240005";
    object      rhoUf;
}
// * * * * * * * * * * * * * * * * * * * * * * * * * * * * * * * * * * * * * //

dimensions      [1 -2 -1 0 0 0 0];

internalField   nonuniform List<vector> 
39600
(
(199.76067 0 5.6812971)
(185.14102 -7.4782609e-17 4.7364102)
(183.09575 1.3357307e-16 5.3904925)
(229.90165 1.5131774e-19 6.4197086)
(219.97321 5.3265257e-17 5.7825395)
(217.73009 0 6.5721906)
(253.62504 -7.610265e-20 6.9227902)
(244.4375 -8.6753385e-17 6.2473699)
(242.05879 7.6572501e-17 7.1414895)
(276.82775 -5.80996e-17 7.3527947)
(267.34589 3.7802665e-17 6.6715149)
(264.84753 -2.7679097e-19 7.6462316)
(301.19634 -1.9182314e-17 7.7412873)
(290.95917 -6.276971e-17 6.8880487)
(288.31693 -1.2393251e-16 7.991586)
(317.31195 8.1240536e-17 7.9151382)
(315.86325 5.4399278e-17 7.5484557)
(313.8129 7.7879956e-18 8.6879173)
(321.65165 7.4145658e-18 8.0044471)
(320.08942 2.2667883e-17 6.8217228)
(320.00179 1.1042223e-16 8.0743478)
(322.36309 -3.6650527e-17 8.0195358)
(323.48001 -3.9655154e-17 8.1103244)
(323.50018 -9.3095548e-17 9.3011485)
(321.74861 -5.5752943e-18 7.996011)
(320.9538 -6.5490429e-19 6.502608)
(320.98481 4.3585439e-17 7.7854727)
(322.05362 1.4975443e-17 7.9954197)
(322.63768 1.3567748e-17 8.2927032)
(322.64625 -1.1132873e-17 9.4872682)
(321.73007 0 7.9730493)
(321.28038 -1.3073959e-17 6.4300862)
(321.29952 0 7.7046221)
(321.87332 8.988618e-19 7.9615731)
(322.2086 4.8234886e-18 8.2008398)
(322.20891 -3.5272925e-20 9.4078978)
(321.65996 -3.4350481e-18 7.9295612)
(321.41227 6.0258836e-18 6.5382206)
(321.41388 -1.4092642e-17 7.8004243)
(321.71739 -1.6521233e-18 7.899755)
(321.91472 -6.5768146e-18 7.9478139)
(321.89875 7.5538038e-18 9.1704815)
(321.57775 3.4797726e-18 7.845183)
(321.44931 1.3051796e-18 6.6883638)
(321.4269 -6.5319536e-18 7.9405217)
(321.58388 -1.2557584e-18 7.7801636)
(321.71994 -1.136995e-18 7.6157742)
(321.67798 -1.2076828e-18 8.8546273)
(321.4747 -1.8284035e-19 7.6778469)
(321.43124 0 6.7538425)
(321.37362 -2.6998146e-19 8.0066421)
(321.44413 4.3057998e-18 7.543839)
(321.56237 -6.682836e-18 7.2181094)
(321.48042 6.6220949e-18 8.4779273)
(321.33977 5.9597846e-18 7.3496038)
(321.3715 4.8830191e-18 6.6188466)
(321.26677 -4.8255751e-19 7.8887159)
(321.26918 6.1275301e-19 7.0929353)
(321.40137 5.5428327e-19 6.6904431)
(321.27206 -5.3255416e-20 7.9783146)
(321.14145 5.6003205e-18 6.7470843)
(321.24727 0 6.1724555)
(321.09321 3.9441777e-18 7.4727148)
(321.00229 1.4925782e-17 6.3021283)
(321.18019 -2.1929692e-19 5.9045765)
(321.0018 5.9844684e-18 7.2276797)
(320.79115 2.100782e-18 5.734856)
(320.98791 1.9344307e-17 5.2981276)
(320.78611 9.3065481e-18 6.6400888)
(320.5074 3.5125342e-18 5.0366597)
(320.7774 2.9805961e-19 4.6952299)
(320.55558 -1.0566835e-17 6.0682067)
(320.08937 1.6955873e-17 4.2104719)
(320.42604 -4.9010823e-19 3.8679085)
(320.19159 1.7460449e-17 5.2670561)
(319.56449 9.2114055e-18 3.3188219)
(319.92602 1.4490079e-18 2.9938051)
(319.70229 1.2619293e-18 4.4178348)
(318.80191 9.4281865e-18 2.3584578)
(319.16074 -1.5238045e-18 2.0206934)
(318.94147 7.432861e-18 3.4524007)
(317.64499 0 1.4721431)
(318.16714 0 1.0971541)
(317.97631 1.4763492e-18 2.4896074)
(316.20728 -2.4774283e-18 0.82795727)
(316.90085 5.5278809e-17 0.39242996)
(316.76833 2.650325e-20 1.6766999)
(314.60227 1.3092325e-17 0.4508292)
(315.38062 -2.7407279e-18 -0.015122419)
(315.29974 1.3151626e-18 1.1214151)
(312.93561 -1.6840028e-17 0.30720016)
(313.72355 9.0912232e-17 -0.16427913)
(313.6815 8.6030267e-18 0.80541126)
(311.31357 -6.1078556e-18 0.33382389)
(312.05223 -2.6313799e-17 -0.10316186)
(312.03525 -3.4980484e-17 0.69615776)
(309.8155 4.8749975e-17 0.45097066)
(310.47457 9.0200684e-18 0.077669408)
(310.47029 3.1555559e-17 0.71580375)
(308.5036 1.3892807e-17 0.58072558)
(309.06382 0 0.2919313)
(309.06327 2.7514145e-18 0.78692163)
(307.41217 -1.1078457e-17 0.66516673)
(307.86994 1.4503323e-18 0.46808154)
(307.8681 3.8409991e-18 0.84180013)
(306.5425 -2.1907971e-17 0.67500701)
(306.90347 -2.1010447e-17 0.56233477)
(306.89853 -2.0394913e-17 0.83789711)
(305.88074 1.6774125e-17 0.60559173)
(306.15126 1.5039588e-17 0.56478505)
(306.14362 1.4260368e-17 0.76369568)
(305.40236 -4.8718697e-17 0.46535736)
(305.59673 0 0.48028345)
(305.58801 0 0.62122669)
(305.07665 -2.4723077e-17 0.27198694)
(305.20446 1.9046926e-17 0.32450193)
(305.19637 -2.0693394e-17 0.42246276)
(304.87868 -2.5986993e-17 0.043473995)
(304.95112 1.0952813e-16 0.12460585)
(304.94436 1.6064235e-17 0.1899379)
(304.78221 -1.0302792e-16 -0.21407729)
(304.81323 1.3303342e-16 -0.10437714)
(304.80834 -2.815815e-17 -0.063143645)
(304.75959 6.1767742e-17 -0.50007784)
(304.7597 3.7795866e-20 -0.37809189)
(304.75727 -4.0008914e-18 -0.34926019)
(304.78727 4.7627321e-17 -0.78372803)
(304.76382 -1.7725079e-16 -0.67874353)
(304.76863 1.9502817e-17 -0.65727302)
(304.87615 -5.3002413e-17 -0.8955462)
(304.79022 -1.2242033e-16 -0.93619244)
(304.80796 -1.2003447e-17 -0.92352534)
(304.9253 5.4102043e-18 -1.1243591)
(304.86612 1.1907443e-17 -1.1038383)
(304.86549 4.2908394e-18 -1.1002179)
(305.05589 -5.1882212e-17 -0.99656561)
(304.9609 -8.9889365e-18 -1.1840841)
(304.98054 2.5218547e-19 -1.1846121)
(305.04434 -6.1769574e-17 -1.1178644)
(305.02302 1.0544358e-16 -1.1592961)
(305.017 -5.5548112e-18 -1.1614113)
(304.98655 2.0202132e-17 -0.28893591)
(305.08567 -8.0133364e-17 -0.93012548)
(305.1307 -1.3716336e-18 -0.92624981)
(304.74338 3.4535073e-17 -0.93764505)
(304.80272 -1.2080893e-16 -0.48263713)
(304.7466 4.8913246e-18 -0.51156282)
(305.05981 2.3715861e-19 0.22942549)
(305.09031 -3.6646283e-19 0.2076617)
(202.07127 -3.3012211e-17 4.9431984)
(187.19025 -7.3387334e-17 4.0529695)
(232.27334 -2.0750079e-17 5.545513)
(222.19625 5.1591096e-17 4.9403688)
(256.05715 -5.9407933e-17 5.9444)
(246.75001 -4.0495782e-17 5.310109)
(279.3081 4.1031143e-17 6.2799131)
(269.69941 -9.0871424e-19 5.6550155)
(303.35024 0 6.5643635)
(293.41588 -3.2683153e-17 5.7376187)
(318.25037 -3.3271121e-19 6.6884231)
(317.46563 8.5976967e-19 6.3681832)
(321.62233 -1.8457877e-17 6.7495258)
(320.06786 4.8729882e-17 5.5387082)
(322.30901 -7.5356362e-18 6.7633091)
(323.42182 -3.9750987e-17 6.9016052)
(321.70153 1.6929879e-17 6.7425859)
(320.89804 1.6396017e-17 5.1942158)
(322.00576 -1.1749463e-17 6.7424665)
(322.60054 0 7.0802605)
(321.68781 -9.7682774e-18 6.7213753)
(321.23545 -8.4060813e-18 5.1235938)
(321.84066 9.7416684e-18 6.7086709)
(322.1867 4.7121106e-18 6.9753487)
(321.63677 3.9508722e-18 6.6758044)
(321.38871 6.9670765e-18 5.2396723)
(321.70916 -4.3063814e-18 6.6434583)
(321.91081 -1.2073077e-18 6.7011398)
(321.58507 -3.0118736e-18 6.5848066)
(321.45417 -2.4984003e-19 5.3942776)
(321.61203 0 6.5141499)
(321.7442 4.6775071e-18 6.3417469)
(321.52564 -5.8207312e-18 6.4025285)
(321.47484 0 5.451725)
(321.52128 -7.0502108e-18 6.2578303)
(321.62673 2.3210532e-19 5.9119139)
(321.44618 -5.2994917e-20 6.0490043)
(321.46098 -5.5322992e-18 5.295427)
(321.40576 0 5.7786151)
(321.51293 -1.8168503e-17 5.3509082)
(321.30952 -5.6807494e-18 5.4143272)
(321.38467 1.5168888e-17 4.8161784)
(321.20169 2.4742243e-18 4.9509681)
(321.33992 1.9134706e-17 4.5227841)
(321.02148 1.9196543e-17 4.3595532)
(321.17171 -3.2244499e-17 3.8895888)
(320.76354 -3.5633025e-18 3.6331535)
(320.98149 4.4017702e-17 3.2496545)
(320.35903 -1.5868411e-17 2.7774617)
(320.64181 -4.3961936e-17 2.3892778)
(319.76278 -8.8159993e-18 1.8760803)
(320.12729 -1.2376954e-17 1.4821035)
(318.8949 -1.0930715e-17 0.92521473)
(319.35512 3.0464876e-19 0.51907785)
(317.72065 4.9291831e-17 0.12589393)
(318.3145 0 -0.31715358)
(316.27923 6.049555e-17 -0.3797726)
(316.98419 -1.6201669e-18 -0.89395584)
(314.66942 6.4983138e-17 -0.60341352)
(315.41435 -1.0312674e-16 -1.1510436)
(312.99111 9.3080856e-17 -0.58399869)
(313.72279 -6.6782188e-17 -1.1316785)
(311.35143 -1.4902037e-17 -0.39294799)
(312.03173 1.3273833e-16 -0.89911165)
(309.84468 -3.8292542e-17 -0.12330713)
(310.44742 -1.1624523e-16 -0.55665326)
(308.53106 -1.2476376e-17 0.14019538)
(309.03903 -9.0896392e-18 -0.19933519)
(307.44073 -6.0238714e-18 0.33644983)
(307.85213 -1.3941678e-17 0.09785306)
(306.57202 1.1846936e-17 0.43590458)
(306.89369 1.0623408e-17 0.2901267)
(305.90936 0 0.4360037)
(306.14823 0 0.36922043)
(305.42756 6.5334543e-17 0.34804964)
(305.59798 0 0.34284536)
(305.09639 1.4269724e-16 0.19353717)
(305.20748 -7.4951823e-17 0.2303429)
(304.89252 2.6536839e-16 -0.005784801)
(304.95452 -4.1883441e-17 0.063312487)
(304.79134 2.5070066e-16 -0.24386432)
(304.81603 -9.3021209e-17 -0.14126919)
(304.76136 -2.1881659e-16 -0.51777112)
(304.76043 -2.2567824e-16 -0.40303913)
(304.77951 -3.5348153e-16 -0.76477052)
(304.75455 -1.1052629e-16 -0.69605819)
(304.8427 -7.2629522e-17 -0.9332946)
(304.77894 7.315013e-17 -0.94466109)
(304.92883 0 -1.0532969)
(304.85833 -1.7996134e-16 -1.1047125)
(305.02329 1.3627722e-16 -1.0429862)
(304.95062 -1.5951276e-16 -1.182586)
(305.01969 1.0752228e-16 -1.0991194)
(305.02429 5.4966136e-17 -1.1569748)
(305.01494 -2.2021617e-16 -0.49491689)
(305.05421 1.6618335e-16 -0.93517513)
(304.86347 -1.6953078e-16 -0.87615842)
(304.84588 -3.8680722e-17 -0.45826108)
(305.03341 -9.4118643e-19 0.26148364)
(204.06898 -6.9320203e-19 4.1746182)
(189.13191 -2.8919124e-19 3.3541046)
(234.42997 3.944239e-17 4.6590728)
(224.32929 1.6376382e-20 4.0717952)
(258.29054 1.355922e-17 4.9653456)
(248.9702 8.5979032e-17 4.3510342)
(281.63115 -7.0427304e-17 5.2115894)
(271.95133 -7.50186e-17 4.6240163)
(305.33268 -3.4441387e-17 5.3938001)
(295.80548 -3.1917129e-17 4.5666514)
(319.03694 4.5051602e-17 5.45773)
(318.85438 -5.2780782e-20 5.1746188)
(321.57052 3.4808373e-17 5.4914302)
(320.01485 4.7944706e-17 4.2334055)
(322.24478 -2.0747705e-17 5.4991476)
(323.35988 -1.9661214e-17 5.6790835)
(321.64604 1.1381902e-18 5.4778889)
(320.82924 7.3721513e-18 3.8666013)
(321.96075 3.9226011e-18 5.4727988)
(322.55477 -7.0088207e-18 5.8524001)
(321.64985 4.7061587e-18 5.4485918)
(321.17898 1.3247629e-18 3.7957204)
(321.81477 1.8278596e-18 5.4311889)
(322.1533 1.2196345e-18 5.7260516)
(321.6198 2.5738985e-18 5.3928514)
(321.35394 9.7259799e-19 3.9152726)
(321.70576 2.6810292e-18 5.3535751)
(321.89587 -6.3403388e-18 5.4213813)
(321.5957 6.8753156e-18 5.2850682)
(321.44947 -6.0450673e-18 4.0659625)
(321.64011 5.0504927e-18 5.2025349)
(321.75909 -7.2189055e-18 5.0243455)
(321.57329 5.9011069e-18 5.0759217)
(321.50863 -7.8484804e-18 4.1057048)
(321.58994 2.1818286e-18 4.9156515)
(321.67979 6.4298725e-18 4.5548083)
(321.53744 -2.2231913e-17 4.6894837)
(321.53723 1.4631605e-19 3.9203868)
(321.51971 -6.0556758e-18 4.3993374)
(321.61 -2.2226229e-17 3.9533404)
(321.44747 3.9147891e-17 4.0098583)
(321.50858 -5.2723013e-19 3.3968325)
(321.36268 -1.057048e-17 3.5161817)
(321.48599 -8.7425793e-19 3.0662631)
(321.2048 -1.4385746e-17 2.888307)
(321.34209 -2.0144326e-17 2.3920452)
(320.96416 1.1981888e-17 2.1176079)
(321.17184 -1.2134653e-18 1.7022814)
(320.59323 -4.3311141e-17 1.2486878)
(320.83145 1.0261654e-18 0.80178385)
(319.99184 -4.5374761e-18 0.30646357)
(320.31171 -2.4904743e-17 -0.12369849)
(319.03784 1.1082264e-17 -0.58442978)
(319.50997 2.0288076e-17 -1.0403996)
(317.78386 -4.9981801e-17 -1.2524422)
(318.41091 0 -1.7667103)
(316.30036 -1.532307e-16 -1.6124985)
(317.01804 -6.9591183e-17 -2.202951)
(314.65113 -2.3665287e-16 -1.6754313)
(315.40202 9.5511179e-17 -2.2997917)
(312.9442 -4.7265448e-17 -1.4812981)
(313.67919 -6.2114344e-17 -2.102631)
(311.29539 5.7582846e-17 -1.119354)
(311.97371 1.1719566e-16 -1.6923026)
(309.79077 -9.8326087e-17 -0.69440639)
(310.38916 2.5541716e-17 -1.1856167)
(308.48602 -1.0033731e-17 -0.29693163)
(308.98935 -1.8191565e-17 -0.68504268)
(307.40729 0 0.010008678)
(307.81506 1.4338528e-17 -0.26795573)
(306.5498 0 0.19746917)
(306.86948 -1.639946e-16 0.020734745)
(305.8962 0 0.26548861)
(306.13465 -2.8195933e-16 0.17486629)
(305.4206 -1.3136931e-16 0.22868014)
(305.5917 -1.9964235e-16 0.2053436)
(305.09325 -2.6239575e-16 0.11244966)
(305.20522 1.3787649e-18 0.13547543)
(304.89157 -3.9346859e-16 -0.058145981)
(304.95436 -1.0989512e-16 0.00099256149)
(304.79053 -5.5344374e-16 -0.27734949)
(304.81657 1.6519004e-16 -0.17966872)
(304.75639 -1.3035531e-16 -0.54001893)
(304.75905 6.3128073e-19 -0.43079708)
(304.77949 2.9499156e-16 -0.75811847)
(304.74175 1.7713206e-16 -0.71489796)
(304.8341 -5.6534775e-18 -0.94880164)
(304.7699 -1.2977933e-16 -0.95263505)
(304.92803 -3.412265e-16 -1.0379265)
(304.84933 2.2781165e-17 -1.1051043)
(305.01127 -2.667659e-16 -1.0646055)
(304.94361 -2.8092879e-17 -1.1801663)
(305.03017 1.0212493e-16 -1.0591825)
(305.01891 -1.0599029e-16 -1.1541974)
(304.94323 3.7506945e-16 -0.70105566)
(305.04042 2.4435139e-16 -0.93512232)
(304.81573 1.2875059e-16 -0.81355855)
(304.88415 1.2567567e-16 -0.4332175)
(305.01075 -4.4481535e-18 0.28977142)
(206.08993 3.7954282e-19 3.3810848)
(191.04481 0 2.6187858)
(236.59064 3.8802285e-17 3.7440317)
(226.42676 4.1319518e-19 3.180706)
(260.5022 1.195276e-17 3.9540716)
(251.14188 2.014993e-17 3.3561074)
(283.91652 -4.0752636e-17 4.1079499)
(274.13735 -1.9041243e-17 3.5599684)
(307.2033 -8.0244307e-19 4.1879214)
(298.13416 0 3.3550309)
(319.70378 -9.6193348e-19 4.1995535)
(320.03708 -8.7179194e-19 3.9573651)
(321.49666 0 4.2126981)
(319.93798 -1.0688836e-17 2.9075306)
(322.16923 5.6996928e-18 4.2141892)
(323.29201 1.2673828e-17 4.4428555)
(321.57838 5.3768389e-19 4.1915361)
(320.75289 1.46717e-17 2.5176016)
(321.89952 -1.019825e-17 4.1813258)
(322.50221 -6.8576288e-18 4.6064506)
(321.59419 -2.0732881e-18 4.1524851)
(321.11572 -1.4003019e-18 2.4448924)
(321.77042 4.0214599e-19 4.1279802)
(322.11436 -3.1456832e-20 4.4531646)
(321.58524 -7.1628664e-18 4.0810044)
(321.31448 6.1279264e-18 2.5624623)
(321.6863 -1.4893699e-17 4.0304194)
(321.87758 2.8020612e-18 4.1097524)
(321.59188 -1.9734536e-17 3.9478861)
(321.44171 -1.1369933e-18 2.7025459)
(321.65501 -1.9781733e-17 3.8493104)
(321.76967 3.9403078e-19 3.6682615)
(321.60785 -8.4790714e-18 3.7050121)
(321.53583 8.15503e-18 2.7200141)
(321.64544 4.9478677e-18 3.5260864)
(321.72274 2.3148113e-17 3.1544855)
(321.61652 1.9809797e-18 3.2792994)
(321.60175 1.639342e-17 2.4985786)
(321.62398 -1.8603147e-17 2.9645695)
(321.69446 3.7252165e-17 2.5012688)
(321.57943 -3.9699305e-17 2.5398454)
(321.62339 -1.5066274e-17 1.9144047)
(321.52296 -8.6250942e-18 2.0041637)
(321.62238 -2.5187491e-17 1.5331684)
(321.40191 -8.8403746e-18 1.3270367)
(321.50067 2.1055016e-17 0.80415449)
(321.20841 -1.2157834e-17 0.51795563)
(321.34404 -7.1513158e-17 0.056799594)
(320.80678 2.1334468e-17 -0.40257413)
(321.00714 2.1788549e-17 -0.87411366)
(320.09567 -4.5993144e-18 -1.3206987)
(320.4627 4.466481e-17 -1.7862198)
(319.08513 1.1241874e-17 -2.107152)
(319.61301 1.0132059e-17 -2.6277955)
(317.80943 -1.2804772e-17 -2.6429757)
(318.45317 8.8642451e-18 -3.2362)
(316.29018 1.5993588e-16 -2.858388)
(317.00226 -2.1284858e-17 -3.5251695)
(314.60558 2.8309341e-16 -2.748625)
(315.34136 6.0794179e-18 -3.4498806)
(312.87949 8.2537854e-17 -2.3732715)
(313.59168 7.4050787e-17 -3.066456)
(311.22542 9.4804645e-17 -1.8374378)
(311.87803 3.5103128e-19 -2.4744602)
(309.72739 1.0930539e-16 -1.2567845)
(310.29999 9.3424186e-17 -1.8028813)
(308.4357 2.5682903e-18 -0.72645351)
(308.91515 1.4978361e-16 -1.1603066)
(307.3719 -1.2951573e-16 -0.31050517)
(307.75912 2.4514342e-16 -0.62542553)
(306.52794 -4.3140549e-16 -0.036743067)
(306.83118 -1.6293173e-16 -0.24257256)
(305.88463 -4.8937554e-16 0.09774049)
(306.11079 2.5422084e-16 -0.015448463)
(305.4155 -8.9585753e-17 0.11108307)
(305.57811 2.1266531e-18 0.070308844)
(305.09149 1.656221e-16 0.032513932)
(305.19787 -1.5116777e-16 0.042172049)
(304.89127 4.1644088e-16 -0.10987455)
(304.95082 0 -0.060443289)
(304.78972 7.3677466e-16 -0.3102431)
(304.81487 -1.6605829e-16 -0.21809308)
(304.74995 2.8781084e-16 -0.56164352)
(304.75535 4.5184678e-16 -0.45922151)
(304.77004 -2.1290074e-16 -0.76214656)
(304.72853 -3.4326129e-16 -0.73328901)
(304.82195 -1.1862028e-16 -0.95717383)
(304.76183 7.1496928e-18 -0.95928616)
(304.91332 3.4499836e-16 -1.0520457)
(304.84128 5.8501784e-16 -1.104672)
(305.00083 1.4148983e-16 -1.0667624)
(304.93569 -1.4743757e-16 -1.1772799)
(305.02025 -2.9182394e-18 -1.0550787)
(305.01241 2.00522e-16 -1.1510062)
(304.98744 5.4330772e-18 -0.69481443)
(305.02504 -1.4923743e-16 -0.93087566)
(304.87381 0 -0.76569819)
(304.92705 -3.6217764e-18 -0.40808786)
(304.99264 -1.7594341e-16 0.31451955)
(207.99389 0 2.5577954)
(192.86741 3.9526156e-17 1.7997047)
(238.64382 -1.933327e-17 2.7966125)
(228.43283 -2.8223891e-17 2.2882216)
(262.61603 -7.0804892e-18 2.9095082)
(253.22907 -2.1001549e-17 2.3319028)
(286.11154 1.9283376e-17 2.9692314)
(276.24164 1.8687478e-17 2.4674615)
(308.93195 0 2.9511863)
(300.37527 1.04808e-17 2.1080751)
(320.24663 -9.60946e-18 2.9227549)
(321.002 -9.0134967e-18 2.7215973)
(321.4161 -1.2586909e-19 2.9200788)
(319.8497 -1.1982136e-17 1.5623443)
(322.09511 2.1282761e-17 2.9146503)
(323.22658 1.2363826e-17 3.195071)
(321.51044 9.131574e-18 2.8884429)
(320.67661 9.3256813e-18 1.1480146)
(321.84053 1.311303e-18 2.8704096)
(322.45254 -2.6822193e-18 3.3422752)
(321.54135 4.8847387e-19 2.8339575)
(321.05442 2.9180432e-18 1.0702577)
(321.73004 5.0788573e-18 2.7989721)
(322.07867 4.1069945e-20 3.1551694)
(321.55496 1.6129548e-17 2.7394967)
(321.27862 -3.3479871e-18 1.1808314)
(321.6707 1.6560754e-17 2.6740175)
(321.86201 1.6036161e-17 2.7664311)
(321.59034 1.8423603e-17 2.5747811)
(321.4345 1.2996222e-18 1.3075107)
(321.66926 2.7090263e-17 2.4585931)
(321.77695 6.8917266e-18 2.2778712)
(321.63893 3.7884139e-17 2.2945123)
(321.55809 -5.3449257e-19 1.3002278)
(321.69467 3.4889162e-17 2.0930881)
(321.75934 9.2623546e-18 1.7145537)
(321.68801 4.9217755e-17 1.8186587)
(321.66007 -1.1605305e-17 1.0305672)
(321.72101 4.5030595e-17 1.4696573)
(321.77302 4.0659197e-17 0.99017159)
(321.70621 0 0.99476451)
(321.73709 0 0.35998064)
(321.69767 0 0.4143038)
(321.74772 0 -0.084668399)
(321.6226 -3.249612e-17 -0.33133324)
(321.65585 5.533681e-18 -0.87689963)
(321.39306 -4.6312255e-17 -1.194739)
(321.50441 -3.2778114e-18 -1.6707515)
(320.90713 4.2691019e-17 -2.1125587)
(321.15335 5.4148751e-17 -2.605141)
(320.1553 6.2241685e-17 -2.9624125)
(320.56648 -1.1168448e-16 -3.4769978)
(319.12288 7.9109591e-18 -3.6477099)
(319.66402 1.0607557e-17 -4.2373151)
(317.80006 3.3445231e-18 -4.0571033)
(318.44426 8.7310031e-18 -4.7245346)
(316.22613 -1.7570776e-16 -4.1108535)
(316.93509 -7.029844e-18 -4.8540605)
(314.50615 -2.0689857e-16 -3.8169105)
(315.23167 -9.0495703e-17 -4.5937063)
(312.76408 1.7200636e-19 -3.2536739)
(313.4604 1.4477952e-16 -4.0166017)
(311.11237 -1.0476992e-17 -2.5416977)
(311.74528 -1.1509905e-16 -3.2399759)
(309.62846 1.2774089e-16 -1.8059312)
(310.1807 -1.9379093e-16 -2.4039485)
(308.35664 3.8029643e-16 -1.1448611)
(308.81721 1.6073802e-17 -1.621667)
(307.31377 2.5538578e-16 -0.62254165)
(307.68498 -3.2792091e-17 -0.97198922)
(306.48848 4.7327493e-16 -0.26504277)
(306.77928 1.7757482e-16 -0.49798142)
(305.85976 7.7051249e-16 -0.066265498)
(306.07701 2.5398587e-16 -0.20052395)
(305.40068 -4.2348969e-17 -0.0043086145)
(305.55738 2.1238074e-16 -0.061514388)
(305.08303 -3.3301176e-16 -0.04627428)
(305.18553 -2.9859459e-16 -0.049116253)
(304.88662 -5.624923e-16 -0.16141397)
(304.94396 0 -0.1208631)
(304.7856 -5.2041923e-16 -0.34319575)
(304.81084 -3.057484e-16 -0.25690303)
(304.74688 -8.8736635e-17 -0.56841984)
(304.74754 -4.8317124e-16 -0.4880625)
(304.76496 -1.6369855e-16 -0.76036136)
(304.71621 -3.7670664e-16 -0.75112028)
(304.81267 6.4597637e-16 -0.96624805)
(304.75473 7.8683837e-16 -0.96464946)
(304.89956 1.7590689e-16 -1.0697184)
(304.83401 2.9266376e-18 -1.103486)
(304.99236 -1.2814908e-16 -1.0658644)
(304.92673 2.7522958e-16 -1.1741054)
(305.01305 9.3271127e-17 -1.048318)
(305.00585 -4.0697752e-16 -1.1473607)
(304.9887 -1.7525138e-16 -0.68696737)
(305.0141 -4.5090707e-16 -0.92118706)
(304.88011 -1.584036e-16 -0.69437491)
(304.97378 -1.4369225e-17 -0.38377399)
(304.97955 1.6978958e-16 0.33484806)
(209.89227 1.7362936e-17 1.7075296)
(194.64126 1.8083506e-17 0.93193922)
(240.66804 -3.0413524e-17 1.8231551)
(230.3661 -1.9790749e-17 1.3777319)
(264.68834 1.0879673e-18 1.8385157)
(255.25107 -5.6655904e-18 1.273798)
(288.2494 1.0727511e-17 1.8014575)
(278.29456 2.3981148e-18 1.3437569)
(310.52726 3.1903166e-18 1.6878187)
(302.5332 8.1120804e-18 0.82270673)
(320.67849 -1.1100363e-17 1.6248208)
(321.78599 -5.1624302e-18 1.460857)
(321.33798 -1.6770107e-18 1.6097379)
(319.76705 -1.5054183e-18 0.18937729)
(322.02623 9.1828587e-19 1.5954001)
(323.17259 -6.4418084e-18 1.9303331)
(321.44766 -1.2781986e-18 1.5642208)
(320.6075 -4.3595686e-18 -0.24620002)
(321.78652 -1.551172e-18 1.5365303)
(322.41233 -4.400875e-18 2.0558583)
(321.49325 2.7090545e-18 1.4901328)
(321.00206 1.4405683e-18 -0.33171326)
(321.69417 -7.9317881e-18 1.4419859)
(322.05242 1.3598757e-17 1.8300773)
(321.52846 -4.972413e-18 1.3678329)
(321.25021 -1.0076255e-17 -0.22895288)
(321.65711 2.2817665e-18 1.2864385)
(321.85024 -1.7516368e-17 1.3946135)
(321.58863 -1.0412535e-17 1.170228)
(321.42756 3.1165528e-18 -0.11440908)
(321.68152 -1.954159e-17 1.0359988)
(321.78134 1.4407144e-19 0.85720155)
(321.66772 -2.9334461e-17 0.84941819)
(321.57777 -1.5675957e-17 -0.15238252)
(321.74214 -3.4553667e-17 0.61722633)
(321.79628 -3.3249585e-17 0.23301838)
(321.75914 -2.4266799e-17 0.3052416)
(321.7183 -5.5675584e-17 -0.48911841)
(321.82187 -8.071106e-20 -0.097613201)
(321.85421 -1.9038719e-17 -0.5868051)
(321.86503 0 -0.61429683)
(321.83877 3.9273997e-18 -1.2733629)
(321.89334 4.9584092e-18 -1.28139)
(321.88052 0 -1.7888021)
(321.77889 3.4911214e-17 -2.0808335)
(321.7999 5.4294352e-18 -2.6283988)
(321.48348 9.0284284e-17 -2.958086)
(321.63824 -4.3028043e-17 -3.4440524)
(320.96172 -8.2868759e-17 -3.8343546)
(321.25488 6.0659224e-17 -4.3621905)
(320.19265 -1.735191e-16 -4.6216142)
(320.62218 -1.652117e-16 -5.1913848)
(319.11747 1.1585579e-17 -5.2136484)
(319.66447 1.0441432e-17 -5.8682913)
(317.73516 0 -5.4811449)
(318.38066 0 -6.2230577)
(316.11286 8.5109359e-17 -5.3589881)
(316.81389 1.3448587e-16 -6.1784599)
(314.3626 2.3373421e-16 -4.8710862)
(315.07176 8.2356034e-17 -5.7217916)
(312.61179 5.6784391e-17 -4.1152558)
(313.28527 -1.3222777e-17 -4.9450476)
(310.96906 -2.8853126e-16 -3.2264446)
(311.57606 -1.1408215e-16 -3.9824834)
(309.50573 -3.2621577e-16 -2.3374801)
(310.03218 1.5830414e-17 -2.9838599)
(308.25945 -3.8859077e-16 -1.5488341)
(308.69645 1.6523531e-16 -2.0653181)
(307.24224 -1.3242428e-16 -0.92358764)
(307.59344 -2.7473225e-16 -1.304741)
(306.43939 -4.875693e-17 -0.48553949)
(306.71442 5.5738852e-16 -0.74329791)
(305.82808 -2.9663302e-16 -0.22510327)
(306.03376 -5.7211899e-16 -0.37872881)
(305.3811 1.3910001e-17 -0.11641155)
(305.52985 4.3113182e-16 -0.18891033)
(305.07127 -9.1244314e-20 -0.12311184)
(305.16842 3.2088942e-16 -0.13747412)
(304.87971 2.9083276e-16 -0.21220569)
(304.93394 -1.3951689e-17 -0.17968013)
(304.77916 -2.4859174e-16 -0.37604078)
(304.80447 -1.0430625e-18 -0.29587551)
(304.74484 -7.8258477e-16 -0.56595842)
(304.73608 2.7224163e-16 -0.51675174)
(304.75938 4.4062153e-16 -0.75677027)
(304.70479 -1.1172453e-17 -0.76799351)
(304.80669 2.3254398e-16 -0.96212998)
(304.74783 1.0646413e-17 -0.96875095)
(304.887 7.1355841e-17 -1.0811052)
(304.82704 -3.9282238e-16 -1.1013174)
(304.98156 7.3650281e-17 -1.0710475)
(304.91799 2.8354788e-16 -1.1706659)
(305.00428 -9.50936e-16 -1.0390006)
(305.00111 -2.1420722e-16 -1.1431023)
(305.00632 -3.3911585e-16 -0.67548501)
(305.00696 2.3572978e-18 -0.90584633)
(304.90951 3.0680929e-16 -0.64479561)
(305.02061 -7.35574e-18 -0.35922)
(304.97011 3.5379232e-16 0.34990805)
(211.69793 -1.518443e-17 0.82718195)
(196.3285 -1.9439567e-17 0.048654522)
(242.60452 3.2879369e-18 0.81497216)
(232.2171 8.0337707e-18 0.43420672)
(266.69327 -5.0122289e-18 0.72994239)
(257.20391 -4.1043679e-18 0.17927606)
(290.31377 -6.0212078e-19 0.59253608)
(280.30017 2.4208588e-18 0.18489319)
(311.99442 9.8322456e-19 0.38925044)
(304.57883 -8.5174945e-18 -0.50286337)
(321.02364 3.9274132e-18 0.29862576)
(322.40685 5.3943717e-18 0.17454845)
(321.2724 -5.776312e-18 0.27530707)
(319.68925 3.1212025e-18 -1.2144187)
(321.96981 -1.176241e-17 0.25217853)
(323.12792 -6.2699992e-18 0.64382138)
(321.39616 -7.4093508e-18 0.21536102)
(320.54648 -9.5735124e-18 -1.6692662)
(321.74463 -1.9330315e-18 0.17665658)
(322.38459 -1.7488205e-18 0.74321102)
(321.4572 1.1127103e-17 0.11858092)
(320.96172 6.0107525e-18 -1.7629127)
(321.66978 1.3366958e-17 0.056549209)
(322.03624 -7.9546619e-18 0.47924489)
(321.51088 -2.1753259e-17 -0.031369361)
(321.22678 8.3644147e-18 -1.6622681)
(321.64897 -1.8333552e-17 -0.12710697)
(321.83884 -2.7100889e-17 -0.0013377001)
(321.58987 1.3679092e-17 -0.2613529)
(321.42139 8.4834574e-18 -1.560897)
(321.69593 5.1965901e-18 -0.41841154)
(321.78713 -1.7750001e-19 -0.59549434)
(321.70004 -1.8088534e-17 -0.63298463)
(321.59879 4.0576659e-18 -1.6443155)
(321.79683 -5.2109904e-17 -0.91109824)
(321.84283 7.5794938e-18 -1.3000273)
(321.85507 -5.3559699e-17 -1.2668876)
(321.77783 1.2578508e-17 -2.0688762)
(321.9745 -1.6999303e-17 -1.7316315)
(321.94349 -1.8568439e-17 -2.2379304)
(322.03128 4.2566025e-18 -2.3300678)
(321.95289 -3.6277291e-17 -2.9822761)
(322.01731 0 -3.0459583)
(322.00385 6.6720174e-18 -3.5527458)
(321.85312 -6.6901674e-17 -3.8718607)
(321.92435 -5.6956146e-18 -4.4160041)
(321.53085 -8.119343e-17 -4.7272717)
(321.73263 -6.8752953e-17 -5.2392101)
(321.00544 -1.0188831e-19 -5.5763201)
(321.31659 -6.3497346e-17 -6.1441303)
(320.19888 -2.0902341e-19 -6.3102926)
(320.63411 1.1295667e-16 -6.930913)
(319.06105 0 -6.7937679)
(319.613 -5.4790027e-18 -7.5135503)
(317.61733 1.1988594e-16 -6.90458)
(318.26161 -9.3116175e-18 -7.7205954)
(315.94638 1.3675561e-16 -6.5930501)
(316.63843 1.916159e-17 -7.4881165)
(314.17079 -1.5225406e-16 -5.9028563)
(314.86234 1.8579113e-16 -6.8253054)
(312.41796 -1.7201442e-16 -4.9511381)
(313.0676 1.634121e-16 -5.844637)
(310.79184 1.7402661e-16 -3.8862471)
(311.37194 0 -4.6963434)
(309.35607 4.8738673e-16 -2.8472502)
(309.85599 1.9421042e-16 -3.5382973)
(308.14133 3.2468834e-16 -1.9351957)
(308.55423 1.4260675e-17 -2.4880019)
(307.15477 3.21159e-16 -1.2112606)
(307.48559 -2.9378541e-17 -1.6212386)
(306.37839 1.5990368e-16 -0.69647874)
(306.63744 2.9071356e-17 -0.97671599)
(305.78767 4.1812679e-17 -0.37750086)
(305.98163 -1.3865656e-17 -0.54875249)
(305.35523 7.4923026e-16 -0.22431664)
(305.49588 4.1716006e-16 -0.31092237)
(305.05519 3.4465333e-16 -0.19736149)
(305.14681 2.9157814e-16 -0.22220411)
(304.86991 -3.0685544e-16 -0.26182514)
(304.9209 6.3386279e-20 -0.23646456)
(304.76998 4.8847278e-16 -0.40884146)
(304.79579 2.1305713e-17 -0.33471432)
(304.73595 1.0772657e-15 -0.57900596)
(304.7227 4.6816131e-16 -0.54505315)
(304.75337 -4.4387315e-16 -0.75534477)
(304.69326 3.5315465e-16 -0.78364025)
(304.80462 -5.685081e-16 -0.94585268)
(304.73995 -5.0218712e-16 -0.97162133)
(304.87832 -2.5890635e-16 -1.0808925)
(304.82022 -1.0088372e-19 -1.097951)
(304.96893 5.2766886e-17 -1.084405)
(304.91009 2.6262743e-16 -1.166672)
(304.99797 7.2283897e-16 -1.0275594)
(304.9952 4.1015551e-16 -1.1376673)
(305.02032 3.3939217e-16 -0.65946045)
(305.00352 2.9491382e-16 -0.88540993)
(304.92685 -2.6043471e-18 -0.63525949)
(305.06689 1.0444297e-17 -0.3344109)
(304.96508 -1.6842908e-16 0.35955593)
(213.42008 1.0477208e-18 -0.079406376)
(197.92358 2.0282291e-17 -0.87087111)
(244.47217 1.7548704e-18 -0.22152777)
(233.98428 -7.5302668e-18 -0.53490492)
(268.65099 2.649723e-18 -0.4092524)
(259.10028 -5.7566346e-20 -0.94284001)
(292.30647 -4.4615765e-18 -0.65152608)
(282.28966 -8.8116848e-18 -1.0088932)
(313.33126 -5.2906619e-18 -0.93944657)
(306.50722 2.4020462e-18 -1.8686181)
(321.29298 4.7834393e-18 -1.0533561)
(322.90314 -5.6545535e-18 -1.1365196)
(321.2175 3.3719777e-18 -1.0839784)
(319.62899 1.5646912e-17 -2.6499119)
(321.92507 -3.8721791e-18 -1.1181527)
(323.10246 -5.2168394e-18 -0.66935821)
(321.35669 -4.6550909e-18 -1.1624089)
(320.49954 -4.2040141e-18 -3.1247494)
(321.71583 5.4085547e-18 -1.2126277)
(322.36917 -7.2774855e-18 -0.59704194)
(321.43262 -1.1541698e-17 -1.2807868)
(320.9277 5.8844978e-18 -3.2206003)
(321.65329 -1.41283e-17 -1.3536958)
(322.02106 -2.9728795e-17 -0.89275976)
(321.49792 5.9518754e-18 -1.4534073)
(321.20261 2.507866e-17 -3.1154785)
(321.64472 -3.7009573e-18 -1.5632878)
(321.82523 3.7449174e-18 -1.4231136)
(321.59713 -4.3870683e-18 -1.7214405)
(321.42253 -1.7679306e-17 -3.0397262)
(321.71929 -1.6247934e-18 -1.9144837)
(321.80679 1.3348122e-19 -2.0903972)
(321.75342 2.8891139e-17 -2.1674878)
(321.62853 3.9713949e-18 -3.1853257)
(321.90009 7.0474219e-17 -2.4876966)
(321.89596 3.3650052e-17 -2.8973398)
(321.99503 4.9381089e-17 -2.9231387)
(321.86403 -3.0451302e-17 -3.7175221)
(322.0985 -3.5992408e-17 -3.453002)
(322.03938 3.8771277e-17 -3.9496732)
(322.12203 -3.7525397e-17 -4.0909065)
(322.05431 1.4100236e-18 -4.7358171)
(322.06852 2.136606e-18 -4.8448644)
(322.11105 4.751998e-17 -5.3438061)
(321.89159 -2.0714769e-18 -5.6582452)
(322.00843 8.4754126e-20 -6.2208154)
(321.58017 -5.1863609e-17 -6.5212041)
(321.79475 9.123791e-17 -7.0596681)
(321.02108 3.1915829e-17 -7.351405)
(321.33896 -7.047352e-17 -7.9543702)
(320.15394 1.1856906e-16 -8.0167983)
(320.59716 1.1134013e-16 -8.6895529)
(318.94943 -1.4297082e-17 -8.3766921)
(319.50567 6.0410065e-18 -9.1622602)
(317.44273 -1.1139952e-16 -8.3157626)
(318.08439 -1.8427254e-17 -9.2060237)
(315.72767 5.1460259e-17 -7.8030515)
(316.40732 -3.5908756e-16 -8.7725508)
(313.93326 5.0003802e-16 -6.9039193)
(314.60335 -4.7632918e-18 -7.8954877)
(312.18624 3.5002865e-16 -5.7547897)