/*--------------------------------*- C++ -*----------------------------------*\
  =========                 |
  \\      /  F ield         | OpenFOAM: The Open Source CFD Toolbox
   \\    /   O peration     | Website:  https://openfoam.org
    \\  /    A nd           | Version:  8
     \\/     M anipulation  |
\*---------------------------------------------------------------------------*/
FoamFile
{
    version     2.0;
    format      ascii;
    class       volScalarField;
    location    "0.240005";
    object      T;
}
// * * * * * * * * * * * * * * * * * * * * * * * * * * * * * * * * * * * * * //

dimensions      [0 0 0 1 0 0 0];

internalField   nonuniform List<scalar> 
20000
(
291.73754
291.73421
290.84937
288.64623
284.21381
275.97687
273.22504
272.52423
273.39337
273.14012
273.73412
273.70801
274.18814
274.33268
274.78113
275.0701
275.55307
275.98718
276.55949
277.15822
277.87469
278.67048
279.58635
280.62277
281.80524
283.1358
284.58373
286.24854
287.97398
289.64204
291.18627
292.55641
293.73273
294.71436
295.50954
296.14078
296.63516
297.01633
297.31463
297.54586
297.71623
297.85142
297.97495
298.08281
298.17094
298.20332
298.2481
298.25397
298.45938
298.16707
291.1469
291.00543
289.98009
287.55358
282.75786
274.47141
272.35378
271.68105
272.5564
272.30341
272.90226
272.87702
273.36205
273.51105
273.96548
274.26417
274.75761
275.2094
275.80168
276.42905
277.17774
278.01548
278.98291
280.08679
281.35439
282.79585
284.45196
286.20037
287.95131
289.63745
291.19343
292.57518
293.7547
294.7338
295.52436
296.15105
296.64211
297.0219
297.32057
297.55253
297.72296
297.85934
297.99319
298.11119
298.18006
298.22198
298.24575
298.2783
298.3636
298.16879
290.50703
290.26261
289.10137
286.46067
281.2675
273.02389
271.509
270.85085
271.73239
271.47464
272.07987
272.05629
272.54654
272.70366
273.16504
273.47909
273.98597
274.46235
275.07854
275.74007
276.52662
277.41472
278.44619
279.63613
281.01109
282.58111
284.34007
286.16528
287.95778
289.67658
291.25337
292.6381
293.81247
294.78257
295.5633
296.18107
296.66495
297.03968
297.33501
297.56419
297.73202
297.86921
298.00986
298.12034
298.18772
298.22365
298.24795
298.27309
298.37014
298.1613
289.91558
289.54172
288.23971
285.39263
279.76878
271.65485
270.7249
270.07057
270.96021
270.70113
271.31255
271.29197
271.78802
271.95417
272.42376
272.75395
273.27513
273.77546
274.41545
275.11154
275.93799
276.88107
277.98623
279.2774
280.77359
282.48455
284.31402
286.17157
288.00432
289.75159
291.33716
292.71938
293.88358
294.8405
295.60807
296.21448
296.68956
297.05838
297.35009
297.57646
297.7419
297.88141
298.02953
298.1352
298.19557
298.22981
298.2509
298.27627
298.31209
298.15408
289.34886
288.84566
287.41031
284.37286
278.29759
270.42721
270.01468
269.35802
270.25457
269.99419
270.61216
270.59599
271.09867
271.27619
271.75531
272.10381
272.64024
273.16611
273.8315
274.5666
275.44123
276.45129
277.64887
279.05682
280.67814
282.44807
284.31358
286.22241
288.10201
289.86986
291.45831
292.83006
293.97751
294.91605
295.66636
296.25813
296.72186
297.08272
297.3691
297.59114
297.75349
297.89656
298.04765
298.14654
298.20252
298.23388
298.25558
298.27684
298.28292
298.14244
288.88402
288.22613
286.6441
283.42323
276.87889
269.36465
269.38985
268.72654
269.63106
269.37066
269.99595
269.98599
270.49629
270.687
271.17616
271.54372
272.09559
272.64812
273.34196
274.1225
275.05658
276.15044
277.45686
278.96441
280.63904
282.45138
284.37255
286.33638
288.24849
290.02741
291.60906
292.96333
294.08834
295.00404
295.73362
296.30814
296.75861
297.1102
297.39026
297.60716
297.7664
297.9144
298.06509
298.15886
298.20945
298.23857
298.26038
298.27554
298.2245
298.12918
288.44386
287.64313
285.92408
282.53816
275.53022
268.46428
268.85269
268.18269
269.09591
268.83675
269.47007
269.46814
269.98647
270.19138
270.69026
271.07771
271.64696
272.23114
272.96059
273.79886
274.80431
275.99825
277.37749
278.93062
280.64421
282.51592
284.50038
286.50854
288.44447
290.2244
291.79089
293.12032
294.21708
295.10547
295.8109
296.36552
296.80073
297.14158
297.4141
297.62483
297.78086
297.93385
298.08155
298.17067
298.21678
298.24245
298.26319
298.26935
298.1739
298.11444
288.07827
287.12616
285.26451
281.72288
274.27297
267.723
268.40507
267.72911
268.65155
268.3952
269.0372
269.04436
269.56986
269.78924
270.29863
270.70874
271.30012
271.92527
272.70076
273.60833
274.68896
275.93488
277.35137
278.93852
280.71462
282.6567
284.69514
286.73882
288.68661
290.45756
292.00019
293.29801
294.36125
295.21834
295.8966
296.42901
296.84728
297.17617
297.44011
297.6439
297.79682
297.95415
298.09751
298.1825
298.22468
298.24638
298.26556
298.25802
298.12394
298.09653
287.77843
286.67018
284.6575
280.96287
273.11642
267.12783
268.04326
267.36292
268.29546
268.04303
268.69314
268.71009
269.24151
269.47742
270.0013
270.44211
271.06256
271.73692
272.57091
273.52845
274.64073
275.92019
277.3647
279.01927
280.86622
282.86991
284.95547
287.02357
288.97265
290.72471
292.2353
293.49497
294.51975
295.34186
295.99016
296.49826
296.89805
297.21384
297.4682
297.66442
297.81435
297.975
298.11277
298.19375
298.23293
298.25086
298.267
298.23489
298.085
298.07417
287.52754
286.27846
284.10171
280.24694
272.07274
266.66664
267.76616
267.08263
268.02395
267.77353
268.4308
268.46129
269.00076
269.25889
269.80307
270.28239
270.94112
271.65711
272.51592
273.49931
274.63537
275.94281
277.4581
279.17967
281.09237
283.15302
285.2762
287.35856
289.29821
291.02206
292.49295
293.70861
294.69056
295.47449
296.09045
296.57245
296.95245
297.25416
297.49808
297.68634
297.83351
297.99619
298.12741
298.20402
298.24102
298.25655
298.26869
298.20484
298.05409
298.05725
287.39164
285.96358
283.61189
279.57171
271.15831
266.32503
267.57041
266.88147
267.83554
267.58584
268.252
268.31108
268.84969
269.14081
269.7069
270.21541
270.88946
271.62555
272.50278
273.50707
274.6804
276.05411
277.62849
279.41694
281.39195
283.50179
285.65376
287.73989
289.65989
291.34655
292.7706
293.93684
294.87205
295.615
296.19657
296.65092
297.01002
297.29681
297.52953
297.70969
297.85442
298.01742
298.14147
298.21347
298.24842
298.2633
298.26872
298.17316
298.02945
298.04076
287.2689
285.69517
283.16365
278.90594
270.3704
266.08303
267.45652
266.7546
267.72383
267.48654
268.16121
268.2223
268.7852
269.09365
269.66528
270.19041
270.87552
271.62848
272.52308
273.57703
274.80493
276.23439
277.87364
279.72558
281.7579
283.91036
286.08203
288.16201
290.05272
291.69403
293.06486
294.17703
295.0622
295.76188
296.3074
296.73288
297.07021
297.34139
297.56226
297.73441
297.87724
298.03851
298.15491
298.22234
298.25544
298.27016
298.26717
298.14132
298.00844
298.02847
287.20809
285.47968
282.75655
278.23948
269.70671
265.92535
267.37365
266.68311
267.6563
267.43615
268.10884
268.18515
268.75797
269.07962
269.65599
270.19508
270.89064
271.68028
272.61855
273.71815
274.99767
276.4882
278.18841
280.10148
282.18673
284.37458
286.55691
288.62077
290.47294
292.06121
293.37301
294.42698
295.25931
295.91384
296.42198
296.81761
297.13251
297.38751
297.59603
297.76034
297.90194
298.05947
298.16781
298.23056
298.26202
298.27675
298.26413
298.11049
297.98981
298.01744
287.16304
285.29805
282.37948
277.55249
269.15641
265.83069
267.33754
266.65314
267.62732
267.40434
268.09258
268.17857
268.75587
269.0905
269.67509
270.24552
270.97128
271.79836
272.774
273.92347
275.25679
276.80535
278.56672
280.53829
282.67184
284.88806
287.07209
289.1104
290.91548
292.4439
293.69169
294.68409
295.46143
296.06944
296.53925
296.90436
297.19637
297.43478
297.63058
297.78728
297.9282
298.08035
298.18059
298.23816
298.26781
298.28294
298.25907
298.08139
297.97323
298.00758
287.14842
285.14207
282.02246
276.82269
268.70394
265.77887
267.33045
266.63827
267.62804
267.41612
268.10397
268.20973
268.78772
269.15035
269.75405
270.35544
271.10732
271.97397
272.99134
274.18965
275.57618
277.18368
279.00482
281.03268
283.20975
285.44694
287.62345
289.62687
291.37668
292.83892
294.01831
294.9463
295.66694
296.22744
296.65828
296.99244
297.2613
297.48285
297.66571
297.81498
297.9555
298.10113
298.1936
298.24547
298.27252
298.28762
298.25005
298.05488
297.95846
297.99931
287.15496
285.00711
281.68744
276.05537
268.35168
265.76111
267.35349
266.68462
267.66244
267.44391
268.15572
268.27553
268.87414
269.26384
269.88406
270.51799
271.29851
272.20428
273.26231
274.5103
275.95088
277.61678
279.49729
281.57894
283.79454
286.04501
288.20491
290.16455
291.85167
293.24233
294.34974
295.2112
295.87405
296.3865
296.77808
297.08112
297.32678
297.53134
297.70123
297.84324
297.98317
298.12157
298.20697
298.25318
298.27644
298.2907
298.23453
298.03175
297.94526
297.99139
287.19457
284.91087
281.39418
275.28923
268.11399
265.80869
267.42762
266.75569
267.74245
267.57292
268.25314
268.40958
269.01004
269.42637
270.06374
270.72908
271.53789
272.48344
273.58393
274.88209
276.37749
278.10236
280.04166
282.17452
284.4231
286.67865
288.81259
290.71965
292.3371
293.65125
294.68365
295.47696
296.08133
296.54556
296.89783
297.1698
297.39234
297.57994
297.73701
297.87191
298.01018
298.14158
298.22087
298.26184
298.28041
298.29283
298.21337
298.01197
297.93381
297.98393
287.26456
284.84864
281.13153
274.50487
267.97797
265.92915
267.54235
266.88099
267.87067
267.70591
268.40856
268.5822
269.18875
269.63167
270.28564
270.98346
271.82178
272.80755
273.95135
275.3006
276.85192
278.63606
280.63357
282.81451
285.08997
287.342
289.44073
291.28699
292.82855
294.06213
295.01725
295.74147
296.28722
296.70342
297.01667
297.25782
297.45752
297.62834
297.77287
297.90083
298.03597
298.16068
298.23495
298.27157
298.28552
298.2945
298.18842
297.9934
297.92337
297.97731
287.37888
284.82886
280.90404
273.74314
267.9415
266.07892
267.68918
267.04242
268.04291
267.89188
268.5991
268.7934
269.40438
269.87479
270.54661
271.27707
272.14615
273.17329
274.36214
275.76378
277.37232
279.21655
281.27141
283.49693
285.79226
288.0317
290.08573
291.86319
293.32303
294.47246
295.34856
296.0032
296.49053
296.8592
297.13391
297.34467
297.52192
297.67626
297.80871
297.9299
298.06054
298.17839
298.24821
298.2818
298.29303
298.29634
298.16052
297.97541
297.91394
297.97143
287.52455
284.83531
280.6929
272.99872
267.98564
266.24536
267.87763
267.23693
268.24466
268.10448
268.81978
269.03329
269.6536
270.15245
270.84281
271.6072
272.50847
273.57793
274.81336
276.26871
277.93588
279.8407
281.95166
284.21726
286.52477
288.74209
290.74218
292.44344
293.81656
294.87911
295.6752
296.26037
296.68996
297.01193
297.24885
297.42985
297.58515
297.72345
297.84439
297.9591
298.0843
298.19473
298.26001
298.29163
298.30242
298.29572
298.1304
297.95812
297.90534
297.96621
287.69366
284.86291
280.4892
272.28843
268.09398
266.45481
268.09332
267.45933
268.47225
268.34865
269.06481
269.30503
269.9338
270.46198
271.17233
271.97117
272.90644
274.01962
275.3037
276.81443
278.54193
280.50793
282.67322
284.97357
287.28467
289.4698
291.40672
293.0246
294.30649
295.28003
295.99564
296.51179
296.8846
297.16091
297.36092
297.51293
297.64688
297.7697
297.87979
297.98835
298.10778
298.21009
298.27049
298.30016
298.3112
298.29167
298.09895
297.94134
297.89768
297.96156
287.88067
284.90954
280.28412
271.63088
268.24797
266.68451
268.3337
267.708
268.72057
268.61915
269.33847
269.60477
270.24303
270.80155
271.53302
272.36755
273.33844
274.49669
275.83137
277.39926
279.18859
281.21588
283.43276
285.76144
288.06671
290.20941
292.0742
293.60223
294.7893
295.67265
296.30801
296.75609
297.07344
297.30544
297.46956
297.59351
297.70682
297.8148
297.91478
298.01752
298.1313
298.22515
298.28006
298.30658
298.31636
298.28234
298.06766
297.92564
297.89141
297.95753
288.08053
284.97305
280.06739
271.05908
268.49508
266.93769
268.596
267.98175
268.99503
268.91662
269.63739
269.93188
270.5798
271.16959
271.92351
272.79464
273.80326
275.00831
276.39603
278.0231
279.87601
281.96427
284.22931
286.57869
288.86796
290.95764
292.74133
294.1735
295.26287
296.05549
296.61123
296.99243
297.2559
297.44509
297.57437
297.67119
297.76473
297.85859
297.94923
298.04638
298.15487
298.24062
298.28942
298.31144
298.31986
298.265
298.03823
297.91123
297.88591
297.95422
288.29535
285.05888
279.83936
270.55526
268.70889
267.21627
268.88212
268.28047
269.29254
269.2387
269.96132
270.28416
270.94276
271.56452
272.34264
273.25167
274.30005
275.55372
276.99684
278.68517
280.60282
282.75105
285.05933
287.42072
289.68298
291.70898
293.40318
294.73454
295.72456
296.42668
296.90387
297.21981
297.4313
297.57933
297.67498
297.74552
297.82039
297.90093
297.98298
298.07468
298.1779
298.25631
298.29914
298.31598
298.32213
298.23908
298.01202
297.8984
297.88128
297.95147
288.51499
285.15738
279.5912
270.12417
269.00363
267.51732
269.18807
268.60289
269.61119
269.58395
270.30776
270.66062
271.33069
271.98556
272.78963
273.73778
274.82838
276.13293
277.63423
279.38601
281.36954
283.57585
285.9215
288.28489
290.50854
292.45996
294.05676
295.28341
296.17334
296.78533
297.18505
297.4377
297.59929
297.70778
297.77122
297.8162
297.87359
297.94172
298.0159
298.10214
298.19966
298.27155
298.30949
298.32178
298.32383
298.20675
297.98891
297.88696
297.87765
297.94943
288.72615
285.26746
279.32243
269.77007
269.31041
267.84037
269.50931
268.94627
269.95022
269.95056
270.67617
271.06027
271.74301
272.432
273.26407
274.25284
275.38823
276.74598
278.30817
280.12529
282.17499
284.43632
286.81178
289.1661
291.33893
293.20527
294.69803
295.81789
296.60776
297.1299
297.45337
297.64531
297.75928
297.82983
297.8629
297.88311
297.92405
297.9809
298.04786
298.12858
298.21982
298.28566
298.32011
298.3306
298.32554
298.17087
297.96721
297.87642
297.87494
297.94763
288.93985
285.38689
279.03469
269.48645
269.64729
268.18182
269.84933
269.30871
270.309
270.33872
271.06584
271.4827
272.17939
272.90357
273.76566
274.79678
275.97994
277.39371
279.01959
280.90393
283.01956
285.33176
287.72815
290.06119
292.17056
293.94181
295.32541
296.33775
297.02721
297.45921
297.70802
297.84222
297.91081
297.94509
297.94974
297.94664
297.97157
298.01844
298.07877
298.15402
298.23863
298.29821
298.3298
298.34
298.3224
298.13321
297.94703
297.86753
297.87254
297.94587
289.12904
285.50063
278.72482
269.2858
269.9991
268.54108
270.20665
269.69068
270.6865
270.74777
271.4767
271.92748
272.63958
273.40004
274.29461
275.37024
276.60428
278.07677
279.76885
281.72165
283.90177
286.25902
288.66582
290.96436
292.99765
294.66526
295.93704
296.84157
297.42898
297.77106
297.94817
298.02784
298.05326
298.05345
298.0311
298.00748
298.01609
298.05427
298.10857
298.17866
298.2566
298.30943
298.33642
298.34451
298.31297
298.09584
297.92867
297.86016
297.87065
297.94406
289.30994
285.62407
278.40983
269.17618
270.37285
268.91898
270.58118
270.09139
271.08284
271.17713
271.90894
272.39426
273.12368
273.92154
274.8515
275.97399
277.26238
278.79642
280.55717
282.57932
284.82163
287.21666
289.62189
291.87188
293.81687
295.37407
296.53308
297.32735
297.81005
298.06433
298.17361
298.20226
298.18715
298.15524
298.10636
298.06583
298.05802
298.08829
298.13717
298.20258
298.27386
298.31981
298.34146
298.34765
298.29409
298.061
297.91234
297.85423
297.86973
297.94276
289.45931
285.73563
278.08658
269.14953
270.75854
269.31397
270.97135
270.51124
271.49779
271.62706
272.36202
272.88322
273.63166
274.46882
275.43742
276.60944
277.95542
279.55356
281.38491
283.47632
285.77691
288.20044
290.59059
292.77761
294.62349
296.06625
297.11132
297.78981
298.16789
298.33803
298.38505
298.36629
298.31335
298.25007
298.17564
298.12029
298.09821
298.12037
298.16447
298.22523
298.29036
298.33046
298.34708
298.34962
298.26517
298.03045
297.89815
297.84935
297.86931
297.94186
289.58446
285.83959
277.77509
269.21258
271.16237
269.72846
271.37994
270.95098
271.93223
272.09637
272.83588
273.39439
274.16464
275.04315
276.05367
277.27802
278.68476
280.34961
282.25318
284.41328
286.7667
289.20796
291.56811
293.67798
295.41574
296.74202
297.66762
298.22606
298.50113
298.59401
298.58511
298.51971
298.43089
298.33828
298.23983
298.16967
298.13735
298.1504
298.19037
298.24605
298.3057
298.34161
298.35496
298.35148
298.2292
298.00459
297.88583
297.84532
297.86924
297.94118
289.6988
285.92695
277.47745
269.35534
271.58039
270.1605
271.80499
271.40914
272.38475
272.5859
273.33155
273.92914
274.72414
275.646
276.70193
277.98117
279.45164
281.18532
283.16217
285.38879
287.78776
290.23363
292.54818
294.56761
296.19106
297.39859
298.19558
298.63256
298.8108
298.83627
298.77132
298.66239
298.54016
298.41975
298.29863
298.21494
298.17491
298.17848
298.21488
298.26519
298.31935
298.35182
298.36436
298.35054
298.18983
297.98059
297.87533
297.84221
297.8693
297.94088
289.79653
285.99261
277.21871
269.57066
272.01336
270.61082
272.2465
271.88628
272.85646
273.09678
273.85075
274.48922
275.31188
276.27888
277.38357
278.72033
280.25742
282.06211
284.11277
286.40282
288.83798
291.27399
293.52674
295.44421
296.94933
298.03047
298.69195
299.00915
299.10261
299.0627
298.94426
298.79464
298.64124
298.4946
298.35228
298.25646
298.21046
298.20496
298.23803
298.28328
298.33151
298.35987
298.37107
298.34476
298.14895
297.95842
297.86663
297.84065
297.87027
297.94102
289.87483
286.02581
277.00531
269.84819
272.46006
271.07888
272.70466
272.38374
273.34927
273.63129
274.39524
275.07631
275.92918
276.94334
278.10006
279.49695
281.10323
282.98068
285.10461
287.45287
289.91256
292.32244
294.49788
296.30426
297.68757
298.63008
299.15286
299.35958
299.37734
299.2723
299.10382
298.91662
298.73433
298.5629
298.40116
298.29461
298.24319
298.23035
298.25979
298.30082
298.34259
298.36564
298.37457
298.33141
298.1091
297.93822
297.85946
297.8403
297.87202
297.94153
289.93917
286.02352
276.84642
270.18492
272.92325
271.5684
273.18273
272.9046
273.86601
274.19131
274.96646
275.69135
276.5775
277.64061
278.85283
280.31243
281.99056
283.94228
286.13817
288.53764
291.00812
293.37473
295.45847
297.14719
298.40018
299.19342
299.57852
299.69051
299.63237
299.46569
299.25063
299.02879
298.81972
298.62492
298.44569
298.32973
298.27278
298.25484
298.28001
298.31772
298.35329
298.37088
298.37694
298.30728
298.07294
297.92025
297.85325
297.84072
297.87439
297.94238
289.99587
285.9863
276.75178
270.57914
273.40478
272.08309
273.68371
273.45055
274.40763
274.7772
275.56545
276.33519
277.25806
278.37235
279.64341
281.1683
282.92053
284.94735
287.21205
289.65306
292.11831
294.42415
296.40389
297.96994
299.07826
299.71625
299.97439
300.00043
299.86747
299.64305
299.38499
299.13142
298.89761
298.68089
298.48603
298.36179
298.2999
298.27822
298.2985
298.33328
298.36414
298.37756
298.37873
298.27515
298.04211
297.90496
297.84786
297.84145
297.87728
297.94354
290.05005
285.91927
276.73449
271.02412
273.90828
272.62265
274.2076
274.02153
274.9737
275.38933
276.19298
277.00939
277.97237
279.1402
280.47334
282.06616
283.89473
285.99697
288.32572
290.79629
293.23875
295.46696
297.33256
298.76803
299.71619
300.19822
300.34755
300.28723
300.08326
299.80516
299.50756
299.22502
298.96838
298.73108
298.52228
298.39087
298.32495
298.30048
298.3153
298.34688
298.37421
298.38677
298.37839
298.23545
298.01525
297.89257
297.84385
297.84334
297.88071
297.94497
290.10096
285.8208
276.79329
271.48341
274.43331
273.18558
274.75365
274.61629
275.56507
276.02839
276.85072
277.71543
278.72228
279.94598
281.34424
283.0077
284.91422
287.09092
289.47605
291.96152
294.36222
296.49763
298.24113
299.53113
300.30918
300.64496
300.69639
300.55056
300.28015
299.95248
299.61878
299.30995
299.0323
298.77567
298.55458
298.41716
298.34817
298.32166
298.33082
298.35879
298.38234
298.39417
298.37312
298.19322
297.99096
297.8829
297.84178
297.84675
297.88454
297.94654
290.15512
285.7039
276.93175
271.98626
274.97523
273.77214
275.32087
275.2365
276.18303
276.69683
277.54042
278.45517
279.50945
280.7911
282.2579
283.99464
285.98084
288.22921
290.66113
293.14414
295.48453
297.51335
299.12716
300.25134
300.85572
301.06442
301.01883
300.79132
300.45911
300.08588
299.71939
299.38679
299.08981
298.81494
298.58317
298.44086
298.36961
298.34169
298.34568
298.36944
298.38801
298.39735
298.3613
298.15117
297.96905
297.8752
297.84098
297.85079
297.88845
297.94808
290.20115
285.56835
277.14268
272.5741
275.53385
274.3842
275.91234
275.8848
276.83001
277.39666
278.264
279.2299
280.33528
281.67769
283.21631
285.029
287.09519
289.41011
291.87556
294.33695
296.59886
298.50966
299.97942
300.92319
301.35989
301.45673
301.31389
301.01003
300.62076
300.20594
299.80987
299.45593
299.14121
298.84912
298.60834
298.46216
298.38918
298.36026
298.36001
298.37951
298.39315
298.39976
298.34027
298.11201
297.94975
297.86883
297.84094
297.85444
297.89233
297.94952
290.23889
285.42075
277.42624
273.1302
276.11701
275.025
276.53093
276.56243
277.50699
278.12934
279.02296
280.04105
281.20157
282.60794
284.2217
286.11304
288.25818
290.63226
293.11523
295.53487
297.70155
299.48454
300.7892
301.54332
301.83058
301.81947
301.58282
301.20788
300.76619
300.31359
299.89096
299.51785
299.18677
298.87853
298.63045
298.48126
298.4068
298.37691
298.37328
298.38953
298.39995
298.4016
298.3097
298.07794
297.93323
297.86346
297.84123
297.85792
297.8962
297.95086
290.27992
285.26905
277.77213
273.74327
276.72345
275.69494
277.17737
277.27035
278.21633
278.89377
279.81832
280.89075
282.11076
283.58462
285.27685
287.24838
289.46922
291.89132
294.37289
296.73033
298.7866
300.42922
301.54753
302.11259
302.27149
302.1505
301.82619
301.38566
300.89615
300.40947
299.96317
299.57285
299.2266
298.90352
298.64979
298.49834
298.4225
298.39141
298.38518
298.39885
298.40897
298.39976
298.27022
298.04926
297.91909
297.85933
297.84239
297.86181
297.90013
297.95218
290.34479
285.12118
278.17929
274.38279
277.35495
276.39489
277.85242
278.00872
278.95846
279.69159
280.65255
281.78173
283.06594
284.61069
286.38452
288.43678
290.7277
293.18365
295.6431
297.91876
299.85122
301.33337
302.25061
302.6404
302.67982
302.45151
302.04549
301.54474
301.01178
300.4945
300.02722
299.62139
299.26092
298.92451
298.66656
298.51346
298.43651
298.40416
298.39615
298.40638
298.41565
298.3934
298.22753
298.02302
297.9072
297.85644
297.84415
297.86608
297.90433
297.95359
290.43901
284.98134
278.63988
275.06189
278.01008
277.12449
278.55476
278.77891
279.73428
280.5267
281.52832
282.71751
284.07048
285.6897
287.54722
289.67867
292.03036
294.50225
296.91742
299.09291
300.8888
302.18436
302.89485
303.13483
303.05208
302.72304
302.24164
301.68603
301.11388
300.56935
300.08359
299.66397
299.29054
298.94202
298.68085
298.52654
298.44881
298.41562
298.40661
298.41205
298.41886
298.38172
298.18429
297.99962
297.89768
297.85497
297.84644
297.8705
297.90869
297.95526
290.56428
284.86062
279.11014
275.77105
278.68757
277.88342
279.28762
279.58389
280.54867
281.40205
282.4495
283.70208
285.12783
286.82505
288.76739
290.97421
293.37412
295.84148
298.19032
300.24844
301.88928
302.97732
303.489
303.5932
303.38993
302.96686
302.41629
301.8109
301.20359
300.6349
300.13296
299.70138
299.31724
298.95648
298.69275
298.53763
298.4596
298.42585
298.41652
298.418
298.42088
298.36294
298.14394
297.97944
297.89015
297.85427
297.84888
297.8747
297.913
297.95769
290.717
284.74271
279.76059
276.51042
279.39194
278.67699
280.05657
280.42825
281.40505
282.32196
283.42006
284.73902
286.24218
288.02004
290.04644
292.32112
294.75259
297.19228
299.45349
301.3783
302.83853
303.70596
304.04137
304.01241
303.69382
303.18404
302.57054
301.92037
301.28173
300.69177
300.17574
299.73413
299.34263
298.96795
298.70233
298.54691
298.46915
298.43519
298.42549
298.42603
298.42206
298.33544
298.1091
297.96243
297.88413
297.85392
297.85127
297.87834
297.91636
297.96103
290.9297
284.65363
280.40837
277.29619
280.13394
279.513
280.86676
281.31636
282.30621
283.289
284.44422
285.83296
287.4173
289.27766
291.38502
293.71697
296.15988
298.5483
300.7012
302.47586
303.72721
304.37421
304.55546
304.39198
303.96596
303.37659
302.7061
302.01584
301.34942
300.7408
300.21263
299.76243
299.36507
298.97563
298.70976
298.55481
298.47775
298.44375
298.43346
298.43428
298.41822
298.2994
298.08069
297.94801
297.87927
297.85363
297.85386
297.88183
297.91949
297.96444
291.22291
284.5799
280.99956
278.1238
280.90958
280.39021
281.7187
282.24782
283.25797
284.3085
285.52653
286.98895
288.65726
290.60007
292.78198
295.15584
297.58691
299.89996
301.92492
303.52487
304.54804
304.99058
305.02697
304.73288
304.20753
303.54583
302.82419
302.09831
301.40738
300.78253
300.24428
299.78674
299.3783
298.97879
298.71545
298.56185
298.48592
298.45161
298.43958
298.43833
298.41063
298.26057
298.05488
297.93569
297.87573
297.85404
297.85734
297.88533
297.92258
297.96787
291.58415
284.51736
281.74817
278.99608
281.7224
281.31259
282.61671
283.22787
284.26622
285.38585
286.67273
288.21128
289.96524
291.98822
294.23499
296.63189
299.02594
301.24047
303.11892
304.51324
305.29911
305.56523
305.45326
305.03733
304.42084
303.69379
302.92649
302.16902
301.45648
300.81765
300.2714
299.80867
299.38626
298.97952
298.71977
298.56833
298.49398
298.45934
298.44442
298.44104
298.39942
298.22039
298.03192
297.92585
297.8741
297.85587
297.86202
297.88874
297.92555
297.97135
292.02586
284.48511
282.51267
279.91842
282.57731
282.28513
283.56606
284.26271
285.33558
286.52715
287.88766
289.50458
291.34372
293.44165
295.73893
298.13578
300.46638
302.55919
304.26824
305.43051
305.98799
306.09284
305.83568
305.30675
304.60746
303.8219
303.01409
302.2287
301.49724
300.84673
300.29439
299.82793
299.39124
298.97872
298.72305
298.57424
298.50143
298.46649
298.44914
298.44268
298.38416
298.18096
298.0119
297.91788
297.8734
297.85864
297.86694
297.89223
297.92837
297.97482
292.54291
284.47362
283.34125
280.89749
283.47934
283.31377
284.5729
285.359
286.47227
287.73896
289.17608
290.87184
292.79392
294.95825
297.28802
299.65908
301.90023
303.84935
305.35858
306.27151
306.62676
306.57126
306.17641
305.54388
304.76987
303.93213
303.08838
302.27833
301.53064
300.87077
300.31389
299.8408
299.39427
298.97698
298.72549
298.57945
298.50788
298.47275
298.45406
298.44259
298.3624
298.14557
297.99484
297.91132
297.87327
297.86153
297.87098
297.89584
297.93128
297.97808
293.14308
284.49284
284.2208
281.93793
284.43737
284.40258
285.64659
286.52244
287.68414
289.02528
290.54156
292.31617
294.31589
296.53386
298.87289
301.19024
303.3156
305.0983
306.37444
307.03942
307.21455
306.99943
306.47716
305.75052
304.90969
304.02574
303.15029
302.31897
301.55802
300.89091
300.3309
299.84856
299.39446
298.97445
298.7273
298.58402
298.51341
298.47786
298.45793
298.43832
298.33171
298.11722
297.98046
297.90587
297.8733
297.8644
297.87471
297.89945
297.9347
297.981
293.84123
284.57544
285.15669
283.0482
285.45464
285.5583
286.79121
287.76195
288.97587
290.39026
291.98721
293.83842
295.90797
298.16242
300.48456
302.71939
304.70343
306.2896
307.30948
307.7464
307.74883
307.3803
306.74102
305.92953
305.02923
304.10443
303.20138
302.35257
301.58133
300.90828
300.34503
299.85352
299.39248
298.97122
298.72887
298.58815
298.51817
298.48142
298.45979
298.43106
298.29727
298.09166
297.96805
297.90163
297.87387
297.86733
297.87822
297.90216
297.93927
297.98335
294.62553
284.73609
286.14911
284.23528
286.54001
286.78856
288.01771
289.07698
290.3502
291.83742
293.51536
295.44004
297.56697
299.83498
302.11025
304.23321
306.05055
307.40496
308.16013
308.39817
308.22593
307.71556
306.97008
306.0828
305.12999
304.16954
303.24339
302.38097
301.6011
300.92248
300.35344
299.85711
299.38826
298.96763
298.7304
298.59188
298.52231
298.48393
298.46101
298.42129
298.26038
298.06874
297.95739
297.89844
297.87486
297.8705
297.88186
297.90442
297.94393
297.98512
295.48741
284.99262
287.20448
285.50708
287.70321
288.09692
289.33009
290.47189
291.81034
293.37131
295.12902
297.11996
299.28669
301.54136
303.73807
305.72006
307.34117
308.43436
308.9386
308.99103
308.64956
308.00877
307.16772
306.21313
305.21413
304.22314
303.27864
302.40476
301.61486
300.93099
300.35839
299.85915
299.38217
298.96341
298.73096
298.59524
298.52602
298.48612
298.46208
298.40893
298.22261
298.04828
297.94889
297.89713
297.87642
297.87415
297.88599
297.90708
297.94766
297.98634
296.41658
285.37342
288.32099
286.86453
288.95128
289.48603
290.72817
291.95238
293.36109
294.99708
296.83051
298.87613
301.05824
303.26736
305.35272
307.16478
308.55347
309.36988
309.65569
309.51922
309.0213
308.26229
307.33615
306.32236
305.28334
304.26711
303.30797
302.42064
301.62285
300.93565
300.36124
299.85958
299.37446
298.95877
298.73062
298.59797
298.52904
298.48802
298.46167
298.39178
298.18673
298.03046
297.94195
297.8969
297.87867
297.87821
297.89075
297.91109
297.94994
297.98674
297.38821
285.92776
289.50319
288.3074
290.28946
290.95986
292.21635
293.52365
295.01185
296.71997
298.62099
300.7014
302.86951
304.99839
306.93987
308.55212
309.67429
310.22198
310.30705
309.98708
309.3454
308.48018
307.47869
306.41313
305.34021
304.30383
303.32964
302.43019
301.62718
300.93802
300.36279
299.85882
299.36534
298.95417
298.72963
298.59893
298.53055
298.48792
298.45868
298.36791
298.156
298.01524
297.93617
297.89699
297.88172
297.88224
297.89505
297.91591
297.95185
297.98693
298.345
286.72168
290.74635
289.83984
291.71747
292.52388
293.80815
295.20061
296.76843
298.54461
300.4971
302.58578
304.70419
306.71646
308.4812
309.85678
310.69206
311.00348
310.88652
310.39606
309.62449
308.66498
307.59754
306.48748
305.38677
304.33342
303.34319
302.43573
301.62935
300.93877
300.36332
299.85709
299.35508
298.9497
298.7282
298.59876
298.5311
298.48705
298.45368
298.33753
298.12984
298.00233
297.93182
297.89779
297.88511
297.88647
297.89923
297.92053
297.95359
297.98693
299.2428
287.85471
292.07549
291.46061
293.24944
294.18887
295.52275
296.99476
298.63791
300.47018
302.44929
304.51393
306.54423
308.40421
309.96045
311.06212
311.61567
311.71148
311.39771
310.75117
309.86329
308.82066
307.69592
306.54839
305.42529
304.35379
303.3515
302.4388
301.62986
300.93836
300.36273
299.85421
299.34446
298.94524
298.72629
298.59793
298.53104
298.48646
298.44584
298.30399
298.10661
297.99156
297.92887
297.89941
297.88891
297.89093
297.90337
297.92442
297.9552
297.98702
300.03216
289.34255
293.51144
293.18847
294.91025
295.98119
297.37064
298.91377
300.61989
302.48857
304.46423
306.46586
308.36827