/*--------------------------------*- C++ -*----------------------------------*\
  =========                 |
  \\      /  F ield         | OpenFOAM: The Open Source CFD Toolbox
   \\    /   O peration     | Website:  https://openfoam.org
    \\  /    A nd           | Version:  8
     \\/     M anipulation  |
\*---------------------------------------------------------------------------*/
FoamFile
{
    version     2.0;
    format      ascii;
    class       volVectorField;
    location    "0.240005";
    object      U;
}
// * * * * * * * * * * * * * * * * * * * * * * * * * * * * * * * * * * * * * //

dimensions      [0 1 -1 0 0 0 0];

internalField   nonuniform List<vector> 
20000
(
(207.12993 0 5.7137133)
(246.18907 0 6.9800312)
(272.78511 3.7310977e-19 7.5367273)
(296.11559 -6.298327e-19 7.9977343)
(317.27145 -1.391558e-16 8.1821376)
(334.81572 1.170412e-16 8.6588573)
(336.5977 4.9034582e-17 7.8502848)
(339.04743 -4.1499779e-17 9.1380306)
(337.12804 -3.4781324e-17 7.5210367)
(338.15235 2.877763e-17 9.3305072)
(337.01799 0 7.432318)
(337.31346 0 9.2268703)
(336.45851 2.0700672e-18 7.5248426)
(336.25005 -1.0375348e-17 8.9503624)
(335.44109 8.6476285e-18 7.6533937)
(334.8244 -2.3939012e-18 8.5838658)
(333.85346 0 7.6867911)
(332.81475 -4.1694566e-19 8.139734)
(331.49809 1.0290771e-17 7.5037914)
(329.94459 1.1506543e-18 7.5480375)
(328.08717 0 6.9880298)
(325.86131 1.2548333e-17 6.680503)
(323.24047 1.8155478e-17 6.0302233)
(320.11845 -1.7160814e-17 5.3889835)
(316.44889 2.8296045e-17 4.5292505)
(312.15996 2.6772214e-18 3.6394826)
(307.23852 1.6498089e-17 2.6507216)
(301.69095 0 1.7013641)
(295.90462 0 0.96364623)
(290.19032 -5.0806597e-18 0.50767549)
(284.79797 3.270578e-17 0.29093755)
(279.92012 -7.3674529e-17 0.26666614)
(275.67816 7.8165304e-17 0.35305143)
(272.11079 0 0.47548771)
(269.20631 2.7263062e-17 0.57279996)
(266.90494 -5.5397085e-17 0.60841996)
(265.12298 2.61427e-17 0.57419636)
(263.77247 0 0.47381509)
(262.76175 -9.4473245e-17 0.31957581)
(262.02527 7.0349578e-17 0.13291044)
(261.52 -1.3836788e-16 -0.07437483)
(261.16172 -2.5671399e-17 -0.31436592)
(260.8618 1.5138291e-16 -0.57432462)
(260.64132 -9.7762165e-17 -0.79719071)
(260.53093 2.0328597e-17 -0.94294885)
(260.53834 -1.532565e-17 -1.0120528)
(260.54033 -8.0445213e-17 -0.99114058)
(260.62272 -1.7350744e-17 -0.79101219)
(260.21162 6.6763613e-17 -0.42171942)
(261.42374 -5.2783035e-18 0.18210177)
(211.41303 -1.6795083e-16 4.9980816)
(250.87832 1.1943056e-16 6.0943277)
(277.64144 -1.9416864e-16 6.5404449)
(300.93264 8.4338416e-17 6.9117878)
(321.83661 0 6.9602267)
(338.44687 0 7.4426239)
(339.15012 -7.7511954e-19 6.5616803)
(341.58656 -4.1936651e-17 7.9367778)
(339.66233 3.2857665e-17 6.2014792)
(340.68711 0 8.1271524)
(339.53509 -2.7313782e-17 6.1184536)
(339.83123 1.0057015e-17 8.0171945)
(338.9574 1.0526268e-17 6.2245735)
(338.73758 -3.4698323e-18 7.7239375)
(337.90625 -5.8005093e-18 6.3665989)
(337.26099 0 7.3352121)
(336.25336 0 6.4029291)
(335.16139 -1.3365131e-17 6.8639271)
(333.78155 -1.0069075e-19 6.2077762)
(332.14506 0 6.2441373)
(330.18741 0 5.6698586)
(327.83322 -1.2799447e-17 5.3468065)
(325.04365 2.0896373e-17 4.6798706)
(321.69706 1.7485797e-17 4.0150372)
(317.73822 -2.8810185e-17 3.1359856)
(313.08227 1.8662795e-19 2.2213391)
(307.67846 -1.9145065e-17 1.2475907)
(301.86937 0 0.38595163)
(295.97149 1.0244336e-16 -0.22283353)
(290.17445 0 -0.52802527)
(284.72861 1.3165681e-16 -0.58285103)
(279.82579 2.5850268e-17 -0.4468131)
(275.58523 -6.1357222e-17 -0.21151138)
(272.03523 0 0.04111009)
(269.1527 -2.4483311e-17 0.24754952)
(266.87128 1.8546478e-17 0.37086867)
(265.10403 0 0.40480267)
(263.76121 0 0.35581452)
(262.75262 1.2671842e-16 0.23950118)
(262.01684 1.1775851e-16 0.081406306)
(261.51169 3.6587155e-16 -0.10463824)
(261.14836 2.5684559e-17 -0.33358569)
(260.82299 -4.5456687e-16 -0.58747275)
(260.59504 -1.1164568e-16 -0.80392973)
(260.50983 0 -0.94358226)
(260.50815 0 -1.011104)
(260.54057 2.6168357e-16 -0.98933766)
(260.57632 -1.2006169e-16 -0.79793605)
(260.4251 -2.7581294e-16 -0.40235714)
(261.39962 5.7978211e-18 0.2113859)
(215.39049 -6.7012822e-19 4.2482887)
(255.30654 -9.4119443e-19 5.1683307)
(282.24352 9.9869512e-17 5.5178574)
(305.49629 -8.4933025e-17 5.8141024)
(326.15097 -7.1516858e-17 5.7235507)
(341.7654 1.8252528e-18 6.2141874)
(341.56952 1.0355809e-16 5.2291071)
(344.00817 -4.232682e-17 6.703646)
(342.06579 2.2250832e-18 4.8444412)
(343.10098 0 6.8905889)
(341.92707 9.1846182e-18 4.761746)
(342.22347 0 6.7596765)
(341.32948 4.2714814e-18 4.8771852)
(341.09385 8.8514842e-19 6.4383026)
(340.23758 5.185285e-18 5.0238341)
(339.5569 9.762064e-18 6.0155822)
(338.50823 0 5.0504679)
(337.35693 1.3636743e-17 5.5082862)
(335.90998 -1.1335558e-17 4.8344794)
(334.18371 -3.7363025e-17 4.8558077)
(332.11651 3.1019008e-17 4.265212)
(329.61621 5.1450498e-17 3.9163373)
(326.62623 -8.5473692e-17 3.2215948)
(323.00485 7.0500517e-17 2.5212107)
(318.69988 -5.8202132e-17 1.6154852)
(313.63157 -2.4205754e-17 0.68642538)
(307.93845 1.9411766e-17 -0.24083555)
(301.94591 0 -0.97973213)
(295.91031 -1.0386685e-16 -1.4377138)
(290.00953 -1.8832303e-16 -1.5817767)
(284.51045 -2.5022908e-16 -1.4647051)
(279.60308 2.1097165e-16 -1.1608041)
(275.38621 -1.4447714e-16 -0.77331227)
(271.87322 -1.5916485e-17 -0.38982388)
(269.02977 0 -0.075102705)
(266.78299 0 0.13449471)
(265.04274 0 0.23508217)
(263.71781 0 0.23625026)
(262.7199 -2.548428e-16 0.15723643)
(261.99226 -1.8914147e-16 0.027463978)
(261.49251 -5.2425074e-16 -0.1377309)
(261.12226 -4.1206759e-16 -0.35712094)
(260.77365 2.652468e-16 -0.60378091)
(260.56087 2.3688831e-16 -0.81138643)
(260.48754 -3.0794451e-16 -0.94433349)
(260.49305 -2.7313879e-16 -1.009323)
(260.53254 -1.692927e-16 -0.98710778)
(260.57755 4.0687082e-16 -0.79947215)
(260.46865 2.1323484e-16 -0.38056715)
(261.39182 -7.5470527e-18 0.23705773)
(219.2773 0 3.4688425)
(259.6087 9.633509e-19 4.1888366)
(286.67523 9.6651296e-17 4.436552)
(309.84562 -8.483131e-17 4.6615145)
(330.19496 0 4.4238171)
(344.74294 -1.9038484e-18 4.9408202)
(343.79781 0 3.849759)
(346.24723 0 5.4306643)
(344.28515 1.345266e-17 3.4395453)
(345.32725 -1.4835252e-17 5.6113992)
(344.129 -6.226399e-18 3.3579729)
(344.42296 2.5781874e-18 5.4559927)
(343.50496 -2.1456614e-18 3.4781343)
(343.24935 -1.4239969e-17 5.0984142)
(342.36295 -1.78332e-17 3.6216013)
(341.64227 -2.4762326e-17 4.6326916)
(340.54866 -1.6443047e-17 3.6325208)
(339.33542 0 4.0846365)
(337.81748 1.1458322e-17 3.3912541)
(335.99273 -9.1836666e-18 3.3932547)
(333.79832 -3.160168e-17 2.7809914)
(331.12432 -5.2394297e-17 2.3958718)
(327.88985 4.3372822e-17 1.6601009)
(323.9451 -7.1692784e-17 0.9161395)
(319.26575 5.912927e-17 -0.016194034)
(313.88074 -2.4564628e-17 -0.92516259)
(308.01143 1.9689157e-17 -1.7579383)
(301.87619 0 -2.3608247)
(295.69321 -2.6595254e-17 -2.6640048)
(289.70548 3.5988241e-16 -2.6375202)
(284.18179 1.3501342e-16 -2.341176)
(279.2938 2.7859395e-19 -1.8663568)
(275.12147 1.8792629e-16 -1.3262244)
(271.66243 -1.6083178e-17 -0.81294779)
(268.87148 2.4946628e-17 -0.39162288)
(266.66965 -2.8399646e-16 -0.097459658)
(264.96398 -4.8655646e-16 0.068285943)
(263.66244 -3.4359007e-16 0.1185038)
(262.67921 2.5607621e-16 0.076197929)
(261.9627 0 -0.025644295)
(261.46942 8.0607281e-16 -0.17048506)
(261.0886 4.1260749e-16 -0.38104197)
(260.72461 3.7891163e-17 -0.6195817)
(260.52847 -4.5923193e-16 -0.81747888)
(260.46663 3.478179e-16 -0.94419779)
(260.47719 2.2634768e-16 -1.006913)
(260.52021 -1.1192506e-17 -0.98450885)
(260.56645 8.3746349e-18 -0.79798371)
(260.63256 0 -0.35947799)
(261.39295 0 0.25986637)
(222.96666 0 2.6096296)
(263.66219 0 3.1787206)
(290.83374 -4.9023572e-17 3.2971197)
(313.90516 4.0352146e-17 3.4546759)
(333.8951 0 3.0668803)
(347.35302 0 3.6327822)
(345.79304 -2.2841064e-17 2.4308539)
(348.25728 2.699263e-17 4.1263837)
(346.2715 1.8095642e-17 1.9939122)
(347.32046 -2.2017567e-20 4.2942593)
(346.09417 3.1356053e-18 1.9101311)
(346.38275 -2.6009891e-18 4.1063474)
(345.43646 1.5136713e-17 2.0288037)
(345.15607 1.9940143e-17 3.7034458)
(344.23564 1.5123425e-17 2.1636811)
(343.47136 2.5176876e-17 3.1903267)
(342.33025 3.3341797e-17 2.1567685)
(341.05102 4.8546218e-17 2.5988053)
(339.45422 2.2968774e-17 1.8825057)
(337.5142 8.6368532e-17 1.8549739)
(335.16282 0 1.2120745)
(332.27176 0 0.77666381)
(328.74105 0 -0.011884632)
(324.47135 -7.2556583e-17 -0.79913678)
(319.5109 -1.513392e-17 -1.7221714)
(313.9536 1.1089276e-16 -2.5675809)
(307.93087 0 -3.295154)
(301.6216 1.6663301e-17 -3.7608942)
(295.3015 -1.3190249e-17 -3.8984938)
(289.25451 -3.4360074e-16 -3.6886155)
(283.73276 0 -3.2062297)
(278.88938 3.4422976e-19 -2.5579482)
(274.78305 -2.1215919e-17 -1.8657302)
(271.39531 2.7796698e-16 -1.2247476)
(268.67075 4.0162773e-16 -0.69942201)
(266.52488 -1.7746101e-19 -0.323229)
(264.86224 9.2218372e-16 -0.094520747)
(263.59047 3.4547944e-16 0.003095572)
(262.62699 -5.1467597e-16 -0.0034574623)
(261.92576 0 -0.078123322)
(261.44025 -1.0890183e-15 -0.20364317)
(261.04549 3.6156356e-16 -0.40565759)
(260.67767 -6.2530378e-16 -0.63513474)
(260.49847 4.7221717e-16 -0.82255671)
(260.44704 6.5236063e-16 -0.94350389)
(260.46233 -4.8006604e-16 -1.0042783)
(260.50623 3.5511978e-16 -0.98156175)
(260.56538 -2.6485238e-16 -0.79231528)
(260.7769 -6.2402437e-18 -0.33857561)
(261.40618 -3.0470548e-16 0.27950229)
(226.44364 9.1330589e-17 1.6037886)
(267.43739 -6.5051811e-17 2.1611467)
(294.69357 0 2.1133086)
(317.66192 2.740636e-18 2.2043767)
(337.2231 2.3177929e-17 1.6620359)
(349.59268 -1.9380509e-17 2.2922986)
(347.5327 -3.3104497e-18 0.97080429)
(350.01183 -3.8191506e-20 2.7897115)
(347.99763 2.2377727e-18 0.50598524)
(349.05178 -5.7200533e-18 2.9370246)
(347.79303 3.170974e-18 0.41699264)
(348.07262 2.6425112e-18 2.7099295)
(347.09413 -2.2022457e-17 0.53046965)
(346.78587 1.458339e-17 2.2574555)
(345.82939 -1.2091624e-17 0.65719602)
(345.01922 -1.011839e-17 1.6971026)
(343.82607 -3.3890168e-17 0.63107237)
(342.47108 -2.8194588e-17 1.0563092)
(340.7788 -4.6892447e-17 0.30928534)
(338.69572 -1.5529326e-19 0.23758965)
(336.15167 0 -0.44930133)
(332.99524 0 -0.94788715)
(329.19003 1.1212097e-17 -1.7827808)
(324.69336 6.4548539e-17 -2.5751777)
(319.57639 1.2165878e-16 -3.45581)
(313.85481 -3.25795e-16 -4.2299038)
(307.63874 2.0254638e-17 -4.8516871)
(301.15967 0 -5.1705551)
(294.73683 0 -5.1284533)
(288.662 1.739377e-16 -4.7251681)
(283.17201 2.6010375e-16 -4.0519351)
(278.39835 -2.0487365e-16 -3.229592)
(274.37863 -3.2027706e-16 -2.3873081)
(271.07853 -2.4725841e-16 -1.621843)
(268.43318 -4.553653e-16 -0.99596847)
(266.35321 3.075525e-16 -0.540923)
(264.74104 -4.7859405e-16 -0.25193215)
(263.50458 2.1662848e-17 -0.10891336)
(262.56526 -1.4095955e-19 -0.080905122)
(261.88278 0 -0.12941787)
(261.40547 5.6318539e-16 -0.23701516)
(260.99526 -1.1887962e-15 -0.4303094)
(260.63317 -1.9000468e-17 -0.64995022)
(260.46874 8.7325932e-16 -0.82650118)
(260.42736 -6.4971751e-16 -0.94205862)
(260.44809 9.5421758e-16 -1.0014857)
(260.49465 -1.0559821e-15 -0.97815716)
(260.57239 -5.0688619e-16 -0.78151155)
(260.94403 -1.8434505e-17 -0.31791234)
(261.43437 6.0511714e-16 0.29471859)
(229.65148 -4.7671266e-17 0.60061993)
(270.89496 1.8012848e-17 1.0785359)
(298.22157 -1.3037146e-17 0.86532872)
(321.09843 2.7642577e-18 0.89898131)
(340.15208 -4.7126321e-18 0.20096999)
(351.46863 7.8597108e-18 0.90799211)
(349.00687 0 -0.54165793)
(351.49943 -1.3817311e-17 1.4155999)
(349.45159 -1.1593584e-17 -1.0258316)
(350.50946 -3.8467582e-18 1.538219)
(349.21396 -1.3146575e-20 -1.1218609)
(349.48205 2.6589341e-17 1.2685766)
(348.46977 0 -1.010867)
(348.13259 -5.1790235e-17 0.76851496)
(347.13805 1.8529152e-17 -0.88911254)
(346.27655 1.0240616e-17 0.15850918)
(345.02041 0 -0.94377405)
(343.56922 -4.2558335e-17 -0.54620813)
(341.75411 -7.0998618e-17 -1.3349758)
(339.49314 -3.9563506e-17 -1.4656501)
(336.73292 8.1324499e-18 -2.2098011)
(333.35001 0 -2.7588705)
(329.36912 0 -3.5990168)
(324.74025 -1.4946673e-16 -4.3727256)
(319.46034 1.2569986e-19 -5.2086299)
(313.52947 -3.7168531e-19 -5.9139865)
(307.11562 0 -6.4201627)
(300.49534 0 -6.5773033)
(294.0029 2.4797693e-16 -6.3430705)
(287.93305 -2.180296e-17 -5.7380839)
(282.50404 -2.8042331e-16 -4.8710783)
(277.82479 0 -3.8756798)
(273.9115 3.4479767e-16 -2.8867137)
(270.7145 5.3368586e-16 -2.0010524)
(268.1604 -2.5597613e-17 -1.2788896)
(266.15564 6.5899595e-16 -0.74879623)
(264.60095 -5.1090221e-16 -0.40269092)
(263.40503 7.2029976e-16 -0.21661874)
(262.49419 5.5131148e-16 -0.15549228)
(261.83373 -2.3933527e-17 -0.17913644)
(261.36486 -5.6424025e-16 -0.27044317)
(260.94059 1.6547412e-15 -0.45471783)
(260.59028 -1.0821998e-19 -0.66379651)
(260.43905 -8.5713632e-16 -0.82937337)
(260.4068 -2.0211328e-17 -0.93966304)
(260.43507 -4.7403476e-16 -0.99837263)
(260.4865 6.9762293e-16 -0.97404241)
(260.59624 5.1683418e-16 -0.76608077)
(261.10325 6.03517e-18 -0.29700672)
(261.47642 -4.6583217e-18 0.30528736)
(232.57747 1.4206558e-18 -0.46347701)
(274.0354 1.010522e-18 -0.038673883)
(301.42508 3.3022849e-18 -0.42707927)
(324.22943 2.8082621e-18 -0.45357703)
(342.68024 -1.4277678e-17 -1.3068865)
(353.00119 3.9669543e-18 -0.50887276)
(350.2174 6.7612543e-18 -2.0973901)
(352.72194 1.7986585e-20 0.0031414641)
(350.63571 -9.3380348e-18 -2.6032581)
(351.69623 0 0.096320972)
(350.36142 1.2988739e-17 -2.7037652)
(350.61735 -4.32096e-17 -0.210833)
(349.57129 1.8003162e-17 -2.5853221)
(349.2025 -7.3574733e-18 -0.75643255)
(348.16199 0 -2.4726827)
(347.2347 -1.0425398e-17 -1.4280779)
(345.89677 8.6345296e-18 -2.5760664)
(344.32332 5.7771772e-17 -2.2204511)
(342.35341 9.6052253e-17 -3.0603319)
(339.92099 0 -3.257711)
(336.99618 -8.3138024e-17 -4.0347149)
(333.47933 1.3681794e-17 -4.601151)
(329.38773 -1.1545568e-17 -5.4300818)
(324.60003 9.2034625e-18 -6.1874031)
(319.10606 -1.2516045e-16 -6.9859116)
(312.95629 2.1909854e-16 -7.6128479)
(306.36631 -1.0425463e-17 -7.9874364)
(299.63469 -1.7413002e-17 -7.9686437)
(293.10805 -2.0888499e-16 -7.531226)
(287.07616 3.5835751e-16 -6.7185531)
(281.73704 5.6939222e-16 -5.6568492)
(277.1758 0 -4.4911012)
(273.3875 0 -3.3601448)
(270.30785 -5.0410378e-16 -2.359558)
(267.85592 -2.561577e-17 -1.5460919)
(265.93477 -6.0455741e-16 -0.94530344)
(264.4438 4.8435349e-16 -0.54567048)
(263.29309 3.8479459e-19 -0.31918969)
(262.41471 -4.8832592e-17 -0.22661513)
(261.77892 2.3994948e-17 -0.2268988)
(261.31853 6.0022741e-16 -0.30356015)
(260.88355 -8.5320317e-16 -0.47864468)
(260.54859 6.0454298e-16 -0.67655255)
(260.40854 0 -0.83125442)
(260.38517 2.0126528e-17 -0.93616404)
(260.42218 9.2703469e-16 -0.99461724)
(260.48083 0 -0.9687063)
(260.64616 -1.5930159e-17 -0.74686934)
(261.24369 1.1893503e-17 -0.27549624)
(261.51738 -2.8700075e-16 0.31131824)
(235.22178 4.6078912e-17 -1.5766873)
(276.85718 -1.8544277e-17 -1.2010356)
(304.31108 -3.3683237e-18 -1.7579697)
(327.07923 -2.2864949e-17 -1.8550276)
(344.81698 1.9279606e-17 -2.8629441)
(354.21682 -1.6140864e-17 -1.9620918)
(351.17152 2.7367826e-17 -3.6995132)
(353.68766 -1.1309971e-17 -1.4497883)
(351.5609 3.3711733e-20 -4.2252142)
(352.62629 -1.5742305e-17 -1.3842944)
(351.25273 6.3638588e-21 -4.3196665)
(351.49482 -2.1824171e-17 -1.7197644)
(350.41016 3.64662e-17 -4.1885505)
(349.99862 1.5263731e-17 -2.3222396)
(348.89634 -3.7961945e-17 -4.1057945)
(347.88094 1.0504242e-17 -3.0763019)
(346.43835 0 -4.2768133)
(344.7392 1.4683097e-17 -3.9796104)
(342.64055 -1.5820201e-16 -4.8562186)
(340.09469 8.1038973e-17 -5.086961)
(337.07659 8.4359074e-17 -5.8773315)
(333.46161 8.4026653e-17 -6.4531402)
(329.21508 1.1498636e-17 -7.277841)
(324.21507 1.7319026e-16 -8.029562)
(318.49562 -1.5697206e-17 -8.7802204)
(312.14266 0 -9.3137594)
(305.3998 2.1707856e-17 -9.5411016)
(298.58899 -1.7244702e-17 -9.332596)
(292.06272 -4.5330779e-16 -8.6827472)
(286.10117 -3.6191188e-16 -7.6584688)
(280.87962 -1.1693382e-15 -6.403069)
(276.4586 4.6706025e-16 -5.0712604)
(272.81239 0 -3.804223)
(269.86295 5.4347997e-16 -2.6948687)
(267.52298 -8.0425041e-16 -1.7957246)
(265.69291 -1.9575242e-17 -1.1290747)
(264.27119 0 -0.67986454)
(263.16988 -2.172317e-17 -0.41587563)
(262.32755 1.630199e-17 -0.29374172)
(261.7184 0 -0.27237818)
(261.26648 0 -0.33583478)
(260.82521 -8.5326151e-16 -0.50183816)
(260.50829 -2.4575995e-20 -0.68816233)
(260.37929 4.1229757e-17 -0.83234436)
(260.36289 -1.3017324e-15 -0.93161558)
(260.40833 -9.351241e-16 -0.98998662)
(260.477 -7.0596631e-16 -0.96112851)
(260.72295 1.5752569e-17 -0.72530781)
(261.35028 -7.5890664e-16 -0.25353011)
(261.55587 8.7763012e-18 0.31355238)
(237.57638 0 -2.6798777)
(279.36726 0 -2.4379334)
(306.88695 0 -3.1325476)
(329.66592 0 -3.3087065)
(346.5718 4.3986058e-17 -4.4681947)
(355.14333 -3.2686712e-17 -3.4501433)
(351.87843 0 -5.3398645)
(354.40946 0 -2.9293556)
(352.24217 9.6075945e-18 -5.8712186)
(353.31651 -1.5916013e-17 -2.8839931)
(351.90271 3.9969188e-17 -5.9592104)
(352.11969 6.6058544e-20 -3.2657503)
(350.98478 -5.5399699e-17 -5.8388067)
(350.50941 1.54125e-17 -3.947794)
(349.33329 1.2874174e-17 -5.806778)
(348.22964 0 -4.8053245)
(346.69887 -7.1206529e-17 -6.0439429)
(344.91264 5.932e-17 -5.7795518)
(342.74016 9.8800059e-17 -6.6692121)
(340.12118 -8.2213815e-17 -6.9249299)
(337.00528 -1.3679963e-16 -7.7225699)
(333.24533 -1.1354541e-16 -8.3242751)
(328.79379 -1.1899351e-17 -9.1556576)
(323.57489 9.6508984e-18 -9.8896944)
(317.63842 0 -10.580356)
(311.09852 -1.3451694e-17 -11.004875)
(304.2289 1.0741616e-17 -11.069011)
(297.37101 -1.7932247e-17 -10.658061)
(290.87931 4.4302673e-16 -9.7882694)
(285.01936 2.2701025e-17 -8.5505476)
(279.94157 5.8164455e-16 -7.1043069)
(275.68128 -4.5681617e-16 -5.61221)
(272.19258 2.2317592e-17 -4.2160927)
(269.38474 -5.6430979e-16 -3.0048997)
(267.16525 -1.037919e-18 -2.0262426)
(265.43274 0 -1.2989634)
(264.085 0 -0.80442234)
(263.03674 -7.0748501e-16 -0.5060339)
(262.23361 -1.0811245e-15 -0.35642987)
(261.65225 4.8235e-17 -0.31529952)
(261.20861 1.7732641e-17 -0.36621058)
(260.76644 1.6278299e-15 -0.52404466)
(260.46953 0 -0.69856075)
(260.35178 2.7397655e-17 -0.83284074)
(260.34096 1.2550171e-15 -0.92630671)
(260.39236 -1.4505562e-17 -0.98412757)
(260.47562 2.0443254e-15 -0.95006334)
(260.81758 -1.5523745e-17 -0.70224706)
(261.42575 1.4925746e-15 -0.2319601)
(261.584 -5.5322593e-16 0.31300613)
(239.66662 2.9594177e-18 -3.7710572)
(281.59435 6.7982151e-17 -3.7244106)
(309.18048 -5.5493683e-17 -4.5415815)
(332.02239 5.8869632e-18 -4.7967474)
(347.96914 3.4687202e-17 -6.1016063)
(355.81657 -3.3131004e-17 -4.9536124)
(352.35817 0 -7.0000057)
(354.90779 0 -4.4192564)
(352.69273 0 -7.529099)
(353.77237 4.8464419e-17 -4.3973834)
(352.30029 -2.6931753e-17 -7.6313919)
(352.4604 2.2436008e-17 -4.8767186)
(351.29686 1.8703137e-17 -7.5728241)
(350.76481 1.5558138e-17 -5.6537287)
(349.53291 0 -7.5601774)
(348.37059 4.3342755e-17 -6.5686801)
(346.78854 7.2241117e-17 -7.8234657)
(344.94886 -6.0175833e-17 -7.5877549)
(342.71444 1.2593372e-17 -8.484921)
(339.99136 -7.2828008e-17 -8.7706463)
(336.73096 1.2143247e-16 -9.5941735)
(332.78202 0 -10.22276)
(328.12631 -2.4171266e-17 -11.051199)
(322.69035 1.7859793e-16 -11.75909)
(316.54616 2.6297223e-16 -12.375569)
(309.83801 0 -12.674667)
(302.86806 0 -12.559972)
(295.99537 0 -11.934901)
(289.5714 4.663895e-16 -10.839437)
(283.84288 0 -9.3884028)
(278.9332 1.8535547e-17 -7.7559137)
(274.85227 -1.4339288e-17 -6.1106499)
(271.53466 -7.188331e-16 -4.5934166)
(268.87823 0 -3.2879617)
(266.78647 1.6837333e-15 -2.2363949)
(265.15696 -1.273033e-15 -1.4540368)
(263.88714 0 -0.91864121)
(262.89505 -1.4431474e-15 -0.58912717)
(262.1338 2.1181097e-15 -0.41432252)
(261.5806 1.546322e-15 -0.35540902)
(261.14468 0 -0.3929558)
(260.70798 -2.4524607e-15 -0.54498073)
(260.43237 -1.8769016e-17 -0.70769378)
(260.32584 -2.7293606e-17 -0.83282322)
(260.31977 3.9620722e-17 -0.92060689)
(260.37465 -1.4395347e-17 -0.97751428)
(260.47828 -1.3423425e-15 -0.93485499)
(260.91753 0 -0.67778353)
(261.48738 -7.2252517e-16 -0.21155461)
(261.60857 -4.1151654e-18 0.31037376)
(241.5186 -1.9230614e-16 -4.9099948)
(283.57113 6.9019687e-17 -5.0362735)
(311.22373 -7.0474757e-18 -5.9875688)
(334.18184 -5.9851653e-18 -6.3240393)
(349.04142 0 -7.7615079)
(356.27467 3.362104e-17 -6.4677576)
(352.61441 -2.8420802e-17 -8.6851354)
(355.18936 -4.7079388e-17 -5.9438617)
(352.91075 1.9665619e-17 -9.2506118)
(354.01086 1.6359544e-17 -5.9904703)
(352.45968 -5.4708597e-17 -9.3855947)
(352.62379 -4.9266798e-20 -6.5470969)
(351.41933 -1.9024673e-17 -9.3306645)
(350.85687 1.5776451e-17 -7.3764389)
(349.59358 0 -9.3175085)
(348.39305 -2.1914915e-17 -8.3392878)
(346.76792 -1.0990612e-16 -9.6030206)
(344.85357 -3.0554672e-17 -9.3949226)
(342.52076 1.4383542e-19 -10.317646)
(339.65483 7.4054649e-17 -10.650306)
(336.22535 -1.4101121e-16 -11.491146)
(332.08772 0 -12.140597)
(327.22351 2.4556181e-17 -12.958808)
(321.57469 -1.807087e-16 -13.62842)
(315.23335 -2.6581925e-16 -14.155805)
(308.37577 0 -14.312553)
(301.33278 3.8337513e-16 -14.003652)
(294.47742 -1.8028671e-17 -13.154001)
(288.15335 -5.0032596e-16 -11.828939)
(282.58439 7.7889093e-16 -10.166619)
(277.86519 0 -8.3540829)
(273.98017 9.063856e-16 -6.5639743)
(270.8454 7.4629491e-16 -4.9344059)
(268.34855 1.1492066e-15 -3.542784)
(266.39047 -8.7337228e-16 -2.4252423)
(264.86835 2.5790794e-15 -1.5935899)
(263.6796 1.5049197e-17 -1.0219778)
(262.74625 1.4249731e-15 -0.66473248)
(262.02905 -1.6019137e-17 -0.46715305)
(261.5039 -1.5475683e-15 -0.39243693)
(261.07469 -1.1676338e-15 -0.41923402)
(260.65 1.6497983e-15 -0.56423877)
(260.39673 1.2178295e-15 -0.71551426)
(260.30138 0 -0.83234537)
(260.29918 0 -0.91472863)
(260.35641 9.1423796e-16 -0.96984902)
(260.4854 0 -0.9154309)
(261.01585 0 -0.65195687)
(261.53918 7.1018959e-16 -0.19278111)
(261.62843 1.0509869e-15 0.30604101)
(243.18556 -2.9569474e-16 -6.0869202)
(285.35139 1.4458802e-16 -6.3861208)
(313.06077 1.2185297e-16 -7.4798408)
(336.18415 -9.7099239e-17 -7.904142)
(349.83161 8.1558323e-17 -9.4715766)
(356.55397 -5.9590636e-17 -8.0357661)
(352.75792 0 -10.443171)
(355.33264 0 -7.5363124)
(353.01859 5.9942167e-17 -11.029842)
(354.09962 -4.97238e-17 -7.6242557)
(352.54216 2.7713613e-17 -11.159103)
(352.69485 0 -8.2225512)
(351.43861 5.7782297e-17 -11.081026)
(350.85231 1.608907e-17 -9.1017073)
(349.55498 -2.6673178e-17 -11.069041)
(348.2973 -2.2204439e-17 -10.107912)
(346.60173 9.2911082e-17 -11.396641)
(344.58073 1.0844193e-16 -11.238643)
(342.11942 0 -12.180236)
(339.10508 1.7202885e-16 -12.553411)
(335.50357 -4.8159409e-19 -13.409009)
(331.17224 0 -14.072612)
(326.10018 1.9800796e-16 -14.870729)
(320.24219 3.0775706e-16 -15.489606)
(313.71429 1.6687947e-17 -15.91177)
(306.72711 0 -15.908635)
(299.63905 2.3146733e-18 -15.390585)
(292.83302 5.9538312e-16 -14.30723)
(286.63987 0 -12.750485)
(281.25678 -7.6173181e-16 -10.880726)
(276.74829 -6.0441426e-16 -8.8958253)
(273.07364 -9.7198918e-16 -6.9702492)
(270.13148 2.2722821e-17 -5.2377988)
(267.8008 -2.2084342e-15 -3.7684953)
(265.98104 8.2698557e-16 -2.5921429)
(264.56968 1.3064013e-18 -1.7171355)
(263.46437 -9.625806e-16 -1.1140425)
(262.59178 2.2360207e-17 -0.7325374)
(261.92029 -1.6039801e-17 -0.51476844)
(261.42282 2.4221397e-17 -0.42638778)
(260.99938 -1.8015697e-17 -0.44647669)
(260.59221 0 -0.58141613)
(260.36216 -1.1953918e-15 -0.72189603)
(260.27855 1.7316452e-15 -0.83142703)
(260.27974 -1.2529475e-15 -0.90889255)
(260.33869 -2.7205661e-15 -0.96103291)
(260.49813 1.3352623e-15 -0.89211403)
(261.10933 -9.5556678e-16 -0.62479297)
(261.58446 -7.0929482e-16 -0.1758184)
(261.64476 -1.5347365e-15 0.3002016)
(244.71112 1.9797842e-16 -7.2975117)
(286.98808 -1.5130317e-16 -7.7649684)
(314.73769 -1.1653337e-16 -9.0138076)
(338.06773 1.0463538e-16 -9.5346047)
(350.39307 0 -11.225881)
(356.7015 -8.6366664e-18 -9.6412585)
(352.80547 1.4605579e-17 -12.239017)
(355.3999 3.6287924e-17 -9.1520844)
(353.04425 -2.0196408e-17 -12.823279)
(354.13563 0 -9.2672132)
(352.54445 2.8091459e-17 -12.929532)
(352.70176 0 -9.8935126)
(351.36383 -3.9012023e-17 -12.820891)
(350.73394 -9.765229e-17 -10.831281)
(349.38042 8.1243163e-17 -12.841678)
(348.04019 -2.2682471e-17 -11.916631)
(346.25085 1.1312412e-16 -13.222075)
(344.1159 -2.0416483e-16 -13.109062)
(341.5245 1.0482508e-16 -14.066872)
(338.35546 -1.7409941e-16 -14.478755)
(334.5775 2.9035928e-16 -15.342662)
(330.05097 0 -16.012926)
(324.76974 -2.0012987e-16 -16.780907)
(318.7061 -6.657201e-16 -17.334979)
(312.00302 0 -17.634699)
(304.90718 -4.6906538e-16 -17.453667)
(297.80294 1.3927771e-17 -16.712126)
(291.07814 -6.1946639e-16 -15.387459)
(285.04576 -2.971866e-19 -13.598826)
(279.87291 1.1959708e-17 -11.52723)
(275.59314 -2.3667526e-18 -9.3789868)
(272.14115 9.8445458e-16 -7.3282128)
(269.39949 -2.2924962e-17 -5.5028546)
(267.23995 1.1288815e-15 -3.9646163)
(265.56192 1.1961925e-18 -2.7367477)
(264.2637 -1.2917805e-15 -1.824403)
(263.24343 9.3520662e-16 -1.1946004)
(262.43308 2.235903e-17 -0.79234)
(261.80835 -1.0565043e-15 -0.55707802)
(261.3381 2.4230562e-17 -0.45730596)
(260.92011 -5.3380108e-17 -0.46974612)
(260.53439 -3.8313161e-20 -0.59624916)
(260.32767 1.8606014e-17 -0.72659119)
(260.2571 -3.4466858e-15 -0.82991857)
(260.26324 -6.4383239e-20 -0.90321878)
(260.32404 1.7985824e-15 -0.95104244)
(260.52044 -1.3009155e-15 -0.86595643)
(261.19532 1.8856608e-15 -0.59634521)
(261.62503 -1.3729436e-15 -0.16068863)
(261.65826 1.0067977e-15 0.29303385)
(246.16279 2.0085581e-16 -8.5484313)
(288.5424 -1.4458114e-16 -9.1803158)
(316.30667 1.1096662e-16 -10.593277)
(339.86504 -2.1219663e-16 -11.203372)
(350.7689 9.4255838e-17 -13.005547)
(356.75939 -7.0072686e-17 -11.258732)
(352.76835 5.9150569e-17 -14.038924)
(355.40705 1.2243704e-17 -10.761825)
(352.96391 -8.2071955e-17 -14.606329)
(354.02464 1.6985629e-17 -10.90534)
(352.41083 -5.6938998e-17 -14.704986)
(352.53039 0 -11.593488)
(351.15294 -3.9584179e-17 -14.599133)
(350.45931 -3.3059846e-17 -12.606123)
(349.0369 -2.7591484e-17 -14.646541)
(347.6098 2.2836217e-17 -13.755887)
(345.72599 -1.5293304e-16 -15.073081)
(343.47302 -3.8141598e-19 -15.006368)
(340.7463 -2.1250582e-16 -15.975303)
(337.41935 0 -16.421592)
(333.46131 -1.4709391e-16 -17.288059)
(328.73596 0 -17.956875)
(323.24422 2.5777504e-17 -18.683436)
(316.9786 3.1628498e-16 -19.157362)
(310.11279 -2.8073947e-16 -19.31615)
(302.93101 -3.4010489e-18 -18.938907)
(295.84056 -3.9903953e-16 -17.960374)
(289.2288 -4.2357769e-19 -16.388494)
(283.38566 -4.7760117e-16 -14.369695)
(278.4454 0 -12.10354)
(274.41011 6.1539769e-16 -9.802175)
(271.19093 -9.6061539e-16 -7.6372128)
(268.65576 0 -5.7293062)
(266.67082 -2.2775616e-15 -4.1310278)
(265.13671 -8.3535494e-16 -2.8589777)
(263.95306 1.2786729e-15 -1.9153233)
(263.01872 3.0316999e-17 -1.2635636)
(262.2715 -4.4876498e-17 -0.84404548)
(261.69399 1.6510173e-17 -0.59401455)
(261.25049 0 -0.4847851)
(260.8385 -3.6882298e-19 -0.49034287)
(260.47674 2.5642143e-17 -0.60860389)
(260.29289 -1.2058478e-15 -0.729286)
(260.23571 3.4560101e-15 -0.82741503)
(260.24914 1.2365376e-15 -0.89756225)
(260.31422 1.7693088e-15 -0.94069105)
(260.55803 0 -0.83977661)
(261.2713 -9.3015375e-16 -0.5667814)
(261.66365 1.3605748e-15 -0.14734851)
(261.66909 -7.7032576e-18 0.28474566)
(247.52128 6.3686227e-18 -9.836036)
(289.98065 4.5871532e-18 -10.62411)
(317.74478 1.5029741e-17 -12.206613)
(341.52837 -4.7419638e-21 -12.89347)
(350.93929 7.446198e-17 -14.80055)
(356.70547 8.7654018e-20 -12.885708)
(352.5855 -7.490652e-17 -15.853145)
(355.1748 0 -12.390436)
(352.72102 2.0769814e-17 -16.423821)
(353.80355 -1.7321598e-17 -12.580198)
(352.11078 2.8773203e-17 -16.514264)
(352.16556 3.1167255e-20 -13.336747)
(350.78262 4.8378452e-20 -16.413274)
(350.02536 1.0037461e-16 -14.416463)
(348.53532 -2.7806733e-17 -16.477462)
(347.01948 -1.1655532e-16 -15.624747)
(345.03813 -4.2885905e-19 -16.947525)
(342.66441 1.4526235e-16 -16.926202)
(339.79884 1.0764425e-16 -17.902154)
(336.3094 0 -18.379156)
(332.16622 1.3129429e-16 -19.241616)
(327.23805 2.4978169e-16 -19.900087)
(321.53381 1.2790095e-17 -20.572861)
(315.07057 -3.4516225e-16 -20.949663)
(308.05633 2.6521698e-16 -20.947865)
(300.81336 4.8043492e-16 -20.356025)
(293.76787 0 -19.128187)
(287.30076 0 -17.305099)
(281.67389 5.1211095e-16 -15.059831)
(276.98648 -1.2261907e-17 -12.607968)
(273.20916 -6.2433005e-16 -10.164751)
(270.23082 3.0444004e-17 -7.8971977)
(267.90631 -2.3310616e-17 -5.9173489)
(266.09796 3.4522745e-15 -4.2679577)
(264.70885 -1.7498137e-15 -2.9590102)
(263.64031 -1.282493e-15 -1.9900197)
(262.79211 -1.5161343e-17 -1.3209873)
(262.10836 1.4394881e-15 -0.8876634)
(261.57786 0 -0.62562408)
(261.16063 2.4222272e-17 -0.50749792)
(260.75684 1.1100861e-15 -0.50904898)
(260.41969 0 -0.61852753)
(260.25708 1.163944e-15 -0.72986167)
(260.21297 -1.6919789e-15 -0.82340251)
(260.23585 0 -0.89163574)
(260.3085 -3.5349794e-15 -0.92790181)
(260.61376 0 -0.81338324)
(261.33637 0 -0.53660651)
(261.69818 0 -0.13567069)
(261.67782 0 0.27547832)
(248.73327 -6.4550281e-18 -11.152918)
(291.25904 0 -12.091257)
(319.01959 1.1454417e-16 -13.857184)
(342.97333 6.5000965e-18 -14.614874)
(350.88921 9.6755782e-20 -16.622955)
(356.43839 -1.6195984e-16 -14.528461)
(352.23865 -1.0256491e-19 -17.694938)
(354.87892 1.0061303e-16 -14.047774)
(352.34406 1.00669e-19 -18.275046)
(353.42623 -3.4975011e-17 -14.289945)
(351.68155 5.8511871e-17 -18.353654)
(351.71245 9.7560007e-17 -15.111441)
(350.26726 1.3731225e-19 -18.249332)
(349.44678 3.4020355e-17 -16.256304)
(347.88871 -2.820447e-17 -18.330155)
(346.28231 9.4284807e-17 -17.518755)
(344.20082 5.8810091e-17 -18.842605)
(341.70255 -1.1532961e-16 -18.866853)
(338.69286 1.0978555e-16 -19.845535)
(335.03565 2.0613919e-16 -20.348716)
(330.70158 -1.7907318e-17 -21.200302)
(325.56552 -4.9078599e-16 -21.838512)
(319.64701 1.7183013e-16 -22.443681)
(312.99181 3.6972602e-16 -22.704708)
(305.8459 3.0848181e-16 -22.521628)
(298.56877 -1.4634925e-17 -21.697041)
(291.60063 -2.4508997e-17 -20.209102)
(285.30937 -4.0511199e-19 -18.132907)
(279.92429 1.5599515e-17 -15.666866)
(275.50785 -8.2803408e-16 -13.039635)
(271.99979 6.4774434e-16 -10.466755)
(269.26823 9.5027297e-16 -8.1086546)
(267.15681 -1.4576469e-19 -6.0675889)