/*--------------------------------*- C++ -*----------------------------------*\
  =========                 |
  \\      /  F ield         | OpenFOAM: The Open Source CFD Toolbox
   \\    /   O peration     | Website:  https://openfoam.org
    \\  /    A nd           | Version:  8
     \\/     M anipulation  |
\*---------------------------------------------------------------------------*/
FoamFile
{
    version     2.0;
    format      ascii;
    class       volVectorField;
    location    "0.240005";
    object      wallShearStress;
}
// * * * * * * * * * * * * * * * * * * * * * * * * * * * * * * * * * * * * * //

dimensions      [1 -1 -2 0 0 0 0];

internalField   uniform (0 0 0);

boundaryField
{
    aerofoil
    {
        type            calculated;
        value           nonuniform List<vector> 
300
(
(-128.39888 8.6311688e-23 -4.7815795)
(-133.04309 1.0568985e-16 -4.4289541)
(-136.8295 4.0951864e-19 -4.0238133)
(-140.57921 -3.5300095e-35 -3.5927106)
(-144.21018 2.6293792e-20 -3.0922053)
(-147.68269 -5.9560233e-17 -2.4634517)
(-150.99094 3.1410426e-17 -1.8338136)
(-154.08595 -9.4535336e-19 -1.1464225)
(-156.96819 -3.0743346e-17 -0.41082675)
(-159.64089 3.0092655e-36 0.31974677)
(-162.08561 -1.8402679e-18 1.0428563)
(-164.34928 1.3071848e-16 1.8144851)
(-166.45918 2.0231061e-16 2.6219111)
(-168.45864 -1.3608399e-16 3.4652564)
(-170.39949 -1.3896101e-16 4.3485267)
(-172.29022 -4.6165936e-18 5.26698)
(-174.06399 4.2336943e-18 6.2177621)
(-175.71688 -4.6109416e-18 7.1998503)
(-177.2271 4.9644563e-18 8.209309)
(-178.61891 1.5809681e-16 9.2516772)
(-179.91134 -9.7242601e-18 10.330352)
(-181.11633 4.1814678e-20 11.449446)
(-182.26358 -3.1978209e-16 12.607598)
(-183.34638 0 13.800648)
(-184.40156 -6.6059512e-21 15.041622)
(-185.43658 3.3379086e-16 16.327204)
(-186.46617 1.0950732e-17 17.661171)
(-187.51716 -3.5817665e-16 19.053508)
(-188.58428 1.147036e-17 20.500664)
(-189.68686 -7.5549959e-16 22.021284)
(-190.80232 -2.4488047e-20 23.629149)
(-191.90912 5.7777898e-34 25.30847)
(-193.00889 -3.931858e-16 27.065902)
(-194.10617 -1.2549827e-17 28.913398)
(-195.18609 4.2037491e-16 30.857698)
(-196.21837 4.1648885e-16 32.901677)
(-197.20834 -3.6111186e-35 35.04249)
(-198.15697 4.1729263e-16 37.286684)
(-199.08761 1.1994899e-17 39.647347)
(-200.01821 1.5796387e-17 42.122247)
(-200.9433 -3.0387435e-17 44.704602)
(-201.79987 1.4441281e-17 47.39448)
(-202.53598 -4.4881835e-18 50.191969)
(-203.11459 -1.5050331e-17 53.098443)
(-203.47101 -4.7056961e-16 56.128098)
(-203.5922 2.9777428e-18 59.287348)
(-203.3782 -6.3973776e-18 62.550521)
(-202.72207 -1.0361358e-15 65.935833)
(-201.64411 1.1997333e-17 69.457898)
(-200.0962 5.2378247e-16 73.112883)
(-198.05042 -1.0663432e-18 76.918455)
(-195.47346 -5.4199126e-16 80.879877)
(-192.30969 -1.2020761e-17 84.992636)
(-188.53306 3.0453718e-17 89.269726)
(-184.12705 -6.7323778e-18 93.717302)
(-179.0781 1.9614226e-19 98.329744)
(-173.4337 -5.8363737e-16 103.09904)
(-167.36442 -6.0558635e-16 107.939)
(-161.13732 -5.8959137e-16 112.686)
(-154.97914 -1.9483831e-18 117.24885)
(-148.53159 1.2742229e-15 121.51302)
(-141.43262 -1.9787756e-17 125.2723)
(-133.33994 2.0335918e-17 128.13463)
(-124.0897 -1.9959394e-17 129.84651)
(-113.65096 1.050877e-17 130.35074)
(-102.04129 6.7778298e-16 129.1238)
(-89.052744 -6.9351604e-16 125.60275)
(-75.002086 1.1177157e-17 119.45911)
(-60.271744 -3.5806928e-16 109.91333)
(-45.533892 -1.1772464e-17 96.684454)
(-31.601113 0 79.764451)
(-19.174828 1.5243052e-18 59.883089)
(-9.862346 -4.5069266e-19 38.043978)
(-4.6508696 -1.5173272e-16 17.877893)
(-2.0064483 -6.2249822e-17 5.6011292)
(-0.17378105 1.3975605e-16 -0.33625868)
(-1.2543305 -2.4208296e-16 -0.24098562)
(-1.5742227 9.7361393e-22 -0.29864617)
(-2.3028133 -2.8072731e-16 -0.42749234)
(-3.0573209 -5.806863e-22 -0.55866893)
(-3.963404 1.4674318e-20 -0.71544799)
(-4.9474106 3.4670029e-16 -0.88338605)
(-6.0444782 1.0330609e-26 -1.0646821)
(-7.241183 0 -1.2599486)
(-8.5075791 -5.812669e-21 -1.4666262)
(-9.8304929 -2.7995591e-20 -1.6791059)
(-11.196074 -9.2078043e-21 -1.895087)
(-12.589392 -4.5692264e-16 -2.1119845)
(-14.005096 -6.7888977e-20 -2.3289044)
(-15.44182 -4.8476024e-16 -2.545065)
(-16.897861 -2.6692023e-26 -2.7606883)
(-18.37076 6.6470324e-20 -2.9749235)
(-19.855161 7.150433e-20 -3.1869574)
(-21.345256 -5.3099497e-16 -3.3961097)
(-22.83461 5.4095283e-16 -3.6013464)
(-24.315955 -5.5036887e-16 -3.8017403)
(-25.792157 5.5918798e-16 -3.9972446)
(-27.270783 5.6756354e-16 -4.1892675)
(-28.759505 -5.7554032e-16 -4.3785369)
(-30.253572 5.8339905e-16 -4.5649124)
(-31.752973 5.9068587e-16 -4.7477431)
(-33.255133 1.1955336e-15 -4.927248)
(-34.759603 -1.0793451e-22 -5.1025796)
(-36.259443 7.2994603e-23 -5.2733841)
(-37.755819 1.0636594e-25 -5.4391848)
(-39.247486 -6.2342664e-16 -5.6000934)
(-40.747009 3.0066791e-22 -5.758218)
(-42.265296 -6.3466807e-16 -5.9131496)
(-43.795917 -6.4008054e-16 -6.0650886)
(-45.337711 6.4561019e-16 -6.2136355)
(-46.890315 1.2952988e-25 -6.3587379)
(-48.451701 0 -6.4994377)
(-50.015604 -6.6051813e-16 -6.6351938)
(-51.581901 -6.6522422e-16 -6.7652769)
(-53.158287 8.0914207e-20 -6.8912303)
(-54.756718 6.743003e-16 -7.0129851)
(-56.37979 -8.4586387e-20 -7.1311772)
(-58.02185 -4.5940994e-20 -7.2449023)
(-59.680627 -6.8693548e-16 -7.3537333)
(-61.35853 6.9114758e-16 -7.4565424)
(-63.047794 -9.4965923e-20 -7.553422)
(-64.746225 -5.2997535e-20 -7.6430952)
(-66.451915 -7.0261679e-16 -7.7251025)
(-68.170576 -9.5491921e-20 -7.7995682)
(-69.917345 -6.1345157e-20 -7.867939)
(-71.708449 1.0739701e-19 -7.9300824)
(-73.537069 7.1651909e-16 -7.9856974)
(-75.391814 -6.4296133e-20 -8.033763)
(-77.273466 1.08643e-19 -8.0725357)
(-79.170158 2.7630326e-21 -8.1002146)
(-81.072163 -7.2916411e-16 -8.1167324)
(-82.99659 -4.8148249e-35 -8.1206684)
(-84.969009 -3.6749227e-16 -8.1142802)
(-86.992472 -3.6881459e-16 -8.0965461)
(-89.061222 -3.7024315e-16 -8.0675073)
(-91.163705 -3.7167637e-16 -8.0228525)
(-93.28558 1.166808e-25 -7.9630615)
(-95.424546 -3.1191585e-20 -7.8847827)
(-97.570556 4.7026747e-20 -7.7873761)
(-99.717816 4.7558776e-20 -7.6682071)
(-101.85418 3.7792541e-16 -7.5256967)
(-103.97985 -4.8327247e-20 -7.3592971)
(-106.11242 -6.9346523e-20 -7.16985)
(-108.31316 -1.400491e-25 -6.9600002)
(-110.65756 3.8330712e-16 -6.7292859)
(-113.195 -3.8392298e-16 -6.4748572)
(-115.9678 -4.6027554e-21 -6.1995696)
(-119.03294 2.151317e-20 -5.8942999)
(-122.36927 -3.8508836e-16 -5.5653216)
(-124.96749 -1.9326567e-16 -5.141488)
(-135.58085 1.996534e-19 -6.1857073)
(-139.42888 -2.0984888e-16 -6.8403072)
(-143.35891 3.7843843e-19 -7.579849)
(-146.18699 -2.1812159e-16 -8.2902586)
(-148.4055 7.0290613e-20 -9.0411416)
(-149.82439 2.2581045e-16 -9.735547)
(-150.91235 -2.3054336e-16 -10.467089)
(-151.69062 -1.7980323e-18 -11.181222)
(-152.38506 2.4183842e-16 -11.921223)
(-153.01528 6.7506594e-22 -12.664086)
(-153.55278 2.1266367e-19 -13.428454)
(-153.9589 2.5467353e-16 -14.189288)
(-154.30784 -2.5605978e-16 -14.968274)
(-154.57743 2.6529232e-16 -15.747655)
(-154.82707 2.7044496e-16 -16.545587)
(-155.0484 -4.3857413e-18 -17.358907)
(-155.24239 2.8143335e-16 -18.18532)
(-155.42275 -4.4928938e-18 -19.029395)
(-155.59014 -2.9260484e-16 -19.889309)
(-155.75767 3.0315053e-16 -20.769038)
(-155.91022 3.0438318e-16 -21.666841)
(-156.03652 -2.859848e-19 -22.580566)
(-156.15971 3.1603336e-16 -23.517601)
(-156.281 3.1739761e-16 -24.475018)
(-156.41612 1.0271143e-17 -25.462953)
(-156.52379 2.8481758e-20 -26.469162)
(-156.61606 -5.3201599e-18 -27.501536)
(-156.69129 -3.5882322e-16 -28.560435)
(-156.72767 3.6558573e-16 -29.641484)
(-156.72714 -3.6124806e-16 -30.750202)
(-156.6844 -3.6813209e-16 -31.890448)
(-156.59855 3.8692711e-16 -33.061809)
(-156.48012 -1.191172e-17 -34.269835)
(-156.35522 -3.8992098e-16 -35.522604)
(-156.24419 2.9603384e-21 -36.82871)
(-156.14976 -1.349687e-17 -38.19428)
(-156.0731 -3.9996302e-16 -39.62393)
(-156.01438 -4.2093874e-16 -41.122943)
(-156.00958 4.1321447e-19 -42.707867)
(-156.01948 -4.3816637e-16 -44.381103)
(-156.01634 4.4679868e-16 -46.141424)
(-155.96767 4.5490858e-16 -47.981956)
(-155.83566 2.5563275e-18 -49.907839)
(-155.59822 -4.7243114e-16 -51.931379)
(-155.24294 4.816764e-16 -54.058267)
(-154.78566 1.5425779e-17 -56.313254)
(-154.19467 2.9542955e-18 -58.698408)
(-153.50898 1.6058152e-19 -61.216286)
(-152.70823 -5.3408072e-16 -63.858767)
(-151.61245 0 -66.597156)
(-150.1621 0 -69.441914)
(-148.25676 1.5605301e-18 -72.386087)
(-145.81632 -5.8166909e-16 -75.43425)
(-142.78294 2.281021e-17 -78.639645)
(-139.13996 -6.0858293e-16 -82.04787)
(-134.89221 -5.7196906e-16 -85.726255)
(-130.12597 0 -89.772685)
(-125.08331 -9.4589293e-18 -94.123323)
(-120.30769 6.4631823e-16 -98.480676)
(-116.35614 -1.7087092e-17 -102.88306)
(-112.53158 -1.1288249e-19 -107.0184)
(-108.20792 -6.7590041e-16 -110.66598)
(-102.80058 -6.5614268e-16 -113.55254)
(-96.136882 -1.4538814e-19 -115.20285)
(-88.09236 1.5811898e-19 -115.32778)
(-78.561197 1.0797741e-17 -113.44274)
(-67.690219 -7.1980163e-16 -109.08302)
(-55.849071 7.1739331e-16 -101.83288)
(-43.594534 1.2585019e-17 -91.305905)
(-31.592626 9.205186e-19 -77.224429)
(-20.470734 -5.6503632e-18 -59.917054)
(-10.694449 6.9535933e-16 -40.010813)
(-5.2919762 -1.5779999e-16 -19.782652)
(-2.2826324 6.4268672e-17 -7.1305726)
(-0.88268762 1.6418192e-17 -0.20679048)
(-130.52245 -2.5266539e-19 15.546917)
(-161.7003 1.1716428e-15 16.402179)
(-164.76707 -6.9358466e-19 16.44794)
(-165.93542 5.6043227e-22 16.264475)
(-166.35086 1.159954e-15 16.032116)
(-166.397 8.64057e-19 15.761834)
(-166.07703 -1.150088e-15 15.470179)
(-165.53763 -1.1433804e-15 15.162355)
(-164.84596 2.2737209e-15 14.846702)
(-164.02629 1.1295762e-15 14.527888)
(-163.11468 -1.1231937e-15 14.203071)
(-162.11691 -8.5638982e-19 13.877688)
(-161.04177 1.4140071e-25 13.554393)
(-159.87881 1.104961e-15 13.230817)
(-158.69341 -9.0320869e-26 12.910248)
(-157.4986 -1.0771091e-20 12.595201)
(-156.31111 2.1732781e-15 12.284708)
(-155.11342 -0 11.980112)
(-153.89865 5.3668741e-16 11.681469)
(-152.72817 2.327693e-21 11.387581)
(-151.59147 3.288998e-27 11.101346)
(-150.48779 -1.0036137e-21 10.820331)
(-149.42584 -5.2386258e-16 10.547413)
(-148.41001 5.1973662e-16 10.279762)
(-147.4266 5.167959e-16 10.018463)
(-146.46841 -5.1328219e-16 9.7601509)
(-145.52917 1.0191285e-15 9.5068379)
(-144.60993 -5.0656505e-16 9.2551689)
(-143.70499 -5.0333367e-16 9.0072295)
(-142.81953 5.9500154e-19 8.7608736)
(-141.9524 -4.9715069e-16 8.516517)
(-141.10922 7.0769804e-26 8.2767246)
(-140.29395 4.9110029e-16 8.0368565)
(-139.49304 5.6442923e-19 7.7982592)
(-138.71237 4.8545664e-16 7.5608814)
(-137.95167 5.5027914e-19 7.3251269)
(-137.21652 -6.9333478e-33 7.0897411)
(-136.50306 -4.7716094e-16 6.8548523)
(-135.81138 4.7452054e-16 6.6192406)
(-135.1363 4.7242526e-16 6.3842817)
(-134.48248 6.0617494e-20 6.1483028)
(-133.84744 -5.8960747e-20 5.9112881)
(-133.23621 -2.5464344e-19 5.6728993)
(-132.64945 3.530477e-21 5.4342548)
(-132.09429 3.077228e-19 5.1930362)
(-131.56641 -6.7933195e-20 4.9506179)
(-131.06965 -9.0974016e-16 4.705586)
(-130.59605 -7.111609e-20 4.457044)
(-130.13667 -2.2515538e-16 4.2051111)
(-129.68144 -2.4063117e-19 3.9501588)
(-129.21387 7.6737987e-20 3.6902501)
(-128.73244 4.4374402e-16 3.4246068)
(-128.2592 -1.4727442e-19 3.1556861)
(-127.8511 -4.3914528e-16 2.8823365)
(-127.56997 2.1873699e-16 2.6036797)
(-127.47854 0 2.321313)
(-127.6364 -4.3289488e-16 2.0324386)
(-128.03594 2.1530392e-16 1.7354942)
(-128.58513 2.1458929e-16 1.4293937)
(-129.08815 1.0655516e-16 1.1139298)
(-129.26061 -1.0659716e-16 0.79588408)
(-128.89292 7.7053624e-26 0.47229676)
(-127.93717 6.4310202e-20 0.14479907)
(-126.57047 1.0539875e-19 -0.19565778)
(-124.68584 -5.2394593e-17 -0.55965782)
(-122.27131 -2.6204857e-17 -0.91982167)
(-119.45095 1.2820872e-25 -1.2651948)
(-116.66744 -6.6500155e-21 -1.6214098)
(-114.19586 5.1447365e-17 -1.9871672)
(-112.26966 3.9640725e-23 -2.3393794)
(-111.91916 7.7416924e-23 -2.7740273)
(-113.56726 -1.0005132e-16 -3.2860618)
(-117.34332 -9.9294138e-17 -3.9167596)
(-122.47938 1.9589064e-16 -4.5924825)
(-129.52249 -1.9309361e-16 -5.3774669)
)
;
    }
    inlet
    {
        type            calculated;
        value           uniform (0 0 0);
    }
    outlet
    {
        type            calculated;
        value           uniform (0 0 0);
    }
    back
    {
        type            empty;
    }
    front
    {
        type            empty;
    }
}


// ************************************************************************* //
