/*--------------------------------*- C++ -*----------------------------------*\
  =========                 |
  \\      /  F ield         | OpenFOAM: The Open Source CFD Toolbox
   \\    /   O peration     | Website:  https://openfoam.org
    \\  /    A nd           | Version:  8
     \\/     M anipulation  |
\*---------------------------------------------------------------------------*/
FoamFile
{
    version     2.0;
    format      ascii;
    class       volScalarField;
    location    "0.240005";
    object      yPlus;
}
// * * * * * * * * * * * * * * * * * * * * * * * * * * * * * * * * * * * * * //

dimensions      [0 0 0 0 0 0 0];

internalField   uniform 0;

boundaryField
{
    aerofoil
    {
        type            calculated;
        value           nonuniform List<scalar> 
300
(
124.37145
124.86934
125.24979
125.63281
126.0032
126.33494
126.65674
126.9422
127.19652
127.43155
127.62192
127.80313
127.97072
128.13575
128.30449
128.50022
128.69466
128.89256
129.07344
129.24533
129.41571
129.58393
129.7681
129.95607
130.17093
130.41226
130.67663
130.98713
131.32952
131.71849
132.14762
132.60544
133.08968
133.60143
134.1391
134.69805
135.2763
135.87205
136.49338
137.15532
137.85396
138.56967
139.27866
139.98401
140.64397
141.28127
141.85696
142.33903
142.75223
143.08188
143.33361
143.52034
143.63423
143.68887
143.71023
143.71953
143.75105
143.92204
144.28921
144.99738
145.92581
146.97136
147.92068
148.64046
149.10118
149.12626
148.27186
146.2814
142.41234
135.88584
125.64239
110.59184
89.215422
61.628334
34.583163
6.9895069
14.455332
16.155857
19.517637
22.455627
25.530453
28.480957
31.428119
34.342756
37.162018
39.879613
42.485419
44.974388
47.352599
49.635582
51.831022
53.948711
55.987299
57.948959
59.831932
61.635949
63.369911
65.048347
66.684573
68.276655
69.827193
71.336277
72.806517
74.233083
75.619679
76.967102
78.28703
79.593127
80.878836
82.144912
83.390549
84.616204
85.816872
86.993823
88.152014
89.302894
90.447195
91.581526
92.702589
93.814729
94.91089
95.991098
97.053074
98.102013
99.145023
100.19449
101.2461
102.29146
103.33014
104.3568
105.36284
106.35889
107.35765
108.3616
109.36574
110.36682
111.35282
112.32534
113.27426
114.19981
115.08956
115.94337
116.76881
117.59693
118.45682
119.3696
120.33433
121.40453
122.53062
123.62199
127.1499
127.53059
127.88906
127.84361
127.84178
127.47756
127.17022
126.74459
126.35556
125.98508
125.67517
125.34238
125.05193
124.74782
124.4874
124.25363
124.0423
123.8578
123.69605
123.56425
123.45869
123.36646
123.30123
123.25273
123.24167
123.23892
123.25448
123.28656
123.32338
123.36426
123.4136
123.46645
123.52647
123.60282
123.70806
123.84592
124.01784
124.22323
124.47671
124.76684
125.08698
125.42719
125.76626
126.10886
126.43671
126.7807
127.11918
127.48188
127.86933
128.20676
128.48171
128.67621
128.77625
128.78505
128.7313
128.65594
128.64964
128.88843
129.48795
130.75458
132.36913
134.10179
135.69972
136.90845
137.60404
137.52606
136.31976
133.56529
128.66508
120.64315
108.37032
90.031452
64.30916
39.034561
10.483299
159.55959
158.66802
159.37214
159.49016
159.20918
158.83834
158.32904
157.74562
157.11788
156.44817
155.75467
155.0372
154.29698
153.52445
152.75395
151.98717
151.2306
150.48066
149.72527
148.99352
148.28315
147.594
146.92876
146.29164
145.66999
145.06069
144.45861
143.86704
143.28022
142.70207
142.13138
141.56814
141.01975
140.47557
139.94137
139.41389
138.8979
138.3903
137.89375
137.4025
136.92148
136.44665
135.98249
135.52683
135.08632
134.65515
134.23787
133.83102
133.43108
133.03742
132.63966
132.23759
131.83218
131.44565
131.10419
130.8275
130.65185
130.58003
130.59107
130.62828
130.56878
130.35244
129.86753
129.23901
128.37916
127.30514
125.95673
124.52869
123.20891
121.88872
121.23676
121.30966
122.41753
123.78464
125.74497
)
;
    }
    inlet
    {
        type            calculated;
        value           uniform 0;
    }
    outlet
    {
        type            calculated;
        value           uniform 0;
    }
    back
    {
        type            empty;
    }
    front
    {
        type            empty;
    }
}


// ************************************************************************* //
