/*--------------------------------*- C++ -*----------------------------------*\
  =========                 |
  \\      /  F ield         | OpenFOAM: The Open Source CFD Toolbox
   \\    /   O peration     | Website:  https://openfoam.org
    \\  /    A nd           | Version:  8
     \\/     M anipulation  |
\*---------------------------------------------------------------------------*/
FoamFile
{
    version     2.0;
    format      ascii;
    class       volScalarField;
    location    "0.229992";
    object      alphat;
}
// * * * * * * * * * * * * * * * * * * * * * * * * * * * * * * * * * * * * * //

dimensions      [1 -1 -1 0 0 0 0];

internalField   nonuniform List<scalar> 
20000
(
0.0010722879
0.0025006142
0.0031819036
0.003204549
0.0024696906
0.00068754858
5.4469694e-07
5.3302456e-09
4.7821381e-09
4.7551167e-09
4.6085966e-09
4.6409967e-09
4.5590818e-09
4.6029792e-09
4.5979514e-09
4.6453689e-09
4.6726325e-09
4.7312435e-09
4.7886716e-09
4.8720722e-09
4.9662312e-09
5.086306e-09
5.2250852e-09
5.3913749e-09
5.5847008e-09
5.8212956e-09
6.0884124e-09
6.3814687e-09
6.6879127e-09
6.997935e-09
7.2973344e-09
7.5733206e-09
7.816819e-09
8.0237362e-09
8.1939788e-09
8.3304099e-09
8.4372252e-09
8.5192867e-09
8.5798055e-09
8.6256219e-09
8.6653451e-09
8.6960501e-09
8.713882e-09
8.7212971e-09
8.7230313e-09
8.7123006e-09
8.6968576e-09
8.660308e-09
8.6535338e-09
8.5184654e-09
0.0010624812
0.0024461834
0.0030793357
0.0030537193
0.0022415153
0.0005381532
1.4668405e-07
5.1904578e-09
4.7013587e-09
4.6793161e-09
4.5377488e-09
4.571913e-09
4.4920084e-09
4.5368363e-09
4.5332558e-09
4.5818031e-09
4.6108039e-09
4.6712802e-09
4.7312141e-09
4.8171805e-09
4.914219e-09
5.0371674e-09
5.1797612e-09
5.3520228e-09
5.5563284e-09
5.8047895e-09
6.0841307e-09
6.3824415e-09
6.6963627e-09
7.0111345e-09
7.3124352e-09
7.5883153e-09
7.8303404e-09
8.0350462e-09
8.2029604e-09
8.3373814e-09
8.4426644e-09
8.5234418e-09
8.5828247e-09
8.6283956e-09
8.6692578e-09
8.6992672e-09
8.7158254e-09
8.722553e-09
8.7240698e-09
8.7128458e-09
8.6967243e-09
8.6601348e-09
8.6505234e-09
8.515591e-09
0.0010501225
0.0023884694
0.0029732701
0.002900505
0.0020119606
0.000405274
4.7020273e-08
5.078389e-09
4.6256628e-09
4.6078915e-09
4.4715546e-09
4.5072406e-09
4.4294034e-09
4.4749084e-09
4.472921e-09
4.5225347e-09
4.5533496e-09
4.6157278e-09
4.6779989e-09
4.7661768e-09
4.8657104e-09
4.9916479e-09
5.1393765e-09
5.3210137e-09
5.5424749e-09
5.8016448e-09
6.0846302e-09
6.3909878e-09
6.7108866e-09
7.029524e-09
7.3321053e-09
7.6070172e-09
7.8467177e-09
8.048454e-09
8.2133982e-09
8.3453377e-09
8.448794e-09
8.5280862e-09
8.5862752e-09
8.6319213e-09
8.6741171e-09
8.7033266e-09
8.7188505e-09
8.7246107e-09
8.7255928e-09
8.7135352e-09
8.695571e-09
8.6597572e-09
8.6189348e-09
8.5165514e-09
0.0010382898
0.0023323505
0.0028688971
0.0027535787
0.001785461
0.00029269543
1.9794277e-08
4.9811094e-09
4.5544492e-09
4.5407961e-09
4.4094519e-09
4.4467173e-09
4.3709835e-09
4.4173102e-09
4.417004e-09
4.4678294e-09
4.5005972e-09
4.5648634e-09
4.6294025e-09
4.7197355e-09
4.8222102e-09
4.9527081e-09
5.1090276e-09
5.3061338e-09
5.5376224e-09
5.8009e-09
6.0924713e-09
6.4076197e-09
6.7339195e-09
7.0557981e-09
7.3585751e-09
7.6314377e-09
7.8677565e-09
8.0655922e-09
8.2267536e-09
8.3555399e-09
8.4565573e-09
8.5338043e-09
8.5905027e-09
8.6363585e-09
8.6786298e-09
8.7062131e-09
8.7209164e-09
8.7263208e-09
8.7268068e-09
8.7144737e-09
8.6952583e-09
8.6586235e-09
8.5983569e-09
8.517877e-09
0.0010265552
0.0022777407
0.0027661756
0.00260299
0.0015640792
0.00019545919
1.0929663e-08
4.8947737e-09
4.4886915e-09
4.4789998e-09
4.3524757e-09
4.3913397e-09
4.3176682e-09
4.3648801e-09
4.3663599e-09
4.4184678e-09
4.4531373e-09
4.5190978e-09
4.5857093e-09
4.6785771e-09
4.7853713e-09
4.9234472e-09
5.0938555e-09
5.300481e-09
5.5372043e-09
5.8080447e-09
6.1092605e-09
6.4328512e-09
6.7646054e-09
7.0887228e-09
7.3906633e-09
7.6604116e-09
7.8923632e-09
8.0854568e-09
8.2421485e-09
8.3672492e-09
8.4653919e-09
8.5402221e-09
8.5953582e-09
8.6416371e-09
8.6830903e-09
8.7089943e-09
8.7228659e-09
8.7279243e-09
8.7280062e-09
8.7160028e-09
8.6938156e-09
8.6559803e-09
8.5887878e-09
8.5187759e-09
0.0010154581
0.0022262526
0.0026712857
0.0024584169
0.0013522232
0.00011214218
7.5544144e-09
4.8164048e-09
4.4286577e-09
4.4227312e-09
4.3008198e-09
4.3413187e-09
4.2697272e-09
4.3179627e-09
4.3213411e-09
4.3747662e-09
4.411255e-09
4.4787665e-09
4.5477905e-09
4.6447056e-09
4.7585516e-09
4.909259e-09
5.0882208e-09
5.2997967e-09
5.5432608e-09
5.8241942e-09
6.1352802e-09
6.4668809e-09
6.8034479e-09
7.1287598e-09
7.4286866e-09
7.6941942e-09
7.9207652e-09
8.1082624e-09
8.2597883e-09
8.380649e-09
8.4754358e-09
8.5474426e-09
8.6009324e-09
8.647659e-09
8.6873999e-09
8.7116861e-09
8.724469e-09
8.7292422e-09
8.7285915e-09
8.7166233e-09
8.6923631e-09
8.6531526e-09
8.5806742e-09
8.5188174e-09
0.0010042676
0.0021757188
0.0025780909
0.0023160507
0.0011523371
4.9815265e-05
6.0939066e-09
4.745937e-09
4.3746743e-09
4.3723483e-09
4.2549009e-09
4.2971047e-09
4.227606e-09
4.276929e-09
4.2821994e-09
4.3369031e-09
4.3753124e-09
4.4448801e-09
4.517677e-09
4.6211933e-09
4.7464584e-09
4.9039007e-09
5.0874007e-09
5.3047685e-09
5.5587415e-09
5.8500023e-09
6.1708489e-09
6.5098247e-09
6.8501883e-09
7.175505e-09
7.4722013e-09
7.7323344e-09
7.952544e-09
8.1336405e-09
8.2793668e-09
8.3954929e-09
8.4865019e-09
8.5553713e-09
8.6071843e-09
8.6541962e-09
8.6917812e-09
8.7143189e-09
8.7259568e-09
8.7303482e-09
8.7288744e-09
8.7166618e-09
8.6907883e-09
8.6463357e-09
8.5734843e-09
8.5186501e-09
0.00099344822
0.0021267263
0.0024872555
0.0021741554
0.00096679165
1.637768e-05
5.4026006e-09
4.6843501e-09
4.3266475e-09
4.3279288e-09
4.2148937e-09
4.2589463e-09
4.191516e-09
4.2419043e-09
4.2489947e-09
4.3050562e-09
4.3461017e-09
4.4193481e-09
4.4993966e-09
4.6115907e-09
4.7419741e-09
4.9031484e-09
5.0918866e-09
5.3192193e-09
5.5836241e-09
5.8856847e-09
6.2160439e-09
6.5616543e-09
6.9047555e-09
7.2288078e-09
7.5210019e-09
7.7746189e-09
7.9875101e-09
8.1614389e-09
8.3007714e-09
8.4116963e-09
8.4985267e-09
8.5640037e-09
8.614123e-09
8.6611234e-09
8.6962134e-09
8.7169051e-09
8.7274276e-09
8.7313373e-09
8.7289652e-09
8.7164406e-09
8.6888596e-09
8.6370492e-09
8.5683191e-09
8.5184194e-09
0.00098278257
0.002078898
0.0023985642
0.0020327495
0.00079794131
4.3834514e-06
5.0518239e-09
4.6310385e-09
4.2850216e-09
4.2898664e-09
4.1810867e-09
4.2269659e-09
4.1615144e-09
4.2129783e-09
4.2221549e-09
4.2802311e-09
4.3254361e-09
4.405613e-09
4.4921397e-09
4.6081335e-09
4.7415195e-09
4.907569e-09
5.1055689e-09
5.34281e-09
5.6185223e-09
5.9314304e-09
6.2709043e-09
6.6222635e-09
6.9668676e-09
7.2882985e-09
7.574691e-09
7.8206662e-09
8.0253254e-09
8.1913768e-09
8.3237793e-09
8.4290834e-09
8.5113758e-09
8.5732938e-09
8.6217598e-09
8.6682922e-09
8.7006921e-09
8.7195092e-09
8.7289266e-09
8.732289e-09
8.7289237e-09
8.7160445e-09
8.6860297e-09
8.6267267e-09
8.5635976e-09
8.5183161e-09
0.00097257216
0.0020328466
0.0023120776
0.0018937431
0.00064675928
1.1046033e-06
4.8603423e-09
4.5847716e-09
4.2499962e-09
4.2582398e-09
4.1532677e-09
4.2008611e-09
4.1376617e-09
4.1906621e-09
4.2030267e-09
4.2655256e-09
4.3163958e-09
4.4001727e-09
4.4901441e-09
4.6080186e-09
4.7465296e-09
4.9207397e-09
5.1280339e-09
5.3762545e-09
5.6634813e-09
5.9872676e-09
6.3353259e-09
6.6914141e-09
7.0361975e-09
7.353594e-09
7.6328769e-09
7.8701141e-09
8.0656794e-09
8.2232034e-09
8.348196e-09
8.4475016e-09
8.5249341e-09
8.5831896e-09
8.6300822e-09
8.6755455e-09
8.7052336e-09
8.722168e-09
8.7304143e-09
8.7331399e-09
8.7287498e-09
8.714939e-09
8.6819164e-09
8.6168452e-09
8.560477e-09
8.5186671e-09
0.00096277308
0.001988999
0.0022274622
0.0017518707
0.00051396739
2.9932758e-07
4.7468391e-09
4.5464584e-09
4.2214882e-09
4.2331595e-09
4.1313709e-09
4.180733e-09
4.1210471e-09
4.1773722e-09
4.1940313e-09
4.2594312e-09
4.3129658e-09
4.3987872e-09
4.4904955e-09
4.6138601e-09
4.7596962e-09
4.9423221e-09
5.1600156e-09
5.4195817e-09
5.7186886e-09
6.0532056e-09
6.4091655e-09
6.7688121e-09
7.1123346e-09
7.4242313e-09
7.6951008e-09
7.9225451e-09
8.1082164e-09
8.2566321e-09
8.3737978e-09
8.4667748e-09
8.5390703e-09
8.5936021e-09
8.6389949e-09
8.6827571e-09
8.7099034e-09
8.7249345e-09
8.7319291e-09
8.7339338e-09
8.7285384e-09
8.7132385e-09
8.676351e-09
8.6077925e-09
8.557371e-09
8.5191652e-09
0.00095359893
0.0019479125
0.0021468424
0.0016073843
0.00040210428
9.6791564e-08
4.674288e-09
4.5152833e-09
4.1995618e-09
4.2143714e-09
4.1170902e-09
4.1697796e-09
4.1136082e-09
4.1716065e-09
4.1904928e-09
4.2574689e-09
4.3125242e-09
4.4004817e-09
4.497839e-09
4.6272463e-09
4.7809199e-09
4.9729316e-09
5.2014745e-09
5.4729637e-09
5.7841256e-09
6.1291165e-09
6.4921474e-09
6.8540532e-09
7.1947932e-09
7.4997019e-09
7.7608798e-09
7.9775334e-09
8.1525818e-09
8.2913819e-09
8.4003665e-09
8.4867315e-09
8.5536641e-09
8.6044637e-09
8.6485055e-09
8.689824e-09
8.7145856e-09
8.7278279e-09
8.7335093e-09
8.7348831e-09
8.7282207e-09
8.711193e-09
8.6694638e-09
8.5999116e-09
8.5545265e-09
8.5187398e-09
0.00094499551
0.0019090983
0.0020780549
0.001459581
0.00030548967
3.8655995e-08
4.6335119e-09
4.4899844e-09
4.1887591e-09
4.202149e-09
4.109662e-09
4.1592246e-09
4.1106166e-09
4.1694232e-09
4.1897317e-09
4.2575794e-09
4.316395e-09
4.4091263e-09
4.5120363e-09
4.6483893e-09
4.8106563e-09
5.0125715e-09
5.2526308e-09
5.5364753e-09
5.8598176e-09
6.214876e-09
6.5839715e-09
6.9466958e-09
7.2830421e-09
7.579456e-09
7.829698e-09
8.0346277e-09
8.1984029e-09
8.3271593e-09
8.4276749e-09
8.5071945e-09
8.5685932e-09
8.6156975e-09
8.6582939e-09
8.6967772e-09
8.7193389e-09
8.7308445e-09
8.7352768e-09
8.7360701e-09
8.7278697e-09
8.7088573e-09
8.6614483e-09
8.5935038e-09
8.5520288e-09
8.5181542e-09
0.00093668476
0.0018701475
0.0020037621
0.0013083225
0.00022024328
1.932733e-08
4.6144427e-09
4.4727322e-09
4.181991e-09
4.1936738e-09
4.1005246e-09
4.1486498e-09
4.1097061e-09
4.1691113e-09
4.1923858e-09
4.2637158e-09
4.3268533e-09
4.4243352e-09
4.5337656e-09
4.6775033e-09
4.848903e-09
5.0613677e-09
5.3135023e-09
5.6101132e-09
5.9456595e-09
6.3102126e-09
6.6842112e-09
7.0461927e-09
7.3764859e-09
7.662908e-09
7.9010244e-09
8.0933754e-09
8.2453127e-09
8.3636791e-09
8.4555034e-09
8.5279956e-09
8.5837499e-09
8.6272196e-09
8.6681766e-09
8.7035369e-09
8.724042e-09
8.7339409e-09
8.7373182e-09
8.7373803e-09
8.7276196e-09
8.7062158e-09
8.6525538e-09
8.5885398e-09
8.5498517e-09
8.517686e-09
0.00092894704
0.0018326015
0.001933556
0.0011586366
0.00014565822
1.1955555e-08
4.6043323e-09
4.463234e-09
4.1732491e-09
4.1856142e-09
4.090719e-09
4.1407555e-09
4.1119212e-09
4.1742298e-09
4.2011647e-09
4.2758307e-09
4.3438244e-09
4.4467001e-09
4.562946e-09
4.7146381e-09
4.8957732e-09
5.1193938e-09
5.3841966e-09
5.6939355e-09
6.0415834e-09
6.4148874e-09
6.7924441e-09
7.1519853e-09
7.4745103e-09
7.7494533e-09
7.9743119e-09
8.153314e-09
8.2929392e-09
8.4006531e-09
8.4836313e-09
8.5489694e-09
8.5990324e-09
8.6389507e-09
8.6780852e-09
8.7101189e-09
8.7283826e-09
8.7369323e-09
8.739701e-09
8.7385717e-09
8.7274118e-09
8.7032049e-09
8.6436645e-09
8.5841051e-09
8.5477273e-09
8.5171395e-09
0.00092154325
0.0017955319
0.0018630355
0.0010197721
8.3344772e-05
8.7617415e-09
4.5950233e-09
4.4543225e-09
4.1690382e-09
4.1800978e-09
4.0887113e-09
4.1399999e-09
4.1199171e-09
4.1852272e-09
4.2160663e-09
4.2944731e-09
4.3675614e-09
4.4760815e-09
4.5996518e-09
4.7598038e-09
4.951257e-09
5.1866824e-09
5.4647139e-09
5.7878832e-09
6.1473843e-09
6.5285188e-09
6.9081208e-09
7.2634274e-09
7.5764434e-09
7.838459e-09
8.0490097e-09
8.2139925e-09
8.3409275e-09
8.4378078e-09
8.5118494e-09
8.5699652e-09
8.6143595e-09
8.6508359e-09
8.687947e-09
8.7164952e-09
8.7324239e-09
8.7397953e-09
8.7421636e-09
8.7395733e-09
8.727127e-09
8.6996806e-09
8.6348379e-09
8.5797079e-09
8.5456406e-09
8.5166308e-09
0.00091404397
0.0017563054
0.0017917919
0.00089013367
3.9030484e-05
7.2455102e-09
4.5978525e-09
4.4491774e-09
4.1767884e-09
4.1874355e-09
4.0972359e-09
4.1495348e-09
4.1343057e-09
4.2023856e-09
4.2371714e-09
4.3193974e-09
4.3979139e-09
4.5124936e-09
4.6438392e-09
4.8130188e-09
5.0154359e-09
5.2633435e-09
5.5551745e-09
5.8919976e-09
6.2629335e-09
6.6507665e-09
7.0307072e-09
7.3798692e-09
7.6815976e-09
7.9292794e-09
8.1245669e-09
8.2749682e-09
8.3889344e-09
8.4748766e-09
8.5399506e-09
8.5908393e-09
8.6296646e-09
8.662845e-09
8.6976709e-09
8.7226742e-09
8.7362513e-09
8.7425151e-09
8.7445418e-09
8.740474e-09
8.7266941e-09
8.6951559e-09
8.6260643e-09
8.5752579e-09
8.5437602e-09
8.5162755e-09
0.00090660977
0.0017157071
0.0017190229
0.00077038635
1.5020521e-05
6.4693339e-09
4.5961201e-09
4.4473798e-09
4.18556e-09
4.196379e-09
4.1125155e-09
4.1671647e-09
4.1544935e-09
4.2251959e-09
4.2641611e-09
4.3505359e-09
4.4348212e-09
4.555844e-09
4.695481e-09
4.8742741e-09
5.0883377e-09
5.3494193e-09
5.6555923e-09
6.0061694e-09
6.3879399e-09
6.7811166e-09
7.1595317e-09
7.5005528e-09
7.789219e-09
8.0212497e-09
8.2004512e-09
8.3358323e-09
8.4366511e-09
8.5116203e-09
8.5677423e-09
8.611461e-09
8.644897e-09
8.674963e-09
8.707134e-09
8.7286474e-09
8.7399478e-09
8.7450913e-09
8.7467763e-09
8.7415052e-09
8.7260123e-09
8.6888011e-09
8.6176708e-09
8.5709184e-09
8.5419544e-09
8.5160279e-09
0.0008990492
0.0016729438
0.0016432816
0.00066038121
5.075037e-06
6.0441189e-09
4.5942047e-09
4.4526636e-09
4.198192e-09
4.2123398e-09
4.1319852e-09
4.188884e-09
4.1798775e-09
4.2535303e-09
4.2969664e-09
4.387744e-09
4.4781829e-09
4.6061021e-09
4.7545817e-09
4.9436542e-09
5.170111e-09
5.4451028e-09
5.7661271e-09
6.13042e-09
6.5221975e-09
6.9191133e-09
7.2939447e-09
7.6247136e-09
7.898548e-09
8.1137235e-09
8.2761631e-09
8.3962069e-09
8.4837896e-09
8.5478195e-09
8.5950421e-09
8.6317002e-09
8.6600094e-09
8.6871816e-09
8.716182e-09
8.7343842e-09
8.7435923e-09
8.7475789e-09
8.7488196e-09
8.7425121e-09
8.7249536e-09
8.6802136e-09
8.6098878e-09
8.566704e-09
8.5402154e-09
8.5160096e-09
0.00089116595
0.001627386
0.0015615405
0.00055985138
1.6385792e-06
5.8025069e-09
4.5953015e-09
4.4617442e-09
4.2147813e-09
4.2318646e-09
4.1560271e-09
4.2156719e-09
4.2105143e-09
4.2872892e-09
4.3354444e-09
4.4309506e-09
4.5279398e-09
4.6632342e-09
4.8211586e-09
5.0212266e-09
5.2608602e-09
5.5504978e-09
5.8867969e-09
6.2645855e-09
6.6652904e-09
7.0641118e-09
7.4331259e-09
7.7514774e-09
8.0087987e-09
8.2060941e-09
8.3512542e-09
8.4557544e-09
8.5300895e-09
8.5832856e-09
8.6216967e-09
8.6514349e-09
8.6749434e-09
8.6994345e-09
8.7247007e-09
8.7398392e-09
8.7472233e-09
8.7501068e-09
8.7505979e-09
8.7429692e-09
8.7233917e-09
8.6697438e-09
8.6026494e-09
8.5627726e-09
8.538584e-09
8.5161276e-09
0.00088305528
0.0015792621
0.0014699093
0.00046711702
5.4458876e-07
5.6665611e-09
4.6017849e-09
4.4762673e-09
4.2362738e-09
4.2571517e-09
4.1850432e-09
4.2473937e-09
4.2462445e-09
4.3263268e-09
4.3795126e-09
4.4800463e-09
4.5840615e-09
4.727273e-09
4.8953299e-09
5.1071888e-09
5.3608589e-09
5.6658816e-09
6.0177966e-09
6.408633e-09
6.8169042e-09
7.2155065e-09
7.5762596e-09
7.8799933e-09
8.1192783e-09
8.2978583e-09
8.425324e-09
8.5141447e-09
8.5752886e-09
8.6178316e-09
8.6475793e-09
8.6705537e-09
8.6896179e-09
8.7114756e-09
8.7327368e-09
8.7449809e-09
8.7507396e-09
8.7529043e-09
8.7519562e-09
8.7433328e-09
8.7210874e-09
8.6584233e-09
8.5956522e-09
8.5591832e-09
8.5369776e-09
8.5162489e-09
0.00087484561
0.0015297228
0.0013717166
0.00038246304
1.9695676e-07
5.5861604e-09
4.6128855e-09
4.4952597e-09
4.2621343e-09
4.286536e-09
4.218587e-09
4.2838511e-09
4.2869484e-09
4.3705511e-09
4.4290906e-09
4.5350071e-09
4.6465568e-09
4.7982983e-09
4.9772199e-09
5.201737e-09
5.4702955e-09
5.7914251e-09
6.1591014e-09
6.5623054e-09
6.976447e-09
7.3724406e-09
7.7223647e-09
8.0093996e-09
8.2294243e-09
8.3886163e-09
8.4979935e-09
8.5710301e-09
8.6191123e-09
8.651256e-09
8.672593e-09
8.6889903e-09
8.7039355e-09
8.723082e-09
8.7403224e-09
8.749882e-09
8.7541602e-09
8.7557715e-09
8.7531659e-09
8.743573e-09
8.7175493e-09
8.6468903e-09
8.5890264e-09
8.5560707e-09
8.5357514e-09
8.5164898e-09
0.00086658023
0.0014788787
0.0012678071
0.00030906238
8.2409661e-08
5.5394073e-09
4.6283711e-09
4.518677e-09
4.2925009e-09
4.3204603e-09
4.2566538e-09
4.3249921e-09
4.3325359e-09
4.4199034e-09
4.4841452e-09
4.5958587e-09
4.7155118e-09
4.8764706e-09
5.0671034e-09
5.3051986e-09
5.5895801e-09
5.9274551e-09
6.3109025e-09
6.725445e-09
7.1434219e-09
7.5341047e-09
7.8705519e-09
8.1390527e-09
8.3388907e-09
8.4780176e-09
8.5688399e-09
8.626017e-09
8.6612943e-09
8.6833167e-09
8.6966252e-09
8.7067483e-09
8.717802e-09
8.7340729e-09
8.7474514e-09
8.7546134e-09
8.7575534e-09
8.7585327e-09
8.7543925e-09
8.7436467e-09
8.712056e-09
8.6358452e-09
8.5830423e-09
8.5535958e-09
8.5351231e-09
8.516924e-09
0.00085802727
0.0014258506
0.0011635305
0.00024395991
3.9969351e-08
5.512622e-09
4.6485332e-09
4.5461275e-09
4.3272376e-09
4.3585933e-09
4.2991483e-09
4.3706808e-09
4.3829603e-09
4.4743384e-09
4.5446887e-09
4.6627047e-09
4.791077e-09
4.9620151e-09
5.1652454e-09
5.4178886e-09
5.7189842e-09
6.0741439e-09
6.4730862e-09
6.8975973e-09
7.3169982e-09
7.699465e-09
8.0199382e-09
8.2685082e-09
8.4473449e-09
8.5655265e-09
8.6373301e-09
8.6787274e-09
8.7016423e-09
8.7137969e-09
8.7195095e-09
8.7239076e-09
8.7311619e-09
8.7443368e-09
8.7541049e-09
8.7591844e-09
8.7610091e-09
8.7610072e-09
8.7555829e-09
8.7429769e-09
8.703932e-09
8.6259872e-09
8.5778683e-09
8.5514697e-09
8.5346414e-09
8.5175441e-09
0.00084972339
0.0013700932
0.0010642469
0.00018225809
2.2511207e-08
5.4988904e-09
4.6729823e-09
4.577821e-09
4.3659923e-09
4.4009174e-09
4.3459712e-09
4.4208783e-09
4.4382013e-09
4.5338891e-09
4.6108158e-09
4.73569e-09
4.8734849e-09
5.0552608e-09
5.2720573e-09
5.540286e-09
5.8589973e-09
6.2318543e-09
6.645727e-09
7.0784152e-09
7.496422e-09
7.8676256e-09
8.1699634e-09
8.397554e-09
8.5541336e-09
8.6501409e-09
8.7028453e-09
8.728954e-09
8.7400917e-09
8.7426469e-09
8.7410188e-09
8.7405321e-09
8.7440251e-09
8.7538216e-09
8.7602981e-09
8.7635119e-09
8.7645964e-09
8.7631283e-09
8.7566239e-09
8.7414463e-09
8.6930089e-09
8.6177204e-09
8.5733588e-09
8.5494404e-09
8.5343023e-09
8.5183257e-09
0.00084242675
0.0013203466
0.00096440373
0.00012566574
1.4715061e-08
5.4939074e-09
4.7015418e-09
4.6134725e-09
4.4086603e-09
4.4473326e-09
4.3970883e-09
4.4755921e-09
4.4983066e-09
4.5986644e-09
4.6826978e-09
4.8150813e-09
4.9630517e-09
5.1565669e-09
5.3879412e-09
5.6727892e-09
6.0099406e-09
6.400677e-09
6.828528e-09
7.2671425e-09
7.6806197e-09
8.0376375e-09
8.3202398e-09
8.5256644e-09
8.6578123e-09
8.7311144e-09
8.764979e-09
8.7766516e-09
8.7766255e-09
8.7699719e-09
8.7610398e-09
8.7564761e-09
8.7564486e-09
8.7625301e-09
8.7661078e-09
8.7677214e-09
8.7680189e-09
8.764924e-09
8.7570361e-09
8.7389953e-09
8.6805894e-09
8.6102213e-09
8.5694999e-09
8.5479943e-09
8.5341295e-09
8.5192648e-09
0.00083556105
0.0012701761
0.00086601245
7.7348457e-05
1.0910831e-08
5.4956032e-09
4.7341866e-09
4.6529902e-09
4.4553372e-09
4.497874e-09
4.4525551e-09
4.5349084e-09
4.5634276e-09
4.6688549e-09
4.7605821e-09
4.9011482e-09
5.0601592e-09
5.266408e-09
5.5134435e-09
5.8159965e-09
6.1723613e-09
6.5809135e-09
7.0213511e-09
7.463143e-09
7.8687152e-09
8.2089494e-09
8.4705289e-09
8.6512776e-09
8.7574154e-09
8.8077507e-09
8.8238284e-09
8.8224825e-09
8.8111352e-09
8.795575e-09
8.7799396e-09
8.7712001e-09
8.7683864e-09
8.7705138e-09
8.7715829e-09
8.7719004e-09
8.7710879e-09
8.7665046e-09
8.7571994e-09
8.735535e-09
8.6675523e-09
8.6030764e-09
8.5662618e-09
8.5474314e-09
8.5345456e-09
8.52037e-09
0.00082917079
0.0012195621
0.00077044205
4.132694e-05
8.9255712e-09
5.5028901e-09
4.7706499e-09
4.6964388e-09
4.5060139e-09
4.5526087e-09
4.5124977e-09
4.5989875e-09
4.6337587e-09
4.7447277e-09
4.8447812e-09
4.9943031e-09
5.1652475e-09
5.3852626e-09
5.6490594e-09
5.970366e-09
6.3465264e-09
6.7724679e-09
7.2235741e-09
7.6653547e-09
8.059678e-09
8.3811238e-09
8.6198068e-09
8.7727916e-09
8.8517999e-09
8.8801252e-09
8.8805753e-09
8.865577e-09
8.8435151e-09
8.8195839e-09
8.7977817e-09
8.7850114e-09
8.7793836e-09
8.7778862e-09
8.7768636e-09
8.7758383e-09
8.7738081e-09
8.7679721e-09
8.7572006e-09
8.7305731e-09
8.6546166e-09
8.5962632e-09
8.5634604e-09
8.5471271e-09
8.5351633e-09
8.5215256e-09
0.00082335496
0.0011680242
0.00067906897
1.9295748e-05
7.8376416e-09
5.5161606e-09
4.8110533e-09
4.7439185e-09
4.5607754e-09
4.6117247e-09
4.5771353e-09
4.6680426e-09
4.7096174e-09
4.8265908e-09
4.9356762e-09
5.0949573e-09
5.2788264e-09
5.5137288e-09
5.7954622e-09
6.136591e-09
6.5329619e-09
6.9754537e-09
7.4347351e-09
7.8729582e-09
8.2528923e-09
8.5539121e-09
8.7661336e-09
8.8888675e-09
8.9406398e-09
8.9497527e-09
8.9340564e-09
8.9060699e-09
8.8737423e-09
8.8420229e-09
8.8146129e-09
8.7980593e-09
8.7892362e-09
8.7847285e-09
8.781846e-09
8.7795276e-09
8.776192e-09
8.7693603e-09
8.7571397e-09
8.72339e-09
8.6425661e-09
8.5900036e-09
8.5610403e-09
8.5468581e-09
8.5359171e-09
8.5227373e-09
0.00081844704
0.0011158545
0.00059290868
8.1789403e-06
7.2197877e-09
5.5375012e-09
4.8556158e-09
4.7959253e-09
4.6196465e-09
4.6754318e-09
4.646708e-09
4.7423984e-09
4.7912901e-09
4.9148176e-09
5.0337058e-09
5.2036053e-09
5.4014382e-09
5.6523684e-09
5.9532492e-09
6.3151135e-09
6.7318279e-09
7.1894168e-09
7.6538526e-09
8.0848082e-09
8.4477516e-09
8.7260345e-09
8.9075118e-09
8.9984263e-09
9.0252596e-09
9.0159114e-09
8.984276e-09
8.9437974e-09
8.9018271e-09
8.8629289e-09
8.8303982e-09
8.8101164e-09
8.798158e-09
8.7910551e-09
8.7865487e-09
8.7829349e-09
8.7782759e-09
8.7704888e-09
8.7559776e-09
8.7133533e-09
8.6321896e-09
8.5845596e-09
8.55897e-09
8.5466485e-09
8.536722e-09
8.5240484e-09
0.00081465403
0.0010658304
0.00051266624
3.3200861e-06
6.8614897e-09
5.5651804e-09
4.9044948e-09
4.851814e-09
4.6835033e-09
4.7439076e-09
4.7215243e-09
4.8223506e-09
4.8791588e-09
5.0098494e-09
5.1392924e-09
5.3208022e-09
5.5336964e-09
5.8019366e-09
6.1231873e-09
6.5066956e-09
6.9434663e-09
7.4141758e-09
7.8801677e-09
8.3002228e-09
8.6440198e-09
8.895232e-09
9.0423956e-09
9.1015979e-09
9.1065863e-09
9.0779387e-09
9.0310627e-09
8.9788028e-09
8.9277799e-09
8.8822559e-09
8.8451159e-09
8.8211693e-09
8.8062416e-09
8.7968896e-09
8.7909498e-09
8.7860675e-09
8.7801166e-09
8.7709462e-09
8.7536708e-09
8.7006934e-09
8.623697e-09
8.5800105e-09
8.557264e-09
8.5469145e-09
8.5377825e-09
8.5254756e-09
0.00081117084
0.0010133833
0.0004383981
1.3583108e-06
6.652423e-09
5.5975458e-09
4.9578162e-09
4.9124835e-09
4.7521229e-09
4.8175229e-09
4.8019099e-09
4.9082638e-09
4.9736265e-09
5.1121009e-09
5.2529978e-09
5.4471395e-09
5.6762652e-09
5.9631074e-09
6.3059422e-09
6.7116907e-09
7.1677261e-09
7.6488399e-09
8.1125031e-09
8.5183563e-09
8.8405536e-09
9.0589615e-09
9.1695115e-09
9.2001934e-09
9.1833474e-09
9.1358289e-09
9.0744358e-09
9.0110826e-09
8.951633e-09
8.9000005e-09
8.8586875e-09
8.8312403e-09
8.813594e-09
8.8022567e-09
8.7950379e-09
8.7889296e-09
8.7818292e-09
8.7711606e-09
8.750125e-09
8.6870915e-09
8.6160492e-09
8.5764442e-09
8.5562051e-09
8.5473363e-09
8.5390917e-09
8.5270762e-09
0.00080773727
0.00095665717
0.00037052785
5.837199e-07
6.5327633e-09
5.635064e-09
5.0158403e-09
4.9781059e-09
4.8258615e-09
4.8966088e-09
4.8882053e-09
5.0004967e-09
5.0751324e-09
5.2220568e-09
5.3753781e-09
5.5832667e-09
5.8299183e-09
6.1367677e-09
6.502407e-09
6.9307554e-09
7.4046526e-09
7.8928492e-09
8.35013e-09
8.7389057e-09
9.0348349e-09
9.2155309e-09
9.2892799e-09
9.2945825e-09
9.2550866e-09
9.1894869e-09
9.1144016e-09
9.0406848e-09
8.9734233e-09
8.9161909e-09
8.8710229e-09
8.8403863e-09
8.8202869e-09
8.8071892e-09
8.7987944e-09
8.7915123e-09
8.7835146e-09
8.771229e-09
8.745292e-09
8.6730393e-09
8.6090505e-09
8.5736249e-09
8.5557176e-09
8.5477856e-09
8.5403883e-09
8.5289294e-09
0.0008042617
0.0008971238
0.00030916425
2.7177613e-07
6.4693944e-09
5.6780082e-09
5.0789179e-09
5.048923e-09
4.9050363e-09
4.9814973e-09
4.9807685e-09
5.0994773e-09
5.1840992e-09
5.3403129e-09
5.507066e-09
5.729926e-09
5.99544e-09
6.3237322e-09
6.7132063e-09
7.1640007e-09
7.6536027e-09
8.1449945e-09
8.5919826e-09
8.9609614e-09
9.2237192e-09
9.363237e-09
9.4035422e-09
9.3835182e-09
9.321715e-09
9.2389382e-09
9.1510151e-09
9.0676672e-09
8.9932103e-09
8.9308663e-09
8.8821417e-09
8.8486214e-09
8.8263684e-09
8.8117244e-09
8.8022098e-09
8.7937936e-09
8.785071e-09
8.7712434e-09
8.7387509e-09
8.6594714e-09
8.602566e-09
8.5712048e-09
8.5555336e-09
8.5485058e-09
8.5415001e-09
8.5310168e-09
0.00080064932
0.00083442047
0.00025399998
1.3962994e-07
6.441928e-09
5.7262091e-09
5.147138e-09
5.1251132e-09
4.9899844e-09
5.0724757e-09
5.0800049e-09
5.2056234e-09
5.3011828e-09
5.4674291e-09
5.6487599e-09
5.887924e-09
6.1738012e-09
6.5250477e-09
6.9392479e-09
7.411813e-09
7.9142307e-09
8.404571e-09
8.8375576e-09
9.1821773e-09
9.405149e-09
9.5021807e-09
9.5129187e-09
9.4663731e-09
9.3831979e-09
9.2842306e-09
9.1843516e-09
9.0921124e-09
9.0110669e-09
8.9440785e-09
8.8920919e-09
8.855999e-09
8.8318738e-09
8.8158651e-09
8.8052943e-09
8.7957812e-09
8.7860804e-09
8.7703515e-09
8.7296491e-09
8.6475422e-09
8.596664e-09
8.5689822e-09
8.5554937e-09
8.5494079e-09
8.542496e-09
8.5332648e-09
0.00079641866
0.00076891004
0.00020487375
7.9982094e-08
6.4369993e-09
5.7800065e-09
5.2208301e-09
5.2070129e-09
5.0810626e-09
5.1699114e-09
5.1863695e-09
5.3194568e-09
5.4267479e-09
5.6040683e-09
5.8012575e-09
6.0581775e-09
6.36597e-09
6.7415891e-09
7.1809726e-09
7.6738226e-09
8.1854042e-09
8.6703075e-09
9.0858962e-09
9.399061e-09
9.576949e-09
9.6342104e-09
9.6159978e-09
9.5430893e-09
9.4395631e-09
9.3254494e-09
9.2145146e-09
9.1141238e-09
9.0270826e-09
8.9558906e-09
8.9009377e-09
8.8625705e-09
8.8368361e-09
8.8196197e-09
8.8080764e-09
8.7975515e-09
8.7865629e-09
8.7681831e-09
8.7173317e-09
8.6377271e-09
8.5915657e-09
8.5670048e-09
8.5555136e-09
8.5504154e-09
8.5435319e-09
8.5355703e-09
0.00079207291
0.00069859474
0.00016197616
5.0828057e-08
6.4481487e-09
5.8397022e-09
5.3002617e-09
5.2953476e-09
5.1782828e-09
5.2742927e-09
5.3003602e-09
5.4416045e-09
5.5615097e-09
5.7510131e-09
5.9654514e-09
6.241734e-09
6.5731539e-09
6.9744947e-09
7.4391256e-09
7.9499825e-09
8.4665234e-09
8.9415185e-09
9.3356087e-09
9.6085868e-09
9.7382975e-09
9.760814e-09
9.7118118e-09
9.6136269e-09
9.4909033e-09
9.3627164e-09
9.2416316e-09
9.133817e-09
9.0413378e-09
8.9663494e-09
8.9087333e-09
8.86839e-09
8.8412828e-09
8.8229958e-09
8.8105848e-09
8.7992007e-09
8.7867597e-09
8.7645736e-09
8.703013e-09
8.6291576e-09
8.5874901e-09
8.5658708e-09
8.5559553e-09
8.5514241e-09
8.5446909e-09
8.5379027e-09
0.00078892524
0.00064056389
0.00012634241
3.5361401e-08
6.4719532e-09
5.9052935e-09
5.3859048e-09
5.3895944e-09
5.2829924e-09
5.386063e-09
5.4226117e-09
5.5726284e-09
5.7061877e-09
5.9093271e-09
6.1423666e-09
6.4397863e-09
6.7964287e-09
7.2246048e-09
7.7136182e-09
8.2394013e-09
8.7561572e-09
9.2170396e-09
9.5827261e-09
9.8082476e-09
9.8909148e-09
9.8802854e-09
9.8003347e-09
9.6780214e-09
9.5373356e-09
9.3961788e-09
9.2658483e-09
9.1513033e-09
9.0538854e-09
8.9754732e-09
8.9155186e-09
8.873505e-09
8.8452407e-09
8.8260019e-09
8.8128254e-09
8.8007942e-09
8.7868245e-09
8.7594442e-09
8.688208e-09
8.6213748e-09
8.5842441e-09
8.5653682e-09
8.55667e-09
8.5524915e-09
8.5459981e-09
8.5402798e-09
0.00078712732
0.0005959414
9.5851667e-05
2.633372e-08
6.5060195e-09
5.9774624e-09
5.4780961e-09
5.4910291e-09
5.3950843e-09
5.5058575e-09
5.5536442e-09
5.7132798e-09
5.8616895e-09
6.0798735e-09
6.3332149e-09
6.6536156e-09
7.0372351e-09
7.4929029e-09
8.0048357e-09
8.5415188e-09
9.0536258e-09
9.4960861e-09
9.8235059e-09
9.9960599e-09
1.0037105e-08
9.9914294e-09
9.881501e-09
9.7364021e-09
9.5790403e-09
9.4260193e-09
9.2873154e-09
9.1666651e-09
9.0647385e-09
8.9832643e-09
8.9213147e-09
8.8779461e-09
8.8487366e-09
8.8286505e-09
8.8147774e-09
8.8022437e-09
8.7867762e-09
8.7524968e-09
8.6736877e-09
8.6141987e-09
8.5815106e-09
8.5652148e-09
8.5575717e-09
8.5537333e-09
8.5474482e-09
8.5426939e-09
0.00078639704
0.00055648492
7.0270392e-05
2.0771918e-08
6.5498608e-09
6.0567266e-09
5.5774316e-09
5.5999835e-09
5.5150512e-09
5.6341455e-09
5.6941817e-09
5.8644183e-09
6.0290066e-09
6.2639305e-09
6.5393568e-09
6.8846247e-09
7.2966966e-09
7.7798049e-09
8.3120807e-09
8.854943e-09
9.357287e-09
9.7751168e-09
1.0054573e-08
1.0173087e-08
1.0175478e-08
1.0093913e-08
9.9553562e-09
9.7889232e-09
9.616216e-09
9.4524257e-09
9.3061613e-09
9.1799563e-09
9.0739333e-09
8.9898015e-09
8.9261735e-09
8.8817364e-09
8.8517994e-09
8.8309719e-09
8.8164365e-09
8.8029635e-09
8.7857589e-09
8.7430278e-09
8.6603725e-09
8.6075726e-09
8.579073e-09
8.5651849e-09
8.5586328e-09
8.5549972e-09
8.5490265e-09
8.5451194e-09
0.00078708471
0.00052358369
4.9817205e-05
1.7189478e-08
6.6027051e-09
6.1430005e-09
5.6840237e-09
5.7166119e-09
5.6435184e-09
5.7716628e-09
5.8451361e-09
6.0271345e-09
6.2093931e-09
6.4628325e-09
6.7622382e-09
7.134437e-09
7.5761645e-09
8.0860262e-09
8.6351394e-09
9.178999e-09
9.6663711e-09
1.0050135e-08
1.0273373e-08
1.0341517e-08
1.0304756e-08
1.0187721e-08
1.0022065e-08
9.8358314e-09
9.649106e-09
9.4755809e-09
9.3224828e-09
9.1912451e-09
9.0816422e-09
8.9953432e-09
8.9302425e-09
8.8849129e-09
8.8544558e-09
8.8330171e-09
8.8178935e-09
8.8033042e-09
8.7835263e-09
8.7304783e-09
8.6490987e-09
8.6017857e-09
8.576944e-09
8.5652253e-09
8.5597895e-09
8.5564418e-09
8.5507146e-09
8.5475564e-09
0.00078934934
0.00049680091
3.4112e-05
1.4793064e-08
6.6638414e-09
6.2365711e-09
5.7983063e-09
5.8416532e-09
5.7814739e-09
5.9194603e-09
6.0076209e-09
6.202716e-09
6.404214e-09
6.6781571e-09
7.0035384e-09
7.4045165e-09
7.8764993e-09
8.4112568e-09
8.972662e-09
9.5119227e-09
9.9786152e-09
1.0316032e-08
1.0478802e-08
1.0501842e-08
1.0423752e-08
1.0272849e-08
1.0081816e-08
9.8773749e-09
9.6779337e-09
9.4956267e-09
9.336375e-09
9.2007229e-09
9.088263e-09
9.0002917e-09
8.9337843e-09
8.8875709e-09
8.8567309e-09
8.8348397e-09
8.8192959e-09
8.8034322e-09
8.7797673e-09
8.7156166e-09
8.6398272e-09
8.597037e-09
8.5753314e-09
8.5656275e-09
8.561134e-09
8.558032e-09
8.5525131e-09
8.549997e-09
0.00079338218
0.00047652587
2.2585729e-05
1.3145745e-08
6.7333608e-09
6.3381231e-09
5.921479e-09
5.9761895e-09
5.9300771e-09
6.0786624e-09
6.1830307e-09
6.3925043e-09
6.6150431e-09
6.9115036e-09
7.2650517e-09
7.6965551e-09