/*--------------------------------*- C++ -*----------------------------------*\
  =========                 |
  \\      /  F ield         | OpenFOAM: The Open Source CFD Toolbox
   \\    /   O peration     | Website:  https://openfoam.org
    \\  /    A nd           | Version:  8
     \\/     M anipulation  |
\*---------------------------------------------------------------------------*/
FoamFile
{
    version     2.0;
    format      ascii;
    class       volVectorField;
    location    "0.229992";
    object      cellDisplacement;
}
// * * * * * * * * * * * * * * * * * * * * * * * * * * * * * * * * * * * * * //

dimensions      [0 1 0 0 0 0 0];

internalField   nonuniform List<vector> 
20000
(
(0.00089559603 0 0.00069380784)
(0.0008955873 0 0.00069373414)
(0.00089556677 0 0.00069357613)
(0.00089552887 0 0.00069340009)
(0.00089546626 0 0.00069320636)
(0.00089536853 0 0.00069299821)
(0.00089522157 0 0.0006927824)
(0.0008950057 0 0.0006925704)
(0.00089469459 0 0.00069238334)
(0.00089425194 0 0.00069225306)
(0.00089362971 0 0.00069223176)
(0.00089276279 0 0.00069239686)
(0.00089156554 0 0.00069286566)
(0.00088992488 0 0.00069381001)
(0.00088769336 0 0.00069548133)
(0.00088468161 0 0.00069823766)
(0.000880649 0 0.00070259406)
(0.00087529295 0 0.00070926764)
(0.00086824929 0 0.00071924493)
(0.00085908215 0 0.00073387979)
(0.00084730271 0 0.00075495324)
(0.00083237723 0 0.00078477973)
(0.00081376321 0 0.00082621841)
(0.0007909889 0 0.0008826121)
(0.00076366758 0 0.00095763095)
(0.00073169961 0 0.0010546197)
(0.00069514327 0 0.0011766693)
(0.0006545543 0 0.0013241297)
(0.0006105294 0 0.0014973366)
(0.00056445207 0 0.0016906291)
(0.00051747016 0 0.001898404)
(0.00047062412 0 0.0021116033)
(0.00042546212 0 0.0023207544)
(0.00038239467 0 0.0025166671)
(0.00034204839 0 0.0026952963)
(0.00030553063 0 0.0028430089)
(0.00027212111 0 0.0029669702)
(0.00024305771 0 0.0030579759)
(0.00021714555 0 0.0031206874)
(0.00019473783 0 0.0031525012)
(0.00017558203 0 0.0031515406)
(0.00015868433 0 0.0031191554)
(0.00014150723 0 0.0030410736)
(0.0001272709 0 0.0029286126)
(0.00011355186 0 0.0027556844)
(0.00010136289 0 0.0025474296)
(8.864011e-05 0 0.0022591701)
(7.3254426e-05 0 0.0018967587)
(5.3840071e-05 0 0.0013837227)
(2.3265248e-05 0 0.00061107075)
(0.0008960784 0 0.00056799783)
(0.00089606954 0 0.00056778213)
(0.0008960483 0 0.00056753415)
(0.00089600937 0 0.00056724891)
(0.00089594525 0 0.00056692479)
(0.00089584531 0 0.00056656121)
(0.00089569515 0 0.00056616138)
(0.00089547467 0 0.00056573236)
(0.00089515705 0 0.00056528953)
(0.00089470535 0 0.00056485879)
(0.00089407078 0 0.00056448475)
(0.00089318719 0 0.00056423707)
(0.0008919679 0 0.00056422474)
(0.00089029836 0 0.00056461077)
(0.00088802922 0 0.00056563711)
(0.00088496989 0 0.00056765593)
(0.00088087565 0 0.00057117704)
(0.00087544429 0 0.00057691609)
(0.00086830691 0 0.00058588547)
(0.00085902988 0 0.00059945385)
(0.00084712346 0 0.00061944853)
(0.00083205896 0 0.000648245)
(0.00081330507 0 0.00068879083)
(0.0007904004 0 0.0007445399)
(0.00076298938 0 0.00081927338)
(0.00073098169 0 0.00091651925)
(0.00069448404 0 0.0010393981)
(0.00065403112 0 0.0011886635)
(0.00061026029 0 0.0013644737)
(0.00056449137 0 0.0015615279)
(0.00051782379 0 0.001774179)
(0.00047132378 0 0.0019933199)
(0.0004263714 0 0.002209646)
(0.00038350027 0 0.0024135677)
(0.0003432669 0 0.0026004803)
(0.00030673399 0 0.0027575111)
(0.00027331146 0 0.0028899866)
(0.00024409576 0 0.0029896807)
(0.00021805218 0 0.0030602647)
(0.00019548017 0 0.0030994283)
(0.00017609903 0 0.003105404)
(0.00015900808 0 0.0030789867)
(0.00014187113 0 0.0030074)
(0.00012745285 0 0.00289979)
(0.000113662 0 0.002732863)
(0.00010128733 0 0.0025275352)
(8.8409633e-05 0 0.0022431472)
(7.2943758e-05 0 0.0018817349)
(5.3357897e-05 0 0.0013693164)
(2.2756247e-05 0 0.00059652945)
(0.00089606203 0 0.00044489264)
(0.00089605195 0 0.00044460036)
(0.00089602904 0 0.00044426102)
(0.0008959879 0 0.00044386628)
(0.00089592084 0 0.00044341131)
(0.000895817 0 0.00044289048)
(0.00089566171 0 0.00044230329)
(0.00089543442 0 0.00044165088)
(0.00089510792 0 0.00044094505)
(0.00089464434 0 0.00044020625)
(0.0008939944 0 0.0004394739)
(0.00089309029 0 0.00043881087)
(0.00089184485 0 0.00043831802)
(0.00089014051 0 0.00043814816)
(0.00088782797 0 0.00043853719)
(0.00088471186 0 0.00043982164)
(0.00088054726 0 0.00044252053)
(0.00087502776 0 0.00044734493)
(0.00086778367 0 0.00045531936)
(0.00085838115 0 0.00046783515)
(0.0008463317 0 0.00048676866)
(0.00083111134 0 0.00051456328)
(0.0008122017 0 0.00055425748)
(0.00078915293 0 0.0006094153)
(0.00076164377 0 0.00068391792)
(0.0007295937 0 0.00078146964)
(0.00069316336 0 0.00090519971)
(0.00065286214 0 0.0010562489)
(0.00060937633 0 0.0012345622)
(0.00056395265 0 0.0014352024)
(0.00051765556 0 0.0016524357)
(0.00047154692 0 0.001877198)
(0.00042687538 0 0.0021002544)
(0.00038425044 0 0.0023117815)
(0.00034418905 0 0.0025065793)
(0.00030769337 0 0.0026725222)
(0.00027429977 0 0.0028132465)
(0.00024497459 0 0.002921368)
(0.00021883124 0 0.0029996719)
(0.00019611941 0 0.0030460609)
(0.00017654186 0 0.0030588699)
(0.00015927282 0 0.0030383877)
(0.00014217037 0 0.002973181)
(0.00012759291 0 0.0028704575)
(0.0001137337 0 0.0027093978)
(0.00010118828 0 0.0025071503)
(8.8162908e-05 0 0.0022265803)
(7.2618399e-05 0 0.0018663778)
(5.2875453e-05 0 0.0013547702)
(2.2268218e-05 0 0.00058258892)
(0.00089556046 0 0.00032442389)
(0.00089554853 0 0.00032402967)
(0.00089552318 0 0.00032356924)
(0.00089547892 0 0.00032304057)
(0.00089540775 0 0.00032243957)
(0.00089529875 0 0.00032175845)
(0.00089513655 0 0.00032099142)
(0.00089490066 0 0.00032013409)
(0.00089456256 0 0.00031919103)
(0.00089408464 0 0.0003181721)
(0.00089341536 0 0.00031710785)
(0.00089248728 0 0.00031604984)
(0.00089120993 0 0.00031508957)
(0.00088946588 0 0.0003143741)
(0.0008871017 0 0.00031412454)
(0.00088392119 0 0.00031469369)
(0.00087967527 0 0.00031656304)
(0.000874056 0 0.0003204804)
(0.0008666918 0 0.0003274652)
(0.0008571489 0 0.00033894919)
(0.0008449403 0 0.00035685839)
(0.00082954856 0 0.0003837037)
(0.00081046709 0 0.00042261527)
(0.00078726352 0 0.00047725565)
(0.00075964635 0 0.00055161302)
(0.0007275574 0 0.00064952849)
(0.00069119818 0 0.00077417966)
(0.00065107156 0 0.00092698059)
(0.00060789486 0 0.0011077362)
(0.00056285695 0 0.0013117794)
(0.00051697872 0 0.0015333385)
(0.00047130956 0 0.0017633896)
(0.00042698069 0 0.0019927707)
(0.00038465494 0 0.0022114781)
(0.00034481498 0 0.0024137936)
(0.00030841107 0 0.0025882162)
(0.00027508269 0 0.0027369253)
(0.00024569281 0 0.0028531924)
(0.00021947824 0 0.0029390411)
(0.00019665338 0 0.0029925144)
(0.0001769065 0 0.0030120322)
(0.00015947793 0 0.0029974431)
(0.00014240386 0 0.0029384791)
(0.00012768974 0 0.0028406719)
(0.00011376603 0 0.0026853287)
(0.00010106508 0 0.0024863102)
(8.7899843e-05 0 0.0022094935)
(7.227819e-05 0 0.0018506646)
(5.2393123e-05 0 0.0013401006)
(2.179972e-05 0 0.00056916737)
(0.00089458917 0 0.00020658914)
(0.00089457476 0 0.00020616989)
(0.0008945462 0 0.00020567477)
(0.00089449784 0 0.00020508594)
(0.00089442138 0 0.00020438238)
(0.00089430564 0 0.0002035587)
(0.00089413484 0 0.00020260054)
(0.00089388801 0 0.00020150898)
(0.00089353597 0 0.00020027998)
(0.00089304029 0 0.00019892988)
(0.00089234841 0 0.00019748143)
(0.00089139148 0 0.00019598683)
(0.00089007751 0 0.00019452977)
(0.00088828685 0 0.00019324739)
(0.000885864 0 0.00019235979)
(0.00088260955 0 0.00019218612)
(0.00087827209 0 0.00019324634)
(0.00087254074 0 0.00019624895)
(0.00086504273 0 0.00020225355)
(0.00085534416 0 0.00021272039)
(0.00084296031 0 0.00022962979)
(0.00082738096 0 0.00025556512)
(0.00080811247 0 0.00029375306)
(0.00078474226 0 0.00034794678)
(0.00075700934 0 0.00042223602)
(0.00072488292 0 0.00052058277)
(0.00068860273 0 0.00064620631)
(0.00064866973 0 0.00080075791)
(0.0006058311 0 0.00098389257)
(0.00056121567 0 0.0011911886)
(0.00051580507 0 0.0014168313)
(0.00047061915 0 0.0016518711)
(0.00042669315 0 0.0018871888)
(0.00038471512 0 0.0021126781)
(0.00034514776 0 0.0023221396)
(0.00030888543 0 0.002504627)
(0.00027566139 0 0.0026610421)
(0.0002462481 0 0.0027851772)
(0.00021999277 0 0.0028783901)
(0.00019708017 0 0.0029388015)
(0.00017719066 0 0.0029649058)
(0.00015962092 0 0.0029561566)
(0.00014257268 0 0.0029033129)
(0.00012774191 0 0.002810433)
(0.00011375865 0 0.002660678)
(0.00010091605 0 0.0024650025)
(8.7619089e-05 0 0.0021919066)
(7.192303e-05 0 0.0018346229)
(5.1909959e-05 0 0.0013253106)
(2.1349512e-05 0 0.00055626372)
(0.00089316119 0 9.1243437e-05)
(0.00089314334 0 9.0699462e-05)
(0.00089311047 0 9.0061249e-05)
(0.00089305677 0 8.9321469e-05)
(0.00089297373 0 8.8470515e-05)
(0.00089284982 0 8.7492284e-05)
(0.00089266879 0 8.6372248e-05)
(0.00089240907 0 8.5095406e-05)
(0.00089204076 0 8.3653567e-05)
(0.00089152444 0 8.2044432e-05)
(0.0008908064 0 8.0282906e-05)
(0.00088981627 0 7.8406678e-05)
(0.00088846027 0 7.6490967e-05)
(0.00088661652 0 7.4667099e-05)
(0.00088412695 0 7.3142177e-05)
(0.00088078941 0 7.2255034e-05)
(0.000876349 0 7.2479487e-05)
(0.00087049306 0 7.4573375e-05)
(0.00086284731 0 7.9602744e-05)
(0.00085297799 0 8.9079927e-05)
(0.00084040322 0 0.00010503819)
(0.00082462044 0 0.0001301303)
(0.00080515079 0 0.0001676836)
(0.00078160284 0 0.00022152701)
(0.00075374785 0 0.00029584885)
(0.00072158728 0 0.00039471541)
(0.00068539406 0 0.0005213946)
(0.00064567738 0 0.00067769147)
(0.00060320242 0 0.00086316481)
(0.00055904759 0 0.0010735658)
(0.00051414813 0 0.0013030722)
(0.00046949034 0 0.0015427978)
(0.00042602052 0 0.0017836868)
(0.00038443947 0 0.0020155531)
(0.00034518911 0 0.0022318015)
(0.00030911815 0 0.0024219324)
(0.00027603361 0 0.0025857666)
(0.00024663859 0 0.0027174778)
(0.00022037098 0 0.0028178508)
(0.0001973974 0 0.0028850374)
(0.00017739098 0 0.0029175859)
(0.00015970024 0 0.0029146099)
(0.00014267565 0 0.0028677455)
(0.00012774777 0 0.0027797927)
(0.0001137106 0 0.0026354853)
(0.00010074045 0 0.0024432587)
(8.7320295e-05 0 0.0021738324)
(7.1552774e-05 0 0.0018182344)
(5.1426045e-05 0 0.0013104007)
(2.0916562e-05 0 0.00054381563)
(0.00089128925 0 -2.1564389e-05)
(0.00089126798 0 -2.213644e-05)
(0.00089123074 0 -2.2813535e-05)
(0.00089117137 0 -2.3617444e-05)
(0.00089108094 0 -2.4574041e-05)
(0.00089094756 0 -2.5696406e-05)
(0.00089075446 0 -2.7006856e-05)
(0.00089047952 0 -2.8515069e-05)
(0.000890092 0 -3.0236944e-05)
(0.00088955155 0 -3.2169724e-05)
(0.00088880318 0 -3.430602e-05)
(0.00088777495 0 -3.6609648e-05)
(0.0008863711 0 -3.9014078e-05)
(0.00088446729 0 -4.1399421e-05)
(0.00088190274 0 -4.3561666e-05)
(0.00087847177 0 -4.5195237e-05)
(0.00087391711 0 -4.5789653e-05)
(0.00086792314 0 -4.4626126e-05)
(0.00086011577 0 -4.0562207e-05)
(0.00085006068 0 -3.2048442e-05)
(0.00083727898 0 -1.7001444e-05)
(0.00082127686 0 7.3000984e-06)
(0.00080159205 0 4.4303678e-05)
(0.00077785541 0 9.7886276e-05)
(0.00074987269 0 0.00017233661)
(0.0007176821 0 0.00027181227)
(0.00068158601 0 0.00039962142)
(0.00064210613 0 0.00055768236)
(0.00060002427 0 0.00074545158)
(0.00055636577 0 0.00095883445)
(0.00051202084 0 0.0011919983)
(0.00046793223 0 0.0014361343)
(0.00042497012 0 0.0016822462)
(0.00038383108 0 0.0019201106)
(0.00034494318 0 0.0021427848)
(0.00030910914 0 0.0023401556)
(0.00027620122 0 0.0025111125)
(0.00024686302 0 0.002650113)
(0.00022061285 0 0.00275744)
(0.00019760357 0 0.0028312345)
(0.00017750559 0 0.0028700871)
(0.00015971346 0 0.0028728076)
(0.00014271352 0 0.0028317952)
(0.00012770609 0 0.0027487522)
(0.0001136214 0 0.0026097708)
(0.00010053668 0 0.0024210688)
(8.700224e-05 0 0.0021552933)
(7.1167225e-05 0 0.0018015264)
(5.0940643e-05 0 0.0012953831)
(2.0499634e-05 0 0.00053181975)
(0.00088898585 0 -0.00013198239)
(0.00088895952 0 -0.00013267145)
(0.00088891608 0 -0.00013347951)
(0.00088884927 0 -0.00013442171)
(0.00088874993 0 -0.0001355154)
(0.00088860564 0 -0.00013678517)
(0.00088839907 0 -0.00013825567)
(0.00088810727 0 -0.00013995078)
(0.00088769863 0 -0.00014189106)
(0.00088713151 0 -0.00014408954)
(0.00088634951 0 -0.00014654612)
(0.00088527884 0 -0.00014923701)
(0.00088382156 0 -0.00015210408)
(0.00088185072 0 -0.00015503395)
(0.00087920233 0 -0.00015783763)
(0.00087566773 0 -0.00016019579)
(0.00087098544 0 -0.00016164951)
(0.00086483969 0 -0.00016144705)
(0.00085685773 0 -0.00015833072)
(0.00084660286 0 -0.00015072867)
(0.00083359865 0 -0.00013652393)
(0.00081736225 0 -0.00011293849)
(0.00079744976 0 -7.6362194e-05)
(0.00077351436 0 -2.2929413e-05)
(0.00074540062 0 5.1763389e-05)
(0.00071318534 0 0.00015196194)
(0.00067719824 0 0.00028099166)
(0.00063797902 0 0.00044083336)
(0.00059631744 0 0.00063086996)
(0.00055319143 0 0.00084711781)
(0.00050944036 0 0.0010837473)
(0.00046596179 0 0.00133202)
(0.00042355325 0 0.0015830226)
(0.00038290033 0 0.0018265074)
(0.00034441467 0 0.0020552537)
(0.00030886181 0 0.0022594644)
(0.00027616403 0 0.0024372394)
(0.00024692064 0 0.0025832329)
(0.00022071588 0 0.0026972863)
(0.00019769701 0 0.0027775067)
(0.00017753215 0 0.0028225053)
(0.00015965908 0 0.0028308307)
(0.00014268528 0 0.002795527)
(0.00012761536 0 0.0027173638)
(0.00011349025 0 0.0025835764)
(0.00010030411 0 0.0023984654)
(8.6664484e-05 0 0.0021362967)
(7.07663e-05 0 0.0017844858)
(5.045367e-05 0 0.0012802478)
(2.0097969e-05 0 0.00052022678)
(0.00088626583 0 -0.00023996969)
(0.00088623503 0 -0.00024069061)
(0.00088618591 0 -0.00024154275)
(0.00088611167 0 -0.00024255476)
(0.00088600254 0 -0.0002437595)
(0.00088584577 0 -0.00024517752)
(0.00088562334 0 -0.00024684065)
(0.00088531171 0 -0.00024876704)
(0.00088487824 0 -0.00025098481)
(0.00088428025 0 -0.00025350208)
(0.00088345977 0 -0.00025632681)
(0.00088234112 0 -0.00025943759)
(0.00088082397 0 -0.00026278649)
(0.00087877834 0 -0.00026627254)
(0.00087603686 0 -0.00026971424)
(0.00087238632 0 -0.00027282891)
(0.0008675627 0 -0.00027512368)
(0.0008612576 0 -0.00027571317)
(0.00085309353 0 -0.00027343137)
(0.00084262561 0 -0.00026666711)
(0.00082938298 0 -0.00025325531)
(0.00081289667 0 -0.00023036589)
(0.00079273337 0 -0.00019440528)
(0.00076858916 0 -0.00014102316)
(0.00074034143 0 -6.5977871e-05)
(0.00070810942 0 3.5055378e-05)
(0.00067224384 0 0.00016539122)
(0.00063330847 0 0.00032704648)
(0.00059209736 0 0.00051932299)
(0.00054953849 0 0.00073833554)
(0.00050642014 0 0.00097825134)
(0.00046358912 0 0.0012304095)
(0.00042177816 0 0.0014859869)
(0.00038165162 0 0.0017347376)
(0.00034360833 0 0.0019692041)
(0.00030837729 0 0.0021798706)
(0.00027592431 0 0.0023641547)
(0.00024681105 0 0.0025168501)
(0.00022068034 0 0.0026374036)
(0.0001976766 0 0.0027238643)
(0.00017746901 0 0.0027748532)
(0.00015953478 0 0.0027886838)
(0.00014259132 0 0.0027589567)
(0.0001274745 0 0.0026856293)
(0.00011331657 0 0.0025569189)
(0.00010004126 0 0.00237544)
(8.6305934e-05 0 0.0021168673)
(7.0349713e-05 0 0.0017671386)
(4.996455e-05 0 0.0012650146)
(1.9710353e-05 0 0.00050903172)
(0.00088313975 0 -0.0003456669)
(0.00088310199 0 -0.00034650818)
(0.00088304437 0 -0.00034749925)
(0.00088296007 0 -0.00034865852)
(0.00088283916 0 -0.00035000875)
(0.00088266822 0 -0.0003515804)
(0.00088242864 0 -0.00035340533)
(0.00088209578 0 -0.00035551746)
(0.00088163597 0 -0.00035794801)
(0.00088100489 0 -0.00036072351)
(0.00088014285 0 -0.00036385867)
(0.0008789719 0 -0.00036734705)
(0.00087738904 0 -0.00037114934)
(0.00087526107 0 -0.00037517352)
(0.00087241654 0 -0.00037925482)
(0.00086863858 0 -0.00038311063)
(0.0008636727 0 -0.00038612741)
(0.00085720467 0 -0.0003873888)
(0.0008488402 0 -0.00038584902)
(0.00083814167 0 -0.00037985071)
(0.00082464255 0 -0.00036716879)
(0.00080788337 0 -0.00034490156)
(0.00078745819 0 -0.00030950123)
(0.0007630947 0 -0.00025634515)
(0.00073471386 0 -0.00018082324)
(0.00070247347 0 -7.8818856e-05)
(0.00066674563 0 5.291798e-05)
(0.00062811966 0 0.00021641454)
(0.00058738799 0 0.00041091239)
(0.00054543067 0 0.00063259478)
(0.0005029805 0 0.00087562717)
(0.00046083343 0 0.0011314227)
(0.00041965912 0 0.0013912718)
(0.00038009735 0 0.0016449397)
(0.00034253147 0 0.0018847804)
(0.00030766089 0 0.0021015266)
(0.00027548384 0 0.0022920053)
(0.00024653487 0 0.0024511058)
(0.0002205051 0 0.0025779145)
(0.00019754153 0 0.0026704176)
(0.0001773148 0 0.0027272248)
(0.00015933947 0 0.0027464474)
(0.00014243087 0 0.0027221499)
(0.0001272823 0 0.0026536018)
(0.00011309969 0 0.0025298419)
(9.9747617e-05 0 0.0023520276)
(8.5926117e-05 0 0.0020970094)
(6.9917412e-05 0 0.0017494748)
(4.9473115e-05 0 0.001249668)
(1.9336198e-05 0 0.00049819295)
(0.0008796204 0 -0.00044903033)
(0.00087957707 0 -0.0004499046)
(0.00087951239 0 -0.00045094059)
(0.00087941887 0 -0.00045216988)
(0.00087928582 0 -0.00045362981)
(0.00087909941 0 -0.00045534746)
(0.00087884019 0 -0.0004573618)
(0.00087848285 0 -0.00045970134)
(0.00087799246 0 -0.00046240471)
(0.0008773235 0 -0.00046549465)
(0.00087641436 0 -0.0004689936)
(0.00087518487 0 -0.00047289848)
(0.00087352914 0 -0.00047717938)
(0.00087131034 0 -0.00048175469)
(0.00086835283 0 -0.00048645773)
(0.0008644444 0 -0.00049100808)
(0.00085933187 0 -0.00049465237)
(0.00085267991 0 -0.00049666222)
(0.00084409854 0 -0.00049587047)
(0.00083315096 0 -0.00049061556)
(0.00081937637 0 -0.00047862091)
(0.00080232956 0 -0.00045690142)
(0.00078163287 0 -0.0004217366)
(0.00075704525 0 -0.00036870981)
(0.00072852689 0 -0.0002928761)
(0.0006962912 0 -0.00018976249)
(0.00066071665 0 -5.6530822e-05)
(0.00062242588 0 0.00010884353)
(0.00058220517 0 0.00030554148)
(0.00054088294 0 0.00052981098)
(0.00049913566 0 0.00077580106)
(0.00045770591 0 0.001035004)
(0.00041720541 0 0.0012988374)
(0.00037824323 0 0.0015570941)
(0.0003411896 0 0.0018019676)
(0.00030671497 0 0.0020244323)
(0.00027484546 0 0.002220791)
(0.00024609262 0 0.0023860053)
(0.00022019083 0 0.0025188282)
(0.00019729113 0 0.0026171737)
(0.00017706818 0 0.0026796303)
(0.00015907114 0 0.0027041249)
(0.00014220408 0 0.0026851201)
(0.00012703783 0 0.0026212837)
(0.00011283899 0 0.0025023596)
(9.9421816e-05 0 0.0023282214)
(8.5524069e-05 0 0.0020767502)
(6.9469064e-05 0 0.0017315206)
(4.8978901e-05 0 0.0012342332)
(1.8974343e-05 0 0.00048770583)
(0.00087571812 0 -0.00055019471)
(0.00087566621 0 -0.00055118095)
(0.00087559127 0 -0.00055234132)
(0.00087548567 0 -0.00055370197)
(0.00087533854 0 -0.00055529247)
(0.00087513514 0 -0.00055715173)
(0.00087485527 0 -0.00055932077)
(0.00087447228 0 -0.00056184322)
(0.00087394996 0 -0.00056476251)
(0.00087324085 0 -0.00056811741)
(0.00087228136 0 -0.00057193733)
(0.00087098857 0 -0.00057623222)
(0.00086925375 0 -0.00058097947)
(0.00086693615 0 -0.00058610909)
(0.00086385805 0 -0.00059146192)
(0.00085981502 0 -0.00059655789)
(0.0008545406 0 -0.00060088095)
(0.00084769124 0 -0.00060360564)
(0.00083887659 0 -0.00060354243)
(0.00082766209 0 -0.00059899358)
(0.00081359451 0 -0.00058762744)
(0.00079624562 0 -0.00056637239)
(0.00077526827 0 -0.00053135209)
(0.00075045823 0 -0.00047806258)
(0.00072180822 0 -0.0004018053)
(0.00068958376 0 -0.00029768472)
(0.000654182 0 -0.00016287046)
(0.00061625464 0 4.415667e-06)
(0.00057657529 0 0.00020329797)
(0.00053592114 0 0.00043007778)
(0.00049490839 0 0.00067887226)
(0.00045422755 0 0.00094125595)
(0.00041443366 0 0.0012087967)
(0.00037610337 0 0.0014713209)
(0.00033959731 0 0.0017210897)
(0.00030554656 0 0.0019487264)
(0.0002740126 0 0.0021506463)
(0.00024548623 0 0.0023216802)
(0.00021973764 0 0.0024602611)
(0.00019692545 0 0.0025642387)
(0.0001767286 0 0.0026321613)
(0.00015872915 0 0.0026617961)
(0.0001419104 0 0.0026479326)
(0.00012674022 0 0.0025887291)
(0.00011253397 0 0.0024745163)
(9.9063489e-05 0 0.0023040582)
(8.5099286e-05 0 0.002056092)
(6.9004618e-05 0 0.0017132682)
(4.8481688e-05 0 0.0012186911)
(1.8624271e-05 0 0.0004775326)
(0.00087144645 0 -0.00064912343)
(0.00087138778 0 -0.00065014407)
(0.0008713043 0 -0.00065135003)
(0.00087118759 0 -0.00065278041)
(0.0008710258 0 -0.00065447851)
(0.00087080373 0 -0.00065648096)
(0.00087050012 0 -0.00065883609)
(0.00087008762 0 -0.00066158303)
(0.00086952837 0 -0.00066477328)
(0.00086877377 0 -0.0006684411)
(0.00086775747 0 -0.00067262742)
(0.00086639475 0 -0.00067734061)
(0.00086457201 0 -0.00068257821)
(0.00086214587 0 -0.00068827858)
(0.00085894592 0 -0.00069420567)
(0.00085476344 0 -0.00069987756)
(0.00084931054 0 -0.00070484515)
(0.00084224767 0 -0.00070826302)
(0.00083318236 0 -0.00070890854)
(0.00082168207 0 -0.00070504036)
(0.0008073031 0 -0.00069426233)
(0.00078963711 0 -0.00067341223)
(0.00076837058 0 -0.00063844343)
(0.00074333655 0 -0.00058476651)
(0.00071456848 0 -0.00050771715)
(0.0006823576 0 -0.00040267666)
(0.00064715471 0 -0.00026619538)
(0.00060961991 0 -9.6962692e-05)
(0.00057051441 0 0.00010408678)
(0.00053056067 0 0.00033330821)
(0.00049031301 0 0.00058476164)
(0.00045042179 0 0.00085036767)
(0.0004113648 0 0.0011213782)
(0.00037369498 0 0.001387846)
(0.00033776258 0 0.0016421712)
(0.00030416249 0 0.0018746103)
(0.00027299209 0 0.002081736)
(0.00024471686 0 0.0022581301)
(0.00021914643 0 0.0024022166)
(0.00019644412 0 0.0025116158)
(0.00017629496 0 0.0025848243)
(0.00015831176 0 0.0026194627)
(0.00014154977 0 0.0026105978)
(0.00012638862 0 0.0025559397)
(0.00011218394 0 0.002446323)
(9.8671365e-05 0 0.0022795322)
(8.4650934e-05 0 0.0020350638)
(6.8523715e-05 0 0.0016947437)
(4.7981086e-05 0 0.0012030711)
(1.8284907e-05 0 0.0004676704)
(0.00086681351 0 -0.00074593454)
(0.00086674512 0 -0.00074705078)
(0.00086664988 0 -0.0007483677)
(0.00086651895 0 -0.00074992203)
(0.0008663403 0 -0.00075175309)
(0.00086609751 0 -0.00075390587)
(0.00086576894 0 -0.00075642768)
(0.0008653251 0 -0.00075937285)
(0.00086472761 0 -0.00076279068)
(0.00086392461 0 -0.00076673456)
(0.0008628488 0 -0.00077124234)
(0.00086141065 0 -0.00077634287)
(0.00085949468 0 -0.00078202758)
(0.00085695776 0 -0.00078824934)
(0.00085363397 0 -0.0007946656)
(0.00084929339 0 -0.00080096222)
(0.00084364893 0 -0.0008065813)
(0.00083635678 0 -0.00081068314)
(0.00082702311 0 -0.00081201447)
(0.00081521871 0 -0.0008087884)
(0.00080051106 0 -0.00079854043)
(0.00078251479 0 -0.00077802594)
(0.00076095461 0 -0.0007429852)
(0.00073569785 0 -0.00068876127)
(0.00070681692 0 -0.00061077673)
(0.00067463448 0 -0.00050468747)
(0.00063966275 0 -0.00036643251)
(0.00060255103 0 -0.00019522166)
(0.00056405124 0 7.9803299e-06)
(0.00052482928 0 0.00023957928)
(0.00048539502 0 0.00049385339)
(0.00044632021 0 0.0007625132)
(0.00040802102 0 0.0010367477)
(0.00037103417 0 0.0013068311)
(0.000335692 0 0.0015651752)
(0.0003025731 0 0.0018022227)
(0.00027178842 0 0.0020142078)
(0.00024378671 0 0.0021954792)
(0.0002184185 0 0.0023448025)
(0.00019584809 0 0.002459405)
(0.0001757675 0 0.0025377072)
(0.0001578189 0 0.0025772026)
(0.00014112192 0 0.0025731801)
(0.00012598249 0 0.0025229703)
(0.00011178858 0 0.0024178252)
(9.8245207e-05 0 0.0022546823)
(8.4178517e-05 0 0.0020136669)
(6.80263e-05 0 0.0016759409)
(4.7476855e-05 0 0.001187352)
(1.7955797e-05 0 0.00045808413)
(0.0008618333 0 -0.00084063033)
(0.00086175501 0 -0.00084182335)
(0.0008616476 0 -0.00084323212)
(0.00086150168 0 -0.00084489628)
(0.00086130463 0 -0.00084685701)
(0.0008610392 0 -0.00084916309)
(0.00086068276 0 -0.00085186473)
(0.00086020461 0 -0.00085501908)
(0.00085956471 0 -0.00085868162)
(0.00085870923 0 -0.00086291052)
(0.00085756819 0 -0.00086775279)
(0.00085604911 0 -0.00087324371)
(0.00085403258 0 -0.00087939085)
(0.00085138162 0 -0.0008860556)
(0.00084792127 0 -0.00089300868)
(0.00084341286 0 -0.00089988662)
(0.00083756315 0 -0.0009061438)
(0.00083002558 0 -0.00091091012)
(0.00082040507 0 -0.00091290815)
(0.00080827709 0 -0.00091029796)
(0.00079322312 0 -0.00090052822)
(0.00077490063 0 -0.00088003215)
(0.00075304517 0 -0.00084480195)
(0.00072755054 0 -0.00079013343)
(0.00069856472 0 -0.00071104915)
(0.00066644553 0 -0.00060357578)
(0.00063172013 0 -0.00046367267)
(0.00059506264 0 -0.00029045093)
(0.00055722111 0 -8.4850637e-05)
(0.00051877277 0 0.00014917225)
(0.00048017886 0 0.00040617666)
(0.00044192541 0 0.00067748083)
(0.00040440363 0 0.00095463824)
(0.00036812034 0 0.001228014)
(0.00033339129 0 0.0014900525)
(0.00030077753 0 0.001731357)
(0.00027040185 0 0.0019478932)
(0.00024270085 0 0.0021338762)
(0.00021755512 0 0.0022880173)
(0.00019513737 0 0.0024076051)
(0.0001751454 0 0.0024908127)
(0.00015724909 0 0.0025350155)
(0.00014062673 0 0.0025356872)
(0.00012552109 0 0.002489822)
(0.0001113472 0 0.0023890314)
(9.7783855e-05 0 0.0022295036)
(8.3681322e-05 0 0.0019919324)
(6.7512011e-05 0 0.0016568865)
(4.6968667e-05 0 0.0011715663)
(1.7635941e-05 0 0.00044877301)
(0.00085651441 0 -0.00093326374)
(0.00085642548 0 -0.00093453127)
(0.00085630501 0 -0.00093602869)
(0.00085614303 0 -0.00093779837)
(0.00085592625 0 -0.00093988455)
(0.00085563652 0 -0.00094233937)
(0.00085525011 0 -0.00094521684)
(0.00085473491 0 -0.00094857945)
(0.00085404916 0 -0.00095248688)
(0.00085313683 0 -0.0009570027)
(0.00085192521 0 -0.00096217948)
(0.00085031815 0 -0.00096805928)
(0.00084819709 0 -0.00097466189)
(0.00084542691 0 -0.00098178712)
(0.00084181947 0 -0.00098924844)
(0.0008371296 0 -0.00099670807)
(0.00083106048 0 -0.0010035803)
(0.00082326034 0 -0.001008995)
(0.0008133341 0 -0.001011636)
(0.00080086494 0 -0.0010095949)
(0.00078547453 0 -0.00099999941)
(0.00076682147 0 -0.00097937842)
(0.00074465394 0 -0.00094379405)
(0.00071892614 0 -0.00088855792)
(0.00068984098 0 -0.00080848238)
(0.00065781953 0 -0.00069925774)
(0.00062335098 0 -0.00055783898)
(0.00058721362 0 -0.00038232147)
(0.00055007766 0 -0.00017416486)
(0.00051242928 0 6.2295676e-05)
(0.00047467576 0 0.00032160884)
(0.00043725897 0 0.00059530704)
(0.00040053095 0 0.00087510133)
(0.00036496934 0 0.0011514602)
(0.00033087228 0 0.0014168814)
(0.00029878514 0 0.0016621065)
(0.00026883913 0 0.0018828876)
(0.000241464 0 0.0020734352)
(0.00021656084 0 0.0022321061)
(0.00019431367 0 0.002356311)
(0.00017442959 0 0.0024442249)
(0.0001566028 0 0.002492977)
(0.00014006418 0 0.0024981826)
(0.00012500416 0 0.0024565498)
(0.00011085964 0 0.0023599876)
(9.7287192e-05 0 0.0022040364)
(8.3158846e-05 0 0.0019698606)
(6.6980765e-05 0 0.0016375752)
(4.6456243e-05 0 0.0011556916)
(1.7324899e-05 0 0.00043970298)
(0.00085086643 0 -0.0010238779)
(0.00085076595 0 -0.0010252208)
(0.00085063133 0 -0.0010268076)
(0.00085045201 0 -0.0010286833)
(0.00085021396 0 -0.0010308948)
(0.00084989805 0 -0.0010334981)
(0.00084947943 0 -0.0010365508)
(0.0008489245 0 -0.0010401193)
(0.00084818967 0 -0.0010442685)
(0.00084721658 0 -0.0010490673)
(0.00084592966 0 -0.0010545735)
(0.00084422953 0 -0.001060831)
(0.00084199884 0 -0.0010678538)
(0.0008391004 0 -0.0010754519)
(0.0008353345 0 -0.0010834403)
(0.00083045188 0 -0.0010914533)
(0.00082414762 0 -0.0010989317)
(0.00081606658 0 -0.0011049807)
(0.00080581542 0 -0.0011082445)
(0.00079301271 0 -0.001106518)
(0.0007772764 0 -0.0010969843)
(0.00075826052 0 -0.0010763228)
(0.0007357783 0 -0.0010402829)
(0.00070983403 0 -0.00098411465)
(0.00068066918 0 -0.00090291225)
(0.00064875381 0 -0.00079204073)
(0.00061460027 0 -0.00064875478)
(0.00057904569 0 -0.0004706975)
(0.00054263137 0 -0.00026012347)
(0.00050579576 0 -2.1408669e-05)
(0.00046889679 0 0.00024002138)
(0.00043233044 0 0.00051588173)
(0.00039641135 0 0.00079804643)
(0.0003615875 0 0.0010770981)
(0.00032814062 0 0.0013456037)
(0.00029659963 0 0.0015944287)
(0.00026710372 0 0.0018191572)
(0.00024007532 0 0.0020139803)
(0.00021543762 0 0.0021770705)
(0.00019337651 0 0.0023055188)
(0.00017361947 0 0.0023979421)
(0.00015587878 0 0.0024510845)
(0.0001394341 0 0.0024606707)
(0.00012443105 0 0.0024231535)
(0.00011032522 0 0.0023307)
(9.6754155e-05 0 0.0021782765)
(8.2610507e-05 0 0.0019474842)
(6.643222e-05 0 0.0016180347)
(4.5939306e-05 0 0.0011397623)
(1.7021778e-05 0 0.0004308765)
(0.00084489905 0 -0.0011125136)
(0.00084478618 0 -0.0011139311)
(0.00084463639 0 -0.0011156063)
(0.00084443847 0 -0.001117587)
(0.00084417758 0 -0.0011199233)
(0.0008438336 0 -0.0011226743)
(0.0008433804 0 -0.0011259018)
(0.00084278273 0 -0.0011296777)
(0.00084199502 0 -0.001134072)
(0.00084095635 0 -0.0011391606)
(0.00083958793 0 -0.00114501)
(0.00083778654 0 -0.0011516804)
(0.00083544255 0 -0.0011590843)
(0.00083240879 0 -0.0011671303)
(0.0008284756 0 -0.001175608)
(0.0008233858 0 -0.0011841756)
(0.00081683075 0 -0.0011922349)
(0.00080844955 0 -0.0011989065)
(0.00079787905 0 -0.001202583)
(0.00078473479 0 -0.0012010452)
(0.00076861715 0 -0.0011916602)
(0.00074922961 0 -0.0011708603)
(0.00072643466 0 -0.0011342285)
(0.00070028477 0 -0.0010769949)
(0.00067107559 0 -0.00099428185)
(0.00063927748 0 -0.00088185615)
(0.00060553225 0 -0.00073611072)
(0.00057058578 0 -0.00055560186)
(0.00053490747 0 -0.00034274334)
(0.00049889736 0 -0.00010194242)
(0.00046286553 0 0.00016142228)
(0.00042716168 0 0.00043922563)
(0.00039206374 0 0.00072350847)
(0.00035799124 0 0.001004977)
(0.00032520904 0 0.001276282)
(0.00029423125 0 0.0015284011)
(0.00026520255 0 0.0017567874)
(0.00023853992 0 0.0019556015)
(0.00021418582 0 0.0021228688)
(0.00019233119 0 0.0022554375)
(0.00017271661 0 0.002352044)
(0.00015507801 0 0.0024094106)
(0.00013873679 0 0.0024232134)
(0.00012380177 0 0.0023896883)
(0.00010974393 0 0.002301215)
(9.6184734e-05 0 0.0021522653)
(8.2035826e-05 0 0.0019248035)
(6.5866288e-05 0 0.0015982604)
(4.541756e-05 0 0.0011237554)
(1.6726152e-05 0 0.00042226011)
(0.0008386213 0 -0.0011992119)
(0.0008384951 0 -0.0012007047)
(0.000838329 0 -0.0012024693)
(0.00083811111 0 -0.0012045558)
(0.00083782574 0 -0.0012070171)
(0.00083745165 0 -0.0012099162)
(0.00083696134 0 -0.0012133186)
(0.0008363179 0 -0.0012173)
(0.00083547349 0 -0.0012219363)
(0.00083436438 0 -0.0012273087)
(0.0008329081 0 -0.0012334903)
(0.00083100417 0 -0.0012405509)
(0.00082854418 0 -0.0012483461)
(0.00082536369 0 -0.0012568292)
(0.00082124946 0 -0.0012658036)
(0.00081593992 0 -0.0012748901)
(0.00080911697 0 -0.0012835048)
(0.00080043292 0 -0.001290686)
(0.00078953545 0 -0.0012946628)
(0.00077601449 0 -0.0012934009)
(0.00075949853 0 -0.0012841035)
(0.00073973132 0 -0.0012630778)
(0.00071662874 0 -0.0012257126)
(0.00069028584 0 -0.0011672737)