/*--------------------------------*- C++ -*----------------------------------*\
  =========                 |
  \\      /  F ield         | OpenFOAM: The Open Source CFD Toolbox
   \\    /   O peration     | Website:  https://openfoam.org
    \\  /    A nd           | Version:  8
     \\/     M anipulation  |
\*---------------------------------------------------------------------------*/
FoamFile
{
    version     2.0;
    format      ascii;
    class       volScalarField;
    location    "0.229992";
    object      Ma;
}
// * * * * * * * * * * * * * * * * * * * * * * * * * * * * * * * * * * * * * //

dimensions      [0 0 0 0 0 0 0];

internalField   nonuniform List<scalar> 
20000
(
0.59223373
0.70408555
0.78005531
0.84793371
0.91287066
0.96789501
0.97068187
0.97698804
0.97107923
0.97360277
0.96982246
0.9702365
0.96716712
0.96600931
0.96295102
0.96044079
0.9567477
0.95280969
0.94791787
0.94226944
0.93561583
0.92787759
0.91900256
0.90884914
0.89738453
0.88441045
0.86979383
0.85425281
0.83857128
0.82332315
0.80910624
0.79638749
0.78545705
0.77638166
0.76910502
0.76346258
0.75920762
0.75610609
0.75396619
0.75254334
0.75149095
0.75076997
0.75043482
0.75039911
0.75063691
0.7512522
0.75168729
0.75267687
0.75239588
0.75621274
0.60115364
0.71373016
0.79026381
0.85842252
0.92354782
0.97552798
0.97543042
0.98176059
0.97580681
0.97832602
0.97449062
0.97487979
0.97175546
0.97053394
0.96741
0.96479649
0.96100264
0.95691013
0.95185369
0.94599634
0.93912372
0.93114182
0.9219812
0.91143371
0.89933802
0.8853299
0.87016319
0.85437425
0.83844111
0.82299302
0.80866713
0.79593952
0.78506116
0.77606795
0.7688739
0.76329944
0.7590882
0.75601662
0.75389931
0.75247511
0.75134151
0.75061968
0.75033106
0.75037229
0.75062514
0.75122437
0.75180866
0.75292724
0.75354691
0.75601918
0.60967841
0.72310798
0.80027581
0.86877166
0.93402385
0.98264918
0.98001817
0.9863866
0.98035242
0.98288615
0.97898333
0.97934386
0.97616343
0.97486834
0.97167696
0.96894687
0.9650431
0.96078021
0.95555328
0.94948648
0.94239825
0.93414907
0.92462113
0.91350515
0.90059612
0.88594554
0.87031321
0.85415804
0.83788557
0.82224084
0.8078576
0.79517491
0.78440201
0.77553918
0.76847155
0.76300239
0.75886842
0.75585717
0.75378645
0.75236378
0.75117423
0.75049044
0.75026444
0.75035511
0.75061386
0.7512136
0.75182181
0.75312101
0.75377578
0.75611612
0.61803573
0.73232209
0.81011278
0.87889617
0.94402757
0.98904296
0.98434715
0.9907647
0.98465868
0.98719784
0.98323216
0.98355782
0.98032109
0.97894618
0.97568363
0.97282948
0.96881043
0.96437586
0.95898397
0.95271257
0.94539351
0.9368082
0.92676499
0.91488803
0.90121139
0.88611704
0.87012151
0.85353024
0.83696329
0.82117367
0.80678627
0.79420185
0.78358259
0.77489024
0.76798144
0.76264229
0.75860466
0.75566892
0.75365212
0.75222511
0.75100334
0.75036872
0.75019226
0.75031874
0.75060497
0.75120919
0.75185754
0.75333405
0.75435303
0.75613043
0.6262305
0.74134771
0.81974635
0.88882293
0.95351874
0.99477155
0.98841776
0.9948771
0.98869597
0.9912355
0.98720446
0.98748719
0.98419209
0.98272751
0.97938834
0.97640098
0.97226523
0.96766282
0.96210955
0.95561154
0.94799234
0.93893003
0.9281831
0.91556996
0.90142985
0.88596679
0.8694803
0.85246249
0.83563447
0.81975459
0.80542335
0.792994
0.78257885
0.77409929
0.76738392
0.76220217
0.75828347
0.75544231
0.75348838
0.75205391
0.75083895
0.7502472
0.75012045
0.7502704
0.75059543
0.75119701
0.7519228
0.7535112
0.75478852
0.75613069
0.63419891
0.75010433
0.82912394
0.89852932
0.96236742
0.99983489
0.99217684
0.99867124
0.99241411
0.99494817
0.99085261
0.99108469
0.98772928
0.98616485
0.98274425
0.97961807
0.97536843
0.97060128
0.96486951
0.95807554
0.950027
0.94031812
0.92889206
0.9158228
0.9013008
0.8853387
0.86834585
0.8509427
0.83391093
0.81800437
0.80379163
0.79157421
0.78141185
0.77318478
0.76669428
0.76169431
0.75791422
0.75518343
0.75329775
0.75185443
0.7506784
0.75012953
0.7500413
0.75020983
0.7505757
0.75117539
0.75201734
0.75365611
0.75513152
0.75613336
0.64189877
0.75855888
0.83818694
0.9080049
0.97047819
1.0042573
0.9955967
1.0021167
0.99578334
0.99830589
0.9941447
0.99431653
0.99089811
0.98922486
0.98572077
0.98245199
0.97808175
0.97312558
0.96714974
0.95994258
0.95131763
0.9410013
0.9291593
0.91572604
0.90070092
0.88418388
0.86670728
0.84896818
0.83179312
0.81592751
0.80189832
0.78995001
0.78008808
0.7721517
0.7659159
0.76112091
0.75749843
0.75489245
0.75307979
0.75163166
0.7505189
0.75001697
0.74995817
0.75014261
0.75054341
0.75116153
0.75211393
0.75378132
0.75535966
0.75613825
0.64923463
0.7666438
0.84688404
0.91724303
0.97777427
1.0080732
0.9986483
1.0051899
0.99877815
1.0012804
0.99705048
0.99715046
0.9936679
0.99188027
0.98829302
0.98487169
0.98034727
0.97512676
0.96878129
0.96106733
0.95192893
0.94125611
0.92907971
0.91516415
0.89955151
0.88248667
0.86456083
0.84654375
0.82929462
0.81354133
0.7997614
0.78813822
0.77862203
0.77101185
0.76505795
0.76048891
0.75704121
0.75457164
0.75283546
0.75139106
0.75035856
0.74990905
0.7498731
0.75007323
0.75050191
0.75116263
0.75219929
0.75392015
0.75556289
0.75614403
0.65628988
0.77436552
0.85518634
0.92625003
0.98420444
1.0113276
1.0013166
1.0078712
1.0013761
1.0038468
0.99954498
0.9995625
0.99601789
0.99410882
0.99042634
0.98681746
0.98206904
0.97646927
0.96969617
0.96156856
0.95215159
0.94116889
0.92854072
0.91404197
0.89784257
0.88024289
0.86191136
0.84368062
0.82643097
0.81086356
0.79739859
0.78615481
0.77702711
0.76977583
0.7641284
0.75980433
0.75654694
0.75422269
0.75256478
0.75113783
0.75019764
0.74980435
0.74978945
0.75000444
0.75045518
0.75116238
0.75227187
0.75408511
0.75574818
0.75614894
0.66294182
0.78164506
0.86300692
0.93497042
0.98970307
1.0140243
1.0035468
1.0101184
1.0035378
1.0059769
1.001607
1.0015319
0.99792802
0.99587182
0.99205135
0.98817712
0.98313981
0.97716779
0.97009096
0.96173154
0.95203652
0.9406276
0.92744266
0.91235343
0.8955639
0.87745599
0.85877032
0.84039646
0.82322417
0.80791722
0.79483157
0.78401877
0.77531899
0.76845597
0.76313664
0.75907429
0.75602091
0.7538481
0.75226742
0.75087794
0.75003521
0.74970093
0.74971119
0.74993803
0.7504085
0.75114836
0.75234018
0.75426419
0.7558851
0.75615025
0.66918459
0.78843568
0.87028177
0.94334778
0.99423934
1.0161766
1.0052839
1.0119054
1.0052254
1.0076527
1.003201
1.0029955
0.99935319
0.99709202
0.99308413
0.98892177
0.98364446
0.97745217
0.9701916
0.96156262
0.95146644
0.93953861
0.92578188
0.91008636
0.8927185
0.87413576
0.85515472
0.83671366
0.81969918
0.8047272
0.79208312
0.78174965
0.77351361
0.76706473
0.76209212
0.75830598
0.75546837
0.75345116
0.75194438
0.75061654
0.74986967
0.7495967
0.74963843
0.74987601
0.75036387
0.75112712
0.75241635
0.75444116
0.75597621
0.75613902
0.67497829
0.79473621
0.87701159
0.95135245
0.99781995
1.0178224
1.006511
1.0132341
1.0064097
1.0088503
1.0042548
1.0039364
1.0002351
0.99775822
0.99359561
0.98923807
0.98383586
0.97745726
0.9699584
0.96093352
0.95036492
0.93789808
0.9235464
0.90724424
0.88931392
0.87029825
0.85108765
0.83265986
0.81588518
0.80132141
0.78917806
0.77936833
0.77162779
0.76561512
0.76100468
0.75750691
0.7548947
0.75303562
0.75159977
0.75035696
0.74970508
0.74949066
0.74957078
0.74981866
0.75032034
0.75110885
0.75251406
0.75462362
0.7560428
0.75611508
0.68037902
0.80063001
0.88328173
0.95900158
1.0005809
1.0190464
1.0074925
1.0141373
1.0072778
1.0095793
1.0050009
1.0045327
1.000663
0.99804196
0.99380716
0.98930143
0.98374613
0.97710286
0.96924742
0.959793
0.94872659
0.93569617
0.92074007
0.90383252
0.88536325
0.86596366
0.8465957
0.8282653
0.81181303
0.79772867
0.78614163
0.77689585
0.7696783
0.76412008
0.75988413
0.75668453
0.754305
0.75260504
0.75124134
0.75010017
0.74952984
0.74938291
0.74950556
0.74976414
0.75028019
0.75109819
0.7526505
0.7548182
0.75609732
0.75608512
0.68542084
0.80615352
0.88916822
0.96623708
1.0026056
1.01992
1.0081677
1.0147122
1.0078362
1.0100218
1.0054165
1.0048415
1.0008428
0.99809608
0.99376954
0.98906248
0.983264
0.9762775
0.96804606
0.95813307
0.9465456
0.93293772
0.91736859
0.89986314
0.88088468
0.86115762
0.84171038
0.82356413
0.80751627
0.79397955
0.7830001
0.77435373
0.76768215
0.76259256
0.75874026
0.7558462
0.75370425
0.75216291
0.75087638
0.74984638
0.74936142
0.74927553
0.74943727
0.74971372
0.75024772
0.75110063
0.75284712
0.75501767
0.75614357
0.75605316
0.69017906
0.81141017
0.89476717
0.97278034
1.0039903
1.0204808
1.0085736
1.0151079
1.008144
1.0103203
1.0055898
1.0049364
1.0007922
0.99786729
0.99337939
0.98839197
0.98232094
0.97497873
0.96634194
0.95595321
0.94382751
0.9296286
0.91344191
0.89535005
0.87589888
0.85590803
0.83646485
0.81859155
0.80302881
0.7901045
0.77977936
0.77176301
0.76565582
0.76104515
0.75758254
0.75499896
0.75309696
0.75171247
0.75050863
0.74959835
0.74919988
0.74917102
0.74936164
0.74967061
0.7502235
0.75112512
0.75310972
0.75520827
0.75618402
0.75601788
0.6946483
0.81640351
0.90016425
0.97898909
1.0048497
1.0207809
1.0086853
1.0151076
1.0081342
1.010085
1.0054245
1.0045638
1.0003938
0.99722554
0.9925509
0.98727922
0.98091577
0.9731996
0.964142
0.95326068
0.94058032
0.92577938
0.90897273
0.89031135
0.87043098
0.85024728
0.83089615
0.81338552
0.7983863
0.78613492
0.77650557
0.76914454
0.76361545
0.75949009
0.75642022
0.75414949
0.75248717
0.75125638
0.75014089
0.74935755
0.74904896
0.74907109
0.74928068
0.74963415
0.7502062
0.75118312
0.75341869
0.75538189
0.7562185
0.75597818
0.69884014
0.82113628
0.90534722
0.98471999
1.0052167
1.0207313
1.00844
1.0148474
1.0077377
1.0097027
1.0048331
1.003716
0.99956073
0.99615307
0.99128646
0.98571972
0.97905213
0.97095068
0.96145443
0.95006513
0.9368144
0.92140059
0.90397447
0.88476543
0.86450705
0.84420836
0.82504148
0.8079837
0.79362398
0.78210146
0.77320375
0.76651791
0.76157601
0.75793885
0.75526204
0.75330396
0.75187823
0.75079652
0.74977651
0.74912464
0.74890704
0.74897498
0.74919998
0.74959881
0.75019638
0.75129075
0.75374386
0.75553553
0.75624608
0.75593355
0.70265683
0.82548399
0.91021304
0.98983747
1.0050483
1.0200055
1.0077523
1.01413
1.0069676
1.0087707
1.0038733
1.0026057
0.99830852
0.99466256
0.98959878
0.9837298
0.97674375
0.96824329
0.95829166
0.94637817
0.93254105
0.91650453
0.89846261
0.87873427
0.85815716
0.83782823
0.81894125
0.80242615
0.7887786
0.77803507
0.76989827
0.7639017
0.75955148
0.75640211
0.75411637
0.75246816
0.75127297
0.75033415
0.7494199
0.74890038
0.74877153
0.74888196
0.74912219
0.74955789
0.75019709
0.75146959
0.75405317
0.75566793
0.75626399
0.75588355
0.70605877
0.82942629
0.91475024
0.99427292
1.0044203
1.0190179
1.0067276
1.0130841
1.0058742
1.0075268
1.0025625
1.0010779
0.99667422
0.9927796
0.98750681
0.98132405
0.97400425
0.96509093
0.95466556
0.9422105
0.92777026
0.91110179
0.89245164
0.87223942
0.85141147
0.83114396
0.81263571
0.79675273
0.783886
0.77396482
0.76661117
0.76131244
0.7575543
0.75488931
0.75299083
0.75164755
0.75067394
0.74987036
0.7490764
0.74868581
0.74863965
0.74879107
0.74904952
0.74951365
0.75021235
0.75173322
0.75432505
0.75577714
0.75627256
0.75583005
0.70913296
0.83303309
0.91901579
0.99806312
1.0034454
1.0178103
1.0054374
1.0116758
1.0044148
1.0058976
1.0008944
0.99919842
0.99467459
0.99051875
0.98502483
0.97851747
0.97084781
0.9615064
0.95058771
0.93757219
0.92251159
0.90520377
0.88595805
0.86530612
0.84430418
0.82419663
0.8061685
0.79100545
0.77898191
0.76991798
0.76336272
0.75876534
0.75559613
0.75340896
0.75189219
0.75084734
0.75008389
0.74940741
0.74875083
0.74848221
0.74850969
0.74870016
0.74898544
0.74948114
0.75024582
0.75207095
0.75455951
0.7558642
0.75627134
0.75577484
0.71193037
0.83633527
0.92301185
1.0012118
1.0016655
1.0162357
1.0038101
1.0099477
1.0026373
1.0039586
0.9988933
0.99696911
0.99232125
0.98789535
0.98216765
0.97532444
0.9672874
0.95750087
0.94606705
0.93247036
0.91677179
0.89881942
0.87899717
0.85795905
0.83686962
0.81702716
0.79958312
0.78522441
0.77409757
0.76591716
0.76017033
0.7562743
0.75368788
0.75196886
0.75082597
0.75007216
0.74950613
0.74895113
0.74844474
0.74829037
0.74838276
0.74860563
0.7489311
0.74946397
0.75030353
0.75245093
0.7547705
0.75593666
0.75627347
0.75571981
0.71448346
0.8393653
0.92671313
1.0036336
0.99991206
1.0143552
1.0018721
1.0078963
1.0005489
1.0016867
0.99656966
0.99440875
0.98963012
0.98492453
0.97894928
0.97175772
0.96333405
0.95308307
0.94111033
0.92691051
0.91055699
0.89195897
0.87158719
0.85022741
0.82914678
0.80968088
0.79292555
0.77944797
0.76925909
0.76198125
0.75705059
0.75385362
0.75184055
0.75057714
0.74979674
0.74932533
0.74894438
0.74850972
0.74815725
0.74810932
0.74826013
0.74850804
0.74888283
0.74945126
0.75040023
0.75284402
0.75496455
0.75600013
0.75627832
0.75566591
0.71684915
0.84219433
0.93013136
1.0053344
0.99772811
1.0121863
0.99965617
1.0055519
0.99817782
0.99911557
0.99394312
0.99153266
0.98661512
0.98161984
0.97538194
0.96782792
0.95899578
0.94825822
0.93572058
0.92089458
0.90387044
0.88463065
0.8637458
0.84214053
0.82117538
0.80220331
0.78623862
0.77370659
0.76448469
0.75812635
0.75402025
0.751518
0.75006425
0.74924248
0.74880893
0.74860784
0.74840217
0.74808985
0.74788823
0.74793672
0.74814034
0.74841344
0.74883656
0.7494435
0.75055953
0.7532265
0.75514107
0.75605076
0.75627467
0.75561281
0.71907582
0.84487011
0.93323468
1.0063558
0.99531509
1.0097521
0.9971767
1.0029263
0.99553355
0.99625188
0.99102438
0.98835433
0.98328843
0.97799323
0.97147503
0.96354197
0.95427704
0.94302814
0.92989854
0.9144231
0.8967159
0.87684497
0.85549527
0.8337332
0.81300084
0.79464304
0.77956173
0.76802275
0.75979067
0.75437309
0.75109908
0.74928179
0.74836701
0.74797308
0.74786839
0.74791827
0.74788195
0.74769644
0.7476378
0.74777141
0.7480216
0.74832687
0.74879207
0.74945265
0.75080469
0.7535767
0.75529721
0.75608648
0.75625431
0.75556044
0.72122158
0.84742724
0.93599798
1.0066699
0.9926215
1.0070531
0.99444408
1.0000295
0.99262528
0.99311098
0.98782723
0.98488609
0.97966046
0.97405301
0.96723427
0.95890312
0.94917818
0.93739107
0.92364125
0.90749398
0.88909471
0.86861198
0.84685812
0.82504189
0.80466901
0.7870447
0.77292346
0.76241093
0.75520044
0.75075165
0.74830803
0.74715427
0.7467527
0.74677303
0.74698232
0.74725493
0.74738423
0.74733211
0.74740539
0.74761398
0.74790289
0.74825288
0.74875329
0.74949116
0.75114276
0.75388148
0.75543341
0.75611665
0.75622852
0.75550844
0.72329375
0.84985406
0.9383673
1.0062757
0.98969962
1.0041014
0.99147366
0.99687849
0.98946582
0.98970521
0.98436122
0.98113702
0.97573722
0.96980342
0.96266107
0.95391009
0.94369596
0.93134239
0.91694434
0.90010464
0.88101015
0.85994553
0.83786332
0.81610964
0.79622974
0.77944922
0.76634399
0.75689194
0.75075596
0.74729504
0.74566298
0.74513701
0.74522263
0.74564155
0.7461558
0.7466208
0.74690796
0.74699756
0.74718925
0.74746365
0.74778788
0.74819031
0.74872839
0.74955932
0.75155075
0.75414926
0.75555237
0.75614356
0.756204
0.75545665
0.72528004
0.85223576
0.94035312
1.0052254
0.98656796
1.0009164
0.98828032
0.99348271
0.98606672
0.98604212
0.98063253
0.9771112
0.9715204
0.96524413
0.95775288
0.94855816
0.93782411
0.92487476
0.90980097
0.89225073
0.87246452
0.85086053
0.82854181
0.80698122
0.78772948
0.77188634
0.75983927
0.75150885
0.7465029
0.74402492
0.74316386
0.74322128
0.74377898
0.74457892
0.74538475
0.74602656
0.74645374
0.74669169
0.74698733
0.747318
0.7476827
0.74813652
0.74871912
0.74966016
0.75199202
0.75439933
0.75565343
0.75615573
0.75617277
0.75540586
0.72719846
0.8545956
0.94190172
1.0035542
0.983237
0.99750045
0.98486415
0.9898469
0.98242944
0.98212486
0.97664142
0.97280861
0.96700732
0.960371
0.95250343
0.9428394
0.93155388
0.91797947
0.90220383
0.8839289
0.86346364
0.84137821
0.81893245
0.79770652
0.77921226
0.764378
0.75344117
0.74632302
0.74247634
0.74094455
0.74079125
0.74140891
0.74242566
0.74358609
0.74466129
0.7454767
0.74602946
0.74641179
0.74679722
0.74717896
0.74758964
0.7480879
0.74872015
0.74980514
0.7524416
0.75463555
0.75573636
0.75614992
0.75612567
0.75535796
0.72903672
0.85693602
0.94295655
1.0013001
0.97970854
0.99386026
0.98122972
0.98597355
0.97855399
0.97795265
0.97238466
0.96822541
0.96219169
0.95517667
0.94690395
0.9367438
0.92487483
0.91064602
0.89414401
0.87513475
0.85401418
0.83152249
0.80907671
0.78833321
0.77071156
0.75694222
0.74720847
0.74138641
0.73869214
0.7380265
0.73854246
0.7397134
0.74116397
0.7426603
0.74398312
0.74496432
0.7456452
0.74615458
0.74661825
0.74705024
0.7475081
0.74804261
0.74873173
0.75001638
0.75287295
0.75485193
0.75580317
0.75613433
0.75606985
0.75531236
0.73081357
0.85926873
0.94350065
0.99853233
0.97598783
0.98999076
0.97737402
0.98185808
0.97443738
0.97351982
0.96785605
0.96335414
0.95706522
0.94965168
0.94094391
0.93025966
0.9177754
0.90286338
0.88561303
0.86586645
0.84412888
0.82132569
0.79902321
0.77890858
0.76225383
0.74961644
0.74121509
0.73673502
0.73512725
0.73525634
0.73643795
0.73813443
0.73999381
0.74180054
0.74334996
0.74448996
0.74530079
0.74591832
0.74645201
0.74693227
0.74743741
0.74800451
0.74876661
0.75031688
0.7532595
0.75503863
0.75585534
0.75611971
0.75600993
0.75526784
0.73247207
0.86161404
0.94347617
0.99526029
0.97205717
0.98588516
0.97328853
0.97749415
0.97007087
0.96882079
0.96304635
0.95818633
0.9516176
0.94378532
0.93461166
0.92337442
0.91024284
0.89461907
0.87660102
0.85612263
0.83382322
0.81082397
0.78882008
0.76947147
0.75385961
0.74246996
0.7355212
0.73237255
0.73174349
0.73265577
0.73447984
0.73667285
0.73891412
0.74100686
0.74276279
0.74405685
0.74499098
0.74570231
0.74629849
0.74682534
0.74737621
0.74798285
0.74883913
0.75071021
0.75358751
0.75519159
0.75589333
0.75610155
0.75594136
0.75522249
0.73398444
0.86396072
0.94285721
0.99149953
0.96791447
0.98154142
0.96897107
0.97287637
0.96544598
0.96384657
0.95794619
0.95271223
0.94583808
0.93756592
0.92789432
0.91607444
0.90226343
0.88590036
0.8670993
0.84590702
0.82312103
0.80006229
0.77851717
0.76005565
0.74556538
0.73559064
0.73016662
0.72826137
0.72854401
0.73023672
0.73266905
0.73532712
0.73792358
0.74027979
0.7422231
0.74366444
0.7447123
0.74550565
0.74615799
0.74672929
0.74732172
0.74797816
0.7489491
0.75116618
0.75387008
0.75531344
0.75591738
0.7560726
0.75587407
0.75517359
0.73535159
0.86625956
0.94162988
0.98729913
0.96355419
0.97694983
0.9644136
0.96799543
0.96055371
0.95858745
0.95254574
0.94692207
0.93971514
0.93098062
0.92077829
0.9083447
0.89382205
0.87669252
0.85709928
0.83522562
0.81205122
0.78908701
0.76815813
0.75068646
0.73744347
0.7290497
0.72515166
0.72436313
0.7255561
0.72799873
0.73100362
0.73409516
0.73702015
0.73961845
0.74173306
0.74331104
0.74446172
0.74532728
0.74603078
0.7466442
0.74727081
0.74798324
0.74909839
0.75164777
0.75412626
0.75540988
0.75592815
0.75603759
0.75580784
0.75511953
0.73658607
0.86846911
0.93978493
0.98278162
0.95896363
0.97210097
0.95960719
0.96284275
0.95538724
0.9530348
0.94683519
0.9408056
0.93323677
0.92401544
0.91324841
0.90016881
0.88490216
0.86698103
0.84659553
0.82409288
0.80065233
0.77794952
0.75778361
0.74139737
0.72959563
0.72289544
0.72043183
0.72068908
0.72278854
0.72594095
0.72948093
0.73297408
0.73620136
0.73902116
0.74129321
0.74299504
0.74423721
0.74516612
0.74591694
0.74657048
0.74722488
0.74799756
0.74929833
0.75212794
0.7543612
0.75548972
0.75592986
0.75599632
0.75574577
0.75506107
0.73770645
0.87052873
0.93732128
0.97820174
0.95413849
0.96698736
0.95454515
0.95741156
0.94993858
0.94718123
0.94080363
0.93435169
0.92638932
0.91665524
0.90528804
0.8915287
0.87548508
0.8567503
0.83558484
0.8125284
0.78896719
0.76669723
0.74742715
0.73225445
0.72210917
0.71713826
0.71596331
0.71726759
0.72024037
0.72405979
0.72809697
0.73196011
0.73546401
0.73848567
0.74090177
0.74271494
0.74403723
0.74502146
0.74581608
0.74650806
0.7471925
0.74803322
0.74957345
0.75257398
0.75457462
0.75555946
0.75592654
0.75594864
0.75568801
0.75500047
0.73873846
0.87235629
0.93425267
0.97331013
0.94907211
0.96160499
0.94922119
0.95169373
0.94419942
0.9410197
0.93443907
0.92754707
0.91915788
0.90888261
0.8968785
0.88240381
0.86555074
0.84598633
0.82407075
0.80056224
0.77704596
0.75537767
0.73712468
0.72336503
0.71504759
0.71173589
0.71175504
0.71410904
0.717909
0.72235089
0.72684706
0.7310489
0.73480452
0.73800947
0.7405565
0.74246869
0.74386049
0.74489291
0.74572736
0.74645509
0.74717982
0.74810733
0.74994657
0.75296036
0.75476155
0.75561924
0.75592032
0.75590088
0.75563177
0.75493946
0.73970903
0.87390382
0.93061342
0.9680407
0.94375638
0.95594472
0.94362735
0.94568163
0.93815876
0.93453838
0.92772791
0.92037627
0.91152569
0.90067825
0.88799836
0.87277079
0.85507694
0.8346764
0.81206213
0.78823043
0.76493791
0.74403281
0.7269295
0.71483709
0.70844147
0.70663063
0.70784108
0.71121134
0.71578921
0.72080826
0.72572545
0.73023546
0.73421926
0.73759024
0.7402551
0.74225423
0.74370575
0.74478003
0.74564989
0.74640857
0.74718205
0.74822341
0.75040728
0.75329012
0.75491627
0.75566016
0.75590272
0.75585094
0.75557565
0.75487885
0.74066107
0.87515256
0.92643845
0.96256657
0.93818994
0.9500031
0.93775682
0.93936761
0.93180219
0.92772281
0.92065457
0.91282329
0.90347382
0.89201953
0.87862277
0.8626034
0.84404166
0.82281315
0.79957887
0.7755792
0.75269483
0.73270556
0.71694263
0.70675751
0.70226222
0.70181975
0.70423654
0.70857079
0.71387467
0.71942522
0.72472597
0.72951498
0.73370545
0.7372265
0.73999572
0.74206966
0.74357185
0.74468232
0.74558335
0.74636682
0.74719546
0.74838327
0.75091275
0.75358457
0.7550392
0.75567735
0.75586795
0.75579308
0.7555188
0.75481901
0.74151297
0.87609292
0.92178449
0.95675499
0.93236651
0.9437666
0.93159691
0.93273427
0.9251166
0.92055912
0.91320366
0.90486942
0.89497978
0.88288023
0.8687231
0.85187307
0.83242303
0.81039462
0.78664833
0.76265816
0.74036549
0.72144273
0.70729195
0.69917993
0.69644039
0.69734297
0.70093852
0.70618056
0.71215723
0.71819389
0.72384205
0.72888322
0.73326116
0.73691701
0.73977682
0.74191343
0.74345759
0.74459915
0.74552812
0.74633184
0.74722046
0.74859548
0.75142646
0.75385255
0.75513858
0.75568131
0.7558271
0.75573642
0.75546085
0.75476008
0.74216581
0.87671254
0.91668595
0.95063492
0.92626711
0.93721624
0.92513287
0.92576999
0.91808827
0.91303481
0.90535665
0.89649132
0.88601593
0.87322874
0.85826705
0.84054963
0.82020331
0.79742863
0.77331005
0.74952188
0.72800292
0.71032972
0.69809204
0.69210353
0.69095324
0.69322311
0.69794277
0.70403241
0.7106279
0.71710619
0.72306784
0.72833689
0.73288413
0.73665873
0.73959616
0.74178424
0.74336176
0.7445295
0.74548434
0.74631281
0.74726907
0.74888023
0.75191798
0.75409532
0.75522139
0.75567713
0.75578035
0.75567652
0.75540217
0.75470258
0.74254913
0.87697967
0.91116067
0.94418348
0.91988133
0.93034536
0.91835894
0.91846803
0.91070298
0.90513121
0.89708834
0.8876584
0.8765487
0.86302956
0.8472194
0.8286028
0.80736905
0.78393194
0.75960912
0.73622315
0.71565844
0.69949607
0.68942236
0.68546551
0.68583528
0.68946074
0.69524064
0.70211572
0.70927645
0.71615402
0.72239807
0.72787214
0.73256844
0.73644383
0.73944904
0.74168042
0.74328315
0.74447184
0.74545013
0.74631373
0.7473554
0.74925847
0.75235936
0.75430872
0.75528833
0.75566713
0.75572832
0.75561524
0.75534269
0.75464706
0.7426042
0.87690523
0.90527347
0.93741888
0.9132183
0.92315292
0.91126819
0.91081214
0.90293821
0.89681937
0.88836517
0.87833396
0.86654
0.85224337
0.83554271
0.81600471
0.793916
0.7699344
0.74559993
0.72281957
0.70340043
0.68908553
0.68132175
0.6792172
0.68111983
0.68605109
0.69282189
0.70041905
0.70809294
0.71533039
0.72182777
0.72748219
0.73230234
0.73626057
0.7393281
0.74159907
0.74322061
0.74442448
0.74542131
0.74632778
0.74748414
0.74972789
0.75273656
0.75448683
0.75533471
0.75564834
0.75567112
0.75555141
0.75528195
0.75459371
0.74227069
0.87648204
0.89919528
0.93034028
0.90626639
0.915617
0.90383185
0.90276949
0.89475801
0.8880628
0.87914761
0.86847732
0.85594845
0.84082835
0.82319903
0.80273131
0.77984934
0.75547508
0.73133863
0.70937136
0.69134588
0.6792122
0.67375541
0.67336876
0.67681833
0.68298413
0.69067352
0.69892997
0.70706788
0.71462864
0.72134956
0.72715478
0.73207184
0.73610247
0.7392276
0.74153576
0.74317288
0.74438637
0.74539565
0.74635262
0.74765868
0.7502513
0.75306151
0.75462715
0.7553552
0.75561056
0.75561042
0.75548558
0.75521865
0.75454253
0.74146899
0.87563726
0.89208195
0.92290282
0.89898627
0.90769154
0.89600978
0.89430001
0.88612154
0.87882183
0.86939458
0.85804461
0.84472951
0.82873973
0.81015104
0.78876621
0.76518798
0.74060567
0.71688858
0.69595047
0.67965801
0.66995264
0.66664903
0.66796906
0.67292556
0.68024794
0.68878186
0.69763699
0.70619311
0.714041
0.72095152
0.72687496
0.7318742
0.7359822
0.73915215
0.74148609
0.74313809
0.74435767
0.74537638
0.74639067
0.74788445
0.75078611
0.75334984
0.75473544
0.75535671
0.75556469
0.75554903
0.75542138
0.75515062
0.75449314
0.74006591
0.87425762
0.88497729
0.9150577
0.89133338
0.89934174
0.88776547
0.8853684
0.87698752
0.86905601
0.85906161
0.84698825
0.8328351
0.81593135
0.79636427
0.77410224
0.74996214
0.72538349
0.70231762
0.68265624
0.66848633
0.66131315
0.65998242
0.66304315
0.66943116
0.67782715
0.68713236
0.69652908
0.70545931
0.71355484
0.72061746
0.72663567
0.73173105
0.73592024
0.73911513
0.74145014
0.74311376
0.74433902
0.74537244
0.74645212
0.74817493
0.75129882
0.7536046
0.75482128
0.75534701
0.755514
0.75548757
0.75535923
0.75507907
0.75444495
0.73803653
0.87246328
0.87743398
0.90678499
0.88329596
0.89054119
0.87906655
0.87593779
0.86731254
0.85871973
0.84809954
0.83525614
0.82021288
0.80235664
0.78181044
0.75874611
0.73421679
0.70987468
0.68770509
0.66964627
0.6579478
0.65322932
0.65380658
0.658588
0.66632145
0.67570561
0.68571128
0.6955951
0.70485257
0.71315138
0.72033459
0.72645156
0.73166004
0.73590813
0.739114
0.74143601
0.74309758
0.74432952
0.74538581
0.7465484
0.74855086
0.75175701
0.75382304
0.75488816
0.75533062
0.75546013
0.75542546
0.75529663
0.75500641
0.75439776
0.73535328
0.87019444
0.86938722
0.89804986
0.8748328
0.88124577
0.86986142
0.86597181
0.85704657
0.84776004
0.83645258
0.82279033
0.80680849
0.78797057
0.76647007
0.74271722
0.71800701
0.69415017
0.67314192
0.65710212
0.6480984
0.6456515
0.64815894
0.65459423
0.66357897
0.67386602
0.68450421
0.69481945
0.70435147
0.71281207
0.72010696
0.72634586
0.73164146
0.73591992
0.73913133
0.74144493
0.74308866
0.74432538
0.74541124
0.74668835
0.74901886
0.75214453
0.75400025
0.75493144
0.75530522
0.75540307
0.75536304
0.75523339
0.75493283
0.75435173
0.73200997
0.86741358
0.86089618
0.88880077
0.86590058
0.87140481
0.8601
0.85541917
0.84613536
0.83611657
0.82405961
0.8095292
0.79256607
0.77273335
0.75033679
0.72605257
0.7014011
0.67829844
0.65877344
0.64518347
0.63891363
0.63860095
0.64305336
0.65104701
0.66118527
0.67229174
0.68349501
0.69418003
0.70393375
0.71253658
0.71996266
0.72630968
0.73164912
0.735946
0.73915935
0.74146632
0.74309094
0.74432319
0.74544713
0.74687648
0.74954386
0.75247551
0.75413772
0.75494794
0.75526795
0.75534295
0.75529995
0.75516911
0.75485887
0.75430716
0.72795321
0.86403854
0.8518958
0.87897847
0.85644801
0.86096905
0.84972907
0.84421918
0.83451231
0.82372312
0.81085383
0.7954091
0.77743103
0.75661327
0.73341871
0.70880304
0.68447558
0.66242144
0.64479718
0.633997
0.63031689
0.63213695
0.63848039
0.64792719
0.65911992
0.67096432
0.68266214
0.69365154
0.70359447
0.71235464
0.71990403
0.72630878
0.73167483
0.73598995
0.73919982
0.7414953
0.74310592
0.74432554
0.74549782
0.74711392
0.75008039
0.75276784
0.75424494
0.75494755
0.75522307
0.75528038
0.75523561
0.75510365
0.75478573
0.75426452
0.72314967
0.86001177
0.84237572
0.86853685
0.84642538
0.84988419
0.83868322
0.83230596
0.82210619
0.81050783
0.79676684
0.78036356
0.76135136
0.73958988
0.71574201
0.6910365
0.66732469
0.64665447
0.63141537
0.62356578
0.6222986
0.62629181
0.63442516
0.64521333
0.65736194
0.66986174
0.68197924
0.69322126
0.70336071
0.71227302
0.71989254
0.72632931
0.73172329
0.73605491
0.73925507
0.74153097
0.74312865
0.74433892
0.74557087
0.74740879
0.75059819
0.75302418
0.75433059
0.75493812
0.75517035
0.75521589
0.75517001
0.75503818
0.75471434
0.75422401
0.71761098
0.85526041
0.83230739
0.85740608
0.83576471
0.83808004
0.82688728
0.81960583
0.80884161
0.79639514
0.78172656
0.76432645
0.74428145
0.72165788
0.69735045
0.67283318
0.65006094
0.63119364
0.61878569
0.61382642
0.61492585
0.62105784
0.63086634
0.64288106
0.65588724
0.66895554
0.68142148
0.69290496
0.70324209
0.71225069
0.71991003
0.7263741
0.73179602
0.73613821
0.73932312
0.74157486
0.74315501
0.74436377
0.74567516
0.74778191
0.75106621
0.75324324
0.75439692
0.75492196
0.75511566
0.75515064
0.75510417
0.75497426
0.75464294
0.7541866
0.71131558
0.84962136
0.8216351
0.84549993
0.82437663
0.82548312
0.81425769
0.80604896
0.79463991
0.7813067
0.76565679
0.74723048
0.726185
0.70283104
0.67830918
0.65429349
0.6328261
0.61627729
0.60698363
0.60474695
0.60824537
0.6164227
0.62777975
0.64090479
0.65466828
0.6682156
0.6809828
0.69271934
0.70320076
0.71226498
0.71995532
0.72644631
0.73189015
0.73623812
0.73940285
0.74162608
0.7431827
0.74439912
0.74582365
0.74824277
0.75146381
0.75342367
0.75444266
0.75489681
0.75506022
0.7550871
0.75503916
0.75490932
0.75456936
0.75415445
0.7042263
0.8429529
0.81030667
0.83273587
0.81218293
0.81202179
0.80071122
0.79155472
0.77941979
0.76515366
0.74847404
0.72901236
0.70704065
0.68314522
0.65870213
0.63554225
0.61581661
0.6021123
0.59598572
0.59637346
0.60226744
0.61236322
0.6251367
0.63925462
0.65367258
0.66762211
0.68068755
0.6926402
0.70320673
0.71231285
0.72003086
0.72654261
0.73200317
0.73635241
0.73949411
0.74168236
0.74321114
0.74444788
0.74602186
0.7487554
0.75180065
0.75356867
0.75446985
0.75486581
0.75500699
0.75502761
0.75497636
0.75483315
0.75449957
0.75412909
0.69637232
0.83510124
0.79827767
0.81904483
0.79910687
0.79763382
0.78615385
0.77603109
0.76308623
0.74783599
0.73009006
0.70961523
0.68684826
0.66266258
0.63863925
0.61673869
0.59929328
0.58883697
0.58574196
0.58877496
0.59698088
0.60885271
0.62290625
0.63789703
0.65286824
0.6671817
0.68053789
0.69262614
0.70325336
0.71239628
0.72013401
0.72666034
0.73213249
0.73647972
0.73959731
0.74174082
0.7432414
0.74451396
0.74626472
0.74927478
0.75209541
0.75368351
0.75448269
0.75483128
0.75495543
0.75496993
0.75491294
0.75474331
0.75444346
0.75411092
0.68780615
0.8258238