/*--------------------------------*- C++ -*----------------------------------*\
  =========                 |
  \\      /  F ield         | OpenFOAM: The Open Source CFD Toolbox
   \\    /   O peration     | Website:  https://openfoam.org
    \\  /    A nd           | Version:  8
     \\/     M anipulation  |
\*---------------------------------------------------------------------------*/
FoamFile
{
    version     2.0;
    format      ascii;
    class       surfaceScalarField;
    location    "0.229992";
    object      meshPhi;
}
// * * * * * * * * * * * * * * * * * * * * * * * * * * * * * * * * * * * * * //

dimensions      [0 3 -1 0 0 0 0];

internalField   nonuniform List<scalar> 
39600
(
-6.8203734e-05
-4.3130206e-06
4.3549615e-06
-6.8273829e-05
-5.1769854e-06
5.2607981e-06
-6.8358122e-05
-6.2021129e-06
6.3023021e-06
-6.8461888e-05
-7.4298042e-06
7.5499781e-06
-6.8588196e-05
-8.9001188e-06
9.0444029e-06
-6.8741884e-05
-1.0661101e-05
1.0834199e-05
-6.8926472e-05
-1.2769923e-05
1.2977438e-05
-6.915084e-05
-1.5294771e-05
1.5543444e-05
-6.9417058e-05
-1.8317092e-05
1.8614819e-05
-6.9737385e-05
-2.1933741e-05
2.2289806e-05
-7.0128033e-05
-2.6259268e-05
2.668481e-05
-7.061699e-05
-3.1429043e-05
3.1937374e-05
-7.1244856e-05
-3.7602059e-05
3.8209105e-05
-7.2048645e-05
-4.4964353e-05
4.5689266e-05
-7.3037511e-05
-5.3732539e-05
5.4597257e-05
-7.4291196e-05
-6.4157227e-05
6.5188389e-05
-7.5423072e-05
-7.6531703e-05
7.7762007e-05
-7.6128039e-05
-9.1215326e-05
9.2676079e-05
-7.664234e-05
-0.00010861043
0.00011033337
-7.7219194e-05
-0.0001291094
0.00013114127
-7.8759745e-05
-0.00015304553
0.0001554564
-8.2391341e-05
-0.00018051662
0.00018340874
-8.8327501e-05
-0.00021182449
0.0002153794
-9.9346822e-05
-0.00024679857
0.00025125775
-0.00011548483
-0.00028539157
0.0002912201
-0.00014286444
-0.00032653398
0.00033434892
-0.00017966097
-0.00036903062
0.00037942858
-0.00023059573
-0.00041040615
0.0004243152
-0.00028648364
-0.00044946993
0.00046812675
-0.00034881499
-0.0004924977
0.00051713312
-0.00042073002
-0.00054130191
0.00057372346
-0.00050527029
-0.00059483362
0.00063722384
-0.00061350419
-0.00064500826
0.00070032379
-0.00074734537
-0.00068111912
0.00075243667
-0.00092608011
-0.00069058046
0.00078251607
-0.0011192553
-0.00067979731
0.00079731146
-0.0013338866
-0.0006508495
0.00079740679
-0.0015495569
-0.00061036342
0.00078890935
-0.0017882806
-0.00057065674
0.0007838795
-0.0020390023
-0.00054919404
0.0008022509
-0.0023065368
-0.00055075027
0.00084452399
-0.0025582589
-0.00049086892
0.00081766088
-0.0028073236
-0.00034795653
0.00070200443
-0.0030141395
-0.00022210533
0.00060105251
-0.0031798545
-0.00017658587
0.00056970915
-0.0032340506
-0.00013788759
0.00052371974
-0.0031313414
-9.0803237e-05
0.00043964443
-0.0030608923
-9.6805354e-05
0.00039077186
-0.0027332292
-0.0001671225
0.00037528072
-0.00013579793
0.00018811976
-5.4824122e-05
-4.260105e-06
-5.4894645e-05
-5.1136767e-06
-5.4982207e-05
-6.1261908e-06
-5.5086883e-05
-7.3390245e-06
-5.520398e-05
-8.7918294e-06
-5.5335972e-05
-1.0531633e-05
-5.5479055e-05
-1.2615238e-05
-5.5640476e-05
-1.5109797e-05
-5.582017e-05
-1.8095872e-05
-5.6031653e-05
-2.1668866e-05
-5.6287305e-05
-2.5942123e-05
-5.661581e-05
-3.1049559e-05
-5.7041652e-05
-3.7149109e-05
-5.7591531e-05
-4.4425608e-05
-5.8252091e-05
-5.3095661e-05
-5.9074906e-05
-6.340655e-05
-5.9833687e-05
-7.5648001e-05
-6.0302446e-05
-9.0171811e-05
-6.066501e-05
-0.00010737179
-6.119834e-05
-0.00012763507
-6.269158e-05
-0.00015126709
-6.6095404e-05
-0.00017839267
-7.1768538e-05
-0.00020920363
-8.2067195e-05
-0.00024347697
-9.7454183e-05
-0.00028094465
-0.0001230909
-0.00032038288
-0.00015747318
-0.00036076906
-0.00020629623
-0.00039903164
-0.00026114576
-0.00043378361
-0.0003225443
-0.00047116656
-0.00039369414
-0.00051271257
-0.00047772385
-0.00055659356
-0.00058516265
-0.00059444151
-0.00071862526
-0.00061458724
-0.00089497818
-0.00060352161
-0.0010851752
-0.00056792453
-0.0012997187
-0.00051018491
-0.0015144328
-0.00043835577
-0.0017541338
-0.00036426354
-0.0020059641
-0.00030422329
-0.0022765469
-0.0002648504
-0.0025330643
-0.00016900543
-0.0027864876
4.7738526e-06
-0.0030021126
0.00015593235
-0.0031735526
0.00021790134
-0.0032500688
0.00025387419
-0.0031435788
0.00026633558
-0.0030903211
0.00020634716
-0.0027604282
5.3991788e-05
-7.4913749e-05
-4.2146951e-05
-4.2234502e-06
-4.1997621e-05
-5.0707838e-06
-4.1859296e-05
-6.0760308e-06
-4.1765374e-05
-7.2801888e-06
-4.1723237e-05
-8.7224284e-06
-4.1727417e-05
-1.0449422e-05
-4.1775342e-05
-1.2517328e-05
-4.1869817e-05
-1.4992767e-05
-4.2015687e-05
-1.7955369e-05
-4.2218048e-05
-2.1499766e-05
-4.2479093e-05
-2.5738189e-05
-4.2805746e-05
-3.0804081e-05
-4.3190898e-05
-3.6854455e-05
-4.3627015e-05
-4.4074774e-05
-4.4102256e-05
-5.268144e-05
-4.4625769e-05
-6.2918573e-05
-4.5108156e-05
-7.5073023e-05
-4.5465501e-05
-8.9489103e-05
-4.5782229e-05
-0.0001065587
-4.6323498e-05
-0.00012666495
-4.7752881e-05
-0.00015009075
-5.0844191e-05
-0.0001769715
-5.62054e-05
-0.0002074054
-6.5691968e-05
-0.00024113564
-8.0318781e-05
-0.00027766643
-0.00010409921
-0.00031568195
-0.00013612308
-0.00035429122
-0.00018286557
-0.0003897934
-0.00023650071
-0.00042056409
-0.00029698298
-0.00045259259
-0.00036705964
-0.00048718177
-0.00045063863
-0.00052178356
-0.00055670587
-0.00054769523
-0.00068995227
-0.00055224487
-0.00086378448
-0.00052113414
-0.001051805
-0.00046123147
-0.0012653365
-0.00037512085
-0.0014794343
-0.00027207529
-0.0017196202
-0.00016360592
-0.001972739
-6.5179124e-05
-0.0022462887
1.5402267e-05
-0.0025068645
0.00014904149
-0.0027653973
0.0003557323
-0.0029886855
0.00053425963
-0.0031671587
0.00061492291
-0.0032607698
0.00065130026
-0.0031558121
0.00063225814
-0.0031169074
0.00052067388
-0.0027869337
0.00029009109
-3.7940966e-06
-3.0414328e-05
-4.2012051e-06
-3.0225767e-05
-5.0433977e-06
-3.0028053e-05
-6.0424197e-06
-2.9846955e-05
-7.2393877e-06
-2.9694135e-05
-8.6735707e-06
-2.9569289e-05
-1.0391665e-05
-2.9478527e-05
-1.2449566e-05
-2.9434916e-05
-1.4913891e-05
-2.9450259e-05
-1.7863996e-05
-2.9537007e-05
-2.1394158e-05
-2.9694697e-05
-2.5616338e-05
-2.992216e-05
-3.0663624e-05
-3.0201908e-05
-3.669241e-05
-3.050237e-05
-4.3888574e-05
-3.0819675e-05
-5.2467904e-05
-3.1144806e-05
-6.2672905e-05
-3.1445258e-05
-7.4786076e-05
-3.1690836e-05
-8.9149555e-05
-3.1926551e-05
-0.00010615683
-3.24292e-05
-0.00012618266
-3.3745625e-05
-0.000149495
-3.6540642e-05
-0.00017622863
-4.1533402e-05
-0.00020641027
-5.0240477e-05
-0.00023975107
-6.4084011e-05
-0.00027554563
-8.6110764e-05
-0.00031242711
-0.00011611732
-0.00034952887
-0.00016101661
-0.00038253755
-0.00021343508
-0.00040960472
-0.00027298521
-0.0004365627
-0.00034203173
-0.0004644597
-0.00042500111
-0.00049009994
-0.00052973887
-0.00050439544
-0.00066241854
-0.00049373498
-0.0008339274
-0.00044308214
-0.0010202762
-0.00035934868
-0.0012325833
-0.0002453296
-0.0014465094
-0.00011121684
-0.0016871563
3.1678634e-05
-0.0019417261
0.00016861012
-0.0022179903
0.00029090158
-0.0024825263
0.00046379148
-0.0027462747
0.00070495461
-0.0029767325
0.00091281407
-0.0031622132
0.0010144123
-0.003269642
0.0010540176
-0.0031683149
0.0010062682
-0.003141219
0.00084563963
-0.0028132932
0.00054048867
7.7309643e-05
-1.9577244e-05
-4.1942668e-06
-1.9524438e-05
-5.034968e-06
-1.9437728e-05
-6.0322093e-06
-1.9309298e-05
-7.2271474e-06
-1.9149134e-05
-8.6588815e-06
-1.8967057e-05
-1.0374191e-05
-1.8778693e-05
-1.2428974e-05
-1.860344e-05
-1.4889894e-05
-1.8454899e-05
-1.7836497e-05
-1.8354101e-05
-2.1363503e-05
-1.8299675e-05
-2.5583243e-05
-1.8302419e-05
-3.0629499e-05
-1.8348557e-05
-3.6659354e-05
-1.8423484e-05
-4.3858978e-05
-1.8517381e-05
-5.244441e-05
-1.8632356e-05
-6.2656641e-05
-1.8746495e-05
-7.4775768e-05
-1.8826612e-05
-8.914409e-05
-1.8942559e-05
-0.00010615422
-1.9356498e-05
-0.00012617325
-2.0522655e-05
-0.00014946044
-2.3026607e-05
-0.00017614405
-2.7616532e-05
-0.0002061945
-3.5577773e-05
-0.00023929372
-4.8602678e-05
-0.00027454605
-6.8968097e-05
-0.00031054935
-9.7251392e-05
-0.00034639797
-0.00014056811
-0.00037716149
-0.00019179208
-0.00040078611
-0.00025039163
-0.00042295399
-0.00031845034
-0.00044442572
-0.00040069689
-0.0004613997
-0.0005041599
-0.00046438693
-0.00063601307
-0.00043888453
-0.00080531733
-0.00036918389
-0.00099019907
-0.0002621054
-0.0012012076
-0.00012063343
-0.0014152063
4.4330389e-05
-0.001656375
0.00022171378
-0.0019124447
0.00039733555
-0.0021912512
0.00056187624
-0.0024597482
0.00077524415
-0.0027287929
0.0010524148
-0.002966107
0.0012914981
-0.0031585025
0.0014162042
-0.0032773089
0.0014616059
-0.003181028
0.0013878037
-0.0031635697
0.0011805181
-0.0028393268
0.00080432497
0.00016801155
-9.2541467e-06
-4.2019278e-06
-9.1744013e-06
-5.0445513e-06
-9.0605338e-06
-6.0442145e-06
-8.91386e-06
-7.242055e-06
-8.7472055e-06
-8.6772093e-06
-8.5652599e-06
-1.0396483e-05
-8.3777131e-06
-1.2455922e-05
-8.1912311e-06
-1.4922386e-05
-8.0070842e-06
-1.7875838e-05
-7.8351963e-06
-2.1411629e-05
-7.665801e-06
-2.5642991e-05
-7.5098022e-06
-3.0705017e-05
-7.3575762e-06
-3.6756187e-05
-7.2139241e-06
-4.3984275e-05
-7.090273e-06
-5.2606272e-05
-6.9897784e-06
-6.2862872e-05
-6.8937945e-06
-7.5033649e-05
-6.7840059e-06
-8.9460286e-05
-6.7450398e-06
-0.00010653483
-7.0231828e-06
-0.0001266202
-8.0045723e-06
-0.00014996946
-1.0209542e-05
-0.00017670155
-1.4374977e-05
-0.00020674633
-2.1620328e-05
-0.000239752
-3.3784554e-05
-0.00027467082
-5.2594451e-05
-0.00031007293
-7.9412164e-05
-0.00034488159
-0.00012135962
-0.00037357192
-0.0001714082
-0.000393985
-0.00022903369
-0.00041165343
-0.00029612745
-0.00042696835
-0.00037757458
-0.00043557239
-0.00047979892
-0.00042756231
-0.00061064752
-0.00038761172
-0.00077782
-0.0002993505
-0.0009612964
-0.00016942595
-0.0011709934
-9.8442676e-07
-0.0013851825
0.00019462519
-0.0016269516
0.00040658247
-0.001884511
0.00062118356
-0.0021657561
0.00082849473
-0.0024382283
0.0010834133
-0.0027126298
0.0013979858
-0.0029565757
0.0016701452
-0.0031557926
0.001820057
-0.003284167
0.0018736836
-0.0031938837
0.0017763717
-0.0031842223
0.0015249039
-0.0028649352
0.0010810509
0.00026806189
3.9979394e-07
-4.2232111e-06
4.8540687e-07
-5.0697824e-06
5.9904182e-07
-6.0740842e-06
7.4123395e-07
-7.2774378e-06
8.9934894e-07
-8.719311e-06
1.0755981e-06
-1.0446834e-05
1.2667051e-06
-1.251655e-05
1.4741763e-06
-1.4995976e-05
1.7051374e-06
-1.7965919e-05
1.9548903e-06
-2.1522809e-05
2.2380736e-06
-2.5781128e-05
2.5426472e-06
-3.0877544e-05
2.8763291e-06
-3.6972285e-05
3.2228823e-06
-4.4254916e-05
3.557308e-06
-5.2944247e-05
3.8698787e-06
-6.3281806e-05
4.1801241e-06
-7.5547269e-05
4.4955491e-06
-9.0083207e-05
4.717732e-06
-0.00010728263
4.6165771e-06
-0.00012750683
3.8561738e-06
-0.00015100363
1.9663779e-06
-0.00017788358
-1.7577012e-06
-0.00020804308
-8.3083356e-06
-0.00024110019
-1.9575577e-05
-0.00027588583
-3.6941011e-05
-0.00031093869
-6.2537043e-05
-0.00034491348
-0.00010329766
-0.00037169664
-0.00015218494
-0.00038912037
-0.00020881655
-0.00040256933
-0.00027495865
-0.0004119953
-0.00035554564
-0.00041251226
-0.00045655661
-0.00039381036
-0.00058626962
-0.00033978209
-0.00075136299
-0.00023343437
-0.00093341882
-8.1179723e-05
-0.0011418241
0.00011375308
-0.001356246
0.00033975968
-0.0015986977
0.00058635771
-0.0018577069
0.00084019987
-0.0021413233
0.0010907705
-0.0024177853
0.0013882351
-0.002697574
0.0017416602
-0.0029479896
0.0020487106
-0.0031539015
0.0022258706
-0.0032905717
0.0022899369
-0.0032068731
0.0021715497
-0.0032034625
0.0018781835
-0.0028899773
0.0013698909
0.00037710187
9.4052362e-06
-4.2580914e-06
9.4570925e-06
-5.1115872e-06
9.5224205e-06
-6.1239709e-06
9.6204687e-06
-7.336862e-06
9.748811e-06
-8.7901979e-06
9.9199595e-06
-1.0531741e-05
1.0134666e-05
-1.2618761e-05
1.0395873e-05
-1.5119683e-05
1.070987e-05
-1.8116361e-05
1.1068718e-05
-2.1706443e-05
1.1485075e-05
-2.6005961e-05
1.194179e-05
-3.1153363e-05
1.2444836e-05
-3.7310998e-05
1.2972477e-05
-4.467101e-05
1.3495893e-05
-5.3454449e-05
1.4007228e-05
-6.3905288e-05
1.4525115e-05
-7.6304946e-05
1.5049179e-05
-9.0998277e-05
1.5475483e-05
-0.00010838139
1.5584895e-05
-0.00012881606
1.5080112e-05
-0.00015254618
1.3530044e-05
-0.00017967554
1.026395e-05
-0.00021007467
4.3856199e-06
-0.00024332578
-5.982704e-06
-0.00027817478
-2.2014519e-05
-0.00031311542
-4.6586158e-05
-0.00034641062
-8.6316413e-05
-0.00037140499
-0.00013406339
-0.00038602541
-0.00018969414
-0.00039550577
-0.00025488743
-0.00039929771
-0.00033457027
-0.00039201081
-0.00043437937
-0.00036292637
-0.00056286547
-0.00029520193
-0.00072591819
-0.0001712156
-0.00090651669
2.8679412e-06
-0.0011136532
0.00022381364
-0.0013283026
0.00047998652
-0.0015714952
0.00076129108
-0.001831899
0.0010546409
-0.0021178381
0.0013488844
-0.0023982783
0.0016897907
-0.0026834546
0.0020834198
-0.0029401851
0.0024271074
-0.0031526607
0.0026334164
-0.0032966445
0.0027100441
-0.0032199628
0.0025730125
-0.0032214667
0.002240052
-0.0029143073
0.0016703704
0.00049486406
1.7850045e-05
-4.3060265e-06
1.7911152e-05
-5.1692996e-06
1.7987541e-05
-6.1934679e-06
1.8101867e-05
-7.4207938e-06
1.8255145e-05
-8.8916887e-06
1.8460594e-05
-1.0654474e-05
1.8717817e-05
-1.2767127e-05
1.9030111e-05
-1.5298919e-05
1.9402395e-05
-1.8332677e-05
1.9827829e-05
-2.1967546e-05
2.0320139e-05
-2.6321159e-05
2.086404e-05
-3.1534164e-05
2.1470259e-05
-3.7771566e-05
2.2119506e-05
-4.5228631e-05
2.2789017e-05
-5.4130772e-05
2.3472008e-05
-6.4725339e-05
2.4180022e-05
-7.7296063e-05
2.4907263e-05
-9.2192713e-05
2.554854e-05
-0.00010981685
2.5893303e-05
-0.00013053029
2.5672447e-05
-0.0001545762
2.4491412e-05
-0.00018205394
2.1705361e-05
-0.00021281289
1.6473072e-05
-0.0002463951
6.9897063e-06
-0.00028148943
-7.8072714e-06
-0.00031653045
-3.1506585e-05
-0.00034930383
-7.0338599e-05
-0.00037263143
-0.00011697923
-0.00038462121
-0.00017160249
-0.00039036951
-0.00023584874
-0.00038877507
-0.00031459376
-0.0003739497
-0.00041320862
-0.00033477961
-0.0005404026
-0.00025371385
-0.00070145209
-0.00011253
-0.00088054545
8.2870133e-05
-0.0010864342
0.00032934596
-0.001301281
0.00061541221
-0.0015452527
0.00093145576
-0.0018069886
0.0012645319
-0.002095205
0.0016028311
-0.0023795947
0.0019880386
-0.0026701263
0.0024232562
-0.002933029
0.0028052908
-0.0031519046
0.0030426048
-0.0033025505
0.0031337463
-0.0032331831
0.0029803832
-0.0032384915
0.0026099379
-0.00293786
0.0019816818
0.00062089649
2.5764802e-05
-4.3668336e-06
2.5883025e-05
-5.2428991e-06
2.6032676e-05
-6.2825678e-06
2.622066e-05
-7.5287341e-06
2.6439893e-05
-9.0222604e-06
2.6697682e-05
-1.0812033e-05
2.6992711e-05
-1.2956892e-05
2.7330506e-05
-1.5527037e-05
2.7719107e-05
-1.8606635e-05
2.8158557e-05
-2.2296093e-05
2.866893e-05
-2.6715343e-05
2.9244352e-05
-3.2007303e-05
2.9905159e-05
-3.8340694e-05
3.0643306e-05
-4.5915125e-05
3.1441163e-05
-5.4961132e-05
3.2293843e-05
-6.5731468e-05
3.3192458e-05
-7.8513857e-05
3.4117606e-05
-9.3661365e-05
3.4978049e-05
-0.000111582
3.557457e-05
-0.00013264228
3.56586e-05
-0.0001570856
3.4859692e-05
-0.00018500567
3.2564049e-05
-0.00021623962
2.7950273e-05
-0.00025028455
1.931538e-05
-0.0002857805
5.6421154e-06
-0.00032110648
-1.7292166e-05
-0.00035348183
-5.5286022e-05
-0.00037525716
-0.00010083591
-0.00038482462
-0.00015443817
-0.00038709946
-0.0002177327
-0.00038038265
-0.00029551285
-0.00035831267
-0.00039293693
-0.00030938044
-0.0005187921
-0.00021535709
-0.00067787373
-5.7409389e-05
-0.00085542206
0.00015880663
-0.001060079
0.00043033241
-0.0012750824
0.00074603153
-0.0015198506
0.0010968259
-0.001782857
0.0014698122
-0.0020733081
0.0018524845
-0.0023615974
0.0022827776
-0.0026574395
0.0027608538
-0.0029263704
0.0031828531
-0.0031515249
0.003452922
-0.0033083816
0.0035605896
-0.0032465333
0.0033933694
-0.0032546983
0.0029876145
-0.0029605712
0.0023034141
0.00075490608
3.3112534e-05
-4.4394274e-06
3.3237755e-05
-5.3294613e-06
3.3392818e-05
-6.3856001e-06
3.3584977e-05
-7.6513162e-06
3.3808535e-05
-9.1682055e-06
3.4073307e-05
-1.0986467e-05
3.4380038e-05
-1.3165803e-05
3.4736885e-05
-1.5778127e-05
3.5153989e-05
-1.8909329e-05
3.5633208e-05
-2.2662136e-05
3.6198953e-05
-2.7158708e-05
3.6847375e-05
-3.2545654e-05
3.761038e-05
-3.8995302e-05
3.848181e-05
-4.6712497e-05
3.9456977e-05
-5.5934287e-05
4.0504678e-05
-6.691727e-05
4.159709e-05
-7.9951033e-05
4.2731488e-05
-9.5396277e-05
4.3815899e-05
-0.00011367018
4.4675034e-05
-0.00013514336
4.5079384e-05
-0.00016006417
4.4661837e-05
-0.00018851627
4.2847115e-05
-0.00022032896
3.8808655e-05
-0.00025494938
3.0961197e-05
-0.00029098334
1.8293535e-05
-0.00032676308
-3.9556078e-06
-0.00035886856
-4.1120958e-05
-0.00037921373
-8.5573495e-05
-0.0003865651
-0.0001381437
-0.00038561482
-0.0002004776
-0.00037402449
-0.0002772664
-0.0003449821
-0.0003734994
-0.00028659004
-0.0004979874
-0.00017995826
-0.00065513988
-5.6646336e-06
-0.00083110344
0.00023085726
-0.0010345407
0.00052693691
-0.0012496579
0.00087197454
-0.0014952262
0.0012575043
-0.0017594444
0.0016705504
-0.0020520861
0.0020978979
-0.0023442136
0.0025740381
-0.0026453088
0.0030962586
-0.0029201294
0.0035598089
-0.0031514564
0.0038643614
-0.0033142544
0.003990428
-0.0032600164
0.0038117046
-0.0032702441
0.00337264
-0.0029823443
0.0026348178
0.00089643625
3.9926286e-05
-4.5240892e-06
4.0012231e-05
-5.4309132e-06
4.0108946e-05
-6.5066811e-06
4.0238298e-05
-7.7955741e-06
4.0404255e-05
-9.3399922e-06
4.0626931e-05
-1.1190898e-05
4.0911491e-05
-1.3409597e-05
4.1272579e-05
-1.6069444e-05
4.1720693e-05
-1.9258341e-05
4.2263654e-05
-2.3081856e-05
4.2924124e-05
-2.7665438e-05
4.3700875e-05
-3.3160035e-05
4.4625301e-05
-3.9743367e-05
4.5690964e-05
-4.7626957e-05
4.6867449e-05
-5.7050569e-05
4.8094727e-05
-6.8272451e-05
4.9363593e-05
-8.159005e-05
5.071192e-05
-9.7375766e-05
5.206306e-05
-0.00011606015
5.3220494e-05
-0.00013801964
5.3963312e-05
-0.00016349915
5.3930082e-05
-0.00019257368
5.2578391e-05
-0.00022506745
4.9054372e-05
-0.00026036481
4.1928603e-05
-0.00029705115
3.0154986e-05
-0.00033340591
8.520788e-06
-0.00036533233
-2.7812295e-05
-0.00038437683
-7.116404e-05
-0.00038970747
-0.00012270256
-0.00038575627
-0.00018407358
-0.00036952974
-0.00025986059
-0.00033377919
-0.00035490259
-0.00026622753
-0.0004780129
-0.00014733584
-0.00063327787
4.2921078e-05
-0.0008076179
0.00029928082
-0.0010098352
0.00061943183
-0.001225009
0.00099350505
-0.0014713655
0.0014137085
-0.0017367366
0.0018669073
-0.0020315208
0.0023391536
-0.0023274095
0.0028618052
-0.002633683
0.0034293159
-0.0029142465
0.0039358761
-0.0031516489
0.0042764978
-0.0033201719
0.0044228693
-0.0032736092
0.004235128
-0.003285196
0.0037647815
-0.0030030509
0.0029754641
0.00104516
4.6172304e-05
-4.6192125e-06
4.6150348e-05
-5.5424825e-06
4.6143927e-05
-6.6377958e-06
4.6197238e-05
-7.9504324e-06
4.6321219e-05
-9.5242076e-06
4.6529648e-05
-1.1411687e-05
4.682972e-05
-1.3675556e-05
4.7232406e-05
-1.6390947e-05
4.7746353e-05
-1.9648325e-05
4.8381663e-05
-2.35555e-05
4.9153812e-05
-2.8241579e-05
5.00685e-05
-3.3861064e-05
5.1145831e-05
-4.059698e-05
5.2366826e-05
-4.866343e-05
5.3667551e-05
-5.8302915e-05
5.4999175e-05
-6.9780291e-05
5.6422237e-05
-8.340827e-05
5.8010454e-05
-9.9581006e-05
5.9689854e-05
-0.00011873892
6.1210072e-05
-0.00014125534
6.2321796e-05
-0.00016737334
6.2681311e-05
-0.00019715741
6.1780272e-05
-0.00023043078
5.8709123e-05
-0.00026649884
5.2245305e-05
-0.00030393565
4.1254789e-05
-0.00034097295
2.0171399e-05
-0.00037281568
-1.5313546e-05
-0.00039068749
-5.7572288e-05
-0.00039418277
-0.00010808831
-0.00038743343
-0.00016851542
-0.00036677231
-0.00024330553
-0.00032453041
-0.00033716106
-0.00024807767
-0.0004588777
-0.00011725295
-0.00061229424
8.8573779e-05
-0.0007849948
0.00036431408
-0.00098597298
0.0007080556
-0.001201125
0.0011107934
-0.0014482409
0.0015655578
-0.001714706
0.0020589771
-0.0020115782
0.0025763354
-0.0023111368
0.0031461422
-0.0026224955
0.0037600906
-0.0029086506
0.0043110926
-0.0031520188
0.0046893458
-0.0033261495
0.0048577918
-0.0032872845
0.0046633564
-0.0032996298
0.004163561
-0.0030226225
0.003324541
0.001200531
5.2097374e-05
-4.7280011e-06
5.2107224e-05
-5.6760306e-06
5.2139917e-05
-6.8012829e-06
5.2228604e-05
-8.1496275e-06
5.2384914e-05
-9.7654964e-06
5.2613051e-05
-1.1701782e-05
5.2928125e-05
-1.4022395e-05
5.3337935e-05
-1.6804314e-05
5.3860537e-05
-2.0139114e-05
5.4508254e-05
-2.4138264e-05
5.5299474e-05
-2.8933482e-05
5.6245912e-05
-3.4683988e-05
5.7356593e-05
-4.1576956e-05
5.8593793e-05
-4.9830041e-05
5.9904628e-05
-5.9691579e-05
6.1289975e-05
-7.1441872e-05
6.2855024e-05
-8.5414989e-05
6.4721154e-05
-0.00010202427
6.6767216e-05
-0.00012171536
6.8679362e-05
-0.00014485237
7.017647e-05
-0.00017167363
7.0931819e-05
-0.00020224633
7.0469606e-05
-0.00023639143
6.7821767e-05
-0.00027333204
6.1969431e-05
-0.00031162895
5.1652944e-05
-0.00034942793
3.1071717e-05
-0.00038125756
-3.5598031e-06
-0.00039808859
-4.4741231e-05
-0.00039993292
-9.4249068e-05
-0.00039059703
-0.0001537479
-0.00036572539
-0.00022753438
-0.00031725931
-0.00032020611
-0.00023221303
-0.00044050721
-8.9814555e-05
-0.00059210726
0.00013118234
-0.00076317777
0.00042586263
-0.00096290176
0.00079274937
-0.001177951
0.0012238107
-0.0014257797
0.0017129723
-0.0016932824
0.0022465954
-0.0019921858
0.002809207
-0.0022953156
0.0034267192
-0.0026116595
0.0040881174
-0.0029032599
0.0046848742
-0.0031525152
0.0051022549
-0.0033321899
0.0052947031
-0.003301017
0.0050961111
-0.0033135896
0.004568762
-0.003040988
0.0036816357
0.0013622006
5.7693774e-05
-4.8464448e-06
5.7835871e-05
-5.8183287e-06
5.7999872e-05
-6.9722609e-06
5.8191839e-05
-8.3555365e-06
5.8419649e-05
-1.0013372e-05
5.8691042e-05
-1.2000663e-05
5.9023948e-05
-1.4382935e-05
5.942933e-05
-1.7238698e-05
5.9931649e-05
-2.0662745e-05
6.0548818e-05
-2.4767892e-05
6.1301619e-05
-2.9689637e-05
6.2209174e-05
-3.5589664e-05
6.3267106e-05
-4.2657982e-05
6.4453887e-05
-5.1116986e-05
6.5741687e-05
-6.1225459e-05
6.7175212e-05
-7.3280135e-05
6.8901045e-05
-8.7640641e-05
7.1032062e-05
-0.00010473749
7.3406098e-05
-0.00012500437
7.5675961e-05
-0.00014880184
7.7542005e-05
-0.00017638203
7.8684034e-05
-0.00020781322
7.8652532e-05
-0.00024291588
7.6424917e-05
-0.0002808291
7.1135431e-05
-0.00032008567
6.1386925e-05
-0.00035872056
4.1261645e-05
-0.00039060674
7.4625488e-06
-0.00040650464
-3.2661742e-05
-0.00040685345
-8.1167237e-05
-0.00039512449
-0.00013972146
-0.00036626273
-0.00021247829
-0.00031183084
-0.00030396356
-0.00021847798
-0.00042283596
-6.4836455e-05
-0.00057265166
0.00017094287
-0.00074209972
0.00048410743
-0.00094058025
0.0008736908
-0.0011554806
0.0013327724
-0.0014039518
0.0018561799
-0.0016724264
0.002429945
-0.0019733014
0.0030379307
-0.0022798994
0.0037036867
-0.0026011226
0.0044135501
-0.002898028
0.0050573586
-0.0031531118
0.0055153438
-0.0033383151
0.0057335812
-0.0033147681
0.0055331761
-0.0033270881
0.0049799675
-0.0030580552
0.0040459555
0.0015296138
6.2760453e-05
-4.9753183e-06
6.2921559e-05
-5.9730818e-06
6.3113201e-05
-7.1580614e-06
6.3340729e-05
-8.5784098e-06
6.3612277e-05
-1.0281001e-05
6.3935468e-05
-1.2322316e-05
6.4323176e-05
-1.4769551e-05
6.4786939e-05
-1.7703966e-05
6.5343097e-05
-2.1222855e-05
6.6009142e-05
-2.5442241e-05
6.6798251e-05
-3.0501636e-05
6.7727971e-05
-3.6565907e-05
6.8792028e-05
-4.3829897e-05
6.9980608e-05
-5.2520892e-05
7.1299686e-05
-6.2907151e-05
7.2823983e-05
-7.5306266e-05
7.4718022e-05
-9.0099063e-05
7.7056414e-05
-0.00010771765
7.9670747e-05
-0.00012859214
8.2237838e-05
-0.00015309197
8.4442008e-05
-0.00018148416
8.5956439e-05
-0.00021384248
8.6340886e-05
-0.00024998
8.4537493e-05
-0.00028896974
7.977507e-05
-0.0003293046
7.0498547e-05
-0.00036883751
5.0761839e-05
-0.0004008069
1.7755466e-05
-0.00041584762
-2.1331958e-05
-0.00041483165
-6.8833953e-05
-0.00040088238
-0.00012641688
-0.00036825031
-0.00019812605
-0.00030811353
-0.00028842294
-0.00020674268
-0.00040586509
-4.2187399e-05
-0.0005539311
0.0002080147
-0.00072175976
0.00053925125
-0.00091901535
0.00095111766
-0.0011337425
0.0014379322
-0.0013827853
0.0019954235
-0.0016521475
0.0026092011
-0.001954928
0.0032625704
-0.0022648851
0.0039769977
-0.0025908705
0.0047361861
-0.0028929344
0.0054281905
-0.003153782
0.0059281502
-0.003344471
0.0061740216
-0.0033284663
0.0059742662
-0.0033401042
0.005396916
-0.0030737159
0.0044170494
0.0017023904
6.7435818e-05
-5.1144493e-06
6.760954e-05
-6.1402494e-06
6.7816815e-05
-7.3585573e-06
6.8063901e-05
-8.8190665e-06
6.8359555e-05
-1.0569901e-05
6.871211e-05
-1.2669216e-05
6.9134382e-05
-1.5186101e-05
6.9639041e-05
-1.8204762e-05
7.024076e-05
-2.1824501e-05
7.0956783e-05
-2.6165982e-05
7.1798081e-05
-3.1371944e-05
7.2778027e-05
-3.7612422e-05
7.389822e-05
-4.5087396e-05
7.5153218e-05
-5.4032374e-05
7.656893e-05
-6.4727025e-05
7.8238516e-05
-7.7506253e-05
8.0294209e-05
-9.2765059e-05
8.2790963e-05
-0.00011094074
8.5587617e-05
-0.00013246145
8.8397704e-05
-0.00015770705
9.0914701e-05
-0.0001869672
9.2786589e-05
-0.00022031928
9.3567833e-05
-0.00025756827
9.2184674e-05
-0.00029772913
8.7932712e-05
-0.00033924619
7.9034279e-05
-0.00037973956
5.9601583e-05
-0.00041180891
2.7363167e-05
-0.00042605362
-1.0703497e-05
-0.00042380146
-5.7201137e-05
-0.00040779369
-0.00011380226
-0.00037158082
-0.0001844573
-0.00030595957
-0.00027356797
-0.00019682542
-0.00038958354
-2.1657274e-05
-0.00053593511
0.00024261407
-0.00070215504
0.00059150475
-0.00089818918
0.0010252128
-0.0011127151
0.0015394269
-0.0013622806
0.0021308527
-0.0016324445
0.0027845607
-0.0019370502
0.0034833245
-0.0022502488
0.0042468165
-0.0025808632
0.005056187
-0.0028879421
0.0057975198
-0.0031544741
0.0063407795
-0.0033506212
0.0066159652
-0.0033420508
0.0064190733
-0.0033526044
0.0058190754
-0.0030878845
0.0047940161
0.0018798936
7.1739362e-05
-5.2636399e-06
7.1924868e-05
-6.3194369e-06
7.2146153e-05
-7.573459e-06
7.2409796e-05
-9.076717e-06
7.2724966e-05
-1.0879296e-05
7.310035e-05
-1.3040284e-05
7.3549189e-05
-1.5631887e-05
7.40841e-05
-1.8739955e-05
7.4720465e-05
-2.2467655e-05
7.5475034e-05
-2.6938651e-05
7.6362611e-05
-3.2300475e-05
7.7394829e-05
-3.8728342e-05
7.8581057e-05
-4.6428601e-05
7.9935386e-05
-5.564614e-05
8.1493233e-05
-6.6673877e-05
8.3332609e-05
-7.9862195e-05
8.5559864e-05
-9.5620835e-05
8.8206212e-05
-0.00011438926
9.1156295e-05
-0.00013659683
9.4182043e-05
-0.0001626383
9.6988175e-05
-0.00019282205
9.9199115e-05
-0.00022723216
0.00010035895
-0.00026566801
9.9383654e-05
-0.0003070921
9.5633686e-05
-0.00034991533
8.703367e-05
-0.00039142627
6.7834722e-05
-0.00042359376
3.6351802e-05
-0.00043710853
-7.0660224e-07
-0.00043375204
-4.6199165e-05
-0.00041586539
-0.00010181593
-0.00037628656
-0.00017141248
-0.00030543518
-0.00025933985
-0.00018882756
-0.000373935
-3.3741955e-06
-0.00051860553
0.00027461022
-0.00068322848
0.00064075637
-0.00087803721
0.001095885
-0.0010923208
0.0016371475
-0.0013423712
0.0022622928
-0.0016132754
0.0029558156
-0.0019196026
0.0036999101
-0.0022359243
0.0045127252
-0.0025710316
0.0053729928
-0.0028829776
0.0061646637
-0.003155133
0.0067525322
-0.0033567224
0.0070588889
-0.0033554648
0.0068672801
-0.0033645617
0.0062461831
-0.0031005039
0.005176426
0.0020617374
7.5693662e-05
-5.4226545e-06
7.5890383e-05
-6.5101943e-06
7.6124801e-05
-7.8023789e-06
7.6404121e-05
-9.3513632e-06
7.6736828e-05
-1.1208838e-05
7.7132897e-05
-1.3435836e-05
7.7604557e-05
-1.6106821e-05
7.8165246e-05
-1.9309957e-05
7.8830451e-05
-2.3152023e-05
7.9618716e-05
-2.7760479e-05
8.0548904e-05
-3.3287539e-05
8.1634924e-05
-3.9914051e-05
8.2895692e-05
-4.785516e-05
8.4361293e-05
-5.7364747e-05
8.6072454e-05
-6.8748752e-05
8.8093948e-05
-8.2373667e-05
9.0496915e-05
-9.8660724e-05
9.3290959e-05
-0.00011805475
9.6391305e-05
-0.00014099096
9.9619039e-05
-0.00016787751
0.00010268529
-0.00019903527
0.0001052116
-0.00023456166
0.00010672618
-0.00027424973
0.00010615159
-0.00031702621
0.00010289167
-0.00036126473
9.452895e-05
-0.00040384787
7.551463e-05
-0.00043611941
4.4765048e-05
-0.00044894964
8.7057959e-06
-0.00044460628
-3.5784056e-05
-0.00042500729
-9.041409e-05
-0.00038224967
-0.00015894842
-0.00030638737
-0.0002456955
-0.00018256024
-0.00035887726
1.2879664e-05
-0.00050189857
0.00030422993
-0.00066493916
0.00068722806
-0.00085851912
0.001163346
-0.0010725129
0.0017312944
-0.0013230084
0.0023899519
-0.0015946013
0.0031231742
-0.0019025411
0.0039125576
-0.0022218664
0.0047749722
-0.0025613296
0.0056868626
-0.0028780092
0.0065298733
-0.0031557315
0.0071636152
-0.0033627351
0.0075028082
-0.0033686309
0.0073186471
-0.0033759343
0.0066777812
-0.0031114893
0.0055634087
0.0022472912
7.9315544e-05
-5.5910622e-06
7.9523138e-05
-6.7122501e-06
7.9769903e-05
-8.0447264e-06
8.0063903e-05
-9.6422856e-06
8.041306e-05
-1.1557667e-05
8.0828284e-05
-1.3854538e-05
8.1321251e-05
-1.6609263e-05
8.1906465e-05
-1.9913017e-05
8.2601864e-05
-2.3876282e-05
8.3428071e-05
-2.8630727e-05
8.4406411e-05
-3.4333363e-05
8.5556735e-05
-4.1172538e-05
8.6907221e-05
-4.9371212e-05
8.849175e-05
-5.9193742e-05
9.0359935e-05
-7.09588e-05
9.2559857e-05
-8.5047445e-05
9.5121739e-05
-0.00010188969
9.8056185e-05
-0.00012193856
0.00010130573
-0.00014564052
0.00010471768
-0.00017341562
0.00010801289
-0.00020559254
0.00011082494
-0.00024228808
0.00011266538
-0.00028328461
0.00011249626
-0.00032749864
0.00010969073
-0.00037324893
0.000101506
-0.00041691474
8.2668583e-05
-0.00044929631
5.2625354e-05
-0.0004615177
1.7546823e-05
-0.00045628154
-2.5951081e-05
-0.00043510565
-7.9596039e-05
-0.00038935101
-0.00014706853
-0.00030870049
-0.00023264177
-0.00017790972
-0.00034442092
2.7225689e-05
-0.00048582365
0.00033162088
-0.00064729968
0.00073111632
-0.00083964681
0.0012278431
-0.0010533067
0.0018221303
-0.0013041907
0.0025140287
-0.0015764215
0.0032867637
-0.0018858841
0.004121356
-0.0022080793
0.0050335407
-0.0025517485
0.0059975955
-0.002873021
0.0068928002
-0.003156234
0.0075735899
-0.0033686088
0.0079473369
-0.0033814792
0.0077728647
-0.0033866472
0.007113557
-0.0031207451
0.0059544827
0.0024361458
8.2620661e-05
-5.7683888e-06
8.2838939e-05
-6.9255125e-06
8.3098013e-05
-8.3005768e-06
8.3406028e-05
-9.9490064e-06
8.3771617e-05
-1.192587e-05
8.420621e-05
-1.4296616e-05
8.4722414e-05
-1.7139685e-05
8.5336889e-05