/*--------------------------------*- C++ -*----------------------------------*\
  =========                 |
  \\      /  F ield         | OpenFOAM: The Open Source CFD Toolbox
   \\    /   O peration     | Website:  https://openfoam.org
    \\  /    A nd           | Version:  8
     \\/     M anipulation  |
\*---------------------------------------------------------------------------*/
FoamFile
{
    version     2.0;
    format      ascii;
    class       volScalarField;
    location    "0.229992";
    object      nut;
}
// * * * * * * * * * * * * * * * * * * * * * * * * * * * * * * * * * * * * * //

dimensions      [0 2 -1 0 0 0 0];

internalField   nonuniform List<scalar> 
20000
(
0.0011549503
0.0026907014
0.0034097617
0.0034034244
0.0025774342
0.00069813049
5.5005234e-07
5.3699733e-09
4.825572e-09
4.789958e-09
4.6449191e-09
4.6698144e-09
4.5861982e-09
4.6216082e-09
4.6116618e-09
4.6480443e-09
4.6659295e-09
4.7093242e-09
4.7510429e-09
4.8125834e-09
4.8818858e-09
4.9701116e-09
5.0715165e-09
5.1920109e-09
5.330889e-09
5.4992148e-09
5.6872283e-09
5.8911819e-09
6.1020071e-09
6.3128874e-09
6.5143671e-09
6.6982963e-09
6.8591312e-09
6.9946991e-09
7.1055699e-09
7.1940104e-09
7.2630298e-09
7.3159268e-09
7.354857e-09
7.3842274e-09
7.409697e-09
7.429383e-09
7.4407206e-09
7.4454252e-09
7.4465919e-09
7.4396352e-09
7.4296975e-09
7.4065093e-09
7.4028792e-09
7.3160552e-09
0.0011497034
0.0026435499
0.0033125546
0.0032534195
0.0023430742
0.00054763482
1.4870145e-07
5.2492475e-09
4.7622455e-09
4.7314458e-09
4.5907488e-09
4.6173591e-09
4.5353266e-09
4.5715855e-09
4.5628487e-09
4.6001933e-09
4.6195197e-09
4.6644635e-09
4.7082189e-09
4.7718513e-09
4.8434785e-09
4.9340462e-09
5.0384798e-09
5.1635568e-09
5.3105557e-09
5.4875037e-09
5.6842155e-09
5.8918427e-09
6.1077767e-09
6.3218065e-09
6.5244678e-09
6.7082391e-09
6.8680302e-09
7.0020973e-09
7.1114154e-09
7.1985285e-09
7.2665383e-09
7.3185995e-09
7.356799e-09
7.386007e-09
7.4122005e-09
7.4314351e-09
7.4419591e-09
7.4462158e-09
7.4472269e-09
7.4399607e-09
7.4295846e-09
7.4063417e-09
7.4008477e-09
7.31419e-09
0.0011414401
0.0025914502
0.003209829
0.0030990456
0.0021055245
0.00041323778
4.7841315e-08
5.1545407e-09
4.70261e-09
4.6759137e-09
4.5399385e-09
4.5680252e-09
4.4876745e-09
4.5245352e-09
4.5171652e-09
4.5554101e-09
4.57625e-09
4.6227708e-09
4.6684421e-09
4.7339073e-09
4.8075781e-09
4.900569e-09
5.008987e-09
5.1410996e-09
5.3006189e-09
5.4852736e-09
5.6845661e-09
5.8977567e-09
6.1177052e-09
6.3342332e-09
6.5376205e-09
6.720631e-09
6.8788021e-09
7.010864e-09
7.1182065e-09
7.2036837e-09
7.2704954e-09
7.3215909e-09
7.3590249e-09
7.3882811e-09
7.4153154e-09
7.4340362e-09
7.4438938e-09
7.4475182e-09
7.4481916e-09
7.4403728e-09
7.4288316e-09
7.4060978e-09
7.3805854e-09
7.3147955e-09
0.0011332927
0.0025400847
0.0031073178
0.0029497785
0.001870102
0.00029909427
2.02108e-08
5.0733532e-09
4.6462469e-09
4.6235355e-09
4.4920716e-09
4.5216786e-09
4.4430458e-09
4.4806226e-09
4.4746878e-09
4.5139381e-09
4.5363986e-09
4.5844811e-09
4.6320155e-09
4.6992637e-09
4.7753046e-09
4.8718694e-09
4.9867859e-09
5.1303128e-09
5.2971397e-09
5.4847483e-09
5.6900607e-09
5.9092628e-09
6.1334424e-09
6.3519758e-09
6.5553063e-09
6.7368021e-09
6.8926316e-09
7.0220633e-09
7.1268914e-09
7.2102917e-09
7.2755053e-09
7.3252723e-09
7.3617499e-09
7.3911409e-09
7.4182142e-09
7.4358774e-09
7.4452155e-09
7.4486049e-09
7.4489167e-09
7.4409541e-09
7.4286145e-09
7.4053608e-09
7.3673752e-09
7.3156403e-09
0.0011250878
0.0024894455
0.0030050474
0.0027949088
0.0016391312
0.00020016755
1.1196282e-08
5.001481e-09
4.5939275e-09
4.5750447e-09
4.4479734e-09
4.4791104e-09
4.4021756e-09
4.4405095e-09
4.4360969e-09
4.4764004e-09
4.5004427e-09
4.5499357e-09
4.5991819e-09
4.6684905e-09
4.7479166e-09
4.8502679e-09
4.9756716e-09
5.1262106e-09
5.2968384e-09
5.4898128e-09
5.7018149e-09
5.9267023e-09
6.1543867e-09
6.3741863e-09
6.5767261e-09
6.7559719e-09
6.9087935e-09
7.0350353e-09
7.136897e-09
7.2178732e-09
7.2812062e-09
7.3294036e-09
7.3648775e-09
7.3945408e-09
7.4210847e-09
7.4376403e-09
7.4464623e-09
7.4496274e-09
7.4496849e-09
7.4419232e-09
7.4276775e-09
7.4036674e-09
7.3612421e-09
7.3162045e-09
0.001116828
0.0024403997
0.0029093251
0.0026446886
0.0014174909
0.00011509145
7.7621084e-09
4.936006e-09
4.5458893e-09
4.5306574e-09
4.4078273e-09
4.4405145e-09
4.3653037e-09
4.4044933e-09
4.4016948e-09
4.4430691e-09
4.4686293e-09
4.5194151e-09
4.5706223e-09
4.6431132e-09
4.7279434e-09
4.8397811e-09
4.9715406e-09
5.1257123e-09
5.3011809e-09
5.5012551e-09
5.7200161e-09
5.9501967e-09
6.1808651e-09
6.4011607e-09
6.6020781e-09
6.7783006e-09
6.9274318e-09
7.049917e-09
7.1483549e-09
7.2265456e-09
7.2876862e-09
7.33405e-09
7.3684647e-09
7.3984152e-09
7.423859e-09
7.4393578e-09
7.4474841e-09
7.4504691e-09
7.4500476e-09
7.4423212e-09
7.4267384e-09
7.4018517e-09
7.3560439e-09
7.3162202e-09
0.0011083268
0.0023918033
0.002813921
0.0024952451
0.0012079817
5.1230637e-05
6.2784762e-09
4.8767247e-09
4.5024202e-09
4.4906847e-09
4.3719884e-09
4.4062715e-09
4.3328057e-09
4.3728911e-09
4.3717063e-09
4.4141119e-09
4.4412632e-09
4.4937133e-09
4.5478972e-09
4.6254679e-09
4.7189256e-09
4.8358163e-09
4.9709368e-09
5.1293146e-09
5.3122764e-09
5.5195242e-09
5.7448651e-09
5.9798013e-09
6.2126776e-09
6.432607e-09
6.6310523e-09
6.80348e-09
6.9482657e-09
7.0664641e-09
7.1610642e-09
7.236148e-09
7.294824e-09
7.3391515e-09
7.372485e-09
7.4026173e-09
7.4266805e-09
7.4410454e-09
7.4484307e-09
7.4511796e-09
7.4502397e-09
7.4423479e-09
7.4257264e-09
7.3974692e-09
7.3514299e-09
7.3161061e-09
0.0010996881
0.0023435309
0.002719531
0.0023446936
0.0010133379
1.6875692e-05
5.5797784e-09
4.8248565e-09
4.4634818e-09
4.4552198e-09
4.3406246e-09
4.376605e-09
4.3048762e-09
4.3458302e-09
4.346207e-09
4.3896931e-09
4.4189761e-09
4.4743074e-09
4.534079e-09
4.6182494e-09
4.7155761e-09
4.8352567e-09
4.9742199e-09
5.1397853e-09
5.3300957e-09
5.54475e-09
5.7763877e-09
6.0154668e-09
6.2497491e-09
6.4684028e-09
6.6634965e-09
6.8313591e-09
6.9711646e-09
7.0845736e-09
7.1749494e-09
7.2466246e-09
7.3025778e-09
7.3447045e-09
7.3769448e-09
7.4070659e-09
7.4295341e-09
7.442708e-09
7.4493695e-09
7.4518157e-09
7.4502995e-09
7.4422016e-09
7.4244865e-09
7.3914931e-09
7.348104e-09
7.3159548e-09
0.0010908373
0.0022955511
0.002626089
0.0021932693
0.00083612687
4.5246042e-06
5.2284505e-09
4.7796248e-09
4.4294464e-09
4.4245969e-09
4.3139891e-09
4.3516384e-09
4.2815888e-09
4.3234073e-09
4.3255517e-09
4.3706078e-09
4.4031773e-09
4.4638397e-09
4.528582e-09
4.6156428e-09
4.7152307e-09
4.838523e-09
4.9842353e-09
5.1568655e-09
5.3550547e-09
5.5770344e-09
5.8145747e-09
6.0570846e-09
6.2918576e-09
6.5082764e-09
6.6991301e-09
6.8616757e-09
6.9959007e-09
7.104059e-09
7.1898641e-09
7.2578603e-09
7.3108603e-09
7.3506795e-09
7.3818517e-09
7.4116659e-09
7.4324134e-09
7.444387e-09
7.4503315e-09
7.4524255e-09
7.4502626e-09
7.4419332e-09
7.4226606e-09
7.3848475e-09
7.3450534e-09
7.3158869e-09
0.0010818197
0.002248292
0.002533522
0.0020430092
0.00067741737
1.1418452e-06
5.0390059e-09
4.7397606e-09
4.4004953e-09
4.3989074e-09
4.2919427e-09
4.3311625e-09
4.2630158e-09
4.3060397e-09
4.3107992e-09
4.3592529e-09
4.3962423e-09
4.4596687e-09
4.5270599e-09
4.6155462e-09
4.7189606e-09
4.8482561e-09
5.0006678e-09
5.1810493e-09
5.3871528e-09
5.6163564e-09
5.8593103e-09
6.1044513e-09
6.3387489e-09
6.5519474e-09
6.7376773e-09
6.8941812e-09
7.0222648e-09
7.1247535e-09
7.20568e-09
7.2697556e-09
7.3195963e-09
7.3570419e-09
7.3871885e-09
7.4163184e-09
7.4353298e-09
7.4461058e-09
7.4512903e-09
7.4529629e-09
7.4501284e-09
7.4412039e-09
7.4200067e-09
7.3784857e-09
7.3430257e-09
7.3161113e-09
0.0010728535
0.0022023827
0.0024417828
0.0018884868
0.00053802218
3.0976763e-07
4.928068e-09
4.7060865e-09
4.3765945e-09
4.3782552e-09
4.2744481e-09
4.3152695e-09
4.2500248e-09
4.295611e-09
4.3038324e-09
4.3544905e-09
4.3935895e-09
4.4585779e-09
4.5273123e-09
4.6199239e-09
4.7287686e-09
4.8641923e-09
5.0240323e-09
5.2123244e-09
5.4264811e-09
5.6626739e-09
5.9104461e-09
6.1573225e-09
6.3901115e-09
6.5990823e-09
6.7788187e-09
6.9285918e-09
7.050019e-09
7.1464677e-09
7.2222507e-09
7.2821958e-09
7.3287007e-09
7.363734e-09
7.3928829e-09
7.4209436e-09
7.4383265e-09
7.4478941e-09
7.4522691e-09
7.4534597e-09
7.4499707e-09
7.4400939e-09
7.4164238e-09
7.3726615e-09
7.3409929e-09
7.316427e-09
0.0010640878
0.0021586147
0.0023534255
0.0017303339
0.00042066502
1.0024871e-07
4.8574649e-09
4.677985e-09
4.3578756e-09
4.3624255e-09
4.2627932e-09
4.3062387e-09
4.2441522e-09
4.290977e-09
4.301064e-09
4.3528932e-09
4.3932195e-09
4.4598286e-09
4.5328507e-09
4.629963e-09
4.7445675e-09
4.8867644e-09
5.0542678e-09
5.2507725e-09
5.4729743e-09
5.7158408e-09
5.9677376e-09
6.2153767e-09
6.445584e-09
6.6493188e-09
6.8222204e-09
6.9646194e-09
7.0789269e-09
7.1690162e-09
7.2394332e-09
7.2950694e-09
7.3380959e-09
7.370713e-09
7.3989733e-09
7.425474e-09
7.4413299e-09
7.4497596e-09
7.453292e-09
7.4540607e-09
7.4497478e-09
7.4387697e-09
7.4119969e-09
7.367599e-09
7.3391176e-09
7.3161445e-09
0.001055582
0.0021165182
0.0022772115
0.0015681963
0.00031937434
4.0058869e-08
4.8181184e-09
4.6545443e-09
4.3486728e-09
4.3515453e-09
4.2561378e-09
4.2960615e-09
4.2417591e-09
4.2891017e-09
4.3004347e-09
4.3528849e-09
4.3961448e-09
4.4663605e-09
4.5435636e-09
4.6458097e-09
4.766676e-09
4.9159445e-09
5.0914935e-09
5.296395e-09
5.5265903e-09
5.7757077e-09
6.0309206e-09
6.2782672e-09
6.5047761e-09
6.7022695e-09
6.8675292e-09
7.0019611e-09
7.1087416e-09
7.1922063e-09
7.2570795e-09
7.3082614e-09
7.3477023e-09
7.3779296e-09
7.4052503e-09
7.4299256e-09
7.4443755e-09
7.4516984e-09
7.4544385e-09
7.454823e-09
7.4495072e-09
7.4372668e-09
7.4068482e-09
7.3634893e-09
7.3374633e-09
7.3157576e-09
0.0010470543
0.0020736828
0.0021944279
0.0014023374
0.00023009926
2.0034623e-08
4.7997917e-09
4.6378957e-09
4.3425108e-09
4.343232e-09
4.2470623e-09
4.2853441e-09
4.2409343e-09
4.2886668e-09
4.3024363e-09
4.3574965e-09
4.4040995e-09
4.4778725e-09
4.55995e-09
4.6676046e-09
4.7950631e-09
4.951786e-09
5.1356715e-09
5.3491286e-09
5.587187e-09
5.8420184e-09
6.0996431e-09
6.3455777e-09
6.5672576e-09
6.7575266e-09
6.9143846e-09
7.0403147e-09
7.1392212e-09
7.2158515e-09
7.2750467e-09
7.321663e-09
7.3574506e-09
7.385329e-09
7.4115862e-09
7.4342426e-09
7.4473865e-09
7.4536835e-09
7.4557626e-09
7.4556756e-09
7.4493344e-09
7.4355705e-09
7.4011353e-09
7.3603068e-09
7.3360203e-09
7.3154439e-09
0.0010388802
0.0020317758
0.0021155615
0.0012384474
0.00015206681
1.2393704e-08
4.7896257e-09
4.6280453e-09
4.3335921e-09
4.3347608e-09
4.2370113e-09
4.2769073e-09
4.2424732e-09
4.2924186e-09
4.3091519e-09
4.366686e-09
4.4170169e-09
4.4948e-09
4.5819287e-09
4.6953574e-09
4.8297756e-09
4.9942949e-09
5.1868208e-09
5.4089456e-09
5.6546427e-09
5.9145361e-09
6.1735566e-09
6.4168869e-09
6.6325897e-09
6.8146732e-09
6.9624184e-09
7.079374e-09
7.1701217e-09
7.2397641e-09
7.2931918e-09
7.3351674e-09
7.3672755e-09
7.3928599e-09
7.4179382e-09
7.4384529e-09
7.4501574e-09
7.4555994e-09
7.4573041e-09
7.4564618e-09
7.4491872e-09
7.4336341e-09
7.395424e-09
7.3574586e-09
7.3346162e-09
7.3150737e-09
0.0010308499
0.0019899513
0.002036001
0.0010866492
8.6954654e-05
9.0822745e-09
4.7798743e-09
4.6187246e-09
4.3288852e-09
4.3285193e-09
4.2339697e-09
4.2746729e-09
4.2484431e-09
4.3006979e-09
4.3205715e-09
4.3808631e-09
4.4350752e-09
4.5170173e-09
4.6095288e-09
4.7290403e-09
4.870761e-09
5.0434388e-09
5.2448735e-09
5.4757276e-09
5.7287343e-09
5.9929246e-09
6.2522285e-09
6.4917193e-09
6.7003001e-09
6.8732784e-09
7.0112632e-09
7.1188421e-09
7.2012116e-09
7.2637668e-09
7.3113797e-09
7.3486774e-09
7.3771247e-09
7.400487e-09
7.4242587e-09
7.4425332e-09
7.4527347e-09
7.457433e-09
7.4588917e-09
7.4571233e-09
7.4489872e-09
7.4313633e-09
7.3897514e-09
7.3546277e-09
7.3332408e-09
7.3147216e-09
0.0010224452
0.0019452051
0.001955189
0.00094529476
4.068978e-05
7.5080584e-09
4.7812151e-09
4.6110963e-09
4.3348635e-09
4.3331902e-09
4.240055e-09
4.2812404e-09
4.2593958e-09
4.3137168e-09
4.3367445e-09
4.3998241e-09
4.458139e-09
4.544509e-09
4.642684e-09
4.7686253e-09
4.9180273e-09
5.0992341e-09
5.3098414e-09
5.5494208e-09
5.8092893e-09
6.076877e-09
6.3352408e-09
6.5696026e-09
6.7699118e-09
6.9329073e-09
7.0605549e-09
7.15843e-09
7.2322684e-09
7.2876874e-09
7.329477e-09
7.3621006e-09
7.3869556e-09
7.408191e-09
7.4304893e-09
7.4464877e-09
7.4551777e-09
7.4591753e-09
7.4604187e-09
7.4577065e-09
7.4486935e-09
7.4284483e-09
7.384112e-09
7.3517592e-09
7.3320006e-09
7.3144703e-09
0.0010136988
0.0018982172
0.0018721107
0.00081508717
1.5644172e-05
6.7001365e-09
4.776212e-09
4.6061037e-09
4.3403944e-09
4.3388723e-09
4.2515758e-09
4.2944845e-09
4.2748812e-09
4.3310683e-09
4.3574084e-09
4.4234965e-09
4.4861364e-09
4.5771737e-09
4.6813346e-09
4.8140575e-09
4.9715354e-09
5.16164e-09
5.3816511e-09
5.6298595e-09
5.8960199e-09
6.1659693e-09
6.4220879e-09
6.6499994e-09
6.8409106e-09
6.9931173e-09
7.1099449e-09
7.1978725e-09
7.2630929e-09
7.311372e-09
7.3473603e-09
7.3753533e-09
7.3967357e-09
7.4159626e-09
7.4365517e-09
7.4503101e-09
7.4575397e-09
7.4608249e-09
7.461849e-09
7.4583659e-09
7.448246e-09
7.4243607e-09
7.3787169e-09
7.3489623e-09
7.3308096e-09
7.314302e-09
0.0010045241
0.0018483789
0.0017854406
0.00069599027
5.2797895e-06
6.2536029e-09
4.7694879e-09
4.606546e-09
4.3485664e-09
4.3500117e-09
4.2661586e-09
4.3107642e-09
4.2943401e-09
4.3526334e-09
4.3824888e-09
4.4517453e-09
4.5189605e-09
4.6149519e-09
4.7254392e-09
4.8653447e-09
5.0313278e-09
5.2307175e-09
5.4603284e-09
5.7169661e-09
5.9886976e-09
6.2598224e-09
6.5122866e-09
6.7323754e-09
6.9127851e-09
7.0534832e-09
7.1591091e-09
7.2369263e-09
7.2935003e-09
7.3346804e-09
7.3649128e-09
7.3883522e-09
7.4064347e-09
7.4237963e-09
7.4423472e-09
7.4539807e-09
7.4598689e-09
7.4624162e-09
7.4631556e-09
7.4590223e-09
7.4475635e-09
7.418847e-09
7.3737149e-09
7.3462497e-09
7.3296603e-09
7.3143003e-09
0.00099472511
0.0017950842
0.0016920229
0.00058775663
1.7025491e-06
5.9961621e-09
4.7645887e-09
4.6099002e-09
4.3598459e-09
4.3638823e-09
4.2842572e-09
4.3309457e-09
4.3178166e-09
4.3783178e-09
4.411851e-09
4.484487e-09
4.5565321e-09
4.657777e-09
4.7749606e-09
4.9224763e-09
5.0974078e-09
5.3064557e-09
5.5457903e-09
5.8105292e-09
6.0869505e-09
6.3579341e-09
6.6052478e-09
6.8161328e-09
6.985014e-09
7.1136102e-09
7.2077593e-09
7.2753761e-09
7.323325e-09
7.3574925e-09
7.382037e-09
7.4010195e-09
7.4160152e-09
7.4316499e-09
7.4478028e-09
7.4574715e-09
7.4621892e-09
7.4640312e-09
7.4642931e-09
7.4593433e-09
7.4465636e-09
7.4121337e-09
7.3690641e-09
7.343724e-09
7.3285778e-09
7.3143908e-09
0.00098437075
0.0017385961
0.0015877357
0.00048845351
5.6502499e-07
5.8470131e-09
4.7640736e-09
4.6174921e-09
4.3749053e-09
4.3821753e-09
4.306171e-09
4.3548801e-09
4.3451626e-09
4.4079836e-09
4.4454035e-09
4.5216038e-09
4.5987899e-09
4.7056278e-09
4.8299313e-09
4.9855307e-09
5.1698942e-09
5.3889606e-09
5.6380738e-09
5.9104277e-09
6.1904802e-09
6.4598376e-09
6.7003956e-09
6.9006988e-09
7.0571437e-09
7.1731752e-09
7.2556411e-09
7.3130126e-09
7.3524017e-09
7.3796899e-09
7.3986527e-09
7.4132846e-09
7.4254254e-09
7.4393654e-09
7.4529485e-09
7.4607629e-09
7.4644358e-09
7.4658151e-09
7.4651609e-09
7.459601e-09
7.4450927e-09
7.4048802e-09
7.3645689e-09
7.3414182e-09
7.3275125e-09
7.3144821e-09
0.00097364622
0.0016803153
0.0014764423
0.00039831717
2.0397974e-07
5.7540595e-09
4.767237e-09
4.6285244e-09
4.3933205e-09
4.4035883e-09
4.3315347e-09
4.382401e-09
4.3762634e-09
4.4415351e-09
4.4830544e-09
4.5630389e-09
4.6456975e-09
4.7585135e-09
4.8903823e-09
5.0545782e-09
5.2488358e-09
5.4782542e-09
5.7370554e-09
6.0163839e-09
6.2988041e-09
6.5649064e-09
6.7970558e-09
6.9855024e-09
7.1288115e-09
7.2319252e-09
7.3025156e-09
7.3496168e-09
7.3805561e-09
7.4011449e-09
7.414699e-09
7.4251055e-09
7.4346029e-09
7.4468006e-09
7.4578047e-09
7.4639009e-09
7.4666209e-09
7.4676366e-09
7.4659324e-09
7.4597708e-09
7.4428379e-09
7.3974889e-09
7.3603116e-09
7.3394113e-09
7.326693e-09
7.3146463e-09
0.00096257672
0.0016203849
0.0013592507
0.00032056857
8.5188746e-08
5.6947824e-09
4.7738549e-09
4.6429509e-09
4.415179e-09
4.4284435e-09
4.3603246e-09
4.4134442e-09
4.4110239e-09
4.4788981e-09
4.524744e-09
4.6087824e-09
4.6972732e-09
4.8164986e-09
4.9564497e-09
5.1297774e-09
5.3344331e-09
5.5744617e-09
5.8427587e-09
6.1281908e-09
6.4115124e-09
6.6725584e-09
6.894627e-09
7.0701244e-09
7.1997997e-09
7.2896418e-09
7.3481181e-09
7.3849412e-09
7.4076216e-09
7.4217046e-09
7.4301048e-09
7.4364854e-09
7.4434879e-09
7.4538398e-09
7.4623676e-09
7.46693e-09
7.468789e-09
7.4693903e-09
7.4667132e-09
7.459822e-09
7.4393396e-09
7.3904041e-09
7.3564658e-09
7.3378039e-09
7.3262668e-09
7.3149295e-09
0.00095101863
0.0015580464
0.0012421731
0.00025201889
4.122994e-08
5.6550141e-09
4.7841328e-09
4.6604599e-09
4.4403582e-09
4.4564695e-09
4.392445e-09
4.4478827e-09
4.4493802e-09
4.5200081e-09
4.570445e-09
4.6588695e-09
4.753579e-09
4.8796896e-09
5.0282545e-09
5.2112687e-09
5.4267774e-09
5.6775906e-09
5.9549915e-09
6.2454413e-09
6.5279801e-09
6.7820752e-09
6.9925232e-09
7.1542814e-09
7.2699021e-09
7.3459897e-09
7.3921142e-09
7.41875e-09
7.4334794e-09
7.4412327e-09
7.4447651e-09
7.4474763e-09
7.4520451e-09
7.4604124e-09
7.4666254e-09
7.4698556e-09
7.4709983e-09
7.4709662e-09
7.4674686e-09
7.4593887e-09
7.4341572e-09
7.3840753e-09
7.3531409e-09
7.3364124e-09
7.3259415e-09
7.3153266e-09
0.00093941229
0.0014925918
0.0011309704
0.00018751461
2.3168301e-08
5.6275176e-09
4.7977199e-09
4.6811792e-09
4.4685639e-09
4.4876282e-09
4.4277959e-09
4.4856597e-09
4.491287e-09
4.564856e-09
4.620189e-09
4.713364e-09
4.8147328e-09
4.9482629e-09
5.1060169e-09
5.299302e-09
5.5261061e-09
5.7877758e-09
6.0736906e-09
6.3678081e-09
6.647647e-09
6.8928445e-09
7.0903797e-09
7.2378444e-09
7.3387084e-09
7.4003373e-09
7.4341175e-09
7.4509176e-09
7.4580916e-09
7.4597001e-09
7.4585359e-09
7.4581194e-09
7.460281e-09
7.4664852e-09
7.470588e-09
7.4726244e-09
7.4732928e-09
7.4723194e-09
7.4681248e-09
7.4584024e-09
7.4271704e-09
7.3787653e-09
7.350242e-09
7.3350831e-09
7.3257125e-09
7.3158213e-09
0.0009287264
0.0014337366
0.0010199116
0.00012877608
1.5106996e-08
5.6080264e-09
4.8144709e-09
4.7048874e-09
4.4996975e-09
4.5218262e-09
4.4663261e-09
4.526755e-09
4.5367483e-09
4.6134886e-09
4.6740619e-09
4.7724167e-09
4.8809084e-09
5.0224092e-09
5.1899407e-09
5.3940578e-09
5.6325266e-09
5.9049544e-09
6.1985376e-09
6.4946964e-09
6.7697545e-09
7.0042322e-09
7.1879499e-09
7.3204846e-09
7.405306e-09
7.4522223e-09
7.4738797e-09
7.4814223e-09
7.4814522e-09
7.4771765e-09
7.4713463e-09
7.4683222e-09
7.4682327e-09
7.4720607e-09
7.474305e-09
7.4753162e-09
7.4754822e-09
7.4734661e-09
7.4683771e-09
7.4568288e-09
7.4192127e-09
7.373948e-09
7.3477598e-09
7.3341346e-09
7.3255962e-09
7.31641e-09
0.00091827951
0.0013744373
0.00091120286
7.8953204e-05
1.1171741e-08
5.594366e-09
4.834337e-09
4.7314889e-09
4.5338098e-09
4.5590656e-09
4.5080512e-09
4.5712042e-09
4.5858438e-09
4.6660101e-09
4.7322022e-09
4.8361663e-09
4.9523207e-09
5.1023946e-09
5.2803236e-09
5.4958488e-09
5.7462966e-09
6.0292053e-09
6.3293267e-09
6.6256049e-09
6.8936918e-09
7.1158766e-09
7.2850882e-09
7.4012132e-09
7.4690983e-09
7.5012176e-09
7.5114753e-09
7.5106937e-09
7.5034957e-09
7.4935386e-09
7.4834327e-09
7.4777405e-09
7.4758709e-09
7.477172e-09
7.4778081e-09
7.4779875e-09
7.4774447e-09
7.4744762e-09
7.4684715e-09
7.4546122e-09
7.4108514e-09
7.369359e-09
7.3456754e-09
7.3337576e-09
7.325863e-09
7.3170958e-09
0.00090818169
0.0013147222
0.00080636577
4.2021339e-05
9.1130895e-09
5.5854308e-09
4.8570844e-09
4.7610092e-09
4.5708691e-09
4.5993717e-09
4.5530377e-09
4.6190961e-09
4.6386821e-09
4.7225774e-09
4.7947909e-09
4.9048585e-09
5.0292185e-09
5.1884776e-09
5.3774142e-09
5.6048746e-09
5.8674628e-09
6.1603292e-09
6.4655299e-09
6.7597634e-09
7.018762e-09
7.2274967e-09
7.3811472e-09
7.4790291e-09
7.5293811e-09
7.5473904e-09
7.5476685e-09
7.5381824e-09
7.5241584e-09
7.5088704e-09
7.4948366e-09
7.4865715e-09
7.4829051e-09
7.4818918e-09
7.4811874e-09
7.4805039e-09
7.4791831e-09
7.4754132e-09
7.4684648e-09
7.4514237e-09
7.4025512e-09
7.3649829e-09
7.3438706e-09
7.3335465e-09
7.3262574e-09
7.3178039e-09
0.00089849245
0.0012541177
0.00070690438
1.9545173e-05
7.9782902e-09
5.5816349e-09
4.8827955e-09
4.7935107e-09
4.6109168e-09
4.6428622e-09
4.6014202e-09
4.6705571e-09
4.6954599e-09
4.7833727e-09
4.8620537e-09
4.9787278e-09
5.1118922e-09
5.2809919e-09
5.4815763e-09
5.7214885e-09
5.9962475e-09
6.2982691e-09
6.6067386e-09
6.8965808e-09
7.1445538e-09
7.3389393e-09
7.4749047e-09
7.5531114e-09
7.5859756e-09
7.5917215e-09
7.5817259e-09
7.5639807e-09
7.5434298e-09
7.5231894e-09
7.5055889e-09
7.4949115e-09
7.4892054e-09
7.4862719e-09
7.4843768e-09
7.4828617e-09
7.4807055e-09
7.476298e-09
7.4684171e-09
7.4468034e-09
7.3948164e-09
7.3609593e-09
7.3423104e-09
7.3333625e-09
7.326734e-09
7.3185426e-09
0.00088959742
0.0011929424
0.00061386175
8.2533398e-06
7.3260456e-09
5.5849524e-09
4.9116057e-09
4.8293353e-09
4.6539435e-09
4.6896637e-09
4.6533447e-09
4.7257913e-09
4.7563451e-09
4.8486206e-09
4.9342512e-09
5.0580617e-09
5.2006449e-09
5.3802322e-09
5.5931046e-09
5.8458535e-09
6.1326096e-09
6.4425862e-09
6.7522106e-09
7.0352688e-09
7.270672e-09
7.4493941e-09
7.5651205e-09
7.6228124e-09
7.6397504e-09
7.6337641e-09
7.61366e-09
7.5879904e-09
7.5613199e-09
7.536521e-09
7.5156679e-09
7.5026155e-09
7.4949089e-09
7.4903214e-09
7.4873883e-09
7.4850405e-09
7.4820362e-09
7.4770155e-09
7.4676634e-09
7.4403544e-09
7.3881522e-09
7.3574552e-09
7.3409757e-09
7.3332325e-09
7.3272424e-09
7.3193434e-09
0.00088172863
0.0011341914
0.00052784898
3.3375457e-06
6.9391376e-09
5.5935824e-09
4.9436027e-09
4.86797e-09
4.7005807e-09
4.7398775e-09
4.7090042e-09
4.7849769e-09
4.8215706e-09
4.9185884e-09
5.0116232e-09
5.143181e-09
5.2958187e-09
5.4866174e-09
5.7123985e-09
5.9783422e-09
6.276628e-09
6.5930328e-09
6.9013712e-09
7.1753607e-09
7.3969681e-09
7.5574425e-09
7.6508591e-09
7.6882555e-09
7.6913132e-09
7.6731113e-09
7.6433709e-09
7.6102447e-09
7.5778388e-09
7.5488376e-09
7.5250607e-09
7.5096758e-09
7.5000752e-09
7.4940553e-09
7.4902077e-09
7.4870454e-09
7.4832127e-09
7.4773048e-09
7.4661821e-09
7.4322349e-09
7.3826925e-09
7.354524e-09
7.3398762e-09
7.3334123e-09
7.3279191e-09
7.3202169e-09
0.00087403191
0.0010730493
0.00044888776
1.3602149e-06
6.7039708e-09
5.6057741e-09
4.9788524e-09
4.9100656e-09
4.7506253e-09
4.7937459e-09
4.7685994e-09
4.848337e-09
4.8913782e-09
4.9935159e-09
5.0945025e-09
5.2344213e-09
5.3977786e-09
5.6004926e-09
5.8397697e-09
6.1190306e-09
6.428043e-09
6.7488971e-09
7.0533888e-09
7.3162961e-09
7.5227183e-09
7.661511e-09
7.7313673e-09
7.7506218e-09
7.7398758e-09
7.7097735e-09
7.6708798e-09
7.6307464e-09
7.59301e-09
7.560139e-09
7.5337182e-09
7.5161072e-09
7.5047732e-09
7.4974892e-09
7.4928273e-09
7.4888793e-09
7.4843095e-09
7.4774423e-09
7.4639133e-09
7.4235115e-09
7.377772e-09
7.3522252e-09
7.339195e-09
7.3336925e-09
7.3287568e-09
7.321201e-09
0.00086621739
0.0010076247
0.00037729822
5.8225954e-07
6.5589524e-09
5.6219303e-09
5.0175191e-09
4.9557171e-09
4.8043079e-09
4.851475e-09
4.8323362e-09
4.9160844e-09
4.9660286e-09
5.0736853e-09
5.183207e-09
5.332147e-09
5.5069527e-09
5.7223361e-09
5.975671e-09
6.2681918e-09
6.5867263e-09
6.9097049e-09
7.2077457e-09
7.4578771e-09
7.6463423e-09
7.7605895e-09
7.8069659e-09
7.8101703e-09
7.7851695e-09
7.7437034e-09
7.6961987e-09
7.6495311e-09
7.6068597e-09
7.5704447e-09
7.5415837e-09
7.5219465e-09
7.5090491e-09
7.5006441e-09
7.4952344e-09
7.4905354e-09
7.4853905e-09
7.47749e-09
7.4608234e-09
7.4144749e-09
7.373269e-09
7.3504088e-09
7.3388846e-09
7.3339873e-09
7.3295833e-09
7.3223476e-09
0.00085821942
0.00093961036
0.00031308456
2.7001609e-07
6.469994e-09
5.642172e-09
5.0598266e-09
5.0050653e-09
4.8618236e-09
4.9132657e-09
4.9004271e-09
4.9884752e-09
5.0457623e-09
5.1594497e-09
5.2780972e-09
5.4367748e-09
5.6237592e-09
5.8525557e-09
6.1203509e-09
6.4257176e-09
6.7520998e-09
7.0745729e-09
7.3637231e-09
7.5995246e-09
7.7658968e-09
7.8536733e-09
7.8788606e-09
7.8661399e-09
7.8271576e-09
7.7749294e-09
7.7193694e-09
7.6666394e-09
7.6194283e-09
7.579781e-09
7.5486707e-09
7.5272032e-09
7.5129339e-09
7.5035438e-09
7.4974224e-09
7.4919991e-09
7.486389e-09
7.4775044e-09
7.4566422e-09
7.4057385e-09
7.3690987e-09
7.3488501e-09
7.3387696e-09
7.3344539e-09
7.330284e-09
7.3236462e-09
0.00084989484
0.00086872378
0.00025581064
1.3814148e-07
6.4162042e-09
5.6663017e-09
5.1057965e-09
5.0581987e-09
4.9233763e-09
4.9792796e-09
4.9731127e-09
5.0657498e-09
5.1309956e-09
5.2511234e-09
5.3795662e-09
5.5487502e-09
5.7487287e-09
5.9917004e-09
6.2742353e-09
6.5916816e-09
6.9237945e-09
7.2429712e-09
7.5209806e-09
7.7397664e-09
7.8801578e-09
7.9408991e-09
7.9474757e-09
7.9181631e-09
7.8658365e-09
7.8034925e-09
7.7404462e-09
7.6821276e-09
7.6307642e-09
7.5881826e-09
7.5550106e-09
7.5319118e-09
7.5164508e-09
7.5061907e-09
7.4993974e-09
7.4932744e-09
7.4870369e-09
7.4769379e-09
7.450822e-09
7.3980807e-09
7.3653035e-09
7.3474174e-09
7.3387423e-09
7.3350393e-09
7.3309038e-09
7.32505e-09
0.00084075935
0.00079550143
0.00020520798
7.8788609e-08
6.3838643e-09
5.6945459e-09
5.1556364e-09
5.1153257e-09
4.9891804e-09
5.0497334e-09
5.0506624e-09
5.1482166e-09
5.2218594e-09
5.3490681e-09
5.4880642e-09
5.6685785e-09
5.8823676e-09
6.1401769e-09
6.4374152e-09
6.7656504e-09
7.1009409e-09
7.4140229e-09
7.6788999e-09
7.8764444e-09
7.9878465e-09
8.023487e-09
8.0119594e-09
7.9662304e-09
7.9012402e-09
7.8294563e-09
7.7594998e-09
7.6960645e-09
7.6409261e-09
7.5956907e-09
7.5606451e-09
7.5361055e-09
7.5196209e-09
7.5085905e-09
7.5011775e-09
7.4944099e-09
7.4873468e-09
7.475553e-09
7.4429384e-09
7.3917901e-09
7.362023e-09
7.3461413e-09
7.3387443e-09
7.3356945e-09
7.3315475e-09
7.3264929e-09
0.00083133954
0.00071799464
0.0001613555
4.9853127e-08
6.3663477e-09
5.7270938e-09
5.2095038e-09
5.1769359e-09
5.0591917e-09
5.1249257e-09
5.1333684e-09
5.236249e-09
5.3187884e-09
5.4537455e-09
5.6040902e-09
5.7968348e-09
6.0253242e-09
6.2985494e-09
6.6101748e-09
6.9474128e-09
7.2830405e-09
7.5872513e-09
7.8366083e-09
8.0077389e-09
8.0885431e-09
8.1024136e-09
8.0717428e-09
8.0103409e-09
7.9334414e-09
7.8529061e-09
7.7766159e-09
7.7085261e-09
7.6499667e-09
7.6023361e-09
7.5656093e-09
7.5398192e-09
7.522462e-09
7.5107484e-09
7.5027812e-09
7.4954668e-09
7.4874738e-09
7.473245e-09
7.4337607e-09
7.3862764e-09
7.3593983e-09
7.3454081e-09
7.3390156e-09
7.3363473e-09
7.3322715e-09
7.3279556e-09
0.00082307736
0.00065386885
0.00012517598
3.4520248e-08
6.3599997e-09
5.7638836e-09
5.2676951e-09
5.2425912e-09
5.134337e-09
5.2051119e-09
5.2216116e-09
5.3301628e-09
5.4221912e-09
5.565812e-09
5.7282163e-09
5.9341709e-09
6.1781287e-09
6.4671553e-09
6.7922312e-09
7.1362139e-09
7.4690796e-09
7.7618919e-09
7.9916433e-09
8.1321867e-09
8.1834046e-09
8.1766584e-09
8.1268454e-09
8.0505389e-09
7.9625269e-09
7.8739418e-09
7.7918907e-09
7.7195851e-09
7.6579209e-09
7.6081312e-09
7.5699293e-09
7.5430833e-09
7.5249912e-09
7.5126701e-09
7.5042128e-09
7.4964869e-09
7.4875172e-09
7.4699633e-09
7.4242756e-09
7.3812631e-09
7.3573055e-09
7.3450844e-09
7.3394682e-09
7.3370337e-09
7.333092e-09
7.3294497e-09
0.00081600234
0.0006040082
9.4446418e-05
2.558451e-08
6.3623618e-09
5.805356e-09
5.3303998e-09
5.3131645e-09
5.2144663e-09
5.2906771e-09
5.3156784e-09
5.4303962e-09
5.5325958e-09
5.685716e-09
5.8611211e-09
6.0812708e-09
6.3415316e-09
6.6464073e-09
6.9836162e-09
7.3315363e-09
7.6585547e-09
7.9374415e-09
8.1417443e-09
8.2486711e-09
8.2739256e-09
8.2455258e-09
8.1772587e-09
8.0869249e-09
7.9886207e-09
7.8926848e-09
7.8054225e-09
7.7292958e-09
7.6647982e-09
7.6130782e-09
7.5736191e-09
7.545918e-09
7.5272258e-09
7.5143636e-09
7.5054595e-09
7.4974138e-09
7.4874889e-09
7.4655146e-09
7.4149565e-09
7.3766497e-09
7.3555401e-09
7.3449895e-09
7.3400491e-09
7.3378306e-09
7.3340057e-09
7.330969e-09
0.00080989125
0.00055987935
6.8855431e-05
2.0079972e-08
6.3726526e-09
5.8518218e-09
5.3979898e-09
5.3888291e-09
5.299863e-09
5.3818762e-09
5.4159896e-09
5.5374492e-09
5.6505695e-09
5.8141897e-09
6.0035572e-09
6.2388705e-09
6.516036e-09
6.836321e-09
7.1836541e-09
7.5323491e-09
7.850373e-09
8.1116963e-09
8.284928e-09
8.3579628e-09
8.3593014e-09
8.3088561e-09
8.2230405e-09
8.119612e-09
8.0118568e-09
7.9092583e-09
7.8172956e-09
7.7376937e-09
7.6706226e-09
7.6172279e-09
7.5767119e-09
7.548338e-09
7.5291844e-09
7.5158486e-09
7.5065189e-09
7.4978736e-09
7.4868391e-09
7.4594478e-09
7.4064093e-09
7.3723821e-09
7.3539635e-09
7.3449682e-09
7.34073e-09
7.3386374e-09
7.3350026e-09
7.3324971e-09
0.00080507372
0.00052280016
4.8538282e-05
1.6530311e-08
6.3900153e-09
5.903162e-09
5.4704827e-09
5.4696278e-09
5.3908966e-09
5.479145e-09
5.5230848e-09
5.6519656e-09
5.7768408e-09
5.9519797e-09
6.1563034e-09
6.4078202e-09
6.7022685e-09
7.0370992e-09
7.3920014e-09
7.7381112e-09
8.0440221e-09
8.2822312e-09
8.4197532e-09
8.4615026e-09
8.4388021e-09
8.3666835e-09
8.2643188e-09
8.1487684e-09
8.0323956e-09
7.9237817e-09
7.8275731e-09
7.7448236e-09
7.6755043e-09
7.6207446e-09
7.5793021e-09
7.5503675e-09
7.5308844e-09
7.5171573e-09
7.5074497e-09
7.4980914e-09
7.4854111e-09
7.4513986e-09
7.3991772e-09
7.3686555e-09
7.352585e-09
7.3449853e-09
7.3414706e-09
7.3395565e-09
7.3360694e-09
7.3340338e-09
0.0008017841
0.00049220091
3.304501e-05
1.414902e-08
6.4137101e-09
5.9595169e-09
5.5481206e-09
5.5560137e-09
5.4881823e-09
5.5831269e-09
5.6376261e-09
5.7747032e-09
5.912187e-09
6.0999671e-09
6.3202612e-09
6.5888233e-09
6.9005002e-09
7.248268e-09
7.6076024e-09
7.9476177e-09
8.2380813e-09
8.4459994e-09
8.5456845e-09
8.559666e-09
8.5117573e-09
8.419044e-09
8.3012321e-09
8.1745611e-09
8.0503832e-09
7.9363476e-09
7.8363171e-09
7.7508073e-09
7.6796956e-09
7.623884e-09
7.5815568e-09
7.5520673e-09
7.5323417e-09
7.518324e-09
7.5083461e-09
7.4981746e-09
7.4830091e-09
7.4418829e-09
7.3932132e-09
7.3655973e-09
7.3515384e-09
7.3452285e-09
7.3423305e-09
7.3405666e-09
7.3372064e-09
7.3355742e-09
0.00080016832
0.00046837174
2.1749742e-05
1.2503974e-08
6.4436712e-09
6.021321e-09
5.6316878e-09
5.6486717e-09
5.5924378e-09
5.6944956e-09
5.7604486e-09
5.9064285e-09
6.0574982e-09
6.2590094e-09
6.4963672e-09
6.7826964e-09
7.1111292e-09