/*--------------------------------*- C++ -*----------------------------------*\
  =========                 |
  \\      /  F ield         | OpenFOAM: The Open Source CFD Toolbox
   \\    /   O peration     | Website:  https://openfoam.org
    \\  /    A nd           | Version:  8
     \\/     M anipulation  |
\*---------------------------------------------------------------------------*/
FoamFile
{
    version     2.0;
    format      ascii;
    class       volScalarField;
    location    "0.229992";
    object      nuTilda;
}
// * * * * * * * * * * * * * * * * * * * * * * * * * * * * * * * * * * * * * //

dimensions      [0 2 -1 0 0 0 0];

internalField   nonuniform List<scalar> 
20000
(
0.0011569615
0.0026910727
0.0034099902
0.0034036477
0.0025778038
0.00070269277
3.3433732e-05
1.0434577e-05
1.0171476e-05
1.0139371e-05
1.0065832e-05
1.0066752e-05
1.001941e-05
1.0024473e-05
1.0011095e-05
1.0012741e-05
1.0007256e-05
1.0006349e-05
1.0004067e-05
1.0003284e-05
1.0002712e-05
1.0002661e-05
1.0002768e-05
1.000264e-05
1.0002416e-05
1.0002141e-05
1.0001881e-05
1.0001685e-05
1.0001572e-05
1.0001529e-05
1.0001544e-05
1.0001604e-05
1.0001575e-05
1.0001379e-05
1.0001204e-05
1.0001076e-05
1.000102e-05
1.0001006e-05
1.0000999e-05
1.0000916e-05
1.0000894e-05
1.0000903e-05
1.0000791e-05
1.0000733e-05
1.0000809e-05
1.0000692e-05
1.0000629e-05
1.0000951e-05
1.0001917e-05
1.0001904e-05
0.0011517612
0.0026439396
0.0033127995
0.0032536661
0.0023435236
0.00055494917
2.4110231e-05
1.0405247e-05
1.0167057e-05
1.0136935e-05
1.0064695e-05
1.0066252e-05
1.0019013e-05
1.0024187e-05
1.001095e-05
1.0012583e-05
1.0007184e-05
1.0006283e-05
1.0004046e-05
1.0003256e-05
1.0002681e-05
1.0002632e-05
1.0002746e-05
1.0002623e-05
1.0002396e-05
1.0002116e-05
1.0001858e-05
1.0001664e-05
1.0001554e-05
1.0001516e-05
1.0001536e-05
1.0001604e-05
1.0001581e-05
1.0001388e-05
1.0001213e-05
1.0001082e-05
1.0001017e-05
1.0001002e-05
1.0001001e-05
1.0000915e-05
1.0000887e-05
1.0000891e-05
1.0000783e-05
1.0000715e-05
1.0000769e-05
1.000066e-05
1.0000592e-05
1.0000875e-05
1.0001782e-05
1.0001885e-05
0.0011435559
0.0025918606
0.0032100926
0.0030993198
0.0021060829
0.00042555524
1.8187929e-05
1.0386105e-05
1.0162693e-05
1.0134183e-05
1.006359e-05
1.0065666e-05
1.0018638e-05
1.0023802e-05
1.0010804e-05
1.0012394e-05
1.0007107e-05
1.0006214e-05
1.0004029e-05
1.0003245e-05
1.0002676e-05
1.0002627e-05
1.0002735e-05
1.0002611e-05
1.0002387e-05
1.0002115e-05
1.0001859e-05
1.0001662e-05
1.000155e-05
1.0001511e-05
1.000153e-05
1.0001602e-05
1.0001585e-05
1.0001398e-05
1.0001222e-05
1.0001088e-05
1.0001019e-05
1.0001004e-05
1.0001012e-05
1.0000931e-05
1.0000887e-05
1.0000892e-05
1.000078e-05
1.0000695e-05
1.0000754e-05
1.000062e-05
1.0000573e-05
1.0000873e-05
1.0001799e-05
1.0001867e-05
0.0011354658
0.0025405167
0.0031076019
0.0029500836
0.0018708116
0.00032016633
1.4693363e-05
1.0371841e-05
1.0158394e-05
1.0131494e-05
1.0062468e-05
1.0065065e-05
1.0018257e-05
1.0023424e-05
1.0010663e-05
1.0012202e-05
1.0007031e-05
1.0006138e-05
1.0004006e-05
1.0003223e-05
1.0002663e-05
1.0002621e-05
1.0002729e-05
1.0002607e-05
1.000239e-05
1.000212e-05
1.0001863e-05
1.0001663e-05
1.0001547e-05
1.0001507e-05
1.0001523e-05
1.00016e-05
1.0001591e-05
1.0001408e-05
1.0001232e-05
1.0001096e-05
1.000102e-05
1.0001005e-05
1.0001023e-05
1.0000947e-05
1.0000896e-05
1.0000881e-05
1.0000779e-05
1.0000685e-05
1.0000685e-05
1.0000595e-05
1.0000551e-05
1.000086e-05
1.0001809e-05
1.0001855e-05
0.0011273194
0.0024899
0.0030053539
0.002795251
0.0016400561
0.00023574476
1.2703027e-05
1.0359847e-05
1.0154146e-05
1.0128784e-05
1.0061338e-05
1.006445e-05
1.0017878e-05
1.0023036e-05
1.0010526e-05
1.0012008e-05
1.0006954e-05
1.0006063e-05
1.0003984e-05
1.0003205e-05
1.0002654e-05
1.0002619e-05
1.0002719e-05
1.0002601e-05
1.0002387e-05
1.0002119e-05
1.0001862e-05
1.0001661e-05
1.0001543e-05
1.0001502e-05
1.0001517e-05
1.0001599e-05
1.0001596e-05
1.0001419e-05
1.0001243e-05
1.0001104e-05
1.0001023e-05
1.0001006e-05
1.0001033e-05
1.0000964e-05
1.0000912e-05
1.0000857e-05
1.0000777e-05
1.000068e-05
1.0000687e-05
1.0000582e-05
1.0000534e-05
1.0000863e-05
1.0001831e-05
1.0001835e-05
0.0011191161
0.002440877
0.0029096545
0.002645073
0.0014187278
0.00017000875
1.1614953e-05
1.0348719e-05
1.0149936e-05
1.0126061e-05
1.0060197e-05
1.0063816e-05
1.0017498e-05
1.0022639e-05
1.0010394e-05
1.001181e-05
1.0006878e-05
1.0005986e-05
1.0003961e-05
1.0003187e-05
1.0002645e-05
1.0002616e-05
1.0002713e-05
1.0002598e-05
1.0002384e-05
1.0002118e-05
1.0001862e-05
1.000166e-05
1.0001539e-05
1.0001497e-05
1.000151e-05
1.0001598e-05
1.00016e-05
1.000143e-05
1.0001253e-05
1.0001113e-05
1.0001027e-05
1.0001006e-05
1.0001041e-05
1.0000978e-05
1.0000929e-05
1.0000849e-05
1.0000771e-05
1.0000678e-05
1.0000672e-05
1.0000584e-05
1.0000523e-05
1.000086e-05
1.0001854e-05
1.000182e-05
0.0011106738
0.0023923044
0.0028142755
0.0024956788
0.0012096826
0.0001204354
1.1035962e-05
1.0338058e-05
1.0145765e-05
1.0123328e-05
1.0059048e-05
1.0063164e-05
1.001712e-05
1.0022236e-05
1.0010266e-05
1.001161e-05
1.0006802e-05
1.0005908e-05
1.0003938e-05
1.000317e-05
1.0002635e-05
1.000261e-05
1.0002707e-05
1.0002591e-05
1.0002379e-05
1.0002116e-05
1.0001862e-05
1.0001658e-05
1.0001535e-05
1.0001491e-05
1.0001504e-05
1.0001597e-05
1.0001604e-05
1.000144e-05
1.0001263e-05
1.0001122e-05
1.0001033e-05
1.0001007e-05
1.0001047e-05
1.000099e-05
1.0000948e-05
1.0000852e-05
1.0000764e-05
1.0000682e-05
1.0000687e-05
1.0000586e-05
1.0000518e-05
1.0000847e-05
1.0001865e-05
1.0001811e-05
0.0011020933
0.0023440566
0.0027199125
0.0023451862
0.0010157478
8.4139076e-05
1.0733918e-05
1.032877e-05
1.014163e-05
1.0120581e-05
1.005789e-05
1.0062494e-05
1.0016744e-05
1.0021824e-05
1.0010144e-05
1.0011407e-05
1.0006728e-05
1.000583e-05
1.0003914e-05
1.0003151e-05
1.0002623e-05
1.0002604e-05
1.00027e-05
1.0002584e-05
1.0002374e-05
1.0002113e-05
1.0001861e-05
1.0001656e-05
1.0001531e-05
1.0001486e-05
1.0001497e-05
1.0001595e-05
1.0001608e-05
1.000145e-05
1.0001273e-05
1.0001131e-05
1.0001039e-05
1.0001008e-05
1.0001052e-05
1.0000997e-05
1.0000967e-05
1.0000862e-05
1.000076e-05
1.0000686e-05
1.0000689e-05
1.0000579e-05
1.0000513e-05
1.0000823e-05
1.0001858e-05
1.0001808e-05
0.0010933011
0.0022961024
0.0026264998
0.0021938331
0.00083964541
5.8492668e-05
1.0576985e-05
1.0320144e-05
1.0137525e-05
1.0117819e-05
1.0056723e-05
1.0061805e-05
1.0016371e-05
1.0021406e-05
1.0010026e-05
1.0011204e-05
1.0006655e-05
1.0005751e-05
1.0003888e-05
1.0003129e-05
1.000261e-05
1.0002598e-05
1.0002691e-05
1.0002575e-05
1.0002368e-05
1.000211e-05
1.000186e-05
1.0001655e-05
1.0001527e-05
1.0001481e-05
1.0001491e-05
1.0001594e-05
1.0001611e-05
1.000146e-05
1.0001283e-05
1.000114e-05
1.0001045e-05
1.000101e-05
1.0001057e-05
1.0001002e-05
1.000098e-05
1.0000878e-05
1.0000764e-05
1.0000686e-05
1.0000674e-05
1.0000559e-05
1.0000495e-05
1.0000795e-05
1.0001839e-05
1.0001806e-05
0.0010843404
0.0022488694
0.0025339645
0.0020436586
0.00068271504
4.0962671e-05
1.0493248e-05
1.0311416e-05
1.0133444e-05
1.0115047e-05
1.0055543e-05
1.0061092e-05
1.0016004e-05
1.0020982e-05
1.0009914e-05
1.0010999e-05
1.0006583e-05
1.0005669e-05
1.0003859e-05
1.0003107e-05
1.0002597e-05
1.0002595e-05
1.0002682e-05
1.0002566e-05
1.0002361e-05
1.0002107e-05
1.0001859e-05
1.0001653e-05
1.0001523e-05
1.0001475e-05
1.0001484e-05
1.0001591e-05
1.0001614e-05
1.0001469e-05
1.0001292e-05
1.0001149e-05
1.0001052e-05
1.0001012e-05
1.0001049e-05
1.0001005e-05
1.000099e-05
1.0000901e-05
1.0000774e-05
1.0000676e-05
1.0000642e-05
1.000053e-05
1.0000471e-05
1.0000771e-05
1.0001811e-05
1.0001804e-05
0.0010754298
0.0022029865
0.0024422597
0.001889245
0.00054622556
2.9452964e-05
1.04456e-05
1.0302787e-05
1.0129401e-05
1.0112256e-05
1.0054333e-05
1.0060344e-05
1.0015656e-05
1.0020553e-05
1.0009807e-05
1.001079e-05
1.0006508e-05
1.0005584e-05
1.0003829e-05
1.0003086e-05
1.0002586e-05
1.0002592e-05
1.0002672e-05
1.0002557e-05
1.0002354e-05
1.0002102e-05
1.0001857e-05
1.0001652e-05
1.0001519e-05
1.000147e-05
1.0001477e-05
1.0001589e-05
1.0001616e-05
1.0001478e-05
1.0001301e-05
1.0001158e-05
1.0001059e-05
1.0001012e-05
1.0001014e-05
1.0001009e-05
1.0000998e-05
1.0000924e-05
1.0000786e-05
1.0000661e-05
1.0000612e-05
1.0000501e-05
1.000045e-05
1.0000757e-05
1.0001763e-05
1.0001796e-05
0.0010667169
0.0021592447
0.0023539388
0.0017312331
0.00043347699
2.2190109e-05
1.041551e-05
1.0294245e-05
1.012554e-05
1.0109362e-05
1.0052991e-05
1.0059068e-05
1.0015377e-05
1.0020116e-05
1.0009702e-05
1.0010577e-05
1.0006434e-05
1.00055e-05
1.0003801e-05
1.0003067e-05
1.0002576e-05
1.0002589e-05
1.0002662e-05
1.0002547e-05
1.0002346e-05
1.0002098e-05
1.0001855e-05
1.000165e-05
1.0001515e-05
1.0001465e-05
1.0001471e-05
1.0001586e-05
1.0001618e-05
1.0001487e-05
1.0001309e-05
1.0001166e-05
1.0001065e-05
1.0001014e-05
1.0000998e-05
1.0001011e-05
1.0001005e-05
1.0000941e-05
1.0000802e-05
1.0000653e-05
1.0000586e-05
1.0000482e-05
1.0000434e-05
1.0000757e-05
1.0001702e-05
1.0001785e-05
0.0010582613
0.0021171744
0.0022777592
0.0015692845
0.00033957612
1.7636364e-05
1.0399198e-05
1.028591e-05
1.0123675e-05
1.0106139e-05
1.005091e-05
1.0054395e-05
1.0015192e-05
1.001967e-05
1.0009601e-05
1.0010363e-05
1.0006362e-05
1.0005418e-05
1.0003774e-05
1.0003048e-05
1.0002567e-05
1.0002584e-05
1.0002651e-05
1.0002537e-05
1.0002338e-05
1.0002093e-05
1.0001853e-05
1.0001648e-05
1.0001512e-05
1.000146e-05
1.0001465e-05
1.0001583e-05
1.0001619e-05
1.0001496e-05
1.0001317e-05
1.0001175e-05
1.0001072e-05
1.0001016e-05
1.0000996e-05
1.0001006e-05
1.0001008e-05
1.0000952e-05
1.0000823e-05
1.0000657e-05
1.0000565e-05
1.0000473e-05
1.0000421e-05
1.0000767e-05
1.0001637e-05
1.0001771e-05
0.0010497827
0.0020743667
0.0021950166
0.0014036878
0.00026180993
1.4827867e-05
1.0391708e-05
1.0278747e-05
1.0121606e-05
1.0102119e-05
1.0046236e-05
1.0048478e-05
1.0014908e-05
1.0019216e-05
1.0009505e-05
1.0010151e-05
1.0006293e-05
1.0005337e-05
1.0003746e-05
1.0003029e-05
1.0002558e-05
1.000258e-05
1.000264e-05
1.0002527e-05
1.000233e-05
1.0002088e-05
1.0001851e-05
1.0001646e-05
1.0001509e-05
1.0001456e-05
1.0001458e-05
1.0001579e-05
1.000162e-05
1.0001503e-05
1.0001325e-05
1.0001183e-05
1.0001078e-05
1.0001019e-05
1.0000994e-05
1.0000989e-05
1.0001008e-05
1.0000956e-05
1.0000847e-05
1.0000677e-05
1.0000548e-05
1.0000467e-05
1.0000409e-05
1.0000776e-05
1.000158e-05
1.0001755e-05
0.0010416553
0.0020324878
0.0021161931
0.0012401625
0.00019940054
1.3146706e-05
1.0386772e-05
1.027328e-05
1.0116687e-05
1.0096973e-05
1.0040466e-05
1.0043026e-05
1.0014495e-05
1.0018758e-05
1.0009414e-05
1.0009939e-05
1.0006224e-05
1.0005255e-05
1.0003718e-05
1.000301e-05
1.0002551e-05
1.0002575e-05
1.000263e-05
1.0002516e-05
1.0002321e-05
1.0002083e-05
1.0001848e-05
1.0001645e-05
1.0001506e-05
1.0001451e-05
1.0001453e-05
1.0001576e-05
1.000162e-05
1.0001511e-05
1.0001332e-05
1.0001191e-05
1.0001084e-05
1.0001021e-05
1.0000994e-05
1.0000982e-05
1.0000997e-05
1.0000958e-05
1.000087e-05
1.000071e-05
1.0000528e-05
1.0000455e-05
1.0000397e-05
1.0000778e-05
1.0001529e-05
1.000173e-05
0.0010336699
0.0019906928
0.0020366804
0.0010888525
0.00015018793
1.2160661e-05
1.0381355e-05
1.0267978e-05
1.0113344e-05
1.009241e-05
1.0036949e-05
1.0039148e-05
1.0013988e-05
1.0018295e-05
1.0009328e-05
1.0009728e-05
1.0006156e-05
1.0005175e-05
1.000369e-05
1.0002992e-05
1.0002543e-05
1.000257e-05
1.0002619e-05
1.0002505e-05
1.0002313e-05
1.0002078e-05
1.0001845e-05
1.0001643e-05
1.0001503e-05
1.0001447e-05
1.0001447e-05
1.0001572e-05
1.000162e-05
1.0001518e-05
1.0001339e-05
1.0001198e-05
1.000109e-05
1.0001023e-05
1.0000994e-05
1.0000978e-05
1.0000985e-05
1.0000961e-05
1.0000885e-05
1.0000736e-05
1.0000504e-05
1.0000437e-05
1.0000385e-05
1.0000772e-05
1.0001484e-05
1.0001696e-05
0.0010253112
0.0019459795
0.0019559223
0.0009481686
0.00011196242
1.1591111e-05
1.0379487e-05
1.0259944e-05
1.0113212e-05
1.0090021e-05
1.0035684e-05
1.0037237e-05
1.0013589e-05
1.0017838e-05
1.0009244e-05
1.0009517e-05
1.0006089e-05
1.0005096e-05
1.0003662e-05
1.0002974e-05
1.0002537e-05
1.0002564e-05
1.0002607e-05
1.0002494e-05
1.0002304e-05
1.0002072e-05
1.0001842e-05
1.0001641e-05
1.0001501e-05
1.0001443e-05
1.0001442e-05
1.0001568e-05
1.0001619e-05
1.0001524e-05
1.0001345e-05
1.0001205e-05
1.0001096e-05
1.0001026e-05
1.0000995e-05
1.0000977e-05
1.0000977e-05
1.0000963e-05
1.0000892e-05
1.0000745e-05
1.0000482e-05
1.0000415e-05
1.0000374e-05
1.0000761e-05
1.0001443e-05
1.0001665e-05
0.0010166102
0.0018990278
0.0018729059
0.0008188918
8.2919903e-05
1.1260413e-05
1.037156e-05
1.025193e-05
1.01102e-05
1.0087099e-05
1.0034903e-05
1.0036328e-05
1.0013349e-05
1.0017386e-05
1.0009162e-05
1.0009309e-05
1.0006023e-05
1.0005017e-05
1.0003634e-05
1.0002958e-05
1.0002531e-05
1.0002558e-05
1.0002596e-05
1.0002483e-05
1.0002295e-05
1.0002066e-05
1.0001839e-05
1.0001639e-05
1.0001498e-05
1.000144e-05
1.0001438e-05
1.0001564e-05
1.0001617e-05
1.000153e-05
1.0001351e-05
1.0001212e-05
1.0001103e-05
1.0001029e-05
1.0000996e-05
1.0000975e-05
1.0000973e-05
1.0000965e-05
1.0000893e-05
1.0000744e-05
1.0000468e-05
1.0000393e-05
1.0000365e-05
1.0000752e-05
1.0001403e-05
1.0001654e-05
0.001007482
0.0018492303
0.0017863087
0.00070110791
6.1297535e-05
1.1059257e-05
1.0360194e-05
1.0243789e-05
1.0106369e-05
1.0084246e-05
1.003372e-05
1.0035175e-05
1.0013083e-05
1.0016931e-05
1.0009083e-05
1.0009102e-05
1.0005957e-05
1.000494e-05
1.0003607e-05
1.0002941e-05
1.0002526e-05
1.0002552e-05
1.0002584e-05
1.0002472e-05
1.0002286e-05
1.000206e-05
1.0001835e-05
1.0001637e-05
1.0001496e-05
1.0001436e-05
1.0001433e-05
1.0001559e-05
1.0001615e-05
1.0001536e-05
1.0001357e-05
1.0001218e-05
1.000111e-05
1.0001032e-05
1.0000998e-05
1.0000974e-05
1.0000969e-05
1.0000965e-05
1.0000893e-05
1.0000762e-05
1.0000462e-05
1.0000379e-05
1.0000359e-05
1.0000748e-05
1.0001362e-05
1.0001668e-05
0.00099773188
0.0017959823
0.0016929815
0.00059475588
4.5550598e-05
1.0933129e-05
1.0347693e-05
1.0235595e-05
1.0102659e-05
1.0081377e-05
1.0032542e-05
1.0034074e-05
1.0012837e-05
1.0016481e-05
1.0009005e-05
1.0008897e-05
1.0005892e-05
1.0004865e-05
1.000358e-05
1.0002926e-05
1.0002521e-05
1.0002545e-05
1.0002572e-05
1.000246e-05
1.0002277e-05
1.0002054e-05
1.0001832e-05
1.0001635e-05
1.0001495e-05
1.0001433e-05
1.000143e-05
1.0001555e-05
1.0001611e-05
1.0001541e-05
1.0001363e-05
1.0001224e-05
1.0001117e-05
1.0001037e-05
1.0001001e-05
1.0000975e-05
1.0000966e-05
1.0000962e-05
1.0000892e-05
1.0000802e-05
1.0000462e-05
1.0000377e-05
1.0000357e-05
1.0000752e-05
1.0001317e-05
1.0001688e-05
0.00098742826
0.0017395479
0.0015888141
0.00049823374
3.4347883e-05
1.0852263e-05
1.0335633e-05
1.0227494e-05
1.0098959e-05
1.0078508e-05
1.0031382e-05
1.0032963e-05
1.0012601e-05
1.0016034e-05
1.0008926e-05
1.0008688e-05
1.0005829e-05
1.0004791e-05
1.0003553e-05
1.0002912e-05
1.0002518e-05
1.0002538e-05
1.000256e-05
1.0002449e-05
1.0002268e-05
1.0002048e-05
1.0001828e-05
1.0001634e-05
1.0001493e-05
1.0001431e-05
1.0001426e-05
1.000155e-05
1.0001608e-05
1.0001545e-05
1.0001368e-05
1.0001229e-05
1.0001124e-05
1.0001041e-05
1.0001004e-05
1.0000977e-05
1.0000962e-05
1.0000954e-05
1.0000891e-05
1.0000835e-05
1.0000468e-05
1.0000384e-05
1.0000357e-05
1.0000755e-05
1.0001274e-05
1.0001706e-05
0.00097675561
0.0016813274
0.0014776759
0.00041223122
2.652599e-05
1.0794714e-05
1.032382e-05
1.0219428e-05
1.0095286e-05
1.0075646e-05
1.0030238e-05
1.0031862e-05
1.0012377e-05
1.0015592e-05
1.0008849e-05
1.0008469e-05
1.0005766e-05
1.000472e-05
1.0003527e-05
1.0002898e-05
1.0002515e-05
1.0002531e-05
1.0002548e-05
1.0002438e-05
1.0002259e-05
1.0002042e-05
1.0001825e-05
1.0001632e-05
1.0001492e-05
1.0001428e-05
1.0001424e-05
1.0001544e-05
1.0001604e-05
1.0001549e-05
1.0001374e-05
1.0001235e-05
1.0001131e-05
1.0001047e-05
1.0001007e-05
1.0000981e-05
1.0000959e-05
1.0000938e-05
1.0000888e-05
1.0000856e-05
1.0000482e-05
1.0000392e-05
1.0000357e-05
1.0000748e-05
1.0001233e-05
1.0001719e-05
0.00096573883
0.0016214649
0.0013606884
0.00034024364
2.1270547e-05
1.0750999e-05
1.0312195e-05
1.0211412e-05
1.0091641e-05
1.0072793e-05
1.0029114e-05
1.0030768e-05
1.0012167e-05
1.0015155e-05
1.0008771e-05
1.0008262e-05
1.0005702e-05
1.000465e-05
1.0003502e-05
1.0002886e-05
1.0002513e-05
1.0002523e-05
1.0002536e-05
1.0002426e-05
1.000225e-05
1.0002036e-05
1.0001821e-05
1.0001629e-05
1.000149e-05
1.0001426e-05
1.0001421e-05
1.0001539e-05
1.0001599e-05
1.0001551e-05
1.000138e-05
1.000124e-05
1.0001138e-05
1.0001053e-05
1.000101e-05
1.0000985e-05
1.0000956e-05
1.0000922e-05
1.0000883e-05
1.0000861e-05
1.0000507e-05
1.0000394e-05
1.0000357e-05
1.0000727e-05
1.0001204e-05
1.0001724e-05
0.00095423631
0.0015592049
0.0012438713
0.00027956822
1.7702558e-05
1.0714754e-05
1.0300757e-05
1.0203467e-05
1.0088032e-05
1.006996e-05
1.0028012e-05
1.0029687e-05
1.0011971e-05
1.0014727e-05
1.0008693e-05
1.0008065e-05
1.000564e-05
1.0004583e-05
1.0003477e-05
1.0002875e-05
1.0002512e-05
1.0002516e-05
1.0002523e-05
1.0002415e-05
1.0002241e-05
1.000203e-05
1.0001817e-05
1.0001627e-05
1.0001489e-05
1.0001424e-05
1.0001419e-05
1.0001534e-05
1.0001595e-05
1.0001553e-05
1.0001385e-05
1.0001245e-05
1.0001145e-05
1.000106e-05
1.0001012e-05
1.0000988e-05
1.0000955e-05
1.0000913e-05
1.0000875e-05
1.0000854e-05
1.0000534e-05
1.0000392e-05
1.0000358e-05
1.0000694e-05
1.0001183e-05
1.000172e-05
0.00094268371
0.0014938425
0.0011329888
0.00022591145
1.5294869e-05
1.0682598e-05
1.028945e-05
1.019557e-05
1.0084457e-05
1.0067145e-05
1.0026934e-05
1.002862e-05
1.001179e-05
1.0014307e-05
1.0008614e-05
1.000788e-05
1.0005577e-05
1.0004519e-05
1.0003453e-05
1.0002865e-05
1.0002512e-05
1.0002508e-05
1.0002511e-05
1.0002404e-05
1.0002232e-05
1.0002024e-05
1.0001813e-05
1.0001625e-05
1.0001488e-05
1.0001423e-05
1.0001417e-05
1.0001528e-05
1.000159e-05
1.0001554e-05
1.000139e-05
1.0001249e-05
1.0001151e-05
1.0001068e-05
1.0001015e-05
1.000099e-05
1.0000956e-05
1.0000909e-05
1.0000862e-05
1.0000844e-05
1.0000547e-05
1.0000388e-05
1.0000358e-05
1.0000662e-05
1.0001169e-05
1.0001709e-05
0.00093204438
0.0014350784
0.0010223536
0.00018016283
1.3714758e-05
1.0652821e-05
1.0278298e-05
1.0187762e-05
1.0080925e-05
1.0064365e-05
1.0025883e-05
1.0027573e-05
1.0011624e-05
1.0013899e-05
1.0008535e-05
1.0007714e-05
1.0005515e-05
1.0004457e-05
1.0003431e-05
1.0002856e-05
1.0002513e-05
1.00025e-05
1.0002499e-05
1.0002393e-05
1.0002224e-05
1.0002017e-05
1.0001809e-05
1.0001623e-05
1.0001488e-05
1.0001423e-05
1.0001415e-05
1.0001522e-05
1.0001584e-05
1.0001554e-05
1.0001396e-05
1.0001254e-05
1.0001158e-05
1.0001076e-05
1.0001018e-05
1.000099e-05
1.0000958e-05
1.0000908e-05
1.0000846e-05
1.0000836e-05
1.0000548e-05
1.0000385e-05
1.0000356e-05
1.0000638e-05
1.0001162e-05
1.0001686e-05
0.00092164083
0.0013758817
0.00091420838
0.00014223996
1.269034e-05
1.0624397e-05
1.0267289e-05
1.0180038e-05
1.007744e-05
1.0061622e-05
1.0024862e-05
1.0026548e-05
1.0011475e-05
1.0013502e-05
1.0008454e-05
1.000755e-05
1.0005453e-05
1.0004397e-05
1.0003409e-05
1.0002849e-05
1.0002516e-05
1.0002492e-05
1.0002488e-05
1.0002383e-05
1.0002215e-05
1.0002011e-05
1.0001804e-05
1.0001622e-05
1.0001489e-05
1.0001423e-05
1.0001413e-05
1.0001516e-05
1.0001578e-05
1.0001554e-05
1.00014e-05
1.0001259e-05
1.0001164e-05
1.0001086e-05
1.0001022e-05
1.000099e-05
1.0000958e-05
1.0000907e-05
1.0000833e-05
1.0000832e-05
1.0000542e-05
1.0000385e-05
1.0000353e-05
1.0000617e-05
1.0001161e-05
1.0001651e-05
0.00091158261
0.0013162826
0.00081012853
0.00011138172
1.2033031e-05
1.0596881e-05
1.0256413e-05
1.0172401e-05
1.0074004e-05
1.0058918e-05
1.0023872e-05
1.0025546e-05
1.0011342e-05
1.0013117e-05
1.0008373e-05
1.0007393e-05
1.0005393e-05
1.0004341e-05
1.0003388e-05
1.0002842e-05
1.0002518e-05
1.0002485e-05
1.0002477e-05
1.0002372e-05
1.0002206e-05
1.0002004e-05
1.0001801e-05
1.0001621e-05
1.0001489e-05
1.0001423e-05
1.0001411e-05
1.000151e-05
1.0001572e-05
1.0001552e-05
1.0001405e-05
1.0001263e-05
1.000117e-05
1.0001095e-05
1.0001027e-05
1.0000989e-05
1.0000958e-05
1.0000905e-05
1.0000823e-05
1.0000814e-05
1.0000535e-05
1.0000386e-05
1.0000348e-05
1.0000597e-05
1.0001156e-05
1.0001601e-05
0.00090192805
0.0012558113
0.00071169258
8.6843956e-05
1.161227e-05
1.0570554e-05
1.0245697e-05
1.0164873e-05
1.0070624e-05
1.0056265e-05
1.0022916e-05
1.0024572e-05
1.0011226e-05
1.0012746e-05
1.0008291e-05
1.0007243e-05
1.0005333e-05
1.0004288e-05
1.0003369e-05
1.0002835e-05
1.0002519e-05
1.0002477e-05
1.0002465e-05
1.0002362e-05
1.0002197e-05
1.0001997e-05
1.0001798e-05
1.0001621e-05
1.000149e-05
1.0001422e-05
1.000141e-05
1.0001504e-05
1.0001565e-05
1.0001549e-05
1.0001409e-05
1.0001268e-05
1.0001176e-05
1.0001105e-05
1.0001034e-05
1.0000989e-05
1.0000956e-05
1.0000901e-05
1.0000811e-05
1.0000783e-05
1.0000529e-05
1.0000383e-05
1.0000343e-05
1.0000582e-05
1.0001144e-05
1.0001545e-05
0.00089305985
0.001194789
0.00062004888
6.7665863e-05
1.1339581e-05
1.0546233e-05
1.0235134e-05
1.0157446e-05
1.0067302e-05
1.0053663e-05
1.0021997e-05
1.0023626e-05
1.0011128e-05
1.0012389e-05
1.0008208e-05
1.0007099e-05
1.0005274e-05
1.0004237e-05
1.000335e-05
1.000283e-05
1.0002521e-05
1.000247e-05
1.0002453e-05
1.0002352e-05
1.0002187e-05
1.0001991e-05
1.0001797e-05
1.0001621e-05
1.0001489e-05
1.0001422e-05
1.0001409e-05
1.0001498e-05
1.0001558e-05
1.0001545e-05
1.0001412e-05
1.0001273e-05
1.000118e-05
1.0001114e-05
1.0001043e-05
1.0000991e-05
1.0000954e-05
1.0000896e-05
1.0000798e-05
1.0000753e-05
1.0000521e-05
1.0000376e-05
1.0000338e-05
1.0000589e-05
1.0001131e-05
1.0001485e-05
0.00088520815
0.0011362046
0.00053595237
5.2934033e-05
1.1158228e-05
1.0523094e-05
1.0224717e-05
1.0150128e-05
1.006404e-05
1.0051118e-05
1.0021115e-05
1.0022711e-05
1.0011048e-05
1.0012045e-05
1.0008125e-05
1.0006961e-05
1.0005216e-05
1.0004189e-05
1.0003333e-05
1.0002825e-05
1.0002525e-05
1.0002464e-05
1.0002442e-05
1.0002341e-05
1.0002178e-05
1.0001987e-05
1.0001796e-05
1.0001621e-05
1.0001488e-05
1.0001421e-05
1.0001408e-05
1.0001491e-05
1.0001551e-05
1.0001541e-05
1.0001414e-05
1.0001277e-05
1.0001185e-05
1.0001123e-05
1.0001052e-05
1.0000995e-05
1.0000955e-05
1.0000892e-05
1.000079e-05
1.0000738e-05
1.0000509e-05
1.0000366e-05
1.0000335e-05
1.0000601e-05
1.0001123e-05
1.0001423e-05
0.00087752526
0.0010752638
0.00045963497
4.1832581e-05
1.1032911e-05
1.0500255e-05
1.0214452e-05
1.0142932e-05
1.0060846e-05
1.0048637e-05
1.0020275e-05
1.002183e-05
1.0010986e-05
1.0011716e-05
1.0008041e-05
1.000683e-05
1.000516e-05
1.0004144e-05
1.0003316e-05
1.000282e-05
1.000253e-05
1.0002458e-05
1.0002431e-05
1.000233e-05
1.000217e-05
1.0001984e-05
1.0001795e-05
1.0001619e-05
1.0001488e-05
1.0001421e-05
1.0001407e-05
1.0001485e-05
1.0001544e-05
1.0001535e-05
1.0001415e-05
1.0001281e-05
1.0001189e-05
1.000113e-05
1.0001063e-05
1.0001002e-05
1.0000958e-05
1.0000893e-05
1.0000789e-05
1.0000725e-05
1.0000495e-05
1.0000357e-05
1.0000335e-05
1.0000613e-05
1.0001117e-05
1.000136e-05
0.00086972338
0.0010100938
0.00039165956
3.3603569e-05
1.0942028e-05
1.0477885e-05
1.0204346e-05
1.0135866e-05
1.0057724e-05
1.0046223e-05
1.0019476e-05
1.0020983e-05
1.0010942e-05
1.00114e-05
1.0007957e-05
1.0006706e-05
1.0005105e-05
1.0004102e-05
1.00033e-05
1.0002815e-05
1.0002532e-05
1.0002453e-05
1.0002421e-05
1.000232e-05
1.0002163e-05
1.0001981e-05
1.0001793e-05
1.0001617e-05
1.0001487e-05
1.000142e-05
1.0001406e-05
1.0001479e-05
1.0001536e-05
1.0001529e-05
1.0001416e-05
1.0001285e-05
1.0001192e-05
1.0001136e-05
1.0001073e-05
1.000101e-05
1.0000963e-05
1.0000899e-05
1.0000791e-05
1.0000684e-05
1.0000484e-05
1.0000352e-05
1.000034e-05
1.000062e-05
1.0001106e-05
1.0001296e-05
0.00086173783
0.00094239846
0.00033228244
2.7591138e-05
1.0872708e-05
1.0455902e-05
1.0194396e-05
1.012893e-05
1.0054677e-05
1.004388e-05
1.0018723e-05
1.0020172e-05
1.0010919e-05
1.00111e-05
1.0007875e-05
1.0006588e-05
1.0005052e-05
1.0004062e-05
1.0003285e-05
1.000281e-05
1.0002535e-05
1.0002447e-05
1.0002411e-05
1.000231e-05
1.0002158e-05
1.0001979e-05
1.0001789e-05
1.0001615e-05
1.0001486e-05
1.000142e-05
1.0001405e-05
1.0001472e-05
1.0001529e-05
1.0001522e-05
1.0001416e-05
1.0001289e-05
1.0001196e-05
1.0001141e-05
1.0001081e-05
1.0001018e-05
1.0000968e-05
1.0000906e-05
1.0000796e-05
1.0000634e-05
1.0000477e-05
1.0000348e-05
1.0000344e-05
1.0000625e-05
1.0001085e-05
1.0001234e-05
0.00085342602
0.000871921
0.00028125485
2.3235181e-05
1.0816705e-05
1.0434255e-05
1.0184595e-05
1.0122124e-05
1.0051708e-05
1.0041612e-05
1.0018015e-05
1.0019398e-05
1.0010945e-05
1.0010811e-05
1.0007791e-05
1.0006476e-05
1.0005001e-05
1.0004025e-05
1.000327e-05
1.0002805e-05
1.0002537e-05
1.0002443e-05
1.0002401e-05
1.0002302e-05
1.0002154e-05
1.0001975e-05
1.0001785e-05
1.0001613e-05
1.0001485e-05
1.000142e-05
1.0001405e-05
1.0001466e-05
1.0001521e-05
1.0001515e-05
1.0001416e-05
1.0001294e-05
1.00012e-05
1.0001145e-05
1.0001087e-05
1.0001025e-05
1.0000972e-05
1.000091e-05
1.0000802e-05
1.0000627e-05
1.0000471e-05
1.0000343e-05
1.0000342e-05
1.0000632e-05
1.0001056e-05
1.0001175e-05
0.00084430801
0.00079923243
0.00023824258
2.0113507e-05
1.0768322e-05
1.0412979e-05
1.0174959e-05
1.0115461e-05
1.0048824e-05
1.0039423e-05
1.0017354e-05
1.0018661e-05
1.0010931e-05
1.0010506e-05
1.0007706e-05
1.0006371e-05
1.0004951e-05
1.0003989e-05
1.0003255e-05
1.0002799e-05
1.0002539e-05
1.0002438e-05
1.0002392e-05
1.0002296e-05
1.0002151e-05
1.0001969e-05
1.000178e-05
1.0001611e-05
1.0001485e-05
1.0001419e-05
1.0001404e-05
1.000146e-05
1.0001514e-05
1.0001508e-05
1.0001415e-05
1.0001298e-05
1.0001205e-05
1.0001149e-05
1.0001092e-05
1.0001031e-05
1.0000974e-05
1.0000912e-05
1.0000803e-05
1.0000635e-05
1.0000465e-05
1.0000336e-05
1.0000328e-05
1.0000641e-05
1.0001025e-05
1.0001119e-05
0.00083490591
0.00072246528
0.00020278581
1.787309e-05
1.0724814e-05
1.0392103e-05
1.0165504e-05
1.0108958e-05
1.004603e-05
1.0037321e-05
1.0016744e-05
1.0017961e-05
1.0010903e-05
1.001021e-05
1.0007621e-05
1.0006272e-05
1.0004903e-05
1.0003955e-05
1.0003239e-05
1.0002792e-05
1.000254e-05
1.0002435e-05
1.0002385e-05
1.0002292e-05
1.0002146e-05
1.0001962e-05
1.0001775e-05
1.0001609e-05
1.0001484e-05
1.0001419e-05
1.0001403e-05
1.0001454e-05
1.0001506e-05
1.0001501e-05
1.0001414e-05
1.0001302e-05
1.000121e-05
1.0001152e-05
1.0001094e-05
1.0001036e-05
1.0000976e-05
1.0000911e-05
1.0000792e-05
1.0000616e-05
1.0000457e-05
1.0000331e-05
1.000031e-05
1.0000647e-05
1.0000995e-05
1.0001067e-05
0.00082665017
0.00065911931
0.00017465255
1.624188e-05
1.0684525e-05
1.0371613e-05
1.0156234e-05
1.010262e-05
1.0043332e-05
1.0035309e-05
1.0016184e-05
1.00173e-05
1.0010862e-05
1.0009971e-05
1.0007537e-05
1.0006179e-05
1.0004856e-05
1.0003922e-05
1.0003223e-05
1.0002785e-05
1.0002542e-05
1.0002432e-05
1.0002381e-05
1.0002289e-05
1.0002138e-05
1.0001954e-05
1.0001771e-05
1.0001607e-05
1.0001483e-05
1.0001418e-05
1.0001402e-05
1.0001449e-05
1.0001499e-05
1.0001495e-05
1.0001413e-05
1.0001307e-05
1.0001216e-05
1.0001156e-05
1.0001095e-05
1.0001039e-05
1.0000978e-05
1.0000909e-05
1.0000791e-05
1.0000593e-05
1.0000448e-05
1.000033e-05
1.00003e-05
1.0000646e-05
1.0000967e-05
1.0001018e-05
0.00081956847
0.00060999791
0.00015112774
1.5013058e-05
1.0646482e-05
1.0351509e-05
1.0147153e-05
1.0096451e-05
1.0040734e-05
1.0033389e-05
1.0015676e-05
1.0016679e-05
1.0010811e-05
1.0009753e-05
1.0007453e-05
1.0006091e-05
1.000481e-05
1.000389e-05
1.0003206e-05
1.0002778e-05
1.0002543e-05
1.0002431e-05
1.0002379e-05
1.0002285e-05
1.0002129e-05
1.0001946e-05
1.0001766e-05
1.0001604e-05
1.0001482e-05
1.0001417e-05
1.0001402e-05
1.0001443e-05
1.0001493e-05
1.0001489e-05
1.0001413e-05
1.0001312e-05
1.0001222e-05
1.000116e-05
1.0001096e-05
1.000104e-05
1.0000982e-05
1.0000901e-05
1.0000773e-05
1.0000585e-05
1.0000436e-05
1.0000335e-05
1.0000301e-05
1.0000643e-05
1.0000941e-05
1.0000971e-05
0.00081344044
0.00056665352
0.00013110296
1.4075636e-05
1.0610118e-05
1.0331787e-05
1.0138266e-05
1.0090459e-05
1.0038242e-05
1.0031566e-05
1.0015221e-05
1.0016098e-05
1.0010749e-05
1.0009549e-05
1.000737e-05
1.0006009e-05
1.0004765e-05
1.0003858e-05
1.0003189e-05
1.0002769e-05
1.0002543e-05
1.0002433e-05
1.0002379e-05
1.0002279e-05
1.0002118e-05
1.0001937e-05
1.000176e-05
1.0001602e-05
1.0001482e-05
1.0001417e-05
1.0001401e-05
1.0001438e-05
1.0001487e-05
1.0001483e-05
1.0001413e-05
1.0001318e-05
1.0001229e-05
1.0001165e-05
1.0001096e-05
1.000104e-05
1.0000982e-05
1.0000889e-05
1.000076e-05
1.0000568e-05
1.0000423e-05
1.0000333e-05
1.0000299e-05
1.0000635e-05
1.0000916e-05
1.0000927e-05
0.00080859269
0.00053034191
0.00011405626
1.3353557e-05
1.0575094e-05
1.0312464e-05
1.0129588e-05
1.0084657e-05
1.0035862e-05
1.0029845e-05
1.0014819e-05
1.0015557e-05
1.001068e-05
1.0009359e-05
1.0007288e-05
1.0005931e-05
1.0004719e-05
1.0003825e-05
1.000317e-05
1.000276e-05
1.0002541e-05
1.0002434e-05
1.0002379e-05
1.0002269e-05
1.0002106e-05
1.0001928e-05
1.0001755e-05
1.00016e-05
1.0001481e-05
1.0001416e-05
1.0001399e-05
1.0001432e-05
1.0001481e-05
1.0001478e-05
1.0001414e-05
1.0001325e-05
1.0001236e-05
1.0001169e-05
1.0001097e-05
1.000104e-05
1.000098e-05
1.0000863e-05
1.0000759e-05
1.0000555e-05
1.0000409e-05
1.000032e-05
1.0000295e-05
1.0000621e-05
1.0000889e-05
1.0000884e-05
0.00080525895
0.0005004544
9.9358595e-05
1.2791073e-05
1.0541185e-05
1.0293551e-05
1.0121126e-05
1.0079054e-05
1.00336e-05
1.0028227e-05
1.001447e-05
1.0015054e-05
1.0010605e-05
1.0009183e-05
1.0007207e-05
1.0005856e-05
1.0004674e-05
1.0003792e-05
1.000315e-05
1.0002749e-05
1.0002537e-05
1.0002432e-05
1.0002378e-05
1.0002256e-05
1.0002094e-05
1.0001919e-05
1.0001749e-05
1.0001598e-05
1.0001481e-05
1.0001415e-05
1.0001398e-05
1.0001427e-05
1.0001475e-05
1.0001473e-05
1.0001415e-05
1.0001333e-05
1.0001245e-05
1.0001174e-05
1.0001098e-05
1.0001042e-05
1.0000981e-05
1.000086e-05
1.0000738e-05
1.0000545e-05
1.0000396e-05
1.00003e-05
1.0000288e-05
1.0000603e-05
1.0000862e-05
1.0000843e-05
0.00080358415
0.00047721502
8.6572814e-05
1.2349626e-05
1.0508313e-05
1.0275083e-05
1.0112897e-05
1.0073661e-05
1.0031461e-05
1.0026715e-05
1.0014174e-05
1.001459e-05
1.0010526e-05
1.0009019e-05
1.0007128e-05
1.0005783e-05