/*--------------------------------*- C++ -*----------------------------------*\
  =========                 |
  \\      /  F ield         | OpenFOAM: The Open Source CFD Toolbox
   \\    /   O peration     | Website:  https://openfoam.org
    \\  /    A nd           | Version:  8
     \\/     M anipulation  |
\*---------------------------------------------------------------------------*/
FoamFile
{
    version     2.0;
    format      ascii;
    class       volScalarField;
    location    "0.229992";
    object      p;
}
// * * * * * * * * * * * * * * * * * * * * * * * * * * * * * * * * * * * * * //

dimensions      [1 -1 -2 0 0 0 0];

internalField   nonuniform List<scalar> 
20000
(
78771.663
78784.554
78800.927
78823.132
78856.422
78895.274
78951.668
79012.658
79088.456
79184.705
79285.436
79427.955
79568.567
79771.042
79973.13
80253.994
80546.679
80932.324
81354.261
81883.856
82481.898
83200.372
84015.171
84960.173
86028.254
87271.454
88655.791
90131.28
91624.671
93086.123
94456.061
95687.056
96750.971
97641.331
98363.14
98933.389
99374.765
99710.358
99956.828
100141.83
100298.55
100420.99
100494.35
100526.97
100532.38
100489.2
100433.89
100291.07
100314.54
99766.484
78336.914
78351.152
78367.919
78390.516
78425.427
78464.897
78524.524
78587.575
78665.149
78764.531
78867.479
79014.653
79158.483
79367.582
79575.033
79865.203
80167.27
80566.692
81004.261
81552.445
82170.51
82909.946
83749.921
84730.498
85859.02
87185.893
88630.394
90130.127
91653.903
93136.012
94515.065
95745.651
96803.283
97684.399
98396.816
98959.139
99394.939
99726.064
99968.576
100152.65
100315.98
100437.33
100506.86
100534.08
100536.84
100492.2
100424.92
100285.98
100244.83
99769.776
77923.673
77938.81
77955.797
77979.098
78015.713
78056.109
78117.497
78182.446
78261.48
78364.066
78469.024
78621.026
78768.162
78984.145
79197.332
79497.31
79809.654
80223.573
80676.929
81242.698
81879.346
82640.848
83513.208
84547.15
85764.756
87151.409
88625.97
90162.818
91716.636
93216.271
94599.952
95825.323
96872.135
97740.166
98439.963
98991.876
99420.088
99745.08
99982.537
100166.29
100334.89
100452.8
100517.82
100541.75
100543.21
100495.49
100422.71
100287.99
100149.33
99769.891
77531.003
77547.029
77564.191
77588.377
77626.988
77668.467
77731.677
77798.795
77879.51
77985.649
78092.952
78250.26
78401.056
78624.479
78843.953
79154.543
79477.836
79906.447
80374.822
80957.334
81613.994
82404.707
83326.135
84442.686
85725.835
87143.287
88656.065
90235.019
91817.11
93329.911
94712.924
95927.869
96959.068
97809.949
98493.737
99032.568
99450.961
99767.874
99999.261
100183.41
100353.71
100465.82
100526.78
100548.85
100549.42
100499.82
100422.18
100281.28
100049.28
99775.723
77164.668
77182.006
77199.234
77224.05
77264.415
77306.94
77371.856
77441.302
77523.852
77633.905
77743.777
77906.829
78061.651
78293.177
78519.658
78841.454
79175.683
79617.896
80100.459
80701.514
81385.162
82220.445
83218.691
84398.353
85716.297
87169.857
88730.184
90349.043
91955.031
93475.544
94852.281
96051.493
97062.391
97892.231
98556.872
99080.188
99486.763
99793.885
100018.65
100203.97
100371.89
100477.61
100534.54
100555.29
100554.48
100505.68
100418.56
100270.66
100012.39
99780.327
76823.498
76842.528
76860.558
76886.455
76929.29
76973.55
77040.713
77113.121
77197.849
77312.188
77424.852
77594.102
77753.416
77993.836
78228.03
78561.354
78906.04
79361.046
79858.993
80485.863
81210.823
82116.498
83172.749
84386.516
85739.488
87242.788
88850.864
90505.905
92130.813
93653.067
95017.553
96195.612
97181.564
97986.571
98629.062
99134.531
99527.338
99823.059
100040.84
100227.64
100389.55
100488.89
100541.34
100560.78
100557.15
100508.06
100414.04
100258.46
99974.391
99781.468
76518.737
76537.729
76556.824
76583.624
76628.388
76673.999
76742.881
76817.968
76904.666
77023.426
77139.09
77315.163
77479.519
77729.423
77971.509
78316.251
78671.787
79141.654
79661.925
80328.71
81117.587
82072.419
83160.067
84405.593
85810.334
87365.515
89019.264
90705.771
92343.681
93861.231
95207.322
96358.834
97315.363
98091.957
98709.521
99194.999
99572.237
99855.198
100065.78
100253.59
100407.31
100499.8
100547.63
100565.37
100558.23
100508.97
100408.7
100231.32
99945.114
99781.663
76243.786
76263.32
76283.495
76311.497
76358.598
76406.047
76477.146
76555.637
76645.006
76769.206
76888.799
77072.656
77242.413
77501.766
77751.399
78107.894
78477.948
78971.151
79531.952
80250.574
81079.311
82060.357
83177.28
84472.799
85932.099
87539.312
89235.581
90948.184
92592.627
94098.702
95420.147
96539.802
97462.619
98207.45
98797.537
99261.057
99621.063
99890.181
100093.44
100281.27
100425.26
100510.48
100553.73
100569.38
100558.63
100509.11
100401.66
100195.15
99923.976
99781.36
76003.352
76023.679
76045.044
76074.385
76123.86
76173.457
76247.032
76329.417
76421.969
76552.372
76676.266
76868.189
77043.276
77312.136
77570.597
77942.107
78335.084
78869.105
79470.882
80220.423
81069.581
82078.085
83242.252
84591.342
86106.671
87764.502
89499.307
91231.978
92875.954
94363.571
95654.151
96736.833
97621.923
98331.93
98892.257
99332.049
99673.33
99927.849
100123.85
100310.11
100443.37
100521
100559.77
100573.19
100558.77
100507.97
100391.15
100155.51
99906.049
99781.623
75799.981
75821.401
75844.238
75875.311
75927.596
75979.73
76055.993
76142.567
76238.235
76374.664
76501.926
76701.553
76883.13
77163.794
77436.95
77836.175
78260.965
78823.813
79450.036
80214.123
81090.792
82142.453
83358.031
84763.253
86334.498
88040.798
89809.428
91555.548
93191.678
94653.742
95907.342
96948.173
97791.821
98464.254
98992.809
99407.305
99728.535
99967.988
100157.13
100339.47
100461.71
100531.55
100565.75
100576.92
100558.77
100503.8
100375.54
100116.49
99892.325
99783.54
75641.11
75663.538
75687.677
75720.249
75775.051
75829.374
75907.857
75998.159
76096.024
76237.592
76367.252
76575.545
76767.882
77069.961
77364.654
77787.107
78231.005
78809.442
79447.846
80240.692
81157.379
82256.504
83526.606
84988.886
86615.435
88367.205
90164.214
91916.627
93537.274
94966.713
96177.446
97171.881
97970.735
98603.19
99098.258
99486.104
99786.146
100010.26
100193.18
100368.77
100480.46
100542.43
100571.76
100580.68
100558.56
100497.5
100354.08
100080.43
99879.464
99785.937
75519.443
75543.258
75569.177
75603.766
75661.634
75718.748
75800.02
75894.192
75994.424
76142.641
76280.395
76504.331
76708.512
77026.711
77334.164
77770.558
78223.343
78816.001
79482.547
80311.304
81272.252
82422.012
83748.3
85268.304
86948.849
88742.383
90561.645
92312.727
93910.07
95299.902
96462.151
97406.001
98157.085
98747.514
99207.671
99567.725
99845.652
100054.34
100231.49
100397.56
100499.3
100553.86
100578.04
100584.74
100557.71
100489.81
100327.18
100048.8
99868.329
99784.905
75433.359
75458.322
75485.683
75521.647
75581.865
75640.951
75724.613
75824.65
75931.479
76091.179
76237.534
76473.628
76684.009
77012.074
77325.09
77770.343
78241.405
78860.764
79560.202
80428.68
81436.788
82639.152
84023.041
85600.84
87333.47
89164.311
90999.052
92740.82
94306.986
95650.447
96758.965
97648.469
98349.231
98895.965
99320.092
99651.434
99906.552
100099.89
100270.97
100425.95
100518.43
100565.88
100584.77
100589.48
100556.7
100480.89
100295.91
100022.79
99858.55
99783.346
75372.098
75398.408
75427.532
75465.615
75529.978
75593.172
75681.531
75789.105
75901.146
76069.976
76220.235
76463.821
76676.774
77012.358
77337.317
77803.115
78298.177
78947.442
79683.244
80593.74
81651.087
82907.86
84350.353
85985.689
87767.845
89630.836
91473.669
93197.825
94724.951
96015.526
97065.448
97897.271
98545.576
99047.324
99434.596
99736.529
99968.383
100146.57
100310.95
100453.8
100537.52
100578.23
100592.45
100594.58
100556.09
100470.94
100261.8
100001.91
99850.252
99781.983
75338.17
75366.171
75397.504
75438.064
75506.482
75573.682
75664.954
75776.751
75889.896
76063.351
76215.485
76467.55
76690.007
77042.781
77385.304
77874.404
78396.409
79077.752
79851.88
80806.332
81914.814
83227.464
84729.382
86421.448
88249.958
90139.146
91982.155
93680.205
95160.585
96392.121
97379.048
98150.345
98744.512
99200.369
99550.262
99822.324
100030.72
100194.08
100351.07
100480.83
100555.48
100590.36
100601.53
100599.22
100555.63
100459.87
100227.54
99983.109
99842.833
99780.356
75325.467
75355.062
75388.093
75430.181
75501.189
75570.987
75663.825
75780.165
75895.989
76078.186
76236.203
76501.854
76738.337
77110.892
77472.781
77986.392
78536.761
79251.505
80065.798
81065.947
82227.333
83597.307
85159.235
86906.814
88777.773
90686.486
92521.236
94184.536
95610.628
96777.336
97697.335
98405.746
98944.53
99353.95
99666.216
99908.192
100093.2
100242.17
100391.07
100507
100572.27
100601.94
100611.25
100603.14
100554.89
100447.1
100192.89
99965.06
99835.775
99778.83
75337.038
75368.707
75404.133
75448.559
75523.361
75596.853
75693.415
75817.148
75938.326
76131.754
76297.321
76578.152
76826.754
77218.224
77599.759
78138.412
78718.436
79467.988
80324.138
81371.729
82587.756
84016.426
85638.66
87439.984
89348.686
91269.54
93087.165
94707.044
96071.567
97168.131
98017.843
98661.557
99144.173
99506.955
99781.608
99993.541
100155.55
100290.7
100430.59
100532.34
100588.11
100612.92
100620.83
100606.58
100553.55
100430.85
100157.7
99947.303
99829.199
99777.626
75384.025
75417.764
75455.621
75502.263
75580.679
75657.924
75758.51
75890.087
76016.65
76221.294
76395.33
76691.541
76951.942
77362.357
77764.488
78329.219
78940.376
79726.17
80625.983
81722.842
82995.332
84484.059
86166.621
88019.319
89960.23
91885.109
93676.34
95244.088
96540.014
97561.634
98338.317
98916.063
99342.152
99658.388
99895.644
100077.83
100217.54
100339.6
100469.15
100556.85
100603.31
100623.36
100629.92
100610.25
100551.17
100408.08
100123.11
99929.829
99822.786
99776.614
75461.51
75497.516
75538.165
75587.483
75670.235
75752.318
75856.653
75996.262
76127.413
76343.782
76525.464
76837.023
77111.021
77541.613
77965.637
78557.568
79201.41
80024.966
80970.326
82118.386
83449.23
84999.241
86741.749
88642.652
90609.362
92529.403
94284.669
95791.627
97012.35
97954.939
98656.587
99167.662
99537.272
99807.343
100007.58
100160.54
100278.97
100388.85
100506.14
100580.4
100618.2
100633.47
100638.27
100613.8
100547.29
100376.46
100090.5
99912.752
99816.66
99776.125
75565.462
75603.99
75647.821
75700.061
75786.899
75874.648
75982.763
76131.336
76267.509
76496.588
76686.7
77014.71
77303.157
77754.797
78201.976
78822.225
79500.384
80363.375
81356.355
82557.758
83948.938
85561.365
87362.943
89308.045
91293.187
93198.806
94908.196
96345.776
97485.245
98345.533
98970.82
99414.986
99728.484
99953.051
100116.77
100241.16
100339.62
100438.22
100541.07
100602.79
100632.99
100643.72
100645.47
100615.59
100541.56
100336.25
100060.51
99896.758
99811.25
99776.059
75698.584
75739.61
75786.593
75841.607
75932.716
76026.431
76138.148
76296.232
76437.511
76679.839
76878.587
77223.463
77527.11
78000.608
78472.265
79122.047
79836.267
80740.539
81783.386
83040.421
84493.918
86169.601
88028.688
90012.968
92008.179
93889.119
95542.455
96902.43
97955.543
98731.201
99279.341
99656.704
99914.732
100094.77
100222.71
100319.24
100399.16
100486.91
100573.97
100623.88
100647.37
100654.94
100651.19
100616.49
100533.29
100291.53
100031.77
99882.211
99806.454
99776.157
75857.029
75900.915
75951.586
76010.044
76105.778
76205.672
76320.635
76488.891
76635.076
76891.173
77099.149
77461.737
77781.589
78277.825
78775.374
79455.995
80208.229
81155.884
82251.111
83566.233
85084.04
86823.455
88737.739
90755.051
92750.951
94596.239
96183.175
97458.016
98420.941
99110.363
99580.704
99891.505
100094.98
100231.74
100324.99
100394.48
100457.22
100533.99
100605.01
100643.88
100661.29
100666.69
100656.29
100616.93
100520.75
100245.16
100004.65
99869.62
99803.14
99776.828
76041.653
76088.102
76142.082
76203.449
76303.126
76409.658
76527.995
76707.263
76858.981
77129.548
77347.407
77728.399
78065.483
78585.335
79110.326
79823.31
80615.724
81609.139
82759.403
84135.163
85719.037
87522.151
89488.232
91531.26
93517.339
95315.397
96825.886
98009.451
98879.795
99481.575
99873.28
100117.89
100268.18
100363.04
100423.19
100466.84
100513.43
100578.72
100634.17
100663.11
100674.99
100678.08
100661.26
100617.08
100501.11
100200.04
99980.179
99859.433
99801.618
99778.262
76245.232
76294.912
76353.094
76418.421
76522.727
76636.881
76759.248
76950.718
77107.976
77393.942
77622.141
78022.322
78377.723
78922.233
79476.42
80223.513
81058.573
82100.396
83308.558
84747.533
86399.038
88265.126
90278.518
92338.598
94303.248
96042.077
97466.96
98554.959
99330.979
99843.021
100155.17
100334.43
100433.57
100487.83
100516.72
100536.58
100567.54
100620.6
100661.39
100681.66
100688.82
100688.39
100666.14
100615.21
100471.39
100159.15
99958.966
99851.286
99801.053
99780.426
76473.729
76526.532
76588.913
76658.168
76766.689
76888.434
77014.628
77218.133
77381.363
77683.071
77922.396
78342.46
78717.544
79287.915
79873.32
80656.564
81536.971
82630.039
83899.006
85403.667
87123.914
89051.346
91106.172
93173.214
95103.815
96771.574
98103.534
99093.417
99772.147
100191.17
100424.09
100540.24
100590.85
100605.78
100604.75
100603.98
100619.55
100659.37
100686.68
100699.27
100703.1
100697.15
100670.55
100610.09
100430.51
100124.28
99940.741
99844.208
99800.947
99783.276
76723.674
76779.599
76846.147
76919.383
77031.803
77161.767
77291.769
77508.024
77677.618
77995.954
78247.262
78688.197
79084.545
79682.206
80301.096
81122.776
82051.458
83198.788
84531.51
86104.197
87893.81
89879.906
91968.809
94031.21
95914.398
97500.123
98734.209
99623.311
100198.51
100523.06
100678.44
100735.15
100740.01
100717.23
100686.73
100668.68
100669.65
100695
100710.34
100716.31
100716.9
100704.65
100672.82
100601.58
100382.35
100093.19
99925.29
99839.04
99801.187
99786.838
76991.241
77050.925
77122.393
77200.389
77316.714
77455.974
77590.062
77819.9
77996.094
78332.118
78596.434
79059.353
79478.751
80105.331
80760.202
81622.846
82602.86
83807.523
85206.86
86849.604
88708.457
90749.182
92863.074
94907.783
96730.01
98224.678
99357.74
100139.28
100605.9
100836.14
100918.34
100921.22
100880.77
100821.75
100763.67
100728.9
100717.77
100727.63
100732.6
100733.13
100729.42
100711.17
100673.84
100589.37
100330.93
100063.82
99912.261
99836.579
99803.017
99791.217
77279.726
77343.418
77420.05
77502.742
77622.002
77771.023
77909.116
78153.182
78336.964
78691.341
78970.023
79456.097
79900.599
80557.895
81251.423
82157.707
83192.225
84457.353
85926.081
87640.598
89567.706
91657.5
93785.483
95798.249
97546.569
98943.724
99971.117
100635.44
100990.48
101130.39
101147.68
101096.61
101012.72
100919.57
100836.17
100785.07
100762.51
100757.67
100753.89
100749.16
100740.57
100717.17
100674.21
100572.03
100279
100035.92
99901.091
99835.547
99805.968
99796.051
77583.404
77651.948
77734.788
77823.619
77946.028
78105.859
78248.523
78507.949
78699.966
79074.06
79368.441
79879.036
80350.817
81040.793
81775.779
82728.546
83820.749
85149.432
86690.124
88477.603
90470.763
92602.212
94731.504
96697.437
98360.573
99655.862
100567.43
101106.58
101350.63
101410.73
101364.2
101260.87
101135.8
101010.94
100904.44
100837.96
100802.81
100785.47
100774.03
100764.18
100750.41
100722.86
100674.28
100546.87
100229.7
100010.1
99891.372
99835.228
99809.752
99801.159
77908.474
77980.603
78067.385
78163.434
78290.032
78461.755
78609.43
78884.994
79085.878
79480.796
79792.527
80328.984
80830.403
81555.088
82334.44
83336.637
84489.75
85885.086
87500.126
89361.171
91416.748
93580.457
95696.542
97600.916
99170.005
100357.45
101139.56
101549
101690.64
101676.67
101566.89
101413.83
101250.06
101096.02
100968.44
100886.97
100839.2
100811.16
100792.97
100778.07
100759.03
100727.71
100670.91
100510.9
100186.34
99987.432
99883.062
99835.208
99814.03
99806.517
78252.547
78329.156
78420.014
78523.545
78654.612
78838.801
78992.015
79284.691
79495.491
79912.29
80243.207
80806.968
81340.439
82101.952
82928.713
83983.361
85200.617
86665.606
88357.102
90291.305
92403.905
94588.167
96675.32
98504.482
99973.18
101040.38
101681.53
101962.73
102014.74
101925.65
101755.41
101555.52
101355.59
101174.7
101028.07
100931.9
100872.15
100834.85
100810.67
100790.82
100766.62
100730.21
100663.13
100463.88
100150.44
99968.528
99876.476
99836.403
99819.126
99812.234
78615.289
78697.468
78793.223
78904.884
79040.34
79237.812
79396.949
79707.769
79929.925
80369.572
80721.518
81314.042
81882.089
82682.696
83559.946
84670.208
85954.865
87492.509
89262.174
91268.01
93430.121
95621.118
97663.057
99405.267
100766.96
101695.92
102189.2
102353.98
102320.35
102157.31
101929.83
101686.08
101452.57
101246.96
101083.13
100972.84
100902.06
100856.64
100827.1
100802.46
100773.56
100731.38
100650.75
100411.37
100118.76
99953.637
99872.32
99838.467
99824.991
99818.554
78998.521
79086.392
79186.623
79307.295
79447.49
79659.456
79825.111
80155.249
80389.973
80853.649
81228.462
81851.277
82456.575
83298.7
84229.649
85398.797
86754.104
88367.274
90216.161
92290.435
94492.115
96674.076
98654.995
100300.96
101542.58
102317.36
102663.45
102725.79
102605.15
102371.53
102090.3
101805.72
101541.15
101312.91
101133.27
101009.98
100929.24
100876.65
100842.2
100812.97
100780.28
100731.83
100633.66
100356.49
100089.85
99941.905
99870.367
99840.791
99830.85
99825.848
79402.033
79496.415
79601.643
79732.375
79877.421
80104.978
80277.587
80627.988
80876.416
81365.537
81765.098
82419.793
83065.207
83951.441
84939.426
86170.864
87600.136
89291.562
91219.848
93357.404
95586.189
97742.078
99647.424
101189.27
102289.64
102899.6
103111.01
103075.36
102868.86
102568.55
102237.14
101914.74
101621.62
101372.7
101178.5
101043.43
100953.91
100895.05
100855.96
100822.28
100786.57
100731.96
100610.48
100302.48
100063.07
99931.984
99869.61
99843.956
99836.114
99834.077
79826.65
79928.593
80039.548
80181.328
80330.336
80574.481
80754.881
81126.688
81390.061
81905.928
82332.563
83020.837
83709.391
84642.573
85691.038
86988.309
88494.855
90266.891
92273.369
94466.537
96707.44
98819.821
100636.92
102061.98
102999.94
103442.36
103535.72
103400.05
103111.51
102748.67
102370.71
102013.5
101694.27
101426.56
101219
101073.38
100976.2
100911.87
100868.4
100830.4
100791.09
100729.35
100578.05
100253.09
100038.63
99923.044
99869.446
99847.795
99841.133
99842.879
80273.647
80383.748
80500.206
80653.411
80807.372
81069.125
81258.052
81652.366
81931.902
82475.656
82932.144
83655.864
84390.743
85373.882
86486.426
87853.255
89440.4
91294.829
93376.551
95614.935
97850.888
99902.807
101620.89
102908
103667.11
103952.33
103934.76
103699.6
103333.47
102912.39
102491.5
102102.44
101759.48
101474.75
101255.02
101100.04
100996.26
100927.12
100879.65
100837.58
100793.35
100722.05
100533.34
100211.19
100017.29
99915.076
99869.58
99851.963
99846.306
99851.852
80744.584
80863.191
80984.656
81150.166
81309.135
81589.491
81787.604
82205.583
82503.113
83076.169
83565.29
84326.489
85110.991
86147.395
87327.809
88768.086
90438.965
92376.482
94528.119
96798.339
99010.918
100986.46
102593.64
103716.17
104288.08
104435.87
104304.54
103974.14
103535.24
103060.26
102600.05
102182.05
101817.59
101517.46
101286.79
101123.62
101014.19
100940.85
100889.8
100844.25
100794.37
100709.52
100479.29
100175.41
99999.892
99909.854
99870.973
99856.469
99851.773
99860.897
81237.995
81365.871
81492.528
81671.334
81835.55
82135.83
82344.26
82787.502
83105.16
83709.096
84233.539
85034.41
85872.05
86965.379
88217.713
89735.458
91492.858
93512.648
95726.121
98012.023
100182.5
102067.15
103543.9
104478.85
104868.65
104890.47
104644.8
104224.19
103717.51
103192.96
102697
102252.82
101868.87
101554.83
101314.49
101144.32
101030.12
100953.08
100898.9
100850.71
100794.75
100691.56
100421.5
100143.13
99986.009
99907.412
99873.676
99861.669
99857.676
99870.041
81753.069
81891.356
82023.914
82217.517
82387.9
82709.865
82929.951
83399.942
83739.506
84375.701
84938.439
85781.485
86676.193
87830.569
89159.017
90758.236
92604.055
94703.209
96967.058
99250.238
101360.12
103140.72
104457.81
105189.6
105417.49
105311.82
104955.66
104450.39
103881.03
103311.26
102782.97
102315.11
101913.41
101586.87
101338.21
101162.27
101044.13
100963.86
100906.84
100856.64
100794.7
100667.23
100363.6
100113.23
99974.405
99906.452
99877.484
99867.517
99864.034
99879.29
82293.379
82442.969
82581.855
82792.114
82969.08
83313.732
83546.067
84043.882
84407.377
85077.247
85681.818
86570.145
87526.275
88746.079
90154.945
91839.381
93774.357
95947.247
98246.833
100507.37
102538.75
104197.61
105325.19
105851.8
105933.99
105698.8
105237.79
104653.64
104026.74
103415.98
102858.55
102369.21
101951.37
101613.86
101358.15
101177.57
101056.36
100973.3
100913.59
100860.14
100791.59
100633.93
100309.11
100085.72
99964.17
99906.229
99881.873
99873.736
99870.78
99888.594
82860.144
83022.174
83167.729
83394.839
83578.835
83947.364
84192.685
84719.893
85109.949
85815.747
86466.275
87403.53
88425.664
89715.488
91208.994
92981.747
95004.747
97242.379
99559.969
101777.43
103713.37
105223.45
106137.53
106473.41
106414.06
106051.54
105492
104834.95
104155.62
103507.87
102924.16
102415.38
101983.32
101636.66
101374.79
101190.36
101066.9
100981.59
100919.42
100861.82
100784.09
100589.04
100261.53
100061.42
99955.179
99906.465
99886.915
99880.401
99877.886
99897.932
83453.032
83628.815
83781.621
84025.925
84216.831
84610.872
84870.694
85429.706
85849.864
86594.308
87295.26
88285.339
89378.13
90742.618
92324.746
94188.006
96295.412
98585.27
100900.67
103054.71
104878.11
106203.61
106892.46
107059.23
106854.65
106370.78
105719.42
104995.51
104268.68
103587.59
102980.23
102454.31
102010.64
101656.77
101389.09
101200.95
101075.86
100988.93
100924.9
100862.51
100771.18
100533.72
100222.03
100041.12
99948.241
99908.081
99892.725
99887.543
99885.376
99907.262
84068.631
84259.455
84419.552
84683.495
84883.467
85306.578
85583.463
86177.098
86630.678
87416.672
88172.593
89219.579
90387.679
91831.544
93505.803
95460.159
97645.101
99970.924
102262.33
104332.68
106018.51
107127.81
107596.11
107605.66
107255.68
106657.48
105921.3
105136.49
104366.76
103655.67
103027.41
102487.36
102035.08
101674.99
101401.83
101209.95
101083.38
100995.45
100930.37
100862.78
100752.33
100474.39
100187.39
100025.46
99944.808
99910.682
99898.755
99894.926
99893.482
99916.512
84716.381
84922.065
85089.874
85376.635
85585.889
86039.943
86335.357
86965.781
87456.673
88286.597
89102.301
90210.47
91458.586
92986.454
94755.626
96799.462
99051.37
101393.52
103638.4
105605.1
107117.91
107987.74
108259
108107.39
107617.87
106913
106099.05
105259.05
104450.59
103712.79
103066.97
102516.34
102056.85
101689.02
101412.06
101217.97
101089.71
101001.08
100935.33
100862.18
100726.91
100415.13
100156.47
100013.1
99943.244
99914.127
99904.439
99901.476
99902.689
99925.639
85394.262
85618.23
85795.529
86106.439
86325.497
86812.817
87129.037
87799.335
88331.222
89208.152
90088.592
91262.588
92595.521
94211.711
96077.203
98205.837
100509.99
102846.03
105021.18
106860.97
108161.34
108786.89
108878.51
108563.71
107942.32
107138.81
106254.05
105364.1
104520.93
103760.23
103100.83
102542.05
102072
101696.36
101417.57
101224.84
101095.21
101005.68
100938.01
100858.96
100693.41
100359.71
100128.78
100002.73
99942.701
99918.121
99910.162
99907.696
99912.014
99934.587
86108.896
86352.321
86538.337
86875.985
87105.149
87628.262
87968.219
88680.989
89258.947
90185.831
91136.229
92381.043
93803.337
95511.536
97472.782
99677.825
102015.5
104321.31
106403.02
108082.94
109137.9
109534.37
109449.75
108975.28
108230.6
107336.62
106387.62
105452.67
104579.18
103800.16
103130.58
102561.86
102079.66
101699.4
101420
101228.68
101100.2
101009.42
100939.25
100851.52
100648.89
100312.03
100104.89
99993.93
99942.656
99922.439
99916.046
99913.982
99921.071
99943.203
86858.871
87124.225
87319.472
87687.543
87928.223
88490.632
88858.004
89614.597
90244.128
91224.842
92250.597
93571.298
95087.144
96889.853
98943.432
101212.06
103560.79
105811.09
107775.18
109251.61
110043.67
110234.42
109969.19
109343.23
108484.42
107508.03
106501.02
105526.2
104627.73
103834.86
103155.42
102572.66
102082.77
101700.54
101420.93
101230.5
101104.63
101012.86
100939.75
100838.27
100593.45
100273.08
100085.66
99987.956
99944.13
99927.295
99922.067
99920.342
99929.902
99951.303
87649.551
87939.744
88144.884
88547.09
88800.214
89404.778
89802.924
90605.631
91292.344
92331.023
93437.548
94839.013
96451.849
98349.806
100488.67
102803.56
105137.93
107306.13
109121.1
110352.88
110885.17
110882.65
110437.23
109669.3
108705.7
107654.63
106595.77
105587.13
104669.28
103864.11
103169.93
102577.41
102083.88
101700.42
101420.99
101231.28
101107.52
101016.44
100939.86
100818.42
100534.1
100239.02
100070.84
99985.176
99947.061
99932.725
99928.27
99926.902
99938.58
99958.808
88487.308
88804.75
89019.114
89458.91
89725.331
90375.001
90808.128
91659.638
92409.722
93510.743
94703.131
96189.985
97902.151
99893.44
102106.05
104445.19
106737.72
108795.85
110419.36
111375.66
111673.52
111472.29
110854.95
109955.41
108896.35
107778.05
106674.01
105638.36
104704.11
103882.06
103176.9
102579.4
102083.15
101698.22
101419.56
101231.5
101109.16
101019.42
100938.62
100792.01
100474.83
100208.61
100059.08
99984.12
99950.868
99938.604
99934.783
99933.764
99947.116
99965.792
89373.189
89721.376
89944.733
90426.645
90708.277
91406.629
91879.892
92783.529
93603.148
94770.729
96053.622
97629.902
99442.108
101521.31
103791.14
106128.47
108349.86
110266.89
111650.04
112323.57
112404.63
112003.24
111224.27
110203.84
109058.42
107880.47
106738.69
105681.19
104726.8
103890.96
103179.94
102579.54
102079.88
101694.02
101416.71
101230.92
101110.16
101021.06
100935.2
100758.03
100419.05
100181.51
100049.29
99983.931
99955.314
99944.904
99941.603
99940.864
99955.562
99972.409
90311.351
90695.03
90927.658
91457.171
91756.704
92506.91
93025.472
93984.163
94879.49
96117.71
97495.209
99164.298
101074.82
103231.91
105537.04
107843.21
109961.84
111696.25
112798.28
113206.64
113071.84
112476.45
111547.35
110416.87
109194.1
107964.84
106792.6
105711.95
104738.62
103894.89
103180.57
102576.98
102074.2
101687.97
101412.61
101229.4
101110.93
101021.81
100927.9
100713.33
100370.61
100158.15
100041.42
99984.616
99960.356
99951.542
99948.652
99948.043
99964.209
99978.645
91311.208
91735.041
91976.136
92558.65
92879.015
93683.322
94252.102
95268.063
96245.363
97558.663
99034.314
100798.16
102801.88
105021.33
107334.8
109577.87
111560.19
113059.83
113860.96
114026.43
113672.23
112893.94
111826.83
110596.99
109306.15
108034.57
106835.92
105729.36
104743.98
103895.73
103178.35
102571.81
102066.32
101680.27
101407.36
101227.13
101111.7
101022.08
100914.36
100657.7
100331.42
100138.89
100035.74
99986.44
99965.692
99958.219
99955.755
99955.655
99973.199
99984.192
92378.772
92848.306
93096.547
93737.385
94081.98
94941.382
95567.988
96642.733
97707.782
99100.962
100677.58
102535.95
104622.82
106882.83
109172.98
111317.99
113122.05
114338.15
114845.52
114776.31
114206.47
113258.07
112065.41
110746.99
109397.91
108091.56
106862.95
105737.67
104745.35
103893.16
103173.2
102564.27
102056.51
101671.11
101400.94
101224.39
101112.6
101021.31
100893.71
100599.13
100297.33
100123.27
100032.01
99989.003
99970.949
99964.379
99962.197
99965.487
99981.305
99989.171
93519.87
94041.872
94295.579
94999.691
95372.406
96287.243
96980.077
98116.162
99274.641
100752.88
102431.81
104380.4
106534.17
108806.62
111038.22
113047.42
114620.42
115520.44
115759.49
115450.49
114676.55
113571.86
112266.18
110870.29
109472.95
108133.21
106876.8
105740.64
104742.7
103887.16
103165.41
102554.65
102045
101660.6
101393.33
101221.48
101113.41
101019.1
100866.62
100541.42
100267.23
100110.89
100029.92
99992.068
99976.209
99970.463
99968.571
99976.484
99988.269
99993.569
94742.465
95323.707
95579.991
96350.708
96756.803
97728.012
98495.737
99697.843
100955.75
102523.57
104302.99
106331.8
108528.88
110779.58
112913.72
114743.93
116029.91
116611.36
116595.91
116049.19
115085.14
113838.54
112432.54
110970.68
109533.08
108158.16
106883.22
105739.09
104736
103878.13
103155.34
102543.25
102031.94
101648.58
101385.04
101218.43
101114.04
101015.23
100833.09
100487.21
100240.61
100100.91
100029.14
99995.684
99981.992
99977.25
99975.717
99986.497
99994.408
99997.554
96052.189
96698.963
96954.676
97794.11
98242.48
99274.16
100126.96
101400.76
102762.67
104422
106294.93
108386.37
110595.76
112785.81
114779.95
116376.81
117333.24
117622.65
117346.45
116574.34
115435.77
114061.93
112568.68
111051.88
109574.53
108170.95
106884.22
105732.73
104725.76
103866.52
103143.32
102530.35
102017.4
101634.88
101376.64
101215.29
101114.51
101008.49
100791.19
100439.48
100217.51
100092.57
100029.05
100000.07
99988.69
99984.992
99984.025
99994.728
99999.847
100001.37
97451.692
98170.979
98427.837
99338.775
99842.894
100942
101889.85
103239.7
104706.55
106454.73
108407.3
110535.63
112719.21
114805.42
116613.19
117915.16
118532.48
118546.32
118010.93
117028.94
115732.3
114246.2
112679.06
111115.55
109598.67
108176.1
106879.72
105722.18
104712.52
103852.75
103129.72
102516.3
102001.53
101620.02
101368.19
101211.93
101114.54
100996.55
100738.77
100401.46
100198.26
100085.98
100029.93
100005.19
99995.918
99993.005
99992.551
100001.27
100005.14
100005.86
98962.738
99757.645
100022.76
101007.74
101581.79
102747.76
103799.34
105227.74
106796.11
108624.2
110634.54
112765.47
114879.52
116814.13
118377.86
119336.5
119640.6
119372.65
118591.29
117417.05
115979.36
114396.22
112767.41
111158.03
109611.16
108175.26
106870.23
105708.12
104696.85
103837.24
103114.86
102501.42
101984.42
101604.57
101359.85
101208.18
101112.96
100978.03
100683.79
100368.39
100182.3
100081.36
100031.92
100010.6
100002.84
100000.44
99999.936
100007.5
100010.92
100011.48
100592.32
101473.19
101764.31
102826.79
103481.18
104711.24
105867.69
107374.16
109035.98
110928.02
112965.32
115056.43
117052.3
118784.01
120038.4
120641.03
120648.48
120100.82
119090.92
117743.33
116182.01
114516.98
112834.28
111182.41
109615.54
108168.39
106856.56
105691.23
104679.25
103820.38
103099.05
102485.85
101965.79
101589.13
101351.51
101204.24
101109.97
100953.43
100629.64
100338.67
100169.1
100078.43
100034.66
100016
100009.27
100007.22
100006.78
100013.74
100016.9
100017.4
102386.52
103360.54
103685.15
104816.41
105556
106846.65
108106.17
109685.41
111426.57
113357.68
115381.35
117383.23
119206.91
120674.04