/*--------------------------------*- C++ -*----------------------------------*\
  =========                 |
  \\      /  F ield         | OpenFOAM: The Open Source CFD Toolbox
   \\    /   O peration     | Website:  https://openfoam.org
    \\  /    A nd           | Version:  8
     \\/     M anipulation  |
\*---------------------------------------------------------------------------*/
FoamFile
{
    version     2.0;
    format      ascii;
    class       surfaceScalarField;
    location    "0.229992";
    object      phi;
}
// * * * * * * * * * * * * * * * * * * * * * * * * * * * * * * * * * * * * * //

dimensions      [1 0 -1 0 0 0 0];

internalField   nonuniform List<scalar> 
39600
(
0.00013562093
-0.0079970297
0.0079260612
0.00015482032
-0.011411624
0.011393348
0.00017784305
-0.015177727
0.015156089
0.00020557173
-0.019854192
0.019828627
0.00024896507
-0.025840608
0.025799865
0.00017498733
-0.033216076
0.033293081
-9.3334306e-05
-0.039957142
0.040228761
-0.0004219753
-0.048251775
0.04858433
-0.00081268688
-0.057442896
0.057838432
-0.0012817083
-0.069089265
0.069564036
-0.001838501
-0.082484589
0.083048333
-0.0025088411
-0.09901684
0.099695449
-0.0033035373
-0.11837292
0.11917781
-0.00425956
-0.14193602
0.14290422
-0.0053937484
-0.16980515
0.17095436
-0.006754686
-0.20346757
0.20484643
-0.0083712162
-0.24348823
0.24512638
-0.01030516
-0.29161472
0.29357357
-0.012601857
-0.34898911
0.35131636
-0.015343481
-0.41778926
0.42056815
-0.018605111
-0.49990968
0.50321782
-0.022498257
-0.59817753
0.60212919
-0.027143162
-0.71547711
0.72019491
-0.032688579
-0.8555953
0.86123323
-0.039331238
-1.0227323
1.0294893
-0.047206575
-1.2219351
1.2299602
-0.056642918
-1.4593676
1.4689779
-0.068040872
-1.7420363
1.7536467
-0.081810368
-2.0783315
2.0923387
-0.098351861
-2.4788268
2.4956373
-0.1181139
-2.9563365
2.9763988
-0.14157272
-3.5266006
3.550395
-0.16922954
-4.2087104
4.236753
-0.2016365
-5.0256259
5.058471
-0.23940258
-6.0051065
6.0433878
-0.28321314
-7.1803466
7.2247164
-0.33372006
-8.5907865
8.6419182
-0.39153159
-10.284111
10.342595
-0.45698463
-12.317157
12.383363
-0.53002128
-14.75875
14.832729
-0.61011956
-17.689183
17.770706
-0.69571104
-21.206189
21.292708
-0.78286138
-25.427326
25.514634
-0.86421042
-30.49433
30.575038
-0.93099305
-36.579882
36.645209
-0.96645705
-43.889855
43.924355
-0.93607188
-52.655503
52.630361
-0.82578736
-63.12501
63.052485
-0.53329741
-75.856108
75.560982
-90.846231
90.515605
7.153771e-05
-0.0080184369
9.2303633e-05
-0.011431131
0.00011441669
-0.015198627
0.00013736629
-0.019875512
0.00017205526
-0.025872597
7.4733983e-05
-0.033115699
-0.00018439504
-0.039694635
-0.00049860952
-0.047933497
-0.00087048742
-0.05706615
-0.0013198924
-0.068634094
-0.001852541
-0.08194476
-0.0024950744
-0.098365785
-0.003256364
-0.11760117
-0.0041731631
-0.1410067
-0.0052598091
-0.16870329
-0.0065647879
-0.20214426
-0.0081123207
-0.24191873
-0.0099648783
-0.28973575
-0.012164097
-0.34675812
-0.014792778
-0.41512217
-0.017922951
-0.496732
-0.021666647
-0.59437471
-0.026133122
-0.71093706
-0.031464933
-0.85017043
-0.037849702
-1.0162321
-0.045433875
-1.2142026
-0.05459339
-1.4500316
-0.065735535
-1.7306845
-0.079210405
-2.0646173
-0.095438494
-2.4623297
-0.11485723
-2.9366165
-0.13792802
-3.5031931
-0.16513382
-4.1811181
-0.19700595
-4.9933145
-0.23413734
-5.9674615
-0.27720414
-7.1367208
-0.32683028
-8.5405324
-0.38363456
-10.226633
-0.44795147
-12.252082
-0.51974754
-14.685976
-0.59869233
-17.608813
-0.68317713
-21.1207
-0.76910812
-25.34105
-0.84993662
-30.413985
-0.91744786
-36.514156
-0.95495483
-43.854048
-0.93084552
-52.679307
-0.82780993
-63.28127
-0.54964607
-76.121724
-91.441515
5.8743258e-05
-0.0080374744
7.8801875e-05
-0.011449919
0.00010196439
-0.015220388
0.00012697952
-0.019898405
0.00016159032
-0.025904351
5.1520019e-05
-0.03300259
-0.00019993388
-0.039439748
-0.00050419877
-0.047625145
-0.00086411087
-0.056701106
-0.0012989169
-0.068193185
-0.0018134953
-0.081422722
-0.002434692
-0.097735758
-0.0031694618
-0.11685554
-0.0040551835
-0.14010808
-0.0051039405
-0.16763883
-0.0063638445
-0.20086562
-0.0078570448
-0.2404028
-0.0096450644
-0.2879207
-0.011768976
-0.344601
-0.014311907
-0.41253866
-0.017342909
-0.49365069
-0.020966541
-0.59068872
-0.025284452
-0.70654163
-0.030449187
-0.84490967
-0.036597992
-1.0099624
-0.043970202
-1.2066811
-0.052946136
-1.4408827
-0.06386679
-1.7195532
-0.07709699
-2.0511479
-0.093060642
-2.4460974
-0.11217991
-2.917197
-0.13489854
-3.4801381
-0.16168235
-4.1539493
-0.19304707
-4.9615103
-0.22957293
-5.9304242
-0.27191464
-7.0938195
-0.32069993
-8.4911165
-0.37654631
-10.170111
-0.43979272
-12.188071
-0.51042194
-14.614314
-0.58830272
-17.529501
-0.67166613
-21.036201
-0.75665261
-25.25551
-0.83723126
-30.333499
-0.90553484
-36.447921
-0.94534377
-43.816835
-0.93087126
-52.696872
-0.83181923
-63.417484
-0.56976537
-76.306385
-91.979042
4.7173289e-05
-0.0080566881
6.7773197e-05
-0.011469534
9.2206576e-05
-0.015243802
0.00011935922
-0.01992359
0.0001504316
-0.025932959
2.6608276e-05
-0.032875634
-0.00021606463
-0.039193745
-0.00050941657
-0.04732746
-0.00085594126
-0.056349511
-0.0012753384
-0.067767578
-0.0017707148
-0.080919672
-0.0023698247
-0.097127501
-0.0030776531
-0.11613652
-0.0039318274
-0.13924068
-0.0049421522
-0.16661238
-0.006156574
-0.19963194
-0.0075958948
-0.23894006
-0.0093212724
-0.2861671
-0.01137487
-0.34251336
-0.01383504
-0.41003729
-0.016765844
-0.4906691
-0.020263923
-0.58712778
-0.024438254
-0.70228957
-0.029398515
-0.83985105
-0.035345315
-1.0038951
-0.042560195
-1.1993215
-0.051356189
-1.4319135
-0.062066058
-1.7086339
-0.075078038
-2.0378972
-0.090802059
-2.4301057
-0.10964914
-2.8980511
-0.13204371
-3.4574082
-0.15843735
-4.127173
-0.18932901
-4.9301804
-0.22529326
-5.8939513
-0.26696519
-7.0515885
-0.3149752
-8.4424752
-0.36993432
-10.114477
-0.4321973
-12.125036
-0.50176749
-14.543649
-0.57860824
-17.451291
-0.66100953
-20.952572
-0.74533452
-25.170307
-0.8259642
-30.252324
-0.89520224
-36.380761
-0.93754636
-43.778253
-0.93023793
-52.709081
-0.83832056
-63.533704
-0.59397148
-76.55707
-92.457666
3.9287335e-05
-0.0080755219
6.2384025e-05
-0.011489399
8.9867335e-05
-0.015268736
0.00012096161
-0.019951809
0.0001471291
-0.025956031
1.2222523e-05
-0.032737371
-0.00022187562
-0.038956035
-0.00050535885
-0.047039668
-0.00083921791
-0.056010359
-0.0012439195
-0.067356541
-0.0017210546
-0.080434813
-0.0022990276
-0.096540334
-0.0029805759
-0.11544367
-0.0038036636
-0.1384041
-0.004775832
-0.16562372
-0.0059451909
-0.19844285
-0.0073319103
-0.23752941
-0.0089985601
-0.28447191
-0.010983986
-0.34049297
-0.013360733
-0.40761774
-0.016183978
-0.48779296
-0.019560948
-0.58368617
-0.023555885
-0.69821321
-0.028339634
-0.83496745
-0.034140429
-0.99797536
-0.041201296
-1.1921152
-0.049816905
-1.4231256
-0.060338815
-1.6979038
-0.073155464
-2.0248438
-0.088666652
-2.4143297
-0.10726765
-2.8791545
-0.12936765
-3.4349761
-0.15540242
-4.1007592
-0.18586046
-4.899287
-0.22129975
-5.8580073
-0.26235384
-7.0099766
-0.30964772
-8.3945503
-0.36380011
-10.05965
-0.42517034
-12.062881
-0.4938182
-14.473837
-0.56968174
-17.374158
-0.65128512
-20.869762
-0.73520939
-25.085181
-0.81600918
-30.170278
-0.88642086
-36.312184
-0.93157852
-43.736592
-0.92985825
-52.718073
-0.84725851
-63.632285
-0.6202639
-76.815487
-92.901362
2.8180021e-05
-0.0080955078
4.9686463e-05
-0.011510748
7.8777869e-05
-0.015296449
0.00011463322
-0.01998571
0.00013432704
-0.025973031
-7.7715336e-06
-0.032592151
-0.00023195792
-0.038728318
-0.0005045009
-0.046762668
-0.00082533615
-0.055684231
-0.0012153761
-0.06696014
-0.0016743451
-0.079967985
-0.0022311868
-0.095974171
-0.0028866281
-0.11477677
-0.0036789285
-0.13759819
-0.0046141238
-0.16467184
-0.0057406386
-0.19729637
-0.0070774483
-0.23616823
-0.0086860198
-0.2828339
-0.010603173
-0.33854016
-0.012886699
-0.40529175
-0.015608585
-0.48501808
-0.018827232
-0.58040121
-0.022671043
-0.69428832
-0.027326415
-0.83021547
-0.032990626
-0.99219208
-0.039892054
-1.1850698
-0.048344575
-1.4145015
-0.058701916
-1.6873395
-0.071349547
-2.011961
-0.086673922
-2.3987424
-0.10505664
-2.8604786
-0.12689
-3.412813
-0.15259745
-4.074676
-0.18265627
-4.8687958
-0.21761608
-5.8225464
-0.25810996
-6.9689266
-0.30475504
-8.3472751
-0.35817387
-10.005556
-0.41874314
-12.001511
-0.48661292
-14.404779
-0.56161347
-17.297944
-0.64253436
-20.787656
-0.72627362
-25.000024
-0.80744889
-30.087272
-0.87925657
-36.240334
-0.92750489
-43.690197
-0.93167285
-52.722116
-0.85875154
-63.715201
-0.64869362
-77.042072
-93.321003
2.0468511e-05
-0.0081138941
4.3604989e-05
-0.011531645
7.4274923e-05
-0.015324691
0.0001154249
-0.020023951
0.00012520222
-0.025979676
-2.304656e-05
-0.032440526
-0.00023915931
-0.03850839
-0.00050243513
-0.046494905
-0.00081111684
-0.05537004
-0.0011869042
-0.06657786
-0.0016276319
-0.079519343
-0.0021631692
-0.095429281
-0.0027923714
-0.11413609
-0.0035545791
-0.13682229
-0.0044549993
-0.16375461
-0.0055418542
-0.1961893
-0.0068299528
-0.23485551
-0.0083772979
-0.28125697
-0.010217681
-0.33666384
-0.012412742
-0.40305178
-0.014996033
-0.48237987
-0.018088316
-0.57724182
-0.021820781
-0.69047618
-0.026360304
-0.82557827
-0.031878323
-0.9865555
-0.038633809
-1.1781717
-0.046943238
-1.4060227
-0.057160173
-1.6769185
-0.069664013
-1.9992261
-0.084829205
-2.3833189
-0.1030203
-2.8419992
-0.12461552
-3.3908929
-0.1500281
-4.0488927
-0.17972573
-4.8386706
-0.21425405
-5.7875221
-0.25423283
-6.9283947
-0.30029001
-8.3005906
-0.35306032
-9.9521099
-0.41292206
-11.940827
-0.48011326
-14.336391
-0.55441987
-17.222457
-0.63480497
-20.706101
-0.71853203
-24.914823
-0.80028323
-30.003384
-0.87373104
-36.1662
-0.92539023
-43.639377
-0.93567232
-52.719169
-0.87151416
-63.781172
-0.67963719
-77.247238
-93.715186
1.1260591e-05
-0.0081322583
3.4020562e-05
-0.011552743
6.5833752e-05
-0.015354179
0.00011302491
-0.020068675
0.00011216488
-0.025975601
-3.853337e-05
-0.032286537
-0.00024559475
-0.038297462
-0.00049856452
-0.046237357
-0.00079445212
-0.05506866
-0.0011555424
-0.066210314
-0.0015778866
-0.079089045
-0.0020925724
-0.094905222
-0.0026968469
-0.1135203
-0.0034309509
-0.13607452
-0.0042980561
-0.16287071
-0.005347124
-0.19512006
-0.0065843835
-0.2335935
-0.0080734833
-0.27973812
-0.0098263389
-0.33487392
-0.011905999
-0.4009275
-0.014385613
-0.4798456
-0.017382093
-0.5741805
-0.021013955
-0.6867645
-0.025421795
-0.82107373
-0.030805816
-0.98105347
-0.037432064
-1.1714043
-0.045619791
-1.3976667
-0.0557211
-1.666615
-0.068108405
-1.9866101
-0.083140046
-2.3680318
-0.10116747
-2.8236868
-0.12255394
-3.3691852
-0.14770258
-4.0233776
-0.17707345
-4.8088764
-0.21121175
-5.7528925
-0.25073539
-6.8883212
-0.29628036
-8.2544216
-0.34847461
-9.8992375
-0.40772169
-11.880734
-0.47434634
-14.268568
-0.54810749
-17.147545
-0.62815548
-20.624964
-0.71201147
-24.829543
-0.79458573
-29.918641
-0.86993578
-36.089737
-0.92530442
-43.584856
-0.94191185
-52.707731
-0.8859854
-63.834636
-0.71339365
-77.433074
-94.08251
4.7626994e-06
-0.0081503124
2.8040842e-05
-0.011573775
6.0945978e-05
-0.015384207
0.0001154283
-0.020120215
0.00010309201
-0.02595977
-4.7310064e-05
-0.032132747
-0.00024554454
-0.038095236
-0.00048824433
-0.045990134
-0.00077155934
-0.054779768
-0.001118419
-0.065856983
-0.0015241024
-0.078675425
-0.0020209658
-0.094399036
-0.002602531
-0.11292725
-0.003310942
-0.13535246
-0.0041419135
-0.16202294
-0.0051484865
-0.19409354
-0.0063405904
-0.23237683
-0.0077488707
-0.27829983
-0.0094134992
-0.33317244
-0.011408784
-0.39888738
-0.013813322
-0.4773877
-0.016719692
-0.57120886
-0.020230256
-0.68317457
-0.024514721
-0.81669338
-0.029778518
-0.9756736
-0.036294028
-1.1647508
-0.044383165
-1.3894131
-0.054394022
-1.6564068
-0.066690805
-1.9740903
-0.081616409
-2.352857
-0.099506433
-2.8055181
-0.12071282
-3.3476638
-0.14563036
-3.9980999
-0.17471728
-4.7793723
-0.2085103
-5.7186142
-0.24763534
-6.8486512
-0.2927282
-8.20871
-0.34443203
-9.8468527
-0.40316984
-11.821121
-0.46933836
-14.201213
-0.54270522
-17.073053
-0.62261602
-20.544061
-0.70675586
-24.744076
-0.79039236
-29.832942
-0.86791848
-36.010875
-0.92729124
-43.525512
-0.95054794
-52.686967
-0.90392406
-63.877756
-0.75026819
-77.600105
-94.424164
-3.5588406e-06
-0.0081688406
1.9562988e-05
-0.011595368
5.2534806e-05
-0.015415151
0.00011447425
-0.020179646
9.0666701e-05
-0.025932935
-5.6551634e-05
-0.031982243
-0.00024645699
-0.037901512
-0.00047830246
-0.045753693
-0.00074971434
-0.05450284
-0.0010827438
-0.065517475
-0.001474159
-0.078276073
-0.0019570984
-0.093906822
-0.0025134197
-0.11235946
-0.0031941999
-0.13465816
-0.0039925669
-0.16120791
-0.0049460178
-0.19311976
-0.0060671098
-0.23123109
-0.0074137201
-0.27692335
-0.0090084279
-0.33154169
-0.010947469
-0.39690504
-0.013273832
-0.47500816
-0.016079833
-0.56833827
-0.019481493
-0.67969419
-0.023650423
-0.81242945
-0.028808344
-0.97040072
-0.035233418
-1.1581894
-0.04324654
-1.381237
-0.053193582
-1.6462643
-0.065426082
-1.9616379
-0.080272071
-2.3377652
-0.098051961
-2.7874634
-0.11910676
-3.3262983
-0.14382568
-3.9730256
-0.17266304
-4.7501227
-0.20616164
-5.6846356
-0.24493821
-6.8093343
-0.28965369
-8.1633813
-0.34095988
-9.7948625
-0.39928669
-11.761889
-0.46513075
-14.13421
-0.53825594
-16.998836
-0.61820117
-20.463192
-0.70279855
-24.658305
-0.78777199
-29.746071
-0.86774208
-35.929503
-0.93140544
-43.460547
-0.96172851
-52.656676
-0.92574526
-63.910131
-0.79022069
-77.745855
-94.745467
-1.0156971e-05
-0.0081863077
1.2333068e-05
-0.011615912
4.4742072e-05
-0.015445121
0.0001128073
-0.020244807
7.6118834e-05
-0.02589311
-6.782399e-05
-0.031834878
-0.00025087555
-0.037714534
-0.00047316523
-0.045526806
-0.0007350048
-0.054235489
-0.0010548796
-0.06519115
-0.0014306765
-0.077892453
-0.0018948363
-0.093433459
-0.0024281382
-0.11181481
-0.0030694556
-0.13400322
-0.0038193755
-0.16044132
-0.0047252039
-0.19219393
-0.0057974792
-0.23013434
-0.0070890812
-0.27560291
-0.0086429577
-0.32995255
-0.010508592
-0.39499618
-0.012747274
-0.47271685
-0.015459924
-0.56556177
-0.018765779
-0.67631099
-0.022836838
-0.80826548
-0.027902777
-0.96522304
-0.034256534
-1.1517036
-0.042218723
-1.3731169
-0.052127917
-1.6361657
-0.064323023
-1.9492297
-0.079115273
-2.3227343
-0.096811692
-2.7694993
-0.11774361
-3.3050626
-0.14229711
-3.9481236
-0.17092739
-4.7210871
-0.20417849
-5.650911
-0.24267016
-6.7703086
-0.28707577
-8.1183696
-0.33806488
-9.743187
-0.39609042
-11.702933
-0.46174839
-14.067445
-0.53481685
-16.924728
-0.61494344
-20.382182
-0.70018784
-24.572046
-0.78676377
-29.657957
-0.86945276
-35.845334
-0.93773293
-43.390385
-0.97548911
-52.617421
-0.95085489
-63.93231
-0.83368603
-77.870836
-95.029878
-1.6591305e-05
-0.0082035322
6.154931e-06
-0.01163663
3.8794837e-05
-0.015475178
0.00011234463
-0.02031545
6.4101241e-05
-0.025841657
-7.6634094e-05
-0.031690717
-0.00025106575
-0.037536187
-0.00046727659
-0.045306066
-0.0007178264
-0.053979481
-0.0010309186
-0.064871717
-0.0013834531
-0.077532023
-0.0018094071
-0.092998284
-0.0023090564
-0.11130396
-0.0029182157
-0.13338075
-0.0036385436
-0.15970462
-0.0045055109
-0.19130756
-0.0055431149
-0.22907312
-0.006795221
-0.27432215
-0.0082841422
-0.32842858
-0.010075212
-0.3931625
-0.012232094
-0.47050793
-0.014855616
-0.56287517
-0.018074097
-0.67301598
-0.022064584
-0.80418304
-0.027060327
-0.96011679
-0.033363036
-1.1452706
-0.041299811
-1.3650239
-0.051197548
-1.6260813
-0.063381742
-1.936836
-0.078146364
-2.307735
-0.095786957
-2.7515954
-0.11662767
-3.2839229
-0.14104913
-3.9233588
-0.1695122
-4.6922241
-0.20256119
-5.6173943
-0.2408294
-6.7315123
-0.28499782
-8.0736025
-0.33575088
-9.6917455
-0.39365498
-11.644086
-0.459207
-14.000836
-0.53240189
-16.850496
-0.6128705
-20.30083
-0.69896224
-24.485061
-0.78741449
-29.568428
-0.87312088
-35.758118
-0.94635292
-43.31514
-0.99200302
-52.570225
-0.97929363
-63.945618
-0.88063487
-77.976486
-95.280699
-2.3314489e-05
-0.0082191853
-1.4132327e-06
-0.011656312
3.0575965e-05
-0.015504433
0.0001059375
-0.020387718
4.4915786e-05
-0.025777544
-9.5389932e-05
-0.031547011
-0.00026260812
-0.037365022
-0.0004734979
-0.045090653
-0.00070629695
-0.05374127
-0.00099450402
-0.06457728
-0.0013212203
-0.077197697
-0.0017233366
-0.092587233
-0.0022040246
-0.11081227
-0.0027886369
-0.13278337
-0.0034818276
-0.15899566
-0.0043262715
-0.19044416
-0.0053211841
-0.22805477
-0.0065169955
-0.27309823
-0.0079436968
-0.32696749
-0.009664477
-0.39139992
-0.011743912
-0.46837751
-0.014287154
-0.56027038
-0.017426895
-0.66980173
-0.021351395
-0.80016962
-0.026297758
-0.95506388
-0.032575321
-1.1388681
-0.040512552
-1.3569365
-0.050425305
-1.6159889
-0.062623768
-1.9244356
-0.077388282
-2.2927436
-0.095002611
-2.7337255
-0.11578121
-3.2628529
-0.14010484
-3.8986994
-0.16843935
-4.6634972
-0.20133828
-5.5840347
-0.23944444
-6.6928857
-0.28345174
-8.0290052
-0.33406801
-9.6404402
-0.39193171
-11.585288
-0.45754758
-13.934202
-0.53103672
-16.775974
-0.61204192
-20.218924
-0.69917883
-24.397129
-0.78978749
-29.477172
-0.87882185
-35.667946
-0.95736878
-43.234758
-1.0109251
-52.516391
-1.0111979
-63.950049
-0.93122635
-78.062946
-95.502335
-2.9272727e-05
-0.0082347343
-7.6031144e-06
-0.011676133
2.4374796e-05
-0.015534073
9.8185305e-05
-0.020458753
3.0565744e-05
-0.025706844
-0.0001007688
-0.031412408
-0.00025349438
-0.037208511
-0.00044470838
-0.044894898
-0.00066428676
-0.053516285
-0.0009372794
-0.064298176
-0.0012538409
-0.076873553
-0.0016446904
-0.092187758
-0.0021078489
-0.11033844
-0.0026788682
-0.13219967
-0.0033440446
-0.1583148
-0.0041462657
-0.18962306
-0.0050958942
-0.22708216
-0.0062398865
-0.27192656
-0.0076079098
-0.32556576
-0.0092624572
-0.38970428
-0.011273353
-0.46631654
-0.013746652
-0.55773625
-0.016819289
-0.66665568
-0.020689264
-0.79621139
-0.025609452
-0.95003864
-0.031888264
-1.1324657
-0.039850823
-1.3488256
-0.049807408
-1.6058552
-0.062048371
-1.9119963
-0.076838397
-2.2777308
-0.094449357
-2.7158633
-0.11519137
-3.2418244
-0.13945129
-3.8741091
-0.1676991
-4.6348625
-0.20050088
-5.550778
-0.23851029
-6.6543623
-0.28243926
-7.9844936
-0.33300783
-9.5891823
-0.39092881
-11.526445
-0.45675504
-13.867408
-0.53070219
-16.70105
-0.61250205
-20.136226
-0.70089028
-24.307917
-0.79392575
-29.383783
-0.88662785
-35.574638
-0.97087212
-43.149261
-1.0318798
-52.457864
-1.0464982
-63.942968
-0.98565711
-78.129799
-95.695082
-3.4151461e-05
-0.0082503723
-1.0232177e-05
-0.011698263
2.6587946e-05
-0.015568702
0.00010250693
-0.020531972
3.3005931e-05
-0.025634536
-8.8238997e-05
-0.031287914
-0.00023103546
-0.037062063
-0.00041571936
-0.044706026
-0.00062530384
-0.053301505
-0.00089482903
-0.064022683
-0.001202421
-0.076558562
-0.0015886175
-0.09179302
-0.0020306754
-0.10988569
-0.0025707615
-0.13164696
-0.0032025955
-0.15766738
-0.0039679468
-0.18883917
-0.0048755681
-0.2261519
-0.0059699953
-0.27080506
-0.0072829321
-0.32421993
-0.0088794145
-0.3880678
-0.010831149
-0.46431618
-0.013244859
-0.55526364
-0.01626232
-0.66356749
-0.020094207
-0.79229474
-0.025010103
-0.94502236
-0.031315385
-1.1260425
-0.03933051
-1.3406686
-0.049359254
-1.5956567
-0.061669934
-1.8994952
-0.07650612
-2.2626797
-0.094134217
-2.6979918
-0.11486779
-3.220812
-0.13909969
-3.8495542
-0.16730669
-4.6062761
-0.20006503
-5.5175719
-0.2380478
-6.6158732
-0.281975
-7.9399909
-0.33260354
-9.5378633
-0.39069143
-11.467449
-0.45685666
-13.800321
-0.53139595
-16.625588
-0.61420739
-20.052552
-0.70424997
-24.216944
-0.79989326
-29.287952
-0.8966141
-35.477699
-0.98698806
-43.058692
-1.056289
-52.394093
-1.0853674
-63.921844
-1.0440056
-78.176166
-95.858166
-3.7221741e-05
-0.0082675204
-1.1248986e-05
-0.011722528
2.9661851e-05
-0.015607504
0.00010618402
-0.020605891
3.1490426e-05
-0.025557203
-8.9169848e-05
-0.031164128
-0.00023066608
-0.036917109
-0.00041127552
-0.044521348
-0.00061522166
-0.053092436
-0.00087190059
-0.063760086
-0.0011652662
-0.076257833
-0.0015368002
-0.091412998
-0.0019534447
-0.10945846
-0.0024671088
-0.13112084
-0.0030701202
-0.15704902
-0.003801086
-0.18809001
-0.0046692494
-0.22526153
-0.0057180383
-0.26972974
-0.0069820426
-0.32292363
-0.0085270291
-0.38648361
-0.010424151
-0.46237121
-0.01278548
-0.55284432
-0.0157655
-0.66051757
-0.01958086
-0.78839552
-0.024512424
-0.93999149
-0.030871386
-1.119567
-0.03897001
-1.3324297
-0.049096249
-1.5853636
-0.06149456
-1.88691
-0.076398711
-2.2475648
-0.094069652
-2.6800821
-0.11482684
-3.199781
-0.13906811
-3.8249955
-0.16728074
-4.5776899
-0.20005577
-5.484355
-0.2380713
-6.5773581
-0.28208544
-7.8954064
-0.33287764
-9.486378
-0.39126283
-11.408171
-0.45789541
-13.732796
-0.53319038
-16.549416
-0.617251
-19.967668
-0.70923257
-24.124016
-0.80776082
-29.189211
-0.90887203
-35.376633
-1.0058078
-42.962976
-1.0842924
-52.322713
-1.1278554
-63.885267
-1.1065902
-78.201516
-95.991134
-4.1531689e-05
-0.0082844999
-1.4969326e-05
-0.011747368
2.8935069e-05
-0.015649289
0.00010303826
-0.020677396
2.6035247e-05
-0.025477638
-9.5738578e-05
-0.031039363
-0.00023154327
-0.036777794
-0.00040363274
-0.044345012
-0.00059705285
-0.05289397
-0.00084063261
-0.063510773
-0.0011186039
-0.075972641
-0.0014683068
-0.091054962
-0.0018678236
-0.10904858
-0.0023592837
-0.13061718
-0.0029359102
-0.1564574
-0.0036350215
-0.18737306
-0.0044664388
-0.2244084
-0.0054739392
-0.26869632
-0.006695621
-0.32167049
-0.0081923841
-0.38494881
-0.010039271
-0.46047807
-0.012358202
-0.55046965
-0.015316467
-0.65749232
-0.019140046
-0.78449206
-0.024111787
-0.93492532
-0.030552383
-1.1130158
-0.038765257
-1.324083
-0.049007365
-1.5749622
-0.061513783
-1.8742248
-0.076508629
-2.2323673
-0.094251468
-2.6621084
-0.11506365
-3.1787025
-0.13935251
-3.8003966
-0.16761798
-4.5490584
-0.20046585
-5.4510727
-0.23859217
-6.5387397
-0.28277936
-7.8506519
-0.33383379
-9.434623
-0.39265449
-11.34848
-0.45990056
-13.664679
-0.5361287
-16.472336
-0.62168927
-19.881319
-0.71585758
-24.028931
-0.81758722
-29.087258
-0.92346456
-35.271006
-1.0274249
-42.861641
-1.1158817
-52.241423
-1.1740745
-63.832572
-1.1734752
-78.205027
-96.093169
-4.6249801e-05
-0.0083006847
-1.9826774e-05
-0.011772177
2.6833357e-05
-0.015693901
9.636684e-05
-0.020744447
1.8713857e-05
-0.025397445
-0.0001006241
-0.030917114
-0.00022990366
-0.036645099
-0.00039562221
-0.044175337
-0.00057774599
-0.052706914
-0.00081419401
-0.063268755
-0.0010772094
-0.075702567
-0.0014080174
-0.090716089
-0.0017910001
-0.10865546
-0.0022613543
-0.13013494
-0.0028128701
-0.15589123
-0.0034820792
-0.18668653
-0.0042802263
-0.2235891
-0.0052516856
-0.26769947
-0.0064327032
-0.32045865
-0.0078849614
-0.38345913
-0.0096909574
-0.45862666
-0.01198111
-0.54812438
-0.01493193
-0.65447546
-0.01878398
-0.78056068
-0.023825252
-0.92979084
-0.030377765
-1.1063533
-0.038726988
-1.3156015
-0.049106757
-1.5644255
-0.061743472
-1.8614126
-0.076853035
-2.2170589
-0.094693949
-2.644041
-0.11559334
-3.1575417
-0.13996948
-3.7757157
-0.16833785
-4.5203295
-0.20131831
-5.4176639
-0.23963381
-6.4999384
-0.28407892
-7.80564
-0.33551248
-9.3824774
-0.39489809
-11.288249
-0.46292322
-13.5958
-0.54027813
-16.394141
-0.62755584
-19.793277
-0.72419807
-23.93142
-0.82946234
-28.981768
-0.94047312
-35.160417
-1.0519233
-42.754076
-1.1509443
-52.148653
-1.2241838
-63.762936
-1.2450313
-78.185864
-96.163619
-5.0513019e-05
-0.0083162297
-2.428597e-05
-0.011796856
2.5262505e-05
-0.015741478
8.7992371e-05
-0.020804729
1.0602282e-05
-0.025317631
-0.00010050658
-0.030803144
-0.00022246213
-0.036519836
-0.0003811628
-0.044012774
-0.00055526732
-0.052528012
-0.00078094636
-0.063037646
-0.0010321049
-0.075444508
-0.0013500407
-0.090390275
-0.0017149001
-0.10828071
-0.0021641336
-0.12967412
-0.0026919679
-0.15534918
-0.0033331463
-0.18602847
-0.0041018314
-0.22279979
-0.0050399401
-0.26673663
-0.0061831957
-0.31928542
-0.0075976048
-0.38200852
-0.0093754636
-0.45680507
-0.011651537
-0.54579553
-0.014614183
-0.65144992
-0.018513676
-0.77658597
-0.023652836
-0.92456361
-0.030344732
-1.0995571
-0.038849917
-1.3069702
-0.049390171
-1.5537356
-0.06217951
-1.8484555
-0.077427059
-2.2016202
-0.095392896
-2.6258561
-0.1164128
-3.1362674
-0.14091787
-3.7509128
-0.16944034
-4.4914536
-0.20262041
-5.3840629
-0.24119775
-6.4608824
-0.28600495
-7.760265
-0.33791949
-9.3298381
-0.39801148
-11.227341
-0.46700015
-13.525983
-0.54570067
-16.314605
-0.63486729
-19.703335
-0.73430277
-23.831169
-0.84345004
-28.872306
-0.95997443
-35.044513
-1.0787235
-42.640399
-1.189276
-52.042813
-1.2782942
-63.675972
-1.3213524
-78.14353
-96.202376
-5.2984322e-05
-0.0083326785
-2.5634674e-05
-0.011822741
2.8105149e-05
-0.015793329
8.4637563e-05
-0.020858938
4.4807714e-06
-0.025235287
-0.00010078818
-0.030695094
-0.00021511639
-0.036402275
-0.00036712125
-0.043856995
-0.00053299109
-0.052357422
-0.00074874876
-0.062816609
-0.00098845484
-0.075198047
-0.0012927206
-0.090078346
-0.001641344
-0.10792243
-0.0020713576
-0.12923287
-0.002577582
-0.1548291
-0.0031933129
-0.18539641
-0.0039347423
-0.22203825
-0.0048416813
-0.26580552
-0.0059531928
-0.3181445
-0.0073400165
-0.38058611
-0.0091009527
-0.45500101
-0.011378948
-0.54346538
-0.014372138
-0.64839445
-0.01834407
-0.77253947
-0.023608982
-0.91921142
-0.030462081
-1.0926006
-0.0391433
-1.2981642
-0.049866447
-1.5428653
-0.062829792
-1.8353278
-0.078238413
-2.1860244
-0.096356732
-2.607523
-0.11753155
-3.1148429
-0.1422086
-3.7259427
-0.17093872
-4.4623755
-0.20438222
-5.3502048
-0.2433035
-6.4214887
-0.2885656
-7.7144338
-0.34113476
-9.2765331
-0.40201632
-11.165673
-0.47215199
-13.455049
-0.55247879
-16.233447
-0.64366895
-19.611317
-0.74621648
-23.72789
-0.85961849
-28.758649
-0.98205999
-34.922954
-1.107972
-42.519827
-1.230985
-51.923747
-1.3366363
-63.571739
-1.4027093
-78.077855
-96.208475
-5.5507594e-05
-0.0083496394
-2.7343208e-05
-0.011849446
2.9793828e-05
-0.015848575
7.8853583e-05
-0.020905736
1.2980566e-06
-0.025155508
-0.00010069291
-0.030590394
-0.00021037127
-0.036289453
-0.00035641279
-0.04370728
-0.0005145783
-0.052194638
-0.00072122285
-0.062604853
-0.00095022752
-0.074962449
-0.0012419287
-0.089779211
-0.0015761079
-0.10757886
-0.0019884572
-0.1288096
-0.002475033
-0.15432908
-0.0030686231
-0.18478684
-0.0037851242
-0.22130215
-0.004664043
-0.26490304
-0.0057492768
-0.31703073
-0.0071171474
-0.37918381
-0.0088717519
-0.45320505
-0.011163397
-0.54112387
-0.014207962
-0.645291
-0.018284323
-0.76839267
-0.023701708
-0.91371201
-0.03073536
-1.0854694
-0.039617159
-1.2891638
-0.050543575
-1.5317989
-0.063701105
-1.8220132
-0.079293849
-2.1702516
-0.097593396
-2.5890158
-0.11895838
-3.0932351
-0.14385287
-3.7007617
-0.1728465
-4.4330411
-0.20662565
-5.3160188
-0.24597022
-6.3816782
-0.29179171
-7.6680429
-0.34513106
-9.2224627
-0.40695205
-11.103083
-0.47838939
-13.38284
-0.56052934
-16.150511
-0.65413871
-19.516799
-0.76002139
-23.621372
-0.87804268
-28.640544
-1.006839
-34.795367
-1.1409759
-42.390878
-1.2764398
-51.791793
-1.3992516
-63.450326
-1.489323
-77.988328
-96.181067
-5.6521153e-05
-0.0083684478
-2.6435603e-05
-0.011878131
3.4152765e-05
-0.015907334
7.4387226e-05
-0.020943775
2.3284576e-06
-0.025081263
-9.6278268e-05
-0.030489168
-0.00020112998
-0.036181531
-0.00034218257
-0.043562723
-0.00049268353
-0.052039604
-0.00069183165
-0.062400754
-0.00091111203
-0.074736764
-0.0011908815
-0.089492221
-0.0015115761
-0.10724904
-0.0019076272
-0.12840291
-0.0023761596
-0.15384747
-0.0029494701
-0.18419804
-0.0036448795
-0.22058759
-0.0045007709
-0.2640241
-0.0055664578
-0.31593694
-0.0069227919
-0.37779366
-0.0086801197
-0.45140666
-0.011002333
-0.53875248
-0.014122592
-0.64211197
-0.018330214
-0.76411541
-0.023922785
-0.9080379
-0.031163048
-1.078132
-0.040267707
-1.2799418
-0.051417604
-1.5205111
-0.064791887
-1.8084848
-0.080593076
-2.1542737
-0.099102533
-2.5703025
-0.12069474
-3.0714041
-0.14585318
-3.6753211
-0.17516817
-4.4033907
-0.20934543
-5.2814408
-0.24921114
-6.3413515
-0.295696
-7.6209888
-0.34990955
-9.1675306
-0.41284288
-11.039394
-0.4857619
-13.309157
-0.56991813
-16.065565
-0.66626522
-19.419549
-0.77578029
-23.511254
-0.89879869
-28.517477
-1.0344057
-34.661383
-1.1775346
-42.252652
-1.3257638
-51.646914
-1.4663395
-63.311669
-1.581403
-77.874636
-96.119687
-5.8150972e-05
-0.0083883301
-2.6690804e-05
-0.011908298
3.5858877e-05
-0.01596811
6.6298995e-05
-0.020972174
-4.7834873e-06
-0.02500806
-0.00010050849
-0.030390843
-0.00020034058
-0.036078485
-0.00033638499
-0.043423452
-0.0004795176
-0.051891929
-0.00067114577
-0.062204338
-0.00088169304
-0.074519861
-0.0011508407
-0.08921609
-0.0014597382
-0.10693118
-0.001841268
-0.1280111
-0.0022938956
-0.15338214
-0.0028488916
-0.1836279
-0.003525787
-0.21989203
-0.0043631141
-0.26316431
-0.0054169208
-0.31485589
-0.0067704681
-0.37640743
-0.0085424126
-0.44959544
-0.010915537
-0.53633258
-0.014138471
-0.63883368
-0.018499761
-0.75968874
-0.024289364
-0.90217182
-0.031760868
-1.0705686
-0.041112014
-1.2704792
-0.052506484
-1.5089849
-0.066116314
-1.7947272
-0.082150464
-2.1380695
-0.10090008
-2.5513557
-0.12275752
-3.0493145
-0.14822747
-3.6495761
-0.17792434
-4.3733661
-0.21258022
-5.2463919
-0.25304853
-6.300426
-0.30030418
-7.573165
-0.35551686
-9.1116188
-0.41974071
-10.974433
-0.4943568
-13.233781
-0.5807079
-15.978411
-0.68008595
-19.319303
-0.7935747
-23.397225
-0.92195783
-28.388985
-1.064867
-34.520707
-1.2174936
-42.10455
-1.3790019
-51.488829
-1.5385334
-63.15451
-1.6789761
-77.735835
-96.023323
-5.7715712e-05
-0.0084109481
-2.3506273e-05
-0.011941203
4.1035975e-05
-0.016031013
6.2506612e-05
-0.020991578
-4.6748919e-06
-0.024939062
-9.670788e-05
-0.03029635
-0.0001912499
-0.035981088
-0.00032220533
-0.043289172
-0.00045896147
-0.051750946
-0.00064358389
-0.062015034
-0.00084593862
-0.074311392
-0.0011052618
-0.088949959
-0.0014034092
-0.10662435
-0.0017719736
-0.12763257
-0.0022117874
-0.15292999
-0.0027511418
-0.18307389
-0.0034119717
-0.21921306
-0.0042359253
-0.26231837
-0.0052843037
-0.31378071
-0.006643706
-0.37501581
-0.0084474051
-0.44775275
-0.010894436
-0.53383923
-0.014242381
-0.63543041
-0.018779705
-0.75508662
-0.024792868
-0.89608256
-0.032520804
-1.0627497
-0.042140285
-1.2607495
-0.053798074
-1.4971974