/*--------------------------------*- C++ -*----------------------------------*\
  =========                 |
  \\      /  F ield         | OpenFOAM: The Open Source CFD Toolbox
   \\    /   O peration     | Website:  https://openfoam.org
    \\  /    A nd           | Version:  8
     \\/     M anipulation  |
\*---------------------------------------------------------------------------*/
FoamFile
{
    version     2.0;
    format      ascii;
    class       pointVectorField;
    location    "0.229992";
    object      pointDisplacement;
}
// * * * * * * * * * * * * * * * * * * * * * * * * * * * * * * * * * * * * * //

dimensions      [0 1 0 0 0 0 0];

internalField   nonuniform List<vector> 
40800
(
(0.00089523076 0 0.00075739588)
(0.00089596525 0 0.00063021818)
(0.00089583284 0 0.00063082535)
(0.00089506311 0 0.00076068806)
(0.000895818 0 0.00063065139)
(0.0008950494 0 0.00076054666)
(0.00089578835 0 0.00063043457)
(0.00089502113 0 0.00076039548)
(0.00089573746 0 0.00063018979)
(0.00089497227 0 0.0007602281)
(0.00089565636 0 0.00062991739)
(0.00089489407 0 0.00076004634)
(0.00089553266 0 0.00062962054)
(0.00089477439 0 0.00075985523)
(0.00089534929 0 0.00062930636)
(0.00089459652 0 0.00075966441)
(0.00089508303 0 0.00062898862)
(0.00089433768 0 0.00075949046)
(0.00089470226 0 0.00062869086)
(0.00089396685 0 0.00075936048)
(0.00089416449 0 0.00062845171)
(0.00089344225 0 0.00075931677)
(0.00089341267 0 0.00062833215)
(0.00089270781 0 0.00075942424)
(0.00089237094 0 0.00062842549)
(0.00089168889 0 0.00075977968)
(0.00089093932 0 0.00062887199)
(0.000890287 0 0.00076052619)
(0.00088898674 0 0.00062987864)
(0.00088837302 0 0.00076187235)
(0.00088634404 0 0.0006317462)
(0.00088577993 0 0.00076411884)
(0.00088279502 0 0.00063490826)
(0.00088229407 0 0.00076769431)
(0.0008780673 0 0.00063997879)
(0.00087764585 0 0.0007732023)
(0.00087182677 0 0.00064781492)
(0.00087150363 0 0.00078147929)
(0.00086367336 0 0.0006595955)
(0.00086346896 0 0.00079367059)
(0.00085314607 0 0.0006769004)
(0.00085308041 0 0.00081131036)
(0.00083973634 0 0.00070179887)
(0.00083982602 0 0.00083640296)
(0.00082291285 0 0.00073690557)
(0.00082316671 0 0.00087147793)
(0.00080217798 0 0.00078535499)
(0.00080259154 0 0.00091956876)
(0.00077711885 0 0.00085068248)
(0.0007776671 0 0.00098410177)
(0.00074750974 0 0.0009364305)
(0.0007481441 0 0.0010685066)
(0.00071335339 0 0.0010458161)
(0.00071399633 0 0.0011759171)
(0.00067496969 0 0.0011806222)
(0.00067552685 0 0.0013079905)
(0.00063294481 0 0.0013411906)
(0.00063331467 0 0.0014650083)
(0.00058824997 0 0.0015249573)
(0.0005883434 0 0.0016443809)
(0.00054210977 0 0.001726426)
(0.00054188763 0 0.0018405533)
(0.00049559012 0 0.0019384408)
(0.00049503614 0 0.0020464269)
(0.00044990603 0 0.0021519672)
(0.00044907198 0 0.0022529506)
(0.00040602905 0 0.0023578082)
(0.00040499072 0 0.0024510266)
(0.00036447088 0 0.0025490519)
(0.00036328367 0 0.0026341983)
(0.00032603905 0 0.0027173667)
(0.0003248124 0 0.0027939907)
(0.00029102761 0 0.002858383)
(0.00028981731 0 0.0029266378)
(0.00025961214 0 0.0029715322)
(0.00025849352 0 0.0030317791)
(0.00023194153 0 0.0030538518)
(0.00023095809 0 0.0031065855)
(0.00020755603 0 0.00310649)
(0.00020672008 0 0.0031523923)
(0.000186523 0 0.0031272402)
(0.00018586933 0 0.0031668191)
(0.00016827952 0 0.0031155346)
(0.00016781589 0 0.003149487)
(0.00015122149 0 0.003065945)
(0.00015081941 0 0.0030944523)
(0.00013532283 0 0.0029754591)
(0.00013500389 0 0.0029991691)
(0.00012124987 0 0.002838798)
(0.00012103938 0 0.002857801)
(0.00010814534 0 0.0026523967)
(0.00010805239 0 0.0026677447)
(9.5626321e-05 0 0.0024100745)
(9.5672071e-05 0 0.0024224419)
(8.1643793e-05 0 0.002089748)
(8.1779755e-05 0 0.0021001023)
(6.4373564e-05 0 0.0016598444)
(6.4608379e-05 0 0.0016694035)
(3.9848221e-05 0 0.0010291524)
(4.0160542e-05 0 0.0010385813)
(0 0 0)
(0 0 0)
(0.00089619546 0 0.00050577471)
(0.00089606548 0 0.00050631336)
(0.00089604971 0 0.00050603954)
(0.00089601865 0 0.00050572272)
(0.00089596584 0 0.00050535796)
(0.0008958821 0 0.00050494209)
(0.00089575479 0 0.00050447424)
(0.00089556649 0 0.00050395713)
(0.00089529352 0 0.0005033996)
(0.00089490367 0 0.00050282004)
(0.00089435374 0 0.00050225104)
(0.0008935857 0 0.00050174672)
(0.00089252263 0 0.00050139267)
(0.00089106304 0 0.00050132027)
(0.00088907428 0 0.00050172789)
(0.00088638523 0 0.00050290706)
(0.00088277712 0 0.00050528697)
(0.00087797554 0 0.00050948111)
(0.00087164403 0 0.00051635464)
(0.00086338166 0 0.00052710531)
(0.00085272799 0 0.00054334626)
(0.00083917698 0 0.00056720286)
(0.00082220573 0 0.00060136684)
(0.00080132808 0 0.00064907278)
(0.00077615284 0 0.0007139639)
(0.00074647536 0 0.00079972438)
(0.00071232832 0 0.0009096704)
(0.00067404595 0 0.0010457868)
(0.0006322245 0 0.0012085175)
(0.00058782498 0 0.0013953705)
(0.00054201743 0 0.0016009994)
(0.00049585141 0 0.0018182124)
(0.00045047786 0 0.0020380296)
(0.00040683538 0 0.0022511751)
(0.00036546313 0 0.0024503099)
(0.00032711494 0 0.0026271402)
(0.00029211421 0 0.0027769094)
(0.00026064506 0 0.0028984981)
(0.00023285106 0 0.0029890207)
(0.00020833405 0 0.0030492206)
(0.00018712307 0 0.0030770768)
(0.00016868007 0 0.0030718435)
(0.00015153585 0 0.0030284292)
(0.00013558245 0 0.0029436971)
(0.00012138388 0 0.0028124005)
(0.00010816162 0 0.0026306602)
(9.5477416e-05 0 0.0023917683)
(8.1378308e-05 0 0.0020741442)
(6.3995914e-05 0 0.0016453338)
(3.938717e-05 0 0.0010155026)
(0 0 0)
(0.00089593256 0 0.00038400865)
(0.00089580572 0 0.0003844821)
(0.00089578816 0 0.00038411054)
(0.00089575474 0 0.00038367976)
(0.00089569883 0 0.00038318493)
(0.00089561107 0 0.00038262046)
(0.00089547848 0 0.00038198143)
(0.00089528332 0 0.00038126546)
(0.00089500138 0 0.00038047581)
(0.00089459986 0 0.00037962417)
(0.00089403468 0 0.0003787356)
(0.00089324685 0 0.00037785618)
(0.00089215814 0 0.00037706261)
(0.00089066541 0 0.00037647792)
(0.00088863426 0 0.00037629128)
(0.00088589116 0 0.00037678919)
(0.00088221483 0 0.00037839393)
(0.00087732836 0 0.00038171997)
(0.00087089317 0 0.0003876423)
(0.00086250762 0 0.00039737627)
(0.00085171192 0 0.00041257547)
(0.00083800353 0 0.00043542387)
(0.00082086848 0 0.0004686927)
(0.00079983401 0 0.00051571424)
(0.00077453206 0 0.00058023542)
(0.00074478194 0 0.00066606961)
(0.00071064764 0 0.00077662514)
(0.00067247943 0 0.00091406139)
(0.00063088483 0 0.0010789011)
(0.00058681361 0 0.0012687119)
(0.00054138375 0 0.0014782768)
(0.00049562078 0 0.00170039)
(0.00045061329 0 0.0019261279)
(0.00040726441 0 0.0021461601)
(0.00036613031 0 0.0023527884)
(0.00032791935 0 0.0025377363)
(0.00029297593 0 0.0026959106)
(0.00026149415 0 0.0028256714)
(0.00023361422 0 0.0029241742)
(0.00020899376 0 0.002991786)
(0.00018763143 0 0.0030266238)
(0.00016901195 0 0.003027783)
(0.00015178817 0 0.0029904663)
(0.00013578687 0 0.0029114322)
(0.00012147686 0 0.0027854533)
(0.00010814566 0 0.002608362)
(9.5307964e-05 0 0.0023729552)
(8.1096968e-05 0 0.0020580828)
(6.3609736e-05 0 0.0016305586)
(3.8933944e-05 0 0.0010019993)
(0 0 0)
(0.00089519241 0 0.00026486442)
(0.0008950682 0 0.00026529892)
(0.00089504813 0 0.00026485669)
(0.0008950115 0 0.00026433844)
(0.00089495144 0 0.00026373295)
(0.00089485835 0 0.00026303063)
(0.00089471891 0 0.00026222316)
(0.00089451498 0 0.00026130467)
(0.00089422177 0 0.00026027446)
(0.00089380584 0 0.00025913922)
(0.00089322216 0 0.00025791882)
(0.00089241064 0 0.00025665252)
(0.00089129159 0 0.00025541005)
(0.00088976015 0 0.00025430624)
(0.00088767984 0 0.0002535224)
(0.00088487458 0 0.00025333674)
(0.00088112045 0 0.00025416745)
(0.00087613781 0 0.00025662863)
(0.00086958618 0 0.00026160341)
(0.00086106314 0 0.00027033317)
(0.00085010984 0 0.00028451479)
(0.00083622807 0 0.00030639322)
(0.0008189135 0 0.00033882173)
(0.00079770878 0 0.00038522685)
(0.00077227012 0 0.00044945469)
(0.00074244418 0 0.00053543447)
(0.00070832684 0 0.00064666085)
(0.00067028608 0 0.00078543958)
(0.00062894202 0 0.00095234951)
(0.0005852314 0 0.0011450062)
(0.00054022242 0 0.0013583019)
(0.00049490951 0 0.001585036)
(0.00045032073 0 0.0018163425)
(0.00040732132 0 0.0020428597)
(0.00036647563 0 0.0022565909)
(0.00032845275 0 0.0024492635)
(0.00029361211 0 0.0026154886)
(0.00026215767 0 0.0027531469)
(0.00023422873 0 0.0028593958)
(0.00020953271 0 0.0029342568)
(0.00018804545 0 0.0029759414)
(0.00016927262 0 0.002983403)
(0.00015197757 0 0.0029520993)
(0.00013593541 0 0.0028786994)
(0.00012152775 0 0.0027579862)
(0.00010809655 0 0.0025855243)
(9.5116971e-05 0 0.0023536516)
(8.0799325e-05 0 0.0020415772)
(6.3214792e-05 0 0.0016155241)
(3.8487753e-05 0 0.00098862813)
(0 0 0)
(0.00089399003 0 0.00014828733)
(0.00089386707 0 0.00014867155)
(0.00089384364 0 0.00014814743)
(0.00089380277 0 0.00014753197)
(0.00089373738 0 0.00014681121)
(0.0008936376 0 0.00014597213)
(0.00089348973 0 0.00014500214)
(0.00089327513 0 0.00014389053)
(0.00089296841 0 0.00014263077)
(0.00089253533 0 0.0001412233)
(0.00089192986 0 0.00013968106)
(0.00089109063 0 0.00013803592)
(0.00088993641 0 0.00013635008)
(0.00088836038 0 0.00013473036)
(0.00088622381 0 0.00013335067)
(0.00088334795 0 0.00013248221)
(0.00087950594 0 0.00013253779)
(0.00087441551 0 0.00013413211)
(0.00086773434 0 0.00013816251)
(0.00085905932 0 0.00014590217)
(0.00084793288 0 0.00015909497)
(0.00083386181 0 0.00018004817)
(0.00081635238 0 0.00021169975)
(0.00079496437 0 0.00025756708)
(0.00076937977 0 0.00032158761)
(0.00073947569 0 0.00040779628)
(0.00070538047 0 0.00051976595)
(0.0006674815 0 0.00065991957)
(0.00062641197 0 0.00082887283)
(0.00058309405 0 0.0010242769)
(0.00053854735 0 0.0012411162)
(0.00049372954 0 0.0014722082)
(0.00044960925 0 0.0017087485)
(0.00040701206 0 0.0019413645)
(0.00036650282 0 0.0021618151)
(0.00032871648 0 0.0023618243)
(0.00029402249 0 0.0025357441)
(0.00026263438 0 0.0026810164)
(0.00023469244 0 0.0027947683)
(0.00020994878 0 0.0028767029)
(0.00018836267 0 0.0029250895)
(0.00016945962 0 0.0029387532)
(0.00015210289 0 0.0029133699)
(0.00013602737 0 0.0028455329)
(0.00012153537 0 0.0027300274)
(0.00010801336 0 0.0025621686)
(9.4903364e-05 0 0.0023338701)
(8.0484829e-05 0 0.0020246382)
(6.2810776e-05 0 0.0016002333)
(3.804784e-05 0 0.00097537536)
(0 0 0)
(0.0008923368 0 3.4224178e-05)
(0.00089221538 0 3.455687e-05)
(0.00089218807 0 3.3949063e-05)
(0.00089214228 0 3.3234341e-05)
(0.00089207064 0 3.2396562e-05)
(0.00089196295 0 3.141956e-05)
(0.0008918051 0 3.0286832e-05)
(0.0008915779 0 2.8982995e-05)
(0.00089125528 0 2.749586e-05)
(0.00089080214 0 2.581952e-05)
(0.00089017136 0 2.3959664e-05)
(0.00088930018 0 2.1940333e-05)
(0.00088810567 0 1.9815432e-05)
(0.00088647888 0 1.7683192e-05)
(0.0008842786 0 1.570917e-05)
(0.00088132319 0 1.4157189e-05)
(0.00087738276 0 1.3434289e-05)
(0.00087217239 0 1.415541e-05)
(0.00086534823 0 1.7241174e-05)
(0.00085650676 0 2.4007827e-05)
(0.00084519175 0 3.6247326e-05)
(0.00083091553 0 5.6327199e-05)
(0.0008131963 0 8.7275029e-05)
(0.00079161248 0 0.00013269433)
(0.00076587347 0 0.00019660294)
(0.00073589011 0 0.00028313385)
(0.00070182343 0 0.00039593036)
(0.00066408149 0 0.00053750201)
(0.00062331098 0 0.00070848158)
(0.00058041776 0 0.00090654636)
(0.00053637322 0 0.0011267574)
(0.00049209345 0 0.0013619596)
(0.00044848872 0 0.0016034149)
(0.00040634336 0 0.0018417586)
(0.00036621641 0 0.002068553)
(0.0003287125 0 0.0022755163)
(0.00029420746 0 0.0024567738)
(0.00026292345 0 0.0026093701)
(0.00023500365 0 0.0027303734)
(0.00021024 0 0.0028191945)
(0.00018858083 0 0.0028741284)
(0.00016957059 0 0.0028938835)
(0.00015216294 0 0.0028743206)
(0.00013606195 0 0.0028119676)
(0.00012149861 0 0.0027016054)
(0.00010789517 0 0.0025383164)
(9.4666134e-05 0 0.002313625)
(8.0152974e-05 0 0.0020072778)
(6.2397441e-05 0 0.0015846918)
(3.7613517e-05 0 0.00096222961)
(0 0 0)
(0.00089024578 0 -7.7376895e-05)
(0.00089012558 0 -7.7092056e-05)
(0.00089009351 0 -7.7778596e-05)
(0.0008900418 0 -7.8586386e-05)
(0.00088996281 0 -7.9535452e-05)
(0.00088984595 0 -8.0646016e-05)
(0.00088967661 0 -8.1939238e-05)
(0.00088943501 0 -8.3435247e-05)
(0.00088909429 0 -8.5151545e-05)
(0.00088861837 0 -8.7099817e-05)
(0.0008879589 0 -8.9280751e-05)
(0.0008870516 0 -9.167748e-05)
(0.00088581163 0 -9.4243849e-05)
(0.00088412775 0 -9.6890377e-05)
(0.00088185599 0 -9.9460516e-05)
(0.00087881162 0 -0.00010169984)
(0.00087476147 0 -0.00010320988)
(0.00086941819 0 -0.00010338094)
(0.00086243754 0 -0.00010124601)
(0.00085341566 0 -9.5426012e-05)
(0.00084189692 0 -8.4093162e-05)
(0.00082739996 0 -6.4827685e-05)
(0.00080945661 0 -3.4500147e-05)
(0.00078766511 0 1.0572947e-05)
(0.00076176422 0 7.4471984e-05)
(0.00073170174 0 0.00016142811)
(0.00069767147 0 0.00027514322)
(0.00066010308 0 0.00041818323)
(0.00061965676 0 0.00059118066)
(0.00057722017 0 0.00079182986)
(0.00053371617 0 0.0010152555)
(0.00049001536 0 0.0012543345)
(0.00044697044 0 0.0015004011)
(0.00040532337 0 0.0017441164)
(0.00036562206 0 0.0019768878)
(0.000328444 0 0.0021904289)
(0.00029416827 0 0.0023786691)
(0.0002630249 0 0.0025382935)
(0.0002351612 0 0.0026662903)
(0.00021040499 0 0.0027617998)
(0.00018869812 0 0.0028231176)
(0.00016960346 0 0.0028488436)
(0.00015215655 0 0.0028349938)
(0.00013603848 0 0.0027780383)
(0.00012141641 0 0.002672749)
(0.0001077411 0 0.00251399)
(9.4404276e-05 0 0.002292929)
(7.9803229e-05 0 0.0019895074)
(6.1974486e-05 0 0.0015689037)
(3.7184104e-05 0 0.00094917942)
(0 0 0)
(0.00088773069 0 -0.00018656728)
(0.00088761148 0 -0.00018633168)
(0.00088757406 0 -0.0001870992)
(0.00088751566 0 -0.00018800276)
(0.00088742828 0 -0.00018906588)
(0.00088730089 0 -0.00019031239)
(0.00088711838 0 -0.00019176769)
(0.00088686028 0 -0.00019345641)
(0.0008864989 0 -0.00019540122)
(0.0008859971 0 -0.00019761957)
(0.00088530521 0 -0.00020011872)
(0.00088435728 0 -0.00020288932)
(0.00088306639 0 -0.00020589356)
(0.00088131874 0 -0.00020905133)
(0.0008789673 0 -0.00021221644)
(0.00087582381 0 -0.0002151458)
(0.00087165153 0 -0.00021745107)
(0.00086616324 0 -0.00021848529)
(0.00085901566 0 -0.00021723388)
(0.00084980142 0 -0.00021229642)
(0.00083806429 0 -0.00020180926)
(0.00082333108 0 -0.000183305)
(0.00080514708 0 -0.00015359051)
(0.00078313397 0 -0.00010882804)
(0.00075706462 0 -4.4830293e-05)
(0.00072692477 0 4.2663112e-05)
(0.00069294035 0 0.00015739702)
(0.00065556332 0 0.000301962)
(0.00061546722 0 0.00047697605)
(0.00057351913 0 0.0006801428)
(0.00053059267 0 0.00090663824)
(0.00048750972 0 0.0011493732)
(0.00044506621 0 0.0013997615)
(0.00040396073 0 0.001648507)
(0.00036472595 0 0.0018868971)
(0.00032791457 0 0.0021066468)
(0.00029390666 0 0.0023015172)
(0.00026293904 0 0.0024678693)
(0.00023516427 0 0.0026025961)
(0.00021044246 0 0.0027045865)
(0.00018871285 0 0.0027721162)
(0.00016955628 0 0.0028036832)
(0.00015208253 0 0.0027954316)
(0.00013595618 0 0.00274378)
(0.00012128773 0 0.0026434867)
(0.00010755029 0 0.0024892113)
(9.4116848e-05 0 0.0022717965)
(7.943507e-05 0 0.0019713386)
(6.1541656e-05 0 0.001552875)
(3.6758986e-05 0 0.00093621552)
(0 0 0)
(0.00088480504 0 -0.00029339687)
(0.00088468557 0 -0.00029321177)
(0.00088464174 0 -0.00029406309)
(0.00088457542 0 -0.00029506668)
(0.00088447828 0 -0.0002962482)
(0.00088433884 0 -0.00029763431)
(0.00088414141 0 -0.00029925368)
(0.00088386479 0 -0.00030113525)
(0.00088348035 0 -0.00030330687)
(0.00088294977 0 -0.00030579203)
(0.00088222189 0 -0.00030860506)
(0.00088122888 0 -0.00031174465)
(0.00087988153 0 -0.00031518204)
(0.0008780632 0 -0.00031884715)
(0.00087562345 0 -0.00032260517)
(0.00087237009 0 -0.00032622825)
(0.00086806609 0 -0.00032929858)
(0.00086242634 0 -0.00033108939)
(0.00085510259 0 -0.00033059782)
(0.00084568185 0 -0.0003264551)
(0.00083371013 0 -0.00031674913)
(0.00081872256 0 -0.00029895456)
(0.00080027971 0 -0.00026986276)
(0.00077803134 0 -0.00022546323)
(0.00075178788 0 -0.00016132796)
(0.00072157421 0 -7.3177032e-05)
(0.00068764691 0 4.2682652e-05)
(0.00065048054 0 0.00018883297)
(0.00061076156 0 0.00036586767)
(0.00056933388 0 0.00057149289)
(0.00052702061 0 0.00080092422)
(0.00048459237 0 0.0010471061)
(0.00044278907 0 0.00130154)
(0.00040226541 0 0.0015549885)
(0.00036353539 0 0.0017986486)
(0.00032712899 0 0.0020242455)
(0.00029342529 0 0.0022253979)
(0.00026266702 0 0.0023981747)
(0.00023501273 0 0.0025393639)
(0.00021035175 0 0.0026476192)
(0.0001886238 0 0.0027211814)
(0.00016942743 0 0.0027584507)
(0.00015193983 0 0.0027556758)
(0.00013581445 0 0.0027092275)
(0.00012111165 0 0.0026138472)
(0.00010732193 0 0.0024640031)
(9.3802933e-05 0 0.0022502414)
(7.9047978e-05 0 0.0019527831)
(6.1098663e-05 0 0.001536611)
(3.6337562e-05 0 0.0009233289)
(0 0 0)
(0.00088147969 0 -0.00039791437)
(0.00088135971 0 -0.00039778022)
(0.00088130886 0 -0.00039871583)
(0.00088123383 0 -0.0003998197)
(0.00088112589 0 -0.00040111933)
(0.00088097307 0 -0.00040264414)
(0.00088075903 0 -0.00040442621)
(0.00088046179 0 -0.00040649887)
(0.00088005169 0 -0.00040889517)
(0.00087948914 0 -0.00041164489)
(0.00087872135 0 -0.00041476962)
(0.00087767847 0 -0.00041827628)
(0.00087626876 0 -0.00042214516)
(0.0008743725 0 -0.00042631554)
(0.00087183545 0 -0.00043066116)
(0.00086846363 0 -0.00043495841)
(0.00086402294 0 -0.00043872494)
(0.00085822427 0 -0.00044120805)
(0.00085070951 0 -0.00044144386)
(0.00084106457 0 -0.00043805068)
(0.00082884 0 -0.00042907593)
(0.00081357939 0 -0.00041192767)
(0.00079486312 0 -0.00038332682)
(0.00077237048 0 -0.00033921442)
(0.00074594822 0 -0.00027497148)
(0.00071566519 0 -0.00018610557)
(0.00068180832 0 -6.9004486e-05)
(0.00064487332 0 7.8794519e-05)
(0.00060555936 0 0.00025785626)
(0.00056468406 0 0.0004658867)
(0.00052301834 0 0.00069812936)
(0.00048127959 0 0.0009475595)
(0.00044015264 0 0.0012057753)
(0.00040024791 0 0.0014636134)
(0.00036205823 0 0.0017122044)
(0.00032609247 0 0.0019432949)
(0.00029272732 0 0.0021503863)
(0.00026221038 0 0.0023292831)
(0.00023470679 0 0.002476664)
(0.00021013241 0 0.0025909609)
(0.00018842997 0 0.0026703693)
(0.00016921545 0 0.0027131942)
(0.00015172745 0 0.0027157676)
(0.00013561262 0 0.0026744154)
(0.00012088729 0 0.0025838591)
(0.00010705525 0 0.0024383879)
(9.346168e-05 0 0.0022282788)
(7.864147e-05 0 0.0019338535)
(6.0645246e-05 0 0.0015201185)
(3.5919262e-05 0 0.0009105118)
(0 0 0)
(0.00087776528 0 -0.00050016746)
(0.00087764536 0 -0.00050008017)
(0.00087758664 0 -0.00050109435)
(0.00087750196 0 -0.00050229088)
(0.00087738213 0 -0.00050370093)
(0.00087721464 0 -0.0005053577)
(0.00087698241 0 -0.0005072977)
(0.00087666256 0 -0.00050955895)
(0.00087622431 0 -0.00051218001)
(0.00087562663 0 -0.00051519675)
(0.00087481497 0 -0.00051863751)
(0.00087371727 0 -0.00052251696)
(0.00087223911 0 -0.00052682368)
(0.00087025746 0 -0.00053150662)
(0.00086761462 0 -0.00053644643)
(0.00086411814 0 -0.00054137155)
(0.00085953406 0 -0.00054577457)
(0.00085356295 0 -0.00054894992)
(0.00084584035 0 -0.00054992049)
(0.00083595393 0 -0.00054725853)
(0.00082345832 0 -0.00053897475)
(0.00080790824 0 -0.00052240809)
(0.00078890655 0 -0.0004941551)
(0.00076616419 0 -0.00045010418)
(0.00073956273 0 -0.00038564398)
(0.00070921561 0 -0.00029606759)
(0.00067544281 0 -0.00017767159)
(0.0006387614 0 -2.8160848e-05)
(0.00059988137 0 0.0001529366)
(0.00055959046 0 0.00036332401)
(0.00051860537 0 0.00059826202)
(0.00047758874 0 0.00085075106)
(0.00043717154 0 0.0011124967)
(0.0003979198 0 0.0013744242)
(0.00036030446 0 0.0016276628)
(0.00032481266 0 0.00186391)
(0.00029181673 0 0.0020765505)
(0.00026157139 0 0.0022612622)
(0.0002342473 0 0.0024145621)
(0.00020978449 0 0.0025346717)
(0.00018813075 0 0.002619734)
(0.00016891925 0 0.0026679604)
(0.00015144456 0 0.0026757477)
(0.00013535018 0 0.0026393784)
(0.00012061389 0 0.0025535514)
(0.00010674953 0 0.0024123888)
(9.3092266e-05 0 0.0022059237)
(7.8215034e-05 0 0.001914562)
(6.0181127e-05 0 0.0015034039)
(3.5503554e-05 0 0.00089775743)
(0 0 0)
(0.0008736765 0 -0.00060020316)
(0.00087355454 0 -0.00060016312)
(0.00087348729 0 -0.00060125639)
(0.00087339211 0 -0.00060254568)
(0.00087325931 0 -0.00060406554)
(0.00087307571 0 -0.00060585306)
(0.00087282347 0 -0.00060794945)
(0.00087247874 0 -0.00061039774)
(0.00087200948 0 -0.00061324236)
(0.00087137317 0 -0.00061652528)
(0.00087051332 0 -0.00062028234)
(0.00086935552 0 -0.0006245357)
(0.00086780231 0 -0.00062928364)
(0.00086572708 0 -0.00063448698)
(0.00086297179 0 -0.00064001402)
(0.0008593462 0 -0.00064552548)
(0.00085460854 0 -0.0006505396)
(0.00084844964 0 -0.00065439764)
(0.00084050336 0 -0.00065607934)
(0.00083035784 0 -0.00065412312)
(0.00081757303 0 -0.00064648986)
(0.00080171715 0 -0.00063044439)
(0.00078241826 0 -0.00060245768)
(0.0007594218 0 -0.00055829358)
(0.00073264604 0 -0.00049336736)
(0.00070224196 0 -0.00040300641)
(0.00066856675 0 -0.00028332106)
(0.00063216461 0 -0.00013203835)
(0.00059374851 0 5.1104031e-05)
(0.00055407394 0 0.00026380459)
(0.00051380126 0 0.0005013288)
(0.00047354007 0 0.00075675542)
(0.00043386635 0 0.0010218619)
(0.00039529836 0 0.0012875929)
(0.0003582877 0 0.0015451963)
(0.00032329884 0 0.0017862644)
(0.00029069964 0 0.0020040515)
(0.00026075356 0 0.0021942236)
(0.00023363532 0 0.0023531218)
(0.00020930821 0 0.0024788094)
(0.00018772567 0 0.0025693279)
(0.00016853781 0 0.0026227949)
(0.00015109036 0 0.0026356559)
(0.00013502657 0 0.0026041501)
(0.00012029069 0 0.0025229521)
(0.00010640406 0 0.0023860282)
(9.2693928e-05 0 0.002183192)
(7.776821e-05 0 0.0018949217)
(5.9706043e-05 0 0.0014864748)
(3.5089912e-05 0 0.00088505947)
(0 0 0)
(0.00086922055 0 -0.0006980669)
(0.00086909811 0 -0.00069806537)
(0.00086902167 0 -0.00069923027)
(0.00086891508 0 -0.00070060712)
(0.00086876806 0 -0.00070223554)
(0.00086856674 0 -0.00070415657)
(0.00086829248 0 -0.00070641453)
(0.00086792036 0 -0.00070905669)
(0.0008674171 0 -0.00071213162)
(0.00086673853 0 -0.00071568641)
(0.00086582612 0 -0.00071976267)
(0.00086460291 0 -0.00072438938)
(0.00086296807 0 -0.00072957308)
(0.00086079273 0 -0.00073528378)
(0.0008579212 0 -0.00074134968)
(0.00085415981 0 -0.00074742707)
(0.00084925527 0 -0.00075306527)
(0.00084289319 0 -0.00075759146)
(0.0008347065 0 -0.00075996591)
(0.00082428381 0 -0.0007586888)
(0.00081119161 0 -0.00075166551)
(0.00079501396 0 -0.00073608448)
(0.00077540758 0 -0.00070827789)
(0.0007521537 0 -0.00066387565)
(0.00072520825 0 -0.00059828504)
(0.00069475626 0 -0.00050700069)
(0.00066119742 0 -0.00038596849)
(0.00062510405 0 -0.00023284938)
(0.00058718283 0 -4.7653238e-05)
(0.00054815652 0 0.00016731997)
(0.00050863161 0 0.00040739993)
(0.00046916238 0 0.000665738)
(0.00043026184 0 0.00093405909)
(0.00039240296 0 0.0012033145)
(0.00035602034 0 0.001464907)
(0.00032155893 0 0.0017104317)
(0.00028938333 0 0.0019330531)
(0.00025976078 0 0.0021282818)
(0.00023287229 0 0.0022924019)
(0.00020870431 0 0.0024234279)
(0.00018721471 0 0.0025192007)
(0.00016807048 0 0.0025777419)
(0.00015066426 0 0.002595531)
(0.00013464139 0 0.002568764)
(0.00011991709 0 0.0024920896)
(0.00010601823 0 0.0023593295)
(9.226594e-05 0 0.0021600997)
(7.7300517e-05 0 0.0018749453)
(5.9219734e-05 0 0.0014693387)
(3.4677835e-05 0 0.00087241239)
(0 0 0)
(0.0008644115 0 -0.00079380378)
(0.00086428663 0 -0.00079386176)
(0.0008641993 0 -0.00079512045)
(0.00086407943 0 -0.00079660645)
(0.00086391629 0 -0.00079835896)
(0.00086369532 0 -0.00080042156)
(0.00086339701 0 -0.00080284205)
(0.00086299527 0 -0.00080567269)
(0.00086245544 0 -0.00080896753)
(0.00086173148 0 -0.00081278066)
(0.00086076267 0 -0.00081716116)
(0.00085946919 0 -0.00082214628)
(0.00085774681 0 -0.00082775177)
(0.00085546682 0 -0.00083393094)
(0.000852474 0 -0.00084049437)
(0.00084856604 0 -0.00084712971)
(0.00084348083 0 -0.00085339174)
(0.0008369009 0 -0.00085857731)
(0.0008284568 0 -0.00086162683)
(0.00081773845 0 -0.00086100213)
(0.00080432067 0 -0.00085454519)
(0.00078781023 0 -0.00083930481)
(0.00076789257 0 -0.0008115214)
(0.00074437631 0 -0.00076680629)
(0.00071726098 0 -0.00070046079)
(0.00068677671 0 -0.00060806096)
(0.00065335857 0 -0.00048556933)
(0.00061760117 0 -0.00033060323)
(0.00058021114 0 -0.00014328107)
(0.0005418725 0 7.4019626e-05)
(0.00050313229 0 0.00031666753)
(0.00046448214 0 0.00057779887)
(0.00042637254 0 0.0008490547)
(0.00038924343 0 0.0011215388)
(0.0003535094 0 0.0013867487)
(0.00031959841 0 0.0016363723)
(0.00028787146 0 0.0018635323)
(0.00025859601 0 0.0020634933)
(0.00023196078 0 0.0022325017)
(0.0002079737 0 0.0023685788)
(0.00018659799 0 0.0024694003)
(0.00016751677 0 0.0025328439)
(0.00015016575 0 0.0025554108)
(0.00013419425 0 0.0025332529)
(0.00011949249 0 0.0024609917)
(0.00010559143 0 0.0023323154)
(9.1807637e-05 0 0.0021366638)
(7.6811527e-05 0 0.0018546466)
(5.8721943e-05 0 0.0014520039)
(3.4266867e-05 0 0.00085981206)
(0 0 0)
(0.00085926033 0 -0.00088745741)
(0.00085913195 0 -0.00088756403)
(0.00085903317 0 -0.00088890567)
(0.00085889923 0 -0.00089049063)
(0.0008587188 0 -0.00089236076)
(0.00085847656 0 -0.00089456264)
(0.00085815206 0 -0.00089714756)
(0.00085771802 0 -0.00090017147)
(0.00085713828 0 -0.00090369307)
(0.00085636493 0 -0.00090777157)
(0.00085533484 0 -0.0009124623)
(0.00085396517 0 -0.00091780947)
(0.0008521493 0 -0.00092383923)
(0.00084975973 0 -0.00093047371)
(0.00084663769 0 -0.00093752424)
(0.00084257151 0 -0.00094471154)
(0.00083729283 0 -0.00095157752)
(0.00083047978 0 -0.00095740447)
(0.00082176059 0 -0.00096110947)
(0.00081072798 0 -0.00096110826)
(0.0007969734 0 -0.00095511069)
(0.00078012818 0 -0.0009400069)
(0.0007598946 0 -0.00091206106)
(0.00073610874 0 -0.00086695728)
(0.0007088243 0 -0.00079983764)
(0.00067832834 0 -0.00070613473)
(0.00064507477 0 -0.00058207003)
(0.00060968367 0 -0.00042524488)
(0.00057287398 0 -0.00023561766)
(0.00053526513 0 -1.587178e-05)
(0.00049733372 0 0.00022923704)
(0.00045951444 0 0.00049287214)
(0.00042220948 0 0.00076675182)
(0.00038582859 0 0.0010421625)
(0.00035076301 0 0.0013106746)
(0.00031742398 0 0.001564069)
(0.00028616796 0 0.0017954414)
(0.00025726335 0 0.001999896)
(0.0002309048 0 0.002173549)
(0.00020711837 0 0.0023143504)
(0.00018587602 0 0.0024199721)
(0.00016687648 0 0.0024881418)
(0.00014959452 0 0.0025153323)
(0.00013368487 0 0.002497649)
(0.00011901643 0 0.0024296862)
(0.00010512315 0 0.002305009)
(9.1318385e-05 0 0.0021129011)
(7.6300791e-05 0 0.0018340393)
(5.8212406e-05 0 0.001434479)
(3.3856525e-05 0 0.00084725388)
(0 0 0)
(0.00085377389 0 -0.00097907066)
(0.00085364296 0 -0.00097922514)
(0.00085353184 0 -0.00098064876)
(0.00085338274 0 -0.00098233111)
(0.00085318372 0 -0.00098431682)
(0.0008529186 0 -0.00098665571)
(0.00085256594 0 -0.0009894027)
(0.00085209716 0 -0.00099261791)
(0.00085147449 0 -0.0009963647)
(0.00085064801 0 -0.0010007073)
(0.00084955205 0 -0.0010057065)
(0.00084810065 0 -0.0010114113)
(0.00084618599 0 -0.0010178516)
(0.00084368101 0 -0.0010249383)
(0.00084042072 0 -0.0010324809)
(0.00083618462 0 -0.0010402108)
(0.00083069878 0 -0.0010476658)
(0.00082363626 0 -0.0010541186)
(0.00081462359 0 -0.0010584605)
(0.00080326471 0 -0.0010589967)
(0.00078917095 0 -0.001053279)
(0.00077198194 0 -0.0010381928)
(0.00075141843 0 -0.0010100036)
(0.00072736345 0 -0.00096432341)
(0.00069992154 0 -0.00089630051)
(0.00066943089 0 -0.00080122242)
(0.00063636965 0 -0.00067546515)
(0.00060139387 0 -0.00051659578)
(0.00056521278 0 -0.00032452433)
(0.00052835947 0 -0.00010236983)
(0.00049125037 0 0.00014500903)
(0.00045427252 0 0.0004108739)
(0.00041778718 0 0.00068712137)
(0.00038217073 0 0.00096517327)
(0.00034779121 0 0.0012366873)
(0.00031504343 0 0.0014935384)
(0.00028427871 0 0.0017288083)
(0.0002557665 0 0.0019374929)
(0.00022970691 0 0.0021155818)
(0.00020614043 0 0.002260832)
(0.00018504922 0 0.0023709597)
(0.00016614952 0 0.002443675)
(0.0001489503 0 0.002475331)
(0.00013311301 0 0.0024619838)
(0.00011848847 0 0.0023982004)
(0.00010461288 0 0.0022774332)
(9.0797609e-05 0 0.0020888295)
(7.5767903e-05 0 0.0018131374)
(5.7690872e-05 0 0.0014167728)
(3.3446396e-05 0 0.00083473524)
(0 0 0)
(0.00084796455 0 -0.0010686853)
(0.00084782929 0 -0.0010688874)
(0.00084770486 0 -0.001070393)
(0.00084753945 0 -0.0010721725)
(0.00084732041 0 -0.0010742735)
(0.00084703071 0 -0.001076749)
(0.00084664779 0 -0.0010796575)
(0.00084614169 0 -0.0010830636)
(0.00084547292 0 -0.0010870354)
(0.00084458936 0 -0.0010916429)
(0.00084342261 0 -0.0010969534)
(0.00084188344 0 -0.001103024)
(0.00083986446 0 -0.0011098623)
(0.00083723787 0 -0.0011173795)
(0.00083383026 0 -0.0011254064)
(0.00082941275 0 -0.0011336673)
(0.00082370547 0 -0.0011416959)
(0.00081637624 0 -0.0011487596)
(0.00080705729 0 -0.0011536746)
(0.00079536865 0 -0.0011545954)
(0.00078092444 0 -0.0011490561)
(0.00076337013 0 -0.0011339779)
(0.00074246623 0 -0.0011054827)
(0.00071814884 0 -0.0010590425)
(0.00069057006 0 -0.00098986281)
(0.00066010345 0 -0.00089332751)
(0.00062727681 0 -0.00076569526)
(0.00059277643 0 -0.00060450412)
(0.0005572538 0 -0.0004100155)
(0.00052117002 0 -0.00018560727)
(0.00048489624 0 6.3861094e-05)
(0.00044877291 0 0.00033175143)
(0.00041312035 0 0.00061012676)
(0.00037828242 0 0.00089055123)
(0.00034460434 0 0.0011647819)
(0.0003124649 0 0.0014247898)
(0.00028220986 0 0.0016636542)
(0.00025410928 0 0.0018762792)
(0.00022836877 0 0.0020585671)
(0.0002050416 0 0.0022080584)
(0.00018411913 0 0.0023224375)
(0.0001653361 0 0.0023994809)
(0.00014823304 0 0.0024354412)
(0.00013247856 0 0.0024262879)
(0.00011790826 0 0.0023665613)
(0.00010406018 0 0.0022496111)
(9.0244768e-05 0 0.0020644666)
(7.5212475e-05 0 0.0017919559)
(5.7157088e-05 0 0.0013988946)
(3.3036018e-05 0 0.00082225251)
(0 0 0)
(0.0008418393 0 -0.0011563422)
(0.0008417003 0 -0.0011565918)
(0.00084156156 0 -0.0011581793)
(0.00084137864 0 -0.001160056)
(0.00084113813 0 -0.0011622721)
(0.00084082205 0 -0.001164884)
(0.00084040666 0 -0.0011679539)
(0.00083986052 0 -0.0011715506)
(0.00083914223 0 -0.0011757474)
(0.00083819727 0 -0.0011806201)
(0.00083695418 0 -0.0011862428)
(0.00083532173 0 -0.001192683)
(0.00083319448 0 -0.0011999152)
(0.00083044005 0 -0.0012078467)
(0.00082687485 0 -0.0012163413)
(0.00082226355 0 -0.001225117)
(0.0008163199 0 -0.0012336981)
(0.00080871029 0 -0.0012413288)
(0.00079907906 0 -0.0012467051)