/*--------------------------------*- C++ -*----------------------------------*\
  =========                 |
  \\      /  F ield         | OpenFOAM: The Open Source CFD Toolbox
   \\    /   O peration     | Website:  https://openfoam.org
    \\  /    A nd           | Version:  8
     \\/     M anipulation  |
\*---------------------------------------------------------------------------*/
FoamFile
{
    version     2.0;
    format      ascii;
    class       volScalarField;
    location    "0.229992";
    object      rho;
}
// * * * * * * * * * * * * * * * * * * * * * * * * * * * * * * * * * * * * * //

dimensions      [1 -3 0 0 0 0 0];

internalField   nonuniform List<scalar> 
20000
(
0.92843974
0.92932288
0.9331563
0.94156531
0.95819456
0.9848394
0.9902616
0.99260032
0.99099866
0.99272592
0.99217965
0.99382789
0.99408751
0.99596861
0.99702783
0.99942419
1.0014373
1.0046533
1.0079202
1.0123615
1.017278
1.0233796
1.0302816
1.0383993
1.0476122
1.0585703
1.0705407
1.0832241
1.0960185
1.1085158
1.1201908
1.1306338
1.1396223
1.1471167
1.1531768
1.1579647
1.1616674
1.164485
1.1665496
1.1681143
1.1694601
1.1704942
1.1711073
1.1713632
1.1714126
1.1710655
1.1705533
1.16928
1.168942
1.1643423
0.92400758
0.92532475
0.92956162
0.93859024
0.95664889
0.98268147
0.98642957
0.98879888
0.98721223
0.98897987
0.98845498
0.99015686
0.99044902
0.99239873
0.99351443
0.99600226
0.99811301
1.0014621
1.0048841
1.0094987
1.0146046
1.0208989
1.0280396
1.0364985
1.0462791
1.0578195
1.0703557
1.0832673
1.0963666
1.1090398
1.1207712
1.1311933
1.1401145
1.1475199
1.1534919
1.1582063
1.1618551
1.1646274
1.1666521
1.1682084
1.169593
1.1706039
1.1711735
1.1714075
1.1714521
1.1710876
1.1705529
1.1692865
1.1688557
1.1642562
0.91997575
0.92166828
0.92628705
0.93593528
0.95556385
0.98072696
0.98283613
0.98522419
0.98363752
0.98545249
0.98493757
0.98669265
0.98701587
0.98903134
0.99020569
0.99278298
0.99499624
0.99847592
1.0020477
1.0068175
1.012093
1.0185864
1.0260322
1.0349951
1.0456288
1.0576775
1.0703773
1.0836304
1.0969615
1.1097672
1.1215251
1.1318903
1.1407099
1.1479974
1.1538578
1.158482
1.1620658
1.1647859
1.1667681
1.1683261
1.169757
1.1707404
1.1712755
1.1714789
1.1715049
1.1711154
1.1705166
1.1692739
1.167784
1.1642912
0.91608017
0.91819551
0.92323672
0.93348157
0.95473184
0.978612
0.97938852
0.98182273
0.98024218
0.98210556
0.98160929
0.98342231
0.98378204
0.98586948
0.98710934
0.98978524
0.99210844
0.99572161
0.99943603
1.0043559
1.0098219
1.0165923
1.024512
1.034271
1.0453992
1.0576416
1.0707216
1.0843349
1.0979022
1.1108038
1.1225372
1.1327983
1.1414736
1.1486072
1.1543257
1.1588352
1.1623327
1.1649812
1.1669104
1.1684743
1.1699082
1.1708387
1.171345
1.1715376
1.1715538
1.1711499
1.1705088
1.1692372
1.1670862
1.1643377
0.91253131
0.91507492
0.92055014
0.93136243
0.95422496
0.97648978
0.97618993
0.97866763
0.97709502
0.97900865
0.97853158
0.98040453
0.98080438
0.98296851
0.98428065
0.98705853
0.98948921
0.9932217
0.99707106
1.0021616
1.0078896
1.0150875
1.0237536
1.0339976
1.0453794
1.0579679
1.071459
1.0854014
1.0991518
1.1120984
1.1237602
1.1338726
1.1423649
1.1493129
1.1548644
1.1592403
1.1626359
1.1652001
1.1670742
1.168651
1.1700567
1.1709351
1.1714107
1.1715921
1.1715941
1.1712031
1.1704622
1.1691476
1.166758
1.1643709
0.90910545
0.91215299
0.91815165
0.92955153
0.95394933
0.97437737
0.97324079
0.97577337
0.97421207
0.97617923
0.97572531
0.97766162
0.97810707
0.98035415
0.98174575
0.98462713
0.98716115
0.99100644
0.99500502
1.0003412
1.006473
1.014356
1.0234705
1.0339624
1.0456653
1.0587028
1.0725986
1.086835
1.1007276
1.1136669
1.1252044
1.1351215
1.1433913
1.1501217
1.155481
1.1597033
1.1629804
1.1654465
1.1672625
1.1688529
1.1702
1.1710266
1.1714653
1.1716366
1.1716154
1.1712238
1.1704146
1.1690524
1.1664795
1.1643741
0.90620553
0.90970321
0.91622125
0.92821288
0.95394596
0.97238212
0.97060612
0.97318313
0.9716302
0.97364977
0.9732206
0.97522482
0.97572163
0.97805544
0.979527
0.98250906
0.98515105
0.98913271
0.99335447
0.99907709
1.0058359
1.0140811
1.0234291
1.0342065
1.0463956
1.0598744
1.0741503
1.0886355
1.1026143
1.1154893
1.1268499
1.1365263
1.1445365
1.1510198
1.1561643
1.1602157
1.1633594
1.1657167
1.167474
1.1690725
1.1703454
1.1711149
1.1715161
1.1716733
1.1716233
1.1712247
1.170362
1.1688235
1.1662336
1.1643694
0.90339332
0.90749004
0.91460966
0.92726668
0.95407679
0.9704937
0.96824928
0.97088162
0.96934566
0.97142921
0.9710364
0.97311687
0.97366879
0.9760861
0.97763379
0.98071908
0.98350943
0.98771625
0.99235208
0.99855865
1.0055993
1.0140405
1.0236555
1.0349109
1.0475659
1.0614881
1.076113
1.0907975
1.1048055
1.117557
1.1286871
1.138078
1.1457928
1.1520015
1.1569101
1.1607744
1.1637708
1.1660107
1.1677088
1.1693056
1.1704924
1.1712007
1.171566
1.171706
1.1716261
1.171218
1.1702977
1.1685121
1.1660585
1.1643619
0.90107333
0.90566538
0.91341372
0.9268362
0.95435333
0.96881164
0.96622453
0.96891389
0.96739809
0.96955024
0.96919499
0.97135034
0.97195733
0.97445784
0.97609726
0.97932054
0.98234422
0.98695621
0.99195424
0.99837493
1.0055754
1.0142704
1.0243438
1.0360577
1.0491998
1.0635453
1.07848
1.0933084
1.1072829
1.1198506
1.1306976
1.1397603
1.1471468
1.1530558
1.1577102
1.161373
1.1642099
1.1663267
1.1679671
1.1695471
1.1706416
1.1712864
1.1716159
1.1717378
1.1716263
1.171207
1.1702043
1.1681659
1.1659
1.1643586
0.89898671
0.90417057
0.91260064
0.92694417
0.95475095
0.9673931
0.96454744
0.96730495
0.96580292
0.9680233
0.96769214
0.96991492
0.97059682
0.97320481
0.97499996
0.97850045
0.98183846
0.98666025
0.99184616
0.99836875
1.0058424
1.0149507
1.0254703
1.0376772
1.0512946
1.0660417
1.0812414
1.0961537
1.1100297
1.1223526
1.1328649
1.141559
1.1485867
1.1541738
1.1585577
1.1620063
1.1646727
1.1666631
1.1682499
1.1697914
1.1707932
1.1713731
1.1716648
1.1717675
1.1716241
1.1711733
1.1700685
1.1678338
1.1657969
1.1643709
0.89746377
0.90314234
0.91226163
0.92768547
0.95530677
0.96631183
0.96323286
0.96608584
0.96456457
0.96686151
0.96652954
0.96882295
0.96965425
0.97247568
0.97448961
0.97817095
0.98165163
0.98658887
0.99186764
0.99868783
1.0065407
1.0160624
1.0270667
1.0397627
1.0538482
1.0689654
1.0843789
1.0993106
1.1130217
1.1250398
1.1351683
1.1434567
1.1500985
1.1553445
1.1594443
1.1626678
1.1651547
1.1670169
1.1685556
1.1700341
1.1709493
1.1714633
1.1717141
1.1717959
1.1716205
1.1711194
1.1698834
1.1675285
1.1656967
1.1643887
0.89622557
0.9024258
0.91226218
0.92896896
0.95589694
0.96552771
0.96229672
0.96522368
0.96367607
0.96606264
0.96582456
0.96831278
0.96924396
0.97218214
0.97429462
0.978078
0.98163177
0.98669282
0.99227637
0.9994136
1.0076625
1.0176333
1.029126
1.0423166
1.0568532
1.0723042
1.0878748
1.102758
1.1162364
1.1278905
1.1375887
1.1454372
1.1516692
1.1565579
1.1603625
1.1633517
1.1656517
1.1673855
1.1688792
1.170272
1.1711059
1.1715583
1.1717653
1.1718288
1.1716129
1.1710529
1.1696529
1.1672611
1.165607
1.1643756
0.89534119
0.90204612
0.91259324
0.93077069
0.95654368
0.96499407
0.96169422
0.96465153
0.96323269
0.96566998
0.96558821
0.96814943
0.96908643
0.97209628
0.97425842
0.97810445
0.98185995
0.98718516
0.99306147
1.0005555
1.0092269
1.0196557
1.0316484
1.0453284
1.060295
1.0760363
1.091702
1.1064665
1.1196449
1.1308788
1.1401039
1.1474824
1.1532846
1.1578032
1.1613039
1.1640518
1.1661596
1.1677663
1.1692102
1.1705066
1.1712653
1.1716583
1.1718222
1.1718682
1.1716036
1.1709755
1.1693838
1.1670423
1.1655293
1.1643571
0.89463765
0.90186724
0.91313817
0.93297603
0.95718423
0.96470791
0.96138988
0.96439625
0.9630421
0.96556584
0.96550121
0.9681006
0.96905835
0.9721225
0.97442249
0.97847848
0.98246074
0.98804429
0.99425829
1.0021214
1.0112288
1.0221307
1.0346273
1.0487912
1.0641606
1.0801434
1.0958372
1.1104105
1.123222
1.1339815
1.142694
1.1495759
1.1549317
1.1590703
1.1622611
1.1647621
1.1666745
1.1681564
1.1695441
1.1707362
1.1714233
1.1717617
1.1718879
1.1719099
1.1715972
1.1708874
1.1690847
1.1668725
1.1654618
1.164343
0.89423385
0.90199804
0.91399462
0.93557796
0.95786853
0.96466271
0.96131921
0.96438871
0.96300402
0.96559239
0.96547581
0.96816439
0.96922997
0.97246554
0.97494162
0.97919312
0.98343021
0.98929901
0.99585744
1.0041066
1.0136646
1.0250484
1.0380527
1.0526882
1.068428
1.0845962
1.1002475
1.1145564
1.1269366
1.1371714
1.1453363
1.1516998
1.1565967
1.160349
1.1632261
1.1654771
1.167193
1.1685533
1.1698783
1.1709584
1.1715702
1.1718618
1.1719652
1.1719461
1.1715925
1.1707874
1.1687855
1.1667215
1.1653953
1.1643272
0.89401445
0.90232446
0.91507195
0.93847662
0.95849576
0.96472215
0.96132935
0.96440714
0.96307971
0.96571156
0.96569671
0.96849471
0.96975047
0.97315055
0.97581355
0.98027958
0.98477818
0.99093773
0.99785813
1.0065059
1.0165272
1.028403
1.0419162
1.0570084
1.0730799
1.089372
1.1049061
1.1188763
1.1307622
1.1404253
1.1480115
1.1538384
1.1582673
1.1616298
1.164192
1.1661915
1.1677123
1.168955
1.1702107
1.1711732
1.1717073
1.1719576
1.1720459
1.1719765
1.1715857
1.1706709
1.1684883
1.1665727
1.1653293
1.1643137
0.89403629
0.90291972
0.91645879
0.94167084
0.95923155
0.96504301
0.96165622
0.96489302
0.96354037
0.96636292
0.96632165
0.96923622
0.97063485
0.97419107
0.97704078
0.98172014
0.98649185
0.99295535
1.0002493
1.0093094
1.0198064
1.0321827
1.0462029
1.0617313
1.0780885
1.0944372
1.1097766
1.1233351
1.1346669
1.1437161
1.1506979
1.1559752
1.1599312
1.1629034
1.1651514
1.1669005
1.1682302
1.1693604
1.1705381
1.171381
1.1718368
1.1720485
1.1721248
1.1720056
1.1715738
1.1705212
1.1681925
1.1664226
1.16527
1.1643052
0.89441425
0.90387552
0.91825513
0.94517965
0.96014908
0.96556406
0.96230054
0.96554329
0.96433368
0.96715813
0.96729709
0.9703514
0.97184145
0.97555458
0.97860172
0.98350536
0.98856212
0.99534046
1.0030227
1.0125094
1.0234951
1.0363811
1.0509039
1.0668432
1.0834334
1.0997659
1.1148301
1.1279034
1.1386235
1.1470209
1.1533778
1.1580968
1.1615784
1.1641619
1.166098
1.1675998
1.1687449
1.169769
1.1708564
1.1715818
1.1719613
1.1721346
1.1721996
1.1720403
1.1715526
1.1703097
1.1679091
1.166276
1.165213
1.1642981
0.895056
0.90510859
0.92040406
0.94886126
0.96123051
0.96651435
0.96325458
0.96659742
0.96542586
0.96835014
0.96855452
0.97172523
0.97334873
0.97723105
0.98048652
0.98562276
0.99097713
0.99808259
1.0061674
1.0160954
1.0275834
1.0409854
1.0560028
1.0723198
1.0890832
1.1053202
1.1200275
1.1325438
1.1425996
1.1503142
1.1560324
1.1601895
1.1631986
1.1653976
1.1670256
1.1682849
1.1692548
1.1701805
1.1711604
1.1717745
1.1720839
1.172218
1.1722681
1.1720721
1.1715178
1.1700219
1.1676459
1.166133
1.1651584
1.1642959
0.89594394
0.90659652
0.92290592
0.95254482
0.96242926
0.96771567
0.96447558
0.96786421
0.96673436
0.96974615
0.97007506
0.97338208
0.97515232
0.97920838
0.98268286
0.98806066
0.9937258
1.001172
1.009676
1.020062
1.0320669
1.0459911
1.0614905
1.0781453
1.095014
1.1110713
1.1253372
1.1372256
1.1465691
1.1535768
1.1586479
1.162243
1.1647837
1.1666048
1.1679292
1.1689518
1.169758
1.1705926
1.1714462
1.1719574
1.172206
1.1723031
1.1723278
1.1720829
1.1714654
1.1696691
1.1674005
1.1659987
1.1651079
1.1642976
0.89713489
0.90837529
0.92581498
0.95634095
0.96383882
0.96914987
0.9659402
0.96941778
0.96831963
0.97146767
0.97187696
0.97531615
0.97723796
0.98147438
0.98517884
0.99080837
0.99679803
1.0046001
1.0135405
1.0244023
1.0369372
1.0513865
1.0673484
1.0842919
1.10119
1.1169784
1.1307174
1.1419118
1.1505045
1.1567899
1.16121
1.1642458
1.1663248
1.1677769
1.1688046
1.1695968
1.1702519
1.1709971
1.1717157
1.1721296
1.1723243
1.1723977
1.1723734
1.1720912
1.1713874
1.1692861
1.167163
1.165876
1.1650581
1.1642997
0.89858322
0.91039665
0.9290929
0.96022068
0.96557951
0.97083254
0.96762904
0.97120785
0.97014861
0.97341613
0.97392983
0.97751018
0.97959415
0.98401751
0.9879638
0.99385552
1.0001858
1.0083611
1.0177581
1.0291148
1.0421938
1.0571674
1.0735667
1.0907405
1.1075839
1.1230087
1.1361345
1.1465751
1.1543897
1.1599426
1.1637078
1.1661874
1.1678135
1.1689078
1.1696487
1.1702178
1.1707331
1.1713866
1.1719699
1.1722934
1.1724393
1.1724957
1.1724143
1.1720967
1.1712668
1.1688953
1.1669379
1.1657707
1.165021
1.1643064
0.90032886
0.91268743
0.93274967
0.96412858
0.96738472
0.97272917
0.96953801
0.97322738
0.9722252
0.97561144
0.9762314
0.97995516
0.98221045
0.98682693
0.9910284
0.99719513
1.0038835
1.0124515
1.0223257
1.0341965
1.04783
1.0633225
1.0801228
1.0974588
1.1141543
1.129117
1.1415479
1.151189
1.1582111
1.1630223
1.166127
1.1680548
1.1692409
1.1699895
1.1704579
1.170815
1.1711985
1.1717548
1.1722086
1.1724515
1.1725533
1.17259
1.172456
1.1720986
1.1710792
1.1685214
1.1667345
1.1656888
1.165003
1.1643207
0.90229469
0.9151776
0.93670986
0.96805441
0.96942124
0.97483251
0.97165976
0.97546954
0.97453081
0.97803416
0.97876608
0.98264018
0.98507591
0.98989463
0.99436575
1.0008221
1.007889
1.0168717
1.0272455
1.0396498
1.0538472
1.0698467
1.0870038
1.1044224
1.1208683
1.1352677
1.1469311
1.1557431
1.1619617
1.1660142
1.1684521
1.169837
1.1706016
1.1710153
1.171227
1.1713911
1.1716464
1.1720983
1.1724312
1.1726043
1.1726691
1.1726739
1.1724968
1.1720769
1.1708028
1.1681879
1.1665584
1.1656201
1.164989
1.1643423
0.90458161
0.91794866
0.94102087
0.97199734
0.97163707
0.97715612
0.97400464
0.97792075
0.97705343
0.98067392
0.98152709
0.98555491
0.98818391
0.99321467
0.99797255
1.0047359
1.0122032
1.0216235
1.032519
1.0454744
1.0602395
1.0767258
1.0941817
1.111592
1.1276791
1.1414181
1.1522596
1.160228
1.165618
1.1688844
1.1706627
1.1715273
1.1718938
1.1719837
1.1719483
1.1719485
1.1720772
1.1724153
1.1726384
1.1727489
1.1727891
1.1727454
1.1725331
1.1720266
1.1704335
1.1679082
1.166405
1.1655547
1.1649791
1.1643704
0.90716325
0.92094611
0.94560138
0.97588444
0.97405251
0.97966536
0.97654929
0.98056844
0.97977738
0.98352138
0.98450478
0.98869416
0.99153069
0.99678544
1.001849
1.0089386
1.0168301
1.0267127
1.0381522
1.0516752
1.0670082
1.0839519
1.1016375
1.1189361
1.1345504
1.147541
1.1575268
1.1646317
1.1691367
1.1716124
1.1727483
1.1731261
1.1731179
1.1728989
1.1726186
1.1724824
1.1724927
1.172706
1.1728325
1.1728897
1.1729035
1.1728057
1.1725487
1.1719453
1.1700149
1.1676542
1.1662738
1.1655082
1.1649741
1.1644051
0.90997481
0.9241621
0.95041838
0.97971329
0.97663867
0.98235875
0.97928913
0.98340917
0.98269909
0.98657296
0.98769725
0.99205639
0.99511615
1.0006085
1.0059987
1.0134358
1.0217759
1.0321447
1.0441491
1.0582523
1.0741455
1.0915045
1.1093351
1.1264074
1.1414359
1.1536096
1.1627209
1.1688995
1.172486
1.174176
1.1747129
1.1746561
1.1742707
1.1737545
1.1732503
1.1729746
1.1728916
1.1729721
1.1730152
1.1730296
1.1730061
1.1728587
1.1725558
1.1718296
1.1695758
1.1674118
1.1661639
1.1654914
1.1649884
1.164447
0.91309677
0.92766421
0.95546572
0.98352355
0.97941683
0.98523582
0.98221176
0.986436
0.98582058
0.98982615
0.99110506
0.99564279
0.99894395
1.0046888
1.0104277
1.0182345
1.0270485
1.0379282
1.0505177
1.0652112
1.0816499
1.0993696
1.1172462
1.133969
1.1483058
1.1596172
1.1678148
1.1729858
1.1756347
1.1765823
1.1765986
1.1760895
1.1753494
1.1745554
1.1738457
1.1734359
1.1732587
1.1732175
1.1731913
1.1731614
1.1730971
1.172908
1.172557
1.1716651
1.1691397
1.1671803
1.1660691
1.1654835
1.16501
1.1644922
0.91642316
0.93138352
0.96062962
0.98727724
0.98235839
0.98828503
0.98531596
0.98965128
0.98913662
0.99328628
0.99473111
0.99945902
1.0030195
1.0090339
1.0151443
1.0233443
1.0326567
1.0440708
1.0572625
1.0725507
1.0895081
1.1075171
1.125325
1.1415721
1.1551291
1.1655505
1.1727411
1.1768481
1.1785744
1.178883
1.178367
1.1774315
1.1763538
1.1753024
1.1744066
1.173871
1.1735873
1.173445
1.173357
1.1732848
1.1731771
1.1729549
1.1725563
1.1714275
1.168733
1.166968
1.1659872
1.165476
1.1650371
1.1645402
0.9200753
0.93541364
0.96589803
0.99103096
0.98549261
0.99151893
0.98861579
0.99306399
0.99265577
0.9969557
0.99858371
1.0035109
1.0073518
1.0136521
1.0201572
1.0287746
1.0386103
1.0505826
1.0643924
1.080275
1.0977123
1.1159234
1.1335346
1.1491838
1.1618953
1.1713762
1.1774454
1.1804603
1.1813555
1.1810573
1.1800208
1.1786781
1.1772848
1.1759974
1.174932
1.1742727
1.1738846
1.1736553
1.1735132
1.1733985
1.1732469
1.1729933
1.1725191
1.1710938
1.1683828
1.1667838
1.1659172
1.1654681
1.1650662
1.164592
0.92398703
0.9397632
0.97124033
0.99481636
0.98880871
0.99493537
0.99210483
0.99667349
0.99638426
1.0008418
1.0026695
1.0078075
1.0119489
1.0185522
1.025477
1.0345358
1.0449193
1.0574714
1.071912
1.0883777
1.1062403
1.1245455
1.1418246
1.1567657
1.1685885
1.1770153
1.1818793
1.1838308
1.1840091
1.1830843
1.1815548
1.179831
1.1781433
1.1766389
1.1754212
1.1746405
1.1741538
1.173849
1.173659
1.1735026
1.1733084
1.173009
1.1724427
1.1706699
1.1680965
1.1666303
1.1658594
1.1654758
1.1651033
1.1646479
0.92813769
0.94444641
0.97663929
0.99865694
0.99231448
0.99854599
0.9957928
1.0004866
1.0003328
1.0049528
1.0069968
1.0123569
1.0168198
1.0237451
1.0311135
1.0406391
1.0515949
1.0647491
1.0798294
1.0968584
1.1150735
1.1333494
1.1501582
1.1643003
1.1751821
1.1823996
1.1860144
1.1870268
1.1864982
1.1849674
1.182972
1.1808914
1.1789308
1.1772271
1.1758719
1.1749753
1.1743984
1.1740273
1.1737943
1.1735975
1.1733653
1.1730162
1.172324
1.1702132
1.1678389
1.16651
1.1658234
1.1654888
1.1651487
1.16471
0.93254812
0.94947325
0.98205746
1.0025624
0.9960115
1.0023524
0.99968731
1.0045112
1.0045062
1.009296
1.0115732
1.0171675
1.0219737
1.0292415
1.0370783
1.0470967
1.0586486
1.0724246
1.0881467
1.1057023
1.1241761
1.1422831
1.1584918
1.1717665
1.1815879
1.1874774
1.1898698
1.1900611
1.1888097
1.1867042
1.1842731
1.1818613
1.1796488
1.1777632
1.1762812
1.1752791
1.174621
1.1741911
1.1739185
1.1736828
1.173421
1.1730178
1.1721618
1.1697442
1.1676029
1.1664147
1.1658063
1.1655032
1.1651942
1.1647807
0.93721318
0.95485226
0.98749218
1.0065912
0.99991335
1.006366
1.003797
1.0087537
1.0089105
1.0138798
1.0164071
1.0222477
1.0274213
1.0350521
1.0433837
1.0539215
1.066094
1.0805104
1.0968691
1.1148985
1.1335168
1.1513082
1.1667998
1.1791494
1.1877221
1.1922115
1.1935159
1.1929003
1.1909453
1.1882988
1.1854615
1.1827434
1.1802999
1.1782486
1.1766498
1.1755524
1.1748231
1.1743417
1.1740315
1.173758
1.1734724
1.1730175
1.1719418
1.1692921
1.1673837
1.1663328
1.1657995
1.1655272
1.1652345
1.1648592
0.94213313
0.96058277
0.99293889
1.0108429
1.0040177
1.0105825
1.008124
1.0132195
1.0135511
1.0187082
1.021507
1.0276077
1.0331726
1.0411904
1.0500429
1.0611279
1.0739441
1.0890152
1.1059908
1.1244183
1.1430459
1.1603745
1.1750512
1.1863622
1.1935219
1.1966117
1.1969732
1.1955261
1.1929051
1.1897531
1.1865403
1.1835409
1.1808865
1.1786852
1.1769794
1.1757969
1.1750059
1.1744792
1.1741336
1.1738234
1.1735057
1.1729871
1.1716357
1.16889
1.167184
1.1662577
1.1657984
1.1655572
1.1652719
1.1649429
0.94733508
0.96665437
0.99838616
1.0152177
1.0083378
1.0150176
1.0126795
1.0179171
1.0184368
1.0237882
1.0268832
1.0332591
1.0392406
1.0476697
1.0570708
1.0687318
1.0822155
1.0979504
1.1155088
1.1342366
1.1527233
1.1694496
1.1832304
1.1933141
1.1989404
1.2007515
1.2002059
1.1979432
1.194694
1.1910725
1.1875141
1.1842578
1.1814121
1.1790752
1.1772723
1.1760146
1.1751704
1.1746039
1.1742258
1.1738818
1.1735215
1.1729143
1.1712218
1.1685569
1.1670115
1.1661911
1.1658008
1.1655904
1.1653109
1.1650281
0.95284748
0.97306363
1.0038577
1.0196354
1.0128741
1.0196704
1.0174637
1.0228481
1.0235773
1.029132
1.0325472
1.0392138
1.0456387
1.0545061
1.0644847
1.0767512
1.0909229
1.1073192
1.1254038
1.144308
1.1624951
1.1784912
1.191279
1.1999108
1.2039604
1.204679
1.203186
1.2001517
1.1963158
1.1922612
1.1883872
1.1848979
1.1818793
1.1794203
1.1775302
1.1762072
1.1753177
1.1747159
1.1743092
1.1739363
1.1735279
1.1727936
1.1707416
1.168269
1.1668739
1.1661531
1.1658178
1.1656242
1.1653539
1.1651139
0.95867604
0.9797857
1.0093532
1.024445
1.0176228
1.0245434
1.0224814
1.0280263
1.0289827
1.0347539
1.0385096
1.0454859
1.0523815
1.0617166
1.0723039
1.0852062
1.100084
1.1171254
1.1356579
1.1545928
1.1723237
1.1874754
1.1990953
1.206103
1.2086554
1.2083531
1.2059215
1.2021584
1.1977776
1.193326
1.1891657
1.1854657
1.1822903
1.1797211
1.1777545
1.1763764
1.1754486
1.1748156
1.1743837
1.1739891
1.1735298
1.1726221
1.1702432
1.1680081
1.1667647
1.1661361
1.1658433
1.1656606
1.1654017
1.1652007
0.96474674
0.98676931
1.0148973
1.0293719
1.0226012
1.0296519
1.0277535
1.033463
1.0346664
1.0406609
1.0447829
1.0520895
1.0594868
1.0693241
1.0805506
1.0941185
1.1097092
1.1273612
1.1462307
1.1650354
1.1821565
1.1963636
1.2065581
1.2118371
1.2130997
1.2117389
1.208412
1.2039682
1.1990855
1.1942728
1.1898542
1.1859638
1.1826454
1.1799779
1.1779461
1.176523
1.1755641
1.1749033
1.1744487
1.1740373
1.1735278
1.1723903
1.1697557
1.1677657
1.1666731
1.1661303
1.1658739
1.1657033
1.1654543
1.1652885
0.97110331
0.99404845
1.0205582
1.0345519
1.0278383
1.0350144
1.033289
1.0391647
1.0406358
1.0468632
1.0513816
1.0590447
1.0669782
1.0773521
1.0892498
1.1035097
1.119811
1.1380149
1.1570872
1.175591
1.1919576
1.205067
1.2135992
1.217173
1.2172649
1.2148383
1.2106664
1.2055902
1.2002482
1.1951091
1.190458
1.1863944
1.1829461
1.1801933
1.1781065
1.1766479
1.1756651
1.17498
1.174504
1.1740613
1.1734938
1.1720744
1.1693078
1.1675429
1.1665917
1.1661296
1.1659103
1.1657474
1.165511
1.1653765
0.97774152
1.0016212
1.0263564
1.0399416
1.0333178
1.0406237
1.0390836
1.045136
1.046898
1.0533783
1.0583275
1.0663776
1.0748827
1.0858294
1.0984287
1.1133989
1.1303905
1.1490565
1.1681722
1.1862034
1.2016819
1.2134544
1.2201485
1.2221827
1.221115
1.2176527
1.2126906
1.2070326
1.2012736
1.1958406
1.1909799
1.1867598
1.1831981
1.1803759
1.1782407
1.1767524
1.1757525
1.1750475
1.1745525
1.1740727
1.1734194
1.1716563
1.1689271
1.1673481
1.1665209
1.1661324
1.1659503
1.1657982
1.1655717
1.1654645
0.98463994
1.0094736
1.0323199
1.045567
1.0390427
1.0464817
1.0451478
1.0513915
1.0534792
1.0602329
1.0656495
1.0741181
1.0832301
1.0947854
1.1081134
1.1238048
1.1414447
1.1604553
1.179438
1.1968293
1.2112832
1.2214116
1.2262097
1.2268994
1.2246304
1.2201923
1.2144966
1.2083066
1.2021707
1.1964732
1.1914239
1.1870664
1.1834145
1.1805389
1.1783575
1.1768395
1.175827
1.1751076
1.174599
1.1740767
1.1732937
1.1711574
1.168616
1.167188
1.1664676
1.1661485
1.1659968
1.1658544
1.1656362
1.1655525
0.99170029
1.0175329
1.0384622
1.0513994
1.045013
1.0526101
1.0515125
1.057966
1.0604086
1.0674586
1.0733771
1.0822986
1.0920512
1.1042517
1.1183298
1.1347375
1.1529533
1.1721587
1.1908216
1.2074088
1.2206165
1.2288638
1.231853
1.2312721
1.2278179
1.2224642
1.216094
1.2094213
1.2029457
1.1970105
1.1917955
1.187327
1.1836101
1.1806873
1.1784628
1.1769148
1.1758901
1.175161
1.1746455
1.1740779
1.1731113
1.1706417
1.1683395
1.1670667
1.1664437
1.1661724
1.1660443
1.1659124
1.1657067
1.1656397
0.9990254
1.0258833
1.0445837
1.0575394
1.0513079
1.0590575
1.0582169
1.0648872
1.0677234
1.0750836
1.081544
1.0909519
1.1013791
1.1142591
1.1291026
1.1462019
1.1648912
1.1841169
1.2022718
1.2178968
1.2295496
1.2357512
1.2371778
1.2352612
1.2306863
1.2244826
1.2174963
1.2103869
1.2036049
1.1974589
1.1921069
1.1875576
1.1837833
1.180795
1.1785449
1.1769837
1.1759441
1.1752072
1.1746864
1.1740703
1.1728658
1.1701401
1.1680919
1.1669706
1.166432
1.1662017
1.166088
1.1659623
1.1657874
1.1657262
1.0065498
1.0345058
1.0510609
1.0639719
1.0579159
1.0658291
1.0652749
1.0721863
1.0754461
1.0831422
1.0901821
1.1001131
1.1112507
1.1248398
1.14045
1.1581877
1.1772117
1.1962617
1.213717
1.228185
1.2379611
1.2421364
1.2421231
1.2388737
1.2332453
1.2262593
1.2187139
1.2112101
1.2041544
1.19783
1.1923748
1.1877621
1.1838914
1.180844
1.1785833
1.1770421
1.1759923
1.1752451
1.1747059
1.1740364
1.1725439
1.1696849
1.1678703
1.1668894
1.1664284
1.1662325
1.1661326
1.1660104
1.1658683
1.1658119
1.014337
1.0435146
1.0579943
1.0707368
1.0648742
1.0729572
1.0727234
1.079883
1.083616
1.0916712
1.099329
1.1098239
1.1217014
1.1360237
1.1523841
1.1706765
1.1898656
1.2085365
1.2250998
1.2381232
1.2457775
1.2481093
1.2466569
1.2421185
1.2355109
1.2278103
1.2197587
1.2119002
1.2046075
1.1981438
1.1926122
1.1879108
1.183939
1.1808647
1.1786016
1.1770709
1.176037
1.1752765
1.1747151
1.1739619
1.1721215
1.1693068
1.1676813
1.1668206
1.1664278
1.1662663
1.1661787
1.1660597
1.1659471
1.1658957
1.0223405
1.0528896
1.0650229
1.077841
1.072205
1.0804762
1.0806002
1.0880151
1.0922634
1.1007126
1.1090275
1.1201262
1.1327702
1.1478371
1.164905
1.1836276
1.2027829
1.2208634
1.2363418
1.2475453
1.2529866
1.2536881
1.2507519
1.2450064
1.2374967
1.2291476
1.2206403
1.2124695
1.2049858
1.1984189
1.1928063
1.1879787
1.1839552
1.1808731
1.1786105
1.1770866
1.1760768
1.1753068
1.174719
1.1738311
1.1716123
1.1690041
1.1675329
1.1667783
1.1664418
1.1663047
1.1662261
1.1661107
1.1660245
1.1659757
1.0306092
1.0626867
1.0724612
1.0853443
1.0799608
1.0884244
1.0889412
1.0966294
1.1014371
1.1103122
1.1193243
1.1310615
1.144491
1.1602984
1.1779998
1.1969943
1.2158971
1.2331689
1.2472916
1.2563582
1.2596752
1.2588212
1.2544268
1.2475549
1.2392209
1.2302858
1.2213725
1.2129408
1.205312
1.1986486
1.1929027
1.1880059
1.1839585
1.1808713
1.178613
1.1770955
1.1761019
1.1753391
1.1747199
1.1736362
1.1710917
1.1687348
1.1674198
1.1667604
1.1664666
1.1663477
1.166275
1.1661647
1.1661012
1.1660504
1.039193
1.0729646
1.0802642
1.0932703
1.0881705
1.0968336
1.09779
1.1057666
1.1111835
1.1205209
1.1302627
1.1426739
1.1568967
1.1734154
1.1916362
1.2107043
1.2291231
1.2453597
1.2577616
1.2644762
1.265942
1.2634508
1.2576894
1.24978
1.2406983
1.2312375
1.2219739
1.2133383
1.2055827
1.1987699
1.1929474
1.1880151
1.1839451
1.1808503
1.1786014
1.1771011
1.1761185
1.1753641
1.1747066
1.1733781
1.1705873
1.168494
1.1673297
1.1667545
1.1664978
1.1663942
1.1663265
1.1662223
1.1661769
1.1661203
1.0480768
1.0837245
1.0884842
1.1016466
1.0968732
1.105748
1.107197
1.1154864
1.1215581
1.13139
1.1418908
1.1550022
1.1700122
1.1871825
1.2057688
1.2246841
1.2423769
1.2573245
1.2676018
1.2719797
1.271714
1.2676016
1.2605612
1.2517035
1.2419475
1.2320228
1.222471
1.2136695
1.20574
1.198828
1.1929647
1.1880094
1.1839091
1.180814
1.1785792
1.1770993
1.1761317
1.1753773
1.1746722
1.1730467
1.1701284
1.1682794
1.1672545
1.1667541
1.1665341
1.1664439
1.1663803
1.1662823
1.1662521
1.1661868
1.0573243
1.0950009
1.0971812
1.1105322
1.1061405
1.1152277
1.1172211
1.1258381
1.1326135
1.1429675
1.1542529
1.1680863
1.1838536
1.2015749
1.2203266
1.2388393
1.2555465
1.2688464
1.2767024
1.2789624
1.27694
1.2712786
1.2630593
1.2533425
1.2429858
1.2326669
1.2228859
1.2138913
1.2058158
1.1988514
1.1929641
1.1879787
1.1838534
1.1807625
1.1785472
1.1770897
1.1761445
1.1753836
1.1745984
1.1726153
1.1697452
1.1680961
1.1671954
1.1667616
1.1665751
1.166496
1.1664361
1.1663433
1.1663306
1.1662496
1.0670237
1.1067989
1.1064298
1.119998
1.1160312
1.1253394
1.1279108
1.1368751
1.1443921
1.155309
1.1673953
1.1819554
1.198422
1.2165479
1.2352292
1.253074
1.2685274
1.2797386
1.2850804
1.2854169
1.2816119
1.2745072
1.2652094
1.2547203
1.2438383
1.2331996
1.2232138
1.2140035
1.2058475
1.1988519
1.1929385
1.1879273
1.1837792
1.1806981
1.1785064
1.1770742
1.1761578
1.1753867
1.1744623
1.1720966
1.1694445
1.1679471
1.1671542
1.1667772
1.1666161
1.1665481
1.1664941
1.1664103
1.1664129
1.1663055
1.0772248
1.11915
1.1162995
1.1300749
1.1265988
1.1361049
1.1393424
1.1486533
1.1569482
1.1684664
1.1813637
1.1966386
1.2137008
1.2320315
1.2503696
1.2672586
1.2811018
1.2898526
1.2928236
1.291271
1.2857433
1.2773054
1.2670325
1.2558591
1.2445331
1.2336322
1.2233927
1.214053
1.2058495
1.1988226
1.1928891
1.1878563
1.1836889
1.1806221
1.1784562
1.1770559
1.1761726
1.1753795
1.1742563
1.1715778
1.1691781
1.167828
1.1671286
1.1667991
1.1666568
1.1665955
1.1665477
1.1665013
1.1664836
1.166357
1.088038
1.1320809
1.1268635
1.1408136
1.1378942
1.1475824
1.1515513
1.1612342
1.1703413
1.1825015
1.1962059
1.2121422
1.2296451
1.2479341
1.2656349
1.2812654
1.2930526
1.2991361
1.2999966
1.2964913
1.2893585
1.2797033
1.2685568
1.2567897
1.2451011
1.2339322
1.2234765
1.2140648
1.2058175
1.198766
1.1928187
1.1877686
1.1835842
1.1805352
1.1783967
1.1770374
1.1761862
1.1753596
1.1739872
1.1710833
1.1689423
1.1677344
1.1671151
1.1668243
1.1666982
1.1666441
1.166602
1.1665995
1.1665442
1.1664038
1.0995689
1.145566
1.1381677
1.1522423
1.1499576
1.1598288
1.1645876
1.1746919
1.184647
1.197479
1.2119577
1.2284552
1.2461818
1.2641329
1.280876
1.2948923
1.3041767
1.3076707
1.3065003
1.3010972
1.2924791
1.2817263
1.2698098
1.257543
1.2455514
1.2340932
1.2235121
1.2140395
1.2057525
1.1986851
1.19273
1.1876664
1.1834662
1.180435
1.1783343
1.177018
1.1761977
1.1753236
1.1736536
1.1706352
1.1687328
1.1676585
1.1671115
1.1668543
1.1667454
1.1667004
1.1666617
1.1666817
1.1666023
1.1664487
1.1119536
1.1595293
1.1502572
1.1643844
1.1628449
1.1729293
1.1785596
1.1891303
1.1999516
1.2134598
1.2286345
1.2455243
1.2632025
1.2804918
1.2959348
1.307879
1.3143693
1.3155747
1.3122819
1.3051118
1.2951407
1.2834098
1.2708292
1.258151
1.2458373
1.2341691
1.2235056
1.2139743
1.2056598
1.198584
1.192626
1.1875524
1.1833351
1.1803199
1.1782739
1.1769982
1.1762075
1.1752583
1.1732399
1.1702563
1.1685514
1.1675944
1.1671122
1.1668912
1.1668007
1.1667639
1.1667325
1.1667482
1.1666554
1.1664939
1.1252867
1.1738045
1.1631908
1.177321
1.1766658
1.1870308
1.1935885
1.2046646
1.2163258
1.2304813
1.2462109
1.2632635
1.2805628
1.2968361
1.3106052
1.3199769
1.3237031
1.3227215
1.3173646
1.3085609
1.2973737
1.2847866
1.2716505
1.2586197
1.245989
1.2341914
1.2234527
1.2138765
1.2055434
1.1984658
1.1925096
1.1874296
1.1831919
1.1801972
1.1782135
1.1769777
1.1762123
1.1751391
1.1727343
1.1699705
1.1684021
1.1675454
1.1671219
1.166934
1.1668594
1.166828
1.1668011
1.1668035
1.1667089
1.1665479
1.1399876
1.188336
1.1772095
1.1912646
1.1916496
1.2022173
1.2097851
1.2213742
1.2338321
1.2485375
1.2646181
1.2815335
1.2980917
1.3129646
1.324579
1.3310415
1.3323193
1.3290512
1.3217728
1.3114859
1.2992209
1.2859006
1.2723046
1.2589046
1.2460623
1.2341676
1.2233611
1.2137513
1.2054083
1.1983341
1.1923835
1.1873007
1.1830366
1.1800722
1.1781542
1.1769551
1.1762002
1.1749533
1.1722339
1.1697143
1.1682797
1.1675124
1.1671403
1.1669786
1.1669149
1.1668872
1.1668631
1.1668574
1.1667661
1.1666111
1.156087
1.2031497
1.1924291
1.2064376
1.2079155