/*--------------------------------*- C++ -*----------------------------------*\
  =========                 |
  \\      /  F ield         | OpenFOAM: The Open Source CFD Toolbox
   \\    /   O peration     | Website:  https://openfoam.org
    \\  /    A nd           | Version:  8
     \\/     M anipulation  |
\*---------------------------------------------------------------------------*/
FoamFile
{
    version     2.0;
    format      ascii;
    class       surfaceVectorField;
    location    "0.229992";
    object      rhoUf;
}
// * * * * * * * * * * * * * * * * * * * * * * * * * * * * * * * * * * * * * //

dimensions      [1 -2 -1 0 0 0 0];

internalField   nonuniform List<vector> 
39600
(
(205.86256 -1.7324839e-19 2.6385789)
(190.50445 4.0308008e-17 1.8907802)
(188.63057 -1.6237982e-19 2.6199766)
(236.80986 1.6314917e-19 2.9223115)
(226.48797 0 2.4263048)
(224.48534 1.9171565e-22 3.2671533)
(260.84936 1.9662876e-19 3.0680224)
(251.4232 -8.142077e-21 2.5162734)
(249.25712 1.8831841e-19 3.4735309)
(284.14288 -1.5689033e-17 3.1462837)
(274.51881 -2.0348626e-17 2.6328058)
(272.19284 -3.526856e-17 3.6600629)
(307.16185 -5.2463653e-18 3.1379157)
(298.22401 6.736589e-19 2.4118248)
(295.6173 -1.810308e-17 3.578833)
(320.20763 1.6256659e-17 3.0852889)
(319.98303 1.4728029e-17 2.7875082)
(318.41939 6.9133134e-17 3.9582928)
(322.43074 -5.9913788e-19 3.0813545)
(321.29044 -5.705107e-18 1.9449336)
(321.16177 -4.5919945e-17 3.2062755)
(322.90591 -7.2247171e-19 3.0616427)
(323.88148 5.4516142e-18 3.1531008)
(323.76321 1.8585649e-17 4.3424851)
(322.37776 0 3.0261885)
(321.82949 -2.2656585e-18 1.5865364)
(321.73301 1.6196975e-17 2.8720383)
(322.57617 0 2.9907489)
(323.13635 1.6465963e-18 3.2445498)
(323.00947 1.6237298e-20 4.4401956)
(322.27283 1.8228282e-20 2.9405103)
(322.0093 1.7680984e-18 1.4926418)
(321.89699 -1.1382068e-17 2.7673998)
(322.33492 5.2264171e-20 2.886193)
(322.69933 1.3315077e-18 3.0548731)
(322.56881 -9.5420118e-18 4.2665256)
(322.10844 3.2732655e-18 2.8127764)
(322.01574 2.2218985e-18 1.5382688)
(321.89069 -1.3036035e-20 2.8009842)
(322.08419 -1.5072108e-19 2.7304537)
(322.341 -1.114671e-19 2.706679)
(322.2045 3.7108975e-18 3.936063)
(321.89698 -7.0888067e-18 2.6226565)
(321.90793 3.2044877e-18 1.581544)
(321.77082 1.1118409e-18 2.836099)
(321.80501 -2.5765319e-18 2.4980631)
(322.01853 -1.0017208e-17 2.2801626)
(321.87288 -2.5228357e-18 3.5250057)
(321.61002 -2.972781e-18 2.3387728)
(321.69729 4.3350566e-18 1.5125678)
(321.54642 5.2738113e-21 2.7668428)
(321.45015 -3.7483866e-18 2.1499195)
(321.65819 1.317405e-19 1.7948948)
(321.49884 -6.8940174e-18 3.0550316)
(321.21427 -8.6946436e-18 1.9132484)
(321.37024 -5.8495062e-18 1.2503101)
(321.203 2.8927828e-18 2.5159096)
(320.97043 3.7231988e-18 1.6311467)
(321.20431 -1.9290968e-17 1.2104437)
(321.03022 -7.0397696e-18 2.4878837)
(320.65188 1.0801682e-17 1.2926463)
(320.88155 2.3616155e-17 0.74570738)
(320.703 1.1171041e-17 2.0251171)
(320.2803 2.2888522e-18 0.90364294)
(320.56922 -6.9420838e-18 0.47618083)
(320.39059 -5.9067987e-18 1.7599757)
(319.81063 1.2590743e-17 0.46433653)
(320.12599 -3.9807648e-19 0.00076178506)
(319.95106 1.0480982e-17 1.278689)
(319.23764 6.2957077e-19 -0.015803574)
(319.60973 5.6846876e-19 -0.42629706)
(319.44172 1.1954069e-18 0.84919687)
(318.56994 -7.1160168e-19 -0.51078903)
(318.94734 0 -0.94508656)
(318.79618 0 0.33032153)
(317.73214 -8.6655509e-19 -1.0549653)
(318.11262 -7.8154365e-19 -1.4748737)
(317.96332 -7.1247422e-19 -0.19561617)
(316.6228 0 -1.5435221)
(317.12476 0 -2.0059603)
(316.9977 8.6586181e-19 -0.75367292)
(315.31382 -2.5206519e-17 -1.8738904)
(315.94508 8.8380845e-18 -2.3683144)
(315.86054 -7.7077926e-19 -1.19217)
(313.87045 -3.0918916e-17 -2.0080019)
(314.56388 8.1809929e-18 -2.5334216)
(314.5208 -2.1213723e-17 -1.4684625)
(312.36239 3.3882505e-17 -1.961296)
(313.06499 -5.8074393e-17 -2.4940144)
(313.05372 8.9391488e-21 -1.5598468)
(310.86433 4.1778298e-17 -1.7651867)
(311.53313 -1.8649216e-17 -2.2753992)
(311.54366 2.5013984e-17 -1.4845514)
(309.45363 4.1233614e-17 -1.4804368)
(310.05966 1.4787281e-17 -1.9358295)
(310.08127 0 -1.2896447)
(308.19563 5.1601291e-17 -1.1767723)
(308.72004 -9.4985e-17 -1.5539569)
(308.74388 2.9792923e-17 -1.0434196)
(307.12991 -1.2221869e-17 -0.91363947)
(307.56298 1.8933305e-17 -1.2010432)
(307.58314 3.3821897e-19 -0.81026346)
(306.27559 -2.614009e-17 -0.72673928)
(306.61369 -1.4161807e-16 -0.92323054)
(306.62813 -4.3446804e-18 -0.63355322)
(305.62805 1.7498776e-18 -0.63040439)
(305.87989 -1.1380911e-17 -0.74679078)
(305.88859 -3.7002605e-18 -0.53837777)
(305.16654 1.7994823e-17 -0.6176878)
(305.33954 -3.0848567e-19 -0.67027559)
(305.34442 7.5050599e-18 -0.52487598)
(304.86683 -6.509891e-17 -0.67459707)
(304.97255 1.1121514e-16 -0.67642975)
(304.97512 4.9428967e-20 -0.57965691)
(304.70611 -1.3018028e-16 -0.7850737)
(304.75198 7.8093811e-19 -0.74745811)
(304.75362 -2.7734715e-17 -0.68675049)
(304.65175 -1.3278549e-16 -0.93903253)
(304.65942 9.6401712e-17 -0.87523824)
(304.66266 -1.6090635e-17 -0.83686961)
(304.67103 -1.5642553e-16 -1.0770139)
(304.63711 -1.316824e-16 -1.0506323)
(304.65078 -2.5336132e-17 -1.0262515)
(304.73491 -7.4277596e-17 -1.1555979)
(304.66005 -2.9697464e-17 -1.2181481)
(304.67111 -1.9978015e-17 -1.205178)
(304.80583 1.2367747e-17 -1.2147815)
(304.7153 6.335701e-20 -1.3289519)
(304.71763 1.8888313e-18 -1.325369)
(304.85581 0 -1.3628514)
(304.7948 8.1299522e-18 -1.3869886)
(304.78117 0 -1.3901507)
(304.96619 -6.343724e-17 -1.3882549)
(304.90873 8.3913101e-17 -1.4027993)
(304.89994 0 -1.4130144)
(305.05762 -3.1644657e-17 -1.2915028)
(305.04219 -5.7514257e-19 -1.3459027)
(305.04716 -1.2730874e-17 -1.3588772)
(304.91993 2.3210912e-17 -1.7152624)
(305.08236 7.3351266e-18 -1.2159829)
(305.08274 7.9585721e-18 -1.234467)
(305.04597 -1.6678449e-17 -0.65984876)
(304.82116 -9.3597085e-18 -0.92255252)
(305.0714 -5.4491365e-18 -0.94206498)
(304.86379 5.5962091e-17 -1.2272129)
(305.18726 1.244779e-17 -0.41301109)
(305.14408 3.8809287e-18 -0.44736061)
(304.39706 4.3627114e-17 0.54350831)
(305.08187 4.5976008e-18 0.53499052)
(207.82519 4.365101e-17 1.8452774)
(192.34555 3.9526562e-17 1.1024262)
(238.84359 -1.6657291e-19 1.998254)
(228.45072 0 1.5584988)
(262.99925 -1.849298e-17 2.0452324)
(253.52199 -1.8091555e-19 1.5171845)
(286.44533 -6.0021758e-18 2.0332019)
(276.72618 -1.9869267e-17 1.564208)
(309.07207 1.9088275e-17 1.9369854)
(300.6625 1.8418549e-17 1.2003756)
(320.95303 -5.1308549e-18 1.8558963)
(321.23378 0 1.5836591)
(322.51836 -6.6236142e-19 1.8404755)
(321.38382 -6.399845e-18 0.65168179)
(322.99881 4.5445943e-18 1.8171423)
(323.98831 5.9629576e-18 1.9476881)
(322.47556 -9.6272634e-19 1.7798287)
(321.92167 -2.2126635e-18 0.27730062)
(322.67721 3.3640423e-18 1.7422716)
(323.2481 5.4160797e-18 2.0301044)
(322.37684 3.0858361e-18 1.6906146)
(322.10628 -1.4442087e-18 0.19001786)
(322.44524 3.3793492e-18 1.6341284)
(322.81355 6.5732664e-18 1.824175)
(322.22251 -8.9817017e-19 1.5588534)
(322.12345 6.5467708e-18 0.24562241)
(322.20513 2.9028349e-18 1.4742621)
(322.45974 -1.0912091e-17 1.4560847)
(322.02396 1.3957482e-18 1.3633606)
(322.02802 7.4268051e-18 0.2963487)
(321.94002 -4.4002012e-18 1.23557)
(322.14602 -7.4080796e-18 1.0100217)
(321.75361 7.7077789e-18 1.0707698)
(321.83209 -4.3929628e-18 0.22600488)
(321.60301 -1.4410786e-18 0.87596141)
(321.79968 3.4464848e-18 0.50481486)
(321.37708 -1.5122952e-17 0.63114671)
(321.52104 2.1719726e-19 -0.047471892)
(321.14115 -3.3358361e-18 0.3443035)
(321.3586 -1.9520003e-17 -0.094935343)
(320.82876 8.7814447e-18 0.0029698347)
(321.03895 3.2593484e-17 -0.55947358)
(320.46035 -1.0125736e-17 -0.38325206)
(320.72379 0 -0.83095356)
(319.99192 -1.2263396e-17 -0.82078246)
(320.27773 -1.1078927e-17 -1.3050265)
(319.41556 0 -1.3024043)
(319.75591 3.7988148e-17 -1.7414984)
(318.69178 0 -1.7985821)
(319.07811 0 -2.2789624)
(317.78724 0 -2.3335731)
(318.23982 5.2403994e-17 -2.8045)
(316.6691 7.8887575e-18 -2.7682572)
(317.21697 0 -3.2751898)
(315.35588 4.177322e-17 -2.9923)
(315.9867 8.696934e-18 -3.5493404)
(313.90503 -1.2331112e-17 -3.0133556)
(314.56672 9.3704238e-17 -3.6032842)
(312.37719 -1.1369058e-16 -2.8333472)
(313.03751 -1.0452971e-16 -3.4306713)
(310.8626 -4.8549491e-17 -2.4946115)
(311.48682 -1.1229714e-16 -3.0663343)
(309.44594 -1.0890076e-16 -2.0693923)
(310.00665 -3.6749864e-19 -2.5806089)
(308.18918 -1.3887486e-16 -1.636915)
(308.67003 -4.4352067e-17 -2.0626045)
(307.12822 -9.2668867e-17 -1.2614617)
(307.52186 1.8191569e-17 -1.5899341)
(306.27891 -1.4061774e-16 -0.98111633)
(306.58315 -1.1914882e-17 -1.2111355)
(305.6346 -1.4570907e-17 -0.81027691)
(305.85922 0 -0.95345614)
(305.17346 8.0320418e-17 -0.73995796)
(305.32613 -1.6331417e-17 -0.81375594)
(304.87215 1.8876847e-16 -0.75314844)
(304.96411 -1.8794844e-16 -0.77093942)
(304.70881 2.1581338e-16 -0.83284395)
(304.74656 7.3546335e-17 -0.80581415)
(304.64529 1.2277937e-16 -0.96611555)
(304.65346 4.0165875e-17 -0.91165066)
(304.66028 -1.6030321e-17 -1.0681741)
(304.61997 -5.0756688e-17 -1.0723683)
(304.72744 4.0271922e-17 -1.127637)
(304.6458 4.4940445e-17 -1.227478)
(304.79699 -6.0534004e-18 -1.2205593)
(304.71355 8.8941355e-21 -1.3293681)
(304.85488 8.3608932e-17 -1.3747163)
(304.80755 1.62583e-17 -1.3817374)
(304.96887 1.5655736e-16 -1.3732889)
(304.91847 -2.1460328e-16 -1.3914609)
(305.07132 3.7659044e-17 -1.2785506)
(305.04245 7.12388e-17 -1.3334554)
(305.01277 -2.472041e-17 -1.5874028)
(305.10126 -4.6507813e-17 -1.198032)
(305.24985 1.5616767e-17 -0.66212693)
(305.01656 3.0052387e-17 -0.90686371)
(305.01258 -1.122815e-17 -1.226956)
(305.17105 -1.4192199e-16 -0.38509854)
(304.68216 -1.171393e-16 0.55336559)
(209.66357 0 1.0224086)
(194.10167 0 0.2940778)
(240.84063 0 1.0519989)
(230.36447 0 0.66780966)
(265.12926 0 1.0012655)
(255.58804 -7.5899222e-19 0.48829857)
(288.74929 1.0075311e-18 0.89329272)
(278.9059 1.3105174e-18 0.46612474)
(310.9375 1.2076829e-18 0.70483175)
(303.04615 -4.604998e-18 -0.048939509)
(321.63835 -7.4234703e-19 0.5928801)
(322.29033 -1.9633068e-18 0.35293001)
(322.61501 -8.9001728e-19 0.57010374)
(321.45157 5.8542575e-18 -0.67595439)
(323.09532 0 0.54405654)
(324.07869 -8.3080386e-18 0.72183363)
(322.57135 3.42234e-18 0.50776136)
(321.99297 2.313236e-18 -1.0571967)
(322.77821 1.253733e-18 0.46789531)
(323.34343 7.5553963e-18 0.79375887)
(322.47777 1.3358373e-18 0.41495072)
(322.18637 1.0112832e-19 -1.1367302)
(322.55182 9.6642355e-18 0.35585216)
(322.91175 -1.6073868e-19 0.56827726)
(322.33116 -1.8560175e-18 0.27739808)
(322.21565 -1.5804462e-19 -1.0714691)
(322.31914 -7.9343043e-18 0.18894233)
(322.5627 -1.0919435e-17 0.17678149)
(322.14255 5.2087073e-21 0.072958532)
(322.13273 1.2420034e-17 -1.0159994)
(322.06448 -7.6382078e-18 -0.060869916)
(322.25803 5.1983186e-18 -0.29320131)
(321.88482 -9.189779e-18 -0.23339119)
(321.95153 -1.6921936e-17 -1.0930444)
(321.74037 5.3307412e-18 -0.43636899)
(321.9251 1.4379899e-17 -0.82146161)
(321.51979 -2.4765918e-18 -0.68857174)
(321.65335 -1.6443676e-19 -1.3783576)
(321.2863 1.1374705e-17 -0.9797744)
(321.49102 -1.9751363e-17 -1.4327835)
(320.97481 2.6703364e-17 -1.3232143)
(321.17268 1.5742841e-17 -1.8963745)
(320.60464 0 -1.7122631)
(320.85472 3.4740219e-17 -2.176038)
(320.13384 3.4012662e-17 -2.1592258)
(320.40829 5.8911872e-18 -2.6617995)
(319.56711 4.1275917e-17 -2.6417305)
(319.87625 -2.0604285e-17 -3.1241844)
(318.83613 4.6853079e-17 -3.1691438)
(319.19333 7.205586e-17 -3.6775195)
(317.87103 5.709396e-17 -3.6711363)
(318.3358 -6.8326654e-17 -4.1760967)
(316.69737 0 -4.0106722)
(317.26581 -7.7062542e-17 -4.5715113)
(315.35261 5.1928227e-17 -4.1346616)
(315.98696 7.2346085e-17 -4.7501006)
(313.86292 2.1637333e-17 -4.0322656)
(314.52876 1.3213452e-17 -4.6857297)
(312.31056 -1.0240759e-16 -3.7092642)
(312.9703 1.2099623e-16 -4.3707955)
(310.78543 -7.5754651e-17 -3.2212359)
(311.40427 1.6483018e-16 -3.8539949)
(309.36976 6.7902641e-17 -2.6522028)
(309.92232 1.2266695e-16 -3.2185634)
(308.12228 1.0467282e-16 -2.0901037)
(308.59421 9.397851e-17 -2.5634612)
(307.07458 1.0132461e-16 -1.6033411)
(307.46021 -1.6848425e-16 -1.9717849)
(306.23897 1.2625761e-16 -1.2313576)
(306.53686 1.2762057e-16 -1.4936753)
(305.60652 0 -0.98793937)
(305.82681 0 -1.1566328)
(305.15446 -2.6438138e-16 -0.86152277)
(305.30421 0 -0.9552264)
(304.85975 -3.311438e-16 -0.83227274)
(304.94974 -2.9692596e-16 -0.86441956)
(304.69966 -9.7685216e-17 -0.88240703)
(304.73726 2.9868547e-16 -0.86438078)
(304.6327 -1.2263912e-16 -0.99638168)
(304.6442 -1.0994542e-16 -0.94984013)
(304.65134 -3.4114977e-20 -1.0667581)
(304.59935 1.6356894e-16 -1.0951822)
(304.72381 9.7954925e-18 -1.1261256)
(304.62932 2.2577309e-16 -1.2355087)
(304.79857 2.0365175e-17 -1.2334721)
(304.71058 -3.0942605e-16 -1.3279212)
(304.86368 -2.5626339e-16 -1.3807638)
(304.81608 -8.080413e-18 -1.374526)
(304.97748 -3.3267273e-16 -1.3631353)
(304.92965 -2.99552e-16 -1.380496)
(305.07245 0 -1.2619148)
(305.04886 2.8055402e-16 -1.3200862)
(305.13847 0 -1.2093901)
(305.11199 2.1413468e-16 -1.1765134)
(305.20697 -1.1034502e-16 -0.64524962)
(305.15768 -1.45181e-17 -0.88762292)
(304.93454 -2.5166336e-16 -1.1221497)
(304.89151 3.0400236e-18 -0.35518666)
(304.853 -1.3722668e-16 0.55958031)
(211.48899 0 0.17453077)
(195.8442 6.5053492e-19 -0.54703622)
(242.82015 -6.8237281e-19 0.075857182)
(232.27083 9.3758279e-19 -0.25082509)
(267.24106 3.6038614e-19 -0.076399027)
(257.65113 3.2361739e-20 -0.57332421)
(290.99693 -3.7115249e-18 -0.28418281)
(281.07864 1.2798396e-18 -0.66889004)
(312.64123 -7.9064486e-18 -0.55869023)
(305.3438 -1.3659401e-17 -1.3396368)
(322.17494 3.871321e-18 -0.69082646)
(323.14068 6.0242722e-18 -0.89847702)
(322.67965 -2.8955385e-19 -0.71792094)
(321.50276 1.3241355e-17 -2.0274518)
(323.16641 -6.8754931e-18 -0.74788071)
(324.15594 -1.3706751e-17 -0.52248822)
(322.6447 5.9413584e-18 -0.78478334)
(322.05102 4.599256e-18 -2.4145806)
(322.85664 7.0108252e-18 -0.82785208)
(323.42502 -4.022706e-18 -0.46380029)
(322.55748 -1.3407857e-18 -0.88352573)
(322.25274 -1.2161163e-19 -2.487328)
(322.63782 -9.7621576e-18 -0.94657482)
(322.99587 2.024e-19 -0.71148445)
(322.4203 -8.1625517e-18 -1.0294683)
(322.29387 -4.3638186e-18 -2.4134772)
(322.41421 7.1342017e-18 -1.1233153)
(322.65149 3.8565932e-18 -1.1295013)
(322.24295 1.8076979e-17 -1.2462319)
(322.22377 1.2136994e-17 -2.3559121)
(322.17147 -2.1207076e-18 -1.3882256)
(322.35591 5.082996e-18 -1.6272527)
(321.99879 3.6058875e-18 -1.569772)
(322.05585 8.9872678e-18 -2.4425926)
(321.86018 1.0175754e-17 -1.7807074)
(322.03225 1.4068839e-17 -2.1785519)
(321.64472 -1.5471237e-17 -2.0381747)
(321.76479 1.8375797e-17 -2.7372812)
(321.41377 -1.8394364e-17 -2.3330209)
(321.60103 -9.8290245e-18 -2.7991733)
(321.10459 2.2039094e-17 -2.6827821)
(321.28527 2.548649e-17 -3.2669051)
(320.73658 4.2947006e-17 -3.0863296)
(320.96734 5.8622021e-18 -3.5679801)
(320.28157 -4.5378812e-17 -3.542906)
(320.51593 5.7773616e-18 -4.0817379)
(319.69771 1.603147e-18 -4.0656247)
(319.98469 -1.0571098e-16 -4.5740735)
(318.8971 -2.8673077e-17 -4.5907839)
(319.285 1.3713755e-17 -5.1212825)
(317.89161 -1.9938335e-16 -5.0178663)
(318.38888 -6.3740554e-17 -5.5710509)
(316.69722 -1.954559e-17 -5.269589)
(317.27083 1.3421694e-17 -5.8873495)
(315.31572 3.9714454e-17 -5.2902179)
(315.94544 -1.1387238e-17 -5.9659566)
(313.7948 1.0094753e-16 -5.0550016)
(314.44798 -2.1001963e-17 -5.7726325)
(312.22113 3.8051243e-16 -4.5820453)
(312.86239 5.6266843e-17 -5.3069641)
(310.68869 3.6503236e-16 -3.9404279)
(311.28513 2.1846556e-16 -4.6322517)
(309.2784 1.5131471e-16 -3.2260497)
(309.80676 -1.1164119e-16 -3.8448482)
(308.04453 -1.4954884e-16 -2.5346418)
(308.4929 0 -3.0527993)
(307.01382 -1.7325859e-16 -1.9379799)
(307.37844 -1.5798379e-17 -2.3436905)
(306.19478 1.5879788e-17 -1.4761009)
(306.47521 1.4244554e-17 -1.7684795)
(305.57609 0 -1.1617173)
(305.78297 -2.2229346e-17 -1.3542788)
(305.13405 -4.3368715e-20 -0.98042862)
(305.27403 1.6737413e-17 -1.0928565)
(304.84627 2.6438854e-16 -0.9097591)
(304.92967 4.1525328e-16 -0.95528839)
(304.68931 3.3179682e-16 -0.93096862)
(304.72411 -1.191475e-17 -0.92192272)
(304.61802 1.4484326e-16 -1.0254785)
(304.6315 -1.3904056e-17 -0.98799028)
(304.63291 3.8196732e-16 -1.0788758)
(304.57811 1.5298838e-16 -1.1175184)
(304.70861 -3.3823126e-17 -1.1350271)
(304.61123 -2.5658658e-16 -1.2418791)
(304.79214 -3.6976982e-16 -1.2396607)
(304.70352 -3.3161822e-16 -1.3250201)
(304.87072 -1.8072463e-17 -1.3709079)
(304.81689 1.6123499e-17 -1.3661904)
(304.98856 2.4950986e-16 -1.3486276)
(304.9407 1.7791329e-16 -1.3680311)
(305.08317 5.0357976e-16 -1.2449776)
(305.06339 3.2020853e-18 -1.3065594)
(305.21316 2.2561008e-16 -1.0448751)
(305.12159 2.1567065e-16 -1.1532243)
(305.24024 9.5346648e-17 -0.63140458)
(305.24621 -3.1116279e-16 -0.86436155)
(304.95832 1.3845734e-16 -0.93022625)
(304.93732 1.1898263e-16 -0.32930657)
(304.90832 8.8285465e-17 0.56155528)
(213.25907 1.5436306e-18 -0.7008331)
(197.54064 -2.3463462e-20 -1.4150333)
(244.76459 1.7058198e-18 -0.93172078)
(234.14055 -3.1468642e-17 -1.200565)
(269.33633 8.3363503e-19 -1.1885551)
(259.69331 1.32841e-17 -1.6597451)
(293.19787 -7.2761059e-18 -1.499394)
(283.24558 0 -1.836289)
(314.20945 -1.5807239e-18 -1.8533993)
(307.52285 -7.9048185e-18 -2.6671464)
(322.60783 1.4614562e-17 -1.999191)
(323.8077 7.7572771e-18 -2.1688774)
(322.73715 2.2328712e-18 -2.0282032)
(321.53862 2.0196386e-17 -3.4037403)
(323.22966 -3.924658e-18 -2.0620149)
(324.22026 -8.2716436e-18 -1.7861556)
(322.70789 -4.4615722e-18 -2.1001919)
(322.09577 -7.143206e-18 -3.7957403)
(322.92534 -1.129644e-17 -2.1472834)
(323.49423 2.6074807e-19 -1.7432186)
(322.6269 1.3611164e-18 -2.2063098)
(322.30628 -9.7092837e-18 -3.8618894)
(322.71291 5.8370403e-18 -2.2739666)
(323.06676 5.288163e-18 -2.0155874)
(322.49792 6.7345944e-18 -2.3622243)
(322.35903 0 -3.7801808)
(322.49723 8.0899267e-18 -2.4627727)
(322.72702 -2.8018877e-19 -2.4634436)
(322.331 0 -2.5941828)
(322.30217 0 -3.7227229)
(322.26488 1.5625817e-17 -2.7456787)
(322.44007 -1.0590174e-17 -2.9906031)
(322.09732 1.8804008e-17 -2.9365138)
(322.14445 1.699469e-17 -3.8185083)
(321.96163 2.1741056e-17 -3.1541954)
(322.11986 7.3600194e-18 -3.5621653)
(321.7488 2.6208659e-17 -3.4161002)
(321.85348 -8.7479609e-19 -4.1229061)
(321.51975 3.0234206e-17 -3.7197616)
(321.68988 2.0466176e-17 -4.19928)
(321.21529 1.1277453e-17 -4.0882229)
(321.38062 -1.1974178e-18 -4.683767)
(320.8658 -3.0559315e-17 -4.506288)
(321.05719 -3.4795195e-17 -5.0229436)
(320.40224 -4.3827529e-17 -5.0127638)
(320.61489 -4.1698438e-17 -5.5706022)
(319.76133 -1.042191e-16 -5.5480794)
(320.07155 -8.3295259e-18 -6.0729097)
(318.92382 -1.3794843e-17 -6.0262809)
(319.33733 -4.7675678e-17 -6.5907318)
(317.89513 1.3854644e-16 -6.3833078)
(318.39791 3.2462394e-17 -6.9872491)
(316.65942 2.3687603e-17 -6.5501971)
(317.23326 8.2673956e-18 -7.2239855)
(315.23329 -7.0274438e-17 -6.4551898)
(315.85968 7.7328879e-17 -7.1924163)
(313.678 -7.2524225e-17 -6.0764933)
(314.32301 1.4674742e-17 -6.8586172)
(312.08604 -1.1952669e-16 -5.4459566)
(312.71317 -3.1750258e-16 -6.2335367)
(310.55183 -2.1982386e-16 -4.6466948)
(311.12953 -1.4784917e-16 -5.395824)
(309.15307 -2.7260613e-16 -3.7860015)
(309.66055 -1.1962856e-16 -4.4548729)
(307.93892 1.3414916e-16 -2.9664115)
(308.36682 0 -3.526838)
(306.93082 1.669595e-16 -2.2621235)
(307.27727 1.3067256e-16 -2.7026826)
(306.13332 -1.970239e-17 -1.7129499)
(306.39878 1.4626034e-17 -2.0333141)
(305.53261 -9.7579395e-18 -1.3299469)
(305.72815 -2.2080089e-17 -1.5447712)
(305.10424 3.8631226e-16 -1.0956479)
(305.2359 -2.3668152e-16 -1.2254904)
(304.82639 1.8718992e-16 -0.98512697)
(304.90411 6.0323764e-16 -1.042842)
(304.67439 -3.5611336e-16 -0.97838875)
(304.70706 -6.8568817e-18 -0.97822317)
(304.60286 -2.4614905e-17 -1.0501805)
(304.61472 -1.3865686e-17 -1.0255025)
(304.6113 -4.3911056e-16 -1.098835)
(304.5582 -1.0251115e-17 -1.138986)
(304.68976 -5.4791639e-16 -1.1475267)
(304.59292 -7.2305986e-16 -1.2468483)
(304.78372 1.4871974e-17 -1.2391309)
(304.69149 -1.1101236e-17 -1.3208178)
(304.87294 1.939913e-16 -1.3622976)
(304.80998 -4.8417709e-16 -1.3568468)
(304.99867 -4.9478954e-17 -1.3358426)
(304.94945 5.4471088e-16 -1.3554021)
(305.09552 -3.1106388e-16 -1.2278346)
(305.07591 -2.7171148e-16 -1.2922861)
(305.24263 -2.6490953e-16 -1.0135465)
(305.14375 -2.040124e-16 -1.1290232)
(305.29757 -3.3715413e-16 -0.61438065)
(305.29519 -2.9634366e-16 -0.83588066)
(305.02068 7.0041896e-17 -0.78789647)
(305.07542 -2.3332833e-16 -0.30606)
(304.92963 8.830929e-17 0.55835043)
(215.07238 -2.979331e-17 -1.6032592)
(199.2359 4.3397579e-17 -2.2752762)
(246.74016 -2.3630737e-17 -1.9654812)
(235.9999 -6.1560288e-17 -2.2019427)
(271.452 1.3500976e-17 -2.3288463)
(261.73923 3.766269e-17 -2.7772717)
(295.35561 0 -2.746624)
(285.44545 0 -3.0423628)
(315.63362 0 -3.1732812)
(309.57298 -1.9046891e-17 -4.0350121)
(322.94305 1.2241795e-17 -3.3286716)
(324.33118 1.4251669e-17 -3.4617277)
(322.78069 1.2151418e-17 -3.3589056)
(321.57093 1.6736064e-17 -4.8070181)
(323.27882 -1.1505729e-17 -3.3981403)
(324.27796 -2.7342975e-18 -3.0708746)
(322.75816 -3.1079077e-18 -3.438192)
(322.13051 -9.2125766e-18 -5.200999)
(322.98045 2.5925153e-18 -3.4897471)
(323.55236 3.6972233e-18 -3.0443639)
(322.68233 -7.0498031e-18 -3.5527583)
(322.34769 6.8530883e-18 -5.2600444)
(322.77391 0 -3.6259028)
(323.12524 -1.1046641e-17 -3.3440407)
(322.56179 -6.8351874e-18 -3.7206766)
(322.41223 3.5896233e-21 -5.1716669)
(322.56663 -8.2113411e-18 -3.8290104)
(322.79008 2.5196886e-19 -3.8250253)
(322.40526 -9.5116688e-18 -3.9692734)
(322.36743 -6.3935969e-18 -5.1150536)
(322.34322 -1.1454033e-17 -4.1295963)
(322.50874 -1.0358382e-17 -4.3799894)
(322.17858 6.5852098e-18 -4.3287065)
(322.2153 -2.7160168e-20 -5.216394)
(322.0438 -1.4105741e-17 -4.5545022)
(322.18753 2.9506103e-17 -4.9700637)
(321.83495 -8.2414194e-18 -4.8250701)
(321.92133 -5.4323704e-18 -5.539953)
(321.61213 -8.523633e-18 -5.1523244)
(321.76638 -4.2208733e-17 -5.6462117)
(321.33003 -4.3515598e-17 -5.5376019)
(321.4547 9.8223004e-18 -6.1621589)
(320.97686 -4.5140532e-17 -6.0138711)
(321.14416 -1.422491e-17 -6.5464883)
(320.46298 -9.7522235e-18 -6.541692)
(320.69535 7.442452e-18 -7.1087564)
(319.78374 5.0603375e-17 -7.0485735)
(320.12271 -4.1626244e-17 -7.5987082)
(318.92433 -9.3559562e-18 -7.4773513)
(319.34782 8.1759583e-18 -8.0824385)
(317.86069 -9.351981e-17 -7.7737004)
(318.36583 -1.4580772e-16 -8.4270078)
(316.57684 5.4760963e-17 -7.8453851)
(317.15066 1.1739907e-16 -8.5765962)
(315.10656 1.6691415e-16 -7.6222613)
(315.72734 -4.5433861e-18 -8.4224789)
(313.52013 -1.9512517e-16 -7.0899733)
(314.15244 1.5795391e-17 -7.9365435)
(311.91417 -3.6209096e-16 -6.2949785)
(312.52216 -2.3260924e-16 -7.1438763)
(310.38357 -5.1528653e-17 -5.3349153)
(310.93771 -2.9683964e-16 -6.1389825)
(309.00218 1.3796998e-16 -4.3279043)
(309.48437 1.0799615e-16 -5.043911)
(307.81328 -1.6994491e-17 -3.3821631)
(308.21682 1.2364795e-17 -3.9818154)
(306.83258 -8.1479075e-18 -2.5732695)
(307.15755 3.4887056e-19 -3.0458398)
(306.06055 1.6185987e-17 -1.939995)
(306.30829 -1.5075212e-17 -2.2859431)
(305.48091 -2.2439101e-16 -1.4911717)
(305.66291 2.2515384e-17 -1.7264038)
(305.06858 -1.1294236e-16 -1.2060864)
(305.19022 -2.775922e-16 -1.351836)
(304.80241 4.7767156e-16 -1.0576082)
(304.87333 -2.1782334e-16 -1.1262096)
(304.65612 3.3503833e-16 -1.0242352)
(304.6862 -2.763019e-16 -1.0327939)
(304.58817 0 -1.0665917)
(304.59404 4.3338587e-16 -1.0617111)
(304.59029 -2.1357977e-16 -1.116228)
(304.53934 -3.2919224e-16 -1.1590799)
(304.66712 -2.6886317e-16 -1.1629093)
(304.57505 2.5643205e-16 -1.2504622)
(304.76947 -4.5791107e-16 -1.2348922)
(304.67527 -1.1060694e-17 -1.3153791)
(304.86649 -2.5140533e-16 -1.3502208)
(304.79663 5.1262701e-16 -1.3463374)
(304.99722 4.1634561e-16 -1.3196344)
(304.94232 3.6767163e-16 -1.3409284)
(305.10512 -1.7193673e-16 -1.2095061)
(305.07677 1.7310405e-17 -1.2766204)
(305.26947 -2.2772124e-16 -0.98438948)
(305.1704 -2.2458141e-16 -1.1041126)
(305.33147 -2.0244748e-16 -0.59387095)
(305.31593 1.2229427e-17 -0.80413355)
(305.05601 -2.5242775e-16 -0.68925723)
(305.14941 -4.5594504e-18 -0.28273734)
(304.95362 0 0.55062091)
(216.78619 2.0622102e-17 -2.5368744)
(200.8635 -4.3438756e-17 -3.1383407)
(248.64817 -9.3892182e-18 -3.0386661)
(237.8132 3.2436071e-17 -3.241864)
(273.55505 2.7400256e-17 -3.5123365)
(263.75357 2.6455951e-17 -3.9275967)
(297.45 -1.7125614e-17 -4.039664)
(287.66309 -2.5030269e-17 -4.2842942)
(316.91094 -7.7122243e-18 -4.528306)
(311.4432 -1.8607709e-17 -5.4369054)
(323.20033 1.8448637e-17 -4.6865112)
(324.71601 1.5988553e-17 -4.7724651)
(322.81814 3.7104944e-18 -4.7147923)
(321.58397 -2.7954955e-17 -6.2339156)
(323.31979 1.1164998e-20 -4.7576818)
(324.31904 4.3327539e-17 -4.3741871)
(322.79772 -3.5736255e-18 -4.7988594)
(322.14939 -1.9265793e-17 -6.6289296)
(323.02475 7.6137649e-18 -4.8548989)
(323.59741 -1.1898188e-17 -4.3667889)
(322.72694 4.3538219e-18 -4.9225391)
(322.37774 -7.16508e-18 -6.6820412)
(322.82389 -1.1904229e-17 -5.0024486)
(323.17336 1.1495079e-17 -4.6974074)
(322.61442 6.9131253e-18 -5.1049996)
(322.45512 9.3265876e-18 -6.5875111)
(322.6236 2.5487563e-18 -5.2216965)
(322.84042 7.5610854e-18 -5.2128624)
(322.46558 -6.9042887e-18 -5.369765)
(322.41691 -1.9189018e-17 -6.5300858)
(322.40581 0 -5.5367677)
(322.55793 0 -5.7931358)
(322.24346 2.0024117e-17 -5.7445923)
(322.26788 0 -6.6369664)
(322.11077 4.0843752e-17 -5.9845908)
(322.23978 -8.3576015e-18 -6.4089539)
(321.91082 -3.5673916e-17 -6.2779763)
(321.97691 -3.2123248e-17 -7.0012247)
(321.7125 -2.8537531e-17 -6.6286934)
(321.82351 -1.8848318e-17 -7.154651)
(321.42802 4.0558274e-17 -7.0770932)
(321.53104 -1.5388264e-18 -7.7073441)
(321.02755 3.5481483e-17 -7.5771766)
(321.21282 2.4216122e-19 -8.1171671)
(320.47907 -1.9667896e-17 -8.0902647)
(320.74226 1.0710558e-17 -8.6729103)
(319.78314 -8.7663158e-17 -8.5623962)
(320.13275 7.435197e-17 -9.1471828)
(318.8961 -1.1222463e-16 -8.9572142)
(319.32074 8.5889444e-18 -9.6005684)
(317.78322 3.7824951e-17 -9.1838305)
(318.29019 -1.7402869e-17 -9.8875766)
(316.44778 7.0210988e-17 -9.1483902)
(317.02085 9.9144488e-17 -9.938632)
(314.93256 -1.5540584e-16 -8.7846037)
(315.54686 -3.1286334e-16 -9.6488932)
(313.31709 2.7807644e-18 -8.0886357)
(313.93574 2.2920089e-17 -8.999379)
(311.70213 -1.618008e-16 -7.1229479)
(312.2897 -3.8465562e-17 -8.0315803)
(310.1814 -1.7968754e-16 -5.9998798)
(310.71064 3.5893217e-16 -6.8563043)
(308.82374 -6.5401585e-18 -4.8475378)
(309.27949 -3.9880679e-17 -5.6075895)
(307.66591 3.0808663e-17 -3.7785907)
(308.04421 2.4756702e-17 -4.4143178)
(306.7176 -4.9084609e-18 -2.8688813)
(307.02044 1.9182872e-17 -3.3705593)
(305.97514 -1.2780821e-17 -2.1553218)
(306.20468 4.3366409e-16 -2.524407)
(305.41988 2.2509572e-18 -1.6439704)
(305.58796 -3.1807771e-16 -1.897701)
(305.02624 -3.8865444e-16 -1.3107043)
(305.13753 2.5649327e-16 -1.4708074)
(304.77378 -9.6248239e-16 -1.1265181)
(304.83764 -4.1804197e-16 -1.2046756)
(304.63404 -2.578362e-16 -1.068293)
(304.66159 -2.9035112e-16 -1.0850818)
(304.57005 1.9114269e-16 -1.0863382)
(304.57032 1.2197756e-17 -1.0962435)
(304.57065 7.3704969e-17 -1.1310754)
(304.52059 -9.6161845e-18 -1.1773146)
(304.64394 5.4588012e-16 -1.1772446)
(304.55777 1.5118361e-17 -1.2528229)
(304.7511 9.0073905e-16 -1.2306369)
(304.65703 1.0347815e-15 -1.3088225)
(304.85307 1.150172e-15 -1.3385661)
(304.77973 5.4357774e-16 -1.3350623)
(304.98974 7.6397456e-18 -1.3042531)
(304.92949 -3.8608431e-16 -1.3270326)
(305.11353 -7.2440383e-18 -1.1893155)
(305.0701 1.7189969e-17 -1.2591052)
(305.27384 -1.2797363e-17 -0.95573872)
(305.1916 -2.5358244e-17 -1.0785)
(305.30978 2.0944727e-16 -0.65069098)
(305.30376 3.1546867e-16 -0.7705677)
(305.07169 2.4855892e-16 -0.61518179)
(305.20245 -2.1807417e-16 -0.25958916)
(304.97694 0 0.53949825)
(218.48677 -3.7876411e-17 -3.4939116)
(202.4573 -8.7197047e-17 -4.0406023)
(250.54228 6.791779e-17 -4.1357368)
(239.59083 1.2479022e-16 -4.3032017)
(275.66793 -2.0763867e-17 -4.7223419)
(265.7447 -5.2464815e-17 -5.1101616)
(299.48326 -2.6977727e-17 -5.3602003)
(289.92608 -6.6829938e-17 -5.561586)
(318.0313 1.8565964e-18 -5.9013915)
(313.12449 3.918468e-17 -6.8695366)
(323.38406 -2.5924451e-17 -6.0601712)
(325.0019 2.0175666e-18 -6.1011744)
(322.83901 5.1922236e-18 -6.0873823)
(321.58838 1.0535577e-18 -7.6857366)
(323.3457 2.9380094e-17 -6.1361843)
(324.3528 1.9005229e-17 -5.6984824)
(322.82461 -2.797823e-17 -6.1803031)
(322.15952 -1.8828295e-17 -8.0826715)
(323.0576 -2.6714681e-17 -6.2426533)
(323.63472 -7.8107198e-18 -5.7139883)
(322.7608 -1.6635506e-18 -6.3165657)
(322.39956 -3.9973485e-17 -8.130138)
(322.86317 3.2431693e-17 -6.4040677)
(323.21152 3.306794e-17 -6.0763706)
(322.65551 1.0099555e-17 -6.5143424)
(322.48634 -2.9092747e-19 -8.025676)
(322.66694 -1.159403e-17 -6.6385957)
(322.87574 3.1489183e-17 -6.6239252)
(322.51015 -1.3970808e-17 -6.7944405)
(322.4499 -2.5756936e-17 -7.965703)
(322.45226 0 -6.9679191)
(322.58628 -2.1888578e-17 -7.2327673)
(322.29563 -2.7097567e-17 -7.1926396)
(322.30844 9.1688569e-18 -8.0916047)
(322.17916 -7.7843967e-17 -7.4498343)
(322.27488 -6.7706142e-17 -7.8955612)
(322.00422 -1.6742296e-17 -7.7847916)
(322.02891 1.7617208e-18 -8.5234881)
(321.79339 6.1453129e-18 -8.1932688)
(321.88523 8.3924894e-17 -8.7249198)
(321.46567 -4.116804e-17 -8.6645505)
(321.58969 -4.3133851e-17 -9.2950873)
(321.03637 -2.496623e-17 -9.1583749)
(321.2503 -5.9968986e-17 -9.7108546)
(320.47705 9.75414e-17 -9.6502228)
(320.75055 1.9910472e-17 -10.258988)
(319.75879 1.746896e-16 -10.109048)
(320.10907 1.4045894e-16 -10.724207)
(318.82476 1.0420101e-16 -10.460931)
(319.25316 8.2856321e-18 -11.144393)
(317.65908 3.2228678e-17 -10.607178)
(318.16836 1.0740051e-17 -11.363237)
(316.26967 -2.3987566e-16 -10.451768)
(316.84128 -9.1904326e-17 -11.302816)
(314.71063 -1.6888348e-16 -9.9346442)
(315.31644 -5.4526226e-18 -10.863866)
(313.07015 -1.1856188e-17 -9.065449)
(313.67216 -2.717777e-16 -10.039695)
(311.45203 4.3709682e-16 -7.923788)
(312.01604 4.1180139e-16 -8.8901299)
(309.9478 5.3732584e-16 -6.6366221)
(310.44926 5.0305554e-16 -7.5424399)