/*--------------------------------*- C++ -*----------------------------------*\
  =========                 |
  \\      /  F ield         | OpenFOAM: The Open Source CFD Toolbox
   \\    /   O peration     | Website:  https://openfoam.org
    \\  /    A nd           | Version:  8
     \\/     M anipulation  |
\*---------------------------------------------------------------------------*/
FoamFile
{
    version     2.0;
    format      ascii;
    class       volScalarField;
    location    "0.229992";
    object      T;
}
// * * * * * * * * * * * * * * * * * * * * * * * * * * * * * * * * * * * * * //

dimensions      [0 0 0 1 0 0 0];

internalField   nonuniform List<scalar> 
20000
(
294.90325
294.67122
293.52169
290.98226
286.05308
278.45104
277.12432
276.68495
277.39798
277.25233
277.75787
277.79567
278.21477
278.39593
278.8047
279.113
279.56781
280.00711
280.55461
281.14212
281.82678
282.58673
283.44253
284.38997
285.43277
286.56013
287.85063
289.21478
290.57471
291.88135
293.09005
294.16736
295.09215
295.86212
296.48296
296.96881
297.3429
297.62517
297.8328
297.98433
298.10724
298.20745
298.26907
298.3007
298.30419
298.26442
298.23071
298.13094
298.28689
297.82919
294.6824
294.31641
293.03763
290.30249
284.94929
277.54021
276.69576
276.25439
276.97152
276.82576
277.33478
277.37474
277.79767
277.98427
278.39788
278.71513
279.17765
279.63033
280.19164
280.79831
281.50261
282.28459
283.16387
284.1413
285.23424
286.48237
287.81792
289.19956
290.57512
291.8998
293.12128
294.20191
295.12425
295.8886
296.50345
296.98412
297.35523
297.63564
297.84165
297.99253
298.12517
298.22802
298.28934
298.31054
298.30734
298.26771
298.20417
298.11412
298.10164
297.86105
294.41254
293.92898
292.52709
289.59806
283.78252
276.64451
276.26793
275.82743
276.55164
276.40414
276.91904
276.96193
277.38939
277.58317
278.00231
278.33087
278.80288
279.27218
279.84931
280.47674
281.20123
282.00717
282.91596
283.93828
285.09827
286.40752
287.79773
289.2075
290.61633
291.95985
293.18733
294.26541
295.18
295.93438
296.53941
297.01169
297.37653
297.65188
297.85362
298.00311
298.13956
298.23917
298.2959
298.31509
298.31283
298.27038
298.20686
298.1233
298.09095
297.85242
294.17461
293.55756
292.01924
288.90442
282.6146
275.86555
275.87116
275.42481
276.15512
276.00681
276.52631
276.57251
277.00416
277.20536
277.63
277.97014
278.45188
278.93766
279.52991
280.17657
280.92029
281.75296
282.70106
283.78601
285.03147
286.39055
287.80289
289.25106
290.68541
292.04299
293.27278
294.3442
295.24724
295.98846
296.58114
297.0432
297.40058
297.67001
297.8671
298.01623
298.15694
298.25281
298.30478
298.32122
298.31879
298.27446
298.20728
298.11271
297.9712
297.85794
293.92328
293.17213
291.49346
288.20209
281.44401
275.17821
275.49389
275.04306
275.7794
275.63107
276.15573
276.20624
276.64231
276.85194
277.28267
277.63549
278.12756
278.62993
279.23649
279.90276
280.6697
281.53969
282.54571
283.712
285.00518
286.38951
287.84527
289.33198
290.79109
292.15819
293.38466
294.44429
295.33125
296.05556
296.63281
297.0822
297.43004
297.69166
297.88307
298.03232
298.1731
298.26324
298.31107
298.32645
298.32354
298.27829
298.2084
298.104
297.94515
297.86319
293.72647
292.81763
290.97279
287.50118
280.30425
274.5855
275.14603
274.68983
275.43236
275.28444
275.81386
275.86933
276.30984
276.52892
276.96611
277.33228
277.83405
278.35189
278.97278
279.6628
280.46265
281.38652
282.46782
283.68186
285.00432
286.43016
287.93051
289.452
290.92986
292.30077
293.51864
294.56164
295.42841
296.13247
296.69167
297.12645
297.46322
297.71576
297.90109
298.05124
298.18904
298.2734
298.31735
298.33142
298.32602
298.28011
298.2071
298.09199
297.90304
297.86578
293.49746
292.44157
290.43357
286.7818
279.20885
274.07815
274.82633
274.36677
275.11543
274.96875
275.5031
275.56446
276.00964
276.23916
276.6832
277.06304
277.57443
278.10822
278.74675
279.46991
280.31812
281.3117
282.43619
283.67903
285.04076
286.51603
288.05951
289.61142
291.10309
292.47187
293.67538
294.69673
295.53915
296.21964
296.75822
297.17638
297.50046
297.74257
297.92136
298.0724
298.20474
298.28331
298.32307
298.33567
298.3272
298.28255
298.20462
298.06967
297.87859
297.86757
293.35321
292.10373
289.90657
286.05437
278.18767
273.65178
274.54134
274.07799
274.83274
274.68767
275.22687
275.29517
275.74513
275.9858
276.43643
276.83027
277.35269
277.90703
278.57307
279.34303
280.25175
281.28164
282.43217
283.71167
285.12634
286.64956
288.23283
289.80986
291.30897
292.66932
293.85276
294.84763
295.66182
296.31571
296.83135
297.23116
297.54112
297.77179
297.94379
298.09525
298.22058
298.29314
298.32847
298.33924
298.32772
298.28467
298.20012
298.04152
297.86031
297.86857
293.18104
291.77252
289.37876
285.298
277.25212
273.29242
274.28885
273.82307
274.58466
274.44265
274.98757
275.06417
275.51853
275.77055
276.22775
276.63718
277.17617
277.76166
278.4708
279.28946
280.2248
281.27861
282.46286
283.79532
285.26065
286.83105
288.4502
290.04653
291.5466
292.89203
294.04963
295.0133
295.79554
296.42
296.91059
297.29042
297.58494
297.80336
297.96841
298.11942
298.23638
298.30256
298.33369
298.34245
298.32806
298.28409
298.19269
298.0119
297.84736
297.8702
293.07521
291.47728
288.87177
284.51828
276.42213
272.9971
274.07733
273.60711
274.37693
274.23745
274.78842
274.87408
275.33122
275.5958
276.06218
276.49273
277.05655
277.68542
278.42809
279.26926
280.2237
281.31053
282.545
283.92826
285.44549
287.06025
288.71046
290.31969
291.81378
293.13773
294.26392
295.19196
295.93888
296.53138
296.99507
297.35353
297.63144
297.83707
297.99529
298.1444
298.2522
298.31178
298.33897
298.34596
298.32863
298.28033
298.18093
297.9805
297.83277
297.87279
292.95724
291.20157
288.38259
283.70994
275.70627
272.76174
273.91682
273.43281
274.21672
274.07421
274.63463
274.73181
275.18574
275.46705
275.94889
276.41151
277.0032
277.65488
278.41439
279.2725
280.25925
281.3929
282.67635
284.11305
285.68043
287.33646
289.01235
290.62764
292.1086
293.40452
294.49387
295.38209
296.09059
296.6489
297.08408
297.41991
297.68018
297.87268
298.02455
298.16959
298.2681
298.3211
298.34425
298.34986
298.32893
298.27533
298.16434
297.95106
297.82004
297.87538
292.89012
290.96951
287.93091
282.88212
275.12364
272.585
273.79379
273.30265
274.10308
273.95922
274.5225
274.62093
275.08931
275.39559
275.89534
276.37897
276.98167
277.64873
278.42126
279.31528
280.34348
281.52384
282.85946
284.34871
285.9647
287.65794
289.35345
290.96761
292.4282
293.68975
294.73719
295.58181
296.24919
296.77141
297.17676
297.48893
297.7307
297.90986
298.05598
298.19449
298.2841
298.33079
298.34982
298.35355
298.32832
298.26943
298.14317
297.92514
297.80976
297.87567
292.84523
290.76469
287.50845
282.02787
274.64776
272.45552
273.69277
273.21417
274.00211
273.88538
274.43541
274.55703
275.04615
275.36758
275.87322
276.37073
276.98124
277.66787
278.47295
279.40427
280.47559
281.70567
283.09353
284.63517
286.29731
288.02315
289.73172
291.33719
292.77016
293.99113
294.99187
295.78945
296.41333
296.89789
297.27233
297.55999
297.78256
297.9483
298.08898
298.21902
298.30029
298.34099
298.35532
298.35757
298.32769
298.26269
298.11883
297.90352
297.80043
297.87574
292.83751
290.59145
287.11552
281.15246
274.27555
272.36418
273.62365
273.15838
273.94686
273.83859
274.39786
274.53567
275.02817
275.36117
275.87038
276.3815
277.01272
277.73136
278.56789
279.54017
280.65696
281.93729
283.37806
284.97083
286.67614
288.42926
290.14383
291.73295
293.1312
294.30578
295.2555
296.00306
296.58152
297.0272
297.36996
297.63245
297.83534
297.98771
298.12267
298.24324
298.31671
298.35132
298.36137
298.36207
298.32752
298.25561
298.09371
297.88467
297.79293
297.87527
292.83786
290.42509
286.73229
280.2682
273.99435
272.30672
273.58382
273.116
273.91709
273.80721
274.38798
274.53096
275.02692
275.37278
275.89457
276.43285
277.08683
277.83695
278.70916
279.72342
280.88686
282.21856
283.71212
285.35472
287.09956
288.87411
290.58717
292.15212
293.50864
294.63129
295.52604
296.22098
296.75244
297.15835
297.46887
297.70574
297.88867
298.02782
298.15671
298.26688
298.33258
298.36181
298.3686
298.3666
298.32736
298.24822
298.0681
297.86721
297.7878
297.87446
292.86034
290.27723
286.35897
279.37334
273.79585
272.28023
273.57686
273.12308
273.91755
273.82682
274.39979
274.56045
275.05254
275.42221
275.95964
276.52356
277.20294
277.98696
278.8955
279.95318
281.16448
282.54798
284.0941
285.78449
287.56463
289.35411
291.05786
292.59088
293.89904
294.96472
295.80107
296.44133
296.92466
297.29024
297.56828
297.77929
297.94218
298.0684
298.19083
298.28983
298.34747
298.37176
298.37689
298.37052
298.32689
298.23997
298.04085
297.85143
297.7836
297.87335
292.89817
290.13839
285.98646
278.49352
273.66618
272.28287
273.59082
273.11877
273.93932
273.83493
274.44217
274.62402
275.11855
275.51099
276.06475
276.65604
277.36153
278.17991
279.12652
280.22861
281.48886
282.92471
284.5229
286.25873
288.06933
289.86667
291.55298
293.04629
294.29966
295.3037
296.07865
296.66255
297.09697
297.42198
297.66749
297.85259
297.99561
298.10931
298.22478
298.31211
298.36151
298.3812
298.38522
298.3733
298.32594
298.22988
298.01161
297.83685
297.77916
297.87195
292.957
290.02023
285.6219
277.65716
273.61216
272.35578
273.64276
273.1974
273.99628
273.93158
274.5176
274.71457
275.22472
275.63946
276.2095
276.8282
277.56103
278.41493
279.40074
280.54832
281.85852
283.34697
284.99638
286.77459
288.61014
290.40772
292.06835
293.51439
294.70702
295.64532
296.35651
296.88293
297.26811
297.5526
297.76576
297.92513
298.04874
298.1505
298.25817
298.3337
298.37488
298.39023
298.39315
298.37537
298.32426
298.21614
297.98098
297.8222
297.7746
297.87074
293.04786
289.9314
285.26676
276.89202
273.62817
272.42746
273.72588
273.28127
274.08509
274.03405
274.62822
274.84657
275.3666
275.80418
276.39162
277.03878
277.8002
278.69058
279.71703
280.9113
282.27246
283.81391
285.51333
287.33048
289.18468
290.97449
292.60091
293.9922
295.11836
295.98734
296.63292
297.10119
297.4371
297.68135
297.86247
297.9965
298.10138
298.19194
298.29054
298.3545
298.38784
298.39896
298.40046
298.37779
298.32163
298.19555
297.95109
297.80784
297.77026
297.86985
293.16072
289.86377
284.90644
276.23206
273.70869
272.52866
273.83384
273.40867
274.21782
274.18726
274.77548
275.01324
275.54215
276.00397
276.60983
277.28626
278.07755
279.00548
280.07395
281.31609
282.72918
284.32364
286.07139
287.92314
289.78904
291.56252
293.14623
294.4756
295.53024
296.32711
296.90599
297.31593
297.60292
297.80746
297.957
298.06621
298.15334
298.23355
298.32139
298.37433
298.40059
298.40771
298.40662
298.38035
298.31798
298.166
297.9244
297.79445
297.76703
297.86921
293.28731
289.81511
284.53222
275.65003
273.83426
272.66973
273.97778
273.56175
274.37913
274.35704
274.95231
275.21185
275.75064
276.23728
276.86266
277.5691
278.39172
279.35838
280.47054
281.7619
283.22804
284.87541
286.66937
288.5507
290.42061
292.16875
293.70111
294.96154
295.9402
296.66288
297.1744
297.52614
297.76476
297.93037
298.04889
298.13389
298.20438
298.27506
298.35039
298.39304
298.41313
298.4169
298.41197
298.3809
298.31331
298.13074
297.89945
297.78242
297.76546
297.86898
293.42749
289.78749
284.14563
275.146
273.96359
272.83887
274.15511
273.74705
274.56969
274.5625
275.15993
275.4414
275.99035
276.50258
277.14861
277.88601
278.74141
279.74814
280.90564
282.24762
283.76764
285.46742
287.30461
289.20957
291.07506
292.78849
294.26095
295.44614
296.3455
296.99275
297.43667
297.73059
297.92167
298.0494
298.13773
298.19917
298.25419
298.31559
298.37774
298.41064
298.42511
298.42678
298.41668
298.3808
298.3068
298.0925
297.87615
297.77177
297.76504
297.86924
293.57133
289.77302
283.74153
274.72801
274.16144
273.03579
274.35872
273.95891
274.78373
274.79395
275.39513
275.70001
276.25985
276.79854
277.46637
278.2357
279.12562
280.17399
281.37879
282.77289
284.34771
286.09895
287.97585
289.89752
291.74948
293.41843
294.82248
295.927
296.74479
297.31573
297.69171
297.92827
298.07285
298.16393
298.22324
298.26188
298.30246
298.35452
298.40346
298.42742
298.43673
298.43653
298.42079
298.38077
298.29628
298.05369
297.85517
297.76232
297.7651
297.86987
293.71597
289.77003
283.32495
274.38575
274.37288
273.25687
274.58687
274.1967
275.02172
275.05289
275.6576
275.98636
276.55799
277.1237
277.81482
278.6173
279.54357
280.63534
281.88932
283.33698
284.96696
286.76811
288.67995
290.61054
292.43903
294.05361
295.38154
296.40153
297.13662
297.63031
297.9379
298.11781
298.21746
298.27315
298.30499
298.3221
298.34895
298.39128
298.42746
298.44353
298.44824
298.44575
298.42487
298.38076
298.27848
298.01713
297.83692
297.75558
297.767
297.87082
293.85141
289.77233
282.89803
274.13004
274.6199
273.50189
274.83717
274.4599
275.28423
275.33729
275.94547
276.29921
276.88347
277.4771
278.19314
279.03011
279.9949
281.13203
282.43729
283.93988
285.6253
287.47406
289.41538
291.34591
293.1404
294.69061
295.93586
296.86893
297.52011
297.93474
298.17372
298.29829
298.35511
298.37653
298.38245
298.38014
298.39354
298.42556
298.44973
298.45893
298.46003
298.45352
298.4287
298.37836
298.25121
297.98471
297.82179
297.75118
297.76921
297.87213
293.97284
289.78433
282.47321
273.96852
274.88495
273.77115
275.10745
274.74641
275.56989
275.6459
276.25783
276.6374
277.23543
277.85802
278.60088
279.47395
280.47952
281.664
283.02244
284.58103
286.3214
288.21452
290.17843
292.09897
293.84837
295.32501
296.48305
297.32787
297.89227
298.22568
298.39731
298.46925
298.48573
298.47398
298.45489
298.43609
298.43632
298.45718
298.47045
298.47359
298.47182
298.4604
298.43145
298.37384
298.21482
297.95697
297.80923
297.74763
297.77122
297.8739
294.08659
289.79639
282.05184
273.89478
275.17105
274.06153
275.39651
275.05509
275.87705
275.97766
276.59369
277.00025
277.61346
278.26624
279.03795
279.9489
280.99765
282.23164
283.64512
285.26067
287.05505
288.98843
290.9669
292.86643
294.55947
295.95455
297.02261
297.77661
298.24904
298.50133
298.60812
298.63111
298.60937
298.56591
298.52217
298.48929
298.47743
298.48617
298.48992
298.48783
298.48284
298.46624
298.4327
298.36709
298.17397
297.9314
297.79846
297.74459
297.77301
297.87625
294.17925
289.7983
281.64471
273.90224
275.47395
274.37269
275.70612
275.38547
276.20537
276.33207
276.95285
277.38754
278.01753
278.70183
279.50461
280.45538
281.54969
282.83517
284.30527
285.97816
287.82466
289.79277
291.7763
293.643
295.2689
296.57658
297.55267
298.2095
298.58729
298.76013
298.80708
298.78546
298.72552
298.65183
298.58542
298.53834
298.51657
298.51272
298.5082
298.5018
298.49271
298.47146
298.43347
298.35753
298.13082
297.90739
297.78939
297.74355
297.77629
297.8791
294.26326
289.79246
281.26955
273.99054
275.79558
274.7038
276.03484
275.73679
276.55501
276.70874
277.33547
277.79926
278.44805
279.16514
280.0014
280.99389
282.13623
283.4752
285.00341
286.73373
288.62972
290.62581
292.60364
294.42515
295.97415
297.19058
298.07014
298.62235
298.90469
299.00364
298.99732
298.92983
298.83415
298.73221
298.64488
298.58427
298.55237
298.53718
298.52568
298.5149
298.50151
298.4764
298.43386
298.34338
298.08792
297.88472
297.78132
297.7445
297.78065
297.88207
294.32327
289.76516
280.93226
274.14459
276.13176
275.05546
276.38239
276.10892
276.92588
277.10835
277.74165
278.23609
278.90534
279.65683
280.52897
281.56521
282.75786
284.15206
285.73943
287.52644
289.46796
291.48355
293.44365
295.2077
296.67205
297.79439
298.56821
299.01125
299.20141
299.23586
299.17532
299.06476
298.93516
298.80712
298.70066
298.6272
298.58451
298.55981
298.54206
298.52711
298.50927
298.48101
298.43334
298.32163
298.04829
297.86419
297.77443
297.74646
297.786
297.88483
294.37158
289.7132
280.64899
274.35966
276.4873
275.4282
276.75081
276.50291
277.31854
277.53094
278.17222
278.69842
279.39021
280.17762
281.08796
282.1701
283.41528
284.86652
286.51384
288.35639
290.33816
292.36344
294.29271
295.98783
297.3618
298.38442
299.04202
299.37468
299.48231
299.45467
299.34147
299.18994
299.02871
298.87666
298.75269
298.66667
298.61359
298.58067
298.55739
298.53839
298.51609
298.48441
298.42973
298.29006
298.01452
297.84706
297.76955
297.74806
297.79171
297.88757
294.41361
289.63211
280.42578
274.63181
276.86161
275.82122
277.13929
276.91893
277.73342
277.97725
278.62783
279.18698
279.90341
280.7282
281.67932
282.80935
284.10917
285.61883
287.32643
289.22197
291.2371
293.26029
295.1454
296.76158
298.04118
298.95273
299.48721
299.7143
299.7493
299.65831
299.49536
299.30557
299.11486
298.94067
298.80092
298.70265
298.6399
298.59984
298.57163
298.54875
298.52219
298.48606
298.42324
298.25047
297.98596
297.83341
297.76637
297.7509
297.79759
297.89055
294.44961
289.52249
280.27102
274.95712
277.25481
276.23594
277.54833
277.35784
278.17144
278.44815
279.10922
279.70244
280.44572
281.30938
282.30379
283.48379
284.84033
286.40987
288.17755
290.12273
292.16252
294.17079
295.99842
297.52761
298.70704
299.4934
299.90221
300.0361
299.99921
299.84718
299.63733
299.41182
299.19383
298.99924
298.84513
298.7353
298.66375
298.61744
298.58476
298.55817
298.52791
298.48699
298.41386
298.207
297.9601
297.82278
297.76492
297.75414
297.80344
297.89423
294.48047
289.38408
280.18936
275.32449
277.66743
276.67304
277.9788
277.82028
278.633
278.94417
279.61698
280.24549
281.01782
281.92216
282.96228
284.19436
285.60944
287.23988
289.06654
291.0561
293.10988
295.08916
296.84723
298.28329
299.35054
300.00165
300.28946
300.34057
300.2309
300.02113
299.76746
299.50889
299.26575
299.05245
298.8851
298.76477
298.68535
298.63359
298.59675
298.56661
298.53347
298.48745
298.40112
298.16176
297.93632
297.81413
297.7644
297.75744
297.80884
297.89872
294.50922
289.22155
280.18532
275.71021
278.10031
277.13349
278.43133
278.30659
279.11875
279.46588
280.15188
280.81675
281.62071
282.56734
283.65577
284.94198
286.41754
288.10965
289.99341
292.0205
294.07593
296.01188
297.68971
299.02667
299.96449
300.47508
300.65543
300.6249
300.44468
300.18061
299.88621
299.59712
299.33092
299.10051
298.92101
298.79115
298.70484
298.64838
298.60763
298.57399
298.5384
298.48744
298.38286
298.11747
297.91452
297.80665
297.76419
297.76123
297.81427
297.90359
294.53211
289.04157
280.26038
276.13842
278.55323
277.61645
278.90588
278.81726
279.62902
280.01348
280.71467
281.41706
282.25522
283.24608
284.38529
285.72774
287.26536
289.01923
290.95653
293.01196
295.05499
296.93366
298.52239
299.74894
300.54304
300.91534
301.00127
300.88748
300.64059
300.32587
299.99385
299.67682
299.38961
299.14361
298.953
298.81463
298.72233
298.66183
298.61746
298.58041
298.54108
298.48434
298.35562
298.07779
297.89501
297.79991
297.76398
297.76517
297.81974
297.90856
294.5461
288.85035
280.41024
276.63542
279.02758
278.1235
279.40348
279.35306
280.16441
280.5877
281.30618
282.04759
282.92235
283.95945
285.152
286.55287
288.15408
289.96919
291.95498
294.02768
296.0433
297.85169
299.34378
300.44208
301.08266
301.32948
301.32401
301.12891
300.81925
300.45751
300.09092
299.74845
299.44217
299.18198
298.98131
298.83538
298.73794
298.67397
298.62633
298.58629
298.54246
298.47794
298.31753
298.04481
297.8783
297.79404
297.76377
297.76998
297.82505
297.91362
294.54428
288.65192
280.63246
277.10495
279.52359
278.65418
279.92467
279.91349
280.72637
281.18934
281.92773
282.7091
283.62329
284.7089
285.95729
287.41874
289.08437
290.95893
292.98555
295.06234
297.03498
298.76152
300.14706
301.09758
301.58271
301.72094
301.62121
301.34925
300.98104
300.57596
300.17787
299.81237
299.48884
299.21577
299.00609
298.85358
298.75175
298.68481
298.63428
298.59198
298.54312
298.46834
298.27295
298.01531
297.86483
297.79111
297.76532
297.77618
297.83043
297.9187
294.5466
288.46007
280.91936
277.62292
280.04023
279.20947
280.46955
280.50079
281.31527
281.81975
282.58004
283.4028
284.35938
285.49573
286.80282
288.32676
290.05748
291.98793
294.04612
296.1118
298.02685
299.66099
300.92339
301.71149
302.05041
302.0865
301.89374
301.54932
301.12677
300.68198
300.25531
299.86904
299.52983
299.24505
299.02748
298.86937
298.76385
298.69441
298.64127
298.5973
298.54348
298.45522
298.22519
297.98817
297.85365
297.78974
297.76886
297.78272
297.83597
297.92384
294.55251
288.27657
281.2614
278.16338
280.57873
279.79082
281.03957
281.11562
281.93236
282.47939
283.26411
284.13001
285.13214
286.32203
287.69037
289.27843
291.07348
293.05413
295.13161
297.16998
299.01329
300.54522
301.66174
302.27986
302.49171
302.42303
302.1416
301.72959
301.25702
300.77613
300.3237
299.91868
299.5652
299.26991
299.04557
298.88284
298.77434
298.70283
298.64719
298.60155
298.54292
298.4369
298.17745
297.96312
297.84392
297.78925
297.77265
297.79001
297.84157
297.9291
294.56755
288.10704
281.65659
278.73627
281.14195
280.3991
281.63532
281.75776
282.57858
283.16913
283.98143
284.89264
285.94369
287.18984
288.62175
290.27538
292.13263
294.15583
296.23826
298.23293
299.99119
301.40631
302.35667
302.80867
302.9045
302.73093
302.36587
301.89113
301.37279
300.85922
300.38358
299.96159
299.59526
299.29077
299.06061
298.89408
298.78331
298.71018
298.65212
298.60362
298.53965
298.41023
298.13308
297.9405
297.83522
297.78924
297.77747
297.79689
297.84727
297.93443
294.59674
287.95475
282.09651
279.33458
281.72718
281.03331
282.25607
282.42799
283.25456
283.89081
284.73415
285.69316
286.79649
288.10154
289.59909
291.31844
293.23377
295.28875
297.35976
299.2946
300.95558
302.23202
303.00208
303.30422
303.28553
303.01026
302.56713
302.03469
301.47479
300.93177
300.43522
299.99808
299.62073
299.30863
299.07316
298.90325
298.79086
298.71664
298.65649
298.60465
298.53338
298.37316
298.09496
297.92092
297.82815
297.78993
297.78291
297.80383
297.85313
297.93977
294.65703
287.82828
282.56322
279.95892
282.33498
281.69443
282.90373
283.12839
283.963
284.64693
285.52527
286.53412
287.69314
289.05938
290.6243
292.40852
294.37574
296.44939
298.4917
300.35115
301.90181
303.01333
303.59943
303.76961
303.63345
303.26231
302.7467
302.1615
301.56396
300.99438
300.47913
300.02898
299.64299
299.32465
299.08399
298.91067
298.79706
298.72234
298.66086
298.60513
298.52395
298.32844
298.06245
297.90524
297.82403
297.79159
297.78877
297.81102
297.85927
297.94506
294.75021
287.73048
283.13785
280.61168
282.96682
282.38645
283.5811
283.86251
284.70655
285.44066
286.35713
287.41842
288.63628
290.06596
291.69894
293.54527
295.55505
297.63151
299.62726
301.39612
302.81635
303.74327
304.15515
304.20045
303.94869
303.48774
302.90548
302.2724
301.64088
301.04747
300.516
300.05556
299.66308
299.33866
299.09334
298.91691
298.80204
298.72724
298.66514
298.60532
298.51109
298.28029
298.03361
297.89294
297.82234
297.79438
297.79454
297.81782
297.86611
297.95017
294.88772
287.67132
283.7266
281.29936
283.62939
283.11283
284.2919
284.63235
285.48866
286.27429
287.23278
288.34917
289.62844
291.12366
292.82448
294.72816
296.76859
298.83027
300.76185
302.42561
303.6885
304.41814
304.67778
304.5937
304.23246
303.6881
303.04492
302.36843
301.70627
301.09185
300.54716
300.07914
299.68019
299.34784
299.09985
298.92234
298.80603
298.73122
298.66811
298.6044
298.49371
298.2317
298.00777
297.88281
297.82164
297.79841
297.80021
297.82407
297.87324
297.95495
295.07269
287.63304
284.30762
282.02024
284.32091
283.87365
285.03705
285.44148
286.31204
287.15059
288.15532
289.32906
290.67274
292.23465
294.00138
295.95449
298.01049
300.03819
301.88793
303.42863
304.50776
305.04299
305.16244
304.9497
304.48559
303.86447
303.16597
302.45029
301.76086
301.12884
300.57405
300.09956
299.69064
299.35156
299.10235
298.92636
298.80944
298.73431
298.66945
298.60134
298.46926
298.18639
297.98486
297.87415
297.82167
297.80265
297.80597
297.83021
297.88011
297.95922
295.31254
287.62019
284.98069
282.77856
285.04521
284.67239
285.82141
286.2906
287.18042
288.07292
289.12799
290.36146
291.77177
293.40081
295.22949
297.22165
299.27566
301.25025
303.00059
304.3931
305.26845
305.62649
305.60687
305.26964
304.70991
304.01857
303.26993
302.51906
301.8062
301.16034
300.59751
300.11397
299.69567
299.3528
299.10287
298.92777
298.81241
298.73678
298.66993
298.59538
298.43453
298.14779
297.96551
297.86716
297.82248
297.80733
297.81181
297.83615
297.88667
297.96293
295.60987
287.63599
285.67931
283.57636
285.80465
285.51288
286.64827
287.1829
288.09646
289.04522
290.15414
291.45001
292.92838
294.62331
296.50714
298.52408
300.55632
302.45809
304.09133
305.30469
305.96949
306.17012
306.00847
305.55449
304.90661
304.1515
303.35776
302.57612
301.84432
301.18747
300.61552
300.12102
299.69809
299.35289
299.1024
298.92779
298.81457
298.73914
298.67
298.58616
298.39104
298.11518
297.95026
297.86343
297.82489
297.81252
297.81781
297.84191
297.89293
297.96622
295.97024
287.68292
286.42871
284.41946
286.60343
286.39857
287.52043
288.12301
289.06477
290.07133
291.23812
292.59764
294.14464
295.90238
297.8318
299.85662
301.84628
303.65525
305.14776
306.15609
306.61944
306.67039
306.36909
305.80621
305.07766
304.26483
303.43102
302.62374
301.87697
301.20902
300.62456
300.12452
299.69931
299.35173
299.1011
298.92702
298.81521
298.74161
298.66975
298.57361
298.34361
298.08618
297.93822
297.86181
297.82828
297.81817
297.82407
297.84764
297.89904
297.96917
296.39946
287.76654
287.22145
285.31026
287.44433
287.33254
288.44224
289.11451
290.08946
291.1556
292.38321
293.80779
295.42226
297.23709
299.19856
301.21118
303.13651
304.83232
306.15353
306.94034
307.22602
307.12212
306.68949
306.02617
305.22438
304.35985
303.49152
302.66383
301.90302
301.22023
300.62904
300.12635
299.69884
299.34857
299.09834
298.92577
298.8148
298.74311
298.66837
298.55727
298.29491
298.0603
297.92828
297.86133
297.83226
297.82425
297.83067
297.85348
297.905
297.97189
296.89124
287.89377
288.05864
286.2529
288.33063
288.31941
289.41832
290.16299
291.17486
292.30268
293.59291
295.08265
296.76197
298.62514
300.60217
302.58061
304.41951
305.97982
307.09738
307.6645
307.78483
307.52763
306.97203
306.21672
305.34883
304.43872
303.54179
302.69661
301.9181
301.22575
300.63103
300.12663
299.69628
299.34381
299.09438
298.92373
298.81384
298.74371
298.66551
298.5346
298.24872
298.03756
297.91992
297.86145
297.83681
297.83074
297.83741
297.85929
297.91073
297.97444
297.44952
288.09108
288.9446
287.25199
289.27076
289.36236
290.45546
291.2714
292.32653
293.51545
294.87028
296.42497
298.16354
300.0624
302.03429
303.95509
305.68395
307.07915
307.96958
308.3364
308.29119
307.88718
307.21815
306.37945
305.45267
304.50375
303.58351
302.71847
301.92561
301.22807
300.63102
300.12448
299.69193
299.33747
299.08926
298.92095
298.81271
298.74372
298.66007
298.50174
298.20891
298.01825
297.91353
297.86291
297.84223
297.83734
297.84378
297.86487
297.91649
297.97668
298.07746
288.36926
289.87858
288.3161
290.26885
290.46939
291.55563
292.44453
293.54759
294.79826
296.21866
297.83547
299.62501
301.54308
303.48696
305.32573
306.92122
308.11605
308.7721
308.95706
308.74482
308.2036
307.43062
306.51681
305.53844
304.55754
303.61594
302.72992
301.92906
301.22796
300.62846
300.12036
299.68598
299.32977
299.08306
298.91751
298.81162
298.74328
298.65133
298.46015
298.17552
298.00217
297.90895
297.86496
297.84749
297.84359
297.84928
297.87094
297.9226
297.97836
298.76045
288.74007
290.85952
289.44815
291.32927
291.6407
292.72682
293.68651
294.84181
296.155
297.64062
299.31512
301.14275
303.05883
304.94906
306.67954
308.11234
309.07756
309.51212
309.5205
309.14639
308.47837
307.6113
306.63085
305.60854
304.60083
303.63448
302.73548
301.92944
301.22481
300.62352
300.11438
299.67867
299.32087
299.07571
298.9136
298.81056
298.74183
298.6396
298.4149
298.14614
297.98919
297.90618
297.86766
297.85261
297.8493
297.85442
297.87862
297.92786
297.97952
299.4922
289.2305
291.89323
290.65271
292.45762
292.87913
293.97374
295.00208
296.21384
297.59054
299.13869
300.86186
302.71029
304.60025
306.40998
308.00611
309.24081
309.96004
310.19662
310.02423
309.49883
308.71468
307.76314
306.72466
305.66586
304.63137
303.64387
302.73735
301.92641
301.21895
300.61651
300.10683
299.6702
299.31087
299.06709
298.90955
298.80949
298.73952
298.62517
298.36818
298.12041
297.97886
297.90477
297.87077
297.85779
297.85515
297.86045
297.88748
297.93131
297.97993
300.2506
289.87007
292.9794
291.93057
293.65728
294.18982
295.29953
296.39784
297.66989
299.10929
300.71363
302.4724
304.31881
306.1547
307.85497
309.28734
310.28939
310.76972
310.81793
310.46919
309.80378
308.91475
307.88862
306.80075
305.71134
304.64866
303.64835
302.73542
301.92009
301.21069
300.6077
300.09788
299.6607
299.29971
299.05763
298.90527
298.80839
298.73617
298.60632
298.32299
298.098
297.97037
297.90432
297.8744
297.86361
297.86199
297.86713
297.895
297.93395
297.97977
301.01591
290.70375
294.12386
293.28319
294.93567
295.57874
296.71506
297.88173
299.21765
300.7137
302.36411
304.13864
305.95696
307.70928
309.27091
310.50356
311.25049
311.51785
311.37197
310.8584
310.06503
309.08223
307.9915
306.86233
305.74148
304.65763
303.64866
302.72959
301.91107
301.20046
300.5974
300.0878
299.65032
299.28706
299.04805
298.90059
298.80728
298.73115
298.5797
298.28293
298.07883
297.96328
297.90448
297.87875
297.87016
297.86951
297.87502
297.90038
297.93607
297.97933
301.74135
291.78987
295.33053
294.72005
296.29926
297.0658
298.22883
299.46411
300.85874
302.40451
304.08473
305.85067
307.61004
309.24709
310.63894
311.6341
312.12858
312.19533
311.85968
311.19371
310.28514
309.21998
308.07453
306.91017
305.75834
304.66115
303.64444
302.72054
301.89972
301.18857
300.58587
300.07683
299.63938
299.27326
299.03849
298.89522
298.80568
298.72361
298.54415
298.24996
298.06257
297.95792
297.90569
297.88349
297.87661
297.87655
297.88119
297.90517
297.93867
297.97993
302.43884
293.1534
296.63761
296.25433
297.77489
298.65114
299.85184
301.14844
302.59542
304.17815
305.86562
307.59437
309.26198
310.75098
311.93636
312.66851
312.93716
312.79729
312.28438
311.47951
310.46848
309.33227
308.1409
306.94111
305.76732
304.6601
303.63641
302.70884
301.88657
301.17539
300.57342
300.06518
299.62796
299.25858
299.02921
298.88904
298.80286
298.71402
298.50497
298.22052
298.04881
297.95416
297.90772
297.88832
297.88264
297.88292
297.88713
297.90985
297.94152
297.98091
303.13216
294.79833
298.0818
297.90366
299.37408
300.34603
301.58947
302.93644
304.42514
306.0265
307.69432
309.35184
310.89283