/*--------------------------------*- C++ -*----------------------------------*\
  =========                 |
  \\      /  F ield         | OpenFOAM: The Open Source CFD Toolbox
   \\    /   O peration     | Website:  https://openfoam.org
    \\  /    A nd           | Version:  8
     \\/     M anipulation  |
\*---------------------------------------------------------------------------*/
FoamFile
{
    version     2.0;
    format      ascii;
    class       volVectorField;
    location    "0.229992";
    object      U;
}
// * * * * * * * * * * * * * * * * * * * * * * * * * * * * * * * * * * * * * //

dimensions      [0 1 -1 0 0 0 0];

internalField   nonuniform List<vector> 
20000
(
(204.1746 -3.4155021e-19 2.4610141)
(242.6385 0 3.0772885)
(268.29611 3.8435592e-19 3.2307771)
(290.37978 2.5725825e-21 3.3639532)
(309.96348 -3.6001415e-17 3.1472192)
(324.24896 3.0270924e-17 3.4395445)
(324.41469 6.2999111e-21 2.6119477)
(326.25197 -1.3348366e-18 3.784551)
(324.71035 0 2.2615484)
(325.45345 0 3.8809254)
(324.50108 0 2.1619752)
(324.6479 4.0349712e-20 3.693107)
(323.87838 6.7261393e-20 2.1989423)
(323.58614 7.1520394e-18 3.3446433)
(322.80795 -8.9082769e-18 2.2313183)
(322.13892 -4.9368224e-18 2.9150316)
(321.16752 2.5795674e-19 2.1515288)
(320.09477 -6.8291046e-18 2.4256456)
(318.76615 0 1.882081)
(317.1985 -1.8941227e-17 1.8379611)
(315.34426 3.0813726e-17 1.3727675)
(313.15852 -1.3708683e-17 1.1012176)
(310.63379 2.1385132e-17 0.62926557)
(307.71537 1.1056672e-18 0.21318109)
(304.3902 0 -0.27654237)
(300.5804 -1.4900248e-18 -0.77520982)
(296.2758 0 -1.2858985)
(291.6689 0 -1.642594)
(286.98584 -5.1175598e-17 -1.8237387)
(282.40005 0 -1.82581)
(278.09844 6.7499384e-17 -1.6754931)
(274.23076 0 -1.4238764)
(270.89301 8.0972246e-17 -1.1374127)
(268.11307 9.8168346e-19 -0.87502071)
(265.87927 -2.4994162e-17 -0.67397076)
(264.14511 -1.9736252e-17 -0.55456557)
(262.83843 2.7877974e-17 -0.51466246)
(261.88884 0 -0.54009846)
(261.23856 -1.2567881e-16 -0.61589645)
(260.81157 -9.3815346e-17 -0.7343408)
(260.50006 -1.3842356e-16 -0.88964092)
(260.29334 -1.2779348e-16 -1.036665)
(260.20361 1.8984991e-17 -1.1342827)
(260.20479 0 -1.1859283)
(260.28869 0 -1.2041396)
(260.48491 -1.2186804e-16 -1.1542014)
(260.6215 9.1211817e-17 -1.0453166)
(260.92184 -6.8835185e-17 -0.79578122)
(260.8936 5.3074917e-17 -0.36412717)
(262.01569 4.1678332e-17 0.46082394)
(207.18081 8.6578222e-17 1.6286267)
(245.8243 0 2.1643535)
(271.59397 -3.9393604e-19 2.1828896)
(293.63925 -4.284807e-17 2.2486719)
(312.99363 3.6598754e-17 1.9046058)
(326.28176 0 2.2403111)
(325.75737 -1.1437055e-17 1.3363835)
(327.6023 1.220547e-17 2.5927258)
(326.04675 -4.5361876e-18 0.95937649)
(326.79289 3.2909595e-18 2.68004)
(325.82068 3.5358371e-18 0.86532215)
(325.96601 2.6187437e-18 2.4780165)
(325.17708 4.3689533e-18 0.91420049)
(324.8718 -7.2352985e-18 2.1125136)
(324.07235 1.5113669e-17 0.95919172)
(323.37807 -1.5046069e-17 1.6678702)
(322.37668 8.3365156e-18 0.88645269)
(321.26306 6.9598722e-18 1.1652693)
(319.88755 -1.1515652e-17 0.6146534)
(318.26315 -1.9221515e-17 0.56871207)
(316.34746 1.5817081e-17 0.10700995)
(314.09405 0 -0.15801055)
(311.4874 -2.1769595e-17 -0.61678816)
(308.45387 0 -1.0244753)
(304.94306 0 -1.5186999)
(300.84638 0 -2.0047103)
(296.3774 0 -2.4543531)
(291.69462 1.6185773e-17 -2.7217535)
(286.93372 6.5192718e-17 -2.7909008)
(282.28905 -1.0398493e-16 -2.666431)
(277.95717 -9.9644482e-17 -2.3808774)
(274.08903 2.5985655e-17 -1.9957315)
(270.76894 -2.4575054e-16 -1.5863153)
(268.0154 3.1861074e-17 -1.2166378)
(265.80779 -2.1967553e-16 -0.92564726)
(264.09503 0 -0.7342368)
(262.80226 -2.8206795e-17 -0.63866451)
(261.86228 1.9041157e-16 -0.62125799)
(261.21915 1.263778e-16 -0.66535508)
(260.79143 2.581387e-16 -0.76405974)
(260.45603 -8.6839489e-17 -0.90698711)
(260.25017 7.6841504e-17 -1.0446708)
(260.17647 -1.8862154e-17 -1.1352907)
(260.1998 1.3885184e-17 -1.1822301)
(260.28604 1.4342522e-16 -1.1908664)
(260.47674 1.2138618e-16 -1.1443636)
(260.65204 -7.9186724e-17 -1.0323482)
(261.0013 5.1144228e-17 -0.78539684)
(261.2116 -3.2652257e-17 -0.34206217)
(261.96262 3.6396068e-17 0.47060788)
(210.02762 0 0.7703838)
(248.8969 0 1.220489)
(274.80183 0 1.0980861)
(296.82525 0 1.1012553)
(315.90049 2.3181763e-18 0.62111349)
(328.13901 0 0.99974942)
(327.03913 -1.6608127e-18 0.0008203267)
(328.89896 0 1.3663528)
(327.31839 0 -0.38309959)
(328.07386 7.6383058e-18 1.4451892)
(327.07821 -6.3648721e-18 -0.4668883)
(327.22205 1.0602859e-17 1.2255553)
(326.41302 8.8300657e-18 -0.40434539)
(326.09298 -1.4720304e-17 0.83949744)
(325.27165 9.6364424e-21 -0.34889177)
(324.54933 0 0.37608913)
(323.51567 -1.6909617e-17 -0.42035162)
(322.35781 0 -0.14311836)
(320.93446 1.1728211e-17 -0.69686756)
(319.25402 -1.9500519e-17 -0.74478081)
(317.27827 4.8212997e-17 -1.1993635)
(314.95024 0 -1.4604092)
(312.23727 0 -1.9139695)
(309.03737 7.2709083e-17 -2.3283822)
(305.28751 0 -2.8307822)
(301.00495 9.8223383e-17 -3.290546)
(296.40571 0 -3.6570328)
(291.61246 0 -3.8215106)
(286.75268 1.0538498e-16 -3.7730372)
(282.05077 -8.4603188e-17 -3.5122286)
(277.70326 -1.0067335e-16 -3.084414)
(273.85056 -2.630911e-17 -2.5620259)
(270.56419 1.656359e-16 -2.0285351)
(267.85177 0 -1.552212)
(265.68383 1.9713572e-16 -1.1729001)
(264.00396 0 -0.91134534)
(262.73526 0 -0.7616093)
(261.81399 -5.1110672e-16 -0.70236352)
(261.18516 0 -0.71589547)
(260.75738 -1.8852369e-16 -0.79659935)
(260.40426 -5.2380358e-20 -0.92654474)
(260.2102 0 -1.052306)
(260.15623 1.88691e-17 -1.1347438)
(260.19585 1.3872537e-17 -1.1767806)
(260.28456 -5.1064522e-16 -1.1846946)
(260.47422 0 -1.1329008)
(260.65784 0 -1.0146874)
(261.07254 0 -0.77003294)
(261.28628 -2.1166443e-16 -0.31775958)
(261.9924 -2.3711202e-16 0.47747071)
(212.82197 0 -0.12216211)
(251.91204 0 0.2409355)
(277.94033 -1.6248296e-18 -0.031077164)
(299.92661 2.7748571e-18 -0.091305909)
(318.62603 -1.1799371e-17 -0.7085546)
(329.81021 -3.9655338e-18 -0.26562326)
(328.24493 1.3443115e-17 -1.3652446)
(330.12041 -1.6726726e-17 0.11404052)
(328.51591 4.6649194e-18 -1.7565896)
(329.27926 7.7211226e-18 0.18108665)
(328.25994 6.442923e-18 -1.8317882)
(328.40121 -1.0717236e-17 -0.059072508)
(327.57111 -8.9744726e-18 -1.7571196)
(327.23484 -7.4678255e-18 -0.46867468)
(326.38991 2.4871881e-17 -1.6934566)
(325.6374 1.0387032e-17 -0.95484694)
(324.56957 -1.7152526e-17 -1.7670729)
(323.36696 2.8569813e-17 -1.4917178)
(321.89711 -1.1833072e-17 -2.0451137)
(320.16133 -1.9780632e-17 -2.0925256)
(318.11978 -1.6465778e-17 -2.5406183)
(315.69531 6.7662294e-17 -2.805539)
(312.83115 1.1388697e-17 -3.2684061)
(309.40881 -1.1079218e-16 -3.7034163)
(305.44458 1.3660826e-16 -4.198116)
(301.03717 -2.2454928e-16 -4.59863)
(296.32555 -1.4276359e-16 -4.8739026)
(291.40333 1.3240461e-16 -4.9337865)
(286.45635 -7.9869574e-17 -4.7587357)
(281.71299 2.997663e-16 -4.354792)
(277.36675 3.9117253e-16 -3.780416)
(273.54624 2.413228e-16 -3.1191674)
(270.30871 0 -2.4619177)
(267.64998 -2.9200293e-16 -1.8803086)
(265.53189 2.4778843e-17 -1.4144421)
(263.8927 0 -1.0844328)
(262.65418 0 -0.88177598)
(261.75653 -8.3850713e-20 -0.78151987)
(261.14438 5.1082042e-16 -0.765572)
(260.71495 0 -0.82922382)
(260.35254 2.7936217e-16 -0.94579138)
(260.17391 3.8543116e-16 -1.058297)
(260.13508 -5.4719893e-16 -1.1327092)
(260.18594 -2.7695128e-17 -1.1697908)
(260.28413 -1.8245751e-20 -1.1720842)
(260.47452 4.8028617e-16 -1.1215009)
(260.67049 3.6722404e-16 -0.99544405)
(261.1418 -2.4963226e-17 -0.75272184)
(261.43387 2.1465073e-16 -0.29585869)
(261.99978 -8.1728096e-21 0.48137162)
(215.54913 1.409231e-18 -1.0642187)
(254.84824 2.0254596e-18 -0.7757445)
(280.98963 1.6612272e-18 -1.1999888)
(302.94235 0 -1.3293344)
(321.15631 -1.6765173e-17 -2.0823749)
(331.30343 1.6076774e-17 -1.5583304)
(329.36811 1.3639698e-17 -2.7676618)
(331.25881 -1.1294824e-17 -1.1670453)
(329.62794 4.7335519e-18 -3.1637927)
(330.39907 -1.569046e-17 -1.114089)
(329.3545 -6.5606174e-18 -3.2301629)
(329.49193 1.0912967e-17 -1.3770363)
(328.63943 0 -3.1432577)
(328.28469 1.5079642e-17 -1.8129372)
(327.4142 0 -3.0734085)
(326.62924 0 -2.3245561)
(325.52683 3.4789088e-17 -3.150261)
(324.28078 0 -2.8764938)
(322.76504 4.8078492e-17 -3.4263468)
(320.96662 0 -3.4756256)
(318.83798 6.622183e-17 -3.924758)
(316.27506 -5.4963645e-17 -4.2090821)
(313.20563 0 -4.6963522)
(309.5786 -9.3808325e-17 -5.1383915)
(305.4822 -1.0808713e-16 -5.5923529)
(300.96239 1.0117574e-16 -5.9242181)
(296.10602 1.6520881e-16 -6.1091302)
(291.05822 -1.5108634e-16 -6.0556673)
(286.03536 4.0702233e-17 -5.7434231)
(281.26737 -1.949484e-16 -5.1887224)
(276.94075 4.4301066e-19 -4.463616)
(273.16987 -4.342583e-16 -3.6624556)
(269.99668 0 -2.8825052)
(267.40466 2.618437e-16 -2.1977818)
(265.34705 0 -1.64792)
(263.75698 -3.8219148e-17 -1.251846)
(262.55556 2.8707121e-17 -0.99806694)
(261.68731 7.1108636e-16 -0.85814121)
(261.09449 -5.2910789e-16 -0.8143485)
(260.66255 -2.3759971e-17 -0.86164133)
(260.30253 -1.7535947e-17 -0.96455215)
(260.13631 -8.2314252e-16 -1.0630449)
(260.11293 -1.8915494e-17 -1.1296166)
(260.17149 5.5290442e-17 -1.1624035)
(260.28294 3.0422029e-16 -1.1633216)
(260.47202 -4.7744318e-16 -1.1094604)
(260.69368 -1.429914e-20 -0.97514229)
(261.19946 -5.0991166e-16 -0.73060234)
(261.57339 -1.2428087e-17 -0.27526884)
(262.00218 1.5016083e-16 0.48044456)
(218.21194 -1.4319856e-18 -2.0346498)
(257.69711 -7.0171523e-17 -1.8416017)
(283.94257 2.6972212e-17 -2.3983364)
(305.86986 0 -2.604137)
(323.4676 0 -3.4926151)
(332.62219 0 -2.8747913)
(330.39689 2.7658801e-17 -4.2022582)
(332.30138 -5.6915268e-18 -2.4753737)
(330.64251 -1.9134334e-17 -4.6027838)
(331.4209 1.5903392e-17 -2.4389787)
(330.34995 -1.324532e-17 -4.660217)
(330.48218 0 -2.7271043)
(329.60582 0 -4.5617854)
(329.23025 -1.534624e-17 -3.1924743)
(328.33232 0 -4.4869436)
(327.5135 -2.1274797e-17 -3.7288798)
(326.37684 -5.5632422e-20 -4.5635149)
(325.08764 1.4694819e-17 -4.2914538)
(323.52009 -4.8898435e-17 -4.8401756)
(321.63777 4.0496745e-17 -4.9012532)
(319.38354 -6.7311306e-17 -5.3658331)
(316.63345 -1.4007648e-17 -5.685697)
(313.37585 -8.0711431e-17 -6.1850077)
(309.61991 7.6071434e-17 -6.6020155)
(305.40887 1.5775137e-17 -7.0043959)
(300.74081 -3.8603809e-17 -7.2687413)
(295.73489 -1.4712955e-16 -7.357654)
(290.57378 2.8988756e-16 -7.1794114)
(285.49197 -1.360154e-17 -6.7197627)
(280.71882 -3.7435906e-16 -6.0076464)
(276.43113 -2.6169485e-16 -5.1287324)
(272.72747 2.1949587e-16 -4.1876615)
(269.63372 0 -3.2870166)
(267.12074 -3.3156821e-17 -2.5021342)
(265.1334 2.5220463e-17 -1.871445)
(263.60005 0 -1.4121494)
(262.4419 -4.3444111e-16 -1.1093814)
(261.60797 3.2514612e-16 -0.93146665)
(261.03618 5.1540929e-16 -0.86180835)
(260.60157 0 -0.89312415)
(260.25376 0 -0.98227464)
(260.09993 -4.1193849e-16 -1.0665777)
(260.08824 -3.926675e-20 -1.1254416)
(260.15269 -8.827772e-16 -1.153756)
(260.27723 6.2622606e-16 -1.1500554)
(260.46538 1.4832636e-17 -1.096357)
(260.72597 -3.4995676e-16 -0.95407157)
(261.24449 1.0180784e-19 -0.70470795)
(261.67378 -3.9043821e-16 -0.25497803)
(262.00426 0 0.47522157)
(220.76479 9.6078999e-17 -2.968538)
(260.42385 -6.5039539e-17 -2.9812636)
(286.76728 5.4858711e-17 -3.6435018)
(308.69468 0 -3.9307497)
(325.53714 -3.9471832e-17 -4.9492453)
(333.77038 2.8975092e-17 -4.2228968)
(331.32125 6.9933519e-18 -5.6741551)
(333.23911 2.1038583e-20 -3.8132352)
(331.55061 0 -6.0737134)
(332.33599 -8.0732284e-18 -3.7926988)
(331.23717 2.6901478e-17 -6.1208816)
(331.3624 -2.2398909e-17 -4.1086235)
(330.46056 7.2754029e-21 -6.0116936)
(330.06214 1.5549562e-17 -4.6060603)
(329.13583 -1.291056e-17 -5.9309802)
(328.28215 0 -5.1634642)
(327.10873 0 -6.0023994)
(325.76832 4.4621641e-17 -5.7360223)
(324.12842 3.7135345e-17 -6.2940579)
(322.12754 -1.2333819e-16 -6.3845003)
(319.70614 8.5348389e-17 -6.8791016)
(316.79014 -1.4043055e-17 -7.2220759)
(313.41489 9.3535858e-17 -7.701456)
(309.5505 -1.5445504e-16 -8.0834557)
(305.18877 0 -8.4368378)
(300.35731 -2.3495512e-16 -8.6302172)
(295.20872 3.6153228e-16 -8.6122728)
(289.94916 -2.9348917e-16 -8.2975509)
(284.82705 4.1851644e-17 -7.6807333)
(280.0695 -4.5355245e-17 -6.8052858)
(275.84075 -2.655118e-16 -5.7705378)
(272.22196 -2.7895361e-17 -4.6906095)
(269.22235 2.1506624e-17 -3.6722033)
(266.8002 3.346308e-17 -2.7908898)
(264.89234 -5.1009845e-17 -2.0831561)
(263.42288 3.8693273e-17 -1.563949)
(262.31387 -4.3928614e-17 -1.2146917)
(261.51868 -6.9665554e-16 -1.0008256)
(260.96937 -9.8625235e-16 -0.90757222)
(260.5335 7.4060558e-16 -0.9232963)
(260.20525 -5.6222801e-16 -0.99860509)
(260.06521 8.4978886e-16 -1.0690144)
(260.06193 -1.8864087e-17 -1.1202394)
(260.13128 1.7610572e-15 -1.1444166)
(260.2666 4.7506793e-21 -1.1386583)
(260.4617 1.4726556e-17 -1.0821073)
(260.75845 -3.2499314e-17 -0.93251804)
(261.27819 1.6224485e-17 -0.67654445)
(261.74212 3.8403529e-16 -0.23451024)
(262.00675 0 0.46687331)
(223.21801 -1.8919449e-16 -3.9568446)
(263.03207 1.343485e-16 -4.1415432)
(289.46132 3.4989773e-18 -4.9226353)
(311.41995 -5.336517e-17 -5.2896857)
(327.35886 0 -6.4312754)
(334.75807 4.2064506e-18 -5.588332)
(332.13571 -6.3931725e-17 -7.1718636)
(334.06691 8.8214102e-17 -5.1732116)
(332.34635 -3.9297702e-17 -7.5723574)
(333.13733 -1.6310335e-17 -5.1737112)
(332.00821 -4.0944349e-17 -7.6114798)
(332.12407 4.5303877e-17 -5.521126)
(331.19555 1.8936778e-17 -7.4906035)
(330.77322 8.4994818e-20 -6.049961)
(329.81804 -2.6173917e-17 -7.4008835)
(328.92637 0 -6.626276)
(327.70546 0 -7.4702751)
(326.29084 -6.0474749e-17 -7.2209485)
(324.54144 -1.0044538e-16 -7.8032278)
(322.39734 8.3459717e-17 -7.9391639)
(319.8362 -8.6640102e-17 -8.4475454)
(316.81962 1.4247916e-17 -8.7822307)
(313.34438 -7.1053482e-17 -9.2341401)
(309.33531 2.9400787e-16 -9.586606)
(304.80112 1.6258706e-17 -9.8899215)
(299.80759 1.9828842e-16 -10.001511)
(294.52635 -1.7252826e-16 -9.8650028)
(289.18578 -2.8082052e-16 -9.402009)
(284.04443 0 -8.6190337)
(279.32442 -2.3681484e-17 -7.5754656)
(275.17491 8.9467533e-16 -6.3840758)
(271.65832 -4.2155448e-17 -5.1674565)
(268.76686 2.1729087e-17 -4.0351484)
(266.44653 0 -3.0618633)
(264.62656 7.9778996e-16 -2.2814218)
(263.22752 -5.8492146e-16 -1.7060184)
(262.17297 4.8345854e-16 -1.3131043)
(261.42011 -2.1841432e-17 -1.065622)
(260.89437 4.8668786e-16 -0.95105956)
(260.45998 -7.1828751e-16 -0.95183015)
(260.15652 5.4529156e-16 -1.0131765)
(260.03206 -8.2416631e-16 -1.0704793)
(260.03481 1.7866983e-15 -1.114162)
(260.10882 -8.3684629e-16 -1.134471)
(260.25249 -6.6066468e-16 -1.1262347)
(260.46307 1.4627051e-17 -1.0666921)
(260.78616 -1.0742242e-17 -0.91026006)
(261.31404 5.2294013e-16 -0.64720005)
(261.80452 -7.6687493e-16 -0.21439611)
(262.00921 0 0.45607801)
(225.55783 -6.0011392e-18 -4.986254)
(265.50995 1.4089232e-16 -5.3378148)
(292.00831 -1.1698762e-16 -6.2426038)
(314.03594 -9.0393803e-17 -6.6924705)
(328.92459 8.1179588e-17 -7.9486942)
(335.59236 0 -6.9813821)
(332.83375 6.4761405e-17 -8.7048101)
(334.77803 -4.7600126e-17 -6.5635636)
(333.02238 0 -9.1055536)
(333.81745 4.2609959e-20 -6.5874949)
(332.65616 -4.1461094e-17 -9.1341047)
(332.76086 2.2953433e-17 -6.9638664)
(331.80536 -1.914178e-17 -8.9942454)
(331.35721 6.3834331e-17 -7.5195448)
(330.36867 -2.6556526e-17 -8.89442)
(329.42797 -4.4220866e-17 -8.122716)
(328.13885 1.8469327e-17 -8.9827043)
(326.61688 -7.6511993e-17 -8.7686482)
(324.74672 1.0188932e-16 -9.3799216)
(322.49131 8.4636384e-17 -9.5378732)
(319.84984 0 -10.033895)
(316.74096 -1.3110855e-16 -10.356704)
(313.12976 1.0822478e-16 -10.789042)
(308.95009 -1.9766248e-17 -11.113123)
(304.24196 -3.0004033e-19 -11.356934)
(299.09013 -1.7473891e-16 -11.375357)
(293.68921 4.2422765e-19 -11.107528)
(288.28711 2.6639672e-16 -10.4847)
(283.14912 -4.8774433e-16 -9.5274989)
(278.48932 7.5451392e-16 -8.3122451)
(274.43932 1.4753061e-18 -6.9646909)
(271.04167 0 -5.6146735)
(268.27156 0 -4.37322)
(266.06313 0 -3.3131039)
(264.33865 -8.2904227e-16 -2.4647895)
(263.01589 6.27494e-16 -1.8372645)
(262.02062 9.4305673e-16 -1.4038457)
(261.31282 -7.0314693e-16 -1.1253633)
(260.81119 0 -0.99119547)
(260.38266 7.4402419e-16 -0.97824026)
(260.10756 1.759515e-17 -1.0256463)
(259.99986 7.9808837e-16 -1.0710113)
(260.00811 -1.1828577e-15 -1.1075147)
(260.08641 8.4789401e-16 -1.1240576)
(260.23649 1.9922855e-17 -1.1121111)
(260.4628 9.2998603e-16 -1.0495265)
(260.80815 0 -0.8865615)
(261.35831 0 -0.61712199)
(261.86305 7.309634e-16 -0.19513885)
(262.01165 5.6639208e-16 0.44325155)
(227.77811 -1.9183508e-16 -6.0537366)
(267.84392 -4.1039809e-20 -6.5674002)
(294.38962 1.1893162e-16 -7.6002071)
(316.52644 6.1110843e-18 -8.1332704)
(330.22672 0 -9.4955895)
(336.27322 8.6280543e-18 -8.3994801)
(333.4023 -7.2978566e-18 -10.269957)
(335.36159 1.2088531e-17 -7.9821931)
(333.56907 -4.0415596e-17 -10.670545)
(334.36942 6.7083491e-17 -8.0302422)
(333.17605 1.4017753e-17 -10.682976)
(333.26758 2.3285438e-17 -8.432826)
(332.28423 0 -10.520474)
(331.80259 -3.2382874e-17 -9.0174262)
(330.76728 -4.0066982e-20 -10.420622)
(329.7543 1.1213132e-16 -9.6671198)
(328.37905 -1.8735211e-17 -10.559044)
(326.75859 1.3979557e-16 -10.380102)
(324.80364 -2.5732877e-17 -10.989606)
(322.48266 -2.134423e-17 -11.149461)
(319.75637 0 -11.632482)
(316.52029 1.1808179e-16 -11.954297)
(312.74607 0 -12.368814)
(308.39143 -1.6126005e-16 -12.65701)
(303.50843 1.6760662e-17 -12.831347)
(298.20576 2.0418402e-16 -12.743618)
(292.70057 0 -12.331317)
(287.25844 1.8176721e-17 -11.537543)
(282.14774 4.2001018e-16 -10.399176)
(277.5712 -3.4705061e-16 -9.0100613)
(273.64061 -6.0370787e-16 -7.508157)
(270.37786 -4.4538797e-16 -6.0291466)
(267.74128 0 -4.6841512)
(265.65381 0 -3.542961)
(264.03148 -8.3591859e-16 -2.6320371)
(262.79019 0 -1.9567662)
(261.85843 -9.4730909e-16 -1.4862839)
(261.19758 7.056576e-16 -1.1797744)
(260.71976 0 -1.0253311)
(260.30338 -1.5145489e-15 -1.0019047)
(260.0581 -1.1453228e-15 -1.0356803)
(259.96802 8.2339967e-16 -1.0705417)
(259.9833 0 -1.1005849)
(260.06495 -8.7214636e-16 -1.1130713)
(260.22062 1.9812068e-17 -1.0964054)
(260.45637 -2.8894898e-17 -1.0301461)
(260.82678 -1.3370417e-15 -0.86069134)
(261.40668 -9.879808e-16 -0.58616874)
(261.90409 7.1859368e-16 -0.17643492)
(262.01327 -5.326958e-16 0.42861688)
(229.84652 1.9773512e-16 -7.1575283)
(270.01057 -1.4318491e-16 -7.8338982)
(296.58207 -3.668802e-18 -8.9997518)
(318.86885 -6.2156636e-18 -9.6153552)
(331.2624 8.3605034e-17 -11.072642)
(336.803 -7.0050691e-17 -9.8406466)
(333.82924 0 -11.863016)
(335.81083 1.2226286e-17 -9.4219008)
(333.97846 2.0448014e-17 -12.257267)
(334.7888 3.400952e-17 -9.4898801)
(333.55953 -2.8356355e-17 -12.248392)
(333.62732 -2.3643105e-17 -9.9285089)
(332.6183 3.9453736e-17 -12.079061)
(332.08631 1.2712248e-19 -10.559594)
(330.99035 -5.4513064e-17 -12.003282)
(329.90339 -4.5398202e-17 -11.276939)
(328.46012 -1.888309e-17 -12.177096)
(326.77987 -6.3052987e-17 -12.012335)
(324.77058 7.8533777e-17 -12.60809)
(322.3676 -6.543492e-17 -12.772864)
(319.52173 0 -13.255652)
(316.13412 0 -13.577462)
(312.19035 0 -13.968527)
(307.65617 0 -14.212617)
(302.601 0 -14.305623)
(297.15729 2.2177279e-16 -14.097993)
(291.56561 3.6187818e-16 -13.527827)
(286.10673 3.1171214e-16 -12.552681)
(281.04817 4.5705909e-16 -11.227493)
(276.57791 3.7591246e-16 -9.6638137)
(272.78599 -5.9371738e-16 -8.0107247)
(269.67305 4.6336118e-16 -6.4082011)
(267.18103 7.1989012e-16 -4.9660488)
(265.22248 -1.105686e-15 -3.7500812)
(263.70802 -2.724711e-17 -2.7821661)
(262.55267 1.9808722e-17 -2.0637699)
(261.68805 1.9046299e-15 -1.5599087)
(261.07542 0 -1.2289996)
(260.62046 -1.0804699e-15 -1.0594428)
(260.22368 7.943439e-16 -1.0222897)
(260.0076 1.1277927e-15 -1.0430148)
(259.93594 -2.4676767e-15 -1.0688462)
(259.9604 1.8695693e-17 -1.0934078)
(260.0452 8.5527242e-16 -1.1012061)
(260.20534 0 -1.0803765)
(260.44691 -9.1625942e-16 -1.0088202)
(260.84602 1.3343433e-15 -0.83256065)
(261.45516 9.7542306e-16 -0.5549472)
(261.93007 -7.1783246e-16 -0.15805999)
(262.01054 -5.3785107e-16 0.41324103)
(231.7741 2.8734709e-20 -8.2898301)
(272.02135 -1.5000253e-16 -9.1229523)
(298.59678 0 -10.428547)
(321.0584 1.0083831e-16 -11.123468)
(332.0479 -8.4774008e-17 -12.666395)
(337.19402 -8.8868875e-18 -11.293506)
(334.10104 1.4960468e-17 -13.472817)
(336.12831 -1.2407417e-17 -10.870448)
(334.2407 -2.0751302e-17 -13.854861)
(335.07174 -1.724642e-17 -10.961086)
(333.7802 0 -13.833683)
(333.82397 -2.4014328e-17 -11.462473)
(332.79137 -4.0059835e-17 -13.69213)
(332.21034 9.9777915e-17 -12.165693)
(331.06597 2.778236e-17 -13.628257)
(329.9297 0 -12.910693)
(328.44701 0 -13.803769)
(326.7137 0 -13.648575)
(324.6289 -2.3942282e-16 -14.240813)
(322.11134 2.196819e-17 -14.42466)
(319.12648 -1.4687122e-16 -14.904625)
(315.57961 -1.5317949e-17 -15.222375)
(311.45945 1.8884209e-16 -15.58339)
(306.7445 -3.8813999e-19 -15.773214)
(301.52153 2.7423457e-16 -15.77201)
(295.94921 -2.1029835e-16 -15.429934)
(290.2911 -7.3294775e-16 -14.688586)
(284.84031 -3.1486684e-16 -13.522569)
(279.85929 -4.6128327e-16 -12.006363)
(275.51804 -3.792417e-16 -10.26896)
(271.8831 5.9864208e-16 -8.4691896)
(268.9337 0 -6.749645)
(266.59601 -7.4766518e-16 -5.2174222)
(264.77317 1.095084e-15 -3.933429)
(263.37134 1.6935034e-15 -2.9144166)
(262.30566 -1.2580569e-15 -2.1577031)
(261.51112 -1.8818548e-15 -1.6243657)
(260.94751 4.3204852e-20 -1.2723681)
(260.51463 1.0332058e-15 -1.0905418)
(260.14448 0 -1.0392718)
(259.95749 0 -1.0477163)
(259.9034 -1.9147859e-19 -1.0655784)
(259.9394 0 -1.0853887)
(260.02697 -2.5957111e-15 -1.0884721)
(260.19005 1.958603e-17 -1.0643118)
(260.43809 -9.2321762e-16 -0.9859612)
(260.87073 0 -0.80247396)
(261.50708 -1.5025131e-17 -0.52417112)
(261.94863 7.0570665e-16 -0.14076439)
(262.0024 8.1700876e-18 0.39786339)
(233.56864 -6.3262757e-18 -9.4584251)
(273.89689 -1.3848907e-16 -10.451335)
(300.45834 7.5713635e-18 -11.905029)
(323.09636 0 -12.669236)
(332.6138 9.6878524e-17 -14.288013)
(337.46712 -6.3002812e-17 -12.76863)
(334.29566 -1.517206e-17 -15.108573)
(336.32307 -1.2561385e-17 -12.338388)
(334.39648 0 -15.480489)
(335.21589 6.9948114e-17 -12.477007)
(333.90332 -5.8264934e-17 -15.478418)
(333.92537 -2.4289408e-17 -13.048009)
(332.83635 4.0576955e-17 -15.331149)
(332.22455 -1.0118383e-16 -13.790561)
(331.05207 2.8037533e-17 -15.260645)
(329.87772 4.6817047e-17 -14.549913)
(328.34416 -1.9551442e-17 -15.434261)
(326.53283 1.6143985e-17 -15.306152)
(324.34349 8.0716568e-17 -15.901705)
(321.70003 -1.5722093e-16 -16.102125)
(318.56774 1.4873977e-16 -16.576702)
(314.85413 0 -16.884946)
(310.55369 -4.0901534e-16 -17.207715)
(305.65782 0 -17.331986)
(300.2737 -5.5642804e-16 -17.222503)
(294.58757 0 -16.730889)
(288.88528 3.70957e-16 -15.80535)
(283.46864 0 -14.440105)
(278.59084 -4.8437614e-16 -12.730272)
(274.40069 7.4636603e-16 -10.821562)
(270.93992 3.7840065e-17 -8.8809148)
(268.16642 -1.4711953e-17 -7.0517802)
(265.99149 -7.5550115e-16 -5.4371841)
(264.30992 -1.7646301e-17 -4.0922819)
(263.02449 -7.9835639e-16 -3.0282612)
(262.05149 -2.1111758e-17 -2.2381652)
(261.32924 -3.0024642e-17 -1.6794114)
(260.81494 2.224805e-17 -1.3095336)
(260.40469 -1.0519097e-15 -1.1161678)
(260.06609 0 -1.0523165)
(259.90377 3.5234371e-17 -1.0499769)
(259.8705 1.6144075e-15 -1.0605221)
(259.91921 0 -1.0765241)
(260.00987 1.6957803e-15 -1.0754124)
(260.17591 1.2851168e-15 -1.0479771)
(260.43154 2.6768243e-15 -0.96168835)
(260.90747 1.0218719e-17 -0.7710398)
(261.56508 0 -0.49451354)
(261.96342 -7.0472907e-16 -0.12518877)
(261.99207 5.2705846e-16 0.38239465)
(235.24803 6.4544454e-18 -10.655045)
(275.65265 -1.5475881e-16 -11.797085)
(302.19374 1.1544968e-16 -13.409555)
(324.96678 6.4804791e-18 -14.231103)
(332.98759 -2.1853118e-17 -15.922934)
(337.64057 -4.0430349e-21 -14.257009)
(334.39806 1.5365015e-17 -16.781483)
(336.42037 4.0026293e-21 -13.859084)
(334.46591 -6.3991834e-17 -17.171457)
(335.27223 7.0767784e-17 -14.046729)
(333.93699 0 -17.153184)
(333.94876 0 -14.649558)
(332.80576 4.1050656e-17 -16.971412)
(332.16714 -3.4265509e-17 -15.418886)
(330.95861 2.8423425e-17 -16.891114)
(329.72716 -4.7452576e-17 -16.204766)
(328.11933 -7.9075693e-17 -17.093518)
(326.2103 0 -16.992591)
(323.90869 0 -17.588047)
(321.13074 -2.3305305e-17 -17.803735)
(317.84373 1.7010612e-16 -18.268179)
(313.95811 1.5791753e-17 -18.560289)
(309.47419 1.6817259e-16 -18.835609)
(304.39892 -3.226915e-16 -18.881746)
(298.86242 2.8176645e-16 -18.648923)
(293.07975 0 -17.992317)
(287.35752 -3.7838062e-16 -16.870177)
(282.00212 -1.9215649e-17 -15.298725)
(277.25312 4.7290451e-16 -13.394353)
(273.23528 -1.5323566e-15 -11.318348)
(269.96454 -1.9217364e-17 -9.2438712)
(267.37786 -9.4169091e-16 -7.3134212)
(265.37274 7.602516e-16 -5.6246604)
(263.83677 1.1128117e-15 -4.2262339)
(262.67052 0 -3.1234065)
(261.79244 1.2894463e-15 -2.3049319)
(261.14394 0 -1.724924)
(260.67879 -2.2344272e-17 -1.3405002)
(260.2928 1.6021154e-17 -1.1367556)
(259.98861 0 -1.0636084)
(259.85252 3.5204568e-17 -1.0498148)
(259.83779 -5.1145719e-17 -1.0536405)
(259.8982 -1.1857859e-15 -1.0665941)
(259.9944 1.3394385e-17 -1.0625625)
(260.16465 -6.5715126e-21 -1.031481)
(260.42939 -1.8701232e-19 -0.93580235)
(260.96473 0 -0.73938263)
(261.62597 -9.2207932e-16 -0.46634749)
(261.97616 -1.3643275e-15 -0.11174393)
(261.98081 9.9269145e-16 0.36644101)
(236.82594 -2.094455e-16 -11.887985)
(277.31176 0 -13.174852)
(303.8242 2.5819052e-16 -14.967122)
(326.58173 -2.1676093e-16 -15.8389)
(333.19206 1.885896e-16 -17.614629)
(337.72238 -1.6653616e-16 -15.795882)
(334.4176 -1.5581899e-16 -18.507004)
(336.45786 1.1609901e-16 -15.417324)
(334.45769 -2.1591067e-17 -18.886107)
(335.28207 0 -15.632559)
(333.89833 0 -18.83033)
(333.90316 0 -16.2557)
(332.70049 4.1693843e-17 -18.610734)
(332.01738 -1.3870244e-16 -17.063903)
(330.75398 -5.7953503e-17 -18.550715)
(329.44644 2.3982189e-17 -17.89244)
(327.75554 8.0096446e-17 -18.77873)
(325.74338 1.6711161e-16 -18.705963)
(323.32147 -2.7608338e-17 -19.298529)
(320.4029 2.0761827e-16 -19.525858)
(316.95526 -1.7215742e-16 -19.975026)
(312.89281 1.6036814e-17 -20.243467)
(308.22326 1.3540636e-17 -20.460994)
(302.97167 3.2594795e-16 -20.415211)
(297.29379 0 -20.043017)
(291.43436 0 -19.205843)
(285.71825 3.5768216e-16 -17.875537)
(280.45187 -6.0140941e-16 -16.092479)
(275.85686 -5.2823432e-16 -13.994432)
(272.03145 8.1018765e-16 -11.756717)
(268.96514 0 -9.5566222)
(266.57465 9.9301374e-16 -7.5338727)
(264.74492 -2.3162963e-17 -5.7795663)
(263.35763 -1.1361986e-15 -4.3351785)
(262.31237 8.8923474e-16 -3.1997813)
(261.53069 -2.0213098e-17 -2.3579453)
(260.95664 9.6683931e-16 -1.7608854)
(260.54008 2.2391431e-17 -1.3653811)
(260.1801 -1.68809e-17 -1.152868)
(259.91288 -1.5442023e-15 -1.0712685)
(259.80342 3.5162194e-17 -1.04758)
(259.80615 1.6330049e-15 -1.0451852)
(259.87517 1.1628708e-15 -1.0554456)
(259.98147 0 -1.050063)
(260.15625 -7.34309e-21 -1.0146659)
(260.43475 -1.7452976e-15 -0.90776695)
(261.04462 -1.2983516e-15 -0.70843302)
(261.6844 9.241795e-16 -0.43999884)
(261.98792 1.3414612e-15 -0.10054607)
(261.96826 -1.95904e-15 0.3497768)
(238.30519 -6.6397378e-18 -13.168935)
(278.88058 0 -14.588939)
(305.37843 2.4635123e-16 -16.579928)
(328.06133 -2.0628266e-16 -17.480462)
(333.26114 -1.8013384e-16 -19.341708)
(337.72905 1.5940021e-16 -17.353149)
(334.35018 -1.1052533e-16 -20.238367)
(336.38737 7.8385133e-17 -16.970228)
(334.35403 0 -20.591878)
(335.13824 0 -17.216177)
(333.75129 -3.0376764e-17 -20.513161)
(333.71342 0 -17.890578)
(332.48513 0 -20.287095)
(331.7423 -8.0162228e-20 -18.747426)
(330.41735 5.8538868e-17 -20.237625)
(329.03077 0 -19.609309)
(327.2513 1.2219363e-16 -20.489769)
(325.13044 -3.3344165e-17 -20.443853)
(322.58278 -1.1283004e-16 -21.029955)
(319.51778 0 -21.265088)
(315.90384 -1.9607708e-17 -21.693043)
(311.66033 3.2293379e-17 -21.92935)
(306.80383 -1.3245038e-17 -22.077596)
(301.38069 -2.2326571e-17 -21.924839)
(295.57486 1.7994693e-17 -21.396447)
(289.66092 -3.0099627e-17 -20.363259)
(283.97865 2.4012397e-17 -18.814392)
(278.82955 6.2568568e-16 -16.816108)
(274.41308 5.3250989e-16 -14.527099)
(270.79889 -4.9704966e-17 -12.134784)
(267.9498 1.9436846e-17 -9.8183448)
(265.76322 0 -7.7129343)
(264.113 -2.3458652e-17 -5.9019993)
(262.8763 -6.5873234e-20 -4.419302)
(261.95291 -8.5216426e-16 -3.2575355)
(261.26832 0 -2.3973107)
(260.76857 -9.6899076e-16 -1.7873658)
(260.39963 0 -1.3840633)
(260.06744 1.0878824e-15 -1.1641465)
(259.83937 3.0626397e-15 -1.0749242)
(259.75759 0 -1.0430271)
(259.77586 -1.6538003e-15 -1.035535)
(259.85075 1.8384353e-17 -1.0431422)
(259.97058 0 -1.0376562)
(260.15011 -1.2021546e-15 -0.99712464)
(260.45136 -1.3735945e-17 -0.8773722)
(261.13986 2.50899e-15 -0.67817979)
(261.73766 1.8227829e-15 -0.41584136)
(261.99802 1.0310909e-17 -0.091457974)
(261.95403 1.9182501e-15 0.33260571)
(239.68757 4.3773861e-16 -14.479532)
(280.35632 0 -16.019702)
(306.84842 0 -18.221514)
(329.37418 -2.0908289e-16 -19.12783)
(333.19891 1.8261345e-16 -21.07539)
(337.63068 1.902195e-17 -18.90898)
(334.1672 0 -21.979232)
(336.21559 -1.9282967e-20 -18.536285)
(334.12428 -2.2174925e-17 -22.322061)
(334.92928 -3.6931748e-17 -18.828935)
(333.47056 6.1381013e-17 -22.222896)
(333.37572 5.1186635e-17 -19.563209)
(332.13852 -4.2787467e-17 -21.995458)
(331.33643 1.0695614e-16 -20.463589)
(329.94849 -2.96164e-17 -21.949555)
(328.47947 0 -21.352618)
(326.60757 -8.2358084e-17 -22.223287)
(324.3735 -2.7473147e-16 -22.203311)
(321.69441 1.9990353e-16 -22.779456)
(318.4774 2.3605928e-17 -23.017845)
(314.69173 -1.584524e-16 -23.418098)
(310.26313 0 -23.612803)
(305.21938 0 -23.679024)
(299.6313 0 -23.402938)
(293.71364 0 -22.70087)
(287.76983 0 -21.456638)
(282.1506 3.9531754e-16 -19.680261)
(277.14717 0 -17.465079)
(272.93298 -3.1932913e-17 -14.98971)
(269.54733 8.3170176e-16 -12.451372)
(266.92641 -1.2647518e-15 -10.028803)
(264.94971 -3.0714871e-17 -7.8508601)
(263.48168 -1.4873248e-15 -5.9923957)
(262.39635 1.1518993e-15 -4.4790493)
(261.59487 0 -3.297027)
(261.00725 0 -2.4232899)
(260.58078 -1.9743591e-15 -1.8045205)
(260.25802 4.4890334e-17 -1.3964927)
(259.95588 -1.6478586e-17 -1.1706935)
(259.7683 -3.0843316e-15 -1.0749031)
(259.7145 -3.5039415e-17 -1.0364429)
(259.74668 2.5362637e-17 -1.0248972)
(259.82644 0 -1.0298534)