/*--------------------------------*- C++ -*----------------------------------*\
  =========                 |
  \\      /  F ield         | OpenFOAM: The Open Source CFD Toolbox
   \\    /   O peration     | Website:  https://openfoam.org
    \\  /    A nd           | Version:  8
     \\/     M anipulation  |
\*---------------------------------------------------------------------------*/
FoamFile
{
    version     2.0;
    format      ascii;
    class       volVectorField;
    location    "0.229992";
    object      wallShearStress;
}
// * * * * * * * * * * * * * * * * * * * * * * * * * * * * * * * * * * * * * //

dimensions      [1 -1 -2 0 0 0 0];

internalField   uniform (0 0 0);

boundaryField
{
    aerofoil
    {
        type            calculated;
        value           nonuniform List<vector> 
300
(
(-129.7963 2.1718487e-19 -2.1495078)
(-133.20689 -5.5669221e-17 -1.6360855)
(-136.20335 -1.1050808e-21 -1.0938887)
(-139.16822 1.1754944e-37 -0.51882436)
(-142.10824 -8.9891129e-19 0.10238373)
(-145.00588 9.5186534e-19 0.7502511)
(-147.85601 -6.434373e-17 1.3681712)
(-150.61105 1.2767332e-16 2.036882)
(-153.30595 4.0784336e-18 2.745685)
(-155.90101 1.312843e-16 3.4906933)
(-158.39857 -1.3621421e-16 4.2715364)
(-160.77514 -1.051307e-19 5.0829713)
(-163.04732 4.4131931e-18 5.9288865)
(-165.21569 -4.4021405e-18 6.8051478)
(-167.31199 1.4793729e-16 7.7189205)
(-169.31961 4.5547226e-18 8.6784168)
(-171.25007 -3.1279244e-16 9.6704622)
(-173.07925 -2.455978e-22 10.698554)
(-174.78187 -4.7955737e-18 11.756497)
(-176.38561 3.3170725e-16 12.851531)
(-177.91515 8.1976384e-20 13.986055)
(-179.3771 6.7433378e-16 15.158998)
(-180.79642 3.5743607e-16 16.376443)
(-182.17923 3.4218884e-16 17.636632)
(-183.55756 5.6137664e-18 18.951465)
(-184.93189 1.1500096e-17 20.315482)
(-186.28816 -7.6013274e-16 21.731934)
(-187.63644 1.2628742e-19 23.210974)
(-188.96017 -7.8917577e-16 24.758202)
(-190.27551 -5.3654977e-20 26.396185)
(-191.55397 1.2542081e-17 28.104921)
(-192.77755 0 29.88572)
(-193.94798 8.3581863e-16 31.749438)
(-195.06918 1.3330063e-17 33.69463)
(-196.14732 -1.3531549e-17 35.728237)
(-197.19268 1.2973329e-18 37.857307)
(-198.22073 -8.984397e-16 40.079686)
(-199.24543 0 42.390249)
(-200.22362 -1.5426668e-18 44.789469)
(-201.11121 -1.3164545e-17 47.279609)
(-201.87216 5.0880007e-16 49.857479)
(-202.46898 4.88578e-16 52.526128)
(-202.85542 4.9184697e-16 55.298395)
(-203.00053 -5.1961361e-16 58.164406)
(-202.83212 6.7260707e-20 61.110119)
(-202.32327 5.2254559e-16 64.158478)
(-201.4478 -5.3436428e-16 67.30684)
(-200.19174 5.3326048e-16 70.564299)
(-198.52027 1.2939355e-17 73.928243)
(-196.3987 5.3484737e-16 77.397778)
(-193.8112 -1.122005e-15 80.98697)
(-190.73109 5.6895316e-16 84.694811)
(-187.12005 2.2810122e-17 88.513557)
(-182.96736 -5.9326978e-18 92.444604)
(-178.27849 5.7275025e-16 96.471959)
(-173.08498 1.8970464e-17 100.5545)
(-167.45926 -6.1637386e-16 104.61388)
(-161.57082 -6.1563741e-16 108.5162)
(-155.44374 -6.7909481e-16 112.1669)
(-148.89718 1.7570584e-17 115.49283)
(-141.66067 1.207614e-17 118.30411)
(-133.5983 -6.7113512e-16 120.40403)
(-124.60856 2.1280427e-17 121.61561)
(-114.61957 -2.0914916e-17 121.7705)
(-103.63257 -1.1239227e-17 120.4567)
(-91.521169 7.122877e-16 117.31739)
(-78.419185 -6.9384417e-16 112.06899)
(-64.619293 7.111588e-16 104.09671)
(-50.599069 -1.2580417e-17 92.961117)
(-36.99616 3.7387332e-16 78.502885)
(-24.156507 3.0814879e-33 60.936445)
(-12.995347 -3.4803837e-16 41.208327)
(-6.4256797 -3.0609701e-16 21.024211)
(-2.7204633 1.3421047e-16 8.2016575)
(-0.97412214 1.8304044e-17 0.6117874)
(0.21941206 1.5285426e-16 -0.35666894)
(-0.7139018 2.0876882e-16 -0.11828111)
(-0.77165688 -3.0092655e-36 -0.13266492)
(-1.1846017 2.3059152e-16 -0.19662827)
(-1.5945663 3.6751947e-27 -0.25899853)
(-2.1599326 2.6708445e-16 -0.34468496)
(-2.7954573 1.100198e-20 -0.43925204)
(-3.5172734 3.0418937e-16 -0.54513779)
(-4.3100162 -3.2199213e-16 -0.65957535)
(-5.1757837 5.7126359e-21 -0.78303485)
(-6.1111609 -5.8015873e-21 -0.91476127)
(-7.1189357 -3.7193282e-16 -1.0522575)
(-8.2033542 -3.8781048e-16 -1.1967364)
(-9.3426732 -2.0710347e-20 -1.3481404)
(-10.521655 -9.981202e-23 -1.5031731)
(-11.738705 -4.3172095e-16 -1.6604333)
(-12.992577 1.3142258e-20 -1.8195019)
(-14.2785 -4.5746864e-16 -1.9795966)
(-15.592153 2.1224517e-20 -2.1401591)
(-16.929219 -2.3739736e-20 -2.3004953)
(-18.281502 -2.3403167e-22 -2.4596034)
(-19.645737 4.7884214e-22 -2.6167519)
(-21.022566 1.0238382e-15 -2.7720801)
(-22.420525 1.9403947e-20 -2.9261318)
(-23.839119 3.3451411e-20 -3.0792532)
(-25.278276 0 -3.2310166)
(-26.735247 -5.4793654e-16 -3.3813363)
(-28.209846 -5.5622308e-16 -3.5295941)
(-29.691618 5.3706387e-22 -3.6751055)
(-31.179154 -5.4634017e-22 -3.8170317)
(-32.673702 -4.9421285e-20 -3.9554547)
(-34.188389 -5.8642992e-16 -4.0922412)
(-35.731789 -5.9349962e-16 -4.2269151)
(-37.298315 -6.003861e-16 -4.3595969)
(-38.886629 5.8642615e-20 -4.4898338)
(-40.492252 -1.7548211e-21 -4.6172569)
(-42.113211 1.1851433e-21 -4.7408675)
(-43.748002 -1.1927012e-21 -4.860538)
(-45.398305 -1.2651723e-15 -4.9759021)
(-47.06967 3.2834933e-20 -5.0878241)
(-48.771683 6.4446535e-16 -5.1961776)
(-50.503106 -6.5024507e-16 -5.300921)
(-52.262463 1.3118347e-15 -5.4013459)
(-54.049694 -6.6155236e-16 -5.4976675)
(-55.862283 -6.6703441e-16 -5.588442)
(-57.68986 -4.7435457e-20 -5.6732613)
(-59.53459 -6.7782719e-16 -5.7510738)
(-61.402971 1.365973e-15 -5.8220571)
(-63.308738 -4.4022288e-20 -5.8865216)
(-65.262995 3.4659972e-16 -5.945905)
(-67.263753 5.1796644e-20 -5.9985877)
(-69.297735 3.5159854e-16 -6.0428757)
(-71.358411 -2.7092075e-20 -6.0782062)
(-73.444065 -3.5642753e-16 -6.1033194)
(-75.553796 5.6709641e-21 -6.116751)
(-77.700405 2.8764786e-20 -6.1195808)
(-79.900723 -3.6358196e-16 -6.1107527)
(-82.158614 3.6596295e-16 -6.0904263)
(-84.463639 3.6842887e-16 -6.0564566)
(-86.800824 3.7094908e-16 -6.0081657)
(-89.152311 3.7363383e-16 -5.9416894)
(-91.497456 -3.7646868e-16 -5.8580784)
(-93.85936 3.7913283e-16 -5.75638)
(-96.262595 3.8144191e-16 -5.6366152)
(-98.722162 1.0788889e-20 -5.4950973)
(-101.24072 -3.8512766e-20 -5.3313865)
(-103.81976 3.8695365e-16 -5.1440217)
(-106.46275 -4.1311369e-20 -4.9315479)
(-109.17458 -1.9517803e-16 -4.6926086)
(-111.97136 1.2037062e-35 -4.4251722)
(-114.87163 1.9682756e-16 -4.1250935)
(-117.87444 1.9766813e-16 -3.7943686)
(-120.96241 1.2484782e-20 -3.4280534)
(-124.09961 -9.8225994e-21 -3.0296939)
(-126.7885 -6.0970802e-21 -2.5876148)
(-159.73956 -2.7893615e-21 -3.781284)
(-158.95818 1.1628446e-20 -4.3877666)
(-158.79289 -9.8361927e-17 -5.0197201)
(-158.53778 1.0052607e-16 -5.6571998)
(-158.33198 2.0555226e-16 -6.3059874)
(-158.12643 -2.3944694e-22 -6.9693109)
(-157.944 8.7180373e-21 -7.6490793)
(-157.77983 -2.1753617e-16 -8.3377669)
(-157.64485 -1.7469744e-18 -9.0384983)
(-157.52854 -2.2885843e-16 -9.7515566)
(-157.42459 1.2557848e-19 -10.476256)
(-157.32422 2.3868071e-16 -11.210723)
(-157.24487 -3.9974582e-18 -11.961217)
(-157.17579 -2.4479739e-16 -12.722021)
(-157.13147 3.9684408e-18 -13.499078)
(-157.10345 -2.6289585e-16 -14.292915)
(-157.07744 2.3844531e-22 -15.099546)
(-157.06479 -2.6944997e-16 -15.924109)
(-157.05621 -2.7484138e-16 -16.76347)
(-157.06343 -2.7590789e-16 -17.622917)
(-157.08496 2.3466674e-20 -18.504067)
(-157.113 2.8666201e-16 -19.404492)
(-157.14303 -2.288289e-19 -20.324771)
(-157.15893 -5.7777898e-34 -21.261819)
(-157.20036 3.089946e-16 -22.230192)
(-157.24422 3.0995893e-16 -23.221277)
(-157.29865 -3.1608534e-16 -24.238581)
(-157.35966 6.4417102e-16 -25.285826)
(-157.40762 3.5425009e-16 -26.359431)
(-157.45754 -1.0585471e-17 -27.467853)
(-157.4883 -3.4625244e-16 -28.608013)
(-157.47718 -3.8518599e-34 -29.777379)
(-157.41437 -1.1277025e-17 -30.97756)
(-157.32584 -3.6662118e-16 -32.218771)
(-157.22697 3.7354736e-16 -33.511104)
(-157.12873 4.0405191e-16 -34.858529)
(-157.0413 -4.0067338e-16 -36.26194)
(-156.98272 -1.2420432e-17 -37.734295)
(-156.96681 3.9078e-19 -39.290447)
(-156.97603 1.2248853e-17 -40.930331)
(-157.03249 3.4719783e-19 -42.667124)
(-157.10644 1.3414207e-17 -44.508069)
(-157.15913 -1.0841953e-17 -46.451463)
(-157.15642 1.4003254e-17 -48.490557)
(-157.03804 -2.8411549e-17 -50.6262)
(-156.81572 1.4403637e-17 -52.894607)
(-156.46039 -4.5561414e-16 -55.295786)
(-155.96021 -1.5611261e-17 -57.850255)
(-155.31596 -4.8905356e-16 -60.554375)
(-154.51441 -5.0135192e-16 -63.398855)
(-153.47079 5.269977e-16 -66.384949)
(-152.04053 -1.4985388e-17 -69.507503)
(-150.10984 5.0898412e-16 -72.759728)
(-147.54924 -5.3445099e-16 -76.139507)
(-144.30249 -1.0968254e-17 -79.727617)
(-140.33894 5.7484167e-16 -83.57553)
(-135.66173 -1.540744e-33 -87.786991)
(-130.42972 -7.7341148e-18 -92.493216)
(-125.02191 1.8519671e-17 -97.66438)
(-120.3222 -6.0006834e-16 -102.92061)
(-116.65471 1.9812716e-17 -108.36158)
(-113.17246 -3.2870659e-17 -113.54433)
(-108.90905 6.430149e-16 -118.09543)
(-103.25559 1.3162232e-15 -121.67299)
(-96.124796 -6.5872863e-16 -123.74424)
(-87.292987 1.3586048e-17 -123.88983)
(-76.745639 1.3866732e-15 -121.521)
(-64.701864 6.1629758e-33 -115.98476)
(-51.775268 -3.4278512e-16 -106.94616)
(-38.690623 -1.9597181e-17 -93.940501)
(-26.273149 1.0950972e-17 -77.074178)
(-15.443613 3.4981725e-16 -57.055661)
(-7.7591048 1.6387229e-16 -34.862678)
(-3.6201864 2.2365755e-16 -15.663388)
(-1.6163168 -7.8408759e-19 -4.2535351)
(-182.45731 1.2528588e-15 23.260284)
(-200.80813 -1.1866078e-15 24.667433)
(-203.76709 -4.2892895e-19 24.596783)
(-204.79818 -2.3707825e-15 24.37015)
(-204.94293 4.9091789e-22 24.048431)
(-204.6464 -1.1780427e-15 23.677888)
(-203.94304 -1.4194837e-19 23.270232)
(-203.02768 -2.7850206e-22 22.847645)
(-201.91183 2.7934403e-22 22.411748)
(-200.5893 -5.9323748e-19 21.966367)
(-199.03448 7.1206233e-19 21.505705)
(-197.20199 -5.7599757e-19 21.024636)
(-195.1034 2.3125361e-15 20.525704)
(-192.86748 -4.535024e-19 20.023256)
(-190.60945 1.1421985e-15 19.525551)
(-188.33458 -1.1352582e-15 19.035841)
(-186.06759 -1.0673751e-19 18.554475)
(-183.82278 -2.2427199e-15 18.081023)
(-181.58649 -1.1143562e-15 17.617806)
(-179.35039 1.0161485e-19 17.161318)
(-177.12714 1.1004042e-15 16.711606)
(-174.92853 -1.0935202e-15 16.267833)
(-172.74164 1.8647284e-25 15.833818)
(-170.57141 -5.8162902e-19 15.406555)
(-168.41413 2.1464398e-15 14.988093)
(-166.27287 -0 14.575872)
(-164.14156 1.0592923e-15 14.17173)
(-162.03121 -8.7415449e-26 13.773871)
(-159.95432 -1.045983e-15 13.384984)
(-157.88476 2.077821e-15 13.000923)
(-155.80945 8.7334219e-20 12.622206)
(-153.84477 1.0236778e-15 12.257484)
(-151.94972 1.0164883e-15 11.898017)
(-150.10738 5.0504859e-16 11.545706)
(-148.32768 -1.0022594e-15 11.201156)
(-146.61651 3.548794e-19 10.865109)
(-144.96931 5.7241391e-21 10.535717)
(-143.36899 4.8972298e-16 10.211544)
(-141.80363 -4.8591382e-16 9.8908521)
(-140.26948 3.134939e-19 9.5743162)
(-138.76717 2.512034e-21 9.2602856)
(-137.29129 -3.8211075e-21 8.9478518)
(-135.81882 -1.5682856e-19 8.6358256)
(-134.33646 4.6783747e-16 8.3242067)
(-132.8167 4.6455405e-16 8.0103242)
(-131.2452 9.2210115e-16 7.6949304)
(-129.59533 -9.1553997e-16 7.3769562)
(-127.89637 -4.5435022e-16 7.0579766)
(-126.19725 -1.1062314e-20 6.7407049)
(-124.60625 -4.4757008e-16 6.4294533)
(-123.21243 8.4391103e-21 6.1239298)
(-122.01837 1.0177803e-19 5.8218579)
(-120.8847 -1.0329637e-19 5.5181213)
(-119.42868 4.3459361e-16 5.2030439)
(-117.26185 1.2924144e-19 4.8656242)
(-114.41889 4.2787138e-16 4.5014506)
(-110.65929 2.1202143e-16 4.1209625)
(-105.31359 -1.110065e-21 3.7122891)
(-98.148002 2.0707323e-16 3.2947321)
(-89.876209 4.0494049e-16 2.8746883)
(-82.094037 -1.9791062e-16 2.4400067)
(-75.835737 -3.8494127e-16 2.0863724)
(-73.345247 1.8845811e-16 1.7288005)
(-78.857822 1.1664369e-20 1.4494324)
(-93.076817 8.8462353e-22 1.2189684)
(-112.12147 -9.2825741e-17 1.0730541)
(-130.59364 -9.1703995e-17 0.93653812)
(-144.1515 1.1227852e-20 0.71039452)
(-152.15191 4.5061754e-17 0.4287825)
(-156.28836 -2.7265902e-21 -0.10519839)
(-158.08985 2.7302385e-21 -0.64919393)
(-158.85899 5.5763954e-18 -1.2518295)
(-159.13268 2.2496317e-20 -1.8933305)
(-159.26294 -4.4121348e-17 -2.5218152)
(-159.86801 2.6929752e-21 -3.1531363)
)
;
    }
    inlet
    {
        type            calculated;
        value           uniform (0 0 0);
    }
    outlet
    {
        type            calculated;
        value           uniform (0 0 0);
    }
    back
    {
        type            empty;
    }
    front
    {
        type            empty;
    }
}


// ************************************************************************* //
