/*--------------------------------*- C++ -*----------------------------------*\
  =========                 |
  \\      /  F ield         | OpenFOAM: The Open Source CFD Toolbox
   \\    /   O peration     | Website:  https://openfoam.org
    \\  /    A nd           | Version:  8
     \\/     M anipulation  |
\*---------------------------------------------------------------------------*/
FoamFile
{
    version     2.0;
    format      ascii;
    class       volScalarField;
    location    "0.229992";
    object      yPlus;
}
// * * * * * * * * * * * * * * * * * * * * * * * * * * * * * * * * * * * * * //

dimensions      [0 0 0 0 0 0 0];

internalField   uniform 0;

boundaryField
{
    aerofoil
    {
        type            calculated;
        value           nonuniform List<scalar> 
300
(
127.57329
127.88016
128.15021
128.41291
128.68783
128.9514
129.23165
129.48202
129.74748
129.99551
130.25371
130.49352
130.73056
130.95141
131.17912
131.40244
131.62808
131.85738
132.07373
132.28748
132.5128
132.74795
133.00657
133.28189
133.59787
133.94867
134.32313
134.73349
135.16382
135.63013
136.1158
136.61469
137.1276
137.65401
138.19871
138.76885
139.36889
140.00366
140.65488
141.31222
141.96175
142.59295
143.18305
143.74018
144.22197
144.64409
144.98924
145.26624
145.47529
145.60558
145.6653
145.66826
145.61262
145.51321
145.39552
145.28864
145.21895
145.28848
145.47394
145.77817
146.05669
146.23223
146.23963
146.00317
145.3617
144.04341
141.81308
138.16268
132.39908
123.6775
110.71871
92.250157
66.759041
42.021522
13.126598
7.3679039
10.895734
11.289536
13.973963
16.190023
18.819711
21.381712
23.951204
26.476623
28.972405
31.436033
33.877726
36.310734
38.690144
40.995672
43.233888
45.413259
47.53219
49.592099
51.592415
53.528808
55.402375
57.219846
58.997483
60.738211
62.444542
64.115828
65.754742
67.352087
68.908748
70.42869
71.925789
73.41237
74.881613
76.334257
77.765513
79.175739
80.563598
81.932653
83.285624
84.633022
85.972065
87.302891
88.624433
89.937556
91.231856
92.511019
93.778076
95.044426
96.315542
97.591868
98.862058
100.12272
101.37216
102.61107
103.84344
105.08192
106.32619
107.57196
108.80686
110.02441
111.20732
112.37477
113.53813
114.70769
115.879
117.05412
118.23245
119.41938
120.61636
121.83694
123.07717
124.33985
125.59428
126.79746
129.72976
128.77899
128.01136
127.23427
126.52736
125.85578
125.23413
124.65293
124.12126
123.63274
123.18641
122.77048
122.39661
122.05239
121.74838
121.48231
121.24154
121.03415
120.85063
120.69636
120.57241
120.47406
120.40478
120.34349
120.31752
120.31212
120.32843
120.37009
120.42192
120.49483
120.58021
120.672
120.76136
120.85565
120.96651
121.10208
121.26413
121.45846
121.69927
121.98114
122.30882
122.6784
123.07517
123.50334
123.91392
124.33712
124.7551
125.17741
125.61411
126.06106
126.4945
126.87693
127.1756
127.35789
127.45721
127.49585
127.51527
127.68995
128.21223
129.3585
131.32447
133.76985
136.29861
138.6149
140.51104
141.77451
142.06881
140.85936
137.70571
131.70094
121.8096
106.8056
84.748225
57.353075
30.063396
178.67421
177.06031
177.42192
177.36112
176.86184
176.27578
175.53756
174.74669
173.89942
172.98746
172.00085
170.91853
169.73966
168.5122
167.28461
166.05535
164.83352
163.62736
162.4298
161.23526
160.0452
158.86926
157.69743
156.53534
155.37734
154.22811
153.08171
151.94685
150.82478
149.70532
148.5799
147.50041
146.45338
145.42836
144.43197
143.46699
142.53104
141.61493
140.71185
139.81772
138.9339
138.06302
137.19058
136.31512
135.42046
134.50864
133.55324
132.57093
131.56594
130.58449
129.66892
128.83213
128.05257
127.1908
126.00122
124.48165
122.57928
119.92474
116.16379
111.47731
106.65406
102.35632
99.87472
101.66658
107.85363
114.98059
121.20003
125.46164
127.72741
129.00464
129.50535
129.7495
129.84089
129.93945
130.09617
)
;
    }
    inlet
    {
        type            calculated;
        value           uniform 0;
    }
    outlet
    {
        type            calculated;
        value           uniform 0;
    }
    back
    {
        type            empty;
    }
    front
    {
        type            empty;
    }
}


// ************************************************************************* //
