/*--------------------------------*- C++ -*----------------------------------*\
  =========                 |
  \\      /  F ield         | OpenFOAM: The Open Source CFD Toolbox
   \\    /   O peration     | Website:  https://openfoam.org
    \\  /    A nd           | Version:  8
     \\/     M anipulation  |
\*---------------------------------------------------------------------------*/
FoamFile
{
    version     2.0;
    format      ascii;
    class       volScalarField;
    location    "0.159995";
    object      alphat;
}
// * * * * * * * * * * * * * * * * * * * * * * * * * * * * * * * * * * * * * //

dimensions      [1 -1 -1 0 0 0 0];

internalField   nonuniform List<scalar> 
20000
(
0.0010136696
0.002576869
0.0035496929
0.0040219494
0.0038740006
0.0028764063
0.00083734424
1.0421399e-06
2.869697e-09
2.8186763e-09
2.7353941e-09
2.7628985e-09
2.7300136e-09
2.7640953e-09
2.7730292e-09
2.8130403e-09
2.8466947e-09
2.9041881e-09
2.9674703e-09
3.055526e-09
3.1614764e-09
3.3001001e-09
3.4712225e-09
3.6875993e-09
3.9527017e-09
4.2747991e-09
4.6509372e-09
5.0726812e-09
5.5188026e-09
5.9653288e-09
6.3883899e-09
6.772421e-09
7.1082723e-09
7.3948766e-09
7.6332398e-09
7.8269695e-09
7.9778987e-09
8.0953394e-09
8.1832934e-09
8.249619e-09
8.2968756e-09
8.3304548e-09
8.3529813e-09
8.3709712e-09
8.389605e-09
8.4156678e-09
8.4405375e-09
8.4676087e-09
8.4878288e-09
8.5884336e-09
0.00099669565
0.0025455807
0.0034993315
0.0039471113
0.0037694296
0.0027337714
0.00072686141
3.9458809e-07
2.8405212e-09
2.8150595e-09
2.7309511e-09
2.7582915e-09
2.7273369e-09
2.7620668e-09
2.7709106e-09
2.8111691e-09
2.8450445e-09
2.9024938e-09
2.9663069e-09
3.0547589e-09
3.1610283e-09
3.2995943e-09
3.4704509e-09
3.686032e-09
3.9500658e-09
4.2708506e-09
4.6459431e-09
5.0660883e-09
5.5122079e-09
5.9604032e-09
6.3859843e-09
6.7715405e-09
7.1081326e-09
7.3949388e-09
7.6332473e-09
7.8260831e-09
7.9761574e-09
8.0915113e-09
8.1778629e-09
8.2447113e-09
8.2930365e-09
8.3274738e-09
8.3506635e-09
8.3692794e-09
8.3897645e-09
8.4162168e-09
8.4400476e-09
8.4683491e-09
8.4867029e-09
8.5900934e-09
0.00099290805
0.0025281128
0.003458128
0.0038766723
0.0036624209
0.0025709722
0.00061114462
1.45823e-07
2.8246686e-09
2.8122609e-09
2.7290624e-09
2.7541785e-09
2.7280654e-09
2.7640878e-09
2.7739506e-09
2.8157403e-09
2.8510041e-09
2.9101916e-09
2.9756921e-09
3.0658788e-09
3.1736466e-09
3.3131621e-09
3.484236e-09
3.6988226e-09
3.9606176e-09
4.2776652e-09
4.648728e-09
5.0671376e-09
5.5127255e-09
5.9606466e-09
6.3861998e-09
6.7728781e-09
7.1100253e-09
7.3961142e-09
7.633147e-09
7.8255646e-09
7.9754429e-09
8.0902385e-09
8.1751687e-09
8.2390859e-09
8.2870963e-09
8.3219325e-09
8.3460114e-09
8.3669304e-09
8.3897103e-09
8.4167526e-09
8.4425499e-09
8.4688802e-09
8.5039489e-09
8.5886061e-09
0.0009911199
0.0025115055
0.0034186835
0.0038087872
0.0035585514
0.0024073138
0.00050769036
5.8716198e-08
2.8221252e-09
2.8229449e-09
2.7388278e-09
2.7652554e-09
2.7397293e-09
2.7768879e-09
2.7875756e-09
2.8307143e-09
2.8673355e-09
2.9282634e-09
2.9957038e-09
3.0880287e-09
3.1980523e-09
3.339739e-09
3.5127963e-09
3.7287418e-09
3.9910547e-09
4.3073206e-09
4.6762837e-09
5.0908514e-09
5.5326986e-09
5.9778326e-09
6.4014788e-09
6.7857884e-09
7.1204592e-09
7.4037902e-09
7.6381571e-09
7.8277931e-09
7.9753699e-09
8.0897431e-09
8.1740582e-09
8.2371511e-09
8.2833725e-09
8.3183103e-09
8.343213e-09
8.366187e-09
8.3897738e-09
8.4175493e-09
8.4434443e-09
8.4701709e-09
8.5115089e-09
8.5885307e-09
0.00099016876
0.0024960404
0.0033806768
0.0037427686
0.0034566943
0.0022392348
0.00041349305
2.6420094e-08
2.8295084e-09
2.8358808e-09
2.7533489e-09
2.7809491e-09
2.7564734e-09
2.7949475e-09
2.8067972e-09
2.8516362e-09
2.8901282e-09
2.9532948e-09
3.0232046e-09
3.118334e-09
3.2314352e-09
3.3763169e-09
3.5526003e-09
3.7713558e-09
4.0357292e-09
4.3525935e-09
4.7203633e-09
5.1318842e-09
5.5693667e-09
6.0093549e-09
6.4278481e-09
6.8073219e-09
7.1373604e-09
7.4161757e-09
7.6464886e-09
7.8327657e-09
7.9776897e-09
8.0896456e-09
8.1736662e-09
8.2360364e-09
8.2815899e-09
8.3159683e-09
8.3415567e-09
8.3657314e-09
8.390028e-09
8.4182824e-09
8.4449822e-09
8.4717155e-09
8.5240236e-09
8.5881519e-09
0.00099079576
0.002482262
0.0033436969
0.0036774946
0.0033555586
0.0020660031
0.00032793162
1.3711599e-08
2.8435405e-09
2.8556503e-09
2.772993e-09
2.8018939e-09
2.77817e-09
2.8180201e-09
2.8310951e-09
2.8777654e-09
2.9182099e-09
2.9837928e-09
3.0564737e-09
3.1548248e-09
3.2716421e-09
3.4206336e-09
3.6014173e-09
3.8246399e-09
4.0930448e-09
4.4126098e-09
4.7808683e-09
5.1899187e-09
5.6222029e-09
6.0553625e-09
6.4664487e-09
6.8384507e-09
7.161529e-09
7.4340333e-09
7.6589436e-09
7.840642e-09
7.9819378e-09
8.0913356e-09
8.1735398e-09
8.2357005e-09
8.2808055e-09
8.3149707e-09
8.3408348e-09
8.3655848e-09
8.3906466e-09
8.4195174e-09
8.4463839e-09
8.473902e-09
8.5331758e-09
8.5881142e-09
0.00099121902
0.0024685316
0.0033064515
0.0036120653
0.003255097
0.0018892622
0.00025038883
8.2968303e-09
2.8619936e-09
2.8773763e-09
2.7955723e-09
2.8258633e-09
2.8031461e-09
2.8444941e-09
2.8590196e-09
2.9076639e-09
2.9503259e-09
3.018589e-09
3.0943969e-09
3.1964366e-09
3.3175864e-09
3.4714813e-09
3.6577769e-09
3.8867072e-09
4.1605621e-09
4.4842761e-09
4.8542407e-09
5.2615509e-09
5.6885413e-09
6.1136619e-09
6.5153906e-09
6.8779129e-09
7.1921257e-09
7.4567435e-09
7.675017e-09
7.8513047e-09
7.9883177e-09
8.0944237e-09
8.1746105e-09
8.2355483e-09
8.2805018e-09
8.3145263e-09
8.3405207e-09
8.365536e-09
8.3915738e-09
8.4211145e-09
8.448072e-09
8.477223e-09
8.5421285e-09
8.5887988e-09
0.00099224601
0.0024558192
0.003269562
0.0035458835
0.0031540093
0.001710427
0.0001797302
5.7932209e-09
2.8839589e-09
2.9022336e-09
2.8211786e-09
2.8529682e-09
2.8313425e-09
2.8742165e-09
2.8902477e-09
2.9409559e-09
2.9859611e-09
3.0571162e-09
3.1363738e-09
3.2425044e-09
3.3685483e-09
3.5280724e-09
3.7208302e-09
3.9566174e-09
4.2372474e-09
4.5664505e-09
4.9392357e-09
5.3453658e-09
5.7668565e-09
6.1830082e-09
6.5738845e-09
6.9251571e-09
7.2288077e-09
7.4841218e-09
7.6946432e-09
7.8646264e-09
7.9966621e-09
8.0990765e-09
8.1767241e-09
8.2360682e-09
8.280399e-09
8.3143693e-09
8.3404111e-09
8.3655793e-09
8.3928519e-09
8.4228549e-09
8.4500272e-09
8.482376e-09
8.5490784e-09
8.5900255e-09
0.00099309225
0.0024428958
0.0032321562
0.0034777135
0.003051645
0.0015359741
0.00011656043
4.5574557e-09
2.909077e-09
2.9295389e-09
2.8494365e-09
2.8826928e-09
2.8622232e-09
2.9066486e-09
2.9243098e-09
2.9771828e-09
3.0247657e-09
3.0990597e-09
3.1820946e-09
3.2927313e-09
3.4242166e-09
3.5900551e-09
3.7901159e-09
4.0337385e-09
4.3222022e-09
4.657902e-09
5.0342776e-09
5.4395867e-09
5.8554141e-09
6.2618323e-09
6.6406261e-09
6.9792284e-09
7.2709064e-09
7.5157054e-09
7.7174989e-09
7.8804358e-09
8.0069047e-09
8.1051544e-09
8.1799685e-09
8.2374151e-09
8.2806582e-09
8.3143215e-09
8.3403802e-09
8.3661382e-09
8.3945247e-09
8.424715e-09
8.4523878e-09
8.4894756e-09
8.55469e-09
8.5916942e-09
0.00099452282
0.0024308125
0.0031950382
0.0034074813
0.0029463864
0.0013666652
6.4459179e-05
3.9198092e-09
2.9369682e-09
2.9592363e-09
2.8801205e-09
2.9148191e-09
2.8955583e-09
2.9415883e-09
2.9610066e-09
3.0162019e-09
3.066566e-09
3.1442497e-09
3.2314028e-09
3.3469638e-09
3.4844395e-09
3.6572655e-09
3.8654332e-09
4.1177949e-09
4.4150156e-09
4.7580142e-09
5.1384865e-09
5.543093e-09
5.9529238e-09
6.3488732e-09
6.7145422e-09
7.0392767e-09
7.3178002e-09
7.5510611e-09
7.7432983e-09
7.8985233e-09
8.0188959e-09
8.1126017e-09
8.1842476e-09
8.2395823e-09
8.2815948e-09
8.3146384e-09
8.3406476e-09
8.3671503e-09
8.3965657e-09
8.4267711e-09
8.4551446e-09
8.4973813e-09
8.559715e-09
8.593756e-09
0.0009960604
0.0024192359
0.0031581864
0.003335481
0.0028381221
0.0012040011
2.913144e-05
3.5868481e-09
2.9670313e-09
2.9908448e-09
2.9128542e-09
2.9490199e-09
2.9311034e-09
2.9788435e-09
3.0002237e-09
3.0579054e-09
3.111303e-09
3.192627e-09
3.2842419e-09
3.4051587e-09
3.5491843e-09
3.7296567e-09
3.9466957e-09
4.2086128e-09
4.5153628e-09
4.8662297e-09
5.2510358e-09
5.6548083e-09
6.0581736e-09
6.4429195e-09
6.7945502e-09
7.1044259e-09
7.3688264e-09
7.5897097e-09
7.7717066e-09
7.918668e-09
8.0324936e-09
8.1213061e-09
8.1895275e-09
8.2425429e-09
8.2831523e-09
8.315479e-09
8.3413998e-09
8.3686468e-09
8.3989324e-09
8.428991e-09
8.4582781e-09
8.5058179e-09
8.5645949e-09
8.5961294e-09
0.00099806104
0.0024081476
0.0031217121
0.0032663139
0.0027241384
0.0010484417
1.0905016e-05
3.4179612e-09
2.99895e-09
3.0242072e-09
2.9475063e-09
2.9852176e-09
2.9688344e-09
3.018421e-09
3.0419636e-09
3.1022905e-09
3.1589409e-09
3.2441684e-09
3.3406319e-09
3.4673713e-09
3.6185283e-09
3.8073151e-09
4.0339768e-09
4.3062183e-09
4.62315e-09
4.9822485e-09
5.3713631e-09
5.7738914e-09
6.1701306e-09
6.5428803e-09
6.8796335e-09
7.1738157e-09
7.4233105e-09
7.6311524e-09
7.8023705e-09
7.94062e-09
8.047524e-09
8.1311548e-09
8.1957235e-09
8.2462569e-09
8.2853361e-09
8.316851e-09
8.3426597e-09
8.3706081e-09
8.4016148e-09
8.4313479e-09
8.4617477e-09
8.5144942e-09
8.5695432e-09
8.5987378e-09
0.0010003325
0.0023975955
0.0030854418
0.0031932709
0.0026020285
0.00090155908
3.5886069e-06
3.339751e-09
3.0326534e-09
3.059321e-09
2.9840889e-09
3.0234818e-09
3.0087889e-09
3.0603637e-09
3.0862151e-09
3.1493472e-09
3.2094858e-09
3.2989173e-09
3.4006375e-09
3.5336867e-09
3.6925664e-09
3.8903322e-09
4.1273524e-09
4.4106256e-09
4.7382681e-09
5.1057569e-09
5.4989012e-09
5.8995459e-09
6.2878427e-09
6.6477588e-09
6.9688578e-09
7.2466459e-09
7.4806143e-09
7.6749078e-09
7.8349429e-09
7.9641344e-09
8.0638149e-09
8.1420263e-09
8.2027627e-09
8.250674e-09
8.2881123e-09
8.3187397e-09
8.3444304e-09
8.3730373e-09
8.4045448e-09
8.4338265e-09
8.4656021e-09
8.5232752e-09
8.5745412e-09
8.601565e-09
0.0010028454
0.0023871076
0.0030501697
0.0031182316
0.0024714269
0.0007652087
1.1169472e-06
3.3124615e-09
3.0682154e-09
3.096272e-09
3.022776e-09
3.0638812e-09
3.0510494e-09
3.104647e-09
3.1329816e-09
3.199065e-09
3.2629834e-09
3.3569649e-09
3.4643939e-09
3.6042705e-09
3.7714847e-09
3.9789212e-09
4.2270331e-09
4.5220079e-09
4.8607602e-09
5.2365905e-09
5.6332165e-09
6.031099e-09
6.4104594e-09
6.7566321e-09
7.0613333e-09
7.3221333e-09
7.5400983e-09
7.7204843e-09
7.8690637e-09
7.9889493e-09
8.0811774e-09
8.1537893e-09
8.210555e-09
8.2557395e-09
8.2914495e-09
8.3211376e-09
8.3467114e-09
8.3759289e-09
8.4076905e-09
8.4364796e-09
8.4700331e-09
8.5319483e-09
8.5795862e-09
8.6045625e-09
0.0010053215
0.0023759363
0.0030116033
0.0030405338
0.0023316652
0.00064088813
3.504451e-07
3.314883e-09
3.1059363e-09
3.1353168e-09
3.0636071e-09
3.1064338e-09
3.0955261e-09
3.1512408e-09
3.1822337e-09
3.2515133e-09
3.319542e-09
3.4184443e-09
3.532046e-09
3.6792749e-09
3.8554487e-09
4.0732565e-09
4.3331818e-09
4.6404634e-09
4.9905799e-09
5.3744936e-09
5.7738204e-09
6.1678575e-09
6.537162e-09
6.8686465e-09
7.1562528e-09
7.3995713e-09
7.6011829e-09
7.7674345e-09
7.9044008e-09
8.0148184e-09
8.0994308e-09
8.166316e-09
8.219015e-09
8.2613963e-09
8.2953153e-09
8.3240312e-09
8.3494924e-09
8.3792391e-09
8.4109628e-09
8.439417e-09
8.4753968e-09
8.5402506e-09
8.5845961e-09
8.6077419e-09
0.0010079948
0.0023649914
0.0029727515
0.0029618302
0.0021831806
0.0005302023
1.172373e-07
3.3343295e-09
3.1455729e-09
3.1762004e-09
3.1063968e-09
3.1509773e-09
3.1421657e-09
3.2001289e-09
3.2340649e-09
3.3067944e-09
3.3793078e-09
3.483524e-09
3.6037837e-09
3.7589186e-09
3.9447202e-09
4.1736341e-09
4.4461062e-09
4.7662318e-09
5.1278149e-09
5.519312e-09
5.9203106e-09
6.3091941e-09
6.6671874e-09
6.9829929e-09
7.2528398e-09
7.4782713e-09
7.6632972e-09
7.8153137e-09
7.9406173e-09
8.0414857e-09
8.1183847e-09
8.1794707e-09
8.2280501e-09
8.2675843e-09
8.2996738e-09
8.3274083e-09
8.352762e-09
8.382929e-09
8.4144062e-09
8.442725e-09
8.4821116e-09
8.5478839e-09
8.5894798e-09
8.611087e-09
0.0010107761
0.0023535141
0.0029327367
0.0028815551
0.0020261869
0.00042737276
4.3805038e-08
3.3638898e-09
3.186949e-09
3.2188078e-09
3.1510772e-09
3.1975159e-09
3.1910033e-09
3.2514441e-09
3.288604e-09
3.3651057e-09
3.4424531e-09
3.5523698e-09
3.6797803e-09
3.8433995e-09
4.0395263e-09
4.2802947e-09
4.5660285e-09
4.899432e-09
5.2724078e-09
5.6707465e-09
6.0721642e-09
6.4544288e-09
6.7997767e-09
7.0989096e-09
7.3503893e-09
7.5576219e-09
7.7259415e-09
7.8637338e-09
7.9774116e-09
8.0687182e-09
8.1378652e-09
8.1931268e-09
8.2375742e-09
8.2742463e-09
8.3044912e-09
8.3312537e-09
8.3565043e-09
8.3869437e-09
8.4180577e-09
8.4464283e-09
8.4903558e-09
8.5547128e-09
8.5941897e-09
8.6145011e-09
0.0010136891
0.0023413315
0.0028909033
0.0027960098
0.0018616101
0.00033373357
1.9330374e-08
3.3997638e-09
3.2300342e-09
3.2631409e-09
3.1977035e-09
3.2461642e-09
3.2422351e-09
3.3053679e-09
3.3460686e-09
3.4265915e-09
3.5091305e-09
3.6251591e-09
3.7602508e-09
3.933001e-09
4.1401927e-09
4.3936245e-09
4.6932989e-09
5.0403375e-09
5.4244033e-09
5.8286046e-09
6.2289303e-09
6.602944e-09
6.9342209e-09
7.215676e-09
7.4482283e-09
7.6370366e-09
7.7886339e-09
7.9123122e-09
8.0144801e-09
8.0962833e-09
8.1576982e-09
8.2071531e-09
8.2474983e-09
8.2813223e-09
8.3097299e-09
8.3355475e-09
8.3606971e-09
8.3912269e-09
8.421759e-09
8.4505085e-09
8.499311e-09
8.5613646e-09
8.5987134e-09
8.6179394e-09
0.001016542
0.0023278139
0.0028468034
0.0027052414
0.0016918013
0.0002484948
1.036877e-08
3.4398088e-09
3.274908e-09
3.3093896e-09
3.2465164e-09
3.2971952e-09
3.296076e-09
3.3621037e-09
3.4065798e-09
3.491409e-09
3.5794922e-09
3.7020647e-09
3.8454203e-09
4.0279789e-09
4.2470255e-09
4.5139136e-09
4.8281707e-09
5.1890294e-09
5.5836711e-09
5.9924939e-09
6.3900207e-09
6.7540319e-09
7.0697835e-09
7.3325982e-09
7.5457459e-09
7.7160024e-09
7.8509589e-09
7.9607158e-09
8.0515573e-09
8.1239855e-09
8.177733e-09
8.2214325e-09
8.2577423e-09
8.2887577e-09
8.3153555e-09
8.3402683e-09
8.3653125e-09
8.3957469e-09
8.4254354e-09
8.4549784e-09
8.5087801e-09
8.5679076e-09
8.6030979e-09
8.6212649e-09
0.0010192358
0.0023127639
0.0027989601
0.0026130724
0.0015191649
0.00017055194
6.7350433e-09
3.483122e-09
3.3219803e-09
3.3579178e-09
3.2978012e-09
3.3508077e-09
3.3526852e-09
3.4217381e-09
3.4702544e-09
3.5596527e-09
3.6536921e-09
3.7833056e-09
3.9355769e-09
4.128692e-09
4.3604414e-09
4.6416091e-09
4.9710361e-09
5.3457389e-09
5.7501818e-09
6.1620967e-09
6.5549051e-09
6.9070203e-09
7.2057597e-09
7.4490199e-09
7.6423722e-09
7.7940362e-09
7.9125116e-09
8.0086049e-09
8.0883885e-09
8.1516457e-09
8.1978189e-09
8.2358507e-09
8.2682247e-09
8.2964961e-09
8.3213313e-09
8.3453905e-09
8.3703119e-09
8.4004565e-09
8.4290637e-09
8.4599171e-09
8.5185348e-09
8.5743911e-09
8.6072925e-09
8.6243909e-09
0.0010219329
0.0022970451
0.0027455953
0.0025184552
0.001345855
0.00010107971
5.1241342e-09
3.5292129e-09
3.3715023e-09
3.4088902e-09
3.3516494e-09
3.4070483e-09
3.4120753e-09
3.4843281e-09
3.5371586e-09
3.6314697e-09
3.7319221e-09
3.869138e-09
4.0310164e-09
4.2354891e-09
4.480798e-09
4.7770575e-09
5.1221174e-09
5.5104798e-09
5.9236583e-09
6.3368783e-09
6.722864e-09
7.0611254e-09
7.3414105e-09
7.5643192e-09
7.7376128e-09
7.8707312e-09
7.9729428e-09
8.0556861e-09
8.124785e-09
8.1791232e-09
8.217816e-09
8.2503146e-09
8.278874e-09
8.3044879e-09
8.3276236e-09
8.3508888e-09
8.3756534e-09
8.4053003e-09
8.4327432e-09
8.4654494e-09
8.5283977e-09
8.5807319e-09
8.6112928e-09
8.6274003e-09
0.0010248292
0.0022821617
0.0026966026
0.0024191618
0.001174754
4.7344675e-05
4.3790967e-09
3.5776521e-09
3.4234183e-09
3.4622321e-09
3.4079681e-09
3.4658756e-09
3.47427e-09
3.5499445e-09
3.6074303e-09
3.7070283e-09
3.8144307e-09
3.959866e-09
4.132123e-09
4.3488077e-09
4.6086009e-09
4.9207485e-09
5.2818102e-09
5.6833959e-09
6.1039377e-09
6.5163846e-09
6.8932248e-09
7.2156105e-09
7.4760587e-09
7.6779441e-09
7.8310378e-09
7.9457214e-09
8.0319209e-09
8.1016999e-09
8.1606149e-09
8.206262e-09
8.237568e-09
8.2647346e-09
8.2896179e-09
8.3126825e-09
8.334197e-09
8.3567337e-09
8.3812905e-09
8.4102457e-09
8.4367566e-09
8.4717668e-09
8.538122e-09
8.5868345e-09
8.6150467e-09
8.6301733e-09
0.0010277023
0.0022658199
0.0026436934
0.0023129139
0.0010088546
1.6679687e-05
4.0381213e-09
3.628039e-09
3.4774648e-09
3.5177659e-09
3.4667503e-09
3.5273125e-09
3.5393802e-09
3.6187057e-09
3.6812579e-09
3.786576e-09
3.9015067e-09
4.055832e-09
4.2392733e-09
4.4690656e-09
4.7442645e-09
5.0730321e-09
5.450271e-09
5.8643498e-09
6.2905587e-09
6.6998804e-09
7.0651178e-09
7.3696447e-09
7.6090421e-09
7.7894035e-09
7.9222776e-09
8.0186996e-09
8.0891902e-09
8.1465167e-09
8.1958259e-09
8.2328698e-09
8.2569319e-09
8.2790235e-09
8.3003972e-09
8.3210372e-09
8.3410205e-09
8.3628938e-09
8.387169e-09
8.4152706e-09
8.4411497e-09
8.4791279e-09
8.547407e-09
8.5925907e-09
8.6185411e-09
8.6327131e-09
0.0010304239
0.0022484262
0.0025880619
0.0021987736
0.00085143453
4.7027699e-06
3.8955131e-09
3.6817665e-09
3.5336616e-09
3.5756957e-09
3.5280773e-09
3.591556e-09
3.6075305e-09
3.6908309e-09
3.7588674e-09
3.8703866e-09
3.9934782e-09
4.1574282e-09
4.3529243e-09
4.5967956e-09
4.8883576e-09
5.2344331e-09
5.6278235e-09
6.0533445e-09
6.4831502e-09
6.8866875e-09
7.2377476e-09
7.5225245e-09
7.7398468e-09
7.8982982e-09
8.0109698e-09
8.0893568e-09
8.144553e-09
8.190142e-09
8.2303241e-09
8.2586873e-09
8.2758028e-09
8.2930642e-09
8.3111576e-09
8.3295099e-09
8.3480615e-09
8.3693312e-09
8.3932237e-09
8.420334e-09
8.4460416e-09
8.4878703e-09
8.5559242e-09
8.5978992e-09
8.6218091e-09
8.6351777e-09
0.0010331658
0.0022307079
0.0025299289
0.0020796131
0.00070534773
1.1840132e-06
3.8527797e-09
3.7375997e-09
3.5923392e-09
3.6361361e-09
3.5921564e-09
3.6587117e-09
3.6789391e-09
3.7665375e-09
3.840546e-09
3.9587857e-09
4.0907144e-09
4.2650641e-09
4.4735305e-09
4.7324817e-09
5.0413311e-09
5.4052672e-09
5.8144832e-09
6.2500229e-09
6.6809694e-09
7.0758528e-09
7.4101971e-09
7.6736105e-09
7.8680621e-09
8.0042665e-09
8.0967042e-09
8.157373e-09
8.1979108e-09
8.2326983e-09
8.2637888e-09
8.2835499e-09
8.2941829e-09
8.3067376e-09
8.3218616e-09
8.338067e-09
8.3552934e-09
8.3760052e-09
8.3993867e-09
8.4253978e-09
8.4514862e-09
8.4981578e-09
8.563494e-09
8.60276e-09
8.6248013e-09
8.6374701e-09
0.0010361392
0.0022130682
0.0024699984
0.0019521267
0.00057278104
3.050046e-07
3.861009e-09
3.7956719e-09
3.6534533e-09
3.6992079e-09
3.6590919e-09
3.729e-09
3.7538491e-09
3.8461172e-09
3.9265961e-09
4.0521065e-09
4.1936108e-09
4.3792e-09
4.6016531e-09
4.8767322e-09
5.2038397e-09
5.586015e-09
6.0104684e-09
6.4541332e-09
6.8834024e-09
7.2665545e-09
7.5818113e-09
7.8225557e-09
7.993404e-09
8.1069345e-09
8.1789962e-09
8.2223976e-09
8.2492054e-09
8.2741359e-09
8.2956808e-09
8.3074732e-09
8.3121449e-09
8.3199855e-09
8.332471e-09
8.3466764e-09
8.3626882e-09
8.3828695e-09
8.4055896e-09
8.4304473e-09
8.4575358e-09
8.5090616e-09
8.57069e-09
8.60724e-09
8.62755e-09
8.6395569e-09
0.0010392626
0.0021956285
0.0024136367
0.0018151346
0.00045720917
9.2822497e-08
3.8955033e-09
3.8561106e-09
3.7171591e-09
3.7650924e-09
3.7291293e-09
3.8026877e-09
3.8325491e-09
3.9298533e-09
4.017335e-09
4.1507312e-09
4.3025892e-09
4.5003399e-09
4.7378149e-09
5.0301194e-09
5.3763189e-09
5.7769048e-09
6.2155445e-09
6.6650145e-09
7.0894293e-09
7.4578053e-09
7.7520507e-09
7.9690516e-09
8.1153864e-09
8.2057386e-09
8.2573865e-09
8.2841954e-09
8.2984003e-09
8.3138453e-09
8.3259925e-09
8.3304705e-09
8.329672e-09
8.3329336e-09
8.3429418e-09
8.3553131e-09
8.3702214e-09
8.3898767e-09
8.4117693e-09
8.4354809e-09
8.4641932e-09
8.5201938e-09
8.5775878e-09
8.6113978e-09
8.6300492e-09
8.6414905e-09
0.0010425271
0.0021772095
0.0023560105
0.0016679249
0.00035503915
3.516114e-08
3.9437044e-09
3.9190445e-09
3.7836536e-09
3.8340648e-09
3.8025576e-09
3.8800583e-09
3.9153147e-09
4.0180367e-09
4.1130972e-09
4.2550456e-09
4.4181254e-09
4.6290489e-09
4.8826827e-09
5.193362e-09
5.5594428e-09
5.9783327e-09
6.4296742e-09
6.8821217e-09
7.2982222e-09
7.6489813e-09
7.9207296e-09
8.1126539e-09
8.2330177e-09
8.2998475e-09
8.3317326e-09
8.3429095e-09
8.345419e-09
8.3513331e-09
8.3550402e-09
8.3525525e-09
8.3463531e-09
8.3458562e-09
8.3532081e-09
8.363951e-09
8.3778656e-09
8.3969769e-09
8.4178742e-09
8.440508e-09
8.4713261e-09
8.531234e-09
8.5842283e-09
8.6153002e-09
8.6323357e-09
8.6432359e-09
0.0010458972
0.0021574672
0.0022947198
0.0015120395
0.00026295571
1.6542932e-08
4.0003984e-09
3.9848465e-09
3.853254e-09
3.9064842e-09
3.8796357e-09
3.9613417e-09
4.0023924e-09
4.110953e-09
4.2142679e-09
4.3655006e-09
4.5407536e-09
4.7659113e-09
5.0369044e-09
5.3670525e-09
5.7536205e-09
6.1902771e-09
6.652304e-09
7.1044322e-09
7.5087158e-09
7.8395117e-09
8.0873981e-09
8.2519175e-09
8.3452952e-09
8.3888271e-09
8.4022352e-09
8.3988258e-09
8.3901183e-09
8.3866263e-09
8.3832064e-09
8.3735426e-09
8.3619765e-09
8.3587602e-09
8.3632231e-09
8.3725685e-09
8.3855938e-09
8.4041214e-09
8.4238726e-09
8.4455943e-09
8.4788798e-09
8.5419404e-09
8.5905439e-09
8.6189494e-09
8.6344913e-09
8.6448421e-09
0.0010495565
0.0021366526
0.0022315315
0.0013506145
0.0001799109
9.7635792e-09
4.0634735e-09
4.0539256e-09
3.9261857e-09
3.9824709e-09
3.9605423e-09
4.04672e-09
4.0940558e-09
4.2089459e-09
4.3212497e-09
4.4826141e-09
4.6710538e-09
4.9116432e-09
5.2012617e-09
5.5520171e-09
5.9594588e-09
6.4129418e-09
6.8830418e-09
7.3311606e-09
7.7202436e-09
8.0292376e-09
8.2508118e-09
8.3855763e-09
8.4514186e-09
8.4727717e-09
8.4697705e-09
8.4519755e-09
8.4321721e-09
8.420199e-09
8.4098675e-09
8.3932994e-09
8.3768441e-09
8.3714364e-09
8.3730278e-09
8.3811421e-09
8.3933745e-09
8.4112598e-09
8.4297555e-09
8.4508797e-09
8.4871367e-09
8.5520703e-09
8.5964488e-09
8.6223356e-09
8.6365009e-09
8.6463341e-09
0.0010534062
0.0021142305
0.0021650158
0.0011905908
0.00010668143
6.9966727e-09
4.1310711e-09
4.1261114e-09
4.0024856e-09
4.0621114e-09
4.0454094e-09
4.1364758e-09
4.1906519e-09
4.3123942e-09
4.4345629e-09
4.6069435e-09
4.8096843e-09
5.0669554e-09
5.3765066e-09
5.7488336e-09
6.1771913e-09
6.6459267e-09
7.1209208e-09
7.5611266e-09
7.9321094e-09
8.2175542e-09
8.4089796e-09
8.5123007e-09
8.551339e-09
8.5532568e-09
8.533357e-09
8.5020435e-09
8.4717497e-09
8.4520502e-09
8.4351756e-09
8.4118756e-09
8.3910142e-09
8.3835386e-09
8.3827878e-09
8.3896541e-09
8.4011725e-09
8.4183405e-09
8.4355334e-09
8.4565681e-09
8.4964478e-09
8.5613136e-09
8.6018344e-09
8.625423e-09
8.6383242e-09
8.6476793e-09
0.0010570677
0.0020867246
0.0020937774
0.001038181
5.0263783e-05
5.7815956e-09
4.2026566e-09
4.201321e-09
4.0822993e-09
4.1455316e-09
4.1345753e-09
4.2309489e-09
4.2926552e-09
4.4218731e-09
4.5547146e-09
4.7391104e-09
4.9573744e-09
5.2327336e-09
5.5635467e-09
5.9583635e-09
6.4072274e-09
6.8890998e-09
7.3651968e-09
7.7936153e-09
8.1440764e-09
8.4026451e-09
8.5605174e-09
8.6314625e-09
8.6467802e-09
8.6292519e-09
8.5931482e-09
8.5489788e-09
8.5089351e-09
8.4822402e-09
8.4590206e-09
8.4293763e-09
8.4046475e-09
8.3948093e-09
8.3925385e-09
8.3980906e-09
8.4089481e-09
8.42531e-09
8.4412265e-09
8.4628518e-09
8.5070389e-09
8.5694631e-09
8.6066376e-09
8.6281712e-09
8.6399381e-09
8.6488731e-09
0.0010604283
0.0020545221
0.002016192
0.00089305699
1.7905393e-05
5.2388889e-09
4.2775262e-09
4.2799708e-09
4.1658425e-09
4.2331956e-09
4.2284564e-09
4.3306476e-09
4.4005259e-09
4.5378683e-09
4.6822958e-09
4.8798231e-09
5.1149541e-09
5.4098298e-09
5.7632012e-09
6.1810415e-09
6.649462e-09
7.1415621e-09
7.6146486e-09
8.0276677e-09
8.3554084e-09
8.5820684e-09
8.7038695e-09
8.7441947e-09
8.7375881e-09
8.7005982e-09
8.6490365e-09
8.5928109e-09
8.5437981e-09
8.5107938e-09
8.4814577e-09
8.4458392e-09
8.4175527e-09
8.4055233e-09
8.4021618e-09
8.4064472e-09
8.4166636e-09
8.4321192e-09
8.4468569e-09
8.4698114e-09
8.5184957e-09
8.5767302e-09
8.6109122e-09
8.6305584e-09
8.6413151e-09
8.6499077e-09
0.0010631531
0.0020166724
0.0019292831
0.00075656917
5.092013e-06
5.0131182e-09
4.3561336e-09
4.3623197e-09
4.2536286e-09
4.32566e-09
4.3275639e-09
4.4359765e-09
4.5147247e-09
4.6609264e-09
4.8179687e-09
5.0298884e-09
5.2833665e-09
5.5992877e-09
5.9764726e-09
6.417584e-09
6.9039757e-09
7.4027445e-09
7.8684696e-09
8.262936e-09
8.5641626e-09
8.7540843e-09
8.8383809e-09
8.8523896e-09
8.8228071e-09
8.7672623e-09
8.7011087e-09
8.6336032e-09
8.5764205e-09
8.5377474e-09
8.5024865e-09
8.4612661e-09
8.4297122e-09
8.4157527e-09
8.4116205e-09
8.414717e-09
8.424282e-09
8.4387288e-09
8.4524455e-09
8.4774135e-09
8.5300383e-09
8.5836018e-09
8.6148112e-09
8.6326313e-09
8.6423542e-09
8.6505411e-09
0.0010652152
0.0019728001
0.0018238797
0.00063008762
1.3003687e-06
4.9443849e-09
4.4390151e-09
4.4490455e-09
4.3461671e-09
4.4232847e-09
4.4322605e-09
4.5472953e-09
4.635708e-09
4.7916722e-09
4.9625271e-09
5.1902617e-09
5.4636012e-09
5.8020915e-09
6.2040801e-09
6.668134e-09
7.1700924e-09
7.6713432e-09
8.1254551e-09
8.4985919e-09
8.7674679e-09
8.9168946e-09
8.9659259e-09
8.9548019e-09
8.9025001e-09
8.829276e-09
8.749424e-09
8.6714489e-09
8.6068966e-09
8.5631527e-09
8.5221452e-09
8.4756391e-09
8.4411536e-09
8.4255915e-09
8.4208764e-09
8.4228812e-09
8.4317701e-09
8.4451163e-09
8.4580245e-09
8.4855419e-09
8.5414281e-09
8.5901386e-09
8.6183725e-09
8.6343927e-09
8.6431291e-09
8.650983e-09
0.0010670621
0.0019251259
0.001704115
0.00051586239
3.4036158e-07
4.9560228e-09
4.5265735e-09
4.5405123e-09
4.4436942e-09
4.5262431e-09
4.5428114e-09
4.6650341e-09
4.7640901e-09
4.930889e-09
5.1169198e-09
5.3619733e-09
5.6568041e-09
6.0194085e-09
6.4469928e-09
6.9330977e-09
7.4474424e-09
7.9465684e-09
8.3850236e-09
8.7330273e-09
8.9630591e-09
9.0697139e-09
9.0882954e-09
9.0506151e-09
8.9766084e-09
8.8867375e-09
8.7940922e-09
8.7064556e-09
8.6353256e-09
8.587067e-09
8.5404581e-09
8.4889374e-09
8.4519151e-09
8.4350858e-09
8.4299313e-09
8.4309014e-09
8.4390929e-09
8.4512781e-09
8.4636661e-09
8.4941525e-09
8.55246e-09
8.5963335e-09
8.6216061e-09
8.635897e-09
8.6437015e-09
8.6512437e-09
0.0010687609
0.0018742859
0.0015716927
0.00041184172
1.0428498e-07
5.0092646e-09
4.6186388e-09
4.6366093e-09
4.5463402e-09
4.634748e-09
4.6597135e-09
4.7897953e-09
4.9006904e-09
5.0795648e-09
5.2822028e-09
5.5461605e-09
5.8641063e-09
6.2522225e-09
6.7056652e-09
7.2120805e-09
7.7347759e-09
8.2270154e-09
8.6461644e-09
8.9629371e-09
9.1488218e-09
9.2143839e-09
9.2040142e-09
9.1398681e-09
9.0452194e-09
8.9397574e-09
8.8352335e-09
8.7387501e-09
8.6618207e-09
8.6095653e-09
8.5574643e-09
8.5011654e-09
8.4620537e-09
8.4442523e-09
8.4387437e-09
8.4387799e-09
8.4462116e-09
8.4572281e-09
8.4695146e-09
8.5033945e-09
8.5628266e-09
8.6020331e-09
8.6245182e-09
8.6371895e-09
8.6441619e-09
8.6513792e-09
0.00107032
0.0018195728
0.001438369
0.00032126981
4.1257318e-08
5.0847288e-09
4.7149079e-09
4.7376436e-09
4.6543505e-09
4.7494909e-09
4.783673e-09
4.9225729e-09
5.0465221e-09
5.2387362e-09
5.4594937e-09
5.7440249e-09
6.0868344e-09
6.5017224e-09
6.9808555e-09
7.5049792e-09
8.0313921e-09
8.511926e-09
8.9079447e-09
9.1852472e-09
9.3233508e-09
9.3529728e-09
9.3121939e-09
9.2225495e-09
9.1084637e-09
8.9884926e-09
8.8729928e-09
8.7684659e-09
8.6864944e-09
8.6307123e-09
8.573183e-09
8.5123663e-09
8.4716402e-09
8.4531045e-09
8.4471885e-09
8.4465854e-09
8.453085e-09
8.4629997e-09
8.4757752e-09
8.513616e-09
8.5721133e-09
8.607167e-09
8.6271019e-09
8.6383134e-09
8.6445619e-09
8.6514252e-09
0.0010719035
0.0017560983
0.0013035342
0.00023796581
2.0013302e-08
5.1727757e-09
4.8157984e-09
4.8439066e-09
4.7687195e-09
4.8713663e-09
4.9158319e-09
5.0644265e-09
5.2026151e-09
5.4095449e-09
5.6499843e-09
5.9568769e-09
6.3261793e-09
6.7687404e-09
7.2724553e-09
7.8107219e-09
8.335689e-09
8.7999664e-09
9.1667201e-09
9.3975086e-09
9.488134e-09
9.4841638e-09
9.4126672e-09
9.2987489e-09
9.1664915e-09
9.0331039e-09
8.9075202e-09
8.795754e-09
8.7094661e-09
8.6505629e-09
8.587598e-09
8.5226614e-09
8.480765e-09
8.4617124e-09
8.4552633e-09
8.4542385e-09
8.4596874e-09
8.4686578e-09
8.4826301e-09
8.5249916e-09
8.580006e-09
8.6116628e-09
8.6293761e-09
8.6392741e-09
8.6449163e-09
8.651414e-09
0.0010754336
0.0016995477
0.0011666095
0.00016169936
1.2064287e-08
5.2693568e-09
4.9227931e-09
4.9567981e-09
4.8905785e-09
5.0015058e-09
5.0572193e-09
5.2163411e-09
5.370038e-09
5.5931051e-09
5.854972e-09
6.1861295e-09
6.5836181e-09
7.0542969e-09
7.58078e-09
8.1286511e-09
8.6468627e-09
9.0904198e-09
9.4191235e-09
9.5976734e-09
9.6453414e-09
9.6069532e-09
9.5054802e-09
9.3686407e-09
9.2195125e-09
9.0737853e-09
8.9389891e-09
8.8207633e-09
8.7308446e-09
8.6691328e-09
8.6006143e-09
8.5322622e-09
8.4894824e-09
8.4700354e-09
8.4630249e-09
8.4617153e-09
8.4660028e-09
8.4743024e-09
8.4901268e-09
8.5366766e-09
8.5869409e-09
8.6155995e-09
8.6313711e-09
8.6401315e-09
8.6452357e-09
8.6513797e-09
0.001079892
0.0016394369
0.0010285215
9.41274e-05
8.7326161e-09
5.3733061e-09
5.0364566e-09
5.0774817e-09
5.0209395e-09
5.1408172e-09
5.2087131e-09
5.3792651e-09
5.5498385e-09
5.7907678e-09
6.0759155e-09
6.4333086e-09
6.8602829e-09
7.3587947e-09
7.9049357e-09
8.4571823e-09
8.9630814e-09
9.3802601e-09
9.6615581e-09
9.7860156e-09
9.7946243e-09
9.7207247e-09
9.590686e-09
9.4324053e-09
9.2677337e-09
9.1107302e-09
8.9675719e-09
8.8436524e-09
8.7507381e-09
8.6864256e-09
8.6121405e-09
8.5414042e-09
8.4978128e-09
8.47803e-09
8.4705487e-09
8.4690259e-09
8.4720249e-09
8.4800365e-09
8.4981689e-09
8.5480021e-09
8.5932916e-09
8.619091e-09
8.6330861e-09
8.6408007e-09
8.6454801e-09
8.6513358e-09
0.0010857499
0.0015748612
0.00089278036
4.307499e-05
7.2540302e-09
5.4844535e-09
5.1581812e-09
5.2068301e-09
5.1604614e-09
5.2899101e-09
5.3711511e-09
5.5542602e-09
5.7433221e-09
6.0039648e-09
6.3144259e-09
6.7000825e-09
7.1575928e-09
7.6828522e-09
8.2446101e-09
8.7954505e-09
9.2835793e-09
9.6657408e-09
9.8915851e-09
9.9647801e-09
9.9346676e-09
9.8256167e-09
9.668508e-09
9.4903189e-09
9.3114127e-09
9.144156e-09
8.993453e-09
8.8645763e-09
8.7692399e-09
8.7024522e-09
8.6224207e-09
8.5500327e-09
8.5057628e-09
8.485717e-09
8.4778578e-09
8.4761611e-09
8.4777868e-09
8.4858662e-09
8.5066153e-09
8.5587118e-09
8.5991426e-09
8.6221632e-09
8.6345208e-09
8.6413104e-09
8.6456532e-09
8.6512693e-09
0.0010935458
0.00150525
0.00076220973
1.4914733e-05
6.6025677e-09
5.603031e-09
5.2880394e-09
5.3450997e-09
5.309547e-09
5.4494783e-09
5.5456159e-09
5.7426871e-09
5.9520276e-09
6.2344119e-09
6.5723127e-09
6.9879807e-09
7.4763883e-09
8.0259802e-09
8.5981907e-09
9.1414644e-09
9.6062252e-09
9.9417985e-09
1.0107562e-08