/*--------------------------------*- C++ -*----------------------------------*\
  =========                 |
  \\      /  F ield         | OpenFOAM: The Open Source CFD Toolbox
   \\    /   O peration     | Website:  https://openfoam.org
    \\  /    A nd           | Version:  8
     \\/     M anipulation  |
\*---------------------------------------------------------------------------*/
FoamFile
{
    version     2.0;
    format      ascii;
    class       volVectorField;
    location    "0.159995";
    object      cellDisplacement;
}
// * * * * * * * * * * * * * * * * * * * * * * * * * * * * * * * * * * * * * //

dimensions      [0 1 0 0 0 0 0];

internalField   nonuniform List<vector> 
20000
(
(-0.0013086898 0 -0.00097599301)
(-0.001308677 0 -0.00097603729)
(-0.0013086488 0 -0.00097626558)
(-0.0013085963 0 -0.00097656012)
(-0.0013085091 0 -0.00097693524)
(-0.0013083725 0 -0.00097741502)
(-0.0013081667 0 -0.00097803097)
(-0.001307864 0 -0.00097882736)
(-0.0013074276 0 -0.00097986699)
(-0.0013068068 0 -0.00098123625)
(-0.0013059344 0 -0.00098305826)
(-0.0013047201 0 -0.00098550334)
(-0.0013030448 0 -0.0009888087)
(-0.0013007522 0 -0.00099330197)
(-0.0012976389 0 -0.00099943773)
(-0.0012934454 0 -0.0010078424)
(-0.0012878413 0 -0.0010193575)
(-0.001280418 0 -0.0010351892)
(-0.0012706801 0 -0.0010568751)
(-0.0012580455 0 -0.0010865152)
(-0.0012418619 0 -0.0011267932)
(-0.0012214267 0 -0.001181111)
(-0.0011960384 0 -0.0012536017)
(-0.0011650959 0 -0.001348931)
(-0.0011281342 0 -0.0014721881)
(-0.0010850597 0 -0.0016277515)
(-0.0010359909 0 -0.0018193667)
(-0.00098166896 0 -0.0020472208)
(-0.00092293951 0 -0.0023095175)
(-0.00086140512 0 -0.002598342)
(-0.00079836503 0 -0.0029043253)
(-0.00073570528 0 -0.003212385)
(-0.00067457397 0 -0.0035102661)
(-0.0006165242 0 -0.0037824889)
(-0.00056197126 0 -0.0040209164)
(-0.00051191681 0 -0.0042155496)
(-0.00046612942 0 -0.0043640991)
(-0.00042472605 0 -0.004465333)
(-0.00038748257 0 -0.0045200731)
(-0.00035433744 0 -0.0045289852)
(-0.00032413407 0 -0.0044896097)
(-0.00029785779 0 -0.0044075233)
(-0.00027090511 0 -0.0042622876)
(-0.00024743238 0 -0.0040739087)
(-0.00022186418 0 -0.0037963741)
(-0.00019871666 0 -0.0034740223)
(-0.00017271146 0 -0.0030646029)
(-0.00013686998 0 -0.0024650442)
(-9.662841e-05 0 -0.0017329988)
(-4.1021327e-05 0 -0.00074852902)
(-0.0013060629 0 -0.00079470616)
(-0.0013060503 0 -0.00079475907)
(-0.0013060201 0 -0.00079483011)
(-0.0013059648 0 -0.0007949311)
(-0.0013058739 0 -0.00079507797)
(-0.0013057325 0 -0.00079529132)
(-0.0013055202 0 -0.00079559938)
(-0.0013052091 0 -0.00079604338)
(-0.0013047614 0 -0.00079667775)
(-0.0013041257 0 -0.00079758362)
(-0.0013032336 0 -0.00079887058)
(-0.0013019933 0 -0.0008006987)
(-0.0013002844 0 -0.00080328915)
(-0.0012979482 0 -0.00080695715)
(-0.0012947796 0 -0.00081214296)
(-0.0012905156 0 -0.00081945764)
(-0.0012848243 0 -0.00082976076)
(-0.001277293 0 -0.00084420794)
(-0.0012674251 0 -0.00086440672)
(-0.0012546391 0 -0.0008924554)
(-0.0012382848 0 -0.00093110232)
(-0.0012176685 0 -0.00098383409)
(-0.001192106 0 -0.0010548981)
(-0.001161014 0 -0.0011491403)
(-0.001123972 0 -0.0012717844)
(-0.0010809014 0 -0.0014274964)
(-0.0010319871 0 -0.0016200943)
(-0.0009779437 0 -0.0018502514)
(-0.00091966749 0 -0.0021161167)
(-0.00085867418 0 -0.0024102276)
(-0.00079625933 0 -0.0027230926)
(-0.00073418598 0 -0.0030399975)
(-0.00067360123 0 -0.0033482347)
(-0.00061596308 0 -0.0036324086)
(-0.00056174505 0 -0.0038835587)
(-0.00051187713 0 -0.0040916142)
(-0.00046620861 0 -0.0042535357)
(-0.00042485665 0 -0.0043676728)
(-0.00038760375 0 -0.0044345426)
(-0.00035438831 0 -0.0044546727)
(-0.00032414688 0 -0.004425861)
(-0.00029765601 0 -0.004352658)
(-0.00027085294 0 -0.0042171249)
(-0.00024715377 0 -0.0040354115)
(-0.00022172671 0 -0.0037670765)
(-0.00019831302 0 -0.0034491489)
(-0.00017210415 0 -0.003042351)
(-0.00013657908 0 -0.0024515364)
(-9.6057987e-05 0 -0.0017199693)
(-4.0226321e-05 0 -0.00073239442)
(-0.0013027888 0 -0.00061733998)
(-0.001302774 0 -0.00061728604)
(-0.0013027409 0 -0.00061722961)
(-0.0013026818 0 -0.00061717888)
(-0.0013025859 0 -0.00061714151)
(-0.0013024378 0 -0.00061713111)
(-0.0013022168 0 -0.00061716875)
(-0.0013018943 0 -0.00061728681)
(-0.0013014319 0 -0.00061753388)
(-0.0013007771 0 -0.00061798223)
(-0.0012998606 0 -0.00061873376)
(-0.0012985888 0 -0.00061993918)
(-0.0012968397 0 -0.00062180794)
(-0.0012944522 0 -0.00062464529)
(-0.0012912186 0 -0.00062887801)
(-0.0012868734 0 -0.0006351142)
(-0.0012810808 0 -0.0006441901)
(-0.0012734266 0 -0.00065730068)
(-0.0012634106 0 -0.00067602214)
(-0.0012504529 0 -0.00070250793)
(-0.0012339065 0 -0.00073955728)
(-0.001213087 0 -0.00079074638)
(-0.0011873293 0 -0.00086044295)
(-0.0011560721 0 -0.00095366035)
(-0.0011189376 0 -0.0010757672)
(-0.0010758732 0 -0.0012316666)
(-0.0010271201 0 -0.0014252723)
(-0.0009733819 0 -0.0016576563)
(-0.00091559408 0 -0.0019269322)
(-0.00085519368 0 -0.0022260265)
(-0.0007934629 0 -0.0025453599)
(-0.00073204621 0 -0.0028705654)
(-0.00067208042 0 -0.0031885596)
(-0.00061492969 0 -0.0034840425)
(-0.00056111468 0 -0.003747328)
(-0.00051149978 0 -0.0039682521)
(-0.00046600609 0 -0.0041431033)
(-0.00042475204 0 -0.0042698021)
(-0.00038753212 0 -0.0043485616)
(-0.00035428178 0 -0.004379734)
(-0.00032402849 0 -0.0043613599)
(-0.00029736177 0 -0.0042970393)
(-0.00027069436 0 -0.0041710152)
(-0.00024681084 0 -0.0039961248)
(-0.00022151146 0 -0.0037367391)
(-0.00019786637 0 -0.0034234696)
(-0.00017147456 0 -0.0030196145)
(-0.00013623405 0 -0.0024371135)
(-9.547632e-05 0 -0.0017065932)
(-3.9465678e-05 0 -0.00071687672)
(-0.0012988855 0 -0.00044379904)
(-0.0012988672 0 -0.00044362549)
(-0.0012988295 0 -0.00044342338)
(-0.0012987647 0 -0.00044320159)
(-0.0012986616 0 -0.00044296539)
(-0.0012985047 0 -0.00044272587)
(-0.0012982729 0 -0.0004424978)
(-0.0012979366 0 -0.00044230668)
(-0.0012974566 0 -0.00044219049)
(-0.0012967794 0 -0.00044220873)
(-0.0012958341 0 -0.00044245237)
(-0.0012945255 0 -0.00044305681)
(-0.0012927295 0 -0.00044422353)
(-0.0012902826 0 -0.0004462433)
(-0.0012869744 0 -0.00044953787)
(-0.0012825358 0 -0.00045470037)
(-0.0012766287 0 -0.00046258381)
(-0.001268834 0 -0.00047434592)
(-0.0012586519 0 -0.00049162567)
(-0.0012455017 0 -0.00051658461)
(-0.0012287415 0 -0.00055209094)
(-0.0012076975 0 -0.00060181102)
(-0.0011817239 0 -0.00067023307)
(-0.0011502865 0 -0.00076252509)
(-0.0011130488 0 -0.00088420527)
(-0.0010699928 0 -0.0010403695)
(-0.0010214092 0 -0.001235049)
(-0.00096800432 0 -0.0014696155)
(-0.00091073815 0 -0.0017421865)
(-0.00085098339 0 -0.0020459835)
(-0.00078999051 0 -0.0023714165)
(-0.00072930011 0 -0.002704389)
(-0.00067001907 0 -0.003031575)
(-0.00061343082 0 -0.0033377195)
(-0.00056008224 0 -0.0036125537)
(-0.00051078697 0 -0.0038457738)
(-0.00046552202 0 -0.0040330804)
(-0.00042441385 0 -0.0041719684)
(-0.00038726709 0 -0.004262338)
(-0.00035401938 0 -0.0043043563)
(-0.00032377474 0 -0.0042962397)
(-0.00029697145 0 -0.0042407793)
(-0.00027043068 0 -0.0041240636)
(-0.00024640259 0 -0.0039561262)
(-0.00022121817 0 -0.0037054202)
(-0.00019737575 0 -0.0033970303)
(-0.00017081906 0 -0.0029963634)
(-0.00013583726 0 -0.0024218246)
(-9.4882625e-05 0 -0.0016928877)
(-3.8735669e-05 0 -0.00070198493)
(-0.0012943742 0 -0.00027401611)
(-0.0012943522 0 -0.00027374294)
(-0.0012943098 0 -0.00027342746)
(-0.001294239 0 -0.00027306725)
(-0.001294128 0 -0.00027265882)
(-0.0012939608 0 -0.00027220521)
(-0.0012937154 0 -0.00027171308)
(-0.0012933618 0 -0.00027120245)
(-0.00129286 0 -0.00027070416)
(-0.0012921551 0 -0.00027027388)
(-0.0012911751 0 -0.00026999235)
(-0.0012898231 0 -0.00026998935)
(-0.0012879725 0 -0.00027045112)
(-0.0012854574 0 -0.00027166009)
(-0.0012820639 0 -0.00027402236)
(-0.00127752 0 -0.00027812969)
(-0.0012714828 0 -0.00028481235)
(-0.0012635323 0 -0.00029527271)
(-0.0012531642 0 -0.00031112111)
(-0.0012398004 0 -0.00033458546)
(-0.0012228035 0 -0.00036859222)
(-0.0012015123 0 -0.00041690338)
(-0.0011753017 0 -0.00048413353)
(-0.0011436686 0 -0.00057559615)
(-0.0011063173 0 -0.00069696066)
(-0.0010632728 0 -0.00085347699)
(-0.0010148689 0 -0.0010493018)
(-0.00096182471 0 -0.0012860228)
(-0.00090511683 0 -0.0015617754)
(-0.0008460565 0 -0.0018700316)
(-0.00078585713 0 -0.002201201)
(-0.00072595644 0 -0.0025414523)
(-0.0006674265 0 -0.002877268)
(-0.00061146926 0 -0.0031934633)
(-0.00055865085 0 -0.0034792594)
(-0.00050973689 0 -0.0037242201)
(-0.00046475454 0 -0.0039235122)
(-0.00042383741 0 -0.0040742125)
(-0.00038680501 0 -0.0041759088)
(-0.00035359517 0 -0.0042285633)
(-0.00032338599 0 -0.0042305426)
(-0.00029648208 0 -0.004183893)
(-0.00027006257 0 -0.004076299)
(-0.00024592453 0 -0.0039154005)
(-0.0002208488 0 -0.0036731646)
(-0.00019683883 0 -0.0033698258)
(-0.00017013729 0 -0.0029726154)
(-0.00013539075 0 -0.0024057077)
(-9.4276253e-05 0 -0.0016788427)
(-3.8035436e-05 0 -0.00068763022)
(-0.0012892719 0 -0.00010789677)
(-0.0012892442 0 -0.00010750182)
(-0.0012891947 0 -0.00010703694)
(-0.001289115 0 -0.00010650288)
(-0.0012889934 0 -0.00010589598)
(-0.0012888132 0 -0.00010521589)
(-0.0012885521 0 -0.00010446516)
(-0.0012881789 0 -0.00010365432)
(-0.0012876527 0 -0.00010280478)
(-0.001286917 0 -0.00010195776)
(-0.0012858982 0 -0.00010118367)
(-0.0012844971 0 -0.00010059652)
(-0.0012825851 0 -0.00010037482)
(-0.0012799929 0 -0.00010078685)
(-0.0012765038 0 -0.00010223301)
(-0.0012718413 0 -0.000105291)
(-0.0012656603 0 -0.0001108082)
(-0.001257535 0 -0.00011995419)
(-0.0012469623 0 -0.00013441052)
(-0.0012333637 0 -0.00015642136)
(-0.0012161085 0 -0.00018899231)
(-0.0011945488 0 -0.00023598293)
(-0.0011680825 0 -0.00030213283)
(-0.0011362398 0 -0.00039289415)
(-0.0010987682 0 -0.00051407818)
(-0.0010557395 0 -0.00067106568)
(-0.0010075287 0 -0.00086812664)
(-0.00095487351 0 -0.0011070048)
(-0.00089875931 0 -0.0013858573)
(-0.0008404422 0 -0.0016983501)
(-0.00078108695 0 -0.0020349331)
(-0.00072203718 0 -0.0023819925)
(-0.0006643177 0 -0.0027259124)
(-0.00060905743 0 -0.0030515525)
(-0.00055682748 0 -0.003347734)
(-0.00050835509 0 -0.0036038686)
(-0.0004637063 0 -0.0038146553)
(-0.00042302582 0 -0.0039767663)
(-0.00038614657 0 -0.0040894741)
(-0.00035301086 0 -0.0041525321)
(-0.00032285939 0 -0.0041644018)
(-0.00029589053 0 -0.0041264905)
(-0.00026959083 0 -0.004027825)
(-0.00024537563 0 -0.0038740249)
(-0.00022040283 0 -0.0036400295)
(-0.00019625424 0 -0.0033418958)
(-0.00016942612 0 -0.0029483478)
(-0.00013489579 0 -0.0023887963)
(-9.3656521e-05 0 -0.0016644726)
(-3.736165e-05 0 -0.00067382161)
(-0.0012835954 0 5.4617652e-05)
(-0.0012835621 0 5.5112458e-05)
(-0.0012835058 0 5.569168e-05)
(-0.0012834175 0 5.6365072e-05)
(-0.0012832847 0 5.7144729e-05)
(-0.0012830901 0 5.8038501e-05)
(-0.0012828106 0 5.9051363e-05)
(-0.0012824143 0 6.0177978e-05)
(-0.001281859 0 6.1403267e-05)
(-0.0012810871 0 6.2690137e-05)
(-0.0012800233 0 6.3978215e-05)
(-0.0012785663 0 6.5159728e-05)
(-0.0012765846 0 6.607136e-05)
(-0.0012739061 0 6.6453646e-05)
(-0.0012703098 0 6.5920838e-05)
(-0.0012655161 0 6.389676e-05)
(-0.0012591744 0 5.9554842e-05)
(-0.0012508584 0 5.1676535e-05)
(-0.0012400601 0 3.8602188e-05)
(-0.0012262049 0 1.8007651e-05)
(-0.0012086687 0 -1.318091e-05)
(-0.0011868185 0 -5.8927669e-05)
(-0.0011600772 0 -0.00012410091)
(-0.0011280111 0 -0.00021428543)
(-0.0010904134 0 -0.00033542537)
(-0.0010474058 0 -0.00049300907)
(-0.00099940349 0 -0.00069140375)
(-0.00094716647 0 -0.00093244829)
(-0.00089168384 0 -0.0012143227)
(-0.00083415621 0 -0.0015308576)
(-0.00077569657 0 -0.0018725384)
(-0.00071755392 0 -0.0022259724)
(-0.00066070386 0 -0.0025774782)
(-0.0006062008 0 -0.0029119914)
(-0.00055461689 0 -0.0032179869)
(-0.00050664178 0 -0.0034847471)
(-0.00046237678 0 -0.0037065451)
(-0.00042197579 0 -0.0038796654)
(-0.00038528897 0 -0.0040030676)
(-0.00035226156 0 -0.0040762867)
(-0.00032219492 0 -0.0040978547)
(-0.00029519414 0 -0.004068588)
(-0.0002690156 0 -0.0039786669)
(-0.00024475218 0 -0.0038319903)
(-0.00021988153 0 -0.003606052)
(-0.00019562001 0 -0.0033132386)
(-0.00016868488 0 -0.0029235752)
(-0.00013435472 0 -0.0023711342)
(-9.3022757e-05 0 -0.0016497653)
(-3.6714023e-05 0 -0.00066048921)
(-0.001277362 0 0.00021361785)
(-0.0012773213 0 0.00021423131)
(-0.0012772556 0 0.00021495439)
(-0.0012771558 0 0.00021579564)
(-0.0012770092 0 0.00021676789)
(-0.0012767978 0 0.00021788401)
(-0.0012764978 0 0.00021915301)
(-0.001276076 0 0.0002205787)
(-0.0012754891 0 0.00022215495)
(-0.0012746777 0 0.00022385797)
(-0.0012735644 0 0.00022563676)
(-0.0012720455 0 0.00022739813)
(-0.0012699866 0 0.00022898617)
(-0.0012672122 0 0.00023015517)
(-0.0012634976 0 0.00023052554)
(-0.0012585585 0 0.0002295344)
(-0.0012520412 0 0.00022633802)
(-0.0012435139 0 0.00021974551)
(-0.0012324708 0 0.00020801284)
(-0.0012183377 0 0.00018878646)
(-0.0012004992 0 0.00015890326)
(-0.0011783384 0 0.00011429563)
(-0.0011513058 0 4.9963704e-05)
(-0.0011190053 0 -3.9796885e-05)
(-0.0010812789 0 -0.00016105398)
(-0.0010383005 0 -0.00031938107)
(-0.00099052493 0 -0.00051922124)
(-0.00093873654 0 -0.00076246626)
(-0.00088392267 0 -0.0010473089)
(-0.00082723069 0 -0.0013677076)
(-0.0007697137 0 -0.0017142041)
(-0.00071253184 0 -0.0020735952)
(-0.00065660366 0 -0.002432202)
(-0.00060291498 0 -0.002775024)
(-0.00055202928 0 -0.0030902758)
(-0.00050460508 0 -0.0033671062)
(-0.00046077087 0 -0.0035994186)
(-0.000420692 0 -0.0037831266)
(-0.0003842344 0 -0.0039168803)
(-0.00035134979 0 -0.0039999964)
(-0.00032139117 0 -0.0040310343)
(-0.00029439092 0 -0.0040102961)
(-0.00026833764 0 -0.0039289277)
(-0.00024405364 0 -0.0037893758)
(-0.00021928448 0 -0.0035712911)
(-0.000194935 0 -0.0032838956)
(-0.00016791092 0 -0.0028982829)
(-0.00013376806 0 -0.002352745)
(-9.2374545e-05 0 -0.0016347386)
(-3.608927e-05 0 -0.00064763638)
(-0.0012705907 0 0.0003691632)
(-0.0012705423 0 0.0003698797)
(-0.0012704672 0 0.00037072194)
(-0.0012703557 0 0.00037170778)
(-0.0012701942 0 0.00037285732)
(-0.0012699641 0 0.0003741886)
(-0.0012696405 0 0.00037571888)
(-0.0012691894 0 0.0003774565)
(-0.001268566 0 0.00037940264)
(-0.0012677095 0 0.00038153767)
(-0.0012665402 0 0.0003838214)
(-0.0012649521 0 0.00038616756)
(-0.0012628075 0 0.00038843554)
(-0.0012599271 0 0.00039038875)
(-0.0012560818 0 0.00039166243)
(-0.001250983 0 0.00039169542)
(-0.0012442719 0 0.00038966214)
(-0.0012355159 0 0.00038431851)
(-0.0012242062 0 0.00037391985)
(-0.0012097737 0 0.00035601545)
(-0.0011916108 0 0.00032736807)
(-0.0011691187 0 0.00028380495)
(-0.001141778 0 0.00022018277)
(-0.0011092325 0 0.00013069639)
(-0.0010713763 0 9.161781e-06)
(-0.0010284367 0 -0.00015006073)
(-0.00098090889 0 -0.0003514635)
(-0.00092960114 0 -0.00059694443)
(-0.00087549537 0 -0.0008847041)
(-0.00081968342 0 -0.001208809)
(-0.00076315648 0 -0.0015598447)
(-0.00070698479 0 -0.0019248056)
(-0.00065202998 0 -0.0022900373)
(-0.00059920764 0 -0.0026406355)
(-0.00054907098 0 -0.0029645944)
(-0.00050224703 0 -0.0032509597)
(-0.00045888939 0 -0.0034932994)
(-0.00041917248 0 -0.0036871781)
(-0.00038298094 0 -0.0038309406)
(-0.00035027166 0 -0.0039236829)
(-0.00032044802 0 -0.0039639733)
(-0.00029347861 0 -0.003951631)
(-0.00026755674 0 -0.0038786289)
(-0.00024327694 0 -0.0037461767)
(-0.00021861246 0 -0.003535778)
(-0.00019419753 0 -0.0032538678)
(-0.00016710354 0 -0.002872486)
(-0.00013313815 0 -0.0023336732)
(-9.1711282e-05 0 -0.001619381)
(-3.5487424e-05 0 -0.00063520404)
(-0.001263297 0 0.00052133798)
(-0.001263239 0 0.00052217198)
(-0.0012631519 0 0.0005231576)
(-0.0012630258 0 0.00052431063)
(-0.0012628467 0 0.00052565262)
(-0.0012625953 0 0.00052720622)
(-0.0012622457 0 0.00052899184)
(-0.0012617628 0 0.00053102738)
(-0.0012611001 0 0.0005333218)
(-0.0012601946 0 0.00053586969)
(-0.0012589645 0 0.00053863947)
(-0.0012573006 0 0.00054156046)
(-0.0012550619 0 0.00054449961)
(-0.0012520651 0 0.0005472349)
(-0.0012480764 0 0.00054940883)
(-0.0012428022 0 0.00055047358)
(-0.0012358801 0 0.00054958903)
(-0.0012268729 0 0.00054553258)
(-0.0012152775 0 0.0005364249)
(-0.0012005254 0 0.00051977599)
(-0.0011820183 0 0.00049226644)
(-0.0011591767 0 0.00044962603)
(-0.0011315149 0 0.00038654675)
(-0.0010987171 0 0.00029716021)
(-0.0010607334 0 0.00017516375)
(-0.0010178461 0 1.4876516e-05)
(-0.00097058947 0 -0.00018821603)
(-0.00091979597 0 -0.00043598744)
(-0.00086643721 0 -0.00072662996)
(-0.00081154939 0 -0.0010542955)
(-0.00075605568 0 -0.0014096214)
(-0.00070094074 0 -0.0017797785)
(-0.00064700459 0 -0.0021511896)
(-0.00059509719 0 -0.0025090401)
(-0.00054575497 0 -0.0028411725)
(-0.00049957809 0 -0.0031365338)
(-0.00045673934 0 -0.0033884058)
(-0.00041742343 0 -0.0035920224)
(-0.00038153219 0 -0.0037454304)
(-0.00034903057 0 -0.0038475089)
(-0.00031936529 0 -0.0038968029)
(-0.00029245628 0 -0.0038927037)
(-0.00026667375 0 -0.0038278721)
(-0.00024242201 0 -0.0037024735)
(-0.00021786521 0 -0.0034995727)
(-0.00019340678 0 -0.0032231992)
(-0.00016626042 0 -0.0028461752)
(-0.00013246498 0 -0.0023139364)
(-9.1032685e-05 0 -0.0016037129)
(-3.4905245e-05 0 -0.00062319168)
(-0.0012554959 0 0.0006701991)
(-0.0012554282 0 0.00067113578)
(-0.0012553294 0 0.00067224029)
(-0.0012551886 0 0.00067353725)
(-0.0012549911 0 0.0006750552)
(-0.0012547167 0 0.00067682211)
(-0.0012543384 0 0.00067886644)
(-0.0012538197 0 0.0006812106)
(-0.0012531126 0 0.00068387117)
(-0.0012521523 0 0.00068684754)
(-0.0012508545 0 0.00069011897)
(-0.001249107 0 0.0006936227)
(-0.0012467648 0 0.00069724066)
(-0.0012436402 0 0.00070076164)
(-0.0012394943 0 0.00070384235)
(-0.0012340282 0 0.00070594139)
(-0.001226874 0 0.00070624045)
(-0.0012175951 0 0.00070348537)
(-0.0012056947 0 0.00069564078)
(-0.0011906035 0 0.00068016799)
(-0.0011717314 0 0.00065369981)
(-0.0011485209 0 0.00061187461)
(-0.0011205264 0 0.00054916582)
(-0.0010874686 0 0.00045970985)
(-0.0010493629 0 0.00033707125)
(-0.0010065421 0 0.00017554828)
(-0.00095958344 0 -2.9363605e-05)
(-0.00090933985 0 -0.00027947804)
(-0.0008567688 0 -0.00057297052)
(-0.00080284797 0 -0.00090406627)
(-0.00074843047 0 -0.0012634378)
(-0.00069441514 0 -0.0016384418)
(-0.00064154152 0 -0.0020155965)
(-0.00059059292 0 -0.0023802046)
(-0.00054208872 0 -0.0027199882)
(-0.0004966017 0 -0.0030238277)
(-0.00045432256 0 -0.0032847491)
(-0.00041544399 0 -0.0034976787)
(-0.00037988696 0 -0.0036603713)
(-0.00034762353 0 -0.0037714926)
(-0.00031814269 0 -0.0038295502)
(-0.00029132196 0 -0.0038335291)
(-0.00026568819 0 -0.0037766756)
(-0.00024148624 0 -0.0036582649)
(-0.000217043 0 -0.003462701)
(-0.00019256121 0 -0.0031918924)
(-0.00016538104 0 -0.0028193693)
(-0.00013175079 0 -0.0022935779)
(-9.0338319e-05 0 -0.0015877252)
(-3.4342967e-05 0 -0.00061154699)
(-0.0012472036 0 0.00081582701)
(-0.0012471243 0 0.00081687926)
(-0.0012470111 0 0.00081812271)
(-0.0012468529 0 0.00081958174)
(-0.0012466343 0 0.00082128638)
(-0.0012463343 0 0.00082327058)
(-0.0012459248 0 0.00082556664)
(-0.0012453676 0 0.00082820672)
(-0.0012446131 0 0.00083121566)
(-0.0012435939 0 0.00083460617)
(-0.0012422228 0 0.00083836658)
(-0.0012403841 0 0.0008424479)
(-0.001237929 0 0.00084674132)
(-0.001234665 0 0.00085104877)
(-0.0012303473 0 0.00085503907)
(-0.001224671 0 0.00085818566)
(-0.0012172639 0 0.00085965642)
(-0.0012077082 0 0.00085796516)
(-0.0011954968 0 0.00085120443)
(-0.0011800505 0 0.00083678537)
(-0.001160794 0 0.00081125299)
(-0.0011371967 0 0.00077016664)
(-0.0011088345 0 0.00070801324)
(-0.0010755131 0 0.00061830527)
(-0.0010372941 0 0.00049481769)
(-0.00099455929 0 0.00033187574)
(-0.00094792739 0 0.00012500953)
(-0.00089827081 0 -0.00012751115)
(-0.00084652794 0 -0.00042383071)
(-0.00079361638 0 -0.00075823432)
(-0.00074031412 0 -0.0011214289)
(-0.00068743812 0 -0.0015009426)
(-0.00063566509 0 -0.0018834322)
(-0.0005857155 0 -0.0022543134)
(-0.00053808762 0 -0.0026012427)
(-0.0004933304 0 -0.0029130425)
(-0.00045164804 0 -0.0031825271)
(-0.00041324179 0 -0.0034043336)
(-0.00037805022 0 -0.0035759339)
(-0.00034605483 0 -0.0036957881)
(-0.00031678127 0 -0.0037623437)
(-0.00029007577 0 -0.0037742169)
(-0.00026460115 0 -0.0037251388)
(-0.00024047001 0 -0.0036136314)
(-0.00021614588 0 -0.003425224)
(-0.0001916604 0 -0.003159994)
(-0.00016446333 0 -0.002792063)
(-0.00013099519 0 -0.0022726109)
(-8.9628018e-05 0 -0.001571441)
(-3.3797373e-05 0 -0.00060026745)
(-0.0012384354 0 0.00095827762)
(-0.0012383443 0 0.00095943229)
(-0.0012382168 0 0.00096079413)
(-0.0012380408 0 0.00096239618)
(-0.0012378002 0 0.00096427542)
(-0.0012374724 0 0.00096647146)
(-0.0012370285 0 0.0009690246)
(-0.0012364285 0 0.00097197246)
(-0.001235621 0 0.00097534696)
(-0.0012345363 0 0.0009791662)
(-0.0012330845 0 0.00098342868)
(-0.0012311463 0 0.00098809388)
(-0.0012285681 0 0.00099306693)
(-0.0012251519 0 0.00099816462)
(-0.0012206468 0 0.0010030731)
(-0.0012147416 0 0.0010072739)
(-0.0012070873 0 0.0010097054)
(-0.0011972546 0 0.001008891)
(-0.001184706 0 0.0010030963)
(-0.0011688812 0 0.00098963351)
(-0.0011492161 0 0.0009649519)
(-0.0011252035 0 0.00092449752)
(-0.0010964617 0 0.0008628112)
(-0.0010628596 0 0.00077305496)
(-0.0010245402 0 0.00064851218)
(-0.00098191236 0 0.00048396507)
(-0.00093563916 0 0.00027501617)
(-0.00088660909 0 2.0031191e-05)
(-0.00083573637 0 -0.00027909119)
(-0.00078387525 0 -0.00061669144)
(-0.00073172659 0 -0.00098348829)
(-0.00068002624 0 -0.0013671938)
(-0.00062939016 0 -0.0017546194)
(-0.00058047546 0 -0.0021313158)
(-0.00053376009 0 -0.002484898)
(-0.0004897688 0 -0.0028041617)
(-0.00044871855 0 -0.0030817374)
(-0.00041081696 0 -0.0033119954)
(-0.00037602147 0 -0.0034921314)
(-0.00034432226 0 -0.0036204082)
(-0.00031528083 0 -0.0036952044)
(-0.00028871606 0 -0.00371478)
(-0.00026341204 0 -0.0036732767)
(-0.00023937112 0 -0.0035685732)
(-0.00021517383 0 -0.0033871635)
(-0.00019070295 0 -0.0031275078)
(-0.00016350699 0 -0.0027642787)
(-0.00013020024 0 -0.002251077)
(-8.8901474e-05 0 -0.0015548533)
(-3.3268856e-05 0 -0.00058930552)
(-0.0012292048 0 0.0010976262)
(-0.0012291 0 0.0010988941)
(-0.0012289556 0 0.0011003918)
(-0.0012287591 0 0.0011021542)
(-0.0012284933 0 0.0011042207)
(-0.001228135 0 0.0011066365)
(-0.0012276537 0 0.001109446)
(-0.0012270079 0 0.0011126943)
(-0.0012261438 0 0.0011164216)
(-0.0012249892 0 0.0011206564)
(-0.0012234509 0 0.0011254073)
(-0.0012214053 0 0.0011306461)
(-0.0012186941 0 0.0011362913)
(-0.001215113 0 0.0011421741)
(-0.0012104035 0 0.0011480097)
(-0.0012042748 0 0.001153099)
(-0.0011963695 0 0.0011563575)
(-0.0011862218 0 0.0011565359)
(-0.0011733126 0 0.0011516908)
(-0.0011570849 0 0.0011391227)
(-0.0011369897 0 0.001115189)
(-0.0011125478 0 0.0010752164)
(-0.0010834324 0 0.0010135239)
(-0.0010495533 0 0.00092355157)
(-0.0010111334 0 0.0007980818)
(-0.00096863842 0 0.0006317384)
(-0.00092275803 0 0.00042057467)
(-0.00087439521 0 0.00016306269)
(-0.00082443426 0 -0.00013884256)
(-0.0007736638 0 -0.00047953308)
(-0.00072270308 0 -0.00084972879)
(-0.00067221132 0 -0.0012373175)
(-0.00062274302 0 -0.0016293051)
(-0.00057489521 0 -0.0020113693)
(-0.00052912345 0 -0.0023711292)
(-0.00048593112 0 -0.0026973632)
(-0.00044554475 0 -0.0029825585)
(-0.00040817841 0 -0.0032208352)
(-0.00037380692 0 -0.003409123)
(-0.00034243099 0 -0.0035454988)
(-0.00031364346 0 -0.0036282568)
(-0.00028724386 0 -0.0036553261)
(-0.00026212228 0 -0.0036211864)
(-0.00023819036 0 -0.0035231709)
(-0.00021412718 0 -0.0033485817)
(-0.00018968876 0 -0.0030944824)
(-0.0001625101 0 -0.0027360142)
(-0.00012936529 0 -0.0022289874)
(-8.8158511e-05 0 -0.0015379858)
(-3.2754351e-05 0 -0.00057865963)
(-0.001219529 0 0.0012339313)
(-0.0012194095 0 0.0012353089)
(-0.0012192471 0 0.0012369374)
(-0.0012190286 0 0.0012388549)
(-0.0012187358 0 0.0012411057)
(-0.0012183444 0 0.0012437389)
(-0.0012178223 0 0.0012468051)
(-0.0012171264 0 0.0012503569)
(-0.0012162007 0 0.0012544405)
(-0.0012149701 0 0.0012590938)
(-0.0012133378 0 0.0012643343)
(-0.0012111762 0 0.0012701446)
(-0.0012083214 0 0.0012764522)
(-0.001204563 0 0.0012830959)
(-0.0011996481 0 0.0012897798)
(-0.0011932921 0 0.0012956496)
(-0.0011851029 0 0.0012998397)
(-0.0011746204 0 0.0013009606)
(-0.0011613256 0 0.0012970435)
(-0.0011446695 0 0.0012853236)
(-0.0011241216 0 0.0012620507)
(-0.0010992346 0 0.0012224352)
(-0.0010697386 0 0.0011605966)
(-0.0010356056 0 0.001069902)
(-0.00099707626 0 0.00094362546)
(-0.00095475279 0 0.00077529331)
(-0.00090930263 0 0.00056179458)
(-0.00086165024 0 0.00030170169)
(-0.00081264382 0 -2.9626517e-06)
(-0.00076300327 0 -0.00034664518)
(-0.00071326365 0 -0.00072003619)
(-0.00066401026 0 -0.0011112147)
(-0.00061573861 0 -0.0015073999)
(-0.00056898584 0 -0.0018944088)
(-0.0005241865 0 -0.0022598848)
(-0.0004818227 0 -0.0025926168)
(-0.00044212999 0 -0.0028849758)
(-0.00040532698 0 -0.0031308511)
(-0.00037140653 0 -0.0033269134)
(-0.00034037943 0 -0.0034710669)
(-0.00031186891 0 -0.0035615161)
(-0.00028565773 0 -0.0035958652)
(-0.0002607311 0 -0.0035688797)
(-0.00023692577 0 -0.0034774258)
(-0.00021300558 0 -0.0033094961)
(-0.00018861647 0 -0.0030609222)
(-0.00016147264 0 -0.0027072956)
(-0.0001284923 0 -0.0022063817)
(-8.7399005e-05 0 -0.0015208342)
(-3.2254297e-05 0 -0.00056828506)
(-0.0012094196 0 0.0013672568)
(-0.0012092843 0 0.0013687441)
(-0.0012091025 0 0.0013705029)
(-0.0012088602 0 0.0013725751)
(-0.0012085383 0 0.0013750093)
(-0.0012081111 0 0.00137786)
(-0.0012075451 0 0.0013811832)
(-0.0012067953 0 0.0013850367)
(-0.0012058032 0 0.0013894757)
(-0.0012044908 0 0.0013945465)
(-0.0012027575 0 0.0014002758)
(-0.001200471 0 0.0014066588)
(-0.0011974621 0 0.0014136356)
(-0.0011935142 0 0.0014210689)
(-0.001188393 0 0.0014284386)
(-0.0011817882 0 0.0014351442)
(-0.0011732978 0 0.001440213)
(-0.0011624588 0 0.0014422462)
(-0.0011487546 0 0.0014392155)
(-0.0011316462 0 0.0014282814)
(-0.0011106263 0 0.0014055587)
(-0.0010852812 0 0.0013661654)
(-0.0010554033 0 0.0013040028)
(-0.0010210219 0 0.0012123514)
(-0.00098243331 0 0.0010847691)
(-0.00094029641 0 0.00091455406)
(-0.00089531454 0 0.00069860183)
(-0.0008484168 0 0.0004358743)
(-0.00080040708 0 0.00012847589)
(-0.00075193423 0 -0.00021810397)
(-0.00070344473 0 -0.00059449974)
(-0.00065547863 0 -0.0009893004)
(-0.00060842692 0 -0.0013893693)
(-0.00056279031 0 -0.0017808995)
(-0.0005189837 0 -0.0021516155)
(-0.00047747125 0 -0.0024903372)
(-0.00043848639 0 -0.002789148)
(-0.00040227269 0 -0.0030421971)
(-0.00036882766 0 -0.0032456486)
(-0.00033817355 0 -0.0033972479)
(-0.00030996037 0 -0.0034951011)
(-0.00028395958 0 -0.0035365016)
(-0.00025924039 0 -0.0035164507)
(-0.0002355786 0 -0.0034314173)
(-0.00021180974 0 -0.00326997)
(-0.00018748638 0 -0.003026878)
(-0.00016039284 0 -0.0026781231)
(-0.0001275804 0 -0.0021832698)
(-8.6622734e-05 0 -0.0015034227)
(-3.176578e-05 0 -0.00055818227)
(-0.0011988894 0 0.0014976638)
(-0.0011987371 0 0.0014992601)
(-0.0011985345 0 0.0015011482)
(-0.0011982667 0 0.001503374)
(-0.0011979136 0 0.0015059904)
(-0.0011974481 0 0.0015090565)
(-0.0011968352 0 0.0015126344)
(-0.0011960274 0 0.0015167899)
(-0.001194964 0 0.001521584)
(-0.0011935635 0 0.0015270714)
(-0.0011917216 0 0.001533288)
(-0.0011893009 0 0.001540237)
(-0.0011861258 0 0.0015478662)
(-0.0011819861 0 0.0015560353)
(-0.001176649 0 0.0015641361)
(-0.0011697767 0 0.0015716258)
(-0.0011609644 0 0.0015775484)
(-0.0011497461 0 0.001580454)
(-0.0011356063 0 0.0015782747)
(-0.0011180197 0 0.0015680815)
(-0.001096509 0 0.0015457983)
(-0.0010706913 0 0.0015065142)
(-0.0010404341 0 0.0014438446)
(-0.0010058216 0 0.0013509987)
(-0.000967222 0 0.0012216092)
(-0.00092527781 0 0.0010495961)
(-0.00088081364 0 0.00083110613)
(-0.00083471711 0 0.00056570181)
(-0.0007877468 0 0.00025560044)
(-0.00074047843 0 -9.3789518e-05)
(-0.00069330293 0 -0.00047338073)
(-0.00064664774 0 -0.00087157602)
(-0.00060082988 0 -0.0012752046)
(-0.00055632422 0 -0.0016708315)
(-0.00051352664 0 -0.0020463081)
(-0.00047288313 0 -0.0023905297)
(-0.00043462678 0 -0.0026952954)
(-0.00039901705 0 -0.0029548609)
(-0.0003660707 0 -0.0031653239)
(-0.00033581232 0 -0.0033240423)
(-0.00030791764 0 -0.0034290208)
(-0.00028214821 0 -0.003477242)
(-0.00025764933 0 -0.0034639081)
(-0.0002341471 0 -0.0033851469)
(-0.00021053913 0 -0.003230018)
(-0.00018629716 0 -0.0029923543)
(-0.0001592709 0 -0.0026485263)
(-0.00012663145 0 -0.0021596899)
(-8.5829722e-05 0 -0.0014857488)
(-3.1289305e-05 0 -0.00054830914)
(-0.0011879513 0 0.0016252123)
(-0.0011877806 0 0.0016269182)
(-0.0011875556 0 0.0016289363)
(-0.0011872603 0 0.0016313162)
(-0.0011868737 0 0.001634115)
(-0.0011863671 0 0.0016373974)
(-0.0011857037 0 0.0016412308)
(-0.001184834 0 0.0016456865)
(-0.0011836943 0 0.0016508343)
(-0.0011821997 0 0.0016567379)
(-0.0011802415 0 0.0016634427)
(-0.001177677 0 0.0016709655)
(-0.0011743248 0 0.0016792731)
(-0.0011699924 0 0.0016880387)
(-0.0011644227 0 0.0016968719)
(-0.0011572646 0 0.001705158)
(-0.0011481107 0 0.0017119023)
(-0.0011364891 0 0.0017156464)
(-0.0011218873 0 0.0017142809)
(-0.0011037981 0 0.0017047838)
(-0.0010817852 0 0.0016827642)
(-0.0010555191 0 0.0016431178)
(-0.0010248921 0 0.0015797443)
(-0.00099003615 0 0.0014857952)
(-0.00095145078 0 0.0013543711)
(-0.00090973611 0 0.0011803912)
(-0.00086584405 0 0.00095924227)
(-0.00082059568 0 0.0006911186)
(-0.00077474305 0 0.00037798691)
(-0.00072872903 0 2.576363e-05)
(-0.00068289147 0 -0.00035688719)
(-0.00063753469 0 -0.00075794589)
(-0.0005929589 0 -0.0011647437)
(-0.00054959601 0 -0.0015640394)
(-0.00050782173 0 -0.001943829)
(-0.00046806539 0 -0.0022930919)
(-0.00043056549 0 -0.002603574)
(-0.00039556952 0 -0.0028689865)
(-0.00036314393 0 -0.0030860725)
(-0.00033330243 0 -0.0032515753)
(-0.00030574481 0 -0.0033633882)
(-0.00028022629 0 -0.0034181867)
(-0.00025596024 0 -0.0034113431)
(-0.00023263291 0 -0.0033386928)
(-0.00020919482 0 -0.0031897039)
(-0.00018504944 0 -0.0029574035)
(-0.00015810515 0 -0.0026185074)
(-0.00012564446 0 -0.0021356521)
(-8.5019648e-05 0 -0.0014678364)
(-3.0822156e-05 0 -0.00053866878)
(-0.0011766171 0 0.0017499608)
(-0.001176427 0 0.0017517755)
(-0.001176178 0 0.0017539229)
(-0.0011758536 0 0.001756456)
(-0.0011754312 0 0.0017594363)
(-0.0011748808 0 0.0017629334)