/*--------------------------------*- C++ -*----------------------------------*\
  =========                 |
  \\      /  F ield         | OpenFOAM: The Open Source CFD Toolbox
   \\    /   O peration     | Website:  https://openfoam.org
    \\  /    A nd           | Version:  8
     \\/     M anipulation  |
\*---------------------------------------------------------------------------*/
FoamFile
{
    version     2.0;
    format      ascii;
    class       volScalarField;
    location    "0.159995";
    object      Ma;
}
// * * * * * * * * * * * * * * * * * * * * * * * * * * * * * * * * * * * * * //

dimensions      [0 0 0 0 0 0 0];

internalField   nonuniform List<scalar> 
20000
(
0.71126743
0.82448759
0.89741383
0.9607766
1.0210902
1.0797124
1.1256516
1.1371607
1.132726
1.1341296
1.1304626
1.1299319
1.1265803
1.1245614
1.1205825
1.1168748
1.1116456
1.1058137
1.0984685
1.089747
1.0791411
1.0663949
1.0511762
1.0331666
1.0122656
0.9885458
0.96266625
0.9356608
0.90893644
0.88376762
0.86111598
0.84140006
0.82469604
0.81082625
0.79956368
0.79057445
0.7835161
0.77799265
0.77365243
0.77030769
0.76777408
0.76584255
0.76432355
0.76310652
0.76194355
0.76060121
0.75956721
0.75830643
0.75877382
0.75397932
0.71153147
0.8256127
0.89937389
0.96336743
1.024237
1.0834317
1.1275641
1.1380219
1.133162
1.134703
1.1308545
1.1304803
1.126844
1.1247936
1.1207571
1.1169902
1.1117078
1.1058186
1.0984345
1.0896692
1.0790451
1.0662917
1.0510977
1.0331382
1.0123203
0.98870828
0.96291625
0.93596725
0.90922133
0.88396711
0.86120258
0.84141096
0.82466887
0.81079171
0.79953721
0.79057562
0.78354628
0.77807257
0.77384114
0.77053437
0.76799936
0.76605533
0.7645166
0.76325036
0.76198163
0.76062893
0.75943283
0.75838945
0.75792221
0.75419697
0.71189646
0.82710845
0.90154853
0.96610217
1.0274904
1.0873036
1.1289858
1.1383436
1.1329917
1.1345377
1.1306223
1.1302385
1.1265832
1.1244816
1.1203839
1.1165373
1.1111894
1.1051928
1.097719
1.0888482
1.0781543
1.0653551
1.0501698
1.0322744
1.01158
0.98813722
0.96251066
0.93567243
0.90896759
0.88370585
0.86091419
0.84110449
0.82437745
0.81054907
0.79935434
0.79045218
0.78347421
0.77807103
0.77391814
0.77067163
0.76814361
0.76619237
0.76463333
0.76332212
0.76199449
0.76063279
0.75941859
0.75838752
0.7576438
0.75424026
0.71170681
0.82787347
0.90298019
0.96810809
1.0300235
1.0904908
1.1295916
1.1374982
1.1322711
1.1339111
1.1298413
1.1293766
1.125654
1.1234638
1.1192656
1.1152891
1.1098215
1.1036656
1.0960491
1.0870145
1.0761939
1.0632933
1.0480731
1.0302173
1.0096534
0.9864312
0.96106852
0.93446752
0.90794753
0.88283598
0.86016416
0.84045008
0.82382943
0.81012739
0.79905569
0.79025424
0.78335735
0.7780021
0.77390682
0.77074593
0.76826862
0.76632467
0.76474451
0.76337029
0.76200663
0.76062961
0.75939216
0.75838681
0.7571491
0.75429952
0.71103458
0.82810239
0.90386051
0.96957207
1.0319911
1.0931001
1.1293699
1.1362115
1.1307982
1.1323911
1.1282727
1.1277641
1.1239685
1.1216894
1.1173947
1.1132848
1.1076936
1.1013665
1.0935938
1.0843724
1.0733849
1.0603232
1.0449867
1.0270727
1.0065404
0.98345903
0.95834567
0.93208388
0.90592301
0.88114055
0.8587547
0.83930558
0.82292592
0.80944643
0.79856679
0.7899333
0.78317211
0.77789983
0.77384916
0.77073593
0.76831882
0.76639647
0.76480294
0.76338768
0.7620096
0.76061408
0.75937487
0.75836947
0.75679134
0.75435011
0.70988417
0.82785727
0.90429132
0.97061218
1.0335322
1.0952409
1.1284397
1.1344077
1.1288468
1.1305018
1.1262535
1.1257064
1.1218161
1.1194347
1.1150321
1.11077
1.1050383
1.098521
1.0905669
1.081127
1.0699306
1.056654
1.0411332
1.0230834
1.0025036
0.97949971
0.95461146
0.92871321
0.90300369
0.87869798
0.85676342
0.83772095
0.82169902
0.80853052
0.79790789
0.78948499
0.78289171
0.77774946
0.77376543
0.77069159
0.76831222
0.76641719
0.76482191
0.76339217
0.76200011
0.76058878
0.7593486
0.75833698
0.75641913
0.75440129
0.70857573
0.82741182
0.90451057
0.97144481
1.034859
1.0970685
1.1269803
1.1322612
1.1265627
1.1282186
1.1238742
1.1232712
1.1192876
1.1167942
1.1122796
1.1078568
1.1019774
1.0952568
1.0871058
1.0774246
1.0659851
1.0524475
1.0366812
1.0184224
0.99771618
0.97471863
0.95001464
0.92448944
0.89929935
0.87557962
0.85422502
0.8357152
0.82015784
0.80738232
0.79707757
0.78891153
0.78252141
0.77753022
0.77364867
0.77062533
0.76827727
0.76640512
0.76481841
0.76338836
0.761977
0.76055448
0.75931611
0.75826981
0.75611157
0.75443862
0.70713838
0.82681164
0.90457986
0.97213331
1.0360565
1.0986083
1.125051
1.1298528
1.1240148
1.1256793
1.1212242
1.1205561
1.1164714
1.1138547
1.1092241
1.1046313
1.0985957
1.0916587
1.0832915
1.0733445
1.0616295
1.0477907
1.0317288
1.0132041
0.99231137
0.96926766
0.9447162
0.91956542
0.89493637
0.87188347
0.85121114
0.83333533
0.81833243
0.80602162
0.79608898
0.78821908
0.78206244
0.77724666
0.77348389
0.77053802
0.76822665
0.76637698
0.76480341
0.76337839
0.76194045
0.76051142
0.75927233
0.75814515
0.75585216
0.75445161
0.70566782
0.82613896
0.90455038
0.97273231
1.0371611
1.0999043
1.1226631
1.1272003
1.1212255
1.1228813
1.1183218
1.1175803
1.1133995
1.1106556
1.1059095
1.1011401
1.0949402
1.0877734
1.0791734
1.06894
1.0569209
1.0427462
1.0263464
1.0075091
0.98638255
0.96325279
0.93883123
0.91405803
0.89002339
0.86769773
0.84778558
0.83062559
0.81625188
0.80446698
0.79495363
0.78741574
0.78152046
0.77689979
0.77327291
0.77041866
0.76816163
0.76633916
0.76478104
0.7633565
0.76189091
0.7604598
0.75921579
0.75795142
0.75565364
0.75444434
0.7041161
0.82537476
0.9044171
0.9732351
1.0381909
1.1009161
1.1198789
1.124318
1.1182156
1.1198608
1.1152035
1.1143856
1.1101125
1.1072359
1.1023716
1.0974156
1.0910409
1.0836307
1.07478
1.0642387
1.0518875
1.0373456
1.0205716
1.0013849
0.97999032
0.95675042
0.93244993
0.90806469
0.88465428
0.86310423
0.84401322
0.82763341
0.81394921
0.80274084
0.79368643
0.78651095
0.78090121
0.77649409
0.77301662
0.7702648
0.7680742
0.7662893
0.76474852
0.76331678
0.76182868
0.76040061
0.75914575
0.75770634
0.7554915
0.75442099
0.70253032
0.82456718
0.90423013
0.97367993
1.0391928
1.1016285
1.1170579
1.1212399
1.115021
1.1166494
1.1119011
1.1110007
1.106637
1.103619
1.0986306
1.0934765
1.0869157
1.0792483
1.0701298
1.0592604
1.046551
1.0316133
1.0144344
0.99486936
0.97318372
0.94982282
0.92564762
0.90166878
0.878913
0.85817877
0.83995606
0.82440597
0.8114583
0.80086662
0.79230313
0.78551538
0.78021186
0.776034
0.7727182
0.77007755
0.76796013
0.76622029
0.76469911
0.76325933
0.76175414
0.76033485
0.75906376
0.75743583
0.75534255
0.75438483
0.70091293
0.82375418
0.90402481
0.97409787
1.0402161
1.102022
1.1139373
1.1180026
1.1116737
1.1132771
1.1084408
1.1074476
1.1029899
1.0998181
1.0946978
1.0893341
1.0825764
1.0746386
1.0652333
1.0540142
1.0409205
1.0255607
1.00795
0.98798403
0.96599407
0.94251406
0.91848127
0.89493651
0.87286883
0.85298673
0.83567017
0.82098768
0.80881233
0.79886812
0.79082021
0.78444023
0.77945997
0.77552478
0.7723807
0.76985876
0.76782055
0.76613004
0.76463011
0.76318379
0.76166839
0.76026325
0.75897092
0.75715067
0.75519694
0.75433814
0.6993028
0.82296223
0.90382807
0.97452361
1.041308
1.1020787
1.110622
1.1146253
1.108191
1.109756
1.1048312
1.1037317
1.0991757
1.0958381
1.09058
1.0849969
1.0780311
1.0698082
1.0600965
1.0485066
1.0350038
1.019198
1.0011323
0.98074915
0.95845093
0.93486556
0.91100398
0.88792968
0.86658657
0.84758974
0.8312092
0.81742192
0.80604437
0.79676941
0.78925459
0.78329729
0.77865374
0.774972
0.77200785
0.76961069
0.76765652
0.76601881
0.76454127
0.76309017
0.76157264
0.76018603
0.75886605
0.75685913
0.75505034
0.75428274
0.69769048
0.82216713
0.90363387
0.97494398
1.0424426
1.1017768
1.1071112
1.1111103
1.1045723
1.1060857
1.1010707
1.0998531
1.0951963
1.0916846
1.0862838
1.0804717
1.0732849
1.0647607
1.0547211
1.0427385
1.0288025
1.0125282
0.99398728
0.97317592
0.95057432
0.92690831
0.9032576
0.88069841
0.86011996
0.84204016
0.82661998
0.81374769
0.80318503
0.79459339
0.78762271
0.78209823
0.77780147
0.7743815
0.77160348
0.76933583
0.76746956
0.76588731
0.76443284
0.76297864
0.76146692
0.76010235
0.75874311
0.75656833
0.75490274
0.75422061
0.69611783
0.82139959
0.90348179
0.9753869
1.0436258
1.1009695
1.1034238
1.1074493
1.1008125
1.1022603
1.0971583
1.0958141
1.0910585
1.0873652
1.0818162
1.0757628
1.0683388
1.0594953
1.0491063
1.0367105
1.0223185
1.0055548
0.98652182
0.96527728
0.94238625
0.91867504
0.89528477
0.87329182
0.85352046
0.83638765
0.82194695
0.81000223
0.80026386
0.79236233
0.78594079
0.78085482
0.77691169
0.77375927
0.77117166
0.76903681
0.76726128
0.76573621
0.76430525
0.76285049
0.76135086
0.76000995
0.75859076
0.75628729
0.75475587
0.75414948
0.69454004
0.82062194
0.9033407
0.97583106
1.044792
1.099704
1.0996125
1.1036326
1.096909
1.0982851
1.0931034
1.0916263
1.086772
1.0828872
1.0771798
1.0708698
1.0631904
1.0540096
1.04325
1.0304205
1.0155498
0.9982768
0.97873761
0.95706057
0.9339033
0.91019245
0.88712115
0.8657511
0.84683149
0.83067441
0.81722836
0.80621819
0.79730723
0.79009649
0.78422393
0.77957832
0.7759927
0.77311127
0.77071642
0.76871629
0.76703332
0.76556637
0.76415918
0.76270777
0.76122646
0.7599058
0.75839527
0.75602552
0.75461209
0.75407169
0.69294493
0.81984697
0.90322765
0.97630091
1.0459192
1.0979746
1.095693
1.0996862
1.0928835
1.0941792
1.0889206
1.0872998
1.082342
1.0782507
1.0723713
1.0657879
1.0578352
1.0483004
1.0371498
1.0238666
1.0084951
0.99069405
0.97063808
0.94853641
0.92514563
0.90149094
0.87880458
0.85811835
0.8400958
0.82494108
0.81250062
0.80242642
0.79433999
0.78781502
0.78248669
0.77827972
0.77505265
0.77244345
0.77024183
0.76837697
0.76678736
0.76537868
0.76399536
0.76255222
0.76109729
0.75978784
0.75814881
0.75578844
0.75447329
0.75398894
0.69136536
0.81910605
0.90318065
0.9768496
1.046996
1.0958004
1.0916499
1.0956245
1.0887476
1.0899501
1.0846135
1.0828335
1.0777633
1.0734489
1.0673834
1.0605123
1.0522696
1.042365
1.0308024
1.0170446
1.0011496
0.98280286
0.9622232
0.93971211
0.91613026
0.89259706
0.8703682
0.85043006
0.83335017
0.81922241
0.80779484
0.79865342
0.79138371
0.78553485
0.78074235
0.77696909
0.7740991
0.77176149
0.76975179
0.76802147
0.76652509
0.76517417
0.76381477
0.76238509
0.76096547
0.75965571
0.7578618
0.75556824
0.7543387
0.75390401
0.6897948
0.81839651
0.90320421
0.97749679
1.0479587
1.0931577
1.0875019
1.0914493
1.0844999
1.085593
1.0801734
1.0782168
1.0730257
1.0684735
1.0622108
1.0550395
1.0464912
1.0362007
1.0242043
1.00995
0.99350894
0.97460075
0.95349584
0.93059913
0.90687908
0.88354148
0.86184819
0.84272404
0.82663133
0.813552
0.80314034
0.79492382
0.78845836
0.78327198
0.77900343
0.77565569
0.77313917
0.77107088
0.7692501
0.7676524
0.76624822
0.7649539
0.76361865
0.76220785
0.76083099
0.75950982
0.75755151
0.75535318
0.75420881
0.75382626
0.68826547
0.81772941
0.90331295
0.97827986
1.0487525
1.0900234
1.08324
1.0871488
1.0801256
1.0810916
1.075586
1.0734379
1.0681212
1.0633209
1.0568514
1.049369
1.0404983
1.0298037
1.0173495
1.0025753
0.98556596
0.96608246
0.9444567
0.92120705
0.89741237
0.87435243
0.85327757
0.83503425
0.81997151
0.80795845
0.79856151
0.79125814
0.78558113
0.78104062
0.77728073
0.77434733
0.77217932
0.7703766
0.76874031
0.76727222
0.7659584
0.76471896
0.76340847
0.76202261
0.76069247
0.75934953
0.75722564
0.75514162
0.75408438
0.75375226
0.68675308
0.8170628
0.90345841
0.97918936
1.0492885
1.0863449
1.0788423
1.082701
1.0756062
1.0764326
1.0708435
1.0684944
1.0630503
1.057993
1.0513065
1.0435
1.0342872
1.0231684
1.0102309
0.99491287
0.97731395
0.9572449
0.93510995
0.91155068
0.88775558
0.86506318
0.84469286
0.82739689
0.81340334
0.80246914
0.79408058
0.78767499
0.78276797
0.77885413
0.77558336
0.77305088
0.77122592
0.76968315
0.76822582
0.76688329
0.76565727
0.76447056
0.7631859
0.76183197
0.76054879
0.75917178
0.75689175
0.75493458
0.75396646
0.75368331
0.68521727
0.81637088
0.90360301
0.98022351
1.0494774
1.0822061
1.0742948
1.0781025
1.070941
1.0716191
1.0659518
1.0633925
1.0578177
1.0524925
1.0455754
1.0374295
1.0278522
1.0162867
1.0028389
0.98695287
0.96874404
0.94808323
0.92545866
0.9016442
0.87793337
0.85570567
0.83612861
0.81984506
0.80695499
0.79710638
0.78971495
0.78418917
0.78003218
0.77672308
0.77391737
0.77177275
0.77028526
0.76899446
0.76770973
0.7664878
0.76534639
0.76420996
0.76295262
0.76163795
0.76039959
0.75897037
0.75655807
0.75473521
0.75385792
0.75362367
0.68364261
0.81564503
0.90375298
0.98142878
1.0492596
1.0780966
1.0696067
1.0733673
1.0661454
1.0666646
1.0609207
1.0581384
1.0524256
1.0468189
1.0396543
1.0311512
1.0211849
1.0091487
0.99516328
0.97868529
0.95984869
0.93859543
0.91551094
0.89150771
0.8679764
0.84631687
0.8276231
0.81241258
0.80065292
0.79189011
0.7854802
0.78081402
0.77738516
0.77465445
0.77228659
0.77052076
0.76936349
0.7683145
0.76719487
0.76608783
0.76502726
0.76393857
0.76271056
0.76144119
0.76024166
0.75873592
0.75623453
0.75454714
0.75375674
0.75356798
0.68207319
0.8149287
0.90392371
0.98282955
1.0486178
1.0738099
1.0648089
1.0685139
1.0612317
1.0615752
1.0557523
1.0527312
1.0468709
1.040967
1.033536
1.0246564
1.0142748
1.0017431
0.98719229
0.97009868
0.95061869
0.92877887
0.90527471
0.88116196
0.85791555
0.83693306
0.81921193
0.80512754
0.79451664
0.78683506
0.78138939
0.77756077
0.77483461
0.77264947
0.77069483
0.7693042
0.76846503
0.76764768
0.76668359
0.76568521
0.76470129
0.76365793
0.76246196
0.76124202
0.7600679
0.75845661
0.75593151
0.75437314
0.75366329
0.75351531
0.68056561
0.81424986
0.90413205
0.98445429
1.047518
1.0692192
1.0598989
1.0635381
1.056194
1.0563451
1.0504411
1.0471659
1.0411469
1.0349294
1.0272107
1.0179342
1.0071103
0.99405779
0.97891387
0.96118185
0.94104702
0.91863473
0.89476422
0.87063439
0.84778856
0.82759534
0.81093053
0.79801382
0.7885616
0.78195475
0.7774574
0.77444138
0.77238552
0.77070598
0.76915165
0.76813144
0.76759114
0.76699875
0.76617777
0.76528158
0.76436982
0.7633697
0.7622093
0.7610417
0.7598734
0.75812588
0.75565601
0.75421425
0.75357785
0.75346763
0.67904646
0.81355545
0.90430873
0.98623301
1.0458478
1.0644234
1.0548653
1.0584283
1.0510247
1.0509693
1.0449818
1.0414358
1.0352446
1.028696
1.0206673
1.0109732
0.9996791
0.98607943
0.97031455
0.95192216
0.93112561
0.90816441
0.88399477
0.85995398
0.83763357
0.81834185
0.80280559
0.79108532
0.78279814
0.77726171
0.77369978
0.77146696
0.77003994
0.76882443
0.7676726
0.76700535
0.7667401
0.76637052
0.76567895
0.76487834
0.76403415
0.76307566
0.76195505
0.76084166
0.7596596
0.75775784
0.75540266
0.75406933
0.75350103
0.75342596
0.67754021
0.81289189
0.9044918
0.98815405
1.0435972
1.0594555
1.0497102
1.053186
1.0457234
1.0454427
1.0393669
1.0355313
1.0291528
1.0222561
1.0138946
1.0037615
0.99196836
0.97779424
0.96138061
0.94230797
0.92084931
0.89737505
0.87298923
0.84915766
0.82749397
0.80920981
0.79485654
0.78435253
0.77724159
0.77277388
0.77013192
0.76864587
0.76779948
0.7670179
0.76626688
0.76592505
0.76591221
0.7657606
0.76518905
0.76447672
0.76369554
0.7627777
0.76170151
0.76064231
0.75942999
0.75737609
0.75516123
0.75393656
0.75343156
0.75338938
0.67602868
0.81224073
0.90469156
0.99016572
1.0407294
1.0543824
1.0444276
1.0478044
1.0402799
1.0397544
1.0335842
1.0294409
1.0228605
1.0155996
1.0068812
0.99628666
0.98396405
0.96918707
0.9520967
0.93232655
0.91021274
0.88627558
0.86177274
0.83828409
0.81741039
0.80022647
0.78709253
0.7778297
0.7719185
0.76851378
0.76675987
0.7659764
0.76566585
0.76530544
0.7649271
0.76489055
0.76511626
0.76516075
0.76471063
0.76407772
0.76335517
0.76247776
0.76145069
0.76044307
0.75918514
0.75699176
0.754931
0.75381413
0.75336622
0.75335839
0.67448853
0.81159815
0.90492176
0.99218023
1.0372023
1.0491262
1.0390142
1.0422709
1.0346823
1.0338919
1.0276223
1.023156
1.0163588
1.0087172
0.99961565
0.98853483
0.97565099
0.96024164
0.94244743
0.92196657
0.89921549
0.87488217
0.85037941
0.82737811
0.80742314
0.79141109
0.77952671
0.77155304
0.76686435
0.76449914
0.7635764
0.76344901
0.7636429
0.76369388
0.76364146
0.76390523
0.76436412
0.76456489
0.76424629
0.76368222
0.76301421
0.76217781
0.76120402
0.76024237
0.7589238
0.75661319
0.75471295
0.75370073
0.75330301
0.7533308
0.67291643
0.81097346
0.90521942
0.99409903
1.0330324
1.0437026
1.0334456
1.0365679
1.0289195
1.0278467
1.0214748
1.0166709
1.0096396
1.001598
0.99208427
0.98049052
0.96701246
0.95093993
0.93241606
0.91121645
0.88785903
0.86321447
0.83884628
0.81648304
0.79756267
0.78277328
0.77219184
0.76557105
0.76210407
0.76072537
0.76056193
0.76105696
0.76173659
0.76217402
0.76241179
0.76297428
0.76365562
0.76397681
0.7637959
0.76329106
0.76267373
0.76187973
0.76096211
0.76003665
0.75864179
0.75624952
0.7545093
0.7535962
0.75324438
0.75330621
0.671248
0.81033204
0.90559355
0.99580932
1.0285486
1.0380936
1.0277138
1.0306951
1.0229883
1.0216187
1.0151386
1.0099795
1.0026914
0.99422868
0.98427111
0.9721366
0.95802993
0.941263
0.92198582
0.9000683
0.87615168
0.85130182
0.82721844
0.80564349
0.78785259
0.77433114
0.76514773
0.75992582
0.75763997
0.75716242
0.75771446
0.75880405
0.75994854
0.76073627
0.76124693
0.7620984
0.7629834
0.76340823
0.76335513
0.76290515
0.76233484
0.76158531
0.76072482
0.75982028
0.75833001
0.75591115
0.75432277
0.75350165
0.75319224
0.75328613
0.66946427
0.80968372
0.9060811
0.99720092
1.0236807
1.0323325
1.0218378
1.0246585
1.0168911
1.0152069
1.0086059
1.00307
0.99549893
0.98659294
0.97615946
0.96345427
0.94868302
0.93118978
0.91113941
0.88851554
0.86410588
0.8391777
0.81554134
0.79489586
0.77830736
0.7661313
0.7584528
0.75463675
0.75343622
0.75379547
0.75504749
0.75669471
0.75827281
0.75937836
0.76014503
0.76127403
0.7623438
0.76287079
0.76291927
0.76252548
0.76199871
0.76129618
0.76049163
0.75958777
0.75797971
0.75560591
0.75415537
0.75341867
0.75314807
0.75327096
0.66760091
0.80904396
0.90670702
0.99821353
1.0184049
1.0264275
1.0158179
1.0184546
1.0106224
1.0085982
1.0018606
0.99592539
0.98804504
0.97867454
0.96773122
0.95442245
0.93894918
0.92069847
0.89986162
0.87655805
0.85174384
0.82688549
0.80386365
0.78427139
0.76894964
0.75825117
0.75215106
0.74968078
0.74946233
0.75064276
0.75255836
0.75472764
0.7567052
0.75809816
0.75910614
0.76049811
0.76173646
0.76236593
0.76248857
0.76215285
0.7616666
0.7610138
0.76026189
0.75933636
0.7575942
0.75533263
0.75400672
0.75334804
0.75311205
0.75326053
0.66570292
0.80843018
0.9074883
0.99876502
1.0128063
1.0203715
1.0096405
1.0120675
1.0041646
1.001771
0.99488334
0.9885303
0.98031437
0.97045676
0.95896605
0.94501716
0.9288034
0.90976614
0.88813862
0.86419975
0.8390939
0.8144711
0.79222853
0.77379181
0.75983125
0.75076083
0.74626048
0.74500151
0.74573109
0.74770537
0.75024405
0.75289884
0.75524167
0.75689343
0.75812849
0.75976993
0.76116419
0.76188698
0.76206584
0.7617879
0.76133985
0.76073943
0.76003502
0.759067
0.75719142
0.75508065
0.75387378
0.753289
0.75308547
0.75325736
0.66381727
0.80784824
0.90840291
0.99875288
1.0068812
1.0141446
1.0032831
1.0054713
0.99749645
0.99470838
0.98765902
0.98087333
0.97229216
0.9619198
0.94983939
0.93521099
0.91821913
0.89837121
0.87596164
0.85145461
0.8261952
0.80198682
0.78067662
0.76348335
0.75103922
0.74371214
0.74074563
0.7405814
0.74225666
0.74497953
0.74809962
0.75120369
0.75387792
0.75576169
0.75721069
0.75908992
0.76062689
0.76142989
0.76165197
0.76143163
0.76101986
0.76047406
0.75981015
0.7587825
0.75678727
0.75484321
0.75375376
0.75323984
0.75306816
0.75326327
0.66196752
0.80732195
0.9093995
0.99769175
1.0006668
1.0077183
0.99672517
0.99864739
0.99060527
0.98740575
0.9801786
0.97294253
0.96395881
0.95303768
0.94032196
0.92497399
0.90716894
0.88649302
0.86332604
0.83834298
0.81309189
0.78948143
0.76924003
0.7533943
0.74265834
0.73712663
0.73553909
0.73644881
0.73903438
0.74245916
0.74611902
0.7496365
0.7526091
0.75469982
0.7563508
0.75845879
0.76012277
0.76099168
0.76124718
0.76108536
0.76070787
0.76021826
0.75958522
0.75848439
0.75639062
0.75462067
0.75364579
0.75319941
0.75305991
0.7532745
0.66016799
0.80690501
0.91042738
0.9958925
0.99417937
1.0010809
0.98996606
0.99159461
0.98349006
0.97986036
0.97242975
0.96471695
0.95528595
0.94377807
0.9303813
0.91427501
0.89562602
0.87411478
0.85023597
0.82489713
0.79983668
0.77700355
0.7579507
0.74361467
0.73475487
0.7309698
0.73062698
0.73261506
0.73605916
0.74013733
0.74429581
0.74819138
0.75143028
0.75370463
0.75554696
0.75787673
0.75964955
0.76057092
0.76085227
0.76074943
0.76040495
0.75997186
0.75935609
0.75816899
0.75601101
0.75441568
0.75355
0.75316694
0.7530547
0.75328871
0.65845997
0.80667125
0.91136604
0.99324658
0.98741086
0.99424348
0.9830165
0.98431574
0.97614545
0.97205445
0.96438665
0.9561636
0.94623829
0.93410589
0.91998442
0.90308323
0.88356427
0.86122344
0.83670252
0.81115661
0.78648198
0.76459481
0.74685004
0.73424876
0.72736364
0.72516867
0.72604126
0.72907394
0.73332259
0.73800577
0.74262261
0.74686178
0.75033615
0.75277274
0.75479738
0.75734245
0.75920413
0.76016715
0.76047053
0.76042179
0.7601119
0.75973362
0.75911684
0.75782647
0.75566116
0.75423176
0.7534666
0.75314039
0.75305333
0.75330406
0.65684379
0.80659852
0.91212334
0.98976526
0.98041208
0.9872016
0.97586859
0.97679509
0.96854369
0.96395333
0.95600963
0.94724431
0.93677927
0.92398654
0.90909905
0.89136785
0.87096029
0.8478131
0.82274961
0.79717223
0.77308362
0.75229642
0.73602326
0.72538313
0.72046396
0.71970106
0.72179639
0.72581881
0.73081584
0.73605598
0.74109199
0.74564118
0.74932157
0.75190144
0.75410145
0.75685236
0.75878277
0.75977942
0.76010558
0.76010072
0.75982935
0.75950096
0.75886229
0.75744917
0.75535252
0.75407064
0.75339493
0.75311817
0.75305487
0.75331968
0.65536832
0.80673813
0.91273566
0.98535164
0.97316873
0.97992897
0.96848352
0.96898912
0.96063968
0.95551313
0.94725705
0.93792344
0.92687542
0.91338713
0.89769256
0.87909788
0.85779253
0.8338848
0.80840951
0.78299863
0.7596928
0.74015051
0.72558654
0.71706935
0.71398428
0.71459594
0.71788798
0.72283936
0.72852829
0.73427848
0.73969583
0.74452258
0.74838135
0.75108869
0.75346048
0.75639984
0.75838205
0.75940685
0.75975787
0.75978672
0.75955776
0.75927044
0.75859141
0.75704822
0.75508352
0.75393047
0.75333367
0.7530995
0.75305824
0.75333504
0.65401052
0.80719623
0.91300063
0.97990386
0.96565712
0.97237409
0.96081246
0.96084468
0.95238733
0.94669677
0.93809589
0.92817127
0.9164959
0.90227356
0.88573023
0.86624233
0.84404482
0.81945116
0.79372768
0.76869618
0.74636261
0.72823034
0.71564986
0.70931362
0.70788493
0.7098745
0.71430824
0.72012473
0.72644918
0.73266385
0.73842614
0.74349921
0.74751073
0.75033314
0.75287649
0.75597691
0.75800041
0.75905006
0.75942527
0.75948019
0.75929755
0.75903982
0.7583078
0.75664759
0.75484162
0.75380758
0.75328205
0.75308482
0.75306403
0.75334982
0.65267548
0.80794942
0.91275448
0.97339221
0.95783893
0.96447503
0.95281076
0.95232428
0.94375754
0.93748311
0.92850147
0.91795913
0.90560701
0.89060838
0.87317508
0.85277104
0.82970689
0.80453497
0.7787561
0.7543225
0.7331419
0.71665128
0.70629304
0.7020577
0.70218117
0.70553773
0.71104536
0.71766197
0.72456665
0.73120202
0.73727447
0.74256411
0.74670509
0.749633
0.75234677
0.75557925
0.75763758
0.75870954
0.75910563
0.75918135
0.75904853
0.75881236
0.75801579
0.7562604
0.75462141
0.75369978
0.75324059
0.75307537
0.75307363
0.75336389
0.65125009
0.80898572
0.91179129
0.96622598
0.94967005
0.95619203
0.94445627
0.94341712
0.93473654
0.92785637
0.91844642
0.9072511
0.89416899
0.87834945
0.85998849
0.8386574
0.81477964
0.78917372
0.76355708
0.73993835
0.72009319
0.70555123
0.69755649
0.69523842
0.69690569
0.7015769
0.70808661
0.71543792
0.722869
0.72988322
0.73623271
0.74171069
0.74596025
0.74898592
0.75186443
0.75520662
0.75729285
0.75838438
0.75879905
0.75889246
0.75880841
0.75859282
0.75771608
0.75589437
0.75442265
0.75360698
0.75320901
0.75306899
0.75308615
0.75337759
0.64967608
0.81034095
0.90997354
0.95924425
0.94117938
0.94754093
0.93576024
0.93412605
0.92529986
0.91778572
0.90789072
0.89600222
0.88213633
0.86545162
0.84613189
0.82387994
0.79927495
0.77341496
0.7481943
0.72560416
0.70732324
0.69504127
0.68940808
0.68884964
0.69206818
0.69797926
0.70541676
0.71343815
0.72134386
0.72869732
0.73529248
0.74093237
0.7452721
0.74838906
0.75142415
0.75485735
0.75696456
0.75807291
0.75850655
0.75861864
0.75857312
0.75836641
0.75740285
0.75555789
0.75424639
0.75352856
0.7531865
0.75306693
0.7531026
0.75339151
0.64789414
0.81206165
0.90722835
0.95139931
0.93242289
0.93852301
0.92670837
0.9244152
0.91540649
0.90722373
0.89678496
0.88416264
0.8694594
0.8518681
0.83156842
0.80842729
0.78321992
0.75732041
0.73273712
0.71139055
0.69498533
0.68519499
0.68176911
0.68293378
0.68765955
0.69473026
0.70302018
0.71164843
0.71997934
0.72763464
0.7344459
0.74022308
0.74463686
0.74783937
0.75102122
0.75452939
0.75665088
0.75777373
0.75822804
0.75836292
0.7583394
0.75813312
0.75706718
0.75525945
0.75409258
0.75346194
0.75317081
0.7530736
0.75312102
0.75340859
0.64597638
0.81415539
0.90348869
0.94293311
0.92333578
0.92908093
0.91724057
0.91423197
0.90500465
0.89611911
0.88507671
0.87167903
0.85608744
0.83755139
0.8162658
0.79229881
0.76665493
0.74095707
0.71725679
0.69739166
0.68322273
0.67601805
0.67460782
0.67751102
0.68366651
0.69181222
0.70087955
0.71005375
0.71876314
0.72668531
0.73368495
0.7395768
0.7440507
0.74733342
0.75065107
0.75422022
0.75635084
0.75748741
0.75796346
0.75812222
0.75810823
0.7578854
0.75670874
0.75500095
0.75395983
0.75340498
0.75315826
0.75308364
0.75314385
0.75342885
0.64382772
0.81640262
0.89855233
0.93391919
0.91386517
0.91915218
0.90730724
0.90352728
0.89403889
0.88441969
0.87271153
0.8584956
0.84196611
0.82245372
0.80019917
0.77550945
0.74963653
0.72440025
0.70183328
0.68375687
0.67214843
0.66744406
0.6679614
0.67257714
0.68007261
0.68920677
0.69897778
0.70863961
0.7176836
0.72584002
0.73300219
0.73898803
0.74351005
0.74686767
0.75030908
0.75392785
0.75606477
0.75721577
0.75771312
0.75789148
0.75788038
0.75762714
0.75634308
0.75477188
0.75384516
0.75335965
0.75315191
0.75309723
0.75316864
0.75345053
0.64147773
0.81864422
0.89248422
0.9243896
0.9039726
0.90869481
0.89685563
0.89225236
0.88245626
0.87207094
0.85963131
0.8445522
0.82703843
0.80653053
0.78335472
0.75809008
0.73223238
0.70772875
0.68655772
0.67066058
0.66181307
0.65941463
0.66186259
0.66811848
0.67685796
0.6868936
0.69729692
0.70739118
0.71672894
0.72508944
0.7323902
0.73845141
0.74301131
0.74643829
0.7499908
0.75365116
0.75579366
0.75695946
0.75747539
0.75766825
0.75765543
0.75735899
0.75598582
0.75456262
0.75374573
0.75332646
0.75315364
0.75311573
0.75319509
0.75347291
0.63895453
0.82056856
0.88539023
0.91422216
0.89361191
0.89765672
0.88583384
0.88035505
0.87019457
0.85901271
0.84577251
0.82978209
0.81124496
0.789743
0.76573458
0.74009142
0.71452338
0.69103547
0.67157399
0.65825564
0.65218592
0.65194103
0.65632083
0.66411746
0.6740014
0.68485252
0.69581964
0.70629447
0.71588816
0.7244249
0.73184218
0.73796211
0.74255105
0.74604143
0.74969254
0.75339001
0.75553841
0.75671814
0.75724826
0.75745056
0.75743148
0.75707615
0.75564475
0.75437364
0.75366014
0.75330212
0.75315942
0.75313728
0.75322237
0.75349525
0.63623277
0.82217195
0.87728293
0.90342804
0.88274637
0.88599007
0.87418739
0.86778149
0.85718645
0.84517471
0.8310627
0.81411311
0.79452703
0.77206345
0.74735911
0.7215801
0.69659766
0.67442414
0.6570736
0.64663947
0.64318356
0.64507494
0.65132185
0.66055165
0.67147907
0.68306215
0.69452819
0.70533542
0.71515032
0.72383777
0.73135144
0.73751537
0.74212573
0.74567325
0.74941162
0.75314486
0.75529961
0.75649082
0.75702952
0.75723578
0.75720529
0.75678389
0.75532779
0.75420848
0.7535898
0.75328624
0.75316769
0.75316077
0.75325013
0.75351712
0.6329649
0.82346493
0.86824616
0.89195735
0.87132408
0.8736384
0.86184262
0.85447287
0.84335546
0.83047399
0.81542026
0.79746905
0.77683151
0.75348079
0.7282716
0.70264127
0.67856013
0.65803426
0.64324983
0.63582303
0.63479125
0.63884061
0.64684726
0.65739653
0.66926703
0.68150179
0.69340576
0.70450085
0.71450522
0.7233201
0.73091187
0.73710685
0.74173195
0.74533025
0.74914676
0.75291659
0.75507745
0.75627602
0.75681635
0.7570204
0.75697344
0.75649217
0.75504511
0.75407048
0.75353671
0.75328096
0.75318341
0.7531868
0.75327819
0.75353831
0.6290226
0.82428601
0.85829293
0.87977118
0.85928283
0.86052934
0.84871473
0.84034404
0.82861035
0.81481335
0.79875674
0.77977601
0.75811748
0.73400516
0.70853593
0.68337169
0.66052969
0.64206271
0.63024799
0.62573127
0.62706897
0.63322454
0.64287195
0.65462424
0.66733995
0.68015027
0.69243554
0.70377773
0.71394283
0.72286406
0.73051749
0.73673231
0.74136629
0.74500942
0.74889798
0.75270591
0.75487116
0.75607127
0.7566053
0.75680119
0.75673658
0.75617913
0.75480732
0.75395889
0.7534983
0.75328304
0.7532038
0.75321533
0.75330756
0.75355879
0.62417053
0.82435698
0.84739647
0.86678986
0.84653891
0.84657251
0.83469651
0.82528897
0.81284152
0.79808914
0.78098276
0.76096658
0.7383612
0.71367178
0.688239
0.66388667
0.64265342
0.62674273
0.61812378
0.61633145
0.62005321
0.62820954
0.63936826
0.65220665
0.66567321
0.6789875
0.6916018
0.70315403
0.71345394
0.7224625
0.73016291
0.73638783
0.74102559
0.74470862
0.74866642
0.75251261
0.75467826
0.75587278
0.75639324
0.75657606
0.7564962
0.75586113
0.7546088
0.75386765
0.75346979
0.75328947
0.75322733
0.75324592
0.75333861
0.7535792
0.61832178
0.82340267
0.83543028
0.85288815
0.83297045
0.831654
0.81966179
0.80919038
0.79593638
0.78019606
0.76201337
0.74098797
0.71756262
0.69254195
0.66748672
0.64432281
0.62513745
0.61226581
0.60683359
0.60766831
0.61374396
0.62376777
0.63630406
0.65011378
0.66424154
0.67799333
0.69088899
0.70261799
0.71302957
0.72210846
0.72984287
0.7360696
0.74070695
0.74442639
0.74845332
0.75233461
0.75449436
0.75567619
0.75617869
0.75634687
0.75625714
0.75556138
0.75443367
0.75379067
0.75344867
0.75329928
0.75325374
0.75327879
0.75337142
0.75359979
0.61154685
0.82156361
0.82226198
0.83792281
0.81843044
0.81565407
0.8034781
0.7919341
0.77778646
0.76103168
0.74177081
0.71980363
0.69574852
0.67070535
0.6464096
0.6248509
0.60824423
0.59873764
0.59633052
0.59979642
0.60812314
0.6198679
0.63364608
0.64831611
0.66302084
0.67714902
0.69028285
0.70215881
0.71266144
0.72179552
0.72955254
0.73577414
0.74040794
0.74416195
0.74825879
0.75216781
0.7543144
0.75547854
0.75596287
0.75611846
0.75602164