/*--------------------------------*- C++ -*----------------------------------*\
  =========                 |
  \\      /  F ield         | OpenFOAM: The Open Source CFD Toolbox
   \\    /   O peration     | Website:  https://openfoam.org
    \\  /    A nd           | Version:  8
     \\/     M anipulation  |
\*---------------------------------------------------------------------------*/
FoamFile
{
    version     2.0;
    format      ascii;
    class       surfaceScalarField;
    location    "0.159995";
    object      meshPhi;
}
// * * * * * * * * * * * * * * * * * * * * * * * * * * * * * * * * * * * * * //

dimensions      [0 3 -1 0 0 0 0];

internalField   nonuniform List<scalar> 
39600
(
6.3223629e-05
4.1155944e-06
-4.2396794e-06
6.3344504e-05
4.9180495e-06
-5.0213446e-06
6.3492619e-05
5.8925407e-06
-6.0157395e-06
6.3671756e-05
7.0595315e-06
-7.2071665e-06
6.3886942e-05
8.4572982e-06
-8.6343414e-06
6.4146066e-05
1.013155e-05
-1.03438e-05
6.445581e-05
1.2136652e-05
-1.2391101e-05
6.4829033e-05
1.4537418e-05
-1.4842566e-05
6.5281069e-05
1.7411256e-05
-1.7777249e-05
6.583666e-05
2.0850193e-05
-2.1289166e-05
6.653257e-05
2.4963208e-05
-2.5489923e-05
6.7412771e-05
2.9879019e-05
-3.0511391e-05
6.8523711e-05
3.5748598e-05
-3.6508657e-05
6.9939864e-05
4.274792e-05
-4.3662501e-05
7.1741655e-05
5.1079718e-05
-5.2182353e-05
7.4045425e-05
6.0975147e-05
-6.2306866e-05
7.6915607e-05
7.2689094e-05
-7.4300656e-05
8.0467971e-05
8.6495712e-05
-8.8457446e-05
8.5102135e-05
0.00010268075
-0.00010508849
9.1201668e-05
0.00012154241
-0.00012452328
9.917248e-05
0.00014341165
-0.00014712402
0.00010978232
0.00016852153
-0.00017316025
0.00012307389
0.00019712189
-0.00020295294
0.00014088809
0.00022914626
-0.00023649814
0.0001622931
0.0002646726
-0.00027397808
0.00019057901
0.00030397719
-0.00031581454
0.00022379105
0.00034734965
-0.00036256629
0.00026253426
0.0003944297
-0.00041383931
0.00030642434
0.00044610402
-0.00047043781
0.00036621387
0.00050225492
-0.00053271137
0.00043891211
0.00056027142
-0.00059867059
0.00052408034
0.000621433
-0.00066970404
0.00062598811
0.00068410266
-0.00074452676
0.00072618656
0.00075552074
-0.00083033685
0.00084243231
0.00083912116
-0.00093036001
0.00094281116
0.00094524174
-0.0010546795
0.0010534441
0.0010864529
-0.0012154824
0.0011765737
0.0012486258
-0.0013990165
0.0013015118
0.0014239654
-0.0015963252
0.001373532
0.0015703309
-0.001754972
0.0014090345
0.0016465696
-0.001829013
0.00155141
0.0017984325
-0.0019912249
0.001686431
0.0021238627
-0.0023435781
0.0016866896
0.0024397061
-0.0026659544
0.0015776813
0.0026756045
-0.0028795845
0.0015594439
0.0029441902
-0.0031343213
0.0010271815
0.0031277843
-0.003276784
4.228099e-05
0.0029608023
-0.0029932366
-0.0011807536
0.0025184874
-0.0024579061
0.0011954729
-0.0011726396
5.076477e-05
4.0460163e-06
5.0869686e-05
4.8346498e-06
5.1001585e-05
5.7921606e-06
5.1161408e-05
6.9391811e-06
5.1354939e-05
8.313229e-06
5.1589246e-05
9.9588394e-06
5.1874001e-05
1.1929748e-05
5.2220969e-05
1.428947e-05
5.2646648e-05
1.7114216e-05
5.3171934e-05
2.0494078e-05
5.3827498e-05
2.4536036e-05
5.464995e-05
2.9365749e-05
5.568603e-05
3.5130902e-05
5.7008848e-05
4.2002737e-05
5.8717744e-05
5.0177624e-05
6.0894396e-05
5.9880952e-05
6.3585922e-05
7.1360961e-05
6.6922805e-05
8.487535e-05
7.124813e-05
0.00010068375
7.6951391e-05
0.00011905717
8.4436455e-05
0.00014028666
9.4386143e-05
0.00016458257
0.00010698554
0.00019212468
0.00012375943
0.00022279533
0.00014401025
0.0002566155
0.00017040373
0.0002936889
0.00020155234
0.00033403254
0.00023738397
0.00037740697
0.00027856681
0.00042485484
0.00033565525
0.00047550452
0.00040583777
0.00052637557
0.00048840661
0.00057841255
0.00058719238
0.00062993499
0.00068595883
0.00068788028
0.00080049215
0.00075578681
0.00090206608
0.00084429745
0.0010129883
0.00096568951
0.0011369085
0.0011062921
0.0012623331
0.0012591621
0.0013424842
0.0013909383
0.0013852578
0.0014688138
0.0015269575
0.0016128212
0.001660425
0.0019096033
0.0016716749
0.0022147472
0.0015729967
0.0024703351
0.0015348504
0.002752323
0.0010264972
0.0029706432
8.3035666e-05
0.0029141166
-0.0011512835
0.0025681003
0.001217519
3.9372022e-05
3.9915272e-06
3.9622664e-05
4.769189e-06
3.9886507e-05
5.7135222e-06
4.0137684e-05
6.8447546e-06
4.0378592e-05
8.1998836e-06
4.0622502e-05
9.8229509e-06
4.0888887e-05
1.1766821e-05
4.1190075e-05
1.4094241e-05
4.1546071e-05
1.6880184e-05
4.1978719e-05
2.021341e-05
4.2514252e-05
2.4199136e-05
4.3194475e-05
2.8960622e-05
4.4066129e-05
3.4642759e-05
4.5219938e-05
4.1412304e-05
4.6748569e-05
4.9460547e-05
4.870627e-05
5.900881e-05
5.115947e-05
7.0298094e-05
5.4240954e-05
8.3572527e-05
5.8245898e-05
9.9068139e-05
6.3537809e-05
0.00011702836
7.0507387e-05
0.00013771214
7.9740026e-05
0.00016130511
9.1589981e-05
0.00018792859
0.00010727267
0.00021741613
0.00012629341
0.00024974539
0.00015077003
0.00028488018
0.00017978361
0.0003225808
0.00021271734
0.00036280051
0.00025117524
0.00040662868
0.00030547776
0.00045239659
0.00037275895
0.00049681837
0.00045264249
0.00054050509
0.0005477666
0.00058175384
0.00064498335
0.0006270984
0.00075711186
0.00068008328
0.00085919755
0.00075158839
0.0009705114
0.00085362339
0.0010948303
0.00097297114
0.0012209128
0.0011035876
0.0013073058
0.0012198424
0.0013593316
0.0012962952
0.0014998119
0.0014311065
0.001632378
0.0017007622
0.0016527857
0.0019942669
0.0015674713
0.0022655956
0.001508383
0.0025626934
0.0010213878
0.0028167641
0.00011366642
0.0028603103
-0.0011212895
0.0026106828
0.0012424311
2.8522833e-05
3.9522535e-06
2.8774174e-05
4.7223061e-06
2.9053478e-05
5.6574406e-06
2.9339349e-05
6.7775796e-06
2.9629793e-05
8.1192584e-06
2.9929379e-05
9.7260698e-06
3.0247841e-05
1.1650093e-05
3.0582935e-05
1.3953554e-05
3.0945425e-05
1.6710462e-05
3.1345967e-05
2.00085e-05
3.1810151e-05
2.3951718e-05
3.2382324e-05
2.8661566e-05
3.3111485e-05
3.428068e-05
3.4103257e-05
4.0972424e-05
3.5429971e-05
4.8924297e-05
3.7154048e-05
5.8353483e-05
3.9342584e-05
6.9495438e-05
4.2141589e-05
8.2582124e-05
4.5841376e-05
9.782639e-05
5.0730357e-05
0.00011544966
5.7183378e-05
0.00013568314
6.573934e-05
0.00015868502
7.6841143e-05
0.0001845276
9.1531071e-05
0.00021299484
0.00010937934
0.0002440316
0.00013218516
0.00027748423
0.00015926453
0.00031291174
0.00018956997
0.00035048974
0.0002256442
0.00039121551
0.00027731899
0.00043264923
0.00034186244
0.00047124319
0.00041909
0.00050729396
0.0005108276
0.00053905536
0.000606403
0.00057259235
0.00071627
0.00061137336
0.00081863336
0.00066644493
0.00093018269
0.00074962161
0.0010548295
0.00084803671
0.0011814966
0.00095663015
0.0012734447
0.001056554
0.001333742
0.0011287731
0.0014734032
0.0012531045
0.0016052041
0.001497136
0.0016343155
0.0017783187
0.0015615025
0.0020619042
0.0014860834
0.0023749372
0.0010167069
0.0026651956
0.00013427161
0.0028016531
-0.0010927119
0.0026487355
0.0012697352
1.8183016e-05
3.927453e-06
1.8275565e-05
4.6926872e-06
1.8415149e-05
5.6220868e-06
1.8609034e-05
6.7353666e-06
1.8856961e-05
8.0686731e-06
1.9151315e-05
9.6653637e-06
1.9490079e-05
1.1577113e-05
1.9860875e-05
1.3865588e-05
2.026761e-05
1.6604111e-05
2.0706836e-05
1.9879594e-05
2.1199821e-05
2.3794896e-05
2.1774424e-05
2.8470128e-05
2.2472607e-05
3.4046328e-05
2.3379245e-05
4.0684521e-05
2.4566263e-05
4.8569067e-05
2.6086567e-05
5.7914441e-05
2.8025333e-05
6.8951522e-05
3.0567563e-05
8.1900195e-05
3.3958556e-05
9.6956521e-05
3.8446736e-05
0.00011432119
4.4388237e-05
0.0001341998
5.2299268e-05
0.00015672218
6.2669556e-05
0.0001819172
7.6451675e-05
0.00020951906
9.3218056e-05
0.00023944759
0.00011460669
0.00027145502
0.00013992274
0.00030493378
0.0001677966
0.00034031854
0.00020176302
0.00037841845
0.00025096025
0.00041602169
0.0003129106
0.00044938869
0.00038752775
0.00047848684
0.00047610832
0.00050152955
0.00056997317
0.00052403291
0.00067767994
0.00054933644
0.00078013223
0.00058857718
0.000891764
0.00065335612
0.0010166688
0.00073117272
0.0011438496
0.00081795547
0.0012407566
0.00090083789
0.0013084202
0.00096651534
0.0014475608
0.0010792923
0.001578688
0.0012987493
0.0016161508
0.0015668388
0.0015552942
0.0018594288
0.0014674325
0.0021886529
0.0010120955
0.0025153121
0.00014837941
0.0027392934
-0.0010658924
0.0026830646
0.0012987582
8.6445047e-06
3.9164569e-06
8.7298251e-06
4.6792234e-06
8.8564889e-06
5.6057072e-06
9.0220698e-06
6.7154755e-06
9.22203e-06
8.0446584e-06
9.4517374e-06
9.6365026e-06
9.7120253e-06
1.1542562e-05
9.9999736e-06
1.3824239e-05
1.0326712e-05
1.6554526e-05
1.0695536e-05
1.9819805e-05
1.1129979e-05
2.3722181e-05
1.1652487e-05
2.8380751e-05
1.2295612e-05
3.3935106e-05
1.3120199e-05
4.0544584e-05
1.4172339e-05
4.839157e-05
1.5503515e-05
5.7688497e-05
1.721487e-05
6.866264e-05
1.9496743e-05
8.1525124e-05
2.2571474e-05
9.6457644e-05
2.6659661e-05
0.00011364163
3.2100379e-05
0.0001332599
3.9397112e-05
0.00015541416
4.9064775e-05
0.00018009223
6.2009974e-05
0.00020698054
7.7805171e-05
0.00023597077
9.7980839e-05
0.00026672633
0.00012165066
0.00029856304
0.00014726143
0.00033219038
0.00017932203
0.00036809465
0.00022617749
0.00040232845
0.00028565222
0.00043100955
0.00035771677
0.00045378456
0.00044331911
0.00046879483
0.00053542307
0.00048096814
0.00064103051
0.0004934671
0.00074341198
0.00051744023
0.00085498287
0.00056431601
0.0009800776
0.00062190111
0.0011077015
0.00068711786
0.0012090307
0.0007523619
0.0012832702
0.00080939313
0.0014221308
0.00090954749
0.0015527277
0.0011054376
0.0015982058
0.0013597664
0.0015489007
0.0016582705
0.0014517905
0.0020032312
0.0010074134
0.0023663878
0.00015820586
0.0026741903
-0.0010413817
0.0027146285
0.001329092
-3.0357328e-07
3.9192154e-06
-2.4596942e-07
4.6827065e-06
-1.5967195e-07
5.610232e-06
-4.6725826e-08
6.7212611e-06
8.6936008e-08
8.0519383e-06
2.4153821e-07
9.645468e-06
4.2201683e-07
1.1553348e-05
6.3108217e-07
1.3836881e-05
8.846395e-07
1.6568879e-05
1.1878591e-06
1.9835487e-05
1.5645231e-06
2.3738408e-05
2.031222e-06
2.8396287e-05
2.612641e-06
3.3948041e-05
3.3512547e-06
4.0552252e-05
4.2731693e-06
4.8390096e-05
5.4206997e-06
5.7673215e-05
6.9050969e-06
6.8626969e-05
8.9197558e-06
8.1455223e-05
1.1671253e-05
9.6327351e-05
1.5362037e-05
0.00011340789
2.0316566e-05
0.00013285808
2.7026946e-05
0.00015475257
3.6023952e-05
0.00017904
4.8193147e-05
0.00020535855
6.3126283e-05
0.0002335661
8.2246488e-05
0.00026324788
0.00010434925
0.00029371816
0.00012784525
0.00032598488
0.00015816102
0.00036010879
0.0002027973
0.00039141621
0.00025990105
0.00041594458
0.00032947214
0.00043301042
0.00041224877
0.00044067359
0.00050255294
0.00044321961
0.00060610685
0.00044360529
0.00070827049
0.00045290813
0.00081964889
0.00048235538
0.0009448685
0.00052008545
0.0010728653
0.00056397524
0.0011781393
0.0006110871
0.0012582362
0.00065774972
0.0013970235
0.00074437279
0.0015272419
0.00091737581
0.0015804272
0.0011571947
0.0015422819
0.0014586508
0.0014384867
0.00181849
0.0010025554
0.0022181298
0.00016524834
0.0026069256
-0.001019199
0.0027438618
0.0013604249
-8.7024858e-06
3.934925e-06
-8.7087673e-06
4.7015017e-06
-8.707031e-06
5.6329689e-06
-8.6832721e-06
6.7488438e-06
-8.6351604e-06
8.0854009e-06
-8.5544818e-06
9.6859321e-06
-8.4345543e-06
1.1601978e-05
-8.273356e-06
1.3894982e-05
-8.0586858e-06
1.6637865e-05
-7.7911872e-06
1.9916882e-05
-7.4529757e-06
2.3833915e-05
-7.0367391e-06
2.8507662e-05
-6.5248998e-06
3.4077008e-05
-5.8879673e-06
4.070048e-05
-5.1108463e-06
4.8559129e-05
-4.1544007e-06
5.7864429e-05
-2.9031874e-06
6.8840229e-05
-1.16394e-06
8.1686157e-05
1.2613614e-06
9.6559611e-05
4.5596852e-06
0.00011361044
9.0442051e-06
0.00013298167
1.5195444e-05
0.00015472168
2.3553688e-05
0.00017874159
3.4992903e-05
0.00020463545
4.9142174e-05
0.00023221343
6.7322398e-05
0.00026099295
8.7929544e-05
0.00029038253
0.00010944097
0.00032166212
0.00013814325
0.00035436353
0.00018066784
0.0003831524
0.00023548677
0.00040401678
0.00030262357
0.00041594865
0.00038269367
0.00041689103
0.00047116679
0.00041046486
0.00057268887
0.00039938799
0.00067450493
0.00039458863
0.00078557278
0.00040710963
0.00091085147
0.00042538863
0.0010391494
0.00044821905
0.0011479383
0.00047680685
0.0012332735
0.00051157631
0.001372164
0.00058379531
0.0015021808
0.00073451986
0.0015627671
0.00095910844
0.0015354228
0.0012607139
0.001427024
0.001634197
0.0009975361
0.0020702412
0.00017034652
0.0025379439
-0.00099926768
0.0027710553
0.0013924584
-1.6527062e-05
3.963303e-06
-1.655527e-05
4.7354832e-06
-1.6580687e-05
5.6736011e-06
-1.6587425e-05
6.7973773e-06
-1.657113e-05
8.143288e-06
-1.6524431e-05
9.7549405e-06
-1.6444054e-05
1.1684332e-05
-1.6329925e-05
1.3993371e-05
-1.6174067e-05
1.675543e-05
-1.5979363e-05
2.0057503e-05
-1.573075e-05
2.4002013e-05
-1.5423689e-05
2.8708372e-05
-1.504148e-05
3.4316035e-05
-1.4559369e-05
4.09841e-05
-1.3963924e-05
4.8893838e-05
-1.3217828e-05
5.8256704e-05
-1.2208115e-05
6.9296928e-05
-1.0746679e-05
8.2209794e-05
-8.6485683e-06
9.7144586e-05
-5.7370496e-06
0.00011423819
-1.7086247e-06
0.0001336171
3.9068477e-06
0.000155305
1.165308e-05
0.00017917711
2.2389701e-05
0.00020478565
3.5814587e-05
0.0002318812
5.3150771e-05
0.00025992503
7.2333872e-05
0.00028849072
9.1978629e-05
0.00031912492
0.00011917359
0.00035075408
0.00015968186
0.00037741635
0.00021229258
0.00039510348
0.00027705035
0.00040246829
0.00035451431
0.00039732606
0.00044113192
0.00038258987
0.00054063682
0.00036072664
0.00064198507
0.00034242704
0.0007526327
0.00033851588
0.00087790666
0.00033775447
0.0010064328
0.00033979332
0.0011183515
0.00034956138
0.0012083712
0.00037119893
0.0013475144
0.00042828216
0.0014774943
0.00055712479
0.0015451953
0.00076572702
0.0015282887
0.0010647894
0.0014168768
0.0014504541
0.00099228509
0.0019226269
0.00017409455
0.0024675067
-0.00098122658
0.0027965287
0.0014251298
-2.3800889e-05
4.003784e-06
-2.3805164e-05
4.7834893e-06
-2.3798033e-05
5.7305946e-06
-2.3779388e-05
6.8651121e-06
-2.3754036e-05
8.2239653e-06
-2.3721715e-05
9.8512558e-06
-2.3682275e-05
1.1799692e-05
-2.3635793e-05
1.4131892e-05
-2.3574755e-05
1.692226e-05
-2.3498356e-05
2.0258528e-05
-2.3389858e-05
2.4244529e-05
-2.3240152e-05
2.9000457e-05
-2.3028679e-05
3.466698e-05
-2.2727409e-05
4.140394e-05
-2.2322848e-05
4.939295e-05
-2.1777034e-05
5.8846034e-05
-2.0997649e-05
6.9988658e-05
-1.9817975e-05
8.3016354e-05
-1.8049404e-05
9.8069805e-05
-1.5520758e-05
0.00011527473
-1.1935141e-05
0.00013474316
-6.8374579e-06
0.00015647888
3.2090584e-07
0.00018032035
1.0366172e-05
0.00020578637
2.3099964e-05
0.00023256272
3.9648549e-05
0.00026003868
5.7478879e-05
0.00028803689
7.5395384e-05
0.00031834469
0.00010117047
0.00034920099
0.00013974779
0.00037409842
0.00019021696
0.00038905326
0.0002526507
0.00039237777
0.00032759273
0.00038172484
0.00041233527
0.00035929261
0.00050982992
0.0003272698
0.00061059855
0.00029604467
0.00072072653
0.00027622301
0.00084592705
0.00025685995
0.00097460647
0.000238416
0.0010893047
0.00022915039
0.0011835224
0.00023655557
0.0013230479
0.00027777836
0.0014531626
0.00038504453
0.0015276748
0.00057690472
0.0015208179
0.00087092667
0.0014076366
0.0012671788
0.0009867592
0.0017752217
0.00017684169
0.0023958906
-0.00096477122
0.0028202534
0.0014581349
-3.0610996e-05
4.0564995e-06
-3.063719e-05
4.8469789e-06
-3.0659214e-05
5.8074276e-06
-3.0677768e-05
6.9580646e-06
-3.0698066e-05
8.33615e-06
-3.071973e-05
9.986617e-06
-3.0742723e-05
1.1962473e-05
-3.0767006e-05
1.4327313e-05
-3.0785906e-05
1.7156325e-05
-3.080029e-05
2.05385e-05
-3.0792794e-05
2.4578587e-05
-3.0756898e-05
2.93987e-05
-3.0666345e-05
3.5140618e-05
-3.0496658e-05
4.1965596e-05
-3.0225273e-05
5.0055764e-05
-2.984398e-05
5.9626362e-05
-2.9289006e-05
7.0909023e-05
-2.8383875e-05
8.4096755e-05
-2.6943999e-05
9.9323133e-05
-2.4791896e-05
0.00011670599
-2.1635163e-05
0.00013634306
-1.70432e-05
0.00015822321
-1.0451782e-05
0.0001821484
-1.0995296e-06
0.00020761271
1.0941619e-05
0.00023423107
2.6725883e-05
0.00026130232
4.3277458e-05
0.00028896628
5.9623179e-05
0.00031924172
8.4065716e-05
0.00034961735
0.00012079101
0.00037310148
0.00016918079
0.0003857676
0.00022934262
0.00038557572
0.00030183862
0.00036999819
0.00038469119
0.00034049448
0.00048018543
0.00029896328
0.00058027008
0.00025541454
0.00068978773
0.00022020136
0.00081484156
0.00018268004
0.0009436008
0.00014406743
0.0010607593
0.0001156334
0.0011587329
0.0001079231
0.0012987539
0.00013268609
0.0014291663
0.00021855685
0.0015101815
0.00039293154
0.0015129337
0.00067953944
0.0013989878
0.0010846989
0.00098095311
0.0016281876
0.0001788569
0.0023233526
-0.00094948946
0.0028423985
0.0014913729
-3.698199e-05
4.120575e-06
-3.707193e-05
4.9238333e-06
-3.7180773e-05
5.8999651e-06
-3.729701e-05
7.0697754e-06
-3.7418875e-05
8.4712789e-06
-3.7537491e-05
1.014993e-05
-3.765109e-05
1.2159878e-05
-3.77561e-05
1.4565531e-05
-3.7847868e-05
1.7443195e-05
-3.7925506e-05
2.0883223e-05
-3.7976909e-05
2.499149e-05
-3.7997319e-05
2.9891522e-05
-3.7966218e-05
3.5726429e-05
-3.7862726e-05
4.2658371e-05
-3.7691688e-05
5.087373e-05
-3.7482927e-05
6.0595505e-05
-3.7166062e-05
7.2058219e-05
-3.6527429e-05
8.5450343e-05
-3.5374209e-05
0.00010089786
-3.3564286e-05
0.00011851571
-3.0815537e-05
0.00013839469
-2.6716875e-05
0.00016051233
-2.067895e-05
0.00018463245
-1.2026435e-05
0.00021023928
-6.7907568e-07
0.00023686659
1.4343794e-05
0.00026371873
2.9677633e-05
0.00029129348
4.4602768e-05
0.00032179141
6.7797831e-05
0.00035193374
0.0001027435
0.00037432901
0.00014910832
0.00038511831
0.0002070489
0.00038190095
0.0002771622
0.00036193889
0.00035811316
0.00032595065
0.00045161053
0.00027552413
0.00055091511
0.00022023222
0.00065973921
0.00017016776
0.00078457201
0.00011495569
0.00091333921
5.6520795e-05
0.0010326664
8.8552798e-06
0.0011340044
-1.4728367e-05
0.0012746149
-6.9986214e-06
0.0014054725
5.7581717e-05
0.0014926815
0.0002137349
0.0015046072
0.0004907723
0.0013907139
0.00090313456
0.00097490384
0.0014816194
0.00018031454
0.0022501222
-0.00093507833
0.0028627842
0.0015244973
-4.2983136e-05
4.1967427e-06
-4.3198528e-05
5.0167748e-06
-4.3434073e-05
6.0134917e-06
-4.3658072e-05
7.2077739e-06
-4.3864044e-05
8.6378859e-06
-4.4050475e-05
1.0350248e-05
-4.4215875e-05
1.2399818e-05
-4.4362279e-05
1.4851991e-05
-4.4489576e-05
1.7784796e-05
-4.4598795e-05
2.1289824e-05
-4.4686399e-05
2.5475294e-05
-4.4748594e-05
3.046684e-05
-4.4777009e-05
3.6410125e-05
-4.4767084e-05
4.3471202e-05
-4.4764246e-05
5.1844398e-05
-4.4795491e-05
6.1757516e-05
-4.4728953e-05
7.3441065e-05
-4.4319923e-05
8.7074255e-05
-4.3390419e-05
0.00010278473
-4.186021e-05
0.00012069272
-3.9487438e-05
0.00014088545
-3.5862251e-05
0.00016333003
-3.0366541e-05
0.00018775071
-2.2423018e-05
0.00021363545
-1.1762592e-05
0.00024043708
2.4905344e-06
0.00026725073
1.6652747e-05
0.00029495969
3.0301694e-05
0.00032591828
5.2323692e-05
0.00035606665
8.5555237e-05
0.00037768755
0.00012994603
0.00038701213
0.0001857118
0.00038126032
0.00025349908
0.00035746813
0.00033253863
0.0003155957
0.00042404246
0.0002569119
0.00052247721
0.00019048367
0.00063053099
0.0001261048
0.00075507077
5.3671862e-05
0.00088377014
-2.4230087e-05
0.0010050011
-9.1121533e-05
0.0011093463
-0.00013116224
0.0012506188
-0.00014092005
0.0013820452
-9.7571663e-05
0.0014751504
3.9667722e-05
0.0014958099
0.00030508291
0.0013825996
0.00072293105
0.0009685872
0.001335723
0.00018133737
0.0021762802
-0.00092122853
0.0028815285
0.0015574985
-4.8439387e-05
4.2818688e-06
-4.8649377e-05
5.1164489e-06
-4.8878423e-05
6.1305861e-06
-4.9104334e-05
7.345903e-06
-4.9323559e-05
8.8022889e-06
-4.9542719e-05
1.0547111e-05
-4.9756811e-05
1.2636997e-05
-4.9972634e-05
1.5139546e-05
-5.0183893e-05
1.8133966e-05
-5.0394023e-05
2.1714874e-05
-5.0598553e-05
2.599215e-05
-5.0795846e-05
3.1094605e-05
-5.0986477e-05
3.717111e-05
-5.1194307e-05
4.4393696e-05
-5.1462283e-05
5.2962913e-05
-5.1772849e-05
6.3104604e-05
-5.1952302e-05
7.5040883e-05
-5.1726567e-05
8.8948106e-05
-5.0980111e-05
0.0001049618
-4.9701975e-05
0.00012321755
-4.7680888e-05
0.00014380082
-4.4502676e-05
0.0001666607
-3.953037e-05
0.00019148449
-3.2286777e-05
0.00021777065
-2.2293058e-05
0.00024488687
-8.8198097e-06
0.00027184325
4.207657e-06
0.00029991541
1.6695814e-05
0.0003315561
3.7603066e-05
0.0003619355
6.9181323e-05
0.00038307545
0.00011164588
0.00039131023
0.00016528397
0.00038347355
0.00023079663
0.00035634698
0.00030791962
0.00030914079
0.0003974324
0.00024278505
0.00049491657
0.00016579578
0.0006021301
8.7650655e-05
0.00072630001
-1.5082726e-06
0.00085485743
-9.8484099e-05
0.00097774628
-0.00018454075
0.0010847775
-0.00024154139
0.0012267641
-0.00026924039
0.0013588646
-0.00024715045
0.0014575612
-0.00012950456
0.0014865029
0.00012249537
0.0013744707
0.00054418546
0.00096198291
0.0011906418
0.00018200493
0.002102057
-0.00090772104
0.0028984119
0.0015900277
-5.3397982e-05
4.3784893e-06
-5.3509172e-05
5.2318988e-06
-5.3645883e-05
6.2687371e-06
-5.3811329e-05
7.5113242e-06
-5.4006708e-05
8.9999294e-06
-5.4236615e-05
1.0783388e-05
-5.4496501e-05
1.2919571e-05
-5.4790019e-05
1.5477336e-05
-5.5110328e-05
1.8538988e-05
-5.5456385e-05
2.2200715e-05
-5.5826703e-05
2.6576724e-05
-5.6218117e-05
3.1799642e-05
-5.6644477e-05
3.8024203e-05
-5.7125527e-05
4.5429123e-05
-5.7685739e-05
5.4217496e-05
-5.8266368e-05
6.4612308e-05
-5.8660197e-05
7.6826721e-05
-5.8620144e-05
9.1037993e-05
-5.8090621e-05
0.00010740654
-5.7088625e-05
0.00012607979
-5.5415813e-05
0.00014713069
-5.2663453e-05
0.00017049152
-4.818952e-05
0.00019581562
-4.1610374e-05
0.00022261354
-3.2260039e-05
0.00025017423
-1.9585162e-05
0.00027744414
-7.6641588e-06
0.00030609386
3.7526421e-06
0.0003386351
2.3599117e-05
0.00036946933
5.3581997e-05
0.00039041407
9.4168609e-05
0.00039793237
0.00014572895
0.00038845461
0.00020902046
0.00035849305
0.00028422608
0.00030650839
0.00037175569
0.0002330832
0.00046821034
0.00014613105
0.00057451338
5.4784084e-05
0.00069823608
-5.0595545e-05
0.0008265773
-0.00016624205
0.00095089536
-0.00027134479
0.0010603142
-0.0003456677
0.001203052
-0.00039164966
0.0013359118
-0.00039084185
0.0014398949
-0.00029340532
0.0014766393
-5.6511278e-05
0.0013662087
0.00036740795
0.0009550984
0.0010466815
0.00018240018
0.0020275623
-0.00089433369
0.002913453
0.0016219874
-5.8082555e-05
4.4853185e-06
-5.8200023e-05
5.3597077e-06
-5.8340283e-05
6.4221118e-06
-5.8507304e-05
7.6951032e-06
-5.8704215e-05
9.2202803e-06
-5.893685e-05
1.1047665e-05
-5.9206525e-05
1.3236297e-05
-5.9519403e-05
1.5857081e-05
-5.9877155e-05
1.8994167e-05
-6.0283012e-05
2.2746338e-05
-6.0745862e-05
2.7231578e-05
-6.1268883e-05
3.2586424e-05
-6.187215e-05
3.8971538e-05
-6.2570684e-05
4.6572806e-05
-6.336197e-05
5.5597227e-05
-6.416011e-05
6.626235e-05
-6.4751811e-05
7.8778263e-05
-6.4946889e-05
9.3336831e-05
-6.4707135e-05
0.00011011776
-6.4020025e-05
0.00012927312
-6.2702185e-05
0.00015086464
-6.0363574e-05
0.00017480838
-5.6363211e-05
0.00020072724
-5.0392686e-05
0.00022813214
-4.1652057e-05
0.00025623284
-2.9795391e-05
0.00028397233
-1.8968201e-05
0.00031342977
-8.5564846e-06
0.00034709344
1.0278526e-05
0.00037859229
3.8722154e-05
0.0003996059
7.7482796e-05
0.00040674175
0.00012702164
0.00039601799
0.00018814525
0.00036366129
0.00026143767
0.00030740361
0.00034699154
0.00022746241
0.00044233681
0.00013112292
0.00054765284
2.7156893e-05
0.00067084329
-9.3892201e-05
0.00079889413
-0.00022775839
0.00092442962
-0.00035174082
0.0010359635
-0.00044366922
0.0011794694
-0.00050825412
0.0013131514
-0.00052880303
0.0014221203
-0.00045215847
0.0014662037
-0.00023182074
0.0013577244
0.00019279774
0.00094795583
0.00090406093
0.00018259954
0.0019530471
-0.00088090775
0.0029264326
0.001653018
-6.2410561e-05
4.6020371e-06
-6.2539926e-05
5.4994657e-06
-6.2693645e-05
6.5896315e-06
-6.2876399e-05
7.8960454e-06
-6.3091741e-05
9.4613039e-06
-6.3345937e-05
1.1336774e-05
-6.3642217e-05
1.3583016e-05
-6.3987927e-05
1.6273385e-05
-6.4388052e-05
1.9493516e-05
-6.4850261e-05
2.3346095e-05
-6.5387909e-05
2.7951645e-05
-6.6012034e-05
3.3451778e-05
-6.6741032e-05
4.0012507e-05
-6.759186e-05
4.782585e-05
-6.8545489e-05
5.7101074e-05
-6.9504782e-05
6.8056524e-05
-7.0297777e-05
8.090524e-05
-7.0768255e-05
9.5852478e-05
-7.085503e-05
0.00011309542
-7.0511965e-05
0.00013279309
-6.9556089e-05
0.00015499424
-6.7622567e-05
0.00017959834
-6.4073441e-05
0.00020619732
-5.8654893e-05
0.00023429754
-5.04777e-05
0.0002630343
-3.9448913e-05
0.00029138522
-2.9712451e-05
0.00032186127
-2.0253058e-05
0.00035686603
-2.3867524e-06
0.00038923039
2.4577282e-05
0.00041056088
6.1567794e-05
0.00041763921
0.00010913772
0.00040607002
0.00016814189
0.00037178368
0.00023952477
0.00031178032
0.00032310846
0.00022590642
0.00041728026
0.00012076257
0.00052153582
4.739006e-06
0.00064409396
-0.00013141829
0.00077178014
-0.00028302457
0.00089833528
-0.00042566345
0.0010117305
-0.00053535924
0.0011560054
-0.00061875385
0.0012905477
-0.00066068872
0.0014042168
-0.00060534798
0.0014551835
-0.00040293891
0.0013489403
2.0881804e-05
0.0009405541
0.00076301664
0.00018263036
0.0018784634
-0.00086730775
0.0029373595
0.0016831091
-6.6394864e-05
4.728529e-06
-6.6536226e-05
5.6508623e-06
-6.6704536e-05
6.7711672e-06
-6.6904599e-05
8.1136293e-06
-6.7141421e-05
9.7225473e-06
-6.7421415e-05
1.1649988e-05
-6.7750303e-05
1.3959219e-05
-6.8135908e-05
1.672485e-05
-6.858698e-05
2.0035908e-05
-6.9113174e-05
2.3997657e-05
-6.9729095e-05
2.8734583e-05
-7.0448815e-05
3.439309e-05
-7.1288338e-05
4.1145049e-05
-7.2253385e-05
4.9187004e-05
-7.3322087e-05
5.8732279e-05
-7.4416548e-05
7.000111e-05
-7.5400401e-05
8.3212608e-05
-7.6143073e-05
9.8586263e-05
-7.6564827e-05
0.00011633838
-7.6575309e-05
0.00013663209
-7.5982713e-05
0.00015950665
-7.4440487e-05
0.00018484136
-7.1330375e-05
0.00021220219
-6.6428763e-05
0.00024108643
-5.8755033e-05
0.00027052033
-4.8541707e-05
0.00029959335
-3.9891993e-05
0.00033130022
-3.1342278e-05
0.00036785526
-1.4405361e-05
0.00040127497
1.1139246e-05
0.00042314518
4.640737e-05
0.00043045779
9.2050875e-05
0.00041840749
0.00014897586
0.00038260457
0.00021845179
0.00031933521
0.00030006918
0.00022806118
0.00039301814
0.00011466007
0.00049616106
-1.2881828e-05
0.00061798902
-0.00016360203
0.00074522476
-0.00033242935
0.00087261403
-0.00049344956
0.00098763729
-0.00062103096
0.001132664
-0.00072344479
0.0012680857
-0.00078684908
0.0013861636
-0.0007532834
0.0014435666
-0.00056991719
0.0013397834
-0.00014825998
0.00093287449
0.00062375182
0.00018251316
0.0018041018
-0.00085344169
0.0029460606
0.0017119261
-7.0055886e-05
4.864498e-06
-7.0208797e-05
5.8133631e-06
-7.0391462e-05
6.9661029e-06
-7.0609085e-05
8.3474049e-06
-7.086767e-05
1.0002944e-05
-7.1174682e-05
1.198646e-05
-7.1537691e-05
1.4363223e-05
-7.1966061e-05
1.7209929e-05
-7.2470652e-05
2.0618829e-05
-7.3063113e-05
2.4698456e-05
-7.375724e-05
2.9577303e-05
-7.4567689e-05
3.5406479e-05
-7.5505819e-05
4.2363839e-05
-7.6568919e-05
5.065036e-05
-7.7736972e-05
6.0484206e-05
-7.8952514e-05
7.2090377e-05
-8.0115726e-05
8.5695927e-05
-8.111959e-05
0.00010153459
-8.1865028e-05
0.0001198404
-8.2223205e-05
0.00014078009
-8.1992259e-05
0.00016438659
-8.0828339e-05
0.00019052057
-7.8152074e-05
0.00021872358
-7.3751637e-05
0.00024847659
-6.6518617e-05
0.00027867423
-5.7087144e-05
0.00030857122
-4.9516267e-05
0.00034169509
-4.1835307e-05
0.00037999704
-2.5787045e-05
0.00041464853
-1.6133842e-06
0.00043728012
3.1969244e-05
0.00044513085
7.5725078e-05
0.00043297391
0.00013060953
0.00039608373
0.00019818215
0.00033004315
0.00027784071
0.00023392225
0.00036951804
0.00011283286
0.00047151762
-2.5690706e-05
0.00059253157
-0.000190452
0.00071921962
-0.0003759774
0.00084726557
-0.0005550321
0.00096369879
-0.00070051212
0.0011094451
-0.00082204804
0.0012457518
-0.00090694253
0.0013679494
-0.00089554382
0.0014313337
-0.00073226268
0.0013302018
-0.00031408126
0.00092491909
0.00048655637
0.0001822769
0.0017299426
-0.0008392079
0.0029524576
0.0017393699
-7.340926e-05
5.0095476e-06
-7.3573597e-05
5.9868091e-06
-7.3770442e-05
7.1741223e-06
-7.4005575e-05
8.5971431e-06
-7.4286048e-05
1.0302412e-05
-7.4620108e-05
1.2346028e-05
-7.5017147e-05
1.4794883e-05
-7.5487807e-05
1.7728312e-05
-7.604328e-05
2.1241681e-05
-7.6696339e-05
2.5446895e-05
-7.7459589e-05
3.0476483e-05
-7.8348237e-05
3.6487548e-05
-7.936796e-05
4.366184e-05
-8.0517043e-05
5.2206523e-05
-8.177613e-05
6.2346021e-05
-8.3111368e-05
7.4312305e-05
-8.4458694e-05
8.8343043e-05
-8.5716803e-05
0.00010468726
-8.6769135e-05
0.00012359021
-8.7463648e-05
0.00014522244
-8.7592269e-05
0.00016961766
-8.6798476e-05
0.00019661411
-8.4560021e-05
0.0002257453
-8.0641749e-05
0.00025645454
-7.3806411e-05
0.00028746348
-6.5127932e-05
0.00031828704
-5.8597474e-05
0.00035300197
-5.1741567e-05
0.00039320469
-3.6551706e-05
0.00042925217
-1.3713468e-05
0.00045286006
1.8216071e-05
0.00046152825
6.0122544e-05
0.00044960245
0.00011300302
0.0004120074
0.0001786781
0.00034364757
0.00025638396
0.00024318995
0.00034674247
0.0001149532
0.00044756957
-3.4017323e-05
0.00056770633
-0.00021229707
0.00069374828
-0.00041399684
0.00082227488
-0.00061070611
0.00093991643
-0.00077403206
0.0010863341
-0.00091477194
0.0012235103
-0.0010211959
0.0013495428
-0.0010323019
0.0014184759
-0.00088992285
0.0013201637
-0.00047642759
0.00091670311
0.00035169298
0.00018196835
0.0016563175
-0.00082453359
0.0029564135
0.0017651139
-7.6469491e-05
5.1632479e-06
-7.6645164e-05
6.1709929e-06
-7.6856108e-05
7.3950149e-06
-7.7107957e-05
8.8618537e-06
-7.7409541e-05
1.0620116e-05
-7.7769304e-05
1.272741e-05
-7.819708e-05
1.5252339e-05
-7.8704641e-05
1.8277831e-05
-7.9302513e-05
2.1901224e-05
-8.0003818e-05
2.6238745e-05
-8.0823515e-05
3.1427521e-05
-8.177167e-05
3.7628906e-05
-8.2857956e-05
4.5030721e-05
-8.4074905e-05
5.384505e-05
-8.5420664e-05
6.4305561e-05
-8.6886232e-05
7.6655426e-05
-8.8422462e-05
9.1142526e-05
-8.9935823e-05
0.00010803
-9.1286659e-05
0.00012757293
-9.2310189e-05
0.00014994528
-9.279538e-05
0.00017518526
-9.2365187e-05
0.00020310624
-9.0575343e-05
0.00023324648
-8.7107575e-05
0.00026499508
-8.0630243e-05
0.00029685963
-7.2688605e-05
0.00032870271
-6.7140757e-05
0.00036517057
-6.1073686e-05
0.0004074225
-4.6727403e-05
0.00044502674
-2.5193562e-05
0.00046982387
5.1152509e-06
0.00047959358
4.5209655e-05
0.00046824711
9.6121566e-05
0.00043034938