/*--------------------------------*- C++ -*----------------------------------*\
  =========                 |
  \\      /  F ield         | OpenFOAM: The Open Source CFD Toolbox
   \\    /   O peration     | Website:  https://openfoam.org
    \\  /    A nd           | Version:  8
     \\/     M anipulation  |
\*---------------------------------------------------------------------------*/
FoamFile
{
    version     2.0;
    format      ascii;
    class       volScalarField;
    location    "0.159995";
    object      nut;
}
// * * * * * * * * * * * * * * * * * * * * * * * * * * * * * * * * * * * * * //

dimensions      [0 2 -1 0 0 0 0];

internalField   nonuniform List<scalar> 
20000
(
0.0012423972
0.0031555204
0.004338835
0.0048975764
0.0046806026
0.003421493
0.00097006815
1.1970744e-06
3.2992053e-09
3.2346889e-09
3.1388954e-09
3.164251e-09
3.1232773e-09
3.1540562e-09
3.1574746e-09
3.1914882e-09
3.2180248e-09
3.2660857e-09
3.3184363e-09
3.391624e-09
3.4790902e-09
3.5927372e-09
3.7315012e-09
3.904577e-09
4.1131757e-09
4.3619539e-09
4.6466202e-09
4.9590605e-09
5.2826012e-09
5.5999701e-09
5.8952542e-09
6.1591395e-09
6.3868594e-09
6.579001e-09
6.7373846e-09
6.86526e-09
6.9642694e-09
7.0410622e-09
7.0984121e-09
7.1415138e-09
7.172142e-09
7.1938707e-09
7.2084321e-09
7.220034e-09
7.2320428e-09
7.2489152e-09
7.2647097e-09
7.2822654e-09
7.2954742e-09
7.3602279e-09
0.0012219912
0.0031181362
0.0042790746
0.0048079705
0.0045543765
0.0032496769
0.00084169285
4.5336093e-07
3.266984e-09
3.2313999e-09
3.1348277e-09
3.1594125e-09
3.1208412e-09
3.1522913e-09
3.1556076e-09
3.1898541e-09
3.2166048e-09
3.2646415e-09
3.3174522e-09
3.3909796e-09
3.478717e-09
3.5923219e-09
3.7308795e-09
3.9033366e-09
4.111123e-09
4.3589376e-09
4.642881e-09
4.9542258e-09
5.2778629e-09
5.5964997e-09
5.8935854e-09
6.1585249e-09
6.3867426e-09
6.5790238e-09
6.7373706e-09
6.864659e-09
6.9631107e-09
7.0385429e-09
7.094854e-09
7.1383143e-09
7.1696423e-09
7.1919312e-09
7.2069253e-09
7.2189401e-09
7.2321627e-09
7.2492898e-09
7.2643845e-09
7.2826967e-09
7.2946487e-09
7.3612749e-09
0.0012169889
0.0030960166
0.0042276493
0.0047204364
0.0044216001
0.0030509746
0.00070691225
1.6752315e-07
3.2486559e-09
3.2280796e-09
3.1324687e-09
3.1547069e-09
3.1213787e-09
3.1539595e-09
3.1581436e-09
3.1936958e-09
3.2216275e-09
3.2711094e-09
3.3253058e-09
3.4002225e-09
3.4891189e-09
3.6033895e-09
3.7419855e-09
3.9134905e-09
4.1193576e-09
4.3641542e-09
4.6449705e-09
4.9549968e-09
5.2782334e-09
5.5966684e-09
5.8937297e-09
6.159434e-09
6.3880204e-09
6.5798086e-09
6.7372971e-09
6.8643148e-09
6.9626385e-09
7.0377085e-09
7.0931005e-09
7.1346615e-09
7.1657902e-09
7.1883419e-09
7.2039141e-09
7.2174243e-09
7.2321408e-09
7.2496485e-09
7.2659989e-09
7.2830486e-09
7.3057554e-09
7.3603093e-09
0.0012132977
0.0030726709
0.0041754954
0.0046330682
0.0042902141
0.0028501082
0.00058628987
6.7399042e-08
3.2430518e-09
3.2371538e-09
3.1406858e-09
3.1639476e-09
3.1313144e-09
3.1648415e-09
3.1697137e-09
3.2063732e-09
3.2354311e-09
3.2863082e-09
3.3420501e-09
3.4186192e-09
3.5092166e-09
3.6250416e-09
3.7649646e-09
3.9372059e-09
4.1430751e-09
4.3868237e-09
4.6656042e-09
4.9723783e-09
5.2925679e-09
5.608764e-09
5.9042986e-09
6.1682296e-09
6.3950439e-09
6.5849263e-09
6.7406097e-09
6.8657795e-09
6.9625887e-09
7.0373801e-09
7.0923727e-09
7.1334012e-09
7.1633732e-09
7.1859935e-09
7.2020992e-09
7.2169399e-09
7.2321838e-09
7.2501466e-09
7.2665736e-09
7.2838718e-09
7.3105971e-09
7.3602373e-09
0.0012107562
0.0030497495
0.0041232356
0.0045455675
0.0041590016
0.0026427875
0.0004764838
3.0288639e-08
3.2472811e-09
3.2479069e-09
3.1529655e-09
3.1772718e-09
3.1455848e-09
3.1801928e-09
3.1860364e-09
3.224075e-09
3.2546725e-09
3.3073286e-09
3.3650184e-09
3.4437385e-09
3.536646e-09
3.6547718e-09
3.796912e-09
3.9709019e-09
4.1778051e-09
4.4213563e-09
4.6985466e-09
5.0024036e-09
5.3188506e-09
5.6309283e-09
5.9225247e-09
6.1828963e-09
6.4064194e-09
6.5931838e-09
6.7461179e-09
6.8690472e-09
6.9641043e-09
7.0373124e-09
7.0921143e-09
7.132676e-09
7.1622157e-09
7.1844751e-09
7.2010245e-09
7.2166373e-09
7.2323416e-09
7.2505397e-09
7.2675638e-09
7.2848661e-09
7.3186512e-09
7.3599788e-09
0.0012087327
0.0030271465
0.0040704533
0.00445741
0.0040276685
0.002429623
0.00037698431
1.5691922e-08
3.2577483e-09
3.2644638e-09
3.1696109e-09
3.195047e-09
3.1640709e-09
3.1997814e-09
3.2066457e-09
3.2461467e-09
3.2783326e-09
3.3328832e-09
3.392737e-09
3.4739053e-09
3.5695897e-09
3.690685e-09
3.8359717e-09
4.0129012e-09
4.2222218e-09
4.4669964e-09
4.7436391e-09
5.0447674e-09
5.356646e-09
5.6632254e-09
5.9491726e-09
6.2040797e-09
6.4226754e-09
6.6050825e-09
6.7543524e-09
6.8742241e-09
6.9668823e-09
7.0384107e-09
7.0920278e-09
7.1324557e-09
7.1617052e-09
7.1838272e-09
7.2005552e-09
7.2165342e-09
7.2327296e-09
7.2513125e-09
7.2684663e-09
7.2862716e-09
7.3245328e-09
7.3599512e-09
0.0012067512
0.0030041199
0.0040164945
0.0043680521
0.0038964337
0.0022129171
0.00028710733
9.4762931e-09
3.2723608e-09
3.2825926e-09
3.1887248e-09
3.2153506e-09
3.1853247e-09
3.2222125e-09
3.2302857e-09
3.2713457e-09
3.3053256e-09
3.3619618e-09
3.4242428e-09
3.5082002e-09
3.6071112e-09
3.7317481e-09
3.8809024e-09
4.0616395e-09
4.2743449e-09
4.5212926e-09
4.7981299e-09
5.0968937e-09
5.4039741e-09
5.7040632e-09
5.9829033e-09
6.2309011e-09
6.4432362e-09
6.6202055e-09
6.7649752e-09
6.8812309e-09
6.9710549e-09
7.0404211e-09
7.0927203e-09
7.1323547e-09
7.1615067e-09
7.1835378e-09
7.2003506e-09
7.2164946e-09
7.2333063e-09
7.252347e-09
7.2695543e-09
7.288409e-09
7.3302861e-09
7.3603881e-09
0.0012047331
0.0029811064
0.0039621321
0.0042767982
0.0037642016
0.0019948843
0.00020554286
6.6021885e-09
3.2901501e-09
3.3033e-09
3.2103703e-09
3.2382603e-09
3.2092741e-09
3.2473362e-09
3.2566616e-09
3.2993318e-09
3.3351933e-09
3.394062e-09
3.4590049e-09
3.5460383e-09
3.6485795e-09
3.7772732e-09
3.9309649e-09
4.1163036e-09
4.3332898e-09
4.5832837e-09
4.8609953e-09
5.1576602e-09
5.4596694e-09
5.7525125e-09
6.0231347e-09
6.2629624e-09
6.467858e-09
6.6384213e-09
6.7779396e-09
6.8899822e-09
6.9765119e-09
7.0434518e-09
7.0940912e-09
7.1326899e-09
7.1614385e-09
7.1834344e-09
7.2002784e-09
7.2165191e-09
7.2341164e-09
7.2534543e-09
7.2708141e-09
7.2917268e-09
7.3347491e-09
7.3611668e-09
0.0012026062
0.0029577308
0.0039065922
0.004182875
0.0036301785
0.0017832818
0.00013293294
5.1812795e-09
3.3107049e-09
3.3259889e-09
3.2342113e-09
3.2633189e-09
3.2354352e-09
3.2746763e-09
3.2853559e-09
3.3296972e-09
3.3676184e-09
3.4288951e-09
3.4967362e-09
3.58714e-09
3.693699e-09
3.8269268e-09
3.9857318e-09
4.1763265e-09
4.3982802e-09
4.651946e-09
4.930972e-09
5.2256871e-09
5.5224213e-09
5.8074189e-09
6.0689299e-09
6.2995906e-09
6.4960777e-09
6.6594151e-09
6.7930275e-09
6.9003634e-09
6.9832089e-09
7.0474113e-09
7.0961977e-09
7.1335618e-09
7.1616051e-09
7.1834017e-09
7.2002569e-09
7.2168824e-09
7.2352001e-09
7.2546246e-09
7.2723344e-09
7.2962986e-09
7.3383506e-09
7.3622253e-09
0.001200588
0.0029347073
0.0038506662
0.0040858943
0.0034925599
0.001579161
7.3302515e-05
4.4446992e-09
3.3336271e-09
3.3505989e-09
3.26004e-09
3.290325e-09
3.2635983e-09
3.3040444e-09
3.3161813e-09
3.3623015e-09
3.4024322e-09
3.4662934e-09
3.5372771e-09
3.6313443e-09
3.7423043e-09
3.8805269e-09
4.0449833e-09
4.2414209e-09
4.4689182e-09
4.7267251e-09
5.0073191e-09
5.300079e-09
5.5912425e-09
5.8678483e-09
6.1195143e-09
6.3401854e-09
6.5274639e-09
6.6828902e-09
6.8100458e-09
6.9122342e-09
6.991047e-09
7.0522629e-09
7.0989771e-09
7.1349662e-09
7.162211e-09
7.1836054e-09
7.2004281e-09
7.2175418e-09
7.2365326e-09
7.2559301e-09
7.2741092e-09
7.3013888e-09
7.3415741e-09
7.3635353e-09
0.0011987961
0.0029120564
0.0037948616
0.0039866804
0.0033514964
0.0013843835
3.3029365e-05
4.0558775e-09
3.3583566e-09
3.3767115e-09
3.2875228e-09
3.3189873e-09
3.2935408e-09
3.3352616e-09
3.3490227e-09
3.3970339e-09
3.4395624e-09
3.5061815e-09
3.5805503e-09
3.67858e-09
3.7943259e-09
3.9379839e-09
4.1085892e-09
4.311379e-09
4.5448732e-09
4.8071155e-09
5.0893427e-09
5.3799817e-09
5.6652108e-09
5.9329088e-09
6.1741111e-09
6.3841313e-09
6.561559e-09
6.7085203e-09
6.8287689e-09
6.9254474e-09
6.999932e-09
7.0579326e-09
7.1024071e-09
7.1368857e-09
7.1632196e-09
7.1841484e-09
7.2009129e-09
7.2185142e-09
7.2380798e-09
7.2573473e-09
7.2761266e-09
7.3068197e-09
7.3447038e-09
7.3650463e-09
0.0011973123
0.0028898545
0.0037394325
0.0038908953
0.0032040179
0.0011995554
1.2327255e-05
3.8537614e-09
3.3845926e-09
3.4041856e-09
3.3165355e-09
3.349227e-09
3.3252272e-09
3.368317e-09
3.3838631e-09
3.4338712e-09
3.4789551e-09
3.5485134e-09
3.6265405e-09
3.7288544e-09
3.8497808e-09
3.9993125e-09
4.1765418e-09
4.3861459e-09
4.6259907e-09
4.8928075e-09
5.1765496e-09
5.4647204e-09
5.7435407e-09
6.001801e-09
6.2319954e-09
6.4308275e-09
6.5978999e-09
6.7359673e-09
6.8489597e-09
6.9398366e-09
7.0097491e-09
7.0643462e-09
7.1064322e-09
7.1392939e-09
7.164634e-09
7.1850357e-09
7.2017262e-09
7.2197844e-09
7.239839e-09
7.258857e-09
7.2783608e-09
7.3124037e-09
7.3478771e-09
7.366704e-09
0.0011960791
0.0028679322
0.0036839613
0.0037904745
0.0030472701
0.0010263755
4.0443919e-06
3.7542539e-09
3.4122524e-09
3.4330086e-09
3.3470754e-09
3.3810884e-09
3.358673e-09
3.4032286e-09
3.4206732e-09
3.4727835e-09
3.5205908e-09
3.5932965e-09
3.6752672e-09
3.7821969e-09
3.9086973e-09
4.0645283e-09
4.2488331e-09
4.4656552e-09
4.7121044e-09
4.9834844e-09
5.2684505e-09
5.5536622e-09
5.8255146e-09
6.0737997e-09
6.2925049e-09
6.4797179e-09
6.6360498e-09
6.7649054e-09
6.8703857e-09
6.9552388e-09
7.0203846e-09
7.071424e-09
7.1110046e-09
7.1421583e-09
7.1664322e-09
7.1862575e-09
7.2028703e-09
7.2213544e-09
7.2417569e-09
7.2604453e-09
7.280843e-09
7.3180535e-09
7.3510817e-09
7.3685031e-09
0.0011948385
0.0028458904
0.0036295851
0.0036880283
0.0028811841
0.00086687558
1.254977e-06
3.7120314e-09
3.4413818e-09
3.4632463e-09
3.3792756e-09
3.4146155e-09
3.3939303e-09
3.4399579e-09
3.4594354e-09
3.51374e-09
3.5644818e-09
3.640576e-09
3.7268052e-09
3.8386988e-09
3.9711733e-09
4.1337386e-09
4.3255555e-09
4.5499586e-09
4.8031612e-09
5.0789427e-09
5.3646599e-09
5.6462728e-09
5.9104966e-09
6.1482409e-09
6.3550154e-09
6.530263e-09
6.6755741e-09
6.7950042e-09
6.8928064e-09
6.9714805e-09
7.0317139e-09
7.0790797e-09
7.1160655e-09
7.1454431e-09
7.1685939e-09
7.1878088e-09
7.2043446e-09
7.2232227e-09
7.2438001e-09
7.2621495e-09
7.2836969e-09
7.3236324e-09
7.3543163e-09
7.3704128e-09
0.0011935042
0.0028228161
0.0035711915
0.0035825042
0.0027050928
0.00072247391
3.9252549e-07
3.7026663e-09
3.4722171e-09
3.4950991e-09
3.4131538e-09
3.4498064e-09
3.4309069e-09
3.4784615e-09
3.5001045e-09
3.5567753e-09
3.6106901e-09
3.6904292e-09
3.7812342e-09
3.8984374e-09
4.0372861e-09
4.2070162e-09
4.4067599e-09
4.6390476e-09
4.8990407e-09
5.1789151e-09
5.4647609e-09
5.7420133e-09
5.9978841e-09
6.2245172e-09
6.4189653e-09
6.5819791e-09
6.716081e-09
6.8259636e-09
6.9160009e-09
6.9883987e-09
7.0436181e-09
7.0872295e-09
7.121559e-09
7.1491113e-09
7.1710979e-09
7.1896808e-09
7.2061418e-09
7.2253627e-09
7.2458987e-09
7.2640435e-09
7.2871517e-09
7.3289712e-09
7.3575279e-09
7.3724409e-09
0.0011922364
0.0027997245
0.0035123382
0.0034760916
0.0025198028
0.0005947618
1.3088164e-07
3.7118488e-09
3.5045381e-09
3.5283393e-09
3.44854e-09
3.4865108e-09
3.4695412e-09
3.5187074e-09
3.5427363e-09
3.6019494e-09
3.6593061e-09
3.742959e-09
3.8386665e-09
3.9615391e-09
4.1071846e-09
4.2845228e-09
4.4926034e-09
4.733016e-09
4.9997207e-09
5.2832122e-09
5.5684056e-09
5.8404022e-09
6.0871237e-09
6.302061e-09
6.4838214e-09
6.6343996e-09
6.7571873e-09
6.8574875e-09
6.9397458e-09
7.0058245e-09
7.0559721e-09
7.0957847e-09
7.1274245e-09
7.1531234e-09
7.173921e-09
7.1918659e-09
7.2082545e-09
7.2277498e-09
7.2481135e-09
7.2661816e-09
7.2914772e-09
7.3338783e-09
7.360658e-09
7.3745747e-09
0.0011910171
0.0027759318
0.0034521649
0.0033682678
0.0023259873
0.00047709447
4.873577e-08
3.7317971e-09
3.5381842e-09
3.5628632e-09
3.4853634e-09
3.5247184e-09
3.5098447e-09
3.5607865e-09
3.5874135e-09
3.6493983e-09
3.7104387e-09
3.7982631e-09
3.899198e-09
4.0281093e-09
4.1809851e-09
4.3663721e-09
4.5831714e-09
4.831863e-09
5.105072e-09
5.3915443e-09
5.6751698e-09
5.9409316e-09
6.1776755e-09
6.3803461e-09
6.5491048e-09
6.6871141e-09
6.79856e-09
6.8893185e-09
6.9638418e-09
7.0236044e-09
7.0686619e-09
7.1046625e-09
7.133606e-09
7.1574422e-09
7.1770411e-09
7.1943543e-09
7.2106725e-09
7.2303441e-09
7.2504897e-09
7.2685724e-09
7.2967877e-09
7.338267e-09
7.3636758e-09
7.3767525e-09
0.0011897964
0.0027510573
0.0033897799
0.0032546851
0.0021249871
0.0003707849
2.1431127e-08
3.7582141e-09
3.5731174e-09
3.5986603e-09
3.5236556e-09
3.564508e-09
3.5519609e-09
3.6048267e-09
3.6342894e-09
3.699211e-09
3.7641781e-09
3.8564453e-09
3.9629535e-09
4.0983164e-09
4.2588752e-09
4.4527824e-09
4.6786402e-09
4.9356991e-09
5.2150403e-09
5.5037037e-09
5.7846891e-09
6.043148e-09
6.2690441e-09
6.4588822e-09
6.6143647e-09
6.7397329e-09
6.8398806e-09
6.9212041e-09
6.9880894e-09
7.0415859e-09
7.0815734e-09
7.1137774e-09
7.1400455e-09
7.1620287e-09
7.180434e-09
7.1971332e-09
7.213382e-09
7.2331062e-09
7.2528978e-09
7.2711954e-09
7.3025552e-09
7.3425409e-09
7.3665733e-09
7.3789461e-09
0.0011884631
0.0027246168
0.0033248914
0.0031356213
0.0019198836
0.00027480524
1.1454615e-08
3.788681e-09
3.6093915e-09
3.6358788e-09
3.5635999e-09
3.6060882e-09
3.5960457e-09
3.6509715e-09
3.6834351e-09
3.751486e-09
3.8206113e-09
3.9176022e-09
4.0300618e-09
4.1723013e-09
4.3410205e-09
4.5438917e-09
4.7791067e-09
5.0444886e-09
5.3294461e-09
5.619347e-09
5.8965131e-09
6.1465461e-09
6.3607249e-09
6.5372051e-09
6.6791972e-09
6.7919187e-09
6.8808765e-09
6.9529263e-09
7.0123146e-09
7.0596412e-09
7.0946081e-09
7.1230529e-09
7.1466909e-09
7.1668471e-09
7.1840774e-09
7.2001884e-09
7.2163651e-09
7.2360199e-09
7.2552738e-09
7.2740624e-09
7.3086522e-09
7.346744e-09
7.3693807e-09
7.3810688e-09
0.0011868661
0.0026963131
0.0032557008
0.0030154463
0.001713585
0.00018775858
7.4131223e-09
3.822055e-09
3.6473308e-09
3.6748023e-09
3.605413e-09
3.6496012e-09
3.6422062e-09
3.6992663e-09
3.7349166e-09
3.8062668e-09
3.8798236e-09
3.9818636e-09
4.1006964e-09
4.2502792e-09
4.4276643e-09
4.639949e-09
4.8847646e-09
5.1583032e-09
5.4481849e-09
5.7381914e-09
6.0102425e-09
6.2506566e-09
6.4522443e-09
6.6148828e-09
6.7432307e-09
6.8433576e-09
6.9212845e-09
6.9842636e-09
7.0363516e-09
7.0776534e-09
7.1076677e-09
7.1324146e-09
7.1534892e-09
7.1718609e-09
7.1879474e-09
7.2035031e-09
7.2195965e-09
7.2390579e-09
7.2575903e-09
7.2772363e-09
7.3149314e-09
7.3509079e-09
7.3720659e-09
7.3830659e-09
0.0011851282
0.0026670682
0.0031800679
0.0028928311
0.0015086893
0.00011078536
5.6186906e-09
3.8576716e-09
3.6871238e-09
3.7155476e-09
3.6491494e-09
3.6950635e-09
3.6904284e-09
3.7497309e-09
3.7887571e-09
3.8636346e-09
3.9419277e-09
4.0493843e-09
4.1750309e-09
4.3324504e-09
4.5189965e-09
4.7411191e-09
4.9956755e-09
5.2770543e-09
5.5709793e-09
5.8598113e-09
6.1253586e-09
6.3549452e-09
6.5431151e-09
6.6915126e-09
6.8061481e-09
6.8937887e-09
6.9608797e-09
7.0150265e-09
7.0600777e-09
7.0955311e-09
7.1206613e-09
7.1418019e-09
7.1603938e-09
7.1770378e-09
7.1920218e-09
7.207061e-09
7.2230487e-09
7.2421859e-09
7.259932e-09
7.2808005e-09
7.321279e-09
7.3549789e-09
7.3746262e-09
7.3849912e-09
0.0011834913
0.0026386441
0.0031095549
0.0027652745
0.0013085512
5.1662698e-05
4.7829752e-09
3.8950274e-09
3.728705e-09
3.7580363e-09
3.6947118e-09
3.7424198e-09
3.7407063e-09
3.8023954e-09
3.8450354e-09
3.9236883e-09
4.0070771e-09
4.1203513e-09
4.2533012e-09
4.4190752e-09
4.6153105e-09
4.8476648e-09
5.1120218e-09
5.4007469e-09
5.6976394e-09
5.9838481e-09
6.241388e-09
6.4589205e-09
6.6328995e-09
6.7667441e-09
6.8676781e-09
6.9429801e-09
6.9994503e-09
7.0450483e-09
7.0834083e-09
7.1131732e-09
7.1334874e-09
7.1511565e-09
7.1673578e-09
7.1823449e-09
7.1962776e-09
7.2108429e-09
7.2266912e-09
7.2453811e-09
7.2625319e-09
7.2848787e-09
7.3275357e-09
7.3588958e-09
7.3770284e-09
7.3867625e-09
0.0011816873
0.002608443
0.0030346164
0.0026302135
0.0011165689
1.8119671e-05
4.3928792e-09
3.9337735e-09
3.7718384e-09
3.8021051e-09
3.7420739e-09
3.7916664e-09
3.7931038e-09
3.8573266e-09
3.903868e-09
3.9865851e-09
4.0754522e-09
4.1949756e-09
4.3357297e-09
4.5103902e-09
4.7168205e-09
4.9597363e-09
5.2338062e-09
5.5291849e-09
5.8277726e-09
6.1097608e-09
6.3577356e-09
6.5620391e-09
6.7211773e-09
6.8402715e-09
6.927592e-09
6.9907404e-09
7.0368354e-09
7.0742479e-09
7.1063106e-09
7.1304555e-09
7.1460534e-09
7.1604217e-09
7.1743423e-09
7.1877547e-09
7.2006944e-09
7.2148285e-09
7.2304892e-09
7.248626e-09
7.2653833e-09
7.2896262e-09
7.3335073e-09
7.3625887e-09
7.3792655e-09
7.3883858e-09
0.0011797218
0.0025772333
0.0029569825
0.0024870341
0.00093636941
5.0865345e-06
4.2204874e-09
3.975397e-09
3.8165228e-09
3.8479059e-09
3.7912804e-09
3.8429403e-09
3.8476938e-09
3.9146693e-09
3.9653979e-09
4.0524988e-09
4.1472589e-09
4.2734998e-09
4.4225922e-09
4.6067091e-09
4.8238462e-09
5.0776033e-09
5.361148e-09
5.6622758e-09
5.9610601e-09
6.2370621e-09
6.473871e-09
6.6638526e-09
6.8076328e-09
6.9118531e-09
6.9856677e-09
7.0368784e-09
7.072913e-09
7.1026324e-09
7.1287252e-09
7.1472106e-09
7.158292e-09
7.1695215e-09
7.1813121e-09
7.1932396e-09
7.2052507e-09
7.218993e-09
7.2344005e-09
7.2518928e-09
7.2685393e-09
7.2952472e-09
7.3389829e-09
7.3659925e-09
7.381358e-09
7.3899597e-09
0.0011776544
0.0025455631
0.0028767347
0.0023387779
0.00077082623
1.27519e-06
4.1567548e-09
4.0184585e-09
3.8630043e-09
3.8955086e-09
3.8424755e-09
3.8962999e-09
3.9046215e-09
3.9745631e-09
4.0298123e-09
4.1216385e-09
4.2227281e-09
4.3561718e-09
4.514153e-09
4.7082977e-09
4.9366082e-09
5.2013733e-09
5.4939423e-09
5.7996782e-09
6.0969379e-09
6.3650927e-09
6.5891947e-09
6.7639637e-09
6.8920225e-09
6.9812743e-09
7.041654e-09
7.0811969e-09
7.1076256e-09
7.1302847e-09
7.1504456e-09
7.163333e-09
7.170205e-09
7.1783791e-09
7.1882426e-09
7.198778e-09
7.2099296e-09
7.22331e-09
7.2383809e-09
7.2551587e-09
7.2720351e-09
7.3018598e-09
7.3438478e-09
7.3691072e-09
7.3832729e-09
7.3914213e-09
0.0011756938
0.0025140373
0.0027948556
0.0021821207
0.00062208246
3.2709118e-07
4.1478707e-09
4.0630915e-09
3.9112261e-09
3.9449946e-09
3.8957185e-09
3.951896e-09
3.9640484e-09
4.0372027e-09
4.097305e-09
4.194213e-09
4.3021039e-09
4.4432697e-09
4.6107468e-09
4.8155036e-09
5.0554654e-09
5.3312654e-09
5.632228e-09
5.9411333e-09
6.2349465e-09
6.4932988e-09
6.7032946e-09
6.8621743e-09
6.9741889e-09
7.0483144e-09
7.0952528e-09
7.1234799e-09
7.1409425e-09
7.1571756e-09
7.1711245e-09
7.1788345e-09
7.1818401e-09
7.1869571e-09
7.1951089e-09
7.2043488e-09
7.214713e-09
7.2277493e-09
7.2423861e-09
7.2584151e-09
7.2759285e-09
7.3088788e-09
7.3484708e-09
7.3719758e-09
7.3850298e-09
7.3927493e-09
0.0011738992
0.0024828579
0.0027175407
0.0020159983
0.00049355253
9.9112387e-08
4.1666673e-09
4.109364e-09
3.9612904e-09
3.9964858e-09
3.9511789e-09
4.009911e-09
4.0261678e-09
4.1027707e-09
4.1680762e-09
4.2704628e-09
4.3856428e-09
4.5350952e-09
4.7126679e-09
4.928634e-09
5.1806041e-09
5.4673099e-09
5.7757259e-09
6.08611e-09
6.3743659e-09
6.6210308e-09
6.8158431e-09
6.9583143e-09
7.053844e-09
7.1126311e-09
7.1461847e-09
7.1635872e-09
7.1728467e-09
7.1829133e-09
7.1907599e-09
7.1937252e-09
7.1931867e-09
7.1953374e-09
7.2018828e-09
7.2099359e-09
7.2195852e-09
7.2322802e-09
7.2463757e-09
7.26166e-09
7.2802238e-09
7.3160517e-09
7.3529009e-09
7.3746365e-09
7.3866246e-09
7.3939774e-09
0.0011721169
0.0024505809
0.0026392484
0.0018399699
0.00038099378
3.7374494e-08
4.1994443e-09
4.1573636e-09
4.0133252e-09
4.0501761e-09
4.0090568e-09
4.0705354e-09
4.0911578e-09
4.1714507e-09
4.2423332e-09
4.3506233e-09
4.4736333e-09
4.6319851e-09
4.8203051e-09
5.0480902e-09
5.3123719e-09
5.6096511e-09
5.9243002e-09
6.2341727e-09
6.5146263e-09
6.7478957e-09
6.9267512e-09
7.0521271e-09
7.1303748e-09
7.1737117e-09
7.1943772e-09
7.201624e-09
7.2032952e-09
7.2071826e-09
7.2095593e-09
7.2080134e-09
7.2039793e-09
7.2036979e-09
7.2085218e-09
7.2155222e-09
7.2245284e-09
7.2368702e-09
7.2503166e-09
7.2649002e-09
7.2848133e-09
7.3231599e-09
7.3571646e-09
7.3771326e-09
7.3880814e-09
7.3950832e-09
0.0011703788
0.0024169254
0.0025574148
0.0016561904
0.00028055955
1.7504542e-08
4.2403735e-09
4.2073646e-09
4.0675587e-09
4.1063233e-09
4.0695243e-09
4.1339147e-09
4.1591687e-09
4.2434167e-09
4.3203169e-09
4.4349724e-09
4.5663984e-09
4.7342782e-09
4.9340188e-09
5.1741657e-09
5.450913e-09
5.7581338e-09
6.0774654e-09
6.3845776e-09
6.6550159e-09
6.8735446e-09
7.0357584e-09
7.1427096e-09
7.2031678e-09
7.231304e-09
7.2399789e-09
7.2377861e-09
7.2322014e-09
7.2300057e-09
7.227772e-09
7.2215862e-09
7.2140818e-09
7.2120433e-09
7.2149962e-09
7.2210939e-09
7.2295249e-09
7.2414879e-09
7.2541885e-09
7.2681796e-09
7.2896561e-09
7.330045e-09
7.3612188e-09
7.3794662e-09
7.389454e-09
7.3960982e-09
0.0011687876
0.0023820397
0.0024738869
0.0014683843
0.00019087106
1.0282771e-08
4.286965e-09
4.2596617e-09
4.1241374e-09
4.1649885e-09
4.1326859e-09
4.2001513e-09
4.2303671e-09
4.3188766e-09
4.4022714e-09
4.5238291e-09
4.6642841e-09
4.8423977e-09
5.0542523e-09
5.3073084e-09
5.5965026e-09
5.9127633e-09
6.2348611e-09
6.5367628e-09
6.7951061e-09
6.9979055e-09
7.1420926e-09
7.2292878e-09
7.271746e-09
7.2854973e-09
7.2835716e-09
7.2721031e-09
7.2593614e-09
7.2516935e-09
7.2449969e-09
7.2343535e-09
7.2236909e-09
7.220238e-09
7.221333e-09
7.2266356e-09
7.2345547e-09
7.2461007e-09
7.2579853e-09
7.2715865e-09
7.294959e-09
7.3365594e-09
7.3650084e-09
7.3816319e-09
7.3907337e-09
7.3970388e-09
0.0011672973
0.0023453914
0.0023871522
0.0012843793
0.00011254326
7.33356e-09
4.3372949e-09
4.3140905e-09
4.183058e-09
4.2262068e-09
4.198607e-09
4.2694229e-09
4.3049733e-09
4.3980564e-09
4.4885243e-09
4.6175314e-09
4.7676816e-09
4.9567473e-09
5.1814089e-09
5.4477701e-09
5.7491426e-09
6.0731283e-09
6.3957519e-09
6.6899225e-09
6.93446e-09
7.1206175e-09
7.2445129e-09
7.3110561e-09
7.3361187e-09
7.3373307e-09
7.3245358e-09
7.3043808e-09
7.2848907e-09
7.2722487e-09
7.2613345e-09
7.2463508e-09
7.2328449e-09
7.2280586e-09
7.2276396e-09
7.2321363e-09
7.2395947e-09
7.2506754e-09
7.2617136e-09
7.2752523e-09
7.3009508e-09
7.3425011e-09
7.368464e-09
7.3836072e-09
7.3918953e-09
7.3978871e-09
0.0011654813
0.0023032147
0.0022957542
0.0011110836
5.2735678e-05
6.0304877e-09
4.3906818e-09
4.3705577e-09
4.2444033e-09
4.2900431e-09
4.2675101e-09
4.3419465e-09
4.3832966e-09
4.4813521e-09
4.5793821e-09
4.7164537e-09
4.8770205e-09
5.0778413e-09
5.3159864e-09
5.59599e-09
5.9089528e-09
6.2390127e-09
6.5595757e-09
6.8435814e-09
7.0729511e-09
7.2405442e-09
7.3421891e-09
7.3876667e-09
7.3974294e-09
7.3861603e-09
7.3629852e-09
7.3345954e-09
7.3088494e-09
7.2917135e-09
7.2767156e-09
7.2576472e-09
7.2416481e-09
7.2353389e-09
7.2339392e-09
7.2375871e-09
7.2446193e-09
7.2551777e-09
7.2653867e-09
7.2793025e-09
7.3077701e-09
7.3477387e-09
7.3715451e-09
7.3853664e-09
7.3929248e-09
7.3986425e-09
0.001163217
0.0022560252
0.0021979507
0.00094806284
1.8685664e-05
5.4372966e-09
4.4464185e-09
4.4293601e-09
4.3083093e-09
4.3568209e-09
4.3396727e-09
4.4180619e-09
4.4656274e-09
4.56906e-09
4.675204e-09
4.821021e-09
4.9927874e-09
5.2061491e-09
5.458398e-09
5.7520889e-09
6.0756934e-09
6.4096913e-09
6.7254731e-09
6.9971189e-09
7.2101321e-09
7.3561698e-09
7.4341917e-09
7.4598996e-09
7.4556065e-09
7.4319049e-09
7.398864e-09
7.3627746e-09
7.3312875e-09
7.3101067e-09
7.2911777e-09
7.268268e-09
7.2499775e-09
7.242257e-09
7.2401552e-09
7.2429849e-09
7.2496039e-09
7.2595759e-09
7.269019e-09
7.2837881e-09
7.3151381e-09
7.352408e-09
7.3742868e-09
7.3868955e-09
7.3938042e-09
7.3993002e-09
0.0011601613
0.0022029338
0.002090651
0.00079666261
5.2859827e-06
5.1765948e-09
4.5047755e-09
4.4906655e-09
4.3751367e-09
4.4269259e-09
4.4154368e-09
4.4980203e-09
4.5522472e-09
4.6615185e-09
4.7763894e-09
4.931715e-09
5.115532e-09
5.3422572e-09
5.6091664e-09
5.9163741e-09
6.2492569e-09
6.5846837e-09
6.8928859e-09
7.1503287e-09
7.3447905e-09
7.4664557e-09
7.5201755e-09
7.5290055e-09
7.5100653e-09
7.4745625e-09
7.4322406e-09
7.3889669e-09
7.3522623e-09
7.3274545e-09
7.3047226e-09
7.2782151e-09
7.2578221e-09
7.2488595e-09
7.246263e-09
7.2483256e-09
7.2545247e-09
7.2638449e-09
7.2726241e-09
7.2886876e-09
7.3225531e-09
7.3568196e-09
7.3767874e-09
7.388224e-09
7.394469e-09
7.3997056e-09
0.0011562318
0.0021435484
0.001964021
0.00065813691
1.3428954e-06
5.0790746e-09
4.5661222e-09
4.5549582e-09
4.4452331e-09
4.5005835e-09
4.495022e-09
4.582031e-09
4.6434257e-09
4.7591003e-09
4.8834207e-09
5.0491078e-09
5.2458153e-09
5.4866844e-09
5.7685928e-09
6.0887444e-09
6.4290293e-09
6.7630411e-09
7.0610142e-09
7.3027004e-09
7.4751476e-09
7.5703411e-09
7.6014028e-09
7.5942232e-09
7.5608735e-09
7.5141714e-09
7.4631642e-09
7.4132393e-09
7.3718389e-09
7.3437925e-09
7.3173763e-09
7.287478e-09
7.2652002e-09
7.2552072e-09
7.2522368e-09
7.253597e-09
7.2593601e-09
7.2679703e-09
7.2762228e-09
7.2939242e-09
7.3298693e-09
7.3610153e-09
7.379071e-09
7.3893531e-09
7.3949651e-09
7.3999944e-09
0.0011518733
0.0020803142
0.0018228695
0.00053456578
3.4962787e-07
5.0637261e-09
4.6307184e-09
4.6224733e-09
4.5187312e-09
4.5778747e-09
4.5785666e-09
4.6703492e-09
4.7395364e-09
4.8622842e-09
4.9968759e-09
5.1738033e-09
5.3842859e-09
5.6400544e-09
5.9371345e-09
6.2692771e-09
6.6146222e-09
6.944185e-09
7.2294866e-09
7.453238e-09
7.5998471e-09
7.6674196e-09
7.6790616e-09
7.6550694e-09
7.608019e-09
7.5508105e-09
7.4917153e-09
7.4356668e-09
7.3900844e-09
7.3591596e-09
7.3291562e-09
7.2960438e-09
7.2721369e-09
7.2613299e-09
7.2580771e-09
7.2587742e-09
7.2640875e-09
7.2719499e-09
7.2798616e-09
7.2994701e-09
7.3369574e-09
7.3649922e-09
7.3811439e-09
7.3903175e-09
7.3953311e-09
7.4001679e-09
0.0011472223
0.0020140784
0.0016693985
0.00042338459
1.0653251e-07
5.089924e-09
4.6983656e-09
4.6930795e-09
4.5956808e-09
4.658913e-09
4.6663771e-09
4.7633455e-09
4.8410799e-09
4.9716883e-09
5.1173896e-09
5.3064577e-09
5.5315538e-09
5.802834e-09
6.1148737e-09
6.4575059e-09
6.8050806e-09
7.1271578e-09
7.3976675e-09
7.5998915e-09
7.7176516e-09
7.758943e-09
7.7522588e-09
7.7116043e-09
7.6515803e-09
7.5845648e-09
7.5179798e-09
7.4563362e-09
7.407075e-09
7.3736062e-09
7.3400888e-09
7.3039161e-09
7.2786695e-09
7.2672386e-09
7.2637572e-09
7.263857e-09
7.2686819e-09
7.2757933e-09
7.2836337e-09
7.3054214e-09
7.3436181e-09
7.3686435e-09
7.3830099e-09
7.3911456e-09
7.3956267e-09
7.4002595e-09
0.0011421468
0.0019437853
0.0015164819
0.00032773644
4.1912551e-08
5.1373798e-09
4.7687613e-09
4.766963e-09
4.6762148e-09
4.7441505e-09
4.7589109e-09
4.8616644e-09
4.9487029e-09
5.0879421e-09
5.2456157e-09
5.4477452e-09
5.6883381e-09
5.9756072e-09
6.3020898e-09
6.6531734e-09
6.9998437e-09
7.3114516e-09
7.5649898e-09
7.7408058e-09
7.8277871e-09
7.8462812e-09
7.8204788e-09
7.7638533e-09
7.6916609e-09
7.615547e-09
7.5420582e-09
7.4753375e-09
7.4228854e-09
7.3871755e-09
7.3501878e-09
7.3111231e-09
7.2848437e-09
7.2729422e-09
7.2691968e-09
7.2688892e-09
7.2731164e-09
7.2795224e-09
7.2876711e-09
7.3120017e-09
7.3495814e-09
7.3719396e-09
7.3846649e-09
7.3918646e-09
7.3958827e-09
7.4002897e-09
0.0011368907
0.0018648123
0.0013636473
0.00024090841
2.021587e-08
5.1960647e-09
4.8421566e-09
4.8442934e-09
4.7610223e-09
4.8341798e-09
4.8569318e-09
4.9660024e-09
5.0630356e-09
5.2117278e-09
5.3822345e-09
5.5983868e-09
5.8552295e-09
6.1586852e-09
6.4984658e-09
6.8553935e-09
7.1977884e-09
7.4962075e-09
7.7291875e-09
7.8745568e-09
7.9312981e-09
7.9286585e-09
7.8836612e-09
7.8119021e-09
7.7283742e-09
7.6438704e-09
7.5640524e-09
7.4927717e-09
7.4375948e-09
7.3999047e-09
7.359444e-09
7.3177437e-09
7.2907183e-09
7.2784865e-09
7.2743956e-09
7.2738198e-09
7.2773747e-09
7.2831791e-09
7.292091e-09
7.3193235e-09
7.3546424e-09
7.3748252e-09
7.3861209e-09
7.3924777e-09
7.3961094e-09
7.4002795e-09
0.0011334862
0.0017937129
0.0012104794
0.00016248794
1.2115681e-08
5.2616536e-09
4.9196019e-09
4.9260628e-09
4.8508761e-09
4.9297572e-09
4.9610963e-09
5.0769619e-09
5.1847135e-09
5.3436801e-09
5.5279711e-09
5.7591415e-09
6.0329854e-09
6.3524866e-09
6.703974e-09
7.0635839e-09
7.3983451e-09
7.6809854e-09
7.88823e-09
7.9999942e-09
8.0296296e-09
8.0055017e-09
7.9418762e-09
7.8558866e-09
7.7618687e-09
7.669668e-09
7.5840798e-09
7.5087375e-09
7.4512748e-09
7.4118051e-09
7.3677975e-09
7.323915e-09
7.2963284e-09
7.2838454e-09
7.2793912e-09
7.278634e-09
7.2814461e-09
7.2868275e-09
7.2969234e-09
7.3268433e-09
7.359085e-09
7.377352e-09
7.3873975e-09
7.3930234e-09
7.3963134e-09
7.4002538e-09
0.0011308356
0.0017193382
0.0010581869
9.3904536e-05
8.7176313e-09
5.3324618e-09
5.0014415e-09
5.0130651e-09
4.9464386e-09
5.0314501e-09
5.071929e-09
5.1950995e-09
5.3143302e-09
5.4845753e-09
5.6836312e-09
5.9308101e-09
6.2220902e-09
6.556994e-09
6.9177911e-09
7.276587e-09
7.6003109e-09
7.8639057e-09
8.0399911e-09
8.1174244e-09
8.1226324e-09
8.0764817e-09
7.9951941e-09
7.8959434e-09
7.7922889e-09
7.693071e-09
7.6022548e-09
7.5233391e-09
7.4639966e-09
7.4228805e-09
7.3751907e-09
7.3297888e-09
7.3016874e-09
7.2889911e-09
7.2842334e-09
7.2833395e-09
7.2853257e-09
7.2905342e-09
7.3021065e-09
7.3341298e-09
7.3631542e-09
7.3795924e-09
7.3884943e-09
7.3934477e-09
7.3964684e-09
7.4002235e-09
0.0011293231
0.0016407285
0.0009104857
4.2666537e-05
7.1965973e-09
5.4078662e-09
5.0886244e-09
5.1058566e-09
5.0480915e-09
5.1395891e-09
5.1899049e-09
5.3210306e-09
5.452639e-09
5.6352121e-09
5.8500889e-09
6.1142504e-09
6.4231928e-09
6.7723265e-09
7.1395036e-09
7.4937502e-09
7.8031977e-09
8.0426943e-09
8.1831071e-09
8.228358e-09
8.2095562e-09
8.1417374e-09
8.0437878e-09
7.9322656e-09
7.8198094e-09
7.7142241e-09
7.6186991e-09
7.536678e-09
7.4758212e-09
7.4331388e-09
7.3817813e-09
7.3353303e-09
7.3067997e-09
7.2939372e-09
7.2889372e-09
7.2879313e-09
7.289034e-09
7.2943026e-09
7.3075496e-09
7.3410183e-09
7.3669049e-09
7.3815616e-09
7.3894113e-09
7.393769e-09
7.3965781e-09
7.4001783e-09
0.0011294282
0.0015572334
0.0007702639
1.4666767e-05
6.5078847e-09
5.487935e-09
5.1811092e-09
5.204525e-09
5.1560171e-09
5.2545524e-09
5.3156559e-09
5.4555623e-09
5.6005252e-09
5.7965504e-09
6.0283118e-09
6.3101818e-09
6.6365212e-09
6.997869e-09
7.3678781e-09
7.7137339e-09
8.0056797e-09
8.2143266e-09