/*--------------------------------*- C++ -*----------------------------------*\
  =========                 |
  \\      /  F ield         | OpenFOAM: The Open Source CFD Toolbox
   \\    /   O peration     | Website:  https://openfoam.org
    \\  /    A nd           | Version:  8
     \\/     M anipulation  |
\*---------------------------------------------------------------------------*/
FoamFile
{
    version     2.0;
    format      ascii;
    class       volScalarField;
    location    "0.159995";
    object      nuTilda;
}
// * * * * * * * * * * * * * * * * * * * * * * * * * * * * * * * * * * * * * //

dimensions      [0 2 -1 0 0 0 0];

internalField   nonuniform List<scalar> 
20000
(
0.0012451976
0.0031559213
0.0043390444
0.0048977388
0.0046807762
0.0034218027
0.00097358352
4.4728536e-05
1.0199143e-05
1.0135106e-05
1.0058778e-05
1.0064274e-05
1.0023449e-05
1.0028493e-05
1.0015101e-05
1.0014814e-05
1.0008425e-05
1.0006717e-05
1.0004075e-05
1.0002931e-05
1.0001918e-05
1.000153e-05
1.0001372e-05
1.0001288e-05
1.0001122e-05
1.0000897e-05
1.0000681e-05
1.0000516e-05
1.0000434e-05
1.0000415e-05
1.0000468e-05
1.0000605e-05
1.0000713e-05
1.0000702e-05
1.0000694e-05
1.0000774e-05
1.0000739e-05
1.0000821e-05
1.000091e-05
1.0000914e-05
1.0000878e-05
1.0000841e-05
1.0000812e-05
1.0000762e-05
1.0000708e-05
1.0000753e-05
1.0000389e-05
1.0000514e-05
1.0000751e-05
1.000076e-05
0.0012247315
0.0031185451
0.0042792901
0.0048081391
0.0045545598
0.0032500195
0.00084632935
3.4972962e-05
1.0177288e-05
1.0134576e-05
1.0057986e-05
1.0061548e-05
1.0023001e-05
1.0028402e-05
1.0014918e-05
1.0014683e-05
1.000836e-05
1.000667e-05
1.0004049e-05
1.0002913e-05
1.0001908e-05
1.0001523e-05
1.0001373e-05
1.0001298e-05
1.0001132e-05
1.000091e-05
1.0000688e-05
1.0000514e-05
1.0000427e-05
1.0000411e-05
1.0000461e-05
1.0000582e-05
1.0000678e-05
1.0000674e-05
1.0000666e-05
1.0000748e-05
1.0000712e-05
1.0000789e-05
1.0000874e-05
1.0000896e-05
1.0000863e-05
1.0000828e-05
1.0000802e-05
1.0000762e-05
1.0000732e-05
1.0000781e-05
1.0000376e-05
1.000045e-05
1.0000614e-05
1.0000734e-05
0.0012196866
0.0030964302
0.0042278698
0.0047206111
0.0044217941
0.0030513612
0.00071339038
2.7219185e-05
1.0162679e-05
1.0131708e-05
1.0055553e-05
1.0057836e-05
1.0022744e-05
1.0028206e-05
1.0014728e-05
1.0014534e-05
1.000827e-05
1.00066e-05
1.0004005e-05
1.0002884e-05
1.0001888e-05
1.0001511e-05
1.0001367e-05
1.00013e-05
1.0001136e-05
1.0000914e-05
1.0000693e-05
1.0000517e-05
1.0000425e-05
1.0000406e-05
1.0000453e-05
1.0000577e-05
1.0000682e-05
1.0000675e-05
1.0000655e-05
1.0000743e-05
1.0000706e-05
1.0000783e-05
1.0000873e-05
1.0000895e-05
1.0000862e-05
1.0000828e-05
1.0000802e-05
1.0000767e-05
1.0000749e-05
1.0000798e-05
1.0000376e-05
1.0000463e-05
1.0000605e-05
1.000072e-05
0.0012159783
0.0030730893
0.0041757207
0.004633249
0.0042904193
0.002850548
0.000595479
2.1650094e-05
1.0152035e-05
1.0131338e-05
1.0054988e-05
1.0056751e-05
1.0022519e-05
1.0028e-05
1.0014551e-05
1.0014374e-05
1.0008189e-05
1.000653e-05
1.0003968e-05
1.0002857e-05
1.0001874e-05
1.0001503e-05
1.0001367e-05
1.00013e-05
1.0001136e-05
1.0000915e-05
1.0000696e-05
1.0000521e-05
1.0000425e-05
1.0000404e-05
1.0000449e-05
1.0000566e-05
1.0000674e-05
1.0000671e-05
1.000065e-05
1.0000742e-05
1.0000703e-05
1.0000775e-05
1.0000865e-05
1.000089e-05
1.0000858e-05
1.0000825e-05
1.0000797e-05
1.0000762e-05
1.0000751e-05
1.0000772e-05
1.0000372e-05
1.0000451e-05
1.0000567e-05
1.0000688e-05
0.0012134299
0.0030501723
0.0041234657
0.0045457544
0.0041592186
0.0026432941
0.00048981268
1.7705929e-05
1.0145384e-05
1.0130198e-05
1.0054341e-05
1.0056347e-05
1.0022289e-05
1.0027773e-05
1.0014381e-05
1.0014206e-05
1.0008106e-05
1.0006456e-05
1.0003927e-05
1.0002828e-05
1.0001858e-05
1.0001493e-05
1.0001366e-05
1.00013e-05
1.0001136e-05
1.0000915e-05
1.0000698e-05
1.0000523e-05
1.0000426e-05
1.0000404e-05
1.0000444e-05
1.0000557e-05
1.0000668e-05
1.000067e-05
1.0000644e-05
1.0000738e-05
1.0000699e-05
1.000077e-05
1.000086e-05
1.0000888e-05
1.0000856e-05
1.0000823e-05
1.0000793e-05
1.0000751e-05
1.0000742e-05
1.0000659e-05
1.0000369e-05
1.0000448e-05
1.0000561e-05
1.0000668e-05
0.0012113946
0.0030275732
0.004070688
0.0044576032
0.0040278983
0.0024302157
0.00039668773
1.5002226e-05
1.0140403e-05
1.0128931e-05
1.0053677e-05
1.0055862e-05
1.0022088e-05
1.0027525e-05
1.0014217e-05
1.0014028e-05
1.0008024e-05
1.0006378e-05
1.0003886e-05
1.0002798e-05
1.0001842e-05
1.0001484e-05
1.0001365e-05
1.00013e-05
1.0001136e-05
1.0000916e-05
1.0000699e-05
1.0000525e-05
1.0000427e-05
1.0000404e-05
1.000044e-05
1.0000547e-05
1.0000661e-05
1.0000666e-05
1.0000638e-05
1.0000735e-05
1.0000695e-05
1.0000764e-05
1.0000854e-05
1.0000885e-05
1.0000854e-05
1.0000821e-05
1.0000791e-05
1.0000739e-05
1.0000724e-05
1.0000628e-05
1.0000366e-05
1.0000442e-05
1.0000547e-05
1.0000664e-05
0.0012094046
0.0030045504
0.0040167341
0.0043682519
0.0038966772
0.0022136228
0.00031643632
1.3206745e-05
1.0136598e-05
1.0127453e-05
1.0052978e-05
1.0055323e-05
1.0021915e-05
1.0027257e-05
1.001406e-05
1.0013843e-05
1.0007941e-05
1.0006298e-05
1.0003844e-05
1.0002766e-05
1.0001826e-05
1.0001474e-05
1.0001365e-05
1.0001299e-05
1.0001135e-05
1.0000916e-05
1.0000701e-05
1.0000527e-05
1.0000427e-05
1.0000403e-05
1.0000436e-05
1.0000537e-05
1.0000653e-05
1.0000662e-05
1.0000633e-05
1.0000732e-05
1.0000691e-05
1.0000758e-05
1.0000849e-05
1.0000882e-05
1.0000851e-05
1.0000819e-05
1.0000789e-05
1.0000728e-05
1.0000693e-05
1.0000633e-05
1.0000365e-05
1.0000437e-05
1.0000535e-05
1.0000659e-05
0.0012073736
0.0029815403
0.0039623765
0.004277005
0.0037644602
0.0019957412
0.00024852986
1.2047397e-05
1.0133436e-05
1.012581e-05
1.0052248e-05
1.0054729e-05
1.0021762e-05
1.0026969e-05
1.0013911e-05
1.001365e-05
1.000786e-05
1.0006214e-05
1.0003802e-05
1.0002734e-05
1.000181e-05
1.0001464e-05
1.0001365e-05
1.0001298e-05
1.0001134e-05
1.0000915e-05
1.0000702e-05
1.0000529e-05
1.0000428e-05
1.0000402e-05
1.0000431e-05
1.0000527e-05
1.0000645e-05
1.0000658e-05
1.0000627e-05
1.0000729e-05
1.0000687e-05
1.0000753e-05
1.0000843e-05
1.0000878e-05
1.0000849e-05
1.0000816e-05
1.0000787e-05
1.0000724e-05
1.0000672e-05
1.0000608e-05
1.0000362e-05
1.0000432e-05
1.0000524e-05
1.0000646e-05
0.0012052354
0.0029581682
0.0039068417
0.0041830893
0.0036304538
0.0017843389
0.00019237242
1.1319752e-05
1.0130646e-05
1.0124012e-05
1.0051489e-05
1.005408e-05
1.0021598e-05
1.002666e-05
1.001377e-05
1.001345e-05
1.000778e-05
1.0006129e-05
1.0003759e-05
1.0002701e-05
1.0001795e-05
1.0001455e-05
1.0001365e-05
1.0001296e-05
1.0001132e-05
1.0000915e-05
1.0000703e-05
1.000053e-05
1.0000428e-05
1.0000402e-05
1.0000428e-05
1.0000518e-05
1.0000637e-05
1.0000654e-05
1.0000622e-05
1.0000726e-05
1.0000683e-05
1.0000748e-05
1.0000837e-05
1.0000874e-05
1.0000847e-05
1.0000814e-05
1.0000785e-05
1.0000727e-05
1.0000677e-05
1.0000565e-05
1.0000358e-05
1.0000426e-05
1.0000512e-05
1.0000628e-05
0.0012032019
0.0029351477
0.0038509207
0.0040861169
0.0034928541
0.0015804887
0.00014664271
1.0873508e-05
1.0128051e-05
1.0122069e-05
1.0050705e-05
1.0053378e-05
1.0021429e-05
1.0026333e-05
1.0013636e-05
1.0013245e-05
1.0007701e-05
1.0006042e-05
1.0003716e-05
1.0002667e-05
1.000178e-05
1.0001445e-05
1.0001366e-05
1.0001294e-05
1.000113e-05
1.0000914e-05
1.0000703e-05
1.0000531e-05
1.0000429e-05
1.0000401e-05
1.0000424e-05
1.0000509e-05
1.0000628e-05
1.000065e-05
1.0000617e-05
1.0000723e-05
1.0000679e-05
1.0000743e-05
1.0000831e-05
1.000087e-05
1.0000845e-05
1.0000812e-05
1.0000783e-05
1.0000733e-05
1.0000696e-05
1.0000535e-05
1.0000353e-05
1.000042e-05
1.0000501e-05
1.0000608e-05
0.0012013943
0.0029124997
0.0037951213
0.0039869119
0.0033518122
0.0013860834
0.00011019556
1.0605956e-05
1.0125553e-05
1.0119998e-05
1.0049896e-05
1.0052626e-05
1.0021258e-05
1.0025987e-05
1.0013509e-05
1.0013035e-05
1.0007623e-05
1.0005953e-05
1.0003673e-05
1.0002633e-05
1.0001766e-05
1.0001436e-05
1.0001368e-05
1.0001292e-05
1.0001127e-05
1.0000912e-05
1.0000703e-05
1.0000532e-05
1.0000429e-05
1.00004e-05
1.0000421e-05
1.00005e-05
1.0000618e-05
1.0000645e-05
1.0000612e-05
1.000072e-05
1.0000676e-05
1.0000738e-05
1.0000826e-05
1.0000866e-05
1.0000843e-05
1.000081e-05
1.000078e-05
1.0000739e-05
1.0000721e-05
1.0000513e-05
1.0000348e-05
1.0000414e-05
1.0000489e-05
1.0000589e-05
0.0011998919
0.0028903005
0.0037396975
0.003891136
0.0032043593
0.0012017816
8.1884747e-05
1.0448996e-05
1.0123094e-05
1.0117817e-05
1.0049068e-05
1.0051831e-05
1.0021085e-05
1.0025625e-05
1.0013388e-05
1.001282e-05
1.0007546e-05
1.0005864e-05
1.000363e-05
1.0002599e-05
1.0001752e-05
1.0001427e-05
1.0001369e-05
1.0001289e-05
1.0001124e-05
1.000091e-05
1.0000703e-05
1.0000533e-05
1.0000429e-05
1.0000399e-05
1.0000417e-05
1.0000491e-05
1.0000609e-05
1.0000641e-05
1.0000607e-05
1.0000716e-05
1.0000672e-05
1.0000733e-05
1.000082e-05
1.0000862e-05
1.0000841e-05
1.0000808e-05
1.0000776e-05
1.0000742e-05
1.0000757e-05
1.0000497e-05
1.0000343e-05
1.0000409e-05
1.0000477e-05
1.0000564e-05
0.0011986389
0.0028683807
0.0036842317
0.0037907254
0.0030476427
0.0010293612
6.0398551e-05
1.0357679e-05
1.0120643e-05
1.0115531e-05
1.0048222e-05
1.0050993e-05
1.0020911e-05
1.0025247e-05
1.0013275e-05
1.0012603e-05
1.000747e-05
1.0005773e-05
1.0003588e-05
1.0002565e-05
1.0001739e-05
1.0001418e-05
1.0001369e-05
1.0001286e-05
1.000112e-05
1.0000908e-05
1.0000702e-05
1.0000533e-05
1.0000429e-05
1.0000398e-05
1.0000415e-05
1.0000484e-05
1.00006e-05
1.0000636e-05
1.0000602e-05
1.0000713e-05
1.0000669e-05
1.0000727e-05
1.0000814e-05
1.0000858e-05
1.0000838e-05
1.0000805e-05
1.0000774e-05
1.000074e-05
1.000079e-05
1.0000481e-05
1.0000337e-05
1.0000403e-05
1.0000466e-05
1.0000541e-05
0.001197377
0.0028463413
0.0036298609
0.0036882905
0.0028815952
0.00087097684
4.452263e-05
1.0304536e-05
1.0118189e-05
1.0113163e-05
1.0047362e-05
1.0050119e-05
1.0020737e-05
1.0024855e-05
1.0013167e-05
1.0012383e-05
1.0007396e-05
1.0005682e-05
1.0003545e-05
1.0002531e-05
1.0001726e-05
1.0001409e-05
1.0001368e-05
1.0001282e-05
1.0001116e-05
1.0000905e-05
1.0000701e-05
1.0000533e-05
1.0000428e-05
1.0000397e-05
1.0000412e-05
1.0000476e-05
1.0000591e-05
1.0000631e-05
1.0000597e-05
1.0000709e-05
1.0000665e-05
1.0000722e-05
1.0000809e-05
1.0000854e-05
1.0000835e-05
1.0000802e-05
1.0000771e-05
1.0000738e-05
1.0000804e-05
1.000047e-05
1.0000333e-05
1.0000397e-05
1.0000454e-05
1.0000519e-05
0.0011960219
0.0028232698
0.0035714734
0.0035827789
0.0027055523
0.00072823494
3.3082195e-05
1.0272976e-05
1.0115726e-05
1.0110712e-05
1.004649e-05
1.0049209e-05
1.0020564e-05
1.002445e-05
1.0013064e-05
1.0012163e-05
1.0007323e-05
1.000559e-05
1.0003502e-05
1.0002498e-05
1.0001714e-05
1.0001401e-05
1.0001367e-05
1.0001278e-05
1.0001112e-05
1.0000902e-05
1.0000699e-05
1.0000532e-05
1.0000428e-05
1.0000396e-05
1.000041e-05
1.0000469e-05
1.0000582e-05
1.0000626e-05
1.0000593e-05
1.0000705e-05
1.0000661e-05
1.0000717e-05
1.0000803e-05
1.000085e-05
1.0000832e-05
1.0000799e-05
1.0000767e-05
1.0000737e-05
1.0000782e-05
1.0000467e-05
1.0000328e-05
1.000039e-05
1.0000443e-05
1.00005e-05
0.0011947317
0.0028001807
0.0035126264
0.00347638
0.0025203241
0.00060299064
2.5037995e-05
1.0253416e-05
1.0113253e-05
1.0108184e-05
1.0045609e-05
1.0048268e-05
1.0020393e-05
1.0024034e-05
1.0012967e-05
1.0011942e-05
1.0007251e-05
1.0005499e-05
1.000346e-05
1.0002464e-05
1.0001703e-05
1.0001393e-05
1.0001366e-05
1.0001273e-05
1.0001107e-05
1.0000899e-05
1.0000697e-05
1.0000531e-05
1.0000427e-05
1.0000395e-05
1.0000408e-05
1.0000462e-05
1.0000573e-05
1.0000621e-05
1.0000588e-05
1.00007e-05
1.0000658e-05
1.0000711e-05
1.0000797e-05
1.0000845e-05
1.0000829e-05
1.0000796e-05
1.0000762e-05
1.0000739e-05
1.000077e-05
1.0000472e-05
1.0000323e-05
1.0000384e-05
1.0000431e-05
1.0000481e-05
0.0011934895
0.0027763908
0.0034524599
0.0033685711
0.002326589
0.00048926829
1.9498704e-05
1.0240532e-05
1.0110772e-05
1.0105597e-05
1.0044721e-05
1.0047302e-05
1.0020224e-05
1.002361e-05
1.0012874e-05
1.0011724e-05
1.0007179e-05
1.0005408e-05
1.0003418e-05
1.0002431e-05
1.0001692e-05
1.0001386e-05
1.0001364e-05
1.0001269e-05
1.0001102e-05
1.0000895e-05
1.0000695e-05
1.000053e-05
1.0000426e-05
1.0000394e-05
1.0000406e-05
1.0000456e-05
1.0000564e-05
1.0000617e-05
1.0000583e-05
1.0000696e-05
1.0000654e-05
1.0000706e-05
1.0000792e-05
1.0000841e-05
1.0000827e-05
1.0000794e-05
1.0000757e-05
1.0000737e-05
1.0000795e-05
1.0000472e-05
1.0000319e-05
1.0000379e-05
1.000042e-05
1.0000461e-05
0.0011922451
0.0027515193
0.0033900823
0.003255006
0.0021256956
0.00038929391
1.5835823e-05
1.0231317e-05
1.0108285e-05
1.0102957e-05
1.004383e-05
1.0046314e-05
1.0020058e-05
1.0023179e-05
1.0012785e-05
1.0011509e-05
1.0007106e-05
1.0005318e-05
1.0003376e-05
1.0002399e-05
1.0001681e-05
1.000138e-05
1.0001361e-05
1.0001264e-05
1.0001097e-05
1.0000891e-05
1.0000692e-05
1.0000528e-05
1.0000425e-05
1.0000392e-05
1.0000404e-05
1.000045e-05
1.0000556e-05
1.0000612e-05
1.0000579e-05
1.000069e-05
1.000065e-05
1.00007e-05
1.0000786e-05
1.0000837e-05
1.0000824e-05
1.0000792e-05
1.0000753e-05
1.0000727e-05
1.0000819e-05
1.0000458e-05
1.0000315e-05
1.0000373e-05
1.0000408e-05
1.0000442e-05
0.0011908887
0.0027250824
0.0033252021
0.0031359625
0.0019207359
0.00030337915
1.3505466e-05
1.0224085e-05
1.0105797e-05
1.010028e-05
1.0042937e-05
1.004531e-05
1.0019896e-05
1.0022742e-05
1.0012698e-05
1.0011301e-05
1.0007034e-05
1.0005229e-05
1.0003335e-05
1.0002368e-05
1.0001672e-05
1.0001374e-05
1.0001358e-05
1.0001258e-05
1.0001091e-05
1.0000886e-05
1.0000689e-05
1.0000527e-05
1.0000424e-05
1.0000391e-05
1.0000402e-05
1.0000444e-05
1.0000547e-05
1.0000607e-05
1.0000574e-05
1.0000685e-05
1.0000646e-05
1.0000695e-05
1.0000781e-05
1.0000833e-05
1.0000822e-05
1.0000791e-05
1.0000749e-05
1.0000717e-05
1.000082e-05
1.0000435e-05
1.0000311e-05
1.0000367e-05
1.0000396e-05
1.0000425e-05
0.0011892694
0.0026967828
0.0032560208
0.0030158104
0.001714635
0.00023123743
1.2081914e-05
1.0217814e-05
1.0103309e-05
1.0097569e-05
1.0042044e-05
1.004429e-05
1.0019738e-05
1.0022302e-05
1.0012615e-05
1.0011101e-05
1.0006962e-05
1.0005141e-05
1.0003294e-05
1.0002337e-05
1.0001662e-05
1.0001369e-05
1.0001354e-05
1.0001252e-05
1.0001085e-05
1.0000881e-05
1.0000685e-05
1.0000525e-05
1.0000423e-05
1.000039e-05
1.0000401e-05
1.0000439e-05
1.0000539e-05
1.0000601e-05
1.000057e-05
1.0000679e-05
1.0000642e-05
1.0000691e-05
1.0000776e-05
1.0000829e-05
1.0000821e-05
1.0000789e-05
1.0000746e-05
1.0000709e-05
1.0000783e-05
1.0000419e-05
1.0000307e-05
1.000036e-05
1.0000383e-05
1.0000412e-05
0.0011875091
0.0026675425
0.0031803991
0.0028932212
0.0015100174
0.00017213434
1.1242582e-05
1.0211858e-05
1.0100823e-05
1.0094829e-05
1.0041154e-05
1.0043259e-05
1.0019586e-05
1.002186e-05
1.0012535e-05
1.0010902e-05
1.000689e-05
1.0005054e-05
1.0003254e-05
1.0002308e-05
1.0001654e-05
1.0001365e-05
1.000135e-05
1.0001246e-05
1.0001079e-05
1.0000876e-05
1.0000682e-05
1.0000522e-05
1.0000421e-05
1.0000389e-05
1.00004e-05
1.0000434e-05
1.0000531e-05
1.0000596e-05
1.0000565e-05
1.0000672e-05
1.0000637e-05
1.0000686e-05
1.0000772e-05
1.0000825e-05
1.0000819e-05
1.0000788e-05
1.0000743e-05
1.0000707e-05
1.0000739e-05
1.0000414e-05
1.0000304e-05
1.0000354e-05
1.0000372e-05
1.0000403e-05
0.0011858491
0.0026391225
0.0031098967
0.0027656952
0.0013102806
0.00012513243
1.0768283e-05
1.0205873e-05
1.0098343e-05
1.0092069e-05
1.004027e-05
1.0042221e-05
1.001944e-05
1.0021419e-05
1.0012457e-05
1.0010706e-05
1.0006819e-05
1.000497e-05
1.0003215e-05
1.0002279e-05
1.0001646e-05
1.0001362e-05
1.0001345e-05
1.000124e-05
1.0001072e-05
1.0000871e-05
1.0000678e-05
1.000052e-05
1.000042e-05
1.0000388e-05
1.0000399e-05
1.0000429e-05
1.0000522e-05
1.0000591e-05
1.0000561e-05
1.0000665e-05
1.0000631e-05
1.0000681e-05
1.0000768e-05
1.0000821e-05
1.0000818e-05
1.0000788e-05
1.0000739e-05
1.0000708e-05
1.0000753e-05
1.0000421e-05
1.0000301e-05
1.0000347e-05
1.000036e-05
1.0000392e-05
0.0011840219
0.0026089263
0.0030349704
0.0026306713
0.001118893
8.8929702e-05
1.0510587e-05
1.0199854e-05
1.0095864e-05
1.0089294e-05
1.0039392e-05
1.004118e-05
1.0019301e-05
1.002098e-05
1.0012381e-05
1.0010513e-05
1.0006747e-05
1.0004887e-05
1.0003176e-05
1.0002252e-05
1.0001639e-05
1.000136e-05
1.000134e-05
1.0001233e-05
1.0001066e-05
1.0000865e-05
1.0000674e-05
1.0000517e-05
1.0000418e-05
1.0000386e-05
1.0000398e-05
1.0000425e-05
1.0000514e-05
1.0000586e-05
1.0000555e-05
1.0000658e-05
1.0000625e-05
1.0000675e-05
1.0000763e-05
1.0000817e-05
1.0000817e-05
1.0000788e-05
1.0000736e-05
1.0000706e-05
1.0000774e-05
1.0000422e-05
1.0000297e-05
1.0000339e-05
1.0000351e-05
1.0000383e-05
0.0011820342
0.0025777219
0.0029573501
0.0024875378
0.00093959724
6.2254879e-05
1.0374443e-05
1.0194771e-05
1.009339e-05
1.0086521e-05
1.0038524e-05
1.004014e-05
1.0019169e-05
1.0020544e-05
1.0012306e-05
1.0010325e-05
1.0006675e-05
1.0004806e-05
1.0003139e-05
1.0002226e-05
1.0001632e-05
1.0001358e-05
1.0001335e-05
1.0001227e-05
1.0001059e-05
1.000086e-05
1.000067e-05
1.0000515e-05
1.0000416e-05
1.0000385e-05
1.0000398e-05
1.0000421e-05
1.0000506e-05
1.000058e-05
1.000055e-05
1.000065e-05
1.0000618e-05
1.0000669e-05
1.0000759e-05
1.0000814e-05
1.0000816e-05
1.0000789e-05
1.0000733e-05
1.0000701e-05
1.0000771e-05
1.0000402e-05
1.0000292e-05
1.000033e-05
1.0000344e-05
1.0000372e-05
0.0011799443
0.0025460572
0.0028771175
0.0023393377
0.00077546326
4.331158e-05
1.0302863e-05
1.0189536e-05
1.0090915e-05
1.0083748e-05
1.0037667e-05
1.0039104e-05
1.0019044e-05
1.0020114e-05
1.0012231e-05
1.0010141e-05
1.0006604e-05
1.0004728e-05
1.0003102e-05
1.0002201e-05
1.0001626e-05
1.0001357e-05
1.0001329e-05
1.000122e-05
1.0001052e-05
1.0000854e-05
1.0000665e-05
1.0000512e-05
1.0000415e-05
1.0000384e-05
1.0000397e-05
1.0000418e-05
1.0000498e-05
1.0000575e-05
1.0000545e-05
1.0000642e-05
1.0000611e-05
1.0000663e-05
1.0000753e-05
1.0000811e-05
1.0000814e-05
1.000079e-05
1.0000729e-05
1.0000695e-05
1.0000747e-05
1.0000379e-05
1.0000287e-05
1.0000319e-05
1.0000336e-05
1.0000359e-05
0.0011779603
0.0025145372
0.0027952553
0.002182752
0.00062896488
3.0583113e-05
1.0264506e-05
1.0184274e-05
1.0088442e-05
1.0080994e-05
1.0036823e-05
1.0038078e-05
1.0018929e-05
1.0019691e-05
1.0012157e-05
1.0009962e-05
1.0006533e-05
1.0004652e-05
1.0003066e-05
1.0002178e-05
1.0001621e-05
1.0001357e-05
1.0001323e-05
1.0001213e-05
1.0001045e-05
1.0000848e-05
1.000066e-05
1.0000508e-05
1.0000413e-05
1.0000383e-05
1.0000397e-05
1.0000415e-05
1.0000491e-05
1.0000569e-05
1.0000539e-05
1.0000633e-05
1.0000603e-05
1.0000656e-05
1.0000747e-05
1.0000808e-05
1.0000813e-05
1.0000791e-05
1.0000725e-05
1.000069e-05
1.0000735e-05
1.0000373e-05
1.0000282e-05
1.0000307e-05
1.0000326e-05
1.0000345e-05
0.001176142
0.0024833634
0.0027179572
0.0020167235
0.00050397351
2.2587262e-05
1.024252e-05
1.0178949e-05
1.008597e-05
1.0078262e-05
1.0035995e-05
1.0037065e-05
1.0018823e-05
1.0019277e-05
1.0012082e-05
1.0009788e-05
1.0006463e-05
1.0004579e-05
1.0003032e-05
1.0002156e-05
1.0001616e-05
1.0001358e-05
1.0001317e-05
1.0001206e-05
1.0001038e-05
1.0000841e-05
1.0000655e-05
1.0000505e-05
1.0000411e-05
1.0000382e-05
1.0000396e-05
1.0000412e-05
1.0000483e-05
1.0000564e-05
1.0000534e-05
1.0000624e-05
1.0000595e-05
1.0000648e-05
1.000074e-05
1.0000805e-05
1.0000812e-05
1.0000792e-05
1.0000721e-05
1.0000684e-05
1.0000736e-05
1.0000378e-05
1.0000276e-05
1.0000294e-05
1.0000313e-05
1.0000328e-05
0.0011743353
0.0024510925
0.0026396832
0.0018408226
0.00039713819
1.7634107e-05
1.0228349e-05
1.0173579e-05
1.0083486e-05
1.0075556e-05
1.0035184e-05
1.0036066e-05
1.0018728e-05
1.0018872e-05
1.0012007e-05
1.000962e-05
1.0006393e-05
1.0004509e-05
1.0002999e-05
1.0002135e-05
1.0001611e-05
1.0001359e-05
1.0001312e-05
1.0001199e-05
1.0001031e-05
1.0000835e-05
1.000065e-05
1.0000502e-05
1.000041e-05
1.0000381e-05
1.0000395e-05
1.000041e-05
1.0000475e-05
1.0000558e-05
1.0000528e-05
1.0000616e-05
1.0000585e-05
1.0000641e-05
1.0000733e-05
1.0000802e-05
1.0000811e-05
1.0000794e-05
1.0000718e-05
1.0000677e-05
1.000072e-05
1.0000379e-05
1.000027e-05
1.0000281e-05
1.0000299e-05
1.0000309e-05
0.0011725726
0.002417444
0.0025578708
0.0016572198
0.00030607726
1.4538782e-05
1.0218087e-05
1.0168171e-05
1.0080998e-05
1.0072886e-05
1.0034392e-05
1.0035087e-05
1.0018642e-05
1.0018478e-05
1.0011933e-05
1.0009459e-05
1.0006324e-05
1.0004442e-05
1.0002967e-05
1.0002116e-05
1.0001607e-05
1.0001359e-05
1.0001306e-05
1.0001192e-05
1.0001023e-05
1.0000828e-05
1.0000645e-05
1.00005e-05
1.000041e-05
1.0000381e-05
1.0000394e-05
1.0000408e-05
1.0000467e-05
1.0000553e-05
1.0000521e-05
1.0000608e-05
1.0000576e-05
1.0000634e-05
1.0000725e-05
1.0000798e-05
1.0000811e-05
1.0000795e-05
1.0000716e-05
1.0000673e-05
1.0000682e-05
1.0000372e-05
1.0000264e-05
1.0000268e-05
1.0000284e-05
1.0000288e-05
0.0011709558
0.0023825659
0.0024743665
0.0014696637
0.00023071152
1.2685185e-05
1.0209877e-05
1.0162725e-05
1.0078503e-05
1.0070252e-05
1.0033622e-05
1.0034129e-05
1.0018567e-05
1.0018081e-05
1.0011856e-05
1.0009303e-05
1.0006256e-05
1.0004378e-05
1.0002936e-05
1.0002098e-05
1.0001604e-05
1.0001359e-05
1.0001301e-05
1.0001185e-05
1.0001015e-05
1.0000821e-05
1.0000641e-05
1.0000498e-05
1.0000409e-05
1.000038e-05
1.0000393e-05
1.0000406e-05
1.000046e-05
1.0000547e-05
1.0000514e-05
1.00006e-05
1.0000566e-05
1.0000627e-05
1.0000718e-05
1.0000795e-05
1.0000811e-05
1.0000796e-05
1.0000713e-05
1.0000668e-05
1.0000655e-05
1.0000368e-05
1.0000259e-05
1.0000257e-05
1.0000271e-05
1.0000265e-05
0.0011694391
0.0023459261
0.0023876589
0.0012860108
0.00017012774
1.1617058e-05
1.0202725e-05
1.0157246e-05
1.0076001e-05
1.0067661e-05
1.0032875e-05
1.0033193e-05
1.0018506e-05
1.0017667e-05
1.0011778e-05
1.0009154e-05
1.0006189e-05
1.0004317e-05
1.0002907e-05
1.0002081e-05
1.00016e-05
1.000136e-05
1.0001295e-05
1.0001178e-05
1.0001007e-05
1.0000814e-05
1.0000638e-05
1.0000497e-05
1.0000408e-05
1.0000379e-05
1.0000392e-05
1.0000404e-05
1.0000452e-05
1.000054e-05
1.0000507e-05
1.0000592e-05
1.0000557e-05
1.000062e-05
1.0000712e-05
1.0000792e-05
1.0000812e-05
1.0000798e-05
1.0000711e-05
1.0000662e-05
1.0000644e-05
1.0000363e-05
1.0000253e-05
1.0000248e-05
1.0000259e-05
1.0000246e-05
0.0011675977
0.0023037608
0.0022962929
0.0011132079
0.0001229893
1.1023329e-05
1.0196095e-05
1.015174e-05
1.0073498e-05
1.0065119e-05
1.0032154e-05
1.0032284e-05
1.0018458e-05
1.0017282e-05
1.0011698e-05
1.0009012e-05
1.0006124e-05
1.000426e-05
1.0002879e-05
1.0002066e-05
1.0001597e-05
1.000136e-05
1.000129e-05
1.0001171e-05
1.0000999e-05
1.0000809e-05
1.0000636e-05
1.0000496e-05
1.0000407e-05
1.0000377e-05
1.0000391e-05
1.0000402e-05
1.0000444e-05
1.0000533e-05
1.0000499e-05
1.0000585e-05
1.0000547e-05
1.0000613e-05
1.0000708e-05
1.000079e-05
1.0000813e-05
1.00008e-05
1.0000708e-05
1.0000658e-05
1.0000638e-05
1.0000359e-05
1.0000248e-05
1.0000242e-05
1.0000251e-05
1.0000232e-05
0.0011653095
0.0022565856
0.0021985282
0.00095090062
8.725763e-05
1.0702228e-05
1.0189695e-05
1.0146213e-05
1.0071003e-05
1.0062633e-05
1.0031461e-05
1.0031403e-05
1.0018426e-05
1.0016926e-05
1.0011617e-05
1.0008877e-05
1.000606e-05
1.0004206e-05
1.0002852e-05
1.0002051e-05
1.0001594e-05
1.0001361e-05
1.0001285e-05
1.0001163e-05
1.0000992e-05
1.0000805e-05
1.0000634e-05
1.0000494e-05
1.0000405e-05
1.0000376e-05
1.0000389e-05
1.0000399e-05
1.0000436e-05
1.0000526e-05
1.0000491e-05
1.0000577e-05
1.0000537e-05
1.0000606e-05
1.0000703e-05
1.0000787e-05
1.0000814e-05
1.0000802e-05
1.0000707e-05
1.0000654e-05
1.0000623e-05
1.0000355e-05
1.0000243e-05
1.0000238e-05
1.0000246e-05
1.0000224e-05
0.0011622323
0.0022035123
0.0020912778
0.00080056152
6.1045773e-05
1.0531704e-05
1.0183409e-05
1.0140674e-05
1.006852e-05
1.0060207e-05
1.0030798e-05
1.0030553e-05
1.0018409e-05
1.001661e-05
1.0011534e-05
1.000875e-05
1.0005999e-05
1.0004155e-05
1.0002827e-05
1.0002037e-05
1.0001591e-05
1.0001362e-05
1.0001279e-05
1.0001155e-05
1.0000986e-05
1.0000802e-05
1.0000631e-05
1.000049e-05
1.0000403e-05
1.0000374e-05
1.0000388e-05
1.0000396e-05
1.0000428e-05
1.0000519e-05
1.0000481e-05
1.0000569e-05
1.0000527e-05
1.0000598e-05
1.0000699e-05
1.0000785e-05
1.0000815e-05
1.0000806e-05
1.0000705e-05
1.0000651e-05
1.0000601e-05
1.0000348e-05
1.0000239e-05
1.0000235e-05
1.0000243e-05
1.0000222e-05
0.0011582839
0.0021441497
0.0019647177
0.00066365431
4.2546781e-05
1.0441049e-05
1.0177219e-05
1.0135126e-05
1.0066052e-05
1.0057845e-05
1.0030167e-05
1.0029736e-05
1.001841e-05
1.0016318e-05
1.0011451e-05
1.0008629e-05
1.0005939e-05
1.0004107e-05
1.0002803e-05
1.0002024e-05
1.0001587e-05
1.0001363e-05
1.0001273e-05
1.0001148e-05
1.0000981e-05
1.00008e-05
1.0000627e-05
1.0000487e-05
1.0000401e-05
1.0000373e-05
1.0000386e-05
1.0000393e-05
1.0000421e-05
1.0000511e-05
1.0000471e-05
1.0000561e-05
1.0000517e-05
1.000059e-05
1.0000693e-05
1.0000783e-05
1.0000816e-05
1.000081e-05
1.0000705e-05
1.0000646e-05
1.0000581e-05
1.0000342e-05
1.0000235e-05
1.0000233e-05
1.0000242e-05
1.000023e-05
0.0011539071
0.0020809422
0.001823662
0.00054257272
3.0121854e-05
1.0391263e-05
1.017111e-05
1.0129578e-05
1.0063606e-05
1.0055558e-05
1.0029568e-05
1.0028952e-05
1.0018421e-05
1.0016042e-05
1.0011367e-05
1.0008516e-05
1.0005882e-05
1.0004062e-05
1.0002779e-05
1.0002011e-05
1.0001584e-05
1.0001365e-05
1.0001268e-05
1.0001143e-05
1.0000979e-05
1.0000797e-05
1.0000622e-05
1.0000484e-05
1.0000399e-05
1.0000371e-05
1.0000384e-05
1.000039e-05
1.0000413e-05
1.0000502e-05
1.0000461e-05
1.0000552e-05
1.0000506e-05
1.000058e-05
1.0000683e-05
1.0000781e-05
1.0000816e-05
1.0000814e-05
1.0000704e-05
1.0000642e-05
1.0000568e-05
1.0000337e-05
1.000023e-05
1.0000232e-05
1.000024e-05
1.0000238e-05
0.0011492383
0.0020147371
0.001670323
0.00043536753
2.2254294e-05
1.0361707e-05
1.0165041e-05
1.012404e-05
1.0061193e-05
1.0053369e-05
1.0029e-05
1.0028193e-05
1.0018409e-05
1.0015783e-05
1.0011283e-05
1.000841e-05
1.0005827e-05
1.0004019e-05
1.0002757e-05
1.0001998e-05
1.0001581e-05
1.0001366e-05
1.0001263e-05
1.0001139e-05
1.0000977e-05
1.0000792e-05
1.0000617e-05
1.000048e-05
1.0000396e-05
1.0000369e-05
1.0000382e-05
1.0000386e-05
1.0000405e-05
1.0000493e-05
1.0000449e-05
1.0000542e-05
1.0000496e-05
1.000057e-05
1.0000671e-05
1.0000777e-05
1.0000816e-05
1.0000821e-05
1.0000705e-05
1.0000637e-05
1.0000559e-05
1.0000323e-05
1.0000226e-05
1.000023e-05
1.000024e-05
1.0000244e-05
0.0011441452
0.00194448
0.001517577
0.00034581566
1.7544127e-05
1.0341713e-05
1.0158958e-05
1.0118522e-05
1.0058821e-05
1.0051265e-05
1.002847e-05
1.0027445e-05
1.0018389e-05
1.0015541e-05
1.0011201e-05
1.0008311e-05
1.0005774e-05
1.000398e-05
1.0002735e-05
1.0001986e-05
1.0001578e-05
1.0001368e-05
1.0001259e-05
1.0001138e-05
1.0000974e-05
1.0000786e-05
1.0000612e-05
1.0000477e-05
1.0000394e-05
1.0000368e-05
1.000038e-05
1.0000382e-05
1.0000398e-05
1.0000483e-05
1.0000437e-05
1.0000531e-05
1.0000484e-05
1.0000558e-05
1.0000657e-05
1.0000769e-05
1.0000815e-05
1.0000829e-05
1.0000705e-05
1.0000632e-05
1.0000548e-05
1.0000322e-05
1.0000221e-05
1.0000227e-05
1.000024e-05
1.0000245e-05
0.0011388711
0.0018655535
0.0013649691
0.00026861677
1.4558079e-05
1.0326057e-05
1.0152822e-05
1.0113036e-05
1.0056497e-05
1.0049242e-05
1.0027982e-05
1.0026741e-05
1.0018359e-05
1.0015317e-05
1.0011119e-05
1.0008219e-05
1.0005724e-05
1.0003942e-05
1.0002714e-05
1.0001974e-05
1.0001575e-05
1.0001371e-05
1.0001257e-05
1.0001137e-05
1.000097e-05
1.0000779e-05
1.0000607e-05
1.0000473e-05
1.0000392e-05
1.0000366e-05
1.0000377e-05
1.0000377e-05
1.000039e-05
1.0000472e-05
1.0000425e-05
1.0000519e-05
1.0000473e-05
1.0000546e-05
1.0000641e-05
1.0000759e-05
1.0000814e-05
1.000084e-05
1.0000706e-05
1.0000628e-05
1.0000531e-05
1.0000319e-05
1.0000216e-05
1.0000223e-05
1.0000239e-05
1.0000241e-05
0.0011354414
0.0017944994
0.0012121141
0.00020412591
1.275442e-05
1.0312346e-05
1.0146615e-05
1.0107594e-05
1.0054231e-05
1.0047305e-05
1.0027537e-05
1.0026081e-05
1.0018321e-05
1.0015109e-05
1.001104e-05
1.0008134e-05
1.0005676e-05
1.0003907e-05
1.0002693e-05
1.0001962e-05
1.0001572e-05
1.0001374e-05
1.0001259e-05
1.0001137e-05
1.0000963e-05
1.0000773e-05
1.0000602e-05
1.000047e-05
1.000039e-05
1.0000364e-05
1.0000374e-05
1.0000372e-05
1.0000383e-05
1.0000462e-05
1.0000412e-05
1.0000506e-05
1.0000461e-05
1.0000534e-05
1.0000626e-05
1.0000746e-05
1.0000811e-05
1.0000851e-05
1.0000707e-05
1.0000625e-05
1.0000511e-05
1.0000318e-05
1.0000211e-05
1.0000217e-05
1.0000237e-05
1.0000236e-05
0.0011327623
0.0017201779
0.001060268
0.00015149029
1.1695533e-05
1.0299131e-05
1.0140329e-05
1.0102219e-05
1.005203e-05
1.004546e-05
1.0027138e-05
1.002547e-05
1.0018273e-05
1.0014917e-05
1.0010962e-05
1.0008056e-05
1.0005631e-05
1.0003873e-05
1.0002672e-05
1.0001951e-05
1.000157e-05
1.0001378e-05
1.0001262e-05
1.0001135e-05
1.0000955e-05
1.0000766e-05
1.0000596e-05
1.0000466e-05
1.0000387e-05
1.0000362e-05
1.0000372e-05
1.0000366e-05
1.0000375e-05
1.000045e-05
1.0000399e-05
1.0000493e-05
1.0000448e-05
1.0000522e-05
1.0000613e-05
1.0000733e-05
1.0000806e-05
1.0000865e-05
1.0000708e-05
1.0000623e-05
1.0000495e-05
1.0000316e-05
1.0000206e-05
1.000021e-05
1.0000235e-05
1.0000233e-05
0.0011312164
0.0016416323
0.00091321465
0.00010983817
1.1097032e-05
1.0285622e-05
1.0133967e-05
1.0096929e-05
1.0049902e-05
1.004371e-05
1.0026788e-05
1.0024911e-05
1.0018217e-05
1.0014742e-05
1.0010888e-05
1.0007983e-05
1.0005588e-05
1.0003841e-05
1.0002653e-05
1.0001941e-05
1.0001567e-05
1.0001378e-05
1.0001266e-05
1.000113e-05
1.0000947e-05
1.0000759e-05
1.0000591e-05
1.0000463e-05
1.0000385e-05
1.000036e-05
1.0000369e-05
1.000036e-05
1.0000367e-05
1.0000438e-05
1.0000386e-05
1.0000479e-05
1.0000435e-05
1.000051e-05
1.00006e-05
1.0000721e-05
1.0000796e-05
1.000088e-05
1.000071e-05
1.0000622e-05
1.0000484e-05
1.0000312e-05
1.0000201e-05
1.0000202e-05
1.0000233e-05
1.000023e-05
0.0011312816
0.0015582155
0.00077395335
7.7926423e-05
1.0769407e-05
1.0271813e-05
1.0127545e-05
1.0091741e-05
1.0047857e-05
1.004206e-05
1.0026488e-05
1.0024416e-05
1.0018155e-05
1.0014583e-05
1.0010817e-05
1.0007917e-05
1.0005546e-05
1.000381e-05
1.0002634e-05
1.0001931e-05
1.0001563e-05
1.0001376e-05
1.0001269e-05