/*--------------------------------*- C++ -*----------------------------------*\
  =========                 |
  \\      /  F ield         | OpenFOAM: The Open Source CFD Toolbox
   \\    /   O peration     | Website:  https://openfoam.org
    \\  /    A nd           | Version:  8
     \\/     M anipulation  |
\*---------------------------------------------------------------------------*/
FoamFile
{
    version     2.0;
    format      ascii;
    class       volScalarField;
    location    "0.159995";
    object      p;
}
// * * * * * * * * * * * * * * * * * * * * * * * * * * * * * * * * * * * * * //

dimensions      [1 -1 -2 0 0 0 0];

internalField   nonuniform List<scalar> 
20000
(
65445.553
65461.215
65478.64
65502.576
65535.177
65578.426
65637.989
65709.226
65798.951
65907.142
66036.298
66198.905
66383.899
66623.358
66892.984
67243.516
67642.452
68153.195
68746.455
69493.991
70382.221
71481.35
72794.651
74378.489
76235.036
78374.534
80737.633
83234.536
85728.652
88093.092
90227.649
92086.478
93657.045
94957.689
96010.285
96845.946
97491.135
97985.771
98357.496
98632.706
98828.158
98965.326
99059.693
99130.81
99204.093
99309.464
99405.345
99524.562
99550.619
99986.757
65376.189
65392.527
65410.92
65436.393
65471.311
65517.911
65582.455
65659.046
65753.342
65865.677
65998.247
66164.716
66351.145
66593.274
66864.047
67217.332
67617.516
68131.174
68726.669
69476.303
70365.37
71463.37
72773.714
74351.912
76201.23
78332.488
80690.336
83182.949
85680.526
88056.385
90205.633
92073.992
93649.919
94952.795
96006.067
96838.999
97481.354
97969.231
98332.25
98607.333
98805.771
98945.982
99043.218
99118.732
99203.05
99310.45
99414.52
99525.436
99589.021
99984.051
65363.091
65379.698
65398.576
65424.522
65460.05
65507.541
65573.192
65650.386
65746.204
65860.4
65994.299
66163.613
66354.641
66604.411
66881.761
67244.463
67652.946
68177.437
68783.062
69543.109
70439.679
71541.102
72849.143
74417.538
76250.246
78358.714
80695.065
83178.373
85674.684
88052.425
90205.104
92079.328
93657.821
94958.349
96007.294
96837.694
97478.329
97962.194
98319.035
98585.381
98783.716
98925.93
99026.644
99109.745
99202.652
99312.374
99421.354
99528.252
99637.764
99982.347
65402.956
65420.107
65439.902
65467.187
65504.545
65554.515
65623.208
65703.453
65803.685
65923.085
66062.344
66238.84
66435.706
66693.822
66978.446
67351.636
67770.066
68307.47
68925.636
69699.287
70607.927
71718.978
73032.235
74599.221
76422.829
78513.411
80826.249
83283.105
85758.496
88121.465
90264.312
92129.301
93698.023
94987.277
96025.374
96845.696
97478.33
97960.155
98313.537
98574.287
98766.474
98909.218
99013.522
99105.349
99202.573
99315.561
99426.592
99533.164
99681.61
99981.448
65506.523
65524.269
65544.592
65572.675
65611.21
65662.877
65733.899
65816.303
65918.973
66041.919
66185.205
66368.036
66570.831
66838.038
67131.066
67516.45
67946.715
68499.22
69132.757
69923.517
70848.915
71975.659
73301.678
74875.894
76698.95
78778.287
81069.25
83495.461
85937.274
88268.295
90383.358
92223.752
93770.449
95039.398
96060.056
96865.636
97486.77
97960.153
98311.833
98569.452
98757.773
98898.623
99005.889
99103.353
99203.396
99319.826
99432.254
99539.317
99727.311
99981.028
65641.76
65660.419
65681.845
65711.467
65752.089
65806.433
65880.791
65966.398
66072.806
66200.498
66348.197
66537.765
66746.648
67023.577
67325.858
67724.383
68167.777
68736.805
69387.533
70197.915
71143.825
72291.421
73637.091
75226.898
77058.452
79134.722
81408.292
83802.37
86202.116
88488.054
90560.365
92362.095
93875.123
95115.064
96111.906
96897.965
97503.934
97966.27
98311.686
98567.799
98753.966
98893.598
99002.291
99102.582
99205.766
99325.111
99438.198
99547.588
99768.031
99980.982
65807.286
65826.682
65848.819
65879.457
65921.603
65977.99
66055.174
66143.528
66253.477
66385.879
66538.622
66735.826
66951.871
67239.668
67552.152
67964.843
68422.347
69009.239
69679.176
70511.765
71481.712
72654.696
74025.82
75638.104
77485.611
79565.645
81826.178
84188.407
86541.068
88772.104
90789.428
92540.714
94009.899
95212.94
96180.08
96942.4
97529.975
97978.697
98315.605
98567.496
98752.595
98891.467
99000.753
99102.369
99209.607
99331.398
99444.934
99559.891
99804.751
99983.366
65990.007
66010.333
66033.547
66065.674
66110.067
66169.212
66249.989
66342.093
66456.54
66594.703
66753.198
66958.829
67182.518
67481.628
67804.666
68231.997
68704.522
69310.487
70001.315
70858.273
71855.256
73057.459
74458.866
76099.288
77968.79
80058.159
82309.326
84640.224
86942.349
89111.394
91064.409
92755.616
94172.316
95331.542
96263.714
96998.365
97564.535
97997.541
98324.089
98569.497
98752.29
98890.725
99000.201
99102.478
99214.784
99338.627
99452.859
99578.958
99835.211
99988.015
66195.278
66216.582
66240.779
66274.271
66320.711
66382.206
66466.207
66562.037
66681.119
66825.183
66989.437
67203.576
67434.883
67745.473
68079.34
68521.961
69010.464
69636.804
70350.36
71233.874
72260.794
73495.694
74931.58
76604.739
78500.95
80603.628
82847.834
85147.383
87396.18
89497.719
91379.093
93002.458
94359.486
95468.983
96361.603
97065.124
97607.206
98022.518
98337.195
98574.844
98753.326
98890.573
99000.077
99104.268
99221.272
99346.646
99462.311
99605.808
99859.544
99994.596
66417.387
66439.843
66465.298
66500.499
66549.483
66613.814
66701.728
66801.333
66924.919
67074.815
67244.599
67467.203
67706.055
68028.378
68373.605
68832.362
69338.062
69986.095
70724.052
71636.139
72695.666
73966.368
75440.294
77149.907
79076.294
81194.832
83433.132
85700.535
87893.35
89923.007
91727.121
93276.586
94568.2
95623.122
96472.356
97141.767
97657.407
98053.289
98354.724
98583.605
98756.922
98891.68
99000.985
99107.917
99229.075
99355.353
99473.341
99636.995
99880.834
100002.85
66657.864
66681.324
66707.789
66744.405
66795.761
66862.722
66954.309
67057.193
67184.907
67340.474
67515.654
67746.935
67993.672
68328.454
68685.932
69161.895
69685.955
70356.986
71121.144
72063.94
73158.753
74468.214
75983.364
77732.504
79691.543
81827.188
84059.255
86292.77
88426.659
90380.551
92102.87
93573.663
94795.311
95791.768
96594.497
97227.313
97714.502
98089.426
98376.451
98595.701
98763.15
98894.878
99003.801
99113.539
99238.167
99364.648
99485.822
99670.622
99901.173
100012.38
66908.131
66932.927
66960.788
66999.221
67053.49
67123.408
67218.987
67325.766
67458.046
67619.767
67800.716
68041.37
68296.74
68644.952
69015.649
69509.776
70053.35
70748.674
71540.841
72516.467
73649.135
75000.056
76559.198
78350.291
80343.478
82496.223
84720.45
86917.39
88989.09
90863.742
92500.689
93889.229
95037.512
95972.576
96726.419
97320.675
97777.757
98130.443
98402.069
98610.964
98771.983
98900.26
99008.684
99121.132
99248.456
99374.452
99499.587
99705.568
99921.442
100022.96
67173.418
67199.335
67228.282
67268.163
67325.093
67397.504
67496.61
67606.954
67743.807
67912.146
68099.426
68350.33
68615.168
68977.657
69362.34
69875.413
70439.635
71160.681
71982.908
72993.614
74166.706
75561.673
77167.335
79002.31
81030.324
83199.015
85412.63
87569.308
89575.101
91367.158
92915.761
94219.332
95291.758
96163.315
96866.551
97420.76
97846.42
98175.823
98431.253
98629.191
98783.307
98907.809
99015.673
99130.698
99259.84
99384.755
99514.754
99741.13
99941.889
100034.43
67446.32
67473.592
67503.888
67545.568
67605.769
67681.095
67784.543
67899.371
68041.721
68217.834
68412.242
68674.176
68948.92
69326.192
69725.398
70258.28
70844.516
71592.946
72447.341
73495.321
74711.276
76152.684
77807.062
79687.284
81749.896
83932.261
86131.381
88243.312
90179.152
91885.444
93343.329
94560.037
95554.983
96361.714
97013.277
97526.428
97919.683
98225.013
98463.636
98650.152
98796.987
98917.477
99024.764
99142.184
99272.339
99395.686
99532.006
99776.504
99962.498
100046.57
67730.99
67759.862
67791.801
67835.538
67899.409
67977.214
68086.351
68206.13
68353.991
68538.006
68739.506
69012.569
69297.327
69689.779
70104.291
70658.124
71268.07
72045.713
72934.459
74021.922
75283.15
76773.352
78478.424
80404.78
82500.907
84693.641
86873.336
88935.337
90796.83
92414.236
93779.42
94907.967
95824.48
96565.718
97165.099
97636.588
97996.757
98277.459
98498.849
98673.608
98812.882
98929.213
99035.928
99155.426
99285.85
99407.571
99552.693
99810.633
99983.004
100059.42
68030.029
68060.374
68093.79
68139.407
68207.047
68287.715
68401.686
68526.361
68679.431
68871.292
69079.821
69364.263
69659.415
70067.891
70498.927
71075.235
71710.737
72519.39
73444.578
74573.643
75882.489
77423.708
79181.139
81153.874
83281.488
85480.208
87634.646
89640.984
91423.57
92949.158
94220.109
95259.805
96097.595
96773.312
97320.526
97750.131
98076.829
98332.589
98536.507
98699.31
98830.845
98942.954
99049.12
99170.251
99300.075
99420.754
99578.505
99842.315
100003.07
100072.93
68338.132
68370.206
68405.383
68453.271
68525.143
68609.008
68727.763
68857.706
69016.164
69216.201
69432.034
69728.54
70034.975
70460.769
70909.874
71510.193
72173.045
73014.422
73978.14
75150.99
76509.872
78104.293
79915.508
81934.238
84090.387
86289.665
88412.239
90356.663
92055.643
93486.608
94662.131
95612.753
96372.058
96982.74
97478.214
97866.034
98159.14
98389.85
98576.236
98727.015
98850.728
98958.63
99064.269
99186.491
99314.741
99435.503
99610.37
99870.872
100022.47
100086.77
68657.265
68691.01
68727.866
68777.904
68853.774
68941.075
69064.192
69199.465
69363.438
69572.203
69796.047
70105.774
70424.733
70869.292
71337.924
71963.647
72655.461
73531.177
74535.529
75754.407
77165.753
78815.4
80681.415
82744.936
84925.653
87119.044
89202.473
91078.441
92689.144
94022.95
95102.267
95964.105
96645.695
97192.312
97636.844
97983.297
98242.949
98448.691
98617.66
98756.473
98872.377
98976.154
99081.282
99203.969
99329.637
99451.892
99645.866
99898.156
100041.33
100100.82
68983.906
69019.502
69058.127
69110.391
69190.657
69281.754
69409.796
69551.148
69721.395
69940.028
70172.981
70497.269
70829.882
71294.344
71783.682
72435.914
73158.266
74070.062
75117.322
76384.673
77850.941
79557.796
81479.122
83585.505
85785.715
87965.922
90002.273
91803.042
93320.841
94555.198
95537.893
96311.638
96916.692
97400.57
97795.253
98101.059
98327.595
98508.599
98660.431
98787.451
98895.642
98995.437
99100.039
99222.49
99344.701
99469.871
99683.674
99924.953
100059.62
100114.55
69318.958
69356.652
69397.403
69452.433
69537.44
69632.702
69766.394
69914.829
70092.163
70321.656
70564.478
70904.207
71251.118
71736.243
72247.274
72927.163
73681.772
74631.562
75724.185
77042.531
78566.152
80331.9
82308.447
84454.729
86668.272
88827.109
90807.996
92526.764
93947.27
95080.319
95966.457
96653.235
97183.303
97606.069
97952.351
98218.549
98412.446
98569.091
98704.206
98819.711
98920.37
99016.378
99120.396
99241.819
99360.012
99489.494
99722.935
99951.448
100077.17
100127.46
69666.686
69706.47
69749.244
69807.025
69896.748
69996.433
70136.101
70292.494
70477.43
70718.237
70971.07
71326.66
71688.298
72194.805
72728.7
73437.558
74226.432
75216.398
76357.056
77729.031
79312.425
81138.498
83169.516
85351.718
87571.33
89699.758
91616.442
93246.356
94565.49
95595.86
96385.984
96987.234
97444.075
97807.565
98107.307
98335.149
98496.907
98629.754
98748.674
98853.039
98946.417
99038.869
99142.19
99261.721
99375.656
99511.14
99762.881
99977.398
100093.94
100139.82
70027.189
70069.41
70114.621
70175.622
70270.063
70375.357
70520.493
70684.685
70876.962
71129.132
71391.936
71763.926
72140.978
72669.895
73228.121
73967.568
74792.957
75825.485
77016.935
78445.191
80090.607
81977.986
84061.838
86274.785
88492.07
90580.306
92423.787
93958.193
95172.443
96099.442
96794.657
97312.105
97697.631
98003.959
98259.531
98450.228
98580.342
98690.212
98793.536
98887.223
98973.64
99062.79
99165.232
99282.052
99391.879
99535.587
99802.553
100002.43
100109.72
100151.31
70401.561
70445.972
70493.233
70557.314
70656.747
70767.562
70917.518
71089.215
71288.783
71552.874
71826.224
72215.643
72609.169
73161.779
73746.052
74517.918
75382.303
76459.937
77705.046
79192.259
80901.839
82851.008
84985.147
87222.426
89427.906
91465.48
93226.522
94659.18
95765.755
96589.328
97191.158
97626.698
97942.946
98194.652
98408.762
98563.034
98662.146
98750.102
98838.531
98922.073
99001.904
99088.008
99189.307
99302.731
99409.362
99564.058
99840.75
100026.12
100124.41
100161.84
70780.611
70827.807
70877.821
70946.083
71051.23
71168.11
71324.118
71504.487
71712.22
71989.49
72274.179
72682.175
73093.333
73671.022
74283.306
75089.608
75995.595
77120.967
78422.608
79971.405
81746.978
83757.717
85938.398
88192.249
90375.342
92351.215
94020.681
95346.193
96343.293
97063.951
97574.111
97929.83
98179.216
98379.583
98554.657
98672.568
98741.853
98808.974
98883.437
98957.414
99031.078
99114.373
99214.161
99323.635
99428.877
99598.058
99876.147
100048.04
100138.14
100172.08
71172.723
71222.659
71275.348
71347.601
71458.151
71580.617
71742.818
71932.499
72148.664
72439.776
72736.378
73164.029
73594.14
74198.486
74840.925
75683.769
76634.065
77809.911
79171.012
80784.019
82627.105
84698.451
86920.656
89181.953
91330.974
93233.672
94802.969
96017.119
96903.843
97522.231
97942.177
98220.397
98406.073
98559.216
98696.137
98778.071
98819.387
98866.338
98928.086
98993.093
99061.039
99141.719
99239.521
99344.606
99450.776
99638.203
99907.923
100068.16
100150.75
100181.46
71575.461
71628.212
71683.572
71759.936
71876.165
72004.665
72173.282
72373.049
72598.072
72903.971
73213.213
73661.899
74112.545
74745.249
75420.079
76301.626
77299.016
78528.155
79951.648
81631.369
83542.945
85672.906
87930.075
90188.248
92290.501
94108.57
95570.38
96670.484
97446.388
97962.862
98293.603
98497.121
98623.316
98733.537
98831.233
98879.428
98895.005
98921.892
98972.332
99028.977
99091.665
99169.866
99265.108
99365.528
99474.973
99681.61
99937.653
100086.71
100162.26
100190.03
71987.73
72043.745
72102.364
72183.509
72306.069
72441.25
72616.386
72826.688
73060.779
73382.724
73705.586
74176.892
74649.742
75312.449
76021.915
76944.4
77991.819
79277.196
80766.112
82514.878
84495.438
86680.762
88964.847
91207.75
93249.881
94972.414
96321.346
97305.77
97969.724
98384.173
98626.834
98759.168
98830.899
98900.652
98959.43
98976.731
98968.755
98975.961
99016.002
99064.954
99122.84
99198.619
99290.659
99386.353
99501.286
99726.203
99966.145
100103.9
100172.78
100198.01
72411.983
72471.22
72533.082
72618.936
72747.839
72889.77
73071.689
73293.646
73537.698
73877.131
74214.835
74710.19
75206.835
75901.088
76647.563
77613.416
78713.948
80058.636
81615.949
83435.829
85484.964
87720.914
90022.012
92236.113
94204.487
95822.096
97055.01
97921.555
98470.547
98783.304
98941.255
99006.948
99028.625
99058.496
99081.782
99070.02
99039.368
99029.521
99058.839
99100.92
99154.448
99227.778
99315.949
99407.089
99529.51
99770.806
99993.542
100120
100182.41
100205.15
72845.58
72908.376
72973.862
73064.762
73200.645
73350.452
73540.487
73775.718
74030.274
74388.737
74742.08
75262.678
75784.641
76512.128
77298.249
78310.121
79467.008
80874.237
82502.915
84395.651
86511.962
88792.131
91098.516
93269.087
95150.493
96656.147
97770.678
98513.608
98945.426
99158.671
99237.803
99241.706
99216.103
99206.779
99199.828
99158.76
99105.789
99082.891
99100.604
99136.791
99186.376
99257.138
99340.832
99427.939
99559.581
99814.48
100019.61
100135.04
100191.5
100211.94
73292.357
73359.048
73428.709
73525.184
73669.11
73827.626
74026.056
74274.873
74539.796
74918.179
75287.794
75834.787
76383.98
77146.714
77975.429
79036.148
80252.763
81725.837
83428.721
85395.416
87576.102
89892.073
92190.13
94301.737
96084.434
97473.707
98464.229
99076.981
99391.43
99510.632
99519.619
99463.941
99392.288
99347.033
99312.096
99242.378
99168.637
99135.515
99141.346
99172.482
99218.504
99286.491
99365.256
99449.421
99592.079
99856.174
100044.02
100148.98
100199.97
100218.31
73753.615
73824.478
73898.866
74001.296
74153.565
74320.86
74527.519
74790.156
75066.02
75465.239
75852.229
76427.225
77006.1
77806.338
78680.724
79793.288
81073.14
82615.502
84395.25
86436.261
88676.88
91018.139
93292.54
95329.786
97004.36
98273.684
99129.249
99607.371
99808.566
99844.661
99784.799
99672.895
99557.52
99479.778
99418.457
99320.929
99228.426
99186.137
99181.587
99207.911
99250.708
99315.633
99389.245
99472.307
99628.285
99894.649
100066.36
100161.66
100207.66
100224.08
74228.5
74303.682
74383.066
74491.447
74651.828
74828.338
75043.442
75321.298
75608.744
76030.17
76436.319
77041.422
77652.648
78492.654
79415.89
80583.473
81930.257
83545.364
85404.244
87518.672
89812.772
92166.418
94400.575
96349.054
97908.888
99049.969
99760.168
100102.44
100202.63
100159.35
100033
99868.236
99712.298
99605.247
99518.812
99394.805
99285.675
99233.655
99221.605
99243.005
99282.85
99344.362
99412.866
99497.339
99669.407
99928.882
100086.35
100172.92
100214.48
100229.21
74715.614
74795.279
74879.997
74994.603
75163.341
75349.964
75574.191
75868.625
76168.928
76614.558
77041.879
77679.16
78325.349
79207.313
80182.731
81408.854
82826.463
84517.791
86457.433
88643.011
90981.776
93332.81
95509.459
97356.79
98796.568
99794.622
100352.33
100566.2
100575.38
100453.59
100264.35
100050.19
99857.022
99723.639
99613.262
99464.245
99339.968
99278.586
99261.167
99277.715
99314.785
99372.492
99436.182
99524.891
99714.584
99959.328
100104.13
100182.73
100220.27
100233.54
75213.908
75298.569
75389.526
75511.112
75688.722
75886.85
76121.334
76433.93
76748.548
77220.833
77670.927
78341.98
79025.655
79951.975
80983.323
82271.917
83764.341
85535.074
87556.14
89808.58
92180.597
94511.988
96614.29
98350.701
99660.756
100500.81
100903.41
101005.98
100924.08
100727.37
100479.16
100219.1
99992.067
99835.139
99701.904
99529.301
99391.144
99321.389
99300.045
99311.995
99346.362
99399.857
99459.25
99554.846
99760.938
99987.866
100120.28
100191.18
100224.59
100236.43
75726.237
75816.334
75914.613
76043.435
76230.169
76441.37
76687.518
77020.05
77349.93
77850.518
78324.793
79030.875
79754.98
80728.647
81820.201
83175.47
84746.658
86599.528
88701.47
91014.213
93405.44
95698.79
97711.209
99329.078
100492.45
101163.3
101419.78
101420.58
101248.52
100981.14
100677.95
100375.45
100117.88
99940.002
99784.895
99589.935
99439.263
99362.449
99338.13
99345.762
99377.428
99426.335
99482.161
99586.804
99807.079
100014.96
100134.98
100198.34
100227.85
100238.35
76256.674
76352.321
76458.534
76595.918
76792.348
77016.99
77275.025
77628.635
77974.049
78503.682
79004.114
79747.011
80515.327
81540.047
82696.383
84122.59
85776.173
87713.168
89893.675
92257.401
94651.178
96887.594
98796.669
100286.18
101282.95
101779.34
101909.14
101806.82
101548.9
101215.45
100861.25
100519.74
100234.91
100038.5
99862.383
99646.073
99484.484
99402.007
99375.419
99378.879
99407.83
99451.862
99505.154
99620.534
99852.076
100040.62
100148.33
100204.46
100230.28
100239.49
76802.443
76904.306
77020.089
77168.441
77375.061
77613.47
77883.086
78259.035
78620.545
79180.649
79710.095
80492.67
81309.653
82389.51
83615.172
85116.427
86855.655
88877.829
91132.509
93535.012
95912.521
98073.685
99868.27
101212.25
102026.12
102355.41
102369.8
102164.72
101825.94
101431.04
101029.72
100652.6
100343.67
100130.97
99934.549
99697.714
99527.02
99440.178
99411.811
99411.33
99437.428
99476.449
99528.744
99656.501
99894.804
100064.4
100160.35
100209.73
100232.17
100240.14
77365.26
77474.431
77599.291
77757.799
77975.894
78229.614
78510.721
78910.892
79290.155
79883.317
80445.595
81271.303
82141.619
83280.602
84579.882
86160.081
87987.668
90094.663
92416.413
94842.373
97183.361
99252.352
100921.9
102095.94
102717.47
102899.98
102798.3
102494.69
102080.34
101628.63
101184.03
100774.6
100444.63
100217.71
100001.53
99744.994
99567.147
99477.006
99446.919
99443.316
99466.094
99500.219
99553.71
99695.987
99933.725
100085.76
100171.02
100214.32
100233.78
100240.52
77951.951
78068.815
78200.302
78364.956
78594.51
78866.015
79158.861
79586.016
79985.859
80615.523
81214.76
82086.877
83014.861
84216.699
85593.716
87256.618
89174.664
91364.322
93743.045
96174.258
98458.157
100419.95
101947.69
102929.84
103362.15
103412.37
103194.24
102797.58
102313.07
101809.12
101324.91
100886.41
100538.34
100298.99
100063.33
99788.331
99605.219
99512.669
99480.631
99474.679
99493.741
99523.438
99580.779
99739.978
99967.457
100104.55
100180.39
100218.38
100235.16
100240.75
78553.626
78678.491
78819.957
78994.743
79234.544
79525.131
79832.089
80289.291
80712.676
81381.847
82021.755
82942.847
83932.571
85201.079
86659.939
88409.143
90418.638
92686.352
95108.394
97524.251
99730.987
101572.52
102933.04
103707.64
103968.64
103889.16
103558.05
103074.31
102525.08
101973.34
101453.11
100988.69
100625.26
100374.94
100119.65
99828.498
99641.519
99547.091
99513.029
99505.378
99520.303
99546.509
99610.177
99786.154
99996.905
100120.98
100188.59
100221.98
100236.36
100240.93
79174.372
79308.47
79460.419
79646.749
79898.502
80211.46
80535.258
81026.05
81475.157
82185.895
82869.549
83841.994
84897.756
86237.109
87782.019
89620.752
91721.251
94059.373
96507.756
98886.083
100996.75
102702.31
103867.6
104430.89
104539.51
104328.83
103890.69
103326.04
102717.48
102122.26
101569.42
101082.11
100705.87
100445.62
100170.15
99866.425
99676.198
99580.209
99544.312
99535.397
99545.732
99569.803
99641.527
99831.572
100023.7
100135.5
100195.63
100224.9
100237.35
100241.07
79821.49
79965.566
80128.502
80329.038
80594.807
80932.727
81274.141
81800.193
82275.665
83029.215
83760.268
84787.135
85913.781
87328.595
88963.655
90894.357
93083.146
95480.395
97934.813
100253.13
102250.39
103796.1
104743.07
105107.37
105071.58
104731.78
104193.24
103553.97
102891.36
102256.78
101674.62
101167.32
100780.58
100511.12
100215.45
99902.196
99709.275
99612.022
99574.632
99564.722
99570.084
99593.325
99674.271
99875.035
100048.24
100148.32
100201.55
100227.2
100238.03
100241.17
80498.294
80653.845
80829.992
81048.987
81328.771
81691.435
82048.932
82611.32
83114.632
83913.323
84696.69
85781.99
86984.695
88479.693
90208.617
92232.513
94504.033
96945.293
99382.934
101619.29
103486.81
104839.6
105555.99
105744.29
105561.63
105099.02
104467.09
103759.45
103047.9
102377.88
101769.51
101244.98
100849.8
100571.62
100256.3
99935.831
99740.829
99642.603
99603.947
99593.097
99593.7
99616.752
99708.324
99915.714
100070.48
100159.49
100206.63
100229.13
100238.33
100241.23
81208.792
81375.93
81564.979
81801.255
82092.326
82483.09
82857.443
83459.046
83995.332
84841.705
85683.068
86831.175
88115.069
89694.83
91520.625
93636.949
95981.984
98448.088
100844.59
102977.81
104692.63
105822.62
106312.46
106338.92
106009.84
105431.78
104713.64
103943.81
103188.22
102486.47
101854.86
101315.7
100913.87
100627.35
100293.23
99967.445
99771.041
99672.12
99632.128
99619.884
99617.159
99640.346
99744.445
99952.661
100090.42
100169.11
100210.43
100230.14
100238.41
100241.25
81938.668
82119.576
82323.005
82579.662
82885.486
83309.473
83703.715
84348.293
84921.712
85819.463
86724.34
87939.689
89309.654
90978.534
92903.108
95108.501
97513.694
99981.991
102312.55
104322.56
105852.2
106737.05
107023.12
106886.89
106417.27
105731.65
104934.52
104108.5
103313.51
102583.52
101931.45
101380.08
100973.16
100678.6
100326.74
99997.249
99800.083
99700.681
99659.292
99645.02
99640.416
99664.895
99783.804
99984.808
100107.95
100177.53
100213.57
100230.57
100237.9
100240.26
82702.042
82898.413
83116.88
83396.723
83717.411
84177.421
84593.283
85283.974
85899.457
86851.557
87825.539
89112.583
90573.411
92335.299
94358.883
96646.37
99093.836
101538.77
103778.66
105643.14
106950.77
107585.72
107687.34
107387.35
106785.28
106000.29
105131.33
104254.87
103424.88
102669.91
102000.02
101438.67
101027.97
100725.68
100357.28
100025.47
99828.015
99728.099
99685.155
99669.06
99663.405
99690.939
99826.009
100012.14
100123.1
100184.89
100216.31
100230.67
100236.78
100238.76
83500.202
83714.824
83949.367
84255.178
84590.952
85090.906
85530.739
86270.849
86933.231
87943.09
88991.85
90355.247
91911.454
93769.494
95889.895
98248.297
100715.75
103110.35
105235.18
106923.12
107977.77
108378.03
108301.08
107841.33
107115.67
106239.61
105305.79
104384.39
103523.5
102746.57
102061.3
101492.02
101078.63
100768.93
100385.35
100052.3
99854.765
99754.199
99709.753
99692.302
99686.069
99718.587
99867.932
100036.92
100136.22
100190.61
100217.99
100230.36
100235.26
100236.9
84338.67
84573.953
84825.731
85160.579
85511.178
86054.795
86521.221
87313.974
88028.38
89099.376
90228.796
91673.447
93329.134
95285.049
97496.604
99909.683
102370.9
104687.51
106673.21
108143.69
108929.19
109119.49
108861.11
108250.25
107410.34
106451.5
105459.56
104498.41
103610.42
102814.35
102115.99
101540.59
101125.44
100808.74
100411.38
100077.79
99880.213
99778.914
99733.221
99714.897
99708.374
99747.838
99908.324
100059.76
100147.75
100195.2
100218.78
100229.32
100233.4
100234.78
85223.97
85481
85749.86
86116.168
86482.954
87073.689
87569.469
88418.32
89190.72
90326.25
91542.447
93073.399
94831.84
96885.014
99177.678
101624.05
104050.06
106260.56
108076.52
109291.17
109812.29
109806.4
109368.24
108616.1
107671.52
106638
105594.36
104598.3
103686.74
102874.09
102164.75
101584.86
101168.72
100845.5
100435.76
100101.95
99904.256
99802.282
99755.727
99736.977
99730.397
99778.605
99946.377
100080.64
100158.01
100199.09
100219.06
100227.99
100231.36
100232.52
86156.439
86437.853
86724.691
87126.361
87509.58
88151.545
88680.558
89589.393
90426.526
91630.493
92939.587
94561.869
96424.716
98571.031
100929.29
103382.54
105742.68
107818.8
109424.23
110355.14
110638.6
110432.82
109823.88
108941.07
107901.44
106801.08
105711.81
104685.35
103753.43
102926.59
102208.19
101625.24
101208.76
100879.62
100458.7
100124.68
99926.812
99824.387
99777.481
99758.821
99752.479
99811.273
99981.195
100099.09
100166.7
100202.31
100219.1
100226.5
100229.2
100230.14
87136.935
87446.604
87752.849
88196.24
88596.508
89294.198
89861.579
90832.653
91742.841
93020.122
94427.859
96145.619
98111.935
100342.6
102745.16
105174.83
107437.37
109348.22
110697.42
111340.31
111404.63
110999.22
110230.29
109227.76
108102.51
106942.81
105813.58
104760.84
103811.5
102972.62
102246.93
101662.15
101245.88
100911.48
100480.3
100145.88
99947.828
99845.356
99798.783
99780.883
99775.199
99846.48
100011.48
100114.51
100173.16
100203.84
100218.47
100224.65
100226.88
100227.65
88174.271
88515.435
88839.987
89330.755
89749.879
90508.344
91120.479
92156.193
93148.578
94504.258
96015.317
97830.94
99896.033
102196.45
104616.18
106988.91
109121.06
110826
111881.93
112257.73
112104.32
111506.96
110589.95
109478.81
108277.09
107065.1
105901.18
104825.96
103861.85
103012.9
102281.49
101695.96
101280.38
100941.4
100500.5
100165.43
99967.355
99865.443
99820.006
99803.574
99798.977
99884.535
100035.89
100126.87
100177.92
100204.42
100217.15
100222.43
100224.38
100224.99
89271.251
89648.691
89991.93
90536.507
90977.562
91802.923
92467.287
93571.369
94653.905
96092.492
97709.602
99622.733
101777.11
104126.37
106531.06
108811.83
110779.91
112228.5
112976.93
113108.32
112735.95
111958.48
110905.84
109697.06
108427.6
107169.95
105976.16
104881.87
103905.38
103048.13
102312.42
101727.03
101312.58
100969.59
100519.13
100183.32
99985.66
99885.074
99841.5
99826.997
99823.754
99921.551
100056.88
100137.14
100181.68
100204.53
100215.38
100219.87
100221.58
100222.08
90434.971
90857.345
91220.272
91827.013
92292.536
93189.683
93914.079
95089.19
96268.751
97793.74
99517.372
101524.09
103752.31
106122.72
108476.06
110627.96
112389.67
113537.77
113991.65
113885.91
113300.75
112356.56
111181.02
109885.3
108556.38
107259.18
106039.93
104929.64
103942.9
103078.95
102340.19
101755.7
101342.74
100996.16
100536.02
100199.78
100003.23
99904.749
99863.448
99850.791
99849.162
99955.964
100075.59
100145.99
100184.64
100204.15
100213.18
100216.96
100218.48
100218.91
91681.006
92157.984
92537.538
93215.355
93707.864
94680.048
95472.354
96719.703
98002.088
99616.287
101443.98
103535.35
105815.14
108172.77
110435.77
112420.37
113923.65
114746.82
114931.62
114586.57
113801.33
112704.66
111418.9
110046.43
108665.76
107334.62
106093.87
104970.32
103975.21
103105.98
102365.27
101782.31
101371.09
101021.13
100551.21
100215.26
100020.62
99924.766
99885.681
99874.194
99875.01
99987.897
100092.51
100153.64
100186.71
100203.11
100210.61
100213.78
100215.13
100215.52
93014.116
93559.462
93953.623
94713.248
95236.301
96283.926
97153.767
98473.388
99862.419
101567.47
103493.07
105653.79
107955.22
110260.63
112391.65
114164.34
115358.58
115863.01
115790.21
115211.37
114240.86
113006.4
111622.82
110183.25
108757.9
107397.87
106139.19
105004.85
104003.05
103129.8
102388.1
101807.15
101397.8
101044.48
100564.98
100230.3
100038.19
99945.011
99907.669
99896.782
99901.592
100016.99
100107.46
100160.04
100188.23
100202
100208.07
100210.44
100211.43
100211.61
94439.779
95071.69
95478.777
96331.857
96889.678
98008.896
98968.883
100361.56
101858.44
103653.68
105665.58
107872.14
110157.83
112367.63
114322.89
115829.17
116682.43
116894.78
116561.75
115763.01
114623.36
113265.79
111796.23
110298.47
108834.84
107450.45
106177.05
105034.11
104027.13
103150.96
102409.08
101830.5
101423.04
101066.28
100577.82
100245.29
100055.98
99965.26
99929.349
99918.92
99928.94
100042.75
100120.25
100165.11
100189.05
100200.71
100205.85
100207.87
100208.69
100206.66
96003.632
96725.847
97121.033
98071.739
98674.78
99864.102
100925.81
102395.51
103999.55
105879.74
107958.63
110178.16
112403.81
114471.25
116202.24
117386.53
117900.94
117834.52
117247.14
116245.15
114953.16
113486.82
111942.4
110394.6
108898.46
107493.88
106208.65
105059
104048.11
103169.98
102428.6
101852.63
101447.03
101086.7
100590.14
100260.44
100073.92
99985.435
99950.923
99941.062
99957.494
100064.43
100130.76
100168.99
100189.36
100199.36
100203.75
100205.46
100206.16
100201.89
97709.903
98523.593
98892.666
99936.675
100604.98
101866.76
103037.92
104588.18
106294.96
108247.25
110363.45
112553.69
114670.06
116545.55
117994.23
118821.19
119023.04
118675.52
117849.42
116662.52
115235.05
113673.59
112064.55
110474.07
108950.83
107530.01
106235.44
105080.48
104066.6
103187.33
102447.02
101873.81
101469.95
101105.87
100602.31
100275.83
100091.99
100005.62
99972.646
99963.559
99986.984
100081.91
100139.28
100172.03
100189.41
100197.92
100201.62
100203.04
100203.62
100197.48
99548.041
100455.58
100825.9
101956.85
102711.33
104041.95
105326.48
106953.17
108749.64
110750.62
112863.54
114974.16
116928.51
118558.25