/*--------------------------------*- C++ -*----------------------------------*\
  =========                 |
  \\      /  F ield         | OpenFOAM: The Open Source CFD Toolbox
   \\    /   O peration     | Website:  https://openfoam.org
    \\  /    A nd           | Version:  8
     \\/     M anipulation  |
\*---------------------------------------------------------------------------*/
FoamFile
{
    version     2.0;
    format      ascii;
    class       surfaceScalarField;
    location    "0.159995";
    object      phi;
}
// * * * * * * * * * * * * * * * * * * * * * * * * * * * * * * * * * * * * * //

dimensions      [1 0 -1 0 0 0 0];

internalField   nonuniform List<scalar> 
39600
(
-0.00018446789
-0.0082021335
0.0083366881
-0.00024977353
-0.011378408
0.011446643
-0.00032621919
-0.014858841
0.014935445
-0.0004153577
-0.019102747
0.019190462
-0.00051503534
-0.024430888
0.024527766
-0.000618201
-0.031213849
0.03131242
-0.00082581377
-0.039488722
0.039690481
-0.0011652152
-0.047998131
0.048330403
-0.0015865923
-0.057285705
0.057696601
-0.0020821968
-0.068848653
0.069330736
-0.0026749438
-0.082298781
0.082874127
-0.0033756496
-0.09879469
0.099477355
-0.0042229215
-0.1182325
0.11905646
-0.0052356684
-0.14186076
0.14284465
-0.0064464722
-0.1698997
0.17107564
-0.0078913434
-0.20381858
0.205221
-0.0096129873
-0.24424832
0.2459186
-0.011672757
-0.29302173
0.29500598
-0.014134221
-0.35133742
0.35370904
-0.017080553
-0.42155121
0.42438712
-0.020598131
-0.50566376
0.50904453
-0.024802708
-0.60677942
0.61081276
-0.029820094
-0.72795766
0.73276124
-0.035807403
-0.87327892
0.87899781
-0.042929448
-1.047055
1.0538435
-0.051370272
-1.2545028
1.2625347
-0.061345936
-1.5013526
1.5108459
-0.073137734
-1.7944089
1.8056315
-0.087121587
-2.1416536
2.1550273
-0.10377442
-2.5531164
2.5691212
-0.12363824
-3.0412821
3.0604675
-0.14728959
-3.6216249
3.6445817
-0.17534286
-4.3131474
4.3404726
-0.2084088
-5.1389882
5.1713038
-0.24719262
-6.1271126
6.1650904
-0.29235136
-7.3107085
7.355029
-0.34460869
-8.7290528
8.7803842
-0.40457163
-10.429345
10.488269
-0.47264535
-12.467947
12.534878
-0.54877077
-14.912494
14.987413
-0.63226246
-17.843616
17.925817
-0.72133153
-21.358644
21.44624
-0.81211796
-25.572907
25.662255
-0.89770749
-30.628106
30.712657
-0.96699745
-36.691041
36.760195
-1.0026464
-43.966839
44.003115
-0.98421018
-52.704677
52.688558
-0.84866698
-63.20644
63.074786
-0.57379886
-75.881547
75.612402
-90.905374
90.353496
-9.2645428e-05
-0.0081508598
-0.00015278604
-0.011318191
-0.00022261383
-0.014789937
-0.00030341153
-0.019024419
-0.00039292712
-0.024344244
-0.00048382317
-0.031127975
-0.00068483302
-0.039293005
-0.00099897599
-0.047691911
-0.0013965032
-0.056896157
-0.0018676183
-0.068388797
-0.0024345137
-0.081744656
-0.003108459
-0.098141715
-0.0039209904
-0.11744514
-0.0048938982
-0.14091852
-0.0060520474
-0.16877905
-0.0074388264
-0.20247727
-0.0090881718
-0.24265608
-0.011062843
-0.29111559
-0.013416028
-0.34906998
-0.016233397
-0.41884155
-0.019594375
-0.50243856
-0.023618273
-0.60292713
-0.028426998
-0.72336503
-0.034185059
-0.86779281
-0.041066631
-1.0405122
-0.049278944
-1.2467047
-0.059051125
-1.4920678
-0.070675569
-1.7832907
-0.084514372
-2.1283792
-0.10101272
-2.5372354
-0.12067072
-3.0222772
-0.14403475
-3.5989526
-0.17169472
-4.2862125
-0.20424667
-5.1071865
-0.24238551
-6.08978
-0.28676865
-7.2671689
-0.33809558
-8.6786465
-0.3969909
-10.37147
-0.46390115
-12.402187
-0.53877948
-14.838839
-0.62098281
-17.76274
-0.70884213
-21.272281
-0.79863422
-25.484573
-0.88375768
-30.544024
-0.95349668
-36.621377
-0.9911796
-43.928422
-0.97106516
-52.722484
-0.85028625
-63.323229
-0.58897787
-76.136925
-91.432086
-8.0253485e-05
-0.0081023877
-0.00013578185
-0.011263129
-0.00019954945
-0.01472756
-0.00027227934
-0.018954367
-0.00035176542
-0.024268729
-0.0004252578
-0.031060649
-0.00062053886
-0.039104548
-0.00093130464
-0.047389845
-0.0013093389
-0.056527691
-0.0017574244
-0.067952373
-0.0022975094
-0.081219367
-0.0029471656
-0.097510905
-0.0037172353
-0.11669541
-0.0046386341
-0.14002172
-0.0057356885
-0.16771195
-0.007049189
-0.20120056
-0.0086111252
-0.24113901
-0.010480422
-0.28930151
-0.012705633
-0.34691212
-0.015369246
-0.4162609
-0.018547113
-0.49936397
-0.022354809
-0.59924882
-0.02691498
-0.71896795
-0.032393582
-0.86252106
-0.038974844
-1.0341917
-0.04688825
-1.2391183
-0.056390146
-1.4829645
-0.067780798
-1.7723901
-0.081414431
-2.1152915
-0.09771731
-2.5215331
-0.11715786
-3.0034775
-0.14024557
-3.5765374
-0.1675417
-4.2596303
-0.19963084
-5.0758444
-0.23719744
-6.053019
-0.28088896
-7.2243236
-0.33140213
-8.6290543
-0.3893602
-10.314528
-0.45520615
-12.337446
-0.52895268
-14.76627
-0.61002078
-17.68298
-0.69682684
-21.186955
-0.78585057
-25.396937
-0.87074315
-30.459889
-0.941232
-36.550948
-0.98128057
-43.887566
-0.96517521
-52.736199
-0.8543284
-63.429973
-0.60640453
-76.378352
-91.933156
-7.1686883e-05
-0.0080569563
-0.00012618887
-0.011211077
-0.00018763704
-0.01466923
-0.00025553239
-0.018890194
-0.0003279273
-0.024201036
-0.00038836321
-0.031005301
-0.00057713937
-0.0389222
-0.00087713953
-0.047096536
-0.0012351358
-0.05617867
-0.0016621645
-0.067535434
-0.0021735376
-0.080720532
-0.0027855632
-0.096912895
-0.003515277
-0.11598403
-0.0043895161
-0.13916998
-0.0054296612
-0.16669918
-0.0066754476
-0.19998837
-0.0081558984
-0.239699
-0.0099266257
-0.2875795
-0.012034134
-0.34486504
-0.014555862
-0.41381425
-0.017564989
-0.49644882
-0.02117473
-0.59575735
-0.025504045
-0.71478841
-0.030722996
-0.85749273
-0.037023329
-1.0281326
-0.044650932
-1.231794
-0.053881599
-1.4741049
-0.065033392
-1.7616765
-0.078463821
-2.1023648
-0.094577867
-2.5059859
-0.1138102
-2.9848596
-0.13663786
-3.5543675
-0.16359739
-4.2333729
-0.19525816
-5.0449242
-0.23229293
-6.0167851
-0.27533975
-7.182123
-0.3251031
-8.5802135
-0.38219228
-10.25845
-0.44708279
-12.273653
-0.51981519
-14.694677
-0.59987457
-17.604148
-0.68578687
-21.102484
-0.77419811
-25.309848
-0.85904303
-30.37575
-0.93051506
-36.479545
-0.97314521
-43.844069
-0.96222649
-52.744698
-0.8604722
-63.527474
-0.62634965
-76.605694
-92.40832
-5.6930532e-05
-0.0080106539
-0.00010651112
-0.011159601
-0.00016291408
-0.01461297
-0.00022413039
-0.018830123
-0.00028876369
-0.024139352
-0.00033838586
-0.030959636
-0.00052453094
-0.038741187
-0.00080719692
-0.046820166
-0.0011489442
-0.055844446
-0.0015575428
-0.067136096
-0.0020444305
-0.080245011
-0.0026279173
-0.096343578
-0.0033206612
-0.11530803
-0.004151096
-0.1383597
-0.0051376946
-0.16573719
-0.0063193217
-0.19883637
-0.0077225137
-0.2383321
-0.0094020823
-0.28594425
-0.011398924
-0.34292221
-0.013789634
-0.41148965
-0.016642284
-0.49367785
-0.020066898
-0.59243423
-0.024181303
-0.71080112
-0.029155792
-0.8526786
-0.035189897
-1.0223002
-0.042543303
-1.2246945
-0.051511709
-1.4654505
-0.062430681
-1.7511385
-0.075659082
-2.0895853
-0.091587254
-2.4905761
-0.11062073
-2.9664015
-0.13320954
-3.5324061
-0.15986051
-4.2074019
-0.19113076
-5.0143804
-0.22767361
-5.9810329
-0.27013625
-7.1405013
-0.31920476
-8.5320643
-0.37550803
-10.20316
-0.43952656
-12.210727
-0.5113578
-14.623969
-0.59054075
-17.526142
-0.6757005
-21.0186
-0.76367576
-25.223019
-0.84867191
-30.291418
-0.92132176
-36.406826
-0.96677453
-43.797667
-0.96130843
-52.747717
-0.86899767
-63.615374
-0.64884617
-76.81886
-92.857087
-5.160477e-05
-0.0079667454
-9.9594434e-05
-0.011111279
-0.00015259039
-0.014561191
-0.0002076412
-0.018776448
-0.0002637204
-0.024086108
-0.00030271032
-0.030924006
-0.0004866763
-0.038561897
-0.0007548619
-0.046557207
-0.0010797402
-0.055526663
-0.0014655504
-0.066758855
-0.0019278965
-0.079793206
-0.0024811605
-0.095802943
-0.0031389077
-0.11466593
-0.0039276092
-0.13759006
-0.004863193
-0.16482476
-0.0059846772
-0.19774301
-0.007315407
-0.23703534
-0.008909091
-0.28439166
-0.010803225
-0.34107875
-0.013071239
-0.40928399
-0.015777498
-0.49104882
-0.019029961
-0.58927781
-0.022944495
-0.70700682
-0.027692907
-0.84808157
-0.033479487
-1.0167034
-0.040577596
-1.2178347
-0.049298947
-1.4570231
-0.059994624
-1.7407963
-0.073029279
-2.0769704
-0.088779396
-2.4753161
-0.10762667
-2.9481054
-0.1299931
-3.5106464
-0.1563609
-4.1816964
-0.18727168
-4.9841828
-0.22336626
-5.9457179
-0.26530013
-7.0994013
-0.31374455
-8.4845337
-0.36933364
-10.148579
-0.43257583
-12.148582
-0.50360649
-14.554063
-0.58204818
-17.448855
-0.66661263
-20.93526
-0.75432515
-25.136388
-0.83969233
-30.206717
-0.91373793
-36.332639
-0.9622793
-43.74808
-0.96259914
-52.744861
-0.87999551
-63.693377
-0.67416322
-77.017612
-93.279217
-3.996432e-05
-0.0079247756
-8.4231336e-05
-0.011065646
-0.00013263307
-0.014513454
-0.00018156124
-0.018728375
-0.00022942334
-0.024040855
-0.00026075474
-0.030896194
-0.00044408459
-0.038383108
-0.00070062673
-0.04630618
-0.0010091706
-0.055224924
-0.001377358
-0.06639894
-0.0018158453
-0.079364895
-0.0023415426
-0.09528959
-0.0029650913
-0.1140573
-0.0037137368
-0.13685936
-0.0046012094
-0.16395911
-0.0056660021
-0.19670443
-0.0069287731
-0.23580456
-0.00844163
-0.28291771
-0.010239365
-0.33932839
-0.012391814
-0.40718929
-0.014961882
-0.48854962
-0.018052891
-0.58627416
-0.021781494
-0.70338637
-0.026319757
-0.84367819
-0.031879249
-1.0113111
-0.038742777
-1.2111796
-0.047237573
-1.4487845
-0.057727433
-1.7306168
-0.070580749
-2.0644912
-0.086164438
-2.4601774
-0.10483772
-2.9299425
-0.12699911
-3.4890575
-0.15310898
-4.1562208
-0.18369363
-4.95429
-0.21938636
-5.9107873
-0.26083609
-7.0587731
-0.30871609
-8.437557
-0.36367785
-10.094615
-0.42623807
-12.087104
-0.49658914
-14.484842
-0.57441584
-17.372182
-0.65854092
-20.852327
-0.74617855
-25.049799
-0.83213258
-30.121437
-0.90786232
-36.256708
-0.95979201
-43.695059
-0.96613685
-52.735863
-0.89349469
-63.761188
-0.70269579
-77.201391
-93.674542
-3.2411065e-05
-0.007886624
-7.500584e-05
-0.011024538
-0.00011877666
-0.014471426
-0.00016201373
-0.018687992
-0.00020010962
-0.024005855
-0.00022331262
-0.030877278
-0.00040489153
-0.038206013
-0.00064806063
-0.046068504
-0.00094020151
-0.054939422
-0.0012891211
-0.066058128
-0.0017044048
-0.078959343
-0.0022033236
-0.094802409
-0.002794686
-0.11348016
-0.0035061353
-0.13616508
-0.004348707
-0.16313731
-0.0053606257
-0.19571759
-0.0065601725
-0.23463535
-0.0079965057
-0.2815181
-0.0097026766
-0.3376674
-0.011746177
-0.40520107
-0.014187138
-0.4861768
-0.017127905
-0.58341737
-0.020683965
-0.69993454
-0.025028712
-0.83946294
-0.030381366
-1.0061189
-0.037033674
-1.2047261
-0.045326217
-1.440735
-0.055631979
-1.7206033
-0.068322751
-2.052153
-0.083753706
-2.4451676
-0.10226858
-2.9119142
-0.12424346
-3.4676324
-0.15011848
-4.1309591
-0.18040597
-4.9246767
-0.21573509
-5.8762042
-0.25675857
-7.0185584
-0.30414952
-8.3910574
-0.3585562
-10.041193
-0.42052906
-12.0262
-0.49031824
-14.416168
-0.56766953
-17.295993
-0.6515241
-20.76966
-0.73927381
-24.963093
-0.82604311
-30.035279
-0.90369825
-36.178783
-0.95930179
-43.638318
-0.97195825
-52.720457
-0.91018885
-63.817857
-0.73479782
-77.369971
-94.043127
-2.1681989e-05
-0.0078511632
-5.9951826e-05
-0.010987231
-9.8399489e-05
-0.014434124
-0.0001343369
-0.018654264
-0.00016262729
-0.023980202
-0.00017874398
-0.030865103
-0.00035852102
-0.038030367
-0.00058955145
-0.045842788
-0.00086645432
-0.054668724
-0.0011982258
-0.065734046
-0.0015922826
-0.078574553
-0.0020669489
-0.094338975
-0.0026286308
-0.11293205
-0.0033054832
-0.13550454
-0.0041059795
-0.16235661
-0.0050679556
-0.1947794
-0.0062068151
-0.23352548
-0.0075716717
-0.28018844
-0.0091909922
-0.33609096
-0.011131655
-0.40331253
-0.013451503
-0.48392078
-0.016250906
-0.5806961
-0.019646424
-0.69663524
-0.023814949
-0.83541295
-0.028981155
-1.0010981
-0.035447389
-1.1984384
-0.043565044
-1.432834
-0.053712011
-1.710716
-0.066261482
-2.03992
-0.081558486
-2.4302534
-0.099930912
-2.8939912
-0.12173814
-3.4463408
-0.14740333
-4.1058773
-0.17743062
-4.8952985
-0.21243727
-5.8419218
-0.25308884
-6.9786981
-0.30004923
-8.3449719
-0.35398507
-9.9882237
-0.41547808
-11.965758
-0.48481469
-14.347931
-0.56183881
-17.220105
-0.64559073
-20.6871
-0.73365919
-24.876074
-0.82145076
-29.948043
-0.9012875
-36.098621
-0.96086809
-43.577535
-0.98018774
-52.698275
-0.93194642
-63.860827
-0.77054024
-77.524772
-94.384935
-1.4280776e-05
-0.0078190671
-4.9095043e-05
-0.010954147
-8.3050335e-05
-0.014402112
-0.00011248222
-0.01862757
-0.00013087009
-0.023964819
-0.00014200996
-0.030857973
-0.00031366043
-0.037862907
-0.00053350201
-0.045628025
-0.00079653011
-0.05441171
-0.0011125838
-0.065425376
-0.0014871101
-0.078208852
-0.0019392877
-0.093897482
-0.0024731966
-0.11241108
-0.0031173019
-0.13487606
-0.0038778678
-0.16161498
-0.004792328
-0.19388778
-0.0058746626
-0.2324708
-0.0071709104
-0.2789257
-0.0087081538
-0.33459487
-0.010550728
-0.40152026
-0.01275652
-0.48177673
-0.015423804
-0.57810461
-0.018671322
-0.69348116
-0.022679423
-0.83151992
-0.027681423
-0.99623715
-0.033987852
-1.1923045
-0.041958005
-1.4250714
-0.0519749
-1.7009469
-0.064407361
-2.0277891
-0.079591151
-2.4154341
-0.097840517
-2.8761707
-0.11950024
-3.4251755
-0.14498074
-4.080959
-0.17477628
-4.8661325
-0.20950745
-5.8078959
-0.24983451
-6.9391459
-0.29643791
-8.299227
-0.34998941
-9.9356214
-0.41109957
-11.90568
-0.48011629
-14.279995
-0.55694887
-17.144389
-0.64077497
-20.604423
-0.72936075
-24.78848
-0.81842044
-29.859466
-0.90071378
-36.015951
-0.96457391
-43.512417
-0.99092994
-52.668944
-0.95498846
-63.891323
-0.80948568
-77.663644
-94.699673
-5.3686314e-06
-0.0077889215
-3.6568087e-05
-0.010924218
-6.5780915e-05
-0.014374387
-8.9020596e-05
-0.018606606
-9.7723957e-05
-0.023958792
-0.00010736016
-0.030852082
-0.00027206203
-0.03770201
-0.00048231538
-0.045422662
-0.00073269945
-0.054167003
-0.0010342378
-0.065130879
-0.0013904669
-0.077861084
-0.0018213221
-0.093476897
-0.0023286745
-0.11191616
-0.0029413554
-0.13427836
-0.0036636041
-0.16091094
-0.0045327095
-0.19304055
-0.0055588656
-0.23147127
-0.006787109
-0.27772974
-0.0082449081
-0.33317641
-0.0099944464
-0.39981853
-0.012093182
-0.4797364
-0.014640989
-0.5756281
-0.017756182
-0.69045328
-0.021621344
-0.82776151
-0.026480078
-0.99150823
-0.032653562
-1.1862885
-0.04050669
-1.4174059
-0.050422845
-1.6912541
-0.062765375
-2.0157201
-0.077858521
-2.4006744
-0.096005649
-2.8584204
-0.11753965
-3.4041046
-0.14286203
-4.0561696
-0.17246119
-4.8371366
-0.20695946
-5.7740787
-0.24702461
-6.8998348
-0.29333786
-8.2537518
-0.34659114
-9.8832962
-0.4074181
-11.845863
-0.47623979
-14.212231
-0.55304079
-17.068675
-0.63711174
-20.521464
-0.72643148
-24.700097
-0.81699735
-29.769309
-0.90202777
-35.930489
-0.97049371
-43.442643
-1.0042155
-52.632141
-0.98029492
-63.909653
-0.85199922
-77.785217
-94.987083
3.1382007e-06
-0.0077621034
-2.3335775e-05
-0.01089879
-4.6821454e-05
-0.014352163
-6.2983529e-05
-0.01859266
-5.9928947e-05
-0.023964382
-6.8788306e-05
-0.030846791
-0.00022971189
-0.037544716
-0.00042973512
-0.045227286
-0.00066757456
-0.053934648
-0.00095500283
-0.064850256
-0.0012933218
-0.077530928
-0.0017033767
-0.093076725
-0.0021848033
-0.11144676
-0.0027671039
-0.13371051
-0.0034528317
-0.16024283
-0.0042768794
-0.19223755
-0.0052463373
-0.23052741
-0.0064074156
-0.2765996
-0.007789147
-0.33183268
-0.0094507752
-0.39820326
-0.011450117
-0.47779387
-0.0138884
-0.5732593
-0.016887877
-0.6875391
-0.02062947
-0.82412418
-0.025368336
-0.98689615
-0.03143614
-1.1803741
-0.039203183
-1.4098204
-0.049049127
-1.6816225
-0.061329906
-2.0037011
-0.076357227
-2.3859653
-0.094424098
-2.8407324
-0.11585649
-3.3831157
-0.14104844
-4.0314902
-0.1704862
-4.8082821
-0.20479324
-5.7404326
-0.24465596
-6.8607075
-0.29075197
-8.2084745
-0.34378978
-9.8311658
-0.40445133
-11.786189
-0.47320289
-14.144512
-0.55012556
-16.992811
-0.63463221
-20.438023
-0.72490221
-24.610699
-0.8172346
-29.677312
-0.90530328
-35.841926
-0.97869524
-43.367895
-1.020193
-52.587459
-1.0083779
-63.915761
-0.8981059
-77.888732
-95.246648
1.0878612e-05
-0.0077370762
-1.2303554e-05
-0.010876293
-3.1457251e-05
-0.014333942
-4.197328e-05
-0.018584015
-2.8798023e-05
-0.023979827
-4.0333585e-05
-0.030838632
-0.00019758753
-0.037390774
-0.0003891023
-0.045040296
-0.00061519189
-0.053713728
-0.00088903228
-0.064583024
-0.0012097045
-0.077218073
-0.0015993736
-0.092696708
-0.0020557195
-0.11100196
-0.0026092055
-0.13317107
-0.0032589618
-0.15960996
-0.0040379734
-0.19147883
-0.004955185
-0.22963484
-0.0060568886
-0.27552782
-0.0073676722
-0.33055846
-0.0089474678
-0.39666782
-0.01085337
-0.47594207
-0.013186676
-0.57099175
-0.016077807
-0.6847283
-0.019717933
-0.8205814
-0.024362223
-0.98236959
-0.030353067
-1.1745245
-0.038064968
-1.4022744
-0.047871933
-1.6720103
-0.060118947
-1.9916932
-0.075105888
-2.3712708
-0.0931171
-2.8230727
-0.11447259
-3.3621758
-0.13956367
-4.0068844
-0.16887704
-4.7795262
-0.20304241
-5.7069034
-0.24275907
-6.821704
-0.28871374
-8.1633162
-0.34163403
-9.7791295
-0.40223223
-11.726553
-0.47105355
-14.076698
-0.54825385
-16.916637
-0.63338672
-20.353911
-0.72482882
-24.520065
-0.81920148
-29.583206
-0.91061387
-35.749977
-0.98926834
-43.287827
-1.0388908
-52.534532
-1.0395743
-63.909305
-0.94799227
-77.973528
-95.477906
1.7213726e-05
-0.0077148462
-2.7188578e-06
-0.010857445
-1.7598734e-05
-0.014320563
-2.17849e-05
-0.01858158
1.9643533e-06
-0.024006163
-1.3578904e-05
-0.030825958
-0.00016553221
-0.037242289
-0.0003465766
-0.044863403
-0.00056005731
-0.053505341
-0.00081950206
-0.064329812
-0.0011228109
-0.076922322
-0.0014927709
-0.092335914
-0.0019253836
-0.1105805
-0.0024507986
-0.13265906
-0.003065182
-0.15901182
-0.0038027683
-0.19076066
-0.0046739102
-0.22878745
-0.0057207017
-0.27451
-0.0069665726
-0.32934813
-0.0084697904
-0.39520788
-0.010289637
-0.47417499
-0.012526919
-0.5688189
-0.01531856
-0.68201528
-0.018871416
-0.81712415
-0.023448495
-0.97790783
-0.029391368
-1.16872
-0.037079736
-1.3947473
-0.046879438
-1.6623993
-0.059121479
-1.9796819
-0.074093837
-2.3565793
-0.092074448
-2.8054291
-0.11338026
-3.3412689
-0.13840161
-3.9823298
-0.1676285
-4.7508375
-0.20170188
-5.673446
-0.24133549
-6.7827642
-0.28722799
-8.1181993
-0.34011639
-9.7271029
-0.40077476
-11.666833
-0.46979645
-14.008656
-0.54744562
-16.839982
-0.63339811
-20.268932
-0.7262484
-24.427953
-0.82294278
-29.486705
-0.91802727
-35.654351
-1.002288
-43.202094
-1.0604878
-52.472852
-1.0740819
-63.889965
-1.0018383
-78.038977
-95.680268
2.4660858e-05
-0.0076957644
8.7394329e-06
-0.010842652
-7.0134325e-07
-0.014312791
1.7446314e-06
-0.01858595
3.6260568e-05
-0.024043332
1.5494519e-05
-0.030808158
-0.00012848659
-0.037101614
-0.0003008796
-0.044695032
-0.00050295939
-0.053308151
-0.00075014331
-0.064088579
-0.0010379379
-0.076641764
-0.0013902695
-0.091992363
-0.0018011996
-0.1101802
-0.0022992019
-0.13217389
-0.0028800626
-0.15844646
-0.0035803673
-0.19007908
-0.0044071015
-0.22798368
-0.0054003675
-0.27354475
-0.0065846856
-0.32819809
-0.0080178588
-0.39381626
-0.0097594151
-0.47248389
-0.011913565
-0.566726
-0.014621016
-0.67938212
-0.01810175
-0.81373303
-0.022633914
-0.97348312
-0.028560524
-1.1629217
-0.036257531
-1.3871983
-0.046079953
-1.65275
-0.058346326
-1.9676281
-0.07333069
-2.3418547
-0.09130433
-2.7877694
-0.11258517
-3.3203627
-0.13756983
-3.9577873
-0.16675142
-4.7221698
-0.20078352
-5.6400057
-0.24040583
-6.7438131
-0.28631159
-8.0730456
-0.33927222
-9.6749794
-0.4001019
-11.606914
-0.46947294
-13.940237
-0.54773899
-16.762674
-0.63471975
-20.182875
-0.72921318
-24.334129
-0.82849583
-29.387534
-0.92757608
-35.554705
-1.01786
-43.110284
-1.08501
-52.401961
-1.112114
-63.857248
-1.0597632
-78.08455
-95.853028
3.0627942e-05
-0.0076784375
1.7600486e-05
-0.010830691
1.2659151e-05
-0.014309431
2.0823759e-05
-0.018595903
6.3866642e-05
-0.024088973
3.6906524e-05
-0.030784046
-9.8904625e-05
-0.036969079
-0.00026375494
-0.044534086
-0.00045590767
-0.053120738
-0.00069187573
-0.06385839
-0.00096533884
-0.076375276
-0.0013011063
-0.091665027
-0.0016911943
-0.10980035
-0.0021634726
-0.1317139
-0.0027136341
-0.15791126
-0.0033776986
-0.18943294
-0.0041613906
-0.22722216
-0.0051045804
-0.27262869
-0.0062319738
-0.32710404
-0.0075995394
-0.39248921
-0.00927059
-0.47086226
-0.011352713
-0.56470396
-0.01399306
-0.67681495
-0.01741855
-0.81039574
-0.021929272
-0.96907824
-0.027872829
-1.1571038
-0.035608874
-1.3796068
-0.045485603
-1.6430411
-0.057803256
-1.9555159
-0.072823808
-2.327084
-0.090813183
-2.7700815
-0.11209837
-3.2994374
-0.13708146
-3.9332296
-0.16626173
-4.6934852
-0.20031088
-5.606529
-0.23998046
-6.7047952
-0.2859908
-8.0277661
-0.33912696
-9.6226572
-0.40025147
-11.546675
-0.47011781
-13.871292
-0.54917799
-16.684537
-0.63738945
-20.095536
-0.73378151
-24.238335
-0.83593994
-29.285412
-0.93935742
-35.450671
-1.0360793
-43.011962
-1.1127131
-52.321288
-1.1538611
-63.810666
-1.1220801
-78.109623
-95.995592
3.6983291e-05
-0.0076635498
2.7658457e-05
-0.01082233
2.7917142e-05
-0.014311229
4.2869574e-05
-0.018612601
9.4107297e-05
-0.024142786
6.0745047e-05
-0.030753382
-6.8112187e-05
-0.036843371
-0.00022552328
-0.04438049
-0.00040810742
-0.052942737
-0.00063344012
-0.063638648
-0.0008933079
-0.076122155
-0.001213231
-0.091353269
-0.001581908
-0.10944153
-0.0020291353
-0.13127856
-0.0025507425
-0.15740404
-0.0031801882
-0.18882094
-0.0039236837
-0.22650017
-0.0048201264
-0.27175847
-0.0058954145
-0.3260609
-0.0072031667
-0.39122039
-0.008808708
-0.46930413
-0.01082708
-0.56274277
-0.013419479
-0.67429197
-0.016816896
-0.80708102
-0.021332731
-0.96466141
-0.027320416
-1.1512324
-0.03512773
-1.3719328
-0.045084431
-1.6332389
-0.057477934
-1.9433124
-0.072558815
-2.3122353
-0.090596345
-2.7523258
-0.11192235
-3.2784503
-0.13694135
-3.9086139
-0.16616516
-4.6647348
-0.20028517
-5.5729586
-0.24007568
-6.6656342
-0.28627493
-7.982274
-0.33968721
-9.5700337
-0.4012364
-11.485983
-0.47175029
-13.80167
-0.55178499
-16.605385
-0.64145409
-20.006685
-0.74000183
-24.140316
-0.84534831
-29.180038
-0.95346169
-35.3419
-1.0570498
-42.906693
-1.1450987
-52.228996
-1.1995295
-63.750899
-1.1888247
-78.113785
-96.107218
4.2275311e-05
-0.0076504661
3.5875379e-05
-0.010816987
4.0820488e-05
-0.014317746
6.2238029e-05
-0.018635739
0.00011949664
-0.024202577
7.7746204e-05
-0.030714269
-4.5625498e-05
-0.036723055
-0.00019643943
-0.04423338
-0.00036998934
-0.052773622
-0.0005849915
-0.063429069
-0.00083128127
-0.075882383
-0.0011353105
-0.091057127
-0.0014835607
-0.10910286
-0.0019069453
-0.13086668
-0.0024012344
-0.1569238
-0.0029984006
-0.18824063
-0.0037046717
-0.22581472
-0.0045582951
-0.27093031
-0.0055829793
-0.32506743
-0.0068349413
-0.39000654
-0.0083824156
-0.467803
-0.010348571
-0.56083311
-0.012909518
-0.67179928
-0.016307331
-0.80376526
-0.02085705
-0.96020914
-0.026917556
-1.1452866
-0.034824463
-1.3641561
-0.044885378
-1.6233289
-0.057378623
-1.9310041
-0.072551723
-2.2972867
-0.090672128
-2.7344771
-0.11207265
-3.2573761
-0.1371666
-3.8839087
-0.16648182
-4.6358765
-0.20073041
-5.5392414
-0.24071906
-6.6262562
-0.28718769
-7.9364914
-0.34099114
-9.5169952
-0.40309067
-11.424714
-0.47441072
-13.731209
-0.55561284
-16.525027
-0.64696666
-19.916093
-0.74793836
-24.039802
-0.8567999
-29.071093
-0.96998005
-35.228031
-1.0808489
-42.794059
-1.1800269
-52.125432
-1.2491726
-63.676451
-1.2603167
-78.096182
-96.187699
4.7708099e-05
-0.0076394642
4.4343242e-05
-0.010814672
5.4324707e-05
-0.014329274
8.3137552e-05
-0.01866628
0.00014488796
-0.024266791
9.4203236e-05
-0.030666143
-2.3029888e-05
-0.03660877
-0.00016685361
-0.044093163
-0.00033095056
-0.052613802
-0.00053537801
-0.063229888
-0.00076820732
-0.075655865
-0.0010557281
-0.090777271
-0.0013847643
-0.10878309
-0.0017869305
-0.13047573
-0.0022558283
-0.15646851
-0.0028230767
-0.18768983
-0.0034948366
-0.22516321
-0.0043073385
-0.27014245
-0.0052839249
-0.324121
-0.0064843056
-0.38884285
-0.007987878
-0.46634389
-0.0099191551
-0.55895569
-0.012463684
-0.66931935
-0.015883059
-0.80042294
-0.020494977
-0.95568828
-0.026655669
-1.1392327
-0.034689352
-1.3562424
-0.044884191
-1.6132736
-0.057509778
-1.9185505
-0.072804225
-2.2822018
-0.091035349
-2.7165009
-0.11254207
-3.2361776
-0.13775138
-3.8590688
-0.16720733
-4.6068569
-0.20165041
-5.5053085
-0.24191085
-6.5865854
-0.28875036
-7.890315
-0.34304155
-9.4634431
-0.40583879
-11.362718
-0.47813006
-13.659745
-0.56069579
-16.443263
-0.65396173
-19.823532
-0.75764256
-23.93651
-0.87034889
-28.958256
-0.98897832
-35.108714
-1.1075686
-42.673628
-1.218092
-52.010421
-1.3028464
-63.586426
-1.3365788
-78.056169
-96.236209
5.3438155e-05
-0.0076310281
5.3443739e-05
-0.0108157
6.8741267e-05
-0.014346047
0.00010610019
-0.018705296
0.00017092131
-0.024334025
0.00011074703
-0.030608448
-2.3964659e-07
-0.036500593
-0.00013696017
-0.043959914
-0.00029174283
-0.052463173
-0.00048599261
-0.063040761
-0.00070622585
-0.075441767
-0.00097886168
-0.090512082
-0.0012904249
-0.10848058
-0.0016728821
-0.13010415
-0.0021187227
-0.15603598
-0.0026583674
-0.18716609
-0.0032989016
-0.22454235
-0.0040718522
-0.26939342
-0.0050062594
-0.32321601
-0.0061665561
-0.3877184
-0.0076361615
-0.464918
-0.009547893
-0.55709709
-0.012094467
-0.66683674
-0.01555533
-0.79703847
-0.020259351
-0.95107459
-0.026546568
-1.1330503
-0.034731508
-1.3481751
-0.045094382
-1.6030469
-0.057881488
-1.9059308
-0.073322454
-2.2669636
-0.091690777
-2.6983786
-0.11333824
-3.2148274
-0.13870494
-3.8340584
-0.16835382
-4.5776291
-0.2030548
-5.4711004
-0.24366932
-6.5465431
-0.29097209
-7.8436549
-0.34587986
-9.4092504
-0.40950626
-11.299865
-0.48293883
-13.587106
-0.56707392
-16.359887
-0.66249816
-19.728753
-0.7691729
-23.830156
-0.88606561
-28.841186
-1.0105297
-34.983558
-1.1373134
-42.544929
-1.2596297
-51.883557
-1.3607749
-63.48009
-1.4178137
-77.993026
-96.251782
5.8196044e-05
-0.0076244431
6.1024209e-05
-0.010819516
8.0986986e-05
-0.014367494
0.00012711962
-0.018753133
0.00019269051
-0.024401909
0.00012475739
-0.030542753
1.9880814e-05
-0.036398547
-0.00011011187
-0.043833352
-0.00025642789
-0.052320922
-0.00044173433
-0.06286046
-0.00065001338
-0.075239461
-0.00090996898
-0.090259379
-0.0012066847
-0.10819264
-0.0015708481
-0.12975059
-0.0019951604
-0.15562457
-0.0025093315
-0.18666745
-0.0031202776
-0.22395051
-0.0038585227
-0.26867838
-0.0047584143
-0.32234453
-0.0058868825
-0.38662449
-0.0073322593
-0.46351447
-0.0092365714
-0.55524343
-0.011808642
-0.66432497
-0.015335389
-0.79358344
-0.020157115
-0.94633718
-0.02660136
-1.1267031
-0.034968819
-1.3399164
-0.045525976
-1.5926158
-0.058497088
-1.8931157
-0.07410973
-2.2515408
-0.092645213
-2.6800747
-0.11446895
-3.1932852
-0.14003754
-3.8088289
-0.16993417
-4.5481348
-0.20496559
-5.4365422
-0.24601406
-6.506048
-0.29388557
-7.7964036
-0.34952673
-9.354299
-0.41412923
-11.236006
-0.48888278
-13.513113
-0.5747933
-16.274692
-0.67263469
-19.631497
-0.78260166
-23.720445
-0.90401081
-28.719562
-1.0347238
-34.852099
-1.1702031
-42.407414
-1.3048401
-51.744374
-1.4230839
-63.356761
-1.5042265
-77.906055
-96.233633
6.2991798e-05
-0.0076200118
6.8613219e-05
-0.010826179
9.3116242e-05
-0.014393452
0.00014888066
-0.018810557
0.00021277963
-0.024468055
0.00014518444
-0.030477515
4.5289433e-05
-0.036301396
-7.9380354e-05
-0.043712043
-0.00021881755
-0.052185421
-0.00039673015
-0.062687426
-0.00059469711
-0.075047269
-0.0008426087
-0.090018529
-0.0011252854
-0.10791852
-0.0014724147
-0.12941382
-0.0018772198
-0.15523232
-0.0023681611
-0.18619158
-0.0029504657
-0.22338677
-0.0036586245
-0.26799276
-0.0045315344
-0.32149939
-0.0056352152
-0.3855546
-0.007064889
-0.46212612
-0.0089762601
-0.55338202
-0.011596165
-0.66176509
-0.015221448
-0.79002927
-0.020185647
-0.94145698
-0.02681631
-1.1201687
-0.035399021
-1.3314402
-0.046172714
-1.5819657
-0.059351176
-1.8800897
-0.075160115
-2.2359162
-0.093892789
-2.6615662
-0.11593067
-3.1715195
-0.14174726
-3.7833398
-0.17195016
-4.51832
-0.20737631
-5.4015741
-0.24895793
-6.465004
-0.29750307
-7.7484582
-0.35399699
-9.2984714
-0.41972725
-11.17099
-0.49598441
-13.437582
-0.58389978
-16.18745
-0.68441437
-19.531507
-0.79799005
-23.607064
-0.92429324
-28.593023
-1.0616864
-34.713895
-1.2063517
-42.260495
-1.3539117
-51.592374
-1.4899633
-63.215791
-1.5960572
-77.794409
-96.180701
6.5735983e-05
-0.0076159594
7.2553494e-05
-0.010834083
9.9888061e-05
-0.014422238
0.00016422825
-0.018876741
0.00022266227
-0.024528668
0.0001570466
-0.030414271
6.0748802e-05
-0.036207721
-5.9518516e-05
-0.043594957
-0.00019234407
-0.052056359
-0.0003628209
-0.062521617
-0.00055138238
-0.074864355
-0.000788298
-0.089788403
-0.0010578024
-0.1076574
-0.001389004
-0.12909261
-0.0017756419
-0.15485793
-0.0022448254
-0.18573711
-0.0028024933
-0.2228472
-0.0034853054
-0.26733185
-0.0043360052
-0.32067554
-0.0054220153
-0.38450114
-0.0068460558
-0.4607416
-0.0087814882
-0.55149401
-0.011472577
-0.65913043
-0.015225662
-0.78634264
-0.020365857
-0.93639521
-0.027213088
-1.1134108
-0.036036653
-1.3227149
-0.0470482
-1.571069
-0.060454567
-1.8668261
-0.07648614
-2.2200581
-0.095448041
-2.6428162
-0.11773928
-3.1494869
-0.14385169
-3.7575397
-0.17442118
-4.4881222
-0.21032382
-5.3661135
-0.25252317
-6.4233228
-0.30185034
-7.6997091
-0.35933526
-9.2416272
-0.42634858
-11.104662
-0.50429215
-13.360329
-0.59443911
-16.097933
-0.69789852
-19.428514
-0.8154112
-23.489689
-0.94700633
-28.461179
-1.0915465
-34.568518
-1.2458813
-42.103613
-1.4070187
-51.427017
-1.5616798
-63.056433
-1.6935335
-77.657168
-96.091963
7.0869307e-05
-0.0076148302
8.097252e-05
-0.010845352
0.00011303758
-0.014455885
0.00018882774
-0.018954303
0.0002419535
-0.024584105
0.00017370303
-0.030348311
8.2305359e-05
-0.036118909
-3.2941513e-05
-0.043483025
-0.00015907864
-0.051933886
-0.00032213099
-0.06236322
-0.00050143779
-0.074690495
-0.00072846071
-0.089568053
-0.0009858603
-0.10740814
-0.0013026644
-0.12878555
-0.0016732167
-0.15449934
-0.0021211921
-0.18530349
-0.002658135
-0.22232789
-0.0033216958
-0.2666897
-0.0041548621
-0.31986861
-0.0052295768
-0.38345844
-0.0066651525
-0.459345
-0.0086487599
-0.54955752
-0.011435284
-0.65639998
-0.015336588
-0.78250761
-0.020685527
-0.9311244
-0.027783412
-1.106401
-0.036867441
-1.3137275
-0.048136629