/*--------------------------------*- C++ -*----------------------------------*\
  =========                 |
  \\      /  F ield         | OpenFOAM: The Open Source CFD Toolbox
   \\    /   O peration     | Website:  https://openfoam.org
    \\  /    A nd           | Version:  8
     \\/     M anipulation  |
\*---------------------------------------------------------------------------*/
FoamFile
{
    version     2.0;
    format      ascii;
    class       pointVectorField;
    location    "0.159995";
    object      pointDisplacement;
}
// * * * * * * * * * * * * * * * * * * * * * * * * * * * * * * * * * * * * * //

dimensions      [0 1 0 0 0 0 0];

internalField   nonuniform List<vector> 
40800
(
(-0.0013098429 0 -0.0010676148)
(-0.0013075432 0 -0.00088435838)
(-0.0013073699 0 -0.00088536599)
(-0.0013096899 0 -0.0010725707)
(-0.0013073489 0 -0.00088546533)
(-0.0013096705 0 -0.0010727927)
(-0.0013073074 0 -0.00088563902)
(-0.0013096307 0 -0.0010730546)
(-0.0013072359 0 -0.00088586836)
(-0.0013095618 0 -0.001073388)
(-0.0013071219 0 -0.00088617209)
(-0.0013094515 0 -0.0010738144)
(-0.0013069479 0 -0.00088657631)
(-0.0013092827 0 -0.0010743636)
(-0.0013066899 0 -0.00088711732)
(-0.0013090319 0 -0.0010750765)
(-0.0013063155 0 -0.0008878458)
(-0.0013086672 0 -0.0010760087)
(-0.0013057803 0 -0.00088883293)
(-0.001308145 0 -0.0010772371)
(-0.001305025 0 -0.00089017875)
(-0.001307407 0 -0.0010788676)
(-0.0013039703 0 -0.00089202399)
(-0.0013063751 0 -0.0010810466)
(-0.0013025106 0 -0.00089456581)
(-0.0013049453 0 -0.0010839766)
(-0.0013005074 0 -0.00089807945)
(-0.0013029811 0 -0.0010879369)
(-0.0012977799 0 -0.00090294919)
(-0.0013003039 0 -0.0010933136)
(-0.0012940954 0 -0.00090970788)
(-0.0012966838 0 -0.0011006385)
(-0.0012891578 0 -0.00091908976)
(-0.0012918277 0 -0.0011106375)
(-0.0012825965 0 -0.00093210979)
(-0.0012853682 0 -0.0011243146)
(-0.0012739585 0 -0.00095014331)
(-0.0012768552 0 -0.0011430162)
(-0.0012627059 0 -0.00097502362)
(-0.0012657516 0 -0.00116853)
(-0.0012482234 0 -0.0010091536)
(-0.0012514401 0 -0.0012031996)
(-0.0012298387 0 -0.0010556048)
(-0.0012332416 0 -0.0012500084)
(-0.00120686 0 -0.0011181796)
(-0.0012104515 0 -0.0013126426)
(-0.0011786503 0 -0.001201326)
(-0.0011824121 0 -0.0013954061)
(-0.0011447 0 -0.00130996)
(-0.0011485829 0 -0.0015030618)
(-0.0011047544 0 -0.0014488647)
(-0.0011086755 0 -0.001640224)
(-0.001058858 0 -0.0016221164)
(-0.0010626942 0 -0.0018108374)
(-0.0010074582 0 -0.0018317561)
(-0.0010110652 0 -0.0020167641)
(-0.00095135969 0 -0.0020770353)
(-0.00095458356 0 -0.0022571432)
(-0.00089176393 0 -0.0023532621)
(-0.00089447214 0 -0.0025271879)
(-0.00083008425 0 -0.0026519955)
(-0.00083218974 0 -0.0028183965)
(-0.00076783713 0 -0.0029613941)
(-0.00076932255 0 -0.0031188604)
(-0.00070648631 0 -0.0032679841)
(-0.00070739643 0 -0.0034151911)
(-0.00064731053 0 -0.0035581758)
(-0.00064774354 0 -0.0036939578)
(-0.00059129829 0 -0.0038199296)
(-0.00059136596 0 -0.0039435005)
(-0.00053912315 0 -0.0040441054)
(-0.00053894765 0 -0.0041550476)
(-0.00049122491 0 -0.0042240284)
(-0.00049091341 0 -0.0043223367)
(-0.00044756171 0 -0.0043575188)
(-0.00044718679 0 -0.0044436821)
(-0.00040810912 0 -0.0044440033)
(-0.00040773194 0 -0.0045188122)
(-0.00037272811 0 -0.0044840425)
(-0.00037240601 0 -0.0045484286)
(-0.0003408989 0 -0.0044768708)
(-0.00034063759 0 -0.0045316601)
(-0.00031240339 0 -0.0044233962)
(-0.00031227665 0 -0.0044697877)
(-0.00028581357 0 -0.004317885)
(-0.00028571012 0 -0.00435622)
(-0.00026039997 0 -0.0041576399)
(-0.000260359 0 -0.0041891192)
(-0.00023596562 0 -0.0039335258)
(-0.00023595266 0 -0.0039581599)
(-0.00021144378 0 -0.0036394721)
(-0.00021150537 0 -0.0036585609)
(-0.0001868923 0 -0.0032799616)
(-0.00018714158 0 -0.0032960701)
(-0.00015649143 0 -0.002788031)
(-0.00015667733 0 -0.0027992405)
(-0.0001186542 0 -0.002130839)
(-0.00011883818 0 -0.0021384755)
(-7.1291715e-05 0 -0.0012831733)
(-7.16868e-05 0 -0.0012921438)
(0 0 0)
(0 0 0)
(-0.001304589 0 -0.0007050547)
(-0.0013044189 0 -0.0007060157)
(-0.0013043962 0 -0.00070601906)
(-0.0013043518 0 -0.00070603526)
(-0.0013042765 0 -0.00070607517)
(-0.0013041574 0 -0.00070615325)
(-0.0013039767 0 -0.00070629037)
(-0.00130371 0 -0.00070651725)
(-0.0013033241 0 -0.00070687804)
(-0.0013027739 0 -0.00070743684)
(-0.0013019991 0 -0.00070828486)
(-0.001300919 0 -0.00070955264)
(-0.0012994265 0 -0.00071142548)
(-0.0012973812 0 -0.0007141661)
(-0.0012945999 0 -0.00071814626)
(-0.0012908473 0 -0.00072388729)
(-0.0012858247 0 -0.00073211756)
(-0.0012791585 0 -0.00074384794)
(-0.0012703933 0 -0.00076046069)
(-0.0012589904 0 -0.00078381218)
(-0.0012443364 0 -0.0008163476)
(-0.0012257648 0 -0.00086121112)
(-0.0012025975 0 -0.00092230723)
(-0.0011742165 0 -0.0010042294)
(-0.0011401438 0 -0.00111205)
(-0.0011001564 0 -0.0012507518)
(-0.0010543393 0 -0.0014245832)
(-0.0010031616 0 -0.0016358421)
(-0.00094744011 0 -0.0018839783)
(-0.00088835913 0 -0.002164475)
(-0.00082728575 0 -0.002469052)
(-0.00076567527 0 -0.0027859812)
(-0.00070492619 0 -0.0031017833)
(-0.00064627057 0 -0.003402699)
(-0.00059067073 0 -0.0036763889)
(-0.00053879688 0 -0.0039132668)
(-0.00049108591 0 -0.0041062955)
(-0.00044753749 0 -0.0042527186)
(-0.00040813178 0 -0.0043515928)
(-0.00037273406 0 -0.004403239)
(-0.00034086484 0 -0.0044069148)
(-0.00031226891 0 -0.0043632258)
(-0.00028563445 0 -0.00426693)
(-0.00026020964 0 -0.0041150393)
(-0.00023572199 0 -0.0038987371)
(-0.00021116552 0 -0.0036117852)
(-0.0001863928 0 -0.0032561019)
(-0.00015602638 0 -0.0027696615)
(-0.00011824956 0 -0.0021177318)
(-7.0677332e-05 0 -0.0012697173)
(0 0 0)
(-0.0013009951 0 -0.00052962164)
(-0.0013008287 0 -0.00053050602)
(-0.0013008028 0 -0.00053038449)
(-0.0013007541 0 -0.00053025171)
(-0.0013006733 0 -0.00053011518)
(-0.0013005474 0 -0.00052998428)
(-0.0013003579 0 -0.00052987417)
(-0.00130008 0 -0.00052980826)
(-0.0012996797 0 -0.00052982266)
(-0.0012991111 0 -0.00052997195)
(-0.0012983127 0 -0.00053033727)
(-0.0012972022 0 -0.00053103836)
(-0.0012956708 0 -0.00053224943)
(-0.001293576 0 -0.00053422217)
(-0.0012907322 0 -0.00053731761)
(-0.0012869011 0 -0.000542048)
(-0.0012817808 0 -0.00054913559)
(-0.0012749948 0 -0.00055959021)
(-0.0012660852 0 -0.00057480253)
(-0.0012545127 0 -0.00059665267)
(-0.0012396661 0 -0.00062763169)
(-0.0012208861 0 -0.00067095871)
(-0.001197509 0 -0.00073064345)
(-0.0011689386 0 -0.00081141988)
(-0.0011347299 0 -0.00091851431)
(-0.0010946961 0 -0.0010570893)
(-0.0010489631 0 -0.001231553)
(-0.0009980245 0 -0.0014444258)
(-0.00094271045 0 -0.001695323)
(-0.00088418684 0 -0.0019798803)
(-0.00082377355 0 -0.0022899645)
(-0.00076286204 0 -0.0026139659)
(-0.00070278379 0 -0.0029384236)
(-0.00064472005 0 -0.0032494538)
(-0.00058960334 0 -0.0035344626)
(-0.00053809682 0 -0.0037834665)
(-0.00049063432 0 -0.003989085)
(-0.0004472522 0 -0.0041480273)
(-0.00040793796 0 -0.0042589771)
(-0.00037256277 0 -0.004322003)
(-0.00034068413 0 -0.004336354)
(-0.00031201824 0 -0.0043023601)
(-0.00028535564 0 -0.0042151845)
(-0.00025993149 0 -0.0040716021)
(-0.00023540734 0 -0.0038630736)
(-0.00021082443 0 -0.0035831807)
(-0.00018585812 0 -0.0032315752)
(-0.0001555233 0 -0.0027505964)
(-0.00011780958 0 -0.0021039584)
(-7.0069151e-05 0 -0.0012563172)
(0 0 0)
(-0.0012967828 0 -0.0003579787)
(-0.0012966196 0 -0.00035878974)
(-0.0012965895 0 -0.00035854865)
(-0.0012965356 0 -0.00035827375)
(-0.0012964482 0 -0.00035796709)
(-0.0012963136 0 -0.00035763265)
(-0.0012961133 0 -0.0003572793)
(-0.0012958215 0 -0.00035692379)
(-0.0012954036 0 -0.00035659471)
(-0.0012948126 0 -0.00035633803)
(-0.0012939858 0 -0.00035622547)
(-0.0012928393 0 -0.00035636625)
(-0.0012912626 0 -0.00035692354)
(-0.0012891105 0 -0.00035813754)
(-0.0012861948 0 -0.00036035841)
(-0.001282274 0 -0.00036408916)
(-0.0012770429 0 -0.00037004651)
(-0.0012701217 0 -0.00037924066)
(-0.0012610501 0 -0.00039307272)
(-0.001249288 0 -0.00041345003)
(-0.0012342273 0 -0.00044291414)
(-0.0012152167 0 -0.00048476249)
(-0.0011916083 0 -0.00054311298)
(-0.0011628304 0 -0.00062283617)
(-0.0011284729 0 -0.0007293083)
(-0.0010883887 0 -0.00086785285)
(-0.0010427458 0 -0.0010430241)
(-0.00099206477 0 -0.0012575279)
(-0.00093718938 0 -0.001511112)
(-0.00087926563 0 -0.0017995447)
(-0.00081956487 0 -0.002114826)
(-0.00075941227 0 -0.0024454676)
(-0.00070007074 0 -0.0027780483)
(-0.00064266708 0 -0.0030986022)
(-0.00058810111 0 -0.0033943226)
(-0.00053702538 0 -0.003654878)
(-0.00048987062 0 -0.0038725649)
(-0.00044670522 0 -0.0040435986)
(-0.00040752629 0 -0.0041662911)
(-0.0003722123 0 -0.0042404499)
(-0.00034035498 0 -0.0042652872)
(-0.00031164892 0 -0.0042408769)
(-0.00028497584 0 -0.0041627149)
(-0.00025956488 0 -0.0040273802)
(-0.00023502062 0 -0.0038265771)
(-0.00021042024 0 -0.0035536964)
(-0.00018528648 0 -0.0032063909)
(-0.00015498221 0 -0.002730854)
(-0.00011733513 0 -0.0020895447)
(-6.9465683e-05 0 -0.0012429554)
(0 0 0)
(-0.0012919723 0 -0.00019004669)
(-0.0012918104 0 -0.00019078368)
(-0.001291775 0 -0.00019042156)
(-0.0012917145 0 -0.00019000291)
(-0.0012916187 0 -0.00018952551)
(-0.0012914737 0 -0.00018898826)
(-0.0012912602 0 -0.00018839412)
(-0.0012909519 0 -0.00018775304)
(-0.0012905132 0 -0.00018708571)
(-0.001289896 0 -0.00018642941)
(-0.0012890362 0 -0.00018584615)
(-0.0012878483 0 -0.00018543465)
(-0.0012862194 0 -0.00018534701)
(-0.001284002 0 -0.00018581206)
(-0.0012810047 0 -0.00018716903)
(-0.0012769828 0 -0.00018991173)
(-0.0012716272 0 -0.00019475166)
(-0.0012645549 0 -0.00020270058)
(-0.001255303 0 -0.00021517329)
(-0.0012433311 0 -0.00023410847)
(-0.0012280346 0 -0.00026210273)
(-0.0012087714 0 -0.00030253621)
(-0.0011849108 0 -0.00035963795)
(-0.0011559081 0 -0.00043841227)
(-0.0011213902 0 -0.00054437933)
(-0.0010812532 0 -0.00068300632)
(-0.0010357082 0 -0.00085897699)
(-0.0009853044 0 -0.0010751467)
(-0.00093089952 0 -0.0013313636)
(-0.00087361772 0 -0.0016235094)
(-0.00081468012 0 -0.0019437036)
(-0.00075534356 0 -0.0022805801)
(-0.00069680086 0 -0.002620777)
(-0.00064012175 0 -0.0029502836)
(-0.00058617046 0 -0.0032561222)
(-0.00053558616 0 -0.0035276586)
(-0.00048879599 0 -0.0037568904)
(-0.00044589638 0 -0.0039395768)
(-0.0004068956 0 -0.0040736631)
(-0.00037168088 0 -0.0041586902)
(-0.00033987556 0 -0.0041938089)
(-0.00031115891 0 -0.004178853)
(-0.00028449368 0 -0.0041095853)
(-0.00025910897 0 -0.0039824244)
(-0.00023456057 0 -0.0037892874)
(-0.0002099525 0 -0.0035233686)
(-0.00018467603 0 -0.0031805569)
(-0.0001544029 0 -0.0027104494)
(-0.00011682672 0 -0.0020745102)
(-6.8865573e-05 0 -0.0012296142)
(0 0 0)
(-0.0012865786 0 -2.5748651e-05)
(-0.0012864182 0 -2.6411799e-05)
(-0.0012863765 0 -2.5928337e-05)
(-0.0012863081 0 -2.5365463e-05)
(-0.0012862025 0 -2.4716976e-05)
(-0.0012860452 0 -2.3976886e-05)
(-0.0012858163 0 -2.3142539e-05)
(-0.0012854888 0 -2.2217295e-05)
(-0.0012850261 0 -2.1214241e-05)
(-0.0012843788 0 -2.0162074e-05)
(-0.0012834813 0 -1.9113062e-05)
(-0.0012822461 0 -1.8155339e-05)
(-0.0012805582 0 -1.7429788e-05)
(-0.0012782672 0 -1.7153766e-05)
(-0.0012751784 0 -1.7655673e-05)
(-0.0012710433 0 -1.9420375e-05)
(-0.0012655492 0 -2.3154542e-05)
(-0.0012583094 0 -2.9873121e-05)
(-0.0012488585 0 -4.1007298e-05)
(-0.0012366563 0 -5.8532199e-05)
(-0.0012211021 0 -8.5105399e-05)
(-0.0012015643 0 -0.00012419445)
(-0.0011774313 0 -0.00018014233)
(-0.0011481875 0 -0.00025808445)
(-0.0011134992 0 -0.00036367714)
(-0.0010733086 0 -0.00050251513)
(-0.0010278711 0 -0.00067939307)
(-0.00097776603 0 -0.00089727907)
(-0.00092386427 0 -0.0011560928)
(-0.00086726623 0 -0.0014518103)
(-0.00080914081 0 -0.0017766569)
(-0.00075067463 0 -0.0021193884)
(-0.00069298929 0 -0.0024667195)
(-0.00063709523 0 -0.002804629)
(-0.00058381896 0 -0.0031200062)
(-0.0005337837 0 -0.0034019594)
(-0.00048741253 0 -0.0036422116)
(-0.00044482626 0 -0.0038361027)
(-0.00040604543 0 -0.0039812197)
(-0.00037096721 0 -0.0040768341)
(-0.0003392444 0 -0.0041220137)
(-0.0003105461 0 -0.0041163641)
(-0.00028390775 0 -0.0040558601)
(-0.00025856295 0 -0.0039367858)
(-0.00023402607 0 -0.0037512452)
(-0.00020942064 0 -0.0034922321)
(-0.00018402498 0 -0.0031540822)
(-0.00015378518 0 -0.0026893988)
(-0.00011628504 0 -0.0020588772)
(-6.8267604e-05 0 -0.0012162798)
(0 0 0)
(-0.0012806191 0 0.00013499047)
(-0.00128046 0 0.00013439976)
(-0.001280411 0 0.0001350024)
(-0.0012803335 0 0.00013570661)
(-0.0012802166 0 0.00013652323)
(-0.0012800453 0 0.00013746365)
(-0.0012797989 0 0.00013853656)
(-0.0012794495 0 0.00013974507)
(-0.0012789594 0 0.00014108349)
(-0.0012782781 0 0.00014253131)
(-0.001277338 0 0.00014404547)
(-0.0012760498 0 0.00014554787)
(-0.0012742957 0 0.0001469085)
(-0.0012719224 0 0.00014792129)
(-0.0012687317 0 0.00014826865)
(-0.0012644711 0 0.00014747464)
(-0.0012588238 0 0.00014483715)
(-0.0012513994 0 0.00013933682)
(-0.0012417304 0 0.00012952146)
(-0.0012292771 0 0.00011337294)
(-0.0012134435 0 8.8166934e-05)
(-0.0011936096 0 5.0344469e-05)
(-0.0011691847 0 -4.5544301e-06)
(-0.0011396846 0 -8.1793175e-05)
(-0.0011048177 0 -0.00018715488)
(-0.0010645748 0 -0.00032634596)
(-0.0010192566 0 -0.00050425127)
(-0.00096947348 0 -0.00072391706)
(-0.0009161084 0 -0.00098530647)
(-0.00086023577 0 -0.0012844717)
(-0.00080297001 0 -0.0016137318)
(-0.00074542585 0 -0.0019619612)
(-0.00068865275 0 -0.002315968)
(-0.00063360044 0 -0.0026617508)
(-0.00058105574 0 -0.0029861028)
(-0.00053162399 0 -0.0032779159)
(-0.00048572346 0 -0.0035286662)
(-0.00044349633 0 -0.003733308)
(-0.00040497597 0 -0.003889081)
(-0.00037007059 0 -0.0039949868)
(-0.00033846048 0 -0.0040499929)
(-0.00030980905 0 -0.0040534859)
(-0.00028321696 0 -0.004001603)
(-0.00025792612 0 -0.0038905159)
(-0.00023341611 0 -0.0037124912)
(-0.00020882419 0 -0.0034603225)
(-0.00018333169 0 -0.0031269777)
(-0.0001531288 0 -0.0026677181)
(-0.00011571056 0 -0.0020426653)
(-6.7670625e-05 0 -0.001202938)
(0 0 0)
(-0.0012741123 0 0.00029224509)
(-0.0012739539 0 0.00029172761)
(-0.0012738964 0 0.00029245141)
(-0.0012738084 0 0.00029329949)
(-0.0012736785 0 0.00029428668)
(-0.0012734912 0 0.00029542894)
(-0.0012732249 0 0.00029674057)
(-0.0012728508 0 0.00029823117)
(-0.00127233 0 0.00029990254)
(-0.0012716104 0 0.00030174259)
(-0.0012706228 0 0.00030371767)
(-0.0012692754 0 0.00030576011)
(-0.0012674479 0 0.00030775093)
(-0.0012649834 0 0.00030949545)
(-0.0012616799 0 0.00031068706)
(-0.0012572808 0 0.00031085878)
(-0.0012514649 0 0.00030931251)
(-0.0012438382 0 0.00030502269)
(-0.0012339314 0 0.00029650948)
(-0.0012212059 0 0.00028170183)
(-0.0012050714 0 0.00025780287)
(-0.0011849204 0 0.00022116064)
(-0.0011601852 0 0.00016719436)
(-0.0011304153 0 9.0516898e-05)
(-0.0010953633 0 -1.4769502e-05)
(-0.0010550717 0 -0.00015446847)
(-0.0010098869 0 -0.00033353283)
(-0.00096045119 0 -0.00055505322)
(-0.00090765746 0 -0.00081901023)
(-0.0008525518 0 -0.0011215152)
(-0.0007961917 0 -0.0014549684)
(-0.00073961853 0 -0.00180836)
(-0.00068380905 0 -0.002168606)
(-0.00062965125 0 -0.002521753)
(-0.0005778909 0 -0.0028545319)
(-0.0005291138 0 -0.0031556572)
(-0.00048373289 0 -0.0034163858)
(-0.00044190881 0 -0.0036313198)
(-0.00040368806 0 -0.0037973642)
(-0.00036899077 0 -0.0039132524)
(-0.0003375231 0 -0.0039778371)
(-0.00030894637 0 -0.003990293)
(-0.00028242023 0 -0.0039468776)
(-0.00025719781 0 -0.0038436661)
(-0.00023272979 0 -0.0036730671)
(-0.0002081626 0 -0.0034276747)
(-0.00018259463 0 -0.0030992555)
(-0.00015243348 0 -0.0026454229)
(-0.00011510385 0 -0.0020258948)
(-6.7073617e-05 0 -0.0011895778)
(0 0 0)
(-0.0012670763 0 0.00044608744)
(-0.001266917 0 0.00044564248)
(-0.0012668499 0 0.00044648705)
(-0.00126675 0 0.00044747871)
(-0.0012666054 0 0.00044863627)
(-0.0012663999 0 0.00044998033)
(-0.0012661112 0 0.00045153047)
(-0.0012657094 0 0.00045330267)
(-0.0012651544 0 0.00045530603)
(-0.0012643923 0 0.00045753682)
(-0.001263352 0 0.00045997083)
(-0.0012619392 0 0.00046255088)
(-0.0012600305 0 0.00046516934)
(-0.0012574654 0 0.00046764314)
(-0.0012540379 0 0.00046967711)
(-0.0012494865 0 0.00047081354)
(-0.0012434856 0 0.00047035899)
(-0.0012356378 0 0.00046728084)
(-0.001225473 0 0.0004600575)
(-0.0012124547 0 0.00044654992)
(-0.0011959983 0 0.00042388804)
(-0.0011755101 0 0.00038833018)
(-0.0011504473 0 0.00033516802)
(-0.0011203957 0 0.00025889648)
(-0.0010851546 0 0.00015351856)
(-0.0010448203 0 1.3145607e-05)
(-0.00099978582 0 -0.00016721891)
(-0.0009507249 0 -0.00039067759)
(-0.00089853839 0 -0.0006572041)
(-0.00084424121 0 -0.00096295359)
(-0.00078883133 0 -0.0013003958)
(-0.00073327543 0 -0.0016586329)
(-0.00067847739 0 -0.0020247024)
(-0.000625263 0 -0.0023847242)
(-0.00057433592 0 -0.0027253982)
(-0.00052626128 0 -0.0030352986)
(-0.000481446 0 -0.0033054907)
(-0.00044006677 0 -0.0035302566)
(-0.0004021832 0 -0.0037061801)
(-0.00036772811 0 -0.0038317301)
(-0.00033643201 0 -0.0039056338)
(-0.00030795727 0 -0.0039268593)
(-0.00028151683 0 -0.0038917464)
(-0.00025637751 0 -0.0037962878)
(-0.00023196631 0 -0.003633014)
(-0.00020743545 0 -0.003394324)
(-0.0001818124 0 -0.0030709293)
(-0.00015169894 0 -0.0026225293)
(-0.0001144653 0 -0.002008585)
(-6.6475602e-05 0 -0.0011761881)
(0 0 0)
(-0.0012595255 0 0.000596588)
(-0.0012593648 0 0.00059621517)
(-0.0012592869 0 0.00059718035)
(-0.0012591737 0 0.00059831535)
(-0.0012590129 0 0.00059964278)
(-0.0012587873 0 0.00060118785)
(-0.0012584738 0 0.0006029754)
(-0.0012580415 0 0.00060502774)
(-0.0012574486 0 0.00060736133)
(-0.0012566397 0 0.00060998104)
(-0.0012555413 0 0.00061287228)
(-0.0012540565 0 0.00061598861)
(-0.0012520585 0 0.0006192339)
(-0.001249383 0 0.00062243707)
(-0.0012458193 0 0.00062531465)
(-0.0012411009 0 0.00062741922)
(-0.0012348975 0 0.00062806406)
(-0.0012268082 0 0.00062621584)
(-0.001216365 0 0.00062027779)
(-0.0012030345 0 0.00060801615)
(-0.0011862362 0 0.00058650636)
(-0.0011653911 0 0.00055192704)
(-0.0011399854 0 0.00049942712)
(-0.0011096421 0 0.00042339103)
(-0.0010742101 0 0.00031774492)
(-0.001033842 0 0.00017652219)
(-0.00098897725 0 -5.2913913e-06)
(-0.00094032095 0 -0.00023077938)
(-0.00088877878 0 -0.00049988601)
(-0.00083533156 0 -0.00080879595)
(-0.00078091502 0 -0.0011500379)
(-0.00072641998 0 -0.0015128209)
(-0.00067267772 0 -0.0018843176)
(-0.00062045171 0 -0.0022507445)
(-0.00057040299 0 -0.0025987985)
(-0.00052307516 0 -0.0029169481)
(-0.00047886858 0 -0.0031960949)
(-0.00043797384 0 -0.0034302318)
(-0.00040046343 0 -0.003615636)
(-0.00036628336 0 -0.003750517)
(-0.00033518725 0 -0.003833469)
(-0.00030684096 0 -0.0038632573)
(-0.00028050602 0 -0.0038362718)
(-0.0002554647 0 -0.0037484321)
(-0.00023112494 0 -0.0035923737)
(-0.00020664219 0 -0.003360305)
(-0.0001809837 0 -0.0030420145)
(-0.0001509249 0 -0.0025990544)
(-0.00011379535 0 -0.0019907552)
(-6.5875679e-05 0 -0.0011627595)
(0 0 0)
(-0.0012514739 0 0.00074381572)
(-0.0012513128 0 0.00074351396)
(-0.001251223 0 0.00074459816)
(-0.0012510953 0 0.00074587411)
(-0.0012509165 0 0.00074736871)
(-0.0012506689 0 0.00074911207)
(-0.0012503283 0 0.00075113488)
(-0.0012498624 0 0.00075346595)
(-0.0012492281 0 0.00075612929)
(-0.0012483678 0 0.00075913826)
(-0.0012472057 0 0.00076248779)
(-0.001245642 0 0.00076614184)
(-0.0012435462 0 0.00077001573)
(-0.0012407498 0 0.00077395044)
(-0.001237037 0 0.00077767506)
(-0.0012321359 0 0.00078075404)
(-0.0012257107 0 0.00078250798)
(-0.001217363 0 0.00078183967)
(-0.0012066288 0 0.00077707931)
(-0.0011929708 0 0.00076596142)
(-0.0011758117 0 0.00074550282)
(-0.0011545904 0 0.00071180566)
(-0.0011288207 0 0.00065992505)
(-0.0010981713 0 0.00058404021)
(-0.0010625492 0 0.0004779416)
(-0.0010221592 0 0.00033568418)
(-0.00097748652 0 0.00015226718)
(-0.00092926686 0 -7.5345208e-05)
(-0.00087840744 0 -0.00034704751)
(-0.00082585163 0 -0.00065904228)
(-0.00077247006 0 -0.0010039068)
(-0.00071907679 0 -0.0013709516)
(-0.00066643112 0 -0.0017474976)
(-0.00061523463 0 -0.0021198787)
(-0.00056610548 0 -0.0024748145)
(-0.00051956533 0 -0.0028006998)
(-0.0004760075 0 -0.0030883002)
(-0.00043563455 0 -0.0033313489)
(-0.00039853147 0 -0.0035258314)
(-0.00036465785 0 -0.003669705)
(-0.00033378933 0 -0.0037614252)
(-0.00030559724 0 -0.0037995579)
(-0.00027938742 0 -0.0037805145)
(-0.00025445907 0 -0.0037001496)
(-0.00023020514 0 -0.0035511876)
(-0.00020578247 0 -0.003325653)
(-0.0001801074 0 -0.0030125279)
(-0.00015011105 0 -0.0025750149)
(-0.00011309437 0 -0.0019724246)
(-6.527305e-05 0 -0.0011492847)
(0 0 0)
(-0.0012429414 0 0.00088783875)
(-0.0012427767 0 0.00088760745)
(-0.0012426739 0 0.00088881048)
(-0.0012425302 0 0.00089022703)
(-0.0012423318 0 0.00089188821)
(-0.0012420601 0 0.00089382918)
(-0.0012416898 0 0.00089608646)
(-0.0012411872 0 0.00089869565)
(-0.0012405074 0 0.00090168838)
(-0.0012395909 0 0.00090508654)
(-0.0012383592 0 0.00090889453)
(-0.0012367093 0 0.00091308667)
(-0.0012345069 0 0.00091758966)
(-0.0012315786 0 0.00092225726)
(-0.0012277031 0 0.00092683292)
(-0.0012226024 0 0.00093089415)
(-0.0012159424 0 0.00093370649)
(-0.0012073314 0 0.00093405628)
(-0.0011962967 0 0.00093029324)
(-0.0011822933 0 0.0009201899)
(-0.0011647527 0 0.00090067992)
(-0.0011431327 0 0.00086777153)
(-0.0011169757 0 0.00081648844)
(-0.0010860034 0 0.00074078439)
(-0.0010501912 0 0.00063413633)
(-0.0010097949 0 0.00049064901)
(-0.00096533952 0 0.00030547067)
(-0.00091759075 0 7.5637746e-05)
(-0.00086745376 0 -0.00019867928)
(-0.00081583072 0 -0.0005136901)
(-0.00076352422 0 -0.00086201072)
(-0.00071127086 0 -0.0012330467)
(-0.00065975915 0 -0.0016142809)
(-0.00060962946 0 -0.0019921838)
(-0.00056145726 0 -0.00235352)
(-0.00051574211 0 -0.0026866405)
(-0.00047287008 0 -0.0029822017)
(-0.00043305386 0 -0.0032337061)
(-0.00039639044 0 -0.003436862)
(-0.00036285328 0 -0.0035893826)
(-0.00033223901 0 -0.0036895824)
(-0.00030422598 0 -0.0037358304)
(-0.0002781607 0 -0.0037245345)
(-0.00025336033 0 -0.0036514903)
(-0.0002292064 0 -0.0035094972)
(-0.00020485588 0 -0.0032904025)
(-0.00017918244 0 -0.0029824874)
(-0.00014925715 0 -0.0025504283)
(-0.00011236268 0 -0.001953612)
(-6.4666931e-05 0 -0.0011357563)
(0 0 0)
(-0.0012339373 0 0.0010287227)
(-0.0012337709 0 0.0010285607)
(-0.0012336539 0 0.0010298812)
(-0.0012334929 0 0.0010314372)
(-0.0012332731 0 0.0010332646)
(-0.001232975 0 0.001035404)
(-0.0012325722 0 0.0010378975)
(-0.0012320294 0 0.0010407871)
(-0.0012313001 0 0.0010441115)
(-0.0012303224 0 0.0010479003)
(-0.0012290151 0 0.0010521669)
(-0.0012272717 0 0.001056896)
(-0.0012249534 0 0.0010620263)
(-0.0012218819 0 0.0010674256)
(-0.0012178292 0 0.0010728564)
(-0.0012125175 0 0.0010778645)
(-0.0012056199 0 0.0010816093)
(-0.0011967363 0 0.0010828732)
(-0.0011853792 0 0.0010800563)
(-0.0011710061 0 0.0010708942)
(-0.0011530606 0 0.0010522462)
(-0.00113102 0 0.0010200155)
(-0.0011044636 0 0.00096912573)
(-0.0010731634 0 0.00089347056)
(-0.0010371611 0 0.00078626278)
(-0.00099677336 0 0.0006414329)
(-0.00095256349 0 0.00045433407)
(-0.00090532211 0 0.00022218538)
(-0.00085594842 0 -5.4765935e-05)
(-0.00080529931 0 -0.00037272855)
(-0.00075410634 0 -0.00072434737)
(-0.0007030282 0 -0.0010991159)
(-0.00065268433 0 -0.0014846927)
(-0.00060365491 0 -0.0018677027)
(-0.0005564732 0 -0.0022349748)
(-0.00051161688 0 -0.002574844)
(-0.00046946454 0 -0.0028778834)
(-0.00043023751 0 -0.003137392)
(-0.00039404414 0 -0.0033488156)
(-0.0003608719 0 -0.0035096328)
(-0.00033053754 0 -0.003618017)
(-0.0003027276 0 -0.003672142)
(-0.00027682588 0 -0.0036683902)
(-0.0002521684 0 -0.0036025037)
(-0.00022812839 0 -0.0034673436)
(-0.00020386218 0 -0.0032545889)
(-0.00017820792 0 -0.0029519124)
(-0.00014836288 0 -0.0025253123)
(-0.0001116006 0 -0.0019343363)
(-6.4056598e-05 0 -0.0011221685)
(0 0 0)
(-0.0012244806 0 0.001166533)
(-0.0012243106 0 0.001166443)
(-0.0012241778 0 0.0011678859)
(-0.0012239974 0 0.0011695874)
(-0.001223754 0 0.0011715866)
(-0.0012234269 0 0.0011739281)
(-0.0012229887 0 0.0011766592)
(-0.0012224024 0 0.0011798281)
(-0.0012216195 0 0.0011834807)
(-0.0012205758 0 0.0011876553)
(-0.0012191869 0 0.0011923749)
(-0.0012173425 0 0.0011976348)
(-0.0012148993 0 0.001203385)
(-0.001211673 0 0.0012095044)
(-0.0012074323 0 0.0012157654)
(-0.0012019055 0 0.0012216345)
(-0.0011947615 0 0.0012262361)
(-0.0011855817 0 0.0012284233)
(-0.0011738758 0 0.0012265593)
(-0.0011591083 0 0.001218302)
(-0.0011407344 0 0.0012004416)
(-0.0011182547 0 0.0011687724)
(-0.0010912913 0 0.0011180544)
(-0.0010596698 0 0.0010421269)
(-0.0010234818 0 0.0009342517)
(-0.00098311631 0 0.00078804722)
(-0.00093918595 0 0.00059886915)
(-0.00089249074 0 0.00036431255)
(-0.00084392237 0 8.4708339e-05)
(-0.00079428808 0 -0.00023614507)
(-0.00074424534 0 -0.00059091168)
(-0.00069437484 0 -0.00096916419)
(-0.00064522922 0 -0.0013587525)
(-0.00059732978 0 -0.0017464723)
(-0.00055116831 0 -0.0021192326)
(-0.00050720117 0 -0.0024653776)
(-0.0004657994 0 -0.0027754227)
(-0.00042719156 0 -0.0030424899)
(-0.00039149663 0 -0.0032617763)
(-0.00035871622 0 -0.0034305356)
(-0.00032868632 0 -0.0035468029)
(-0.0003011025 0 -0.0036085581)
(-0.00027538299 0 -0.0036121391)
(-0.00025088321 0 -0.0035532385)
(-0.00022697078 0 -0.0034247678)
(-0.00020280101 0 -0.0032182463)
(-0.00017718297 0 -0.0029208232)
(-0.00014742802 0 -0.0024996855)
(-0.00011080838 0 -0.0019146161)
(-6.3441419e-05 0 -0.0011085171)
(0 0 0)
(-0.0012145859 0 0.0013013328)
(-0.0012144104 0 0.001301313)
(-0.0012142607 0 0.001302876)
(-0.0012140594 0 0.0013047202)
(-0.0012137905 0 0.0013068888)
(-0.0012134322 0 0.0013094309)
(-0.0012129556 0 0.0013123992)
(-0.0012123221 0 0.0013158477)
(-0.0012114813 0 0.0013198296)
(-0.0012103661 0 0.0013243911)
(-0.0012088889 0 0.0013295643)
(-0.0012069356 0 0.0013353548)
(-0.0012043577 0 0.0013417239)
(-0.0012009654 0 0.0013485637)
(-0.00119653 0 0.0013555958)
(-0.0011907813 0 0.0013622525)
(-0.001183372 0 0.0013677106)
(-0.0011738732 0 0.0013708139)
(-0.0011617957 0 0.001369867)
(-0.0011466095 0 0.0013624715)
(-0.0011277844 0 0.001345322)
(-0.0011048477 0 0.0013141003)
(-0.001077468 0 0.0012634098)
(-0.0010455302 0 0.001186946)
(-0.0010091741 0 0.0010781237)
(-0.00096885464 0 0.00093042774)
(-0.00092523598 0 0.00073909017)
(-0.00087912758 0 0.00050203916)
(-0.00083140755 0 0.00021976694)
(-0.00078282852 0 -0.00010391774)
(-0.00073397083 0 -0.00046168777)
(-0.00068534279 0 -0.00084325993)
(-0.00063742828 0 -0.0012366327)
(-0.00059068399 0 -0.0016286863)
(-0.00054556714 0 -0.002006493)
(-0.00050251427 0 -0.0023584376)
(-0.0004618872 0 -0.0026749573)
(-0.00042392269 0 -0.0029490737)
(-0.00038875255 0 -0.0031758197)
(-0.00035638923 0 -0.0033521646)
(-0.0003266872 0 -0.0034760098)
(-0.0002993516 0 -0.0035451415)
(-0.0002738324 0 -0.0035558366)
(-0.0002495049 0 -0.0035037423)
(-0.00022573346 0 -0.0033818103)
(-0.00020167225 0 -0.0031814097)
(-0.00017610691 0 -0.0028892411)
(-0.0001464523 0 -0.0024735665)
(-0.00010998627 0 -0.0018944701)
(-6.2820738e-05 0 -0.0010947978)
(0 0 0)
(-0.0012042621 0 0.0014331839)
(-0.0012040824 0 0.0014332337)
(-0.0012039144 0 0.0014349163)
(-0.0012036908 0 0.0014369025)
(-0.0012033945 0 0.0014392395)
(-0.0012030026 0 0.0014419813)
(-0.0012024847 0 0.0014451857)
(-0.0012018006 0 0.0014489131)
(-0.0012008973 0 0.0014532234)
(-0.0011997053 0 0.0014581711)
(-0.0011981333 0 0.0014637969)
(-0.0011960627 0 0.001470116)
(-0.00119334 0 0.0014771001)
(-0.0011897723 0 0.0014846517)
(-0.0011851361 0 0.0014924194)
(-0.0011791527 0 0.0014998351)
(-0.0011714587 0 0.0015061312)
(-0.0011616202 0 0.0015101136)
(-0.0011491475 0 0.0015100471)
(-0.0011335175 0 0.0015034675)
(-0.0011142192 0 0.0014869469)
(-0.0010908094 0 0.0014560554)
(-0.0010630068 0 0.0014052406)
(-0.0010307587 0 0.0013280326)
(-0.00099426464 0 0.0012178964)
(-0.00095402127 0 0.0010685044)
(-0.0009107413 0 0.00087500596)
(-0.00086526421 0 0.0006353861)
(-0.0008184364 0 0.00035043566)
(-0.00077095246 0 2.397855e-05)
(-0.00072332133 0 -0.00033674759)
(-0.00067597709 0 -0.00072159338)
(-0.00062932142 0 -0.0011185504)
(-0.0005837504 0 -0.0015145725)
(-0.00053969611 0 -0.0018969795)
(-0.00049757652 0 -0.0022542387)
(-0.00045774296 0 -0.0025766889)
(-0.00042044038 0 -0.0028572794)
(-0.00038581686 0 -0.0030910166)
(-0.00035389421 0 -0.0032745895)
(-0.00032454226 0 -0.0034057038)
(-0.00029747589 0 -0.0034819527)
(-0.00027217456 0 -0.0034995367)
(-0.00024803367 0 -0.0034540621)
(-0.00022441632 0 -0.0033385115)
(-0.00020047571 0 -0.0031441135)
(-0.00017497908 0 -0.0028571886)
(-0.00014543551 0 -0.0024469746)
(-0.00010913448 0 -0.0018739167)
(-6.2194024e-05 0 -0.0010810087)
(0 0 0)
(-0.0011935259 0 0.0015621469)
(-0.0011933394 0 0.0015622659)
(-0.0011931518 0 0.001564068)
(-0.0011929041 0 0.0015661959)
(-0.0011925784 0 0.001568701)
(-0.0011921504 0 0.0015716419)
(-0.0011915883 0 0.0015750817)
(-0.0011908499 0 0.0015790872)
(-0.0011898798 0 0.0015837253)
(-0.0011886053 0 0.0015890584)
(-0.0011869315 0 0.0015951362)
(-0.0011847352 0 0.0016019842)
(-0.0011818572 0 0.0016095859)
(-0.0011781075 0 0.0016178032)
(-0.0011732631 0 0.0016262697)
(-0.0011670293 0 0.0016344464)
(-0.0011590311 0 0.0016415564)
(-0.0011488311 0 0.0016463853)
(-0.0011359385 0 0.0016471626)
(-0.0011198391 0 0.0016413583)
(-0.0011000474 0 0.0016253727)
(-0.0010761592 0 0.0015945939)
(-0.0010479392 0 0.0015434136)
(-0.0010153852 0 0.0014653298)
(-0.00097877261 0 0.0013536621)
(-0.00093863452 0 0.0012023702)
(-0.00089572973 0 0.0010066394)
(-0.00085093326 0 0.00076437821)
(-0.00080505099 0 0.00047665649)
(-0.00075871416 0 0.00014736667)
(-0.00071235299 0 -0.00021631204)
(-0.00066631807 0 -0.00060426629)
(-0.00062092929 0 -0.0010044408)
(-0.0005765435 0 -0.0014040445)
(-0.00053356582 0 -0.0017906111)
(-0.00049239585 0 -0.002152719)
(-0.00045337647 0 -0.0024806759)
(-0.00041675459 0 -0.0027672411)
(-0.00038269449 0 -0.0030074325)
(-0.0003512348 0 -0.0031978739)
(-0.00032225391 0 -0.0033359472)
(-0.00029547679 0 -0.0034190495)
(-0.0002704102 0 -0.0034432915)
(-0.00024646991 0 -0.0034042434)
(-0.00022301946 0 -0.0032949109)
(-0.00019921139 0 -0.0031063922)
(-0.00017379898 0 -0.0028246887)
(-0.00014437745 0 -0.00241993)
(-0.0001082532 0 -0.0018529745)
(-6.1560674e-05 0 -0.0010671467)
(0 0 0)
(-0.0011823861 0 0.0016882808)
(-0.0011821938 0 0.0016884689)