/*--------------------------------*- C++ -*----------------------------------*\
  =========                 |
  \\      /  F ield         | OpenFOAM: The Open Source CFD Toolbox
   \\    /   O peration     | Website:  https://openfoam.org
    \\  /    A nd           | Version:  8
     \\/     M anipulation  |
\*---------------------------------------------------------------------------*/
FoamFile
{
    version     2.0;
    format      ascii;
    class       volScalarField;
    location    "0.159995";
    object      rho;
}
// * * * * * * * * * * * * * * * * * * * * * * * * * * * * * * * * * * * * * //

dimensions      [1 -3 0 0 0 0 0];

internalField   nonuniform List<scalar> 
20000
(
0.81622964
0.81699657
0.81832829
0.82134794
0.82777154
0.8407511
0.86323745
0.87061802
0.86983387
0.87140114
0.87144445
0.87318611
0.87410501
0.87637903
0.87826278
0.88144054
0.88463545
0.88918741
0.89424101
0.90091074
0.90871723
0.91855833
0.93025963
0.94444118
0.96099586
0.98002833
1.000936
1.0229087
1.0447117
1.0652424
1.0836492
1.0995728
1.1129528
1.1240121
1.1329678
1.1400835
1.1455471
1.1497327
1.1528344
1.155164
1.1568198
1.1579934
1.1587792
1.1594089
1.1600602
1.1609555
1.1618548
1.1627712
1.1634376
1.1668706
0.81581721
0.81655677
0.81790149
0.82101805
0.82771974
0.84127068
0.86361303
0.87036661
0.8695018
0.87117539
0.87120223
0.87302267
0.87390162
0.87620153
0.87808348
0.88127887
0.8844757
0.88906509
0.89414629
0.90084067
0.90866668
0.91850165
0.93018431
0.94431627
0.96081228
0.9797813
1.0006512
1.0225811
1.0444017
1.0650233
1.0835483
1.099539
1.112951
1.1240176
1.1329712
1.1400542
1.1454877
1.1496003
1.1526471
1.1549941
1.1566876
1.1578912
1.1586999
1.1593502
1.160063
1.1609712
1.1618393
1.162804
1.1634149
1.1669301
0.81608168
0.81672208
0.81807832
0.82130751
0.82832433
0.84265725
0.86452189
0.8704455
0.86948521
0.87118077
0.87120814
0.87302292
0.87399603
0.87638973
0.8783517
0.88165728
0.88495941
0.88966698
0.89486686
0.90167555
0.90959022
0.91946404
0.93112691
0.94515409
0.96147199
0.9801882
1.000814
1.0226335
1.0444276
1.0650356
1.0835587
1.0995945
1.1130249
1.1240622
1.1329687
1.1400358
1.1454628
1.1495558
1.1525522
1.154797
1.1564805
1.1576985
1.1585384
1.1592682
1.160059
1.1609877
1.1619256
1.1628208
1.1640068
1.1668811
0.81679768
0.81736724
0.81873658
0.82207607
0.82943729
0.84464287
0.86592357
0.87117516
0.87019652
0.87204497
0.87204592
0.87399966
0.87494636
0.87741803
0.87944177
0.88283928
0.88623192
0.89105366
0.89636986
0.90329875
0.91132994
0.92129621
0.9330208
0.94705019
0.96330403
0.98187301
1.0022853
1.0238232
1.045369
1.0658006
1.0842056
1.1001189
1.1134338
1.1243542
1.1331552
1.1401172
1.1454604
1.1495391
1.1525139
1.1547298
1.1563508
1.1575727
1.1584418
1.159243
1.1600609
1.1610178
1.1619568
1.1628666
1.16427
1.1668823
0.81831198
0.81872865
0.82005745
0.82349308
0.8311789
0.84733557
0.86781589
0.8722884
0.87135583
0.87314668
0.87326033
0.87526387
0.87630086
0.87886371
0.88097013
0.88448516
0.88799548
0.89295666
0.89842418
0.90551181
0.91370435
0.92381488
0.93565977
0.94975269
0.96599753
0.9844521
1.0046473
1.0258869
1.0471019
1.0672064
1.085323
1.1009928
1.1140953
1.1248247
1.133465
1.1402987
1.1455443
1.1495362
1.1525006
1.154691
1.1562888
1.1574914
1.1583847
1.1592285
1.1600708
1.161056
1.1620101
1.1629199
1.1646987
1.1668718
0.81978805
0.82017024
0.82152987
0.8251105
0.83316038
0.85038004
0.86989339
0.87381865
0.87285798
0.8747725
0.87487067
0.87695239
0.87803791
0.88069213
0.88288443
0.88651761
0.89015215
0.89526093
0.90088839
0.90814988
0.91653165
0.92682836
0.93885291
0.95308435
0.96940346
0.9878224
1.0078459
1.0287705
1.0495734
1.0692414
1.0869484
1.1022501
1.115038
1.1255018
1.1339271
1.1405857
1.1456972
1.1495969
1.1524969
1.1546795
1.1562617
1.157457
1.1583599
1.1592247
1.1600941
1.1611026
1.1620586
1.1629956
1.165013
1.1668711
0.82169807
0.82196483
0.82332456
0.82703251
0.83544176
0.85377362
0.87211905
0.87554286
0.8746003
0.87655933
0.87670657
0.87886692
0.88001946
0.88277794
0.88506758
0.88882958
0.89259823
0.89786603
0.90367449
0.91113456
0.91973702
0.93025838
0.94250958
0.95693346
0.97338331
0.99181585
1.0116974
1.0323077
1.0526606
1.0718094
1.0890022
1.1038396
1.116229
1.1263614
1.1345226
1.1409739
1.1459267
1.1497073
1.1525353
1.1546745
1.1562514
1.1574417
1.1583492
1.1592243
1.1601298
1.1611571
1.1621169
1.1631102
1.1653199
1.1668948
0.82363789
0.82382589
0.82523742
0.8290946
0.83791059
0.85740768
0.87442644
0.87747463
0.87654731
0.87858786
0.87877258
0.88102032
0.88223857
0.88510033
0.88748821
0.89137947
0.89528955
0.90072608
0.90672734
0.91440194
0.92324863
0.93402554
0.94654248
0.96120507
0.97783437
0.9963255
1.0160936
1.0363919
1.0562634
1.0748351
1.0914384
1.1057314
1.1176507
1.1273947
1.135248
1.1414581
1.1462264
1.1498732
1.1526105
1.1546932
1.156248
1.1574365
1.1583456
1.1592264
1.1601765
1.1612198
1.1621845
1.1632877
1.1655584
1.166938
0.82593681
0.82600274
0.8274286
0.83144386
0.84066342
0.86132764
0.87685129
0.87960488
0.87869614
0.88080568
0.88103272
0.88336365
0.88464944
0.88761502
0.89010458
0.89413105
0.89819147
0.90380739
0.910019
0.9179277
0.92704386
0.93810558
0.95092267
0.9658602
0.98270495
1.0012828
1.0209524
1.0409344
1.0603
1.0782482
1.0942012
1.1078865
1.1192766
1.1285835
1.1360913
1.142032
1.1465939
1.1500896
1.1527256
1.1547408
1.1562573
1.1574351
1.1583448
1.1592455
1.1602339
1.1612889
1.1622661
1.1635318
1.1657511
1.1669969
0.82832158
0.82829986
0.82974929
0.83395501
0.84362749
0.86543681
0.87936506
0.88191
0.88101792
0.883198
0.88346432
0.88587717
0.88722964
0.89029976
0.89289657
0.89706486
0.90128698
0.90709349
0.91352827
0.92168694
0.93109397
0.94246537
0.95561043
0.97085141
0.98793672
1.0066181
1.0261937
1.0458496
1.0646859
1.0819754
1.0972338
1.1102631
1.1210784
1.1299094
1.1370405
1.1426874
1.1470236
1.1503544
1.152877
1.1548173
1.1562902
1.1574464
1.1583544
1.1592798
1.1603023
1.1613633
1.1623615
1.1638034
1.1659237
1.1670693
0.83096041
0.83080118
0.83226692
0.83667034
0.84684271
0.86970557
0.88199883
0.88436117
0.88348442
0.88572969
0.88603586
0.88853123
0.88995582
0.89313711
0.89585053
0.90016983
0.9045636
0.9105711
0.91724536
0.92567281
0.9353935
0.94709923
0.9605977
0.97616568
0.99350862
1.0122992
1.0317729
1.0510847
1.0693654
1.0859639
1.100491
1.1128262
1.12303
1.1313539
1.1380832
1.1434161
1.1475103
1.1506636
1.1530637
1.1549215
1.1563449
1.1574759
1.1583809
1.1593309
1.1603813
1.1614424
1.1624699
1.164093
1.1660913
1.1671521
0.83363533
0.83335654
0.83485559
0.8394849
0.85024535
0.87402745
0.88463811
0.88691952
0.88606569
0.88838113
0.88873321
0.89131701
0.89282199
0.89612225
0.89896129
0.90343876
0.90801424
0.9142336
0.92116193
0.92987539
0.93993029
0.95199153
0.96586409
0.98177602
0.99938438
1.0182788
1.0376324
1.0565746
1.074272
1.0901521
1.1039209
1.115535
1.1251018
1.1328962
1.1392051
1.1442085
1.1480473
1.151013
1.1532824
1.1550522
1.1564214
1.157524
1.158425
1.1593986
1.1604698
1.1615256
1.1625898
1.1643906
1.1662611
1.1672436
0.83647579
0.83606712
0.83759519
0.84246816
0.8539155
0.87839541
0.88732132
0.88959399
0.88876357
0.89115037
0.89155506
0.89423365
0.89582804
0.89925301
0.90222469
0.90686566
0.91163267
0.91807571
0.9252765
0.93429541
0.9447058
0.95714348
0.97140954
0.98767874
1.0055539
1.0245374
1.0437431
1.0622818
1.0793638
1.0944984
1.1074861
1.1183586
1.1272694
1.1345183
1.1403935
1.1450555
1.1486287
1.1513984
1.1535308
1.1552074
1.1565186
1.15759
1.1584868
1.1594829
1.1605671
1.1616128
1.1627228
1.1646916
1.1664326
1.1673423
0.83932256
0.83881754
0.84037775
0.8455232
0.85778686
0.88273552
0.89001885
0.89236457
0.89156948
0.89404022
0.8945063
0.89728574
0.89897259
0.90252519
0.90563352
0.91044522
0.91541601
0.92209731
0.92958782
0.9389298
0.94971475
0.96254692
0.97722199
0.99385568
1.0119904
1.0310382
1.0500591
1.0681547
1.0845881
1.098953
1.1111429
1.1212613
1.1295054
1.1362
1.1416341
1.1459473
1.1492472
1.1518149
1.1538054
1.1553852
1.1566354
1.1576738
1.1585664
1.1595834
1.160674
1.1617056
1.1628756
1.1649886
1.1666056
1.1674465
0.84233034
0.84171684
0.84330913
0.84872835
0.8619537
0.88707985
0.89280159
0.89527368
0.89451468
0.89706325
0.89758987
0.90046682
0.90224765
0.90592964
0.90918275
0.91417487
0.91936486
0.92630018
0.93409892
0.94378242
0.95496112
0.96820649
0.98330439
1.0003066
1.0186865
1.0377659
1.0565566
1.074164
1.0899123
1.1034833
1.1148613
1.1242171
1.1317887
1.1379251
1.142915
1.1468748
1.1498964
1.1522579
1.1541033
1.1555837
1.1567706
1.1577748
1.1586633
1.1596981
1.1607895
1.1618071
1.1630603
1.1652728
1.1667772
1.1675566
0.84547412
0.84475233
0.84638179
0.85207474
0.86640891
0.89146022
0.89575413
0.89829771
0.89757471
0.90019848
0.90078749
0.9037632
0.90564296
0.90946194
0.91287161
0.918058
0.92348321
0.93068731
0.93881089
0.94885264
0.96044297
0.97411785
0.98964889
1.0070167
1.0256187
1.0446875
1.0631955
1.0802661
1.0952928
1.1080485
1.1186053
1.1271961
1.1340955
1.1396759
1.144223
1.1478286
1.1505693
1.1527225
1.1544212
1.1558006
1.1569229
1.1578926
1.1587773
1.1598256
1.1609098
1.1619204
1.1632912
1.1655339
1.1669446
1.1676724
0.84867776
0.84786383
0.84954254
0.85551661
0.87110536
0.89579033
0.89883103
0.90141575
0.90073335
0.90343421
0.90408976
0.90716955
0.90915824
0.91312529
0.9167064
0.92209921
0.92777497
0.93526186
0.94372747
0.95414525
0.96616644
0.98028732
0.99626026
1.0139857
1.0327794
1.051787
1.069954
1.086435
1.1007024
1.1126221
1.1223507
1.1301772
1.1364087
1.1414387
1.1455476
1.1488002
1.1512597
1.1532042
1.154756
1.156034
1.1570912
1.1580266
1.1589078
1.1599647
1.161033
1.1620478
1.1635745
1.1657674
1.1671059
1.1677905
0.85198011
0.85108832
0.85282951
0.85908619
0.87605278
0.90007885
0.90197981
0.90462451
0.90398518
0.90676626
0.90749725
0.91069109
0.91280119
0.91692857
0.92069346
0.92630429
0.93224342
0.9400259
0.94885023
0.95966178
0.97213221
0.98671301
1.003132
1.0211987
1.0401447
1.0590318
1.076795
1.0926322
1.1061043
1.1171705
1.1260682
1.1331361
1.1387089
1.1431987
1.1468771
1.1497812
1.1519612
1.1536983
1.1551044
1.1562816
1.157274
1.1581761
1.1590537
1.1601139
1.1611578
1.1621897
1.1638818
1.1659948
1.167261
1.1679093
0.85533246
0.8543831
0.85620731
0.86275422
0.88119465
0.90426163
0.90520767
0.9079183
0.9073327
0.91020397
0.91102253
0.9143411
0.91658325
0.9208789
0.92483755
0.93067412
0.93688959
0.94498232
0.95418395
0.96540949
0.97834789
0.99340308
1.0102676
1.0286543
1.0477035
1.0664051
1.0836962
1.0988346
1.1114752
1.1216723
1.1297388
1.1360566
1.1409825
1.1449448
1.1482026
1.1507647
1.1526688
1.1542007
1.1554638
1.1565417
1.1574702
1.1583403
1.1592141
1.1602714
1.1612843
1.1623461
1.1642065
1.1662183
1.1674112
1.1680239
0.85875529
0.85776938
0.85971035
0.86657316
0.88653506
0.90835994
0.90853431
0.91132327
0.91080011
0.91376763
0.91468101
0.91812936
0.92050857
0.92497735
0.92913759
0.9352095
0.94171559
0.95013438
0.95973306
0.97139242
0.98481654
1.0003564
1.01766
1.036335
1.0554295
1.0738732
1.0906213
1.1050063
1.1167828
1.1260996
1.1333395
1.1389197
1.1432142
1.1466641
1.1495145
1.1517441
1.1533768
1.1547072
1.155831
1.1568122
1.1576784
1.1585183
1.1593878
1.160435
1.1614136
1.1625179
1.1645406
1.1664397
1.167555
1.1681314
0.8622884
0.86128128
0.86337142
0.87058869
0.8920634
0.91240108
0.91198013
0.91485469
0.91440026
0.91746481
0.91847417
0.92205323
0.92457356
0.92922042
0.93359291
0.93991074
0.94672474
0.95548798
0.96550566
0.97761985
0.99154774
1.0075807
1.0253117
1.0442351
1.0633082
1.081415
1.0975472
1.111124
1.1220062
1.1304354
1.1368567
1.1417137
1.1453931
1.1483473
1.1508068
1.1527148
1.1540805
1.1552147
1.1562037
1.1570913
1.1578974
1.1587093
1.1595732
1.1606027
1.1615458
1.1627086
1.1648781
1.1666562
1.1676921
1.1682344
0.86591883
0.86490953
0.86719386
0.87483934
0.89774612
0.91641728
0.9155593
0.91851559
0.91812663
0.92128525
0.92239112
0.92610433
0.92877291
0.93360658
0.93820432
0.94478223
0.95192286
0.96105043
0.97150873
0.98409824
0.99854499
1.0150745
1.0332121
1.0523334
1.0713087
1.0889944
1.1044368
1.1171534
1.1271172
1.1346581
1.1402741
1.144425
1.1475073
1.1499849
1.1520746
1.153671
1.1547743
1.15572
1.1565793
1.1573772
1.1581261
1.1589122
1.1597687
1.1607734
1.1616825
1.1629249
1.1652106
1.1668645
1.1678207
1.1683296
0.86966003
0.86865473
0.87117115
0.87935362
0.90352144
0.92052257
0.91924204
0.92227819
0.92195633
0.92521348
0.92642362
0.93027995
0.93310719
0.93813853
0.9429764
0.94982976
0.95731792
0.96683082
0.97775277
0.99083811
1.0058188
1.0228439
1.0413604
1.0606187
1.0794122
1.0965875
1.1112644
1.1230731
1.1321001
1.1387569
1.1435835
1.147046
1.1495496
1.1515736
1.1533166
1.1546065
1.1554534
1.1562201
1.1569558
1.1576685
1.1583634
1.1591258
1.1599725
1.160947
1.1618313
1.1631773
1.1655279
1.1670611
1.1679402
1.1684167
0.87340177
0.87241397
0.87521662
0.88408923
0.90927433
0.92454713
0.92299999
0.92612983
0.92588722
0.9292531
0.93057673
0.934584
0.93758101
0.94282078
0.94791615
0.95506208
0.96291914
0.97283866
0.98424632
0.9978468
1.0133721
1.0308846
1.0497407
1.0690637
1.0875822
1.1041546
1.1179928
1.1288545
1.1369361
1.1427175
1.146772
1.1495659
1.1515131
1.1531135
1.1545295
1.1555119
1.1561142
1.156711
1.1573313
1.1579636
1.158608
1.1593488
1.1601823
1.1611222
1.1619998
1.1634795
1.1658188
1.1672425
1.1680519
1.1685013
0.87728201
0.87630631
0.87942955
0.88917519
0.91503911
0.92849223
0.92686952
0.93009896
0.92993562
0.93341222
0.93485449
0.93902067
0.94219961
0.94766107
0.95303238
0.96048839
0.96873632
0.97908486
0.99100078
1.0051361
1.0212144
1.0392004
1.0583464
1.0776509
1.095793
1.1116668
1.1245992
1.1344851
1.1416194
1.1465342
1.1498302
1.1519768
1.1533967
1.1546101
1.1557027
1.1563821
1.1567568
1.1571885
1.1577046
1.1582615
1.1588592
1.1595799
1.1603958
1.1612975
1.16219
1.1638347
1.1660773
1.1674087
1.1681542
1.1685804
0.88122218
0.88026133
0.88373145
0.89458064
0.92072783
0.93246496
0.9308362
0.93417316
0.93409534
0.93769067
0.93925935
0.94359598
0.94697144
0.95266871
0.95833492
0.96611876
0.97477992
0.98557998
0.99802596
1.0127138
1.029347
1.0477824
1.0671542
1.0863455
1.104002
1.1190842
1.1310567
1.1399523
1.1461405
1.1501944
1.1527418
1.1542668
1.1551983
1.1560615
1.1568172
1.1572175
1.1573837
1.1576506
1.1580743
1.1585608
1.1591158
1.1598174
1.1606105
1.1614722
1.1623995
1.1642089
1.1663229
1.1675622
1.1682485
1.1686528
0.88525547
0.88430151
0.88813955
0.90034542
0.92634043
0.93652534
0.93491573
0.93836217
0.9383719
0.94209494
0.94380043
0.9483201
0.95190709
0.95785324
0.96383284
0.97196262
0.9810609
0.99233583
1.0053352
1.0205913
1.0377785
1.0566279
1.0761507
1.0951208
1.1121793
1.1263828
1.1373586
1.1452567
1.1504918
1.1536857
1.155496
1.1564313
1.1569188
1.1574476
1.1578739
1.158019
1.1579947
1.1581019
1.158439
1.1588609
1.1593771
1.1600597
1.1608243
1.1616464
1.1626282
1.1645891
1.1665583
1.1677047
1.1683346
1.1687202
0.88938622
0.88843338
0.89265187
0.90647641
0.93185603
0.94076795
0.93909741
0.94266412
0.94277277
0.94663486
0.94848998
0.9532031
0.95701531
0.96322227
0.96953496
0.97803094
0.98759085
0.99936478
1.0129389
1.0287759
1.0465061
1.0657208
1.0853028
1.1039335
1.1202811
1.1335348
1.1434977
1.1503833
1.1546398
1.1569806
1.1580893
1.158476
1.1585557
1.1587514
1.1588836
1.158787
1.1585754
1.1585516
1.1587962
1.1591609
1.1596419
1.160305
1.1610354
1.1618202
1.1628748
1.1649662
1.1667849
1.1678386
1.1684137
1.1687814
0.8935832
0.89263104
0.89724347
0.91294158
0.93723697
0.94505205
0.94340117
0.9471006
0.94731191
0.95132507
0.95333676
0.95825147
0.96230173
0.96878334
0.97545111
0.98433523
0.99438243
1.006681
1.0208514
1.0372793
1.0555335
1.0750511
1.0945864
1.1127511
1.1282804
1.1405352
1.1494715
1.155293
1.1585595
1.1600714
1.1605334
1.1604137
1.1601058
1.1599751
1.1598604
1.1595157
1.1591186
1.1590003
1.1591445
1.1594599
1.1599094
1.1605517
1.1612426
1.1619958
1.1631385
1.1653326
1.1670002
1.1679638
1.1684884
1.1688382
0.89790093
0.89695585
0.90198246
0.91977434
0.94254731
0.94948766
0.94785998
0.95168699
0.95200148
0.95616837
0.95834245
0.96346698
0.96777276
0.9745459
0.9815937
0.9908887
1.0014497
1.0142981
1.0290843
1.0461056
1.0648514
1.0845909
1.1039582
1.1215264
1.1361464
1.1473762
1.1552364
1.1599444
1.1622265
1.1629639
1.1628593
1.1622462
1.1615583
1.1611355
1.1607827
1.1602003
1.1596349
1.1594405
1.1594851
1.1597571
1.1601785
1.1607981
1.1614457
1.1621783
1.1634249
1.1656786
1.1672015
1.1680799
1.168558
1.1688913
0.90234719
0.9014114
0.90689012
0.92694855
0.94788103
0.95404169
0.95245101
0.95640798
0.95683319
0.96115988
0.96350829
0.96885591
0.97343959
0.98052309
0.98797531
0.99770599
1.008808
1.0222329
1.0376525
1.0552642
1.0744546
1.0943192
1.113384
1.1302286
1.1438699
1.1540521
1.1607387
1.1643056
1.1656495
1.165718
1.1650374
1.1639651
1.1629207
1.1622334
1.1616564
1.160843
1.1601264
1.1598604
1.1598237
1.160052
1.1604479
1.1610422
1.161645
1.1623745
1.1637454
1.1659942
1.167385
1.1681855
1.168621
1.1689391
0.90689939
0.90598324
0.91197195
0.93436249
0.95310767
0.95870916
0.95716622
0.96126162
0.96180402
0.96630323
0.96884342
0.97443207
0.97931632
0.98672789
0.99461062
1.0048025
1.016474
1.030501
1.046567
1.0647526
1.084323
1.1041943
1.1228141
1.1388197
1.1514386
1.1604979
1.1659346
1.1683608
1.1688895
1.1682999
1.1670738
1.1655691
1.1641962
1.1632711
1.1624778
1.1614475
1.1605987
1.160251
1.1601616
1.160344
1.1607164
1.1612824
1.1618413
1.162591
1.1641087
1.1662722
1.1675487
1.1682794
1.1686766
1.1689811
0.91154687
0.91065694
0.91724493
0.94195146
0.95821388
0.96348977
0.96200837
0.96625384
0.96692703
0.97161392
0.97436513
0.98021039
0.9854168
0.9931736
1.0015137
1.0121954
1.0244666
1.0391214
1.055841
1.0745732
1.0944385
1.1141835
1.1322122
1.1472838
1.1588445
1.1666501
1.1707895
1.1721606
1.1719491
1.1707093
1.1689683
1.1670616
1.1653886
1.1642503
1.1632494
1.1620154
1.1610454
1.1606221
1.1604947
1.160633
1.1609825
1.1615168
1.1620353
1.1628306
1.1645024
1.1665199
1.1676942
1.1683607
1.1687238
1.169017
0.91628713
0.91542498
0.92275145
0.94964191
0.96327796
0.96839741
0.96699462
0.97140126
0.97222096
0.977114
0.98009039
0.98620272
0.99175164
0.99987344
1.0087015
1.0199052
1.0328057
1.04811
1.0654803
1.0847121
1.104765
1.1242339
1.1415334
1.1556005
1.1660173
1.1724543
1.1752889
1.175771
1.1747973
1.1729463
1.1707247
1.1684451
1.1665008
1.1651723
1.1639711
1.1625468
1.1614658
1.1609761
1.1608219
1.1609187
1.1612452
1.1617441
1.1622277
1.1630919
1.1648995
1.1667544
1.167827
1.1684312
1.1687593
1.1690386
0.92117082
0.92031552
0.92856803
0.9573497
0.9683107
0.97345784
0.9721517
0.97672858
0.97770582
0.98281385
0.9860279
0.99241532
0.99833204
1.0068441
1.0161952
1.0279542
1.0415135
1.0574846
1.0754926
1.095158
1.1152705
1.1343056
1.1507517
1.1637615
1.1728841
1.1778734
1.1795102
1.1791601
1.1774436
1.1750168
1.1723479
1.1697248
1.1675373
1.1660396
1.1646449
1.1630415
1.1618611
1.1613165
1.161142
1.1612006
1.1615032
1.1619635
1.1624197
1.1633713
1.1652906
1.1669774
1.1679482
1.168491
1.1687856
1.1690527
0.92625414
0.925369
0.93477549
0.96497307
0.97347221
0.97870427
0.97749735
0.98224744
0.98338584
0.98870969
0.99218054
0.99885771
1.0051752
1.0141091
1.0240197
1.0363674
1.0506102
1.0672574
1.0858727
1.1058807
1.1259033
1.1443457
1.1598352
1.1717069
1.1793726
1.1828896
1.1835158
1.1823031
1.1798875
1.1769248
1.1738422
1.1709044
1.1685016
1.1668543
1.1652717
1.1634987
1.1622327
1.1616448
1.1614552
1.1614773
1.1617554
1.162175
1.1626136
1.163667
1.1656685
1.1671884
1.1680583
1.1685421
1.1688052
1.1690605
0.93150345
0.93057346
0.94139056
0.97266017
0.9788638
0.98412375
0.98301657
0.98794594
0.98925363
0.99480492
0.99855885
1.0055514
1.0123071
1.0216967
1.0322019
1.0451691
1.0601168
1.0774413
1.0966162
1.1168529
1.136621
1.1543208
1.1687718
1.1793522
1.1854423
1.1875836
1.1872692
1.1852102
1.1821377
1.1786779
1.1752139
1.1719899
1.1693983
1.1676194
1.165853
1.1639188
1.1625825
1.1619616
1.1617602
1.1617492
1.1620004
1.1623788
1.1628145
1.1639841
1.1660229
1.1673835
1.1681575
1.168586
1.1688208
1.1690643
0.93694518
0.93598392
0.94839374
0.98024207
0.98433937
0.98970696
0.98870141
0.99382062
0.99531873
1.0011171
1.0051908
1.0125266
1.0197592
1.0296362
1.0407675
1.0543827
1.0700504
1.0880398
1.1077007
1.1280258
1.1473648
1.1641881
1.1775204
1.1865994
1.1910579
1.1920255
1.1907442
1.1878827
1.1841996
1.1802818
1.1764682
1.1729859
1.1702315
1.1683372
1.1663896
1.1643035
1.1629131
1.1622675
1.1620525
1.1620187
1.162237
1.1625762
1.1630293
1.1643345
1.1663403
1.167558
1.1682455
1.1686244
1.1688344
1.1690657
0.94268319
0.94162975
0.95582137
0.98772037
0.98995387
0.99546214
0.99456298
0.99989285
1.0016092
1.0076834
1.0121129
1.0198174
1.0275609
1.0379535
1.0497411
1.0640309
1.0804293
1.0990546
1.1191045
1.1393553
1.1580939
1.1739244
1.1859903
1.193403
1.1962921
1.1961885
1.1939468
1.1903313
1.186083
1.1817449
1.1776123
1.1738986
1.1710058
1.1690101
1.1668814
1.164657
1.1632276
1.1625648
1.1623321
1.1622832
1.1624642
1.1627694
1.1632644
1.164724
1.1666109
1.1677108
1.1683232
1.1686574
1.1688465
1.1690659
0.94859777
0.94740481
0.96365082
0.99508001
0.99573085
1.0014162
1.0006441
1.0062095
1.0081727
1.0145438
1.0193596
1.027451
1.0357358
1.0466741
1.0591475
1.0741366
1.0912639
1.1104737
1.1307834
1.1507795
1.1687531
1.1834936
1.1940715
1.1997098
1.2012179
1.2000432
1.1968805
1.1925628
1.1877953
1.1830739
1.1786517
1.1747331
1.1717249
1.1696385
1.167325
1.1649865
1.163528
1.1628522
1.1626006
1.1625417
1.1626815
1.1629619
1.1635214
1.1651234
1.166849
1.1678444
1.1683913
1.1686872
1.1688574
1.1690653
0.95476629
0.95341149
0.97185804
1.0023058
1.0016933
1.0076039
1.0069908
1.0128154
1.015047
1.0217258
1.0269517
1.0354473
1.0443071
1.0558238
1.0690129
1.0847222
1.1025647
1.1222815
1.1426969
1.1622486
1.1793072
1.1928273
1.2016901
1.2055596
1.2058446
1.2035848
1.1995569
1.1945892
1.189347
1.1842776
1.1795938
1.1754957
1.1723931
1.170223
1.1677177
1.1653002
1.1638149
1.1631281
1.1628607
1.1627943
1.162889
1.1631571
1.1637969
1.1655101
1.1670666
1.167963
1.16845
1.1687106
1.1688659
1.1690641
0.9612417
0.95975354
0.98046223
1.0094802
1.0079427
1.0141022
1.0136597
1.0197414
1.0222456
1.0292361
1.0349032
1.0438286
1.0533013
1.0654328
1.0793655
1.095807
1.1143287
1.1344424
1.1547819
1.1737018
1.189711
1.2018014
1.2087805
1.2110284
1.2101338
1.2068201
1.2019841
1.1964195
1.1907466
1.1853629
1.1804446
1.1761914
1.1730136
1.1707641
1.1680677
1.1655961
1.1640887
1.1633932
1.163113
1.1630408
1.1630878
1.1633554
1.1640859
1.1658753
1.1672667
1.1680676
1.1684991
1.1687288
1.168872
1.1690623
0.96802238
0.96649389
0.98942308
1.0167827
1.0145205
1.0209155
1.020631
1.0269697
1.0297647
1.0370867
1.0432373
1.0526258
1.0627508
1.0755328
1.0902327
1.1074079
1.1265483
1.1469185
1.166984
1.1850936
1.1999282
1.2103036
1.2153324
1.2161775
1.2140648
1.2097608
1.2041764
1.1980668
1.1920049
1.1863388
1.1812115
1.1768262
1.1735897
1.1712632
1.1683809
1.1658751
1.1643501
1.1636485
1.163357
1.1632779
1.163282
1.1635535
1.1643884
1.1662125
1.1674474
1.1681584
1.1685416
1.1687451
1.1688749
1.1690596
0.975138
0.97371619
0.99865593
1.0244416
1.0213182
1.0279821
1.0278793
1.0345
1.0376361
1.045309
1.051991
1.0618772
1.0726927
1.0861578
1.1016413
1.1195312
1.139197
1.1596483
1.179233
1.1963628
1.2098238
1.2182595
1.2214205
1.2209572
1.2176479
1.2124167
1.2061446
1.1995414
1.1931307
1.1872124
1.1819003
1.1774047
1.1741242
1.1717222
1.168662
1.1661376
1.1646007
1.1638954
1.1635917
1.1634995
1.1634763
1.1637548
1.1647116
1.1665136
1.1676093
1.1682365
1.1685732
1.168753
1.1688764
1.169056
0.98236637
0.98132369
1.0079526
1.0318808
1.0283674
1.0353429
1.0354601
1.0423801
1.0458955
1.0539473
1.061205
1.0716238
1.0831618
1.0973417
1.1136139
1.132178
1.1522412
1.1725745
1.1914724
1.2074669
1.2192741
1.2256115
1.2271452
1.2253377
1.2208947
1.2148041
1.2079043
1.2008565
1.1941347
1.1879922
1.1825182
1.1779324
1.1746199
1.1721436
1.1689152
1.1663858
1.164842
1.1641346
1.1638188
1.1637069
1.1636678
1.1639652
1.1650644
1.166771
1.1677512
1.1683055
1.1686003
1.1687568
1.1688718
1.1690427
0.98988867
0.98957921
1.0174469
1.0393287
1.0357648
1.0430598
1.043415
1.0506497
1.0545928
1.0630417
1.0709178
1.0819024
1.094197
1.1091173
1.1261673
1.1453306
1.1656248
1.1856183
1.2036285
1.2183055
1.2281574
1.2324142
1.2324691
1.2293205
1.2238168
1.216936
1.2094679
1.2020227
1.1950254
1.188685
1.1830708
1.1784135
1.1750793
1.17253
1.1691446
1.1666213
1.1650741
1.1643638
1.1640345
1.163907
1.163856
1.1641902
1.1654379
1.1669881
1.1678736
1.168366
1.1686252
1.1687592
1.1688629
1.1690253
0.99762776
0.99849714
1.0270265
1.0471475
1.0435206
1.0511491
1.0517812
1.0593465
1.0637595
1.0726316
1.0811685
1.0927546
1.105836
1.1215143
1.1393099
1.158963
1.1792882
1.1987162
1.2156443
1.228737
1.236405
1.2387629
1.2373621
1.2329209
1.2264326
1.2188307
1.2108513
1.2030531
1.1958132
1.1892991
1.1835647
1.1788526
1.1755051
1.1728845
1.1693545
1.1668454
1.1652962
1.1645816
1.1642399
1.1641014
1.1640415
1.1644396
1.1657998
1.1671881
1.1679796
1.1684119
1.1686386
1.1687573
1.1688506
1.1690045
1.0056345
1.0081633
1.0367641
1.0554454
1.0516837
1.0596571
1.0605998
1.0685112
1.0734403
1.0827586
1.0919989
1.1042256
1.1181182
1.1345585
1.1530349
1.1730238
1.1931489
1.2117836
1.2274401
1.2386002
1.2440003
1.2446907
1.2417989
1.2361508
1.2287571
1.2205026
1.212067
1.2039581
1.1965062
1.189841
1.1840051
1.1792534
1.1758994
1.1732102
1.1695485
1.1670584
1.1655072
1.1647878
1.1644363
1.1642913
1.1642245
1.1647081
1.1661426
1.167373
1.1680734
1.1684497
1.1686459
1.1687499
1.1688356
1.1689813
1.0139523
1.0185667
1.0466947
1.0640313
1.0602981
1.0686174
1.0699059
1.0781824
1.0836793
1.0934692
1.1034574
1.1163613
1.1310819
1.1482658
1.1673218
1.187452
1.2071309
1.224745
1.2388717
1.2478053
1.2510399
1.2501499
1.2458025
1.2390309
1.2308116
1.2219707
1.2131308
1.2047498
1.1971138
1.1903182
1.1843981
1.17962
1.1762651
1.1735111
1.1697295
1.1672601
1.1657062
1.1649829
1.1646249
1.1644777
1.1644046
1.1649797
1.1664609
1.1675418
1.1681567
1.1684824
1.1686492
1.1687403
1.1688191
1.1689566
1.0225727
1.029857
1.0568088
1.0730311
1.0693887
1.0780595
1.0797408
1.0884056
1.0945243
1.1048174
1.1155956
1.129214
1.1447619
1.1626392
1.1821245
1.2021609
1.2211376
1.2375066
1.2497558
1.2562719
1.2576256
1.2550903
1.2493825
1.2415786
1.2326134
1.2232501
1.2140549
1.205438
1.1976438
1.1907366
1.1847482
1.1799554
1.1766043
1.1737905
1.1698992
1.1674495
1.1658927
1.1651676
1.1648077
1.1646629
1.1645854
1.1652732
1.1667467
1.1676898
1.1682262
1.1685093
1.1686512
1.1687295
1.1688016
1.1689306
1.0314091
1.0420735
1.0671267
1.0824688
1.0789959
1.0880315
1.090158
1.0992278
1.1060307
1.1168682
1.1284718
1.142831
1.1591822
1.1776621
1.1973812
1.2170622
1.2350781
1.2499536
1.2599526
1.264091
1.2636916
1.2595402
1.252564
1.2438191
1.2341848
1.2243592
1.2148541
1.2060341
1.1981047
1.1911033
1.1850609
1.1802632
1.1769199
1.1740519
1.170058
1.1676256
1.1660662
1.1653432
1.1649873
1.1648514
1.1647748
1.1655966
1.1669885
1.1678127
1.1682775
1.1685217
1.1686457
1.1687159
1.1687828
1.1689035
1.0405163
1.0551864
1.0777189
1.0924181
1.0891802
1.098582
1.1012326
1.1107041
1.118275
1.1296904
1.142146
1.1572561
1.1743523
1.1932924
1.2130016
1.2320462
1.2488377
1.2618733
1.2693577
1.2713631
1.2691912
1.2635075
1.2553665
1.2457728
1.2355437
1.2253127
1.2155398
1.206547
1.1985034
1.1914237
1.1853402
1.180546
1.1772141
1.1742978
1.1702048
1.1677874
1.1662274
1.1655121
1.1651668
1.1650462
1.1649764
1.165939
1.1671769
1.1679103
1.1683154
1.1685277
1.1686362
1.1686992
1.1687623
1.1688744
1.0498608
1.0691398
1.0886394
1.1029271
1.1000017
1.1097925
1.1130401
1.1229377
1.1313322
1.1433586
1.1566717
1.1725151
1.1902575
1.2094652
1.2288861
1.2470079
1.26231
1.2730845
1.2780098
1.278075
1.2741277
1.2670214
1.2578189
1.2474657
1.2367118
1.2261281
1.2161256
1.2069869
1.1988479
1.1917038
1.1855907
1.1808072
1.1774897
1.1745303
1.170338
1.1679352
1.1663791
1.1656783
1.1653491
1.1652467
1.1651883
1.1662542
1.1673438
1.167992
1.1683461
1.1685301
1.1686234
1.1686794
1.1687393
1.168843
1.0595258
1.0839626
1.0999967
1.1141156
1.1115758
1.1217629
1.1256759
1.1360158
1.1452732
1.1579343
1.1720908
1.1886217
1.2068585
1.2260849
1.244909
1.2618095
1.2752664
1.2834547
1.286008
1.2841623
1.278517
1.2701035
1.259945
1.248919
1.2377069
1.2268193
1.2166222
1.2073617
1.1991442
1.1919486
1.1858162
1.1810491
1.1777487
1.1747499
1.1704565
1.1680712
1.1665255
1.165846
1.1655355
1.1654484
1.1654087
1.1665469
1.1674927
1.1680627
1.16837
1.1685279
1.1686067
1.1686568
1.1687138
1.1688092
1.0698079
1.0999253
1.1119092
1.1260913
1.1240037
1.1345753
1.1392258
1.1500105
1.1601602
1.1734749
1.1884346
1.2055582
1.2240847
1.2430354
1.2609433
1.2763188
1.287499
1.2929653
1.2933951
1.2896092
1.282389
1.2727875
1.2617763
1.2501591
1.2385496
1.2274021
1.2170415
1.2076808
1.1993993
1.1921636
1.1860206
1.1812747
1.177993
1.1749566
1.1705613
1.1681995
1.1666714
1.1660172
1.1657243
1.1656447
1.165638
1.1668118
1.1676277
1.1681238
1.1683869
1.1685204
1.1685871
1.1686318
1.1686864
1.1687737
1.0805921
1.1169732
1.1245013
1.1389426
1.1373821
1.1483158
1.1537659
1.1649968
1.1760526
1.1900258
1.2057158
1.223287
1.2418324
1.2601724
1.276826
1.2903124
1.298826
1.3017159
1.3000837
1.2944376
1.2857692
1.2751017
1.2633382
1.2512068
1.2392558
1.2278884
1.2173925
1.2079509
1.1996188
1.1923531
1.1862073
1.181486
1.1782239
1.17515
1.1706558
1.1683244
1.1668192
1.1661901
1.1659109
1.1658328
1.1658757
1.1670509
1.1677471
1.1681744
1.1683992
1.1685128
1.1685687
1.1686064
1.1686567
1.1687331
1.0920902
1.1350603
1.1379747
1.1527474
1.151791
1.1630153
1.1693817
1.1810588
1.1930079
1.2076244
1.2239224
1.2417228
1.259965
1.2773385
1.2923925
1.3035395
1.3091914
1.3097854
1.3060471
1.2986777
1.2886976
1.277083
1.2646615
1.2520859
1.2398434
1.2282913
1.2176852
1.2081799
1.1998089
1.192522
1.1863798
1.1816855
1.1784429
1.1753306
1.170745
1.1684491
1.1669688
1.1663628
1.1660957
1.1660171
1.1661236
1.1672566
1.1678486
1.1682142
1.1684059
1.1685035
1.1685528
1.1685874
1.1686355
1.1686846
1.1049431
1.1540651
1.1524211
1.1675057
1.1672522
1.1787438
1.186116
1.1982753
1.2110879
1.2262899
1.2430112
1.2607462
1.2783097
1.2943386
1.3074053
1.3157787
1.3186913
1.3170653
1.3113105
1.3023602
1.2912077
1.2787619
1.2657705
1.2528148
1.2403262
1.2286226
1.217929
1.2083744
1.1999746
1.1926743