/*--------------------------------*- C++ -*----------------------------------*\
  =========                 |
  \\      /  F ield         | OpenFOAM: The Open Source CFD Toolbox
   \\    /   O peration     | Website:  https://openfoam.org
    \\  /    A nd           | Version:  8
     \\/     M anipulation  |
\*---------------------------------------------------------------------------*/
FoamFile
{
    version     2.0;
    format      ascii;
    class       surfaceVectorField;
    location    "0.159995";
    object      rhoUf;
}
// * * * * * * * * * * * * * * * * * * * * * * * * * * * * * * * * * * * * * //

dimensions      [1 -2 -1 0 0 0 0];

internalField   nonuniform List<vector> 
39600
(
(208.64052 6.6927493e-17 -4.8875586)
(194.35926 1.2440376e-16 -5.2086761)
(194.40569 1.1969678e-16 -4.4565951)
(234.72914 -3.6255977e-22 -5.5406228)
(225.56499 -9.0026919e-17 -5.6987427)
(225.322 2.4649969e-22 -4.8106131)
(253.90208 2.7252139e-17 -6.0490515)
(245.85271 7.2566574e-17 -6.3114469)
(245.40753 0 -5.3482457)
(271.72599 -3.8362384e-17 -6.5538759)
(263.82038 2.9114094e-17 -6.8457208)
(263.19714 3.1441854e-17 -5.8100651)
(289.84312 -2.5368514e-18 -7.1094518)
(281.62518 -7.7144348e-17 -7.4073069)
(280.78698 -8.1895035e-17 -6.297829)
(307.7354 2.7641194e-17 -7.7240036)
(300.32727 8.9723066e-17 -8.016884)
(299.1952 9.5169914e-17 -6.8251157)
(319.21345 -5.5832978e-17 -8.1192104)
(317.12087 -7.7550628e-17 -8.830834)
(316.54694 -8.2181776e-17 -7.5720667)
(321.29093 3.6069925e-17 -8.17177)
(321.72821 3.3938969e-17 -8.6323703)
(321.72104 3.4219999e-17 -7.4012179)
(321.08646 4.5956442e-19 -8.1404474)
(320.48068 -3.291849e-20 -9.067321)
(320.56135 -1.2394936e-17 -7.7797818)
(321.28342 -5.3283663e-19 -8.1272682)
(321.48394 0 -8.4745318)
(321.50206 1.0744866e-17 -7.2129903)
(321.14761 -6.3937475e-19 -8.1003758)
(320.72477 1.8756268e-17 -9.1352806)
(320.75124 8.4139288e-18 -7.8067132)
(321.29673 0 -8.0894759)
(321.34317 -3.5326392e-17 -8.4135129)
(321.33473 1.8929039e-20 -7.1087961)
(321.30701 3.9998409e-20 -8.0609632)
(320.94557 1.3858446e-17 -9.106256)
(320.96922 -6.3663779e-18 -7.7397183)
(321.46921 -1.8765176e-20 -8.0350713)
(321.39086 4.3506678e-20 -8.4315567)
(321.39674 -3.8302004e-20 -7.0718479)
(321.55335 -8.0299394e-20 -8.001612)
(321.22148 -2.4925913e-18 -9.0017306)
(321.23542 -7.6020985e-20 -7.5881411)
(321.75589 0 -7.9718386)
(321.59229 -1.6219502e-17 -8.4872421)
(321.59018 1.1953312e-19 -7.0564038)
(321.93239 2.4965265e-18 -7.9421983)
(321.59675 1.3478856e-17 -8.8832806)
(321.5923 -3.2423261e-18 -7.4028455)
(322.19717 3.0066245e-18 -7.9105378)
(321.95639 -1.1539364e-19 -8.5544456)
(321.93243 2.9281982e-18 -7.033142)
(322.45448 0 -7.8721293)
(322.11656 0 -8.7891274)
(322.09762 -2.2458186e-20 -7.2093325)
(322.78512 -1.1826479e-17 -7.8280506)
(322.49691 0 -8.6051137)
(322.47574 1.9818716e-18 -6.9591098)
(323.127 -9.4469438e-18 -7.778533)
(322.77962 -1.9574714e-17 -8.720915)
(322.75701 -1.2806678e-17 -7.0014929)
(323.50345 -6.6515378e-18 -7.7197998)
(323.17772 1.090338e-17 -8.6262015)
(323.15218 4.8144783e-18 -6.823726)
(323.84737 -8.2728274e-18 -7.6487429)
(323.50538 -1.8477601e-17 -8.661068)
(323.47685 -1.3182915e-17 -6.7781688)
(324.11991 8.3719091e-18 -7.5577705)
(323.82217 2.3219803e-17 -8.5878486)
(323.78933 7.1381369e-18 -6.6281211)
(324.21771 0 -7.4455508)
(323.98655 6.5845449e-18 -8.5389462)
(323.94528 0 -6.5257059)
(324.04604 9.5037132e-18 -7.318279)
(323.94618 0 -8.416941)
(323.89092 8.7030779e-19 -6.3905216)
(323.50724 1.7847541e-17 -7.1692973)
(323.58114 1.0456227e-17 -8.2639243)
(323.51278 7.595495e-18 -6.2899452)
(322.55807 6.1643617e-18 -6.9736365)
(322.83823 -9.0780495e-18 -8.0266373)
(322.75996 7.1645971e-18 -6.1783859)
(321.22546 1.6218538e-17 -6.6824035)
(321.69443 -5.4496446e-17 -7.6871513)
(321.62506 3.6249616e-18 -6.0309347)
(319.61313 6.3137747e-18 -6.2493956)
(320.22472 -4.5613999e-17 -7.1987829)
(320.17481 1.7612921e-17 -5.7742259)
(317.85815 -3.2221464e-17 -5.6492686)
(318.54829 5.3708542e-17 -6.545195)
(318.52269 -1.0913675e-17 -5.3616789)
(316.08922 -1.5770438e-17 -4.9040831)
(316.79397 1.4577028e-17 -5.7373515)
(316.7905 -8.0816125e-18 -4.779317)
(314.41242 0 -4.0667156)
(315.07905 1.1504694e-17 -4.8236753)
(315.08969 0 -4.0628625)
(312.90225 0 -3.211158)
(313.49426 -8.0908209e-17 -3.8776806)
(313.5102 -1.7058461e-19 -3.2824994)
(311.5955 1.9011482e-17 -2.3911214)
(312.09994 -1.4052487e-17 -2.9636699)
(312.1157 1.4792979e-19 -2.5047722)
(310.48645 9.2393235e-18 -1.6482758)
(310.90954 3.1982306e-17 -2.1238532)
(310.92088 1.2876436e-17 -1.7755088)
(309.55453 -1.7982557e-17 -0.997784)
(309.9012 3.3135587e-19 -1.3886684)
(309.90665 -7.4446343e-18 -1.1271598)
(308.7658 -8.2001703e-17 -0.44061538)
(309.05991 5.4745152e-20 -0.76196058)
(309.05927 0 -0.56541388)
(308.09944 -1.2674429e-16 0.035484322)
(308.36195 1.2192336e-16 -0.22851015)
(308.35713 -3.615093e-17 -0.080540141)
(307.55263 -3.9286822e-17 0.43518933)
(307.78801 1.2542117e-16 0.22159226)
(307.78025 -1.1482481e-17 0.3321197)
(307.10116 -7.8772739e-17 0.76606471)
(307.30793 1.851057e-16 0.59558272)
(307.29828 -3.0817065e-18 0.67749509)
(306.71621 -8.4523488e-17 1.0324877)
(306.90597 -3.0337012e-17 0.89885427)
(306.89519 -1.8601642e-17 0.96022092)
(306.38515 7.3374601e-18 1.233774)
(306.54581 -1.9035289e-16 1.1393502)
(306.53438 -8.4282061e-22 1.1861358)
(306.102 -3.434236e-17 1.3522964)
(306.2402 1.4852375e-16 1.3052849)
(306.22877 1.7342074e-18 1.3437578)
(305.83955 2.2551808e-18 1.3696959)
(305.95739 -9.7781577e-17 1.3710574)
(305.94793 -8.1051072e-18 1.4065356)
(305.62783 7.6754818e-17 1.2591937)
(305.70357 -1.7331099e-17 1.3244073)
(305.69362 9.731343e-18 1.3527338)
(305.60046 -2.9557749e-17 1.5964598)
(305.50711 -9.4309903e-17 1.1532454)
(305.54011 2.4770179e-18 1.1789142)
(305.4796 -4.5766177e-17 0.64264098)
(305.3682 8.014543e-17 0.86370627)
(305.32147 -6.3514651e-19 0.87811841)
(305.44629 -2.2502187e-17 1.3278271)
(305.46213 3.8876551e-18 0.40017166)
(305.52067 0 0.43727933)
(304.82441 4.5364362e-17 -0.3191581)
(304.76955 -1.0019327e-17 -0.2989005)
(208.64361 -1.2616747e-17 -5.7053887)
(194.43448 6.2058266e-17 -5.9761204)
(234.97371 -3.1754429e-17 -6.4584561)
(225.89616 -8.8246845e-17 -6.6042392)
(254.32708 7.7745221e-17 -7.0452427)
(246.39094 7.0844444e-17 -7.3006106)
(272.32893 -5.2087704e-19 -7.6260853)
(264.53993 5.1459874e-19 -7.9145403)
(290.66678 0 -8.2625198)
(282.54766 0 -8.5576707)
(308.46586 0 -8.9507237)
(301.54833 7.4673704e-19 -9.258165)
(319.48081 1.4434507e-18 -9.3764861)
(317.6983 0 -10.141235)
(321.27898 1.3282273e-18 -9.4510799)
(321.85645 3.5357363e-17 -9.9040015)
(321.02807 -4.8306815e-19 -9.4374663)
(320.46135 -2.95754e-17 -10.395915)
(321.2376 1.73722e-17 -9.444035)
(321.51141 2.4310043e-17 -9.76081)
(321.11473 -1.0887829e-17 -9.4348332)
(320.71913 -2.6351677e-18 -10.495686)
(321.27755 -2.5643308e-17 -9.4408488)
(321.38704 -1.546262e-17 -9.7279492)
(321.23914 1.4949641e-17 -9.4316281)
(320.95699 2.9757367e-18 -10.487698)
(321.39587 -2.1731913e-18 -9.4287629)
(321.41516 0 -9.7920812)
(321.4693 -1.7175146e-17 -9.4272609)
(321.24571 2.4763639e-17 -10.424244)
(321.66372 -5.4052051e-18 -9.4297637)
(321.62413 -4.8767009e-17 -9.9164683)
(321.82734 1.2023187e-17 -9.439847)
(321.63495 2.6892741e-17 -10.366627)
(322.08337 -3.0579486e-18 -9.4536424)
(321.99676 -8.5645903e-18 -10.070182)
(322.34066 0 -9.4757958)
(322.16042 -9.465066e-20 -10.363217)
(322.66977 -5.9701089e-18 -9.4988711)
(322.54104 -8.1825366e-18 -10.239287)
(323.00841 -2.2040126e-18 -9.5273124)
(322.82531 2.0623215e-17 -10.426889)
(323.37974 1.7702117e-18 -9.5485944)
(323.22054 5.5878797e-18 -10.410319)
(323.71882 8.8099416e-18 -9.5570107)
(323.54491 -1.4356434e-17 -10.523429)
(323.98859 2.2902078e-17 -9.5319773)
(323.85522 7.2188903e-18 -10.524298)
(324.09146 7.1630671e-18 -9.4571573)
(324.01432 6.4632565e-18 -10.528495)
(323.93366 0 -9.3149029)
(323.97015 0 -10.421587)
(323.40862 -1.417815e-17 -9.085014)
(323.60195 -3.8462974e-17 -10.221181)
(322.47153 -6.4526411e-17 -8.737082)
(322.8443 -3.1946831e-17 -9.8652429)
(321.15582 -1.1621471e-16 -8.2400882)
(321.69103 -3.887227e-17 -9.3425687)
(319.55926 -8.3130654e-18 -7.5752631)
(320.20741 6.8131009e-17 -8.6295479)
(317.81429 1.0373445e-16 -6.7458201)
(318.51574 -1.8362307e-18 -7.7386682)
(316.05152 4.1799146e-17 -5.7894869)
(316.751 -7.3203284e-17 -6.7066846)
(314.38048 -5.9226238e-17 -4.7699334)
(315.03133 9.2404887e-17 -5.5962752)
(312.87705 -1.0170998e-16 -3.7614563)
(313.44922 1.5625257e-16 -4.4846523)
(311.57587 -5.9721587e-18 -2.8163746)
(312.06176 -1.4096679e-16 -3.4339045)
(310.47128 2.644853e-17 -1.9714023)
(310.88104 1.8440526e-16 -2.4825989)
(309.54168 1.8233342e-17 -1.2426792)
(309.8829 1.486453e-16 -1.6591271)
(308.7632 1.8956115e-16 -0.62657747)
(309.05046 2.1225647e-16 -0.96544558)
(308.11821 3.7255056e-16 -0.10393017)
(308.35923 7.268001e-17 -0.38255604)
(307.58545 3.4240216e-16 0.32999411)
(307.79037 2.4929765e-16 0.10450728)
(307.14093 2.5744259e-16 0.68694592)
(307.31406 2.9803175e-17 0.50767806)
(306.75798 -1.1804637e-16 0.97241714)
(306.91426 6.072416e-17 0.8325171)
(306.42225 -8.7279e-17 1.1870162)
(306.55569 1.5691113e-16 1.0886285)
(306.12623 1.127844e-16 1.3147629)
(306.25056 2.4996679e-17 1.2641553)
(305.85376 -1.2656872e-16 1.3366079)
(305.9657 3.6185972e-17 1.3349878)
(305.6179 -1.8059865e-16 1.2355384)
(305.71256 -8.1616317e-17 1.2974778)
(305.46673 -3.2398313e-18 1.0848803)
(305.51075 1.1850695e-17 1.129964)
(305.37403 1.3887075e-16 0.6304836)
(305.38419 3.7759238e-17 0.85130691)
(305.32248 7.6765705e-17 1.2209794)
(305.40775 3.9434845e-18 0.3675312)
(304.8738 -7.2798004e-17 -0.34674476)
(208.86703 -3.2256179e-19 -6.5521288)
(194.53724 -5.1736999e-19 -6.7644034)
(235.44845 -3.8608004e-19 -7.4231049)
(226.28518 9.3548491e-17 -7.5328912)
(254.97974 8.8665149e-19 -8.0978529)
(246.97403 -1.5096564e-16 -8.3166111)
(273.1696 1.0627609e-18 -8.7633012)
(265.30644 6.484271e-17 -9.0134973)
(291.76897 6.7120821e-19 -9.4898997)
(283.52849 0 -9.7426904)
(309.3989 8.0469445e-19 -10.259628)
(302.87618 4.719867e-17 -10.541746)
(319.7884 3.036959e-17 -10.705303)
(318.2474 -1.2670067e-18 -11.482729)
(321.2643 1.0235555e-17 -10.766654)
(321.92072 -2.4990822e-19 -11.20066)
(320.93481 -9.563531e-18 -10.756916)
(320.46697 -2.8456812e-17 -11.74516)
(321.14247 6.8700793e-18 -10.773597)
(321.55888 -4.1012319e-18 -11.0613)
(321.00867 -6.0957668e-18 -10.773776)
(320.73489 2.1771269e-18 -11.865912)
(321.17195 1.1043486e-17 -10.783627)
(321.41395 1.4294306e-17 -11.054642)
(321.15301 -1.1395689e-17 -10.794821)
(320.97982 -1.3911551e-17 -11.881317)
(321.32592 2.4362035e-17 -10.817514)
(321.45266 -6.0091019e-18 -11.165818)
(321.41446 -2.5419147e-19 -10.844996)
(321.27973 2.1504093e-17 -11.855179)
(321.62625 -2.3223633e-17 -10.882029)
(321.6662 -6.9671224e-18 -11.35482)
(321.80495 9.6151127e-18 -10.932044)
(321.67925 -7.5805331e-18 -11.85506)
(322.07485 -6.3461532e-18 -10.992768)
(322.04404 2.506426e-19 -11.59175)
(322.34194 -7.4465116e-18 -11.070758)
(322.20898 -2.9545719e-20 -11.937523)
(322.67574 1.5476948e-17 -11.158367)
(322.58667 -2.4562598e-17 -11.869497)
(323.01133 2.9515641e-17 -11.258868)
(322.86833 3.3438887e-17 -12.12109)
(323.36882 -8.5300952e-18 -11.355751)
(323.25441 -1.147167e-17 -12.176161)
(323.68307 -1.7775501e-17 -11.438786)
(323.56842 -9.4695385e-18 -12.360335)
(323.91769 -8.8438377e-18 -11.476471)
(323.86257 2.4883142e-17 -12.430021)
(323.97981 0 -11.438789)
(324.00461 -1.3978516e-17 -12.484186)
(323.78433 -3.4357504e-17 -11.285198)
(323.9425 2.3229074e-17 -12.393759)
(323.24603 -5.6532427e-17 -10.978185)
(323.55749 -8.4144284e-18 -12.152601)
(322.3192 -6.1091301e-18 -10.488055)
(322.78922 -8.1536912e-17 -11.687496)
(321.01319 1.3261119e-16 -9.7949872)
(321.6214 6.7320219e-17 -10.989537)
(319.42164 8.1210267e-17 -8.9018828)
(320.12582 1.4225934e-16 -10.056658)
(317.68624 -1.695354e-16 -7.8396451)
(318.42593 -6.1773899e-17 -8.9305137)
(315.94021 -3.9741706e-17 -6.6709163)
(316.6596 -1.1502697e-16 -7.6740733)
(314.28519 2.9917135e-16 -5.4678823)
(314.94549 -1.5096382e-18 -6.3655098)
(312.7952 1.4798782e-16 -4.3058638)
(313.37467 9.6661196e-17 -5.0875418)
(311.50942 1.3718879e-17 -3.2344485)
(312.00076 -2.6156474e-17 -3.9004251)
(310.42331 3.0953553e-16 -2.2881714)
(310.83494 -1.7775729e-16 -2.8384696)
(309.51231 3.34564e-16 -1.4808794)
(309.85127 -1.7551462e-18 -1.9270065)
(308.75173 1.1117858e-16 -0.8056452)
(309.03103 2.2353617e-16 -1.1656225)
(308.11384 -6.9442695e-17 -0.24081729)
(308.3486 1.5158997e-16 -0.53322164)
(307.58087 -3.7801513e-17 0.22719188)
(307.78665 -1.2646272e-16 -0.010781884)
(307.13817 -1.6992146e-16 0.6089541)
(307.31608 -1.8519306e-16 0.41970226)
(306.75714 3.2456444e-16 0.91280914)
(306.91969 3.0408729e-17 0.76553576)
(306.42434 2.8407553e-16 1.1405884)
(306.56279 1.7913491e-16 1.0366801)
(306.13061 -5.2932213e-17 1.2755593)
(306.25672 1.3946999e-16 1.2217412)
(305.85898 9.4662467e-17 1.303943)
(305.97276 1.0945088e-16 1.2979806)
(305.62915 1.0130419e-16 1.2108602)
(305.72025 2.678635e-16 1.2710432)
(305.46099 5.0120828e-17 0.99629703)
(305.51849 1.0775075e-16 1.1057143)
(305.39699 -9.4882253e-17 0.61597056)
(305.3947 -2.39807e-16 0.83378583)
(305.33853 -1.3069368e-16 1.0917693)
(305.35768 0 0.33470728)
(304.91755 -5.3841576e-17 -0.37022023)
(209.1151 8.3969728e-17 -7.4061094)
(194.65999 1.3509468e-16 -7.5736361)
(235.91488 -3.4551245e-17 -8.3915463)
(226.67544 -4.5261451e-18 -8.4742911)
(255.62932 -1.0523592e-16 -9.1521509)
(247.56261 -1.4801599e-16 -9.3522411)
(274.01269 6.8832173e-17 -9.9011199)
(266.09045 6.2378186e-17 -10.13379)
(292.88429 4.1771292e-17 -10.718295)
(284.53413 0 -10.951818)
(310.33884 4.8947414e-17 -11.564939)
(304.25512 4.6934253e-17 -11.851774)
(320.05148 -3.1252025e-17 -12.025941)
(318.76448 1.0121654e-19 -12.83897)
(321.25884 -3.5838473e-17 -12.083903)
(321.95772 -3.4731024e-17 -12.512122)
(320.98592 -2.5023669e-17 -12.085541)
(320.49362 0 -13.117686)
(321.21031 -9.1743439e-18 -12.112483)
(321.61117 -2.405377e-17 -12.379937)
(321.06127 2.1145478e-17 -12.125929)
(320.76514 2.7927547e-17 -13.257485)
(321.22985 -7.8746206e-18 -12.157697)
(321.46058 -4.2204552e-18 -12.401453)
(321.21294 -9.2732323e-18 -12.188266)
(321.01768 -3.5100572e-18 -13.297406)
(321.38801 -1.0985772e-17 -12.233115)
(321.50396 6.3649933e-18 -12.559599)
(321.47463 1.7224288e-17 -12.286728)
(321.3268 -4.898413e-18 -13.304463)
(321.68591 8.3733092e-18 -12.354431)
(321.72048 1.6111591e-17 -12.81005)
(321.86259 -1.7370963e-17 -12.440612)
(321.73425 -1.3421284e-17 -13.357414)
(322.13088 6.4506424e-18 -12.544119)
(322.10031 5.7180006e-18 -13.125052)
(322.39505 -1.4774163e-17 -12.671888)
(322.2664 -9.9404132e-18 -13.518781)
(322.72315 -1.1771526e-17 -12.81603)
(322.63979 5.6320264e-19 -13.501496)
(323.05101 -2.9477828e-18 -12.979562)
(322.9168 -7.4747428e-18 -13.809495)
(323.39699 -1.2563927e-17 -13.143307)
(323.29008 -3.5267963e-17 -13.928378)
(323.69693 2.9415242e-17 -13.292751)
(323.58857 -3.0021362e-17 -14.174993)
(323.91372 2.3226673e-17 -13.387519)
(323.85885 -1.1358241e-18 -14.305448)
(323.95681 5.5309536e-18 -13.384328)
(323.97346 -1.3727825e-17 -14.402879)
(323.74144 5.1610804e-17 -13.223102)
(323.88002 2.2831311e-17 -14.325577)
(323.17579 -2.6328183e-17 -12.849753)
(323.46473 2.8941078e-17 -14.045809)
(322.21849 -2.3103481e-17 -12.224031)
(322.67034 -6.4690702e-17 -13.477835)
(320.89666 6.969126e-17 -11.338871)
(321.48442 5.3569467e-17 -12.611959)
(319.30595 2.0903535e-17 -10.221386)
(319.97923 1.1475528e-17 -11.465552)
(317.57604 -2.7095928e-18 -8.9311013)
(318.27872 9.2996847e-18 -10.109054)
(315.83557 -8.8690312e-17 -7.5500993)
(316.52087 1.044525e-16 -8.6313628)
(314.19218 -2.1212885e-16 -6.16308)
(314.82178 -9.2737345e-17 -7.1261621)
(312.71829 -6.3213568e-17 -4.8478046)
(313.27052 -1.0838759e-16 -5.6831399)
(311.44654 -2.0022252e-16 -3.6519299)
(311.91707 8.4720163e-17 -4.3614744)
(310.3701 -5.0572386e-16 -2.605519)
(310.77166 -1.7002453e-17 -3.1908758)
(309.4709 -1.3648524e-16 -1.7182779)
(309.8065 -4.0058137e-16 -2.1933065)
(308.72485 2.7174205e-16 -0.98395107)
(309.00174 -1.768433e-16 -1.3653506)
(308.105 1.2556676e-16 -0.37578045)
(308.33056 -1.19693e-17 -0.68257007)
(307.58535 -2.6672158e-16 0.12339672)
(307.77685 -2.2275637e-16 -0.12417983)
(307.14644 -9.4946872e-18 0.52998016)
(307.3128 8.433856e-20 0.33240711)
(306.76828 -1.3185729e-16 0.8515931)
(306.92191 2.5899477e-16 0.69801514)
(306.43529 3.9082253e-17 1.0925365)
(306.56716 -1.679359e-16 0.98336633)
(306.13806 3.0555817e-16 1.234499)
(306.2611 1.7248717e-17 1.1779422)
(305.86534 2.6525872e-16 1.271448)
(305.97867 -1.1862754e-17 1.2602692)
(305.63422 2.9263447e-16 1.1854249)
(305.72672 -1.4770935e-17 1.238729)
(305.46736 -1.4478762e-16 0.97232924)
(305.52568 -1.1419087e-19 1.0812724)
(305.36222 -1.7119783e-16 0.5981646)
(305.40455 1.4236139e-18 0.81244854)
(305.28592 8.4104334e-17 0.97394379)
(305.31212 0 0.3020861)
(304.95552 9.3541363e-17 -0.38996012)
(209.24935 5.9337884e-17 -8.2765228)
(194.71057 2.7038783e-16 -8.3962743)
(236.33785 -1.0420917e-16 -9.387481)
(227.02252 -1.9072329e-16 -9.428554)
(256.27797 -6.4972403e-19 -10.241834)
(248.12719 -4.7429564e-21 -10.406965)
(274.8873 0 -11.080923)
(266.8707 6.7210947e-17 -11.277715)
(294.06958 1.3970453e-18 -11.994865)
(285.54623 0 -12.190219)
(311.32546 2.8785495e-18 -12.914651)
(305.66292 5.3981285e-17 -13.195645)
(320.34646 -5.8723521e-19 -13.380912)
(319.21176 -3.9697189e-17 -14.21861)
(321.29899 -2.4351379e-18 -13.442676)
(322.02393 -2.2065389e-18 -13.84394)
(320.99662 2.8278567e-18 -13.448232)
(320.51608 -3.0858316e-17 -14.513825)
(321.22143 8.1244418e-18 -13.482354)
(321.66062 3.020948e-18 -13.72083)
(321.0873 5.6697304e-18 -13.506409)
(320.79899 2.1208995e-17 -14.674098)
(321.26553 -1.0673155e-20 -13.550792)
(321.51524 -1.3459085e-17 -13.77)
(321.25403 1.0993748e-17 -13.598636)
(321.06433 1.4914957e-17 -14.73392)
(321.43511 1.3210436e-17 -13.664132)
(321.56309 5.7329046e-18 -13.972868)
(321.52536 -7.6657122e-18 -13.74272)
(321.38221 0 -14.771364)
(321.7421 -2.8405505e-18 -13.840222)
(321.78204 -1.7083439e-17 -14.282897)
(321.92296 7.6068077e-18 -13.961406)
(321.79664 -7.6049075e-18 -14.87429)
(322.19319 -9.0548088e-18 -14.104554)
(322.16276 1.21154e-17 -14.671689)
(322.45659 4.2138502e-18 -14.278113)
(322.32802 -9.7925455e-18 -15.108883)
(322.7795 5.4427172e-18 -14.473593)
(322.6943 1.6423254e-17 -15.138664)
(323.09732 -3.6817227e-17 -14.693568)
(322.96355 -2.8391382e-17 -15.496961)
(323.42558 -5.2831691e-17 -14.916704)
(323.31978 5.9505044e-19 -15.673338)
(323.70026 -6.2496206e-17 -15.124192)
(323.59717 1.0124903e-18 -15.97452)
(323.88308 -3.631675e-17 -15.267852)
(323.83604 -3.278225e-17 -16.157371)
(323.88606 0 -15.291864)
(323.91338 0 -16.289429)
(323.62835 0 -15.118954)
(323.77664 9.6884516e-17 -16.217875)
(323.02693 -1.8475214e-19 -14.678948)
(323.31898 7.0984924e-17 -15.894949)
(322.04603 -2.2637064e-19 -13.923525)
(322.48953 5.8525406e-17 -15.224053)
(320.71154 1.6838361e-19 -12.853559)
(321.28134 -3.8213928e-19 -14.194932)
(319.118 2.0731445e-19 -11.517987)
(319.76874 -2.6541982e-16 -12.841852)
(317.39701 1.0577365e-16 -10.003742)
(318.07474 0 -11.261421)
(315.67553 1.2032766e-16 -8.4138607)
(316.33465 1.3278816e-16 -9.5675115)
(314.0555 1.1643038e-17 -6.8455563)
(314.66025 -2.3598888e-17 -7.8697868)
(312.60634 1.7976017e-17 -5.3795516)
(313.13697 4.6372923e-17 -6.2652638)
(311.3594 2.7747084e-16 -4.0615964)
(311.81079 -2.8587748e-17 -4.8122566)
(310.30714 1.2868363e-16 -2.9174472)
(310.69104 1.7312839e-16 -3.5356674)
(309.42428 -4.6503845e-16 -1.9540398)
(309.74886 -2.8353888e-16 -2.4545743)
(308.68958 -4.7742321e-16 -1.1598151)
(308.96286 -5.9432545e-16 -1.5627154)
(308.08212 -3.3540265e-16 -0.50866158)
(308.30539 -3.0070608e-16 -0.83076602)
(307.57528 1.8338679e-17 0.021901803)
(307.76147 -4.214653e-16 -0.23608921)
(307.14632 2.3891171e-16 0.45139268)
(307.30483 3.3174464e-16 0.24652893)
(306.77125 2.7151951e-16 0.79012055)
(306.91914 1.4890504e-17 0.63078476)
(306.43877 -2.1100414e-16 1.0429925)
(306.56753 -2.2340708e-17 0.92936011)
(306.14099 -2.9743029e-16 1.1925996)
(306.26369 2.9372482e-16 1.1329962)
(305.87006 -2.9280262e-16 1.2334603)
(305.98246 -4.3236405e-16 1.221707)
(305.64124 -3.1093901e-16 1.1532611)
(305.73164 -2.7672742e-16 1.1995017)
(305.47609 1.4732638e-16 0.94653627)
(305.53206 4.231768e-16 1.0567442)
(305.36104 1.747893e-16 0.57881345)
(305.41325 1.5839827e-16 0.78714763)
(305.27351 -1.2821587e-18 0.84570139)
(305.27208 3.6410154e-18 0.27016183)
(304.98731 -4.2248965e-18 -0.40606379)
(209.48277 6.1363069e-17 -9.1577689)
(194.76834 1.3364304e-16 -9.2327388)
(236.79843 -1.0374015e-16 -10.392054)
(227.37779 -9.4506411e-17 -10.400734)
(256.95345 6.1054914e-17 -11.341432)
(248.70978 5.7094833e-19 -11.4833)
(275.78419 7.2430355e-17 -12.273581)
(267.68078 6.5645155e-17 -12.44666)
(295.27473 4.7163159e-17 -13.28976)
(286.5945 -1.870276e-18 -13.459207)
(312.28993 1.9693257e-17 -14.281049)
(307.10605 4.9623988e-17 -14.572281)
(320.60782 -4.4200469e-17 -14.746391)
(319.59196 -8.7564342e-17 -15.619377)
(321.35699 -2.7735922e-17 -14.809731)
(322.09871 3.7580075e-17 -15.19314)
(321.05724 -3.3320846e-17 -14.822233)
(320.54647 -3.0147571e-17 -15.929031)
(321.29398 1.4383124e-17 -14.870807)
(321.73157 2.6162459e-17 -15.079189)
(321.14896 5.2419811e-18 -14.905695)
(320.84079 -6.1420975e-18 -16.110564)
(321.33233 -1.1007322e-18 -14.966184)
(321.58015 -1.3143124e-17 -15.158491)
(321.31993 1.0498223e-17 -15.030557)
(321.11808 6.9461612e-18 -16.191278)
(321.50429 -6.7263747e-18 -15.116176)
(321.62997 -6.0914096e-18 -15.407716)
(321.59498 -7.8432528e-18 -15.219237)
(321.44572 0 -16.258319)
(321.81306 -2.2508377e-17 -15.344596)
(321.85037 3.3751665e-19 -15.775939)
(321.99305 -4.8007099e-18 -15.498397)
(321.86451 -1.4272022e-17 -16.408146)
(322.26105 1.3184056e-17 -15.678561)
(322.22852 4.9316178e-17 -16.234274)
(322.51987 0 -15.894121)
(322.39209 1.0431345e-17 -16.711169)
(322.8338 -1.2986954e-17 -16.136255)
(322.74955 -3.5215278e-17 -16.785285)
(323.13835 5.8253707e-18 -16.406946)
(323.00897 -6.907117e-18 -17.188894)
(323.44615 5.3374597e-17 -16.682643)
(323.34506 4.8189639e-17 -17.417384)
(323.69315 3.3100171e-17 -16.940144)
(323.597 -2.2190708e-17 -17.765815)
(323.83923 0 -17.123819)
(323.79837 1.7441402e-17 -17.992331)
(323.79841 8.6588317e-17 -17.165862)
(323.8302 5.1638094e-17 -18.148778)
(323.49278 1.6905941e-16 -16.973822)
(323.63996 -1.5554873e-17 -18.072356)
(322.84564 1.2994647e-16 -16.46278)
(323.12902 -2.3825281e-18 -17.697413)
(321.82875 6.3917232e-17 -15.577701)
(322.25469 -8.0392051e-17 -16.918896)
(320.47555 -2.3706658e-16 -14.326533)
(321.0193 -3.7691539e-19 -15.727306)
(318.88263 -2.9150713e-16 -12.778906)
(319.50008 -2.6295452e-16 -14.172674)
(317.1769 1.3488642e-17 -11.047046)
(317.81823 0 -12.375464)
(315.48018 6.129812e-18 -9.2539315)
(316.10389 1.5006335e-17 -10.472604)
(313.89046 3.6404962e-18 -7.5091622)
(314.46277 -1.1722425e-17 -8.5888039)
(312.4728 7.9151464e-18 -5.8968066)
(312.97525 3.7620295e-17 -6.8283642)
(311.25497 -1.5373816e-16 -4.4605569)
(311.68276 -2.8839317e-17 -5.2488141)
(310.22869 -1.871917e-16 -3.2216967)
(310.59371 -1.6565496e-16 -3.8701504)
(309.36915 -3.7818511e-16 -2.1847288)
(309.67859 5.1738577e-16 -2.7086395)
(308.65052 -4.5076404e-16 -1.3341128)
(308.91458 3.5932056e-18 -1.7556207)
(308.05346 -3.7308356e-16 -0.63963156)
(308.27343 -2.7562772e-16 -0.97707015)
(307.55772 -1.9366619e-16 -0.07814275)
(307.74097 8.8953388e-16 -0.34696214)
(307.13786 1.4395054e-16 0.37392226)
(307.2927 -2.1740648e-17 0.1616236)
(306.76869 -2.7461686e-16 0.72874914)
(306.91303 -2.133603e-16 0.56408618)
(306.43837 4.4680149e-16 0.99264606)
(306.56529 -2.2373603e-17 0.87518576)
(306.14261 2.4221072e-16 1.1500951)
(306.26481 1.0713736e-17 1.0872825)
(305.87374 -4.3421608e-16 1.1939385)
(305.98476 -3.8568738e-16 1.1823237)
(305.64582 3.8071549e-16 1.1196805)
(305.73533 1.0868997e-19 1.1642983)
(305.48292 4.6513279e-16 0.91963333)
(305.53727 7.1944341e-18 1.0319464)
(305.34699 3.2624306e-18 0.55614345)
(305.42091 0 0.75847399)
(305.24648 6.8834903e-18 0.72411082)
(305.23749 7.2771367e-18 0.23835289)
(305.01297 -1.7937253e-16 -0.4185984)
(209.65454 -1.1867618e-18 -10.060181)
(194.82122 1.4407236e-16 -10.083116)
(237.25526 0 -11.427163)
(227.73305 0 -11.389545)
(257.64802 0 -12.477366)
(249.30196 8.2331995e-17 -12.581975)
(276.71838 -1.6814695e-18 -13.506714)
(268.50976 -2.1594933e-18 -13.640808)
(296.52332 -3.473846e-18 -14.629217)
(287.67407 -1.2023245e-16 -14.761342)
(313.24754 -4.4457824e-17 -15.685023)
(308.56245 5.1502258e-17 -15.981323)
(320.83437 -1.7430365e-17 -16.140878)
(319.89615 -4.9271271e-17 -17.043803)
(321.41722 4.0516325e-17 -16.203157)
(322.17374 4.1518057e-17 -16.564396)
(321.10666 2.3560745e-17 -16.222217)
(320.58449 4.0133212e-18 -17.370105)
(321.34925 8.6399469e-18 -16.27964)
(321.8035 5.903721e-17 -16.460325)
(321.20496 -2.3557432e-17 -16.326419)
(320.89145 -2.1282531e-17 -17.572082)
(321.39447 -6.857078e-18 -16.401552)
(321.65308 -3.7215444e-17 -16.57074)
(321.38311 -8.2369848e-18 -16.4834)
(321.17956 3.9176634e-17 -17.672009)
(321.57188 0 -16.589413)
(321.70265 -2.5911881e-17 -16.866293)
(321.6638 7.9748245e-18 -16.716022)
(321.51402 0 -17.766558)
(321.88335 9.5724522e-18 -16.868087)
(321.92123 2.6904296e-17 -17.290334)
(322.06302 3.3511189e-17 -17.052611)
(321.93427 -3.0294797e-17 -17.960217)
(322.32819 4.980271e-17 -17.267331)
(322.29462 -1.4611785e-18 -17.814682)
(322.58163 -2.029398e-17 -17.522249)
(322.45483 -4.3147916e-17 -18.328037)
(322.88503 -3.1614565e-17 -17.807689)
(322.80098 4.5923836e-17 -18.444525)
(323.17366 2.9961459e-17 -18.124571)
(323.04778 -7.9757372e-18 -18.889336)
(323.45663 -1.991207e-17 -18.446896)
(323.36004 8.7230032e-17 -19.165379)
(323.66952 -4.0997506e-17 -18.746589)
(323.58157 -8.8384573e-18 -19.554316)
(323.77014 6.5160779e-17 -18.960499)
(323.73911 1.7128799e-17 -19.815745)
(323.67461 -4.2813153e-17 -19.009186)
(323.71722 -9.0354077e-18 -19.985387)
(323.30938 -1.8549561e-16 -18.786611)
(323.46419 -2.0703664e-17 -19.891277)
(322.60728 -2.0235653e-16 -18.195488)
(322.89057 -6.0778706e-17 -19.452006)
(321.55031 -1.5131191e-16 -17.176705)
(321.96435 1.4490998e-16 -18.557209)
(320.17849 -5.8655287e-19 -15.746018)
(320.69856 2.3313829e-16 -17.20059)
(318.58899 -7.2281534e-19 -13.991988)
(319.17444 -1.4568164e-18 -15.44793)
(316.90525 0 -12.049874)
(317.51059 -3.0912577e-16 -13.441263)
(315.24251 0 -10.061308)
(315.83002 0 -11.338016)
(313.69176 1.6850415e-17 -8.1471021)
(314.23062 -3.9099103e-16 -9.2764004)
(312.31283 8.0113417e-18 -6.3945438)
(312.7864 3.7984185e-17 -7.3673665)
(311.13057 -2.6030277e-17 -4.8450455)
(311.53376 -2.9089611e-17 -5.6674236)
(310.1361 4.6088398e-16 -3.5155975)
(310.48024 -3.7172867e-16 -4.1915064)
(309.30293 9.538984e-16 -2.4083421)
(309.59614 2.4161006e-16 -2.9534122)
(308.60492 2.0900957e-16 -1.5041847)
(308.85711 8.285788e-16 -1.9424234)
(308.02143 8.5286082e-16 -0.76903705)
(308.23445 1.1232774e-17 -1.1198332)
(307.53472 1.1641463e-15 -0.17667318)
(307.71558 4.0384421e-16 -0.45640256)
(307.12372 -3.5666413e-16 0.29734657)
(307.27687 -3.2157656e-16 0.077475851)
(306.76094 1.6983771e-17 0.66775552)
(306.90389 1.5235694e-17 0.49787003)
(306.43479 -4.6307853e-16 0.94194802)
(306.56084 0 0.82111487)
(306.14249 -5.7270025e-16 1.1072646)
(306.2645 -5.076769e-16 1.0409776)
(305.87603 5.5754138e-18 1.1584099)
(305.98526 7.7310076e-16 1.1421781)
(305.64978 -3.7702639e-16 1.091455)
(305.73808 -1.7504825e-17 1.1332241)
(305.48875 -4.6128469e-16 0.89206402)
(305.54155 -8.1234645e-16 1.0065992)
(305.3396 3.2051606e-18 0.53048655)
(305.42738 -9.4301084e-18 0.72735539)
(305.23292 -1.5004433e-16 0.62437781)
(305.2075 -4.4342345e-16 0.20706434)
(305.03337 -1.2824057e-17 -0.42799814)
(209.91804 1.5622267e-16 -10.976074)
(194.92015 -6.5378865e-18 -10.949529)
(237.76896 7.4028544e-17 -12.475421)
(228.12865 0 -12.396777)
(258.38877 8.6789386e-17 -13.629645)
(249.93671 7.9110708e-17 -13.704382)
(277.70339 -1.0878265e-16 -14.759559)
(269.39069 1.3281524e-19 -14.86235)
(297.80017 -7.9896986e-17 -15.993857)
(288.81487 -1.1762594e-16 -16.099899)
(314.17551 5.4656952e-17 -17.110892)
(310.04544 5.5264829e-17 -17.422954)
(321.01907 1.2367861e-18 -17.552324)
(320.13361 1.1673834e-19 -18.494019)
(321.48159 8.7852121e-18 -17.617778)
(322.26017 4.7093979e-18 -17.961048)
(321.16751 3.4367201e-17 -17.644619)
(320.63206 -1.5712922e-19 -18.839335)
(321.41898 3.6095003e-17 -17.714267)
(321.88611 5.3132395e-17 -17.867278)
(321.27171 -3.3368549e-17 -17.773137)
(320.94935 -4.5437013e-17 -19.061089)
(321.46646 1.7558908e-18 -17.863257)
(321.73146 -3.6441873e-17 -18.009095)
(321.45419 2.708362e-17 -17.961728)
(321.24502 6.9338951e-17 -19.177356)
(321.6451 -2.7978072e-17 -18.08654)
(321.77717 -1.2058399e-17 -18.349234)
(321.73617 1.6357664e-17 -18.235087)
(321.58341 2.2218544e-17 -19.296255)
(321.95501 -7.5015603e-18 -18.411954)
(321.99165 1.7929876e-17 -18.826769)
(322.13218 -6.6870886e-17 -18.625618)
(322.00292 -2.9694441e-17 -19.531603)
(322.39265 -8.9049372e-17 -18.873524)
(322.358 -3.7257318e-17 -19.414661)
(322.63869 1.433339e-17 -19.165676)
(322.51396 -1.9594239e-17 -19.961883)
(322.92895 7.3596777e-17 -19.491626)
(322.84684 5.8404085e-18 -20.119393)
(323.19863 4.0107183e-17 -19.8508)
(323.07869 -6.9781247e-18 -20.601961)
(323.45306 1.0635069e-16 -20.214427)
(323.36378 -2.2832143e-18 -20.921503)
(323.62723 4.5955757e-17 -20.54882)
(323.55055 5.2446803e-17 -21.344533)
(323.67658 -5.347426e-17 -20.782998)
(323.65843 6.4188093e-17 -21.63196)
(323.51949 1.3784308e-17 -20.825888)
(323.57577 -5.8790734e-17 -21.802809)
(323.08718 1.0568474e-16 -20.559291)
(323.2519 8.7683667e-17 -21.676491)
(322.32296 2.6229174e-16 -19.876083)
(322.60794 1.0231712e-17 -21.158145)
(321.22039 5.1571769e-16 -18.716139)
(321.62395 1.3434025e-16 -20.1356)
(319.82844 2.549371e-16 -17.104744)
(320.32535 -2.0986302e-17 -18.608819)
(318.2457 -2.7600258e-16 -15.14879)
(318.79798 1.0265901e-17 -16.659982)
(316.59005 -3.400858e-16 -13.004214)
(317.15715 6.7411345e-18 -14.450876)