/*--------------------------------*- C++ -*----------------------------------*\
  =========                 |
  \\      /  F ield         | OpenFOAM: The Open Source CFD Toolbox
   \\    /   O peration     | Website:  https://openfoam.org
    \\  /    A nd           | Version:  8
     \\/     M anipulation  |
\*---------------------------------------------------------------------------*/
FoamFile
{
    version     2.0;
    format      ascii;
    class       volScalarField;
    location    "0.159995";
    object      T;
}
// * * * * * * * * * * * * * * * * * * * * * * * * * * * * * * * * * * * * * //

dimensions      [0 0 0 1 0 0 0];

internalField   nonuniform List<scalar> 
20000
(
278.6962
278.50122
278.122
277.2008
275.18658
271.11704
264.29458
262.33846
262.9335
262.89216
263.39425
263.51616
263.97477
264.23954
264.73988
265.16772
265.77754
266.41347
267.21387
268.11972
269.2139
270.48879
271.99352
273.73839
275.73783
277.97108
280.37092
282.83293
285.22842
287.44628
289.41045
291.09526
292.50075
293.64486
294.55301
295.26234
295.81177
296.23026
296.554
296.78407
296.94654
297.05731
297.13892
297.19077
297.24348
297.32973
297.38644
297.50842
297.41588
297.84002
278.54156
278.35883
277.97935
277.03199
274.93561
270.69957
263.95613
262.21384
262.85159
262.79484
263.31566
263.42937
263.90593
264.17373
264.67939
265.1131
265.72755
266.36403
267.16526
268.07232
269.16441
270.43744
271.93731
273.67677
275.66822
277.892
280.28642
282.74819
285.15291
287.38561
289.36678
291.06474
292.47895
293.6283
294.53917
295.24876
295.79744
296.21434
296.52608
296.75135
296.91319
297.02547
297.10985
297.1696
297.23963
297.32865
297.41784
297.50264
297.53641
297.81677
278.39551
278.24789
277.86681
276.88411
274.68768
270.21136
263.64139
262.15549
262.82807
262.77216
263.29813
263.42491
263.89132
264.16117
264.66866
265.10627
265.72146
266.36458
267.16917
268.08164
269.17508
270.44823
271.9436
273.67552
275.65627
277.86964
280.25725
282.71813
285.12641
287.36936
289.36229
291.06693
292.48421
293.63381
294.54359
295.24953
295.79469
296.20455
296.51063
296.73593
296.90009
297.0147
297.10152
297.16367
297.23946
297.3302
297.41621
297.50678
297.53066
297.82419
278.32111
278.20011
277.81885
276.80564
274.50556
269.76944
263.4154
262.14766
262.84283
262.76161
263.31639
263.42969
263.92674
264.20578
264.72274
265.17329
265.79927
266.45729
267.27406
268.20088
269.30294
270.58149
272.07368
273.7944
275.75475
277.94047
280.30079
282.74517
285.14832
287.38825
289.37944
291.08608
292.50231
293.64699
294.55058
295.25286
295.79529
296.20269
296.5039
296.7198
296.88155
296.99679
297.08693
297.15694
297.23874
297.33202
297.42389
297.50975
297.5943
297.82122
278.24598
278.17972
277.81511
276.77459
274.37643
269.35667
263.28436
262.26278
262.95302
262.90312
263.43923
263.56227
264.05476
264.34155
264.86564
265.32753
265.96285
266.63583
267.46423
268.40612
269.51986
270.80954
272.30727
274.02788
275.9794
278.14753
280.48253
282.89591
285.26987
287.48792
289.46277
291.1532
292.5546
293.68521
294.57642
295.26663
295.79925
296.20341
296.50218
296.71524
296.87131
296.98583
297.07867
297.15469
297.23868
297.33502
297.42719
297.5145
297.62115
297.82264
278.31839
278.26777
277.89789
276.81672
274.31163
268.97912
263.24252
262.40054
263.11308
263.04461
263.6019
263.72753
264.22838
264.52502
265.05824
265.5345
266.18168
266.87198
267.71563
268.67667
269.80687
271.11323
272.6229
274.35007
276.29879
278.45273
280.76165
283.1399
285.4752
287.65515
289.59597
291.25734
292.63354
293.74221
294.61532
295.29086
295.81184
296.20626
296.50271
296.7132
296.86683
296.97959
297.07423
297.15333
297.23982
297.33891
297.43254
297.51984
297.66235
297.8227
278.37164
278.36331
277.99705
276.87943
274.26782
268.60842
263.26573
262.58699
263.30695
263.2435
263.80487
263.93634
264.44399
264.75085
265.29314
265.78415
266.44355
267.15233
268.01201
268.99384
270.14352
271.47095
272.99879
274.74017
276.69444
278.84176
281.12853
283.46953
285.75718
287.88711
289.78093
291.40041
292.74101
293.82008
294.66955
295.32576
295.83159
296.2154
296.50464
296.71357
296.86536
296.97709
297.07236
297.1528
297.24218
297.34375
297.43777
297.52729
297.69347
297.82374
278.48713
278.50933
278.13073
276.97148
274.24151
268.24514
263.34544
262.79547
263.52731
263.46186
264.03339
264.17103
264.68755
265.00637
265.55853
266.0656
266.73811
267.46656
268.34454
269.34982
270.52234
271.87488
273.42586
275.18693
277.15248
279.29787
281.56496
283.86776
286.103
288.17393
290.00984
291.57738
292.87373
293.91645
294.73731
295.3709
295.85904
296.22963
296.51088
296.71481
296.86531
296.9762
297.07163
297.15259
297.24571
297.34934
297.44418
297.53887
297.7234
297.82656
278.57585
278.64326
278.26474
277.06093
274.21442
267.88387
263.47427
263.02816
263.77123
263.70801
264.28807
264.43329
264.95778
265.28879
265.85055
266.37402
267.06027
267.80964
268.70709
269.73752
270.93538
272.31618
273.89428
275.67961
277.6611
279.80864
282.05832
284.32248
286.50154
288.50709
290.27719
291.78465
293.02954
294.03014
294.81804
295.42565
295.89356
296.24938
296.5208
296.71865
296.86604
296.9761
297.07147
297.15307
297.25043
297.35566
297.45155
297.55665
297.74674
297.83113
278.70585
278.80739
278.42699
277.16957
274.19355
267.54215
263.65205
263.2838
264.03796
263.97614
264.56456
264.71739
265.2496
265.59331
266.16478
266.70558
267.40645
268.1779
269.09672
270.15438
271.38027
272.79233
274.40104
276.21414
278.21494
280.36702
282.60021
284.82466
286.94443
288.87948
290.5774
292.01825
293.2057
294.1593
294.91049
295.48934
295.93485
296.27416
296.53469
296.72538
296.86839
296.97653
297.07174
297.15522
297.25629
297.36266
297.46012
297.58035
297.76614
297.83724
278.82668
278.97827
278.59748
277.28333
274.16336
267.22376
263.86014
263.55968
264.32369
264.26414
264.86004
265.02096
265.5604
265.91738
266.49895
267.05807
267.77463
268.56947
269.51099
270.59749
271.85368
273.29943
274.94146
276.7849
278.80712
280.96486
283.18136
285.36452
287.42223
289.28297
290.90415
292.27359
293.39909
294.30185
295.01334
295.56108
295.98228
296.30371
296.55219
296.735
296.87308
296.97856
297.0734
297.15896
297.26329
297.37023
297.46971
297.60673
297.78397
297.84449
278.97549
279.17225
278.78696
277.40873
274.11979
266.9391
264.11289
263.85198
264.62514
264.56818
265.17107
265.34086
265.88777
266.2592
266.85163
267.43019
268.16341
268.98273
269.94875
271.06607
272.35495
273.83678
275.5146
277.39042
279.43535
281.59869
283.79713
285.93661
287.92925
289.71221
291.25291
292.54712
293.60707
294.45593
295.12531
295.64002
296.03533
296.33761
296.57314
296.74737
296.87999
296.9824
297.07673
297.16438
297.27143
297.37828
297.48019
297.63499
297.80101
297.85267
279.13053
279.37472
278.98516
277.53601
274.04718
266.69632
264.40174
264.15741
264.93945
264.88644
265.49635
265.67634
266.23108
266.61821
267.22205
267.82104
268.57185
269.41692
270.40899
271.55882
272.88249
274.40233
276.1178
278.02724
280.09509
282.2628
284.44071
286.53353
288.45808
290.16047
291.61804
292.83448
293.82645
294.61931
295.24487
295.72513
296.09328
296.37543
296.59723
296.76233
296.88907
296.98813
297.08185
297.17144
297.28061
297.38676
297.4915
297.66421
297.81817
297.86162
279.31395
279.59512
279.20135
277.6736
273.94769
266.50174
264.72486
264.47627
265.26709
265.2187
265.83593
266.02715
266.59027
266.99386
267.60966
268.22976
268.99921
269.87133
270.89144
272.07575
273.43634
274.99612
276.75091
278.69487
280.78512
282.95504
285.109
287.15139
289.0045
290.62359
291.99583
293.13257
294.05482
294.79018
295.37076
295.81552
296.15552
296.41671
296.62419
296.77972
296.9002
296.99567
297.08872
297.18013
297.29066
297.39573
297.50398
297.69386
297.83541
297.87117
279.49127
279.81421
279.41753
277.81253
273.80749
266.35688
265.07476
264.80786
265.6071
265.56551
266.19
266.39358
266.96479
267.38552
268.01351
268.65572
269.44515
270.34582
271.39583
272.61625
274.01564
275.61686
277.4122
279.39073
281.50197
283.67082
285.79657
287.78426
289.56256
291.0961
292.38156
293.4376
294.28926
294.96641
295.50146
295.91013
296.22129
296.46095
296.65367
296.7993
296.91326
297.00498
297.09735
297.19043
297.30155
297.40531
297.51855
297.72307
297.85267
297.88133
279.68141
280.04524
279.64333
277.96104
273.63372
266.25875
265.42465
265.1555
265.96185
265.92748
266.55825
266.77455
267.35362
267.79212
268.4331
269.09861
269.90968
270.84051
271.92234
273.1806
274.62069
276.26491
278.10185
280.11467
282.24471
284.4084
286.50089
288.42914
290.12905
291.57478
292.7723
293.74702
294.5277
295.14642
295.63581
296.0081
296.28995
296.5077
296.68537
296.8209
296.92813
297.01601
297.10769
297.20219
297.31331
297.41573
297.53661
297.75084
297.86974
297.89202
279.88753
280.2877
279.87778
278.11795
273.42772
266.21838
265.77702
265.51599
266.32862
266.30204
266.93874
267.16857
267.75572
268.21328
268.86837
269.55883
270.39313
271.35554
272.47087
273.7685
275.25093
276.93942
278.81846
280.86452
283.01017
285.16372
287.21726
289.08111
290.69915
292.05524
293.16422
294.0577
294.76767
295.32834
295.77244
296.10841
296.36078
296.55643
296.71895
296.84428
296.94468
297.02869
297.11969
297.21521
297.32568
297.42725
297.55938
297.77634
297.88633
297.9031
280.10464
280.53596
280.11342
278.27582
273.18745
266.23231
266.14566
265.88734
266.70587
266.68812
267.33066
267.57527
268.17129
268.64939
269.32004
270.03668
270.89576
271.89109
273.04168
274.38033
275.90688
277.64094
279.56236
281.64007
283.7974
285.93504
287.94341
289.73759
291.27021
292.53491
293.55498
294.36759
295.00751
295.51087
295.91032
296.21027
296.43316
296.6067
296.75409
296.86925
296.96279
297.04295
297.1333
297.22935
297.33831
297.43994
297.58681
297.79961
297.90294
297.9146
280.33421
280.79052
280.34908
278.43224
272.92221
266.31035
266.52369
266.26912
267.09317
267.08552
267.73434
267.99539
268.60115
269.10132
269.78857
270.53258
271.41776
272.44716
273.63475
275.01598
276.58831
278.36877
280.33233
282.43908
284.60324
286.71836
288.67502
290.39425
291.83819
293.01017
293.94148
294.67417
295.2452
295.69245
296.04827
296.31282
296.50646
296.65801
296.79047
296.89559
296.98232
297.0587
297.14842
297.24448
297.35102
297.45368
297.6167
297.8224
297.91903
297.92621
280.573
281.04823
280.57846
278.57715
272.63779
266.45173
266.91207
266.66137
267.4913
267.49557
268.15119
268.43022
269.04636
269.56953
270.27427
271.04642
271.95908
273.02396
274.2505
275.67609
277.29588
279.1236
281.12855
283.26119
285.42643
287.51188
289.4099
291.04884
292.4009
293.47904
294.32197
294.97592
295.47948
295.87201
296.18542
296.41542
296.58016
296.70997
296.82781
296.92311
297.00316
297.07588
297.16495
297.26046
297.36374
297.46841
297.64849
297.84482
297.9346
297.93722
280.82507
281.31401
280.80518
278.70796
272.3482
266.65724
267.31265
267.06692
267.90263
267.92009
268.58248
268.88041
269.50701
270.05391
270.77686
271.57819
272.51984
273.62172
274.88916
276.36085
278.02949
279.90483
281.94962
284.10393
286.26356
288.31163
290.14392
291.69745
292.95486
293.93859
294.69408
295.27089
295.70872
296.04822
296.32085
296.51741
296.6537
296.76215
296.86581
296.9516
297.02517
297.09438
297.18276
297.27714
297.37671
297.48433
297.68145
297.86687
297.94954
297.94774
281.09478
281.59248
281.03193
278.81827
272.06964
266.92583
267.72698
267.48662
268.32787
268.35931
269.0279
269.34539
269.98259
270.55396
271.29621
272.12779
273.10032
274.24094
275.55151
277.07104
278.79002
280.71303
282.79562
284.9665
287.11308
289.11552
290.87484
292.33788
293.49819
294.38732
295.05663
295.55806
295.93195
296.22025
296.45404
296.61835
296.7266
296.81423
296.90422
296.9809
297.04822
297.11412
297.20171
297.29429
297.39024
297.50206
297.71486
297.88827
297.96368
297.95762
281.38183
281.88518
281.25951
278.89566
271.81815
267.21637
268.15563
267.91995
268.76587
268.81184
269.48629
269.82419
270.47255
271.06944
271.8324
272.69565
273.70106
274.88226
276.23801
277.80707
279.57732
281.54752
283.66467
285.84603
287.97118
289.91933
291.59854
292.96651
294.02798
294.82303
295.40793
295.836
296.14795
296.38717
296.58452
296.71763
296.79828
296.86589
296.94278
297.01081
297.07219
297.13499
297.22163
297.31175
297.40446
297.52258
297.74772
297.90864
297.97691
297.96676
281.68486
282.19184
281.48682
278.93023
271.60636
267.55905
268.59504
268.36427
269.21444
269.27643
269.95678
270.31668
270.97687
271.60066
272.38587
273.2823
274.32278
275.54651
276.9496
278.56986
280.39227
282.40867
284.55648
286.74121
288.83587
290.72073
292.31267
293.58148
294.54299
295.24486
295.74731
296.10408
296.35614
296.54881
296.71219
296.8146
296.8683
296.91682
296.9813
297.0412
297.09698
297.15687
297.24235
297.32945
297.4197
297.54689
297.77895
297.92763
297.98929
297.97563
281.99255
282.5046
281.70954
278.90436
271.44096
267.96646
269.04387
268.81856
269.67375
269.75337
270.44
270.82312
271.49609
272.14808
272.95733
273.88857
274.96635
276.23446
277.68695
279.35975
281.23468
283.29534
285.46866
287.64852
289.7029
291.51534
293.01338
294.18
295.04139
295.65137
296.07335
296.36113
296.55584
296.7052
296.8365
296.90837
296.93636
296.96661
297.0196
297.07189
297.12245
297.17962
297.26363
297.34734
297.43654
297.57597
297.80766
297.94511
298.00071
297.98336
282.32023
282.8367
281.94383
278.82122
271.34192
268.40548
269.50477
269.28536
270.14514
270.24325
270.93631
271.34392
272.03082
272.71245
273.54762
274.5153
275.63265
276.94708
278.45105
280.17773
282.10529
284.20759
286.40033
288.56605
290.56975
292.30057
293.69883
294.76132
295.5229
296.0421
296.38518
296.60645
296.747
296.85681
296.95643
296.99847
297.00261
297.01485
297.05758
297.10278
297.1485
297.20312
297.28526
297.36524
297.45527
297.60992
297.83354
297.96116
298.01089
297.99042
282.6527
283.17779
282.18347
278.6712
271.311
268.86215
269.97617
269.76359
270.62791
270.74623
271.44603
271.8798
272.5819
273.29461
274.15764
275.16344
276.32257
277.68529
279.24254
281.02418
283.00353
285.14378
287.34828
289.48961
291.43167
293.07228
294.3665
295.32418
295.98632
296.41555
296.68111
296.83893
296.92936
297.00318
297.07028
297.08497
297.06727
297.06141
297.0951
297.13375
297.17502
297.22721
297.30701
297.38297
297.47545
297.64586
297.85833
297.97597
298.02023
297.99695
282.99796
283.53324
282.4342
278.45604
271.35295
269.30681
270.45921
270.2543
271.12294
271.26315
271.97016
272.43172
273.15031
273.89541
274.78824
275.83379
277.03709
278.45012
280.06256
281.9
283.92997
286.10336
288.31089
290.41653
292.28589
293.82861
295.01626
295.86869
296.43064
296.7705
296.96047
297.05843
297.10305
297.14247
297.17842
297.16791
297.13022
297.10677
297.132
297.16472
297.2019
297.25171
297.32868
297.4005
297.49671
297.68258
297.88212
297.98972
298.0287
298.00257
283.35539
283.90217
282.69641
278.18151
271.47433
269.78036
270.95262
270.75757
271.63119
271.79503
272.50979
273.0005
273.73681
274.51551
275.44026
276.52738
277.77726
279.24255
280.91184
282.80535
284.88357
287.08376
289.28407
291.34191
293.12797
294.56698
295.64714
296.39259
296.85246
297.1045
297.22324
297.26558
297.26777
297.27333
297.28189
297.24717
297.19015
297.15182
297.16797
297.19562
297.22903
297.27645
297.35011
297.41792
297.51912
297.71925
297.90479
298.00253
298.03669
298.00829
283.72234
284.27973
282.96392
277.85493
271.67241
270.26689
271.45866
271.2758
272.15345
272.34293
273.06568
273.58665
274.34191
275.15563
276.11454
277.24528
278.54419
280.06384
281.79151
283.74113
285.86427
288.08372
290.26525
292.26276
293.95579
295.28739
296.25854
296.89224
297.24971
297.41749
297.47111
297.46152
297.42326
297.3961
297.38186
297.32228
297.24622
297.19676
297.20282
297.22641
297.25635
297.30126
297.37121
297.43549
297.54299
297.75521
297.92612
298.01439
298.04415
298.01371
284.1011
284.66928
283.23464
277.48976
271.9202
270.7738
271.9802
271.80943
272.69076
272.90694
273.63784
274.19035
274.96625
275.81661
276.81239
277.98864
279.33911
280.91502
282.70231
284.70693
286.8703
289.09941
291.24951
293.17409
294.76635
295.98868
296.84561
297.36356
297.62069
297.71081
297.70613
297.64622
297.56869
297.51216
297.47645
297.39287
297.29942
297.24088
297.23664
297.25702
297.28379
297.32598
297.39196
297.4537
297.56918
297.78932
297.9458
298.02517
298.05095
298.01866
284.49513
285.07126
283.50183
277.11133
272.24615
271.29544
272.51389
272.35758
273.24279
273.48644
274.22651
274.81219
275.611
276.49984
277.53489
278.75877
280.16333
281.79755
283.64536
285.70332
287.9007
290.12857
292.23353
294.07341
295.55927
296.66974
297.40362
297.80428
297.96752
297.98914
297.9259
297.81914
297.70479
297.62166
297.56632
297.45918
297.34989
297.28315
297.26997
297.28734
297.31129
297.35049
297.41238
297.47315
297.59909
297.82036
297.96353
298.03474
298.05704
298.0232
284.90209
285.48458
283.75516
276.73542
272.65087
271.83114
273.0599
272.9193
273.8088
274.08221
274.8327
275.45362
276.27758
277.20648
278.28334
279.5571
281.0183
282.71258
284.6211
286.7291
288.95241
291.16616
293.21204
294.95695
296.33297
297.32387
297.9284
298.2141
298.29517
298.24946
298.13094
297.98019
297.83184
297.7248
297.65118
297.52152
297.39804
297.32267
297.30313
297.31726
297.33874
297.37466
297.43247
297.49422
297.63334
297.84783
297.97932
298.04319
298.06221
298.02694
285.31844
285.90861
283.98117
276.38487
273.11328
272.3806
273.61859
273.49588
274.39011
274.69611
275.45815
276.11603
276.96726
277.93768
279.0591
280.3852
281.90567
283.66165
285.6304
287.78399
290.0233
292.20893
294.18193
295.82374
297.08617
297.94556
298.41762
298.59849
298.60366
298.49194
298.32145
298.12983
297.95026
297.82184
297.73131
297.58002
297.44353
297.36015
297.33576
297.34672
297.366
297.39835
297.45222
297.5169
297.67019
297.87298
297.99351
298.05035
298.06603
298.03004
285.73897
286.3448
284.16784
276.09236
273.63738
272.94465
274.19145
274.08999
274.98879
275.32998
276.10439
276.80033
277.68094
278.69471
279.86377
281.24496
282.82705
284.64578
286.6729
288.86553
291.10872
293.2511
295.13862
296.67139
297.81159
298.52975
298.87129
298.9624
298.89029
298.71669
298.49779
298.26828
298.06031
297.9129
297.80674
297.63467
297.48628
297.3959
297.36779
297.37562
297.3929
297.4214
297.47161
297.54093
297.7079
297.89677
298.00635
298.05639
298.069
298.03213
286.16134
286.79433
284.30331
275.90127
274.19382
273.52582
274.78108
274.70358
275.60647
275.98438
276.77208
277.50707
278.41975
279.47924
280.69938
282.13837
283.78427
285.66623
287.74877
289.97209
292.20536
294.28912
296.08014
297.4989
298.50293
299.07402
299.29699
299.30316
299.15614
298.92441
298.66059
298.39614
298.16248
297.99832
297.87771
297.68542
297.52642
297.43022
297.3992
297.40389
297.41931
297.44363
297.49074
297.56607
297.74558
297.91932
298.01799
298.06157
298.07123
298.03353
286.58525
287.25213
284.37895
275.76673
274.75272
274.12627
275.38836
275.337
276.24324
276.65874
277.46163
278.23728
279.18565
280.29361
281.56828
283.06756
284.77881
286.72336
288.85636
291.09952
293.30733
295.31755
297.00316
298.29969
299.1536
299.57797
299.69942
299.61867
299.40125
299.11555
298.81026
298.51377
298.25708
298.07831
297.94434
297.73218
297.56407
297.46329
297.43
297.43137
297.44512
297.46499
297.50986
297.59241
297.78245
297.94032
298.02845
298.06601
298.07291
298.0345
287.00871
287.70889
284.4018
275.72357
275.346
274.74375
276.01144
275.98928
276.89834
277.35402
278.17432
278.99349
279.98121
281.14043
282.4728
284.0345
285.81225
287.81774
289.99464
292.24469
294.41075
296.33362
297.90668
299.06639
299.76071
300.04957
300.07563
299.9101
299.62666
299.291
298.94756
298.62183
298.34464
298.15324
298.00686
297.77496
297.59941
297.49514
297.46019
297.45806
297.47032
297.48554
297.52951
297.62073
297.81738
297.95941
298.0377
298.06989
298.07421
298.03525
287.42497
288.17791
284.37732
275.77263
275.95643
275.37748
276.6499
276.66013
277.57362
278.07237
278.91332
279.77865
280.80935
282.0224
283.41509
285.04104
286.88537
288.94863
291.15997
293.4019
295.50934
297.33302
298.7855
299.79021
300.32231
300.49424
300.4234
300.17762
299.8329
299.45129
299.07297
298.72073
298.4255
298.2233
298.06536
297.81392
297.63271
297.52569
297.48945
297.48417
297.49485
297.50553
297.55026
297.65249
297.84882
297.97635
298.0458
298.07355
298.07524
298.03593
287.83752
288.65807
284.3019
275.93288
276.58962
276.02795
277.30718
277.35275
278.27236
278.81748
279.68226
280.59576
281.67274
282.94165
284.39713
286.08886
287.99929
290.11539
292.34974
294.56679
296.59964
298.31395
299.63169
300.46769
300.84572
300.91
300.74355
300.42248
300.02109
299.5974
299.1873
298.81114
298.50019
298.28877
298.1198
297.84953
297.66432
297.55506
297.5176
297.50981
297.51865
297.52525
297.57236
297.6882
297.87577
297.99115
298.0528
298.07666
298.076
298.03659
288.23772
289.13619
284.19163
276.2047
277.24718
276.70044
277.98659
278.07225
278.99878
279.59294
280.48408
281.44715
282.57338
283.9004
285.42097
287.17943
289.15396
291.31547
293.55834
295.73274
297.67594
299.27189
300.43525
301.09503
301.33696
301.29431
301.03643
300.64535
300.19196
299.72998
299.29108
298.89352
298.56904
298.3497
298.16985
297.88247
297.6945
297.58345
297.54457
297.5349
297.54158
297.54492
297.59556
297.72489
297.90001
298.00411
298.05877
298.07937
298.07679
298.0373
288.636
289.60534
284.06611
276.59099
277.92939
277.39953
278.69134
278.82232
279.75599
280.40076
281.32063
282.33457
283.51334
284.9008
286.4886
288.31425
290.34944
292.54659
294.78163
296.89539
298.73545
300.20064
301.19039
301.67692
301.79717
301.64714
301.30344
300.8476
300.34669
299.85
299.38512
298.96855
298.63251
298.40628
298.21532
297.91352
297.72326
297.61067
297.57063
297.5595
297.56348
297.56449
297.61945
297.76121
297.92205
298.01556
298.06386
298.08159
298.07726
298.03808
289.04439
290.06093
283.95778
277.06565
278.64204
278.13138
279.42642
279.60516
280.54515
281.24131
282.19324
283.26009
284.49502
285.94546
287.60211
289.49408
291.58407
293.80381
296.01258
298.04838
299.77335
301.08858
301.89163
302.21999
302.22298
301.96906
301.54537
301.03009
300.48608
299.95813
299.46997
299.03666
298.69091
298.45866
298.25689
297.94251
297.75062
297.63673
297.5958
297.58362
297.58438
297.5838
297.64378
297.79637
297.94212
298.02565
298.06813
298.08314
298.07739
298.03894
289.46779
290.48709
283.89066
277.54666
279.38607
278.89623
280.19004
280.41819
281.36713
282.11617
283.10415
284.22655
285.52106
287.03691
288.76333
290.71962
292.85602
295.08306
297.24616
299.18792
300.78576
301.92703
302.5396
302.72974
302.61309
302.26155
301.76381
301.19425
300.61133
300.05536
299.54643
299.0985
298.74464
298.50708
298.295
297.96966
297.77671
297.66174
297.61996
297.60698
297.60476
297.6028
297.669
297.82957
297.96017
298.03434
298.07139
298.08413
298.07726
298.03992
289.92034
290.86916
283.88627
278.16778
280.15183
279.68774
280.9795
281.26355
282.22386
283.02851
284.05666
285.237
286.59483
288.17766
289.97387
291.98995
294.16126
296.37707
298.47517
300.30755
301.76011
302.7092
303.14116
303.20192
302.96829
302.52553
301.95979
301.34107
300.72328
300.14235
299.61505
299.15448
298.79398
298.55174
298.33
297.99508
297.80169
297.68585
297.64301
297.62901
297.62526
297.62231
297.69628
297.85964
297.97614
298.04181
298.07379
298.08445
298.07691
298.04037
290.39768
291.17824
283.94927
278.90696
280.94279
280.51085
281.80072
282.14525
283.11893
283.98184
285.05454
286.29531
287.71894
289.37003
291.23473
293.30398
295.49568
297.68042
299.69457
301.40353
302.68656
303.43189
303.70497
303.63463
303.2901
302.76285
302.13502
301.47198
300.82308
300.22004
299.67656
299.20519
298.8393
298.59292
298.36227
298.01903
297.82569
297.70911
297.66509
297.64963
297.6458
297.64254
297.72673
297.88565
297.99003
298.04823
298.07559
298.08414
298.07584
298.04035
290.92582
291.41964
284.11819
279.67394
281.76441
281.3728
282.65722
283.06704
284.05708
284.98002
286.10148
287.40479
288.89643
290.61634
292.54606
294.65833
296.85251
298.98484
300.89689
302.46557
303.55464
304.09995
304.22807
304.0278
303.57961
302.97471
302.29066
301.58798
300.91155
300.28906
299.73149
299.25102
298.88086
298.63086
298.39215
298.04169
297.84872
297.73132
297.68601
297.66933
297.66603
297.66134
297.75931
297.9084
298.00201
298.05356
298.07717
298.0837
298.07446
298.04011
291.50759
291.58757
284.38777
280.45687
282.61879
282.27539
283.55307
284.03245
285.0415
286.0265
287.20118
288.56858
290.13009
291.91817
293.90726
296.0493
298.22576
300.28462
302.07744
303.48227
304.35963
304.72225
304.70864
304.38322
303.83887
303.1631
302.4284
301.69046
300.9898
300.3503
299.78054
299.29248
298.919
298.66586
298.42004
298.06322
297.87069
297.75237
297.70586
297.68824
297.68584
297.68
297.79217
297.92919
298.01241
298.05757
298.07767
298.08248
298.07276
298.03972
292.15108
291.70467
284.75847
281.31545
283.50832
283.22264
284.49224
285.04491
286.07648
287.12479
288.35681
289.79044
291.42272
293.27661
295.31575
297.47036
299.60651
301.57109
303.2273
304.43987
305.1006
305.30141
305.14434
304.70202
304.06927
303.32937
302.54944
301.7804
301.05859
300.40435
299.82418
299.32992
298.95395
298.69818
298.44627
298.08365
297.89152
297.77224
297.7248
297.70649
297.70552
297.70241
297.82431
297.94829
298.02166
298.0608
298.07765
298.08098
298.0709
298.03928
292.85781
291.7362
285.23946
282.22828
284.43517
284.21728
285.47768
286.10741
287.16646
288.27885
289.57244
291.07376
292.77668
294.6915
296.76813
298.91509
300.98787
302.8379
304.33478
305.33191
305.78668
305.83447
305.53758
304.98655
304.27313
303.47552
302.65542
301.8591
301.11894
300.45202
299.86302
299.3638
298.98604
298.72813
298.47115
298.10299
297.91112
297.79097
297.743
297.72433
297.72523
297.72487
297.85507
297.96546
298.0298
298.06353
298.07728
298.0793
298.06895
298.03883
293.65309
291.68081
285.83046
283.20307
285.40401
285.26274
286.51534
287.22191
288.31569
289.49312
290.85244
292.42248
294.19374
296.16104
298.25807
300.37398
302.35991
304.07527
305.38419
306.15218
306.42588
306.31704
305.88929
305.23834
304.45202
303.60296
302.7475
301.92748
301.17157
300.49385
299.89752
299.39443
299.01551
298.75596
298.49484
298.12113
297.92944
297.80864
297.76067
297.74199
297.7446
297.74724
297.88356
297.98
298.03595
298.0649
298.07678
298.07729
298.06685
298.03837
294.54811
291.57688
286.52747
284.23359
286.41609
286.36465
287.60749
288.39612
289.52821
290.77375
292.20131
293.83939
295.67398
297.68176
299.77867
301.83879
303.71473
305.27355
306.36503
306.90923
307.01427
306.75201
306.20225
305.46011
304.6083
303.71362
302.82721
301.98673
301.21739
300.53057
299.92822
299.42222
299.04266
298.78194
298.51739
298.138
297.94645
297.82538
297.7781
297.7599
297.76402
297.77326
297.90817
297.99187
298.04043
298.0651
298.0753
298.07495
298.06462
298.03787
295.55831
291.45581
287.33121
285.32524
287.47773
287.52658
288.76236
289.63469
290.81155
292.12603
293.62323
295.32707
297.21621
299.24756
301.31994
303.29844
305.04103
306.41442
307.26907
307.61074
307.54789
307.13993
306.47817
305.6537
304.74361
303.80886
302.89563
302.0377
301.25705
300.56268
299.95551
299.44746
299.06772
298.80623
298.53872
298.15352
297.96227
297.84146
297.79563
297.77855
297.7838
297.8031
297.92809
298.00159
298.04379
298.06481
298.07329
298.07238
298.06216
298.03724
296.6799
291.34598
288.24597
286.48604
288.5963
288.75536
289.9884
290.94444
292.17263
293.55563
295.12154
296.88532
298.81658
300.85075
302.8723
304.74346
306.32946
307.48441
308.10066
308.25728
308.02754
307.48405
306.72017
305.82189
304.86024
303.89051
302.95419
302.08145
301.29137
300.59082
299.97988
299.4705
299.09095
298.82899
298.55866
298.16779
297.97722
297.85728
297.81345
297.79798
297.80326
297.83091
297.9458
298.00989
298.04648
298.06425
298.07101
298.06949
298.05944
298.03641
297.8769
291.22794
289.27567
287.72468
289.78211
290.06039
291.2937
292.33204
293.61661
295.06644
296.69776
298.51335
300.46897
302.48076
304.42301
306.16047
307.56027
308.47293
308.86704
308.84377
308.45427
307.78625
306.9303
305.96655
304.9598
303.95984
303.00385
302.11873
301.32093
300.61544
300.00168
299.49161
299.11255
298.85028
298.57703
298.18111
297.99176
297.87322
297.83151
297.81761
297.82174
297.85842
297.9617
298.01705
298.04836
298.06309
298.06836
298.06639
298.05647
298.03538
299.19225
291.14426
290.41353
289.04945
291.0445
291.44439
292.68821
293.8038
295.14716
296.66174
298.35244
300.20643
302.16484
304.12615
305.96067
307.53806
308.71819
309.37974
309.57351
309.36949
308.83158
308.0502
307.11188
306.09042
305.04444
304.0185
303.04589
302.15052
301.34645
300.63709
300.02135
299.51111
299.13273
298.87016
298.59383
298.19395
298.00634
297.88938
297.84939
297.83691
297.84029
297.88404
297.97576
298.02319
298.04973
298.06171
298.06551
298.06294
298.05304
298.03413
300.57975
291.13576
291.63358
290.4685
292.3931
292.91617
294.17493
295.36507
296.76792
298.34318
300.08408
301.95896
303.89263
305.77254
307.46949
308.85667
309.78871
310.21174
310.21334
309.83586
309.1615
308.27826
307.26714
306.19538
305.11558
304.06757
303.08112
302.17745
301.36846
300.65619
300.03919
299.52924
299.15162
298.88869
298.60919
298.20676
298.02114
297.90563
297.86682
297.85582
297.85848
297.90825
297.98793
298.02815
298.05045
298.06022
298.06294
298.06015
298.05031
298.03175
302.00284
291.32349
292.93101
291.97667
293.83582
294.47827
295.75925
297.02129
298.48262
300.11174
301.88781
303.76036
305.6386
307.40562
308.93528
310.0978
310.76878
310.97714
310.78495
310.24656
309.44827
308.4743
307.39932
306.28392
305.17511
304.10846
303.11065
302.20039
301.38761
300.67322
300.0556
299.5463
299.16944
298.90601
298.6233
298.21984
298.03618
297.92191
297.88383
297.87466
297.87708
297.9301
297.99807
298.03194
298.05058
298.0587
298.06054
298.05743
298.04793
298.02924
303.34654
291.78289
294.3389
293.57673
295.37229
296.13529
297.4465
298.77805
300.29332
301.9651
303.75694
305.59679
307.38585
309.00686
310.33731
311.24427
311.66433
311.66799
311.28987
310.60398
309.69474
308.64097
307.5105
306.35765
305.22432
304.14233
303.13539
302.21994
301.40435
300.68854
300.07084
299.5625
299.18636
298.9223
298.63622
298.23335
298.05143
297.93832
297.90065
297.89352
297.89703
297.94856
298.0064
298.03488
298.05031
298.05694
298.0581
298.05485
298.04562
298.02693
304.43173
292.72822
295.8514
295.27632
297.02426
297.89492
299.25652
300.63874
302.20233
303.89857
305.6775
307.45087
309.11581
310.55815
311.6537
312.29153
312.48458