/*--------------------------------*- C++ -*----------------------------------*\
  =========                 |
  \\      /  F ield         | OpenFOAM: The Open Source CFD Toolbox
   \\    /   O peration     | Website:  https://openfoam.org
    \\  /    A nd           | Version:  8
     \\/     M anipulation  |
\*---------------------------------------------------------------------------*/
FoamFile
{
    version     2.0;
    format      ascii;
    class       volVectorField;
    location    "0.159995";
    object      U;
}
// * * * * * * * * * * * * * * * * * * * * * * * * * * * * * * * * * * * * * //

dimensions      [0 1 -1 0 0 0 0];

internalField   nonuniform List<vector> 
20000
(
(238.32244 1.5094258e-16 -5.9182066)
(276.17237 -8.144217e-22 -6.4333051)
(300.3923 0 -7.1209372)
(321.06664 7.2959376e-17 -7.6987975)
(339.97707 -1.886774e-16 -8.2705125)
(356.82418 2.1604037e-16 -8.8174305)
(367.2854 -1.8186067e-16 -9.4867313)
(369.67399 7.51733e-17 -9.1946693)
(368.63708 9.6881753e-19 -9.6628758)
(369.08225 0 -8.9865108)
(368.2215 -1.3450322e-18 -9.6969716)
(368.15442 0 -8.877207)
(367.36256 0 -9.6189955)
(366.90741 1.0045667e-19 -8.837888)
(365.93986 -1.6748547e-19 -9.4303965)
(365.03852 0 -8.8104851)
(363.73672 0 -9.1944722)
(362.2709 6.1876018e-18 -8.7606385)
(360.39926 0 -8.9390796)
(358.14939 0 -8.6347351)
(355.38477 -2.8728749e-17 -8.6464527)
(352.02154 1.165948e-17 -8.4070188)
(347.96197 -2.9745219e-17 -8.2952251)
(343.09862 1.6162376e-17 -8.0532334)
(337.38512 0 -7.8358928)
(330.81394 0 -7.5526785)
(323.54377 2.1072871e-17 -7.2677249)
(315.8486 1.3532939e-17 -6.940258)
(308.12848 -3.1014462e-18 -6.5610192)
(300.76546 3.7650692e-17 -6.0833949)
(294.06512 -3.2551696e-17 -5.4869471)
(288.17803 -2.5938194e-17 -4.7745822)
(283.14882 0 -3.984471)
(278.94025 0 -3.1774359)
(275.49808 0 -2.4061687)
(272.73362 3.7444989e-17 -1.7037451)
(270.55307 -2.8255398e-17 -1.0925746)
(268.83733 0 -0.57265817)
(267.48417 -1.6017206e-16 -0.13002853)
(266.43097 -4.6973088e-17 0.24326579)
(265.62686 -1.7673008e-17 0.55329142)
(265.00738 -1.3121082e-16 0.80518135)
(264.51739 -1.6386195e-20 1.005271)
(264.11867 1.4246993e-17 1.1434648)
(263.7393 -8.4497942e-17 1.1971739)
(263.31305 1.0988502e-16 1.1526431)
(262.98077 1.1532412e-17 1.0019331)
(262.59894 -7.1266168e-17 0.74678822)
(262.72074 0 0.35701971)
(261.24687 -4.2860465e-17 -0.26088466)
(238.32004 1.5401842e-16 -6.8421441)
(276.45143 -2.1792632e-16 -7.514456)
(300.94128 1.7536283e-16 -8.3004476)
(321.80205 -1.163803e-18 -8.9649916)
(340.83445 0 -9.6170505)
(357.74039 0 -10.235926)
(367.63316 0 -10.95656)
(369.82781 3.6470964e-18 -10.626694)
(368.67881 -1.0187613e-18 -11.176558)
(369.16193 0 -10.45365)
(368.24985 4.3867862e-17 -11.25809)
(368.23316 -7.9986629e-17 -10.382197)
(367.35573 3.1349244e-17 -11.204956)
(366.89674 0 -10.392012)
(365.90956 -5.4488806e-18 -11.056161)
(364.99585 -3.6392964e-17 -10.43445)
(363.67646 3.0137741e-17 -10.875928)
(362.19362 -6.2936658e-18 -10.466352)
(360.30723 0 -10.703227)
(358.04368 0 -10.452761)
(355.26959 -1.4504662e-17 -10.531216)
(351.90197 1.2050594e-17 -10.35877)
(347.84613 -1.020226e-17 -10.309727)
(342.99583 3.2851286e-17 -10.118293)
(337.30582 1.3579079e-17 -9.9223363)
(330.76777 0 -9.613706)
(323.52883 0 -9.2362977)
(315.85987 -3.0814981e-17 -8.7471012)
(308.14635 -1.0051646e-16 -8.1502171)
(300.77143 -1.2207588e-16 -7.4278483)
(294.04989 1.306146e-16 -6.5886995)
(288.15067 5.1918249e-17 -5.6573373)
(283.11828 2.0560312e-17 -4.6808061)
(278.91379 -1.432437e-16 -3.7201284)
(275.47852 -2.4695211e-17 -2.8241224)
(272.72558 1.8735495e-17 -2.0213313)
(270.55586 2.8636242e-17 -1.3316853)
(268.85728 9.4956278e-20 -0.75292488)
(267.53672 3.7037669e-16 -0.26629251)
(266.49475 2.6354177e-16 0.14066935)
(265.69003 3.3720216e-16 0.47670859)
(265.06697 7.86652e-17 0.74754362)
(264.57142 -3.2843004e-16 0.96142866)
(264.1592 2.4204617e-16 1.1082725)
(263.75091 -8.4101358e-17 1.1665047)
(263.32227 -1.4028039e-16 1.1288949)
(262.94819 -1.7449655e-16 0.98297233)
(262.62516 2.1054276e-16 0.7388157)
(262.47908 6.7308364e-18 0.3303179)
(261.31206 1.2197723e-16 -0.28661414)
(238.35048 0 -7.7972027)
(276.86431 -8.6731217e-19 -8.6485211)
(301.5718 0 -9.5373841)
(322.59026 2.3736527e-18 -10.298121)
(341.72067 0 -11.038629)
(358.64968 1.7514012e-18 -11.739826)
(367.82815 0 -12.500728)
(369.84546 7.6725481e-17 -12.116285)
(368.55678 -6.6237726e-17 -12.7211)
(369.04708 5.5157487e-17 -11.940083)
(368.11077 -4.8826206e-17 -12.820943)
(368.10567 4.3118937e-17 -11.888067)
(367.20904 -2.3893582e-17 -12.77927)
(366.73902 0 -11.94042)
(365.72796 6.1068314e-17 -12.666142)
(364.79329 -7.382276e-17 -12.047949)
(363.44893 3.0649821e-17 -12.54073)
(361.93588 -1.2890854e-17 -12.160698)
(360.01887 -2.0925756e-19 -12.44823)
(357.72291 -1.7957239e-17 -12.24952)
(354.92321 5.9063936e-17 -12.386661)
(351.53787 2.3725252e-19 -12.27692)
(347.47858 -2.0541935e-17 -12.285179)
(342.6423 -1.7055505e-17 -12.14225)
(336.98517 0 -11.96809)
(330.49813 0 -11.639419)
(323.31432 -7.6222802e-17 -11.17782)
(315.68885 -3.1659514e-17 -10.536762)
(308.00005 2.501416e-17 -9.7320618)
(300.63779 2.4736662e-16 -8.7708655)
(293.92234 -1.3222549e-16 -7.6898685)
(288.02813 -1.8367254e-16 -6.5373861)
(283.00847 1.4481701e-16 -5.3725139)
(278.82524 4.1849994e-16 -4.2573445)
(275.41304 -2.2329104e-16 -3.2363644)
(272.68086 3.0368465e-16 -2.3333752)
(270.52847 2.3023184e-16 -1.5651712)
(268.85175 3.6814918e-16 -0.92712761)
(267.55621 -2.4271716e-16 -0.39790135)
(266.53533 1.684003e-16 0.040187986)
(265.7342 -2.8484251e-16 0.40108882)
(265.10974 2.6267199e-17 0.6904513)
(264.60827 5.9913817e-16 0.91763294)
(264.18154 -1.9909573e-16 1.0724153)
(263.75542 1.4674013e-16 1.1348977)
(263.32438 0 1.1061849)
(262.94262 1.9616026e-16 0.96199004)
(262.62636 -1.4740251e-16 0.72533083)
(262.38017 0 0.30137093)
(261.33029 -2.4991587e-16 -0.308392)
(238.22152 -1.2517477e-18 -8.7617405)
(277.0593 2.2704598e-16 -9.7768807)
(301.98359 -3.6442283e-16 -10.771431)
(323.16989 1.5357798e-16 -11.624612)
(342.40183 0 -12.452021)
(359.35568 1.0874216e-16 -13.231711)
(367.81294 -2.89203e-18 -14.022871)
(369.51369 -7.543764e-17 -13.5903)
(368.2759 0 -14.264932)
(368.78469 -6.3119604e-17 -13.422185)
(367.8111 5.2587315e-17 -14.385881)
(367.77594 -9.7462992e-18 -13.40277)
(366.87143 -8.1169549e-18 -14.373543)
(366.38335 -1.3541527e-17 -13.505549)
(365.33993 -1.1267546e-17 -14.290211)
(364.37385 5.647009e-17 -13.671774)
(362.99264 -4.684865e-17 -14.211028)
(361.43712 1.3143379e-17 -13.856147)
(359.47673 1.3921229e-19 -14.187608)
(357.13368 -3.6259661e-17 -14.032419)
(354.29254 1.4891979e-17 -14.217396)
(350.87234 -2.4892307e-17 -14.159646)
(346.79329 0 -14.214674)
(341.95739 6.8755984e-17 -14.111955)
(336.32617 -2.8759795e-17 -13.954792)
(329.89362 4.6907275e-17 -13.607414)
(322.78328 5.822253e-17 -13.071828)
(315.23339 -1.2691359e-16 -12.292702)
(307.61263 1.0322533e-16 -11.290817)
(300.30979 2.1309014e-17 -10.098266)
(293.64419 1.7259754e-17 -8.7817108)
(287.79219 -2.6431358e-17 -7.4120599)
(282.81512 -1.4596763e-16 -6.059896)
(278.67774 -2.4336836e-16 -4.7909715)
(275.30826 1.7543918e-16 -3.6466361)
(272.61127 -6.1214174e-16 -2.6450912)
(270.48694 -2.3181665e-16 -1.7990438)
(268.82644 2.1812554e-17 -1.1012564)
(267.54903 5.0417878e-16 -0.52814695)
(266.55378 -3.8638229e-16 -0.059329462)
(265.76925 -3.5715083e-17 0.32463979)
(265.14766 2.6268727e-17 0.63199288)
(264.64039 -2.8989699e-16 0.8719609)
(264.19538 4.4016672e-16 1.0350682)
(263.75944 4.1802077e-17 1.1027502)
(263.32419 4.6256358e-16 1.0833223)
(262.93694 -1.1449049e-17 0.94107086)
(262.62746 -2.6565934e-16 0.70865168)
(262.23692 0 0.2733175)
(261.34949 1.6112434e-16 -0.32677823)
(237.92571 3.2772195e-16 -9.7474132)
(277.08306 -2.3234875e-16 -10.922165)
(302.2286 -1.4535645e-18 -12.036233)
(323.5892 0 -12.98786)
(342.92004 0 -13.906829)
(359.88107 3.6255082e-18 -14.763692)
(367.58647 3.0499245e-18 -15.576219)
(369.11781 -5.1192387e-18 -15.095191)
(367.80876 0 -15.842447)
(368.33082 7.1241723e-18 -14.932604)
(367.31969 1.1920085e-17 -15.977406)
(367.28356 -2.2349072e-20 -14.935105)
(366.34378 0 -15.977851)
(365.83657 2.753689e-17 -15.078778)
(364.75949 0 -15.918859)
(363.75918 -1.9090512e-17 -15.300037)
(362.33786 1.5836555e-17 -15.881542)
(360.73506 -1.6331343e-19 -15.550037)
(358.72533 -2.2034221e-17 -15.918897)
(356.32671 3.6656736e-17 -15.802041)
(353.43145 -3.0745454e-17 -16.026456)
(349.95845 -5.1263773e-17 -16.012383)
(345.83612 -6.3554754e-17 -16.10443)
(340.97249 -6.9677231e-17 -16.032688)
(335.33835 0 -15.884476)
(328.93626 0 -15.51374)
(321.89217 0 -14.904192)
(314.44092 -4.0051874e-19 -13.993304)
(306.93185 0 -12.805496)
(299.73802 3.5182193e-19 -11.393037)
(293.17092 0 -9.8492941)
(287.40983 2.1481817e-16 -8.2682343)
(282.51484 -2.1222894e-17 -6.7330532)
(278.45207 4.923906e-17 -5.3136548)
(275.14623 -2.5109924e-17 -4.0486489)
(272.50376 5.7812129e-16 -2.9508821)
(270.42315 -4.6688108e-16 -2.0297222)
(268.79066 -3.2858798e-16 -1.2741587)
(267.52804 -5.2275935e-16 -0.65699043)
(266.54823 0 -0.1567415)
(265.78211 3.5794803e-17 0.24958556)
(265.16775 4.2108049e-16 0.57350732)
(264.65709 2.0084098e-20 0.82537157)
(264.20054 -4.1096029e-16 0.99667349)
(263.76058 -6.2427649e-17 1.0699288)
(263.32027 -4.9049118e-16 1.0504184)
(262.93248 1.1338871e-17 0.91992567)
(262.62361 2.709331e-16 0.68849138)
(262.12486 0 0.24552349)
(261.36763 -2.4607013e-18 -0.3420755)
(237.52844 3.3269055e-16 -10.736199)
(276.99722 -2.3325299e-16 -12.069285)
(302.36495 1.4066528e-18 -13.302622)
(323.9039 1.6102761e-16 -14.35464)
(343.32998 0 -15.369766)
(360.26746 1.2195827e-16 -16.303586)
(367.18467 -9.3182572e-17 -17.131498)
(368.56317 0 -16.597886)
(367.21331 -6.9890351e-17 -17.420497)
(367.74984 -1.1993006e-19 -16.445735)
(366.70126 3.6302047e-17 -17.577446)
(366.66129 -3.0322136e-17 -16.478377)
(365.6871 3.3588813e-17 -17.594678)
(365.15791 -1.3991271e-17 -16.664516)
(364.04401 0 -17.557287)
(363.00511 -1.9488954e-17 -16.937687)
(361.53913 -3.2359677e-17 -17.556558)
(359.88362 2.6938923e-17 -17.246242)
(357.81787 0 -17.646746)
(355.35486 0 -17.563315)
(352.39354 -3.1296887e-17 -17.819465)
(348.85207 5.1374419e-17 -17.841108)
(344.66641 6.428706e-17 -17.960379)
(339.75149 0 -17.909254)
(334.08967 0 -17.759508)
(327.6967 1.9451898e-16 -17.356826)
(320.7082 1.3975123e-16 -16.669091)
(313.35965 1.1335626e-16 -15.628195)
(305.98691 -7.231406e-19 -14.261851)
(298.94287 -4.9365722e-16 -12.639949)
(292.5212 0 -10.879739)
(286.89302 2.7370115e-17 -9.0962464)
(282.11516 -2.1123839e-17 -7.3849504)
(278.15373 3.3262881e-17 -5.82049)
(274.93129 -2.5322022e-17 -4.4392109)
(272.35687 -2.7163588e-16 -3.2486097)
(270.33029 -2.9351935e-17 -2.2548141)
(268.73914 -7.0455068e-16 -1.4442718)
(267.49898 0 -0.78488168)
(266.53191 -7.2908122e-16 -0.25302569)
(265.77788 5.376439e-16 0.17577781)
(265.17225 -3.9500539e-16 0.5155548)
(264.66182 -3.860788e-17 0.7785324)
(264.20164 9.1913324e-16 0.9575322)
(263.75793 -6.8411869e-16 1.0362503)
(263.31337 1.5223384e-17 1.0156648)
(262.92583 7.1979806e-16 0.8987302)
(262.61477 0 0.66498316)
(262.0141 6.2974803e-18 0.21807974)
(261.38537 -4.8045163e-18 -0.35416218)
(237.06479 -2.653586e-18 -11.741945)
(276.84191 0 -13.241875)
(302.43255 0 -14.601387)
(324.15397 0 -15.756952)
(343.67364 -4.4255778e-18 -16.87238)
(360.54608 -3.7553833e-18 -17.876153)
(366.64775 -1.0769458e-16 -18.711353)
(367.92344 8.4855409e-17 -18.121106)
(366.52442 0 -19.020385)
(367.07296 5.912756e-17 -17.974573)
(365.98486 -4.9252755e-17 -19.192361)
(365.93827 0 -18.034312)
(364.92802 -1.7150015e-17 -19.222979)
(364.37398 0 -18.263021)
(363.22112 0 -19.20553)
(362.14074 1.9765548e-17 -18.585006)
(360.62735 -5.9572783e-20 -19.236712)
(358.91497 8.2393931e-17 -18.94591)
(356.78783 2.2845203e-17 -19.372788)
(354.25301 -7.6508832e-17 -19.319139)
(351.21536 1.5695249e-17 -19.600684)
(347.59181 5.2415099e-17 -19.651266)
(343.32523 -1.0948315e-16 -19.788751)
(338.33808 3.6123738e-17 -19.747772)
(332.62592 1.0518434e-16 -19.584698)
(326.22138 -2.2170814e-16 -19.138548)
(319.27573 -1.4177273e-16 -18.363992)
(312.03079 -2.6594867e-16 -17.190186)
(304.81166 0 -15.649462)
(297.94761 -1.2208836e-18 -13.827548)
(291.70828 0 -11.862162)
(286.24956 0 -9.8869435)
(281.62035 0 -8.0086028)
(277.78477 3.3560866e-17 -6.3063802)
(274.66407 -2.5530043e-17 -4.8145687)
(272.17152 -1.9602117e-17 -3.5354963)
(270.20954 9.2989164e-16 -2.472471)
(268.66658 7.0780469e-16 -1.609582)
(267.45909 -4.7754233e-16 -0.91052221)
(266.50905 2.266448e-15 -0.34840739)
(265.76517 -5.7441984e-16 0.10283972)
(265.16706 2.632231e-17 0.45819737)
(264.6599 0 0.7318102)
(264.20022 -9.02707e-16 0.91790865)
(263.75111 2.0622127e-17 1.001973)
(263.30374 -1.5125495e-17 0.9897079)
(262.91696 -7.1326043e-16 0.87716481)
(262.59487 0 0.63899226)
(261.92127 6.192913e-18 0.19092355)
(261.39875 -3.0568305e-16 -0.36342201)
(236.57953 3.4837914e-16 -12.753774)
(276.65448 0 -14.419503)
(302.46278 1.9723154e-16 -15.907549)
(324.36664 -5.1489826e-18 -17.169076)
(343.97781 -2.7936026e-16 -18.392298)
(360.72664 1.2240304e-16 -19.458575)
(365.98924 -6.4595078e-18 -20.30155)
(367.20612 1.081984e-17 -19.654962)
(365.75909 9.0524791e-18 -20.6354)
(366.31802 7.5213631e-17 -19.518225)
(365.18862 1.3523275e-19 -20.825391)
(365.13314 -8.3530893e-17 -19.607882)
(364.0848 1.0454295e-16 -20.867317)
(363.50361 -5.7901277e-17 -19.877059)
(362.31042 0 -20.864938)
(361.1861 4.0428818e-17 -20.243086)
(359.62263 -6.6894061e-17 -20.923025)
(357.84918 -8.3612222e-17 -20.650819)
(355.65517 -1.1648617e-16 -21.099636)
(353.04136 1.7412285e-16 -21.072569)
(349.91796 -3.2433366e-17 -21.373737)
(346.20049 1.3378947e-16 -21.44693)
(341.83845 8.8504582e-17 -21.593933)
(336.7624 0 -21.552449)
(330.98242 -1.212684e-16 -21.363392)
(324.55077 1.7592002e-16 -20.860466)
(317.6383 2.0291283e-17 -19.987874)
(310.49663 5.388525e-16 -18.675265)
(303.44243 4.3853377e-16 -16.961496)
(296.78094 -1.4346759e-18 -14.947354)
(290.7531 -5.6333734e-16 -12.788153)
(285.49339 0 -10.633047)
(281.03937 -6.9657525e-16 -8.5982127)
(277.35102 3.3852638e-17 -6.7669821)
(274.34837 -2.5733556e-17 -5.1715782)
(271.94968 -6.299803e-16 -3.809247)
(270.06158 -5.0468373e-16 -2.6809201)
(268.57405 7.3341469e-16 -1.7688269)
(267.4045 4.9564757e-16 -1.0325186)
(266.47927 -1.56344e-15 -0.44218026)
(265.74766 1.7952212e-17 0.030585703)
(265.15702 0 0.40132779)
(264.65451 0 0.68529085)
(264.19682 2.8142938e-17 0.87787073)
(263.74016 1.3149586e-15 0.96695566)
(263.29141 -1.5024035e-17 0.96203804)
(262.90471 -6.8462342e-16 0.85500101)
(262.55688 -1.6306154e-17 0.611417)
(261.84459 -7.7299018e-16 0.16414293)
(261.40448 2.8970831e-16 -0.37021502)
(236.06621 -3.5509383e-16 -13.77915)
(276.43036 0 -15.617247)
(302.45292 -3.1482896e-18 -17.240462)
(324.5401 5.3327727e-18 -18.611615)
(344.2418 -4.5868916e-18 -19.950336)
(360.81919 7.8029434e-18 -21.066021)
(365.20631 6.5581497e-18 -21.916969)
(366.41735 3.7935597e-20 -21.212339)
(364.92151 -9.1792018e-18 -22.275018)
(365.48921 4.5953302e-17 -21.082068)
(364.31822 -1.0211453e-16 -22.477754)
(364.25282 -1.4033994e-19 -21.198686)
(363.16662 5.3079079e-17 -22.525404)
(362.55727 2.9592649e-17 -21.504737)
(361.32315 4.9378091e-17 -22.533919)
(360.15262 2.3857683e-19 -21.911471)
(358.53627 -1.5687621e-19 -22.615935)
(356.69754 0 -22.361895)
(354.43141 7.1062519e-17 -22.828505)
(351.73196 -1.5738009e-16 -22.825358)
(348.51416 1.6761835e-17 -23.140963)
(344.69233 -1.3551557e-16 -23.230827)
(340.22236 2.281227e-17 -23.37889)
(335.04385 1.3174915e-16 -23.326118)
(329.18252 0 -23.097831)
(322.71264 1.439183e-18 -22.523603)
(315.82727 0 -21.539967)
(308.7901 -2.7279733e-16 -20.080567)
(301.91046 -4.7068972e-16 -18.193167)
(295.46889 2.0405733e-17 -15.993309)
(289.67506 5.6827321e-16 -13.65131)
(284.63819 -4.5010609e-16 -11.32869)
(280.38138 6.7992667e-16 -9.1489272)
(276.85843 1.6888653e-17 -7.1985339)
(273.98795 -8.3459716e-16 -5.5073971)
(271.69389 6.3356022e-16 -4.0677335)
(269.88812 0 -2.8786076)
(268.46209 2.0309119e-19 -1.9207974)
(267.33555 3.3186077e-17 -1.149865)
(266.43955 -2.4444884e-17 -0.53330931)
(265.72549 0 -0.040579243)
(265.14397 -2.6347113e-17 0.34493523)
(264.64681 1.2305704e-15 0.6390119)
(264.18958 -1.4042508e-17 0.83768246)
(263.72523 -6.5423972e-16 0.93091555)
(263.27644 1.4919155e-17 0.93286555)
(262.88846 6.9995249e-16 0.83184411)
(262.49769 0 0.58332438)
(261.7861 7.6597875e-16 0.13813201)
(261.40396 -5.7570516e-16 -0.37513686)
(235.53761 5.6101294e-18 -14.815093)
(276.18429 -2.5799099e-16 -16.828417)
(302.41672 4.1348729e-16 -18.589851)
(324.68533 -3.4861475e-16 -20.071157)
(344.47634 1.4509773e-16 -21.53218)
(360.82282 -1.3477336e-16 -22.685801)
(364.31896 2.140603e-16 -23.546696)
(365.56074 -1.7889312e-16 -22.786182)
(364.01763 1.4965606e-16 -23.933601)
(364.59396 -6.2126703e-17 -22.661443)
(363.38226 -1.3010875e-17 -24.145034)
(363.30659 4.3306319e-17 -22.803552)
(362.18282 -1.7925262e-17 -24.194759)
(361.54388 -6.0093828e-17 -23.144845)
(360.26751 -5.0205252e-17 -24.212024)
(359.04769 2.3214876e-19 -23.590581)
(357.37515 -3.4853277e-17 -24.316073)
(355.4667 2.8803139e-17 -24.080134)
(353.12314 0 -24.560759)
(350.33149 1.0016578e-16 -24.579025)
(347.011 8.365464e-17 -24.9041)
(343.07529 1.3862083e-16 -25.004707)
(338.48673 0 -25.145301)
(333.195 -1.7107034e-16 -25.070143)
(327.24265 1.5531246e-17 -24.788823)
(320.72811 -2.0680875e-16 -24.127935)
(313.86815 -3.4190036e-16 -23.019232)
(306.93935 0 -21.403928)
(300.24349 0 -19.341148)
(294.03606 2.1040076e-17 -16.961161)
(288.49391 5.5952692e-16 -14.447014)
(283.69859 4.2507425e-16 -11.969465)
(279.65661 2.2001595e-17 -9.6569432)
(276.31399 0 -7.5979884)
(273.58746 8.3963389e-16 -5.8196696)
(271.40716 6.1793001e-16 -4.3091428)
(269.69101 1.4952867e-17 -3.0641373)
(268.33205 -7.1680316e-16 -2.064462)
(267.2527 -1.0638983e-15 -1.2617598)
(266.38917 -7.8465926e-16 -0.62097891)
(265.69628 -3.6014528e-17 -0.10985296)
(265.12698 2.6296359e-17 0.28937019)
(264.63579 -1.2281073e-15 0.59300174)
(264.17691 0 0.79759463)
(263.70642 0 0.8944382)
(263.25914 1.482933e-17 0.90416142)
(262.86808 -1.0823983e-17 0.80718064)
(262.42332 -1.5924992e-17 0.55520075)
(261.73846 -7.4165789e-16 0.11363461)
(261.39854 1.1306628e-15 -0.37858699)
(234.98759 -2.8527429e-18 -15.865859)
(275.91997 4.0377606e-18 -18.061279)
(302.35911 -2.0926398e-16 -19.966557)
(324.80589 3.4995684e-16 -21.558798)
(344.68615 -1.4788662e-16 -23.15055)
(360.73446 -1.2903487e-16 -24.328257)
(363.43082 -1.5740983e-19 -25.195537)
(364.64513 -1.1509106e-17 -24.373017)
(363.05622 5.6962754e-17 -25.60679)
(363.64077 1.5849976e-17 -24.252526)
(362.38888 3.9650158e-17 -25.823781)
(362.30182 0 -24.420206)
(361.13987 -1.8304537e-17 -25.873845)
(360.46882 3.0495927e-17 -24.797173)
(359.148 5.0838792e-17 -25.899584)
(357.87528 4.2560168e-17 -25.281109)
(356.1431 3.5521034e-17 -26.024136)
(354.16055 -2.9300894e-17 -25.806103)
(351.73424 -1.2303697e-16 -26.297029)
(348.84379 2.0256982e-17 -26.334383)
(345.41261 -3.3320066e-17 -26.664092)
(341.35424 -8.4465622e-17 -26.769357)
(336.63785 -2.3634975e-17 -26.893727)
(331.22435 1.913992e-17 -26.784643)
(325.17463 2.5732747e-16 -26.435925)
(318.61316 0 -25.672425)
(311.78116 3.2306162e-16 -24.424149)
(304.9675 -4.471896e-19 -22.643402)
(298.46543 -4.1538671e-16 -20.403056)
(292.50451 -2.4548673e-17 -17.848067)
(287.22804 -1.1661666e-15 -15.172123)
(282.68877 9.1982709e-16 -12.552246)
(278.8754 -7.1695311e-16 -10.119443)
(275.72491 3.4686192e-17 -7.9629912)
(273.15179 1.9890636e-19 -6.1064978)
(271.0928 -6.609718e-16 -4.5319613)
(269.47249 0 -3.2363257)
(268.18535 1.4166903e-15 -2.1989056)
(267.15688 2.1160693e-15 -1.3675085)
(266.32852 -7.3674403e-16 -0.70466093)
(265.65888 -1.1700345e-15 -0.17663843)
(265.10406 1.6825821e-15 0.23516528)
(264.61952 0 0.54754699)
(264.15881 0 0.75784684)
(263.68384 -2.0237867e-17 0.85831796)
(263.23982 9.5620349e-16 0.8753406)
(262.844 1.3727287e-15 0.78076776)
(262.34132 0 0.52704393)
(261.6947 7.4070977e-16 0.091139943)
(261.38919 -5.5522774e-16 -0.379956)
(234.43295 0 -16.924448)
(275.65872 0 -19.304737)
(302.29823 -2.2005849e-16 -21.358796)
(324.91642 1.8684353e-16 -23.063373)
(344.8851 0 -24.797387)
(360.55533 0 -25.983105)
(362.46589 1.3893062e-17 -26.85521)
(363.67979 -1.1593504e-17 -25.96656)
(362.04528 1.9311108e-17 -27.290846)
(362.63654 -1.6052685e-17 -25.853212)
(361.34385 -5.3727617e-17 -27.513034)
(361.24297 0 -26.049226)
(360.04111 7.4793782e-17 -27.563727)
(359.33455 3.2456745e-19 -26.46316)
(357.96675 2.8356324e-19 -27.597552)
(356.63761 -4.3075885e-17 -26.983667)
(354.84247 0 -27.740381)
(352.78136 0 -27.540261)
(350.26664 7.4393725e-17 -28.038069)
(347.27063 -2.9953647e-19 -28.092116)
(343.72088 -2.9393446e-16 -28.421485)
(339.53173 -8.677756e-17 -28.524951)
(334.67944 0 -28.623905)
(329.1376 1.9946421e-17 -28.468752)
(322.98719 -2.4277807e-16 -28.037633)
(316.38047 -5.3619124e-17 -27.155114)
(309.58309 2.1678177e-17 -25.752685)
(302.89439 5.7545474e-16 -23.797114)
(296.59725 4.6198322e-16 -21.377133)
(290.89421 3.7045871e-16 -18.652218)
(285.89471 5.8864113e-16 -15.824687)
(281.6225 -9.262667e-16 -13.075013)
(278.04807 7.2160842e-16 -10.53451)
(275.09862 3.4948328e-17 -8.2918642)
(272.6861 7.98919e-16 -6.3664619)
(270.75434 -1.270112e-15 -4.7349982)
(269.23495 3.0310562e-17 -3.3941975)
(268.02364 -1.4431231e-15 -2.3233654)
(267.0491 -1.0851596e-15 -1.4665126)
(266.25818 1.5727795e-15 -0.78387929)
(265.61364 1.1157672e-15 -0.24056912)
(265.07459 -1.6539766e-15 0.18266768)
(264.59723 0 0.50291147)
(264.13519 -1.7464239e-15 0.71863585)
(263.65788 2.5677892e-20 0.82336768)
(263.21869 -9.4867955e-16 0.84664189)
(262.81657 -1.358628e-15 0.75244389)
(262.25506 -9.9215271e-16 0.49884892)
(261.65175 -7.1711107e-16 0.070903389)
(261.37661 5.3073977e-16 -0.38057176)
(233.87649 0 -18.001836)
(275.40085 -2.7298219e-16 -20.574094)
(302.23625 1.3483314e-17 -22.780767)
(325.02171 3.6958067e-16 -24.596305)
(345.07793 -1.4847994e-16 -26.481448)
(360.28485 0 -27.652836)
(361.45145 -1.270152e-16 -28.531447)
(362.66791 9.3961996e-17 -27.572737)
(360.98769 0 -28.989461)
(361.5833 6.5500329e-17 -27.466467)
(360.24847 -2.7288423e-17 -29.214936)
(360.13063 9.1122618e-17 -27.693097)
(358.88692 -7.5716124e-17 -29.266008)
(358.14165 3.1692234e-17 -28.143982)
(356.72487 -1.0545341e-16 -29.306173)
(355.33613 -3.3698778e-19 -28.69834)
(353.47462 3.6429803e-17 -29.464973)
(351.33014 3.0638431e-17 -29.28292)
(348.72093 -2.5217357e-17 -29.784282)
(345.61248 -2.1273305e-17 -29.852458)
(341.93652 1.5743841e-16 -30.17624)
(337.60905 1.1633052e-16 -30.270959)
(332.61385 -2.4483409e-17 -30.334761)
(326.93894 1.9810604e-17 -30.120664)
(320.68738 0 -29.591466)
(314.04083 0 -28.57322)
(307.28843 0 -27.002336)
(300.73744 -1.3971253e-17 -24.863219)
(294.65762 1.4507496e-17 -22.262143)
(289.22319 -7.5463585e-16 -19.372684)
(284.5098 0 -16.403783)
(280.51277 0 -13.536738)
(277.18463 -2.2869934e-17 -10.901066)
(274.44246 -1.7746045e-17 -8.5835736)
(272.19558 -1.6869829e-15 -6.5986045)
(270.39539 2.5922273e-15 -4.9173822)
(268.98091 -9.7258392e-16 -3.5369977)
(267.84866 -2.2644875e-17 -2.4372249)
(266.93051 1.670235e-17 -1.5582816)
(266.17887 0 -0.85823844)
(265.56089 1.1873465e-15 -0.30131987)
(265.03869 -5.2413328e-17 0.13212715)
(264.56884 -2.1341835e-20 0.45930304)
(264.10602 1.7799063e-15 0.68005063)
(263.6289 0 0.79068814)
(263.1958 -1.8533753e-15 0.81784079)
(262.78533 -1.3447856e-15 0.72223173)
(262.167 1.9426261e-15 0.47055836)
(261.6085 7.1616258e-16 0.053031196)
(261.36134 -5.1113779e-16 -0.37988906)
(233.32495 0 -19.08694)
(275.14399 8.5529555e-18 -21.850915)
(302.17708 -1.3854606e-17 -24.215885)
(325.12311 5.8991798e-18 -26.142915)
(345.25779 -1.0064152e-17 -28.189895)
(359.92101 0 -29.325472)
(360.38586 1.1489247e-16 -30.21664)
(361.61033 -8.3630046e-17 -29.186768)
(359.88306 2.0044441e-17 -30.702885)
(360.48006 0 -29.09437)
(359.10151 -2.7831955e-17 -30.931615)
(358.96394 9.265074e-17 -29.35348)
(357.6773 3.9029498e-17 -30.981244)
(356.8909 -9.61577e-17 -29.839497)
(355.42359 5.3736456e-17 -31.024973)
(353.97195 4.4748226e-17 -30.424941)
(352.04009 7.4429369e-17 -31.198107)
(349.8068 -6.1987126e-17 -31.0345)
(347.09665 2.5644069e-17 -31.536119)
(343.86886 1.7249405e-16 -31.615382)
(340.05932 0 -31.927912)
(335.58649 0 -32.00634)
(330.44234 1.9804349e-16 -32.024592)
(324.6314 0 -31.737824)
(318.28108 2.7111183e-16 -31.094151)
(311.60365 -2.8084018e-17 -29.923302)
(304.9101 -5.6939035e-19 -28.170229)
(298.51215 -5.705505e-16 -25.83987)
(292.66313 -3.004328e-17 -23.057227)
(287.50763 7.5949906e-16 -20.009197)
(283.08783 1.8694611e-17 -16.909302)
(279.37169 -9.4821542e-16 -13.937212)
(276.2946 0 -11.218755)
(273.76355 -1.1675017e-15 -8.8376667)
(271.68537 2.5507662e-17 -6.8024029)
(270.01963 -1.3015525e-15 -5.0785511)
(268.71298 1.0058983e-15 -3.6641892)
(267.66224 -2.2636033e-17 -2.5400226)
(266.80231 0 -1.6424291)
(266.09136 0 -0.92740984)
(265.50112 -2.2646616e-15 -0.35862059)
(264.99657 -2.6138532e-17 0.083757468)
(264.53445 1.8982911e-17 0.41692603)
(264.07138 -1.3723878e-17 0.64206765)
(263.59685 -1.2512146e-15 0.7608649)
(263.17089 1.8234665e-15 0.78887422)
(262.74835 1.3303761e-15 0.69042863)
(262.07937 -9.8093996e-16 0.44210623)
(261.56493 2.2001277e-17 0.037538473)
(261.344 -8.0666856e-18 -0.37783312)
(232.77693 -6.0770841e-18 -20.188762)
(274.88757 -2.7853399e-16 -23.149714)
(302.12276 7.0437456e-18 -25.679545)
(325.22314 -5.9879492e-18 -27.719243)
(345.41653 -1.6421228e-16 -29.933966)
(359.41549 1.375799e-16 -31.013143)
(359.26837 -1.3146721e-16 -31.924952)
(360.50267 8.494583e-17 -30.818348)
(358.72801 6.1125539e-17 -32.437373)
(359.32446 -5.0561323e-17 -30.741351)
(357.90217 1.4124817e-16 -32.663929)
(357.74331 -1.409409e-16 -31.030044)
(356.41361 -3.9112281e-17 -32.707953)
(355.58387 0 -31.548828)
(354.06405 3.4094021e-19 -32.753486)
(352.54533 -2.2686443e-16 -32.163848)
(350.53826 3.7885326e-17 -32.940437)
(348.21025 1.2614832e-16 -32.795414)
(345.39265 1.0501877e-16 -33.29363)
(342.03878 -1.5252829e-16 -33.380397)
(338.08855 0 -33.675557)
(333.46376 -3.0519193e-17 -33.729479)
(328.16561 -1.7499783e-16 -33.690999)
(322.21754 0 -33.316886)
(315.77377 -2.7327743e-16 -32.541667)
(309.07785 0 -31.20136)
(302.4602 -3.7097074e-16 -29.253254)
(296.23272 -6.0231985e-16 -26.725309)
(290.62887 5.1536875e-16 -23.761911)
(285.76219 -8.2192275e-16 -20.562092)
(281.64199 6.3042827e-16 -17.341845)
(278.2104 1.9110654e-15 -14.276937)
(275.38686 0 -11.48786)
(273.06866 1.1374011e-15 -9.0542145)
(271.16039 8.9319255e-16 -6.9777323)
(269.63064 -1.3496161e-15 -5.2182347)
(268.43379 -9.640455e-16 -3.775447)
(267.46623 0 -2.6314465)
(266.66576 -3.3561304e-17 -1.7186762)
(265.99649 1.5990865e-15 -0.99113536)
(265.43483 1.1129314e-15 -0.41224412)
(264.94846 1.6962303e-15 0.03774306)
(264.4942 -1.2099248e-15 0.37598056)
(264.03169 1.7490661e-15 0.60463076)
(263.56159 2.5250673e-15 0.72826946)
(263.14322 1.8223462e-15 0.76003149)
(262.70211 0 0.65770481)
(261.99491 0 0.41343723)
(261.52162 0 0.02431637)
(261.32381 -1.011454e-15 -0.37438826)
(232.22487 1.2496036e-17 -21.308984)
(274.62491 -4.4215361e-18 -24.473108)
(302.06749 2.3729239e-16 -27.173312)
(325.31906 -3.8498709e-16 -29.326038)
(345.5369 3.3365704e-16 -31.705399)
(358.78183 -1.3971256e-16 -32.711942)
(358.0968 1.4799365e-17 -33.660576)
(359.34377 1.2320892e-17 -32.46357)
(357.52316 -2.0707086e-17 -34.186689)
(358.11834 -1.7134608e-17 -32.402643)
(356.65305 2.8754574e-17 -34.407908)
(356.47139 4.7656821e-17 -32.720269)
(355.09799 0 -34.444739)
(354.2216 -1.3323595e-16 -33.271897)
(352.64608 5.519304e-17 -34.492339)
(351.05514 1.3840344e-16 -33.915965)
(348.96751 -7.6455278e-17 -34.692713)
(346.53887 -9.5937624e-17 -34.56587)
(343.60743 -1.0640844e-16 -35.056634)
(340.12089 -1.7849704e-16 -35.146737)
(336.02303 1.4853852e-16 -35.417932)
(331.24002 2.1595178e-16 -35.438367)
(325.78384 2.5203844e-17 -35.331032)
(319.69955 0 -34.853852)
(313.17073 0 -33.929387)
(306.47203 0 -32.40301)
(299.95019 3.7359609e-16 -30.248198)
(293.91231 6.0644928e-16 -27.517941)
(288.56854 -4.8813374e-16 -24.376072)
(284.0001 7.5411928e-16 -21.032201)
(280.18421 -5.9603742e-16 -17.702589)
(277.03904 -9.6256974e-16 -14.556999)
(274.46962 -1.4958764e-15 -11.7092)
(272.36407 -1.1831569e-15 -9.2337368)
(270.62537 2.7142398e-17 -7.1248227)
(269.23196 1.3125494e-15 -5.3364326)
(268.14593 1.0120665e-15 -3.8706457)
(267.26248 -4.551666e-17 -2.7113339)
(266.52213 -1.6822894e-17 -1.7868484)
(265.89507 -3.122777e-15 -1.0492279)
(265.36253 3.586754e-17 -0.46200791)
(264.89462 -1.7174403e-15 -0.0057578183)
(264.4483 3.6340422e-15 0.33662501)
(263.9876 -3.4791309e-15 0.56841101)
(263.52383 -1.2340739e-15 0.69416474)
(263.11185 1.439408e-17 0.73160405)
(262.64246 -2.0323211e-17 0.62504807)
(261.91649 0 0.38460658)
(261.47929 -1.3619409e-15 0.013126375)
(261.30155 9.9030835e-16 -0.3695402)
(231.66628 -6.34232e-18 -22.440765)
(274.36056 4.5203912e-18 -25.811663)
(302.01677 -2.4155965e-16 -28.689819)
(325.41815 1.9281198e-16 -30.961041)
(345.61156 0 -33.506974)
(358.02602 0 -34.413811)
(356.87849 0 -35.411903)
(358.1398 -1.2564844e-16 -34.118933)
(356.27358 1.0478275e-16 -35.947667)
(356.86595 0 -34.076214)
(355.35724 1.5033167e-19 -36.162664)
(355.14994 -4.8684672e-17 -34.424241)
(353.73075 -4.0609911e-17 -36.192486)
(352.80307 -3.8153029e-19 -35.010193)
(351.16778 1.1258696e-16 -36.242944)
(349.49923 -4.6706617e-17 -35.682265)
(347.3258 -7.7956263e-17 -36.455286)
(344.79094 -9.8033409e-17 -36.345543)
(341.73937 -1.6327317e-16 -36.824479)
(338.11358 4.377624e-17 -36.913233)
(333.86116 -3.1957431e-16 -37.153352)
(328.91413 -2.8067936e-16 -37.130456)
(323.29701 2.5634316e-17 -36.941045)
(317.07974 2.1754997e-17 -36.343993)
(310.47739 4.5895541e-19 -35.252082)
(303.795 -4.3871618e-17 -33.523585)
(297.39128 -7.4214612e-16 -31.151864)
(291.56349 0 -28.216452)
(286.49492 3.1235041e-17 -24.900022)
(282.23346 -8.1691668e-16 -21.42087)
(278.72535 -1.9555555e-17 -17.993261)
(275.86685 -1.9038141e-15 -14.779023)
(273.55034 2.9628733e-15 -11.884074)
(271.65556 1.1697799e-15 -9.3771536)
(270.08471 1.7525269e-15 -7.2442282)