/*--------------------------------*- C++ -*----------------------------------*\
  =========                 |
  \\      /  F ield         | OpenFOAM: The Open Source CFD Toolbox
   \\    /   O peration     | Website:  https://openfoam.org
    \\  /    A nd           | Version:  8
     \\/     M anipulation  |
\*---------------------------------------------------------------------------*/
FoamFile
{
    version     2.0;
    format      ascii;
    class       volVectorField;
    location    "0.159995";
    object      wallShearStress;
}
// * * * * * * * * * * * * * * * * * * * * * * * * * * * * * * * * * * * * * //

dimensions      [1 -1 -2 0 0 0 0];

internalField   uniform (0 0 0);

boundaryField
{
    aerofoil
    {
        type            calculated;
        value           nonuniform List<vector> 
300
(
(-155.78911 -9.8673992e-17 5.0699313)
(-155.51065 -1.0050843e-16 5.6604952)
(-155.88422 2.6454693e-20 6.2977662)
(-156.13057 8.2050227e-19 6.9429089)
(-156.29316 -2.1537624e-16 7.6089389)
(-156.32736 -2.1900009e-16 8.2745455)
(-156.33956 1.7283296e-18 8.9568092)
(-156.32383 -2.3030459e-16 9.6445655)
(-156.31867 2.3520805e-16 10.347188)
(-156.30035 -3.7240959e-18 11.05903)
(-156.28525 1.7480829e-18 11.785484)
(-156.26267 4.0348554e-20 12.521008)
(-156.25359 1.0225853e-21 13.27316)
(-156.24385 -3.9145599e-20 14.034325)
(-156.25335 4.0807591e-18 14.812967)
(-156.27023 -8.3786271e-18 15.608139)
(-156.28154 4.5062918e-18 16.41604)
(-156.30178 -4.3871782e-18 17.242021)
(-156.32318 2.9006059e-16 18.083447)
(-156.35893 -4.5626691e-18 18.945626)
(-156.40628 -2.9245948e-16 19.829171)
(-156.45029 2.9832081e-16 20.729784)
(-156.48477 9.9086013e-18 21.649804)
(-156.51383 -4.9047046e-18 22.589147)
(-156.56957 -3.208287e-16 23.560015)
(-156.62124 2.3547053e-22 24.552051)
(-156.67553 5.8740863e-33 25.57015)
(-156.72738 3.3974567e-16 26.617615)
(-156.76379 -3.4606515e-16 27.691408)
(-156.7874 -1.2217562e-21 28.795937)
(-156.77347 -3.5946138e-16 29.928918)
(-156.71098 -3.7760739e-16 31.091509)
(-156.6107 -3.6148959e-16 32.288017)
(-156.48773 -3.8025236e-16 33.526229)
(-156.36203 -4.2102599e-21 34.816844)
(-156.2475 3.9600452e-16 36.162514)
(-156.14494 -8.0573225e-16 37.564804)
(-156.07016 1.2879157e-17 39.039827)
(-156.02987 -1.3481734e-17 40.594975)
(-156.02802 -1.2859942e-17 42.236191)
(-156.05627 -4.2252282e-16 43.975743)
(-156.08147 4.439707e-16 45.812433)
(-156.05831 -4.5506093e-16 47.739033)
(-155.95695 -4.6121663e-16 49.758077)
(-155.72688 4.70675e-16 51.877368)
(-155.3996 2.2354092e-18 54.128707)
(-154.93072 4.8476332e-16 56.507124)
(-154.32192 -5.0145188e-16 59.037341)
(-153.58818 -3.3817299e-18 61.705397)
(-152.70719 -4.6222319e-33 64.507023)
(-151.50193 -5.2918291e-16 67.427608)
(-149.89464 -1.3387698e-18 70.473883)
(-147.7526 4.3303738e-18 73.62805)
(-144.99152 1.2238354e-17 76.919577)
(-141.58333 5.7931804e-16 80.419804)
(-137.493 -3.5818565e-17 84.176999)
(-132.76624 -5.8722878e-16 88.311404)
(-127.60703 8.2775689e-18 92.919786)
(-122.38235 -2.71582e-19 97.760546)
(-118.09951 -6.2880603e-16 102.6755)
(-114.42458 1.5898165e-17 107.58412)
(-110.64407 3.3559329e-32 112.1396)
(-105.96078 -3.1239031e-19 115.99402)
(-99.906088 -1.0215503e-17 118.72635)
(-92.421608 1.0463757e-17 119.9674)
(-83.309811 1.1161356e-17 119.23384)
(-72.599584 7.0230671e-16 115.94487)
(-60.647766 -1.540744e-33 109.62993)
(-48.020937 3.614577e-16 99.912329)
(-35.435387 1.0523124e-17 86.390847)
(-23.604983 -3.7315249e-16 69.290159)
(-13.228345 1.1200508e-18 49.305953)
(-6.6194511 1.6577214e-16 27.675968)
(-3.0027805 -7.5285937e-17 11.365078)
(-1.2691108 -1.0589173e-17 1.8381312)
(-166.80569 -1.2803166e-15 -20.445274)
(-192.24059 4.6620372e-21 -21.893527)
(-195.23888 1.2147509e-15 -21.827575)
(-196.18528 7.7037198e-34 -21.594453)
(-196.3661 -1.2064118e-15 -21.286334)
(-196.19113 -6.4601937e-19 -20.9463)
(-195.58937 1.3310778e-19 -20.573448)
(-194.63349 6.6871102e-26 -20.173264)
(-193.30541 -8.8835484e-24 -19.742847)
(-191.681 7.5329387e-19 -19.292498)
(-189.93268 1.1808204e-15 -18.83822)
(-188.12016 7.3455125e-19 -18.386669)
(-186.26318 2.3350924e-15 -17.940073)
(-184.39696 1.1610657e-15 -17.501522)
(-182.51179 -2.7433135e-22 -17.067301)
(-180.60401 2.7386197e-22 -16.641133)
(-178.68485 1.008145e-19 -16.221544)
(-176.75873 1.1329256e-15 -15.802603)
(-174.83289 -1.1260185e-15 -15.392274)
(-172.91139 -9.6642749e-20 -14.988773)
(-170.99756 -1.3148299e-20 -14.593673)
(-169.09488 6.5913178e-23 -14.2049)
(-167.20402 -1.0997905e-15 -13.824633)
(-165.32905 7.2484e-19 -13.450304)
(-163.46446 1.08645e-15 -13.083067)
(-161.61496 5.396797e-16 -12.721513)
(-159.76058 -5.3598003e-16 -12.36785)
(-157.96433 5.3230273e-16 -12.021139)
(-156.25649 5.2878654e-16 -11.684273)
(-154.60768 -6.7245812e-21 -11.35354)
(-153.01562 -7.9581786e-21 -11.030221)
(-151.49386 -4.9507614e-22 -10.717201)
(-150.05267 7.5059451e-27 -10.410043)
(-148.67116 -4.7765609e-19 -10.108714)
(-147.33542 -5.0682511e-16 -9.8121954)
(-146.03624 5.0311699e-16 -9.5200984)
(-144.77145 -6.1323753e-21 -9.230805)
(-143.53796 3.3182536e-26 -8.9441526)
(-142.33412 -4.924705e-16 -8.6589413)
(-141.15944 -4.2436658e-19 -8.3765008)
(-140.01697 -3.0561186e-20 -8.0953096)
(-138.9059 -9.6488569e-16 -7.8152179)
(-137.82602 -4.7903787e-16 -7.5356695)
(-136.77919 1.812832e-21 -7.2575248)
(-135.75885 -2.255979e-19 -6.9782355)
(-134.74888 -4.6997401e-16 -6.6984135)
(-133.71984 4.6724063e-16 -6.416084)
(-132.65856 3.1794779e-20 -6.1306474)
(-131.54433 4.6130137e-16 -5.842299)
(-130.41775 4.5860513e-16 -5.553111)
(-129.31818 -3.2886506e-20 -5.2628331)
(-128.32686 -1.3768702e-19 -4.9730459)
(-127.51202 1.6942193e-19 -4.6865105)
(-126.93081 -4.4693694e-16 -4.4018884)
(-126.56204 8.9515591e-26 -4.1144518)
(-126.22669 -2.2104783e-16 -3.819952)
(-125.57716 3.3501893e-21 -3.5191276)
(-124.29444 -6.0474752e-21 -3.1982851)
(-122.35074 -1.7562938e-19 -2.8609823)
(-119.71784 2.2430193e-21 -2.5164574)
(-115.89607 4.298665e-16 -2.1702459)
(-110.79419 2.131554e-16 -1.8249162)
(-104.64805 -6.2232608e-20 -1.4886249)
(-98.56075 -6.8389541e-20 -1.1505685)
(-93.50275 -5.447968e-20 -0.82684239)
(-90.22519 -1.0047103e-16 -0.52668886)
(-91.360561 4.9780889e-17 -0.12606136)
(-98.033985 -4.9214856e-17 0.3392475)
(-109.46988 2.4358634e-17 0.88735489)
(-122.54648 6.0316961e-21 1.4443899)
(-134.46467 -5.714391e-21 2.0251182)
(-143.38049 -4.7132328e-17 2.5969712)
(-149.0355 -9.3460112e-17 3.1663533)
(-152.4267 1.523575e-20 3.7828772)
(-154.83893 -9.2394154e-17 4.4231518)
(-129.34814 -1.0785565e-16 3.2581779)
(-133.13124 -2.1708444e-19 2.8548732)
(-136.29843 -8.7780844e-19 2.382481)
(-139.46459 1.8127665e-18 1.8057056)
(-142.62134 -2.3422831e-20 1.2261876)
(-145.72339 -4.7406666e-18 0.59719556)
(-148.76097 -3.1012931e-17 -0.081249695)
(-151.69813 6.3290935e-17 -0.74341413)
(-154.52914 6.4705508e-17 -1.4220052)
(-157.23577 -6.607192e-17 -2.1473061)
(-159.81124 1.3481006e-16 -2.9121287)
(-162.24225 1.3778723e-16 -3.710558)
(-164.54795 -4.3273913e-18 -4.5437329)
(-166.72357 4.3475756e-18 -5.4069227)
(-168.80579 -1.5061938e-16 -6.3068124)
(-170.80881 4.842194e-18 -7.247844)
(-172.73991 -2.7945567e-21 -8.2234134)
(-174.55901 2.3380342e-22 -9.2388651)
(-176.23295 -1.7340007e-19 -10.284541)
(-177.78751 3.2229508e-16 -11.364611)
(-179.25151 3.2338257e-16 -12.483718)
(-180.63861 5.0981587e-18 -13.640197)
(-181.96884 -1.5709345e-19 -14.837864)
(-183.25193 3.4816936e-16 -16.075946)
(-184.52465 7.044518e-16 -17.366846)
(-185.78045 3.7894675e-16 -18.706041)
(-187.04422 -1.1503592e-17 -20.097712)
(-188.31818 1.6362258e-19 -21.550987)
(-189.57817 -1.9757854e-20 -23.070413)
(-190.84276 7.679852e-16 -24.679577)
(-192.08265 -3.8483403e-16 -26.356235)
(-193.30295 9.0518707e-33 -28.110944)
(-194.48596 -8.108715e-16 -29.948583)
(-195.6201 -1.2834025e-17 -31.873945)
(-196.7214 3.207495e-20 -33.893283)
(-197.77808 1.2386922e-17 -36.006526)
(-198.79771 -4.5611198e-16 -38.217227)
(-199.80882 -1.4120739e-17 -40.529078)
(-200.82083 3.0240009e-17 -42.938812)
(-201.78651 4.5026369e-16 -45.445832)
(-202.6503 1.9045083e-18 -48.046738)
(-203.38432 -4.8223537e-16 -50.741174)
(-203.93998 -4.7015338e-16 -53.543475)
(-204.29344 4.8226575e-16 -56.464958)
(-204.36875 4.8881709e-16 -59.476303)
(-204.11544 -4.8034583e-16 -62.587377)
(-203.46987 -1.3554697e-17 -65.803876)
(-202.44378 -5.1234398e-16 -69.142211)
(-200.99934 -1.2566436e-17 -72.598492)
(-199.09395 -5.4530596e-16 -76.172228)
(-196.70606 -1.3866696e-32 -79.879275)
(-193.80829 5.444099e-16 -83.723543)
(-190.36201 -5.5668593e-16 -87.701651)
(-186.3465 -5.92327e-16 -91.817855)
(-181.74799 6.2602243e-18 -96.068011)
(-176.58919 1.1946811e-15 -100.42993)
(-170.93267 5.8980522e-16 -104.85247)
(-164.94177 2.7366273e-17 -109.19406)
(-158.81218 1.2626523e-15 -113.31812)
(-152.40063 2.4987806e-18 -117.1681)
(-145.4323 -6.7595152e-16 -120.57717)
(-137.66058 6.7681672e-16 -123.32385)
(-128.92774 0 -125.16278)
(-119.13824 -6.8833765e-16 -125.94431)
(-108.29222 -1.0839162e-17 -125.416)
(-96.362095 7.4088743e-16 -123.04217)
(-83.203507 3.4652075e-19 -118.46835)
(-69.228798 -7.3562794e-16 -111.25225)
(-54.814958 1.270258e-17 -100.71669)
(-40.690943 -3.7609364e-16 -86.723973)
(-27.481771 3.6295685e-16 -69.382533)
(-15.550664 -3.6025238e-16 -49.517238)
(-7.9079348 1.7096622e-16 -28.648444)
(-3.5347121 -1.4568506e-16 -12.178684)
(-1.4314194 -2.6228397e-17 -2.3732242)
(0.068920417 -2.2287247e-21 0.34581148)
(-0.79752549 2.2028873e-16 0.14339872)
(-0.9156202 -2.2491482e-16 0.1651487)
(-1.3793599 -2.473167e-16 0.2413218)
(-1.8658092 -5.7755912e-27 0.31999733)
(-2.5108211 2.8695559e-16 0.42351417)
(-3.2229877 -1.9293122e-20 0.53589387)
(-4.0243948 3.1043057e-22 0.66077844)
(-4.9004608 -3.294223e-22 0.79557626)
(-5.8538347 -3.6269016e-16 0.94043295)
(-6.8902275 -3.8006602e-16 1.0927021)
(-8.0123824 4.939316e-21 1.2548101)
(-9.1883935 3.4870598e-21 1.424558)
(-10.404866 3.084697e-20 1.59807)
(-11.656737 -1.0572376e-22 1.7734098)
(-12.942504 4.5808392e-16 1.9505258)
(-14.26095 -3.5381104e-20 2.1289607)
(-15.60718 4.8370356e-16 2.3078937)
(-16.976758 -9.9111627e-16 2.4867318)
(-18.365189 4.5715412e-20 2.6647304)
(-19.763501 -4.2189446e-26 2.8407774)
(-21.168046 5.2762213e-16 3.0140396)
(-22.580517 -1.0744816e-15 3.1848308)
(-24.010792 -5.465277e-16 3.3539025)
(-25.458588 2.6430634e-22 3.5217588)
(-26.923263 -5.6395905e-16 3.6878362)
(-28.401674 -5.722091e-16 3.8520267)
(-29.89389 5.8022675e-16 4.0136943)
(-31.390178 -5.8790967e-16 4.1721782)
(-32.889781 -2.5276761e-20 4.3267177)
(-34.392295 8.1482619e-20 4.4773205)
(-35.90968 -6.0923413e-16 4.6258617)
(-37.451453 6.159618e-16 4.7718954)
(-39.013566 -6.2256349e-16 4.9157237)
(-40.595419 -9.251849e-20 5.057036)
(-42.193911 6.3515578e-16 5.1955286)
(-43.805917 0 5.3301113)
(-45.427219 1.2321503e-21 5.4603927)
(-47.05793 6.5296978e-16 5.585807)
(-48.705227 -4.5910619e-20 5.7074722)
(-50.381787 -5.4021929e-20 5.8254645)
(-52.087919 -6.6938985e-16 5.9401781)
(-53.817369 6.7478102e-16 6.0504931)
(-55.5706 -2.6302027e-21 6.1563688)
(-57.349358 -1.3702933e-15 6.2568056)
(-59.143496 6.317502e-20 6.3516463)
(-60.949762 -6.9494908e-16 6.4391931)
(-62.772276 6.9980728e-16 6.5195987)
(-64.62198 1.4089186e-15 6.5930689)
(-66.516135 -7.0900249e-16 6.6613013)
(-68.458865 -6.8423748e-20 6.7234642)
(-70.436157 3.5479279e-20 6.7779346)
(-72.441642 -3.8918833e-20 6.824002)
(-74.4733 7.2670867e-16 6.8602829)
(-76.521344 -3.6555885e-16 6.8849221)
(-78.592891 2.8111386e-21 6.8984556)
(-80.711138 7.3926278e-16 6.9008225)
(-82.88531 2.8277428e-21 6.8921908)
(-85.112934 -4.8157602e-20 6.8712334)
(-87.383957 -3.7557971e-16 6.8371657)
(-89.69095 4.9781806e-20 6.7865297)
(-92.018784 -3.7968427e-16 6.7194033)
(-94.365653 -3.8178346e-16 6.63256)
(-96.71276 -3.8411087e-16 6.5252587)
(-99.056459 -3.8655332e-16 6.3956939)
(-101.42734 3.8891661e-16 6.2460537)
(-103.87409 -5.9799193e-21 6.0759347)
(-106.40261 2.5144365e-20 5.8819926)
(-109.01931 6.025229e-21 5.6626447)
(-111.73066 -2.2976782e-33 5.4164814)
(-114.55499 8.8395845e-33 5.1393968)
(-117.50372 -2.4143601e-20 4.8326277)
(-120.58195 -1.9934906e-16 4.4911586)
(-123.75344 1.999505e-16 4.1160609)
(-126.29939 2.0093145e-16 3.6719703)
)
;
    }
    inlet
    {
        type            calculated;
        value           uniform (0 0 0);
    }
    outlet
    {
        type            calculated;
        value           uniform (0 0 0);
    }
    back
    {
        type            empty;
    }
    front
    {
        type            empty;
    }
}


// ************************************************************************* //
