/*--------------------------------*- C++ -*----------------------------------*\
  =========                 |
  \\      /  F ield         | OpenFOAM: The Open Source CFD Toolbox
   \\    /   O peration     | Website:  https://openfoam.org
    \\  /    A nd           | Version:  8
     \\/     M anipulation  |
\*---------------------------------------------------------------------------*/
FoamFile
{
    version     2.0;
    format      ascii;
    class       volScalarField;
    location    "0.159995";
    object      yPlus;
}
// * * * * * * * * * * * * * * * * * * * * * * * * * * * * * * * * * * * * * //

dimensions      [0 0 0 0 0 0 0];

internalField   uniform 0;

boundaryField
{
    aerofoil
    {
        type            calculated;
        value           nonuniform List<scalar> 
300
(
130.49308
129.65478
128.95343
128.26872
127.64351
126.99382
126.39946
125.82532
125.311
124.82578
124.38812
123.97536
123.60634
123.26132
122.95923
122.69363
122.45135
122.24159
122.05593
121.9007
121.7773
121.67712
121.59999
121.535
121.50851
121.49988
121.51197
121.5453
121.58971
121.65091
121.71866
121.78771
121.85993
121.9396
122.04003
122.1712
122.32891
122.5212
122.75913
123.03841
123.36046
123.71894
124.09437
124.48866
124.85831
125.24522
125.62353
126.00829
126.41378
126.83309
127.20306
127.51573
127.72813
127.83262
127.87
127.85148
127.84978
128.05624
128.58104
129.82089
131.6693
133.84435
136.01234
137.86924
139.27725
139.9831
139.60456
137.71657
133.81098
126.9223
116.00425
99.623596
75.778369
49.052453
20.291582
174.92993
173.04877
173.49008
173.41144
172.94208
172.41992
171.73787
170.94575
170.02555
169.00066
167.94047
166.86839
165.7892
164.71396
163.64108
162.56592
161.49242
160.41977
159.35115
158.28854
157.23211
156.18461
155.14375
154.11428
153.08945
152.07489
151.05595
150.06311
149.1087
148.18337
147.28515
146.41758
145.58897
144.78569
144.00143
143.23057
142.47292
141.72746
140.99364
140.26966
139.55835
138.85914
138.1711
137.49623
136.83297
136.178
135.51361
134.8433
134.14486
133.44252
132.73412
132.05978
131.44356
130.91348
130.4858
130.10609
129.64964
128.96604
127.96037
126.72657
124.9365
122.53132
119.40665
115.99137
112.99773
110.4025
110.04289
112.09621
116.30967
120.71994
124.53791
127.35415
128.95776
130.08684
130.63088
126.3868
126.73588
127.00511
127.2816
127.57743
127.85609
128.15355
128.42613
128.68979
128.9392
129.18952
129.42069
129.64929
129.85942
130.06914
130.28092
130.50011
130.72396
130.93127
131.1288
131.33081
131.54107
131.77069
132.01122
132.28899
132.59683
132.93748
133.32107
133.72752
134.17636
134.64669
135.14427
135.65932
136.18662
136.73788
137.31154
137.90455
138.53017
139.19144
139.87568
140.56144
141.24232
141.89109
142.5225
143.0931
143.60904
144.03787
144.39979
144.69468
144.90894
145.04868
145.12886
145.15069
145.12588
145.07521
145.03059
145.02139
145.15011
145.44924
145.93438
146.48919
147.01061
147.39158
147.54155
147.36609
146.64096
144.98795
142.09078
137.1383
129.40768
117.73916
100.8722
77.676381
51.03469
22.946764
6.5299999
11.523201
12.306504
15.088752
17.524671
20.303024
22.971407
25.63217
28.244432
30.823569
33.389173
35.947664
38.434897
40.834338
43.151899
45.395196
47.574042
49.686971
51.736234
53.721366
55.637973
57.486836
59.276335
61.023939
62.733088
64.405568
66.040477
67.640887
69.198713
70.715669
72.193955
73.645865
75.084348
76.504511
77.907789
79.290685
80.652504
81.989641
83.304083
84.600354
85.89109
87.175318
88.448933
89.711103
90.96604
92.204184
93.424694
94.629391
95.827111
97.027288
98.235244
99.439433
100.63551
101.82192
102.99417
104.15268
105.31364
106.47942
107.65099
108.81933
109.98413
111.13114
112.26228
113.36192
114.43186
115.48528
116.55455
117.63502
118.73193
119.84052
120.97361
122.1288
123.32258
124.52136
125.65603
)
;
    }
    inlet
    {
        type            calculated;
        value           uniform 0;
    }
    outlet
    {
        type            calculated;
        value           uniform 0;
    }
    back
    {
        type            empty;
    }
    front
    {
        type            empty;
    }
}


// ************************************************************************* //
