/*--------------------------------*- C++ -*----------------------------------*\
  =========                 |
  \\      /  F ield         | OpenFOAM: The Open Source CFD Toolbox
   \\    /   O peration     | Website:  https://openfoam.org
    \\  /    A nd           | Version:  8
     \\/     M anipulation  |
\*---------------------------------------------------------------------------*/
FoamFile
{
    version     2.0;
    format      ascii;
    class       volScalarField;
    location    "0.129988";
    object      alphat;
}
// * * * * * * * * * * * * * * * * * * * * * * * * * * * * * * * * * * * * * //

dimensions      [1 -1 -1 0 0 0 0];

internalField   nonuniform List<scalar> 
20000
(
0.00093675844
0.0024280579
0.0033684602
0.0038419638
0.0037350717
0.002848105
0.00090511826
1.8650987e-06
1.8905106e-09
1.8452246e-09
1.7905634e-09
1.8108449e-09
1.7893924e-09
1.8175379e-09
1.8219725e-09
1.8556881e-09
1.8811603e-09
1.9272241e-09
1.9758851e-09
2.0451182e-09
2.1258839e-09
2.2327088e-09
2.362956e-09
2.5302328e-09
2.7372346e-09
2.9967631e-09
3.313915e-09
3.6959705e-09
4.1406844e-09
4.6410121e-09
5.1765606e-09
5.7148677e-09
6.2194711e-09
6.666934e-09
7.0474327e-09
7.3625006e-09
7.6159344e-09
7.8192258e-09
7.9808504e-09
8.1080936e-09
8.2083193e-09
8.2885729e-09
8.3562556e-09
8.4096006e-09
8.4470564e-09
8.4911978e-09
8.5603987e-09
8.5992898e-09
8.621445e-09
8.6792187e-09
0.00094358793
0.0024250718
0.0033402108
0.0037841581
0.003644485
0.0027129924
0.00078103785
6.5716455e-07
1.8819856e-09
1.8620417e-09
1.8066758e-09
1.8280497e-09
1.8067271e-09
1.8361255e-09
1.8411939e-09
1.8764648e-09
1.9033253e-09
1.9514953e-09
2.0024958e-09
2.0748364e-09
2.1593484e-09
2.2708662e-09
2.4068511e-09
2.581026e-09
2.7961909e-09
3.0646757e-09
3.3905839e-09
3.7789445e-09
4.2247475e-09
4.7185507e-09
5.2407976e-09
5.7631871e-09
6.2537966e-09
6.690888e-09
7.064265e-09
7.3741495e-09
7.6239899e-09
7.8249354e-09
7.9851373e-09
8.1112599e-09
8.2111274e-09
8.2912277e-09
8.3588312e-09
8.4112752e-09
8.4483185e-09
8.4957484e-09
8.5601096e-09
8.600919e-09
8.6210188e-09
8.6794941e-09
0.0009430919
0.0024124382
0.0033077636
0.003724778
0.0035537771
0.0025727989
0.0006661039
2.3340699e-07
1.8831723e-09
1.8789526e-09
1.8235256e-09
1.8459528e-09
1.8249588e-09
1.8555507e-09
1.8613997e-09
1.8982341e-09
1.9266261e-09
1.9770111e-09
2.0305615e-09
2.1062461e-09
2.1948198e-09
2.3114452e-09
2.4537051e-09
2.6354902e-09
2.8597191e-09
3.1382809e-09
3.4741338e-09
3.8698997e-09
4.3176698e-09
4.8055859e-09
5.3145002e-09
5.8199225e-09
6.2945458e-09
6.7189345e-09
7.0830457e-09
7.3867777e-09
7.6325351e-09
7.83074e-09
7.989203e-09
8.1141092e-09
8.2134432e-09
8.2932826e-09
8.3607006e-09
8.4123719e-09
8.4492202e-09
8.5003199e-09
8.5658027e-09
8.6037613e-09
8.6316286e-09
8.676252e-09
0.00094335057
0.0024013024
0.0032766231
0.0036679306
0.0034627211
0.0024266818
0.00056113024
8.6889102e-08
1.8912245e-09
1.8971473e-09
1.8415624e-09
1.8650324e-09
1.8443943e-09
1.8761638e-09
1.8828278e-09
1.9212741e-09
1.9512768e-09
2.0039773e-09
2.0602002e-09
2.1393675e-09
2.2321733e-09
2.3541077e-09
2.5029052e-09
2.6926588e-09
2.9263632e-09
3.2154574e-09
3.5617073e-09
3.9654731e-09
4.4162214e-09
4.8999742e-09
5.3976071e-09
5.8873377e-09
6.3458497e-09
6.7564399e-09
7.10981e-09
7.40563e-09
7.6457648e-09
7.840073e-09
7.9959287e-09
8.1189874e-09
8.2173516e-09
8.2966186e-09
8.3634993e-09
8.4140161e-09
8.4508401e-09
8.5050801e-09
8.568244e-09
8.6074094e-09
8.6355341e-09
8.6757081e-09
0.00094363444
0.0023902467
0.0032452155
0.0036103164
0.0033708799
0.0022738676
0.00046386763
3.5095805e-08
1.9036804e-09
1.9162047e-09
1.8606057e-09
1.8851216e-09
1.8649493e-09
1.8979096e-09
1.9055024e-09
1.9456583e-09
1.977424e-09
2.0326029e-09
2.0917141e-09
2.1746108e-09
2.2719713e-09
2.3996175e-09
2.555476e-09
2.7538335e-09
2.9977626e-09
3.2981589e-09
3.6554542e-09
4.0676138e-09
4.5215496e-09
5.0013543e-09
5.4879575e-09
5.9619992e-09
6.4038148e-09
6.7995224e-09
7.1409003e-09
7.4277831e-09
7.6614546e-09
7.851179e-09
8.0038869e-09
8.1247402e-09
8.221838e-09
8.3003207e-09
8.36641e-09
8.4156113e-09
8.4526307e-09
8.5098676e-09
8.5724345e-09
8.6110922e-09
8.6408195e-09
8.674982e-09
0.00094398371
0.002379371
0.0032136775
0.0035524565
0.0032786805
0.0021147042
0.00037489489
1.6024655e-08
1.9193596e-09
1.9361754e-09
1.8806997e-09
1.9062673e-09
1.8866498e-09
1.9208595e-09
1.929501e-09
1.971465e-09
2.0051353e-09
2.0629422e-09
2.1251376e-09
2.2119955e-09
2.3142174e-09
2.4479627e-09
2.6113833e-09
2.8189514e-09
3.0737966e-09
3.3861504e-09
3.7549551e-09
4.1757341e-09
4.6329762e-09
5.1090975e-09
5.5851268e-09
6.043775e-09
6.4686668e-09
6.8487668e-09
7.177157e-09
7.4540295e-09
7.6802787e-09
7.8646446e-09
8.0135948e-09
8.1318051e-09
8.2273104e-09
8.3047669e-09
8.3697588e-09
8.4173576e-09
8.4548219e-09
8.5149283e-09
8.576336e-09
8.6149204e-09
8.6443679e-09
8.6745519e-09
0.00094438255
0.0023687356
0.0031815761
0.0034937776
0.0031858218
0.0019496374
0.00029369933
8.4922323e-09
1.9372123e-09
1.9569471e-09
1.9017749e-09
1.9284482e-09
1.9095043e-09
1.9450478e-09
1.9548665e-09
1.9987401e-09
2.0344637e-09
2.0950643e-09
2.1605684e-09
2.2516577e-09
2.3591062e-09
2.4994165e-09
2.6709943e-09
2.8884841e-09
3.1550303e-09
3.4800473e-09
3.8607833e-09
4.2902119e-09
4.7505062e-09
5.2226649e-09
5.687997e-09
6.1311809e-09
6.5388706e-09
6.9027882e-09
7.2174227e-09
7.4835015e-09
7.7016087e-09
7.8800022e-09
8.0246985e-09
8.1399092e-09
8.2335462e-09
8.3097649e-09
8.3733906e-09
8.4190532e-09
8.4573458e-09
8.5203119e-09
8.5807369e-09
8.6186947e-09
8.6472435e-09
8.6741738e-09
0.00094499316
0.0023582773
0.0031491693
0.0034339539
0.0030921202
0.0017800523
0.00021951205
5.2631052e-09
1.9568933e-09
1.9786273e-09
1.9239432e-09
1.9517592e-09
1.9335926e-09
1.970534e-09
1.9816443e-09
2.027517e-09
2.0654458e-09
2.1290086e-09
2.1980516e-09
2.2936572e-09
2.4067249e-09
2.5540968e-09
2.7344615e-09
2.9626118e-09
3.2416515e-09
3.5799824e-09
3.9729505e-09
4.4108914e-09
4.8738043e-09
5.3415552e-09
5.7959365e-09
6.2235303e-09
6.6138032e-09
6.9611213e-09
7.2614089e-09
7.5160259e-09
7.7253493e-09
7.8972139e-09
8.0371982e-09
8.1490719e-09
8.2405844e-09
8.3153566e-09
8.3773614e-09
8.4209074e-09
8.4603126e-09
8.5261188e-09
8.585259e-09
8.6223756e-09
8.649497e-09
8.6738732e-09
0.0009456941
0.0023479294
0.003116374
0.0033724384
0.0029969075
0.0016084171
0.00015190379
3.7631309e-09
1.9780982e-09
2.0013076e-09
1.9472415e-09
1.9762331e-09
1.9589428e-09
1.997336e-09
2.0098495e-09
2.0578207e-09
2.0981186e-09
2.1648295e-09
2.2376645e-09
2.3381065e-09
2.4572328e-09
2.6122176e-09
2.8020563e-09
3.0416646e-09
3.334017e-09
3.6862766e-09
4.091656e-09
4.5377778e-09
5.00263e-09
5.4652537e-09
5.9081766e-09
6.3198993e-09
6.6925339e-09
7.0229477e-09
7.3084598e-09
7.5511178e-09
7.751156e-09
7.9160379e-09
8.0509263e-09
8.1591745e-09
8.2483432e-09
8.3214729e-09
8.3816389e-09
8.4232269e-09
8.4638026e-09
8.5324343e-09
8.5900118e-09
8.6258922e-09
8.6511748e-09
8.6735793e-09
0.00094652959
0.0023377863
0.0030832169
0.0033088574
0.0028992691
0.0014410291
9.2774069e-05
3.0210764e-09
2.0006988e-09
2.025076e-09
1.9717179e-09
2.0018941e-09
1.9855637e-09
2.0254561e-09
2.0394993e-09
2.0896826e-09
2.1325297e-09
2.2025838e-09
2.2794838e-09
2.3851175e-09
2.5107841e-09
2.6739775e-09
2.874024e-09
3.1259292e-09
3.4324128e-09
3.799141e-09
4.2169596e-09
4.6707379e-09
5.1366558e-09
5.5932624e-09
6.0240834e-09
6.4195769e-09
6.7743637e-09
7.0876616e-09
7.3581003e-09
7.5884251e-09
7.7787795e-09
7.9363048e-09
8.0657735e-09
8.1701472e-09
8.2567823e-09
8.3280804e-09
8.3861958e-09
8.4259098e-09
8.4679451e-09
8.5392668e-09
8.5948648e-09
8.6290192e-09
8.652429e-09
8.6732937e-09
0.00094767911
0.0023283083
0.0030501452
0.0032430777
0.0027983184
0.0012784955
4.72902e-05
2.640189e-09
2.0245778e-09
2.0499256e-09
1.997356e-09
2.0287168e-09
2.0134369e-09
2.0549002e-09
2.0706233e-09
2.12315e-09
2.1687308e-09
2.2423398e-09
2.3236133e-09
2.4348375e-09
2.5675737e-09
2.7396187e-09
2.9506613e-09
3.2157446e-09
3.537171e-09
3.9188144e-09
4.34893e-09
4.8096339e-09
5.2755405e-09
5.7250651e-09
6.1430068e-09
6.5218378e-09
6.858573e-09
7.1546228e-09
7.4098073e-09
7.6275477e-09
7.8079264e-09
7.9578056e-09
8.0815966e-09
8.1818934e-09
8.2658356e-09
8.3351156e-09
8.3909588e-09
8.4288761e-09
8.4728981e-09
8.5463945e-09
8.5996146e-09
8.6318065e-09
8.6534266e-09
8.6730162e-09
0.0009491409
0.0023192964
0.0030174612
0.0031766141
0.0026936944
0.001122565
1.966281e-05
2.4442758e-09
2.0496918e-09
2.0758218e-09
2.0241112e-09
2.0566767e-09
2.0425744e-09
2.0857085e-09
2.1032741e-09
2.1582716e-09
2.2067797e-09
2.2841789e-09
2.3701734e-09
2.4874315e-09
2.6278103e-09
2.8093992e-09
3.0322809e-09
3.3114609e-09
3.6486143e-09
4.0454987e-09
4.4875756e-09
4.9542618e-09
5.4188977e-09
5.8601428e-09
6.2643408e-09
6.6260362e-09
6.9445309e-09
7.2232697e-09
7.4631179e-09
7.6681244e-09
7.838327e-09
7.9803465e-09
8.0982619e-09
8.1943241e-09
8.275441e-09
8.3425135e-09
8.3958842e-09
8.4322035e-09
8.4788394e-09
8.5536053e-09
8.6041503e-09
8.6342849e-09
8.6542584e-09
8.6727534e-09
0.00095097957
0.0023108164
0.0029852262
0.0031132388
0.0025824303
0.00097417645
6.851477e-06
2.3473392e-09
2.0758245e-09
2.1026567e-09
2.0519593e-09
2.0858114e-09
2.0730437e-09
2.1179457e-09
2.1375009e-09
2.1950934e-09
2.2467426e-09
2.3282074e-09
2.419318e-09
2.5430954e-09
2.6917332e-09
2.8836105e-09
3.1192333e-09
3.4134559e-09
3.7670714e-09
4.1793745e-09
4.6328634e-09
5.1043708e-09
5.566303e-09
5.9979572e-09
6.3874828e-09
6.7315488e-09
7.031637e-09
7.2930665e-09
7.5175843e-09
7.7098e-09
7.8697109e-09
8.0037287e-09
8.11563e-09
8.2073461e-09
8.2855308e-09
8.3502028e-09
8.400924e-09
8.436098e-09
8.4858647e-09
8.5607118e-09
8.6084146e-09
8.6364975e-09
8.6549807e-09
8.6725047e-09
0.00095288283
0.0023022996
0.0029526639
0.0030435163
0.0024632296
0.00083452039
2.134001e-06
2.3059586e-09
2.1030321e-09
2.1305737e-09
2.0810355e-09
2.1162317e-09
2.1049147e-09
2.1516511e-09
2.1733303e-09
2.2336644e-09
2.2887048e-09
2.3745586e-09
2.471219e-09
2.6020378e-09
2.7595965e-09
2.9625692e-09
3.2118964e-09
3.5221286e-09
3.8928646e-09
4.3205865e-09
4.7847035e-09
5.2596522e-09
5.7172921e-09
6.1379606e-09
6.5118544e-09
6.8377992e-09
7.1193468e-09
7.3635293e-09
7.572799e-09
7.752246e-09
7.9018236e-09
8.0277627e-09
8.1335663e-09
8.2208689e-09
8.2960383e-09
8.3581107e-09
8.4060228e-09
8.4406184e-09
8.4940544e-09
8.5675527e-09
8.6123993e-09
8.6384757e-09
8.6555976e-09
8.672269e-09
0.00095487589
0.0022936015
0.0029199475
0.0029731372
0.0023362773
0.00070492129
6.3631761e-07
2.2960273e-09
2.1315168e-09
2.1597141e-09
2.1114135e-09
2.1479605e-09
2.1381921e-09
2.186825e-09
2.2107962e-09
2.2740556e-09
2.3327948e-09
2.4233988e-09
2.5260742e-09
2.6644918e-09
2.8316857e-09
3.0466286e-09
3.3106822e-09
3.6378918e-09
4.0262977e-09
4.4692302e-09
4.9429426e-09
5.4197362e-09
5.8713592e-09
6.2795903e-09
6.6368864e-09
6.9442377e-09
7.2071515e-09
7.4342092e-09
7.6283825e-09
7.7951526e-09
7.9344211e-09
8.0522638e-09
8.1519387e-09
8.2348031e-09
8.3068955e-09
8.3661646e-09
8.4111428e-09
8.4456641e-09
8.5033693e-09
8.574028e-09
8.616129e-09
8.6402552e-09
8.6560965e-09
8.6719958e-09
0.000956983
0.002284534
0.0028846213
0.0029000599
0.0022006014
0.00058769472
1.9517325e-07
2.3040143e-09
2.1612302e-09
2.1900328e-09
2.1430536e-09
2.1809626e-09
2.1728553e-09
2.2234936e-09
2.2499666e-09
2.3163966e-09
2.3791704e-09
2.4749059e-09
2.5840858e-09
2.7307036e-09
2.9083133e-09
3.1361775e-09
3.4160391e-09
3.7611723e-09
4.1676575e-09
4.6253504e-09
5.1073605e-09
5.5841934e-09
6.0279632e-09
6.422276e-09
6.7620293e-09
7.0503517e-09
7.2945877e-09
7.5047024e-09
7.6839926e-09
7.8382368e-09
7.9672772e-09
8.0770588e-09
8.1706221e-09
8.2490621e-09
8.3180342e-09
8.3743032e-09
8.416282e-09
8.4512684e-09
8.5133413e-09
8.5803246e-09
8.6196473e-09
8.6418661e-09
8.6564852e-09
8.6716564e-09
0.0009592633
0.0022753326
0.0028488709
0.0028261501
0.0020565102
0.00048290649
6.5918376e-08
2.3223505e-09
2.1920764e-09
2.2214455e-09
2.1759065e-09
2.2152268e-09
2.2089421e-09
2.2617374e-09
2.2909728e-09
2.3608391e-09
2.4280032e-09
2.5292678e-09
2.6454748e-09
2.8009512e-09
2.9898325e-09
3.2316458e-09
3.5284417e-09
3.8923896e-09
4.3171849e-09
4.7889175e-09
5.2776588e-09
5.7525333e-09
6.1865278e-09
6.5654422e-09
6.8867475e-09
7.1556567e-09
7.3812283e-09
7.574642e-09
7.7393177e-09
7.8812377e-09
8.0001804e-09
8.1019839e-09
8.1894985e-09
8.2635618e-09
8.3293841e-09
8.3824756e-09
8.4214639e-09
8.4574658e-09
8.5235994e-09
8.5865242e-09
8.6229847e-09
8.6432851e-09
8.6567222e-09
8.6712446e-09
0.00096177436
0.0022655632
0.0028116633
0.0027503989
0.0019042312
0.00038564879
2.5247807e-08
2.3468347e-09
2.2240204e-09
2.2538999e-09
2.209993e-09
2.2508197e-09
2.2465534e-09
2.3016997e-09
2.3339703e-09
2.4075567e-09
2.479463e-09
2.5866719e-09
2.7104755e-09
2.8755437e-09
3.0766327e-09
3.3335091e-09
3.6483938e-09
4.0319695e-09
4.4750779e-09
4.9598347e-09
5.4534635e-09
5.924211e-09
6.3464515e-09
6.7085121e-09
7.0105258e-09
7.2597043e-09
7.466689e-09
7.6437033e-09
7.794082e-09
7.9239206e-09
8.0329381e-09
8.1268885e-09
8.2084592e-09
8.278222e-09
8.3408715e-09
8.3906413e-09
8.4267478e-09
8.4642795e-09
8.5338996e-09
8.5925789e-09
8.6261338e-09
8.6445529e-09
8.6568735e-09
8.6707829e-09
0.0009643554
0.0022546624
0.0027719257
0.0026661352
0.001745131
0.00029701648
1.1561199e-08
2.3751427e-09
2.2570933e-09
2.2875391e-09
2.245425e-09
2.2878806e-09
2.2858447e-09
2.3435404e-09
2.379124e-09
2.4566967e-09
2.5337122e-09
2.6473207e-09
2.7793618e-09
2.9548324e-09
3.1691531e-09
3.4422765e-09
3.7764143e-09
4.1803005e-09
4.6414645e-09
5.1379097e-09
5.6343183e-09
6.0986262e-09
6.5071084e-09
6.8509096e-09
7.1328683e-09
7.3620777e-09
7.5506218e-09
7.711598e-09
7.848039e-09
7.9660727e-09
8.0653727e-09
8.1516346e-09
8.2274042e-09
8.2929657e-09
8.3524169e-09
8.3987579e-09
8.4322676e-09
8.4718303e-09
8.5440438e-09
8.5983932e-09
8.6290714e-09
8.645699e-09
8.6569389e-09
8.6702838e-09
0.00096690362
0.0022425386
0.0027303145
0.0025805234
0.0015819401
0.00021581004
6.4619404e-09
2.4061822e-09
2.2914656e-09
2.3225194e-09
2.282359e-09
2.3265673e-09
2.3269686e-09
2.3874143e-09
2.4265649e-09
2.5084023e-09
2.5909175e-09
2.7114422e-09
2.8524427e-09
3.0392104e-09
3.2678764e-09
3.5585038e-09
3.913044e-09
4.3377512e-09
4.8164068e-09
5.3228657e-09
5.819693e-09
6.275132e-09
6.6678528e-09
6.9920639e-09
7.2533043e-09
7.4623988e-09
7.6327219e-09
7.7780775e-09
7.900974e-09
8.0075059e-09
8.0973257e-09
8.1760994e-09
8.2462442e-09
8.3077195e-09
8.3639378e-09
8.4067921e-09
8.4381924e-09
8.4803758e-09
8.5538146e-09
8.6038765e-09
8.631764e-09
8.6467244e-09
8.6569664e-09
8.669751e-09
0.00096939232
0.0022290137
0.0026838428
0.0024927445
0.0014163038
0.00014149177
4.3581723e-09
2.4392093e-09
2.3272045e-09
2.358954e-09
2.3209297e-09
2.3670247e-09
2.3700656e-09
2.4334339e-09
2.4764114e-09
2.5627832e-09
2.6512708e-09
2.7793135e-09
2.9300776e-09
3.1291215e-09
3.3733316e-09
3.6827819e-09
4.0588105e-09
4.5046245e-09
4.99986e-09
5.5143162e-09
6.0089748e-09
6.4530337e-09
6.8280251e-09
7.1314161e-09
7.3713899e-09
7.5603258e-09
7.7127219e-09
7.8429253e-09
7.9526977e-09
8.0480539e-09
8.1286536e-09
8.2001728e-09
8.2648985e-09
8.3224131e-09
8.3753502e-09
8.4147098e-09
8.4446745e-09
8.4901654e-09
8.5629777e-09
8.6089657e-09
8.6341981e-09
8.6475933e-09
8.6569226e-09
8.6691832e-09
0.00097194495
0.0022154273
0.0026352373
0.0024017321
0.0012507506
7.7577408e-05
3.4170303e-09
2.4739977e-09
2.3644492e-09
2.396992e-09
2.3612662e-09
2.4093755e-09
2.4152205e-09
2.4816867e-09
2.5287609e-09
2.6200161e-09
2.7150108e-09
2.8512526e-09
3.0126656e-09
3.2250478e-09
3.4861012e-09
3.8157405e-09
4.21425e-09
4.681173e-09
5.1916924e-09
5.7117829e-09
6.201477e-09
6.6315927e-09
6.9869567e-09
7.2684289e-09
7.4867178e-09
7.6555573e-09
7.7903959e-09
7.9059582e-09
8.0030495e-09
8.0875758e-09
8.1592336e-09
8.2237602e-09
8.2832967e-09
8.3369793e-09
8.3865733e-09
8.4224714e-09
8.4517629e-09
8.5012975e-09
8.5713915e-09
8.61364e-09
8.6363844e-09
8.6483179e-09
8.6567899e-09
8.6685939e-09
0.00097464377
0.002201663
0.0025881133
0.0023053951
0.0010878429
3.2663018e-05
2.9808525e-09
2.5103004e-09
2.4034431e-09
2.436784e-09
2.4034512e-09
2.4536556e-09
2.4624897e-09
2.5322469e-09
2.5837551e-09
2.6803218e-09
2.7824338e-09
2.9276345e-09
3.1006535e-09
3.3275272e-09
3.6068138e-09
3.9580271e-09
4.3798479e-09
4.8675454e-09
5.3916395e-09
5.9146651e-09
6.3964244e-09
6.8100232e-09
7.1439778e-09
7.4026009e-09
7.5989266e-09
7.7478257e-09
7.8655509e-09
7.9670166e-09
8.051895e-09
8.1259516e-09
8.1889616e-09
8.2467784e-09
8.3013768e-09
8.351353e-09
8.3975337e-09
8.4300469e-09
8.4594047e-09
8.5134077e-09
8.579128e-09
8.6179316e-09
8.6383425e-09
8.6489146e-09
8.6566044e-09
8.6679918e-09
0.0009771939
0.0021864255
0.0025374375
0.0022019527
0.00093096479
1.0444393e-05
2.7844968e-09
2.5483172e-09
2.4440456e-09
2.478337e-09
2.447483e-09
2.4999037e-09
2.511927e-09
2.5852431e-09
2.6415839e-09
2.7439744e-09
2.8538801e-09
3.0088606e-09
3.1945211e-09
3.4371415e-09
3.7361587e-09
4.1103133e-09
4.5560698e-09
5.0638039e-09
5.5993286e-09
6.1222569e-09
6.5929605e-09
6.9875012e-09
7.2984345e-09
7.5334836e-09
7.7077126e-09
7.8368975e-09
7.9380243e-09
8.0259693e-09
8.0991321e-09
8.163083e-09
8.2177574e-09
8.2691581e-09
8.3190863e-09
8.3654721e-09
8.4081728e-09
8.4374393e-09
8.4675614e-09
8.525707e-09
8.5865488e-09
8.6218858e-09
8.6400797e-09
8.649396e-09
8.6563787e-09
8.6673804e-09
0.00097981689
0.0021705224
0.0024842664
0.0020915438
0.00078317841
2.7353044e-06
2.7070066e-09
2.5883751e-09
2.4860152e-09
2.5215287e-09
2.4933958e-09
2.5481944e-09
2.5636719e-09
2.6408636e-09
2.7025076e-09
2.8112989e-09
2.9297336e-09
3.0953779e-09
3.2948012e-09
3.5545439e-09
3.8748637e-09
4.2732644e-09
4.7432785e-09
5.2698643e-09
5.8142196e-09
6.333713e-09
6.7901376e-09
7.1631856e-09
7.4497198e-09
7.6606922e-09
7.8128269e-09
7.9225683e-09
8.007672e-09
8.0827178e-09
8.1446927e-09
8.1988819e-09
8.2455558e-09
8.2908413e-09
8.3363793e-09
8.3792767e-09
8.4184498e-09
8.4447102e-09
8.4762382e-09
8.5380235e-09
8.593649e-09
8.6255038e-09
8.6415919e-09
8.6497707e-09
8.6560997e-09
8.6667635e-09
0.00098247116
0.002154088
0.002428406
0.0019765661
0.00064717108
6.6587038e-07
2.6890086e-09
2.6297792e-09
2.5295908e-09
2.5664774e-09
2.5412502e-09
2.5986746e-09
2.6179164e-09
2.6993688e-09
2.7668356e-09
2.8826607e-09
3.0103946e-09
3.1876547e-09
3.4020735e-09
3.6804516e-09
4.0237189e-09
4.4475496e-09
4.9417766e-09
5.4855249e-09
6.0356428e-09
6.5480783e-09
6.9869601e-09
7.3362845e-09
7.5973208e-09
7.783899e-09
7.9140492e-09
8.0046744e-09
8.074372e-09
8.1372168e-09
8.188542e-09
8.2332677e-09
8.2722964e-09
8.3117863e-09
8.3532174e-09
8.3927117e-09
8.4283459e-09
8.4519807e-09
8.485457e-09
8.5500383e-09
8.6003402e-09
8.6287775e-09
8.6428754e-09
8.6499422e-09
8.65577e-09
8.6661328e-09
0.00098535693
0.0021377848
0.0023712547
0.0018525069
0.00052369019
1.721472e-07
2.7017534e-09
2.6729939e-09
2.574974e-09
2.61348e-09
2.5911886e-09
2.6515146e-09
2.6749093e-09
2.7610716e-09
2.8349028e-09
2.9584228e-09
3.0962948e-09
3.2862145e-09
3.5169974e-09
3.8156524e-09
4.1835347e-09
4.6337655e-09
5.1517083e-09
5.7103803e-09
6.2627356e-09
6.7642707e-09
7.1824382e-09
7.5061431e-09
7.7408545e-09
7.9027941e-09
8.011125e-09
8.0831063e-09
8.1380383e-09
8.1894882e-09
8.2306502e-09
8.266165e-09
8.2978993e-09
8.3319677e-09
8.3695668e-09
8.4057259e-09
8.4378604e-09
8.459437e-09
8.4954709e-09
8.5613669e-09
8.6065107e-09
8.6317027e-09
8.6439864e-09
8.6500455e-09
8.6554189e-09
8.6654803e-09
0.00098849753
0.0021215712
0.0023203679
0.0017195889
0.00041710186
5.5368177e-08
2.7302955e-09
2.7179268e-09
2.6222157e-09
2.6626598e-09
2.6434484e-09
2.7069692e-09
2.7349546e-09
2.8262837e-09
2.9070521e-09
3.038959e-09
3.1878929e-09
3.3916378e-09
3.6403111e-09
3.9610211e-09
4.355166e-09
4.8324745e-09
5.3731066e-09
5.9438678e-09
6.4944936e-09
6.981161e-09
7.3757178e-09
7.6723334e-09
7.880046e-09
8.0170291e-09
8.1037127e-09
8.1578218e-09
8.1986696e-09
8.2396146e-09
8.2709499e-09
8.2975281e-09
8.322264e-09
8.3513769e-09
8.3853992e-09
8.418275e-09
8.4470076e-09
8.4672769e-09
8.5066329e-09
8.5716674e-09
8.6120743e-09
8.6342924e-09
8.6449703e-09
8.6501063e-09
8.6550319e-09
8.6647981e-09
0.00099165352
0.0021033144
0.0022620312
0.00157692
0.00032096466
2.1810525e-08
2.7671842e-09
2.7645917e-09
2.6714438e-09
2.7141022e-09
2.6984457e-09
2.7654332e-09
2.7983458e-09
2.8953048e-09
2.983618e-09
3.1246813e-09
3.2857129e-09
3.5045918e-09
3.7728467e-09
4.1174876e-09
4.5394331e-09
5.0440899e-09
5.6057744e-09
6.1851776e-09
6.729742e-09
7.1976365e-09
7.5661955e-09
7.834618e-09
8.0145681e-09
8.1261749e-09
8.1914363e-09
8.2288162e-09
8.2563992e-09
8.2876611e-09
8.3092947e-09
8.3273665e-09
8.3453102e-09
8.3700092e-09
8.4006888e-09
8.4303207e-09
8.455814e-09
8.4756318e-09
8.5190053e-09
8.580773e-09
8.6170256e-09
8.6365601e-09
8.6458257e-09
8.6501583e-09
8.6546009e-09
8.6640749e-09
0.00099500593
0.0020841744
0.0022032899
0.0014272197
0.0002341853
1.0717093e-08
2.8096079e-09
2.8133986e-09
2.7230892e-09
2.7681099e-09
2.7562017e-09
2.8271493e-09
2.8653554e-09
2.9684354e-09
3.0649568e-09
3.2160521e-09
3.3903499e-09
3.6258403e-09
3.9155371e-09
4.2860651e-09
4.7371601e-09
5.2689421e-09
5.8493485e-09
6.4333354e-09
6.967246e-09
7.412761e-09
7.7535575e-09
7.9926534e-09
8.1436966e-09
8.2297601e-09
8.2741961e-09
8.2960512e-09
8.3114987e-09
8.3335215e-09
8.3455108e-09
8.3557425e-09
8.3670904e-09
8.3878458e-09
8.4154132e-09
8.441832e-09
8.4643141e-09
8.4845087e-09
8.5321092e-09
8.5889031e-09
8.6214623e-09
8.6385297e-09
8.6464849e-09
8.6500894e-09
8.6540938e-09
8.6633015e-09
0.0009985975
0.0020636415
0.002141282
0.0012729439
0.00015564804
6.566473e-09
2.8563891e-09
2.8647073e-09
2.7772633e-09
2.8248703e-09
2.8169153e-09
2.8922774e-09
2.9362671e-09
3.0459467e-09
3.1514903e-09
3.3136027e-09
3.5025037e-09
3.7562541e-09
4.0694104e-09
4.4677694e-09
4.9490562e-09
5.5071121e-09
6.1031715e-09
6.6871316e-09
7.2057536e-09
7.6258724e-09
7.9375116e-09
8.1452997e-09
8.2666099e-09
8.3274876e-09
8.3522748e-09
8.3593973e-09
8.3642161e-09
8.376726e-09
8.3796443e-09
8.3826758e-09
8.3878987e-09
8.4048391e-09
8.4295512e-09
8.4527823e-09
8.4725453e-09
8.4938282e-09
8.5451302e-09
8.5964998e-09
8.625504e-09
8.6402349e-09
8.6469464e-09
8.6499124e-09
8.6535098e-09
8.6624721e-09
0.0010023629
0.0020407377
0.0020762989
0.0011217755
8.7790949e-05
4.8355908e-09
2.9066964e-09
2.9184475e-09
2.834005e-09
2.8846206e-09
2.8809558e-09
2.9609461e-09
3.0113473e-09
3.1283099e-09
3.243707e-09
3.4179558e-09
3.6229717e-09
3.8968241e-09
4.2355898e-09
4.6636738e-09
5.1757633e-09
5.7585314e-09
6.3663856e-09
6.94527e-09
7.4441793e-09
7.8366174e-09
8.1170325e-09
8.2913837e-09
8.3824931e-09
8.4192737e-09
8.4262124e-09
8.4187684e-09
8.4143536e-09
8.4171706e-09
8.4118207e-09
8.4079821e-09
8.4081846e-09
8.4209374e-09
8.4430843e-09
8.4631552e-09
8.4805531e-09
8.5035014e-09
8.5576642e-09
8.6036334e-09
8.629209e-09
8.6417473e-09
8.6472498e-09
8.6495947e-09
8.6528493e-09
8.6615779e-09
0.0010059538
0.0020128809
0.0020065817
0.00097799611
3.8606274e-05
4.0631899e-09
2.9597654e-09
2.974593e-09
2.8935116e-09
2.9475254e-09
2.9485324e-09
3.0336823e-09
3.090956e-09
3.2159434e-09
3.3421846e-09
3.5298477e-09
3.7526795e-09
4.0486478e-09
4.4152631e-09
4.8747635e-09
5.4177063e-09
6.0227781e-09
6.6378251e-09
7.2063513e-09
7.6816748e-09
8.0445751e-09
8.2903445e-09
8.4297501e-09
8.4908291e-09
8.5057473e-09
8.4963225e-09
8.4746083e-09
8.4613365e-09
8.4558324e-09
8.4419977e-09
8.4312487e-09
8.4279761e-09
8.4361588e-09
8.4559947e-09
8.472952e-09
8.4884089e-09
8.5135163e-09
8.5693443e-09
8.6101597e-09
8.6325592e-09
8.6431189e-09
8.647449e-09
8.6491853e-09
8.652107e-09
8.6606046e-09
0.0010091831
0.0019804471
0.0019306218
0.00084111029
1.2949624e-05
3.717489e-09
3.0157851e-09
3.0335934e-09
2.9562157e-09
3.0139649e-09
3.0200538e-09
3.1108475e-09
3.1754334e-09
3.3093513e-09
3.4476169e-09
3.6501294e-09
3.8926665e-09
4.2129461e-09
4.6096952e-09
5.1020155e-09
5.6751599e-09
6.2992226e-09
6.916175e-09
7.4690931e-09
7.917719e-09
8.2481799e-09
8.4559419e-09
8.5593241e-09
8.5923703e-09
8.5882253e-09
8.5618624e-09
8.5275966e-09
8.5052453e-09
8.4921183e-09
8.470091e-09
8.453031e-09
8.4468825e-09
8.4506766e-09
8.4682655e-09
8.4822049e-09
8.496239e-09
8.5239846e-09
8.5798913e-09
8.6158945e-09
8.6354531e-09
8.6443674e-09
8.6476352e-09
8.6486966e-09
8.6512818e-09
8.6595271e-09
0.0010119092
0.0019426469
0.0018430658
0.00071237278
3.5571727e-06
3.5759754e-09
3.074986e-09
3.0957543e-09
3.0223456e-09
3.0842295e-09
3.0957892e-09
3.1927512e-09
3.2653598e-09
3.4091569e-09
3.5608133e-09
3.7797842e-09
4.0440951e-09
4.3910352e-09
4.8201338e-09
5.3462107e-09
5.9480339e-09
6.5868308e-09
7.1999171e-09
7.7323559e-09
8.1517783e-09
8.4451788e-09
8.6122473e-09
8.6798976e-09
8.6893384e-09
8.6654041e-09
8.6232215e-09
8.5774352e-09
8.5463284e-09
8.5263066e-09
8.4963062e-09
8.4734333e-09
8.4643781e-09
8.4647894e-09
8.4798719e-09
8.4909745e-09
8.5042372e-09
8.5351322e-09
8.589019e-09
8.620752e-09
8.6377774e-09
8.6453296e-09
8.6478142e-09
8.6483235e-09
8.6503914e-09
8.6582986e-09
0.0010143227
0.0019001665
0.0017407927
0.00059354647
8.9897069e-07
3.5369167e-09
3.137458e-09
3.1612794e-09
3.0921255e-09
3.1585917e-09
3.1760214e-09
3.27969e-09
3.3614439e-09
3.5161775e-09
3.6827001e-09
3.919907e-09
4.2082601e-09
4.5843441e-09
5.0478632e-09
5.6080291e-09
6.2360162e-09
6.8843654e-09
7.4875864e-09
7.9953215e-09
8.3821825e-09
8.6334959e-09
8.7581766e-09
8.7936372e-09
8.7808365e-09
8.7375759e-09
8.6804245e-09
8.6241293e-09
8.584843e-09
8.5583695e-09
8.5208485e-09
8.4927186e-09
8.4802017e-09
8.4785758e-09
8.49078e-09
8.4993318e-09
8.5125898e-09
8.5469901e-09
8.5965741e-09
8.6247762e-09
8.6395954e-09
8.6460128e-09
8.6479512e-09
8.6481669e-09
8.6494746e-09
8.6568507e-09
0.0010167273
0.0018543246
0.0016256555
0.00048639332
2.3773129e-07
3.5507865e-09
3.2034481e-09
3.2304229e-09
3.1658767e-09
3.237314e-09
3.2611659e-09
3.3723272e-09
3.4642921e-09
3.6312495e-09
3.8143262e-09
4.0717322e-09
4.3865807e-09
4.7943611e-09
5.2940278e-09
5.8877991e-09
6.538326e-09
7.1902621e-09
7.7777328e-09
8.2573073e-09
8.6061816e-09
8.8112807e-09
8.8938669e-09
8.9021912e-09
8.8662253e-09
8.8047058e-09
8.7336673e-09
8.6676314e-09
8.6210312e-09
8.5884234e-09
8.5437204e-09
8.5106215e-09
8.4949236e-09
8.4918962e-09
8.5009562e-09
8.5073231e-09
8.5213087e-09
8.5586529e-09
8.6031744e-09
8.6281713e-09
8.6410448e-09
8.6465354e-09
8.6480365e-09
8.6481207e-09
8.6486428e-09
8.655189e-09
0.0010192146
0.0018057398
0.0015001884
0.00039037842
7.5173235e-08
3.5927945e-09
3.2730457e-09
3.3034701e-09
3.2438086e-09
3.3208156e-09
3.3517475e-09
3.4713795e-09
3.5748002e-09
3.7553758e-09
3.9568683e-09
4.2366125e-09
4.5806296e-09
5.022647e-09
5.5597451e-09
6.1856119e-09
6.8539484e-09
7.5029236e-09
8.0691823e-09
8.5169753e-09
8.8208932e-09
8.9771312e-09
9.0219707e-09
9.0042513e-09
8.9457142e-09
8.8670017e-09
8.7830847e-09
8.7081432e-09
8.6549846e-09
8.6165178e-09
8.5648979e-09
8.5272018e-09
8.5087281e-09
8.5047124e-09
8.5104198e-09
8.514956e-09
8.5302574e-09
8.5696861e-09
8.6091305e-09
8.631137e-09
8.6422486e-09
8.6469251e-09
8.6481085e-09
8.6480759e-09
8.6477381e-09
8.6534752e-09
0.0010216215
0.0017529379
0.0013767723
0.00030544191
3.0335145e-08
3.6503859e-09
3.3465171e-09
3.3806348e-09
3.3263669e-09
3.4096679e-09
3.448586e-09
3.5777887e-09
3.6939407e-09
3.8896261e-09
4.1116148e-09
4.4160874e-09
4.7920631e-09
5.2707339e-09
5.8457838e-09
6.5010705e-09
7.1813616e-09
7.8206558e-09
8.3609204e-09
8.7711354e-09
9.0241959e-09
9.1310892e-09
9.1440511e-09
9.0992142e-09
9.0193725e-09
8.9246296e-09
8.8288543e-09
8.745816e-09
8.6868275e-09
8.6427171e-09
8.5844047e-09
8.54256e-09
8.5217184e-09
8.516852e-09
8.5193145e-09
8.5222285e-09
8.5390643e-09
8.5798202e-09
8.6145912e-09
8.633835e-09
8.643262e-09
8.6470951e-09
8.6480232e-09
8.6479166e-09
8.6467433e-09
8.6517254e-09
0.0010240331
0.0016910329
0.0012491131
0.00022665452
1.488704e-08
3.7174593e-09
3.4240353e-09
3.4623522e-09
3.4141663e-09
3.5047384e-09
3.5526682e-09
3.6924938e-09
3.8227549e-09
4.0352097e-09
4.2800106e-09
4.6118578e-09
5.0226967e-09
5.5401384e-09
6.1527445e-09
6.8334722e-09
7.5189418e-09
8.1419372e-09
8.6519222e-09
9.0161291e-09
9.2142044e-09
9.2759038e-09
9.2587674e-09
9.1872787e-09
9.0874241e-09
8.9778033e-09
8.8711574e-09
8.7808342e-09
8.7166624e-09
8.6670871e-09
8.6023757e-09
8.5568794e-09
8.5338702e-09
8.5279644e-09
8.5278955e-09
8.5291683e-09
8.5477852e-09
8.5889053e-09
8.6195147e-09
8.6362809e-09
8.6441769e-09
8.6471712e-09
8.6477775e-09
8.6476359e-09
8.6456871e-09
8.6499498e-09
0.0010285703
0.0016364206
0.0011200814
0.00015437555
8.9994449e-09
3.7913737e-09
3.5061447e-09
3.5494409e-09
3.5081955e-09
3.6069769e-09
3.664922e-09
3.8164514e-09
3.9624103e-09
4.1935038e-09
4.4636989e-09
4.8258021e-09
5.2743942e-09
5.8321303e-09
6.4806802e-09
7.1815048e-09
7.8647693e-09
8.4652577e-09
8.9390675e-09
9.2491419e-09
9.3902305e-09
9.4139359e-09
9.365161e-09
9.2685682e-09
9.1500894e-09
9.0267411e-09
8.9101889e-09
8.8133693e-09
8.7445997e-09
8.6897137e-09
8.6189898e-09
8.5703074e-09
8.5452249e-09
8.5377423e-09
8.5362719e-09
8.535911e-09
8.5562333e-09
8.5969186e-09
8.6237849e-09
8.6383619e-09
8.6450116e-09
8.6472287e-09
8.6474093e-09
8.647203e-09
8.6445987e-09
8.6481564e-09
0.0010341513
0.0015779243
0.00099074555
9.0636253e-05
6.4905332e-09
3.87119e-09
3.593916e-09
3.6430729e-09
3.6095078e-09
3.7171677e-09
3.786151e-09
3.9505463e-09
4.11439e-09
4.366109e-09
4.6644967e-09
5.0599941e-09
5.5490917e-09
6.1478556e-09
6.8293309e-09
7.5436183e-09
8.2170274e-09
8.7893648e-09
9.2182543e-09
9.4678385e-09
9.5550084e-09
9.5436591e-09
9.4635325e-09
9.3433441e-09
9.2076294e-09
9.0716757e-09
8.9461482e-09
8.8435938e-09
8.7707467e-09
8.7107017e-09
8.6344065e-09
8.5828331e-09
8.5556851e-09
8.5465605e-09
8.5441531e-09
8.5426767e-09
8.5648927e-09
8.6037503e-09
8.627359e-09
8.640014e-09
8.6456647e-09
8.6472987e-09
8.647207e-09
8.6464793e-09
8.643503e-09
8.6463466e-09
0.0010411157
0.0015152339
0.00086425361
4.2635324e-05
5.3544909e-09
3.9571311e-09
3.6884674e-09
3.7440621e-09
3.7187259e-09
3.8360911e-09
3.9172787e-09
4.0961662e-09
4.2801264e-09
4.5548524e-09
4.8844482e-09
5.3166259e-09
5.8485794e-09
6.4879393e-09
7.1977252e-09
7.9177648e-09
8.573738e-09