/*--------------------------------*- C++ -*----------------------------------*\
  =========                 |
  \\      /  F ield         | OpenFOAM: The Open Source CFD Toolbox
   \\    /   O peration     | Website:  https://openfoam.org
    \\  /    A nd           | Version:  8
     \\/     M anipulation  |
\*---------------------------------------------------------------------------*/
FoamFile
{
    version     2.0;
    format      ascii;
    class       volVectorField;
    location    "0.129988";
    object      cellDisplacement;
}
// * * * * * * * * * * * * * * * * * * * * * * * * * * * * * * * * * * * * * //

dimensions      [0 1 0 0 0 0 0];

internalField   nonuniform List<vector> 
20000
(
(0.0017869005 0 0.001406032)
(0.0017868854 0 0.0014057986)
(0.0017868503 0 0.0014052109)
(0.0017867814 0 0.0014045342)
(0.001786664 0 0.001403755)
(0.0017864776 0 0.0014028672)
(0.0017861937 0 0.0014018672)
(0.0017857734 0 0.0014007603)
(0.0017851633 0 0.0013995619)
(0.0017842914 0 0.0013983067)
(0.0017830602 0 0.0013970583)
(0.0017813396 0 0.0013959228)
(0.001778956 0 0.0013950721)
(0.0017756812 0 0.0013947714)
(0.0017712175 0 0.0013954251)
(0.0017651802 0 0.0013976291)
(0.0017570811 0 0.0014022717)
(0.001746311 0 0.0014105845)
(0.0017321235 0 0.0014243799)
(0.0017136301 0 0.0014461313)
(0.0016898105 0 0.0014791983)
(0.0016595528 0 0.0015279704)
(0.0016217286 0 0.0015979286)
(0.0015753113 0 0.0016955618)
(0.0015195233 0 0.0018279989)
(0.0014539783 0 0.0020022257)
(0.001379 0 0.00222342)
(0.0012953628 0 0.0024943429)
(0.0012048455 0 0.0028122984)
(0.001109163 0 0.0031708381)
(0.0010112148 0 0.0035551783)
(0.00091279977 0 0.0039509286)
(0.00081697306 0 0.0043358217)
(0.00072492482 0 0.0046945891)
(0.00063935214 0 0.0050057321)
(0.00055977495 0 0.0052643814)
(0.00048815128 0 0.0054563167)
(0.00042274301 0 0.0055840168)
(0.00036487064 0 0.0056403832)
(0.00031237787 0 0.0056272202)
(0.00026623718 0 0.0055430069)
(0.00022469105 0 0.0053846188)
(0.00018916725 0 0.0051595787)
(0.00015619414 0 0.0048410128)
(0.0001271745 0 0.0044506174)
(9.9576049e-05 0 0.0039284982)
(7.4271844e-05 0 0.0033006138)
(5.1194211e-05 0 0.0025360179)
(2.7821824e-05 0 0.0015993929)
(5.6735195e-06 0 0.00048845181)
(0.0017897772 0 0.001153548)
(0.0017897647 0 0.0011529025)
(0.0017897282 0 0.0011521555)
(0.0017896572 0 0.001151281)
(0.0017895368 0 0.0011502649)
(0.0017893461 0 0.0011490929)
(0.0017890559 0 0.0011477522)
(0.0017886267 0 0.0011462369)
(0.0017880041 0 0.0011445509)
(0.0017871147 0 0.0011427159)
(0.0017858594 0 0.0011407807)
(0.0017841062 0 0.0011388365)
(0.001781679 0 0.0011370381)
(0.0017783467 0 0.0011356347)
(0.0017738074 0 0.0011350138)
(0.0017676724 0 0.0011357625)
(0.0017594486 0 0.0011387433)
(0.0017485209 0 0.0011452301)
(0.0017341395 0 0.0011570189)
(0.0017154128 0 0.0011766592)
(0.0016913223 0 0.0012076067)
(0.001660763 0 0.0012543961)
(0.0016226231 0 0.0013226882)
(0.0015759049 0 0.0014192137)
(0.001519873 0 0.0015513643)
(0.0014542066 0 0.0017263664)
(0.001379247 0 0.0019497526)
(0.0012958554 0 0.0022243668)
(0.0012057346 0 0.0025479886)
(0.0011106505 0 0.0029141216)
(0.0010133008 0 0.0033086098)
(0.00091554675 0 0.0037164826)
(0.00082019918 0 0.0041160372)
(0.00072855538 0 0.0044909328)
(0.00064307974 0 0.0048201668)
(0.00056356651 0 0.0050969789)
(0.00049172821 0 0.0053077496)
(0.00042616435 0 0.0054533164)
(0.00036794875 0 0.0055271016)
(0.00031522751 0 0.0055302052)
(0.00026874713 0 0.0054611281)
(0.0002269656 0 0.0053170227)
(0.00019102981 0 0.0051039737)
(0.00015787108 0 0.0047981314)
(0.00012855634 0 0.0044168249)
(0.00010082088 0 0.0039063904)
(7.5335188e-05 0 0.0032870991)
(5.1985412e-05 0 0.002529506)
(2.8478396e-05 0 0.0015996128)
(6.1022257e-06 0 0.00049212083)
(0.0017916121 0 0.00090647856)
(0.0017915976 0 0.00090567545)
(0.0017915582 0 0.00090473739)
(0.0017914834 0 0.00090363861)
(0.0017913578 0 0.00090235805)
(0.00179116 0 0.00090087441)
(0.0017908603 0 0.00089916747)
(0.0017904182 0 0.00089722234)
(0.0017897784 0 0.00089503088)
(0.0017888661 0 0.00089260243)
(0.0017875805 0 0.0008899706)
(0.0017857872 0 0.00088721045)
(0.0017833072 0 0.00088446054)
(0.0017799058 0 0.00088195211)
(0.0017752771 0 0.00088005718)
(0.0017690274 0 0.00087934459)
(0.0017606579 0 0.00088068198)
(0.0017495487 0 0.00088532268)
(0.0017349452 0 0.00089512216)
(0.0017159543 0 0.00091268108)
(0.0016915592 0 0.00094157148)
(0.0016606632 0 0.00098647741)
(0.0016221734 0 0.0010532231)
(0.001575125 0 0.0011487784)
(0.001518831 0 0.0012807817)
(0.0014530347 0 0.0014566865)
(0.0013781136 0 0.0016823085)
(0.0012949993 0 0.0019605787)
(0.0012053399 0 0.002289657)
(0.0011109296 0 0.0026630366)
(0.0010142878 0 0.0030670784)
(0.00091730079 0 0.0034863921)
(0.00082255956 0 0.0038997561)
(0.0007314355 0 0.0042899403)
(0.00064618611 0 0.0046363594)
(0.00056683408 0 0.0049306181)
(0.00049488763 0 0.0051595315)
(0.00042923707 0 0.0053224866)
(0.00037075397 0 0.0054132738)
(0.00031784825 0 0.0054323599)
(0.0002710783 0 0.0053782142)
(0.00022908944 0 0.0052482234)
(0.00019278742 0 0.0050471904)
(0.00015945347 0 0.0047538935)
(0.00012987204 0 0.0043818764)
(0.00010200821 0 0.0038829466)
(7.6355089e-05 0 0.0032723671)
(5.2754445e-05 0 0.0025220177)
(2.9113876e-05 0 0.0015990079)
(6.511827e-06 0 0.00049532234)
(0.001792433 0 0.00066472413)
(0.0017924149 0 0.00066377506)
(0.001792371 0 0.00066266557)
(0.0017922902 0 0.0006613608)
(0.0017921569 0 0.00065983148)
(0.0017919491 0 0.00065804734)
(0.0017916365 0 0.00065597889)
(0.0017911777 0 0.00065360158)
(0.001790516 0 0.00065089744)
(0.0017895753 0 0.00064786551)
(0.0017882524 0 0.00064452584)
(0.0017864107 0 0.00064094138)
(0.0017838679 0 0.00063723166)
(0.0017803855 0 0.00063361271)
(0.0017756527 0 0.00063043631)
(0.0017692705 0 0.00062826211)
(0.0017607345 0 0.00062793491)
(0.0017494192 0 0.00063074295)
(0.001734566 0 0.00063854112)
(0.0017152809 0 0.00065404125)
(0.0016905491 0 0.00068092979)
(0.0016592834 0 0.00072405117)
(0.0016204111 0 0.00078935953)
(0.0015730068 0 0.00088407718)
(0.0015164352 0 0.001016075)
(0.001450506 0 0.0011930105)
(0.0013756439 0 0.0014209268)
(0.0012928418 0 0.0017028345)
(0.0012037089 0 0.0020371867)
(0.0011100459 0 0.0024174976)
(0.0010142134 0 0.0028305601)
(0.00091809293 0 0.0032606785)
(0.00082407901 0 0.0036870409)
(0.00073358199 0 0.0040917136)
(0.00064868137 0 0.0044544386)
(0.00056958298 0 0.0047654386)
(0.00049763131 0 0.0050117984)
(0.00043196104 0 0.0051916539)
(0.0003732853 0 0.0052990083)
(0.00032023871 0 0.0053337774)
(0.00027322939 0 0.0052943433)
(0.00023106147 0 0.0051782857)
(0.00019443764 0 0.004989272)
(0.00016094076 0 0.004708344)
(0.0001311205 0 0.0043457925)
(0.00010313699 0 0.0038581886)
(7.7330599e-05 0 0.0032564811)
(5.3499241e-05 0 0.0025135804)
(2.9728085e-05 0 0.0015976184)
(6.9019471e-06 0 0.00049807098)
(0.0017922719 0 0.00042816442)
(0.0017922491 0 0.00042705596)
(0.0017921993 0 0.00042575273)
(0.0017921109 0 0.00042422012)
(0.0017919678 0 0.00042242553)
(0.0017917472 0 0.00042033323)
(0.0017914181 0 0.00041790669)
(0.0017909381 0 0.00041510977)
(0.0017902491 0 0.00041191274)
(0.0017892734 0 0.00040829759)
(0.0017879056 0 0.0004042702)
(0.0017860063 0 0.00039987366)
(0.0017833897 0 0.00039521345)
(0.0017798131 0 0.00039048585)
(0.0017749606 0 0.00038602893)
(0.0017684273 0 0.00038238282)
(0.0017597026 0 0.00038039741)
(0.0017481553 0 0.00038133612)
(0.0017330242 0 0.00038712257)
(0.0017134152 0 0.00040059609)
(0.0016883156 0 0.000425562)
(0.0016566473 0 0.00046704465)
(0.0016173603 0 0.00053104646)
(0.001569575 0 0.00062509343)
(0.0015127122 0 0.00075726139)
(0.0014466483 0 0.00093538776)
(0.0013718677 0 0.0011656867)
(0.0012894138 0 0.0014512463)
(0.0012008694 0 0.0017907307)
(0.0011080257 0 0.0021776944)
(0.0010131001 0 0.0025992749)
(0.00091794138 0 0.0030395916)
(0.00082476662 0 0.003478183)
(0.00073499926 0 0.0038965558)
(0.00065056304 0 0.0042747242)
(0.00057180939 0 0.0046017409)
(0.00049995078 0 0.0048648461)
(0.00043432939 0 0.0050610775)
(0.00037553325 0 0.005184545)
(0.0003223921 0 0.0052346628)
(0.00027519248 0 0.0052096902)
(0.00023287624 0 0.0051073592)
(0.00019597385 0 0.0049303298)
(0.00016232955 0 0.0046615915)
(0.00013229772 0 0.0043086339)
(0.00010420581 0 0.0038321949)
(7.8260992e-05 0 0.0032394399)
(5.4219227e-05 0 0.0025041974)
(3.0320977e-05 0 0.0015954399)
(7.274233e-06 0 0.00050038331)
(0.0017911558 0 0.00019670285)
(0.0017911269 0 0.0001954516)
(0.0017910692 0 0.00019398156)
(0.0017909709 0 0.00019224779)
(0.0017908152 0 0.00019020816)
(0.0017905789 0 0.00018781822)
(0.0017902298 0 0.00018503144)
(0.0017897244 0 0.00018180393)
(0.0017890032 0 0.00017809522)
(0.0017879864 0 0.00017387846)
(0.0017865663 0 0.00016914515)
(0.0017846003 0 0.00016392555)
(0.001781899 0 0.00015830536)
(0.0017782147 0 0.00015246435)
(0.0017732262 0 0.00014671884)
(0.001766522 0 0.00014159659)
(0.0017575849 0 0.00013792203)
(0.0017457785 0 0.00013698639)
(0.0017303407 0 0.00014068453)
(0.0017103799 0 0.0001521865)
(0.0016848817 0 0.00017531355)
(0.001652778 0 0.00021534422)
(0.0016130427 0 0.00027815044)
(0.0015648531 0 0.00037170204)
(0.0015076863 0 0.00050422919)
(0.0014414897 0 0.00068371263)
(0.0013668136 0 0.00091650554)
(0.0012847471 0 0.0012057413)
(0.0011968539 0 0.001550238)
(0.0011049014 0 0.0019435965)
(0.001010974 0 0.0023732424)
(0.00091686876 0 0.0028231802)
(0.00082463975 0 0.003273265)
(0.00073569992 0 0.0037045729)
(0.0006518374 0 0.0040973463)
(0.00057351672 0 0.0044396587)
(0.0005018458 0 0.0047188056)
(0.00043634096 0 0.0049308769)
(0.0003774955 0 0.0050699854)
(0.00032430626 0 0.0051351025)
(0.00027696539 0 0.005124324)
(0.00023453214 0 0.0050355014)
(0.00019739327 0 0.0048703981)
(0.00016361876 0 0.0046136714)
(0.00013340215 0 0.0042704115)
(0.00010521339 0 0.0038049804)
(7.9144925e-05 0 0.0032212973)
(5.4912524e-05 0 0.0024938963)
(3.0892053e-05 0 0.0015925036)
(7.6285317e-06 0 0.00050227547)
(0.0017891104 0 -2.9778163e-05)
(0.001789074 0 -3.118748e-05)
(0.001789007 0 -3.2849274e-05)
(0.0017888971 0 -3.4808417e-05)
(0.0017887267 0 -3.7110841e-05)
(0.0017884718 0 -3.9806553e-05)
(0.0017880993 0 -4.2949679e-05)
(0.0017875643 0 -4.6595225e-05)
(0.0017868056 0 -5.0795834e-05)
(0.0017857414 0 -5.5595137e-05)
(0.0017842613 0 -6.101599e-05)
(0.0017822192 0 -6.7047637e-05)
(0.0017794215 0 -7.3619783e-05)
(0.0017756155 0 -8.057383e-05)
(0.0017704736 0 -8.7610194e-05)
(0.0017635775 0 -9.4224056e-05)
(0.001754403 0 -9.9590101e-05)
(0.0017423071 0 -0.00010243705)
(0.0017265422 0 -0.00010041081)
(0.0017062076 0 -9.0676407e-05)
(0.0016802823 0 -6.9304397e-05)
(0.0016477003 0 -3.1076953e-05)
(0.0016074818 0 3.0620099e-05)
(0.0015588674 0 0.00012389546)
(0.0015013862 0 0.000257003)
(0.0014350614 0 0.00043803493)
(0.0013605153 0 0.0006734561)
(0.0012788769 0 0.00096642133)
(0.0011916958 0 0.0013158412)
(0.0011007051 0 0.0017153654)
(0.0010078639 0 0.0021526478)
(0.00091489901 0 0.0026116567)
(0.00082371391 0 0.0030725364)
(0.00073569395 0 0.0035160297)
(0.00065250755 0 0.0039225885)
(0.0005747053 0 0.0042794658)
(0.00050331194 0 0.0045739496)
(0.00043799142 0 0.0048012983)
(0.00037916512 0 0.0049555597)
(0.00032597579 0 0.005035297)
(0.0002785416 0 0.0050384183)
(0.0002360244 0 0.0049628616)
(0.00019869022 0 0.0048095926)
(0.00016480505 0 0.004564692)
(0.00013443029 0 0.0042311933)
(0.00010615828 0 0.0037766223)
(7.9981802e-05 0 0.0032020584)
(5.5578317e-05 0 0.0024826768)
(3.1441441e-05 0 0.0015888131)
(7.9659294e-06 0 0.00050375593)
(0.001786163 0 -0.00025137064)
(0.0017861178 0 -0.00025292479)
(0.0017860398 0 -0.00025475674)
(0.0017859161 0 -0.00025692067)
(0.0017857284 0 -0.00025947107)
(0.001785452 0 -0.00026246571)
(0.0017850525 0 -0.00026596865)
(0.0017844836 0 -0.00027004287)
(0.0017836822 0 -0.00027475185)
(0.0017825642 0 -0.00028014874)
(0.001781016 0 -0.00028627169)
(0.0017788881 0 -0.00029312393)
(0.0017759821 0 -0.00030065651)
(0.0017720394 0 -0.00030872978)
(0.001766726 0 -0.00031706943)
(0.0017596158 0 -0.00032518814)
(0.0017501778 0 -0.00033228147)
(0.0017377884 0 -0.00033664531)
(0.0017216807 0 -0.00033608477)
(0.0017009266 0 -0.00032795575)
(0.0016745218 0 -0.00030821005)
(0.0016414267 0 -0.00027168378)
(0.0016007132 0 -0.00021106558)
(0.001551641 0 -0.00011843961)
(0.0014938366 0 1.5483958e-05)
(0.0014273913 0 0.00019826044)
(0.0013530032 0 0.00043646078)
(0.0012718373 0 0.00073321064)
(0.0011854307 0 0.001087477)
(0.0010954725 0 0.0014929527)
(0.0010037999 0 0.0019374834)
(0.00091205879 0 0.0024050392)
(0.00082201048 0 0.0028760475)
(0.00073499797 0 0.0033309997)
(0.00065258366 0 0.0037505506)
(0.00057538182 0 0.0041212715)
(0.00050435183 0 0.0044303902)
(0.00043928181 0 0.0046724474)
(0.0003805415 0 0.0048413599)
(0.00032739977 0 0.0049353271)
(0.00027991983 0 0.0049520386)
(0.000237352 0 0.0048894956)
(0.00019986258 0 0.004747948)
(0.00016588749 0 0.0045146876)
(0.00013538071 0 0.0041909913)
(0.00010703927 0 0.0037471359)
(8.0770203e-05 0 0.0031817763)
(5.621497e-05 0 0.002470571)
(3.1968429e-05 0 0.0015843945)
(8.2864384e-06 0 0.00050484221)
(0.001782342 0 -0.00046818593)
(0.0017822865 0 -0.00046989572)
(0.0017821956 0 -0.00047191525)
(0.001782056 0 -0.00047430018)
(0.0017818486 0 -0.00047710926)
(0.0017815475 0 -0.0004804074)
(0.0017811171 0 -0.00048426546)
(0.0017805096 0 -0.00048875821)
(0.0017796598 0 -0.0004939607)
(0.0017784809 0 -0.00049994239)
(0.0017768562 0 -0.00050675576)
(0.001774632 0 -0.00051442379)
(0.0017716048 0 -0.0005229139)
(0.0017675097 0 -0.00053211064)
(0.0017620051 0 -0.00054176375)
(0.0017546575 0 -0.00055141266)
(0.0017449542 0 -0.00055991314)
(0.001732256 0 -0.00056564822)
(0.0017157593 0 -0.00056671481)
(0.0016945503 0 -0.00056019128)
(0.0016676326 0 -0.00054196072)
(0.0016339972 0 -0.00050656975)
(0.0015927445 0 -0.00044682216)
(0.0015431999 0 -0.00035473812)
(0.001485068 0 -0.0002202915)
(0.0014185133 0 -3.5557696e-05)
(0.0013443147 0 0.00020559072)
(0.001263667 0 0.00050620278)
(0.0011780966 0 0.00086526069)
(0.0010892401 0 0.0012764953)
(0.00099881573 0 0.0017279037)
(0.00090837661 0 0.0022035051)
(0.00081955011 0 0.0026840092)
(0.00073362653 0 0.0031497109)
(0.00065207345 0 0.0035814807)
(0.00057555028 0 0.0039653218)
(0.0005049646 0 0.004288375)
(0.00044021025 0 0.0045445543)
(0.00038162 0 0.0047276037)
(0.00032857418 0 0.0048353862)
(0.00028109488 0 0.0048653544)
(0.00023851088 0 0.0048155507)
(0.00020090551 0 0.0046855822)
(0.00016686294 0 0.0044637657)
(0.00013625032 0 0.0041498785)
(0.00010785494 0 0.0037165975)
(8.1509567e-05 0 0.0031604589)
(5.6821548e-05 0 0.0024575767)
(3.2473174e-05 0 0.0015792549)
(8.5908187e-06 0 0.00050553896)
(0.0017776724 0 -0.00068031364)
(0.0017776051 0 -0.00068216817)
(0.0017774998 0 -0.00068435744)
(0.0017773421 0 -0.00068694667)
(0.0017771122 0 -0.00069000298)
(0.0017767832 0 -0.00069359883)
(0.0017763179 0 -0.00069781541)
(0.0017756669 0 -0.00070273549)
(0.0017747628 0 -0.00070844561)
(0.0017735158 0 -0.00071502409)
(0.0017718059 0 -0.00072253936)
(0.0017694747 0 -0.00073102776)
(0.001766313 0 -0.00074047908)
(0.0017620489 0 -0.00075080006)
(0.0017563324 0 -0.00076177906)
(0.001748745 0 -0.00077273734)
(0.0017387644 0 -0.00078250778)
(0.0017257147 0 -0.00078976715)
(0.0017087964 0 -0.00079243622)
(0.0016870966 0 -0.00078748689)
(0.00165963 0 -0.00077070111)
(0.0016254169 0 -0.00073640009)
(0.0015835973 0 -0.00067731319)
(0.001533568 0 -0.00058512015)
(0.0014750886 0 -0.00045043143)
(0.0014084562 0 -0.00026350705)
(0.0013344824 0 -1.9228822e-05)
(0.0012544026 0 0.00028531712)
(0.0011697318 0 0.00064911604)
(0.0010820462 0 0.0010659273)
(0.00099294495 0 0.0015238748)
(0.00090388242 0 0.0020070439)
(0.00081635763 0 0.0024964406)
(0.00073159955 0 0.0029722057)
(0.00065099058 0 0.0034154484)
(0.00057522026 0 0.0038117009)
(0.00050515558 0 0.0041479954)
(0.00044077978 0 0.0044177096)
(0.00038240174 0 0.0046143719)
(0.00032949927 0 0.0047355476)
(0.00028206642 0 0.0047784264)
(0.00023950065 0 0.0047410798)
(0.00020181753 0 0.0046225296)
(0.00016773063 0 0.0044119589)
(0.00013703783 0 0.0041078683)
(0.00010860413 0 0.003685022)
(8.2198482e-05 0 0.0031381596)
(5.7396606e-05 0 0.0024437297)
(3.2954856e-05 0 0.0015734178)
(8.879188e-06 0 0.00050586335)
(0.0017721765 0 -0.00088785938)
(0.001772096 0 -0.0008898689)
(0.0017719743 0 -0.00089224519)
(0.0017717963 0 -0.00089505489)
(0.0017715413 0 -0.00089836944)
(0.0017711811 0 -0.00090226863)
(0.0017706773 0 -0.00090684055)
(0.0017699782 0 -0.00091217902)
(0.0017690141 0 -0.00091838231)
(0.0017676922 0 -0.00092554433)
(0.0017658883 0 -0.00093374685)
(0.0017634393 0 -0.000943044)
(0.0017601297 0 -0.00095343912)
(0.00175568 0 -0.00096485172)
(0.0017497449 0 -0.00097706309)
(0.0017419071 0 -0.00098920468)
(0.0017316138 0 -0.0010003735)
(0.0017181829 0 -0.0010091468)
(0.0017008103 0 -0.0010133628)
(0.0016785832 0 -0.0010099397)
(0.0016505307 0 -0.00099452664)
(0.0016157063 0 -0.00096121032)
(0.0015732937 0 -0.00090257341)
(0.001522757 0 -0.00081004345)
(0.0014639541 0 -0.00067441046)
(0.001397259 0 -0.00048553409)
(0.0013235477 0 -0.00023792702)
(0.0012440867 0 7.0636855e-05)
(0.001160379 0 0.00043913929)
(0.0010739321 0 0.00086136063)
(0.0009862255 0 0.001325521)
(0.0008986089 0 0.0018157975)
(0.00081245824 0 0.0023135146)
(0.00072893572 0 0.0027986743)
(0.00064934707 0 0.0032526649)
(0.00057439923 0 0.003660624)
(0.00050492731 0 0.004009472)
(0.00044099103 0 0.0042921237)
(0.00038288444 0 0.0045018666)
(0.00033017258 0 0.0046359953)
(0.00028283063 0 0.004691418)
(0.00024031806 0 0.0046662266)
(0.00020259469 0 0.0045589087)
(0.00016848778 0 0.0043593737)
(0.00013774056 0 0.0040650371)
(0.00010928546 0 0.0036524852)
(8.2836383e-05 0 0.0031148881)
(5.793917e-05 0 0.002429028)
(3.3413568e-05 0 0.0015668911)
(9.1521116e-06 0 0.0005058197)
(0.0017658806 0 -0.0010909095)
(0.0017657854 0 -0.0010930655)
(0.0017656455 0 -0.0010956147)
(0.0017654451 0 -0.0010986321)
(0.0017651623 0 -0.0011021974)
(0.0017647676 0 -0.0011063969)
(0.001764221 0 -0.0011113285)
(0.0017634687 0 -0.0011170939)
(0.0017624383 0 -0.0011238019)
(0.0017610338 0 -0.0011315563)
(0.0017591269 0 -0.0011404541)
(0.001756549 0 -0.0011505643)
(0.0017530785 0 -0.0011619127)
(0.0017484287 0 -0.0011744475)
(0.0017422638 0 -0.0011877245)
(0.0017341529 0 -0.0012011045)
(0.0017235215 0 -0.0012136449)
(0.0017096802 0 -0.0012238682)
(0.0016918178 0 -0.0012296011)
(0.0016690249 0 -0.0012276643)
(0.001640349 0 -0.0012135723)
(0.0016048815 0 -0.0011811133)
(0.0015618529 0 -0.0011227211)
(0.0015108021 0 -0.0010296165)
(0.0014516945 0 -0.00089231498)
(0.0013849371 0 -0.00070171798)
(0.0013115458 0 -0.00045057508)
(0.001232758 0 -0.00013792116)
(0.0011500787 0 0.00023524575)
(0.001064938 0 0.00066271619)
(0.00097869368 0 0.0011327881)
(0.00089258834 0 0.0016297316)
(0.00080787934 0 0.0021352215)
(0.00072566951 0 0.0026295986)
(0.00064716879 0 0.0030936306)
(0.00057310579 0 0.0035125637)
(0.00050429171 0 0.0038732274)
(0.00044084884 0 0.0041678756)
(0.00038307067 0 0.0043901578)
(0.00033059539 0 0.0045367947)
(0.000283388 0 0.0046043849)
(0.00024096322 0 0.0045910406)
(0.00020323602 0 0.0044947534)
(0.00016913376 0 0.0043060414)
(0.00013835736 0 0.0040213999)
(0.00010989783 0 0.0036190017)
(8.3421867e-05 0 0.003090698)
(5.844793e-05 0 0.0024135102)
(3.3848416e-05 0 0.001559697)
(9.409761e-06 0 0.0005054244)
(0.0017588072 0 -0.0012895646)
(0.0017586956 0 -0.0012918754)
(0.0017585354 0 -0.0012946116)
(0.0017583099 0 -0.0012978495)
(0.0017579964 0 -0.0013016735)
(0.0017575638 0 -0.0013061763)
(0.0017569702 0 -0.0013114631)
(0.0017561598 0 -0.0013176458)
(0.0017550571 0 -0.0013248449)
(0.0017535626 0 -0.0013331792)
(0.0017515432 0 -0.0013427594)
(0.0017488245 0 -0.0013536715)
(0.0017451773 0 -0.0013659548)
(0.0017403194 0 -0.0013795692)
(0.0017339154 0 -0.0013939275)
(0.0017255052 0 -0.001408522)
(0.001714508 0 -0.0014223889)
(0.0017002235 0 -0.001434046)
(0.0016818354 0 -0.0014412407)
(0.0016584362 0 -0.0014407536)
(0.0016291003 0 -0.0014279397)
(0.0015929633 0 -0.001396158)
(0.0015492992 0 -0.0013377785)
(0.0014977311 0 -0.0012438448)
(0.0014383228 0 -0.0011045763)
(0.0013715604 0 -0.00091153632)
(0.0012985225 0 -0.00065710401)
(0.0012204626 0 -0.00034028539)
(0.0011388772 0 3.7513094e-05)
(0.0010551085 0 0.00047008219)
(0.00097039056 0 0.00094577025)
(0.00088587867 0 0.0014494913)
(0.0008026752 0 0.0019622894)
(0.00072183247 0 0.0024652633)
(0.00064447367 0 0.0029386288)
(0.00057135135 0 0.0033677836)
(0.00050325281 0 0.0037395217)
(0.00044035717 0 0.0040454823)
(0.00038296024 0 0.0042794335)
(0.00033076668 0 0.0044381185)
(0.00028373596 0 0.0045174825)
(0.00024143372 0 0.0045156607)
(0.00020373838 0 0.0044301809)
(0.00016966613 0 0.0042520664)
(0.00013888592 0 0.003977035)
(0.00011043992 0 0.0035846463)
(8.3954357e-05 0 0.0030655996)
(5.8921912e-05 0 0.0023971745)
(3.4259415e-05 0 0.0015518434)
(9.6525708e-06 0 0.00050468213)
(0.0017509785 0 -0.0014839082)
(0.001750849 0 -0.0014863672)
(0.0017506669 0 -0.001489278)
(0.0017504145 0 -0.0014927245)
(0.0017500676 0 -0.001496798)
(0.0017495938 0 -0.0015015983)
(0.0017489492 0 -0.00150724)
(0.0017480755 0 -0.0015138445)
(0.0017468941 0 -0.0015215428)
(0.0017453015 0 -0.0015304654)
(0.0017431599 0 -0.0015407377)
(0.0017402887 0 -0.0015524633)
(0.0017364519 0 -0.0015657056)
(0.0017313761 0 -0.0015802554)
(0.0017247128 0 -0.0015957196)
(0.001715981 0 -0.0016115234)
(0.0017045901 0 -0.0016267099)
(0.0016898298 0 -0.0016397529)
(0.001670877 0 -0.0016483717)
(0.001646829 0 -0.001649304)
(0.0016168225 0 -0.0016372383)
(0.0015799992 0 -0.0016058619)
(0.0015356836 0 -0.0015472619)
(0.0014835978 0 -0.0014522924)
(0.0014238801 0 -0.0013112865)
(0.001357165 0 -0.0011150692)
(0.0012845031 0 -0.0008575685)
(0.0012072409 0 -0.00053654666)
(0.0011268173 0 -0.00015415481)
(0.0010444858 0 0.00028336307)
(0.00096139377 0 0.0007650063)
(0.00087853357 0 0.0012752314)
(0.00079687897 0 0.0017948675)
(0.00071743602 0 0.0023053552)
(0.00064127244 0 0.0027873163)
(0.00056914422 0 0.0032259806)
(0.00050181822 0 0.003608103)
(0.00043952315 0 0.0039250329)
(0.0003825578 0 0.004170027)
(0.00033068879 0 0.0043400249)
(0.00028387586 0 0.0044307596)
(0.00024173023 0 0.0044401317)
(0.00020410134 0 0.0043652233)
(0.00017008449 0 0.0041974781)
(0.00013932523 0 0.0039319582)
(0.00011091069 0 0.0035494335)
(8.4432507e-05 0 0.0030396475)
(5.9359908e-05 0 0.002380062)
(3.464565e-05 0 0.0015433525)
(9.8807565e-06 0 0.00050360821)
(0.0017424202 0 -0.0016740332)
(0.001742271 0 -0.0016766426)
(0.0017420648 0 -0.001679732)
(0.0017417827 0 -0.0016833905)
(0.0017413993 0 -0.0016877155)
(0.0017408804 0 -0.0016928147)
(0.00174018 0 -0.0016988105)
(0.0017392372 0 -0.0017058329)
(0.0017379701 0 -0.0017140249)
(0.0017362711 0 -0.0017235283)
(0.0017339966 0 -0.0017344826)
(0.0017309591 0 -0.0017470046)
(0.0017269244 0 -0.001761185)
(0.0017216219 0 -0.0017766824)
(0.0017146763 0 -0.0017932202)
(0.0017055978 0 -0.0018102195)
(0.0016937836 0 -0.0018266908)
(0.001678513 0 -0.0018410961)
(0.0016589572 0 -0.001851048)
(0.0016342548 0 -0.0018530292)
(0.0016035634 0 -0.0018414303)
(0.0015660168 0 -0.0018101933)
(0.001521032 0 -0.0017511369)
(0.0014684217 0 -0.001654851)
(0.0014084204 0 -0.0015118812)
(0.001341769 0 -0.0013127279)
(0.0012695336 0 -0.0010519555)
(0.0011931429 0 -0.00072664826)
(0.0011139487 0 -0.0003396996)
(0.001033172 0 0.00010333436)
(0.00095176874 0 0.00059083423)
(0.00087057427 0 0.0011067563)
(0.0007905052 0 0.0016326077)
(0.00071250305 0 0.0021499603)
(0.00063758209 0 0.0026398084)
(0.00056649655 0 0.003087287)
(0.0004999954 0 0.0034791193)
(0.00043834976 0 0.003806398)
(0.00038186572 0 0.0040621229)
(0.00033036055 0 0.0042426758)
(0.00028380638 0 0.0043443626)
(0.00024185119 0 0.0043645865)
(0.00020432258 0 0.0042999959)
(0.00017038683 0 0.004142379)
(0.00013967338 0 0.0038862494)
(0.00011130894 0 0.0035134374)
(8.4855715e-05 0 0.0030128525)
(5.9760959e-05 0 0.0023621719)
(3.5007057e-05 0 0.0015342322)
(1.0094628e-05 0 0.00050220784)
(0.0017331508 0 -0.0018600254)
(0.0017329804 0 -0.0018627846)
(0.001732748 0 -0.0018660522)
(0.0017324338 0 -0.0018699225)
(0.0017320107 0 -0.0018744989)
(0.001731443 0 -0.0018798958)
(0.0017306824 0 -0.0018862443)
(0.0017296651 0 -0.0018936842)
(0.0017283056 0 -0.0019023682)
(0.0017264918 0 -0.0019124492)
(0.0017240748 0 -0.0019240775)
(0.0017208606 0 -0.0019373753)
(0.0017166172 0 -0.0019524214)
(0.0017110697 0 -0.0019689008)
(0.0017038217 0 -0.0019865213)
(0.0016943714 0 -0.0020046908)
(0.0016821036 0 -0.0020224319)
(0.0016662872 0 -0.0020381778)
(0.0016461003 0 -0.0020494526)
(0.0016207342 0 -0.002051978)
(0.0015893045 0 -0.0020409437)
(0.0015510033 0 -0.0020097277)
(0.0015053337 0 -0.0019500133)
(0.0014522103 0 -0.0018521182)
(0.0013919752 0 -0.0017064488)
(0.0013253951 0 -0.0015045296)
(0.0012536887 0 -0.0012398949)
(0.0011782126 0 -0.00091068995)
(0.0011003867 0 -0.00051844305)
(0.0010212409 0 -6.9790365e-05)
(0.00094153019 0 0.00042282182)
(0.00086203171 0 0.00094392919)
(0.00078358137 0 0.0014754076)
(0.000707057 0 0.0019990078)
(0.00063342126 0 0.0024960698)
(0.000563423 0 0.0029516983)
(0.00049779492 0 0.0033525866)
(0.00043684442 0 0.0036896081)
(0.00038088641 0 0.0039555103)
(0.00032978497 0 0.0041461132)
(0.00028352956 0 0.0042583329)
(0.00024179778 0 0.0042890654)
(0.0002044021 0 0.0042345286)
(0.00017057293 0 0.0040867965)
(0.00013992949 0 0.0038399249)
(0.0001116337 0 0.0034766725)
(8.5222692e-05 0 0.0029852699)
(6.0123922e-05 0 0.0023435468)
(3.5342689e-05 0 0.0015245045)
(1.029442e-05 0 0.00050049554)
(0.0017231904 0 -0.0020419697)
(0.0017229968 0 -0.0020448798)
(0.0017227361 0 -0.0020483269)
(0.0017223871 0 -0.0020524103)
(0.0017219213 0 -0.0020572396)
(0.0017213009 0 -0.0020629367)
(0.0017204752 0 -0.0020696406)
(0.0017193775 0 -0.0020775004)
(0.0017179183 0 -0.0020866814)
(0.0017159807 0 -0.0020973508)
(0.0017134094 0 -0.0021096782)
(0.0017100032 0 -0.0021238177)
(0.0017055428 0 -0.0021396527)
(0.0016997364 0 -0.0021570573)
(0.0016921661 0 -0.0021757105)
(0.0016823176 0 -0.0021950297)
(0.0016695634 0 -0.0022139994)
(0.001653161 0 -0.0022310839)
(0.0016323416 0 -0.002243306)
(0.0016062758 0 -0.0022464686)
(0.001574061 0 -0.0022358384)
(0.0015349778 0 -0.0022044825)
(0.001488614 0 -0.0021438997)
(0.0014349972 0 -0.002044079)
(0.0013745577 0 -0.0018953696)
(0.0013081374 0 -0.0016900219)
(0.0012370245 0 -0.001421333)
(0.0011625771 0 -0.0010877875)
(0.0010862249 0 -0.00068996551)
(0.0010087092 0 -0.0002363587)
(0.0009307169 0 0.00026093345)
(0.00085294087 0 0.00078674038)
(0.00077613724 0 0.0013232927)
(0.00070112204 0 0.0018525506)
(0.00062880864 0 0.0023561835)
(0.00055993738 0 0.0028193173)
(0.00049522616 0 0.0032286275)
(0.00043501344 0 0.003574796)
(0.00037962314 0 0.0038503332)
(0.00032896359 0 0.0040504764)
(0.00028304525 0 0.0041728065)
(0.00024156924 0 0.0042136942)
(0.00020433831 0 0.0041689334)
(0.00017064122 0 0.0040308304)
(0.00014009201 0 0.0037930651)
(0.00011188386 0 0.0034392123)
(8.553282e-05 0 0.0029569106)
(6.0447863e-05 0 0.0023241872)
(3.5652422e-05 0 0.0015141776)
(1.0480346e-05 0 0.00049847725)
(0.0017125588 0 -0.0022199486)
(0.0017123404 0 -0.002223009)
(0.0017120493 0 -0.0022266347)
(0.0017116628 0 -0.0022309304)
(0.0017111509 0 -0.002236012)
(0.0017104739 0 -0.0022420078)
(0.0017095782 0 -0.0022490655)
(0.0017083938 0 -0.0022573445)
(0.0017068271 0 -0.0022670198)
(0.0017047558 0 -0.0022782705)
(0.0017020174 0 -0.0022912788)
(0.0016984159 0 -0.0023062197)
(0.0016937333 0 -0.0023228617)
(0.0016876452 0 -0.0023411779)
(0.0016797272 0 -0.0023608582)
(0.0016694529 0 -0.0023812815)
(0.0016561789 0 -0.0024014113)
(0.0016391796 0 -0.0024196326)
(0.0016177073 0 -0.0024325906)
(0.0015908774 0 -0.0024365073)
(0.0015578414 0 -0.0024262021)
(0.0015179531 0 -0.0023945295)
(0.0014709292 0 -0.0023323914)
(0.0014168461 0 -0.0022303385)
(0.0013562116 0 -0.0020787329)
(0.0012900355 0 -0.0018692783)
(0.001219554 0 -0.0015968579)
(0.0011463339 0 -0.0012576174)
(0.0010714703 0 -0.00085479352)
(0.00099561083 0 -0.00039658865)
(0.00091936184 0 0.00010498452)
(0.00084333197 0 0.00063503584)
(0.00076819989 0 0.0011761406)
(0.00069472165 0 0.0017104983)
(0.00062376339 0 0.0022200933)
(0.00055605514 0 0.0026901195)
(0.00049230071 0 0.0031072392)
(0.00043286519 0 0.0034619772)
(0.00037808169 0 0.0037466167)
(0.00032790365 0 0.0039560319)
(0.00028235617 0 0.0040878173)
(0.00024116725 0 0.0041385075)
(0.00020413166 0 0.0041032371)
(0.00017059169 0 0.0039745059)
(0.00014016021 0 0.0037456862)
(0.00011205854 0 0.003401071)
(8.5784919e-05 0 0.0029278311)
(6.0731726e-05 0 0.0023041376)
(3.5935325e-05 0 0.001503274)
(1.0652654e-05 0 0.00049616616)
(0.001701275 0 -0.0023940435)
(0.00170103 0 -0.0023972549)
(0.0017007061 0 -0.0024010603)
(0.0017002795 0 -0.0024055691)
(0.0016997183 0 -0.0024109031)
(0.0016989805 0 -0.0024171982)
(0.00169801 0 -0.0024246098)
(0.0016967331 0 -0.0024333054)
(0.0016950519 0 -0.0024434716)
(0.0016928384 0 -0.0024552989)
(0.001689924 0 -0.0024689822)
(0.0016861204 0 -0.0024846052)
(0.0016811959 0 -0.002502089)
(0.0016748076 0 -0.0025213347)
(0.0016665197 0 -0.0025420247)
(0.0016557917 0 -0.0025635424)
(0.001641972 0 -0.0025847844)
(0.001624356 0 -0.0026038891)
(0.0016021803 0 -0.0026176736)
(0.0015745498 0 -0.0026221814)
(0.0015406604 0 -0.0026120726)
(0.0015000015 0 -0.0025794608)
(0.0014523317 0 -0.0025154398)
(0.0013977874 0 -0.0024107783)
(0.0013370087 0 -0.0022560152)
(0.0012711078 0 -0.0020426774)
(0.0012014327 0 -0.0017654984)
(0.0011295173 0 -0.0014206389)
(0.0010561644 0 -0.0010130368)
(0.00098198713 0 -0.00055055563)
(0.00090750352 0 -4.5083117e-05)
(0.00083324005 0 0.00048878198)
(0.00075979954 0 0.0010339502)
(0.00068788074 0 0.001572877)
(0.00061830528 0 0.0020878534)
(0.00055179138 0 0.0025641794)
(0.00048902941 0 0.0029885178)
(0.00043040748 0 0.0033512617)
(0.00037626809 0 0.0036444791)
(0.00032660857 0 0.0038629088)
(0.0002814649 0 0.0040037044)
(0.0002405919 0 0.0040636246)
(0.00020378128 0 0.0040375474)
(0.00017042325 0 0.0039179198)
(0.00014013291 0 0.0036978686)
(0.00011215679 0 0.0033623215)
(8.5978347e-05 0 0.0028980427)
(6.0974571e-05 0 0.002283399)
(3.6191211e-05 0 0.0014918026)