/*--------------------------------*- C++ -*----------------------------------*\
  =========                 |
  \\      /  F ield         | OpenFOAM: The Open Source CFD Toolbox
   \\    /   O peration     | Website:  https://openfoam.org
    \\  /    A nd           | Version:  8
     \\/     M anipulation  |
\*---------------------------------------------------------------------------*/
FoamFile
{
    version     2.0;
    format      ascii;
    class       volScalarField;
    location    "0.129988";
    object      Ma;
}
// * * * * * * * * * * * * * * * * * * * * * * * * * * * * * * * * * * * * * //

dimensions      [0 0 0 0 0 0 0];

internalField   nonuniform List<scalar> 
20000
(
0.77717876
0.90171548
0.98181363
1.0510225
1.116996
1.1819084
1.237043
1.2522375
1.2470226
1.2486442
1.2441147
1.2438755
1.2396125
1.2376303
1.2329153
1.2289944
1.2230396
1.2167529
1.2086297
1.1992425
1.1878025
1.1742285
1.158075
1.1389818
1.116701
1.0909662
1.0618807
1.0297608
0.99541523
0.95997513
0.92515541
0.89294442
0.86487453
0.84146064
0.82248442
0.80743179
0.7955439
0.7862053
0.77889488
0.77317957
0.76875599
0.76520478
0.76234857
0.76010552
0.75851582
0.75697581
0.75514789
0.75357392
0.75390964
0.75168169
0.77605005
0.90150006
0.98199345
1.0516482
1.1181522
1.1836973
1.2367795
1.2501707
1.2447004
1.2463732
1.2417031
1.2414538
1.2370586
1.2349964
1.2301409
1.2260696
1.2199396
1.2134284
1.2050612
1.1953605
1.1835754
1.1695896
1.152988
1.1334131
1.1106558
1.0845177
1.0552148
1.0232328
0.98951328
0.95519827
0.92174931
0.8907737
0.86358952
0.8407363
0.82209763
0.80722906
0.79544487
0.78616898
0.77889416
0.77319964
0.76878296
0.76523132
0.7623712
0.76013423
0.75854515
0.75692302
0.75476173
0.7536381
0.75333452
0.75196562
0.77429923
0.90050243
0.98164794
1.0519425
1.1191216
1.1855085
1.2362934
1.2478883
1.2422721
1.243986
1.2391863
1.2389131
1.2343971
1.2322467
1.2272624
1.223039
1.2167438
1.2100083
1.2014043
1.1913911
1.1792687
1.164873
1.1478294
1.1277679
1.1045251
1.0779557
1.0483868
1.0164461
0.98319489
0.94979459
0.91754078
0.88775206
0.86152717
0.83935898
0.82118292
0.80662989
0.79505519
0.78591617
0.77872929
0.77309451
0.76870888
0.76517287
0.76232422
0.76011791
0.75853402
0.75679095
0.75468246
0.75357287
0.75318847
0.75203706
0.77270212
0.89969752
0.98145605
1.0523392
1.1201301
1.1873775
1.2355127
1.2454989
1.2397361
1.2414812
1.2365482
1.2362465
1.2316085
1.2293668
1.2242521
1.2198713
1.2134053
1.2064361
1.1975856
1.1872483
1.1747767
1.1599568
1.1424544
1.1218857
1.0981353
1.0711115
1.0412569
1.0093345
0.97651399
0.9439715
0.91286715
0.88427107
0.8590687
0.83767481
0.82004733
0.80587364
0.79455551
0.78558813
0.77851475
0.77295592
0.76861433
0.76510266
0.76227303
0.76010132
0.75851966
0.75666383
0.75458207
0.75348047
0.75294581
0.7521188
0.77110554
0.89886384
0.98123715
1.0527181
1.1211043
1.189249
1.2344074
1.2429463
1.2370598
1.2388326
1.2337734
1.2334386
1.2286837
1.2263441
1.2210991
1.2165508
1.2099084
1.2026939
1.1935876
1.1829147
1.170082
1.1548241
1.1368467
1.1157533
1.091477
1.063985
1.0338367
1.0019223
0.96950401
0.93776413
0.90775085
0.88032806
0.85618326
0.83563138
0.81862682
0.80490205
0.79389702
0.78514387
0.77821574
0.77275524
0.76847391
0.76499804
0.76219839
0.76007189
0.75849037
0.75653528
0.75449423
0.7533727
0.75279998
0.75216353
0.76956795
0.8980663
0.98104776
1.0531287
1.1220813
1.1911136
1.2329836
1.2403122
1.2342633
1.2360572
1.2308756
1.2305006
1.2256286
1.2231811
1.2178005
1.2130725
1.2062446
1.1987716
1.1893972
1.1783737
1.1651627
1.149447
1.1309708
1.1093284
1.084504
1.0565316
1.0260919
0.99419796
0.96218824
0.93123903
0.90229407
0.87603658
0.85297327
0.83331171
0.81698607
0.80376147
0.79311245
0.78460738
0.77785036
0.77250641
0.76829914
0.764869
0.76210887
0.76003574
0.75845113
0.7564016
0.7543835
0.75326343
0.75266675
0.75219706
0.76805551
0.89727323
0.98087123
1.0535657
1.1230668
1.1929306
1.2312399
1.2375362
1.2313526
1.2331601
1.2278586
1.2274333
1.2224425
1.2198753
1.214354
1.2094341
1.202413
1.1946689
1.1850142
1.1736253
1.1600179
1.1438232
1.1248236
1.1026083
1.0772152
1.0487556
1.0180359
0.98618519
0.95460219
0.92444327
0.89655111
0.87144891
0.84947975
0.83074216
0.81513879
0.80245845
0.79220425
0.78397865
0.77741718
0.77220751
0.7680875
0.76471293
0.76200222
0.75999055
0.75839891
0.7562562
0.75426617
0.75315434
0.75256617
0.75222207
0.76657872
0.89651825
0.98073679
1.0540588
1.1240992
1.1946688
1.2291942
1.2346555
1.2283369
1.2301462
1.2247242
1.2242365
1.2191241
1.2164256
1.2107593
1.2056366
1.1984143
1.1903864
1.1804386
1.1686679
1.1546433
1.1379455
1.1183953
1.0955813
1.0696001
1.0406511
1.0096713
0.97789922
0.94677613
0.91742394
0.89058281
0.86663012
0.84576129
0.82796917
0.81311897
0.80101631
0.79118805
0.7832682
0.77692322
0.77186338
0.76784233
0.76453242
0.7618807
0.75993615
0.75833208
0.75609535
0.75413802
0.75304811
0.75248605
0.75224318
0.76516311
0.8958026
0.98063515
1.0546006
1.1251904
1.196254
1.2268356
1.2316536
1.2252075
1.2270077
1.2214671
1.220906
1.2156716
1.212832
1.207018
1.2016822
1.1942506
1.1859262
1.1756714
1.1635013
1.1490367
1.1318105
1.1116816
1.0882435
1.0616578
1.0322242
1.0010133
0.96936436
0.93874334
0.91022282
0.88443752
0.86163
0.8418625
0.82502794
0.81095183
0.79945229
0.7900752
0.78248327
0.77637293
0.7714767
0.76756504
0.76432835
0.76174517
0.75987135
0.75824669
0.7559162
0.7540023
0.75294637
0.75242755
0.75226203
0.7637963
0.89512462
0.98056117
1.0551834
1.1263497
1.1976823
1.2241463
1.2285324
1.2219639
1.2237432
1.2180869
1.217443
1.2120878
1.2090984
1.2031335
1.1975734
1.1899234
1.1812892
1.1707125
1.1581235
1.1431937
1.1254122
1.1046756
1.0805888
1.0533854
1.0234793
0.99207589
0.96060403
0.93053583
0.90287978
0.87816122
0.85649646
0.83782756
0.82195492
0.80866503
0.79778616
0.78887937
0.7816331
0.77577243
0.77105148
0.7672582
0.76410275
0.76159703
0.75979513
0.75813873
0.75571778
0.75386044
0.75285288
0.75238674
0.75227982
0.76244188
0.89446138
0.98050052
1.0557931
1.1275846
1.1988854
1.221113
1.2252896
1.218606
1.220354
1.2145868
1.2138522
1.2083778
1.2052288
1.1991083
1.1933118
1.1854338
1.1764761
1.1655603
1.1525306
1.1371085
1.118744
1.0973705
1.0726117
1.0447828
1.0144247
0.98287693
0.9516443
0.92218587
0.89543189
0.87179442
0.85127081
0.83369479
0.81878226
0.80628344
0.79603614
0.78761345
0.78072651
0.7751276
0.77059153
0.76692423
0.76385768
0.76143774
0.75970477
0.75800371
0.75550379
0.753718
0.7527707
0.75235871
0.75229712
0.76111224
0.89384145
0.98047275
1.0564399
1.1289223
1.1998205
1.2178596
1.2219284
1.2151398
1.2168478
1.2109746
1.2101404
1.2045464
1.2012257
1.1949431
1.188898
1.1807822
1.1714861
1.1602116
1.1467172
1.1307743
1.1117983
1.0897586
1.0643065
1.0358501
1.0050699
0.97343565
0.94251199
0.91372542
0.88791452
0.86537471
0.84599093
0.8294995
0.81554008
0.80383093
0.79422018
0.78629042
0.77977266
0.77444464
0.77010097
0.76656591
0.76359572
0.76126967
0.75959797
0.75783653
0.75528124
0.75358039
0.75269924
0.75233788
0.75231417
0.75980949
0.89327015
0.98049125
1.057134
1.130394
1.2004414
1.2146384
1.2184571
1.211575
1.2132339
1.2072573
1.2063104
1.2005934
1.197088
1.1906378
1.184333
1.1759686
1.1663168
1.1546609
1.1406761
1.1241827
1.1045664
1.0818314
1.0556675
1.026589
0.99542684
0.96377357
0.93323527
0.90518625
0.88036115
0.85893625
0.84069052
0.825273
0.81225542
0.80132934
0.79235509
0.78492273
0.77878043
0.7737297
0.76958387
0.76618608
0.76331961
0.76109515
0.75947452
0.75763249
0.75505699
0.75345042
0.75263727
0.75232179
0.75233109
0.75853495
0.89273367
0.98054547
1.057871
1.1319924
1.200706
1.2111918
1.2148932
1.2079194
1.2095148
1.203433
1.202359
1.1965164
1.1928158
1.1861938
1.1796178
1.170991
1.1609634
1.1489011
1.1343995
1.1173255
1.0970392
1.0735799
1.0466895
1.0170027
0.98550948
0.95391405
0.9238433
0.89659993
0.87280379
0.85251067
0.83540012
0.82104354
0.80895284
0.79879879
0.79045665
0.78352234
0.77775855
0.77298889
0.7690443
0.76578767
0.76303219
0.76091596
0.75933405
0.75738894
0.75483708
0.75332912
0.75258357
0.75230954
0.7523479
0.75732348
0.89225915
0.98068095
1.0586775
1.1337115
1.2006295
1.2076094
1.2112274
1.2041623
1.2056794
1.1994953
1.1982834
1.1923163
1.1884118
1.1816131
1.1747516
1.1658447
1.1554188
1.1429238
1.1278785
1.1101928
1.0892061
1.0649945
1.037368
1.0070968
0.97533467
0.94388272
0.91436634
0.88799776
0.86527281
0.84612689
0.83014708
0.81683623
0.80565423
0.79625747
0.78853939
0.78210046
0.77671534
0.77222807
0.76848624
0.76537366
0.76273627
0.76073372
0.75917568
0.7571067
0.7546257
0.75321634
0.75253715
0.75230003
0.75236522
0.75613255
0.89180521
0.98086145
1.0595285
1.1355099
1.2001081
1.2038488
1.2074474
1.2002979
1.2017267
1.1954466
1.1940893
1.1879987
1.1838796
1.1768951
1.1697295
1.1605221
1.1496745
1.1367204
1.1211041
1.1027746
1.0810561
1.0560656
1.0276997
0.99687894
0.9649217
0.93370708
0.90483533
0.87941056
0.85779706
0.83981156
0.82495607
0.81267346
0.80237913
0.79372176
0.78661666
0.78066757
0.77565871
0.77145289
0.76791352
0.764947
0.76243444
0.76054931
0.75899991
0.75679417
0.75442216
0.75311122
0.75249689
0.75229317
0.75238467
0.75493671
0.89136802
0.98108732
1.0604227
1.1373464
1.19908
1.199989
1.203563
1.1963375
1.1976678
1.1912963
1.1897835
1.1835666
1.1792177
1.1720338
1.1645435
1.155014
1.1437222
1.1302823
1.1140664
1.0950589
1.0725767
1.0467835
1.0176833
0.98636023
0.95429306
0.92341669
0.89528193
0.87086846
0.85040373
0.83358905
0.81984908
0.80857491
0.79914465
0.79120614
0.78470046
0.77923333
0.77459602
0.77066865
0.76732984
0.76451064
0.76212892
0.76036218
0.75880665
0.75646456
0.75422305
0.75301288
0.75246246
0.75228964
0.75240633
0.75375559
0.89097357
0.98139586
1.0614135
1.1392085
1.1976039
1.1960751
1.1995848
1.1922914
1.1935115
1.1870491
1.1853665
1.1790164
1.174419
1.16702
1.1591838
1.1493118
1.1375541
1.1236004
1.1067542
1.0870331
1.0637548
1.037139
1.0073197
0.97555457
0.94347392
0.91304278
0.88573804
0.86240077
0.84311852
0.82748166
0.81484576
0.80455787
0.79596573
0.78872337
0.7828016
0.77780654
0.77353409
0.76988029
0.7667387
0.76406753
0.76182167
0.76017028
0.75859357
0.75612725
0.75402894
0.75292109
0.75243316
0.75229003
0.75242983
0.75258398
0.89062688
0.98179622
1.0625251
1.1410457
1.1956812
1.1920547
1.1955211
1.1881609
1.1892567
1.1827008
1.1808312
1.1743385
1.169473
1.1618433
1.1536425
1.1434084
1.1311624
1.1166643
1.0991548
1.0786827
1.054577
1.0271245
0.99661254
0.96447969
0.93249251
0.9026182
0.87623572
0.85403593
0.83596552
0.82150957
0.80996331
0.80063722
0.79285512
0.78628448
0.78092962
0.77639514
0.77247912
0.76909232
0.76614348
0.76362068
0.76151442
0.75997023
0.7583562
0.75578987
0.75384226
0.75283631
0.75240813
0.75229451
0.75245468
0.75145914
0.89035343
0.98232566
1.0638041
1.1427994
1.1933136
1.1879553
1.191369
1.1839382
1.1848934
1.1782406
1.176166
1.1695216
1.1643697
1.1564962
1.1479138
1.1372977
1.1245388
1.1094622
1.0912539
1.0699927
1.0450294
1.0167337
0.98556905
0.95315691
0.92137962
0.89217671
0.86680673
0.8458014
0.82896725
0.81569104
0.80521676
0.79682567
0.78982367
0.783899
0.77909293
0.77500629
0.77143665
0.76830884
0.7655474
0.76317318
0.76120888
0.75975805
0.75808721
0.75546007
0.75366587
0.75275927
0.75238676
0.75229879
0.75248062
0.75036305
0.89011629
0.98294859
1.0652573
1.1443787
1.1904553
1.1837483
1.1871152
1.1796119
1.1804102
1.1736574
1.1713605
1.1645569
1.1591029
1.1509738
1.1419934
1.1309727
1.1176722
1.1019796
1.0830355
1.0609467
1.0350987
1.0059631
0.97420051
0.94161171
0.9101689
0.88175322
0.8574827
0.83772351
0.8221445
0.8100422
0.80061883
0.79313374
0.78688033
0.78157497
0.77729876
0.77364626
0.77041159
0.76753349
0.76495352
0.76272818
0.76090673
0.75953011
0.75777814
0.75514605
0.75350205
0.75269045
0.7523695
0.75230533
0.75250743
0.74928595
0.88990295
0.98363769
1.0668973
1.1456953
1.1870801
1.1794293
1.1827496
1.1751717
1.1757986
1.1689428
1.1664076
1.1594399
1.1536702
1.1452737
1.1358764
1.1244238
1.1105489
1.0942006
1.0744829
1.0515278
1.0247724
0.99481177
0.96252215
0.92987304
0.89889597
0.87138322
0.8482949
0.82982734
0.81551615
0.8045771
0.79618026
0.78957002
0.78403254
0.77931915
0.77555326
0.77232052
0.76940822
0.7667695
0.76436479
0.76228886
0.76060952
0.75928422
0.75742413
0.75485411
0.75335195
0.75262985
0.75235649
0.75231436
0.75253479
0.74820588
0.8896943
0.98437617
1.0687522
1.1466689
1.1831824
1.174984
1.1782584
1.1706052
1.1710497
1.1640928
1.1613062
1.1541704
1.1480713
1.1393922
1.1295547
1.1176377
1.1031529
1.0861078
1.0655779
1.0417189
1.0140396
0.98328294
0.9505542
0.91797395
0.88759893
0.86110326
0.8392744
0.8221366
0.80909875
0.79930735
0.79190981
0.78614131
0.78128629
0.77713691
0.77386144
0.77103361
0.76843022
0.76601963
0.76378396
0.76185818
0.76031839
0.75902038
0.75703
0.75458484
0.75321533
0.75257713
0.75234714
0.75232518
0.75256233
0.74709173
0.88946297
0.98513593
1.070831
1.1472086
1.1789656
1.1704105
1.1736462
1.1659116
1.166163
1.159109
1.156059
1.1487495
1.1423036
1.1333215
1.1230155
1.1105984
1.0954668
1.0776834
1.0563019
1.0315028
1.0028914
0.9713839
0.93832147
0.9059508
0.87631765
0.8509506
0.83045171
0.81467302
0.80290612
0.79424196
0.78781466
0.78285297
0.77864627
0.77503227
0.77222745
0.76978917
0.76748072
0.76528629
0.76321357
0.76143868
0.76003344
0.75873993
0.75661271
0.75433227
0.75309115
0.75253235
0.75234068
0.75233732
0.75258984
0.7460053
0.8892549
0.98594116
1.0731754
1.1472806
1.1749902
1.1657213
1.1689285
1.1611077
1.1611489
1.153996
1.1506669
1.1431741
1.1363596
1.127049
1.1162431
1.1032879
1.0874725
1.0689085
1.0466353
1.0208625
0.99132215
0.95912755
0.92585423
0.89384408
0.86509459
0.84096333
0.82185608
0.80745548
0.79694905
0.78938751
0.78390042
0.77970918
0.77611566
0.77300772
0.77065472
0.76859006
0.76656228
0.7645715
0.76265594
0.76103217
0.75975312
0.75844307
0.75619014
0.75409255
0.75297899
0.75249486
0.75233723
0.75235147
0.75261718
0.74492146
0.88905261
0.98676004
1.0757645
1.146798
1.1705664
1.1609423
1.1641095
1.1561952
1.1560132
1.1487542
1.1451252
1.1374346
1.1302258
1.120558
1.1092194
1.095688
1.0791518
1.0597636
1.0365573
1.009782
0.97932973
0.94653177
0.91318735
0.88169738
0.85397363
0.8311788
0.81351328
0.80049856
0.79123577
0.78474919
0.78017111
0.77671314
0.77369567
0.77106448
0.76914629
0.76743889
0.76567686
0.76387697
0.76211311
0.76063962
0.75947406
0.75812724
0.75577473
0.7538676
0.75287893
0.75246469
0.75233798
0.75236689
0.7526443
0.74387522
0.88889708
0.98760778
1.0785984
1.145748
1.1660127
1.1560626
1.159175
1.1511562
1.1507419
1.1433779
1.1394248
1.131517
1.1238851
1.1138305
1.1019269
1.0877811
1.0704858
1.0502276
1.0260464
0.99824715
0.96691746
0.93362126
0.90036155
0.86955838
0.84299999
0.82163162
0.80544284
0.79381172
0.78577335
0.78033268
0.77662859
0.77386646
0.77138501
0.76920323
0.7677048
0.76633852
0.76482572
0.76320414
0.7615869
0.76026112
0.75919132
0.75778666
0.75537794
0.75366081
0.75279106
0.75244088
0.75234387
0.75238328
0.75267123
0.74283229
0.88877064
0.98847148
1.0816116
1.1440649
1.1611947
1.1510649
1.1541145
1.1459852
1.1453209
1.1378516
1.1335509
1.1254041
1.1173197
1.1068491
1.094349
1.0795494
1.0614545
1.0402775
1.0150803
0.98624629
0.95409412
0.9204267
0.88742256
0.85747725
0.8322175
0.8123494
0.79765559
0.78740032
0.78056968
0.77614603
0.7732723
0.77116796
0.76918028
0.76742566
0.76633192
0.76529241
0.76400945
0.76255422
0.76107897
0.75989625
0.75889933
0.75741322
0.75501104
0.75347512
0.75271513
0.75242187
0.75235107
0.75240064
0.75269813
0.74175915
0.888654
0.98936426
1.0847409
1.1417302
1.1563615
1.1459571
1.1489286
1.1406794
1.1397464
1.1321528
1.1274814
1.1190781
1.1105142
1.0995986
1.0864696
1.0709735
1.0520352
1.0298878
1.0036369
0.97377219
0.94087575
0.9069864
0.87442178
0.84550603
0.82166584
0.80334938
0.79015533
0.78127072
0.775635
0.77219817
0.7700998
0.76861212
0.7670782
0.76573567
0.76502741
0.76430331
0.76322824
0.76192818
0.76059082
0.75954455
0.75859406
0.75700244
0.75468179
0.75331123
0.75265053
0.75240706
0.75235917
0.75241921
0.75272527
0.74070804
0.88861128
0.99034336
1.0879003
1.1387236
1.1513399
1.14073
1.1436029
1.1352222
1.1340067
1.126268
1.1211978
1.1125243
1.1034558
1.0920647
1.0782712
1.0620321
1.0422023
1.0190317
0.99169546
0.96082282
0.92728545
0.89334515
0.86141422
0.83369535
0.81137587
0.79463809
0.782948
0.77543831
0.77098073
0.768492
0.76710906
0.76618895
0.76508007
0.76413849
0.76378912
0.76337023
0.76248261
0.76132681
0.76012378
0.75920573
0.75827493
0.75656269
0.75438884
0.75316683
0.75259678
0.75239661
0.75236979
0.75243938
0.75275292
0.73961569
0.88858944
0.99140965
1.0909178
1.1349952
1.1461613
1.1353554
1.1381106
1.1295946
1.1280883
1.120195
1.1146952
1.105731
1.0961314
1.084231
1.069734
1.0526998
1.0319269
1.0076807
0.97923841
0.94740338
0.91335546
0.87955524
0.84845807
0.82209176
0.8013667
0.78622007
0.7760569
0.76992739
0.76661408
0.76501723
0.76430041
0.7638881
0.76319492
0.76263581
0.76261546
0.76248487
0.76177393
0.76075072
0.75967874
0.75887934
0.75794434
0.75611525
0.75412241
0.75303823
0.75255193
0.75239142
0.75238628
0.75246145
0.75278124
0.73842293
0.88856726
0.99258499
1.0936864
1.1306481
1.1407932
1.1298204
1.1324463
1.1237955
1.1219836
1.1139183
1.1079703
1.0986871
1.0885253
1.0760783
1.0608345
1.042948
1.0211776
0.99580669
0.96625223
0.93352686
0.89912612
0.86567444
0.83561115
0.81073277
0.79164644
0.77811618
0.76952043
0.7647608
0.76253198
0.76175304
0.7616741
0.76170811
0.7614291
0.76122408
0.76151009
0.76163306
0.76110425
0.76020029
0.75925597
0.75856377
0.75760494
0.75567865
0.7538764
0.75292315
0.75251466
0.7523916
0.75240532
0.75248576
0.75281044
0.73711474
0.88855208
0.99389879
1.0960973
1.1262434
1.1352631
1.124137
1.1266154
1.1178248
1.115679
1.1074218
1.1010085
1.0913803
1.0806205
1.0675832
1.0515446
1.0327441
1.0099208
0.98338318
0.95273024
0.91921615
0.88464746
0.85176601
0.82292854
0.79964444
0.78222411
0.77037331
0.76337488
0.75994931
0.75871422
0.75868118
0.75922061
0.75965967
0.7597684
0.75990086
0.76048221
0.76080607
0.76047411
0.75967581
0.75885499
0.75825564
0.7572572
0.7552649
0.75365228
0.75282178
0.75248382
0.75239751
0.75242724
0.75251257
0.75284081
0.73576384
0.88858619
0.99539802
1.0980855
1.1212962
1.1295955
1.1183063
1.1206071
1.1116651
1.1091597
1.1006917
1.093786
1.0837952
1.072397
1.0587172
1.0418321
1.0220529
0.99812207
0.97038673
0.9386733
0.90450395
0.86997713
0.83789494
0.81045767
0.78884137
0.77313304
0.763046
0.75764762
0.75547226
0.75512514
0.75580333
0.75691925
0.75774971
0.75820224
0.75866662
0.75953078
0.76001031
0.75987943
0.75917765
0.75847463
0.75795029
0.75689821
0.75488437
0.75345469
0.75273613
0.75245824
0.75240329
0.75245109
0.75254232
0.75287281
0.7344148
0.88867442
0.99708731
1.0995491
1.1160265
1.1237625
1.112301
1.1143981
1.1052973
1.1024081
1.0937124
1.0862899
1.0759092
1.06383
1.0494473
1.0316606
1.0108372
0.9857477
0.95679925
0.92409244
0.88943456
0.8551812
0.82412575
0.79823605
0.77833751
0.76443789
0.75617951
0.75234037
0.75127269
0.75175705
0.75312439
0.75475905
0.75597163
0.75673458
0.7575169
0.75864396
0.75926215
0.75931112
0.75870661
0.75811327
0.75764326
0.75652229
0.75454636
0.75328664
0.75266795
0.75243857
0.75241031
0.75247437
0.75257459
0.75290727
0.73307311
0.88882687
0.99892316
1.1003406
1.1103853
1.1177461
1.1061069
1.1079747
1.0987129
1.0954126
1.086475
1.0785088
1.0676891
1.054887
1.039736
1.0209914
0.99905813
0.9727654
0.94260931
0.90900906
0.87406231
0.84033031
0.81051731
0.7862893
0.76817031
0.756209
0.74980278
0.74740322
0.74732055
0.74862493
0.75063431
0.75274244
0.75431444
0.75535923
0.75644372
0.7578156
0.75857433
0.75876127
0.75826415
0.75776907
0.75733166
0.75612695
0.75425698
0.75314704
0.75261608
0.75242668
0.75242122
0.75249423
0.75260864
0.75294545
0.73175884
0.8890645
1.0008674
1.1001968
1.1044589
1.1115395
1.0997184
1.1013268
1.0919033
1.0881623
1.078965
1.0704201
1.0591026
1.0455299
1.0295434
1.0097833
0.98667692
0.95914623
0.92781473
0.89345754
0.85845228
0.82549756
0.79712042
0.77463772
0.75841492
0.74850317
0.74390698
0.74276493
0.74363579
0.74572055
0.74832601
0.7508673
0.7527678
0.75407291
0.75544278
0.75704403
0.75794272
0.75822901
0.75785172
0.75744026
0.75701564
0.75572562
0.75400989
0.75303098
0.7525773
0.75242135
0.75243346
0.7525111
0.75264328
0.7529876
0.73051866
0.88946316
1.0028835
1.0991888
1.0982756
1.1051318
1.0931253
1.094444
1.0848557
1.0806424
1.0711581
1.0619872
1.0501162
1.0357183
1.0188272
0.99799447
0.97365509
0.94486623
0.91242351
0.87748454
0.84267729
0.81075277
0.78397486
0.76331597
0.74916124
0.7413554
0.73842737
0.73841005
0.74022327
0.74303587
0.74619064
0.74912857
0.75132394
0.75287167
0.75451398
0.756331
0.75735443
0.757717
0.75746931
0.75712581
0.75669938
0.75533914
0.75379083
0.75293254
0.75254755
0.75242044
0.75244622
0.75252779
0.75267953
0.75303146
0.72938258
0.89007881
1.0048832
1.0973113
1.0917796
1.098517
1.0863199
1.0873153
1.0775547
1.0728258
1.0630175
1.0531696
1.040687
1.0254117
1.007544
0.98558107
0.95995601
0.92990925
0.89645726
0.86115039
0.8268168
0.79616028
0.7711121
0.75240133
0.74048276
0.73476012
0.73328484
0.7343643
0.73707261
0.74056042
0.74421947
0.74751796
0.74997739
0.75175218
0.75365617
0.75567239
0.75680474
0.75722921
0.75711346
0.75682549
0.75638557
0.75497679
0.7535941
0.75284706
0.75252479
0.75242727
0.75246203
0.75254693
0.7527186
0.75307561
0.72837914
0.89092287
1.0067501
1.0945475
1.0850141
1.0916831
1.0792913
1.07992
1.0699736
1.0646704
1.0544955
1.0439229
1.0307722
1.0145682
0.99564911
0.97249824
0.94554568
0.91426884
0.8799513
0.84452658
0.81095069
0.78177531
0.75856598
0.74200253
0.73242481
0.72864891
0.72846458
0.73063087
0.73417317
0.73828352
0.74240333
0.74602759
0.74872261
0.75071077
0.7528654
0.755062
0.75629245
0.756775
0.75677684
0.75653849
0.75607922
0.75464349
0.75341832
0.75277267
0.75250683
0.75243755
0.75248271
0.75256927
0.75275976
0.75311973
0.72757606
0.89204953
1.0083506
1.0908296
1.0779799
1.0846104
1.0720156
1.0722192
1.0620661
1.0561288
1.0455464
1.0342074
1.0203283
1.0031424
0.98309588
0.95870044
0.93039531
0.89795134
0.86295729
0.82769523
0.79515691
0.76764562
0.74640718
0.73221553
0.72499761
0.7229277
0.72399575
0.72719783
0.73151228
0.73619396
0.74073287
0.74464942
0.74755428
0.74974325
0.75213525
0.75449358
0.7558173
0.75636488
0.75645299
0.75626193
0.75577842
0.75434198
0.75326503
0.75271057
0.75249321
0.75245037
0.75250687
0.75259547
0.75280207
0.75316361
0.72687661
0.89354118
1.0095927
1.0861097
1.0706622
1.0772539
1.0644417
1.0641572
1.0537771
1.0471623
1.0361347
1.0239882
1.0093064
0.99108442
0.96983575
0.94414311
0.91448358
0.88097738
0.84554118
0.81074399
0.77950663
0.75381496
0.73475175
0.72310374
0.71814097
0.7175685
0.71988495
0.72405193
0.72907688
0.73428046
0.73919868
0.74337571
0.74646709
0.74884496
0.75145936
0.75396454
0.75537919
0.75599835
0.75614318
0.75599048
0.75548153
0.75407583
0.75313559
0.75266262
0.7524848
0.75246436
0.75253081
0.75262739
0.75284467
0.75320724
0.72622605
0.89540031
1.0102737
1.0802653
1.0630167
1.0695425
1.0565099
1.0556847
1.0450702
1.0377429
1.0262285
1.0132237
0.99765406
0.97834051
0.95581844
0.92878489
0.89780067
0.86338536
0.82778354
0.79376287
0.76406519
0.74034477
0.72372427
0.71469859
0.71174839
0.71260246
0.71611809
0.72117811
0.72685341
0.73253163
0.73779141
0.74219891
0.74545576
0.74801107
0.75083341
0.75347616
0.75497872
0.75566472
0.75585111
0.7557197
0.75517965
0.75384859
0.75302964
0.75262905
0.75248159
0.75248043
0.75255295
0.75266458
0.75288723
0.75325079
0.72552927
0.89761271
1.0101996
1.0733905
1.0549873
1.0614246
1.0481885
1.0467793
1.0359285
1.0278438
1.0157852
1.0018591
0.98531849
0.96485424
0.94099231
0.91258966
0.88035082
0.84523137
0.8097753
0.77683786
0.74889136
0.72734617
0.71341839
0.70696134
0.70576897
0.70804159
0.7126801
0.71856063
0.72482826
0.73093624
0.73650188
0.74111176
0.74451502
0.74723712
0.75025581
0.75303
0.75461417
0.75535591
0.75557364
0.75545001
0.75487678
0.75365676
0.75294379
0.75260715
0.75248788
0.75250036
0.7525759
0.75270473
0.75292984
0.75329448
0.72463679
0.90015375
1.0091654
1.0662731
1.0465818
1.0528967
1.0394839
1.0374306
1.026323
1.0174228
1.0047484
0.98983257
0.97224441
0.95056717
0.92530528
0.89553008
0.86215651
0.82659069
0.79161575
0.76005127
0.73404753
0.71496682
0.7038861
0.69978723
0.70022325
0.70387524
0.70955314
0.71618328
0.72298782
0.72948317
0.73532111
0.74010724
0.74363977
0.74651929
0.74972674
0.75262603
0.75428195
0.75506707
0.75530604
0.7551847
0.75458723
0.75349074
0.75287311
0.75259236
0.75250072
0.75252272
0.75260157
0.75274746
0.75297293
0.75333795
0.72359148
0.90311665
1.0071404
1.0590098
1.0378432
1.0439718
1.0303838
1.0276062
1.0161929
1.0064192
0.99305491
0.97708595
0.95837357
0.93541718
0.90870645
0.87759139
0.84326017
0.80755427
0.77340541
0.74348156
0.71963335
0.70333383
0.69512404
0.69309404
0.69513197
0.70008587
0.70671863
0.71402963
0.7213186
0.72816154
0.73424035
0.7391786
0.7428252
0.74585459
0.74924681
0.75226238
0.75397771
0.7547935
0.75504577
0.75492646
0.75431612
0.75334453
0.75281434
0.75258212
0.7525153
0.75254785
0.75262948
0.75279188
0.75301687
0.75337962
0.72230349
0.90643978
1.0040291
1.0508079
1.028764
1.034588
1.0208285
1.0172326
1.0054705
0.99476815
0.98064141
0.9635682
0.94363991
0.91933627
0.89114952
0.85877686
0.82372694
0.78822658
0.75524315
0.72720627
0.70580292
0.6925308
0.68704568
0.68687533
0.69049262
0.69665294
0.70415713
0.71208326
0.71980735
0.72696074
0.73325114
0.73831943
0.74206692
0.74524069
0.74881607
0.75193546
0.75369673
0.75453425
0.7547925
0.75467731
0.75406254
0.75321435
0.75276594
0.75257661
0.7525331
0.75257573
0.75265941
0.7528367
0.75306114
0.75341979
0.72085445
0.90995722
0.99974837
1.0420246
1.0192522
1.0246593
1.0107337
1.0062526
0.9940921
0.98240854
0.96744476
0.94921713
0.92797055
0.90225317
0.87259973
0.8391131
0.80364408
0.76871983
0.73722519
0.71131738
0.6927235
0.6825925
0.67953453
0.6811651
0.686285
0.69355459
0.70184905
0.71032804
0.71844124
0.72587056
0.7323454
0.73752369
0.74136086
0.74467556
0.74843364
0.75164074
0.75343361
0.75428466
0.75454654
0.75443804
0.75382678
0.75309823
0.75272775
0.75257656
0.75255573
0.7526066
0.75269134
0.75288203
0.75310531
0.75345818
0.71913625
0.91338329
0.99427455
1.0325257
1.0092424
1.0141218
1.0000406
0.99461336
0.9820019
0.96928172
0.95339827
0.93394321
0.91127756
0.88410009
0.85304202
0.81865469
0.78311937
0.74915048
0.71944934
0.69596601
0.68052172
0.6734625
0.67255047
0.67597153
0.68248611
0.69076802
0.69977484
0.70874822
0.71720784
0.72488118
0.73151543
0.73678562
0.74070295
0.74415673
0.74809796
0.75137353
0.75318458
0.75404156
0.75430741
0.75420854
0.75360884
0.75299596
0.75269931
0.75258236
0.75258206
0.75264021
0.75272548
0.75292773
0.753149
0.75349466
0.71711626
0.9165401
0.9877344
1.022484
0.99871687
1.0029364
0.9887034
0.98226318
0.96913906
0.95531753
0.93840819
0.91763408
0.89346829
0.86482338
0.83248824
0.7974838
0.7622752
0.72963487
0.70201977
0.68134755
0.66926398
0.66501262
0.66613097
0.67127195
0.67907049
0.68826986
0.69791515
0.70732849
0.7160952
0.72398317
0.73075386
0.73609963
0.74008895
0.74368111
0.74780714
0.75112944
0.75294713
0.75380456
0.75407333
0.75398585
0.75341317
0.75290883
0.75267808
0.75259597
0.75261029
0.75267582
0.75276243
0.75297342
0.75319188
0.75352916
0.7148226
0.91942249
0.98014085
1.0116999
0.9876427
0.99105611
0.97666779
0.96914263
0.95542398
0.94041962
0.92234372
0.90017439
0.87446001
0.84439342
0.81098238
0.77570973
0.74124446
0.71029383
0.68508162
0.66763179
0.65893475
0.6571686
0.66029281
0.6670415
0.67601139
0.68603673
0.69625106
0.70605403
0.71509183
0.7231675
0.73005362
0.73546039
0.73951513
0.74324651
0.7475578
0.75090425
0.75271869
0.75357129
0.75384277
0.75376687
0.75324507
0.75283818
0.75266404
0.75261088
0.75263785
0.75270948
0.7528046
0.75301869
0.75323373
0.75356168
0.71184998
0.92204941
0.97155099
1.0001897
0.97596325
0.97842434
0.96385643
0.95515771
0.94073758
0.92445133
0.9050736
0.88145666
0.85418977
0.8228108
0.7886008
0.75346281
0.72016322
0.69125252
0.6688394
0.65492908
0.64942021
0.64994732
0.65502136
0.66325038
0.67328122
0.68404549
0.69476424
0.70491071
0.71418679
0.72242559
0.72940799
0.73486299
0.73897947
0.74285485
0.74734249
0.75069345
0.75249724
0.75334077
0.75361645
0.75355329
0.75310545
0.75278343
0.75265501
0.75262743
0.75266405
0.75273992
0.75285032
0.75306316
0.75327445
0.75359226
0.70800037
0.92422505
0.96195449
0.98786646
0.96359464
0.96494056
0.95014858
0.94017286
0.92492446
0.90725628
0.88648476
0.86139302
0.83261978
0.80010934
0.76545154
0.73088997
0.699173
0.67265776
0.65351135
0.64326968
0.64061183
0.64337764
0.65028821
0.65986756
0.67085226
0.6822736
0.69343712
0.70388503
0.71336968
0.72174925
0.72881058
0.73430325
0.73848212
0.74251248
0.74714869
0.75049243
0.75228121
0.7531148
0.75339544
0.75335421
0.75298915
0.75274338
0.75264996
0.75264657
0.75269159
0.75277077
0.75289628
0.75310675
0.75331401
0.753621
0.70305836
0.9257593
0.95135303
0.97464041
0.95041354
0.95045299
0.93537261
0.92401994
0.90782059
0.88870692
0.86647499
0.83991508
0.80974045
0.77635779
0.74166995
0.70814749
0.6784241
0.65472302
0.63925998
0.6325701
0.63249273
0.63745656
0.64605956
0.65686049
0.66869699
0.68069919
0.69225289
0.70296423
0.71263064
0.72113071
0.72825543
0.73377783
0.73802387
0.74222085
0.74696583
0.75029728
0.7520686
0.75289331
0.7531812
0.75317609
0.75289184
0.75271662
0.75265642
0.75266921
0.75272135
0.75280289
0.75294286
0.75314948
0.75335245
0.75364798
0.69684383
0.92637024
0.93953465
0.96033466
0.93624294
0.93478222
0.91933286
0.90652295
0.8892731
0.86870722
0.8449608
0.816972
0.78557312
0.75166132
0.71741586
0.68540175
0.65808605
0.63770757
0.62616063
0.622691
0.62510652
0.6321522
0.64229907
0.6541962
0.6667884
0.67930119
0.69119548
0.7021361
0.71196026
0.72056252
0.72773701
0.73328412
0.73760424
0.74197115
0.74679015
0.75010432
0.7518587
0.7526801
0.75297958
0.75301788
0.75281092
0.75269659
0.75266694
0.75269449
0.75275302
0.75283609
0.75298958
0.75319138
0.75338984
0.75367334
0.68940113
0.92614995
0.92626216
0.9447453
0.92087477
0.91774854
0.90185085
0.88753769
0.86916908
0.84715425
0.82186395
0.79253384
0.76017555
0.72616084
0.6928677
0.66283428
0.63838707
0.6218232
0.61416355
0.61358494
0.6184611