/*--------------------------------*- C++ -*----------------------------------*\
  =========                 |
  \\      /  F ield         | OpenFOAM: The Open Source CFD Toolbox
   \\    /   O peration     | Website:  https://openfoam.org
    \\  /    A nd           | Version:  8
     \\/     M anipulation  |
\*---------------------------------------------------------------------------*/
FoamFile
{
    version     2.0;
    format      ascii;
    class       surfaceScalarField;
    location    "0.129988";
    object      meshPhi;
}
// * * * * * * * * * * * * * * * * * * * * * * * * * * * * * * * * * * * * * //

dimensions      [0 3 -1 0 0 0 0];

internalField   nonuniform List<scalar> 
39600
(
5.2630203e-05
3.2870763e-06
-3.291094e-06
5.2672639e-05
3.9547208e-06
-4.0109378e-06
5.2720781e-05
4.7383746e-06
-4.8045276e-06
5.2778338e-05
5.6764529e-06
-5.7552619e-06
5.2847879e-05
6.7998967e-06
-6.8938666e-06
5.2933194e-05
8.1453168e-06
-8.2573184e-06
5.3037987e-05
9.7562089e-06
-9.8897768e-06
5.316794e-05
1.1684375e-05
-1.1843923e-05
5.3329244e-05
1.3991686e-05
-1.4182541e-05
5.3530105e-05
1.6751694e-05
-1.6980254e-05
5.3769622e-05
2.0051632e-05
-2.0325682e-05
5.4047096e-05
2.3995027e-05
-2.4323791e-05
5.4362186e-05
2.8703618e-05
-2.909821e-05
5.4716825e-05
3.432017e-05
-3.4793715e-05
5.5177378e-05
4.1008772e-05
-4.1577739e-05
5.574393e-05
4.8954379e-05
-4.9639572e-05
5.6669734e-05
5.8363632e-05
-5.9189566e-05
5.8189593e-05
6.9448211e-05
-7.0448106e-05
6.0269443e-05
8.2434452e-05
-8.365473e-05
6.3235452e-05
9.7574384e-05
-9.9076392e-05
6.7606602e-05
0.00011508532
-0.00011695096
7.3958289e-05
0.00013517388
-0.00013751606
8.334988e-05
0.00015776569
-0.0001607148
9.6245543e-05
0.00018270674
-0.00018641711
0.00011191476
0.00021019185
-0.00021490062
0.00012999871
0.00024019984
-0.0002461404
0.00015354783
0.00027180517
-0.00027950881
0.00018257613
0.00030309524
-0.00031305116
0.00021700976
0.00033363487
-0.0003459957
0.00023794689
0.00037425914
-0.0003896427
0.00026279547
0.00043092865
-0.00045048735
0.00032407802
0.00047820294
-0.0005031456
0.0003987278
0.00050555024
-0.0005369008
0.00047485756
0.00053572343
-0.00057621144
0.00055972939
0.00057659048
-0.00062843203
0.00067542287
0.00061601615
-0.00068183759
0.00080601823
0.00065113114
-0.00073473579
0.0009604346
0.0006834306
-0.00078754625
0.0011356956
0.00070833183
-0.00083616158
0.0013028363
0.00073447389
-0.00088691861
0.0014819694
0.00076125317
-0.00093800102
0.0016797664
0.00082642169
-0.0010300181
0.0018875546
0.00096056281
-0.0011918956
0.0020853235
0.0010876413
-0.0013400319
0.0022687232
0.0011721556
-0.0014390055
0.0024004021
0.0012801611
-0.0015555038
0.0022780343
0.0013735787
-0.0016252288
0.0017804186
0.001346229
-0.0015246923
0.00087592186
0.0011086223
-0.0011875683
0.00048838952
-0.0004940893
4.230508e-05
3.2537186e-06
4.2318988e-05
3.9146482e-06
4.2331358e-05
4.6896409e-06
4.2348402e-05
5.6179262e-06
4.2377767e-05
6.7297888e-06
4.2423745e-05
8.0611553e-06
4.2495339e-05
9.6554122e-06
4.2597011e-05
1.1563756e-05
4.2736384e-05
1.3847728e-05
4.2918412e-05
1.6580089e-05
4.314375e-05
1.9847434e-05
4.3409082e-05
2.3751903e-05
4.3719435e-05
2.8413677e-05
4.4080809e-05
3.3972814e-05
4.4568887e-05
4.0588646e-05
4.5192229e-05
4.8444129e-05
4.6099118e-05
5.7743917e-05
4.7459378e-05
6.8699495e-05
4.927961e-05
8.1533793e-05
5.1875615e-05
9.6473133e-05
5.5743009e-05
0.00011372027
6.1461242e-05
0.00013344218
6.9949476e-05
0.0001555754
8.1650514e-05
0.00017997085
9.6188098e-05
0.00020669411
0.00011333151
0.00023566546
0.0001362577
0.00026567978
0.00016404876
0.00029506361
0.0001965803
0.00032386104
0.00021732046
0.00036208012
0.00024289846
0.00041469608
0.00030190891
0.00045706708
0.00037430272
0.00047909052
0.00045025583
0.00050123144
0.00053427802
0.00053141898
0.00064927856
0.00055720754
0.0007783508
0.00057527821
0.00093304128
0.0005872342
0.0011065818
0.00058889502
0.00127576
0.0005904802
0.0014555062
0.00059277218
0.0016560884
0.00063199609
0.0018662159
0.00073768826
0.002069138
0.00084066727
0.0022571382
0.00090756967
0.0023705672
0.0010066876
0.002272118
0.0011206307
0.0017785172
0.0011627427
0.00086802663
0.0010249436
0.00047983631
3.2810902e-05
3.2314606e-06
3.2963191e-05
3.8870453e-06
3.3116481e-05
4.655473e-06
3.324722e-05
5.5758763e-06
3.3353017e-05
6.6784945e-06
3.344241e-05
7.9992116e-06
3.3522745e-05
9.5810964e-06
3.3599224e-05
1.1475261e-05
3.3675129e-05
1.374295e-05
3.3758502e-05
1.6456747e-05
3.385671e-05
1.970286e-05
3.3980619e-05
2.3582504e-05
3.4153751e-05
2.8214696e-05
3.4407375e-05
3.3736505e-05
3.4803472e-05
4.0304791e-05
3.5369539e-05
4.8101817e-05
3.6163443e-05
5.7330942e-05
3.7251287e-05
6.8206483e-05
3.8726558e-05
8.0942256e-05
4.0893677e-05
9.5745118e-05
4.4198164e-05
0.00011280816
4.9230675e-05
0.00013226632
5.6783173e-05
0.00015406453
6.7359163e-05
0.00017803307
8.0787181e-05
0.00020416441
9.7050241e-05
0.00023228786
0.00011918946
0.00026092384
0.00014561425
0.00028869283
0.00017599673
0.00031601253
0.00019629779
0.00035210507
0.00022237052
0.00040110566
0.00027882319
0.00043917307
0.00034891693
0.00045628079
0.00042396494
0.00047093999
0.00050724611
0.0004910047
0.00062114045
0.00050367675
0.00074858372
0.00050528458
0.00090309339
0.00049732801
0.0010746295
0.00047611247
0.0012453225
0.00045319769
0.0014258003
0.00043064023
0.001628952
0.00044330461
0.0018413316
0.00052016106
0.0020492526
0.00059785082
0.0022415822
0.00064514084
0.0023405748
0.00073571122
0.0022621967
0.00086889034
0.0017733955
0.00097518776
0.00085653275
0.00093692647
0.000468929
2.3764058e-05
3.221691e-06
2.3919764e-05
3.8763535e-06
2.408676e-05
4.6436542e-06
2.4247178e-05
5.5625556e-06
2.4393645e-05
6.662917e-06
2.452997e-05
7.9804066e-06
2.4655093e-05
9.557689e-06
2.476413e-05
1.1445864e-05
2.4853394e-05
1.3705833e-05
2.4921215e-05
1.6409968e-05
2.4976089e-05
1.9644386e-05
2.5029919e-05
2.350991e-05
2.5112552e-05
2.8125191e-05
2.5268935e-05
3.3626211e-05
2.55443e-05
4.0168976e-05
2.597623e-05
4.7935821e-05
2.658309e-05
5.7131767e-05
2.7400982e-05
6.7969955e-05
2.8560751e-05
8.0653789e-05
3.0320055e-05
9.5381832e-05
3.3103481e-05
0.0001123359
3.7491517e-05
0.00013162672
4.4196342e-05
0.00015320129
5.3788883e-05
0.00017685684
6.6169448e-05
0.00020254599
8.1593853e-05
0.00022998277
0.00010282136
0.00025748624
0.00012782621
0.00028399267
0.00015621768
0.00031014184
0.00017602442
0.00034441022
0.00020220551
0.00039026115
0.00025625814
0.00042455572
0.0003242432
0.00043712243
0.00039811484
0.00044483101
0.00048064353
0.00045534898
0.00059318306
0.00045547221
0.00071917243
0.00044119489
0.00087294761
0.00041384925
0.0010427709
0.00037019101
0.0012144519
0.00032295085
0.0013957372
0.00027532591
0.0016010202
0.00026094053
0.0018155378
0.00030859281
0.0020281059
0.00035985843
0.0022244266
0.00038560099
0.0023152648
0.0004670326
0.0022531202
0.00061762487
0.0017693008
0.00078386125
0.00084630374
0.00084482139
0.00045578211
1.5142136e-05
3.2228426e-06
1.5167357e-05
3.8779829e-06
1.5217766e-05
4.6458464e-06
1.5300894e-05
5.5655197e-06
1.5409203e-05
6.6667957e-06
1.5537719e-05
7.9854793e-06
1.5675879e-05
9.564271e-06
1.5812214e-05
1.1454208e-05
1.5939482e-05
1.371608e-05
1.6045815e-05
1.6422151e-05
1.6138528e-05
1.9658143e-05
1.6215669e-05
2.3524593e-05
1.6301614e-05
2.8139989e-05
1.6422779e-05
3.364014e-05
1.6621892e-05
4.0181177e-05
1.6924119e-05
4.7946954e-05
1.734658e-05
5.7143963e-05
1.7939007e-05
6.7983205e-05
1.8813583e-05
8.0662975e-05
2.0204192e-05
9.5375386e-05
2.2517676e-05
0.00011229215
2.6313908e-05
0.00013150544
3.2253808e-05
0.00015295956
4.0965822e-05
0.00017641674
5.2366278e-05
0.00020180662
6.6995923e-05
0.00022872334
8.7205684e-05
0.00025533296
0.00011068132
0.00028091725
0.00013719182
0.00030624382
0.00015645279
0.00033902656
0.00018248404
0.00038212982
0.00023429585
0.00041310509
0.00030027626
0.00042156817
0.00037281968
0.00042287927
0.00045452402
0.00042440794
0.00056558549
0.00041253052
0.00069018673
0.00038294557
0.00084288287
0.00033675428
0.001011128
0.00027116418
0.0011834356
0.00019986807
0.0013655265
0.00012706741
0.0015726191
8.5271578e-05
0.0017891524
0.00010328379
0.0020060757
0.00012704041
0.0022061835
0.00012952822
0.0022930881
0.00020073861
0.0022446438
0.000366367
0.0017660731
0.00058858604
0.00083732003
0.0007483197
0.00044030241
7.1874051e-06
3.2346843e-06
7.2079885e-06
3.892028e-06
7.2488493e-06
4.6624787e-06
7.3095894e-06
5.5852761e-06
7.3790115e-06
6.6904888e-06
7.454708e-06
8.0141532e-06
7.5289461e-06
9.5992522e-06
7.5980741e-06
1.149707e-05
7.6619413e-06
1.3768635e-05
7.7145996e-06
1.648637e-05
7.7668337e-06
1.9736088e-05
7.8129619e-06
2.3618361e-05
7.8705933e-06
2.8251622e-05
7.9465661e-06
3.3771914e-05
8.0599915e-06
4.03363e-05
8.2335487e-06
4.8130412e-05
8.4893389e-06
5.736229e-05
8.8777831e-06
6.8241695e-05
9.4990773e-06
8.0964648e-05
1.0561129e-05
9.5719111e-05
1.2449937e-05
0.00011266835
1.5704666e-05
0.00013188906
2.0954807e-05
0.00015331665
2.8868029e-05
0.00017668348
3.9371525e-05
0.00020189362
5.3238833e-05
0.00022841992
7.2338482e-05
0.0002543883
9.4204459e-05
0.00027942552
0.00011892378
0.00030426712
0.00013759823
0.00033587984
0.00016331923
0.00037664435
0.00021302892
0.00040471812
0.00027706698
0.00040946487
0.00034819962
0.0004048842
0.00042900211
0.00039797407
0.0005385382
0.00037464481
0.00066176074
0.00033030855
0.00081316467
0.00026584435
0.0009798673
0.00017884806
0.0011525435
8.3826046e-05
0.0013353836
-1.4169816e-05
0.0015440469
-8.3648149e-05
0.0017624667
-9.5648534e-05
0.0019835113
-0.0001004275
0.0021872711
-0.00012287385
0.0022730582
-6.3199222e-05
0.0022366411
0.00011509079
0.0017635442
0.00038981668
0.00082956757
0.00064776521
0.00042266069
-2.7410112e-07
3.2572999e-06
-2.739894e-07
3.9196003e-06
-2.6348941e-07
4.6960725e-06
-2.4258082e-07
5.6262035e-06
-2.2354732e-07
6.7402919e-06
-2.0493632e-07
8.0745956e-06
-1.9139791e-07
9.6723536e-06
-1.8245286e-07
1.1585143e-05
-1.741917e-07
1.3874279e-05
-1.7145777e-07
1.6612587e-05
-1.6268006e-07
1.9886295e-05
-1.5807485e-07
2.3796614e-05
-1.4524479e-07
2.8462775e-05
-1.3076593e-07
3.4022037e-05
-1.1205957e-07
4.0632967e-05
-7.2764792e-08
4.8483658e-05
1.9906459e-08
5.7783793e-05
2.2425159e-07
6.8742019e-05
6.2138136e-07
8.1554281e-05
1.3910926e-06
9.6405748e-05
2.8945875e-06
0.00011345325
5.6517116e-06
0.00013276112
1.0275359e-05
0.0001542542
1.7458446e-05
0.000177636
2.7154577e-05
0.00020277889
4.0284224e-05
0.0002290464
5.8186984e-05
0.00025461079
7.838384e-05
0.0002794556
0.00010139268
0.00030416587
0.00011944574
0.00033493789
0.00014475182
0.00037371966
0.00019248474
0.0003992717
0.00025462403
0.00040073263
0.00032430896
0.00039078048
0.00040413585
0.00037596002
0.0005121435
0.00034170067
0.00063396801
0.00028316342
0.00078393762
0.00020100224
0.00094907733
9.3186188e-05
0.0011219204
-2.5160835e-05
0.0013054195
-0.00014829625
0.0015154577
-0.00024564068
0.0017356321
-0.00028803281
0.0019605914
-0.00032230055
0.0021679041
-0.00037119478
0.0022544415
-0.0003245527
0.0022289423
-0.00013623881
0.0017615225
0.00018759413
0.00082289347
0.00054305341
0.00040281073
-7.2771699e-06
3.2899859e-06
-7.3273969e-06
3.9590988e-06
-7.3835626e-06
4.7438504e-06
-7.4322483e-06
5.6841103e-06
-7.4791772e-06
6.8104546e-06
-7.5164899e-06
8.1594237e-06
-7.547668e-06
9.7745726e-06
-7.5732592e-06
1.1707945e-05
-7.5925954e-06
1.4021453e-05
-7.6159466e-06
1.6788668e-05
-7.6364575e-06
2.0096821e-05
-7.6720787e-06
2.4048313e-05
-7.7153538e-06
2.8763796e-05
-7.7817171e-06
3.4382358e-05
-7.8770216e-06
4.1064998e-05
-7.9813989e-06
4.9001722e-05
-8.0479957e-06
5.8403092e-05
-8.0182732e-06
6.9480682e-05
-7.8295214e-06
8.2428921e-05
-7.3242633e-06
9.7429478e-05
-6.1652108e-06
0.00011463546
-3.8564585e-06
0.0001341026
1.9245597e-07
0.00015574698
6.6939642e-06
0.00017924798
1.5648597e-05
0.00020443002
2.8060892e-05
0.00023056481
4.4711332e-05
0.00025598051
6.3202189e-05
0.00028099162
8.4567628e-05
0.00030590373
0.00010196231
0.00033616215
0.00012678504
0.0003733441
0.00017264927
0.00039674986
0.00023292778
0.00039530646
0.00030114715
0.0003804594
0.00037993572
0.00035825428
0.00048643164
0.00031359065
0.00060683056
0.00024139723
0.00075527402
0.00014213237
0.0009188126
1.4066461e-05
0.0010916616
-0.00012718724
0.0012757201
-0.00027535821
0.0014869793
-0.00040070357
0.0017087884
-0.00047380247
0.0019374989
-0.000538478
0.0021483049
-0.00061534433
0.0022368878
-0.00058327872
0.0022214708
-0.00038739214
0.0017598777
-1.7553913e-05
0.00081720498
0.00043461112
0.0003809689
-1.3802106e-05
3.3324931e-06
-1.3868939e-05
4.0102358e-06
-1.3945092e-05
4.8050088e-06
-1.4015673e-05
5.7571849e-06
-1.4085224e-05
6.897742e-06
-1.4146876e-05
8.2637764e-06
-1.4207077e-05
9.8995959e-06
-1.4268268e-05
1.1858098e-05
-1.4333399e-05
1.4202144e-05
-1.4414981e-05
1.7006635e-05
-1.4508236e-05
2.0360141e-05
-1.4633549e-05
2.4366802e-05
-1.4783573e-05
2.9149153e-05
-1.4976618e-05
3.4848613e-05
-1.5217144e-05
4.1628081e-05
-1.5476539e-05
4.9678871e-05
-1.5704123e-05
5.9215841e-05
-1.5851833e-05
7.0452549e-05
-1.5869957e-05
8.3582427e-05
-1.5611952e-05
9.8784746e-05
-1.4761235e-05
0.00011620884
-1.285208e-05
0.00013590402
-9.3245184e-06
0.00015777854
-3.4682011e-06
0.0001814983
4.7941913e-06
0.00020682839
1.6515294e-05
0.0002329593
3.1889535e-05
0.00025845694
4.8657225e-05
0.00028396829
6.843207e-05
0.00030942891
8.5138294e-05
0.00033950525
0.00010942453
0.00037542671
0.00015351463
0.00039703809
0.00021196636
0.00039310427
0.00027871404
0.00037385092
0.00035640851
0.00034476784
0.00046141758
0.00029019841
0.00058035814
0.00020488582
0.00072721562
8.9110051e-05
0.00088911277
-5.858733e-05
0.0010618312
-0.00022227188
0.0012463471
-0.00039531942
0.001458697
-0.00054873611
0.0016820336
-0.00065284015
0.0019143554
-0.00074876052
0.002128622
-0.00085499151
0.0022200895
-0.00083911011
0.0022141016
-0.00063823997
0.001758442
-0.00022548903
0.00081239267
0.00032235956
0.00035703089
-1.9868314e-05
3.3844081e-06
-1.9914084e-05
4.0722483e-06
-1.996152e-05
4.87879e-06
-2.0008942e-05
5.8450397e-06
-2.0068514e-05
7.0025871e-06
-2.0139437e-05
8.3892384e-06
-2.0230881e-05
1.0050248e-05
-2.0345685e-05
1.2039574e-05
-2.0487215e-05
1.4421506e-05
-2.0665237e-05
1.7272313e-05
-2.0873297e-05
2.0682618e-05
-2.1128154e-05
2.4758347e-05
-2.1419029e-05
2.9624353e-05
-2.176021e-05
3.5424292e-05
-2.215098e-05
4.2322497e-05
-2.2555129e-05
5.0513129e-05
-2.2940023e-05
6.0216119e-05
-2.3275474e-05
7.1649314e-05
-2.3503396e-05
8.5004975e-05
-2.3483978e-05
0.00010046046
-2.2918112e-05
0.00011816146
-2.1373306e-05
0.00013815368
-1.8316639e-05
0.00016033425
-1.3071337e-05
0.00018436748
-5.4694298e-06
0.0002099618
5.5670179e-06
0.00023622657
1.9671952e-05
0.00026204331
3.475785e-05
0.00028835563
5.3001625e-05
0.00031463305
6.9001068e-05
0.00034481671
9.2718127e-05
0.00037981704
0.00013511571
0.00039996051
0.00019177446
0.00039388185
0.00025705137
0.00037065431
0.00033361744
0.00033516808
0.00043717146
0.00027116046
0.00055462576
0.00017322731
0.00069984756
4.1518094e-05
0.00086005144
-0.00012521637
0.0010325099
-0.00031083401
0.0012173753
-0.00050853355
0.0014306921
-0.00069002621
0.0016554473
-0.00082535003
0.0018912511
-0.00095330418
0.0021089454
-0.0010902467
0.0022038626
-0.001092079
0.0022067286
-0.00088849775
0.0017570587
-0.00043562022
0.00080838435
0.00020676845
0.00033121125
-2.5547366e-05
3.4459604e-06
-2.560989e-05
4.1468106e-06
-2.5680212e-05
4.9690895e-06
-2.5757281e-05
5.9544433e-06
-2.5853233e-05
7.1349322e-06
-2.5967151e-05
8.5492691e-06
-2.6108307e-05
1.0243266e-05
-2.6279793e-05
1.2272038e-05
-2.6485508e-05
1.4700989e-05
-2.6737185e-05
1.7608032e-05
-2.7027383e-05
2.1085345e-05
-2.7375843e-05
2.5241482e-05
-2.7766774e-05
3.0203565e-05
-2.8214149e-05
3.611746e-05
-2.8706291e-05
4.3149715e-05
-2.9230301e-05
5.1501178e-05
-2.9774816e-05
6.1400461e-05
-3.0295143e-05
7.3065962e-05
-3.0734367e-05
8.6689419e-05
-3.0948498e-05
0.00010244836
-3.0651751e-05
0.00012048344
-2.9447047e-05
0.00014083963
-2.6822728e-05
0.00016340222
-2.2156918e-05
0.00018784189
-1.5203138e-05
0.00021381805
-4.8661765e-06
0.00024035585
7.9956399e-06
0.00026670837
2.1480444e-05
0.00029410167
3.8265617e-05
0.0003214698
5.3545204e-05
0.00035204823
7.6674686e-05
0.0003864267
0.00011745495
0.00040541003
0.0001723645
0.00039755103
0.00023619438
0.00037076746
0.00031161704
0.00032931021
0.00041375769
0.00025629175
0.0005296932
0.00014623013
0.00067321723
-7.9653047e-07
0.00083166616
-0.00018588587
0.0010037352
-0.00039286912
0.0011888382
-0.00061493505
0.0014029961
-0.00082444165
0.0016290596
-0.0009911626
0.0018682144
-0.0011518444
0.0020893007
-0.0013207247
0.002188052
-0.0013418216
0.0021992556
-0.0011379038
0.0017556009
-0.00064770761
0.00080504431
8.7904806e-05
0.00030347254
-3.0860156e-05
3.5163768e-06
-3.0974613e-05
4.2317571e-06
-3.1116035e-05
5.0715439e-06
-3.1273128e-05
6.0783494e-06
-3.1452146e-05
7.2850759e-06
-3.1645136e-05
8.7311374e-06
-3.1860237e-05
1.0463584e-05
-3.2097391e-05
1.25386e-05
-3.2362568e-05
1.5022983e-05
-3.2665784e-05
1.7996327e-05
-3.3004379e-05
2.1552422e-05
-3.339972e-05
2.5801905e-05
-3.3841413e-05
3.0874283e-05
-3.434168e-05
3.6916808e-05
-3.4908445e-05
4.4103039e-05
-3.5561847e-05
5.2644429e-05
-3.628091e-05
6.2773955e-05
-3.6984583e-05
7.4710569e-05
-3.7603805e-05
8.8641037e-05
-3.8025673e-05
0.00010474408
-3.7978203e-05
0.00012316435
-3.7090888e-05
0.00014394847
-3.4870231e-05
0.00016696659
-3.0761875e-05
0.00019190604
-2.4440669e-05
0.00021837749
-1.4822687e-05
0.0002453453
-3.1801637e-06
0.00027246396
8.7951761e-06
0.00030118029
2.4189545e-05
0.00032987081
3.8732856e-05
0.00036112485
6.1273261e-05
0.00039519286
0.00010051779
0.00041329144
0.00015373325
0.00040393793
0.00021615399
0.00037395177
0.00029042907
0.00032692547
0.00039119465
0.000245312
0.00050557231
0.00012361272
0.00064732388
-3.8097397e-05
0.00080394634
-0.00024085799
0.00097550203
-0.00046861826
0.0011607322
-0.00071472555
0.0013756152
-0.00095214169
0.0016028812
-0.0011503778
0.0018452692
-0.0013444583
0.0020697216
-0.0015464945
0.002172581
-0.0015883666
0.0021916319
-0.00138618
0.0017539852
-0.00086117098
0.00080227162
-3.3747763e-05
0.00027403486
-3.5864327e-05
3.5964719e-06
-3.6082988e-05
4.3302077e-06
-3.6329385e-05
5.1920624e-06
-3.6575864e-05
6.2251421e-06
-3.6824219e-05
7.462633e-06
-3.707326e-05
8.9449313e-06
-3.733113e-05
1.0720052e-05
-3.760237e-05
1.284534e-05
-3.7897354e-05
1.5389497e-05
-3.8226649e-05
1.8433795e-05
-3.8596862e-05
2.2074836e-05
-3.9027958e-05
2.6426223e-05
-3.9520789e-05
3.1620596e-05
-4.0095819e-05
3.7810915e-05
-4.079225e-05
4.5180572e-05
-4.1632027e-05
5.3947884e-05
-4.2542154e-05
6.4346395e-05
-4.3407845e-05
7.6587186e-05
-4.415952e-05
9.0857398e-05
-4.4733861e-05
0.00010734238
-4.490171e-05
0.00012619355
-4.4307149e-05
0.0001474643
-4.2467222e-05
0.00017100882
-3.8908172e-05
0.00019654224
-3.3196098e-05
0.00022362458
-2.431257e-05
0.00025116859
-1.3873082e-05
0.00027926328
-3.308304e-06
0.00030953834
1.0752671e-05
0.00033979638
2.4556208e-05
0.00037199593
4.6529799e-05
0.00040600164
8.4326975e-05
0.00042344896
0.00013588794
0.00041291634
0.00019691376
0.00038013722
0.00027004145
0.00032795741
0.00036946775
0.00023813656
0.00048226448
0.00010525067
0.00062219066
-7.0555606e-05
0.00077689793
-0.00029025486
0.00094781147
-0.00053809567
0.0011330615
-0.00080784239
0.0013485576
-0.0010730105
0.001576927
-0.001302839
0.0018224374
-0.0015308962
0.0020502372
-0.0017672001
0.0021573604
-0.0018313258
0.0021837838
-0.0016330279
0.0017521261
-0.0010757824
0.00080000466
-0.0001581816
0.00024279564
-4.0415442e-05
3.6829738e-06
-4.0630321e-05
4.4318e-06
-4.0871264e-05
5.3111978e-06
-4.1120185e-05
6.3655139e-06
-4.1379902e-05
7.6296348e-06
-4.1657322e-05
9.1451247e-06
-4.1956133e-05
1.0961785e-05
-4.2285793e-05
1.3139276e-05
-4.2651051e-05
1.57479e-05
-4.306451e-05
1.8872123e-05
-4.3533401e-05
2.2610856e-05
-4.407745e-05
2.7081541e-05
-4.470373e-05
3.2420256e-05
-4.5450521e-05
3.8787312e-05
-4.6360442e-05
4.637407e-05
-4.7423863e-05
5.5400595e-05
-4.8532413e-05
6.6097283e-05
-4.9529521e-05
7.8671574e-05
-5.0378284e-05
9.3312693e-05
-5.1069503e-05
0.00011021881
-5.1420684e-05
0.00012955195
-5.1096122e-05
0.00015136642
-4.9619061e-05
0.00017550513
-4.6595964e-05
0.00020171619
-4.1469464e-05
0.00022950623
-3.3336412e-05
0.00025778222
-2.4076476e-05
0.00028706156
-1.4824991e-05
0.00031908641
-2.0315762e-06
0.00035109258
1.1060118e-05
0.00038444556
3.2493758e-05
0.00041861751
6.8902658e-05
0.00043564029
0.00011882926
0.0004242049
0.00017845609
0.00038899798
0.00025045292
0.00033204105
0.00034858478
0.00023434591
0.0004597978
9.0670979e-05
0.00059787563
-9.8710283e-05
0.00075057773
-0.00033470568
0.00092069338
-0.00060189999
0.0011058546
-0.00089478289
0.0013218497
-0.0011874778
0.0015512157
-0.0014488919
0.001799733
-0.0017114395
0.0020308468
-0.0019830482
0.002142307
-0.0020707992
0.0021756437
-0.0018781755
0.001749941
-0.0012909333
0.0007982014
-0.00028490701
0.00020995661
-4.455192e-05
3.7787974e-06
-4.4684747e-05
4.5468678e-06
-4.4848178e-05
5.4489659e-06
-4.504639e-05
6.5305159e-06
-4.5285388e-05
7.8268932e-06
-4.5571091e-05
9.3810613e-06
-4.5907019e-05
1.1244156e-05
-4.6300765e-05
1.3477303e-05
-4.6756259e-05
1.6153918e-05
-4.7282846e-05
1.9360586e-05
-4.7889923e-05
2.3200807e-05
-4.8594279e-05
2.7796501e-05
-4.9412099e-05
3.3290122e-05
-5.0374183e-05
3.9849048e-05
-5.1516751e-05
4.7669552e-05
-5.2802424e-05
5.6974394e-05
-5.4091642e-05
6.7989378e-05
-5.5226759e-05
8.0921481e-05
-5.6191663e-05
9.5974853e-05
-5.7009887e-05
0.00011335638
-5.7539939e-05
0.0001332283
-5.7471824e-05
0.00015564476
-5.6342405e-05
0.00018044241
-5.3823159e-05
0.00020740329
-4.9264071e-05
0.00023599672
-4.1902129e-05
0.00026515196
-3.3793784e-05
0.00029580877
-2.5758975e-05
0.0003297736
-1.4139311e-05
0.00036369863
-1.7325117e-06
0.00039839688
1.915712e-05
0.00043295857
5.4205832e-05
0.00044980809
0.00010252084
0.000437788
0.00016076175
0.00040051963
0.00023166321
0.00033912066
0.00032855848
0.00023383226
0.00043818155
7.9746247e-05
0.00057438309
-0.00012263582
0.00072500054
-0.00037418662
0.00089415487
-0.00065995283
0.0010791158
-0.00097542275
0.0012954913
-0.0012953628
0.0015257397
-0.0015883027
0.0017771406
-0.0018857537
0.0020115247
-0.0021936008
0.0021273444
-0.0023063049
0.0021671493
-0.0021212353
0.0017473483
-0.0015063299
0.00079675557
-0.00041377304
0.00017550992
-4.845857e-05
3.8825759e-06
-4.8595756e-05
4.6716871e-06
-4.8761064e-05
5.5988186e-06
-4.8959244e-05
6.7102191e-06
-4.9197841e-05
8.0425351e-06
-4.9483841e-05
9.6399342e-06
-4.982596e-05
1.155481e-05
-5.0234008e-05
1.3850343e-05
-5.0719185e-05
1.6601969e-05
-5.1294647e-05
1.9899112e-05
-5.1977854e-05
2.3849319e-05
-5.2787268e-05
2.8578316e-05
-5.3743006e-05
3.4234995e-05
-5.4873247e-05
4.0994326e-05
-5.6196823e-05
4.905897e-05
-5.766205e-05
5.8651662e-05
-5.9118646e-05
6.9999954e-05
-6.042833e-05
8.3322952e-05
-6.1563943e-05
9.88335e-05
-6.2544769e-05
0.00011674182
-6.326962e-05
0.00013720865
-6.3456182e-05
0.00016028624
-6.2660461e-05
0.00018580832
-6.0603507e-05
0.00021357651
-5.6584228e-05
0.00024303809
-5.0000626e-05
0.00027320732
-4.301326e-05
0.00030542926
-3.6092137e-05
0.00034148204
-2.5570673e-05
0.000377464
-1.3876085e-05
0.00041375121
6.4524319e-06
0.00044898819
4.0172773e-05
0.00046588877
8.6906096e-05
0.00045352912
0.00014378893
0.00041451286
0.00021363669
0.00034897978
0.0003093474
0.00023637732
0.00041736794
7.2266511e-05
0.00055165059
-0.0001425456
0.00070010515
-0.00040894296
0.00086815835
-0.00071251742
0.001052808
-0.0010500099
0.0012694485
-0.0013968684
0.0015004651
-0.0017212198
0.0017546265
-0.0020539509
0.0019922369
-0.0023989474
0.0021124006
-0.002537891
0.0021582494
-0.0023619367
0.0017443012
-0.0017213915
0.00079558667
-0.00054430081
0.00013965749
-5.2067742e-05
3.9941296e-06
-5.2213794e-05
4.8059068e-06
-5.2389188e-05
5.7597992e-06
-5.2599219e-05
6.9034393e-06
-5.2851815e-05
8.2744857e-06
-5.3154309e-05
9.9184514e-06
-5.3517061e-05
1.1889295e-05
-5.3950987e-05
1.4252616e-05
-5.4469849e-05
1.7085608e-05
-5.5090712e-05
2.0481595e-05
-5.5834113e-05
2.4551158e-05
-5.6720303e-05
2.9424447e-05
-5.7766033e-05
3.5255696e-05
-5.9005306e-05
4.2226798e-05
-6.0447457e-05
5.0544466e-05
-6.2036574e-05
6.0436175e-05
-6.3651885e-05
7.2136901e-05
-6.5158583e-05
8.5877177e-05
-6.6499642e-05
0.00010188244
-6.768287e-05
0.00012036643
-6.8622911e-05
0.00014148142
-6.9065042e-05
0.00016527606
-6.8586572e-05
0.00019158009
-6.6954879e-05
0.00022021291
-6.3436137e-05
0.00025060884
-5.7628519e-05
0.00028191164
-5.1718216e-05
0.00031586282
-4.5803572e-05
0.00035414343
-3.6361503e-05
0.00039235581
-2.5432602e-05
0.00043049954
-5.6664367e-06
0.00046665864
2.6765236e-05
0.0004838187
7.1948739e-05
0.00047139723
0.00012750327
0.00043096414
0.00019634023
0.00036158217
0.00029091569
0.00024189808
0.00039732051
6.8118707e-05
0.0005296413
-0.00015852956
0.00067586186
-0.00043899857
0.00084269193
-0.00075957273
0.0010269126
-0.0011184619
0.0012437045
-0.0014918405
0.0014753761
-0.0018474387
0.0017321816
-0.0022157406
0.0019729741
-0.0025986983
0.0020974307
-0.0027651002
0.0021489138
-0.0025999429
0.0017407559
-0.0019359151
0.00079465738
-0.00067646387
0.00010230542
-5.5390178e-05
4.1133054e-06
-5.5545217e-05
4.9492948e-06
-5.5731641e-05
5.9318286e-06
-5.5954834e-05
7.1097897e-06
-5.6223968e-05
8.5224182e-06
-5.6546539e-05
1.0216058e-05
-5.6934929e-05
1.2247192e-05
-5.7400565e-05
1.4682871e-05
-5.7959846e-05
1.7603584e-05
-5.8631336e-05
2.1105464e-05
-5.9434284e-05
2.5302848e-05
-6.0388845e-05
3.0330695e-05
-6.1509958e-05
3.6348766e-05
-6.2822631e-05
4.3544036e-05
-6.4336584e-05
5.2128232e-05
-6.6015171e-05
6.2333074e-05
-6.7763233e-05
7.4402906e-05
-6.9457045e-05
8.8583495e-05
-7.102218e-05
0.00010511704
-7.2435244e-05
0.00012421796
-7.3605942e-05
0.00014602942
-7.429868e-05
0.00017059062
-7.4123065e-05
0.00019772897
-7.2889763e-05
0.0002272767
-6.9830007e-05
0.00025865078
-6.478086e-05
0.00029119258
-5.9893743e-05
0.00032702362
-5.4896184e-05
0.00036763341
-4.6540455e-05
0.00040821033
-3.6417974e-05
0.00044846734
-1.7195854e-05
0.00048579105
1.3981746e-05
0.00050336842
5.764574e-05
0.00049109458
0.00011191043
0.00044950877
0.00017979723
0.0003764827
0.00027329799
0.00024985559
0.00037807773
6.6691239e-05
0.00050838221
-0.0001712353
0.00065229982
-0.00046502983
0.00081780013
-0.00080182149
0.0010014568
-0.0011814416
0.0012182728
-0.0015808223
0.0014504807
-0.0019673923
0.0017097973
-0.0023714711
0.0019537139
-0.0027931083
0.0020823779
-0.0029880802
0.002139094
-0.002834999
0.0017366651
-0.0021492714
0.00079395059
-0.00080977747
6.3632784e-05
-5.8443064e-05
4.2399197e-06
-5.860678e-05
5.1014241e-06
-5.8804112e-05
6.1144102e-06
-5.9040774e-05
7.3288917e-06
-5.9326697e-05
8.7854306e-06
-5.9670281e-05
1.0531985e-05
-6.0085116e-05
1.2626982e-05
-6.0583906e-05
1.5139591e-05
-6.1184083e-05
1.8153435e-05
-6.1905425e-05
2.1767974e-05
-6.2762709e-05
2.6100961e-05
-6.3775917e-05
3.1291972e-05
-6.4959435e-05
3.7507038e-05
-6.6328899e-05
4.4937559e-05
-6.7895919e-05
5.3800565e-05
-6.9644884e-05
6.4334851e-05
-7.1506195e-05
7.6793807e-05
-7.3376153e-05
9.1439929e-05
-7.5168391e-05
0.00010853277
-7.6821056e-05
0.00012828751
-7.8228382e-05
0.00015083883
-7.9169436e-05
0.00017621548
-7.9291828e-05
0.00020424108
-7.8428804e-05
0.00023474973
-7.5779842e-05
0.0002671398
-7.1448335e-05
0.00030099929
-6.7547373e-05
0.00033884969
-6.3413138e-05
0.00038193191
-5.6138406e-05
0.00042503422
-4.6854612e-05
0.00046764633
-2.814769e-05
0.00050634149
1.8058531e-06
0.00052449182
4.3983215e-05
0.00051261342
9.7011931e-05
0.00047014562
0.00016403094
0.00039363121
0.00025652891
0.00026013052
0.00035967381
6.7828205e-05
0.00048788633
-0.00018076546
0.00062942
-0.00048700113
0.00079349633
-0.00083912653
0.00097646273
-0.0012388129
0.001193145
-0.0016636349
0.001425767
-0.0020807972
0.001687454
-0.0025207626
0.0019344231
-0.0029817011
0.0020671777
-0.0032062765
0.0021287297
-0.003066677
0.0017319665
-0.0023611832
0.00079337188
-0.00094402818
2.3685079e-05
-6.1239393e-05
4.3736685e-06
-6.1411726e-05
5.2621806e-06
-6.1619794e-05
6.3073107e-06
-6.186982e-05
7.5605966e-06
-6.2172332e-05
9.0635023e-06
-6.2536421e-05
1.0866141e-05
-6.2976555e-05
1.3028568e-05
-6.3506184e-05
1.5622446e-05
-6.414206e-05
1.8734348e-05
-6.49039e-05
2.2466975e-05
-6.5803389e-05
2.6941629e-05
-6.6860767e-05
3.2303152e-05
-6.8087698e-05
3.8722184e-05
-6.9500147e-05
4.6396153e-05
-7.1111236e-05
5.5548406e-05
-7.2928365e-05
6.6427166e-05
-7.4908514e-05
7.9297987e-05
-7.6953801e-05
9.4439457e-05
-7.8969271e-05
0.00011212298
-8.0858588e-05
0.00013256374
-8.2502712e-05
0.00015589436
-8.3693881e-05
0.0001821309
-8.4124408e-05
0.00021109894
-8.3598158e-05
0.00024261326
-8.1303106e-05
0.00027604775
-7.7652137e-05
0.00031131256
-7.4709169e-05
0.00035131243
-7.1388419e-05
0.00039694652
-6.5197506e-05
0.00044270273
-5.6799427e-05
0.00048797598
-3.8564226e-05
0.00052829172
-9.8094456e-06
0.00054712539
3.0925326e-05
0.00053581662
8.279867e-05
0.00049263243
0.00014904998
0.00041267963
0.00024061188
0.00027232999
0.0003420856
7.1183976e-05
0.00046812153
-0.00018742192
0.00060716211
-0.00050520772
0.00076971017
-0.00087172052
0.00095188469
-0.0012907568
0.0011682751
-0.0017404597
0.001401185
-0.0021878172
0.0016650953
-0.0026637296
0.0019150401
-0.0031645444
0.0020517739
-0.0034197359
0.002117782
-0.0032947011
0.0017266193
-0.0025710423
0.00079284607
-0.0010787433
-1.7359468e-05
-6.3791088e-05
4.5141495e-06
-6.3971881e-05
5.4313942e-06
-6.4190391e-05
6.5103384e-06
-6.4452796e-05
7.8040509e-06
-6.4770676e-05
9.3558568e-06
-6.5153236e-05
1.1217324e-05
-6.5614456e-05
1.3450153e-05
-6.6167937e-05
1.6129218e-05
-6.682893e-05
1.9343016e-05
-6.7615684e-05
2.3198053e-05
-6.8542472e-05
2.7819599e-05
-6.9625678e-05
3.335665e-05
-7.0882023e-05
3.9985983e-05
-7.2321806e-05
4.7909818e-05
-7.3974342e-05
5.7360929e-05
-7.586959e-05
6.8599642e-05
-7.7977595e-05
8.190509e-05
-8.0209429e-05
9.7571041e-05
-8.2445802e-05
0.00011587721
-8.4566203e-05
0.00013703798
-8.6447609e-05
0.00016118713
-8.7886791e-05
0.00018832349
-8.8634677e-05
0.00021828106
-8.8412208e-05
0.00025084707
-8.6418053e-05
0.00028535793
-8.34355e-05
0.00032211603