/*--------------------------------*- C++ -*----------------------------------*\
  =========                 |
  \\      /  F ield         | OpenFOAM: The Open Source CFD Toolbox
   \\    /   O peration     | Website:  https://openfoam.org
    \\  /    A nd           | Version:  8
     \\/     M anipulation  |
\*---------------------------------------------------------------------------*/
FoamFile
{
    version     2.0;
    format      ascii;
    class       volScalarField;
    location    "0.129988";
    object      nut;
}
// * * * * * * * * * * * * * * * * * * * * * * * * * * * * * * * * * * * * * //

dimensions      [0 2 -1 0 0 0 0];

internalField   nonuniform List<scalar> 
20000
(
0.0012993692
0.0033619468
0.0046522831
0.0052804409
0.0050848097
0.0038072451
0.0011715126
2.3851756e-06
2.4202702e-09
2.3569393e-09
2.2870099e-09
2.3070544e-09
2.2768993e-09
2.3051599e-09
2.3048469e-09
2.3371115e-09
2.3590983e-09
2.4019711e-09
2.4464342e-09
2.5101408e-09
2.5837083e-09
2.6802552e-09
2.796491e-09
2.9436021e-09
3.1223919e-09
3.3418352e-09
3.6036576e-09
3.9109039e-09
4.2587244e-09
4.6390779e-09
5.035031e-09
5.4228157e-09
5.778082e-09
6.0871276e-09
6.3459308e-09
6.5575593e-09
6.7261211e-09
6.86046e-09
6.9666591e-09
7.0498232e-09
7.1150971e-09
7.1672376e-09
7.2110795e-09
7.24556e-09
7.2695012e-09
7.2978238e-09
7.3421967e-09
7.3671335e-09
7.3814789e-09
7.4187126e-09
0.0013053028
0.0033493998
0.004601689
0.0051873036
0.0049466404
0.0036129643
0.0010073447
8.3850382e-07
2.4040619e-09
2.3730163e-09
2.3023061e-09
2.3234257e-09
2.2933591e-09
2.3227908e-09
2.3229992e-09
2.356672e-09
2.3798783e-09
2.4245967e-09
2.4710814e-09
2.5374289e-09
2.6141354e-09
2.7145215e-09
2.8353452e-09
2.9877882e-09
3.1726729e-09
3.3984501e-09
3.6659828e-09
3.9765511e-09
4.3233957e-09
4.6970719e-09
5.0817969e-09
5.4571445e-09
5.8019635e-09
6.1035045e-09
6.3572815e-09
6.5653334e-09
6.7314483e-09
6.8642062e-09
6.969459e-09
7.0518796e-09
7.1169102e-09
7.1689475e-09
7.2127522e-09
7.2466744e-09
7.2703118e-09
7.3007493e-09
7.3420059e-09
7.3681335e-09
7.3811606e-09
7.4188947e-09
0.0013012216
0.0033238296
0.0045459986
0.0050929523
0.0048092593
0.0034128163
0.00085607691
2.9715643e-07
2.4001755e-09
2.3889849e-09
2.3182701e-09
2.3403975e-09
2.3106372e-09
2.3411525e-09
2.3420354e-09
2.3771049e-09
2.40166e-09
2.4483071e-09
2.4969922e-09
2.566172e-09
2.6462703e-09
2.7508208e-09
2.8766446e-09
3.0349473e-09
3.226578e-09
3.4594793e-09
3.7335232e-09
4.0481139e-09
4.3945098e-09
4.7618896e-09
5.1352919e-09
5.4973795e-09
5.8302901e-09
6.1226755e-09
6.3699444e-09
6.573759e-09
6.737101e-09
6.868015e-09
6.9721131e-09
7.0537315e-09
7.1184073e-09
7.1702705e-09
7.2139651e-09
7.2474102e-09
7.2708835e-09
7.303691e-09
7.345665e-09
7.3699485e-09
7.3879634e-09
7.4168005e-09
0.0012979024
0.0032997115
0.0044913644
0.0050013845
0.0046711135
0.003205275
0.00071859203
1.1035925e-07
2.4046489e-09
2.4061331e-09
2.3353142e-09
2.3584268e-09
2.329018e-09
2.3605794e-09
2.3621717e-09
2.3986645e-09
2.424633e-09
2.4732801e-09
2.5242562e-09
2.5963609e-09
2.6799648e-09
2.7888045e-09
2.9197911e-09
3.0841846e-09
3.2828058e-09
3.5230866e-09
3.8038793e-09
4.1228554e-09
4.4695148e-09
4.831855e-09
5.195393e-09
5.5450615e-09
5.8658863e-09
6.1482827e-09
6.3879792e-09
6.5863332e-09
6.7458519e-09
6.8741437e-09
6.9765084e-09
7.0569072e-09
7.1209414e-09
7.172425e-09
7.2157753e-09
7.2484911e-09
7.2719209e-09
7.3067574e-09
7.3472354e-09
7.3722815e-09
7.3904577e-09
7.4164459e-09
0.001294579
0.0032754691
0.0044362407
0.0049088419
0.0045322823
0.00298987
0.00059192345
4.4466392e-08
2.414405e-09
2.4240046e-09
2.3532608e-09
2.3773478e-09
2.3484148e-09
2.3810116e-09
2.3834217e-09
2.4214117e-09
2.4489237e-09
2.4996989e-09
2.5531393e-09
2.6283574e-09
2.7157116e-09
2.8291365e-09
2.965663e-09
3.1365854e-09
3.3426918e-09
3.5908249e-09
3.8787195e-09
4.2022382e-09
4.5492167e-09
4.9066282e-09
5.2604695e-09
5.5977101e-09
5.9060191e-09
6.1776544e-09
6.4089082e-09
6.6010989e-09
6.7562261e-09
6.8814356e-09
6.9817083e-09
7.0606518e-09
7.1238503e-09
7.1748155e-09
7.2176496e-09
7.2495257e-09
7.2730665e-09
7.3098371e-09
7.3499291e-09
7.3746386e-09
7.3938357e-09
7.4159618e-09
0.0012912135
0.0032512314
0.0043805444
0.0048156493
0.0043930814
0.0027672134
0.00047668632
2.0249359e-08
2.4278782e-09
2.4426342e-09
2.3721449e-09
2.3971965e-09
2.3688358e-09
2.4025069e-09
2.4058485e-09
2.4454075e-09
2.4745817e-09
2.5275976e-09
2.5836543e-09
2.6621561e-09
2.7534859e-09
2.8717715e-09
3.0141872e-09
3.1920442e-09
3.4060744e-09
3.6624317e-09
3.9576291e-09
4.2857267e-09
4.6330298e-09
4.9856807e-09
5.3301599e-09
5.6551864e-09
5.9508121e-09
6.211171e-09
6.4332873e-09
6.618579e-09
6.7686665e-09
6.8902755e-09
6.988051e-09
7.065251e-09
7.1274001e-09
7.1776888e-09
7.219801e-09
7.2506391e-09
7.2744724e-09
7.3130912e-09
7.3524354e-09
7.3770922e-09
7.3960998e-09
7.4156664e-09
0.0012877259
0.0032270498
0.0043239477
0.0047213749
0.0042534382
0.0025383804
0.00037213533
1.0702095e-08
2.4437846e-09
2.4619194e-09
2.3918943e-09
2.4179458e-09
2.390278e-09
2.4250883e-09
2.4294816e-09
2.4706828e-09
2.5016426e-09
2.5570242e-09
2.615872e-09
2.6978582e-09
2.793435e-09
2.9169174e-09
3.0656409e-09
3.2509108e-09
3.4733595e-09
3.7383326e-09
4.0409853e-09
4.3735375e-09
4.7208892e-09
5.0685568e-09
5.4036096e-09
5.7164051e-09
5.9991751e-09
6.2478699e-09
6.4603266e-09
6.6381894e-09
6.7827543e-09
6.9003542e-09
6.9953038e-09
7.0705264e-09
7.1314453e-09
7.1809195e-09
7.222131e-09
7.2516756e-09
7.2760946e-09
7.3165509e-09
7.3552595e-09
7.379511e-09
7.3979325e-09
7.4153999e-09
0.001284471
0.003202935
0.0042667881
0.0046255536
0.0041130573
0.0023054373
0.00027716984
6.6140209e-09
2.4616223e-09
2.4819482e-09
2.4126076e-09
2.4396774e-09
2.412808e-09
2.4488011e-09
2.454352e-09
2.4972557e-09
2.5301254e-09
2.5879978e-09
2.649813e-09
2.7354933e-09
2.8356065e-09
2.9646401e-09
3.1201085e-09
3.3132785e-09
3.5446313e-09
3.818554e-09
4.1287129e-09
4.4654733e-09
4.8124785e-09
5.1548359e-09
5.4803226e-09
5.7808494e-09
6.0506526e-09
6.2874177e-09
6.4898217e-09
6.6598085e-09
6.798423e-09
6.9116452e-09
7.0034661e-09
7.07649e-09
7.136011e-09
7.1845346e-09
7.2246809e-09
7.2527995e-09
7.278003e-09
7.3202811e-09
7.3581574e-09
7.3818696e-09
7.3993664e-09
7.4151825e-09
0.0012812474
0.0031788008
0.0042089656
0.0045274779
0.0039710721
0.0020718635
0.00019114382
4.7153012e-09
2.4809879e-09
2.502819e-09
2.4343117e-09
2.4624129e-09
2.4364425e-09
2.4736512e-09
2.4804616e-09
2.5251358e-09
2.5600487e-09
2.62055e-09
2.685526e-09
2.7751364e-09
2.8801096e-09
3.0150863e-09
3.177772e-09
3.3793614e-09
3.6201067e-09
3.9032676e-09
4.2208821e-09
4.5614617e-09
4.9075568e-09
5.2440963e-09
5.5597142e-09
5.8478439e-09
6.1045824e-09
6.3292436e-09
6.5213228e-09
6.6831081e-09
6.8154421e-09
6.9239879e-09
7.0124274e-09
7.083064e-09
7.1410438e-09
7.1884886e-09
7.227434e-09
7.2542742e-09
7.2802461e-09
7.324337e-09
7.3611994e-09
7.3841207e-09
7.4004312e-09
7.4149684e-09
0.0012780237
0.0031548621
0.004150488
0.0044265396
0.0038261633
0.0018458802
0.00011633959
3.7740876e-09
2.5016885e-09
2.5246163e-09
2.4570433e-09
2.4861655e-09
2.4611794e-09
2.4996295e-09
2.507814e-09
2.5543384e-09
2.5914401e-09
2.6547139e-09
2.7230577e-09
2.8168598e-09
2.9270452e-09
3.0683842e-09
3.2387848e-09
3.4493299e-09
3.6999366e-09
3.9925514e-09
4.3174518e-09
4.6613275e-09
5.0058255e-09
5.3359365e-09
5.6413046e-09
5.91687e-09
6.160467e-09
6.3729244e-09
6.5545029e-09
6.707849e-09
6.8336438e-09
6.9372694e-09
7.0221154e-09
7.0902022e-09
7.1465173e-09
7.1927598e-09
7.23037e-09
7.255997e-09
7.2829077e-09
7.328724e-09
7.364302e-09
7.3861185e-09
7.4012245e-09
7.4147598e-09
0.0012750631
0.0031314567
0.0040920022
0.0043227123
0.0036772623
0.0016283751
5.9099917e-05
3.2880115e-09
2.5235681e-09
2.5473257e-09
2.4807784e-09
2.5109026e-09
2.4869913e-09
2.5267304e-09
2.5364233e-09
2.584892e-09
2.6243297e-09
2.6905312e-09
2.7624772e-09
2.8607645e-09
2.9765466e-09
3.1246954e-09
3.3033379e-09
3.5233901e-09
3.7843018e-09
4.0864999e-09
4.4183867e-09
4.7648954e-09
5.1069825e-09
5.4299513e-09
5.7246115e-09
5.9874067e-09
6.2178005e-09
6.4180174e-09
6.5890049e-09
6.7337612e-09
6.8528319e-09
6.951351e-09
7.0324357e-09
7.097841e-09
7.1523881e-09
7.1973069e-09
7.2334372e-09
7.2578764e-09
7.2860922e-09
7.3332996e-09
7.3673357e-09
7.3878964e-09
7.4018539e-09
7.4145566e-09
0.0012724621
0.003108607
0.0040340627
0.0042182126
0.0035240146
0.001421578
2.4488599e-05
3.0342332e-09
2.5465546e-09
2.5709079e-09
2.5054668e-09
2.5365928e-09
2.513879e-09
2.5549794e-09
2.5663244e-09
2.616826e-09
2.6587519e-09
2.7280543e-09
2.8038659e-09
2.906964e-09
3.0287546e-09
3.1841887e-09
3.3716283e-09
3.6017489e-09
3.8733676e-09
4.1851737e-09
4.5236053e-09
4.8719453e-09
5.210701e-09
5.5257422e-09
5.8091923e-09
6.0589957e-09
6.2761431e-09
6.4641361e-09
6.6245139e-09
6.7606012e-09
6.8728263e-09
6.9661042e-09
7.0433005e-09
7.1059222e-09
7.1586153e-09
7.2020874e-09
7.2366114e-09
7.2599742e-09
7.2899153e-09
7.3379273e-09
7.3702311e-09
7.3894762e-09
7.4023791e-09
7.4143634e-09
0.0012701779
0.0030862157
0.0039765747
0.0041179208
0.003362543
0.0012265884
8.5036943e-06
2.9043079e-09
2.5704247e-09
2.5952543e-09
2.5310772e-09
2.5632608e-09
2.5418936e-09
2.5844233e-09
2.5975479e-09
2.6501659e-09
2.6947478e-09
2.7673558e-09
2.8473328e-09
2.9555949e-09
3.0838315e-09
3.2470556e-09
3.4438768e-09
3.684627e-09
3.967296e-09
4.2886124e-09
4.6329955e-09
4.9822288e-09
5.316635e-09
5.6229063e-09
5.8946151e-09
6.131201e-09
6.3350809e-09
6.510915e-09
6.6607274e-09
6.7881311e-09
6.8934472e-09
6.9813976e-09
7.054618e-09
7.1143845e-09
7.1651548e-09
7.2070553e-09
7.2398595e-09
7.2624622e-09
7.2944363e-09
7.3424868e-09
7.3729529e-09
7.390886e-09
7.4028355e-09
7.4141798e-09
0.0012679913
0.0030637876
0.0039189843
0.0040097796
0.0031915372
0.0010448558
2.6396647e-06
2.8435231e-09
2.5952154e-09
2.6204943e-09
2.557726e-09
2.5910002e-09
2.5710879e-09
2.6150857e-09
2.6301031e-09
2.6849395e-09
2.7323742e-09
2.8085307e-09
2.8929992e-09
3.0068012e-09
3.1419469e-09
3.3135017e-09
3.5203181e-09
3.7722526e-09
4.0662361e-09
4.3968252e-09
4.7464059e-09
5.0954623e-09
5.4244197e-09
5.7210437e-09
5.9804735e-09
6.2036254e-09
6.3942428e-09
6.5580269e-09
6.6973715e-09
6.8161315e-09
6.9145256e-09
6.997106e-09
7.0662998e-09
7.1231688e-09
7.1719632e-09
7.2121638e-09
7.2431454e-09
7.2653745e-09
7.2997065e-09
7.3468748e-09
7.3754971e-09
7.3921463e-09
7.4032235e-09
7.4140052e-09
0.0012658068
0.0030410051
0.0038610975
0.0039011028
0.0030112611
0.00087766575
7.8441329e-07
2.8214845e-09
2.6211008e-09
2.6467478e-09
2.5854708e-09
2.6198202e-09
2.6014535e-09
2.6469528e-09
2.6640049e-09
2.721193e-09
2.7717244e-09
2.8517001e-09
2.9410057e-09
3.0607429e-09
3.2032914e-09
3.3837553e-09
3.6012054e-09
3.8648547e-09
4.1703151e-09
4.5097815e-09
4.8636415e-09
5.2113258e-09
5.5336703e-09
5.819753e-09
6.0663751e-09
6.275896e-09
6.4532861e-09
6.6051707e-09
6.7341927e-09
6.8443967e-09
6.9359004e-09
7.0131079e-09
7.0782593e-09
7.1322167e-09
7.1789962e-09
7.2173659e-09
7.2464459e-09
7.2686268e-09
7.3057015e-09
7.3510275e-09
7.37788e-09
7.3932801e-09
7.4035347e-09
7.4138071e-09
0.0012636092
0.003017449
0.0037996751
0.0037892048
0.0028207093
0.00072768019
2.3977533e-07
2.8212448e-09
2.6480229e-09
2.6739632e-09
2.6142643e-09
2.6496777e-09
2.6329591e-09
2.6800351e-09
2.6992987e-09
2.759024e-09
2.8129157e-09
2.8969923e-09
2.9914923e-09
3.1175865e-09
3.2680715e-09
3.4580657e-09
3.6868108e-09
3.9626635e-09
4.2796403e-09
4.6274119e-09
4.9844643e-09
5.3294663e-09
5.6439874e-09
5.9186365e-09
6.1519481e-09
6.3476708e-09
6.511903e-09
6.6520783e-09
6.7709642e-09
6.8727396e-09
6.9574226e-09
7.0292896e-09
7.0904147e-09
7.1414717e-09
7.1862098e-09
7.2226224e-09
7.2497597e-09
7.272251e-09
7.3121182e-09
7.3550652e-09
7.3801297e-09
7.3943069e-09
7.4037758e-09
7.413567e-09
0.0012615684
0.0029936493
0.0037378264
0.0036767739
0.0026207049
0.00059468987
8.0695482e-08
2.8333643e-09
2.6758809e-09
2.7020522e-09
2.6440512e-09
2.6805528e-09
2.6656263e-09
2.7143915e-09
2.736085e-09
2.7985473e-09
2.8560744e-09
2.9445405e-09
3.044611e-09
3.1775197e-09
3.3365204e-09
3.5367062e-09
3.7774162e-09
4.0658923e-09
4.3942773e-09
4.7495926e-09
5.1085865e-09
5.4494974e-09
5.754957e-09
6.0173016e-09
6.2368371e-09
6.4186314e-09
6.5698132e-09
6.6985087e-09
6.8074811e-09
6.9009886e-09
6.9789533e-09
7.0455439e-09
7.1026885e-09
7.150879e-09
7.1935585e-09
7.2279012e-09
7.2531007e-09
7.2762684e-09
7.3187167e-09
7.3590407e-09
7.3822653e-09
7.3952117e-09
7.4039204e-09
7.4132827e-09
0.0012597207
0.0029689169
0.0036740729
0.0035624569
0.0024118677
0.00047239853
3.0793481e-08
2.8526211e-09
2.7046341e-09
2.7309516e-09
2.6748402e-09
2.7124947e-09
2.6995332e-09
2.7501352e-09
2.7744836e-09
2.8398943e-09
2.9013218e-09
2.9944737e-09
3.1005204e-09
3.2407503e-09
3.4088926e-09
3.6199767e-09
3.8733144e-09
4.1747491e-09
4.514255e-09
4.8761534e-09
5.2356752e-09
5.5710066e-09
5.8661591e-09
6.1153639e-09
6.3207067e-09
6.4884884e-09
6.6267683e-09
6.7442509e-09
6.8435634e-09
6.9289904e-09
7.0003666e-09
7.0617722e-09
7.1150101e-09
7.1603861e-09
7.2009941e-09
7.2331765e-09
7.2565037e-09
7.2806851e-09
7.32534e-09
7.3629229e-09
7.3842814e-09
7.396021e-09
7.4040106e-09
7.4129691e-09
0.0012579372
0.0029427598
0.003607259
0.00343787
0.0021964325
0.00036196034
1.4048516e-08
2.8761549e-09
2.7343001e-09
2.7607969e-09
2.7067218e-09
2.7456184e-09
2.7348047e-09
2.7873926e-09
2.8146201e-09
2.8831699e-09
2.9487694e-09
3.0469301e-09
3.1594079e-09
3.3075142e-09
3.4854747e-09
3.7081917e-09
3.9747973e-09
4.2894027e-09
4.6395462e-09
5.006859e-09
5.3653492e-09
5.693554e-09
5.9771668e-09
6.2124467e-09
6.4032398e-09
6.556977e-09
6.6825464e-09
6.7891195e-09
6.8790514e-09
6.9566065e-09
7.0215473e-09
7.0778848e-09
7.1273142e-09
7.1699429e-09
7.2084647e-09
7.2384199e-09
7.2600598e-09
7.2855727e-09
7.3318605e-09
7.3666504e-09
7.3861622e-09
7.3967533e-09
7.4040452e-09
7.4126341e-09
0.0012560475
0.0029149581
0.0035381201
0.0033121656
0.0019780737
0.00026168534
7.8225224e-09
2.9025308e-09
2.7650224e-09
2.7917185e-09
2.7398254e-09
2.7800519e-09
2.7715611e-09
2.8262819e-09
2.8565865e-09
2.9284725e-09
2.998529e-09
3.1020653e-09
3.221484e-09
3.3780738e-09
3.5665773e-09
3.8016902e-09
4.0821599e-09
4.4099976e-09
4.7700743e-09
5.1414206e-09
5.4971875e-09
5.8166806e-09
6.0875506e-09
6.3081846e-09
6.4841413e-09
6.6238616e-09
6.7369565e-09
6.8329572e-09
6.9138076e-09
6.9837158e-09
7.0423924e-09
7.0938022e-09
7.1395429e-09
7.1795018e-09
7.2159162e-09
7.2436094e-09
7.2638861e-09
7.2910989e-09
7.3381386e-09
7.3701649e-09
7.3878851e-09
7.3974084e-09
7.4040545e-09
7.4122798e-09
0.0012539902
0.0028852612
0.0034627776
0.0031842606
0.0017591095
0.00017074036
5.2555135e-09
2.9308065e-09
2.7968491e-09
2.8238076e-09
2.7742579e-09
2.8159091e-09
2.8099092e-09
2.8668814e-09
2.9004623e-09
2.9758634e-09
3.0507309e-09
3.1600717e-09
3.2869948e-09
3.4527241e-09
3.6525366e-09
3.9008242e-09
4.1956736e-09
4.5366203e-09
4.9056846e-09
5.2794806e-09
5.6307244e-09
5.9399067e-09
6.1968808e-09
6.4022267e-09
6.563138e-09
6.6889332e-09
6.7898339e-09
6.8756287e-09
6.947712e-09
7.0102114e-09
7.0628095e-09
7.1094532e-09
7.1516438e-09
7.1890171e-09
7.2232939e-09
7.2487224e-09
7.2680847e-09
7.2974227e-09
7.3440236e-09
7.3734258e-09
7.3894408e-09
7.3979628e-09
7.4040178e-09
7.4119057e-09
0.0012519617
0.0028554935
0.0033848737
0.0030528049
0.00154289
9.317455e-05
4.1043652e-09
2.9605997e-09
2.8298927e-09
2.857186e-09
2.8101194e-09
2.853283e-09
2.8499039e-09
2.9092458e-09
2.9463056e-09
3.0254681e-09
3.1055412e-09
3.2211705e-09
3.3562109e-09
3.5317801e-09
3.7437181e-09
4.0059607e-09
4.3156023e-09
4.6693138e-09
5.0461641e-09
5.4206282e-09
5.7654579e-09
6.062736e-09
6.3047313e-09
6.4942425e-09
6.6399846e-09
6.7520114e-09
6.8410426e-09
6.9170211e-09
6.9806639e-09
7.036004e-09
7.0827199e-09
7.1247769e-09
7.1635715e-09
7.1984457e-09
7.230546e-09
7.2537326e-09
7.2726774e-09
7.3046025e-09
7.3494249e-09
7.3764198e-09
7.3908358e-09
7.3984243e-09
7.4039237e-09
7.4115201e-09
0.0012499478
0.0028252923
0.003308871
0.0029150089
0.0013326383
3.9049961e-05
3.5659758e-09
2.9915743e-09
2.8643546e-09
2.8919703e-09
2.8474663e-09
2.8921862e-09
2.8915735e-09
2.9534162e-09
2.9942111e-09
3.0774469e-09
3.1631701e-09
3.2856235e-09
3.4294332e-09
3.6155907e-09
3.8405087e-09
4.1174635e-09
4.4421576e-09
4.8080397e-09
5.1912106e-09
5.5643807e-09
5.9008401e-09
6.1846527e-09
6.4106838e-09
6.5839305e-09
6.7144687e-09
6.8129398e-09
6.8904689e-09
6.9570382e-09
7.0125803e-09
7.061018e-09
7.1020574e-09
7.13972e-09
7.1752861e-09
7.2077454e-09
7.2376258e-09
7.2586199e-09
7.2776184e-09
7.3123823e-09
7.3543892e-09
7.3791676e-09
7.3920833e-09
7.3988029e-09
7.4037953e-09
7.4111285e-09
0.0012477428
0.0027933522
0.0032286844
0.0027688977
0.0011325461
1.2429996e-05
3.3172594e-09
3.0239698e-09
2.9000903e-09
2.9281525e-09
2.8862791e-09
2.9326349e-09
2.9349433e-09
2.9994801e-09
3.0443121e-09
3.1319975e-09
3.2238588e-09
3.3537059e-09
3.5069786e-09
3.7045258e-09
3.9433262e-09
4.2356976e-09
4.5755245e-09
4.9526954e-09
5.3404553e-09
5.7101985e-09
6.0362842e-09
6.3051277e-09
6.5143387e-09
6.6710283e-09
6.7864181e-09
6.8715851e-09
6.9380196e-09
6.9956022e-09
7.0433995e-09
7.0851922e-09
7.1207713e-09
7.1542384e-09
7.1867538e-09
7.2168762e-09
7.2444957e-09
7.2633858e-09
7.2828812e-09
7.3202519e-09
7.3591497e-09
7.3816983e-09
7.3931891e-09
7.3991067e-09
7.4036411e-09
7.4107334e-09
0.0012454597
0.0027604923
0.0031455163
0.0026146463
0.00094618083
3.2401486e-06
3.211327e-09
3.058212e-09
2.9368625e-09
2.9656077e-09
2.9265695e-09
2.9746739e-09
2.9801117e-09
3.0475738e-09
3.0967992e-09
3.1893561e-09
3.2878774e-09
3.4257212e-09
3.589195e-09
3.7989974e-09
4.0526004e-09
4.361005e-09
4.7158004e-09
5.1030745e-09
5.4934244e-09
5.8574639e-09
6.1711582e-09
6.4236331e-09
6.6153341e-09
6.7553188e-09
6.855698e-09
6.9278337e-09
6.9836139e-09
7.032657e-09
7.0730821e-09
7.1084722e-09
7.1388209e-09
7.1682951e-09
7.1979455e-09
7.2257997e-09
7.2511298e-09
7.268071e-09
7.2884706e-09
7.3281448e-09
7.3637027e-09
7.3840125e-09
7.3941523e-09
7.3993415e-09
7.4034529e-09
7.4103371e-09
0.0012432216
0.0027271568
0.0030595328
0.0024556519
0.00077659202
7.8533351e-07
3.1763159e-09
3.0934303e-09
2.9748522e-09
3.0044283e-09
2.9683717e-09
3.0184121e-09
3.0272206e-09
3.0978926e-09
3.1518993e-09
3.2497877e-09
3.3555013e-09
3.5019798e-09
3.676455e-09
3.8994507e-09
4.1687883e-09
4.4937125e-09
4.863031e-09
5.2588925e-09
5.6495707e-09
6.0055048e-09
6.3048153e-09
6.5396848e-09
6.7133761e-09
6.836624e-09
6.9221923e-09
6.981599e-09
7.0271852e-09
7.0681814e-09
7.1016104e-09
7.1308087e-09
7.1561688e-09
7.1818643e-09
7.2088368e-09
7.2344803e-09
7.2575162e-09
7.2727542e-09
7.2943911e-09
7.3358541e-09
7.3679917e-09
7.3861047e-09
7.3949706e-09
7.3994454e-09
7.4032329e-09
7.4099319e-09
0.0012411346
0.0026940363
0.0029723985
0.0022863917
0.00062425815
2.0213082e-07
3.1773778e-09
3.1300607e-09
3.0142274e-09
3.0448548e-09
3.011789e-09
3.0639745e-09
3.0764569e-09
3.1506713e-09
3.2098547e-09
3.3135435e-09
3.4270222e-09
3.5828253e-09
3.7691797e-09
4.0063671e-09
4.2923414e-09
4.6340753e-09
5.0171414e-09
5.4197306e-09
5.8082332e-09
6.1535839e-09
6.4366297e-09
6.6528994e-09
6.8082599e-09
6.9147789e-09
6.9857628e-09
7.0328294e-09
7.0686906e-09
7.1021974e-09
7.1289696e-09
7.1521558e-09
7.1727648e-09
7.1949301e-09
7.2194062e-09
7.2428854e-09
7.2636546e-09
7.277557e-09
7.3008174e-09
7.3431204e-09
7.3719457e-09
7.3879719e-09
7.3956805e-09
7.3995054e-09
7.4029996e-09
7.4095119e-09
0.0012392634
0.0026610436
0.0028935925
0.0021075057
0.00049399113
6.4728545e-08
3.1965615e-09
3.1679873e-09
3.0550168e-09
3.0869742e-09
3.0570032e-09
3.1115525e-09
3.1280503e-09
3.206137e-09
3.2709072e-09
3.3808734e-09
3.5027427e-09
3.6686343e-09
3.8678355e-09
4.1202734e-09
4.4237217e-09
4.7823076e-09
5.1779767e-09
5.585075e-09
5.9686777e-09
6.3009553e-09
6.5660812e-09
6.7630497e-09
6.8998535e-09
6.9895936e-09
7.0462146e-09
7.0815164e-09
7.1081417e-09
7.1347661e-09
7.1551208e-09
7.172487e-09
7.1885457e-09
7.2074882e-09
7.229636e-09
7.2509868e-09
7.2695547e-09
7.2826071e-09
7.3079899e-09
7.3497232e-09
7.3755103e-09
7.3896222e-09
7.3963106e-09
7.3995363e-09
7.4027433e-09
7.4090719e-09
0.0012373309
0.0026256782
0.002806166
0.0019184418
0.00037776039
2.5379436e-08
3.224971e-09
3.2072078e-09
3.0973182e-09
3.1308429e-09
3.1043491e-09
3.1614487e-09
3.1822153e-09
3.2645007e-09
3.3352836e-09
3.4520543e-09
3.5830087e-09
3.759838e-09
3.9729422e-09
4.2417142e-09
4.5633411e-09
4.9385009e-09
5.3452219e-09
5.7542599e-09
6.1300797e-09
6.4469063e-09
6.6928277e-09
6.8700362e-09
6.9879903e-09
7.0608263e-09
7.1033312e-09
7.1276751e-09
7.1456365e-09
7.1659365e-09
7.1799736e-09
7.1918112e-09
7.2034613e-09
7.2195362e-09
7.2395098e-09
7.25876e-09
7.2752338e-09
7.2879892e-09
7.3159413e-09
7.3555572e-09
7.3786827e-09
7.3910651e-09
7.3968585e-09
7.3995626e-09
7.4024584e-09
7.408605e-09
0.0012355705
0.0025893412
0.0027188781
0.0017229306
0.00027396126
1.2412924e-08
3.2591089e-09
3.2480582e-09
3.1414835e-09
3.1766979e-09
3.1538136e-09
3.2138472e-09
3.2391415e-09
3.3259661e-09
3.4032217e-09
3.5273936e-09
3.66821e-09
3.8569267e-09
4.085076e-09
4.3712711e-09
4.7115915e-09
5.1026786e-09
5.5184564e-09
5.9265323e-09
6.291603e-09
6.5908616e-09
6.8167236e-09
6.9736895e-09
7.0722457e-09
7.1282087e-09
7.1570753e-09
7.1712976e-09
7.1813615e-09
7.1956461e-09
7.20342e-09
7.2101716e-09
7.2175477e-09
7.231063e-09
7.2490137e-09
7.266185e-09
7.2807142e-09
7.2937067e-09
7.3243587e-09
7.360767e-09
7.3815257e-09
7.3923166e-09
7.3972788e-09
7.3995113e-09
7.402123e-09
7.4081053e-09
0.0012339244
0.0025512321
0.0026280216
0.0015242788
0.00018101613
7.569199e-09
3.2974146e-09
3.2908269e-09
3.1875841e-09
3.2246736e-09
3.2055359e-09
3.2688446e-09
3.2990248e-09
3.3906915e-09
3.4750047e-09
3.6072439e-09
3.7588053e-09
3.9604547e-09
4.2048592e-09
4.509498e-09
4.8687575e-09
5.27468e-09
5.6970702e-09
6.1010076e-09
6.4524277e-09
6.7324419e-09
6.9376389e-09
7.0733224e-09
7.1521358e-09
7.1915861e-09
7.2076558e-09
7.2123158e-09
7.2154863e-09
7.2235973e-09
7.2254945e-09
7.2275831e-09
7.2309965e-09
7.2420385e-09
7.2581345e-09
7.2732448e-09
7.2860194e-09
7.2997081e-09
7.3327262e-09
7.365635e-09
7.3841159e-09
7.3933999e-09
7.3975689e-09
7.3993899e-09
7.4017368e-09
7.407569e-09
0.0012323119
0.0025101591
0.0025339654
0.0013319546
0.00010151075
5.5466899e-09
3.3388612e-09
3.3354277e-09
3.2356274e-09
3.2749496e-09
3.2597962e-09
3.3265095e-09
3.3620391e-09
3.4590288e-09
3.5509608e-09
3.6920188e-09
3.8553128e-09
4.0710457e-09
4.3329574e-09
4.6569618e-09
5.0350563e-09
5.4542425e-09
5.8803401e-09
6.2767767e-09
6.6118706e-09
6.871479e-09
7.054966e-09
7.1682356e-09
7.2271848e-09
7.2509409e-09
7.2554443e-09
7.2506892e-09
7.2478909e-09
7.2497296e-09
7.2462826e-09
7.2439291e-09
7.2440993e-09
7.2524303e-09
7.2668607e-09
7.2799293e-09
7.2911784e-09
7.3059358e-09
7.3407823e-09
7.3702113e-09
7.3864904e-09
7.3943619e-09
7.3977537e-09
7.399177e-09
7.4013004e-09
7.4069905e-09
0.0012303484
0.0024631401
0.0024347053
0.0011512447
4.438237e-05
4.6374657e-09
3.3826116e-09
3.381813e-09
3.2857552e-09
3.3276221e-09
3.3167324e-09
3.3872414e-09
3.4284303e-09
3.5312568e-09
3.6314792e-09
3.7822065e-09
3.9583298e-09
4.1893778e-09
4.4700515e-09
4.8141328e-09
5.2105334e-09
5.6408644e-09
6.0673619e-09
6.4528947e-09
6.7694253e-09
7.0077628e-09
7.1676209e-09
7.2577497e-09
7.2971113e-09
7.306712e-09
7.3006618e-09
7.2867179e-09
7.2782124e-09
7.2746799e-09
7.2657607e-09
7.2589459e-09
7.2568748e-09
7.262251e-09
7.2751814e-09
7.2862402e-09
7.2962373e-09
7.3123812e-09
7.3482856e-09
7.3743949e-09
7.388637e-09
7.3952367e-09
7.3978696e-09
7.3989042e-09
7.4008108e-09
7.4063607e-09
0.0012278496
0.0024108036
0.0023285315
0.00098149773
1.4805497e-05
4.2212719e-09
3.4287216e-09
3.4303389e-09
3.3383038e-09
3.3829726e-09
3.3766448e-09
3.4512901e-09
3.4984198e-09
3.6077154e-09
3.7170288e-09
3.8783677e-09
4.0685173e-09
4.3161914e-09
4.6168446e-09
4.9814471e-09
5.3951201e-09
5.8339209e-09
6.2571679e-09
6.6285274e-09
6.9248133e-09
7.1403425e-09
7.2747124e-09
7.3412425e-09
7.3624488e-09
7.3597735e-09
7.3428471e-09
7.3208514e-09
7.3065115e-09
7.2980702e-09
7.2838777e-09
7.2729945e-09
7.2690712e-09
7.271613e-09
7.283086e-09
7.2921984e-09
7.3012787e-09
7.3191165e-09
7.3550575e-09
7.3780689e-09
7.3904894e-09
7.396035e-09
7.397977e-09
7.3985798e-09
7.400268e-09
7.4056633e-09
0.0012245579
0.0023521285
0.0022089465
0.00082398542
4.0446881e-06
4.0392813e-09
3.4773134e-09
3.4812317e-09
3.3934279e-09
3.4412029e-09
3.4397085e-09
3.5188547e-09
3.5724179e-09
3.6888309e-09
3.8081523e-09
3.9811441e-09
4.1866015e-09
4.4522628e-09
4.7739882e-09
5.1591712e-09
5.5884896e-09
6.0325363e-09
6.4486933e-09
6.8029641e-09
7.0777539e-09
7.267844e-09
7.3753145e-09
7.4186513e-09
7.4246627e-09
7.4093101e-09
7.3822679e-09
7.3529072e-09
7.3329558e-09
7.3200847e-09
7.3007696e-09
7.2861442e-09
7.2803507e-09
7.2807096e-09
7.2905588e-09
7.2978435e-09
7.3064272e-09
7.3262868e-09
7.3609102e-09
7.3811788e-09
7.3919746e-09
7.3966509e-09
7.3980828e-09
7.3983297e-09
7.3996833e-09
7.4048683e-09
0.0012206721
0.0022879428
0.0020724964
0.00068058535
1.0166459e-06
3.97363e-09
3.5284111e-09
3.5346267e-09
3.4512758e-09
3.5024932e-09
3.506105e-09
3.590118e-09
3.6509257e-09
3.7751747e-09
3.9054642e-09
4.0912372e-09
4.3133758e-09
4.5984121e-09
4.9421225e-09
5.34748e-09
5.7901728e-09
6.2357358e-09
6.6409511e-09
6.9757259e-09
7.2272368e-09
7.3890331e-09
7.4688263e-09
7.4914251e-09
7.4832073e-09
7.455533e-09
7.4189553e-09
7.3828977e-09
7.3577174e-09
7.3407097e-09
7.316571e-09
7.2985657e-09
7.2905462e-09
7.2895919e-09
7.2975785e-09
7.3032212e-09
7.3118024e-09
7.3339117e-09
7.3657467e-09
7.3837533e-09
7.3931333e-09
7.3970878e-09
7.3981637e-09
7.398219e-09
7.3990828e-09
7.4039315e-09
0.001216556
0.0022200657
0.0019217543
0.00055297309
2.6737347e-07
3.9670922e-09
3.5821716e-09
3.5906979e-09
3.5120734e-09
3.56701e-09
3.5761187e-09
3.6655534e-09
3.7343458e-09
3.8672926e-09
4.0096504e-09
4.2094251e-09
4.4496888e-09
4.755459e-09
5.1217476e-09
5.5462851e-09
5.9993977e-09
6.4423673e-09
6.8330012e-09
7.1464356e-09
7.3715825e-09
7.5028391e-09
7.5554265e-09
7.5606603e-09
7.5377049e-09
7.4984406e-09
7.4530483e-09
7.410801e-09
7.3809577e-09
7.3600236e-09
7.3312858e-09
7.310089e-09
7.3000268e-09
7.29817e-09
7.3041236e-09
7.3083616e-09
7.3174116e-09
7.3414097e-09
7.3699675e-09
7.3859238e-09
7.3940542e-09
7.3974206e-09
7.3982128e-09
7.3981802e-09
7.3985387e-09
7.4028565e-09
0.0012123334
0.0021493086
0.0017601615
0.00044007428
8.4065279e-08
3.9911054e-09
3.6386103e-09
3.6496391e-09
3.5759455e-09
3.6350428e-09
3.6501133e-09
3.7456634e-09
3.8232966e-09
3.9658554e-09
4.1214671e-09
4.3365396e-09
4.5964605e-09
4.9242296e-09
5.3133107e-09
5.7553313e-09
6.2152682e-09
6.651307e-09
7.0241173e-09
7.3143032e-09
7.5090646e-09
7.6084881e-09
7.63688e-09
7.6255607e-09
7.5883186e-09
7.5381849e-09
7.4846451e-09
7.4367541e-09
7.4027401e-09
7.378062e-09
7.3449005e-09
7.3207538e-09
7.308912e-09
7.3064196e-09
7.310207e-09
7.31327e-09
7.3231673e-09
7.3485012e-09
7.3737763e-09
7.3878186e-09
7.3948176e-09
7.3976667e-09
7.3982543e-09
7.3981436e-09
7.3979494e-09
7.4017467e-09
0.00120776
0.0020739917
0.0016025527
0.00034147481
3.3727455e-08
4.0312447e-09
3.6978877e-09
3.7115796e-09
3.6432062e-09
3.7069959e-09
3.7286799e-09
3.8311193e-09
3.9184342e-09
4.0715557e-09
4.2417221e-09
4.4735129e-09
4.7546227e-09
5.1054792e-09
5.516981e-09
5.9740345e-09
6.4365895e-09
6.8614145e-09
7.2137005e-09
7.477375e-09
7.6384723e-09
7.7061239e-09
7.7142331e-09
7.6857823e-09
7.6351189e-09
7.5748885e-09
7.5138697e-09
7.4608605e-09
7.4231484e-09
7.3948692e-09
7.3574322e-09
7.3306257e-09
7.3172682e-09
7.3142303e-09
7.3159219e-09
7.3179453e-09
7.3288305e-09
7.3550138e-09
7.377269e-09
7.3895415e-09
7.3954593e-09
7.3977711e-09
7.3981951e-09
7.3980346e-09
7.3973028e-09
7.4006126e-09
0.0012029395
0.0019884723
0.0014418275
0.00025133214
1.6453789e-08
4.0804841e-09
3.7600863e-09
3.7768254e-09
3.7142989e-09
3.7835006e-09
3.8125243e-09
3.9225501e-09
4.0204431e-09
4.185165e-09
4.3713045e-09
4.6213502e-09
4.9251706e-09
5.2999039e-09
5.7327936e-09
6.201629e-09
6.662154e-09
7.0717074e-09
7.4011625e-09
7.6334494e-09
7.7587601e-09
7.7975834e-09
7.7866842e-09
7.741488e-09
7.6782713e-09
7.6087022e-09
7.5408472e-09
7.4832443e-09
7.4422518e-09
7.4104903e-09
7.3689696e-09
7.3398234e-09
7.32508e-09
7.3213763e-09
7.3214331e-09
7.3224052e-09
7.3344361e-09
7.3608415e-09
7.3804194e-09
7.3911024e-09
7.3960389e-09
7.3978113e-09
7.3980329e-09
7.3978484e-09
7.3966164e-09
7.399461e-09
0.001200286
0.0019120648
0.001281619
0.00016982903
9.8863565e-09
4.1357004e-09
3.8255928e-09
3.8459853e-09
3.7899568e-09
3.8652341e-09
3.902281e-09
4.0205823e-09
4.1300774e-09
4.3075483e-09
4.5112084e-09
4.7811333e-09
5.1090748e-09
5.5079781e-09
5.9603963e-09
6.4369752e-09
6.8906152e-09
7.2812483e-09
7.5845981e-09
7.7809085e-09
7.8696422e-09
7.8844252e-09
7.8536776e-09
7.7927891e-09
7.7179362e-09
7.6397776e-09
7.5657097e-09
7.5040204e-09
7.4601246e-09
7.424983e-09
7.3796291e-09
7.3484426e-09
7.3323742e-09
7.3276603e-09
7.3268112e-09
7.3267361e-09
7.3398637e-09
7.3659742e-09
7.3831504e-09
7.3924292e-09
7.3965691e-09
7.3978413e-09
7.397792e-09
7.3975647e-09
7.3959086e-09
7.3982971e-09
0.0011985549
0.0018316234
0.001123349
9.8939313e-05
7.085823e-09
4.195491e-09
3.89521e-09
3.9199343e-09
3.8709407e-09
3.9527182e-09
3.9984613e-09
4.1257609e-09
4.2483015e-09
4.4396993e-09
4.6625061e-09
4.9540255e-09
5.3072967e-09
5.7300536e-09
6.1992363e-09
6.6788316e-09
7.1207531e-09
7.4892971e-09
7.7615385e-09
7.9184643e-09
7.9729658e-09
7.9657485e-09
7.9154497e-09
7.8398796e-09
7.7542965e-09
7.6682732e-09
7.5885912e-09
7.5233031e-09
7.476838e-09
7.4384165e-09
7.3895144e-09
7.356477e-09
7.3390884e-09
7.3333236e-09
7.3318694e-09
7.3310794e-09
7.345425e-09
7.3703451e-09
7.3854356e-09
7.3934806e-09
7.3969856e-09
7.3978808e-09
7.3976583e-09
7.3970946e-09
7.3951953e-09
7.3971216e-09
0.0011980345
0.0017467336
0.00097071181
4.6187698e-05
5.8077042e-09
4.2596484e-09
3.9697591e-09
3.9992345e-09
3.9576429e-09
4.0464518e-09
4.1016489e-09
4.2389958e-09
4.3759956e-09
4.5827321e-09
4.8263781e-09
5.1412059e-09
5.5206306e-09
5.9660932e-09
6.4483075e-09
6.9256903e-09
7.351296e-09
7.6944863e-09
7.9294614e-09
8.0452303e-09