/*--------------------------------*- C++ -*----------------------------------*\
  =========                 |
  \\      /  F ield         | OpenFOAM: The Open Source CFD Toolbox
   \\    /   O peration     | Website:  https://openfoam.org
    \\  /    A nd           | Version:  8
     \\/     M anipulation  |
\*---------------------------------------------------------------------------*/
FoamFile
{
    version     2.0;
    format      ascii;
    class       volScalarField;
    location    "0.129988";
    object      nuTilda;
}
// * * * * * * * * * * * * * * * * * * * * * * * * * * * * * * * * * * * * * //

dimensions      [0 2 -1 0 0 0 0];

internalField   nonuniform List<scalar> 
20000
(
0.0013027574
0.0033624534
0.0046525458
0.0052806419
0.0050850203
0.0038076008
0.0011748993
5.7939827e-05
1.0231916e-05
1.0146893e-05
1.0070411e-05
1.0073231e-05
1.0030824e-05
1.0037155e-05
1.001747e-05
1.0018975e-05
1.0010357e-05
1.0009029e-05
1.0005438e-05
1.0004233e-05
1.0002628e-05
1.0001807e-05
1.0001137e-05
1.0000875e-05
1.0000797e-05
1.0000675e-05
1.0000551e-05
1.0000473e-05
1.0000437e-05
1.0000456e-05
1.0000533e-05
1.0000608e-05
1.000066e-05
1.0000718e-05
1.0000883e-05
1.0000961e-05
1.0000982e-05
1.0001202e-05
1.0001396e-05
1.0001451e-05
1.000149e-05
1.0001546e-05
1.0001547e-05
1.0001532e-05
1.0001193e-05
1.0000995e-05
1.000075e-05
1.0000665e-05
1.0000824e-05
1.0001058e-05
0.001308632
0.0033499063
0.0046019554
0.0051875102
0.0049468609
0.0036133549
0.0010118563
4.4283738e-05
1.0197845e-05
1.0146833e-05
1.0069885e-05
1.0073024e-05
1.0030551e-05
1.0037041e-05
1.0017214e-05
1.0018821e-05
1.0010208e-05
1.0008925e-05
1.0005353e-05
1.0004164e-05
1.0002572e-05
1.0001759e-05
1.0001085e-05
1.0000812e-05
1.0000735e-05
1.0000615e-05
1.0000499e-05
1.0000441e-05
1.000043e-05
1.0000439e-05
1.0000501e-05
1.0000575e-05
1.0000633e-05
1.0000691e-05
1.0000864e-05
1.0000954e-05
1.0000971e-05
1.0001188e-05
1.0001387e-05
1.000144e-05
1.0001473e-05
1.0001529e-05
1.0001555e-05
1.0001577e-05
1.0001188e-05
1.0000986e-05
1.0000743e-05
1.0000602e-05
1.0000764e-05
1.0001066e-05
0.001304545
0.0033243402
0.0045462696
0.0050931649
0.0048094906
0.0034132489
0.00086220877
3.4021314e-05
1.0176512e-05
1.0146086e-05
1.0069361e-05
1.0072713e-05
1.0030308e-05
1.0036855e-05
1.0016972e-05
1.0018646e-05
1.0010062e-05
1.000882e-05
1.0005285e-05
1.0004123e-05
1.0002558e-05
1.0001767e-05
1.0001105e-05
1.0000814e-05
1.0000736e-05
1.0000616e-05
1.0000502e-05
1.0000442e-05
1.0000423e-05
1.0000428e-05
1.0000492e-05
1.0000572e-05
1.0000633e-05
1.0000684e-05
1.0000854e-05
1.0000949e-05
1.0000965e-05
1.0001175e-05
1.0001378e-05
1.0001432e-05
1.0001462e-05
1.0001516e-05
1.0001559e-05
1.0001614e-05
1.0001173e-05
1.000098e-05
1.000074e-05
1.0000587e-05
1.0000753e-05
1.0001044e-05
0.0013012143
0.0033002255
0.0044916399
0.0050016032
0.0046713563
0.0032057591
0.00072708459
2.6479198e-05
1.0162885e-05
1.0145327e-05
1.0068795e-05
1.0072333e-05
1.0030095e-05
1.0036639e-05
1.0016742e-05
1.0018456e-05
1.0009916e-05
1.0008703e-05
1.0005206e-05
1.0004064e-05
1.0002522e-05
1.0001747e-05
1.0001093e-05
1.0000809e-05
1.0000736e-05
1.0000617e-05
1.0000499e-05
1.0000436e-05
1.0000417e-05
1.0000422e-05
1.0000487e-05
1.0000568e-05
1.0000629e-05
1.0000678e-05
1.0000844e-05
1.0000944e-05
1.0000959e-05
1.0001162e-05
1.000137e-05
1.0001426e-05
1.0001454e-05
1.0001505e-05
1.0001558e-05
1.0001639e-05
1.0001163e-05
1.0000979e-05
1.0000741e-05
1.0000574e-05
1.0000737e-05
1.0001036e-05
0.0012978783
0.0032759864
0.0044365208
0.004909067
0.0045325377
0.002990419
0.00060399968
2.1044909e-05
1.0153993e-05
1.0144355e-05
1.0068192e-05
1.0071887e-05
1.0029915e-05
1.0036398e-05
1.0016522e-05
1.0018258e-05
1.0009773e-05
1.0008585e-05
1.000513e-05
1.0004009e-05
1.0002493e-05
1.0001736e-05
1.0001092e-05
1.0000811e-05
1.0000737e-05
1.0000618e-05
1.0000501e-05
1.0000433e-05
1.0000411e-05
1.0000415e-05
1.0000481e-05
1.0000565e-05
1.0000627e-05
1.0000672e-05
1.0000834e-05
1.000094e-05
1.0000954e-05
1.0001149e-05
1.0001361e-05
1.000142e-05
1.0001445e-05
1.0001492e-05
1.0001545e-05
1.0001643e-05
1.0001149e-05
1.0000973e-05
1.000074e-05
1.0000563e-05
1.0000718e-05
1.0001011e-05
0.0012945001
0.003251752
0.0043808291
0.0048158811
0.0043933504
0.0027678451
0.00049425024
1.7247262e-05
1.014803e-05
1.0143144e-05
1.0067555e-05
1.0071373e-05
1.0029734e-05
1.0036128e-05
1.0016315e-05
1.001805e-05
1.0009633e-05
1.0008461e-05
1.0005054e-05
1.000395e-05
1.0002462e-05
1.0001721e-05
1.0001089e-05
1.000081e-05
1.0000738e-05
1.000062e-05
1.0000502e-05
1.000043e-05
1.0000406e-05
1.0000409e-05
1.0000475e-05
1.0000562e-05
1.0000623e-05
1.0000667e-05
1.0000824e-05
1.0000935e-05
1.0000948e-05
1.0001137e-05
1.0001352e-05
1.0001414e-05
1.0001437e-05
1.000148e-05
1.0001524e-05
1.0001621e-05
1.0001138e-05
1.0000966e-05
1.0000738e-05
1.0000557e-05
1.0000701e-05
1.0000984e-05
0.0012909995
0.0032275735
0.0043242374
0.0047216138
0.0042537221
0.0025391198
0.00039810439
1.4672136e-05
1.0143834e-05
1.0141739e-05
1.0066889e-05
1.0070794e-05
1.0029543e-05
1.0035831e-05
1.0016119e-05
1.0017833e-05
1.0009496e-05
1.0008335e-05
1.0004978e-05
1.000389e-05
1.0002431e-05
1.0001707e-05
1.0001086e-05
1.000081e-05
1.0000739e-05
1.0000621e-05
1.0000504e-05
1.0000428e-05
1.0000402e-05
1.0000404e-05
1.000047e-05
1.0000559e-05
1.000062e-05
1.0000661e-05
1.0000813e-05
1.000093e-05
1.0000943e-05
1.0001125e-05
1.0001342e-05
1.0001408e-05
1.000143e-05
1.0001469e-05
1.0001498e-05
1.0001536e-05
1.000113e-05
1.0000956e-05
1.0000731e-05
1.0000551e-05
1.0000685e-05
1.0000952e-05
0.0012877298
0.0032034617
0.0042670828
0.0046258001
0.0041133575
0.0023063195
0.00031559866
1.2979037e-05
1.0140708e-05
1.0140113e-05
1.0066195e-05
1.0070153e-05
1.0029343e-05
1.0035507e-05
1.0015936e-05
1.0017606e-05
1.0009363e-05
1.0008204e-05
1.0004902e-05
1.0003828e-05
1.0002399e-05
1.0001691e-05
1.0001083e-05
1.0000809e-05
1.0000739e-05
1.0000622e-05
1.0000505e-05
1.0000426e-05
1.0000398e-05
1.0000399e-05
1.0000466e-05
1.0000556e-05
1.0000617e-05
1.0000656e-05
1.0000803e-05
1.0000925e-05
1.0000938e-05
1.0001114e-05
1.0001332e-05
1.0001403e-05
1.0001423e-05
1.0001457e-05
1.0001473e-05
1.0001437e-05
1.0001122e-05
1.0000944e-05
1.0000719e-05
1.0000544e-05
1.0000669e-05
1.0000918e-05
0.0012844909
0.0031793305
0.0042092657
0.0045277326
0.0039713906
0.0020729379
0.00024632256
1.1898534e-05
1.0138208e-05
1.0138353e-05
1.0065478e-05
1.0069452e-05
1.0029136e-05
1.0035156e-05
1.0015764e-05
1.0017371e-05
1.0009232e-05
1.0008071e-05
1.0004826e-05
1.0003766e-05
1.0002368e-05
1.0001675e-05
1.000108e-05
1.0000809e-05
1.000074e-05
1.0000623e-05
1.0000507e-05
1.0000425e-05
1.0000395e-05
1.0000395e-05
1.0000461e-05
1.0000552e-05
1.0000613e-05
1.0000651e-05
1.0000792e-05
1.0000919e-05
1.0000932e-05
1.0001103e-05
1.0001322e-05
1.0001398e-05
1.0001416e-05
1.0001446e-05
1.0001455e-05
1.0001408e-05
1.0001111e-05
1.0000931e-05
1.0000702e-05
1.0000536e-05
1.0000653e-05
1.0000884e-05
0.0012812505
0.0031553947
0.0041507935
0.0044268033
0.0038265022
0.0018472106
0.00018943324
1.122772e-05
1.013607e-05
1.0136499e-05
1.006474e-05
1.0068692e-05
1.0028924e-05
1.0034779e-05
1.0015605e-05
1.0017126e-05
1.0009105e-05
1.0007934e-05
1.0004751e-05
1.0003702e-05
1.0002336e-05
1.0001659e-05
1.0001077e-05
1.0000809e-05
1.000074e-05
1.0000624e-05
1.0000509e-05
1.0000424e-05
1.0000392e-05
1.0000392e-05
1.0000458e-05
1.0000547e-05
1.0000609e-05
1.0000646e-05
1.0000782e-05
1.0000914e-05
1.0000927e-05
1.0001092e-05
1.0001312e-05
1.0001393e-05
1.000141e-05
1.0001434e-05
1.0001441e-05
1.0001394e-05
1.0001097e-05
1.0000917e-05
1.0000681e-05
1.0000523e-05
1.0000638e-05
1.0000849e-05
0.0012782709
0.0031319918
0.0040923133
0.0043229858
0.0036776245
0.0016300543
0.0001435576
1.0821258e-05
1.0134144e-05
1.0134557e-05
1.0063985e-05
1.0067878e-05
1.0028708e-05
1.0034378e-05
1.0015457e-05
1.0016873e-05
1.0008982e-05
1.0007795e-05
1.0004677e-05
1.0003637e-05
1.0002305e-05
1.0001642e-05
1.0001074e-05
1.0000809e-05
1.000074e-05
1.0000625e-05
1.0000511e-05
1.0000424e-05
1.0000389e-05
1.0000389e-05
1.0000454e-05
1.0000543e-05
1.0000605e-05
1.0000641e-05
1.0000771e-05
1.0000908e-05
1.0000921e-05
1.0001083e-05
1.0001302e-05
1.0001388e-05
1.0001404e-05
1.0001422e-05
1.0001424e-05
1.0001342e-05
1.0001084e-05
1.0000902e-05
1.0000656e-05
1.0000508e-05
1.0000624e-05
1.0000815e-05
0.0012756486
0.0031091444
0.0040343795
0.0042184965
0.0035244037
0.0014237408
0.00010734541
1.058006e-05
1.013234e-05
1.0132536e-05
1.0063215e-05
1.0067014e-05
1.0028488e-05
1.0033954e-05
1.001532e-05
1.0016613e-05
1.0008862e-05
1.0007654e-05
1.0004603e-05
1.0003572e-05
1.0002274e-05
1.0001625e-05
1.0001071e-05
1.0000809e-05
1.0000739e-05
1.0000626e-05
1.0000513e-05
1.0000424e-05
1.0000387e-05
1.0000386e-05
1.0000451e-05
1.0000539e-05
1.0000601e-05
1.0000636e-05
1.0000761e-05
1.0000902e-05
1.0000916e-05
1.0001073e-05
1.0001293e-05
1.0001383e-05
1.0001398e-05
1.0001409e-05
1.0001411e-05
1.0001273e-05
1.0001074e-05
1.0000886e-05
1.0000632e-05
1.0000493e-05
1.0000613e-05
1.0000782e-05
0.0012733404
0.0030867551
0.0039768972
0.0041182153
0.0033629645
0.0012294374
7.9259439e-05
1.0438813e-05
1.0130604e-05
1.0130435e-05
1.0062433e-05
1.00661e-05
1.0028266e-05
1.0033507e-05
1.0015194e-05
1.0016346e-05
1.0008746e-05
1.000751e-05
1.000453e-05
1.0003507e-05
1.0002243e-05
1.0001608e-05
1.0001068e-05
1.0000809e-05
1.0000739e-05
1.0000626e-05
1.0000515e-05
1.0000424e-05
1.0000386e-05
1.0000384e-05
1.0000448e-05
1.0000534e-05
1.0000597e-05
1.0000631e-05
1.000075e-05
1.0000896e-05
1.000091e-05
1.0001064e-05
1.0001283e-05
1.0001378e-05
1.0001392e-05
1.0001396e-05
1.0001399e-05
1.0001239e-05
1.0001063e-05
1.000087e-05
1.0000609e-05
1.000048e-05
1.0000604e-05
1.0000749e-05
0.0012711297
0.0030643291
0.0039193128
0.0040100866
0.0031919981
0.0010487017
5.8033804e-05
1.035743e-05
1.0128911e-05
1.0128277e-05
1.0061642e-05
1.0065146e-05
1.0028043e-05
1.0033041e-05
1.0015078e-05
1.0016072e-05
1.0008633e-05
1.0007365e-05
1.0004458e-05
1.0003441e-05
1.0002212e-05
1.0001591e-05
1.0001066e-05
1.0000808e-05
1.0000738e-05
1.0000627e-05
1.0000517e-05
1.0000425e-05
1.0000385e-05
1.0000383e-05
1.0000445e-05
1.0000529e-05
1.0000593e-05
1.0000626e-05
1.0000739e-05
1.000089e-05
1.0000905e-05
1.0001056e-05
1.0001274e-05
1.0001372e-05
1.0001385e-05
1.0001384e-05
1.0001387e-05
1.0001232e-05
1.0001052e-05
1.0000855e-05
1.0000589e-05
1.0000467e-05
1.0000593e-05
1.0000717e-05
0.0012689209
0.0030415487
0.0038614321
0.0039014231
0.0030117708
0.00088298794
4.2438049e-05
1.0310387e-05
1.0127243e-05
1.0126058e-05
1.0060844e-05
1.006415e-05
1.0027819e-05
1.0032556e-05
1.0014971e-05
1.0015792e-05
1.0008523e-05
1.0007219e-05
1.0004387e-05
1.0003375e-05
1.0002181e-05
1.0001574e-05
1.0001063e-05
1.0000808e-05
1.0000738e-05
1.0000627e-05
1.0000518e-05
1.0000426e-05
1.0000384e-05
1.0000382e-05
1.0000441e-05
1.0000524e-05
1.0000589e-05
1.0000622e-05
1.0000728e-05
1.0000883e-05
1.0000899e-05
1.0001047e-05
1.0001266e-05
1.0001367e-05
1.000138e-05
1.0001372e-05
1.0001377e-05
1.0001226e-05
1.0001043e-05
1.000084e-05
1.0000572e-05
1.0000457e-05
1.0000581e-05
1.0000686e-05
0.0012666976
0.0030179949
0.0038000167
0.0037895401
0.0028212806
0.00073519924
3.1385104e-05
1.0282651e-05
1.0125591e-05
1.0123783e-05
1.0060042e-05
1.0063118e-05
1.0027596e-05
1.0032054e-05
1.0014874e-05
1.0015508e-05
1.0008416e-05
1.0007072e-05
1.0004317e-05
1.0003309e-05
1.0002151e-05
1.0001556e-05
1.000106e-05
1.0000808e-05
1.0000737e-05
1.0000627e-05
1.0000519e-05
1.0000427e-05
1.0000384e-05
1.000038e-05
1.0000437e-05
1.0000519e-05
1.0000584e-05
1.0000617e-05
1.0000717e-05
1.0000876e-05
1.0000893e-05
1.000104e-05
1.0001257e-05
1.0001362e-05
1.0001375e-05
1.0001361e-05
1.0001368e-05
1.0001238e-05
1.0001033e-05
1.0000827e-05
1.000056e-05
1.0000447e-05
1.000057e-05
1.0000656e-05
0.0012646301
0.0029941974
0.0037381752
0.0036771254
0.0026213553
0.00060551362
2.381364e-05
1.0265591e-05
1.0123944e-05
1.012145e-05
1.0059239e-05
1.0062056e-05
1.0027374e-05
1.0031537e-05
1.0014785e-05
1.0015219e-05
1.0008312e-05
1.0006925e-05
1.0004247e-05
1.0003244e-05
1.0002122e-05
1.0001539e-05
1.0001058e-05
1.0000808e-05
1.0000737e-05
1.0000627e-05
1.0000519e-05
1.0000428e-05
1.0000384e-05
1.0000379e-05
1.0000433e-05
1.0000514e-05
1.000058e-05
1.0000612e-05
1.0000706e-05
1.0000869e-05
1.0000888e-05
1.0001032e-05
1.0001249e-05
1.0001357e-05
1.0001371e-05
1.0001353e-05
1.000136e-05
1.0001264e-05
1.0001023e-05
1.0000814e-05
1.0000551e-05
1.000044e-05
1.0000561e-05
1.0000629e-05
0.0012627542
0.0029694676
0.0036744295
0.0035628264
0.0024126215
0.00048851582
1.8654083e-05
1.0254377e-05
1.0122307e-05
1.0119035e-05
1.0058435e-05
1.0060967e-05
1.0027153e-05
1.0031008e-05
1.0014703e-05
1.0014928e-05
1.0008211e-05
1.0006778e-05
1.0004178e-05
1.0003179e-05
1.0002093e-05
1.0001523e-05
1.0001055e-05
1.0000808e-05
1.0000736e-05
1.0000627e-05
1.0000519e-05
1.0000428e-05
1.0000383e-05
1.0000377e-05
1.0000429e-05
1.0000509e-05
1.0000576e-05
1.0000608e-05
1.0000695e-05
1.0000862e-05
1.0000882e-05
1.0001024e-05
1.000124e-05
1.0001351e-05
1.0001367e-05
1.0001348e-05
1.0001347e-05
1.0001294e-05
1.0001013e-05
1.0000803e-05
1.0000543e-05
1.0000434e-05
1.0000551e-05
1.0000605e-05
0.0012609423
0.0029433136
0.0036076244
0.0034382615
0.0021973243
0.00038651696
1.5283106e-05
1.0246417e-05
1.0120675e-05
1.0116598e-05
1.0057634e-05
1.0059859e-05
1.0026935e-05
1.0030469e-05
1.0014628e-05
1.0014635e-05
1.0008111e-05
1.0006631e-05
1.000411e-05
1.0003115e-05
1.0002064e-05
1.0001506e-05
1.0001052e-05
1.0000807e-05
1.0000735e-05
1.0000626e-05
1.0000519e-05
1.0000428e-05
1.0000381e-05
1.0000374e-05
1.0000425e-05
1.0000504e-05
1.0000571e-05
1.0000603e-05
1.0000684e-05
1.0000854e-05
1.0000876e-05
1.0001016e-05
1.0001231e-05
1.0001346e-05
1.0001364e-05
1.0001344e-05
1.0001337e-05
1.0001318e-05
1.0001002e-05
1.0000792e-05
1.0000537e-05
1.000043e-05
1.0000541e-05
1.0000585e-05
0.0012590247
0.0029155156
0.0035384952
0.0033125816
0.0019791516
0.00029934425
1.3161421e-05
1.0240182e-05
1.0119043e-05
1.0114138e-05
1.0056837e-05
1.0058733e-05
1.002672e-05
1.0029921e-05
1.0014557e-05
1.0014339e-05
1.0008014e-05
1.0006486e-05
1.0004042e-05
1.0003051e-05
1.0002036e-05
1.000149e-05
1.000105e-05
1.0000807e-05
1.0000734e-05
1.0000625e-05
1.0000518e-05
1.0000427e-05
1.000038e-05
1.0000372e-05
1.0000421e-05
1.0000498e-05
1.0000567e-05
1.0000599e-05
1.0000672e-05
1.0000846e-05
1.000087e-05
1.0001009e-05
1.0001223e-05
1.000134e-05
1.0001359e-05
1.0001342e-05
1.000134e-05
1.000134e-05
1.0000991e-05
1.0000781e-05
1.000053e-05
1.0000427e-05
1.000053e-05
1.0000567e-05
0.0012569398
0.0028858232
0.0034631641
0.0031847042
0.0017604446
0.00022658975
1.1879248e-05
1.0234765e-05
1.0117409e-05
1.0111664e-05
1.0056045e-05
1.0057593e-05
1.0026509e-05
1.0029364e-05
1.0014492e-05
1.0014024e-05
1.0007918e-05
1.0006342e-05
1.0003975e-05
1.0002989e-05
1.0002009e-05
1.0001474e-05
1.0001047e-05
1.0000807e-05
1.0000732e-05
1.0000624e-05
1.0000517e-05
1.0000426e-05
1.0000378e-05
1.0000369e-05
1.0000416e-05
1.0000493e-05
1.0000563e-05
1.0000595e-05
1.0000661e-05
1.0000838e-05
1.0000864e-05
1.0001001e-05
1.0001213e-05
1.0001334e-05
1.0001354e-05
1.0001339e-05
1.0001362e-05
1.0001358e-05
1.0000979e-05
1.000077e-05
1.0000521e-05
1.0000423e-05
1.0000518e-05
1.0000554e-05
0.0012548837
0.0028560599
0.0033852728
0.0030532804
0.0015445888
0.0001675366
1.1132937e-05
1.0229587e-05
1.0115773e-05
1.0109183e-05
1.0055261e-05
1.0056443e-05
1.0026302e-05
1.00288e-05
1.001443e-05
1.0013702e-05
1.0007823e-05
1.00062e-05
1.0003909e-05
1.0002928e-05
1.0001982e-05
1.0001459e-05
1.0001044e-05
1.0000807e-05
1.0000731e-05
1.0000622e-05
1.0000515e-05
1.0000424e-05
1.0000376e-05
1.0000367e-05
1.0000412e-05
1.0000488e-05
1.0000558e-05
1.000059e-05
1.0000649e-05
1.000083e-05
1.0000858e-05
1.0000993e-05
1.0001204e-05
1.0001328e-05
1.0001347e-05
1.0001335e-05
1.0001387e-05
1.0001366e-05
1.0000966e-05
1.000076e-05
1.000051e-05
1.0000418e-05
1.0000506e-05
1.0000543e-05
0.0012528411
0.0028258633
0.0033092828
0.0029155223
0.001334865
0.00012088799
1.0714964e-05
1.0224304e-05
1.0114127e-05
1.010669e-05
1.0054484e-05
1.0055285e-05
1.00261e-05
1.0028231e-05
1.0014371e-05
1.0013387e-05
1.0007729e-05
1.0006059e-05
1.0003844e-05
1.0002869e-05
1.0001956e-05
1.0001443e-05
1.0001041e-05
1.0000807e-05
1.000073e-05
1.000062e-05
1.0000513e-05
1.0000422e-05
1.0000373e-05
1.0000364e-05
1.0000407e-05
1.0000483e-05
1.0000554e-05
1.0000586e-05
1.0000638e-05
1.0000821e-05
1.0000852e-05
1.0000985e-05
1.0001194e-05
1.0001321e-05
1.000134e-05
1.0001329e-05
1.0001401e-05
1.0001335e-05
1.0000954e-05
1.0000749e-05
1.0000498e-05
1.0000412e-05
1.0000494e-05
1.0000536e-05
0.0012506086
0.0027939286
0.0032291108
0.0027694574
0.0011355568
8.537624e-05
1.0489787e-05
1.0219175e-05
1.0112463e-05
1.0104195e-05
1.0053717e-05
1.0054126e-05
1.0025904e-05
1.0027662e-05
1.0014314e-05
1.0013078e-05
1.0007636e-05
1.0005921e-05
1.000378e-05
1.0002811e-05
1.000193e-05
1.0001428e-05
1.0001038e-05
1.0000807e-05
1.0000728e-05
1.0000618e-05
1.0000511e-05
1.000042e-05
1.0000371e-05
1.000036e-05
1.0000403e-05
1.0000477e-05
1.0000549e-05
1.0000582e-05
1.0000627e-05
1.0000811e-05
1.0000845e-05
1.0000977e-05
1.0001183e-05
1.0001314e-05
1.0001333e-05
1.0001319e-05
1.0001403e-05
1.0001266e-05
1.0000941e-05
1.0000738e-05
1.0000486e-05
1.0000406e-05
1.0000481e-05
1.0000531e-05
0.0012482974
0.0027610745
0.003145959
0.002615263
0.0009503839
5.9276274e-05
1.0371838e-05
1.0214712e-05
1.0110756e-05
1.01017e-05
1.0052961e-05
1.0052966e-05
1.0025714e-05
1.0027093e-05
1.0014258e-05
1.0012778e-05
1.0007543e-05
1.0005786e-05
1.0003717e-05
1.0002754e-05
1.0001905e-05
1.0001414e-05
1.0001035e-05
1.0000807e-05
1.0000726e-05
1.0000616e-05
1.0000508e-05
1.0000418e-05
1.0000368e-05
1.0000357e-05
1.0000398e-05
1.0000472e-05
1.0000545e-05
1.0000577e-05
1.0000617e-05
1.0000801e-05
1.0000838e-05
1.0000969e-05
1.0001173e-05
1.0001307e-05
1.0001327e-05
1.0001308e-05
1.0001394e-05
1.0001218e-05
1.0000928e-05
1.0000727e-05
1.0000476e-05
1.0000398e-05
1.0000468e-05
1.000053e-05
0.0012460314
0.0027277453
0.0030599938
0.0024563381
0.00078264618
4.1073861e-05
1.0310102e-05
1.0210105e-05
1.0108948e-05
1.0099222e-05
1.0052214e-05
1.0051812e-05
1.002553e-05
1.0026527e-05
1.0014201e-05
1.0012496e-05
1.0007453e-05
1.0005653e-05
1.0003654e-05
1.0002699e-05
1.000188e-05
1.0001399e-05
1.0001032e-05
1.0000807e-05
1.0000724e-05
1.0000613e-05
1.0000505e-05
1.0000415e-05
1.0000365e-05
1.0000353e-05
1.0000393e-05
1.0000467e-05
1.000054e-05
1.0000572e-05
1.0000606e-05
1.0000791e-05
1.000083e-05
1.0000961e-05
1.0001161e-05
1.00013e-05
1.0001321e-05
1.0001297e-05
1.0001361e-05
1.0001189e-05
1.0000914e-05
1.0000714e-05
1.0000469e-05
1.000039e-05
1.0000457e-05
1.0000529e-05
0.0012439153
0.0026946311
0.0029728795
0.0022871677
0.00063326516
2.9064989e-05
1.0276985e-05
1.0205495e-05
1.0107067e-05
1.0096755e-05
1.0051475e-05
1.0050667e-05
1.0025353e-05
1.0025966e-05
1.0014145e-05
1.0012227e-05
1.0007363e-05
1.0005524e-05
1.0003592e-05
1.0002646e-05
1.0001856e-05
1.0001385e-05
1.0001028e-05
1.0000808e-05
1.0000722e-05
1.0000611e-05
1.0000502e-05
1.0000412e-05
1.0000361e-05
1.000035e-05
1.0000388e-05
1.0000461e-05
1.0000535e-05
1.0000566e-05
1.0000596e-05
1.0000781e-05
1.0000822e-05
1.0000952e-05
1.000115e-05
1.0001293e-05
1.0001315e-05
1.0001286e-05
1.0001323e-05
1.000116e-05
1.0000901e-05
1.00007e-05
1.0000465e-05
1.0000381e-05
1.0000446e-05
1.0000527e-05
0.0012420136
0.0026616447
0.0028940922
0.0021083998
0.00050756837
2.1766291e-05
1.0257846e-05
1.0200826e-05
1.0105121e-05
1.0094302e-05
1.0050734e-05
1.0049523e-05
1.0025183e-05
1.0025413e-05
1.0014088e-05
1.0011963e-05
1.0007273e-05
1.0005399e-05
1.0003532e-05
1.0002595e-05
1.0001832e-05
1.0001371e-05
1.0001025e-05
1.0000808e-05
1.000072e-05
1.0000608e-05
1.0000498e-05
1.0000408e-05
1.0000358e-05
1.0000346e-05
1.0000384e-05
1.0000456e-05
1.000053e-05
1.0000561e-05
1.0000586e-05
1.000077e-05
1.0000813e-05
1.0000943e-05
1.0001138e-05
1.0001285e-05
1.000131e-05
1.0001277e-05
1.0001297e-05
1.0001131e-05
1.000089e-05
1.0000684e-05
1.0000464e-05
1.000037e-05
1.0000435e-05
1.0000524e-05
0.0012400508
0.0026262868
0.0028066891
0.001919497
0.00039877704
1.7154939e-05
1.0245367e-05
1.0196111e-05
1.0103132e-05
1.0091883e-05
1.0049995e-05
1.0048358e-05
1.0025021e-05
1.0024868e-05
1.0014029e-05
1.0011705e-05
1.0007182e-05
1.0005277e-05
1.0003473e-05
1.0002545e-05
1.0001809e-05
1.0001357e-05
1.0001022e-05
1.0000809e-05
1.0000718e-05
1.0000604e-05
1.0000494e-05
1.0000404e-05
1.0000354e-05
1.0000343e-05
1.0000379e-05
1.0000451e-05
1.0000525e-05
1.0000555e-05
1.0000576e-05
1.0000758e-05
1.0000804e-05
1.0000934e-05
1.0001126e-05
1.0001278e-05
1.0001305e-05
1.0001269e-05
1.0001273e-05
1.0001104e-05
1.000088e-05
1.0000667e-05
1.0000462e-05
1.0000361e-05
1.0000423e-05
1.0000519e-05
0.0012382594
0.0025899581
0.0027194266
0.0017242083
0.00030682945
1.4291887e-05
1.0236348e-05
1.0191346e-05
1.0101099e-05
1.0089496e-05
1.0049255e-05
1.0047212e-05
1.0024863e-05
1.0024331e-05
1.0013968e-05
1.0011454e-05
1.0007092e-05
1.0005159e-05
1.0003414e-05
1.0002496e-05
1.0001785e-05
1.0001343e-05
1.0001018e-05
1.000081e-05
1.0000716e-05
1.00006e-05
1.000049e-05
1.0000401e-05
1.0000351e-05
1.0000339e-05
1.0000374e-05
1.0000446e-05
1.000052e-05
1.0000549e-05
1.0000566e-05
1.0000747e-05
1.0000795e-05
1.0000925e-05
1.0001114e-05
1.0001269e-05
1.0001301e-05
1.0001261e-05
1.0001246e-05
1.0001083e-05
1.0000873e-05
1.0000651e-05
1.0000459e-05
1.0000351e-05
1.000041e-05
1.0000514e-05
0.0012365811
0.0025518582
0.0026285991
0.0015258707
0.00023101274
1.2581371e-05
1.022919e-05
1.0186536e-05
1.0099029e-05
1.008715e-05
1.0048517e-05
1.0046084e-05
1.0024713e-05
1.0023758e-05
1.0013904e-05
1.001121e-05
1.0007001e-05
1.0005046e-05
1.0003357e-05
1.000245e-05
1.0001762e-05
1.000133e-05
1.0001014e-05
1.0000811e-05
1.0000713e-05
1.0000596e-05
1.0000485e-05
1.0000398e-05
1.0000349e-05
1.0000336e-05
1.0000369e-05
1.0000441e-05
1.0000514e-05
1.0000542e-05
1.0000556e-05
1.0000734e-05
1.0000785e-05
1.0000915e-05
1.00011e-05
1.000126e-05
1.0001297e-05
1.0001254e-05
1.0001229e-05
1.0001065e-05
1.0000867e-05
1.0000636e-05
1.0000451e-05
1.0000341e-05
1.0000394e-05
1.0000508e-05
0.0012349357
0.0025107961
0.0025345761
0.0013339844
0.00017029979
1.1596119e-05
1.0223033e-05
1.0181689e-05
1.009693e-05
1.0084868e-05
1.0047783e-05
1.0044979e-05
1.0024572e-05
1.0023205e-05
1.0013836e-05
1.0010975e-05
1.0006911e-05
1.0004936e-05
1.00033e-05
1.0002404e-05
1.0001738e-05
1.0001316e-05
1.0001011e-05
1.0000813e-05
1.000071e-05
1.0000591e-05
1.0000481e-05
1.0000395e-05
1.0000347e-05
1.0000333e-05
1.0000364e-05
1.0000435e-05
1.0000509e-05
1.0000535e-05
1.0000547e-05
1.0000722e-05
1.0000776e-05
1.0000905e-05
1.0001087e-05
1.000125e-05
1.0001291e-05
1.0001247e-05
1.0001218e-05
1.0001056e-05
1.0000862e-05
1.0000625e-05
1.0000437e-05
1.0000328e-05
1.0000377e-05
1.0000501e-05
0.0012329402
0.0024637914
0.0024353554
0.0011538865
0.00012294712
1.1046101e-05
1.0217409e-05
1.017681e-05
1.009481e-05
1.0082624e-05
1.0047057e-05
1.00439e-05
1.0024441e-05
1.0022672e-05
1.0013766e-05
1.0010749e-05
1.000682e-05
1.0004831e-05
1.0003244e-05
1.0002359e-05
1.0001714e-05
1.0001302e-05
1.0001007e-05
1.0000815e-05
1.0000706e-05
1.0000586e-05
1.0000478e-05
1.0000393e-05
1.0000344e-05
1.0000329e-05
1.0000359e-05
1.000043e-05
1.0000503e-05
1.0000528e-05
1.0000538e-05
1.0000709e-05
1.0000766e-05
1.0000895e-05
1.0001073e-05
1.000124e-05
1.0001284e-05
1.0001239e-05
1.0001207e-05
1.0001044e-05
1.0000856e-05
1.0000618e-05
1.0000421e-05
1.0000314e-05
1.0000358e-05
1.0000494e-05
0.0012304116
0.0024114729
0.0023292295
0.00098502486
8.7162423e-05
1.0747651e-05
1.0212078e-05
1.0171905e-05
1.0092674e-05
1.0080409e-05
1.004634e-05
1.0042849e-05
1.0024319e-05
1.0022164e-05
1.0013693e-05
1.0010531e-05
1.000673e-05
1.000473e-05
1.0003189e-05
1.0002315e-05
1.000169e-05
1.0001289e-05
1.0001003e-05
1.0000816e-05
1.0000702e-05
1.0000582e-05
1.0000475e-05
1.0000391e-05
1.0000341e-05
1.0000325e-05
1.0000353e-05
1.0000424e-05
1.0000497e-05
1.000052e-05
1.000053e-05
1.0000696e-05
1.0000756e-05
1.0000885e-05
1.0001059e-05
1.0001229e-05
1.0001277e-05
1.0001231e-05
1.0001195e-05
1.0001033e-05
1.000085e-05
1.0000614e-05
1.0000405e-05
1.00003e-05
1.000034e-05
1.0000485e-05
0.0012270926
0.0023528204
0.0022097075
0.00082882688
6.0939196e-05
1.0587771e-05
1.0206908e-05
1.016698e-05
1.0090521e-05
1.007823e-05
1.0045633e-05
1.0041828e-05
1.0024206e-05
1.0021685e-05
1.0013618e-05
1.0010323e-05
1.0006641e-05
1.0004634e-05
1.0003135e-05
1.0002272e-05
1.0001666e-05
1.0001275e-05
1.0001e-05
1.0000817e-05
1.0000699e-05
1.000058e-05
1.0000474e-05
1.0000389e-05
1.0000337e-05
1.0000321e-05
1.0000348e-05
1.0000418e-05
1.0000491e-05
1.0000511e-05
1.0000521e-05
1.0000683e-05
1.0000746e-05
1.0000874e-05
1.0001044e-05
1.0001219e-05
1.000127e-05
1.0001222e-05
1.0001176e-05
1.000102e-05
1.0000841e-05
1.0000612e-05
1.0000393e-05
1.0000285e-05
1.0000322e-05
1.0000475e-05
0.0012231809
0.002288662
0.0020733437
0.00068741431
4.2496448e-05
1.0501703e-05
1.0201853e-05
1.016204e-05
1.008836e-05
1.0076085e-05
1.0044939e-05
1.0040842e-05
1.0024101e-05
1.0021256e-05
1.0013538e-05
1.0010125e-05
1.0006552e-05
1.0004541e-05
1.000308e-05
1.0002229e-05
1.0001641e-05
1.0001261e-05
1.0000997e-05
1.0000818e-05
1.0000696e-05
1.0000579e-05
1.0000472e-05
1.0000384e-05
1.0000332e-05
1.0000317e-05
1.0000343e-05
1.0000412e-05
1.0000485e-05
1.0000502e-05
1.0000512e-05
1.0000669e-05
1.0000735e-05
1.0000864e-05
1.0001028e-05
1.0001208e-05
1.0001263e-05
1.0001214e-05
1.0001151e-05
1.0001008e-05
1.000083e-05
1.000061e-05
1.0000384e-05
1.0000271e-05
1.0000305e-05
1.0000464e-05
0.0012190388
0.0022208165
0.0019227189
0.00056282664
3.0188044e-05
1.045364e-05
1.0196875e-05
1.0157094e-05
1.0086198e-05
1.007398e-05
1.004426e-05
1.0039893e-05
1.0024008e-05
1.0020841e-05
1.0013454e-05
1.0009937e-05
1.0006463e-05
1.0004451e-05
1.0003026e-05
1.0002187e-05
1.0001615e-05
1.0001248e-05
1.0000995e-05
1.0000819e-05
1.0000696e-05
1.0000579e-05
1.0000469e-05
1.0000379e-05
1.0000328e-05
1.0000312e-05
1.0000338e-05
1.0000406e-05
1.0000478e-05
1.0000492e-05
1.0000502e-05
1.0000654e-05
1.0000724e-05
1.0000853e-05
1.0001011e-05
1.0001197e-05
1.0001255e-05
1.0001207e-05
1.0001125e-05
1.0000996e-05
1.0000818e-05
1.0000607e-05
1.0000376e-05
1.0000259e-05
1.0000291e-05
1.0000452e-05
0.0012147897
0.0021500957
0.0017612853
0.00045458318
2.2475467e-05
1.0424532e-05
1.0191923e-05
1.0152149e-05
1.0084041e-05
1.0071915e-05
1.0043599e-05
1.0038987e-05
1.0023927e-05
1.0020447e-05
1.0013367e-05
1.0009758e-05
1.0006376e-05
1.0004365e-05
1.0002971e-05
1.0002144e-05
1.0001589e-05
1.0001235e-05
1.0000994e-05
1.0000821e-05
1.0000697e-05
1.0000578e-05
1.0000464e-05
1.0000373e-05
1.0000323e-05
1.0000308e-05
1.0000334e-05
1.0000399e-05
1.0000471e-05
1.0000481e-05
1.0000491e-05
1.0000638e-05
1.0000712e-05
1.0000841e-05
1.0000993e-05
1.0001186e-05
1.0001247e-05
1.0001202e-05
1.0001102e-05
1.0000984e-05
1.0000806e-05
1.0000601e-05
1.000037e-05
1.0000248e-05
1.0000279e-05
1.0000437e-05
0.0012101898
0.0020748219
0.0016038757
0.00036303626
1.7799708e-05
1.040454e-05
1.0186952e-05
1.0147209e-05
1.0081891e-05
1.0069895e-05
1.0042959e-05
1.0038141e-05
1.0023857e-05
1.0020074e-05
1.0013276e-05
1.000959e-05
1.0006289e-05
1.0004281e-05
1.0002915e-05
1.0002101e-05
1.0001563e-05
1.0001222e-05
1.0000994e-05
1.0000824e-05
1.0000699e-05
1.0000577e-05
1.0000457e-05
1.0000367e-05
1.0000317e-05
1.0000303e-05
1.0000329e-05
1.0000391e-05
1.0000464e-05
1.0000469e-05
1.000048e-05
1.000062e-05
1.0000699e-05
1.000083e-05
1.0000975e-05
1.0001175e-05
1.000124e-05
1.0001198e-05
1.0001083e-05
1.0000972e-05
1.0000794e-05
1.0000595e-05
1.0000364e-05
1.0000239e-05
1.0000268e-05
1.0000422e-05
0.0012053427
0.0019893588
0.0014434202
0.00028376374
1.4805087e-05
1.0388799e-05
1.0181933e-05
1.0142284e-05
1.0079756e-05
1.0067922e-05
1.004234e-05
1.0037332e-05
1.0023801e-05
1.0019722e-05
1.0013183e-05
1.0009431e-05
1.0006202e-05
1.0004199e-05
1.0002859e-05
1.0002057e-05
1.0001537e-05
1.000121e-05
1.0000994e-05
1.0000828e-05
1.0000702e-05
1.0000572e-05
1.000045e-05
1.0000361e-05
1.0000312e-05
1.0000298e-05
1.0000325e-05
1.0000384e-05
1.0000456e-05
1.0000457e-05
1.0000467e-05
1.00006e-05
1.0000684e-05
1.0000818e-05
1.0000956e-05
1.0001164e-05
1.0001231e-05
1.0001182e-05
1.0001068e-05
1.000096e-05
1.0000784e-05
1.0000583e-05
1.0000357e-05
1.0000231e-05
1.0000256e-05
1.0000404e-05
0.0012026524
0.0019130053
0.0012835801
0.00021741127
1.2972976e-05
1.0375059e-05
1.0176846e-05
1.013738e-05
1.0077642e-05
1.0066e-05
1.0041746e-05
1.0036559e-05
1.002376e-05
1.0019392e-05
1.0013086e-05
1.0009281e-05
1.0006116e-05
1.0004119e-05
1.0002802e-05
1.0002013e-05
1.0001511e-05
1.0001199e-05
1.0000992e-05
1.0000829e-05
1.0000704e-05
1.0000565e-05
1.0000443e-05
1.0000354e-05
1.0000306e-05
1.0000294e-05
1.0000322e-05
1.0000376e-05
1.0000448e-05
1.0000444e-05
1.0000454e-05
1.0000578e-05
1.0000666e-05
1.0000804e-05
1.0000937e-05
1.0001151e-05
1.0001221e-05
1.000116e-05
1.0001053e-05
1.0000949e-05
1.0000777e-05
1.0000574e-05
1.0000351e-05
1.0000223e-05
1.0000243e-05
1.0000386e-05
0.00120088
0.0018326282
0.0011258279
0.00016309588
1.1879305e-05
1.0361895e-05
1.0171678e-05
1.0132504e-05
1.0075554e-05
1.0064132e-05
1.004118e-05
1.0035824e-05
1.0023735e-05
1.0019085e-05
1.0012988e-05
1.000914e-05
1.000603e-05
1.000404e-05
1.0002744e-05
1.0001969e-05
1.0001485e-05
1.0001187e-05
1.0000988e-05
1.0000832e-05
1.0000702e-05
1.0000557e-05
1.0000435e-05
1.0000347e-05
1.0000301e-05
1.0000289e-05
1.0000318e-05
1.0000368e-05
1.0000439e-05
1.0000431e-05
1.0000439e-05
1.0000554e-05
1.0000645e-05
1.0000789e-05
1.0000919e-05
1.0001136e-05
1.000121e-05
1.0001136e-05
1.0001041e-05
1.0000937e-05
1.0000774e-05
1.0000567e-05
1.0000346e-05
1.0000215e-05
1.0000229e-05
1.0000367e-05
0.0012003125
0.0017478156
0.00097392837
0.00011988798
1.1247176e-05
1.0348539e-05
1.0166425e-05
1.0127666e-05
1.0073499e-05
1.0062324e-05
1.0040644e-05
1.0035127e-05
1.0023725e-05
1.00188e-05
1.0012888e-05
1.0009007e-05
1.0005944e-05
1.0003961e-05
1.0002685e-05
1.0001925e-05
1.0001459e-05
1.0001175e-05