/*--------------------------------*- C++ -*----------------------------------*\
  =========                 |
  \\      /  F ield         | OpenFOAM: The Open Source CFD Toolbox
   \\    /   O peration     | Website:  https://openfoam.org
    \\  /    A nd           | Version:  8
     \\/     M anipulation  |
\*---------------------------------------------------------------------------*/
FoamFile
{
    version     2.0;
    format      ascii;
    class       volScalarField;
    location    "0.129988";
    object      p;
}
// * * * * * * * * * * * * * * * * * * * * * * * * * * * * * * * * * * * * * //

dimensions      [1 -1 -2 0 0 0 0];

internalField   nonuniform List<scalar> 
20000
(
56152.933
56168.984
56187.7
56213.888
56249.661
56297.067
56362.326
56439.796
56536.683
56651.352
56787.387
56956.119
57148.927
57395.674
57673.165
58031.439
58435.872
58953.729
59547.783
60296.445
61171.631
62255.162
63536.653
65091.901
66925.167
69089.745
71577.069
74376.996
77418.453
80604.998
83780.36
86757.271
89377.281
91577.975
93367.473
94794.481
95917.633
96798.38
97486.86
98023.818
98441.146
98777.088
99056.992
99281.522
99444.93
99626.37
99892.052
100083.02
100137.46
100376.84
56314.145
56330.967
56350.424
56377.053
56413.466
56462.001
56529.255
56609.358
56709.076
56827.407
56967.609
57142.544
57341.66
57597.849
57884.624
58256.285
58674.407
59210.949
59825.576
60600.558
61505.982
62625.523
63948.102
65548.612
67429.664
69638.472
72157.387
74960.528
77963.344
81064.537
84125.882
86992.587
89529.001
91674.358
93429.031
94834.254
95943.905
96816.293
97499.828
98033.181
98449.325
98784.918
99064.46
99285.818
99448.158
99641.415
99917.389
100086.98
100164.55
100360.03
56477.288
56494.476
56514.893
56542.658
56580.57
56631.259
56701.356
56784.39
56887.84
57010.753
57155.889
57337.529
57543.369
57809.111
58105.334
58490.37
58922.453
59477.982
60113.714
60915.658
61851.979
63008.535
64373.257
66020.843
67951.781
70207.83
72761.764
75573.101
78544.631
81570.407
84525.501
87282.088
89727.273
91806.672
93516.538
94892.258
95982.784
96842.86
97518.621
98046.588
98460.224
98794.647
99073.043
99290.624
99452.346
99659.892
99934.055
100098.04
100195.7
100351.08
56652.709
56669.778
56690.965
56719.873
56759.245
56811.974
56884.748
56970.627
57077.666
57205.142
57355.171
57543.541
57756.008
58031.401
58337.153
58735.964
59182.506
59757.772
60415.445
61245.27
62213.492
63408.207
64816.459
66512.831
68495.593
70800.956
73391.886
76214.157
79159.217
82117.233
84973.486
87622.08
89971.479
91976.814
93633.398
94972.035
96037.473
96880.857
97545.616
98066.001
98475.525
98807.685
99083.845
99296.661
99458.234
99678.924
99947.458
100112.36
100217.68
100346.17
56835.73
56853.466
56875.339
56905.59
56946.796
57002.014
57077.929
57167.051
57277.848
57409.985
57564.959
57760.189
57979.415
58264.834
58580.641
58994.016
59455.955
60052.026
60732.857
61591.866
62593.561
63828.231
65282.218
67029.804
69066.905
71423.582
74052.504
76886.039
79805.622
82698.727
85459.68
88001.359
90251.837
92177.158
93773.857
95069.592
96105.236
96928.313
97579.345
98090.291
98494.292
98823.201
99096.101
99303.352
99465.319
99698.279
99962.853
100127.47
100237.08
100343.08
57027.905
57048.273
57070.893
57102.397
57145.296
57202.847
57281.76
57373.918
57488.306
57624.99
57784.885
57987.209
58213.528
58509.615
58836.19
59265.038
59743.311
60361.266
61066.498
61956.061
62992.933
64269.547
65771.681
67573.051
69666.983
72076.592
74743.673
77587.533
80481.015
83310.274
85978.223
88414.112
90563.81
92404.819
93936.406
95184.206
96185.785
96985.183
97619.904
98119.594
98516.716
98841.388
99109.965
99310.778
99473.71
99718.615
99979.222
100142.9
100252.09
100340.98
57229.404
57250.968
57274.096
57307.017
57351.768
57411.754
57493.791
57589.067
57707.368
57849.023
58014.292
58224.346
58458.384
58765.935
59104.046
59549.237
60044.786
60685.707
61416.639
62338.244
63412.228
64733.078
66286.087
68144.076
70297.411
72761.271
75465.888
78317.859
81182.911
83947.409
86523.001
88853.722
90901.541
92655.293
94117.865
95313.763
96277.746
97050.563
97666.704
98153.509
98542.53
98862.046
99125.263
99318.897
99483.451
99740.283
99996.835
100158.2
100264.29
100339.42
57438.661
57461.849
57485.312
57519.601
57566.35
57628.94
57714.408
57813.098
57935.618
58082.627
58253.686
58472.078
58714.397
59034.089
59384.347
59846.647
60360.363
61025.349
61783.335
62738.583
63851.8
65219.374
66826.135
68743.649
70958.8
73477.737
76218.438
79075.288
81908.472
84606.142
87089.098
89315.004
91260.405
92925.005
94315.737
95456.606
96380.056
97123.786
97719.344
98191.795
98571.613
98885.102
99141.935
99327.847
99494.837
99763.703
100015.33
100173.09
100274.03
100338.13
57654.36
57679.886
57704.092
57739.898
57788.989
57854.478
57943.682
58046.183
58173.365
58326.172
58503.405
58730.667
58981.704
59314.056
59676.992
60157.158
60690.021
61380.216
62166.686
63157.318
64312.112
65729.091
67392.648
69372.643
71651.847
74226.099
77000.555
79858.039
82654.885
85282.657
87671.883
89793.036
91635.873
93210.28
94527.298
95610.834
96491.428
97204.001
97777.273
98234.09
98603.743
98910.387
99159.848
99337.751
99508.287
99789.199
100034.69
100187.33
100281.42
100336.99
57880.857
57907.421
57932.891
57970.265
58021.731
58089.911
58182.605
58288.913
58421.033
58580.013
58763.661
59000.12
59260.132
59605.598
59981.799
60480.706
61033.754
61750.361
62566.879
63594.848
64793.779
66262.996
67986.48
70031.888
72377.041
75006.134
77811.071
80664.02
83419.258
85973.387
88267.273
90283.551
92023.978
93507.825
94750.045
95774.649
96610.622
97290.37
97839.941
98280.042
98638.701
98937.722
99178.88
99348.833
99524.329
99816.852
100054.59
100200.22
100286.96
100335.93
58117.337
58144.269
58171.055
58209.918
58263.715
58334.448
58430.854
58541.052
58678.385
58843.923
59034.134
59279.998
59549.249
59908.436
60298.694
60817.322
61391.641
62135.909
62984.202
64051.685
65297.505
66821.926
68608.548
70722.246
73134.834
75817.489
78648.646
81491.002
84198.671
86674.891
88871.463
90782.632
92421.056
93814.536
94981.554
95946.262
96736.363
97382.014
97906.757
98329.261
98676.236
98966.873
99198.844
99361.408
99543.564
99845.9
100074.23
100211.73
100291.3
100334.92
58360.122
58388.062
58416.433
58457.187
58513.886
58587.795
58689.17
58803.201
58945.364
59117.354
59314.143
59569.768
59848.81
60222.589
60627.797
61167.095
61763.752
62537.065
63419.136
64528.547
65824.17
67406.861
69259.889
71444.605
73925.567
76659.583
79511.68
82336.57
84990.173
87383.892
89480.986
91286.789
92823.839
94127.607
95219.583
96123.977
96867.419
97478.063
97977.128
98381.357
98716.083
98997.573
99219.508
99375.668
99566.643
99875.48
100093.07
100221.96
100294.83
100333.98
58612.543
58641.417
58671.183
58713.577
58773.033
58849.775
58955.64
59073.539
59220.446
59399.206
59603.164
59869.423
60159.082
60548.32
60969.235
61530.049
62150.224
62954.212
63872.321
65026.243
66374.694
68018.822
69941.588
72199.847
74749.469
77531.633
80398.372
83198.161
85790.773
88097.213
90092.602
91792.831
93229.357
94444.467
95462.047
96306.181
97002.589
97577.654
98050.455
98435.93
98757.959
99029.528
99240.659
99391.786
99594.084
99904.791
100110.81
100231.06
100297.82
100333.11
58869.961
58899.996
58931.241
58975.4
59037.878
59117.316
59228.154
59351.111
59503.672
59690.049
59901.913
60179.602
60480.439
60885.707
61322.926
61906.186
62551.345
63387.947
64344.585
65545.717
66950.12
68658.968
70654.823
72988.84
75606.582
78432.579
81306.651
84073.047
86597.466
88811.809
90703.33
92297.897
93634.97
94762.813
95707.045
96491.377
97140.735
97679.954
98126.156
98492.592
98801.577
99062.431
99262.066
99409.914
99626.285
99933.139
100127.36
100239.15
100300.3
100332.3
59133.622
59165.118
59198.15
59244.462
59310.802
59394.043
59509.404
59637.891
59796.642
59991.039
60211.005
60500.436
60812.708
61234.489
61688.765
62295.74
62967.696
63839.074
64836.822
66087.919
67551.515
69328.52
71400.81
73812.388
76496.768
79361.113
82234.219
84958.362
87407.225
89524.736
91310.388
92799.382
94038.297
95080.569
95952.849
96678.175
97280.781
97784.163
98203.664
98550.961
98846.647
99095.983
99283.555
99430.043
99663.102
99960.092
100142.8
100246.38
100302.27
100331.39
59407.832
59440.631
59475.39
59523.711
59593.646
59680.287
59800.172
59934.111
60099.225
60301.864
60529.95
60831.352
61155.424
61594.479
62066.97
62699.29
63400.123
64308.51
65349.989
66653.907
68180.105
70028.845
72180.826
74671.165
77419.604
80315.585
83178.502
85851.104
88217.033
90233.195
91911.226
93294.948
94437.232
95395.901
96197.916
96865.315
97421.732
97889.526
98282.442
98610.669
98892.878
99129.915
99305.063
99452.152
99703.057
99986.121
100157.3
100252.86
100303.81
100330.23
59689.07
59723.409
59760.169
59810.701
59884.829
59975.488
60100.428
60239.131
60410.38
60621.543
60857.985
61171.878
61508.463
61965.979
62458.204
63117.741
63849.56
64797.129
65885.006
67244.768
68837.205
70761.392
72996.148
75565.696
78374.395
81294.055
84136.72
86748.184
89023.919
90934.511
92503.474
93782.485
94829.902
95707.187
96440.87
97051.652
97562.666
97995.337
98361.984
98671.367
98939.98
99163.999
99326.677
99476.295
99744.525
100011.69
100170.98
100258.53
100304.81
100328.76
59978.848
60014.774
60053.246
60105.964
60184.235
60278.846
60408.362
60552.244
60729.423
60949.484
61194.878
61522.173
61872.364
62349.806
62863.456
63552.043
64316.873
65305.781
66442.891
67861.779
69524.311
71527.726
73848.007
76496.257
79360.059
82294.2
85105.823
87646.422
89824.957
91626.154
93084.973
94260.119
95214.678
96013.027
96680.512
97236.167
97702.749
98100.95
98441.824
98732.719
98987.661
99198.053
99348.664
99502.725
99786.459
100036.65
100183.84
100263.55
100305.39
100327.05
60273.141
60310.908
60351.172
60406.269
60488.82
60587.739
60722.032
60872.529
61056.351
61286.083
61541.243
61883.081
62248.095
62747.01
63283.692
64003.02
64802.786
65835.292
67024.748
68506.338
70243.01
72329.469
74737.534
77462.896
80375.179
83313.42
86082.61
88542.62
90617.298
92305.727
93653.743
94726.189
95590.143
96312.215
96915.797
97417.951
97841.224
98205.775
98521.534
98794.405
99035.617
99231.921
99371.447
99532.027
99828.011
100060.65
100195.84
100268.03
100305.59
100325.15
60572.854
60612.721
60655.072
60713.076
60800.325
60903.841
61043.268
61201.14
61392.262
61632.444
61898.147
62255.677
62636.715
63158.523
63719.667
64471.251
65307.973
66386.638
67631.928
69180.048
70995.057
73168.268
75665.7
78465.233
81417.87
84348.721
87063.68
89433.549
91398.169
92970.987
94208.003
95179.259
95955.101
96603.742
97145.832
97596.211
97977.416
98309.286
98600.732
98856.118
99083.531
99265.466
99395.543
99565.142
99868.307
100083.33
100206.85
100272.02
100305.62
100323.09
60880.488
60922.457
60966.865
61027.814
61119.975
61228.117
61372.942
61538.767
61737.777
61989.389
62266.559
62640.944
63039.056
63584.957
64171.826
64957.234
65833.217
66960.998
68265.952
69884.63
71782.29
74045.783
76633.287
79502.553
82485.871
85396.854
88045.547
90316.008
92164.907
93619.849
94746.157
95618.096
96308.553
96886.763
97369.853
97770.261
98110.725
98411.02
98679.075
98917.561
99131.069
99298.545
99421.5
99603.147
99906.409
100104.42
100216.81
100275.4
100305.41
100320.87
61195.05
61239.497
61286.37
61350.76
61448.129
61561.328
61712.426
61887.225
62093.822
62357.824
62647.277
63039.552
63455.527
64026.557
64640.476
65461.544
66379.563
67559.846
68928.548
70621.963
72606.641
74963.591
77640.734
80573.62
83576.41
86454.228
89024.567
91186.785
92914.955
94250.419
95266.826
96041.678
96649.699
97160.592
97587.226
97939.524
98240.637
98510.576
98756.267
98978.451
99177.892
99330.998
99449.7
99646.715
99941.611
100123.83
100225.78
100278.19
100304.83
100318.53
61521.953
61568.64
61617.573
61684.982
61787.124
61905.398
62063.155
62247.372
62462.073
62738.714
63040.699
63451.566
63886.129
64483.444
65126.073
65985.123
66948.408
68184.865
69621.55
71394.008
73470.106
75923.169
78688.173
81676.773
84686.366
87517.052
89997.018
92042.697
93645.894
94861.03
95768.862
96449.156
96977.9
97424.661
97797.438
98103.524
98366.726
98607.608
98832.049
99038.517
99223.68
99362.689
99480.172
99695.089
99973.971
100141.65
100233.81
100280.47
100304.01
100316.13
61854.967
61904.504
61956.276
62027.81
62136.03
62261.147
62425.373
62618.571
62841.702
63132.041
63446.548
63876.796
64330.839
64955.989
65629.474
66529.293
67541.421
68837.891
70346.894
72202.854
74374.696
76925.765
79775.202
82809.727
85812.096
88581.21
90959.025
92880.57
94355.486
95450.3
96251.396
96839.849
97292.664
97678.532
98000.116
98261.88
98488.66
98701.828
98906.203
99097.51
99268.171
99393.601
99512.758
99745.428
100004.8
100158.07
100240.92
100282.31
100303.02
100313.67
62198.541
62250.885
62305.445
62381.191
62495.479
62626.834
62797.08
62999.234
63230.745
63536.497
63864.593
64315.344
64790.154
65445.059
66152.028
67095.715
68160.432
69520.797
71106.593
73050.686
75322.457
77972.382
80900.983
83969.704
86949.607
89642.372
91906.642
93697.355
95041.785
96017.162
96713.807
97213.204
97593.586
97921.899
98195.036
98414.266
98606.181
98792.999
98978.54
99155.196
99311.181
99423.916
99547.386
99796.018
100034.29
100173.11
100247.07
100283.72
100301.82
100311.18
62549.329
62604.49
62661.695
62741.64
62861.854
62999.437
63176.915
63389.471
63630.476
63952.203
64294.847
64767.804
65265.051
65952.051
66695.383
67686.169
68807.288
70235.521
71902.791
73939.844
76315.342
79063.609
82063.972
85153.276
88094.401
90695.929
92835.916
94490.333
95703.304
96560.829
97155.631
97568.837
97880.356
98154.667
98382.111
98560.39
98719.062
98880.943
99048.903
99211.365
99352.631
99454.072
99584.294
99845.522
100062.14
100186.74
100252.22
100284.4
100300.4
100308.67
62907.24
62965.742
63026.196
63111.062
63237.844
63382.376
63567.51
63791.265
64042.329
64381.026
64737.947
65235.019
65756.913
66478.698
67261.328
68302.427
69483.803
70984.055
72737.789
74872.786
77355.195
80199.591
83262.058
86356.482
89241.627
91737.179
93743.2
95257.48
96339.135
97080.628
97576.303
97906.571
98152.798
98377.004
98561.301
98699.984
98827.015
98965.557
99117.158
99265.821
99392.527
99484.749
99624.252
99892.599
100087.9
100198.96
100256.59
100284.71
100298.86
100306.13
63276.746
63338.492
63402.091
63491.845
63625.18
63776.721
63969.264
64204.643
64466.416
64823.731
65195.486
65718.508
66267.488
67026.728
67851.559
68946.175
70191.862
71768.593
73614.143
75852.064
78443.558
81379.775
84492.293
87574.63
90385.991
92761.43
94625.544
95997.76
96948.864
97575.776
97974.944
98226.501
98411.039
98589.333
98732.446
98832.88
98929.669
99046.805
99183.19
99318.386
99430.931
99516.706
99668.412
99935.883
100111.2
100209.83
100260.38
100284.82
100297.18
100303.54
63652.337
63717.684
63784.908
63880.229
64020.989
64180.57
64381.233
64629.317
64903.151
65280.648
65670.001
66220.811
66798.434
67597.59
68467.576
69619.11
70933.485
72591.564
74534.639
76880.261
79581.648
82602.987
85751.05
88802.512
91522.067
93764.482
95481.225
96711.03
97531.991
98045.18
98350.481
98528.892
98655.702
98792.061
98895.09
98959.121
99026.695
99124.684
99246.903
99368.896
99467.913
99550.485
99717.401
99974.48
100131.97
100219.38
100263.65
100284.84
100295.35
100300.84
64036.328
64105.652
64176.957
64278.202
64426.875
64595.315
64805.37
65067.761
65354.898
65753.492
66161.729
66743.23
67351.123
68192.577
69110.869
70323.064
71710.991
73455.748
75502.284
77959.822
80770.054
83867.124
87033.781
90034.319
92644.405
94743.008
96309.778
97396.913
98086.655
98487.556
98702.698
98813.926
98887.96
98985.017
99048.607
99078.983
99118.206
99199.149
99308.214
99417.206
99503.532
99586.18
99769.909
100008.84
100150.51
100227.66
100266.16
100284.42
100293.26
100298.01
64432.139
64505.777
64581.629
64689.022
64846.121
65024.475
65244.6
65522.203
65823.036
66242.938
66671.278
67286.227
67926.748
68813.125
69783.122
71060.141
72527.039
74364.246
76520.235
79092.988
82008.738
85169.274
88335.247
91263.989
93748.059
95695.104
97111.098
98052.364
98610.334
98902.16
99032.854
99081.427
99109.015
99166.722
99193.04
99192.656
99205.21
99270.044
99367.053
99463.208
99537.862
99623.486
99822.687
100040.68
100167.34
100234.81
100267.91
100283.48
100290.9
100295.02
64842.602
64920.734
65001.48
65115.261
65281.477
65469.665
65699.34
65992.381
66307.116
66750.115
67200.585
67849.945
68526.413
69460.849
70486.375
71832.834
73384.696
75320.462
77591.676
80281.502
83296.718
86505.402
89649.367
92485.271
94828.951
96620.193
97882.659
98673.53
99100.525
99289.115
99343.341
99331.231
99318.645
99336.518
99328.901
99299.622
99289.44
99337.152
99423.361
99506.853
99571.075
99662.039
99873.888
100070.41
100182.73
100241.09
100269.08
100282
100288.25
100291.84
65264.626
65347.388
65433.36
65553.868
65729.35
65927.784
66167.614
66477.602
66807.666
67276.029
67750.741
68436.851
69151.467
70137.559
71223.043
72644.074
74287.379
76328.043
78719.681
81526.569
84632.085
87870.591
90969.554
93692.317
95884.417
97517.82
98618.993
99256.759
99555.755
99650.923
99636.023
99564.817
99515.058
99497.456
99456.24
99398.43
99371.485
99400.452
99477.091
99548.173
99603.539
99701.768
99922.082
100097.74
100196.67
100246.72
100269.84
100280.15
100285.3
100288.41
65695.57
65783.505
65875.588
66003.56
66189.03
66399.611
66651.018
66979.911
67327.02
67822.542
68323.657
69048.924
69803.321
70845.233
71996.037
73497.257
75238.837
77390.744
79907.018
82828.466
86011.695
89258.788
92288.78
94879.931
96913.16
98383.754
99314.96
99798.813
99978.797
99992.742
99909.234
99784.877
99698.11
99648.767
99574.801
99490.383
99450.234
99460.483
99528.191
99587.292
99635.824
99743.096
99966.052
100121.93
100208.82
100251.76
100270.45
100277.97
100282.02
100284.65
66139.063
66232.841
66332.135
66468.434
66664.64
66888.404
67152.048
67501.304
67866.596
68391.183
68920.574
69687.317
70484.525
71586.493
72808.788
74396.147
76243.052
78512.324
81156.02
84186.556
87431.276
90663.156
93600.17
96044.173
97914.321
99210.832
99965.731
100299.32
100377.92
100312.22
100163.68
99991.36
99868.723
99790.826
99685.252
99576.333
99523.724
99518.362
99576.57
99624.405
99668.604
99786.894
100004.69
100142.56
100218.7
100255.7
100271.04
100276.17
100278.44
100280.36
66598.612
66698.473
66805.32
66949.904
67156.914
67394.908
67671.49
68042.761
68427.174
68983.035
69542.402
70352.927
71198.567
72364.743
73665.086
75344.829
77304.177
79696.415
82468.262
85598.919
88885.187
92076.04
94897.257
97182.439
98883.384
99992.109
100568.11
100765.81
100753.03
100609.32
100400.07
100184.17
100028.03
99923.951
99788.479
99657.185
99590.661
99574.679
99622.08
99659.735
99702.404
99833.502
100037.3
100159.75
100226.48
100258.45
100271.42
100275.18
100274.68
100275.29
67073.855
67180.115
67294.917
67448.445
67666.946
67920.289
68210.433
68605.366
69009.958
69599.082
70190.707
71048.652
71948.062
73183.866
74569.058
76347.604
78426.463
80946.409
83844.482
87062.387
90366.736
93489.635
96174.617
98293.213
99811.853
100721.89
101123.13
101206.1
101101.8
100884.6
100619.22
100363.36
100177.1
100048.55
99884.725
99732.43
99652.528
99629.163
99664.555
99693.461
99737.225
99880.254
100065.51
100174.22
100232.68
100260.51
100271.55
100274.7
100271.17
100269.4
67563.94
67677.245
67800.937
67964.657
68195.185
68465.383
68769.776
69190.018
69616.08
70240.78
70867.924
71777.847
72736.838
74047.957
75525.093
77408.958
79614.15
82265.184
85284.188
88572.186
91868.042
94896.243
97427.963
99372.994
100690.25
101396.27
101640.2
101618.47
101424.71
101138.98
100821.95
100529.65
100316.53
100164.95
99973.939
99802.063
99710.42
99681.628
99703.999
99725.66
99772.516
99924.903
100090.85
100186.82
100237.83
100262
100271.57
100274.26
100267.4
100263.31
68069.92
68191.064
68324.764
68499.848
68742.502
69031.069
69350.321
69797.747
70246.952
70910.965
71577.906
72544.791
73569.185
74961.126
76537.713
78533.56
80871.396
83654.877
86785.61
90122.136
93380.619
96288.932
98654.437
100412.48
101511.88
102016.1
102127.37
102000.51
101722.63
101373.45
101009.09
100683.8
100446.87
100273.47
100056.22
99866.498
99764.797
99731.565
99740.86
99756.319
99807.605
99966.294
100113.97
100198.22
100242.14
100262.7
100271.05
100273.37
100263.24
100257.14
68594.37
68723.749
68867.976
69055.169
69309.737
69618.002
69952.946
70430.384
70905.379
71613.998
72325.534
73353.92
74449.289
75927.735
77611.639
79726.311
82202.067
85116.541
88345.193
91704.533
94895.579
97661.639
99851.241
101399.85
102271.67
102591.14
102582.99
102352.82
101996.68
101589.07
101181.54
100826.61
100568.63
100374.42
100132.03
99926.428
99815.666
99777.754
99776.071
99785.516
99842.04
100003.9
100134.83
100208.57
100245.98
100263.01
100269.86
100272
100258.81
100250.92
69135.697
69274.205
69429.775
69630.105
69896.991
70227.433
70580.319
71091.943
71596.575
72354.577
73115.206
74209.1
75381.506
76952.596
78751.86
80992.214
83609.591
86649.948
89957.721
93310.566
96404.469
99009.472
101009.83
102326.19
102968.44
103132.01
103003.82
102676.48
102248.07
101786.91
101340.19
100958.87
100682.33
100468.21
100202.09
99982.507
99863.136
99818.911
99810.24
99813.671
99875.759
100037.5
100153.01
100217.48
100249.44
100263.16
100268.09
100270.07
100254.22
100244.67
69696.026
69844.835
70012.539
70227.479
70508.142
70864.388
71238.276
71788.527
72325.991
73136.285
73950.048
75113.609
76371.175
78040.98
79963.633
82336.197
85096.568
88253.128
91616.046
94930.434
97899.365
100328.41
102117.36
103185.07
103611.55
103637.49
103390.57
102972.88
102478.1
101968.05
101485.94
101081.32
100788.45
100555.28
100267.05
100034.86
99906.989
99855.857
99842.625
99841.562
99909.461
100066.69
100168.34
100224.63
100252.11
100263.32
100266.87
100267
100249.58
100238.4
70278.092
70439.208
70620.565
70853.072
71150.358
71536.085
71933.074
72524.283
73096.558
73961.757
74833.29
76072.048
77423.492
79198.62
81252.385
83762.897
86664.439
89922.268
93311.493
96554.234
99373.276
101612.38
103160.74
103972.58
104213.65
104104.14
103744.48
103243.47
102688.06
102133.6
101619.7
101194.69
100887.48
100636.1
100327.33
100083.27
99947.082
99889.66
99873.031
99869.693
99943.955
100091.16
100180.86
100230.05
100253.8
100263.36
100266.3
100263.1
100244.94
100232.08
70896.103
71069.665
71264.331
71516.651
71830.861
72247.154
72666.533
73301.201
73909.132
74833.554
75769.48
77090.221
78544.19
80431.467
82623.735
85276.385
88312.957
91651.261
95033.822
98172.3
100820.16
102847.97
104131.71
104695.95
104776.18
104531.77
104067.19
103489.81
102879.27
102284.62
101742.35
101299.69
100979.94
100711.13
100383
100127.56
99983.655
99921.11
99901.988
99897.911
99978.216
100111.8
100191.16
100234.03
100254.6
100263.04
100265.5
100258.9
100240.3
100225.69
71541.794
71730.007
71940.279
72215.872
72546.291
72994.728
73437.376
74118.745
74767.842
75756.655
76764.743
78174.931
79738.747
81745.723
84083.405
86879.861
90039.932
93431.918
96771.98
99775.678
102234.55
104019.33
105024.23
105367.96
105296.15
104921.79
104360.42
103713.47
103053.04
102422.18
101854.74
101396.99
101066.31
100780.74
100434
100167.74
100017.03
99950.601
99930.05
99925.992
100010.58
100129.91
100199.9
100237.17
100254.9
100262.18
100264.29
100254.36
100235.61
100219.25
72217.652
72421.854
72647.84
72947.146
73294.056
73779.317
74247.559
74982.815
75678.848
76737.395
77825.356
79331.833
81013.675
83147.999
85636.985
88575.052
91840.653
95253.849
98514.461
101355.74
103604.74
105114.44
105840.52
105995.76
105771.66
105276
104626.01
103916.03
103210.65
102547.32
101957.73
101487.24
101147.05
100845.17
100480.23
100203.99
100047.67
99978.562
99957.404
99953.677
100040.63
100146.07
100207.44
100239.75
100254.95
100261.02
100262.77
100249.61
100230.83
100212.9
72921.015
73143.79
73386.514
73712.807
74079.35
74607.593
75105.172
75900.149
76649.204
77782.452
78957.945
80566.086
82375.521
84645.589
87289.586
90361.71
93707.881
97105.235
100250.3
102905.01
104913.66
106125.13
106592.56
106577.14
106204.13
105596.45
104865.86
104099.08
103353.38
102661.06
102052.12
101571.05
101222.59
100904.61
100521.69
100236.7
100076.06
100005.32
99984.046
99980.747
100068.77
100160.69
100213.9
100241.65
100254.54
100259.5
100260.9
100244.89
100225.96
100206.76
73661.588
73905.995
74167.536
74525.306
74912.708
75488.801
76017.978
76876.335
77684.838
78897.992
80168.823
81884.12
83832.168
86246.181
89044.982
92236.685
95631.485
98973.011
101968.71
104414.53
106143.37
107047.82
107294.23
107107.98
106595.57
105885.32
105081.87
104264.16
103482.44
102764.37
102138.69
101649
101293.31
100959.15
100558.49
100266.36
100102.69
100031.07
100009.92
100007.1
100095.1
100174.02
100219.39
100242.78
100253.5
100257.55
100258.7
100240.12
100221.07
100200.88
74447.286
74715.411
74996.749
75389.879
75798.359
76426.968
76991.302
77916.959
78791.342
80089.844
81464.121
83296.111
85393.073
87956.958
90904.628
94193.629
97598.98
100843.98
103659.42
105866.14
107283.18
107893.01
107944.29
107589.62
106948.36
106144.85
105275.92
104412.78
103599.01
102858.18
102218.18
101721.64
101359.63
101008.98
100590.83
100293.43
100128
100056.09
100035.1
100032.81
100119.38
100186.1
100224.06
100243.26
100251.9
100255.11
100256.15
100235.35
100216.21
100195.27
75279.622
75573.572
75875.777
76308.598
76738.982
77426.499
78029.632
79026.822
79974.569
81365.418
82854.206
84813.557
87067.975
89783.432
92866.758
96222.665
99595.829
102704.87
105312.39
107238.86
108325.31
108676.86
108538.52
108024.26
107265.02
106377.31
105449.88
104546.39
103704.23
102943.39
102291.29
101789.52
101422
101054.36
100618.92
100318.34
100152.29
100080.57
100059.86
100058.28
100141.05
100196.7
100227.97
100243.41
100249.98
100252.27
100253.14
100230.62
100211.44
100189.96
76159.749
76483.397
76808.691
77285.722
77738.526
78491.449
79138.288
80212.077
81242.381
82734.341
84353.323
86448.649
88865.37
91728.299
94925.852
98310.75
101606.53
104542.37
106911.41
108516.64
109276.12
109402.94
109076.58
108414.65
107548.21
106584.96
105605.55
104666.41
103799.18
103020.87
102358.71
101853.15
101480.82
101095.44
100643.13
100341.48
100175.82
100104.68
100084.39
100084.02
100159.45
100205.54
100231.01
100243.43
100248.6
100250.27
100248.72
100225.98
100206.79
100184.94
77094.731
77452.142
77801.893
78328.803
78803.596
79626.822
80324.831
81482.601
82607.68
84212.145
85973.928
88212.117
90791.415
93790.662
97072.268
100441.99
103615.19
106343.56
108433.5
109688.86
110150.98
110067.73
109560.82
108763.72
107800.62
106770.02
105744.67
104774.17
103884.91
103091.43
102421.07
101912.99
101536.26
101131.79
100664.41
100363.28
100198.88
100128.51
100108.5
100109.74
100174.57
100212.76
100233.49
100243.39
100247.48
100248.79
100243.87
100221.45
100202.28
100180.23
78087.396
78483.219
78857.312
79441.91
79942.429
80843.371
81602.013
82852.678
84086.477
85814.774
87727.796
90112.6
92849.355
95965.621
99292.572
102598.7
105605.92
108094.06
109856
110755.07
110960.79
110668.62
109994.32
109074.6
108024.93
106934.65
105868.91
104870.94
103962.39
103155.85
102479.01
101969.45
101588.16
101162.41
100684.33
100384.23
100221.61
100152.12
100132.29
100133.72
100187.4
100218.45
100235.07
100242.97
100246.18
100247.2
100239.13
100217.04
100197.91
100175.81
79144.036
79585.258
79983.217
80637.393
81168.296
82156.499
82987.539
84340.016
85695.385
87554.89
89624.859
92156.493
95039.019
98243.811
101569.66
104762.16
107562.31
109768.47
111165.04
111729.54
111702.78
111208.07
110380.52
109350.46
108223.79
107080.92
105979.87
104957.93
104032.56
103214.87
102533.12
102022.84
101636.24
101187.75
100703.55
100404.74
100244.11
100175.36
100155.46
100155.44
100198.3
100222.77
100235.8
100242.11
100244.59
100245.36
100234.32
100212.77
100193.7
100171.67
80274.133
80772.599
81199.255
81933.236
82499.38
83584.874
84501.652
85963.43
87450.546
89440.519
91672.556
94347.96
97356.234
100611.2
103883.55
106913.16
109467.86
111339.62
112353.63
112629.99
112372.13
111689.47
110723.09
109594.51
108399.77
107210.83
106079.05
105036.29
104096.3
103269.23
102583.94
102073.38
101680.32
101209.18
100722.18
100425.22
100266.51
100197.86
100177.12
100175.08
100207.63
100226.17
100236.06
100240.9
100242.75
100243.31
100229.57
100208.62
100189.62
100167.8
81487.8
82059.632
82519.722
83351.545
83957.989
85147.445
86161.893
87736.501
89359.863
91483.554
93878.507
96688.327
99791.926
103049.01
106212.09
109031.22
111296.4
112788.66
113434.85
113454.19
112971.42
112116.85
111025.83
109809.9
108555.36
107326.28
106167.89
105107.09
104154.46
103319.6
102631.97
102121.21
101720.42
101227.9
100740.56
100445.94
100288.84
100219.51
100196.71
100192.64
100215.69
100229
100236.08
100239.43
100240.7
100241.11
100225.02
100204.58
100185.67
100164.17
82818.284
83475.158
83959.189
84909.427
85563.707
86858.355
87979.179
89668.891
91434.558
93695.225
96248.656
99174.156
102331.04
105534.09
108531.81
111095.3
113016.61
114103.31
114430.61
114196.36
113504.48
112494.51
111292.56
109999.69
108692.93
107429.07
106247.72
105171.35
104207.85
103366.63
102677.64
102166.45
101756.74
101245.06
100759.1
100466.91
100310.69
100239.83
100214.41
100208.49
100222.39
100231.08
100235.63
100237.73
100238.53
100238.57
100220.57
100200.65
100181.87
100160.8
84315.689
85065.164
85539.326
86615.598
87326.639
88724.554
89958.806
91768.083
93691.662
96087.661
98785.402
101795.6
104952.13
108039.79
110817.5
113077.83
114603.67
115295.71
115339.59
114858.73
113976
112826.95
111527.03
110166.84
108814.73
107520.88
106319.83
105230.05
104257.23
103410.94
102721.32
102209.19
101789.64
101261.69
100778.09
100487.98
100331.7
100258.58
100230.41
100222.91
100227.71
100232.4
100234.88
100236.1
100236.62
100234.98
100216.2
100196.82
100178.21
100157.67
85927.447
86812.029
87280.119
88479.126
89253.728
90753.519
92113.884
94053.677
96142.251
98669.215
101485.27
104534.94
107627.82
110537.28
113042.97
114943.39
116042.61
116388.45
116156.07
115445.73
114391.08
113118.75
111732.92
110314.18
108922.91
107603.33
106385.41
105284.1
104303.34
103453.08
102763.34
102249.56
101819.58
101278.63
100797.68
100509.13
100352.13
100276.25
100244.62
100234.53
100232.74
100233.26
100234
100234.48
100234.77
100230.7
100211.9
100193.08
100174.7
100154.8
87693.598
88723.102
89173.037
90495.948
91354.67
92965.878
94471.21
96543.756
98799.478
101443.29
104336.04
107365.49
110325.37
112995.32
115176.92
116662.04