/*--------------------------------*- C++ -*----------------------------------*\
  =========                 |
  \\      /  F ield         | OpenFOAM: The Open Source CFD Toolbox
   \\    /   O peration     | Website:  https://openfoam.org
    \\  /    A nd           | Version:  8
     \\/     M anipulation  |
\*---------------------------------------------------------------------------*/
FoamFile
{
    version     2.0;
    format      ascii;
    class       surfaceScalarField;
    location    "0.129988";
    object      phi;
}
// * * * * * * * * * * * * * * * * * * * * * * * * * * * * * * * * * * * * * //

dimensions      [1 0 -1 0 0 0 0];

internalField   nonuniform List<scalar> 
39600
(
1.068727e-05
-0.0077675934
0.0077186736
-4.9685502e-05
-0.010854583
0.010914755
-0.0001157297
-0.014183781
0.014249396
-0.00018739324
-0.018242811
0.01831409
-0.00025980772
-0.023352175
0.023424198
-0.00032136754
-0.029898172
0.029959449
-0.00046556399
-0.038085999
0.038229904
-0.00076375919
-0.046446344
0.046743974
-0.0011261606
-0.055422775
0.055784447
-0.0015574596
-0.066620433
0.067050901
-0.0020750255
-0.07961603
0.080132548
-0.0026929797
-0.095610862
0.096227627
-0.0034312896
-0.11440695
0.11514377
-0.0043137101
-0.13733275
0.13821348
-0.0053651388
-0.1644875
0.16553679
-0.0066218766
-0.19742549
0.19867973
-0.0081176985
-0.23664816
0.23814072
-0.0099044829
-0.28408021
0.28586295
-0.012028504
-0.34077752
0.34289639
-0.014565225
-0.40923963
0.41176995
-0.017583433
-0.4913233
0.49433332
-0.021191418
-0.59037098
0.59396869
-0.025503469
-0.70939254
0.71369146
-0.030691476
-0.85289114
0.85806332
-0.036963061
-1.0254013
1.031656
-0.044624233
-1.2328557
1.2405013
-0.05407491
-1.4814505
1.4908878
-0.065826197
-1.7784782
1.7902238
-0.080403507
-2.1317191
2.1463057
-0.098219836
-2.5503238
2.5681916
-0.11958422
-3.0452467
3.0666928
-0.14483036
-3.6306922
3.6560158
-0.17436199
-4.3250216
4.3546473
-0.20873851
-5.1514491
5.1859504
-0.24862147
-6.1378524
6.1778917
-0.29469582
-7.3181074
7.3643564
-0.34758286
-8.7309738
8.7840935
-0.40785927
-10.424094
10.484676
-0.47586599
-12.45418
12.522599
-0.55151827
-14.888629
14.964841
-0.63403264
-17.80967
17.892928
-0.7214288
-21.312695
21.401087
-0.81011809
-25.517231
25.607124
-0.89375942
-30.562781
30.64758
-0.96146236
-36.62296
36.691872
-0.99534127
-43.904152
43.940579
-0.97876945
-52.643585
52.631008
-0.84175188
-63.153552
63.021559
-0.56226928
-75.836866
75.562807
-91.00486
90.461405
-7.768499e-05
-0.0077206223
-0.00013050693
-0.010801917
-0.00019296618
-0.01412164
-0.0002622908
-0.018173801
-0.00033390163
-0.023280884
-0.00039455103
-0.029837748
-0.00054559531
-0.037935237
-0.00082594755
-0.046166586
-0.0011673273
-0.055082156
-0.001571701
-0.066216933
-0.0020573483
-0.079131514
-0.0026354612
-0.095034044
-0.0033264033
-0.11371762
-0.0041514524
-0.13650957
-0.0051341931
-0.1635071
-0.0063090714
-0.1962534
-0.0077053328
-0.23525537
-0.0093741193
-0.28241577
-0.011355564
-0.33880143
-0.013721931
-0.40687981
-0.016535178
-0.48851834
-0.019901731
-0.58701477
-0.023926446
-0.70538099
-0.028779723
-0.84805371
-0.034661935
-1.0195365
-0.041881659
-1.2256527
-0.050841235
-1.4725064
-0.062066481
-1.7672616
-0.076106986
-2.117674
-0.093424437
-2.532964
-0.11436429
-3.0242369
-0.13924459
-3.6057436
-0.16841961
-4.2957614
-0.20238559
-5.1173685
-0.24176433
-6.0983261
-0.28720804
-7.2724953
-0.33933073
-8.678622
-0.39870682
-10.364416
-0.46569077
-12.386788
-0.54024083
-14.813527
-0.62160948
-17.727559
-0.70794534
-21.22537
-0.79580232
-25.428192
-0.8791451
-30.478299
-0.94744622
-36.553417
-0.98368298
-43.864997
-0.96602499
-52.657257
-0.84319912
-63.271497
-0.57720829
-76.097296
-91.52429
-7.0733709e-05
-0.0076739554
-0.00012382437
-0.010749066
-0.0001832906
-0.014062638
-0.00024752324
-0.018110039
-0.00031148705
-0.023217336
-0.00035735823
-0.029792141
-0.00050291456
-0.037790041
-0.00077167306
-0.045898454
-0.0010953186
-0.054759292
-0.0014795157
-0.065833608
-0.0019404788
-0.07867166
-0.0024903392
-0.094485449
-0.0031468511
-0.11306273
-0.0039320296
-0.13572631
-0.0048661724
-0.16257541
-0.0059834764
-0.19513903
-0.0073097233
-0.23393279
-0.0088941172
-0.2808358
-0.010773524
-0.33692752
-0.013018557
-0.40464156
-0.015687042
-0.48585847
-0.018880088
-0.58383252
-0.022699788
-0.70157494
-0.027310556
-0.84345941
-0.032910668
-1.0139547
-0.039808367
-1.2187734
-0.048409324
-1.4639237
-0.05924379
-1.7564394
-0.072869856
-2.1040486
-0.089773368
-2.5160279
-0.11032325
-3.00363
-0.13483558
-3.5811733
-0.16363248
-4.2668882
-0.19716675
-5.0837276
-0.23602469
-6.0593268
-0.28082796
-7.2275288
-0.3321853
-8.6270385
-0.39067329
-10.30563
-0.45665775
-12.320399
-0.53013592
-14.739503
-0.61041521
-17.646539
-0.6957521
-21.139048
-0.78289874
-25.339878
-0.86606758
-30.394014
-0.93509198
-36.483122
-0.97439411
-43.822504
-0.95684112
-52.670816
-0.84717772
-63.376455
-0.59471314
-76.345015
-92.019462
-6.1065963e-05
-0.007630478
-0.0001095242
-0.010700872
-0.00016309335
-0.014009444
-0.00022025023
-0.018053371
-0.0002759263
-0.023162139
-0.00030863997
-0.029759802
-0.00045231664
-0.037646833
-0.00070907065
-0.045642418
-0.0010170529
-0.054452139
-0.0013829347
-0.065468653
-0.0018213226
-0.078234431
-0.0023447583
-0.093963339
-0.002968885
-0.11244028
-0.0037157829
-0.13498139
-0.0046030111
-0.16169071
-0.0056643331
-0.19408074
-0.0069220742
-0.23267884
-0.0084238761
-0.27933853
-0.010204578
-0.33515237
-0.012331625
-0.4025213
-0.014860096
-0.48333854
-0.017887585
-0.58081575
-0.02150949
-0.69796655
-0.025889557
-0.83909574
-0.03122399
-1.0086388
-0.037822663
-1.2121938
-0.046097914
-1.455668
-0.056583021
-1.7459684
-0.06984353
-2.0907913
-0.086374854
-2.4994701
-0.10656278
-2.9833939
-0.13072039
-3.5569652
-0.15914984
-4.2383902
-0.19226675
-5.0505123
-0.23063225
-6.0208278
-0.27483804
-7.1831657
-0.32548681
-8.5761676
-0.38315253
-10.247671
-0.44822243
-12.25493
-0.52073261
-14.666455
-0.60004245
-17.566492
-0.68453803
-21.053573
-0.77113662
-25.252133
-0.85432624
-30.30974
-0.92428156
-36.411864
-0.96529629
-43.778064
-0.95287002
-52.679305
-0.85333187
-63.471299
-0.61519946
-76.578783
-92.489507
-5.1472807e-05
-0.0075902987
-9.6118678e-05
-0.010656855
-0.00014427859
-0.013961724
-0.00019436979
-0.018003772
-0.0002414857
-0.023115505
-0.00026091817
-0.029740727
-0.00040250751
-0.037505791
-0.0006454367
-0.045400248
-0.00093814416
-0.054160362
-0.0012864293
-0.065121402
-0.0017031579
-0.077818971
-0.0022014097
-0.093466523
-0.0027942545
-0.11184923
-0.0035041701
-0.13427358
-0.0043455283
-0.16085198
-0.005352016
-0.19307739
-0.0065424582
-0.23149224
-0.0079639287
-0.27792164
-0.0096475753
-0.33347443
-0.011661709
-0.40051416
-0.014056022
-0.48095306
-0.016923593
-0.57795927
-0.020356488
-0.69454758
-0.024516759
-0.83495238
-0.02960176
-1.003573
-0.035925205
-1.2058907
-0.04390709
-1.4477072
-0.054084899
-1.7358069
-0.067023194
-2.0778598
-0.083221871
-2.4832518
-0.10307217
-2.9635051
-0.12688885
-3.5331068
-0.15495954
-4.2102599
-0.18767597
-5.0177062
-0.22556827
-5.9828105
-0.26921668
-7.1393666
-0.31920751
-8.52596
-0.37612557
-10.190465
-0.44036792
-12.190295
-0.5120189
-14.594275
-0.59048859
-17.48729
-0.67428592
-20.968802
-0.76052379
-25.164768
-0.84391914
-30.225295
-0.91502761
-36.339421
-0.95835771
-43.731139
-0.95183866
-52.681847
-0.8618398
-63.55671
-0.63850871
-76.798193
-92.933785
-4.2182762e-05
-0.0075533477
-8.2624701e-05
-0.010616628
-0.00012556757
-0.013918999
-0.00016896211
-0.017960767
-0.00020795617
-0.023076916
-0.00021617686
-0.029732799
-0.00035708204
-0.037365409
-0.00058790897
-0.045170178
-0.00086643517
-0.053882744
-0.0011981686
-0.064790702
-0.0015941541
-0.077424292
-0.0020678455
-0.092994327
-0.0026301568
-0.11128879
-0.0033037054
-0.1336022
-0.0041001741
-0.16005822
-0.0050530859
-0.19212766
-0.0061781257
-0.23037114
-0.0075247527
-0.27657971
-0.0091199486
-0.33188499
-0.0110259
-0.39861521
-0.013286316
-0.47870144
-0.015995639
-0.57526095
-0.019247086
-0.69130995
-0.023199862
-0.83101646
-0.028051055
-0.998741
-0.034122894
-1.1998396
-0.041843292
-1.4400085
-0.051753319
-1.7259142
-0.064414414
-2.0652075
-0.080321395
-2.4673299
-0.09986666
-2.9439281
-0.12336293
-3.5095753
-0.15109097
-4.1824797
-0.18342355
-4.9852919
-0.22087253
-5.9452448
-0.26400851
-7.0960867
-0.3133992
-8.4763586
-0.36963648
-10.133947
-0.43313958
-12.126407
-0.50403006
-14.522864
-0.58179469
-17.4088
-0.66504823
-20.884584
-0.75109746
-25.077612
-0.83490512
-30.140478
-0.90738632
-36.26556
-0.95359892
-43.681219
-0.95303618
-52.678367
-0.87288843
-63.63238
-0.66483923
-77.002585
-93.352345
-3.4298835e-05
-0.0075192354
-7.1172613e-05
-0.010580223
-0.00010914637
-0.013881367
-0.00014588196
-0.017924529
-0.00017648006
-0.023046785
-0.00017483911
-0.029734744
-0.0003151545
-0.037225651
-0.00053517514
-0.044950903
-0.00079946478
-0.053619385
-0.0011147002
-0.06447653
-0.0014899826
-0.07705035
-0.0019395075
-0.092546343
-0.0024716555
-0.11075858
-0.0031095422
-0.13296656
-0.0038621846
-0.15930834
-0.004762966
-0.19123013
-0.0058277119
-0.22931037
-0.0071070079
-0.27530518
-0.0086200664
-0.33037784
-0.010422575
-0.39681994
-0.01255435
-0.47657873
-0.015109313
-0.57271733
-0.018182144
-0.68825126
-0.021933491
-0.8272824
-0.026568596
-0.99412555
-0.032412611
-1.1940171
-0.039903981
-1.4325396
-0.049585629
-1.716251
-0.062011468
-2.0527927
-0.077667894
-2.4516637
-0.096940192
-2.9246313
-0.1201399
-3.4863476
-0.14754532
-4.1550301
-0.17951655
-4.9532477
-0.21655583
-5.9080977
-0.25921226
-7.0532941
-0.30805418
-8.4273129
-0.36368934
-10.078037
-0.42654374
-12.063176
-0.49679013
-14.452108
-0.57397462
-17.330897
-0.65683809
-20.800764
-0.74287917
-24.990485
-0.82730379
-30.055088
-0.90140061
-36.190018
-0.95089687
-43.62787
-0.95649159
-52.668738
-0.88647379
-63.69807
-0.69419466
-77.19145
-93.744929
-2.6316027e-05
-0.0074878356
-5.9493445e-05
-0.010547485
-9.257674e-05
-0.013848552
-0.000122541
-0.017894936
-0.00014433415
-0.023025415
-0.00013488487
-0.029744454
-0.00027458678
-0.037086503
-0.00048351297
-0.044742725
-0.00073371031
-0.053370127
-0.0010326754
-0.064178647
-0.001387631
-0.076696772
-0.0018133768
-0.092122172
-0.0023160652
-0.11025786
-0.0029193097
-0.13236558
-0.0036294409
-0.158601
-0.0044823188
-0.19038053
-0.0054934693
-0.22830328
-0.006704695
-0.27409882
-0.0081318774
-0.32895663
-0.0098331549
-0.3951259
-0.011847145
-0.47457379
-0.014262648
-0.57031307
-0.017165046
-0.68536295
-0.02072122
-0.82374339
-0.025152833
-0.98971372
-0.030793673
-1.1883981
-0.038088932
-1.4252671
-0.047580984
-1.7067779
-0.059814244
-2.040572
-0.075258989
-2.4362129
-0.094293426
-2.9055778
-0.11722466
-3.4633939
-0.14432968
-4.1278876
-0.17596146
-4.9215506
-0.21261976
-5.8713399
-0.25484531
-7.01094
-0.30320484
-8.3787572
-0.35830357
-10.022672
-0.42059896
-12.000513
-0.49031396
-14.381894
-0.5670549
-17.253447
-0.64969432
-20.71718
-0.73590758
-24.903203
-0.82117003
-29.968884
-0.8971301
-36.112524
-0.95021204
-43.570792
-0.96223513
-52.652713
-0.9027778
-63.753452
-0.72672483
-77.364257
-94.11133
-1.825745e-05
-0.0074596857
-4.7445548e-05
-0.010518872
-7.5546036e-05
-0.013820904
-9.8456759e-05
-0.017872408
-0.00011039587
-0.023013909
-9.3988678e-05
-0.02976113
-0.00023319128
-0.036947911
-0.00043124878
-0.044545413
-0.00066774359
-0.053134588
-0.00095086035
-0.063896616
-0.0012859829
-0.076363018
-0.0016887418
-0.091720968
-0.0021630953
-0.10978546
-0.0027330717
-0.13179787
-0.0034040294
-0.15793283
-0.0042139303
-0.18957393
-0.005169554
-0.22735174
-0.0063101076
-0.27296319
-0.0076518329
-0.32762103
-0.0092540695
-0.39353113
-0.011154151
-0.47268303
-0.013436123
-0.56804264
-0.016185214
-0.68262823
-0.019562967
-0.82038304
-0.023804517
-0.9854922
-0.029268471
-1.1829562
-0.036401626
-1.4181569
-0.045742434
-1.6974564
-0.057823213
-2.0285053
-0.073096113
-2.4209377
-0.09192638
-2.8867344
-0.11461835
-3.4406855
-0.14144971
-4.1010259
-0.17277484
-4.8901685
-0.20908591
-5.8349382
-0.25092682
-6.9689789
-0.298855
-8.330641
-0.35349512
-9.9677752
-0.41533297
-11.938318
-0.48462264
-14.312116
-0.56106527
-17.176304
-0.64364703
-20.633667
-0.73023264
-24.815576
-0.81653796
-29.881634
-0.89461706
-36.032781
-0.95166158
-43.509636
-0.97048514
-52.629976
-0.92225509
-63.797925
-0.76256455
-77.520841
-94.451228
-1.0981762e-05
-0.0074342658
-3.5743264e-05
-0.010494128
-5.8925778e-05
-0.01379812
-7.5117161e-05
-0.017856592
-7.7018191e-05
-0.023012361
-5.5500712e-05
-0.029782925
-0.00019482817
-0.036809204
-0.0003825965
-0.044358395
-0.00060580772
-0.052912272
-0.00087366087
-0.063629789
-0.001189788
-0.076048213
-0.0015707821
-0.091341487
-0.0020184489
-0.10933971
-0.0025575091
-0.13126104
-0.003192769
-0.15730037
-0.0039587159
-0.18881131
-0.0048568209
-0.22645778
-0.0059288002
-0.27189621
-0.0071905182
-0.32636545
-0.0086965769
-0.39203253
-0.010483077
-0.47090582
-0.012633788
-0.56590343
-0.01523932
-0.68003699
-0.018459426
-0.8171803
-0.022535271
-0.98143645
-0.027845968
-1.177668
-0.034850013
-1.4111758
-0.044078663
-1.6882472
-0.056046241
-2.0165528
-0.071185274
-2.4057993
-0.089846347
-2.8680644
-0.11232953
-3.4181905
-0.13891581
-4.0744151
-0.16996076
-4.8590736
-0.20596636
-5.79885
-0.24746354
-6.9273695
-0.29502717
-8.2828975
-0.34928947
-9.9132649
-0.41076167
-11.876499
-0.47975324
-14.242648
-0.55603017
-17.099338
-0.63872959
-20.550051
-0.72588665
-24.727407
-0.81347628
-29.793105
-0.89393049
-35.950483
-0.95551722
-43.443944
-0.98174985
-52.599991
-0.94475261
-63.831401
-0.80179051
-77.660809
-94.764184
-4.7018847e-06
-0.0074109828
-2.6348913e-05
-0.010472653
-4.5161503e-05
-0.01377972
-5.5265672e-05
-0.017846918
-4.7101948e-05
-0.023020897
-2.2952795e-05
-0.029807415
-0.00016000284
-0.036672715
-0.00033728088
-0.044181849
-0.00054750832
-0.052702948
-0.00080087519
-0.063377452
-0.0010990743
-0.075751338
-0.001459416
-0.090982661
-0.0018812887
-0.10891977
-0.0023916885
-0.1307529
-0.0029916028
-0.15670328
-0.0037121194
-0.18809415
-0.0045552155
-0.22561884
-0.005562957
-0.27089348
-0.00674726
-0.32518739
-0.0081603118
-0.39062713
-0.0098376419
-0.46923801
-0.011863753
-0.56388908
-0.014331463
-0.67758379
-0.017412828
-0.8141164
-0.021346777
-0.97752264
-0.02652872
-1.1725085
-0.033439005
-1.4042883
-0.042593138
-1.6791126
-0.054486391
-2.0046757
-0.069528036
-2.3907613
-0.088054053
-2.8495341
-0.11036003
-3.3958778
-0.13673564
-4.0480211
-0.16753939
-4.8282274
-0.20327819
-5.7630369
-0.24448822
-6.8860556
-0.29174545
-8.2354691
-0.34570788
-9.8590643
-0.40690921
-11.814962
-0.47572357
-14.17337
-0.55199168
-17.022392
-0.63497667
-20.466168
-0.72291683
-24.638482
-0.81201885
-29.703042
-0.89511725
-35.865332
-0.96163998
-43.373419
-0.9954692
-52.5626
-0.97000167
-63.853559
-0.84461147
-77.783325
-95.049956
2.3119053e-06
-0.0073906486
-1.5344163e-05
-0.010455204
-2.9091017e-05
-0.013766367
-3.2520288e-05
-0.01784385
-1.296795e-05
-0.023040761
1.2237707e-05
-0.029832879
-0.00011781584
-0.036543198
-0.00028587628
-0.044014509
-0.00048454815
-0.052505178
-0.0007247307
-0.063138307
-0.001006059
-0.075471361
-0.0013465037
-0.090643766
-0.0017431764
-0.10852507
-0.0022248405
-0.13027354
-0.0027889646
-0.15614202
-0.0034661672
-0.18742032
-0.0042578639
-0.22483131
-0.0052034547
-0.26995296
-0.006312767
-0.32408435
-0.0076355459
-0.38931199
-0.0092089962
-0.46767407
-0.011117435
-0.56199236
-0.013457195
-0.67525851
-0.016410542
-0.81118047
-0.020229777
-0.97372358
-0.025316465
-1.1674445
-0.032164681
-1.3974629
-0.041281683
-1.6700152
-0.053138081
-1.9928363
-0.068118184
-2.3757871
-0.086546196
-2.8311054
-0.10871271
-3.3737084
-0.13491049
-4.0218099
-0.16550879
-4.797593
-0.20101959
-5.7274593
-0.24199679
-6.8449824
-0.28901447
-8.1882886
-0.34275208
-9.8050982
-0.40379308
-11.753596
-0.47255111
-14.10416
-0.54896098
-16.945315
-0.6324198
-20.381832
-0.72134945
-24.548608
-0.81221098
-29.61115
-0.89824542
-35.776975
-0.97002035
-43.297815
-1.0117886
-52.517485
-0.99824662
-63.863995
-0.89103271
-77.887801
-95.30809
7.954108e-06
-0.0073723054
-6.5874919e-06
-0.010440831
-1.6314792e-05
-0.01375709
-1.4343816e-05
-0.017846219
1.5706066e-05
-0.023071081
3.7939292e-05
-0.029855443
-8.7169068e-05
-0.036418689
-0.0002469645
-0.043855441
-0.00043442678
-0.05231865
-0.0006614373
-0.062912365
-0.00092572517
-0.075208441
-0.0012461023
-0.090324961
-0.0016194095
-0.10815376
-0.0020732041
-0.12982206
-0.0026019928
-0.15561609
-0.0032380388
-0.18678759
-0.003979851
-0.22409368
-0.004865457
-0.26907246
-0.0059014984
-0.32305475
-0.0071412575
-0.38808009
-0.0086199621
-0.4662051
-0.010419628
-0.5602046
-0.012641055
-0.6730517
-0.015475605
-0.80836325
-0.01920274
-0.97001649
-0.024229882
-1.1624398
-0.031047656
-1.3906675
-0.040164292
-1.660918
-0.052019053
-1.9809992
-0.066976352
-2.3608381
-0.08534599
-2.812739
-0.10740672
-3.3516491
-0.13345436
-3.9957541
-0.16387745
-4.7671406
-0.19920817
-5.6920697
-0.24000612
-6.8040968
-0.28686047
-8.1412804
-0.34047179
-9.7512689
-0.40144786
-11.692306
-0.47028354
-14.034885
-0.54698871
-16.867957
-0.6311097
-20.296859
-0.72124728
-24.457576
-0.81412812
-29.517192
-0.90338439
-35.685067
-0.98073773
-43.216856
-1.0307592
-52.464338
-1.029711
-63.862145
-0.94125028
-77.973601
-95.538023
1.3935468e-05
-0.0073562345
2.5783053e-06
-0.010429645
-2.6545478e-06
-0.013752058
5.1891076e-06
-0.017854338
4.6250392e-05
-0.023112348
6.6203275e-05
-0.029875666
-5.5262954e-05
-0.036297782
-0.00020555357
-0.043705812
-0.00038107024
-0.052144006
-0.00059439359
-0.062700031
-0.00084179578
-0.074962345
-0.0011428473
-0.090025405
-0.0014934773
-0.10780503
-0.0019207575
-0.12939701
-0.0024161856
-0.15512341
-0.0030123418
-0.18619473
-0.0037057366
-0.22340442
-0.0045331518
-0.26825021
-0.0055021276
-0.32209225
-0.0066664027
-0.38692372
-0.0080581818
-0.46482303
-0.0097565228
-0.55851817
-0.011872137
-0.67095063
-0.014603427
-0.80564929
-0.018255886
-0.96638404
-0.023251367
-1.1574668
-0.030078557
-1.3838626
-0.039231616
-1.6517845
-0.051124677
-1.9691243
-0.066098686
-2.3458742
-0.084436385
-2.7944074
-0.10641565
-3.3296743
-0.13234667
-3.9698191
-0.1626337
-4.7368298
-0.19783376
-5.6568175
-0.23851387
-6.7633364
-0.28528146
-8.0943671
-0.33885313
-9.697489
-0.39988702
-11.630969
-0.46892521
-13.96542
-0.54609469
-16.790147
-0.63106891
-20.211058
-0.7226524
-24.365146
-0.81782306
-29.420901
-0.91063035
-35.589298
-0.99389635
-43.130213
-1.0526065
-52.402714
-1.0644898
-63.847567
-0.99544633
-78.04009
-95.739229
2.0032066e-05
-0.0073430394
1.2440143e-05
-0.010422253
1.2335942e-05
-0.013752307
2.6739203e-05
-0.017869104
7.928462e-05
-0.023165141
9.5678709e-05
-0.029892397
-2.1093084e-05
-0.03618158
-0.00016263549
-0.043564898
-0.00032690385
-0.051980563
-0.00052783321
-0.062500026
-0.0007598415
-0.074731561
-0.0010438421
-0.089742798
-0.0013725971
-0.1074781
-0.0017734742
-0.12899824
-0.0022370153
-0.15466253
-0.0027945332
-0.18564036
-0.0034406889
-0.22276236
-0.0042109514
-0.26748515
-0.0051185282
-0.32119129
-0.0062107921
-0.38583954
-0.0075146946
-0.46352904
-0.0091178977
-0.556927
-0.01113923
-0.66894385
-0.013795711
-0.8030099
-0.017400934
-0.96279847
-0.022396924
-1.1524929
-0.029273405
-1.3770077
-0.038499729
-1.6425774
-0.050472993
-1.9571697
-0.065488687
-2.3308704
-0.083814806
-2.7760905
-0.10574219
-3.3077548
-0.13159571
-3.9439659
-0.1617938
-4.7066138
-0.19691422
-5.6216521
-0.23754485
-6.7226334
-0.28429445
-8.0474806
-0.3379259
-9.6436599
-0.39912798
-11.569475
-0.46851687
-13.895614
-0.54631697
-16.71172
-0.63234953
-20.124228
-0.72560403
-24.271094
-0.82334426
-29.321979
-0.92039625
-35.489012
-1.0096277
-43.037837
-1.0773881
-52.332227
-1.1027573
-63.819684
-1.0536908
-78.086798
-95.911195
2.4882192e-05
-0.0073316178
2.0101611e-05
-0.010417683
2.4322241e-05
-0.013756891
4.4306456e-05
-0.017889466
0.00010700993
-0.023228065
0.00011729725
-0.029903046
6.5322136e-06
-0.036071393
-0.0001268012
-0.043432216
-0.0002807692
-0.051827425
-0.00046993624
-0.06231177
-0.00068687445
-0.074515837
-0.00095483629
-0.089476205
-0.001263761
-0.10717092
-0.0016398052
-0.12862425
-0.0020725384
-0.15423235
-0.0025925201
-0.18512348
-0.0031926173
-0.22216631
-0.0039101193
-0.26677278
-0.0047581255
-0.32034984
-0.0057763935
-0.38482931
-0.0069960902
-0.46231923
-0.0085119297
-0.55542316
-0.010452524
-0.66701782
-0.013055314
-0.80042417
-0.016650485
-0.95922294
-0.021689511
-1.1474758
-0.028652609
-1.370066
-0.037992874
-1.6332564
-0.050069318
-1.9451123
-0.065144293
-2.3158088
-0.083488449
-2.757758
-0.10540074
-3.2858531
-0.13121576
-3.9181548
-0.16137112
-4.6764456
-0.19647082
-5.5865137
-0.2371091
-6.6819299
-0.28392773
-8.0005333
-0.33771633
-9.5896838
-0.39920711
-11.507702
-0.46909259
-13.825323
-0.54769922
-16.632501
-0.63498914
-20.036169
-0.73016061
-24.17517
-0.83076097
-29.220146
-0.93241484
-35.384039
-1.0279792
-42.939213
-1.1052338
-52.252408
-1.1446821
-63.777881
-1.1162348
-78.112921
-96.053298
2.999808e-05
-0.0073224415
2.8563572e-05
-0.010416464
3.7663832e-05
-0.01376632
6.3930593e-05
-0.017916157
0.00013630692
-0.023300656
0.00013987276
-0.029906973
3.7326376e-05
-0.035969412
-8.8351135e-05
-0.043307185
-0.00023265985
-0.051683962
-0.00041096093
-0.062134388
-0.00061380832
-0.074314199
-0.00086573879
-0.089225623
-0.0011551778
-0.10688324
-0.001507327
-0.1282741
-0.0019102193
-0.153832
-0.0023940587
-0.18464268
-0.0029515961
-0.22161278
-0.0036214618
-0.26610803
-0.004409683
-0.31956821
-0.005354477
-0.38389263
-0.006497781
-0.46118592
-0.0079394291
-0.55399352
-0.0098187224
-0.66515303
-0.012384119
-0.79787545
-0.015998994
-0.95562725
-0.021115005
-1.142381
-0.028207723
-1.3629939
-0.037697308
-1.6237857
-0.04989296
-1.9329359
-0.065053563
-2.300663
-0.083450132
-2.7393759
-0.10538216
-3.2639346
-0.13119872
-3.8923459
-0.16135886
-4.6462778
-0.19649346
-5.551347
-0.23721617
-6.6411495
-0.28418868
-7.9534406
-0.33823111
-9.5354644
-0.40013993
-11.445523
-0.47067289
-13.754393
-0.55026356
-16.552311
-0.63903427
-19.946657
-0.73636875
-24.077112
-0.84012242
-29.115093
-0.9466461
-35.274191
-1.0490619
-42.833819
-1.1363327
-52.162696
-1.190345
-63.721676
-1.1831324
-78.118202
-96.164778
3.4279529e-05
-0.0073147913
3.5538688e-05
-0.01041796
4.898778e-05
-0.01378007
8.1252444e-05
-0.017948808
0.0001612557
-0.023380879
0.00015691658
-0.029903007
6.0217327e-05
-0.035873306
-5.8852395e-05
-0.04318876
-0.00019424338
-0.051549416
-0.00036225434
-0.061967276
-0.00055295882
-0.074124695
-0.00078973154
-0.088990186
-0.0010584525
-0.10661623
-0.0013863952
-0.12794816
-0.001759846
-0.15346106
-0.0022089014
-0.18419671
-0.0027279525
-0.2210977
-0.0033511896
-0.26548983
-0.0040802021
-0.31884565
-0.0049583536
-0.38302251
-0.0060350482
-0.4601191
-0.0074175548
-0.55262304
-0.0092526772
-0.66333233
-0.011805563
-0.79533932
-0.015465025
-0.95198689
-0.020693264
-1.1371738
-0.027951643
-1.3557558
-0.037613445
-1.6141428
-0.049954084
-1.9206147
-0.065231436
-2.2854014
-0.083710625
-2.7209132
-0.10569774
-3.2419631
-0.13155733
-3.8664969
-0.16177313
-4.6160587
-0.19700261
-5.516091
-0.23788753
-6.6002132
-0.28509652
-7.9061189
-0.33950856
-9.4808851
-0.40195924
-11.382811
-0.47329893
-13.682666
-0.55406418
-16.47096
-0.6445369
-19.855468
-0.74429151
-23.976642
-0.85150165
-29.006478
-0.96323589
-35.159197
-1.0729711
-42.721203
-1.1707487
-52.062584
-1.2399572
-63.650416
-1.2547298
-78.101548
-96.244895
3.8591549e-05
-0.0073089683
4.2764499e-05
-0.010422371
6.1024578e-05
-0.013798659
0.00010021999
-0.017988368
0.00018669519
-0.023467582
0.00017465597
-0.029891352
8.3277931e-05
-0.035782518
-2.8708264e-05
-0.043077389
-0.00015492671
-0.051424033
-0.00031240896
-0.061810675
-0.00049053967
-0.073947743
-0.00071246985
-0.088769561
-0.00096149698
-0.10636892
-0.0012658587
-0.12764579
-0.0016109478
-0.15311853
-0.0020254834
-0.18378522
-0.0025068533
-0.2206203
-0.0030850209
-0.2649167
-0.0037602766
-0.31817684
-0.0045808466
-0.38220997
-0.0056026721
-0.45910714
-0.0069319043
-0.55130577
-0.008735954
-0.66154246
-0.011309311
-0.79278227
-0.015049642
-0.94826505
-0.020432594
-1.1318111
-0.02788519
-1.3483226
-0.037734353
-1.6043122
-0.050249286
-1.9081191
-0.065670516
-2.269997
-0.08426256
-2.7023398
-0.10634076
-3.219903
-0.13228681
-3.8405646
-0.16261063
-4.585736
-0.19800306
-5.4806778
-0.23912281
-6.5590488
-0.28667017
-7.8584666
-0.34154978
-9.4258481
-0.40468506
-11.319426
-0.47699675
-13.609977
-0.55913478
-16.38825
-0.65153026
-19.762381
-0.75398244
-23.873448
-0.86496321
-28.893939
-0.98227803
-35.038747
-1.0998034
-42.600925
-1.2086533
-51.951523
-1.2936488
-63.563475
-1.3310719
-78.062327
-96.292823
4.3046356e-05
-0.0073052957
5.035552e-05
-0.010429926
7.3762914e-05
-0.013822399
0.00012082227
-0.018035792
0.00021212823
-0.023559106
0.00019153505
-0.029871154
0.00010575406
-0.035697324
4.515729e-07
-0.042972687
-0.00011730045
-0.051307105
-0.00026507685
-0.061663756
-0.00043014648
-0.073783846
-0.00063664038
-0.088564363
-0.00086703519
-0.10614022
-0.0011492439
-0.12736558
-0.0014678043
-0.15280252
-0.0018510256
-0.1834051
-0.0022957519
-0.22017954
-0.0028301992
-0.26438719
-0.0034558365
-0.31755754
-0.0042275473
-0.38144614
-0.0052000263
-0.45814445
-0.0064837356
-0.55003397
-0.0082751631
-0.65976523
-0.010897182
-0.79017659
-0.014764438
-0.94441635
-0.020339049
-1.1262564
-0.028007271
-1.3406734
-0.038070679
-1.5942673
-0.050784807
-1.8954243
-0.066376121
-2.2544233
-0.08511135
-2.6836253
-0.10731732
-3.1977169
-0.13339451
-3.8145036
-0.16388143
-4.555254
-0.19950235
-5.4450409
-0.24093971
-6.5175725
-0.28891578
-7.8103926
-0.34439235
-9.3702232
-0.40834331
-11.255234
-0.48179299
-13.536159
-0.56551093
-16.303976
-0.66007351
-19.667152
-0.76550532
-23.767215
-0.88058732
-28.777081
-1.0038812
-34.912489
-1.1296751
-42.472533
-1.2501668
-51.828969
-1.3516808
-63.460126
-1.4123865
-77.999822
-96.307655
4.6719339e-05
-0.0073031413
5.6547758e-05
-0.010440008
8.4470069e-05
-0.013850656
0.00013968152
-0.018091368
0.00023321226
-0.023652857
0.00020319571
-0.029841543
0.00012273951
-0.035617458
2.4435448e-05
-0.042874967
-8.5173413e-05
-0.051198322
-0.00022372973
-0.061526039
-0.00037631676
-0.073632425
-0.00056791705
-0.088374052
-0.0007804483
-0.1059294
-0.0010418029
-0.12710624
-0.0013352646
-0.15251165
-0.0016920941
-0.18305132
-0.0021034655
-0.21977209
-0.0025940274
-0.26390154
-0.0031744334
-0.31698341
-0.0038999441
-0.38072848
-0.0048277609
-0.45722633
-0.0060854956
-0.54878798
-0.0078941568
-0.65797033
-0.010593254
-0.78749332
-0.014622447
-0.9404051
-0.020415682
-1.1204823
-0.028323475
-1.3327838
-0.038629734
-1.5839791
-0.051566427
-1.8825066
-0.067353199
-2.2386556
-0.08626253
-2.6647399
-0.10863346
-3.1753682
-0.13488875
-3.7882673
-0.16559625
-4.5245554
-0.20152039
-5.409106
-0.24335588
-6.4757039
-0.29186392
-7.7617937
-0.34805517
-9.3138929
-0.41297111
-11.190086
-0.4877349
-13.461038
-0.57323724
-16.217937
-0.67022695
-19.569527
-0.77894068
-23.657629
-0.89845177
-28.655494
-1.0281851
-34.780031
-1.1627343
-42.335564
-1.2954356
-51.694363
-1.4141425
-63.339757
-1.4988954
-77.913502
-96.288498
5.124315e-05
-0.0073034689
6.4374363e-05
-0.010453366
9.7444e-05
-0.01388404
0.00016241737
-0.018156675
0.00025659047
-0.023747269
0.00021758865
-0.029802987
0.00014306898
-0.03554354
5.1998429e-05
-0.042784469
-4.8292041e-05
-0.051098843
-0.00017724655
-0.061397912
-0.00031874381
-0.073492092
-0.00049728594
-0.088196828
-0.00069382287
-0.10573458
-0.00093624063
-0.12686587
-0.00120718
-0.15224327
-0.0015374343
-0.18272413
-0.0019163839
-0.21939701
-0.0023665382
-0.26345616
-0.0029090606
-0.31644703
-0.0035936912
-0.38005155
-0.0044861342
-0.45634352
-0.0057404886
-0.54754529
-0.0075920837
-0.65613253
-0.01040467
-0.78469659
-0.014624411
-0.93620347
-0.020659939
-1.1144657
-0.028833665
-1.3246278
-0.03940658
-1.5734243
-0.052588581
-1.8693427
-0.0685948
-2.2226695
-0.087709355
-2.6456531
-0.11028445
-3.152817
-0.13676618
-3.7618065
-0.16775505
-4.4935788
-0.2040491
-5.3728056
-0.24638254
-6.4333424
-0.29552651
-7.7125647
-0.35255073
-9.2567374
-0.41858485
-11.123828
-0.49484692
-13.38443
-0.58235935
-16.129911
-0.68203099
-19.469251
-0.794353
-23.544363
-0.91890299
-28.528546
-1.0553204
-34.641186
-1.1990936
-42.189556
-1.3445973
-51.547109
-1.481161
-63.201674
-1.5908443
-77.802364
-96.234351
5.3755201e-05
-0.0073045007
6.8499757e-05
-0.010468376
0.00010515855
-0.013921041
0.00017962043
-0.01823148
0.00027135213
-0.023839208
0.00022663264
-0.02975865
0.00015789331
-0.03547535
7.3031569e-05
-0.042700144
-1.9384248e-05
-0.051007207
-0.00013956301
-0.061278576
-0.00027093202
-0.073361881
-0.00043756208
-0.088031507
-0.00061952043
-0.10555437
-0.00084439669
-0.12664302
-0.0010956904
-0.15199455
-0.0013991957
-0.18242368
-0.0017453921
-0.21905466
-0.0021608941
-0.26304542
-0.0026680533
-0.31594596
-0.0033175322
-0.37940972
-0.0041916025
-0.45547891
-0.0054588235
-0.5462895
-0.0073772335
-0.6542273
-0.010341622
-0.78174746
-0.014783913
-0.93177866
-0.021087028
-1.1081806
-0.029553969
-1.3161778
-0.040415282
-1.5625809
-0.053864271
-1.8559091
-0.070118629
-2.2064283
-0.089471603
-2.6263245
-0.11229097
-3.1300235
-0.1390483
-3.7350724
-0.1703801
-4.4622629
-0.20712625
-5.3360578
-0.25004027
-6.3904053
-0.29992779
-7.6625978
-0.35792221
-9.1986191
-0.4252304
-11.056304
-0.5031751
-13.306151
-0.59292214
-16.039676
-0.69554385
-19.366059
-0.81179861
-23.4271
-0.94210657
-28.395734
-1.0853474
-34.495619
-1.2388584
-42.03397
-1.3977973
-51.386569
-1.5529988
-63.04507
-1.6884378
-77.665553
-96.144247
5.7585915e-05
-0.0073076138
7.4988658e-05
-0.010486085
0.00011611724
-0.013962523
0.0002017145
-0.018317429
0.00028919334
-0.023926965
0.00024903021
-0.029718913
0.00018434084
-0.035411249
0.00010373458
-0.042620142
1.5879601e-05
-0.050920206
-9.7106614e-05
-0.061166447
-0.00021797413
-0.073242204
-0.00037269697
-0.087878102
-0.00054006735
-0.10538875
-0.00074691872
-0.12643822
-0.00097849329
-0.15176559
-0.0012579641
-0.18214729
-0.0015743417
-0.21874211
-0.0019609951
-0.26266343
-0.0024373909
-0.31547557
-0.003058088
-0.37879653
-0.0039263347
-0.45462012
-0.0052223801
-0.54500481
-0.0072428664
-0.65222001
-0.010392903
-0.77861271
-0.015086219
-0.92710307