/*--------------------------------*- C++ -*----------------------------------*\
  =========                 |
  \\      /  F ield         | OpenFOAM: The Open Source CFD Toolbox
   \\    /   O peration     | Website:  https://openfoam.org
    \\  /    A nd           | Version:  8
     \\/     M anipulation  |
\*---------------------------------------------------------------------------*/
FoamFile
{
    version     2.0;
    format      ascii;
    class       pointVectorField;
    location    "0.129988";
    object      pointDisplacement;
}
// * * * * * * * * * * * * * * * * * * * * * * * * * * * * * * * * * * * * * //

dimensions      [0 1 0 0 0 0 0];

internalField   nonuniform List<vector> 
40800
(
(0.0017852045 0 0.0015336492)
(0.0017886082 0 0.0012784193)
(0.0017883321 0 0.0012795603)
(0.0017848196 0 0.0015401295)
(0.0017883073 0 0.0012790064)
(0.0017847984 0 0.0015395893)
(0.0017882544 0 0.0012782849)
(0.0017847486 0 0.0015389937)
(0.00178816 0 0.0012774483)
(0.0017846586 0 0.0015383072)
(0.0017880063 0 0.0012764846)
(0.001784511 0 0.0015375208)
(0.0017877684 0 0.0012753845)
(0.0017842816 0 0.00153663)
(0.0017874126 0 0.0012741438)
(0.0017839371 0 0.001535636)
(0.001786892 0 0.0012727671)
(0.0017834319 0 0.0015345487)
(0.0017861435 0 0.0012712735)
(0.001782704 0 0.0015333932)
(0.0017850816 0 0.001269705)
(0.0017816694 0 0.0015322176)
(0.0017835915 0 0.0012681391)
(0.0017802154 0 0.0015311057)
(0.0017815205 0 0.0012667068)
(0.0017781918 0 0.0015301946)
(0.0017786661 0 0.0012656183)
(0.0017753997 0 0.0015297)
(0.0017747639 0 0.0012652)
(0.0017715786 0 0.0015299518)
(0.0017694705 0 0.0012659455)
(0.0017663901 0 0.0015314425)
(0.0017623476 0 0.001268588)
(0.0017594014 0 0.0015348988)
(0.0017528442 0 0.0012741907)
(0.0017500676 0 0.0015413619)
(0.0017402807 0 0.0012842809)
(0.0017377145 0 0.0015523218)
(0.0017238393 0 0.0013010136)
(0.0017215284 0 0.0015698691)
(0.0017025673 0 0.0013273434)
(0.0017005577 0 0.0015968511)
(0.0016754043 0 0.0013671956)
(0.0016737373 0 0.0016370477)
(0.0016412416 0 0.0014255693)
(0.0016399451 0 0.0016952767)
(0.0015990214 0 0.0015085245)
(0.0015980979 0 0.0017773819)
(0.0015478718 0 0.0016229465)
(0.0015472837 0 0.0018900121)
(0.0014872537 0 0.0017759439)
(0.0014869095 0 0.0020400603)
(0.0014171734 0 0.0019736518)
(0.0014169319 0 0.0022334605)
(0.0013382228 0 0.0022200416)
(0.0013378908 0 0.0024740723)
(0.0012516839 0 0.0025152257)
(0.0012510586 0 0.0027618853)
(0.0011592932 0 0.0028547461)
(0.0011581884 0 0.0030923733)
(0.0010632725 0 0.0032283628)
(0.0010615794 0 0.0034551566)
(0.00096590595 0 0.0036217531)
(0.00096359005 0 0.0038359696)
(0.00086948168 0 0.0040171474)
(0.00086660811 0 0.0042170798)
(0.00077608059 0 0.0043958426)
(0.00077277769 0 0.0045800622)
(0.00068752237 0 0.0047398133)
(0.00068398854 0 0.0049071199)
(0.00060502771 0 0.0050350385)
(0.00060142563 0 0.0051849316)
(0.00052924777 0 0.0052720214)
(0.00052574198 0 0.0054044827)
(0.00046049297 0 0.0054438176)
(0.00045717604 0 0.0055593847)
(0.00039845603 0 0.0055481616)
(0.0003954016 0 0.0056477306)
(0.00034291847 0 0.0055818328)
(0.000340144 0 0.00566642)
(0.00029316667 0 0.0055448778)
(0.00029068196 0 0.0056157021)
(0.00024895452 0 0.0054350678)
(0.00024674669 0 0.0054931713)
(0.00020994342 0 0.0052537059)
(0.00020805392 0 0.0053006598)
(0.0001754048 0 0.0049932846)
(0.00017378609 0 0.0050297184)
(0.00014406868 0 0.0046482834)
(0.00014268393 0 0.0046757384)
(0.00011556116 0 0.0042043119)
(0.00011437361 0 0.0042230358)
(8.8889908e-05 0 0.0036399159)
(8.7858557e-05 0 0.0036505191)
(6.4445087e-05 0 0.0029543843)
(6.3621257e-05 0 0.0029588279)
(4.1099144e-05 0 0.0021151679)
(4.0456101e-05 0 0.0021144598)
(1.8139594e-05 0 0.0011007963)
(1.7659925e-05 0 0.0010966931)
(0 0 0)
(0 0 0)
(0.0017909584 0 0.0010286692)
(0.001790688 0 0.0010296414)
(0.0017906622 0 0.001028858)
(0.0017906068 0 0.0010279434)
(0.0017905089 0 0.001026876)
(0.0017903503 0 0.0010256379)
(0.0017901057 0 0.0010242122)
(0.0017897404 0 0.0010225852)
(0.0017892069 0 0.0010207508)
(0.0017884409 0 0.0010187156)
(0.0017873553 0 0.001016508)
(0.0017858335 0 0.0010141902)
(0.0017837201 0 0.001011877)
(0.00178081 0 0.0010097618)
(0.0017768349 0 0.0010081547)
(0.0017714472 0 0.0010075342)
(0.0017642036 0 0.0010086215)
(0.0017545477 0 0.0010124805)
(0.0017417955 0 0.0010206544)
(0.0017251257 0 0.0010353412)
(0.0017035854 0 0.0010595803)
(0.0016761188 0 0.0010974238)
(0.0016416298 0 0.0011540304)
(0.0015990849 0 0.0012356659)
(0.00154765 0 0.0013494627)
(0.0014868405 0 0.0015027726)
(0.0014167085 0 0.0017020039)
(0.0013378979 0 0.0019513275)
(0.0012516986 0 0.0022511013)
(0.0011598329 0 0.002597064)
(0.0010644531 0 0.0029792266)
(0.00096776621 0 0.003383322)
(0.00087197508 0 0.0037915675)
(0.0007790804 0 0.0041850903)
(0.00069084869 0 0.0045455652)
(0.00060849606 0 0.0048584257)
(0.00053270752 0 0.0051134605)
(0.0004638115 0 0.0053033144)
(0.00040157255 0 0.0054250714)
(0.00034577481 0 0.0054754545)
(0.00029576917 0 0.0054541358)
(0.00025128439 0 0.0053589958)
(0.0002119778 0 0.0051908745)
(0.0001771432 0 0.0049427664)
(0.00014558264 0 0.0046089124)
(0.0001168611 0 0.0041752706)
(9.0039814e-05 0 0.0036212607)
(6.5383211e-05 0 0.0029438539)
(4.1835975e-05 0 0.0021118681)
(1.8704738e-05 0 0.0011032711)
(0 0 0)
(0.0017922782 0 0.00078428509)
(0.0017920144 0 0.00078515423)
(0.0017919855 0 0.00078420435)
(0.0017919258 0 0.00078309161)
(0.0017918221 0 0.0007817883)
(0.001791656 0 0.00078026894)
(0.0017914015 0 0.0007785082)
(0.0017910232 0 0.00077648381)
(0.0017904726 0 0.00077417938)
(0.001789684 0 0.00077159046)
(0.0017885687 0 0.00076873258)
(0.0017870078 0 0.00076565364)
(0.0017848434 0 0.00076245265)
(0.0017818669 0 0.00075930593)
(0.0017778059 0 0.00075650617)
(0.001772308 0 0.00075451632)
(0.0017649245 0 0.00075404632)
(0.0017550937 0 0.0007561591)
(0.0017421266 0 0.00076241641)
(0.0017251993 0 0.00077507148)
(0.001703359 0 0.00079726214)
(0.0016755555 0 0.00083317566)
(0.0016407066 0 0.00088812142)
(0.0015978067 0 0.00096856117)
(0.0015460645 0 0.0010818695)
(0.0014850528 0 0.0012356245)
(0.0014148768 0 0.0014364672)
(0.0013362334 0 0.0016887351)
(0.0012504229 0 0.0019929872)
(0.0011591524 0 0.0023451299)
(0.0010645026 0 0.002735397)
(0.00096859902 0 0.0031495917)
(0.00087355293 0 0.0035699537)
(0.00078128171 0 0.0039774839)
(0.0006934933 0 0.0043536156)
(0.00061139339 0 0.0046833063)
(0.00053569461 0 0.0049556931)
(0.00046674488 0 0.0051630075)
(0.00040437468 0 0.0053017211)
(0.00034837766 0 0.0053684507)
(0.0002981646 0 0.0053625116)
(0.00025344739 0 0.0052818453)
(0.00021388095 0 0.0051268729)
(0.00017878037 0 0.0048910051)
(0.00014701415 0 0.0045682822)
(0.00011809796 0 0.0041449901)
(9.1137717e-05 0 0.0036013255)
(6.6286418e-05 0 0.0029322134)
(4.2550047e-05 0 0.0021076411)
(1.9249045e-05 0 0.0011050439)
(0 0 0)
(0.0017926005 0 0.00054515566)
(0.0017923422 0 0.00054592146)
(0.0017923086 0 0.00054480395)
(0.0017922429 0 0.00054349148)
(0.0017921315 0 0.00054195121)
(0.0017919553 0 0.00054015119)
(0.0017916878 0 0.00053805841)
(0.0017912926 0 0.00053564119)
(0.0017907202 0 0.00053287245)
(0.0017899035 0 0.00052973551)
(0.0017887517 0 0.00052623211)
(0.0017871438 0 0.00052239524)
(0.0017849188 0 0.00051830767)
(0.0017818643 0 0.0005141287)
(0.0017777035 0 0.00051013382)
(0.0017720788 0 0.00050677033)
(0.0017645357 0 0.00050473659)
(0.0017545065 0 0.00050509365)
(0.001741298 0 0.0005094229)
(0.0017240843 0 0.00052005429)
(0.0017019134 0 0.0005402437)
(0.0016737406 0 0.00057432181)
(0.0016384992 0 0.00062772774)
(0.0015952155 0 0.00070710633)
(0.0015431462 0 0.00082007998)
(0.0014819237 0 0.00097443115)
(0.0014117132 0 0.001176994)
(0.0013332655 0 0.0014322422)
(0.001247893 0 0.0017408928)
(0.0011572853 0 0.0020989891)
(0.0010634507 0 0.0024969602)
(0.00096842848 0 0.0029206908)
(0.00087423297 0 0.0033524729)
(0.00078269553 0 0.0037732223)
(0.00069546112 0 0.004164185)
(0.00061372006 0 0.0045099081)
(0.00053820639 0 0.0047989407)
(0.00046928859 0 0.005023104)
(0.00040685731 0 0.0051782958)
(0.00035072173 0 0.0052609838)
(0.00030034822 0 0.0052701435)
(0.00025543925 0 0.0052037333)
(0.00021564883 0 0.005061794)
(0.00018031279 0 0.0048380769)
(0.00014836089 0 0.0045264525)
(0.00011926973 0 0.0041135151)
(9.2182515e-05 0 0.0035801511)
(6.715363e-05 0 0.0029194877)
(4.3240566e-05 0 0.0021025041)
(1.9772724e-05 0 0.0011061319)
(0 0 0)
(0.0017919561 0 0.00031117138)
(0.0017917009 0 0.00031183587)
(0.0017916611 0 0.00031055269)
(0.0017915875 0 0.00030904283)
(0.0017914662 0 0.00030726775)
(0.0017912772 0 0.00030518871)
(0.0017909935 0 0.00030276492)
(0.0017905776 0 0.00029995559)
(0.0017899787 0 0.00029672318)
(0.001789128 0 0.00029303892)
(0.0017879329 0 0.00028889095)
(0.0017862697 0 0.00028429695)
(0.0017839739 0 0.00027932306)
(0.0017808294 0 0.00027411106)
(0.0017765542 0 0.00026891855)
(0.001770785 0 0.00026417599)
(0.0017630611 0 0.00026056873)
(0.001752809 0 0.0002591535)
(0.0017393316 0 0.00026152249)
(0.0017218028 0 0.00027013016)
(0.0016992714 0 0.00028838078)
(0.0016706974 0 0.00032074715)
(0.0016350308 0 0.00037275671)
(0.0015913348 0 0.00045121973)
(0.0015389196 0 0.00056403507)
(0.00147748 0 0.00071915474)
(0.0014072463 0 0.00092356916)
(0.0013290243 0 0.0011818575)
(0.0012441395 0 0.0014948527)
(0.0011542617 0 0.0018587061)
(0.0010613246 0 0.0022640148)
(0.00096727708 0 0.0026967525)
(0.00087403227 0 0.0031392915)
(0.00078333292 0 0.0035725005)
(0.00069675768 0 0.003977487)
(0.00061547697 0 0.0043384528)
(0.00054024076 0 0.0046434192)
(0.00047143831 0 0.0048838071)
(0.00040901554 0 0.005054977)
(0.00035280168 0 0.0051532143)
(0.00030231527 0 0.0051771673)
(0.00025725554 0 0.0051247741)
(0.00021727736 0 0.0049957282)
(0.00018173682 0 0.0047840549)
(0.00014962033 0 0.0044834796)
(0.00012037425 0 0.0040808868)
(9.317297e-05 0 0.0035577761)
(6.7983665e-05 0 0.0029056978)
(4.3906706e-05 0 0.0020964713)
(2.0275954e-05 0 0.0011065509)
(0 0 0)
(0.0017903687 0 8.2225625e-05)
(0.0017901167 0 8.2789918e-05)
(0.0017900692 0 8.1341886e-05)
(0.001789986 0 7.9635764e-05)
(0.0017898524 0 7.7627097e-05)
(0.0017896481 0 7.5270259e-05)
(0.0017893449 0 7.251648e-05)
(0.0017889044 0 6.9315869e-05)
(0.0017882743 0 6.562043e-05)
(0.0017873841 0 6.1389272e-05)
(0.0017861388 0 5.6596936e-05)
(0.0017844118 0 5.1245854e-05)
(0.0017820351 0 4.5385277e-05)
(0.0017787879 0 3.9138797e-05)
(0.001774383 0 3.2744957e-05)
(0.0017684508 0 2.6615815e-05)
(0.0017605238 0 2.1421761e-05)
(0.0017500221 0 1.8215405e-05)
(0.0017362491 0 1.869844e-05)
(0.0017183805 0 2.5432096e-05)
(0.0016954613 0 4.1850578e-05)
(0.0016664526 0 7.2506143e-05)
(0.0016303246 0 0.00012312709)
(0.0015861882 0 0.00020082202)
(0.0015334104 0 0.00031367976)
(0.0014717496 0 0.00046975947)
(0.0014015065 0 0.00067617601)
(0.0013235423 0 0.00093758558)
(0.0012391958 0 0.001254894)
(0.001150114 0 0.0016243333)
(0.0010581543 0 0.0020366432)
(0.00096517035 0 0.0024778921)
(0.00087297097 0 0.0029305562)
(0.00078320798 0 0.003375493)
(0.00069739128 0 0.0037937165)
(0.00061666757 0 0.0041691456)
(0.00054179773 0 0.0044893313)
(0.00047319162 0 0.0047453101)
(0.00041084579 0 0.0049319401)
(0.00035461329 0 0.0050452979)
(0.00030406169 0 0.0050837166)
(0.00025889243 0 0.0050450812)
(0.00021876286 0 0.0049287664)
(0.00018304911 0 0.0047290129)
(0.00015079011 0 0.0044394211)
(0.0001214095 0 0.0040471481)
(9.4107877e-05 0 0.0035342391)
(6.8775366e-05 0 0.002890867)
(4.4547651e-05 0 0.0020895598)
(2.0758833e-05 0 0.0011063172)
(0 0 0)
(0.0017878654 0 -0.00014178546)
(0.0017876162 0 -0.00014132203)
(0.0017875596 0 -0.00014293626)
(0.0017874649 0 -0.0001448404)
(0.001787317 0 -0.00014708429)
(0.0017870946 0 -0.00014971998)
(0.0017867688 0 -0.00015280396)
(0.0017862999 0 -0.00015639527)
(0.0017856339 0 -0.00016055243)
(0.0017846983 0 -0.00016532866)
(0.0017833957 0 -0.0001707634)
(0.0017815962 0 -0.00017687)
(0.0017791278 0 -0.00018361677)
(0.0017757649 0 -0.00019089931)
(0.0017712141 0 -0.00019849961)
(0.0017650993 0 -0.0002060262)
(0.0017569455 0 -0.00021282377)
(0.0017461728 0 -0.00021774156)
(0.0017320866 0 -0.0002188995)
(0.0017138523 0 -0.0002137927)
(0.0016905082 0 -0.00019906173)
(0.0016610251 0 -0.00017012597)
(0.0016244047 0 -0.00012092704)
(0.0015798029 0 -4.4009281e-05)
(0.0015266445 0 6.8965261e-05)
(0.0014647606 0 0.00022621563)
(0.0013945245 0 0.0004348021)
(0.0013168528 0 0.00069943142)
(0.0012330964 0 0.0010210401)
(0.0011448765 0 0.0013959156)
(0.0010539714 0 0.001814917)
(0.00096213579 0 0.0022642102)
(0.00087107119 0 0.002726398)
(0.00078233682 0 0.0031823581)
(0.00069737219 0 0.0036130529)
(0.00061729712 0 0.0040021782)
(0.0005428788 0 0.0043368693)
(0.00047454718 0 0.0046077985)
(0.00041234544 0 0.0048093549)
(0.000356153 0 0.0049373874)
(0.00030558397 0 0.0049899235)
(0.00026034643 0 0.0049647675)
(0.00022010195 0 0.0048609998)
(0.00018424653 0 0.0046730251)
(0.00015186791 0 0.0043943349)
(0.00012237349 0 0.0040123424)
(9.4986024e-05 0 0.0035095794)
(6.9527598e-05 0 0.0028750189)
(4.5162565e-05 0 0.0020817851)
(2.1221431e-05 0 0.0011054453)
(0 0 0)
(0.0017844744 0 -0.00036096481)
(0.0017842272 0 -0.00036060056)
(0.0017841598 0 -0.00036237933)
(0.0017840518 0 -0.00036447934)
(0.0017838872 0 -0.00036695633)
(0.001783644 0 -0.00036986929)
(0.0017832922 0 -0.0003732826)
(0.0017827906 0 -0.00037726443)
(0.0017820837 0 -0.00038188384)
(0.0017810967 0 -0.00038720611)
(0.0017797293 0 -0.00039328453)
(0.0017778481 0 -0.00040014831)
(0.0017752768 0 -0.0004077836)
(0.0017717842 0 -0.00041610621)
(0.0017670706 0 -0.00042492124)
(0.0017607522 0 -0.00043386058)
(0.0017523534 0 -0.00044220032)
(0.001741298 0 -0.00044862344)
(0.0017268783 0 -0.00045127608)
(0.0017082424 0 -0.00044774452)
(0.0016844318 0 -0.00043460072)
(0.0016544373 0 -0.00040715832)
(0.001617295 0 -0.00035915461)
(0.001572202 0 -0.00028302035)
(0.0015186478 0 -0.00017001003)
(0.0014565423 0 -1.1502627e-05)
(0.0013863328 0 0.00019943548)
(0.0013089908 0 0.00046739779)
(0.001225878 0 0.00079330815)
(0.0011385857 0 0.0011734877)
(0.0010488101 0 0.0015988941)
(0.00095820324 0 0.0020557914)
(0.00086835744 0 0.0025269294)
(0.00078073792 0 0.0029932354)
(0.00069671293 0 0.0034356574)
(0.00061737286 0 0.0038377261)
(0.00054348728 0 0.0041862118)
(0.00047550535 0 0.0044714468)
(0.00041351308 0 0.0046873836)
(0.00035741826 0 0.0048296298)
(0.00030687929 0 0.0048959164)
(0.0002616146 0 0.0048839434)
(0.00022129167 0 0.0047925187)
(0.00018532621 0 0.0046161657)
(0.00015285159 0 0.0043482796)
(0.00012326437 0 0.0039765141)
(9.5806224e-05 0 0.0034838363)
(7.0239194e-05 0 0.0028581773)
(4.5750615e-05 0 0.0020731642)
(2.1663759e-05 0 0.0011039508)
(0 0 0)
(0.0017802236 0 -0.00057541236)
(0.0017799764 0 -0.0005751467)
(0.0017798966 0 -0.0005770899)
(0.0017797733 0 -0.00057938556)
(0.0017795896 0 -0.00058209534)
(0.0017793227 0 -0.00058528506)
(0.0017789413 0 -0.00058902708)
(0.0017784028 0 -0.00059339877)
(0.0017776497 0 -0.00059847991)
(0.0017766047 0 -0.00060434784)
(0.0017751647 0 -0.00061106971)
(0.0017731922 0 -0.00061869057)
(0.0017705062 0 -0.00062721452)
(0.0017668693 0 -0.00063657865)
(0.0017619746 0 -0.00064661531)
(0.0017554361 0 -0.00065692425)
(0.0017467824 0 -0.00066664295)
(0.0017354263 0 -0.00067445885)
(0.001720639 0 -0.0006786423)
(0.0017015641 0 -0.00067671244)
(0.0016772516 0 -0.00066510273)
(0.0016467123 0 -0.0006389558)
(0.0016090141 0 -0.00059189019)
(0.0015634052 0 -0.0005162462)
(0.0015094424 0 -0.00040315192)
(0.00144712 0 -0.00024342188)
(0.0013769644 0 -2.9933442e-05)
(0.0012999927 0 0.00024148688)
(0.0012175782 0 0.0005717109)
(0.0011312792 0 0.00095707669)
(0.001042706 0 0.0013886216)
(0.00095340423 0 0.0018527068)
(0.00086485591 0 0.0023322484)
(0.00077843147 0 0.0028082491)
(0.00069542778 0 0.0032616756)
(0.00061690374 0 0.0036759512)
(0.00054362791 0 0.0040375261)
(0.00047606756 0 0.0043364209)
(0.0004143482 0 0.0045661821)
(0.00035840724 0 0.0047221679)
(0.00030794534 0 0.0048018213)
(0.00026269439 0 0.004802718)
(0.00022232935 0 0.0047234134)
(0.00018628551 0 0.0045585086)
(0.00015373904 0 0.0043013138)
(0.00012408032 0 0.0039397081)
(9.65673e-05 0 0.0034570497)
(7.090905e-05 0 0.0028403671)
(4.631097e-05 0 0.0020637133)
(2.2085819e-05 0 0.0011018477)
(0 0 0)
(0.0017751355 0 -0.0007852257)
(0.0017748874 0 -0.00078505794)
(0.0017747937 0 -0.00078716526)
(0.001774653 0 -0.00078965629)
(0.0017744478 0 -0.00079259863)
(0.0017741543 0 -0.00079606498)
(0.0017737398 0 -0.0008001357)
(0.00177316 0 -0.00080489728)
(0.0017723554 0 -0.00081044004)
(0.0017712461 0 -0.00081685323)
(0.0017697255 0 -0.00082421744)
(0.001767652 0 -0.00083259282)
(0.0017648392 0 -0.00084200024)
(0.0017610432 0 -0.00085239452)
(0.0017559521 0 -0.0008636246)
(0.0017491835 0 -0.00087519614)
(0.0017402597 0 -0.00088620484)
(0.001728573 0 -0.00089544707)
(0.0017133836 0 -0.00090117699)
(0.0016938353 0 -0.00090080899)
(0.0016689848 0 -0.00089067803)
(0.0016378647 0 -0.00086575341)
(0.0015995794 0 -0.00081948345)
(0.0015534324 0 -0.0007440057)
(0.0014990533 0 -0.00063050262)
(0.0014365265 0 -0.00046944504)
(0.0013664548 0 -0.00025331426)
(0.0012898967 0 2.1698321e-05)
(0.0012082373 0 0.00035625377)
(0.0011229974 0 0.00074669857)
(0.0010356969 0 0.0011841329)
(0.00094777246 0 0.0016550107)
(0.00086059498 0 0.0021424345)
(0.00077543987 0 0.0026275043)
(0.00069353304 0 0.003091235)
(0.00061590065 0 0.0035169979)
(0.00054330712 0 0.003890965)
(0.0004762368 0 0.0042028743)
(0.00041485156 0 0.004445897)
(0.0003591191 0 0.0046151376)
(0.00030878057 0 0.0047077595)
(0.00026358382 0 0.0047211975)
(0.00022321275 0 0.0046537725)
(0.0001871221 0 0.0045001277)
(0.00015452841 0 0.0042534964)
(0.00012481967 0 0.0039019701)
(9.726809e-05 0 0.0034292586)
(7.1536067e-05 0 0.0028216141)
(4.6842789e-05 0 0.00205345)
(2.2487536e-05 0 0.0010991502)
(0 0 0)
(0.0017692322 0 -0.00099050034)
(0.0017689845 0 -0.00099043085)
(0.0017688751 0 -0.0009927035)
(0.0017687151 0 -0.00099539155)
(0.0017684861 0 -0.00099856819)
(0.0017681629 0 -0.0010023127)
(0.0017677116 0 -0.0010067131)
(0.0017670862 0 -0.0010118647)
(0.0017662247 0 -0.0010178683)
(0.0017650445 0 -0.0010248249)
(0.0017634352 0 -0.0010328287)
(0.0017612509 0 -0.0010419551)
(0.0017582992 0 -0.0010522422)
(0.0017543295 0 -0.0010636641)
(0.0017490299 0 -0.0010760221)
(0.0017420183 0 -0.0010887734)
(0.001732801 0 -0.0011010798)
(0.0017207538 0 -0.0011117552)
(0.0017051305 0 -0.0011189916)
(0.0016850731 0 -0.0011201422)
(0.0016596471 0 -0.0011114371)
(0.0016279112 0 -0.0010876459)
(0.0015890102 0 -0.0010420098)
(0.0015423056 0 -0.00096647817)
(0.0014875135 0 -0.00085209561)
(0.001424797 0 -0.00068946776)
(0.0013548366 0 -0.00047071361)
(0.0012787422 0 -0.00019196812)
(0.0011978963 0 0.00014693932)
(0.0011137813 0 0.00054236396)
(0.0010278219 0 0.00098545266)
(0.00094134283 0 0.0014627467)
(0.00085560424 0 0.0019575541)
(0.00077178958 0 0.0024512008)
(0.00069105187 0 0.0029246802)
(0.00061437986 0 0.0033612163)
(0.00054253538 0 0.0037468618)
(0.00047601828 0 0.0040710483)
(0.00041502476 0 0.0043266695)
(0.00035955365 0 0.0045086703)
(0.00030938392 0 0.0046138496)
(0.00026428127 0 0.0046394863)
(0.00022393989 0 0.0045836843)
(0.00018783386 0 0.0044410963)
(0.00015521785 0 0.0042048866)
(0.00012548079 0 0.003863346)
(9.7907449e-05 0 0.0034005034)
(7.2119156e-05 0 0.0028019443)
(4.7345242e-05 0 0.0020423913)
(2.2868857e-05 0 0.001095873)
(0 0 0)
(0.001762544 0 -0.0011913304)
(0.001762292 0 -0.0011913584)
(0.0017621653 0 -0.0011937964)
(0.0017619838 0 -0.0011966814)
(0.0017617283 0 -0.0012000925)
(0.0017613724 0 -0.0012041152)
(0.0017608805 0 -0.0012088452)
(0.0017602048 0 -0.0012143866)
(0.0017592808 0 -0.0012208502)
(0.0017580228 0 -0.0012283488)
(0.0017563165 0 -0.0012369901)
(0.0017540109 0 -0.0012468646)
(0.0017509074 0 -0.0012580274)
(0.0017467513 0 -0.0012704718)
(0.0017412324 0 -0.0012839169)
(0.0017339605 0 -0.001297818)
(0.0017244242 0 -0.0013114119)
(0.0017119876 0 -0.0013234825)
(0.0016958972 0 -0.0013321842)
(0.001675293 0 -0.0013348129)
(0.0016492533 0 -0.001327491)
(0.0016168686 0 -0.0013047329)
(0.0015773267 0 -0.0012595446)
(0.0015300513 0 -0.0011837272)
(0.0014748495 0 -0.0010680877)
(0.0014119634 0 -0.00090351138)
(0.0013421514 0 -0.00068201936)
(0.0012665707 0 -0.0003995156)
(0.0011865981 0 -5.6236845e-05)
(0.0011036737 0 0.0003440735)
(0.0010191214 0 0.00079259331)
(0.00093415698 0 0.0012760705)
(0.00084992675 0 0.001777938)
(0.00076751771 0 0.0022797074)
(0.00068801215 0 0.0027623984)
(0.00061236011 0 0.0032089878)
(0.00054132449 0 0.003605573)
(0.00047541839 0 0.0039412672)
(0.00041487069 0 0.0042087213)
(0.00035971159 0 0.0044028909)
(0.00030975496 0 0.0045202049)
(0.00026478561 0 0.0045576852)
(0.0002245092 0 0.0045132349)
(0.00018841893 0 0.004381487)
(0.00015580574 0 0.004155543)
(0.00012606216 0 0.0038238821)
(9.8484251e-05 0 0.0033708231)
(7.2657251e-05 0 0.0027813847)
(4.7817486e-05 0 0.0020305552)
(2.3229643e-05 0 0.0010920294)
(0 0 0)
(0.0017550859 0 -0.0013878071)
(0.0017548324 0 -0.0013879332)
(0.0017546865 0 -0.0013905373)
(0.0017544815 0 -0.00139362)
(0.0017541969 0 -0.0013972654)
(0.0017538052 0 -0.0014015654)
(0.0017532691 0 -0.0014066231)
(0.0017525385 0 -0.0014125518)
(0.0017515465 0 -0.0014194727)
(0.0017502037 0 -0.0014275109)
(0.0017483917 0 -0.0014367878)
(0.0017459541 0 -0.0014474098)
(0.0017426857 0 -0.0014594499)
(0.0017383315 0 -0.0014728714)
(0.0017325816 0 -0.001487367)
(0.0017250299 0 -0.0015024207)
(0.0017151485 0 -0.0015172819)
(0.0017022924 0 -0.0015307187)
(0.0016856996 0 -0.0015408465)
(0.0016645092 0 -0.0015449134)
(0.0016378233 0 -0.0015388152)
(0.0016047672 0 -0.0015168339)
(0.0015645648 0 -0.0014718644)
(0.0015167088 0 -0.0013955298)
(0.0014610953 0 -0.0012785003)
(0.0013980657 0 -0.0011115984)
(0.0013284438 0 -0.00088711631)
(0.0012534214 0 -0.00060094554)
(0.0011743865 0 -0.00025328464)
(0.0010927188 0 0.00015182014)
(0.0010096465 0 0.00060570377)
(0.00092627269 0 0.0010953364)
(0.00084361277 0 0.0016040029)
(0.0007626578 0 0.0021132523)
(0.00068443214 0 0.0026043676)
(0.00060985378 0 0.0030602868)
(0.00053968254 0 0.0034670899)
(0.00047444286 0 0.0038136694)
(0.00041439351 0 0.0040923386)
(0.00035959447 0 0.0042979949)
(0.00030989381 0 0.0044269354)
(0.00026509614 0 0.0044758921)
(0.0002249194 0 0.0044425091)
(0.0001888757 0 0.0043213716)
(0.00015629054 0 0.0041055245)
(0.00012656232 0 0.0037836251)
(9.8997403e-05 0 0.0033402579)
(7.3149302e-05 0 0.0027599619)
(4.8258709e-05 0 0.0020179601)
(2.3569776e-05 0 0.0010876331)
(0 0 0)
(0.0017468869 0 -0.0015800205)
(0.0017466295 0 -0.0015802418)
(0.0017464628 0 -0.0015830089)
(0.0017462321 0 -0.0015862851)
(0.0017459158 0 -0.0015901608)
(0.0017454851 0 -0.0015947352)
(0.0017449007 0 -0.0016001192)
(0.0017441103 0 -0.0016064351)
(0.0017430441 0 -0.0016138141)
(0.0017416091 0 -0.0016223928)
(0.0017396822 0 -0.0016323055)
(0.0017371011 0 -0.0016436735)
(0.0017336562 0 -0.0016565903)
(0.0017290939 0 -0.0016709568)
(0.0017230975 0 -0.0016864678)
(0.0017152433 0 -0.0017026675)
(0.0017049907 0 -0.0017187809)
(0.0016916838 0 -0.0017335556)
(0.0016745528 0 -0.0017450593)
(0.0016527447 0 -0.0017504324)
(0.0016253943 0 -0.0017452549)
(0.0015916472 0 -0.0017237133)
(0.0015507624 0 -0.001678711)
(0.0015023158 0 -0.0016016205)
(0.0014462929 0 -0.0014830797)
(0.0013831413 0 -0.0013137305)
(0.0013137448 0 -0.0010861393)
(0.0012393348 0 -0.00079627674)
(0.0011613072 0 -0.00044422172)
(0.0010809751 0 -3.4241523e-05)
(0.00099946915 0 0.00042517089)
(0.00091774527 0 0.00092076581)
(0.00083669327 0 0.0014356917)
(0.00075723053 0 0.0019517311)
(0.0006803274 0 0.0024504746)
(0.000606873 0 0.0029150127)
(0.00053761848 0 0.0033313423)
(0.00047309806 0 0.0036882157)
(0.00041359752 0 0.0039776262)
(0.00035920448 0 0.0041941762)
(0.00030980077 0 0.0043341457)
(0.00026521264 0 0.004394201)
(0.00022516962 0 0.0043715893)
(0.00018920284 0 0.0042608207)
(0.00015667092 0 0.0040548891)
(0.00012697995 0 0.0037426215)
(9.9445833e-05 0 0.0033088471)
(7.3594282e-05 0 0.0027377042)
(4.8668073e-05 0 0.0020046243)
(2.3889091e-05 0 0.0010826986)
(0 0 0)
(0.0017379696 0 -0.0017680582)
(0.0017377054 0 -0.0017683752)
(0.0017375159 0 -0.0017713065)
(0.0017372571 0 -0.0017747778)
(0.0017369064 0 -0.0017788852)
(0.0017364332 0 -0.0017837345)
(0.0017357963 0 -0.0017894444)
(0.001734941 0 -0.0017961457)
(0.0017337944 0 -0.00180398)
(0.0017322596 0 -0.0018130948)
(0.0017302085 0 -0.0018236361)
(0.0017274728 0 -0.001835736)
(0.0017238405 0 -0.0018494968)
(0.0017190587 0 -0.0018647966)
(0.0017127982 0 -0.001881329)
(0.0017046183 0 -0.0018986591)
(0.0016939668 0 -0.0019160024)
(0.0016801767 0 -0.0019320912)
(0.0016624732 0 -0.0019449344)
(0.0016400273 0 -0.0019513698)
(0.0016119917 0 -0.001946848)
(0.0015775196 0 -0.0019256043)
(0.0015359271 0 -0.0018803641)
(0.0014868826 0 -0.0018022654)
(0.0014304704 0 -0.001681831)
(0.0013672217 0 -0.001509894)
(0.0012980945 0 -0.0012791026)
(0.0012243645 0 -0.00098542179)
(0.0011474243 0 -0.0006288801)
(0.0010685279 0 -0.00021368226)
(0.00098865428 0 0.00025122997)
(0.00090860811 0 0.00075225556)
(0.0008291919 0 0.0012728106)
(0.00075125787 0 0.0017950256)
(0.00067571866 0 0.0023007415)
(0.00060343357 0 0.0027732163)
(0.00053514376 0 0.0031984022)
(0.00047139129 0 0.0035649302)
(0.00041248667 0 0.0038645499)
(0.00035854335 0 0.004091474)
(0.00030947651 0 0.0042419347)
(0.00026513522 0 0.0043127032)
(0.00022525923 0 0.0043005564)
(0.00018939921 0 0.0041999038)
(0.00015694563 0 0.0040036949)
(0.00012731378 0 0.0037009184)
(9.9828505e-05 0 0.0032766309)
(7.3991175e-05 0 0.0027146394)
(4.9044763e-05 0 0.0019905671)
(2.4187403e-05 0 0.0010772388)
(0 0 0)
(0.0017283485 0 -0.0019520059)
(0.0017280794 0 -0.0019524183)
(0.0017278652 0 -0.0019555142)
(0.0017275761 0 -0.0019591812)
(0.0017271881 0 -0.0019635209)
(0.0017266688 0 -0.0019686457)
(0.0017259752 0 -0.0019746821)
(0.0017250499 0 -0.0019817698)
(0.0017238165 0 -0.0019900607)
(0.001722174 0 -0.0019997142)
(0.0017199892 0 -0.0020108902)
(0.0017170871 0 -0.0020237378)
(0.0017132562 0 -0.0020383166)
(0.001708242 0 -0.0020545068)
(0.0017016993 0 -0.0020720448)
(0.0016931708 0 -0.0020904836)
(0.0016820918 0 -0.0021090313)
(0.0016677839 0 -0.0021264143)
(0.0016494816 0 -0.0021404948)
(0.0016263791 0 -0.0021477929)
(0.0015976221 0 -0.0021438083)
(0.0015623853 0 -0.0021227772)
(0.0015200641 0 -0.0020771264)
(0.0014704231 0 -0.0019977649)
(0.0014136492 0 -0.0018750166)
(0.0013503472 0 -0.0017001003)
(0.001281555 0 -0.0014657911)
(0.0012085858 0 -0.0011680816)
(0.0011328328 0 -0.00080679107)
(0.001055453 0 -0.00038625089)
(0.00097723825 0 8.3733689e-05)
(0.0008988909 0 0.0005896473)
(0.00082113963 0 0.0011153023)
(0.00074476625 0 0.0016431106)
(0.00067062741 0 0.0021551742)
(0.00059955223 0 0.0026349324)
(0.00053227071 0 0.0030683277)
(0.00046933116 0 0.0034438875)
(0.00041106606 0 0.0037531404)
(0.0003576137 0 0.0039899094)
(0.00030892273 0 0.0041503925)
(0.00026486452 0 0.0042314849)
(0.000225188 0 0.0042294882)
(0.00018946397 0 0.0041386891)
(0.00015711362 0 0.0039519992)
(0.00012756268 0 0.0036585627)
(0.00010014442 0 0.0032436488)
(7.4338974e-05 0 0.0026907963)
(4.9387951e-05 0 0.0019758077)
(2.4464514e-05 0 0.0010712683)
(0 0 0)
(0.0017180491 0 -0.0021319475)
(0.0017177714 0 -0.002132455)
(0.0017175305 0 -0.0021357157)
(0.0017172087 0 -0.0021395786)
(0.0017167804 0 -0.0021441509)
(0.0017162116 0 -0.0021495517)
(0.0017154569 0 -0.0021559151)
(0.001714456 0 -0.0021633899)
(0.0017131291 0 -0.0021721384)
(0.0017113704 0 -0.0021823322)
(0.0017090408 0 -0.0021941456)
(0.0017059616 0 -0.0022077489)
(0.0017019241 0 -0.0022231374)
(0.0016966649 0 -0.0022401858)
(0.0016898196 0 -0.0022586978)
(0.0016809176 0 -0.0022782149)
(0.0016693812 0 -0.0022979232)
(0.0016545261 0 -0.002316522)
(0.0016356068 0 -0.002331642)
(0.0016118172 0 -0.0023397084)
(0.001582293 0 -0.0023362539)
(0.001546258 0 -0.0023152913)
(0.0015032016 0 -0.0022689221)
(0.0014529821 0 -0.0021879174)
(0.001395868 0 -0.0020626497)
(0.0013325653 0 -0.0018843733)
(0.001264177 0 -0.00164624)
(0.0011920713 0 -0.0013440963)
(0.0011176148 0 -0.00097767059)
(0.0010417885 0 -0.00055211188)
(0.00096525132 0 -7.7517656e-05)
(0.00088862787 0 0.00043284448)
(0.00081256702 0 0.0009631006)
(0.00073778189 0 0.0014959517)
(0.00066507515 0 0.0020137688)
(0.00059524587 0 0.0025001866)
(0.00052901207 0 0.0029411677)
(0.00046692674 0 0.0033251543)
(0.00040934174 0 0.0036434769)
(0.00035641997 0 0.0038896203)
(0.00030814242 0 0.0040596695)
(0.00026440143 0 0.0041506296)
(0.00022495592 0 0.0041584608)
(0.00018939643 0 0.0040772435)
(0.00015717395 0 0.0038998586)
(0.00012772556 0 0.0036156012)
(0.00010039261 0 0.0032099409)
(7.4636741e-05 0 0.0026662043)
(4.9696835e-05 0 0.0019603662)
(2.4720192e-05 0 0.0010648)
(0 0 0)
(0.0017070859 0 -0.0023079646)
(0.0017068009 0 -0.0023085669)
(0.0017065312 0 -0.0023119926)
(0.0017061742 0 -0.0023160514)
(0.0017057027 0 -0.0023208562)
(0.0017050808 0 -0.0023265327)
(0.0017042605 0 -0.0023332226)
(0.0017031786 0 -0.0023410832)
(0.0017017514 0 -0.0023502869)
(0.0016998682 0 -0.0023610165)
(0.0016973839 0 -0.0023734583)
(0.0016941195 0 -0.0023877715)
(0.0016898666 0 -0.002403943)
(0.001684346 0 -0.0024218638)
(0.0016771759 0 -0.0024413453)
(0.0016678746 0 -0.0024619211)
(0.001655852 0 -0.0024827469)
(0.0016404272 0 -0.0025024188)
(0.0016208656 0 -0.0025184343)
(0.001596346 0 -0.0025272274)
(0.0015660121 0 -0.0025242396)
(0.0015291648 0 -0.0025030943)
(0.0014853882 0 -0.0024555533)
(0.0014346104 0 -0.0023724814)
(0.001377179 0 -0.0022444941)
(0.0013139195 0 -0.0020627147)
(0.0012460166 0 -0.0018204712)
(0.0011748964 0 -0.0015133995)
(0.0011018159 0 -0.0011417095)
(0.0010275651 0 -0.00071150059)
(0.00095273024 0 -0.00023265909)
(0.0008778533 0 0.00028173834)
(0.00080350484 0 0.00081612639)
(0.00073033139 0 0.0013535003)
(0.00065908397 0 0.001876507)
(0.00059053209 0 0.0023689894)
(0.00052538133 0 0.0028169566)
(0.00046418784 0 0.0032087845)
(0.00040732086 0 0.0035356261)
(0.00035496782 0 0.0037907341)
(0.00030713976 0 0.0039699595)
(0.00026374784 0 0.004070275)
(0.00022456341 0 0.004087547)
(0.00018919625 0 0.0040156316)
(0.00015712588 0 0.0038473289)