/*--------------------------------*- C++ -*----------------------------------*\
  =========                 |
  \\      /  F ield         | OpenFOAM: The Open Source CFD Toolbox
   \\    /   O peration     | Website:  https://openfoam.org
    \\  /    A nd           | Version:  8
     \\/     M anipulation  |
\*---------------------------------------------------------------------------*/
FoamFile
{
    version     2.0;
    format      ascii;
    class       volScalarField;
    location    "0.129988";
    object      rho;
}
// * * * * * * * * * * * * * * * * * * * * * * * * * * * * * * * * * * * * * //

dimensions      [1 -3 0 0 0 0 0];

internalField   nonuniform List<scalar> 
20000
(
0.7209318
0.72222392
0.72404104
0.72758332
0.73455345
0.74807404
0.77260538
0.78195417
0.78111522
0.78289013
0.78292749
0.78491652
0.78588977
0.78846506
0.79049594
0.79400925
0.79740638
0.80235132
0.80765914
0.81474229
0.82280322
0.83302076
0.84497157
0.85957006
0.87664652
0.89674154
0.91959747
0.94504233
0.97228259
1.0004167
1.0281089
1.0538561
1.0763902
1.0952512
1.1105436
1.1227501
1.1322922
1.1397524
1.1455779
1.150113
1.1536483
1.1564529
1.1588078
1.1606557
1.1619857
1.1635246
1.1659179
1.1672504
1.1679834
1.169909
0.72289576
0.72403987
0.72586672
0.72950505
0.73675963
0.75090427
0.77534249
0.78373419
0.78283546
0.78467304
0.78472407
0.78679071
0.787808
0.79048253
0.79259337
0.79623502
0.79975746
0.80487422
0.81037224
0.81769254
0.82602785
0.8365624
0.84887422
0.86385858
0.88133614
0.90178636
0.92487732
0.95030711
0.9771828
1.0045729
1.0312884
1.0560811
1.0778759
1.0962371
1.1112085
1.123195
1.1325928
1.1399622
1.1457327
1.1502267
1.1537489
1.1565474
1.1588962
1.1607083
1.1620297
1.1636817
1.1659088
1.1673131
1.1679761
1.1699174
0.7247726
0.72581099
0.72762003
0.73135812
0.73894393
0.75386339
0.77808806
0.78546813
0.78459738
0.78650677
0.7865887
0.78873492
0.78980738
0.79258009
0.79477849
0.79854881
0.80220604
0.80750132
0.81320285
0.82077343
0.82940102
0.84027455
0.8529745
0.86838069
0.88630079
0.907154
0.93052414
0.95597588
0.98251442
1.0091761
1.0348973
1.0586721
1.0796282
1.0973854
1.1119478
1.1236764
1.1329109
1.1401751
1.1458797
1.1503286
1.1538316
1.1566206
1.1589605
1.1607418
1.1620624
1.1638389
1.1661031
1.1674113
1.1683367
1.1698106
0.72682386
0.72774109
0.72954358
0.73338346
0.74130501
0.7570891
0.78087431
0.78732941
0.78648704
0.78846348
0.78857147
0.79079526
0.79191913
0.79478966
0.79707476
0.80097665
0.8047719
0.81025084
0.8161613
0.82398708
0.83291156
0.84412807
0.85722079
0.87305382
0.89142146
0.91268196
0.9363356
0.96182693
0.98807629
1.014098
1.0389219
1.0617263
1.0818228
1.098915
1.1129983
1.1243935
1.1334024
1.1405163
1.1461218
1.1505022
1.1539698
1.1567383
1.1590576
1.1607955
1.1621194
1.164002
1.1661861
1.1675367
1.1684708
1.1697932
0.72891508
0.72972516
0.73152209
0.73547036
0.74374783
0.7605231
0.78366077
0.78926572
0.78846753
0.79051209
0.79064987
0.7929517
0.79413095
0.79710224
0.79948168
0.8035223
0.80746656
0.81313915
0.8192713
0.82736483
0.8366024
0.84817999
0.86168775
0.87797165
0.89681082
0.91849604
0.94243835
0.96796356
0.99391818
1.0193057
1.0432447
1.0650782
1.0842861
1.1006641
1.1142148
1.1252343
1.1339843
1.1409217
1.1464081
1.1507068
1.1541284
1.1568689
1.1591599
1.1608499
1.1621825
1.1641665
1.1663289
1.1676629
1.1686518
1.1697717
0.73110611
0.73184523
0.73363452
0.7376921
0.74632909
0.76419983
0.78646026
0.7913658
0.79055036
0.79265902
0.79282642
0.79520708
0.79644577
0.79952309
0.80200415
0.80619087
0.8102925
0.81616716
0.8225317
0.83090387
0.84046833
0.85242264
0.86636412
0.88311796
0.90244559
0.92456344
0.94878907
0.97433516
0.99998848
1.0247543
1.0478348
1.0687137
1.0870226
1.1026531
1.1156283
1.1262281
1.1346812
1.1414122
1.1467568
1.1509577
1.1543214
1.1570252
1.1592783
1.1609125
1.1622591
1.1643405
1.1664619
1.1677935
1.1687738
1.1697603
0.73336606
0.73401694
0.73580595
0.73998806
0.74899694
0.76806215
0.78922632
0.79351094
0.79270963
0.79488679
0.79509124
0.79755652
0.79886256
0.80205242
0.80464327
0.80898292
0.81325114
0.81933695
0.82594566
0.83460921
0.84451784
0.85686895
0.87126768
0.88851518
0.90835117
0.93090886
0.95540641
0.98094774
1.0062735
1.0304047
1.0526291
1.0725588
1.0899616
1.1048226
1.1171916
1.1273408
1.1354692
1.1419707
1.1471551
1.1512452
1.154541
1.1572007
1.1594072
1.1609804
1.1623469
1.1645257
1.1666124
1.1679222
1.168873
1.1697513
0.73570905
0.73627796
0.73806972
0.74238776
0.75177919
0.77210933
0.79197605
0.79574932
0.79496057
0.79720741
0.79745343
0.80000719
0.80138652
0.80469349
0.80740001
0.81189814
0.81634116
0.82264701
0.829512
0.83848041
0.84875142
0.86152015
0.87639951
0.89416333
0.91452429
0.93752309
0.96227339
0.98777692
1.0127431
1.0362222
1.0575904
1.0765772
1.0930727
1.1071511
1.1188919
1.1285649
1.1363443
1.1425954
1.1476029
1.1515698
1.1547886
1.1573967
1.1595476
1.1610561
1.1624497
1.1647256
1.1667675
1.1680477
1.168951
1.1697451
0.73810618
0.73860297
0.74040659
0.74488122
0.75468125
0.7763123
0.79470758
0.7980675
0.79730187
0.79962125
0.79991414
0.80255977
0.80401737
0.80744455
0.81027219
0.81493467
0.81956195
0.82609742
0.83323122
0.84251935
0.85317318
0.86638226
0.8817674
0.90007076
0.92097193
0.94440787
0.96938409
0.9948078
1.0193728
1.0421726
1.0626763
1.080723
1.0963131
1.109603
1.120702
1.1298811
1.1372932
1.1432773
1.1480941
1.1519273
1.1550613
1.1576109
1.1596977
1.1611399
1.1625709
1.1649429
1.166931
1.1681678
1.1690096
1.1697392
0.74062344
0.74103237
0.74285452
0.74750482
0.75774878
0.78067154
0.79744069
0.80047794
0.79973935
0.80213252
0.80247545
0.80521376
0.80675262
0.81030265
0.8132576
0.81809162
0.82291284
0.82968781
0.83710449
0.84672929
0.85778803
0.87146118
0.8873773
0.90624249
0.92769498
0.95155718
0.97672415
1.0020188
1.0261356
1.0482251
1.0678529
1.0849617
1.099651
1.1121522
1.1226024
1.1312755
1.1383063
1.1440099
1.1486245
1.1523151
1.1553575
1.1578421
1.1598571
1.1612339
1.1627149
1.1651778
1.1670984
1.1682752
1.1690537
1.1697336
0.74323416
0.74353307
0.74538854
0.7502387
0.76097772
0.78513221
0.80017396
0.80297391
0.80226767
0.80473658
0.80513235
0.80796334
0.80958704
0.81326458
0.81635531
0.82136897
0.82639416
0.83341904
0.8411338
0.85111412
0.86260137
0.87676331
0.89323618
0.91268476
0.93469575
0.95896602
0.98428009
1.0093892
1.0330054
1.0543492
1.0730871
1.0892592
1.1030545
1.1147715
1.1245715
1.1327321
1.1393722
1.1447855
1.1491888
1.1527299
1.1556749
1.1580881
1.1600237
1.1613419
1.1628865
1.1654228
1.1672625
1.1683713
1.1690891
1.1697282
0.74590537
0.74609466
0.74799007
0.75306879
0.76438106
0.78965901
0.80293752
0.80556537
0.80488767
0.80742764
0.80787726
0.81080298
0.81251852
0.81633095
0.81956646
0.82476713
0.83000582
0.83729237
0.84532338
0.8556803
0.8676208
0.88229676
0.89935208
0.91940359
0.94197462
0.96662622
0.99203514
1.016896
1.0399556
1.0605169
1.0783497
1.0935866
1.1064966
1.1174378
1.126591
1.1342371
1.1404809
1.1455968
1.1497823
1.1531683
1.1560114
1.1583466
1.1601955
1.1614647
1.1630916
1.1656705
1.1674193
1.168457
1.1691185
1.1697233
0.7486784
0.7487566
0.75069074
0.75601555
0.76799745
0.79421134
0.80570443
0.80822573
0.80757928
0.81019275
0.81070526
0.81373363
0.81555046
0.81950428
0.82289157
0.82828554
0.8337486
0.84131122
0.84967852
0.86043422
0.87285335
0.88806921
0.90573301
0.92640475
0.94953121
0.97452845
0.9999715
1.0245155
1.0469598
1.0667005
1.0836132
1.0979168
1.1099522
1.1201293
1.1286431
1.1357765
1.141622
1.1464365
1.1503996
1.153627
1.1563645
1.1586151
1.1603711
1.161603
1.1633339
1.1659145
1.1675667
1.1685334
1.169144
1.1697187
0.75148745
0.75145939
0.75342723
0.75902145
0.77179965
0.79869051
0.80843502
0.8109505
0.81034853
0.8130427
0.81362639
0.81676262
0.81868604
0.82278426
0.82632882
0.8319236
0.83762493
0.84548079
0.85420661
0.86538414
0.87830784
0.89409018
0.91238806
0.9336937
0.95736303
0.98266044
1.0080687
1.0322227
1.0539915
1.0728743
1.0888527
1.1022263
1.1133995
1.122827
1.1307121
1.1373381
1.1427861
1.1472976
1.1510361
1.1541028
1.1567319
1.1588909
1.1605487
1.1617596
1.1636159
1.1661493
1.1677042
1.1686018
1.1691661
1.1697145
0.75435803
0.7542324
0.7562443
0.7621238
0.77584596
0.80317337
0.81120062
0.81376547
0.81321346
0.81598822
0.81664498
0.81988891
0.82192157
0.82616716
0.8298766
0.83568363
0.84164013
0.84980837
0.8589149
0.87053746
0.88399236
0.90036898
0.91932606
0.94127522
0.96546608
0.99100824
1.0163049
1.0399918
1.0610244
1.0790132
1.0940448
1.1064934
1.1168188
1.1255136
1.1327835
1.1389101
1.1439641
1.1481734
1.1516869
1.1545924
1.157111
1.1591715
1.1607266
1.1619339
1.163936
1.1663714
1.1678326
1.1686633
1.1691843
1.1697089
0.75733614
0.75711382
0.75917182
0.76534406
0.78015917
0.80762414
0.8139828
0.81666534
0.81616662
0.81902182
0.81975315
0.8231051
0.82525178
0.82965097
0.83353732
0.83957109
0.84580208
0.85430195
0.86381161
0.87590316
0.88991725
0.90691671
0.92655653
0.9491525
0.97383343
0.99955442
1.0246558
1.047796
1.0680327
1.0850939
1.0991688
1.110699
1.1201929
1.1281741
1.1348447
1.1404821
1.1451478
1.1490576
1.1523476
1.1550927
1.1574995
1.1594547
1.160905
1.1621255
1.1642784
1.1665872
1.1679534
1.1687189
1.1691987
1.169701
0.76036695
0.76005863
0.76217154
0.76864262
0.78471654
0.81202775
0.81687712
0.81964387
0.81919677
0.82213304
0.82294322
0.82640701
0.82867591
0.83323939
0.83731753
0.84359481
0.85011888
0.85896854
0.8689038
0.88148968
0.89609277
0.91374447
0.93408856
0.95732743
0.9824562
1.0082798
1.0330958
1.0556081
1.0749911
1.0910941
1.1042051
1.1148259
1.1235066
1.1307953
1.1368842
1.1420447
1.1463296
1.1499444
1.1530139
1.1556008
1.1578948
1.1597385
1.1610846
1.1623356
1.1646303
1.1667994
1.1680676
1.1687678
1.1692079
1.1696903
0.76348146
0.76309765
0.76527126
0.77204604
0.78952466
0.81636035
0.8199056
0.82269373
0.82229839
0.82531711
0.8262139
0.82979716
0.83220022
0.83694068
0.84122678
0.84776286
0.8545976
0.86381522
0.87420017
0.88730799
0.90253143
0.92086465
0.9419306
0.96579902
0.99132135
1.0171612
1.0415969
1.0634004
1.0818751
1.0969931
1.1091364
1.1188591
1.1267467
1.1333658
1.1388924
1.1435895
1.1475025
1.1508285
1.153682
1.1561139
1.1582944
1.1600216
1.1612683
1.1625663
1.1649834
1.1670065
1.1681751
1.1688113
1.1692141
1.1696775
0.76661328
0.76617615
0.7684275
0.77551545
0.79452809
0.8205747
0.82294609
0.82580501
0.82547227
0.82857975
0.82957257
0.8332847
0.83583407
0.84076467
0.8452732
0.85208217
0.85924376
0.86884839
0.8797095
0.89336933
0.90924567
0.92828966
0.95008988
0.97456477
1.0004136
1.0261743
1.0501309
1.0711458
1.088661
1.1027716
1.1139468
1.1227853
1.1299019
1.135876
1.1408606
1.145109
1.1486603
1.1517049
1.1543485
1.1566292
1.1586957
1.1603027
1.1614598
1.1628228
1.1653309
1.1672053
1.1682754
1.1688505
1.1692175
1.169663
0.76979194
0.76932334
0.77168171
0.77909985
0.79973605
0.8246904
0.82606643
0.82899482
0.82873146
0.83193249
0.83302968
0.83687957
0.83958722
0.84471924
0.84946289
0.85655661
0.8640626
0.87407651
0.88544362
0.89968739
0.91624991
0.93603185
0.95857177
0.98361733
1.009713
1.0352907
1.0586673
1.0788166
1.0953261
1.1084114
1.1186222
1.1265934
1.1329629
1.1383179
1.1427819
1.1465968
1.1497976
1.1525694
1.1550101
1.1571443
1.1590958
1.1605805
1.1616636
1.1631135
1.1656654
1.1673927
1.1683674
1.1688856
1.1692197
1.169647
0.77303781
0.77255309
0.77505085
0.78282774
0.80512337
0.82869309
0.82925464
0.83226612
0.83207894
0.83538152
0.83659368
0.84059044
0.84346631
0.84880888
0.85379842
0.8611901
0.86906062
0.8795095
0.89141512
0.90627598
0.92355853
0.94410343
0.9673801
0.99294729
1.0191974
1.044481
1.0671762
1.0863864
1.1018487
1.1138962
1.1231502
1.1302738
1.135922
1.1406848
1.1446499
1.1480472
1.1509094
1.1534182
1.1556642
1.1576566
1.1594918
1.1608542
1.1618844
1.1634471
1.1659791
1.1675666
1.1684508
1.1689155
1.1692196
1.1696295
0.77633269
0.77585116
0.77853053
0.78672561
0.81065162
0.83259937
0.83253251
0.83564159
0.8355245
0.83893578
0.84027146
0.84442244
0.84747376
0.85303441
0.85828175
0.86598711
0.87424702
0.88516046
0.89763882
0.91315074
0.93118672
0.95251545
0.97651469
1.0025395
1.0288393
1.0537122
1.075626
1.0938283
1.1082085
1.1192112
1.1275204
1.1338188
1.1387732
1.1429715
1.1464597
1.1494558
1.1519916
1.1542481
1.1563082
1.1581638
1.159881
1.1611224
1.1621254
1.1638275
1.166267
1.1677264
1.1685261
1.1689405
1.1692165
1.1696108
0.77974105
0.77927227
0.78217046
0.79086611
0.81630608
0.83644084
0.83591278
0.83912469
0.83908552
0.84260406
0.84406523
0.84837431
0.85160792
0.85739612
0.86291652
0.87095645
0.87963426
0.89104367
0.90412974
0.92032719
0.93914998
0.96127791
0.98597336
1.0123764
1.0386096
1.0629513
1.0839855
1.1011166
1.1143862
1.1243437
1.1317242
1.1372221
1.1415117
1.1451736
1.1482072
1.1508187
1.1530407
1.1550563
1.1569402
1.1586637
1.1602608
1.1613842
1.1623864
1.1642454
1.1665317
1.1678731
1.1685938
1.1689613
1.1692117
1.1695913
0.78316793
0.78272569
0.78590178
0.79524174
0.82200852
0.84025656
0.83939494
0.84270646
0.84274548
0.84638345
0.84797017
0.8524433
0.85586805
0.86189731
0.86771083
0.87611004
0.88523703
0.89717491
0.91090386
0.92782225
0.94746339
0.97039797
0.99574772
1.0224337
1.0484738
1.0721617
1.0922216
1.1082251
1.1203646
1.1292837
1.1357556
1.1404789
1.144134
1.1472878
1.1498896
1.1521329
1.1540544
1.1558405
1.1575583
1.1591542
1.1606291
1.16164
1.1626664
1.164674
1.1667854
1.1680084
1.1686539
1.1689784
1.1692056
1.1695712
0.78669459
0.78627948
0.78977317
0.79992885
0.82772393
0.8441884
0.8429528
0.84636946
0.84648389
0.85025795
0.85198422
0.85663043
0.86025935
0.86654638
0.87267729
0.88146296
0.89107102
0.90356953
0.91797737
0.93565309
0.9561424
0.97988085
1.0058269
1.0326845
1.0583964
1.0813065
1.1003021
1.11513
1.1261291
1.1340238
1.1396107
1.1435852
1.1466373
1.1493121
1.1515055
1.1533958
1.1550305
1.1565988
1.1581609
1.1596331
1.1609846
1.1618915
1.1629653
1.1651003
1.1670282
1.1681323
1.1687062
1.168992
1.1691976
1.1695505
0.79026742
0.78987044
0.79371647
0.80490127
0.83334612
0.84788047
0.84657862
0.85011897
0.85032219
0.85423302
0.85610714
0.86094169
0.86479105
0.87135667
0.87783072
0.88703046
0.89715171
0.91024351
0.9253677
0.94383827
0.96520063
0.98972692
1.0161923
1.0430949
1.0683364
1.0903459
1.1081942
1.1218101
1.1316692
1.1385589
1.1432865
1.1465388
1.1490194
1.1512462
1.1530543
1.154605
1.1559672
1.1573299
1.1587469
1.1600988
1.1613265
1.162143
1.1632852
1.1655137
1.167257
1.1682447
1.1687505
1.1689987
1.1691879
1.1695293
0.79389724
0.79351947
0.79774922
0.81022439
0.83889696
0.85165973
0.85030641
0.85397707
0.85427079
0.85832896
0.86034587
0.86538456
0.86947612
0.87634406
0.88318684
0.89282761
0.90349385
0.91721291
0.93309327
0.952397
0.97465093
0.99993342
1.0268216
1.0536284
1.0782516
1.099241
1.1158695
1.1282514
1.1369799
1.1428846
1.1467788
1.1493392
1.1512794
1.1530922
1.1545357
1.1557585
1.156862
1.1580332
1.1593151
1.1605493
1.161655
1.1624006
1.1636329
1.1659031
1.167468
1.1683454
1.1687885
1.1690032
1.1691773
1.1695076
0.79764473
0.79727139
0.80189389
0.81593181
0.84434757
0.85538913
0.85413129
0.85793627
0.85832786
0.8625481
0.86471657
0.86997435
0.87433085
0.88152347
0.88875977
0.89886807
0.91011302
0.92449589
0.94117495
0.96134878
0.98450218
1.0104898
1.0376841
1.0642412
1.0880957
1.1079527
1.1233059
1.1344487
1.1420599
1.146995
1.1500803
1.151988
1.1534196
1.1548542
1.1559483
1.1568551
1.1577118
1.1587084
1.1598647
1.1609834
1.1619704
1.1626711
1.1640182
1.1662572
1.1676581
1.1684349
1.168822
1.1690065
1.1691655
1.1694849
0.80141893
0.80104439
0.80607902
0.82197074
0.84964573
0.85937551
0.8580443
0.86199415
0.86249864
0.86689341
0.86924475
0.8747367
0.87936928
0.88690644
0.89456145
0.90516586
0.91702571
0.93211223
0.94963503
0.97071313
0.99476082
1.0213812
1.0487451
1.0748871
1.0978231
1.1164483
1.1304932
1.1404042
1.146906
1.1508816
1.1531824
1.1544881
1.1554463
1.1565357
1.1572876
1.1578956
1.1585139
1.1593555
1.1603947
1.1613996
1.1622738
1.1629589
1.1644442
1.1665701
1.1678271
1.1685136
1.168851
1.1690094
1.1691523
1.169461
0.80528873
0.80490701
0.81036196
0.82836385
0.8548061
0.86338068
0.86207356
0.86618184
0.86681057
0.87138349
0.87392415
0.87967859
0.88460245
0.89250339
0.90060417
0.9117361
0.92425145
0.94008505
0.95849752
0.98050723
1.0054261
1.0325832
1.0599605
1.0855141
1.1073879
1.1247028
1.1374317
1.1461154
1.1515008
1.1545341
1.1560862
1.156841
1.1573709
1.1581339
1.1585484
1.1588826
1.1592705
1.1599741
1.1609046
1.161797
1.1625664
1.1632643
1.164895
1.1668489
1.1679784
1.1685822
1.1688737
1.1690082
1.1691367
1.1694355
0.80927085
0.8088797
0.81478016
0.83510253
0.85985367
0.86752601
0.86624653
0.87051584
0.87127087
0.87601987
0.8787631
0.88480214
0.89003975
0.89832683
0.90690188
0.91859661
0.93181235
0.94843979
0.96778715
0.99074661
1.0164926
1.0440662
1.0712827
1.0960704
1.116751
1.1327054
1.144123
1.1515522
1.155824
1.1579487
1.158806
1.1590448
1.1592034
1.1596336
1.159733
1.1598173
1.1599921
1.1605626
1.1613936
1.1621749
1.1628497
1.1635846
1.1653415
1.1671091
1.168116
1.1686416
1.1688903
1.1690035
1.1691188
1.1694082
0.8133919
0.81299178
0.81938365
0.84219741
0.86484055
0.8717973
0.87055915
0.87498708
0.87587053
0.88081563
0.88378112
0.89010675
0.89569
0.90439005
0.91347231
0.92576859
0.9397343
0.95720413
0.97752812
1.0014405
1.0279449
1.0557888
1.0826557
1.1065024
1.1258809
1.1404556
1.1505416
1.156684
1.1598559
1.1611285
1.1613641
1.1610991
1.1609382
1.1610324
1.1608464
1.1606936
1.1606943
1.1611194
1.1618613
1.1625326
1.1631252
1.1639168
1.1657701
1.1673523
1.1682421
1.1686941
1.1689021
1.1689942
1.1690985
1.1693788
0.81760334
0.81719725
0.82415037
0.84950368
0.86984842
0.87616635
0.87498762
0.87958837
0.88061822
0.88577737
0.88898396
0.89562122
0.90156464
0.91070853
0.92033613
0.933277
0.94804549
0.96640736
0.98774306
1.0125942
1.0397608
1.0677052
1.0940221
1.1167629
1.1347605
1.1479521
1.1566383
1.1614826
1.1635877
1.1641005
1.1637743
1.1630213
1.162557
1.1623649
1.1618877
1.1614977
1.1613782
1.1616452
1.1623071
1.1628703
1.1633954
1.1642605
1.1661692
1.1675751
1.1683561
1.1687413
1.1689107
1.1689819
1.1690756
1.1693469
0.82189661
0.82148457
0.82910998
0.85696021
0.8746433
0.88065705
0.87955798
0.88434537
0.88553889
0.8909242
0.89439186
0.9013589
0.90767492
0.91729861
0.92751854
0.94115072
0.95677683
0.97607891
0.99845072
1.0242026
1.0519056
1.0797574
1.1053201
1.1268101
1.1433837
1.1551518
1.1623747
1.1659231
1.1670533
1.1669143
1.166014
1.1648367
1.1640638
1.1636115
1.1628546
1.1622491
1.1620305
1.1621461
1.1627304
1.163189
1.1636645
1.1646193
1.1665295
1.1677709
1.1684548
1.168784
1.1689189
1.1689671
1.1690498
1.1693115
0.82632771
0.82590221
0.83435503
0.86453581
0.87945767
0.88530075
0.88429107
0.88927331
0.89064099
0.89626733
0.9000118
0.90732746
0.91404579
0.92418392
0.93504914
0.94942118
0.96596047
0.98624757
1.0096659
1.0362539
1.0643371
1.0918845
1.1164929
1.136616
1.1517467
1.1619924
1.1677126
1.1700102
1.1703344
1.1695291
1.1680992
1.1665366
1.1654684
1.1647825
1.1637549
1.1629516
1.1626333
1.1626325
1.1631306
1.1634909
1.1639392
1.1650011
1.166842
1.167937
1.1685345
1.1688168
1.1689264
1.1689562
1.1690218
1.1692711
0.83093779
0.83050678
0.83994423
0.87210371
0.88424117
0.89009797
0.88918925
0.89437815
0.89593022
0.90181475
0.90585122
0.91353278
0.92070874
0.93139462
0.94295984
0.95812223
0.97562936
0.99693987
1.0213949
1.0487228
1.0769995
1.1040176
1.1274869
1.1461631
1.1598045
1.1684202
1.1726309
1.173827
1.1734055
1.1719586
1.1700333
1.1681226
1.1667807
1.1658777
1.1645959
1.1636147
1.1631778
1.1631071
1.1635065
1.1637785
1.1642259
1.1654067
1.1671015
1.1680748
1.1685973
1.1688401
1.1689321
1.1689525
1.1689928
1.1692235
0.83571875
0.83524907
0.84591034
0.87958698
0.88912439
0.89506313
0.89426427
0.89966926
0.90141813
0.90757377
0.91192454
0.9200055
0.92768204
0.93896423
0.95128526
0.9672887
0.98581665
1.0081799
1.0336372
1.0615753
1.0898312
1.1160903
1.1382607
1.1554444
1.1674811
1.1743929
1.1771496
1.1774357
1.17625
1.1742049
1.1718249
1.1695944
1.1680098
1.1669016
1.1653782
1.1642295
1.1636839
1.1635651
1.1638571
1.1640534
1.164525
1.1658051
1.1673287
1.1681912
1.1686477
1.1688582
1.1689359
1.1689524
1.1689664
1.1691688
0.84068017
0.84013625
0.85229206
0.88706567
0.89421224
0.90020244
0.89952231
0.90515283
0.90711279
0.91355746
0.91825424
0.92677328
0.93500263
0.9469271
0.96006153
0.97695662
0.99655434
1.0199856
1.0463793
1.0747614
1.1027592
1.1280371
1.1487821
1.1644273
1.1746993
1.1798837
1.1813687
1.1807986
1.1788796
1.1762781
1.1734805
1.1709602
1.1691596
1.1678565
1.1661013
1.1647983
1.164158
1.1640055
1.1641831
1.1643158
1.1648317
1.1661815
1.1675334
1.168293
1.1686899
1.1688719
1.1689391
1.1689521
1.1689372
1.1691126
0.84584306
0.84518261
0.85909755
0.89447066
0.89940519
0.90552671
0.90496953
0.91083745
0.91302629
0.91979345
0.92487688
0.93387575
0.9427064
0.95531673
0.9693251
0.98716253
1.0078733
1.0323681
1.0595982
1.0882218
1.1157097
1.1398029
1.1590339
1.1730236
1.1814139
1.1849135
1.1853481
1.1839022
1.1813009
1.1781863
1.1750076
1.1722262
1.1702349
1.1687451
1.1667664
1.1653248
1.1646038
1.1644222
1.1644895
1.1645658
1.1651333
1.1665267
1.1677209
1.1683857
1.1687255
1.1688784
1.1689369
1.1689478
1.1689049
1.1690553
0.85125223
0.85041375
0.86632807
0.90181112
0.90476203
0.91103814
0.91061315
0.91673956
0.91918703
0.9263226
0.93183662
0.94135045
0.95082754
0.96416914
0.97911368
0.99794481
1.0198001
1.045327
1.0732529
1.1018828
1.1286046
1.1513394
1.1689947
1.1811342
1.1875873
1.189587
1.1890513
1.1867588
1.1835248
1.1799388
1.1764139
1.1733994
1.1712399
1.16957
1.1673784
1.1658154
1.1650207
1.1648035
1.164785
1.1648042
1.1654318
1.1668374
1.1678896
1.1684699
1.1687576
1.1688824
1.1689293
1.1689393
1.1688706
1.1689973
0.85689569
0.85582583
0.87393707
0.9090006
0.91026746
0.91674701
0.91648171
0.92289937
0.92564719
0.93318562
0.93916914
0.94922805
0.9594017
0.97352409
0.98946652
1.0093416
1.0323571
1.0588514
1.0872904
1.1156654
1.1413746
1.1626114
1.1785819
1.1886972
1.1932222
1.1939915
1.1924555
1.1893775
1.1855617
1.181545
1.1777069
1.1744863
1.1721788
1.1703345
1.1679435
1.1662753
1.1654104
1.1651389
1.1650733
1.1650359
1.165721
1.1671122
1.1680359
1.1685417
1.1687867
1.1688854
1.1689176
1.1689256
1.1688353
1.1689388
0.86279493
0.86148467
0.88193619
0.91607755
0.91596496
0.92270774
0.9226349
0.92937574
0.93245316
0.94040991
0.94689649
0.95753329
0.96847513
0.98342428
1.0004248
1.021389
1.0455573
1.072913
1.1016395
1.1294813
1.1539543
1.1735899
1.1876837
1.195666
1.1984259
1.1980869
1.1955774
1.1917714
1.1874229
1.1830141
1.1788945
1.1754935
1.1730556
1.1710425
1.1684674
1.1667043
1.1657694
1.1654416
1.1653444
1.1652686
1.1660173
1.167347
1.1681584
1.168599
1.1688092
1.1688886
1.1689114
1.1689021
1.1687998
1.1688799
0.86896899
0.8674595
0.89029814
0.92308424
0.92193806
0.9289877
0.92912764
0.93619772
0.93962256
0.94801441
0.95504533
0.96630698
0.9780883
0.99391578
1.0120297
1.0341192
1.0594036
1.087469
1.1162199
1.1432466
1.1662899
1.1842223
1.1961961
1.2020173
1.2033088
1.2018488
1.198427
1.1939531
1.1891196
1.1843554
1.1799841
1.176427
1.1738745
1.1716979
1.1689528
1.1671
1.166097
1.1657198
1.1655992
1.1655055
1.1663178
1.1675405
1.1682577
1.1686416
1.168823
1.1688912
1.1689105
1.1688717
1.1687646
1.1688204
0.87556521
0.87393423
0.89906933
0.93016735
0.92825486
0.93561889
0.93596253
0.94337649
0.94715598
0.95601913
0.96365559
0.97559869
0.98828836
1.0050452
1.0243235
1.0475583
1.0738815
1.1024551
1.1309367
1.1568796
1.1783353
1.194382
1.2040669
1.2078445
1.2078534
1.205285
1.20102
1.1959361
1.190663
1.1855781
1.1809832
1.1772926
1.1746396
1.1723046
1.1694001
1.1674614
1.1663956
1.1659799
1.1658429
1.1657436
1.1666091
1.1677043
1.1683393
1.1686732
1.1688299
1.16889
1.1689065
1.1688395
1.1687293
1.1687601
0.88241003
0.88084737
0.90807627
0.93749065
0.93485571
0.94255074
0.94312107
0.95089602
0.95509773
0.9644716
0.97278183
0.98546678
0.99911538
1.0168604
1.0373481
1.0617233
1.0889606
1.117792
1.1456938
1.170309
1.1900506
1.2039395
1.2112523
1.2132652
1.2120326
1.2084103
1.2033714
1.197734
1.192064
1.1866909
1.1818992
1.1780962
1.1753551
1.1728653
1.1698082
1.1677887
1.166668
1.1662256
1.1660802
1.1659817
1.1668828
1.1678484
1.1684088
1.1686984
1.1688331
1.1688848
1.1688989
1.1688053
1.1686935
1.1686994
0.88953948
0.88830812
0.91727617
0.94512964
0.94172957
0.94980191
0.95062755
0.95882746
0.96350138
0.9734259
0.98247421
0.99595132
1.0106233
1.0294123
1.0511428
1.0766166
1.1045866
1.1333809
1.1603912
1.1834648
1.2013247
1.2128095
1.2177983
1.218324
1.2158359
1.2112417
1.2054974
1.1993602
1.1933335
1.1877027
1.1827389
1.1788429
1.1760246
1.173382
1.1701765
1.1680841
1.1669178
1.1664567
1.166312
1.166218
1.1671327
1.1679775
1.168469
1.1687197
1.168835
1.1688774
1.1688886
1.1687695
1.1686568
1.1686397
0.89685488
0.89633778
0.9265885
0.95248995
0.94894644
0.95743857
0.95856687
0.96722321
0.9724276
0.98293731
0.99278653
1.0070912
1.0228602
1.0427565
1.0657409
1.0922227
1.1206854
1.1491159
1.1749393
1.1962926
1.2120103
1.2209367
1.2238305
1.2229828
1.2192853
1.2137972
1.2074141
1.2008281
1.1944822
1.1886219
1.1835092
1.179538
1.1766518
1.1738558
1.1705052
1.168351
1.1671504
1.1666794
1.1665376
1.1664505
1.1673634
1.1680947
1.1685205
1.1687348
1.1688322
1.1688672
1.1688749
1.1687335
1.1686191
1.1685823
0.9044725
0.90510352
0.9361095
0.96023706
0.95660556
0.96554364
0.967
0.97612773
0.9819205
0.99305392
1.0037672
1.0189374
1.0358898
1.0569505
1.0811613
1.1084979
1.1371575
1.1648807
1.1892491
1.2087164
1.2219628
1.228308
1.2294676
1.2272091
1.2223981
1.2160959
1.2091376
1.2021505
1.1955201
1.1894567
1.1842166
1.1801861
1.1772397
1.1742872
1.1707959
1.1685937
1.167369
1.1668922
1.1667566
1.1666773
1.1675811
1.1682018
1.168564
1.1687439
1.1688243
1.1688536
1.1688584
1.1686974
1.1685809
1.1685275
0.91241116
0.91464804
0.94585168
0.96829292
0.96472735
0.97413282
0.97596591
0.98558623
0.99202361
1.003821
1.0154613
1.0315799
1.049787
1.072044
1.0974006
1.1253729
1.1538877
1.180565
1.2032407
1.2205679
1.2311194
1.2350531
1.2346592
1.2310323
1.2251961
1.218157
1.2106839
1.20334
1.196457
1.1902147
1.1848671
1.1807918
1.177792
1.1746775
1.1710505
1.1688161
1.1675782
1.1671002
1.1669696
1.166901
1.1677783
1.1682988
1.1686013
1.1687479
1.168812
1.1688363
1.1688385
1.1686614
1.168543
1.1684753
0.92065463
0.92498808
0.95584226
0.97699101
0.97333862
0.98324547
0.98549823
0.995633
1.0027815
1.0153014
1.0279606
1.0451104
1.0646248
1.0880682
1.1144247
1.1427466
1.170744
1.196057
1.216835
1.2316753
1.2394236
1.2413179
1.2393748
1.23447
1.2277012
1.2199998
1.2120685
1.2044087
1.1973024
1.1909034
1.1854667
1.1813596
1.1783125
1.1750289
1.1712715
1.1690214
1.1677795
1.1673034
1.1671792
1.1671252
1.1679499
1.1683833
1.1686322
1.1687497
1.1687973
1.1688156
1.1688143
1.168626
1.1685056
1.168426
0.92919887
0.93627951
0.96608188
0.98603632
0.98247616
0.99290834
0.99563943
1.0063206
1.01426
1.0275762
1.041386
1.0596247
1.0804606
1.1050271
1.1321683
1.1604958
1.1875937
1.2112502
1.2298873
1.2419264
1.2469758
1.247098
1.2436243
1.2375488
1.2299363
1.2216432
1.2133063
1.2053681
1.198065
1.19153
1.1860209
1.1818936
1.1788042
1.1753415
1.1714632
1.1692127
1.1679755
1.1675039
1.1673865
1.1673533
1.1680917
1.168453
1.1686561
1.1687509
1.1687883
1.1688038
1.1687779
1.1685915
1.1684691
1.1683796
0.93800676
0.94866126
0.97662168
0.99563074
0.99220327
1.0031609
1.0064551
1.017736
1.0265757
1.0407842
1.0558272
1.0751982
1.097328
1.1228917
1.1505293
1.1784737
1.2043017
1.2260422
1.2421976
1.2512505
1.2539252
1.2523558
1.2474347
1.2402935
1.2319241
1.2231057
1.2144117
1.2062293
1.1987536
1.1921011
1.1865351
1.1823976
1.1792684
1.1756104
1.1716353
1.1693938
1.168168
1.1677018
1.1675894
1.1675796
1.1682068
1.1685097
1.1686762
1.1687517
1.1687806
1.1687952
1.1687388
1.1685579
1.1684337
1.1683361
0.94704641
0.96199149
0.98744388
1.0057563
1.0025883
1.0141054
1.018061
1.030006
1.0398639
1.0550485
1.0713725
1.0918854
1.1152333
1.1415985
1.169378
1.1965258
1.2207394
1.2403167
1.2535903
1.2596798
1.2603506
1.2570774
1.250834
1.2427315
1.2336872
1.2244052
1.2153984
1.2070027
1.199376
1.1926233
1.1870144
1.1828747
1.1797028
1.175826
1.171802
1.1695687
1.1683583
1.1678977
1.1677899
1.1677881
1.1683041
1.1685534
1.1686876
1.1687488
1.1687712
1.1687847
1.1687011
1.1685253
1.1683995
1.1682954
0.95631253
0.97633998
0.99868932
1.0165624
1.0137556
1.0258766
1.0306113
1.043281
1.0542566
1.0704584
1.0880848
1.1097201
1.1341521
1.1610453
1.1885543
1.2144914
1.2367733
1.2538408
1.2639815
1.2673754
1.266196
1.2613
1.2538522
1.2448896
1.2352476
1.2255587
1.2162795
1.207698
1.19994
1.1931028
1.1874639
1.1833273
1.1801046
1.1759983
1.1719647
1.1697414
1.1685471
1.1680898
1.167984
1.1679765
1.168386
1.1685861
1.1686927
1.1687424
1.1687596
1.1687715
1.1686641
1.1684938
1.1683664
1.1682575
0.96585476
0.99179467
1.0105361
1.0282135
1.0258663
1.0386332
1.0442748
1.0577134
1.0698775
1.087056
1.1060047
1.1287143
1.1540245
1.1810929
1.2078805
1.2322129
1.2522758
1.266401
1.2733368
1.2744923
1.2714278
1.265053
1.2565216
1.2467946
1.2366265
1.2265826
1.2170672
1.2083247
1.2004529
1.1935454
1.1878878
1.1837566
1.1804712
1.1761411
1.1721233
1.1699152
1.1687355
1.1682748
1.168162
1.1681477
1.1684562
1.1686116
1.1686942
1.1687334
1.1687464
1.1687561
1.1686275
1.1684633
1.1683345
1.1682222
0.9759306
1.0085258
1.0230462
1.0409162
1.0391174
1.0525284
1.0591785
1.073391
1.0867551
1.1049372
1.125179
1.1488547
1.1747478
1.2015632
1.2271646
1.2495216
1.267011
1.2778718
1.2818286
1.280956
1.2760928
1.2683726
1.2588741
1.2484727
1.2378443
1.2274925
1.2177731
1.2088915
1.2009215
1.1939569
1.1882903
1.1841636
1.180803
1.1762659
1.1722802
1.170092
1.1689235
1.1684534
1.1683203
1.1683
1.1685171
1.1686331
1.1686944
1.1687225
1.1687318
1.1687388
1.1685928
1.1684337
1.1683037
1.1681894
0.98680766
1.0266194
1.0363837
1.0547505
1.0536538
1.0676609
1.0753825
1.0903764
1.1049758
1.1241693
1.1456323
1.1700814
1.1961691
1.222248
1.246212
1.2662531
1.2807242
1.2881761
1.2896595
1.2867278
1.2802234
1.2712963
1.2609417
1.249949
1.2389203
1.2283027
1.2184082
1.2094067
1.2013526
1.1943425
1.1886747
1.1845486
1.1811014
1.1763833
1.1724383
1.1702712
1.1691065
1.1686203
1.1684631
1.1684368
1.1685677
1.168648
1.1686902
1.1687096
1.1687167
1.168718
1.1685593
1.168405
1.1682741
1.1681592
0.99902623
1.0465688
1.0510312