/*--------------------------------*- C++ -*----------------------------------*\
  =========                 |
  \\      /  F ield         | OpenFOAM: The Open Source CFD Toolbox
   \\    /   O peration     | Website:  https://openfoam.org
    \\  /    A nd           | Version:  8
     \\/     M anipulation  |
\*---------------------------------------------------------------------------*/
FoamFile
{
    version     2.0;
    format      ascii;
    class       surfaceVectorField;
    location    "0.129988";
    object      rhoUf;
}
// * * * * * * * * * * * * * * * * * * * * * * * * * * * * * * * * * * * * * //

dimensions      [1 -2 -1 0 0 0 0];

internalField   nonuniform List<vector> 
39600
(
(198.52847 0 5.632378)
(185.17028 0 4.6500454)
(184.95121 1.687993e-16 5.3734481)
(223.72175 -7.5793146e-22 6.3241505)
(215.1743 3.499052e-17 5.6965369)
(214.73759 -5.9547884e-17 6.5241454)
(242.12982 -4.2522592e-17 6.7928972)
(234.67337 -2.8240822e-17 6.1312278)
(234.0269 4.8301044e-17 7.0334598)
(259.30214 -3.2768211e-17 7.1881179)
(251.9491 -4.5994696e-17 6.5055043)
(251.07661 -9.0432095e-17 7.4751188)
(276.99544 3.8040812e-17 7.5415147)
(269.21538 -1.2867252e-18 6.8396448)
(268.06396 -1.5140602e-17 7.8742882)
(295.38939 5.6389885e-18 7.8290677)
(287.71989 1.7329177e-17 7.1695781)
(286.19522 1.8670331e-17 8.2761391)
(308.10474 -4.4982007e-18 7.9869294)
(305.94221 6.7292391e-19 7.208975)
(304.85208 1.1463173e-17 8.4133618)
(310.74087 4.6435686e-18 7.9980916)
(311.45313 1.2694232e-17 7.5846062)
(311.15141 1.3873362e-17 8.8013439)
(310.57652 -3.619529e-18 7.9376243)
(310.23082 -2.1820693e-17 7.0655314)
(309.97283 -1.1271003e-17 8.3281413)
(310.82144 9.8156304e-18 7.8712757)
(311.30692 1.9302361e-17 7.5887212)
(311.01909 9.356819e-18 8.8186104)
(310.77687 -6.8077496e-19 7.7860099)
(310.56122 7.7927869e-18 6.8346743)
(310.29178 3.3625247e-21 8.1142071)
(311.05394 -8.5523574e-19 7.68703)
(311.3569 -6.4273046e-18 7.4539357)
(311.06448 -8.1374681e-19 8.7028661)
(311.17704 -1.9905983e-18 7.5625604)
(311.01957 0 6.6158746)
(310.73491 0 7.9160007)
(311.53443 -7.3294721e-19 7.4129281)
(311.70004 9.8930688e-20 7.1607312)
(311.396 -2.2596053e-18 8.44339)
(311.82193 3.2070978e-18 7.2250199)
(311.67932 -9.1694387e-20 6.3480861)
(311.37461 8.7823698e-18 7.6782449)
(312.29411 1.6083139e-18 6.9960548)
(312.34435 5.3984813e-19 6.690126)
(312.02305 -4.4798309e-18 8.0215924)
(312.76422 1.7408956e-19 6.7089427)
(312.5963 -1.8314171e-18 5.9382324)
(312.26817 6.9977994e-21 7.3141296)
(313.39993 -1.0914836e-20 6.3570104)
(313.33672 3.3237683e-18 5.9996144)
(312.99351 -1.3174053e-19 7.3976465)
(314.08825 2.3635048e-18 5.9172239)
(313.85998 -1.8756281e-18 5.2656482)
(313.50533 -1.2050252e-20 6.7111438)
(314.9424 -1.7465223e-18 5.3784567)
(314.7547 5.7442327e-18 4.9983541)
(314.38609 3.3740087e-18 6.4879012)
(315.88799 -5.5721379e-18 4.7136738)
(315.57257 -2.4022518e-18 4.1803219)
(315.19198 -4.9961495e-18 5.7281899)
(316.99101 0 3.9138791)
(316.67468 0 3.5453097)
(316.28628 2.3079455e-18 5.1584124)
(318.18379 0 2.9630968)
(317.78037 1.4982277e-17 2.5275535)
(317.39006 -1.9657605e-18 4.2135287)
(319.46715 8.1755278e-18 1.8790991)
(319.06295 0 1.518454)
(318.68397 2.6273707e-18 3.2849742)
(320.73838 9.9327223e-18 0.69815293)
(320.32003 3.7501444e-18 0.27461657)
(319.96812 9.8353459e-18 2.1215471)
(321.90308 -6.5791427e-18 -0.48135871)
(321.55546 -1.3599738e-17 -0.95489147)
(321.25506 0 0.9685554)
(322.784 -9.1707121e-18 -1.5117746)
(322.56016 1.5440585e-17 -2.1502882)
(322.33663 -6.2956085e-18 -0.17091309)
(323.20438 3.5776735e-18 -2.2029433)
(323.19669 -1.2965678e-18 -3.0429142)
(323.07127 3.1469962e-20 -1.041067)
(322.99788 -1.5181173e-18 -2.4176126)
(323.26436 5.9914774e-17 -3.4816877)
(323.23659 4.4607895e-18 -1.5081174)
(322.10153 2.1344918e-18 -2.1579939)
(322.6636 -1.7337993e-17 -3.3568517)
(322.70563 -6.5903273e-18 -1.477241)
(320.59143 -1.7380794e-17 -1.574146)
(321.39591 1.2856841e-17 -2.7751936)
(321.46533 1.2734427e-17 -1.0687402)
(318.67305 -7.4647341e-17 -0.85049119)
(319.61721 5.002063e-17 -1.9353387)
(319.68232 -2.7414331e-17 -0.46949949)
(316.59654 -4.3873922e-17 -0.11974588)
(317.56699 -6.2472017e-20 -1.0348071)
(317.61538 -2.3243273e-17 0.16254955)
(314.56897 0 0.54286192)
(315.4882 -7.660158e-18 -0.19813107)
(315.51905 2.939786e-19 0.74560224)
(312.73165 1.6571154e-17 1.0993542)
(313.54178 -1.2225713e-17 0.52692375)
(313.55875 2.6582977e-19 1.2527684)
(311.13771 -3.75933e-18 1.5220988)
(311.83892 8.9806834e-18 1.100461)
(311.84392 9.2424294e-18 1.6500098)
(309.77867 -2.1546813e-17 1.8119199)
(310.36421 -1.3079535e-17 1.5142509)
(310.36033 -1.5961007e-17 1.9270953)
(308.65242 6.849912e-17 1.9754568)
(309.13341 9.6788104e-17 1.7845319)
(309.12357 4.2881995e-18 2.0931838)
(307.73413 7.1862681e-17 2.0294195)
(308.1269 -6.7462668e-19 1.9174145)
(308.11366 2.436516e-17 2.1475649)
(306.999 1.6164192e-17 1.9942551)
(307.30999 1.0927803e-16 1.9504171)
(307.29498 2.0458175e-18 2.1211268)
(306.41262 8.5206873e-18 1.8807606)
(306.67105 2.7240532e-17 1.8900676)
(306.65538 1.8814791e-18 2.0170061)
(305.94502 -8.4233752e-17 1.7037249)
(306.14602 -2.6493186e-17 1.7498226)
(306.13098 -3.5829089e-18 1.8456043)
(305.58538 -3.5816414e-17 1.4937041)
(305.74518 1.5695915e-16 1.5543921)
(305.73183 -1.8536494e-17 1.6257375)
(305.3167 6.4339819e-17 1.2870652)
(305.42945 -1.4352275e-17 1.3530234)
(305.41708 1.2132176e-17 1.4028939)
(305.13841 -1.1045581e-19 1.0589848)
(305.21445 1.0648842e-17 1.1719657)
(305.20207 2.2340997e-20 1.2091015)
(305.05814 -5.4489342e-18 0.74371099)
(305.08127 -1.2648477e-16 0.88190534)
(305.07371 1.5868771e-18 0.92081676)
(305.17318 -9.573186e-18 1.1808875)
(304.95176 -5.984546e-18 0.5031576)
(305.00724 -8.9048986e-19 0.53707942)
(305.01112 5.0593296e-18 0.0896148)
(304.89743 -4.2826075e-18 0.21827904)
(304.84994 6.2324709e-19 0.23090064)
(305.16301 0 0.41346534)
(305.05833 -9.8444441e-17 -0.041171402)
(305.09641 -2.8320141e-21 -0.026738152)
(304.91584 -4.4832536e-17 -0.87878667)
(304.89052 7.9279833e-22 -0.89010414)
(198.96978 3.1389688e-17 4.8568121)
(185.33625 -5.0634115e-17 3.9198719)
(224.34078 1.230974e-17 5.4374626)
(215.61326 6.9951559e-17 4.843355)
(242.90933 -3.0256544e-17 5.8272289)
(235.29348 -2.8025841e-17 5.2025485)
(260.27898 -1.8720026e-17 6.1523197)
(252.76593 -2.0225569e-19 5.5048644)
(278.24526 -2.2951591e-17 6.4379005)
(270.28419 -2.0220184e-17 5.7699637)
(296.60372 1.3769483e-17 6.6488601)
(289.15979 -1.8328886e-17 6.0262922)
(308.77996 1.6528347e-17 6.7584781)
(306.87058 4.7421291e-17 5.9678251)
(311.04497 -1.0465686e-17 6.7464426)
(311.75607 -1.3982642e-17 6.3486584)
(310.85735 -2.6371186e-18 6.6817401)
(310.48625 -3.7684563e-18 5.7795752)
(311.10993 1.8224723e-17 6.6071315)
(311.60105 4.2715842e-18 6.3451255)
(311.06432 3.2930859e-18 6.5137906)
(310.83369 7.5837839e-18 5.5284531)
(311.35088 -6.0955967e-18 6.402131)
(311.65874 -5.5220474e-18 6.1892612)
(311.47682 2.0338427e-18 6.2638245)
(311.31065 -2.7682984e-18 5.2878482)
(311.84473 7.4162583e-19 6.0963326)
(312.01276 -2.4072657e-18 5.8604092)
(312.13846 -2.7485295e-18 5.8877447)
(311.99107 3.9488755e-18 4.9911707)
(312.62156 -2.6343206e-18 5.6342905)
(312.67256 -7.6750361e-19 5.3397605)
(313.10056 8.344268e-19 5.3173933)
(312.93137 -1.9448227e-18 4.5376971)
(313.74774 1.921033e-18 4.9309665)
(313.68605 -8.1137598e-18 4.5818033)
(314.4463 8.0999375e-19 4.4484552)
(314.22162 -7.5677055e-18 3.7973751)
(315.31018 5.7687087e-18 3.8609526)
(315.12872 -9.7573979e-18 3.4891205)
(316.26197 2.8540884e-18 3.1377561)
(315.95872 2.5809702e-18 2.6125765)
(317.36492 1.3424265e-17 2.2736436)
(317.06616 0 1.9157849)
(318.54771 1.6253599e-17 1.2506631)
(318.17235 -5.6799333e-19 0.82802888)
(319.80583 -4.6645488e-18 0.092418767)
(319.43999 0 -0.25593405)
(321.03227 -1.7813894e-17 -1.1619021)
(320.66641 -2.707811e-17 -1.5730289)
(322.12872 5.4171206e-18 -2.4030779)
(321.84464 -1.3358647e-17 -2.8679574)
(322.92244 2.4734373e-17 -3.4723024)
(322.76567 5.3731185e-17 -4.1044494)
(323.25242 4.8518258e-17 -4.1643498)
(323.29554 0 -5.0016166)
(322.97823 5.173122e-17 -4.3274942)
(323.25566 9.4982198e-18 -5.3957406)
(322.0562 -9.6761324e-18 -3.9461736)
(322.57361 -8.7023284e-18 -5.1687716)
(320.5581 7.5838814e-17 -3.1657479)
(321.26903 0 -4.4196358)
(318.66774 1.2879164e-16 -2.1943422)
(319.49189 3.495206e-17 -3.3556799)
(316.61832 3.6549602e-17 -1.2062199)
(317.4634 2.8903979e-17 -2.2047225)
(314.61079 -1.9295805e-17 -0.30858752)
(315.41129 1.7117651e-19 -1.1278115)
(312.78211 -2.1949208e-17 0.44668974)
(313.48871 -1.2117134e-17 -0.19277795)
(311.18662 2.0973873e-18 1.029062)
(311.80671 -9.4826426e-18 0.55306666)
(309.82447 9.2659321e-17 1.4427599)
(310.34791 1.4147815e-17 1.1020267)
(308.69599 3.8582791e-17 1.7009748)
(309.1284 -1.758114e-16 1.4764138)
(307.77492 2.4467249e-17 1.8263561)
(308.1294 -4.8403246e-17 1.6882083)
(307.03737 1.2937882e-16 1.8454539)
(307.31715 -8.1525475e-19 1.7812336)
(306.44946 -1.7203712e-18 1.7714092)
(306.68111 -1.5350684e-16 1.7654446)
(305.97943 1.9383335e-16 1.6235119)
(306.15707 4.5342747e-20 1.6572112)
(305.61459 1.9768773e-16 1.4360872)
(305.75593 7.8268194e-17 1.4869012)
(305.34068 -7.0861208e-17 1.2468145)
(305.44004 -7.2310395e-17 1.3069255)
(305.16149 -1.0064283e-16 1.0279479)
(305.22543 1.8066567e-16 1.1374079)
(305.02944 -1.4059881e-16 0.75292333)
(305.08417 -1.277848e-18 0.84623868)
(305.01628 -7.9601942e-18 0.74318979)
(304.92962 0 0.47382371)
(304.9483 -9.8349021e-17 0.086905963)
(304.91844 -8.9744241e-18 0.20860764)
(305.08623 -1.4455836e-16 0.31448941)
(305.02516 1.311276e-19 -0.050815891)
(304.9405 -4.406781e-20 -0.86104285)
(199.18996 -2.2553104e-17 4.0632885)
(185.48926 2.3884317e-18 3.1841328)
(224.79212 3.8151103e-17 4.5472827)
(216.0212 -3.8312044e-17 3.9717816)
(243.57448 -8.3408916e-19 4.8653745)
(235.90733 5.9669944e-17 4.2591068)
(261.18795 -1.1565726e-19 5.1219512)
(253.59512 -2.5205092e-17 4.4927701)
(279.48941 -1.5852563e-17 5.3353411)
(271.38109 -1.0624695e-17 4.6852451)
(297.81931 9.4238974e-18 5.4576073)
(290.68022 8.4156416e-19 4.8614194)
(309.40561 2.2395269e-17 5.5087559)
(307.76753 2.3150884e-17 4.7024169)
(311.31469 -8.2363179e-18 5.4789636)
(312.05257 -6.3125772e-18 5.0912584)
(311.13026 2.3524719e-18 5.4067628)
(310.7552 -3.0213595e-19 4.4706289)
(311.39493 -6.3811946e-18 5.3224199)
(311.90606 -8.2079943e-18 5.0791192)
(311.35157 0 5.2180125)
(311.11728 0 4.1990285)
(311.64912 -2.4874837e-18 5.0933069)
(311.96918 0 4.9004643)
(311.77975 -7.1365004e-18 4.9394177)
(311.61042 -2.7268354e-18 3.9365818)
(312.15863 2.2533804e-19 4.7540223)
(312.33234 -6.879894e-18 4.5349199)
(312.46012 6.259485e-18 4.5236988)
(312.3098 1.7276122e-18 3.6108215)
(312.95516 0 4.2448197)
(313.00693 -1.6587777e-18 3.9629469)
(313.44539 -1.020289e-17 3.8968085)
(313.27298 6.9299534e-18 3.1119122)
(314.10612 -1.7436439e-17 3.4734974)
(314.04154 2.8297323e-18 3.1351817)
(314.818 -1.7731849e-17 2.9465932)
(314.58942 2.1545616e-18 2.3006301)
(315.69455 -1.389364e-17 2.3074526)
(315.5079 1.6944053e-17 1.9483535)
(316.65627 0 1.5245463)
(316.34891 -2.7328777e-18 1.0132838)
(317.76293 -1.3668288e-17 0.59397013)
(317.45944 0 0.25296475)
(318.93991 -1.6552756e-17 -0.500873)
(318.56343 -1.8923812e-17 -0.90416995)
(320.17623 -1.9653247e-17 -1.7318366)
(319.81215 -3.007456e-17 -2.061837)
(321.35953 -2.3891249e-17 -3.0527337)
(321.0028 -3.8758796e-17 -3.4473971)
(322.38482 2.8086418e-17 -4.3424461)
(322.11713 -4.7807967e-17 -4.7980446)
(323.0798 3.430284e-17 -5.4280235)
(322.94679 6.8187459e-18 -6.0583873)
(323.29431 -3.9327397e-17 -6.0920596)
(323.36221 0 -6.9360362)
(322.91165 -4.8286747e-17 -6.1757625)
(323.20767 -5.4976796e-17 -7.2594348)
(321.913 0 -5.6581538)
(322.4375 9.2230678e-18 -6.9114216)
(320.38262 -4.3855823e-17 -4.6852579)
(321.09031 0 -5.9912718)
(318.49736 -6.3185058e-17 -3.4824868)
(319.31299 -4.8756161e-17 -4.7144494)
(316.47303 -4.1444635e-18 -2.2549355)
(317.30993 -1.6096273e-16 -3.3304696)
(314.49562 8.5608444e-18 -1.1363206)
(315.29185 1.2715905e-16 -2.0289376)
(312.69677 0 -0.19176715)
(313.4014 0 -0.8951258)
(311.12885 0 0.54397072)
(311.74807 -1.5291388e-16 0.015775054)
(309.78801 -2.3210918e-16 1.0774524)
(310.31177 0 0.69531759)
(308.67471 -2.7623291e-16 1.427642)
(309.10874 9.0980279e-17 1.1708892)
(307.76408 -7.8896732e-17 1.6227561)
(308.12125 -2.4698265e-16 1.4598484)
(307.03363 -2.6577826e-16 1.6947841)
(307.31653 8.6534201e-17 1.6117206)
(306.44988 -1.6894997e-16 1.6594037)
(306.68561 -2.8886167e-16 1.6396982)
(305.98198 -1.242645e-16 1.5405513)
(306.16413 -2.268358e-16 1.5631641)
(305.61867 -1.7466277e-16 1.3764401)
(305.76387 -1.3727088e-16 1.4184711)
(305.34642 1.5098973e-16 1.2038185)
(305.44887 -7.193359e-18 1.2607746)
(305.16398 3.0113424e-16 0.99300393)
(305.23521 1.0913005e-18 1.0999396)
(305.05462 1.3994687e-16 0.78595915)
(305.07918 1.262632e-16 0.80770632)
(304.94903 0 0.41117252)
(304.93439 0 0.44427805)
(304.96677 9.0069429e-17 0.081338964)
(304.91969 8.6789712e-18 0.19705312)
(305.09436 1.4341459e-16 0.21057801)
(305.00124 9.5045726e-17 -0.059231818)
(304.96449 4.6352415e-17 -0.84325731)
(199.48961 -9.7649613e-18 3.258343)
(185.67105 7.7550295e-17 2.4283517)
(225.32897 -2.488667e-17 3.6386709)
(216.46894 -9.0866573e-17 3.0943768)
(244.31915 4.2448634e-17 3.8789052)
(236.56195 5.8706966e-17 3.2949941)
(262.16865 -3.6599021e-17 4.0615307)
(254.46487 -2.4248349e-17 3.4575146)
(280.81263 4.7896308e-18 4.1982118)
(272.51569 -9.9930286e-18 3.5733162)
(299.06764 1.2512849e-17 4.2315158)
(292.27181 2.7778102e-17 3.6650807)
(310.01881 -2.5970151e-18 4.2316361)
(308.60758 -1.6406414e-17 3.4097672)
(311.60505 9.6925832e-19 4.1853718)
(312.35137 6.7872535e-18 3.811823)
(311.4215 -1.0001021e-17 4.1065156)
(311.03115 -4.1161012e-18 3.1372522)
(311.69524 -2.6157585e-18 4.0129743)
(312.21733 -3.6099149e-18 3.7906473)
(311.65189 0 3.8983587)
(311.40705 5.1440988e-19 2.8458688)
(311.95845 -1.9512619e-20 3.7610098)
(312.28512 3.888724e-18 3.5897602)
(312.09203 -2.1485757e-18 3.592107)
(311.91552 4.3039654e-18 2.5625265)
(312.4806 -6.0929791e-18 3.3888383)
(312.65678 -3.5346559e-18 3.1870331)
(312.78873 -5.7443055e-18 3.1365733)
(312.63382 -3.8530672e-18 2.2074873)
(313.29484 4.4334276e-18 2.8315835)
(313.34643 -1.1789242e-17 2.5620379)
(313.79518 2.0008449e-17 2.4514606)
(313.62029 -7.4053939e-18 1.6614826)
(314.46797 2.2054903e-17 1.9902822)
(314.40217 -1.0134203e-17 1.662114)
(315.19096 3.48911e-17 1.4180355)
(314.96209 -4.4213698e-18 0.77706288)
(316.07702 2.9489627e-17 0.72663821)
(315.89057 3.2353346e-17 0.37923542)
(317.04443 -2.9602752e-18 -0.11612672)
(316.74114 2.287257e-17 -0.61442684)
(318.14924 -3.5552339e-18 -1.1127304)
(317.85233 1.4398248e-17 -1.438916)
(319.31349 -3.1244307e-17 -2.2777291)
(318.95105 -3.8911139e-18 -2.6645465)
(320.51958 -4.8078689e-17 -3.5777867)
(320.17651 -2.4244144e-18 -3.8939918)
(321.65016 -6.1457763e-17 -4.957933)
(321.32561 2.3114561e-17 -5.3428819)
(322.59473 -7.3664448e-17 -6.2837593)
(322.36866 -3.4001529e-18 -6.7393435)
(323.18438 -2.6308222e-17 -7.3672394)
(323.09866 -8.991634e-17 -8.0071644)
(323.28301 -1.0271461e-17 -7.9812302)
(323.39208 0 -8.8435666)
(322.79887 -4.4281651e-18 -7.9652065)
(323.11704 -2.3143785e-17 -9.0734253)
(321.73571 1.0118752e-17 -7.3005348)
(322.25433 1.8529572e-17 -8.5872605)
(320.18551 0 -6.1379689)
(320.86148 7.9877455e-18 -7.4909873)
(318.31528 -1.3415418e-16 -4.7166088)
(319.08372 -9.5747952e-17 -6.0088858)
(316.32401 -6.0545378e-17 -3.2650099)
(317.10978 3.4115277e-18 -4.4064895)
(314.38351 1.3193999e-16 -1.9385676)
(315.13231 6.0098506e-18 -2.8952407)
(312.61788 -1.3552194e-16 -0.81432585)
(313.28155 1.7560138e-16 -1.5744436)
(311.0772 -1.6932505e-16 0.068512301)
(311.66408 1.1831427e-17 -0.5068396)
(309.75722 3.113823e-16 0.71785499)
(310.25643 0 0.29769904)
(308.65918 1.571576e-16 1.1576042)
(309.07478 1.7300375e-16 0.87086814)
(307.75899 -1.191853e-16 1.4210492)
(308.10263 1.8840043e-17 1.2347598)
(307.03564 1.0550943e-16 1.5451099)
(307.30824 -1.2118925e-18 1.4440112)
(306.45644 -3.5366198e-16 1.5480164)
(306.68458 -1.3556871e-16 1.5148569)
(305.99068 -2.499407e-16 1.4582234)
(306.16721 -2.6236141e-17 1.4696521)
(305.62804 1.5445642e-17 1.3178407)
(305.76903 9.7990573e-18 1.350755)
(305.3567 -1.5840725e-16 1.1613594)
(305.45612 -1.4410767e-17 1.2157318)
(305.17054 -1.8876748e-16 0.95728296)
(305.24381 -1.5937987e-16 1.0610467)
(305.0318 0 0.68804541)
(305.07768 0 0.76857946)
(304.92711 7.7611142e-18 0.32121536)
(304.93923 0 0.41498294)
(304.94645 3.704111e-18 0.073250416)
(304.91607 -2.7409057e-16 0.18437996)
(305.07075 -7.3102371e-18 0.14327663)
(304.98237 -2.0474549e-19 -0.066372429)
(304.98562 -1.2369204e-18 -0.82223444)
(199.80423 1.1748887e-17 2.4411313)
(185.88269 2.5884492e-17 1.6131614)
(225.88595 -2.0820617e-17 2.7154572)
(216.95173 -8.6853412e-18 2.2188222)
(245.08516 1.7040187e-21 2.8755485)
(237.25457 -9.2030612e-18 2.3098518)
(263.17365 6.3098811e-19 2.9810623)
(255.37764 -8.2797595e-19 2.3986471)
(282.17851 9.5260917e-18 3.0366491)
(273.69295 -3.0691501e-20 2.433594)
(300.32271 2.9699746e-18 2.9796135)
(293.93533 1.0777898e-17 2.4368471)
(310.59575 -9.0455794e-18 2.9325782)
(309.39248 -8.1980107e-18 2.0904312)
(311.89267 2.6702725e-18 2.8699904)
(312.66489 0 2.5109392)
(311.71461 2.0882499e-18 2.7843685)
(311.3132 2.9021446e-18 1.7815111)
(311.99788 -8.7412635e-19 2.6816746)
(312.53279 -1.2112418e-18 2.4811521)
(311.95507 4.0494892e-18 2.5568717)
(311.70114 5.0266383e-19 1.4706009)
(312.27077 8.0813541e-18 2.4069207)
(312.60443 2.0486515e-18 2.2576682)
(312.40784 3.5688723e-18 2.2227062)
(312.22473 5.6981563e-18 1.1664303)
(312.80648 -1.3194994e-18 2.0010111)
(312.9851 8.6644504e-18 1.8160779)
(313.12212 -9.1324451e-18 1.7257954)
(312.9627 0 0.78078742)
(313.63983 -2.3714934e-17 1.3935292)
(313.6905 -3.0495187e-18 1.1356927)
(314.15096 -3.667584e-17 0.98002842)
(313.9725 6.3770122e-18 0.18559965)
(314.836 -3.6503349e-17 0.47975916)
(314.76685 -6.2769207e-18 0.16134784)
(315.57023 -9.9148302e-18 -0.13887258)
(315.33841 4.4229972e-19 -0.77415069)
(316.46539 2.6654992e-17 -0.88342771)
(316.27537 3.467616e-18 -1.219317)
(317.43785 4.0595491e-17 -1.7866063)
(317.13388 1.9863266e-18 -2.2715623)
(318.53949 1.5614126e-17 -2.8493589)
(318.2431 -3.955614e-17 -3.1611453)
(319.6889 2.4260439e-17 -4.0834429)
(319.33309 -3.7158663e-17 -4.4544588)
(320.86123 6.5248856e-17 -5.4493982)
(320.53039 2.6593532e-17 -5.7537895)
(321.93377 8.2509093e-17 -6.8816756)
(321.63139 -8.1537277e-18 -7.2605518)
(322.79027 -1.161853e-17 -8.2308987)
(322.59499 -3.7531136e-17 -8.692261)
(323.26572 -7.2285816e-17 -9.2933445)
(323.21666 2.1401619e-18 -9.9504532)
(323.23871 -1.0510819e-17 -9.8345162)
(323.38105 0 -10.723624)
(322.6427 -4.5341679e-18 -9.6973945)
(322.98135 4.4143072e-19 -10.837423)
(321.50466 1.7456497e-17 -8.8725413)
(322.02427 9.6319517e-18 -10.196104)
(319.927 -7.6336272e-17 -7.519663)
(320.5852 -5.8871764e-21 -8.9174863)
(318.06979 3.0347301e-17 -5.889671)
(318.8081 8.8840318e-18 -7.2356077)
(316.11516 6.8979246e-17 -4.2284503)
(316.86691 1.5143576e-16 -5.4277856)
(314.21845 3.1494337e-17 -2.7079336)
(314.93579 -1.113977e-16 -3.7214124)
(312.49501 3.3935272e-16 -1.4148181)
(313.13125 -2.8065194e-17 -2.2260689)
(310.99125 1.813009e-16 -0.39269367)
(311.55607 1.6256026e-16 -1.0110515)
(309.70024 -1.565771e-16 0.36716305)
(310.18269 -1.4824648e-17 -0.088075418)
(308.62364 5.2451653e-17 0.89293475)
(309.027 -5.2087349e-16 0.57824975)
(307.73864 1.384905e-16 1.2224537)
(308.07381 2.8000831e-16 1.0141713)
(307.02586 -2.2655269e-16 1.3969885)
(307.29245 -5.7784033e-16 1.2788411)
(306.45362 1.790121e-16 1.4373255)
(306.67809 5.8184869e-16 1.3912806)
(305.9919 2.2925637e-16 1.376239)
(306.16633 2.0015652e-16 1.3767932)
(305.63197 -1.7304375e-17 1.2596523)
(305.77139 -9.8170996e-18 1.283538)
(305.3633 1.409058e-18 1.1186868)
(305.4618 -4.6615449e-16 1.1708633)
(305.17518 1.1750644e-17 0.91988731)
(305.25126 1.0573566e-17 1.0205795)
(305.024 0 0.61624504)
(305.07757 -2.547071e-16 0.7285344)
(304.92865 -2.5272465e-16 0.29782479)
(304.94031 -3.5900787e-16 0.38608513)
(304.94178 -3.0968915e-16 0.064712628)
(304.91215 2.5591197e-16 0.17090028)
(305.06514 6.0849391e-18 0.0845885)
(304.96836 -1.9998064e-16 -0.072077947)
(305.00297 1.5615834e-16 -0.80032594)
(200.15034 8.6822731e-18 1.6057155)
(186.12508 -4.1227699e-19 0.77395948)
(226.47848 2.7015145e-18 1.769247)
(217.46181 5.0475485e-18 1.3307263)
(245.89701 -1.0663672e-17 1.8458991)
(237.97812 -1.2963059e-17 1.3013109)
(264.22809 -1.5362643e-18 1.8709435)
(256.32832 1.7263391e-18 1.3159992)
(283.60327 3.5161153e-19 1.8411468)
(274.9075 -7.0098321e-19 1.2652022)
(301.591 1.3468735e-18 1.6948922)
(295.65205 1.222267e-18 1.1759467)
(311.15614 0 1.6072723)
(310.10887 0 0.7455202)
(312.20075 0 1.5322382)
(312.98344 0 1.1897053)
(312.01423 0 1.4405024)
(311.5961 4.6499027e-18 0.40473261)
(312.30566 0 1.3289962)
(312.84898 1.2951674e-18 1.151677)
(312.26292 -1.5744626e-18 1.1940472)
(311.99754 -2.1527977e-18 0.073552188)
(312.5874 -5.6730794e-19 1.0310421)
(312.92624 -5.3060882e-18 0.90383801)
(312.72816 1.0446282e-17 0.83075548)
(312.53767 -1.5805214e-18 -0.2525151)
(313.13697 1.0641919e-17 0.58951869)
(313.31714 9.6504726e-18 0.42084837)
(313.46028 6.1927176e-18 0.2902142)
(313.29602 6.349289e-18 -0.67050776)
(313.98926 2.5634827e-17 -0.070510924)
(314.03838 6.7435429e-18 -0.31724781)
(314.51068 3.714056e-17 -0.51838695)
(314.32859 8.0065459e-18 -1.3167156)
(315.20686 2.9339519e-17 -1.0587182)
(315.13433 4.1563504e-17 -1.3679746)
(315.95088 1.3296467e-17 -1.7245946)
(315.7168 7.8189023e-18 -2.3537707)
(316.85299 -2.0583423e-17 -2.5230745)
(316.66048 -1.3927915e-17 -2.8480036)
(317.82773 -7.3093995e-17 -3.4871405)
(317.52511 -2.2587382e-17 -3.9589006)
(318.92237 -9.1511415e-17 -4.6160099)
(318.62951 2.7327801e-17 -4.9145137)
(320.05183 -4.0349842e-17 -5.9178183)
(319.70697 -2.8035008e-18 -6.2746422)
(321.18364 -4.2463522e-17 -7.3458726)
(320.87069 0 -7.6416167)
(322.18974 -1.2354498e-16 -8.8222975)
(321.91634 1.6225608e-18 -9.200087)
(322.94908 -2.7540096e-17 -10.181204)
(322.79169 -7.9872083e-17 -10.655356)
(323.30271 7.3511385e-17 -11.203191)
(323.29614 7.5072103e-17 -11.885807)
(323.14626 1.0756083e-17 -11.649263)
(323.32508 -7.1451432e-18 -12.573503)
(322.4389 1.351932e-17 -11.370877)
(322.79801 1.1899874e-17 -12.54936)
(321.22925 -6.6803182e-18 -10.373366)
(321.74685 3.2081938e-19 -11.736619)
(319.62817 8.3406082e-17 -8.8287654)
(320.26324 4.8357113e-19 -10.269192)
(317.78819 1.1415478e-16 -6.9985333)
(318.48937 9.6017935e-17 -8.3917328)
(315.87513 0 -5.1410395)
(316.58487 0 -6.3901349)
(314.02777 -1.7939255e-16 -3.4400707)
(314.70535 -2.6414717e-16 -4.5027065)
(312.35172 -2.2392974e-16 -1.9894443)
(312.95283 -2.0083508e-16 -2.8455412)
(310.88928 -1.3129732e-17 -0.8365604)
(311.42563 -9.8450918e-18 -1.4931373)
(309.63107 -3.2172907e-16 0.02776975)
(310.09162 -7.3506098e-18 -0.45909127)
(308.57914 -3.8307288e-16 0.63543902)
(308.96609 3.0829593e-18 0.29523822)
(307.71186 -3.3805992e-16 1.0282969)
(308.03521 2.5025624e-17 0.79970694)
(307.01157 9.7929278e-17 1.251433)
(307.26941 1.9643297e-18 1.1173991)
(306.44785 6.4627958e-16 1.3281156)
(306.6663 2.9878277e-16 1.269851)
(305.99122 -1.4863691e-17 1.29512)
(306.16157 -1.3334463e-17 1.2852761)
(305.63489 -4.0676948e-16 1.2016863)
(305.771 0 1.2171916)
(305.36957 -5.1196829e-16 1.0755005)
(305.46598 -4.600162e-16 1.1253675)
(305.17993 -2.2631769e-16 0.8812505)
(305.25748 0 0.9788326)
(305.01976 -6.0406923e-16 0.56941976)
(305.07715 -1.0824228e-17 0.68775234)
(304.92575 8.282998e-17 0.27591378)
(304.93915 -3.6198466e-16 0.3574749)
(304.93307 4.2006719e-16 0.055618522)
(304.90805 4.3499309e-18 0.1571423)
(305.05536 -9.1876958e-17 0.041883026)
(304.95749 -6.5580541e-18 -0.076766874)
(305.01752 1.1016326e-17 -0.77690013)
(200.53091 -4.3965354e-18 0.7564932)
(186.39065 1.7784539e-18 -0.06589068)
(227.10157 -8.856381e-18 0.80615003)
(218.00045 -2.2811189e-18 0.4230739)
(246.74167 -2.0009059e-18 0.79644225)
(238.73465 -5.9136802e-18 0.27082526)
(265.31855 2.7310145e-18 0.73757471)
(257.32019 2.4766838e-18 0.21022316)
(285.06758 -7.7461645e-24 0.61729297)
(276.16514 1.5060315e-18 0.068577819)
(302.85021 1.6904808e-21 0.38317808)
(297.4099 1.5322856e-21 -0.11644618)
(311.67032 0 0.26020231)
(310.75763 -2.249535e-18 -0.62314655)
(312.50065 4.1802998e-18 0.17577155)
(313.2997 0 -0.15175919)
(312.31312 6.1781082e-18 0.077015555)
(311.88241 -4.9391304e-18 -0.99391364)
(312.61377 -5.3887676e-19 -0.044352739)
(313.16772 3.8967674e-18 -0.19894587)
(312.57241 -5.5522073e-18 -0.19053806)
(312.29752 2.3070175e-18 -1.3467218)
(312.90647 -6.5896004e-18 -0.3677515)
(313.25127 -3.4961502e-18 -0.47357375)
(313.05177 -3.2498279e-18 -0.58529449)
(312.85468 6.2829689e-18 -1.6959174)
(313.47098 5.7133687e-18 -0.84717901)
(313.65262 -5.1496062e-18 -1.0003193)
(313.80214 6.8560738e-18 -1.1715617)
(313.63302 -6.7259366e-18 -2.1475764)
(314.34202 -1.0605967e-17 -1.5615982)
(314.38891 0 -1.7979254)
(314.87335 9.6216077e-18 -2.044711)
(314.68717 -1.7638512e-17 -2.8463297)
(315.57987 2.3232378e-17 -2.6260536)
(315.50311 1.4295284e-17 -2.9267762)
(316.33275 -1.7058479e-17 -3.3400247)
(316.09578 -8.3029485e-18 -3.962656)
(317.24022 -1.5171101e-17 -4.1932539)
(317.04437 -2.0975152e-17 -4.5077876)
(318.21521 7.1685883e-17 -5.2187982)
(317.91321 -1.2209848e-17 -5.6775113)
(319.29978 1.1690865e-16 -6.4138092)
(319.00973 3.2557845e-17 -6.7001177)
(320.40489 3.6558208e-17 -7.7818063)
(320.07037 7.220865e-17 -8.1260346)
(321.48999 4.3183978e-17 -9.2676601)
(321.19448 -3.6124627e-18 -9.5579239)
(322.42165 5.1853343e-17 -10.779333)
(322.17673 9.111547e-17 -11.160964)
(323.07489 7.0163377e-18 -12.133071)
(322.95443 8.8266064e-17 -12.626676)
(323.29884 3.2873929e-18 -13.094362)
(323.33274 8.0263579e-17 -13.809998)
(323.00804 -7.8201563e-18 -13.423019)
(323.22069 -7.0424488e-18 -14.389556)
(322.18766 0 -12.98381)
(322.56521 -2.0013592e-16 -14.206232)
(320.90689 7.374855e-18 -11.80152)
(321.42234 -1.0392479e-17 -13.206865)
(319.28409 3.3163518e-18 -10.063229)
(319.89781 7.9699948e-18 -11.544644)
(317.46429 -7.1686236e-18 -8.0400179)
(318.13098 2.1547293e-16 -9.4753061)
(315.59711 -2.343576e-16 -5.9987733)
(316.26741 0 -7.2907193)
(313.80435 -2.9205774e-16 -4.1308289)
(314.44428 4.4608538e-18 -5.2358176)
(312.18143 -8.7231858e-18 -2.534442)
(312.7488 4.0066169e-16 -3.4296109)
(310.76595 -4.3294211e-18 -1.2599948)
(311.27457 3.1649693e-16 -1.9502466)
(309.54542 3.1491073e-16 -0.29794194)
(309.98444 2.2380715e-17 -0.81304747)
(308.5221 4.0717153e-16 0.38688266)
(308.89285 3.3388593e-16 0.023585659)
(307.67564 3.6674802e-16 0.83983872)
(307.98734 2.4950569e-17 0.59264582)
(306.99021 1.6859297e-16 1.1093307)
(307.23945 3.8226391e-16 0.96059875)
(306.43674 -3.246227e-16 1.2210057)
(306.6494 -3.0933562e-16 1.1512025)
(305.98654 0 1.2152772)
(306.15306 4.4119071e-16 1.1955666)
(305.63511 -3.4843285e-20 1.1437242)
(305.76796 6.2544951e-16 1.1520901)
(305.37411 -4.3892378e-20 1.0313556)
(305.46869 4.5627775e-16 1.0789202)
(305.18316 2.1789373e-16 0.84159861)
(305.26227 0 0.93593223)
(305.01821 2.7404197e-16 0.5320299)
(305.07527 2.4683941e-16 0.64639494)
(304.92348 -4.8486741e-16 0.25414267)
(304.93682 7.0475334e-16 0.32938032)
(304.92673 -4.2589296e-16 0.04661053)
(304.90395 -2.7724253e-16 0.14350503)
(305.04878 9.0298375e-17 0.0080036777)
(304.9492 2.0309511e-16 -0.080380616)
(305.02979 -1.499001e-16 -0.75266153)
(200.93295 4.1705352e-18 -0.10771363)
(186.67802 -2.8234857e-17 -0.92913114)
(227.75559 8.7582259e-19 -0.17591046)
(218.56684 1.271746e-17 -0.50231063)
(247.62437 -2.1916485e-18 -0.27530888)
(239.52325 9.1204729e-20 -0.77765805)
(266.45373 1.3553931e-18 -0.42190418)
(258.35394 7.0954706e-18 -0.92006678)
(286.57374 1.6247192e-18 -0.63823595)
(277.47204 -1.2386643e-17 -1.1595569)
(304.09849 -2.0226458e-18 -0.95736942)
(299.19014 5.3440327e-18 -1.441381)
(312.15099 -2.4251481e-18 -1.1098032)
(311.33783 2.3865632e-18 -2.0171314)
(312.80572 -8.5257805e-18 -1.2031413)
(313.61734 -3.8548569e-18 -1.5156079)
(312.61613 -7.8608623e-18 -1.3094399)
(312.17209 -9.2816588e-18 -2.4167287)
(312.92559 6.8028026e-18 -1.4413485)
(313.48896 7.9590265e-18 -1.5729412)
(312.88575 4.7753594e-18 -1.5994838)
(312.60097 4.329627e-18 -2.7921975)
(313.22918 8.3191136e-18 -1.7917038)
(313.5791 -7.4792559e-18 -1.8765735)
(313.37902 5.3286959e-18 -2.027266)
(313.17504 2.7606264e-18 -3.1651231)
(313.80811 -1.7188146e-17 -2.3105092)
(313.99039 -5.0461019e-18 -2.4486108)
(314.14671 -1.3970242e-17 -2.6605647)
(313.9723 -8.2818303e-18 -3.65117)
(314.69672 -5.4624076e-18 -3.0806427)
(314.74064 -3.6730172e-18 -3.3072248)
(315.23732 -1.5659508e-17 -3.5998175)
(315.04689 -5.9527111e-18 -4.4040765)
(315.95301 -1.4747407e-17 -4.2231462)
(315.87181 5.7278381e-18 -4.5159919)
(316.7133 -1.1095939e-17 -4.9861086)
(316.47367 -3.4882775e-17 -5.6017661)
(317.6241 -1.8799696e-17 -5.895014)
(317.42522 -3.6652261e-17 -6.1998045)
(318.59664 -5.4351254e-17 -6.9827001)
(318.29617 -3.707827e-17 -7.4286846)
(319.66718 -1.4672344e-17 -8.2437921)
(319.38139 -2.8540876e-18 -8.5192125)
(320.74245 3.9333849e-17 -9.6760533)
(320.42047 3.0902053e-18 -10.009655)
(321.77342 3.5154009e-17 -11.21461)
(321.49826 -3.5488226e-18 -11.503081)
(322.62152 1.2719113e-16 -12.751328)
(322.40842 -1.4357266e-17 -13.142358)
(323.15928 1.6111356e-16 -14.083535)
(323.07856 1.7446003e-16 -14.603713)
(323.24653 7.8231596e-17 -14.962859)
(323.32211 2.2873902e-18 -15.719078)
(322.81886 -1.783979e-16 -15.151803)
(323.06457 7.786118e-18 -16.167364)
(321.88746 -2.2877062e-16 -14.533159)
(322.28129 -2.0572403e-16 -15.804281)
(320.54017 -1.1592969e-17 -13.155044)
(321.05098 -1.0268454e-17 -14.604295)
(318.90068 1.9699069e-16 -11.221428)
(319.49089 2.7297589e-16 -12.742137)
(317.10573 2.4468661e-16 -9.0120474)
(317.73611 2.1112533e-18 -10.484615)
(315.28897 2.3645171e-16 -6.7989754)
(315.91806 0 -8.1273073)
(313.55536 6.500061e-16 -4.7772679)
(314.15581 5.3497817e-16 -5.9180819)
(311.99001 7.3294588e-16 -3.0470058)
(312.52174 -1.8676205e-17 -3.9755362)
(310.62568 3.7519968e-16 -1.6605625)