/*--------------------------------*- C++ -*----------------------------------*\
  =========                 |
  \\      /  F ield         | OpenFOAM: The Open Source CFD Toolbox
   \\    /   O peration     | Website:  https://openfoam.org
    \\  /    A nd           | Version:  8
     \\/     M anipulation  |
\*---------------------------------------------------------------------------*/
FoamFile
{
    version     2.0;
    format      ascii;
    class       volScalarField;
    location    "0.129988";
    object      T;
}
// * * * * * * * * * * * * * * * * * * * * * * * * * * * * * * * * * * * * * //

dimensions      [0 0 0 1 0 0 0];

internalField   nonuniform List<scalar> 
20000
(
270.73321
270.32609
269.73751
268.54938
266.17041
261.57995
253.568
250.88079
251.58138
251.52012
252.11206
252.22039
252.7608
253.02298
253.59309
254.03938
254.72002
255.39358
256.27176
257.23776
258.41478
259.7663
261.36384
263.21397
265.35558
267.79938
270.54494
273.55877
276.7676
280.05562
283.2477
286.14611
288.61617
290.63008
292.22897
293.46966
294.44434
295.20305
295.79086
296.24727
296.59684
296.88724
297.12348
297.32285
297.47134
297.61992
297.80105
298.02975
298.00474
298.22547
270.77283
270.42572
269.83829
268.61938
266.14618
261.35749
253.4212
251.06299
251.79398
251.72849
252.33314
252.44316
252.9957
253.26621
253.84934
254.31079
255.00793
255.70385
256.60529
257.60237
258.81291
260.20539
261.84699
263.74493
265.93328
268.41627
271.18142
274.17757
277.31791
280.48699
283.53899
286.31772
288.70761
290.67431
292.24667
293.47651
294.44681
295.20335
295.79021
296.2463
296.5956
296.88652
297.12323
297.32224
297.46972
297.62469
297.8789
298.02555
298.08723
298.17336
270.85405
270.54886
269.97375
268.72582
266.14548
261.112
253.29579
251.28332
252.0205
251.95187
252.56696
252.68018
253.24295
253.52244
254.11668
254.59283
255.30431
256.02139
256.94368
257.96983
259.21033
260.64022
262.32078
264.26167
266.49126
269.00961
271.79336
274.77902
277.86948
280.94993
283.8924
286.5675
288.87736
290.78925
292.3259
293.53021
294.48343
295.2292
295.80927
296.26055
296.60718
296.89696
297.13249
297.32806
297.4739
297.63966
297.87896
298.03339
298.08788
298.174
270.92855
270.6686
270.1008
268.82361
266.13559
260.82917
253.20832
251.51147
252.25391
252.18355
252.81031
252.92735
253.50096
253.78977
254.39551
254.8869
255.61352
256.35286
257.29731
258.35414
259.62646
261.09611
262.81846
264.80592
267.08089
269.63913
272.44559
275.42413
278.46735
281.46062
284.29146
286.85619
289.07596
290.92265
292.41493
293.58962
294.52344
295.25669
295.82865
296.2745
296.61773
296.90594
297.13998
297.33237
297.47692
297.6548
297.8977
298.04403
298.11906
298.16384
271.02402
270.80763
270.24634
268.93853
266.13798
260.52
253.16483
251.75947
252.50277
252.43071
253.06802
253.18918
253.77274
254.07138
254.68823
255.19566
255.9376
256.70011
257.66726
258.75549
260.06016
261.57007
263.3348
265.36933
267.69017
270.28852
273.11784
276.09068
279.09119
282.00555
284.73334
287.19122
289.31797
291.09302
292.53385
293.67158
294.58
295.29636
295.85705
296.29519
296.6335
296.91904
297.15051
297.33847
297.48194
297.67052
297.90712
298.0568
298.13058
298.16015
271.12544
270.94836
270.3947
269.05587
266.14198
260.18004
253.16452
251.99998
252.76285
252.68981
253.33746
253.46339
254.05689
254.36626
254.99472
255.51945
256.27765
257.06473
258.05581
259.1769
260.51561
262.06772
263.87713
265.96107
268.33001
270.96974
273.82181
276.78773
279.7446
282.58044
285.20617
287.55669
289.58722
291.28558
292.66966
293.76619
294.64583
295.34263
295.89003
296.3191
296.65143
296.93356
297.16173
297.34467
297.48743
297.68675
297.92192
298.0694
298.14409
298.15682
271.24497
271.10655
270.55665
269.18221
266.15219
259.81709
253.21105
252.26116
253.03489
252.96126
253.61871
253.75022
254.35367
254.67491
255.31545
255.85866
256.63382
257.44659
258.46268
259.61792
260.99216
262.58815
264.4442
266.57936
268.99786
271.6792
274.55275
277.50972
280.42184
283.18011
285.70607
287.95046
289.88338
291.5016
292.82468
293.8757
294.72286
295.3972
295.92909
296.34751
296.67272
296.95059
297.17456
297.35159
297.4941
297.70407
297.93597
298.08207
298.15509
298.15445
271.36978
271.26956
270.72151
269.30743
266.15931
259.43293
253.30016
252.53015
253.31641
253.24343
253.9109
254.04924
254.663
254.99734
255.65042
256.21323
257.00609
257.84577
258.88802
260.07886
261.49049
263.13248
265.0376
267.22617
269.69586
272.4188
275.31181
278.25641
281.12068
283.79992
286.22631
288.36498
290.19946
291.73529
292.99439
293.99689
294.80884
295.45844
295.97305
296.37954
296.69664
296.96953
297.18855
297.35898
297.50182
297.72288
297.95147
298.09436
298.16414
298.15223
271.50422
271.44173
270.89414
269.43391
266.16124
259.03818
253.43232
252.81178
253.60901
253.53762
254.21492
254.36117
254.98531
255.33373
255.99958
256.58294
257.39421
258.26194
259.3316
260.55959
262.01059
263.70074
265.6573
267.90132
270.4234
273.18717
276.09671
279.02475
281.83749
284.43585
286.76267
288.79625
290.53214
291.98427
293.1773
294.12885
294.90325
295.5261
296.02181
296.41518
296.7233
296.9905
297.20377
297.3672
297.51102
297.74342
297.96738
298.10609
298.17118
298.15033
271.64441
271.6191
271.07202
269.55945
266.15137
258.63997
253.60513
253.1045
253.91247
253.84383
254.53081
254.68594
255.32039
255.68371
256.36257
256.96749
257.79798
258.69501
259.79339
261.06017
262.55277
264.29338
266.30389
268.60536
271.18077
273.98397
276.90623
279.81259
282.5692
285.08395
287.31053
289.23944
290.87701
292.24495
293.3707
294.26965
295.00476
295.59926
296.07476
296.45402
296.75239
297.01325
297.21997
297.37628
297.52214
297.76587
297.9839
298.11702
298.17641
298.14859
271.79616
271.81279
271.26109
269.68749
266.12734
258.25311
253.81722
253.40919
254.22727
254.1623
254.85854
255.02326
255.66779
256.04682
256.73906
257.36665
258.21726
259.1448
260.27342
261.5809
263.11749
264.91094
266.97783
269.33855
271.96767
274.80805
277.73833
280.61719
283.31262
285.74069
287.86617
289.69088
291.23075
292.51461
293.57256
294.41783
295.11236
295.67725
296.13145
296.49577
296.78377
297.03766
297.2371
297.38626
297.53574
297.78992
298.00049
298.12674
298.18029
298.14697
271.95417
272.01534
271.45789
269.81528
266.08004
257.88782
254.06187
253.72511
254.55266
254.4923
255.19734
255.37233
256.02686
256.42268
257.12889
257.78033
258.65198
259.61132
260.77185
262.12209
263.7052
265.5539
267.67963
270.1012
272.7839
275.65835
278.59104
281.4359
284.06464
286.40267
288.42599
290.14697
291.59005
292.79047
293.7807
294.5718
295.2249
295.75928
296.19135
296.54007
296.8172
297.0635
297.25499
297.39751
297.55223
297.81485
298.01655
298.13533
298.18328
298.14545
272.11879
272.2244
271.66085
269.94239
265.99997
257.55619
254.33895
254.05257
254.88823
254.83294
255.5463
255.73259
256.39741
256.81131
257.53212
258.20845
259.10205
260.09463
261.28912
262.68438
264.31665
266.22299
268.40992
270.89362
273.62901
276.53345
279.46209
282.26592
284.82222
287.06678
288.98688
290.60467
291.95216
293.07019
293.99326
294.73013
295.34136
295.8446
296.25395
296.58659
296.85244
297.09053
297.27336
297.41032
297.57226
297.8399
298.03174
298.14288
298.18567
298.14404
272.29225
272.44135
271.87392
270.07234
265.8823
257.2761
254.65156
254.38868
255.23203
255.18307
255.9051
256.10421
256.77978
257.21284
257.94863
258.65083
259.56751
260.59508
261.82574
263.26835
264.95241
266.91883
269.16928
271.71606
274.50245
277.43183
280.34913
283.10441
285.58235
287.73
289.54588
291.06118
292.31447
293.35155
294.20844
294.89145
295.46069
295.93249
296.31873
296.63497
296.88923
297.11851
297.292
297.42447
297.59633
297.86443
298.04592
298.14951
298.18741
298.14271
272.47097
272.6615
272.08794
270.2001
265.71836
257.03772
254.9885
254.73363
255.58508
255.54404
256.27477
256.48783
257.1741
257.62704
258.37818
259.10734
260.04867
261.11321
262.38249
263.87478
265.61332
267.64225
269.95839
272.56865
275.40342
278.35162
281.24953
283.94843
286.34211
288.38958
290.10041
291.51407
292.67478
293.63263
294.42469
295.05452
295.58196
296.02223
296.38521
296.6849
296.92734
297.1472
297.31077
297.44006
297.62441
297.88804
298.05911
298.15532
298.18862
298.14142
272.65803
272.88867
272.30806
270.33144
265.50946
256.85314
255.35859
255.08987
255.94893
255.91664
256.65545
256.88305
257.57979
258.05343
258.82056
259.57832
260.54613
261.64975
262.96004
264.50433
266.30009
268.39402
270.77789
273.45143
276.33095
279.29081
282.1606
284.79505
287.09866
289.0429
290.64806
291.96111
293.03108
293.91169
294.64055
295.21816
295.70425
296.11314
296.45291
296.73606
296.96651
297.17634
297.32949
297.45716
297.65618
297.91049
298.07144
298.16041
298.18952
298.13999
272.85684
273.12456
272.53505
270.46913
265.25726
256.72383
255.73143
255.45639
256.32243
256.29973
257.04607
257.28892
257.99627
258.49181
259.27615
260.06435
261.06071
262.20548
263.55919
265.15788
267.01369
269.1751
271.62839
274.36421
277.28366
280.24702
283.0794
285.64127
287.84924
289.68754
291.18672
292.40039
293.38166
294.18725
294.85477
295.38136
295.82675
296.20462
296.52138
296.78815
297.00651
297.20575
297.34818
297.47558
297.69
297.93247
298.083
298.16481
298.19016
298.13835
273.06303
273.364
272.76231
270.60613
264.96
256.65297
256.09227
255.83227
256.70421
256.69207
257.44582
257.70509
258.42359
258.94272
259.74574
260.56639
261.59324
262.78105
264.18059
265.8362
267.75502
269.9864
272.51044
275.30665
278.26001
281.21773
284.00296
286.48417
288.59125
290.32124
291.71441
292.83019
293.72499
294.45798
295.06625
295.54318
295.94869
296.29606
296.5902
296.8409
297.04713
297.23526
297.36697
297.49556
297.72488
297.95395
298.09385
298.16863
298.1903
298.13652
273.28183
273.60908
272.98958
270.7415
264.62394
256.64327
256.47095
256.21651
257.09382
257.09334
257.85476
258.13197
258.86257
259.40709
260.23037
261.0852
262.14439
263.37711
264.82512
266.54036
268.52526
270.82892
273.42445
276.27799
279.258
282.20004
284.9281
287.32079
289.32217
290.94196
292.22944
293.24904
294.05979
294.72279
295.27403
295.7028
296.0694
296.38695
296.65898
296.89402
297.08813
297.26472
297.38612
297.51753
297.76004
297.97468
298.10395
298.17195
298.19004
298.13457
273.50669
273.8534
273.20723
270.86468
264.25457
256.69477
256.85385
256.60845
257.49161
257.50435
258.27385
258.57067
259.31427
259.88598
260.73081
261.62142
262.71464
263.99427
265.49364
267.27141
269.32548
271.70362
274.37067
277.27733
280.27544
283.191
285.85171
288.14832
290.03963
291.54776
292.73027
293.65566
294.38497
294.98074
295.47728
295.8595
296.18827
296.47681
296.72738
296.94725
297.12926
297.29401
297.40604
297.54214
297.79475
297.99437
298.11322
298.17484
298.18955
298.13253
273.74151
274.10209
273.4179
270.97228
263.86635
256.81504
257.24817
257.0099
257.89904
257.92638
258.70425
259.02228
259.77971
260.38007
261.2476
262.17529
263.30449
264.6334
266.18735
268.03065
270.15696
272.6114
275.34904
278.30317
281.30958
284.18726
286.77053
288.96396
290.74141
292.13694
293.21557
294.049
294.69964
295.23107
295.67535
296.01266
296.30476
296.56521
296.79508
297.00032
297.17028
297.32298
297.42717
297.57037
297.82824
298.01277
298.12158
298.17728
298.18896
298.13039
273.98809
274.35727
273.62232
271.05657
263.47395
257.00121
257.65269
257.42115
258.31669
258.36013
259.1468
259.48761
260.25942
260.88966
261.78089
262.74719
263.91465
265.29552
266.9075
268.81938
271.02093
273.55309
276.35932
279.35383
282.35758
285.18553
287.68143
289.76505
291.42541
292.70795
293.68419
294.42817
295.00307
295.47314
295.86764
296.16175
296.41839
296.65178
296.8618
297.05299
297.21087
297.35145
297.44986
297.60322
297.85962
298.02976
298.12904
298.1792
298.18799
298.1282
274.24769
274.62091
273.82081
271.10639
263.09235
257.2507
258.06919
257.84445
258.74588
258.80659
259.60215
259.96693
260.7535
261.41468
262.33086
263.33759
264.54611
265.98201
267.65552
269.63904
271.91864
274.52926
277.4007
280.427
283.41606
286.18217
288.58113
290.54895
292.08972
293.25944
294.1352
294.79249
295.29472
295.70648
296.0537
296.30635
296.52877
296.73621
296.92732
297.10502
297.25076
297.37926
297.47418
297.64082
297.88846
298.04535
298.13566
298.18067
298.18678
298.12601
274.52566
274.90075
274.01876
271.11313
262.74258
257.55411
258.49852
258.2796
259.18793
259.26622
260.07026
260.45991
261.26165
261.95515
262.89794
263.94748
265.20023
266.69428
268.43284
270.49102
272.85131
275.54036
278.47221
281.52013
284.4816
287.17364
289.46649
291.31319
292.73257
293.79033
294.56789
295.1414
295.57416
295.93068
296.23318
296.44611
296.63556
296.81823
296.99144
297.15621
297.28967
297.40629
297.49995
297.68153
297.91552
298.05969
298.14147
298.18178
298.18541
298.12384
274.81302
275.1895
274.21228
271.06009
262.43778
257.86022
258.94019
258.72509
259.64076
259.7382
260.55047
260.96626
261.78387
262.51149
263.4831
264.57816
265.87854
267.43389
269.24098
271.3768
273.82
276.58639
279.57208
282.62999
285.55024
288.15608
290.33423
292.05531
293.35243
294.2998
294.9818
295.47449
295.84109
296.14549
296.40587
296.58075
296.73855
296.89762
297.054
297.20638
297.32742
297.43258
297.527
297.72354
297.94136
298.07281
298.14641
298.18252
298.18388
298.12172
275.11346
275.49447
274.41005
270.94212
262.19538
258.26485
259.39069
259.17952
260.10274
260.22105
261.04256
261.48616
262.32082
263.08471
264.08776
265.23123
266.58261
268.20229
270.0814
272.29785
274.82582
277.66716
280.69839
283.75323
286.61807
289.12575
291.18126
292.77319
293.94813
294.78729
295.37664
295.79146
296.09526
296.35074
296.57167
296.71003
296.83751
296.97418
297.11484
297.25538
297.36394
297.45841
297.55546
297.76558
297.96589
298.08472
298.15046
298.1828
298.18215
298.11966
275.42262
275.81
274.61103
270.74687
262.01835
258.68168
259.85018
259.64399
260.57625
260.71583
261.54662
262.02029
262.87363
263.67632
264.71352
265.90824
267.31396
269.00101
270.95571
273.25571
275.86948
278.78175
281.84829
284.88576
287.68063
290.07864
292.00456
293.4651
294.51894
295.25243
295.75218
296.09216
296.33654
296.54652
296.73059
296.83373
296.93226
297.04781
297.17386
297.30307
297.39924
297.48422
297.58591
297.80646
297.98875
298.09539
298.15373
298.18259
298.18026
298.11767
275.73881
276.13713
274.82102
270.47514
261.92143
259.15627
260.32147
260.12056
261.06196
261.22454
262.06379
262.56964
263.4438
264.28798
265.36199
266.61065
268.07401
269.83154
271.86555
274.25193
276.9516
279.92897
283.01873
286.02337
288.73358
291.01106
292.80173
294.13011
295.0646
295.69484
296.10799
296.37665
296.56491
296.73313
296.8826
296.95166
297.02251
297.11843
297.23095
297.34931
297.43337
297.51056
297.61928
297.84505
298.00959
298.10487
298.15648
298.18209
298.17828
298.11573
276.06924
276.48188
275.04489
270.13034
261.9074
259.58755
260.80316
260.60846
261.55958
261.74718
262.59607
263.13609
264.03303
264.92117
266.03455
267.33977
268.86425
270.69561
272.81277
275.28796
278.07217
281.10668
284.20568
287.16113
289.7722
291.91944
293.57111
294.76809
295.58509
296.11396
296.44339
296.64525
296.78073
296.911
297.02752
297.06378
297.10797
297.18607
297.28603
297.39391
297.46633
297.5379
297.65661
297.88017
298.02827
298.11319
298.15878
298.18139
298.1762
298.11381
276.40002
276.83046
275.27283
269.71547
261.97674
260.05306
261.2943
261.10793
262.06994
262.28458
263.14576
263.72206
264.64273
265.57702
266.73233
268.09697
269.68628
271.59509
273.79932
276.36517
279.2309
282.31242
285.40489
288.29419
290.79215
292.80107
294.31225
295.37933
296.07992
296.50899
296.75775
296.89832
296.98474
297.08037
297.16486
297.17027
297.18843
297.25072
297.33903
297.43671
297.49795
297.56643
297.69809
297.91133
298.04487
298.12033
298.16046
298.18045
298.17396
298.1119
276.73999
277.19025
275.50648
269.24897
262.13362
260.52993
261.79801
261.6225
262.59593
262.83845
263.71221
264.32807
265.274
266.25647
267.45663
268.88371
270.54203
272.53211
274.8272
277.48446
280.42657
283.54252
286.61123
289.41714
291.7892
293.65407
295.02541
295.9632
296.54732
296.87918
297.05155
297.13601
297.17809
297.24081
297.29422
297.27146
297.26428
297.31232
297.38991
297.47759
297.52811
297.59595
297.74145
297.93975
298.05982
298.12643
298.16145
298.17889
298.17151
298.10997
277.09192
277.56234
275.73965
268.7399
262.37182
261.02846
262.31673
262.15336
263.13795
263.4088
264.29662
264.95412
265.92768
266.96085
268.20882
269.70179
271.43365
273.50904
275.89838
278.64651
281.65749
284.79308
287.81945
290.52497
292.76002
294.47795
295.71046
296.51673
296.98545
297.22452
297.32651
297.35813
297.36164
297.39104
297.41588
297.36735
297.33668
297.37065
297.43866
297.51654
297.55689
297.62616
297.78466
297.9662
298.07343
298.13173
298.16192
298.17683
298.16883
298.10801
277.45877
277.94868
275.96629
268.22319
262.65098
261.54425
262.84931
262.69943
263.69501
263.99703
264.90088
265.60051
266.6047
267.69146
268.99074
270.55334
272.36364
274.52833
277.01456
279.85108
282.92079
286.05891
289.02356
291.61259
293.70212
295.27283
296.36456
297.03706
297.39284
297.546
297.5849
297.56476
297.53484
297.53137
297.53027
297.45718
297.40713
297.42545
297.48527
297.55366
297.58477
297.65692
297.82639
297.99071
298.08583
298.13643
298.16198
298.17446
298.1659
298.10597
277.83194
278.34336
276.16945
267.71332
263.03789
262.07282
263.39382
263.26064
264.26827
264.60411
265.52568
266.27012
267.30619
268.44985
269.80454
271.44086
273.33465
275.59248
278.17722
281.09751
284.21304
287.3347
290.21784
292.67586
294.61444
296.0381
296.98314
297.52177
297.76968
297.84668
297.82773
297.75766
297.69629
297.66461
297.63725
297.53987
297.47574
297.47681
297.52972
297.58902
297.61238
297.68854
297.86542
298.01273
298.09678
298.14052
298.16169
298.17177
298.1627
298.1038
278.2076
278.7456
276.33529
267.23647
263.4777
262.61726
263.95342
263.83972
264.86017
265.23194
266.17297
266.96416
268.03351
269.23775
270.65287
272.36719
274.34951
276.70382
279.38708
282.38384
285.52943
288.61399
291.39623
293.71122
295.4966
296.76937
297.56268
297.96935
298.12025
298.13027
298.0532
297.93902
297.84633
297.78927
297.7369
297.61701
297.54121
297.5254
297.57193
297.62268
297.64003
297.72166
297.90076
298.03175
298.10584
298.14388
298.16155
298.16917
298.15921
298.10134
278.58642
279.14894
276.45463
266.83641
263.98744
263.17979
264.52992
264.43809
265.47137
265.88157
266.84317
267.68332
268.78947
270.0577
271.53872
273.33535
275.41105
277.86452
280.64442
283.70752
286.86474
289.89045
292.55359
294.71662
296.34786
297.46094
298.10015
298.38183
298.45115
298.39339
298.26278
298.10823
297.98591
297.90643
297.82998
297.68892
297.60195
297.57229
297.61174
297.65465
297.66765
297.75705
297.93162
298.04773
298.11296
298.14612
298.1612
298.16719
298.15542
298.09842
278.96928
279.56835
276.51659
266.53633
264.53145
263.76012
265.12348
265.05651
266.10237
266.55378
267.53708
268.42854
269.57724
270.91283
272.46527
274.34848
276.52204
279.07622
281.94838
285.06444
288.21237
291.15711
293.68515
295.69076
297.16354
298.10806
298.59471
298.76709
298.76005
298.63743
298.45682
298.26562
298.11595
298.01617
297.91713
297.75637
297.65732
297.6179
297.64894
297.68506
297.69513
297.79469
297.95763
298.06111
298.11855
298.14763
298.16063
298.1658
298.15175
298.09484
279.3492
279.99883
276.5098
266.31193
265.07964
264.35901
265.73511
265.69587
266.75437
267.24939
268.25637
269.20319
270.39886
271.80648
273.43586
275.40969
277.68508
280.34014
283.29745
286.44982
289.56565
292.40775
294.7876
296.63287
297.9367
298.70743
299.04967
299.13008
299.04572
298.86278
298.63622
298.41132
298.2373
298.11894
297.99831
297.81876
297.70895
297.66198
297.68335
297.71409
297.72206
297.83166
297.98081
298.07262
298.1231
298.14856
298.15987
298.16455
298.14795
298.09108
279.72335
280.44015
276.43876
266.18696
265.66431
264.97604
266.36539
266.3568
267.42836
267.97011
269.00375
270.01035
271.25813
272.74198
274.45383
276.52213
278.90241
281.65663
284.6884
287.85735
290.91681
293.63638
295.8583
297.53922
298.66069
299.2577
299.47428
299.46757
299.30937
299.07049
298.80169
298.54613
298.35039
298.21501
298.07355
297.8764
297.75728
297.70452
297.71505
297.7417
297.74968
297.86685
298.00182
298.08288
298.12685
298.14897
298.15888
298.16298
298.14384
298.08734
280.08734
280.8923
276.31102
266.16067
266.27056
265.61235
267.01482
267.04064
268.12578
268.71934
269.78335
270.85401
272.15861
273.72249
275.52246
277.68883
280.17601
283.02518
286.1173
289.28017
292.2587
294.8383
296.89589
298.40171
299.33196
299.76225
299.87344
299.77859
299.55181
299.26144
298.95403
298.67069
298.45576
298.30471
298.14302
297.92972
297.80249
297.74491
297.7446
297.76788
297.77611
297.89955
298.02085
298.09219
298.13005
298.14888
298.15729
298.16109
298.13943
298.08362
280.43851
281.35163
276.13971
266.254
266.90256
266.26897
267.68441
267.74989
268.84999
269.50153
270.59961
271.73768
273.10371
274.75135
276.6451
278.91275
281.50715
284.44385
287.57833
290.7101
293.5839
296.00934
297.8977
299.21187
299.94808
300.23099
300.24407
300.06443
299.7742
299.43663
299.09403
298.78568
298.55384
298.38839
298.20725
297.97937
297.84451
297.78196
297.77287
297.79265
297.80277
297.92947
298.03762
298.10037
298.13295
298.14856
298.15502
298.15884
298.13476
298.07996
280.7784
281.80585
275.93191
266.46373
267.56153
266.94829
268.37792
268.4893
269.60667
270.32049
271.45586
272.66414
274.09699
275.83226
277.82501
280.19663
282.89644
285.90969
289.06486
292.13911
294.88626
297.14666
298.85605
299.96478
300.51091
300.67119
300.58445
300.32616
299.97766
299.597
299.22249
298.89175
298.64512
298.46642
298.2668
298.02579
297.88351
297.81481
297.80018
297.81638
297.82756
297.95649
298.05197
298.10702
298.13516
298.14823
298.15298
298.15574
298.13001
298.07633
281.11172
282.24647
275.71411
266.7968
268.24931
267.65692
269.10174
269.26452
270.40004
271.17869
272.35423
273.63602
275.14268
276.96909
279.06547
281.54274
284.34315
287.41778
290.56859
293.5585
296.15997
298.2474
299.76112
300.65702
301.03068
301.07966
300.8962
300.56514
300.16337
299.74354
299.34019
298.98956
298.73003
298.53923
298.32216
298.0689
297.91936
297.84453
297.82577
297.83974
297.85364
297.97997
298.0639
298.11227
298.13665
298.14769
298.15152
298.15186
298.1252
298.07273
281.44733
282.66288
275.51313
267.24485
268.97202
268.40156
269.86045
270.07806
271.23133
272.07777
273.29754
274.65743
276.24451
278.16575
280.36962
282.95271
285.84548
288.96205
292.08091
294.96063
297.40054
299.30624
300.60462
301.2882
301.51687
301.45456
301.1805
300.78271
300.33249
299.8772
299.44791
299.07971
298.80903
298.60721
298.37355
298.10852
297.95207
297.87183
297.84983
297.86304
297.88134
297.99961
298.07372
298.11607
298.13728
298.14705
298.15015
298.14761
298.1204
298.06911
281.80757
283.05021
275.36774
267.74969
269.73288
269.18449
270.65308
270.93075
272.1011
273.0201
274.28978
275.73302
277.40675
279.42609
281.74036
284.42714
287.39966
290.53438
293.59209
296.33805
298.60393
300.312
301.38258
301.86731
301.96837
301.79673
301.43896
300.98028
300.48619
299.9989
299.5464
299.1628
298.88256
298.67073
298.42099
298.14455
297.98195
297.89698
297.87286
297.88593
297.90788
298.01672
298.08197
298.11896
298.13734
298.14581
298.14848
298.14284
298.11558
298.06542
282.18986
283.38005
275.2871
268.27499
270.52401
270.00068
271.47826
271.82196
273.01433
274.01064
275.33615
276.86793
278.63282
280.75386
283.18023
285.96548
289.00042
292.12581
295.09295
297.68452
299.76609
301.25418
302.09244
302.40498
302.38318
302.10772
301.67315
301.15922
300.62559
300.10957
299.63639
299.23939
298.95104
298.73008
298.46439
298.17704
298.00939
297.92128
297.89519
297.90809
297.93357
298.03187
298.08906
298.12121
298.13701
298.14422
298.14658
298.13784
298.11073
298.06176
282.61408
283.64101
275.29139
268.996
271.34307
270.85408
272.33954
272.75906
273.97671
275.05471
276.44149
278.06527
279.92725
282.15302
284.69123
287.56533
290.64019
293.72579
296.57429
298.99394
300.877
302.12617
302.73935
302.90538
302.76057
302.38932
301.88473
301.32094
300.75182
300.21008
299.71858
299.31004
299.01484
298.7855
298.50368
298.20623
298.03457
297.94412
297.91696
297.92939
297.95848
298.04549
298.09516
298.12299
298.1365
298.14231
298.14451
298.13298
298.10588
298.05813
283.07986
283.8211
275.39146
269.76684
272.19859
271.75271
273.24556
273.74695
274.99399
276.15721
277.61041
279.32862
281.29397
283.62759
286.27421
289.22251
292.30992
295.32391
298.02822
300.26159
301.92437
302.9241
303.33501
303.36573
303.10265
302.6434
302.07537
301.46679
300.86594
300.30129
299.79365
299.37525
299.07432
298.83718
298.53884
298.2325
298.05805
297.96651
297.93814
297.94997
297.98131
298.05781
298.10037
298.12406
298.13542
298.13999
298.14221
298.12802
298.10105
298.05463
283.61001
283.93534
275.60219
270.62602
273.09797
272.70413
274.20179
274.78982
276.07034
277.32208
278.84719
280.66296
282.73834
285.18118
287.92813
290.9299
293.99842
296.909
299.44671
301.47993
302.89684
303.64836
303.88962
303.78349
303.41131
302.87187
302.24668
301.59808
300.969
300.384
299.86223
299.43552
299.12981
298.88532
298.56992
298.25627
298.08
297.98791
297.95875
297.96943
298.00327
298.069
298.10477
298.12444
298.1338
298.13717
298.13968
298.123
298.09628
298.05125
284.21301
283.9861
275.9181
271.48521
274.04087
273.71017
275.21176
275.89162
277.20997
278.55319
280.15691
282.07614
284.26615
286.81599
289.64953
292.67842
295.69397
298.4712
300.82299
302.63503
303.78999
304.31078
304.3999
304.16134
303.68874
303.07669
302.40029
301.71607
301.06196
300.45899
299.92494
299.49133
299.18167
298.9302
298.59693
298.27796
298.1009
298.00894
297.97898
297.98806
298.02398
298.07897
298.10849
298.12444
298.13185
298.13398
298.1369
298.11796
298.09162
298.04802
284.8919
283.93891
276.35014
272.43922
275.0284
274.77452
276.27897
277.05543
278.41756
279.85627
281.54882
283.57595
285.88206
288.53181
291.4317
294.4562
297.38358
300.00034
302.1496
303.71326
304.60044
304.92405
304.86358
304.50113
303.93719
303.25979
302.53774
301.822
301.1458
300.527
299.98237
299.54313
299.23029
298.97216
298.61991
298.29793
298.12093
298.02953
297.99909
298.00647
298.04254
298.08748
298.11144
298.1242
298.13005
298.13103
298.13303
298.11296
298.08709
298.04495
285.68142
283.78245
276.90262
273.45537
276.06328
275.90024
277.4078
278.28706
279.70015
281.24015
283.03307
285.16943
287.58854
290.32537
293.26535
296.25021
299.05522
301.48733
303.41431
304.70635
305.3374
305.48897
305.28166
304.80554
304.15894
303.42308
302.66054
301.91703
301.2214
300.58874
300.03507
299.59137
299.27592
299.01127
298.63918
298.31655
298.14039
298.04995
298.01909
298.02528
298.05817
298.0945
298.11367
298.12386
298.12867
298.12884
298.1286
298.10806
298.0827
298.04203
286.59786
283.57559
277.58297
274.54921
277.15199
277.09238
278.60593
279.59544
281.06899
282.71763
284.61645
286.86114
289.38527
292.19014
295.13798
298.04584
300.69663
302.92317
304.60106
305.60942
306.0141
306.00305
305.65665
305.07708
304.35624
303.5684
302.77015
302.00227
301.28962
300.64488
300.08356
299.63643
299.31863
299.04694
298.65579
298.33417
298.15946
298.07022
298.03871
298.04345
298.07152
298.10028
298.11548
298.12336
298.12719
298.12678
298.12409
298.10326
298.07846
298.03925
287.66142
283.33148
278.37596
275.71836
278.30208
278.36208
279.88604
280.99309
282.53637
284.29805
286.30505
288.6528
291.26876
294.11644
297.03543
299.82875
302.29661
304.29755
305.69673
306.42629
306.63825
306.46522
305.99148
305.31845
304.53135
303.69752
302.86792
302.07875
301.35125
300.69603
300.12836
299.67866
299.35835
299.07804
298.67132
298.35108
298.17824
298.09037
298.05815
298.06002
298.08302
298.10479
298.11636
298.12242
298.12541
298.12468
298.11925
298.09859
298.07435
298.03661
288.88638
283.07763
279.29521
276.97468
279.52663
279.72339
281.26368
282.49386
284.11341
285.98659
288.10158
290.54389
293.23244
296.09122
298.94139
301.58426
303.84347
305.59183
306.69529
307.17094
307.20634
306.87873
306.28906
305.5323
304.68641
303.81213
302.95515
302.14748
301.40707
300.74282
300.16995
299.71835
299.39516
299.10506
298.68615
298.3676
298.19679
298.11009
298.07719
298.07476
298.0929
298.10838
298.11672
298.12114
298.12332
298.12253
298.11446
298.09402
298.07036
298.03409
290.22641
282.8172
280.36629
278.33074
280.84112
281.19078
282.75437
284.10941
285.80779
287.78538
290.00655
292.5312
295.26641
298.09895
300.83919
303.29857
305.32615
306.79015
307.59538
307.85739
307.71566
307.24675
306.5526
305.7213
304.82355
303.91387
303.03309
302.20937
301.45779
300.78582
300.20877
299.75574
299.42909
299.12866
298.70068
298.38407
298.21521
298.12893
298.09507
298.08814
298.10132
298.11135
298.11675
298.11957
298.12096
298.12036
298.10978
298.08956
298.06648
298.03167
291.71381
282.6253
281.58592
279.814
282.26363
282.77533
284.36767
285.8437
287.62119
289.70033
292.02006
294.60879
297.35694
300.12124
302.71111
304.95688
306.72553
307.88341
308.4114
308.48129
308.17011
307.57271
306.78518
305.88799
304.94476
304.00425
303.10289
302.26534
301.5041
300.82557
300.24523
299.79105
299.46031
299.14948
298.71536
298.40067
298.23351
298.14681
298.1113
298.10041
298.10835
298.11372
298.1165
298.11779
298.11834
298.11813
298.10508
298.08519
298.06271
298.02935
293.35586
282.51871
282.88733
281.42547
283.8101
284.48232
286.10768
287.69822
289.56088
291.73384
294.13919
296.76592
299.48654
302.13824
304.54009
306.5453
308.02279
308.86706
309.16114
309.0395
308.57314
307.86031
306.98995
306.03485
305.05195
304.08474
303.16564
302.31618
301.54664
300.86259
300.27971
299.82446
299.48903
299.16818
298.73067
298.41734
298.25129
298.16337
298.12608
298.11194
298.11389
298.11542
298.11592
298.11604
298.11583
298.11515
298.10038
298.08089
298.05902
298.02713
295.11071
282.49652
284.32575
283.16508
285.48055
286.31325
287.97359
289.67568
291.63417
293.88861
296.35769
298.98718
301.63412
304.12876
306.30811
308.04478
309.2054
309.75533
309.8406
309.53579
308.92882
308.11318
307.1699
306.16424
305.14692
304.15669
303.22238
302.3627
301.58603
300.89737
300.31254
299.85618
299.51552
299.18537
298.74692
298.43407
298.26847
298.17857
298.13932
298.12279
298.11818
298.1166
298.11517
298.11437
298.11349
298.11147
298.0957
298.07665
298.05542
298.025
296.82424
282.74743
285.91676
285.03474
287.27832
288.27182
289.97311
291.78967
293.84089
296.1619
298.6628
301.25156
303.77569
306.07162