/*--------------------------------*- C++ -*----------------------------------*\
  =========                 |
  \\      /  F ield         | OpenFOAM: The Open Source CFD Toolbox
   \\    /   O peration     | Website:  https://openfoam.org
    \\  /    A nd           | Version:  8
     \\/     M anipulation  |
\*---------------------------------------------------------------------------*/
FoamFile
{
    version     2.0;
    format      ascii;
    class       volVectorField;
    location    "0.129988";
    object      U;
}
// * * * * * * * * * * * * * * * * * * * * * * * * * * * * * * * * * * * * * //

dimensions      [0 1 -1 0 0 0 0];

internalField   nonuniform List<vector> 
20000
(
(256.64481 0 6.9579877)
(297.53468 0 8.4788197)
(323.61439 -2.3013323e-21 9.1161778)
(345.66518 -1.2848361e-16 9.6396567)
(365.73622 5.4458951e-17 10.049657)
(383.64385 4.7706237e-17 10.355576)
(395.35718 -3.9325203e-17 10.13816)
(398.0796 3.3932201e-17 10.493516)
(396.99011 -2.7658499e-17 9.8724634)
(397.44241 2.2927374e-17 10.490229)
(396.48904 7.4757207e-20 9.5669414)
(396.47953 -1.9974376e-18 10.303226)
(395.5688 0 9.2658073)
(395.12528 -5.5557398e-18 9.9069273)
(394.08672 4.6113717e-18 8.8910461)
(393.16962 3.3759835e-18 9.2762855)
(391.80897 3.9977875e-19 8.3266389)
(390.30861 0 8.3606764)
(388.3869 -2.978611e-20 7.4288256)
(386.10206 6.4416131e-18 7.0598153)
(383.30941 -1.2378664e-17 6.0321708)
(379.92967 0 5.2320737)
(375.86792 0 3.9951461)
(370.9875 0 2.7969572)
(365.21475 2.064569e-17 1.3666448)
(358.43998 0 0.0040370831)
(350.66542 -1.5876189e-17 -1.2687478)
(341.94266 -2.7665312e-18 -2.169813)
(332.46752 1.1408777e-17 -2.5758384)
(322.53007 -1.7139009e-17 -2.4246312)
(312.60105 2.5178635e-17 -1.874788)
(303.26034 -6.7329014e-17 -1.1424151)
(294.99414 -7.359737e-17 -0.40369687)
(288.00782 0 0.25283873)
(282.28507 0 0.80442406)
(277.70491 3.3157503e-17 1.2275321)
(274.06869 -4.8436575e-17 1.5214439)
(271.19906 1.7574226e-17 1.7019518)
(268.94417 1.1277658e-16 1.7742238)
(267.17658 0 1.7693742)
(265.80511 3.1585147e-17 1.692011)
(264.70755 -2.2883967e-17 1.5526293)
(263.82538 -1.3522513e-16 1.3700692)
(263.13824 9.9706377e-17 1.1853462)
(262.65415 0 1.022524)
(262.18719 -2.1357079e-19 0.77215035)
(261.63441 -1.0231829e-17 0.44346375)
(261.18962 7.8479635e-18 0.19061499)
(261.29508 0 -0.031429538)
(260.61826 0 -0.7599814)
(256.31624 0 5.9375472)
(297.54984 9.5510036e-17 7.2924376)
(323.76822 -7.6890091e-17 7.8158465)
(345.95246 5.0868476e-19 8.2378774)
(366.13613 -5.6466161e-17 8.5648234)
(384.10027 -7.9487729e-19 8.797513)
(395.19678 3.9979952e-17 8.5122097)
(397.60528 -1.0464877e-18 8.9040482)
(396.45558 -2.814363e-17 8.2197467)
(396.92241 2.6282959e-17 8.8945919)
(395.9305 1.9557379e-17 7.8937046)
(395.92068 -1.4202309e-17 8.6876586)
(394.973 0 7.5718646)
(394.51145 5.6621093e-18 8.254561)
(393.43329 -4.7233705e-18 7.1704766)
(392.47956 -1.949889e-18 7.5731333)
(391.06981 -4.9185609e-18 6.5674249)
(389.51209 8.1680831e-18 6.5930762)
(387.52232 -4.5490657e-18 5.6112509)
(385.15402 7.6185267e-18 5.2107429)
(382.26441 6.315182e-18 4.1325805)
(378.77006 0 3.2857122)
(374.57844 3.4947163e-17 1.9980099)
(369.55554 0 0.75205401)
(363.6347 -1.171848e-17 -0.71686223)
(356.72527 -2.9891705e-17 -2.102933)
(348.85981 4.8618116e-17 -3.3702985)
(340.13961 0 -4.2292624)
(330.80336 1.1051349e-16 -4.5474393)
(321.15311 -1.744731e-17 -4.2546555)
(311.5962 0 -3.5011996)
(302.60552 1.605538e-16 -2.5157067)
(294.59891 7.2619015e-17 -1.509829)
(287.78126 -1.3904679e-17 -0.60890437)
(282.16197 -2.1904454e-17 0.1481236)
(277.64017 -1.695036e-17 0.73498142)
(274.03751 2.5066914e-17 1.1545793)
(271.18824 1.5183e-16 1.430321)
(268.94487 -1.134063e-16 1.5737933)
(267.184 1.8962426e-16 1.6226252)
(265.81454 1.566272e-17 1.5848368)
(264.71686 -2.2932121e-17 1.4736469)
(263.83339 4.0594911e-16 1.3127124)
(263.14809 -1.2453377e-16 1.1461422)
(262.6637 1.8348666e-17 0.99463092)
(262.17109 -2.1763008e-16 0.74374292)
(261.53483 0 0.41913845)
(261.21003 -1.5298822e-17 0.18338353)
(261.13189 -1.697747e-16 -0.039375067)
(260.69398 -7.7430966e-17 -0.74225106)
(255.7979 -1.3807514e-16 4.9063046)
(297.31522 9.7453729e-17 6.0855396)
(323.76425 -1.2288638e-18 6.5179926)
(346.1481 -1.0420465e-18 6.8526432)
(366.4847 8.9204133e-19 7.0940185)
(384.53991 -4.7283028e-17 7.2423514)
(394.97542 8.1558674e-17 6.8762063)
(397.08596 -3.4167695e-17 7.2993542)
(395.89094 1.7932049e-17 6.550543)
(396.37056 -1.4876572e-17 7.2796821)
(395.34094 0 6.2012534)
(395.32822 0 7.0466964)
(394.34473 -6.9297873e-18 5.8571026)
(393.8635 -1.1523974e-17 6.5745155)
(392.74701 1.4428843e-17 5.4287596)
(391.75583 0 5.8417795)
(390.29766 0 4.7853361)
(388.68142 -2.7839997e-17 4.7960539)
(386.62317 -1.3976155e-17 3.7673831)
(384.16945 -3.095423e-17 3.3307137)
(381.18167 0 2.2041302)
(377.56963 0 1.30879)
(373.24504 -3.5415429e-17 -0.026814436)
(368.07335 0 -1.3175767)
(361.99644 -4.9104569e-17 -2.8170804)
(354.93971 0 -4.2132818)
(346.9666 6.7005324e-17 -5.453668)
(338.22253 0 -6.2427795)
(328.98572 -8.9112922e-17 -6.4456407)
(319.57154 0 -5.9953159)
(310.3454 0 -5.0416418)
(301.69678 -9.264174e-17 -3.8217571)
(293.97438 -1.8464742e-17 -2.5709947)
(287.36363 1.4065617e-17 -1.4431605)
(281.88583 0 -0.49211007)
(277.46032 0 0.25142895)
(273.92158 0 0.79229266)
(271.11419 -4.5844244e-16 1.1603922)
(268.8977 2.8575372e-17 1.3733451)
(267.15496 -1.9030618e-16 1.4746176)
(265.79475 -2.8134753e-16 1.4754906)
(264.70174 2.2973213e-17 1.3920575)
(263.82153 -2.7071931e-16 1.2532454)
(263.14518 0 1.1057187)
(262.66181 2.9295085e-16 0.96289677)
(262.13203 2.1644658e-16 0.71058049)
(261.50743 0 0.39335902)
(261.19086 0 0.17403086)
(261.08154 1.7268603e-16 -0.047507908)
(260.71906 7.8449425e-17 -0.7300531)
(255.32284 1.4094121e-16 3.8816437)
(297.13767 -1.9897035e-16 4.8610499)
(323.80112 1.6286193e-16 5.1910942)
(346.36688 -6.6916738e-17 5.4351306)
(366.83431 -2.9198034e-17 5.5867098)
(384.96433 4.8179399e-17 5.6492602)
(394.68326 -2.0769938e-17 5.2116755)
(396.53196 1.7445398e-17 5.669945)
(395.28999 -1.823371e-17 4.8536121)
(395.78085 -6.0829309e-18 5.6410209)
(394.7124 0 4.4839399)
(394.69616 0 5.3845781)
(393.6761 -5.4215923e-20 4.1202867)
(393.17464 -5.884582e-18 4.8747144)
(392.01885 -9.7782725e-18 3.6669119)
(390.98882 -4.0958599e-18 4.090756)
(389.48021 1.7032912e-17 2.9834349)
(387.8028 3.4053103e-17 2.9788051)
(385.673 1.8851712e-17 1.9039368)
(383.13039 7.0883767e-17 1.4314105)
(380.04065 -6.4949197e-18 0.25839998)
(376.30643 0 -0.68328655)
(371.84375 -9.1672929e-18 -2.0627532)
(366.51708 -6.824816e-17 -3.3927995)
(360.27757 -3.82301e-17 -4.9141394)
(353.06707 -1.038587e-16 -6.3074587)
(344.9812 -5.106125e-17 -7.5028968)
(336.20742 0 -8.2013357)
(327.0598 -2.3148662e-17 -8.2700227)
(317.86467 1.8066575e-17 -7.6517801)
(308.95392 0 -6.5010163)
(300.64663 0 -5.0617019)
(293.22553 -2.77794e-16 -3.5852244)
(286.84762 2.1642988e-16 -2.2470977)
(281.53711 0 -1.1138378)
(277.22827 -2.7100109e-16 -0.22120674)
(273.76881 0 0.43630597)
(271.01465 6.1500816e-16 0.89404275)
(268.83337 -4.5850181e-16 1.1749138)
(267.11412 3.3982231e-16 1.3276759)
(265.76736 -2.1938855e-16 1.3666936)
(264.68186 -4.1490842e-16 1.3108785)
(263.80742 3.3832374e-17 1.1945174)
(263.14151 -1.2402404e-17 1.0665834)
(262.65829 -2.9193817e-16 0.93010984)
(262.09475 0 0.67724901)
(261.48091 0 0.36828767)
(261.1635 1.4944833e-17 0.16355505)
(261.01108 -1.1319859e-17 -0.054076576)
(260.743 0 -0.71195886)
(254.85418 7.3045414e-17 2.8048625)
(296.9559 -5.2342515e-17 3.6468614)
(323.83486 4.2729934e-21 3.8470896)
(346.58524 0 3.9988905)
(367.17513 1.8652735e-18 4.0579989)
(385.3629 2.5353879e-17 4.0327841)
(394.31487 -2.1169546e-17 3.528388)
(395.9344 0 4.0222834)
(394.64845 7.4479649e-18 3.1364159)
(395.15 -3.1003155e-18 3.9831944)
(394.04321 1.2863357e-18 2.7467533)
(394.02274 9.6965001e-18 3.7035826)
(392.96608 1.0769651e-17 2.3649179)
(392.44295 -3.0332368e-18 3.1554922)
(391.24665 0 1.8864507)
(390.17511 -2.5027234e-17 2.3189917)
(388.61354 -3.4748085e-17 1.1619168)
(386.87139 -5.7860607e-17 1.1400033)
(384.66643 -2.9061642e-17 0.020526827)
(382.03065 8.2664509e-18 -0.48844843)
(378.83418 6.0459151e-17 -1.7056483)
(374.97217 3.3614961e-17 -2.6923669)
(370.36474 0 -4.1119159)
(364.87573 6.1143556e-17 -5.4762477)
(358.46613 8.842887e-17 -7.0106811)
(351.0959 9.4123068e-17 -8.3878572)
(342.89409 -1.3936538e-16 -9.5199113)
(334.0886 0 -10.106576)
(325.02493 -2.3554325e-17 -10.021925)
(316.03697 1.8380274e-17 -9.2242831)
(307.42818 1.5220242e-17 -7.8769567)
(299.45841 -1.7879811e-16 -6.2300753)
(292.34947 2.8068937e-16 -4.5452778)
(286.22457 -2.0329674e-16 -3.0135122)
(281.10356 3.1395062e-16 -1.7109096)
(276.93194 2.8988681e-16 -0.67815299)
(273.56853 0 0.090015463)
(270.88032 -3.0923166e-16 0.63351346)
(268.74379 4.8937282e-16 0.97987639)
(267.05478 -3.4085549e-16 1.1825265)
(265.7264 -1.5775693e-17 1.2586746)
(264.6519 3.6917316e-16 1.2300113)
(263.78652 -1.693192e-17 1.136125)
(263.13418 -1.2426157e-17 1.0279677)
(262.65048 1.816251e-17 0.89582351)
(262.05723 0 0.64309852)
(261.45464 0 0.34329399)
(261.13175 -4.8708958e-16 0.15221842)
(260.96556 1.1132906e-17 -0.059512332)
(260.75694 -2.136528e-18 -0.69427653)
(254.40377 -1.1445428e-18 1.6309604)
(296.78184 2.7518854e-17 2.4414135)
(323.8746 -2.4802008e-17 2.4775543)
(346.80988 -2.2187284e-18 2.5335713)
(367.51187 -1.8970735e-18 2.4958221)
(385.72896 3.2325583e-18 2.3831135)
(393.87138 0 1.8202677)
(395.29738 0 2.3538809)
(393.969 0 1.3992573)
(394.48033 0 2.307458)
(393.33523 0 0.99088126)
(393.30924 -4.3560278e-18 2.004652)
(392.21502 3.6513096e-18 0.59128069)
(391.66795 2.4388547e-17 1.4166854)
(390.42903 0 0.086796213)
(389.3128 1.691559e-17 0.52613302)
(387.69522 4.9447169e-17 -0.67943905)
(385.88446 4.1198811e-17 -0.72005223)
(383.60021 2.9404509e-17 -1.8823065)
(380.86644 1.9704754e-19 -2.4279231)
(377.55749 -5.4295026e-17 -3.6869867)
(373.56093 -1.2469728e-16 -4.7171245)
(368.80075 -8.4967398e-17 -6.1727143)
(363.14102 0 -7.5657632)
(356.55343 -1.0424823e-16 -9.1038251)
(349.01864 -1.7245182e-16 -10.450753)
(340.70096 1.4075443e-16 -11.500695)
(331.86773 0 -11.955244)
(322.8913 2.3963258e-17 -11.699683)
(314.10884 6.3009777e-19 -10.712364)
(305.7967 -1.4986125e-17 -9.1686518)
(298.16272 1.928632e-16 -7.3244214)
(291.37319 0 -5.4471902)
(285.51578 0 -3.7379869)
(280.60121 -3.6133979e-16 -2.2793491)
(276.58263 0 -1.1162094)
(273.32861 -2.605768e-17 -0.24412759)
(270.71691 -6.0291299e-16 0.38063369)
(268.63321 0 0.7895661)
(266.98015 -6.6290641e-16 1.0401534)
(265.67448 1.0230921e-15 1.1521819)
(264.61408 -2.3050441e-17 1.1500548)
(263.76075 0 1.0783378)
(263.12456 -7.914801e-16 0.98917745)
(262.63944 0 0.86035506)
(262.01815 -4.3873971e-16 0.60825452)
(261.42279 -6.1800345e-16 0.31858298)
(261.0994 9.3308872e-16 0.14042981)
(260.92529 -3.5607077e-16 -0.063946646)
(260.76717 2.7191198e-16 -0.67453035)
(253.96447 3.1993353e-21 0.49887796)
(296.61389 -1.3207578e-17 1.2060238)
(323.92094 -1.0670927e-17 1.0834856)
(347.04291 6.7726071e-18 1.0481531)
(367.84905 -3.4944855e-21 0.90955191)
(386.05454 4.0367891e-21 0.70977278)
(393.3547 0 0.095250027)
(394.6234 0 0.67052866)
(393.2537 1.1597679e-17 -0.35403536)
(393.77332 3.221671e-18 0.61621059)
(392.58932 -5.3538857e-18 -0.7826893)
(392.55576 -8.9107614e-18 0.28741093)
(391.42246 -7.471422e-18 -1.2013101)
(390.84873 2.5276756e-20 -0.34286186)
(389.56499 1.5607945e-17 -1.7326748)
(388.40092 0 -1.2883469)
(386.72442 -2.8730358e-17 -2.5406245)
(384.84121 6.021176e-17 -2.6013375)
(382.47349 -9.9372664e-18 -3.8043043)
(379.63666 -3.3230002e-17 -4.3867256)
(376.20901 0 -5.6852965)
(372.07046 1.8482779e-16 -6.7571875)
(367.14898 7.6540943e-17 -8.2445439)
(361.30975 0 -9.66023)
(354.53652 1.0534481e-16 -11.19162)
(346.83368 -1.6850439e-18 -12.49318)
(338.40284 1.8321677e-17 -13.441733)
(329.54942 -1.4461911e-17 -13.744235)
(320.66783 0 -13.301411)
(312.09371 0 -12.115236)
(304.07623 1.5661048e-17 -10.375298)
(296.77659 -1.2065292e-17 -8.3427959)
(290.31081 0 -6.2877581)
(284.73105 -4.7620767e-16 -4.4167519)
(280.03596 0 -2.8155282)
(276.18371 -1.7412306e-17 -1.5322936)
(273.05083 1.2991448e-17 -0.56371216)
(270.5252 6.0550195e-16 0.13719544)
(268.50181 4.35611e-17 0.60526932)
(266.89015 6.6469168e-16 0.90146)
(265.61126 -5.0442137e-16 1.0478342)
(264.568 0 1.0714577)
(263.72976 0 1.0214099)
(263.11212 -6.7823414e-20 0.94944478)
(262.62442 0 0.82383019)
(261.97548 4.2260741e-16 0.57285074)
(261.38832 -1.1230332e-19 0.29418882)
(261.06714 -9.3598702e-16 0.12860973)
(260.89523 3.501042e-16 -0.067465732)
(260.77485 -2.5764137e-16 -0.65420724)
(253.53409 4.7756981e-18 -0.66270634)
(296.45584 6.7385777e-18 -0.039223869)
(323.97685 -5.4469865e-18 -0.32957483)
(347.28734 0 -0.46121047)
(368.19256 3.9639688e-18 -0.70555031)
(386.33051 0 -0.9887503)
(392.76679 -5.615866e-18 -1.6484414)
(393.91389 0 -1.0303684)
(392.50313 -2.3587011e-17 -2.1270079)
(393.0289 6.5258213e-18 -1.0938228)
(391.80497 1.0938553e-17 -2.5766114)
(391.76139 4.2063334e-20 -1.4505596)
(390.58743 2.2787942e-17 -3.0143104)
(389.98444 -1.2682296e-17 -2.124248)
(388.65394 -3.1693642e-17 -3.5722834)
(387.43908 0 -3.1246589)
(385.70077 -1.4741685e-17 -4.4215854)
(383.74119 -2.4322386e-17 -4.5037603)
(381.28562 -1.012196e-17 -5.7452645)
(378.34024 -1.7117519e-17 -6.3646705)
(374.78698 -2.8488182e-17 -7.7004196)
(370.49832 -1.054664e-16 -8.8122072)
(365.40633 8.8575692e-17 -10.326688)
(359.37852 -8.0083646e-18 -11.758204)
(352.4124 9.4714254e-17 -13.271532)
(344.53963 1.8847086e-16 -14.511344)
(336.00114 1.4763935e-16 -15.33856)
(327.13878 0 -15.4695)
(318.36384 -3.9263072e-16 -14.824412)
(310.00543 -1.9936828e-17 -13.431652)
(302.28429 -4.2666799e-19 -11.496269)
(295.31866 4.101995e-16 -9.2841164)
(289.17909 0 -7.0650028)
(283.88365 4.7958057e-16 -5.047232)
(279.41743 7.1374852e-16 -3.3167874)
(275.74174 5.7656166e-16 -1.9240202)
(272.73956 2.6377303e-17 -0.86678003)
(270.30808 -1.9552874e-17 -0.095287338)
(268.35147 0 0.428107)
(266.78604 0 0.76726209)
(265.53756 -3.161758e-17 0.94621621)
(264.51429 7.6249975e-16 0.99466123)
(263.69412 1.0795894e-15 0.96579806)
(263.0967 7.8713601e-16 0.90903013)
(262.60479 0 0.78637452)
(261.92811 0 0.53702977)
(261.35073 1.2133187e-15 0.2703141)
(261.0357 4.6920208e-16 0.11704093)
(260.87142 -5.2983984e-18 -0.070114045)
(260.78125 3.9970308e-18 -0.63301192)
(253.12273 -8.0276655e-17 -1.8441482)
(296.3103 2.7477394e-17 -1.3080942)
(324.04195 5.5486225e-18 -1.7562013)
(347.54203 1.883318e-17 -1.9936362)
(368.54449 -3.6309036e-17 -2.352155)
(386.54046 1.3610695e-17 -2.7112111)
(392.104 1.1406911e-17 -3.4134891)
(393.16692 -9.5508883e-18 -2.7510012)
(391.71535 -3.3385105e-20 -3.9208362)
(392.24515 1.3323246e-17 -2.8237839)
(390.98064 4.3374403e-20 -4.3917452)
(390.9249 -1.8472388e-17 -3.2103281)
(389.70915 -1.5420227e-17 -4.8479194)
(389.07469 0 -3.9275433)
(387.69582 1.0675927e-17 -5.4316559)
(386.42727 -8.9174902e-18 -4.9826952)
(384.62414 0 -6.3221628)
(382.58413 3.7438731e-17 -6.4272245)
(380.03605 -7.3002253e-17 -7.7050716)
(376.97621 -6.9441801e-17 -8.3617642)
(373.2898 -5.8279156e-17 -9.7323601)
(368.84238 9.6368158e-17 -10.881894)
(363.57033 -7.9497662e-17 -12.418346)
(357.34487 0 -13.858008)
(350.17947 -1.2342472e-16 -15.340644)
(342.13698 1.8239959e-16 -16.501012)
(333.4993 -1.3974279e-16 -17.186332)
(324.64241 1.5545016e-17 -17.126737)
(315.98901 -1.582564e-17 -16.265835)
(307.85653 0 -14.660341)
(300.43559 5.1143333e-16 -12.53117)
(293.80423 -4.0091865e-16 -10.14787)
(287.99191 0 -7.7777428)
(282.98465 4.8572186e-16 -5.6276479)
(278.7537 -7.4134073e-16 -3.7810979)
(275.26227 9.3582924e-19 -2.289442)
(272.39848 -2.6525152e-17 -1.151661)
(270.06794 1.9645544e-17 -0.31548211)
(268.18371 0 0.25908969)
(266.66876 6.8963289e-16 0.63830862)
(265.45392 0 0.84787838)
(264.45329 -1.5014311e-15 0.92008846)
(263.65415 1.637573e-19 0.91202498)
(263.07803 -1.2291131e-17 0.86926555)
(262.5794 3.5715352e-17 0.74803593)
(261.87516 -1.300746e-17 0.50102213)
(261.3107 -6.1037236e-16 0.24717282)
(261.00558 0 0.10599396)
(260.85422 -6.666872e-16 -0.07195811)
(260.78701 0 -0.61133072)
(252.72505 3.9677266e-17 -2.9706692)
(296.17396 0 -2.6314214)
(324.1128 -5.6603343e-18 -3.2036549)
(347.80268 0 -3.5540115)
(368.90283 -3.2932342e-17 -4.0354166)
(386.68821 2.7696174e-17 -4.4596463)
(391.35811 3.4923719e-17 -5.2011589)
(392.3814 -3.892585e-17 -4.4939027)
(390.88946 2.4389612e-17 -5.7376803)
(391.42115 -2.7132708e-17 -4.5749088)
(390.11575 -2.2665278e-17 -6.2282807)
(390.04607 3.7690765e-17 -4.9920217)
(388.78784 0 -6.7015275)
(388.11982 -3.9433649e-17 -5.7523585)
(386.69085 4.3699463e-17 -7.3104266)
(385.36541 -9.0778676e-18 -6.8624717)
(383.49423 0 -8.2422898)
(381.36954 -3.7818094e-17 -8.3716773)
(378.72392 7.3808482e-17 -9.6836878)
(375.54308 -4.9573239e-19 -10.378128)
(371.71532 1.1701009e-16 -11.781191)
(367.10001 -9.7404765e-17 -12.965931)
(361.63807 0 -14.518584)
(355.20604 1.7155514e-17 -15.957627)
(347.83612 4.7855999e-19 -17.395494)
(339.62652 -1.9574404e-16 -18.45734)
(330.90124 0 -18.979709)
(322.06733 1.5819617e-17 -18.711312)
(313.55305 -1.614594e-17 -17.622652)
(305.65902 0 -15.800013)
(298.54385 -5.1514833e-16 -13.479837)
(292.24758 0 -10.934088)
(286.76247 0 -8.4255654)
(282.045 -4.8873365e-16 -6.157028)
(278.05306 7.4902173e-16 -4.2071291)
(274.75128 -1.6777589e-17 -2.6271405)
(272.03174 -1.3437765e-17 -1.417053)
(269.80758 -1.2661712e-19 -0.52230141)
(268.00035 -1.4768123e-17 0.099068153)
(266.5395 -6.9068301e-16 0.51524711)
(265.3611 -1.58874e-17 0.75331908)
(264.3856 1.5004628e-15 0.84813704)
(263.61024 -2.151181e-15 0.8603997)
(263.05578 0 0.83086165)
(262.54703 -1.7784582e-17 0.70883344)
(261.81635 8.40781e-16 0.46508555)
(261.2688 0 0.22501243)
(260.97796 0 0.095661633)
(260.84236 6.5547978e-16 -0.073028521)
(260.79247 3.8185777e-18 -0.58928196)
(252.33169 2.5328228e-18 -4.0868208)
(296.0449 0 -3.9829357)
(324.18792 2.8804869e-18 -4.6725894)
(348.06655 -4.9070599e-18 -5.1375219)
(369.26796 -3.7770163e-17 -5.7485639)
(386.76265 -3.9818808e-20 -6.2276407)
(390.52322 2.9640726e-17 -7.0059489)
(391.55685 0 -6.256871)
(390.0253 -1.660773e-17 -7.577647)
(390.55699 2.7559658e-17 -6.3470267)
(389.21074 0 -8.084947)
(389.12564 -1.9131121e-17 -6.7945102)
(387.82429 1.6052787e-17 -8.5741591)
(387.12028 -6.2524799e-20 -7.5984579)
(385.639 1.1093053e-17 -9.2086195)
(384.25318 3.7238124e-17 -8.7641503)
(382.31059 4.6556495e-17 -10.181878)
(380.09675 2.5818989e-17 -10.337112)
(377.34797 -1.0685472e-17 -11.681274)
(374.0389 8.9640469e-17 -12.413969)
(370.06098 9.0208373e-17 -13.846922)
(365.26831 1.2299174e-17 -15.063807)
(359.60651 1.6660756e-16 -16.626184)
(352.95937 0 -18.054609)
(345.38123 0 -19.432021)
(337.00989 0 -20.374906)
(328.21187 0 -20.712979)
(319.4213 -1.6095141e-17 -20.218476)
(311.06583 3.4814027e-17 -18.891889)
(303.4243 -2.0289804e-17 -16.849537)
(296.62153 1.6532364e-17 -14.342385)
(290.66139 -1.2723957e-17 -11.643256)
(285.50253 -6.2238824e-16 -9.0086619)
(281.07459 -1.5308861e-17 -6.6350393)
(277.32322 -1.5077079e-15 -4.594114)
(274.21442 -1.7284669e-15 -2.9361374)
(271.64333 1.3297511e-17 -1.6619734)
(269.52975 -1.2733064e-15 -0.71487687)
(267.80323 -9.413429e-16 -0.05125094)
(266.39946 1.3839649e-15 0.39863206)
(265.25986 -1.044226e-15 0.66298562)
(264.31187 -7.3796049e-16 0.77916661)
(263.56285 1.0897381e-15 0.81090175)
(263.02903 -2.4360355e-17 0.79261095)
(262.50637 1.7645215e-17 0.66898651)
(261.75285 -8.2141543e-16 0.42944469)
(261.22672 -1.8713387e-17 0.2040481)
(260.95373 8.8920157e-16 0.086153845)
(260.83433 0 -0.073370166)
(260.7978 -3.7356228e-18 -0.56702189)
(251.94362 -2.5698647e-18 -5.2298659)
(295.9285 -5.8242342e-17 -5.3422666)
(324.27146 5.8722355e-18 -6.1614975)
(348.33498 3.9908927e-17 -6.741828)
(369.64208 4.2641657e-18 -7.4904887)
(386.75754 5.7357575e-17 -8.0165121)
(389.63306 -4.8152659e-17 -8.8307771)
(390.69326 1.0099057e-17 -8.0383419)
(389.12367 1.6819781e-17 -9.4398928)
(389.65406 -2.8039206e-17 -8.1394747)
(388.2671 2.3485517e-17 -9.9602356)
(388.1647 0 -8.6169828)
(386.81895 0 -10.465652)
(386.07587 -2.722877e-17 -9.4664519)
(384.53979 2.2749133e-17 -11.126604)
(383.09006 -9.4391232e-17 -10.687907)
(381.07263 -6.2853257e-17 -12.140853)
(378.76473 -6.5982125e-17 -12.32365)
(375.90643 -1.7019316e-19 -13.698151)
(372.46119 9.0520463e-18 -14.469544)
(368.32384 -2.4372346e-16 -15.929456)
(363.34405 0 -17.174787)
(357.4723 -1.8958899e-16 -18.739587)
(350.60211 1.7259408e-17 -20.145992)
(342.81396 0 -21.445528)
(334.28935 0 -22.247715)
(325.43679 2.0089546e-17 -22.380115)
(316.71254 -1.5832994e-17 -21.643431)
(308.53731 8.3569642e-16 -20.070703)
(301.16336 -2.1148763e-17 -17.808004)
(294.68015 1.6380212e-17 -15.119236)
(289.05718 -2.6248233e-17 -12.276282)
(284.22283 6.6638303e-16 -9.5277645)
(280.0826 9.9822329e-16 -7.0619294)
(276.57147 1.5187269e-15 -4.9418138)
(273.65719 1.163762e-15 -3.215882)
(271.23725 -1.3363822e-17 -1.8857601)
(269.23726 1.2565065e-15 -0.8925678)
(267.59427 4.3532491e-17 -0.19131603)
(266.2499 -1.3847466e-15 0.2889155)
(265.15106 1.9771589e-15 0.5772619)
(264.2329 4.6052201e-17 0.71347324)
(263.51275 -1.6701894e-17 0.76347187)
(262.99714 0 0.75354229)
(262.45584 0 0.62901671)
(261.68675 -8.1527017e-16 0.39432814)
(261.18608 -1.8522109e-17 0.18439776)
(260.93272 -8.5045912e-16 0.077516851)
(260.82842 9.9025411e-18 -0.073036813)
(260.8031 -7.3194895e-18 -0.54462512)
(251.56139 -3.7502817e-20 -6.3965612)
(295.82468 2.3355591e-16 -6.7284335)
(324.36637 -5.9299145e-18 -7.6826421)
(348.61056 -7.6328644e-17 -8.3786248)
(370.02807 -6.9651497e-17 -9.2724028)
(386.6667 7.2045554e-18 -9.8389354)
(388.76745 9.8229881e-17 -10.682737)
(389.79318 -6.144174e-17 -9.8332011)
(388.18703 0 -11.318392)
(388.71422 1.4224953e-17 -9.9499293)
(387.28587 -2.3771529e-17 -11.853597)
(387.16314 1.9890435e-17 -10.460492)
(385.77113 3.3320416e-17 -12.377055)
(384.98571 1.3778663e-17 -11.357321)
(383.3926 2.2965453e-17 -13.064478)
(381.87557 -2.3098647e-19 -12.6337)
(379.77954 6.4362506e-17 -14.119246)
(377.37194 1.3105045e-17 -14.331743)
(374.39691 -1.0065488e-16 -15.73489)
(370.80702 0 -16.545117)
(366.50062 1.3926069e-16 -18.028557)
(361.32368 1.8193147e-16 -19.297905)
(355.23189 -1.6242991e-16 -20.856855)
(348.13159 -1.8172706e-17 -22.228228)
(340.13397 2.5327318e-16 -23.430647)
(331.46797 -1.2459095e-17 -24.069252)
(322.58239 9.8701456e-18 -23.974879)
(313.94984 -1.6647365e-17 -22.981476)
(305.97754 -8.361072e-16 -21.15651)
(298.88672 0 -18.674815)
(292.73036 0 -15.81114)
(287.44537 8.455771e-16 -12.834466)
(282.933 0 -9.9840571)
(279.07735 3.37893e-18 -7.4384225)
(275.80453 -1.5532643e-15 -5.2504313)
(273.08478 1.7932077e-17 -3.4661924)
(270.81735 -2.702976e-17 -2.0880382)
(268.93286 1.9952093e-17 -1.0549451)
(267.37536 9.7427192e-16 -0.32072327)
(266.09208 -2.1613543e-17 0.18645242)
(265.03557 -9.8003114e-16 0.49647455)
(264.14954 1.4489795e-15 0.65130717)
(263.46061 0 0.71830395)
(262.96017 0 0.71522147)
(262.3941 1.7477247e-17 0.58942713)
(261.6201 7.9587008e-16 0.36003237)
(261.1477 0 0.16613827)
(260.91454 1.332468e-17 0.069744257)
(260.82389 -9.7304848e-18 -0.0720773)
(260.80839 7.153884e-18 -0.52215578)
(251.18635 1.7089848e-16 -7.5780595)
(295.72966 1.2840583e-16 -8.1260448)
(324.47146 -9.7832573e-17 -9.2226939)
(348.89404 0 -10.035476)
(370.41989 6.1990286e-17 -11.082567)
(386.49026 -1.1818534e-16 -11.679433)
(387.84571 9.9907691e-17 -12.556313)
(388.85955 -3.1237734e-17 -11.642798)
(387.21587 3.4917486e-17 -13.214654)
(387.73684 -2.895055e-17 -11.781139)
(386.2656 -2.4295774e-17 -13.768306)
(386.11941 0 -12.327366)
(384.6796 -6.7414411e-17 -14.309289)
(383.84919 -5.6208373e-17 -13.271011)
(382.19715 2.3551322e-17 -15.021787)
(380.60919 -1.0947524e-19 -14.601408)
(378.42998 -3.2423432e-17 -16.117457)
(375.91614 1.5006645e-16 -16.362051)
(372.81654 9.0513324e-17 -17.79202)
(369.07317 1.5218418e-16 -18.640715)
(364.5878 1.2692759e-16 -20.143712)
(359.20341 -2.0965306e-16 -21.431848)
(352.88152 1.7449596e-16 -22.975534)
(345.54523 -1.8521625e-17 -24.297043)
(337.34151 -2.2566046e-16 -25.381265)
(328.54967 -1.2690214e-17 -25.8325)
(319.65587 -1.0762177e-17 -25.490902)
(311.14247 1.6395709e-17 -24.228088)
(303.39661 4.2926478e-16 -22.147067)
(296.60455 0 -19.449746)
(290.78207 0 -16.419214)
(285.83541 -1.7051871e-15 -13.31947)
(281.64172 -2.0746157e-17 -10.379122)
(278.06636 5.0915161e-17 -7.7656563)
(275.02859 7.4475966e-16 -5.5205584)
(272.50203 0 -3.6872194)
(270.38731 0 -2.2687001)
(268.61924 -1.3054872e-15 -1.201783)
(267.14839 1.4752317e-17 -0.43921345)
(265.92726 1.3873048e-15 0.091503349)
(264.9143 0 0.42090132)
(264.06265 -1.4685287e-15 0.59290458)
(263.40695 -1.0636285e-15 0.67547368)
(262.91788 0 0.67887956)
(262.32044 1.0927148e-15 0.55067694)
(261.55472 -3.2243932e-20 0.32689855)
(261.11188 9.0525334e-18 0.14930771)
(260.89882 0 0.062796653)
(260.8204 0 -0.070553432)
(260.81368 0 -0.49965005)
(250.828 -1.7396747e-16 -8.7794801)
(295.64943 -3.8350238e-18 -9.5452156)
(324.5958 9.9699299e-17 -10.790564)
(349.19037 -8.9787531e-17 -11.721251)
(370.80876 -5.4040361e-17 -12.926219)
(386.22561 5.9991909e-17 -13.540309)
(386.88684 5.087971e-17 -14.461438)
(387.88869 1.0721821e-17 -13.478885)
(386.2068 -3.5398718e-17 -15.134882)
(386.71878 -1.4753735e-17 -13.636424)
(385.20433 4.9166188e-17 -15.705286)
(385.03251 -2.0591369e-17 -14.217847)
(383.54425 5.1464002e-17 -16.261342)
(382.66646 -2.8831192e-17 -15.206819)
(380.95325 -7.1805507e-17 -16.998187)
(379.28978 -8.0058695e-17 -16.591618)
(377.02182 1.6504736e-17 -18.136433)
(374.3945 -1.1043789e-16 -18.415484)
(371.16208 2.331494e-17 -19.870054)
(367.25617 -1.7273011e-16 -20.756235)
(362.58158 -1.4436051e-16 -22.274254)
(356.97909 1.3219041e-17 -23.575058)
(350.41729 2.2672496e-17 -25.092696)
(342.84075 6.3733803e-19 -26.347442)
(334.43758 -3.0764529e-17 -27.290567)
(325.53932 -4.5927854e-19 -27.530061)
(316.66527 -3.0437017e-16 -26.921831)
(308.30019 -3.387729e-17 -25.379059)
(300.80465 4.5343812e-16 -23.040568)
(294.3266 2.2028817e-17 -20.132995)
(288.84442 5.1894724e-16 -16.944927)
(284.23583 8.4563706e-16 -13.733277)
(280.35677 6.8844122e-16 -10.714869)
(277.0564 -1.0509441e-15 -8.0451071)
(274.24925 -7.5134526e-16 -5.7531097)
(271.91345 1.8252843e-17 -3.8793978)
(269.9506 -4.0760932e-17 -2.4278736)
(268.29899 3.8843265e-17 -1.3330403)
(266.91519 -9.3319762e-16 -0.54666253)
(265.75667 -2.0798252e-17 0.0042409943)
(264.78817 0 0.35077318)
(263.9731 1.4655938e-15 0.53848632)
(263.35227 2.1192403e-15 0.63472152)
(262.87003 1.5293495e-15 0.64164514)
(262.23514 -1.1022802e-15 0.51340316)
(261.49188 1.5902759e-15 0.29532469)
(261.07857 0 0.13391695)
(260.88528 0 0.056644028)
(260.81764 9.4098353e-18 -0.068535829)
(260.81916 -6.8634186e-18 -0.47716292)
(250.47327 0 -10.00299)
(295.57185 -1.2522964e-16 -10.990909)
(324.72986 1.014588e-16 -12.392874)
(349.49429 -2.5590376e-20 -13.446147)
(371.18077 -8.2341113e-17 -14.81843)
(385.84822 6.0904563e-17 -15.42242)
(385.88347 -1.2871625e-17 -16.3895)
(386.878 -3.2330689e-17 -15.340408)
(385.15855 0 -17.078481)
(385.65967 -4.5002918e-17 -15.513867)
(384.10249 0 -17.662051)
(383.90332 4.1606568e-17 -16.13015)
(382.36584 -3.4534249e-17 -18.232032)
(381.43753 2.9006531e-17 -17.164563)
(379.65982 9.7018445e-17 -18.994332)
(377.91517 1.6191714e-16 -18.605566)
(375.55208 1.699592e-17 -20.177331)
(372.80374 -1.271675e-16 -20.492738)
(369.43014 0 -21.969202)
(365.35236 -1.7756051e-16 -22.891316)
(360.47784 1.6172518e-17 -24.419285)
(354.64627 0 -25.725635)
(347.83526 -1.8302974e-16 -27.204822)
(340.01634 1.9235162e-17 -28.373659)
(331.42408 -1.538428e-17 -29.151036)
(322.44285 0 -29.154218)
(313.61943 3.1627599e-16 -28.261443)
(305.43311 1.6962768e-17 -26.430597)
(298.21175 -9.9607077e-18 -23.835721)
(292.06219 1.0928066e-17 -20.725213)
(286.92588 -1.1161717e-15 -17.390111)
(282.65434 8.7282862e-16 -14.078186)
(279.08506 -6.9182942e-16 -10.99351)
(276.05347 -1.4961923e-19 -8.278549)
(273.47155 8.1446801e-16 -5.9492784)
(271.32312 -1.8213945e-17 -4.043411)
(269.51044 0 -2.5658969)
(267.97453 1.2694674e-15 -1.4488469)
(266.67749 9.6291893e-16 -0.6430739)
(265.5815 -2.7731444e-15 -0.075245605)
(264.6581 -2.0175759e-15 0.28626939)
(263.88167 -1.4383049e-15 0.48819869)
(263.29682 -1.0882447e-15 0.59605616)
(262.81681 -1.5088727e-15 0.60423176)
(262.14094 1.7128274e-17 0.47773526)
(261.43123 -1.6127966e-15 0.26589052)
(261.04754 1.7714271e-17 0.11996695)
(260.87354 -1.649625e-15 0.051274879)
(260.81565 -3.7027604e-21 -0.066052104)
(260.82532 8.6701412e-16 -0.45475699)
(250.11518 1.8023272e-16 -11.242253)
(295.49665 -1.2737288e-16 -12.451512)
(324.87408 1.0336599e-16 -14.021765)
(349.80716 5.5532733e-18 -15.198653)
(371.52333 -1.3934406e-16 -16.744688)
(385.33945 7.6787983e-18 -17.317745)
(384.83732 5.2372914e-17 -18.337405)
(385.82942 2.1821266e-17 -17.222005)
(384.07333 -3.6677518e-17 -19.043721)
(384.56177 6.0792322e-17 -17.411865)
(382.96178 -5.1030529e-17 -19.636903)
(382.73279 8.461378e-17 -18.063566)
(381.14428 -3.5540289e-17 -20.221671)
(380.16112 2.9426773e-17 -19.145407)
(378.31448 3.1448717e-19 -21.011808)
(376.48223 -6.1360908e-17 -20.644755)
(374.01743 -3.4355229e-17 -22.241129)
(371.14062 1.2848949e-16 -22.59415)
(367.61728 -9.6130898e-17 -24.08943)
(363.35777 1.5911995e-16 -25.045405)
(358.27202 -1.3402118e-16 -26.577643)
(352.20018 2.3779503e-16 -27.881195)
(345.13148 1.7296695e-16 -29.307617)
(337.07083 0 -30.369048)
(328.30399 -2.5736077e-16 -30.954515)
(319.26728 -1.3393558e-17 -30.697073)
(310.528 -3.3703815e-16 -29.503774)
(302.5517 0 -27.379435)
(295.62782 -4.4903631e-16 -24.531785)
(289.82017 6.9757475e-16 -21.22752)
(285.03423 -5.5237651e-16 -17.756963)
(281.09786 -9.0444433e-16 -14.356784)
(277.83273 6.3579375e-17 -11.217512)
(275.06287 -4.8403965e-17 -8.4679947)
(272.69997 -1.531496e-15 -6.1104816)
(270.73478 -1.829438e-17 -4.1801456)
(269.06983 0 -2.6832896)
(267.64815 0 -1.5494842)
(266.43694 0 -0.72856681)
(265.40289 1.3635337e-15 -0.14694622)
(264.525 -1.6749329e-17 0.22752161)
(263.78907 2.2736395e-17 0.44217051)
(263.24039 0 0.55945145)
(262.75811 1.5124232e-15 0.56679618)
(262.04172 0 0.44343157)