/*--------------------------------*- C++ -*----------------------------------*\
  =========                 |
  \\      /  F ield         | OpenFOAM: The Open Source CFD Toolbox
   \\    /   O peration     | Website:  https://openfoam.org
    \\  /    A nd           | Version:  8
     \\/     M anipulation  |
\*---------------------------------------------------------------------------*/
FoamFile
{
    version     2.0;
    format      ascii;
    class       volVectorField;
    location    "0.129988";
    object      wallShearStress;
}
// * * * * * * * * * * * * * * * * * * * * * * * * * * * * * * * * * * * * * //

dimensions      [1 -1 -2 0 0 0 0];

internalField   uniform (0 0 0);

boundaryField
{
    aerofoil
    {
        type            calculated;
        value           nonuniform List<vector> 
300
(
(-159.73286 1.0233497e-22 -5.8671586)
(-160.72173 -1.2121189e-22 -5.2680219)
(-160.74672 8.6745969e-17 -4.6296885)
(-160.82874 -8.8772119e-17 -3.9961543)
(-160.91144 -4.6088389e-17 -3.3176233)
(-161.01853 7.2270656e-19 -2.5576565)
(-161.14753 6.8867385e-20 -1.8319842)
(-161.29079 -3.0332194e-18 -1.0799003)
(-161.45645 5.1195281e-17 -0.30934421)
(-161.6534 -2.5372619e-17 0.41502712)
(-161.86236 -1.4698945e-18 1.1310291)
(-162.07724 1.5549838e-18 1.8727988)
(-162.30691 2.1779045e-20 2.633982)
(-162.54258 -1.1038568e-16 3.4108873)
(-162.79958 1.1285571e-16 4.2065247)
(-163.0714 -2.028913e-19 5.0208974)
(-163.34163 -1.1789413e-16 5.851814)
(-163.61898 3.7598144e-18 6.7106286)
(-163.89441 -1.2603906e-16 7.5900694)
(-164.18337 -3.9152158e-18 8.4912148)
(-164.48431 -1.2755779e-16 9.4157819)
(-164.79158 4.0690803e-18 10.36281)
(-165.10689 2.6535593e-16 11.334249)
(-165.40747 9.6296497e-35 12.325428)
(-165.72281 -4.3291749e-18 13.348151)
(-166.03752 1.3210292e-17 14.39735)
(-166.36469 -8.9411206e-18 15.475915)
(-166.69822 9.1577978e-18 16.58754)
(-167.0151 -3.0746683e-16 17.729071)
(-167.33717 -3.0395767e-16 18.910479)
(-167.64653 3.195114e-16 20.130994)
(-167.92433 -9.8376248e-18 21.388673)
(-168.15758 1.0093273e-17 22.68468)
(-168.36748 -1.0221284e-17 24.0286)
(-168.57536 3.3451293e-16 25.430664)
(-168.78793 4.414542e-19 26.895243)
(-169.01147 0 28.424022)
(-169.26019 0 30.026302)
(-169.54444 -1.0019391e-18 31.714183)
(-169.87693 3.6993589e-16 33.497044)
(-170.28013 3.7513967e-16 35.384498)
(-170.71305 3.8073725e-20 37.385042)
(-171.15292 9.457772e-18 39.510886)
(-171.57947 -1.2452555e-17 41.761376)
(-171.91524 -4.0710468e-16 44.124356)
(-172.1635 -4.1324901e-16 46.634141)
(-172.27199 7.8645065e-18 49.300289)
(-172.27544 -1.6250162e-17 52.150635)
(-172.13003 -4.3012322e-16 55.180537)
(-171.8142 -1.3950935e-17 58.377788)
(-171.32024 -9.014624e-16 61.757466)
(-170.45441 4.6706095e-16 65.308129)
(-169.09863 -9.7471486e-16 69.033662)
(-167.1207 5.1238495e-16 72.941744)
(-164.38671 -7.4188722e-18 77.062824)
(-160.8182 1.5954633e-17 81.506666)
(-156.39713 -1.5717291e-17 86.393414)
(-151.183 1.0216608e-15 91.770959)
(-145.05851 -2.9594334e-19 97.540374)
(-138.71093 -1.8004001e-18 103.92399)
(-133.34256 3.3472201e-19 110.73783)
(-129.32533 1.7300306e-17 117.87435)
(-125.57692 -3.9094851e-19 124.85902)
(-120.93617 5.9031473e-16 131.21725)
(-114.6266 5.9906626e-16 136.33443)
(-106.3651 -6.1278539e-16 139.6457)
(-96.260681 -1.0007008e-17 140.76545)
(-83.999642 6.4980278e-16 138.7394)
(-69.93307 3.3609167e-16 132.77204)
(-54.885034 -3.3410204e-16 122.51047)
(-39.775812 1.9771491e-18 107.51196)
(-25.74005 -2.497932e-18 88.167397)
(-14.455508 6.8722065e-18 65.778512)
(-7.2947445 -1.123255e-18 41.839066)
(-3.2476965 -8.4743092e-19 20.376945)
(-133.96338 -9.1794522e-16 -22.567315)
(-128.40978 3.9393898e-21 -23.698235)
(-130.31893 -3.9786367e-21 -23.940459)
(-132.77661 7.5396584e-38 -24.14328)
(-134.13603 1.9634708e-21 -24.145647)
(-135.02866 6.3488531e-19 -24.080037)
(-135.44085 1.0236669e-15 -23.92401)
(-135.62044 1.0181979e-15 -23.735833)
(-135.53695 1.0128592e-15 -23.50489)
(-135.31135 -1.008054e-15 -23.257583)
(-134.93908 4.5483866e-19 -22.989942)
(-134.45351 -5.3628974e-19 -22.705277)
(-133.86111 -1.8953172e-21 -22.40765)
(-133.1833 -6.2220418e-19 -22.102004)
(-132.42123 -9.3241351e-22 -21.787891)
(-131.57761 -9.7455802e-16 -21.462701)
(-130.67599 8.6958309e-20 -21.131366)
(-129.73876 8.7453791e-20 -20.797861)
(-128.77732 8.452254e-20 -20.464359)
(-127.80326 -9.5217086e-16 -20.13027)
(-126.78667 -9.023948e-22 -19.796897)
(-125.73308 8.9651893e-22 -19.462434)
(-124.70154 -9.3413905e-16 -19.133279)
(-123.66983 -9.2878443e-16 -18.807149)
(-122.63128 3.2561543e-20 -18.4843)
(-121.60217 -9.1653238e-16 -18.164605)
(-120.58326 -1.6299222e-22 -17.849881)
(-119.58043 -9.0471301e-16 -17.538737)
(-118.58255 -3.2114737e-22 -17.231439)
(-117.59087 2.1319389e-22 -16.926164)
(-116.59221 -7.2424176e-20 -16.62201)
(-115.58742 8.7980176e-16 -16.320196)
(-114.57342 8.7362552e-16 -16.017106)
(-113.53957 4.3184789e-19 -15.712701)
(-112.47878 9.7457955e-20 -15.406362)
(-111.38831 -1.6281466e-21 -15.097921)
(-110.26508 8.490458e-16 -14.786216)
(-109.10877 -8.4289779e-16 -14.471236)
(-107.91418 8.3672104e-16 -14.151768)
(-106.67821 3.741158e-19 -13.828065)
(-105.38691 -8.2424547e-16 -13.4975)
(-104.01384 -6.3293306e-20 -13.158089)
(-102.52084 -1.6800266e-19 -12.80695)
(-100.89771 -1.5374167e-21 -12.443987)
(-99.151639 -7.9771658e-16 -12.069794)
(-97.311973 7.9068974e-16 -11.68863)
(-95.403969 -1.4786725e-19 -11.303347)
(-93.476846 -7.7556578e-16 -10.917849)
(-91.582847 -7.6759195e-16 -10.534506)
(-89.674305 7.5933211e-16 -10.14493)
(-87.430543 8.6459865e-20 -9.7214141)
(-84.315386 8.4429375e-21 -9.2175563)
(-80.053421 -8.6923837e-20 -8.6065256)
(-74.514289 1.0473842e-19 -7.892838)
(-67.304447 6.9100839e-16 -7.0633031)
(-59.127824 6.6398334e-16 -6.1614878)
(-51.231212 -1.2184855e-20 -5.2899208)
(-44.889836 -3.0156139e-16 -4.6020378)
(-44.209201 -2.9564103e-16 -4.3731229)
(-55.476371 -4.9111214e-33 -5.1679231)
(-79.175782 6.2700928e-16 -6.8862547)
(-107.74739 5.1344764e-21 -8.9558853)
(-131.99545 5.9008104e-20 -10.636748)
(-147.24301 -6.3161881e-16 -11.516972)
(-154.83298 6.7453833e-20 -11.727258)
(-158.31967 3.122907e-16 -11.555555)
(-159.8955 -3.1120176e-16 -11.1927)
(-160.64106 -3.1027002e-16 -10.736481)
(-161.02086 -3.0925031e-16 -10.23042)
(-161.24994 0 -9.6869341)
(-161.4003 -3.0802036e-16 -9.1189676)
(-161.41081 3.0792616e-16 -8.5219156)
(-161.38113 -3.0796964e-16 -7.9002611)
(-161.3262 1.5414739e-16 -7.2588627)
(-160.01891 -3.0797408e-16 -6.5358895)
(-131.607 6.5789168e-21 -5.8081606)
(-132.9093 -2.1828981e-16 -6.3888845)
(-135.24573 -1.3436657e-18 -7.0518327)
(-137.42368 9.0056017e-19 -7.7314457)
(-139.60591 6.4119964e-20 -8.4389069)
(-141.72225 2.3356237e-20 -9.1705117)
(-143.77229 -2.4613541e-16 -9.9263669)
(-145.7505 2.5419386e-16 -10.704563)
(-147.67322 -2.622462e-16 -11.507889)
(-149.54943 -2.0797753e-18 -12.337552)
(-151.37739 -5.426719e-16 -13.195016)
(-153.17937 2.7858242e-16 -14.077265)
(-154.95117 5.7409137e-16 -14.990012)
(-156.65524 -4.4789105e-18 -15.924278)
(-158.30235 -2.9295859e-16 -16.885426)
(-159.87435 -4.8070219e-18 -17.872973)
(-161.35327 3.1526086e-16 -18.881737)
(-162.74387 -4.948188e-18 -19.916095)
(-164.04486 -6.4717789e-16 -20.973164)
(-165.27177 5.1669327e-18 -22.058454)
(-166.43069 -1.0536897e-17 -23.173762)
(-167.5303 3.4914286e-16 -24.319307)
(-168.58961 -3.5157579e-16 -25.501332)
(-169.61448 3.5839137e-16 -26.718134)
(-170.6274 -3.6558217e-16 -27.981941)
(-171.61949 3.6708799e-16 -29.286122)
(-172.6023 5.9320645e-18 -30.636411)
(-173.56272 3.8780545e-16 -32.036016)
(-174.4926 -1.2522882e-17 -33.483806)
(-175.39474 -3.9042563e-16 -34.987438)
(-176.25186 3.8518599e-34 -36.54789)
(-177.02961 4.1864962e-16 -38.15931)
(-177.72094 1.9259299e-34 -39.821036)
(-178.33794 -1.3613845e-17 -41.543835)
(-178.90203 2.7475803e-17 -43.339431)
(-179.40977 -2.9911998e-17 -45.208802)
(-179.87124 1.4357435e-17 -47.157022)
(-180.32318 4.6881266e-16 -49.200921)
(-180.76434 1.4241205e-18 -51.353795)
(-181.09978 -1.6194583e-18 -53.590974)
(-181.30655 -4.9233821e-16 -55.90553)
(-181.34268 -5.0309226e-16 -58.255406)
(-181.18254 5.3235451e-16 -60.684798)
(-180.77594 -1.6117438e-17 -63.169382)
(-180.07011 -5.9914211e-19 -65.703335)
(-179.06591 -2.3111159e-33 -68.299975)
(-177.72547 -5.4189936e-16 -70.957222)
(-176.03579 1.740237e-17 -73.674749)
(-173.97675 5.0565998e-18 -76.461344)
(-171.52305 5.5545282e-16 -79.319077)
(-168.66532 -2.3111159e-33 -82.256058)
(-165.38441 1.1851452e-15 -85.252977)
(-161.6614 5.9749024e-16 -88.289675)
(-157.51683 5.7922973e-16 -91.340633)
(-152.99456 2.4651307e-17 -94.354507)
(-148.18068 -6.3436784e-16 -97.250344)
(-143.17265 -1.2892355e-15 -99.973382)
(-137.85071 6.8142895e-16 -102.45244)
(-132.00075 -6.8549326e-16 -104.56695)
(-125.48564 6.5910344e-16 -106.16731)
(-118.227 4.3004543e-17 -107.11951)
(-110.1835 -2.6236244e-17 -107.27904)
(-101.31616 6.8201904e-16 -106.43652)
(-91.590474 1.0620403e-17 -104.34815)
(-80.95053 -7.0324058e-16 -100.83126)
(-69.548537 1.7260268e-17 -95.497976)
(-57.596676 -2.2495118e-17 -87.924562)
(-45.519295 3.810874e-16 -77.906181)
(-33.720432 -1.0123624e-17 -65.226174)
(-21.998944 -6.8813841e-16 -49.93712)
(-12.080139 0 -32.777162)
(-5.7522315 -4.6713205e-18 -15.535457)
(-2.2574391 3.5211881e-18 -4.7973225)
(-0.80804384 -1.2062056e-19 0.39547246)
(-1.5661922 -2.3718521e-19 7.4375064)
(-0.53014693 -1.4496995e-20 0.49499478)
(-4.170655 3.0621058e-16 0.37220908)
(-4.4528825 2.4955373e-20 0.44373996)
(-6.0332578 -0 0.58702537)
(-7.3693312 -3.5902706e-16 0.70149221)
(-8.9286147 3.8101775e-16 0.83605745)
(-10.470329 4.0019481e-16 0.96689724)
(-12.05063 -4.1758851e-16 1.0966687)
(-13.63108 -4.1331993e-22 1.2215307)
(-15.218995 -4.4785467e-16 1.3428434)
(-16.807405 -1.7403365e-19 1.4595764)
(-18.388711 4.7367281e-16 1.5712668)
(-19.955707 -4.8504989e-16 1.6776275)
(-21.505445 -1.0328323e-19 1.7787084)
(-23.033091 5.054905e-16 1.8737592)
(-24.536812 5.1465586e-16 1.9631441)
(-26.026433 1.5101545e-19 2.0472174)
(-27.508133 1.2447476e-38 2.1265394)
(-28.980797 1.3279632e-25 2.2016637)
(-30.443648 -2.7348341e-16 2.2721932)
(-31.898211 -2.7685915e-16 2.3384719)
(-33.347022 2.8025487e-16 2.4003439)
(-34.786992 2.8350812e-16 2.4583387)
(-36.218467 1.7695601e-19 2.5117368)
(-37.639252 2.8963023e-16 2.5611297)
(-39.053398 -8.6666847e-34 2.6059959)
(-40.465406 -8.733107e-21 2.6471726)
(-41.88619 2.980459e-16 2.6842894)
(-43.314184 -3.0071607e-16 2.7183139)
(-44.749047 -6.0663334e-16 2.7483509)
(-46.18613 3.0567954e-16 2.7743817)
(-47.630584 1.5900657e-25 2.7972313)
(-49.085724 -1.7123587e-25 2.8154345)
(-50.542104 3.9446808e-20 2.8291895)
(-52.001887 2.0070211e-19 2.8384197)
(-53.47046 3.1788728e-16 2.8433163)
(-54.955529 3.2009857e-16 2.8435989)
(-56.456919 -1.8358394e-25 2.8393604)
(-57.973508 2.9177151e-21 2.8298754)
(-59.506556 -3.2663182e-16 2.8155976)
(-61.060317 1.1021845e-19 2.7958728)
(-62.629705 -1.0793752e-19 2.7702969)
(-64.210334 3.3306215e-16 2.738422)
(-65.801231 3.3517602e-16 2.7002853)
(-67.407366 3.3740624e-16 2.6547203)
(-69.032505 -1.1599899e-19 2.6022342)
(-70.68896 3.4131e-16 2.5420471)
(-72.37878 -1.1288071e-19 2.4739626)
(-74.095179 -1.248514e-19 2.3977283)
(-75.833025 -6.1210095e-20 2.3130215)
(-77.587054 1.7510254e-16 2.2181488)
(-79.34428 -5.7906552e-20 2.1125601)
(-81.105619 3.5480484e-16 1.9979464)
(-82.891962 -1.7835803e-16 1.872613)
(-84.714878 7.3917863e-20 1.7347214)
(-86.578153 1.8039302e-16 1.5842503)
(-88.482521 -1.8136331e-16 1.4202366)
(-90.42618 2.3047973e-25 1.2417373)
(-92.402575 -1.8291903e-16 1.0480944)
(-94.404343 -9.6078983e-20 0.83923504)
(-96.42803 -1.0014174e-19 0.61291008)
(-98.464553 9.2766532e-17 0.37144228)
(-100.51877 -9.3187664e-17 0.1165669)
(-102.58973 5.780663e-20 -0.15545128)
(-104.69208 6.473537e-20 -0.47331976)
(-106.83414 -5.9999009e-20 -0.8174467)
(-109.01301 -5.914972e-18 -1.1826836)
(-111.22263 -4.5089279e-20 -1.5825794)
(-113.46435 -2.1062892e-23 -2.0158636)
(-115.75736 -1.172835e-20 -2.4404068)
(-118.09866 9.6510646e-17 -2.9064961)
(-120.48664 3.2379711e-20 -3.4078616)
(-122.90791 2.7573071e-20 -3.9475842)
(-125.3727 -1.4478993e-20 -4.5291466)
(-128.8596 -5.973854e-21 -5.1840358)
)
;
    }
    inlet
    {
        type            calculated;
        value           uniform (0 0 0);
    }
    outlet
    {
        type            calculated;
        value           uniform (0 0 0);
    }
    back
    {
        type            empty;
    }
    front
    {
        type            empty;
    }
}


// ************************************************************************* //
