/*--------------------------------*- C++ -*----------------------------------*\
  =========                 |
  \\      /  F ield         | OpenFOAM: The Open Source CFD Toolbox
   \\    /   O peration     | Website:  https://openfoam.org
    \\  /    A nd           | Version:  8
     \\/     M anipulation  |
\*---------------------------------------------------------------------------*/
FoamFile
{
    version     2.0;
    format      ascii;
    class       volScalarField;
    location    "0.129988";
    object      yPlus;
}
// * * * * * * * * * * * * * * * * * * * * * * * * * * * * * * * * * * * * * //

dimensions      [0 0 0 0 0 0 0];

internalField   uniform 0;

boundaryField
{
    aerofoil
    {
        type            calculated;
        value           nonuniform List<scalar> 
300
(
124.94465
124.33441
123.65301
123.04227
122.46541
121.93576
121.44589
120.99556
120.5838
120.21733
119.88772
119.58941
119.32896
119.09593
118.89743
118.73472
118.59538
118.48577
118.39575
118.33269
118.29717
118.28431
118.30059
118.32633
118.38196
118.45519
118.54948
118.669
118.79615
118.9448
119.10865
119.28316
119.45864
119.64075
119.84311
120.07202
120.32694
120.61316
120.93757
121.30974
121.73554
122.20537
122.71189
123.26851
123.82493
124.40197
124.97204
125.56551
126.17614
126.79668
127.43347
128.03374
128.5659
129.00003
129.32053
129.55623
129.75952
130.05717
130.37368
131.10853
132.69122
135.33781
138.65142
142.19339
145.57508
148.47791
150.85148
152.05634
151.49225
148.59662
142.25595
131.4765
115.47537
92.983311
64.986132
132.49535
143.47136
143.90643
144.87374
145.08046
145.19876
145.01616
144.7767
144.39964
143.97523
143.48531
142.95367
142.37672
141.76628
141.1199
140.44014
139.73599
139.02028
138.29667
137.573
136.82989
136.07226
135.326
134.58504
133.83908
133.10085
132.36736
131.64673
130.9279
130.21477
129.4971
128.77448
128.0459
127.30614
126.55038
125.77704
124.98242
124.16813
123.32905
122.4638
121.56456
120.6218
119.61032
118.52509
117.35829
116.1272
114.83702
113.50655
112.15851
110.77967
109.22345
107.20157
104.43103
100.84043
95.999342
90.036595
83.818941
78.262181
76.832181
83.876857
96.454844
107.97807
116.06368
120.69456
122.85829
123.83988
124.28383
124.53355
124.69502
124.81799
124.95225
125.05057
125.15527
125.25765
125.26429
131.21384
131.08827
131.22562
131.29121
131.40154
131.50354
131.61139
131.71261
131.81734
131.93301
132.05768
132.19463
132.35574
132.51541
132.68319
132.85517
133.01832
133.17888
133.33187
133.48577
133.64643
133.81369
134.00066
134.20004
134.43435
134.69217
134.97713
135.28784
135.61533
135.96306
136.32678
136.69319
137.05591
137.41508
137.7857
138.17022
138.56835
138.99584
139.45731
139.91729
140.37132
140.78975
141.17052
141.50749
141.76163
141.9603
142.08201
142.13212
142.11696
142.02728
141.87438
141.67147
141.41977
141.13615
140.84863
140.58985
140.39518
140.26461
140.07461
139.77753
139.28353
138.56032
137.52881
136.03144
133.89117
130.88173
126.56478
120.47873
111.82456
99.239512
81.564488
57.231701
32.558964
10.67182
39.202229
10.774835
26.291922
27.078332
31.480931
34.71989
38.149998
41.2376
44.161901
46.886875
49.4546
51.881721
54.174911
56.342052
58.392451
60.334276
62.174703
63.935017
65.628783
67.260475
68.834126
70.355233
71.830835
73.259914
74.64675
75.990318
77.297947
78.574177
79.831967
81.069803
82.289346
83.486621
84.665959
85.83288
86.979416
88.108189
89.22315
90.330957
91.431988
92.525497
93.611627
94.694931
95.771762
96.838862
97.895381
98.945739
99.991164
101.04018
102.09482
103.15002
104.20115
105.24514
106.27499
107.29084
108.30747
109.3306
110.36144
111.40019
112.44616
113.49551
114.54347
115.58933
116.62609
117.65799
118.68317
119.70942
120.74272
121.78076
122.82235
123.86623
124.92261
125.99157
127.07292
128.16094
129.2545
130.47731
)
;
    }
    inlet
    {
        type            calculated;
        value           uniform 0;
    }
    outlet
    {
        type            calculated;
        value           uniform 0;
    }
    back
    {
        type            empty;
    }
    front
    {
        type            empty;
    }
}


// ************************************************************************* //
