/*--------------------------------*- C++ -*----------------------------------*\
  =========                 |
  \\      /  F ield         | OpenFOAM: The Open Source CFD Toolbox
   \\    /   O peration     | Website:  https://openfoam.org
    \\  /    A nd           | Version:  8
     \\/     M anipulation  |
\*---------------------------------------------------------------------------*/
FoamFile
{
    version     2.0;
    format      ascii;
    class       volScalarField;
    location    "0.199992";
    object      alphat;
}
// * * * * * * * * * * * * * * * * * * * * * * * * * * * * * * * * * * * * * //

dimensions      [1 -1 -1 0 0 0 0];

internalField   nonuniform List<scalar> 
20000
(
0.0010823974
0.0025099622
0.0031814094
0.00322009
0.002523493
0.00074966901
1.1893655e-06
6.1504267e-09
5.6587738e-09
5.6504711e-09
5.5335838e-09
5.5678604e-09
5.5003448e-09
5.5441291e-09
5.5496286e-09
5.5938728e-09
5.629153e-09
5.6893496e-09
5.7542876e-09
5.8408629e-09
5.9425758e-09
6.0695629e-09
6.2136627e-09
6.3818334e-09
6.5702808e-09
6.781512e-09
7.0107319e-09
7.2521629e-09
7.4962094e-09
7.7331635e-09
7.9533923e-09
8.1497151e-09
8.3172338e-09
8.4539123e-09
8.5590503e-09
8.6369471e-09
8.6939253e-09
8.7260316e-09
8.7375012e-09
8.7384332e-09
8.7283856e-09
8.7101849e-09
8.6891906e-09
8.6717694e-09
8.6519855e-09
8.6144032e-09
8.5577373e-09
8.5234142e-09
8.4981238e-09
8.474879e-09
0.0010625902
0.0024483251
0.0030880385
0.0030923163
0.0023411129
0.00061631419
3.6331296e-07
6.0411233e-09
5.6193361e-09
5.6154865e-09
5.5016289e-09
5.5378845e-09
5.4714416e-09
5.5163572e-09
5.5230452e-09
5.5684485e-09
5.6049591e-09
5.6662943e-09
5.7331259e-09
5.8234008e-09
5.9313027e-09
6.0627759e-09
6.2123586e-09
6.3828404e-09
6.5767537e-09
6.7930158e-09
7.0269277e-09
7.271968e-09
7.5181239e-09
7.7553606e-09
7.9742181e-09
8.1679224e-09
8.3322288e-09
8.4653919e-09
8.5671936e-09
8.6445074e-09
8.6990951e-09
8.7282481e-09
8.7375462e-09
8.7389898e-09
8.7282177e-09
8.7095478e-09
8.6885548e-09
8.6713061e-09
8.6505812e-09
8.6088913e-09
8.5534968e-09
8.5203785e-09
8.496982e-09
8.4746973e-09
0.0010538887
0.0024021643
0.0030012282
0.0029590316
0.0021410977
0.0004851456
1.1416693e-07
5.9674423e-09
5.5868306e-09
5.5852706e-09
5.4745772e-09
5.5119285e-09
5.4465843e-09
5.4921424e-09
5.5000283e-09
5.5463275e-09
5.5842442e-09
5.647771e-09
5.7194458e-09
5.8159931e-09
5.9279932e-09
6.0623711e-09
6.213139e-09
6.3892855e-09
6.5882171e-09
6.8098484e-09
7.0485483e-09
7.2971585e-09
7.5451575e-09
7.782252e-09
7.9991768e-09
8.1896423e-09
8.3500859e-09
8.4790307e-09
8.5770145e-09
8.6535144e-09
8.7052176e-09
8.7309776e-09
8.7386219e-09
8.7400692e-09
8.7283094e-09
8.7091584e-09
8.6881572e-09
8.6711041e-09
8.6490127e-09
8.6011967e-09
8.5478375e-09
8.5153562e-09
8.495212e-09
8.477764e-09
0.0010438579
0.002354107
0.0029144479
0.0028326969
0.001941849
0.0003725393
4.3655753e-08
5.9122471e-09
5.5568653e-09
5.5583631e-09
5.4508672e-09
5.4896055e-09
5.4256075e-09
5.4719715e-09
5.481114e-09
5.5287062e-09
5.5695938e-09
5.638218e-09
5.7143387e-09
5.8135033e-09
5.9273537e-09
6.0632052e-09
6.219986e-09
6.4014174e-09
6.6062706e-09
6.8334872e-09
7.0770118e-09
7.3289691e-09
7.5783575e-09
7.8146531e-09
8.0288647e-09
8.2153139e-09
8.3711409e-09
8.4951491e-09
8.5891277e-09
8.6639227e-09
8.7114813e-09
8.7338812e-09
8.7403564e-09
8.7413063e-09
8.7284302e-09
8.7086901e-09
8.6876839e-09
8.6708655e-09
8.6470977e-09
8.592823e-09
8.5415302e-09
8.5114631e-09
8.4945995e-09
8.4794752e-09
0.0010344238
0.002306886
0.0028254632
0.0027028913
0.0017419848
0.00027397738
2.0956215e-08
5.8720275e-09
5.5324054e-09
5.5365522e-09
5.4320923e-09
5.4717876e-09
5.4093996e-09
5.4564338e-09
5.4677775e-09
5.5189888e-09
5.5637262e-09
5.6347235e-09
5.713091e-09
5.813526e-09
5.9300849e-09
6.070805e-09
6.2323664e-09
6.419767e-09
6.6306252e-09
6.8635975e-09
7.1119128e-09
7.3669495e-09
7.617211e-09
7.8520238e-09
8.0627587e-09
8.2444504e-09
8.39493e-09
8.513355e-09
8.6034136e-09
8.6750891e-09
8.7182713e-09
8.7372552e-09
8.7426441e-09
8.7426126e-09
8.7286558e-09
8.7082788e-09
8.6872835e-09
8.6706661e-09
8.64475e-09
8.5836237e-09
8.5346536e-09
8.5074041e-09
8.4943019e-09
8.4815745e-09
0.0010253908
0.0022616331
0.0027381692
0.0025741854
0.0015449397
0.00018706552
1.2580951e-08
5.8405844e-09
5.5125734e-09
5.5187766e-09
5.4175982e-09
5.4571534e-09
5.3986966e-09
5.4480567e-09
5.4622008e-09
5.5152538e-09
5.5618985e-09
5.6341188e-09
5.7136712e-09
5.8175369e-09
5.9383908e-09
6.0836074e-09
6.2510306e-09
6.444536e-09
6.6617726e-09
6.9006256e-09
7.1536362e-09
7.4113863e-09
7.6619077e-09
7.8944651e-09
8.1009024e-09
8.2770613e-09
8.4214176e-09
8.5336372e-09
8.6198592e-09
8.6870508e-09
8.7255245e-09
8.7412107e-09
8.7454606e-09
8.7437886e-09
8.7289377e-09
8.7078686e-09
8.6869003e-09
8.6703648e-09
8.6417325e-09
8.5748471e-09
8.5278581e-09
8.5034678e-09
8.4939264e-09
8.4837595e-09
0.0010169461
0.0022184701
0.002657435
0.0024485955
0.0013532674
0.0001116003
9.095436e-09
5.815564e-09
5.5029009e-09
5.5048488e-09
5.4049416e-09
5.4437587e-09
5.3939811e-09
5.4445924e-09
5.4603204e-09
5.5143038e-09
5.562028e-09
5.6362516e-09
5.7193643e-09
5.8267737e-09
5.9520976e-09
6.1026345e-09
6.275984e-09
6.4759954e-09
6.6998173e-09
6.9446296e-09
7.2021579e-09
7.4621639e-09
7.7122481e-09
7.9417232e-09
8.1430265e-09
8.3128689e-09
8.4503065e-09
8.5557714e-09
8.6381246e-09
8.6997641e-09
8.7332585e-09
8.745724e-09
8.7487935e-09
8.7450682e-09
8.7292843e-09
8.7074911e-09
8.6865653e-09
8.6698802e-09
8.6377788e-09
8.5669063e-09
8.5216145e-09
8.4992186e-09
8.4927541e-09
8.4863519e-09
0.0010088404
0.0021761465
0.0025769563
0.0023236065
0.0011691755
5.345265e-05
7.5077619e-09
5.796318e-09
5.4923275e-09
5.4935245e-09
5.3929678e-09
5.4349029e-09
5.3924354e-09
5.4434627e-09
5.4602492e-09
5.5156771e-09
5.5661418e-09
5.6432804e-09
5.7297732e-09
5.8413177e-09
5.9716283e-09
6.1277319e-09
6.307533e-09
6.5143551e-09
6.7450055e-09
6.9957955e-09
7.2575771e-09
7.5192782e-09
7.7681376e-09
7.9936458e-09
8.188952e-09
8.3516613e-09
8.4813776e-09
8.5797063e-09
8.6579666e-09
8.7131376e-09
8.741389e-09
8.7507109e-09
8.7525742e-09
8.7467488e-09
8.7296893e-09
8.7071455e-09
8.6862691e-09
8.6691042e-09
8.6326475e-09
8.5599785e-09
8.5162157e-09
8.4951584e-09
8.490141e-09
8.4894552e-09
0.0010010195
0.0021345108
0.0024973527
0.0021976995
0.00099539051
1.9801112e-05
6.7350812e-09
5.7848893e-09
5.482765e-09
5.483123e-09
5.3837474e-09
5.4275252e-09
5.3922747e-09
5.4447627e-09
5.4639146e-09
5.5215862e-09
5.5748086e-09
5.6550246e-09
5.7454829e-09
5.8614402e-09
5.9970862e-09
6.1592403e-09
6.3458396e-09
6.5598233e-09
6.797485e-09
7.0542033e-09
7.3198741e-09
7.582605e-09
7.8293701e-09
8.0499806e-09
8.2383991e-09
8.3931169e-09
8.5143599e-09
8.6055131e-09
8.6789695e-09
8.7269727e-09
8.7498097e-09
8.7563367e-09
8.756657e-09
8.7486413e-09
8.7301452e-09
8.7068457e-09
8.6860153e-09
8.6679738e-09
8.626288e-09
8.5539077e-09
8.5113805e-09
8.4913934e-09
8.4868547e-09
8.4926551e-09
0.00099335469
0.002093394
0.0024182678
0.0020694875
0.00083360556
6.0001746e-06
6.3572651e-09
5.7721601e-09
5.4800605e-09
5.4790535e-09
5.3798355e-09
5.42342e-09
5.3961553e-09
5.4505356e-09
5.4720084e-09
5.531927e-09
5.5882757e-09
5.6718749e-09
5.7665215e-09
5.8872929e-09
6.0286998e-09
6.1973005e-09
6.3911276e-09
6.6125904e-09
6.8574126e-09
7.1199254e-09
7.3890134e-09
7.6520022e-09
7.8957255e-09
8.1104587e-09
8.2910558e-09
8.4368828e-09
8.549034e-09
8.6333847e-09
8.700617e-09
8.7410635e-09
8.7584688e-09
8.7627276e-09
8.7608739e-09
8.7505917e-09
8.7306398e-09
8.7065969e-09
8.6858006e-09
8.6664674e-09
8.6193295e-09
8.548107e-09
8.506832e-09
8.4878143e-09
8.4836202e-09
8.495581e-09
0.00098581906
0.0020530742
0.0023397154
0.0019411574
0.00068585835
1.6707267e-06
6.1617447e-09
5.7659588e-09
5.4830279e-09
5.4821169e-09
5.384265e-09
5.4288656e-09
5.4047853e-09
5.46068e-09
5.4846377e-09
5.5470121e-09
5.6066707e-09
5.6939093e-09
5.7931181e-09
5.9190626e-09
6.0666405e-09
6.2421322e-09
6.4435821e-09
6.6728292e-09
6.9248988e-09
7.1929782e-09
7.4648964e-09
7.7272681e-09
7.9669264e-09
8.1747449e-09
8.3465353e-09
8.4825793e-09
8.585257e-09
8.6632036e-09
8.7224891e-09
8.7552429e-09
8.7675498e-09
8.7696377e-09
8.7652085e-09
8.7526119e-09
8.7311537e-09
8.7064022e-09
8.6856249e-09
8.6645934e-09
8.6119569e-09
8.5424146e-09
8.5024577e-09
8.4843969e-09
8.4805207e-09
8.4981836e-09
0.00097839205
0.0020139007
0.0022616325
0.0018104652
0.00055377524
4.8187384e-07
6.0569593e-09
5.7624219e-09
5.4868322e-09
5.4886072e-09
5.3933786e-09
5.4396182e-09
5.4177647e-09
5.4752169e-09
5.5018533e-09
5.5668754e-09
5.6301329e-09
5.7213023e-09
5.825409e-09
5.9569234e-09
6.1111073e-09
6.293927e-09
6.5034024e-09
6.7407009e-09
7.0000337e-09
7.2733425e-09
7.5473838e-09
7.8081587e-09
8.042644e-09
8.2424382e-09
8.4043988e-09
8.5298763e-09
8.6230263e-09
8.6943171e-09
8.7444023e-09
8.7693565e-09
8.7773261e-09
8.7768564e-09
8.7695897e-09
8.7546312e-09
8.731664e-09
8.7062572e-09
8.685483e-09
8.6623562e-09
8.6042139e-09
8.5367646e-09
8.4983031e-09
8.4812072e-09
8.4775941e-09
8.500606e-09
0.00097139615
0.0019768052
0.0021856228
0.001675517
0.0004388922
1.5637078e-07
5.9987474e-09
5.762286e-09
5.4947552e-09
5.4979749e-09
5.4065617e-09
5.4541114e-09
5.4350532e-09
5.4942496e-09
5.5237868e-09
5.5916761e-09
5.6587855e-09
5.7541832e-09
5.8635505e-09
6.0010381e-09
6.1622744e-09
6.3528769e-09
6.5707662e-09
6.816342e-09
7.0828662e-09
7.3609502e-09
7.6362849e-09
7.8943722e-09
8.1224737e-09
8.313062e-09
8.4641954e-09
8.57856e-09
8.6624403e-09
8.7259711e-09
8.7660756e-09
8.783475e-09
8.7879004e-09
8.7841606e-09
8.7740003e-09
8.7566249e-09
8.732138e-09
8.7061523e-09
8.6853521e-09
8.6597159e-09
8.5960314e-09
8.5311371e-09
8.4944334e-09
8.478373e-09
8.4750015e-09
8.5029605e-09
0.00096479066
0.0019415508
0.002118253
0.0015362125
0.00034112978
6.0593962e-08
5.9686936e-09
5.766493e-09
5.5061452e-09
5.5118185e-09
5.4237195e-09
5.4730813e-09
5.4568589e-09
5.5179191e-09
5.5505509e-09
5.6215059e-09
5.6927475e-09
5.7926786e-09
5.9076872e-09
6.0515773e-09
6.2203322e-09
6.4191765e-09
6.645855e-09
6.8998758e-09
7.1734188e-09
7.4556931e-09
7.7313595e-09
7.9855379e-09
8.2059264e-09
8.3860972e-09
8.5255438e-09
8.6285632e-09
8.7034253e-09
8.7572821e-09
8.7873179e-09
8.7980098e-09
8.7988788e-09
8.7915319e-09
8.7784061e-09
8.7585544e-09
8.7325299e-09
8.7060716e-09
8.6851724e-09
8.6565602e-09
8.5873479e-09
8.5254998e-09
8.4908669e-09
8.4760262e-09
8.4728509e-09
8.5053628e-09
0.00095842511
0.0019066014
0.0020493055
0.0013917767
0.0002531662
2.860949e-08
5.956211e-09
5.7755388e-09
5.5218441e-09
5.5294688e-09
5.4453447e-09
5.4964518e-09
5.4832297e-09
5.5462883e-09
5.5822117e-09
5.656463e-09
5.7321112e-09
5.8369073e-09
5.9579606e-09
6.1087045e-09
6.2854586e-09
6.4930073e-09
6.7288243e-09
6.9913931e-09
7.2716703e-09
7.5574129e-09
7.8323012e-09
8.0811957e-09
8.2924401e-09
8.4610574e-09
8.5882129e-09
8.6798857e-09
8.745114e-09
8.7878264e-09
8.8080366e-09
8.8133626e-09
8.8099201e-09
8.7988877e-09
8.782772e-09
8.7604013e-09
8.7327884e-09
8.7059957e-09
8.6848296e-09
8.6526493e-09
8.5781855e-09
8.5198587e-09
8.4876176e-09
8.4742226e-09
8.471494e-09
8.5079333e-09
0.0009524923
0.0018725908
0.0019818446
0.0012446421
0.00017490019
1.6660013e-08
5.9550865e-09
5.7886664e-09
5.5415857e-09
5.5522179e-09
5.4712972e-09
5.5242892e-09
5.5142042e-09
5.5793927e-09
5.6188312e-09
5.6966048e-09
5.7769768e-09
5.8870013e-09
6.0145318e-09
6.1726079e-09
6.3578572e-09
6.5745687e-09
6.8198328e-09
7.0909675e-09
7.3775675e-09
7.6659002e-09
7.9387235e-09
8.1807923e-09
8.3814464e-09
8.5375941e-09
8.6521201e-09
8.7323393e-09
8.7863642e-09
8.8173822e-09
8.82884e-09
8.8290627e-09
8.8209066e-09
8.806181e-09
8.7870657e-09
8.7621432e-09
8.7329444e-09
8.7059068e-09
8.6841546e-09
8.6475717e-09
8.5687744e-09
8.5142649e-09
8.4846972e-09
8.4729174e-09
8.4709355e-09
8.5107841e-09
0.00094693709
0.0018391907
0.0019145523
0.0010983476
0.00010700129
1.1635384e-08
5.961445e-09
5.8062342e-09
5.5655999e-09
5.5790158e-09
5.5016094e-09
5.5565703e-09
5.5497835e-09
5.6172651e-09
5.6604529e-09
5.7420229e-09
5.8274567e-09
5.9430993e-09
6.0775648e-09
6.2434725e-09
6.4377253e-09
6.6640496e-09
6.9190209e-09
7.1986408e-09
7.4910097e-09
7.7808748e-09
8.0501402e-09
8.2837118e-09
8.4724857e-09
8.6155547e-09
8.7171612e-09
8.7850728e-09
8.8263569e-09
8.8459252e-09
8.8502436e-09
8.8446519e-09
8.8317433e-09
8.8133569e-09
8.7912486e-09
8.7637439e-09
8.733187e-09
8.7057908e-09
8.6829552e-09
8.6408274e-09
8.5595584e-09
8.5088085e-09
8.4820141e-09
8.4716845e-09
8.4707856e-09
8.5139799e-09
0.00094167386
0.0018052274
0.001847017
0.00096215064
5.4640428e-05
9.307754e-09
5.9740513e-09
5.8280494e-09
5.5939374e-09
5.6101092e-09
5.5362306e-09
5.5932834e-09
5.5899961e-09
5.6599479e-09
5.7071675e-09
5.7928079e-09
5.8836812e-09
6.0053647e-09
6.1472496e-09
6.3215116e-09
6.5252852e-09
6.7616539e-09
7.0265297e-09
7.3144342e-09
7.6118471e-09
7.9019687e-09
8.1659662e-09
8.3893626e-09
8.5653159e-09
8.6948657e-09
8.7828253e-09
8.8367293e-09
8.8648877e-09
8.8742439e-09
8.8716885e-09
8.8599722e-09
8.8423529e-09
8.820366e-09
8.7952665e-09
8.7651779e-09
8.7335833e-09
8.7056407e-09
8.6810839e-09
8.6321311e-09
8.550985e-09
8.5034947e-09
8.4793117e-09
8.4705867e-09
8.4708205e-09
8.5175331e-09
0.00093634034
0.0017688759
0.0017774725
0.00083443599
2.2648626e-05
8.152691e-09
5.991548e-09
5.853903e-09
5.6265171e-09
5.6453476e-09
5.5751765e-09
5.6344787e-09
5.6349063e-09
5.7075297e-09
5.7590616e-09
5.8491013e-09
5.945802e-09
6.0739685e-09
6.2237772e-09
6.4069361e-09
6.6207528e-09
6.8675722e-09
7.1424753e-09
7.4383282e-09
7.7398568e-09
8.0287055e-09
8.2855573e-09
8.4973079e-09
8.659888e-09
8.7751473e-09
8.847664e-09
8.8867173e-09
8.902174e-09
8.9027893e-09
8.8926294e-09
8.8749058e-09
8.8526681e-09
8.8271513e-09
8.7990558e-09
8.7665019e-09
8.7336848e-09
8.7054659e-09
8.6785039e-09
8.6218853e-09
8.5430776e-09
8.4983023e-09
8.4765133e-09
8.4703807e-09
8.4734375e-09
8.5214155e-09
0.00093087205
0.0017304496
0.0017050485
0.00071579187
7.96284e-06
7.55873e-09
6.0141401e-09
5.8840113e-09
5.6632433e-09
5.6848971e-09
5.6185562e-09
5.6802372e-09
5.6846077e-09
5.7601033e-09
5.8162723e-09
5.9110322e-09
6.013982e-09
6.1491018e-09
6.3073658e-09
6.4999874e-09
6.7243696e-09
6.9820062e-09
7.2669626e-09
7.5702598e-09
7.8747267e-09
8.1605055e-09
8.4083058e-09
8.6073687e-09
8.7560178e-09
8.8550619e-09
8.9107681e-09
8.9348054e-09
8.9392455e-09
8.9306554e-09
8.9129918e-09
8.8893573e-09
8.8626304e-09
8.8336563e-09
8.8025784e-09
8.7678354e-09
8.733681e-09
8.705274e-09
8.6752992e-09
8.6109135e-09
8.5354964e-09
8.4934707e-09
8.4739446e-09
8.4703375e-09
8.4953911e-09
8.5255166e-09
0.00092506422
0.0016891187
0.0016280013
0.0006064042
2.5820085e-06
7.2491592e-09
6.0416098e-09
5.9183684e-09
5.7042438e-09
5.7287875e-09
5.6664224e-09
5.7306333e-09
5.7391963e-09
5.8177953e-09
5.8789232e-09
5.9787706e-09
6.0883936e-09
6.2309579e-09
6.3982364e-09
6.6009073e-09
6.8363746e-09
7.1051458e-09
7.4000639e-09
7.7100917e-09
8.0160307e-09
8.2967218e-09
8.5337684e-09
8.7195438e-09
8.8526622e-09
8.9333705e-09
8.9715166e-09
8.9818754e-09
8.9755946e-09
8.9576557e-09
8.932606e-09
8.9032492e-09
8.8721853e-09
8.8398257e-09
8.8058344e-09
8.7691698e-09
8.7337201e-09
8.7050561e-09
8.6715885e-09
8.5995444e-09
8.528216e-09
8.4894906e-09
8.4728029e-09
8.4703574e-09
8.5057529e-09
8.5298811e-09
0.00091879549
0.0016443942
0.0015390096
0.00050701741
8.4119201e-07
7.0903608e-09
6.0737994e-09
5.9570786e-09
5.7495361e-09
5.777088e-09
5.7188511e-09
5.7857682e-09
5.7988036e-09
5.8807352e-09
5.9471703e-09
6.0524581e-09
6.1692185e-09
6.3197625e-09
6.496653e-09
6.7099841e-09
6.9570399e-09
7.2371971e-09
7.541827e-09
7.8576066e-09
8.163233e-09
8.4367321e-09
8.6617622e-09
8.8335532e-09
8.9481306e-09
9.009075e-09
9.0302629e-09
9.0282999e-09
9.0106332e-09
8.9835893e-09
8.9513897e-09
8.9165129e-09
8.8812762e-09
8.8456128e-09
8.8088565e-09
8.7703598e-09
8.7337501e-09
8.7047455e-09
8.6673661e-09
8.5881146e-09
8.5213596e-09
8.48624e-09
8.4724439e-09
8.470302e-09
8.4969134e-09
8.536099e-09
0.00091235732
0.0015978223
0.0014422681
0.00041911494
2.9408447e-07
7.0131695e-09
6.1105269e-09
6.0000038e-09
5.7991369e-09
5.829842e-09
5.775951e-09
5.8457542e-09
5.8636104e-09
5.9490492e-09
6.0211329e-09
6.1322654e-09
6.2566535e-09
6.4157582e-09
6.6028968e-09
6.8275129e-09
7.0866373e-09
7.3783415e-09
7.6922383e-09
8.0124717e-09
8.3157171e-09
8.580054e-09
8.7922791e-09
8.9477969e-09
9.0412365e-09
9.0817205e-09
9.0881934e-09
9.0730405e-09
9.0442613e-09
9.0083461e-09
8.9692507e-09
8.9290912e-09
8.8898489e-09
8.8509757e-09
8.8116817e-09
8.7712114e-09
8.7337551e-09
8.704184e-09
8.662334e-09
8.5771212e-09
8.5150889e-09
8.4830365e-09
8.4723027e-09
8.4708787e-09
8.497901e-09
8.553938e-09
0.00090560767
0.0015496061
0.0013374564
0.00034029653
1.1586433e-07
6.9819488e-09
6.1517572e-09
6.0473382e-09
5.8531974e-09
5.8872256e-09
5.8378475e-09
5.9107047e-09
5.9336302e-09
6.0228336e-09
6.1009465e-09
6.2183595e-09
6.3509396e-09
6.5192458e-09
6.7173052e-09
6.9538387e-09
7.2254634e-09
7.5287483e-09
7.8512056e-09
8.1742397e-09
8.4728601e-09
8.7264386e-09
8.925013e-09
9.0603873e-09
9.1309324e-09
9.1524226e-09
9.1444651e-09
9.1159504e-09
9.0762807e-09
9.031821e-09
8.9861253e-09
8.9409367e-09
8.8978564e-09
8.8558766e-09
8.8143985e-09
8.7715937e-09
8.7337479e-09
8.7031512e-09
8.655832e-09
8.5669935e-09
8.510096e-09
8.4818188e-09
8.4722299e-09
8.4727566e-09
8.5018741e-09
8.5560612e-09
0.00089869171
0.0014999201
0.0012285068
0.00026787917
5.2917279e-08
6.978313e-09
6.1977298e-09
6.0992468e-09
5.9118394e-09
5.9492555e-09
5.9045867e-09
5.9806405e-09
6.0088621e-09
6.1021848e-09
6.1867675e-09
6.3109863e-09
6.4523675e-09
6.6305584e-09
6.8402317e-09
7.0893136e-09
7.3738053e-09
7.6885312e-09
8.0185186e-09
8.3423544e-09
8.63412e-09
8.8758227e-09
9.0581336e-09
9.1700243e-09
9.2170679e-09
9.2218851e-09
9.1983483e-09
9.1567719e-09
9.1065922e-09
9.0539357e-09
9.0019604e-09
8.9520096e-09
8.9052595e-09
8.8602931e-09
8.8170799e-09
8.7717343e-09
8.733676e-09
8.7013912e-09
8.6470705e-09
8.5582245e-09
8.5063174e-09
8.4816043e-09
8.472669e-09
8.4762678e-09
8.5076305e-09
8.5447511e-09
0.00089177455
0.0014475953
0.0011256992
0.00020128359
2.8496833e-08
6.9913943e-09
6.247965e-09
6.155511e-09
5.9749391e-09
6.0159184e-09
5.9761584e-09
6.0556133e-09
6.0894443e-09
6.1872779e-09
6.2788432e-09
6.4104394e-09
6.5612961e-09
6.7500949e-09
6.9720876e-09
7.2343097e-09
7.531957e-09
7.8577439e-09
8.1938512e-09
8.5162165e-09
8.7991245e-09
9.0279534e-09
9.189589e-09
9.2755123e-09
9.3009975e-09
9.2888886e-09
9.2497025e-09
9.1953809e-09
9.1350896e-09
9.0746286e-09
9.0167203e-09
8.9622745e-09
8.9120341e-09
8.8642795e-09
8.8189434e-09
8.7717808e-09
8.7335638e-09
8.6987472e-09
8.6359398e-09
8.550642e-09
8.5028174e-09
8.4815515e-09
8.4739218e-09
8.4821639e-09
8.5142024e-09
8.541631e-09
0.00088523391
0.0013959321
0.0010202653
0.00013980148
1.8085808e-08
7.0158404e-09
6.3027218e-09
6.2162394e-09
6.0425564e-09
6.0872327e-09
6.0526185e-09
6.1357264e-09
6.1755791e-09
6.2783794e-09
6.3774975e-09
6.5171031e-09
6.6781232e-09
6.878272e-09
7.1132966e-09
7.3892214e-09
7.7001707e-09
8.036329e-09
8.3767511e-09
8.695247e-09
8.9676948e-09
9.1811699e-09
9.3177883e-09
9.3768049e-09
9.3830502e-09
9.3528156e-09
9.2982833e-09
9.2316524e-09
9.1617029e-09
9.0938595e-09
9.0303826e-09
8.9717012e-09
8.9181776e-09
8.8680616e-09
8.8195247e-09
8.7718167e-09
8.7334004e-09
8.6951973e-09
8.623689e-09
8.5433869e-09
8.4993585e-09
8.481413e-09
8.4758356e-09
8.5034153e-09
8.521345e-09
8.5446713e-09
0.00087958921
0.0013480606
0.00091555476
8.6098025e-05
1.3200129e-08
7.0478313e-09
6.3617403e-09
6.2812467e-09
6.1146297e-09
6.1632316e-09
6.1341405e-09
6.221252e-09
6.267596e-09
6.3758584e-09
6.4831192e-09
6.6313737e-09
6.8032906e-09
7.0155595e-09
7.2643313e-09
7.5544618e-09
7.878661e-09
8.2241271e-09
8.566675e-09
8.8789487e-09
9.1396727e-09
9.3332456e-09
9.4413015e-09
9.4752431e-09
9.4620185e-09
9.4134475e-09
9.3439628e-09
9.265502e-09
9.1863809e-09
9.111608e-09
9.0429346e-09
8.980271e-09
8.9237075e-09
8.8718232e-09
8.8196726e-09
8.7717981e-09
8.7331055e-09
8.6907177e-09
8.6104894e-09
8.5370278e-09
8.4982096e-09
8.4827631e-09
8.4786994e-09
8.5150716e-09
8.5360012e-09
8.5481138e-09
0.00087429784
0.0012986955
0.0008123483
4.5154615e-05
1.074708e-08
7.0857282e-09
6.4249182e-09
6.3507286e-09
6.1914128e-09
6.2443049e-09
6.2211424e-09
6.312606e-09
6.3659027e-09
6.4800674e-09
6.5961049e-09
6.7537029e-09
6.937265e-09
7.1624469e-09
7.4256727e-09
7.7304248e-09
8.0675531e-09
8.4208428e-09
8.7630527e-09
9.0669588e-09
9.3139839e-09
9.4821024e-09
9.5596475e-09
9.5713964e-09
9.5371047e-09
9.4705518e-09
9.3866219e-09
9.2968723e-09
9.2091039e-09
9.1278726e-09
9.0543666e-09
8.987988e-09
8.9286911e-09
8.8747319e-09
8.8196766e-09
8.771641e-09
8.7324925e-09
8.6850427e-09
8.5971321e-09
8.5311964e-09
8.497688e-09
8.4850199e-09
8.4825832e-09
8.5089944e-09
8.5525105e-09
8.5516437e-09
0.00086966572
0.0012483364
0.00071257476
2.0018244e-05
9.4601766e-09
7.1297782e-09
6.4929143e-09
6.4252465e-09
6.2734957e-09
6.3309586e-09
6.314085e-09
6.4101775e-09
6.4708643e-09
6.5913939e-09
6.7168741e-09
6.8845467e-09
7.0805646e-09
7.3194786e-09
7.5978443e-09
7.9174819e-09
8.2668656e-09
8.6260284e-09
8.9653458e-09
9.2590762e-09
9.4882456e-09
9.6261588e-09
9.6741187e-09
9.6639186e-09
9.6081024e-09
9.5239826e-09
9.4261914e-09
9.3257429e-09
9.2298803e-09
9.1426616e-09
9.0646638e-09
8.9948873e-09
8.9333209e-09
8.8756957e-09
8.8195931e-09
8.7713319e-09
8.7312627e-09
8.6774379e-09
8.5847018e-09
8.5258411e-09
8.4973262e-09
8.4878381e-09
8.4869719e-09
8.511004e-09
8.5480462e-09
8.5570233e-09
0.00086580901
0.0011969186
0.00061754874
7.8113546e-06
8.7728261e-09
7.1820373e-09
6.5664395e-09
6.5054083e-09
6.3613347e-09
6.4235483e-09
6.4132765e-09
6.5142595e-09
6.5828048e-09
6.7103143e-09
6.845881e-09
7.0244376e-09
7.233743e-09
7.4872264e-09
7.7813614e-09
8.1159382e-09
8.4764722e-09
8.8391541e-09
9.1730616e-09
9.4549035e-09
9.6598091e-09
9.764108e-09
9.7859719e-09
9.7516967e-09
9.6747356e-09
9.5736295e-09
9.4626389e-09
9.3521306e-09
9.2487378e-09
9.1559779e-09
9.0738141e-09
9.0010283e-09
8.9378204e-09
8.8760595e-09
8.8191381e-09
8.7709026e-09
8.7291202e-09
8.6669565e-09
8.5745035e-09
8.5211272e-09
8.4973273e-09
8.4902869e-09
8.491301e-09
8.5145267e-09
8.5478982e-09
8.571398e-09
0.00086298421
0.001147874
0.00052820727
2.8603145e-06
8.4105976e-09
7.2446453e-09
6.6453163e-09
6.5913323e-09
6.455079e-09
6.5222007e-09
6.5189124e-09
6.6251376e-09
6.7020923e-09
6.8372785e-09
6.9836426e-09
7.1739323e-09
7.3974196e-09
7.6663169e-09
7.9767581e-09
8.326016e-09
8.6961048e-09
9.0596771e-09
9.3857802e-09
9.6522924e-09
9.8268329e-09
9.8970481e-09
9.8936967e-09
9.8345249e-09
9.736849e-09
9.6194353e-09
9.4959755e-09
9.3760754e-09
9.265693e-09
9.1678019e-09
9.0818374e-09
9.0065137e-09
8.941799e-09
8.8760952e-09
8.8184783e-09
8.7704064e-09
8.7258888e-09
8.6539343e-09
8.5667799e-09
8.5186885e-09
8.4980716e-09
8.4920835e-09
8.4945372e-09
8.5193259e-09
8.5515175e-09
8.5715271e-09
0.00086041269
0.0010930056
0.00044488144
1.0492143e-06
8.2307924e-09
7.3116631e-09
6.7299682e-09
6.6827809e-09
6.5547462e-09
6.6270847e-09
6.6312933e-09
6.7432019e-09
6.8291851e-09
6.9727954e-09
7.1307398e-09
7.3336885e-09
7.5722581e-09
7.8573936e-09
8.1845219e-09
8.5478119e-09
8.9253685e-09
9.2870815e-09
9.6031808e-09
9.8485422e-09
9.987405e-09
1.0026254e-08
9.9961811e-09
9.9120666e-09
9.7943241e-09
9.6613906e-09
9.5262439e-09
9.3976101e-09
9.2807245e-09
9.1781036e-09
9.0888355e-09
9.0115467e-09
8.9434908e-09
8.8760832e-09
8.817625e-09
8.7698042e-09
8.7214444e-09
8.6396773e-09
8.5603631e-09
8.5177437e-09
8.4991351e-09
8.494248e-09
8.4967464e-09
8.5252098e-09
8.5566855e-09
8.5633355e-09
0.00085793085
0.0010339514
0.00036847816
4.1073543e-07
8.1541143e-09
7.3841849e-09
6.8200071e-09
6.7801047e-09
6.6606871e-09
6.7386484e-09
6.7508896e-09
6.8689489e-09
6.964615e-09
7.1174259e-09
7.2878305e-09
7.5043868e-09
7.7589839e-09
8.0611341e-09
8.40508e-09
8.7812607e-09
9.163763e-09
9.5208343e-09
9.8242948e-09
1.0040836e-08
1.014148e-08
1.0151271e-08
1.0092684e-08
9.9841511e-09
9.8471138e-09
9.6995333e-09
9.5534944e-09
9.4167262e-09
9.2937818e-09
9.1869104e-09
9.0950191e-09
9.0163561e-09
8.944165e-09
8.8756294e-09
8.8166069e-09
8.7688715e-09
8.7154415e-09
8.6247962e-09
8.5545234e-09
8.517608e-09
8.501215e-09
8.4972731e-09
8.5004118e-09
8.5328215e-09
8.5610417e-09
8.5636021e-09
0.00085525324
0.00096986591
0.00029886614
1.7994649e-07
8.1348768e-09
7.4629172e-09
6.9161608e-09
6.8839341e-09
6.7734804e-09
6.8573764e-09
6.8782036e-09
7.0029063e-09
7.1089726e-09
7.2718291e-09
7.4556183e-09
7.6868048e-09
7.9583635e-09
8.2782006e-09
8.6387483e-09
9.0261329e-09
9.4107676e-09
9.760442e-09
1.0046325e-08
1.0227145e-08
1.0290197e-08
1.027065e-08
1.0182943e-08
1.0050637e-08
9.895228e-09
9.7339303e-09
9.5777542e-09
9.4333804e-09
9.3048852e-09
9.1944366e-09
9.1006881e-09
9.0205571e-09
8.944294e-09
8.8748363e-09
8.8154549e-09
8.7672684e-09
8.7070647e-09
8.610799e-09
8.5492748e-09
8.5176807e-09
8.5042137e-09
8.5009668e-09
8.5078407e-09
8.5440274e-09
8.5641959e-09
8.5660108e-09
0.00085226846
0.00090134699
0.00023617739
9.0563471e-08
8.1519012e-09
7.5482718e-09
7.0189638e-09
6.9945738e-09
6.8935306e-09
6.9837166e-09
7.0137489e-09
7.1456685e-09
7.2629139e-09
7.4367391e-09
7.634893e-09
7.8817468e-09
8.1712147e-09
8.5092354e-09
8.8857088e-09
9.2820454e-09
9.6658032e-09
1.0005358e-08
1.0266116e-08
1.040572e-08
1.0434727e-08
1.0382986e-08
1.0266688e-08
1.0111484e-08
9.9387265e-09
9.7646459e-09
9.5990212e-09
9.4475978e-09
9.3142895e-09
9.2011368e-09
9.1060612e-09
9.0223201e-09
8.9442967e-09
8.873736e-09
8.8142551e-09
8.7647268e-09
8.6952853e-09
8.5993981e-09
8.5453824e-09
8.5187135e-09
8.5073066e-09
8.50478e-09
8.5187445e-09
8.5646027e-09
8.5673503e-09
8.5686173e-09
0.00084847356
0.00082801566
0.00018175017
5.2681808e-08
8.1920254e-09
7.6404516e-09
7.1284757e-09
7.1124112e-09
7.0212977e-09
7.1182265e-09
7.158143e-09
7.2979118e-09
7.4271867e-09
7.6129578e-09
7.8265067e-09
8.0901254e-09
8.3983745e-09
8.7547979e-09
9.1459851e-09
9.5485429e-09
9.928232e-09
1.0253807e-08
1.0480738e-08
1.0577398e-08
1.0573208e-08
1.0488057e-08
1.0343771e-08
1.0166713e-08
9.9776923e-09
9.7917134e-09
9.6173224e-09
9.4596441e-09
9.3225547e-09
9.2074621e-09
9.1108223e-09
9.0230656e-09
8.9439988e-09
8.8723868e-09
8.8130974e-09
8.7611553e-09
8.6808135e-09
8.5909244e-09
8.5427173e-09
8.5202669e-09
8.5104676e-09
8.5103142e-09
8.5326225e-09
8.5655487e-09
8.5782285e-09
8.5714551e-09
0.00084374281
0.00074576578
0.00013349514
3.4644922e-08
8.2486553e-09
7.7394524e-09
7.2456474e-09
7.2380421e-09
7.1574115e-09
7.2615482e-09
7.3120761e-09
7.4603894e-09
7.6025903e-09
7.8013765e-09
8.0314035e-09
8.3128878e-09
8.6406892e-09
9.0153297e-09
9.4193933e-09
9.8251119e-09
1.0197426e-08
1.0502461e-08
1.0687627e-08
1.0743535e-08
1.0704184e-08
1.0585458e-08
1.0414128e-08
1.0216405e-08
1.0012201e-08
9.815155e-09
9.6328414e-09
9.4701111e-09
9.3302376e-09
9.2132066e-09
9.1132635e-09
9.0232519e-09
8.9431897e-09
8.8708681e-09
8.8119525e-09
8.7563602e-09
8.6659174e-09
8.5839491e-09
8.5411348e-09
8.5218315e-09
8.514419e-09
8.5296717e-09
8.5450453e-09
8.5655213e-09
8.5836111e-09
8.5773635e-09
0.00083952807
0.00067006178
9.3479152e-05
2.5293535e-08
8.3184382e-09
7.8466702e-09
7.3705389e-09
7.3720978e-09
7.3025216e-09
7.4143731e-09
7.4763057e-09
7.6339096e-09
7.7900343e-09
8.0029445e-09
8.2505953e-09
8.5510541e-09
8.8989642e-09
9.2910991e-09
9.7055839e-09
1.0111127e-08
1.0472634e-08
1.0747658e-08
1.0885861e-08
1.0903773e-08
1.0826602e-08
1.0675014e-08
1.0477783e-08
1.0260657e-08
1.0042311e-08
9.8350901e-09
9.6460461e-09
9.479631e-09
9.3370709e-09
9.2166971e-09
9.1143596e-09
9.023294e-09
8.9419835e-09
8.869225e-09
8.8105548e-09
8.7495448e-09
8.6512037e-09
8.5781054e-09
8.5407965e-09
8.5243249e-09
8.5195061e-09
8.5361276e-09
8.5548529e-09
8.5683101e-09
8.5811139e-09
8.5872949e-09
0.00083651841
0.00061462724
6.2293938e-05
2.0039742e-08
8.3994266e-09
7.9618612e-09
7.5040964e-09
7.5151257e-09
7.4573287e-09
7.5774896e-09
7.6516463e-09
7.8193945e-09
7.9904627e-09
8.2187321e-09
8.4851929e-09
8.8056753e-09
9.1739172e-09
9.5821922e-09
1.0004061e-08
1.040572e-08
1.0751094e-08
1.0986266e-08
1.1076395e-08
1.1056206e-08
1.094015e-08
1.0756608e-08
1.0534818e-08
1.0299555e-08
1.0068115e-08
9.8519053e-09
9.6576156e-09
9.4880504e-09
9.3410218e-09
9.2182608e-09
9.1147509e-09
9.0229787e-09
8.9404082e-09
8.8674847e-09
8.8084035e-09
8.739524e-09
8.6375025e-09
8.5728937e-09
8.5410027e-09
8.5278229e-09
8.5243582e-09
8.5340686e-09
8.5620687e-09
8.5713373e-09
8.5828888e-09
8.58377e-09
0.00083413683
0.00056363287
3.892498e-05
1.6886456e-08
8.4912451e-09
8.0856789e-09
7.6470265e-09
7.6679296e-09
7.6226282e-09
7.7516849e-09
7.8390068e-09
8.0178161e-09
8.2049885e-09
8.4499103e-09
8.7364094e-09
9.0778166e-09
9.4661279e-09
9.8884932e-09
1.0314297e-08
1.0708034e-08
1.1028847e-08
1.1215238e-08
1.1261123e-08
1.1198847e-08
1.1044487e-08
1.0830249e-08
1.0585339e-08
1.0333184e-08
1.0089872e-08
9.8663081e-09
9.6679352e-09
9.4934e-09
9.3428036e-09
9.2189018e-09
9.114949e-09
9.0221358e-09
8.9385656e-09
8.8656658e-09
8.8049575e-09
8.7255968e-09
8.6257661e-09
8.5686972e-09
8.5420961e-09
8.5317748e-09
8.5290639e-09
8.5384823e-09
8.5664277e-09
8.5749951e-09
8.5853023e-09
8.5813296e-09
0.00083311426
0.00052032797
2.3152724e-05
1.4923294e-08
8.5940183e-09
8.2189558e-09
7.7998709e-09
7.8312857e-09
7.7992581e-09
7.9378629e-09
8.0393986e-09
8.2302299e-09
8.4348249e-09
8.6978009e-09
9.0055388e-09
9.3684971e-09
9.7759781e-09
1.0209646e-08
1.063553e-08
1.101684e-08
1.1301406e-08
1.1434948e-08
1.1437627e-08
1.1331285e-08
1.1139468e-08
1.0896019e-08
1.0629466e-08
1.0361729e-08
1.0108154e-08
9.8789791e-09
9.6761346e-09
9.4957573e-09
9.3435062e-09
9.2192256e-09
9.1148697e-09
9.0208502e-09
8.936555e-09
8.8637829e-09
8.7999238e-09
8.7090923e-09
8.6169309e-09
8.5668886e-09
8.5444115e-09
8.5363557e-09
8.5345504e-09
8.5463525e-09
8.5695192e-09
8.5798381e-09
8.5872931e-09
8.5832313e-09
0.00083481088
0.00048378717
1.3198147e-05
1.3661046e-08
8.7077692e-09
8.3626451e-09
7.9634572e-09
8.0059953e-09
7.9881351e-09
8.1370383e-09
8.2540216e-09
8.4579882e-09
8.6813736e-09
8.9638364e-09
9.2939105e-09