/*--------------------------------*- C++ -*----------------------------------*\
  =========                 |
  \\      /  F ield         | OpenFOAM: The Open Source CFD Toolbox
   \\    /   O peration     | Website:  https://openfoam.org
    \\  /    A nd           | Version:  8
     \\/     M anipulation  |
\*---------------------------------------------------------------------------*/
FoamFile
{
    version     2.0;
    format      ascii;
    class       volVectorField;
    location    "0.199992";
    object      cellDisplacement;
}
// * * * * * * * * * * * * * * * * * * * * * * * * * * * * * * * * * * * * * //

dimensions      [0 1 0 0 0 0 0];

internalField   nonuniform List<vector> 
20000
(
(-0.0021265349 0 -0.0015639485)
(-0.0021265161 0 -0.0015641069)
(-0.0021264779 0 -0.0015647383)
(-0.0021264021 0 -0.0015655326)
(-0.0021262721 0 -0.0015665231)
(-0.002126065 0 -0.0015677604)
(-0.0021257492 0 -0.0015693118)
(-0.0021252812 0 -0.001571266)
(-0.0021246018 0 -0.0015737425)
(-0.0021236315 0 -0.0015769033)
(-0.0021222626 0 -0.0015809701)
(-0.0021203525 0 -0.0015862463)
(-0.0021177117 0 -0.0015931493)
(-0.0021140922 0 -0.0016022501)
(-0.0021091724 0 -0.0016143303)
(-0.0021025397 0 -0.0016304522)
(-0.0020936746 0 -0.0016520651)
(-0.0020819332 0 -0.0016810822)
(-0.002066538 0 -0.0017201051)
(-0.0020465746 0 -0.0017725337)
(-0.0020210116 0 -0.0018427609)
(-0.0019887471 0 -0.0019362863)
(-0.0019486914 0 -0.0020597235)
(-0.00189989 0 -0.0022205681)
(-0.0018416752 0 -0.0024266141)
(-0.0017738191 0 -0.0026849298)
(-0.0016966708 0 -0.003000307)
(-0.0016112145 0 -0.0033731969)
(-0.0015190476 0 -0.0037981335)
(-0.0014221331 0 -0.0042635862)
(-0.0013227293 0 -0.0047512897)
(-0.001223165 0 -0.0052386593)
(-0.0011255799 0 -0.0057013125)
(-0.0010317988 0 -0.0061171236)
(-0.00094314812 0 -0.0064680897)
(-0.00086023966 0 -0.0067435481)
(-0.00078334777 0 -0.006936882)
(-0.0007122522 0 -0.0070474041)
(-0.00064653735 0 -0.0070732468)
(-0.00058540225 0 -0.0070175978)
(-0.00052809504 0 -0.0068795477)
(-0.00047420671 0 -0.0066618376)
(-0.00042254644 0 -0.0063599582)
(-0.00037223493 0 -0.0059650307)
(-0.00032134557 0 -0.0054599317)
(-0.00027111022 0 -0.0048459002)
(-0.00021723535 0 -0.0040782953)
(-0.00016197782 0 -0.0031656259)
(-0.00010017413 0 -0.0020455405)
(-2.974806e-05 0 -0.00065478205)
(-0.002120331 0 -0.0012708545)
(-0.0021203164 0 -0.0012711627)
(-0.0021202745 0 -0.0012715433)
(-0.0021201936 0 -0.0012720228)
(-0.0021200569 0 -0.0012726382)
(-0.002119841 0 -0.0012734345)
(-0.0021195136 0 -0.001274472)
(-0.0021190304 0 -0.0012758319)
(-0.0021183313 0 -0.0012776256)
(-0.0021173351 0 -0.0012800038)
(-0.0021159327 0 -0.001283175)
(-0.0021139792 0 -0.0012874235)
(-0.0021112825 0 -0.0012931448)
(-0.0021075915 0 -0.0013008855)
(-0.0021025809 0 -0.0013114021)
(-0.0020958339 0 -0.0013257391)
(-0.002086827 0 -0.0013453224)
(-0.0020749125 0 -0.0013720894)
(-0.0020593097 0 -0.0014086429)
(-0.002039105 0 -0.001458441)
(-0.0020132728 0 -0.001525967)
(-0.001980726 0 -0.0016168597)
(-0.0019404005 0 -0.001737929)
(-0.0018913818 0 -0.0018969256)
(-0.0018330533 0 -0.0021019517)
(-0.0017652486 0 -0.0023604031)
(-0.0016883679 0 -0.0026774282)
(-0.0016034326 0 -0.0030538244)
(-0.0015120258 0 -0.0034845642)
(-0.0014160683 0 -0.0039584658)
(-0.0013177325 0 -0.0044575774)
(-0.0012192463 0 -0.0049594202)
(-0.0011226589 0 -0.0054394808)
(-0.0010297271 0 -0.0058751595)
(-0.00094174801 0 -0.0062477616)
(-0.00085935227 0 -0.0065456801)
(-0.00078283666 0 -0.0067615298)
(-0.00071201029 0 -0.0068937922)
(-0.00064649229 0 -0.0069404765)
(-0.00058551732 0 -0.0069041727)
(-0.00052836085 0 -0.006784179)
(-0.00047455957 0 -0.0065826949)
(-0.00042299549 0 -0.0062955222)
(-0.00037275638 0 -0.0059140555)
(-0.00032204582 0 -0.0054220165)
(-0.0002717754 0 -0.0048184406)
(-0.00021807136 0 -0.0040620378)
(-0.00016264954 0 -0.0031562775)
(-0.00010077048 0 -0.0020422901)
(-3.0193922e-05 0 -0.00065662307)
(-0.0021131231 0 -0.00098410905)
(-0.0021131044 0 -0.00098423813)
(-0.0021130572 0 -0.00098440233)
(-0.0021129694 0 -0.00098462821)
(-0.002112824 0 -0.00098493996)
(-0.0021125968 0 -0.00098537215)
(-0.0021122547 0 -0.00098597303)
(-0.0021117528 0 -0.00098681125)
(-0.0021110292 0 -0.00098798282)
(-0.0021100017 0 -0.00098962318)
(-0.0021085587 0 -0.00099192422)
(-0.0021065534 0 -0.00099515317)
(-0.0021037901 0 -0.00099968999)
(-0.0021000151 0 -0.0010060622)
(-0.002094898 0 -0.0010150109)
(-0.002088019 0 -0.0010275654)
(-0.0020788485 0 -0.001045138)
(-0.002066736 0 -0.0010696724)
(-0.0020508975 0 -0.0011037951)
(-0.0020304204 0 -0.001151019)
(-0.0020042864 0 -0.0012159184)
(-0.0019714242 0 -0.0013042733)
(-0.0019307988 0 -0.0014230876)
(-0.0018815385 0 -0.00158036)
(-0.0018230822 0 -0.0017844851)
(-0.0017553297 0 -0.0020431566)
(-0.0016787349 0 -0.0023618341)
(-0.0015943584 0 -0.0027416162)
(-0.0015037693 0 -0.0031778681)
(-0.0014088426 0 -0.0036597306)
(-0.0013116656 0 -0.0041695383)
(-0.0012143584 0 -0.0046849673)
(-0.0011188772 0 -0.005181412)
(-0.0010269037 0 -0.0056359069)
(-0.00093970261 0 -0.0060291263)
(-0.00085791518 0 -0.0063486168)
(-0.00078186054 0 -0.0065862375)
(-0.00071137582 0 -0.0067396818)
(-0.00064611615 0 -0.0068067602)
(-0.0005853504 0 -0.0067895135)
(-0.00052838371 0 -0.0066873571)
(-0.00047470747 0 -0.0065020046)
(-0.00042326903 0 -0.006229504)
(-0.00037313003 0 -0.005861492)
(-0.00032261017 0 -0.0053824615)
(-0.00027233876 0 -0.0047895037)
(-0.00021880982 0 -0.0040442769)
(-0.00016326153 0 -0.0031457995)
(-0.000101323 0 -0.0020382181)
(-3.0608271e-05 0 -0.00065798222)
(-0.0021049398 0 -0.00070356772)
(-0.0021049162 0 -0.00070352908)
(-0.0021048627 0 -0.00070349376)
(-0.0021047666 0 -0.0007034765)
(-0.0021046103 0 -0.00070349113)
(-0.0021043688 0 -0.00070356335)
(-0.0021040084 0 -0.00070372985)
(-0.0021034826 0 -0.00070404875)
(-0.002102729 0 -0.00070460109)
(-0.0021016629 0 -0.00070551053)
(-0.0021001714 0 -0.00070695026)
(-0.0020981042 0 -0.00070917443)
(-0.0020952636 0 -0.00071254141)
(-0.0020913907 0 -0.00071756273)
(-0.0020861519 0 -0.0007249629)
(-0.0020791211 0 -0.00073574935)
(-0.0020697655 0 -0.00075134296)
(-0.0020574286 0 -0.000773679)
(-0.0020413248 0 -0.00080542077)
(-0.0020205423 0 -0.00085013173)
(-0.001994071 0 -0.00091248273)
(-0.0019608577 0 -0.00099839963)
(-0.0019198992 0 -0.0011150828)
(-0.0018703707 0 -0.001270774)
(-0.0018117715 0 -0.0014741408)
(-0.0017440708 0 -0.0017331487)
(-0.0016677807 0 -0.0020535268)
(-0.0015840009 0 -0.0024366261)
(-0.0014942868 0 -0.0028781515)
(-0.0014004661 0 -0.0033675272)
(-0.001304536 0 -0.0038873722)
(-0.0012085077 0 -0.0044155311)
(-0.0011142372 0 -0.0049273751)
(-0.0010233295 0 -0.0053996426)
(-0.00093700972 0 -0.0058124696)
(-0.000855926 0 -0.0061526254)
(-0.00078041561 0 -0.0064112552)
(-0.00071034582 0 -0.0065852902)
(-0.00064540465 0 -0.0066722948)
(-0.00058489877 0 -0.0066737856)
(-0.0005281607 0 -0.0065892239)
(-0.00047464854 0 -0.0064198839)
(-0.00042336486 0 -0.0061619927)
(-0.00037335473 0 -0.0058074175)
(-0.00032303806 0 -0.0053413299)
(-0.00027279995 0 -0.0047591408)
(-0.00021944993 0 -0.0040250407)
(-0.0001638135 0 -0.0031342217)
(-0.00010183024 0 -0.0020333232)
(-3.0992531e-05 0 -0.00065890317)
(-0.0020958122 0 -0.00042907482)
(-0.00209578 0 -0.00042882563)
(-0.0020957159 0 -0.00042854238)
(-0.0020956072 0 -0.00042824093)
(-0.0020954359 0 -0.00042793513)
(-0.0020951763 0 -0.00042763845)
(-0.0020947938 0 -0.00042738005)
(-0.0020942404 0 -0.00042719995)
(-0.0020934522 0 -0.00042716766)
(-0.0020923423 0 -0.00042738429)
(-0.0020907955 0 -0.00042800638)
(-0.0020886582 0 -0.00042926499)
(-0.0020857292 0 -0.00043149928)
(-0.0020817455 0 -0.00043520254)
(-0.0020763683 0 -0.00044107904)
(-0.0020691672 0 -0.00045013773)
(-0.0020596027 0 -0.00046377351)
(-0.0020470151 0 -0.00048395443)
(-0.0020306155 0 -0.00051336349)
(-0.0020094943 0 -0.00055563029)
(-0.0019826508 0 -0.00061552693)
(-0.0019490517 0 -0.00069912905)
(-0.0019077286 0 -0.00081383202)
(-0.0018579072 0 -0.00096811624)
(-0.0017991528 0 -0.001170902)
(-0.0017315063 0 -0.0014304008)
(-0.0016555428 0 -0.0017525601)
(-0.0015723993 0 -0.002138936)
(-0.001483618 0 -0.002585531)
(-0.0013909751 0 -0.0030820211)
(-0.0012963772 0 -0.0036112821)
(-0.001201721 0 -0.0041513661)
(-0.0011087609 0 -0.0046776518)
(-0.001019019 0 -0.005166679)
(-0.00093367923 0 -0.0055981042)
(-0.00085338929 0 -0.0059580142)
(-0.0007785045 0 -0.0062368645)
(-0.0007089198 0 -0.0064308688)
(-0.00064435796 0 -0.006537294)
(-0.00058416107 0 -0.0065571662)
(-0.0005276918 0 -0.0064899273)
(-0.00047438104 0 -0.0063364453)
(-0.00042328256 0 -0.0060930809)
(-0.00037342875 0 -0.0057518971)
(-0.00032333012 0 -0.0052986859)
(-0.00027315635 0 -0.0047273753)
(-0.00021999365 0 -0.004004387)
(-0.00016430332 0 -0.0031215397)
(-0.00010229303 0 -0.0020276233)
(-3.1347677e-05 0 -0.00065937985)
(-0.0020857707 0 -0.00016055539)
(-0.0020857314 0 -0.00016015297)
(-0.002085658 0 -0.00015968405)
(-0.0020855371 0 -0.00015915081)
(-0.0020853495 0 -0.00015855136)
(-0.0020850688 0 -0.00015789453)
(-0.0020846593 0 -0.00015719701)
(-0.0020840721 0 -0.00015649406)
(-0.0020832414 0 -0.00015584072)
(-0.0020820786 0 -0.00015533038)
(-0.0020804661 0 -0.00015510341)
(-0.0020782471 0 -0.0001553766)
(-0.0020752167 0 -0.00015647072)
(-0.0020711072 0 -0.00015885894)
(-0.0020655746 0 -0.00016323132)
(-0.002058182 0 -0.00017057017)
(-0.0020483856 0 -0.0001822905)
(-0.0020355195 0 -0.0002003496)
(-0.002018793 0 -0.00022747725)
(-0.0019972992 0 -0.00026736585)
(-0.0019700476 0 -0.00032489809)
(-0.0019360276 0 -0.0004063062)
(-0.0018943085 0 -0.00051918326)
(-0.0018441712 0 -0.00067224123)
(-0.0017852506 0 -0.00087463617)
(-0.0017176635 0 -0.0011347949)
(-0.0016420503 0 -0.0014588409)
(-0.0015595845 0 -0.0018484924)
(-0.0014717942 0 -0.002299993)
(-0.0013804012 0 -0.0028032359)
(-0.0012872167 0 -0.0033413467)
(-0.0011940223 0 -0.0038925928)
(-0.0011024654 0 -0.0044324153)
(-0.001013985 0 -0.004937216)
(-0.00092971836 0 -0.0053862575)
(-0.00085030954 0 -0.0057650099)
(-0.00077612833 0 -0.0060632893)
(-0.00070709802 0 -0.0062766196)
(-0.00064297393 0 -0.0064019454)
(-0.00058313568 0 -0.0064398157)
(-0.00052697457 0 -0.0063896053)
(-0.00047390325 0 -0.006251803)
(-0.00042301972 0 -0.0060228554)
(-0.00037335067 0 -0.005695004)
(-0.00032348522 0 -0.0052545866)
(-0.00027340737 0 -0.0046942546)
(-0.00022044013 0 -0.0039823442)
(-0.00016473021 0 -0.0031077768)
(-0.00010271027 0 -0.0020211237)
(-3.1674486e-05 0 -0.00065944535)
(-0.0020748376 0 0.00010217101)
(-0.0020747864 0 0.00010278055)
(-0.0020746986 0 0.00010349308)
(-0.0020745605 0 0.00010430568)
(-0.0020743526 0 0.00010522067)
(-0.0020740475 0 0.00010624144)
(-0.0020736081 0 0.00010735944)
(-0.0020729838 0 0.00010855649)
(-0.0020721072 0 0.00010978923)
(-0.0020708868 0 0.00011098537)
(-0.0020692022 0 0.00011202046)
(-0.0020668931 0 0.00011269843)
(-0.0020637501 0 0.00011271691)
(-0.0020595008 0 0.00011161943)
(-0.0020537952 0 0.00010873503)
(-0.0020461912 0 0.00010307901)
(-0.0020361374 0 9.3260584e-05)
(-0.0020229647 0 7.7283424e-05)
(-0.0020058796 0 5.238945e-05)
(-0.001983979 0 1.4805591e-05)
(-0.0019562844 0 -4.0469483e-05)
(-0.0019218101 0 -0.00011982923)
(-0.0018796659 0 -0.00023106131)
(-0.0018291923 0 -0.00038310465)
(-0.0017700984 0 -0.0005853293)
(-0.0017025794 0 -0.00084635124)
(-0.0016273441 0 -0.0011724157)
(-0.0015456002 0 -0.0015653626)
(-0.0014588597 0 -0.0020216321)
(-0.001368786 0 -0.0025313049)
(-0.0012770933 0 -0.0030777308)
(-0.0011854439 0 -0.0036394214)
(-0.001095378 0 -0.0041919038)
(-0.0010082473 0 -0.0047115241)
(-0.00092514151 0 -0.005177207)
(-0.00084669549 0 -0.0055738928)
(-0.00077329294 0 -0.0058907919)
(-0.00070488286 0 -0.0061227825)
(-0.00064125465 0 -0.0062664567)
(-0.0005818229 0 -0.0063219108)
(-0.00052600995 0 -0.006288407)
(-0.00047321444 0 -0.006166074)
(-0.00042257645 0 -0.0059514111)
(-0.00037311937 0 -0.0056368072)
(-0.00032350399 0 -0.0052090961)
(-0.00027355093 0 -0.0046598065)
(-0.00022079065 0 -0.0039589616)
(-0.00016509266 0 -0.0030929372)
(-0.0001030825 0 -0.002013839)
(-3.1974071e-05 0 -0.00065909662)
(-0.0020630442 0 0.00035917083)
(-0.0020629827 0 0.00035993727)
(-0.0020628818 0 0.00036084101)
(-0.0020627267 0 0.00036189082)
(-0.0020624969 0 0.0003631027)
(-0.0020621639 0 0.00036448433)
(-0.0020616896 0 0.00036603825)
(-0.0020610219 0 0.00036775192)
(-0.0020600914 0 0.00036959562)
(-0.0020588043 0 0.00037150582)
(-0.0020570372 0 0.00037337407)
(-0.0020546261 0 0.000375019)
(-0.002051357 0 0.00037615621)
(-0.002046952 0 0.00037634852)
(-0.0020410553 0 0.00037493786)
(-0.0020332171 0 0.00037096294)
(-0.0020228814 0 0.00036301052)
(-0.0020093723 0 0.00034908972)
(-0.0019918963 0 0.00032638158)
(-0.0019695541 0 0.00029103113)
(-0.0019413813 0 0.00023790844)
(-0.0019064192 0 0.00016044909)
(-0.0018638216 0 5.0676341e-05)
(-0.0018129932 0 -0.00010057312)
(-0.0017537214 0 -0.00030286217)
(-0.0016862829 0 -0.00056496042)
(-0.001611456 0 -0.00089319627)
(-0.0015304803 0 -0.0012894879)
(-0.0014448495 0 -0.0017504201)
(-0.0013561645 0 -0.0022662285)
(-0.0012660384 0 -0.0028204801)
(-0.0011760137 0 -0.0033919344)
(-0.0010875202 0 -0.0039562479)
(-0.0010018227 0 -0.0044897625)
(-0.00091995974 0 -0.004971143)
(-0.00084255479 0 -0.0053848599)
(-0.00077000218 0 -0.0057195729)
(-0.00070227671 0 -0.0059695436)
(-0.00063919977 0 -0.0061310042)
(-0.00058022237 0 -0.0062036053)
(-0.0005247965 0 -0.0061864666)
(-0.00047231361 0 -0.006079371)
(-0.0004219509 0 -0.0058788362)
(-0.00037273378 0 -0.0055773807)
(-0.00032338548 0 -0.0051622728)
(-0.00027358662 0 -0.00462408)
(-0.0002210446 0 -0.0039342719)
(-0.00016538983 0 -0.0030770441)
(-0.00010340892 0 -0.0020057803)
(-3.224671e-05 0 -0.00065835916)
(-0.0020504159 0 0.00061061461)
(-0.0020503394 0 0.00061158562)
(-0.0020502201 0 0.00061272882)
(-0.0020500431 0 0.00061405348)
(-0.0020497874 0 0.00061557605)
(-0.0020494232 0 0.0006173168)
(-0.0020489108 0 0.00061928641)
(-0.0020481962 0 0.0006214896)
(-0.0020472076 0 0.00062390819)
(-0.0020458483 0 0.00062649899)
(-0.0020439913 0 0.00062916894)
(-0.0020414684 0 0.00063175681)
(-0.0020380607 0 0.00063399504)
(-0.0020334845 0 0.00063546253)
(-0.0020273772 0 0.0006355186)
(-0.002019283 0 0.00063319899)
(-0.0020086376 0 0.00062711076)
(-0.0019947624 0 0.00061521638)
(-0.0019768622 0 0.00059464945)
(-0.0019540443 0 0.00056145085)
(-0.0019253596 0 0.00051035423)
(-0.0018898789 0 0.0004346181)
(-0.0018468022 0 0.00032609262)
(-0.0017956045 0 0.00017538553)
(-0.0017361549 0 -2.7228639e-05)
(-0.0016688134 0 -0.00029064622)
(-0.0015944302 0 -0.00062122615)
(-0.001514272 0 -0.0010209251)
(-0.0014298116 0 -0.0014864329)
(-0.0013425826 0 -0.0020081122)
(-0.0012540948 0 -0.002569725)
(-0.0011657685 0 -0.0031503013)
(-0.0010789231 0 -0.0037256435)
(-0.00099473504 0 -0.0042721605)
(-0.00091419121 0 -0.0047683065)
(-0.00083789967 0 -0.0051981609)
(-0.00076626476 0 -0.0055498716)
(-0.00069928446 0 -0.0058171272)
(-0.00063681321 0 -0.0059957855)
(-0.00057833593 0 -0.0060850713)
(-0.00052333611 0 -0.0060839309)
(-0.00047120094 0 -0.0059918122)
(-0.00042114372 0 -0.0058052266)
(-0.00037219334 0 -0.0055167956)
(-0.00032313038 0 -0.0051141807)
(-0.00027351277 0 -0.0045871066)
(-0.00022120279 0 -0.0039083188)
(-0.00016562063 0 -0.0030601071)
(-0.00010368982 0 -0.0019969591)
(-3.2493646e-05 0 -0.00065723271)
(-0.0020369819 0 0.00085656625)
(-0.0020368921 0 0.00085769088)
(-0.0020367561 0 0.00085901951)
(-0.0020365579 0 0.00086057468)
(-0.0020362746 0 0.00086238759)
(-0.0020358757 0 0.00086448318)
(-0.0020353197 0 0.00086688411)
(-0.002034551 0 0.00086960016)
(-0.0020334954 0 0.00087262739)
(-0.0020320537 0 0.00087592968)
(-0.0020300952 0 0.00087943011)
(-0.0020274475 0 0.00088298034)
(-0.0020238863 0 0.00088633057)
(-0.0020191216 0 0.00088907777)
(-0.0020127837 0 0.00089059393)
(-0.0020044086 0 0.000889937)
(-0.0019934265 0 0.00088569043)
(-0.001979153 0 0.00087581376)
(-0.0019607955 0 0.00085734394)
(-0.0019374678 0 0.00082621367)
(-0.0019082375 0 0.00077701421)
(-0.0018722082 0 0.00070281233)
(-0.0018286276 0 0.00059531845)
(-0.0017770494 0 0.0004448911)
(-0.0017174249 0 0.00024167684)
(-0.0016502022 0 -2.3309917e-05)
(-0.0015763007 0 -0.00035642129)
(-0.0014970122 0 -0.00075961089)
(-0.0014137842 0 -0.0012296273)
(-0.0013280784 0 -0.0017569335)
(-0.0012412974 0 -0.0023254794)
(-0.0011547395 0 -0.0029145683)
(-0.0010696118 0 -0.0035001809)
(-0.00098700449 0 -0.0040588373)
(-0.00090785028 0 -0.0045688499)
(-0.00083274062 0 -0.0050139606)
(-0.00076208708 0 -0.0053818628)
(-0.00069591048 0 -0.0056657003)
(-0.0006340964 0 -0.0058609628)
(-0.00057616445 0 -0.0059664536)
(-0.00052162836 0 -0.0059809287)
(-0.00046987616 0 -0.0059035073)
(-0.00042015366 0 -0.0057306704)
(-0.00037149729 0 -0.0054551264)
(-0.00032273796 0 -0.0050648788)
(-0.00027332913 0 -0.0045489363)
(-0.00022126487 0 -0.0038811383)
(-0.00016578422 0 -0.0030421506)
(-0.00010392453 0 -0.00198739)
(-3.2714843e-05 0 -0.00065573844)
(-0.0020227606 0 0.0010971906)
(-0.0020226522 0 0.0010985178)
(-0.0020224938 0 0.0011000842)
(-0.0020222686 0 0.0011019125)
(-0.0020219535 0 0.0011040347)
(-0.0020215161 0 0.0011064882)
(-0.0020209134 0 0.0011093036)
(-0.0020200873 0 0.0011125073)
(-0.0020189609 0 0.0011161072)
(-0.0020174314 0 0.0011200871)
(-0.0020153641 0 0.001124385)
(-0.0020125816 0 0.0011288723)
(-0.0020088538 0 0.0011333161)
(-0.002003884 0 0.0011373295)
(-0.0019972946 0 0.0011403027)
(-0.0019886142 0 0.001141293)
(-0.0019772648 0 0.0011389044)
(-0.0019625599 0 0.0011310469)
(-0.0019437125 0 0.0011146269)
(-0.0019198427 0 0.0010854585)
(-0.0018900358 0 0.001038002)
(-0.0018534319 0 0.00096510117)
(-0.0018093255 0 0.00085840634)
(-0.0017573601 0 0.00070796164)
(-0.0016975698 0 0.00050385267)
(-0.0016304916 0 0.00023702237)
(-0.0015571155 0 -9.8817261e-05)
(-0.0014787519 0 -0.00050558861)
(-0.0013968191 0 -0.00098005952)
(-0.0013127017 0 -0.0015127699)
(-0.0012276927 0 -0.0020878397)
(-0.0011429672 0 -0.0026848649)
(-0.001059621 0 -0.0032800142)
(-0.00097865849 0 -0.0038499802)
(-0.00090095841 0 -0.0043729763)
(-0.00082709303 0 -0.0048324761)
(-0.00075748048 0 -0.0052157601)
(-0.00069216206 0 -0.005515468)
(-0.00063105499 0 -0.0057267211)
(-0.00057371127 0 -0.0058479165)
(-0.00051967615 0 -0.0058776023)
(-0.00046834039 0 -0.0058145741)
(-0.00041898191 0 -0.0056552638)
(-0.00037064566 0 -0.0053924462)
(-0.000322209 0 -0.0050144313)
(-0.00027303449 0 -0.0045096045)
(-0.00022123134 0 -0.0038527708)
(-0.00016587983 0 -0.003023188)
(-0.00010411316 0 -0.0019770823)
(-3.2911634e-05 0 -0.00065387813)
(-0.0020077826 0 0.0013325493)
(-0.0020076573 0 0.0013340348)
(-0.0020074776 0 0.0013357942)
(-0.0020072257 0 0.001337861)
(-0.0020068764 0 0.0013402806)
(-0.0020063964 0 0.0013430937)
(-0.0020057409 0 0.001346342)
(-0.0020048497 0 0.0013500572)
(-0.0020036432 0 0.00135426)
(-0.0020020155 0 0.0013589434)
(-0.0019998276 0 0.0013640609)
(-0.0019968969 0 0.0013694986)
(-0.0019929868 0 0.0013750427)
(-0.0019877932 0 0.0013803255)
(-0.0019809298 0 0.0013847543)
(-0.0019719165 0 0.0013874083)
(-0.0019601676 0 0.0013868873)
(-0.0019449938 0 0.0013811141)
(-0.0019256275 0 0.0013666676)
(-0.0019011853 0 0.0013393302)
(-0.0018707711 0 0.0012934615)
(-0.0018335694 0 0.00122159)
(-0.0017889145 0 0.0011154781)
(-0.0017365609 0 0.00096469941)
(-0.0016766168 0 0.0007593892)
(-0.0016097152 0 0.00049043925)
(-0.0015369113 0 0.00015166166)
(-0.0014595308 0 -0.00025879222)
(-0.0013789574 0 -0.00073767468)
(-0.0012964931 0 -0.0012755798)
(-0.0012133179 0 -0.0018567927)
(-0.001130485 0 -0.0024612061)
(-0.0010489784 0 -0.0030651971)
(-0.00096971966 0 -0.003645672)
(-0.00089353253 0 -0.0041808025)
(-0.00082096966 0 -0.004653841)
(-0.00075245353 0 -0.0050517117)
(-0.0006880453 0 -0.0053665772)
(-0.000627692 0 -0.0055932067)
(-0.00057097842 0 -0.0057295939)
(-0.00051748003 0 -0.0057740734)
(-0.000466594 0 -0.0057251178)
(-0.0004176278 0 -0.0055790936)
(-0.00036963803 0 -0.0053288286)
(-0.000321543 0 -0.0049628976)
(-0.00027262869 0 -0.0044691613)
(-0.00022110198 0 -0.0038232547)
(-0.00016590667 0 -0.003003245)
(-0.00010425517 0 -0.0019660537)
(-3.3083709e-05 0 -0.00065166932)
(-0.0019920668 0 0.0015627974)
(-0.0019919192 0 0.0015644841)
(-0.0019917125 0 0.0015664801)
(-0.0019914282 0 0.0015688191)
(-0.0019910406 0 0.0015715478)
(-0.0019905143 0 0.0015747185)
(-0.0019898027 0 0.0015783811)
(-0.0019888428 0 0.0015825831)
(-0.0019875519 0 0.0015873572)
(-0.0019858197 0 0.0015927151)
(-0.001983503 0 0.0015986258)
(-0.0019804124 0 0.001604996)
(-0.0019763055 0 0.0016116288)
(-0.0019708687 0 0.0016181775)
(-0.0019637079 0 0.0016240658)
(-0.0019543316 0 0.0016283921)
(-0.0019421473 0 0.0016297497)
(-0.0019265041 0 0.0016256376)
(-0.0019066076 0 0.001612912)
(-0.0018815668 0 0.0015872214)
(-0.0018505146 0 0.0015428302)
(-0.0018126473 0 0.0014723028)
(-0.0017674212 0 0.0013665818)
(-0.0017146869 0 0.0012151012)
(-0.0016546067 0 0.001008273)
(-0.0015879187 0 0.0007369099)
(-0.0015157393 0 0.00039498463)
(-0.0014394033 0 -1.9253945e-05)
(-0.0013602539 0 -0.00050251055)
(-0.001279505 0 -0.0010454154)
(-0.001198222 0 -0.0016324036)
(-0.0011173361 0 -0.0022436849)
(-0.001037721 0 -0.0028558452)
(-0.00096021806 0 -0.00344606)
(-0.00088559657 0 -0.0039924946)
(-0.00081438836 0 -0.0044782389)
(-0.00074701972 0 -0.0048899036)
(-0.00068356945 0 -0.0052192114)
(-0.00062401464 0 -0.0054605888)
(-0.00056797054 0 -0.0056116398)
(-0.00051504381 0 -0.0056704776)
(-0.00046463897 0 -0.0056352531)
(-0.00041609305 0 -0.0055022548)
(-0.00036847489 0 -0.0052643477)
(-0.00032074088 0 -0.0049103418)
(-0.00027211089 0 -0.0044276452)
(-0.00022087707 0 -0.003792628)
(-0.00016586415 0 -0.0029823377)
(-0.00010435053 0 -0.0019543124)
(-3.3232478e-05 0 -0.00064911553)
(-0.0019756388 0 0.0017879998)
(-0.0019754702 0 0.0017898537)
(-0.0019752374 0 0.0017920491)
(-0.0019749209 0 0.0017946301)
(-0.001974493 0 0.0017976529)
(-0.001973917 0 0.0018011775)
(-0.0019731437 0 0.0018052635)
(-0.0019721081 0 0.0018099672)
(-0.0019707236 0 0.0018153335)
(-0.0019688768 0 0.0018213859)
(-0.0019664181 0 0.0018281095)
(-0.0019631536 0 0.0018354257)
(-0.0019588316 0 0.0018431595)
(-0.0019531309 0 0.0018509823)
(-0.0019456452 0 0.0018583514)
(-0.0019358757 0 0.0018643636)
(-0.0019232707 0 0.0018672332)
(-0.0019071551 0 0.0018645318)
(-0.0018866898 0 0.0018533158)
(-0.0018610119 0 0.0018291114)
(-0.0018292724 0 0.001786019)
(-0.0017907121 0 0.0017166682)
(-0.0017449155 0 0.001611235)
(-0.0016917648 0 0.0014592443)
(-0.001631569 0 0.0012505835)
(-0.0015651387 0 0.00097651345)
(-0.0014936394 0 0.00063122402)
(-0.0014184116 0 0.00021309779)
(-0.0013407519 0 -0.00027449853)
(-0.0012617802 0 -0.00082221513)
(-0.0011824441 0 -0.0014146323)
(-0.0011035555 0 -0.0020322855)
(-0.0010258781 0 -0.0026519766)
(-0.00095017805 0 -0.0032511918)
(-0.00087716941 0 -0.0038081342)
(-0.00080736369 0 -0.0043057715)
(-0.00074118938 0 -0.0047304566)
(-0.00067874208 0 -0.0050734953)
(-0.00062002735 0 -0.0053289965)
(-0.00056469074 0 -0.0054941751)
(-0.00051236896 0 -0.0055669277)
(-0.0004624763 0 -0.0055450795)
(-0.00041437757 0 -0.0054248316)
(-0.00036715617 0 -0.0051990754)
(-0.00031980235 0 -0.0048568229)
(-0.00027148103 0 -0.0043851063)
(-0.00022055655 0 -0.0037609312)
(-0.00016575156 0 -0.0029604933)
(-0.00010439875 0 -0.0019418774)
(-3.335748e-05 0 -0.00064623282)
(-0.0019585233 0 0.0020082845)
(-0.0019583306 0 0.002010316)
(-0.0019580685 0 0.0020127219)
(-0.0019577161 0 0.0020155523)
(-0.0019572442 0 0.0020188712)
(-0.0019566143 0 0.0020227468)
(-0.0019557747 0 0.0020272488)
(-0.0019546575 0 0.002032445)
(-0.0019531726 0 0.0020383931)
(-0.001951202 0 0.0020451307)
(-0.0019485907 0 0.0020526583)
(-0.001945138 0 0.0020609153)
(-0.0019405839 0 0.0020697444)
(-0.0019345968 0 0.002078844)
(-0.0019267591 0 0.0020877033)
(-0.0019166069 0 0.0020951297)
(-0.0019035749 0 0.0020993255)
(-0.0018869266 0 0.0020981787)
(-0.0018658519 0 0.0020884601)
(-0.0018394979 0 0.0020656358)
(-0.0018070439 0 0.0020236446)
(-0.0017678034 0 0.0019547911)
(-0.0017214148 0 0.0018493621)
(-0.0016678097 0 0.0016971208)
(-0.0016075464 0 0.0014862963)
(-0.0015414245 0 0.001209213)
(-0.0014706659 0 0.00086035165)
(-0.0013966131 0 0.00043824171)
(-0.0013205086 0 -5.365925e-05)
(-0.001243373 0 -0.00060600733)
(-0.0011660347 0 -0.001203515)
(-0.001089188 0 -0.0018270682)
(-0.0010134885 0 -0.0024536713)
(-0.00093963149 0 -0.0030611774)
(-0.00086827681 0 -0.0036278519)
(-0.00079991546 0 -0.0041365897)
(-0.00073497781 0 -0.0045735289)
(-0.00067357418 0 -0.0049295899)
(-0.00061573865 0 -0.005198582)
(-0.00056114487 0 -0.0053773419)
(-0.00050946013 0 -0.0054635515)
(-0.00046010878 0 -0.0054547077)
(-0.00041248357 0 -0.0053469171)
(-0.00036568286 0 -0.0051330864)
(-0.0003187285 0 -0.0048024051)
(-0.00027073863 0 -0.0043415863)
(-0.00022014057 0 -0.0037282009)
(-0.00016556849 0 -0.0029377304)
(-0.00010439976 0 -0.0019287573)
(-3.3460119e-05 0 -0.00064302498)
(-0.0019407388 0 0.0022237472)
(-0.0019405202 0 0.0022259567)
(-0.0019402263 0 0.0022285742)
(-0.001939835 0 0.0022316556)
(-0.0019393156 0 0.0022352721)
(-0.0019386273 0 0.0022395)
(-0.0019377162 0 0.0022444188)
(-0.0019365112 0 0.0022501064)
(-0.0019349183 0 0.0022566336)
(-0.0019328147 0 0.0022640518)
(-0.0019300396 0 0.0022723769)
(-0.0019263848 0 0.0022815642)
(-0.0019215818 0 0.0022914711)
(-0.0019152888 0 0.002301799)
(-0.0019070978 0 0.0023120197)
(-0.0018965588 0 0.002320698)
(-0.0018830446 0 0.002326366)
(-0.0018658301 0 0.0023267173)
(-0.0018441075 0 0.0023184403)
(-0.0018170386 0 0.0022968972)
(-0.0017838395 0 0.002255839)
(-0.0017438888 0 0.0021873355)
(-0.0016968984 0 0.0020815321)
(-0.0016428989 0 0.0019283081)
(-0.0015825732 0 0.0017154869)
(-0.0015168152 0 0.0014350813)
(-0.0014468615 0 0.0010824398)
(-0.0013740524 0 0.00065625659)
(-0.0012995695 0 0.00016008912)
(-0.0012243275 0 -0.00039671274)
(-0.0011490339 0 -0.00099898783)
(-0.0010742695 0 -0.0016279905)
(-0.0010005824 0 -0.0022609163)
(-0.00092860377 0 -0.0028760325)
(-0.00085893892 0 -0.003451697)
(-0.00079205948 0 -0.0039707654)
(-0.00072839667 0 -0.004419215)
(-0.00066807444 0 -0.0047875979)
(-0.0006111542 0 -0.0050694565)
(-0.00055733691 0 -0.0052612475)
(-0.00050631967 0 -0.005360452)
(-0.00045753797 0 -0.0053642306)
(-0.00041041151 0 -0.0052685921)
(-0.00036405519 0 -0.0050664506)
(-0.00031751927 0 -0.004747147)
(-0.00026988374 0 -0.004297135)
(-0.00021962918 0 -0.003694479)
(-0.00016531426 0 -0.0029140774)
(-0.00010435305 0 -0.0019149721)
(-3.3539809e-05 0 -0.00063950694)
(-0.0019223055 0 0.0024344866)
(-0.001922059 0 0.0024368741)
(-0.0019217309 0 0.0024397028)
(-0.0019212978 0 0.0024430351)
(-0.0019207272 0 0.002446949)
(-0.0019199764 0 0.0024515289)
(-0.0019189886 0 0.0024568638)
(-0.0019176893 0 0.002463043)
(-0.0019159804 0 0.0024701494)
(-0.0019137341 0 0.0024782482)
(-0.0019107831 0 0.0024873714)
(-0.0019069114 0 0.0024974931)
(-0.0019018412 0 0.0025084925)
(-0.0018952218 0 0.0025200949)
(-0.0018866797 0 0.0025314085)
(-0.001875717 0 0.0025414112)
(-0.0018616927 0 0.0025484825)
(-0.0018438777 0 0.0025502639)
(-0.0018214688 0 0.0025433541)
(-0.0017936475 0 0.0025229854)
(-0.0017596749 0 0.0024826794)
(-0.0017189929 0 0.0024143375)
(-0.0016714133 0 0.002307779)
(-0.0016170748 0 0.0021527923)
(-0.0015566786 0 0.0019381207)
(-0.0014913646 0 0.0016540807)
(-0.0014222839 0 0.0012974703)
(-0.0013507892 0 0.00086713747)
(-0.0012779935 0 0.00036674685)
(-0.0012046992 0 -0.00019433408)
(-0.001131493 0 -0.00080105743)
(-0.0010588455 0 -0.0014350807)
(-0.0009871991 0 -0.002073757)
(-0.00091712774 0 -0.0026958321)
(-0.0008491826 0 -0.0032797662)
(-0.00078381687 0 -0.0038084173)
(-0.00072146255 0 -0.0042676452)
(-0.00066225524 0 -0.0046476564)
(-0.00060628364 0 -0.0049417541)
(-0.00055327378 0 -0.0051460202)
(-0.00050295297 0 -0.0052577476)
(-0.00045476738 0 -0.0052737529)
(-0.00040816406 0 -0.0051899465)
(-0.00036227461 0 -0.0049992418)
(-0.00031617594 0 -0.0046911123)
(-0.0002689162 0 -0.0042517962)
(-0.00021902244 0 -0.0036598016)
(-0.00016498861 0 -0.0028895548)
(-0.00010425858 0 -0.001900531)
(-3.3597966e-05 0 -0.00063568316)
(-0.0019032433 0 0.0026405996)
(-0.0019029668 0 0.0026431651)
(-0.001902602 0 0.0026462053)
(-0.0019021241 0 0.0026497883)
(-0.0019014988 0 0.0026539995)
(-0.0019006808 0 0.0026589312)
(-0.0018996107 0 0.002664682)
(-0.0018982105 0 0.0026713513)
(-0.0018963774 0 0.0026790347)
(-0.0018939782 0 0.0026878115)
(-0.0018908384 0 0.0026977303)
(-0.0018867333 0 0.0027087848)
(-0.0018813732 0 0.0027208854)
(-0.0018744303 0 0.0027336254)
(-0.0018655219 0 0.0027460846)
(-0.0018541032 0 0.0027573456)
(-0.0018395343 0 0.0027657673)
(-0.0018210816 0 0.0027689143)
(-0.0017979455 0 0.0027633028)
(-0.0017693331 0 0.002744017)
(-0.0017345612 0 0.0027042671)
(-0.0016931296 0 0.0026359063)
(-0.0016449805 0 0.0025281864)
(-0.0015903162 0 0.0023711227)
(-0.0015299563 0 0.0021537783)
(-0.0014651161 0 0.0018662777)
(-0.0013969778 0 0.0015055176)
(-0.0013268702 0 0.0010709712)
(-0.0012558268 0 0.00056640919)
(-0.0011845323 0 1.2246796e-06)
(-0.0011134517 0 -0.00060963818)
(-0.0010429517 0 -0.0012482738)
(-0.00097340721 0 -0.0018926557)
(-0.0009052642 0 -0.0025210739)
(-0.00083905808 0 -0.003112554)
(-0.00077522766 0 -0.0036500062)
(-0.00071418809 0 -0.0041188893)
(-0.00065612604 0 -0.004509846)
(-0.00060113352 0 -0.0048155672)
(-0.00054896017 0 -0.0050317525)
(-0.00049936307 0 -0.0051555307)
(-0.00045179908 0 -0.0051833601)
(-0.00040574216 0 -0.0051110566)
(-0.00036034166 0 -0.0049315275)
(-0.00031469868 0 -0.0046343586)
(-0.00026783615 0 -0.0042056195)
(-0.00021832056 0 -0.0036242123)
(-0.00016459099 0 -0.0028641932)
(-0.00010411583 0 -0.001885455)
(-3.3633899e-05 0 -0.0006315678)
(-0.0018835711 0 0.0028421811)
(-0.0018832626 0 0.0028449243)
(-0.0018828587 0 0.0028481756)
(-0.001882333 0 0.0028520087)
(-0.0018816492 0 0.0028565162)
(-0.0018807598 0 0.0028617983)
(-0.001879602 0 0.0028679626)
(-0.0018780942 0 0.0028751193)
(-0.0018761288 0 0.0028833752)
(-0.0018735667 0 0.0028928218)
(-0.0018702263 0 0.0029035202)
(-0.0018658736 0 0.0029154758)
(-0.0018602188 0 0.0029286185)
(-0.0018529489 0 0.0029423615)
(-0.0018436351 0 0.0029560319)