/*--------------------------------*- C++ -*----------------------------------*\
  =========                 |
  \\      /  F ield         | OpenFOAM: The Open Source CFD Toolbox
   \\    /   O peration     | Website:  https://openfoam.org
    \\  /    A nd           | Version:  8
     \\/     M anipulation  |
\*---------------------------------------------------------------------------*/
FoamFile
{
    version     2.0;
    format      ascii;
    class       volScalarField;
    location    "0.199992";
    object      Ma;
}
// * * * * * * * * * * * * * * * * * * * * * * * * * * * * * * * * * * * * * //

dimensions      [0 0 0 0 0 0 0];

internalField   nonuniform List<scalar> 
20000
(
0.57741534
0.6817817
0.75116061
0.81197586
0.86867623
0.91543347
0.92100703
0.92423276
0.92061322
0.92155118
0.9189723
0.91857478
0.9161667
0.91463442
0.91194364
0.9093269
0.90589126
0.90206903
0.89751329
0.89226869
0.88619287
0.87907493
0.87089463
0.86167883
0.85158953
0.84072053
0.82927076
0.81755885
0.80600936
0.79504699
0.78506143
0.77633059
0.76901438
0.76314755
0.75870859
0.75552298
0.75324619
0.75188179
0.75138398
0.75137784
0.75168982
0.75226459
0.75291928
0.75347042
0.75400618
0.75493839
0.75665849
0.75757364
0.75809361
0.75819536
0.58173967
0.68657936
0.75650535
0.81767427
0.87466959
0.91947803
0.92281468
0.9261003
0.92242775
0.92337367
0.92074676
0.92032385
0.91786842
0.91627891
0.91353154
0.91083739
0.90733585
0.90342484
0.89875961
0.89331223
0.88688417
0.87940161
0.87101223
0.86166436
0.85138929
0.84028691
0.8286201
0.81674455
0.8051025
0.79412919
0.78420368
0.77558418
0.76840119
0.76267319
0.75836483
0.75521228
0.75296319
0.75173854
0.75132918
0.7512981
0.75163857
0.75222984
0.75289117
0.75344334
0.75400655
0.75509348
0.75677249
0.75773075
0.75829019
0.75800333
0.58704015
0.69250471
0.76282652
0.82420685
0.88137096
0.92337092
0.92458589
0.9278389
0.92408211
0.92501868
0.92232769
0.9218662
0.91936162
0.91771031
0.91490976
0.91213961
0.90856313
0.9045237
0.89966852
0.89395062
0.88725756
0.87957163
0.87098594
0.8614212
0.85087678
0.83951806
0.82763122
0.81560063
0.80388594
0.79292958
0.78309772
0.77462454
0.76760956
0.76205631
0.75790701
0.75479161
0.75265934
0.75158232
0.75124739
0.75121129
0.75158743
0.75220279
0.75287159
0.75342231
0.7540251
0.75529737
0.75693208
0.75785227
0.75834747
0.75792651
0.59183866
0.69783378
0.76857895
0.83017466
0.8874372
0.92657463
0.925984
0.92927444
0.92545402
0.92640257
0.92366024
0.92315993
0.92062243
0.91890888
0.91605361
0.91319252
0.90949778
0.90525183
0.90015777
0.89419974
0.88734464
0.87951517
0.87073277
0.86088211
0.85006487
0.83844613
0.82634653
0.81417814
0.80241784
0.79151149
0.78180906
0.77351652
0.76670137
0.76135181
0.75737573
0.75432085
0.75234134
0.75141134
0.75113994
0.75111473
0.75153129
0.75217245
0.7528492
0.75339773
0.75405
0.75554224
0.75711616
0.75797872
0.75837466
0.75783633
0.59654349
0.70306032
0.77422485
0.83602132
0.89321524
0.92929459
0.92715435
0.93048361
0.92657706
0.9275401
0.92473798
0.92414791
0.92162782
0.91984188
0.91690678
0.91389913
0.91003922
0.905585
0.90032145
0.89423495
0.88724588
0.87923225
0.8701681
0.86002986
0.84892439
0.83704485
0.82474131
0.81245506
0.80067907
0.78985863
0.78032348
0.77224725
0.7656655
0.76054922
0.75675207
0.75380354
0.75200606
0.75121334
0.75100654
0.75101594
0.75147231
0.75214207
0.75282712
0.75337389
0.75408805
0.75581311
0.75732013
0.75809247
0.75838745
0.7577568
0.60100451
0.70803132
0.77962184
0.84162101
0.89851481
0.93145927
0.92803891
0.93140961
0.92737844
0.92838475
0.92549823
0.92491479
0.92233163
0.92044534
0.91740145
0.91423383
0.9102392
0.90566922
0.90030501
0.89407577
0.88689518
0.87862623
0.86928701
0.85884836
0.84745128
0.83531356
0.82281919
0.81043935
0.7986812
0.78798505
0.77865578
0.77083125
0.76451633
0.75966089
0.75604069
0.75325364
0.75165061
0.75099204
0.75084954
0.75091632
0.7514103
0.75211033
0.75280392
0.75335199
0.75414487
0.75608901
0.75752752
0.75820277
0.75839352
0.75767163
0.60527276
0.71281089
0.78483408
0.8470594
0.90334814
0.93314674
0.92867782
0.93209549
0.92804479
0.92895485
0.92610202
0.92545474
0.92271684
0.92072106
0.91758746
0.91432328
0.91025508
0.9055773
0.90008544
0.8936544
0.88624037
0.87770833
0.86807326
0.85732808
0.84563486
0.8332445
0.82057617
0.80813114
0.79642793
0.78589674
0.7768127
0.76927542
0.76326127
0.75869234
0.75524802
0.75267244
0.75127558
0.75075532
0.75066925
0.7508077
0.75134589
0.75207761
0.75278003
0.7533355
0.75422949
0.75634672
0.75772266
0.75832963
0.75841076
0.75757825
0.60933384
0.71738722
0.78986184
0.85237479
0.90767421
0.93440746
0.92914271
0.93254662
0.92849192
0.92939635
0.92643561
0.9257049
0.9228552
0.92078659
0.91760216
0.91424871
0.9100903
0.90526119
0.89958552
0.89293762
0.88527597
0.87646047
0.86652042
0.85546025
0.84346995
0.83083583
0.81801468
0.80553718
0.7939293
0.78360545
0.77480622
0.76759196
0.76191201
0.75764956
0.75438642
0.7520639
0.75088374
0.75049744
0.75046883
0.75068503
0.75127922
0.75204363
0.75275521
0.75332709
0.75435009
0.75657754
0.75789686
0.75845208
0.75845624
0.75747173
0.61319985
0.72176676
0.79469808
0.85758303
0.91144657
0.93527579
0.92938429
0.93276839
0.92865768
0.92951099
0.92651753
0.92577692
0.92284269
0.92069569
0.91744581
0.91396843
0.90967608
0.90466902
0.89880079
0.89191741
0.88399074
0.87487886
0.86462026
0.85323854
0.840952
0.82808667
0.81513833
0.80266533
0.7911961
0.78112328
0.77264886
0.76579396
0.76047957
0.75653246
0.75347057
0.75143473
0.75047886
0.75021723
0.7502536
0.75056097
0.75121061
0.75200839
0.75272953
0.75332876
0.75451003
0.75678181
0.75805103
0.75856327
0.75852699
0.75735839
0.61689917
0.72596694
0.79935831
0.86273055
0.91467019
0.93581385
0.9293807
0.93279558
0.92859873
0.92942282
0.92640105
0.92555714
0.92265354
0.92039617
0.91704942
0.91342648
0.90899147
0.90379573
0.89771723
0.89058464
0.88237797
0.87295486
0.86236678
0.85065792
0.83807907
0.82499918
0.81195397
0.7995265
0.7882418
0.77846482
0.77035578
0.76389699
0.75897472
0.75533753
0.75252001
0.75079333
0.75006328
0.74990935
0.75002845
0.7504284
0.75114048
0.75197192
0.7527029
0.75334112
0.75470099
0.7569694
0.75819299
0.75866722
0.75860268
0.75725302
0.62049413
0.73003382
0.80386703
0.8678495
0.91734649
0.93607297
0.92918876
0.93266803
0.92835284
0.92920626
0.92606549
0.92512519
0.92221266
0.91983799
0.9163923
0.9126179
0.90802777
0.90263098
0.89632943
0.88893289
0.8804308
0.87068313
0.85975484
0.84771533
0.83485126
0.82157796
0.80847092
0.79613378
0.78508173
0.77564661
0.7679443
0.76191723
0.75740566
0.75406633
0.75155408
0.75014711
0.74963405
0.74957646
0.74979751
0.75029272
0.75106918
0.75193443
0.75267524
0.75336393
0.7549114
0.75715143
0.75832679
0.75876557
0.75867713
0.7571568
0.62396352
0.73392421
0.80815445
0.87287766
0.91941974
0.9360099
0.92879083
0.93229408
0.92793161
0.92872876
0.92553259
0.92450825
0.92151818
0.91902296
0.91547101
0.91153519
0.90677937
0.90116984
0.89463057
0.88695596
0.87814351
0.8680581
0.85678052
0.84440917
0.83127087
0.81783012
0.80470103
0.79250254
0.78173356
0.77268779
0.76543372
0.75986971
0.75577656
0.75273595
0.7505864
0.74950137
0.7491829
0.74922773
0.74956208
0.75015429
0.75099741
0.75189626
0.75264656
0.7533972
0.75513933
0.75733132
0.75845226
0.75885737
0.75874858
0.75706787
0.62727941
0.73762579
0.81220159
0.87778388
0.92088167
0.93556093
0.92821027
0.93168439
0.92727489
0.92800224
0.92476073
0.92363342
0.92057588
0.91794892
0.91428197
0.9101748
0.90524143
0.89940714
0.89261614
0.88464915
0.8755115
0.86507595
0.8534413
0.84073981
0.82734254
0.81376534
0.80065855
0.78865056
0.77821769
0.76961002
0.76284381
0.75776596
0.75408821
0.7513758
0.74962675
0.74885626
0.74870422
0.74887204
0.74932446
0.75001515
0.75092614
0.75185785
0.75261744
0.75344218
0.75538619
0.75751069
0.75856902
0.75893896
0.75881278
0.75698236
0.63040296
0.74111836
0.81599161
0.88251528
0.92176273
0.93471743
0.92739583
0.93084263
0.92637589
0.92704191
0.92374604
0.92251511
0.91937919
0.9166112
0.91282078
0.90853279
0.90341044
0.89733949
0.89028222
0.88200846
0.87253093
0.86173347
0.84973589
0.8367092
0.82307299
0.80939554
0.79636004
0.78459826
0.77455744
0.76643636
0.76019218
0.75561295
0.75234517
0.75001802
0.74868367
0.7482025
0.74820408
0.74851487
0.74908677
0.74987673
0.7508568
0.75181974
0.75258962
0.75350246
0.75565407
0.75769063
0.75867611
0.75900543
0.75886199
0.7568963
0.63333964
0.74440928
0.8195583
0.88704148
0.92209275
0.93372149
0.92633435
0.9297683
0.92523617
0.92582262
0.92248476
0.92113968
0.91792361
0.91500696
0.91108531
0.90660729
0.90128415
0.89496431
0.88762602
0.87903084
0.86919899
0.85802883
0.8456646
0.83232139
0.81847122
0.80473507
0.79182477
0.78036925
0.7707785
0.76318884
0.75749183
0.75341537
0.75056943
0.74868798
0.74775967
0.74752767
0.74769657
0.74815864
0.74885118
0.74974058
0.75079081
0.75178245
0.75256649
0.75358538
0.75594242
0.75787139
0.75877261
0.75905304
0.75888895
0.75680576
0.63606496
0.74748869
0.82290477
0.8912536
0.92188573
0.93255423
0.92503751
0.92844928
0.92385355
0.92437216
0.92097492
0.91950957
0.91620931
0.91313648
0.9090752
0.90439773
0.89886125
0.89227966
0.88464492
0.8757134
0.86551314
0.85396073
0.84122881
0.82758196
0.81354823
0.79980059
0.78707493
0.77599018
0.76690665
0.75988507
0.75475092
0.75118279
0.74880029
0.74739723
0.74684463
0.74683413
0.74719122
0.74780615
0.74861961
0.74960824
0.75072772
0.75174644
0.75255309
0.75370344
0.75624515
0.75805109
0.75885752
0.75908084
0.75889391
0.75670736
0.63855918
0.75035587
0.82606834
0.89499669
0.92118694
0.93109637
0.92350789
0.92689426
0.92223542
0.92267271
0.91922085
0.9176269
0.91423831
0.91100126
0.90679111
0.90190389
0.89614065
0.88928369
0.88133663
0.87205374
0.86147153
0.84952886
0.83643131
0.82249843
0.80831728
0.79461159
0.78213622
0.77148961
0.76296415
0.75653648
0.75197793
0.74894047
0.74707377
0.74614678
0.74592145
0.74613914
0.74669259
0.74745976
0.748394
0.74948171
0.75066338
0.75171204
0.75255518
0.7538727
0.7565492
0.75822614
0.75893242
0.75909868
0.75888345
0.7565997
0.64080699
0.75301586
0.82909373
0.89840799
0.92005235
0.92943455
0.92175011
0.92510272
0.92038791
0.9207346
0.91722634
0.91549546
0.91201295
0.90860285
0.90423327
0.89912539
0.89312099
0.88597433
0.87769872
0.8680494
0.85707243
0.84473339
0.83127586
0.81707981
0.80279385
0.78919073
0.77703739
0.76689507
0.75896624
0.75315158
0.74919206
0.74673028
0.74540673
0.74492254
0.74499219
0.74545517
0.74620418
0.74712183
0.74817663
0.74936286
0.75059493
0.75167942
0.75257733
0.75410489
0.75683887
0.75839322
0.75900401
0.7591154
0.75887314
0.75648152
0.64279544
0.75545851
0.83197666
0.90139632
0.91852607
0.9275334
0.91977304
0.92308406
0.91831954
0.91856043
0.91499486
0.91311749
0.90953438
0.90594175
0.90140133
0.89606104
0.88980053
0.88234949
0.87372897
0.86369834
0.85231476
0.83957552
0.82576769
0.81133711
0.79699632
0.78356435
0.77180893
0.76222892
0.75492192
0.74974675
0.7464331
0.74458708
0.74379524
0.74370649
0.74407672
0.7447879
0.74572898
0.74679466
0.74797009
0.74925149
0.75053038
0.75164834
0.75262087
0.754396
0.75710594
0.75854989
0.7590793
0.75913114
0.75889977
0.75635178
0.64456944
0.75771128
0.83475285
0.9039491
0.91666092
0.92542031
0.91758713
0.92084099
0.91602695
0.91615214
0.91252685
0.91049335
0.90680235
0.90301763
0.89829409
0.89270944
0.88617738
0.87840698
0.86942504
0.85899836
0.84719756
0.83405698
0.81991323
0.80528347
0.79094634
0.77776201
0.76647971
0.75750525
0.750843
0.74635965
0.74374512
0.74252133
0.74222013
0.74250667
0.74318753
0.74414141
0.74526963
0.74648058
0.74777646
0.74914484
0.75047761
0.75161807
0.75268359
0.75472624
0.75735337
0.75869078
0.75915401
0.75914018
0.7588732
0.75621247
0.64612909
0.75975637
0.83740936
0.90601519
0.91447615
0.92308365
0.91518666
0.91837005
0.91350983
0.91350852
0.90982185
0.90762303
0.9038163
0.89982964
0.89491025
0.88906888
0.88224977
0.87414475
0.86478471
0.85394752
0.84172034
0.82818047
0.81372053
0.79893486
0.78466938
0.77181514
0.76107304
0.75273238
0.74676081
0.74304072
0.74115237
0.74052064
0.74067424
0.74134365
0.7423293
0.74351912
0.74482855
0.7461817
0.74759632
0.74904174
0.75043174
0.75158858
0.75276244
0.75507827
0.75758432
0.75881216
0.75920884
0.75913628
0.75872891
0.75607598
0.64749815
0.76159484
0.83993297
0.90753399
0.91200005
0.92052745
0.91256978
0.91567298
0.91076913
0.91063103
0.90688047
0.90450662
0.90057536
0.89637681
0.89124846
0.88513819
0.87801607
0.86956046
0.85980517
0.84854337
0.83588247
0.82194908
0.80719923
0.7923104
0.77819437
0.76575388
0.75560378
0.74792553
0.74273015
0.73982992
0.7386547
0.73856691
0.73917701
0.7402253
0.74150678
0.74292393
0.74440804
0.74589988
0.7474288
0.74894648
0.75038772
0.75156187
0.75285815
0.75544119
0.75779905
0.75891103
0.75923505
0.75913264
0.75847015
0.75597324
0.64871484
0.76326399
0.84231195
0.90851468
0.90928955
0.91775289
0.90974056
0.91275199
0.90780692
0.90752047
0.90370252
0.90114365
0.89707864
0.89265863
0.88730821
0.88091632
0.87347445
0.8646512
0.85448314
0.84278321
0.82968354
0.81536705
0.80036144
0.78543304
0.77155257
0.75960341
0.75008131
0.74312784
0.73880605
0.73674663
0.73622863
0.73667144
0.73774219
0.73915727
0.74072335
0.74235824
0.74401012
0.74563664
0.7472723
0.74886508
0.75034638
0.75154284
0.75298036
0.75580266
0.75799692
0.75899861
0.75924126
0.75914548
0.75814792
0.75584194
0.64981172
0.76478847
0.84451417
0.90887194
0.9063336
0.91476646
0.90670207
0.90960855
0.90462333
0.90417648
0.90028738
0.89753435
0.89332649
0.88867581
0.88308949
0.87640211
0.86862212
0.85941284
0.84881421
0.83666371
0.8231232
0.80843986
0.79322241
0.77832953
0.76477491
0.7533812
0.74452268
0.73840694
0.73502574
0.73377692
0.73386949
0.73485637
0.73637519
0.73814372
0.73998192
0.74182404
0.74363651
0.74539302
0.74712413
0.74880018
0.75030949
0.75153922
0.75314981
0.75614967
0.75817057
0.75906873
0.75922823
0.75916915
0.75785947
0.75568276
0.6508313
0.76621738
0.84652565
0.90861339
0.90315556
0.9115631
0.90345176
0.90623974
0.90121761
0.90059981
0.89663655
0.89368124
0.88932092
0.88442956
0.87859161
0.87159269
0.86345452
0.85383991
0.84279326
0.83018139
0.81620184
0.80117536
0.7858014
0.77102984
0.75788909
0.74709908
0.7389758
0.73382277
0.73140279
0.73089328
0.73160435
0.73312943
0.73508133
0.73718799
0.73928469
0.74132292
0.74328849
0.74516912
0.74698172
0.74874917
0.75027807
0.75155923
0.75339224
0.75647235
0.75831475
0.759106
0.75920379
0.75918982
0.75758103
0.75550669
0.65174898
0.76753124
0.84827332
0.90770988
0.89975533
0.90814492
0.8999916
0.90265111
0.89759409
0.896796
0.89275446
0.88958816
0.88506361
0.87991924
0.87381137
0.86648273
0.85796506
0.84792545
0.8364142
0.82333242
0.80892066
0.79358403
0.77812173
0.7635649
0.75091688
0.74077398
0.73351535
0.72941544
0.72791526
0.72810438
0.72944998
0.73149693
0.7338642
0.73629257
0.73863324
0.74085622
0.74296686
0.74496298
0.74685524
0.74870835
0.75025175
0.75160831
0.75372006
0.75676973
0.75844602
0.75911639
0.75916542
0.75921026
0.75731761
0.75535865
0.65263188
0.76876838
0.84974784
0.90620147
0.8961655
0.90452359
0.89633376
0.89885039
0.89376011
0.89277025
0.88864468
0.88525643
0.88055265
0.87514038
0.86874217
0.86106432
0.85214558
0.84166163
0.82967056
0.81611336
0.80128257
0.7856801
0.77021061
0.75596436
0.74387408
0.73445077
0.72820904
0.72519863
0.72453731
0.72544193
0.72741286
0.72996311
0.73272666
0.73545915
0.73802858
0.740425
0.74267177
0.74476887
0.74676436
0.74867396
0.75023009
0.75168784
0.75411504
0.75705157
0.75857995
0.75912098
0.75912038
0.75915341
0.75708999
0.75525665
0.6534793
0.76996817
0.85090997
0.90408338
0.89239203
0.90069999
0.89247938
0.89484168
0.88971883
0.88852449
0.88430553
0.88068176
0.87578087
0.8700844
0.86337488
0.85532816
0.8459869
0.83503982
0.82255542
0.80852109
0.79329273
0.77748196
0.76209784
0.74825441
0.73677653
0.72820515
0.72310647
0.7211478
0.72128351
0.72292143
0.72549887
0.72853115
0.73167047
0.73468856
0.73747124
0.74002986
0.74240269
0.74458087
0.74670799
0.74864279
0.75021437
0.75179902
0.75455172
0.75731378
0.75868122
0.75912002
0.75908228
0.75895994
0.75689179
0.75517231
0.65425305
0.77115453
0.85171092
0.90137579
0.88844629
0.89668597
0.88843422
0.8906273
0.885468
0.88405275
0.87972757
0.87585364
0.87073732
0.86474091
0.85769948
0.84926416
0.83947928
0.82805101
0.81506185
0.80055372
0.78495967
0.76901261
0.75381362
0.74045667
0.72965865
0.72211572
0.71823159
0.71723336
0.71818754
0.72054996
0.72371171
0.72720293
0.73069633
0.73398094
0.73696151
0.7396706
0.74215767
0.7444113
0.74666617
0.74861522
0.75020909
0.75195016
0.75501213
0.75754326
0.75873242
0.75910054
0.75904837
0.75857397
0.75664748
0.75510081
0.65497625
0.77236828
0.85210171
0.89811143
0.88432677
0.89247315
0.88418977
0.88619258
0.88099279
0.87933969
0.87489642
0.87075994
0.86541131
0.85910002
0.85170611
0.84286202
0.8326123
0.82068549
0.8071829
0.79221103
0.77629619
0.76029913
0.74538654
0.732589
0.72259056
0.71624501
0.71356538
0.71346789
0.71526722
0.71833297
0.72205373
0.72597905
0.7298039
0.73333589
0.73649963
0.73934611
0.74193172
0.74429119
0.74662908
0.74859294
0.75022217
0.7521625
0.75546444
0.7577472
0.75875785
0.75903941
0.75901089
0.75804961
0.75639833
0.75505802
0.65561758
0.77360086
0.85200476
0.89429456
0.88000333
0.88803491
0.87972427
0.88151667
0.87627555
0.87437222
0.8698012
0.86539218
0.85979446
0.85315271
0.84538459
0.83611043
0.82537473
0.81293317
0.79891215
0.78349568
0.76731996
0.75137105
0.73684268
0.7246752
0.715663
0.71063252
0.70906847
0.70989091
0.71252974
0.71627376
0.72052572
0.72485879
0.72899207
0.73275301
0.73608568
0.73905451
0.74171832
0.74422158
0.74659625
0.74857634
0.75026256
0.75246605
0.75586981
0.757923
0.75877136
0.75895436
0.75893941
0.75761169
0.75615228
0.75499029
0.65612266
0.7748363
0.85135369
0.88997864
0.87545296
0.88335246
0.87502271
0.87659024
0.87130916
0.86914632
0.86443716
0.85974464
0.85387891
0.84688892
0.8387233
0.82899685
0.81775419
0.80478334
0.7902441
0.77441396
0.75805326
0.74225797
0.72820562
0.71677095
0.70895434
0.70527479
0.70474331
0.70652517
0.70998066
0.71437377
0.71912691
0.72384051
0.72825979
0.73223231
0.73571869
0.73879261
0.74152277
0.74417256
0.74657143
0.74856436
0.75033657
0.75287248
0.75620545
0.75804635
0.75876573
0.75884357
0.75879768
0.75720415
0.75595049
0.75491378
0.65641773
0.77606728
0.85011412
0.88542752
0.87067576
0.87842757
0.87008831
0.87141874
0.86609543
0.86366155
0.85879978
0.8538098
0.84765445
0.84029637
0.83170879
0.82150721
0.80973746
0.79622529
0.7811754
0.76497687
0.74852238
0.73298822
0.71949861
0.7089665
0.70252085
0.70013261
0.70063148
0.70337842
0.70762291
0.71263267
0.71785538
0.72292251
0.72760691
0.73177398
0.73539551
0.7385545
0.74137693
0.74413241
0.74655477
0.74855842
0.75044871
0.75335624
0.75648586
0.7581052
0.7587205
0.75871164
0.75855187
0.75684849
0.7557694
0.75483129
0.65653358
0.77728605
0.84826823
0.88089079
0.86569003
0.87327569
0.86493074
0.86600473
0.860632
0.85791121
0.85287919
0.84757616
0.84110808
0.8333607
0.82432593
0.81362631
0.80131038
0.78724866
0.7717058
0.7552007
0.73875609
0.72358915
0.71075828
0.70135704
0.69638608
0.6951918
0.69676277
0.70045697
0.70545732
0.71104844
0.71670868
0.72210397
0.7270339
0.7313765
0.73510988
0.73833354
0.7412918
0.74410049
0.74654715
0.74856486
0.75060987
0.75387887
0.75673546
0.75812697
0.75860906
0.75855794
0.75818235
0.7565443
0.75559441
0.75475412
0.65650908
0.77848568
0.84582625
0.87591641
0.86049659
0.86789081
0.85954097
0.86033497
0.85490529
0.85188228
0.84666173
0.84102985
0.83422493
0.82606584
0.81655822
0.80533768
0.79245831
0.77784439
0.76183938
0.74510704
0.72878392
0.71408782
0.70205912
0.69402151
0.69052634
0.69048164
0.6931524
0.6977636
0.7034825
0.70961796
0.71568469
0.72138483
0.72653934
0.73103332
0.734853
0.73813501
0.74123867
0.74408264
0.74654904
0.74859482
0.75084498
0.75439482
0.75695232
0.75813044
0.75848755
0.75840763
0.75774144
0.75629765
0.75542179
0.75469662
0.65634209
0.7795927
0.84276777
0.87065228
0.85506651
0.86224751
0.85389831
0.85439449
0.84890038
0.84556191
0.84013332
0.83415571
0.82698843
0.81839405
0.80838768
0.79662387
0.78316633
0.76800555
0.75158525
0.73472183
0.71863571
0.70451496
0.69350559
0.68701154
0.68490613
0.68604474
0.68980676
0.69529874
0.70169534
0.70833779
0.71478185
0.72076323
0.72611551
0.73073136
0.73461778
0.73799132
0.74120077
0.74407829
0.74655993
0.74865893
0.75118638
0.75484506
0.75711023
0.75811105
0.75834197
0.75825459
0.75733474
0.75603245
0.7552698
0.75463857
0.65603539
0.78052504
0.83908776
0.86512711
0.84939184
0.85633975
0.84799323
0.8481747
0.84260587
0.83893683
0.83327848
0.82693655
0.81938006
0.81032578
0.79979484
0.78746619
0.77341986
0.75772873
0.74095805
0.72407355
0.70834241
0.69492397
0.68519861
0.68033322
0.67953315
0.68190664
0.68672939
0.69306019
0.70009169
0.70720506
0.71399777
0.72023094
0.7257464
0.7304572
0.73440966
0.73791218
0.74117212
0.74408619
0.74657865
0.74876136
0.75164059
0.75519775
0.75719382
0.75805682
0.75818812
0.75812452
0.75691724
0.75578665
0.75512721
0.75457939
0.65565498
0.78124821
0.83482342
0.85931508
0.84347146
0.85015921
0.84181801
0.84166196
0.83600683
0.83199069
0.82607915
0.81935315
0.81137955
0.80183993
0.79075877
0.77784518
0.7632056
0.74701529
0.72997827
0.71319179
0.69793628
0.68540859
0.67722074
0.6739501
0.674456
0.67807492
0.68392059
0.69104382
0.69866721
0.70621689
0.71332578
0.71977088
0.72541533
0.73021281
0.73425708
0.73786604
0.74115857
0.74410492
0.74660613
0.74890399
0.7521645
0.75547449
0.75721974
0.75794215
0.75802086
0.75792793
0.75654418
0.75553422
0.75498904
0.75452338
0.65527222
0.78168492
0.82999791
0.85320508
0.83728943
0.84368714
0.83535557
0.83483911
0.82908514
0.8247055
0.81851565
0.8113847
0.80296511
0.79291395
0.78125719
0.767741
0.7525129
0.73587255
0.71867174
0.70210844
0.68745622
0.67608499
0.66961698
0.6678448
0.66971191
0.67455521
0.68137786
0.68924448
0.69741771
0.70536777
0.71275172
0.71936405
0.72512475
0.73002819
0.73417262
0.7378352
0.74116293
0.74413321
0.74664903
0.74910273
0.75270639
0.75570617
0.75721126
0.75778779
0.75782265
0.75758134
0.75621384
0.75531522
0.75485585
0.75444265
0.65484544
0.78179339
0.82464726
0.84677933
0.83082934
0.83690798
0.82858842
0.82769011
0.82182206
0.81706207
0.8105669
0.80300863
0.79411321
0.78352331
0.77126622
0.75713411
0.74133498
0.72431402
0.7070678
0.69086036
0.67697424
0.66706113
0.66237797
0.6620488
0.66532018
0.67134831
0.67909653
0.68765689
0.69633781
0.70464534
0.71225572
0.71900918
0.7249106
0.7299225
0.73412775
0.73781487
0.74118327
0.7441708
0.74672053
0.74939208
0.75323016
0.75590315
0.75717717
0.75762778
0.75759359
0.75710595
0.7559157
0.75512303
0.75472959
0.75437697
0.65423313
0.78152574
0.81882761
0.84003594
0.8240783
0.82980737
0.82150044
0.82019711
0.81419738
0.80903951
0.80221
0.79420024
0.7847977
0.77364102
0.76076033
0.74600616
0.72967031
0.71235946
0.69519763
0.67948896
0.66660628
0.65842232
0.65546233
0.65661596
0.66128762
0.66845203
0.67707062
0.6862754
0.69541775
0.70402901
0.71182454
0.7187401
0.72479193
0.72987071
0.73410138
0.73781081
0.74121762
0.74421784
0.746835
0.74980418
0.75369626
0.7560652
0.75712961
0.75746293
0.75737549
0.75669941
0.75563671
0.75495718
0.75461644
0.75430852
0.65338334
0.78082019
0.81255708
0.83296418
0.81701831
0.82236572
0.81407247
0.81234013
0.80618918
0.80061499
0.79341965
0.7849317
0.77498937
0.76323731
0.74971305
0.73434169
0.71752399
0.7000345
0.68309661
0.66804662
0.65648498
0.65020051
0.64887242
0.65158164
0.6576169
0.66586126
0.67529333
0.68509155
0.69464
0.70349827
0.7114718
0.71858321
0.72473522
0.72984409
0.73408665
0.7378254
0.74126325
0.74427494
0.74700012
0.75033163
0.75407609
0.75616912
0.75706396
0.75730326
0.75720894
0.75633838
0.75538615
0.75481721
0.75451194
0.75425018
0.65218691
0.77970503
0.80585471
0.82555459
0.80963155
0.81456152
0.80628397
0.80409879
0.79777366
0.79176258
0.78416659
0.77517114
0.76465533
0.75228002
0.73809832
0.72213009
0.70490845
0.68736947
0.67080845
0.65662868
0.64672685
0.64237005
0.64266662
0.64695681
0.6543066
0.66356923
0.67375626
0.68408989
0.69398071
0.70305243
0.71123991
0.71850989
0.724709
0.72983354
0.73408949
0.73785675
0.7413181
0.74434467
0.74721652
0.75091664
0.75437582
0.75621095
0.75697736
0.75714082
0.75702538
0.75603632
0.75517815
0.75470622
0.75442348
0.75420224
0.65057161
0.77830681
0.79869497
0.81777819
0.80190519
0.80637637
0.79811303
0.79544964
0.78892225
0.78245065
0.77441599
0.76488175
0.75375894
0.74073502
0.72589179
0.70936711
0.69184357
0.67439943
0.65838694
0.6453734
0.63740879
0.63490867
0.63689575
0.64274795
0.65135199
0.6615676
0.67244693
0.68324619
0.69342199
0.70272634
0.71112781
0.71847768
0.72470626
0.72984492
0.73411369
0.73790296
0.74138126
0.74443445
0.74749068
0.75149997
0.75461934
0.75621932
0.75687611
0.75696544
0.75681845
0.75578932
0.75502574
0.75460431
0.7543587
0.75416353
0.64847325
0.7763511
0.79110628
0.80962509
0.79382093
0.79778688
0.78953223
0.78636095
0.77959849
0.7726409
0.76412756
0.75402236
0.74226036
0.72856757
0.7130731
0.69605642
0.67835646
0.66116773
0.64590744
0.63442561
0.62854924
0.62784585
0.6315903
0.63895518
0.64874568
0.65984522
0.67134564
0.68253494
0.69297402
0.70254054
0.7110782
0.71847616
0.72473427
0.72988203
0.73415666
0.73796177
0.74145309
0.74455725
0.74784729
0.75203574
0.75481925
0.75620635
0.7567542
0.75678434
0.75657242
0.75560319
0.75489567
0.75450687
0.75428768
0.75413097
0.64587337
0.77380854
0.78309127
0.80105889
0.78534653
0.78875285
0.78050248
0.7767927
0.76975913
0.76228958
0.75325684
0.74254806
0.7301177
0.7157445
0.69962849
0.68221077
0.66448109
0.64773041
0.6334962
0.62391194
0.62011611
0.62125056
0.62675945
0.635575
0.64647757
0.65838523
0.67042523
0.6819489
0.69268004
0.70245692
0.7110679
0.71851308
0.72479395
0.72994183
0.73421664
0.73803073
0.74153444
0.74472574
0.74831454
0.75248244
0.75497618
0.75617364
0.7566207
0.75660556
0.7563089
0.75541281
0.75475821
0.75440729
0.75423517
0.75409259
0.64270525
0.77074281
0.77460451
0.7920297
0.77643584
0.77923188
0.77097596
0.7667021
0.7593567
0.75134848
0.74175523
0.73041072
0.7172881
0.70223627
0.68555273
0.66785251
0.65025986
0.63415881
0.62131584
0.61389701
0.61211126
0.61517235
0.62240752
0.63259969
0.64453344
0.65716298
0.66965981
0.68151766
0.69253851
0.70243014
0.71110116
0.71859
0.72488202
0.73002225
0.73429099
0.73810729
0.74162603
0.74494343
0.74886532
0.75284229
0.75509355
0.75612518
0.75649025
0.75643442
0.75608355
0.75522575
0.75462592
0.75432151
0.75417478
0.75406092
0.63896345
0.76711706
0.76564014
0.78249798
0.767051
0.76917975
0.76090653
0.75604218
0.74833982
0.73976436
0.72957024
0.71756008
0.70372996
0.68801963
0.67085046
0.6530135
0.63575002
0.62056145
0.60952494
0.60438011
0.60459981
0.60963286
0.61853247
0.63001739
0.64289219
0.65614899
0.66904582
0.68126352
0.69248284
0.70245214
0.7111839
0.71870258
0.72499553
0.73012059
0.73437712
0.73818923
0.74172936
0.7452065
0.74944026
0.75315182
0.7551781
0.75606715
0.75636257
0.75627919
0.75586299
0.75503531
0.75451299
0.75425518
0.75412618
0.75402246
0.63461558
0.76281501
0.75616361
0.77241184
0.75714362
0.75854766
0.75023736
0.74475956
0.736651
0.72747869
0.71664581
0.70394481
0.68940445
0.6730793
0.65553663
0.63773489
0.62102655
0.6071006
0.59824723
0.59534292
0.597653
0.60464174
0.61512711
0.6278105
0.64152458
0.65531997
0.66862211
0.68114873
0.69248469
0.70253001
0.71131024
0.71884727
0.72513136
0.7302343
0.73447234
0.73827564
0.74185034
0.74551958
0.75001105
0.75342064
0.75523658
0.75600697
0.75624189
0.75614339
0.75564795
0.7548761
0.75442296
0.75420021
0.75408708
0.7539959
0.62964155
0.75778006
0.74615185
0.76172573
0.7466647
0.74728497
0.7389064
0.73279263
0.72422728
0.71442889
0.70292372
0.68951389
0.67427758
0.65740971
0.63963743
0.62207144
0.6061886
0.59396742
0.58752918
0.58682587
0.59131588
0.60020018
0.61217805
0.62595384
0.64039835
0.65467802
0.66839805
0.68111759
0.69254881
0.7026611
0.71147609
0.71902009
0.72528662
0.73036079
0.73457409
0.73836733
0.74200164
0.7459032
0.75054529
0.75364974
0.75526909
0.75594118
0.7561243
0.75600613
0.75543485
0.7547432
0.75434896
0.75415486
0.75405766
0.75397641
0.62406663
0.7519073
0.73557157
0.75036933
0.735544
0.73532936
0.72684315
0.72007348
0.71100292
0.70055075
0.68834502
0.67421823
0.6583225
0.64101702
0.62319224
0.60610196
0.5913952
0.58133441
0.57735337
0.57892253
0.58560407
0.59630253
0.60966477
0.62441469
0.63949214
0.65425518
0.66830728
0.68115696
0.69267779
0.7028395
0.71167646
0.7192175
0.72545858
0.73049752
0.7346798
0.73846552
0.7421972
0.74638573
0.7510116
0.75383637
0.75527605
0.75586637
0.75599981
0.75586184
0.75523269
0.754628
0.75428555
0.75411819
0.75403433
0.75396441
0.61788861
0.7449707
0.72437624
0.73826203
0.72370061
0.72261233
0.71397543
0.70653498
0.69691229
0.68577847
0.67284863
0.65801123
0.6415218
0.62392136
0.60625786
0.58993492
0.57685606
0.56929615
0.56774445
0.57170056
0.58052497
0.59293473
0.60755819
0.62315829
0.63881446
0.65404309
0.66830318
0.68127188
0.69286362
0.7030596
0.71190685
0.71943606
0.72564461
0.73064186
0.73478682
0.73856983
0.74244001
0.7469481
0.75140728
0.75398758
0.755265
0.75577774
0.75585968
0.75569777
0.75505559
0.75453006
0.75423034
0.75408453
0.7540089
0.75394509
0.61106916
0.7368035
0.71250216
0.72533797
0.7110642
0.70907191
0.70023617
0.69210887
0.6818856
0.67003893
0.6563691
0.64085008
0.62387022
0.60615961
0.58891737
0.57372537
0.56277876
0.55787189
0.55880083
0.56519132
0.57607515
0.59007335
0.60582165
0.62216198
0.63838514
0.65396847
0.66838375
0.68145681
0.69309981
0.70331571
0.71216293
0.71967257
0.72584223
0.73079113
0.73489272
0.73867933
0.74272276
0.74754415
0.75175673
0.7541109
0.75523931
0.75566554
0.7557085
0.75552353
0.75491057
0.75444778
0.75417999
0.75404934
0.75398629
0.75393336
0.60366034
0.72724145
0.69990376
0.71154685
0.69757234
0.69464913
0.68555244
0.67671312
0.66583735
0.65324727
0.63883765
0.62270038
0.60537917
0.58778994
0.57128848
0.5576916
0.54932037
0.54708262
0.55061474
0.55941014
0.57224096
0.58768493
0.60441663
0.62143584
0.63817459
0.65399393
0.66855106
0.68170273
0.69337935
0.70360258
0.7124406
0.71992401
0.72604893
0.73094258
0.73499664
0.73879998
0.74305224
0.74815332
0.75206756
0.7542062
0.75519756