/*--------------------------------*- C++ -*----------------------------------*\
  =========                 |
  \\      /  F ield         | OpenFOAM: The Open Source CFD Toolbox
   \\    /   O peration     | Website:  https://openfoam.org
    \\  /    A nd           | Version:  8
     \\/     M anipulation  |
\*---------------------------------------------------------------------------*/
FoamFile
{
    version     2.0;
    format      ascii;
    class       surfaceScalarField;
    location    "0.199992";
    object      meshPhi;
}
// * * * * * * * * * * * * * * * * * * * * * * * * * * * * * * * * * * * * * //

dimensions      [0 3 -1 0 0 0 0];

internalField   nonuniform List<scalar> 
39600
(
-4.3742513e-05
-2.876417e-06
2.9845928e-06
-4.3852917e-05
-3.4329502e-06
3.5114625e-06
-4.3987816e-05
-4.1137456e-06
4.2069839e-06
-4.4148187e-05
-4.9286567e-06
5.0406883e-06
-4.4326831e-05
-5.9047827e-06
6.0395005e-06
-4.4528457e-05
-7.0740663e-06
7.2360195e-06
-4.4748753e-05
-8.4745057e-06
8.6691285e-06
-4.4997532e-05
-1.0151408e-05
1.0385245e-05
-4.5286471e-05
-1.2158906e-05
1.2439734e-05
-4.5631078e-05
-1.456134e-05
1.4898462e-05
-4.6054533e-05
-1.7435015e-05
1.7839756e-05
-4.657984e-05
-2.0870186e-05
2.1356389e-05
-4.7253079e-05
-2.4973475e-05
2.5558059e-05
-4.8114248e-05
-2.9870184e-05
3.0574078e-05
-4.9223806e-05
-3.5707205e-05
3.6556056e-05
-5.0658929e-05
-4.2655149e-05
4.3681473e-05
-5.2626147e-05
-5.0910507e-05
5.2156306e-05
-5.5378891e-05
-6.0694388e-05
6.2210272e-05
-5.9045508e-05
-7.2245591e-05
7.4095447e-05
-6.3790771e-05
-8.5809354e-05
8.8075387e-05
-6.9858889e-05
-0.00010160606
0.00010439562
-7.7487217e-05
-0.0001198649
0.00012332598
-8.7495462e-05
-0.00014068781
0.0001450059
-0.00010008484
-0.00016408565
0.00016948966
-0.00011622886
-0.0001899501
0.00019671029
-0.00013074753
-0.00021894663
0.00022740565
-0.0001493366
-0.00025136047
0.00026189618
-0.00017842519
-0.00028538794
0.00029864134
-0.0002191528
-0.00031871413
0.00033573847
-0.00026688531
-0.00035175239
0.00037380897
-0.00032319767
-0.00038621665
0.000414598
-0.00038907726
-0.00042086932
0.00045711307
-0.00046309854
-0.00045630805
0.00050213233
-0.00055556488
-0.00048718689
0.00054458898
-0.00065585518
-0.00051182291
0.00058310902
-0.00076640332
-0.00053385173
0.00062099008
-0.0008815126
-0.00055375926
0.00065808631
-0.0010052805
-0.00057986054
0.00070343584
-0.0011327069
-0.00061807161
0.00076266167
-0.0012794254
-0.00065364471
0.00082004232
-0.0014245248
-0.0006783669
0.00086675399
-0.0015813293
-0.00068522487
0.00089418931
-0.0017277744
-0.00066203229
0.00088893584
-0.0018399336
-0.00060216912
0.00084078896
-0.0018736164
-0.00046594234
0.00070370383
-0.0017856361
-0.00021929464
0.00042852782
-0.0018017042
2.4539632e-05
0.00015345677
-0.0015763906
0.00025569305
-0.00010786893
-0.0010743301
0.0007525058
-0.0006649625
0.00060786908
-0.00058995667
-3.507583e-05
-2.8233931e-06
-3.5115786e-05
-3.3692772e-06
-3.5152816e-05
-4.0366024e-06
-3.5196164e-05
-4.8360483e-06
-3.5255868e-05
-5.793761e-06
-3.5341376e-05
-6.940792e-06
-3.5466112e-05
-8.3145755e-06
-3.5638279e-05
-9.9593932e-06
-3.5874931e-05
-1.1928309e-05
-3.6186188e-05
-1.428415e-05
-3.659074e-05
-1.7101595e-05
-3.7105825e-05
-2.0468888e-05
-3.7757514e-05
-2.4490324e-05
-3.8575316e-05
-2.9288069e-05
-3.9582179e-05
-3.5005535e-05
-4.0870437e-05
-4.1806936e-05
-4.2643693e-05
-4.987907e-05
-4.5128551e-05
-5.9432688e-05
-4.8465238e-05
-7.0698632e-05
-5.2795308e-05
-8.3908082e-05
-5.8362262e-05
-9.9262286e-05
-6.5444883e-05
-0.00011694641
-7.4781906e-05
-0.00013702608
-8.6656434e-05
-0.00015948401
-0.00010197213
-0.00018416671
-0.00011673105
-0.00021158586
-0.0001356294
-0.00024194594
-0.00016500682
-0.00027328371
-0.00020586259
-0.00030285637
-0.00025349992
-0.00033096078
-0.00030956919
-0.00035914201
-0.00037519368
-0.00038604056
-0.00044939398
-0.00041185091
-0.00054185549
-0.00043098763
-0.00064273674
-0.00044162363
-0.00075371237
-0.00044770684
-0.00086988734
-0.00045029092
-0.00099524066
-0.00045701627
-0.0011251879
-0.00047327511
-0.0012734741
-0.00048575763
-0.001421286
-0.00048749652
-0.0015782809
-0.00047255525
-0.0017253315
-0.00043120214
-0.0018400513
-0.00035939629
-0.0018796834
-0.00022316804
-0.001812264
-2.698584e-06
-0.0018256421
0.0002080661
-0.0016018407
0.00041180082
-0.0010843319
0.00084781132
0.0006272507
-2.6975538e-05
-2.7807777e-06
-2.6894833e-05
-3.3181616e-06
-2.68118e-05
-3.9752943e-06
-2.6756979e-05
-4.7625048e-06
-2.6742585e-05
-5.7055142e-06
-2.6771798e-05
-6.8349375e-06
-2.6851054e-05
-8.1875101e-06
-2.6985866e-05
-9.8068493e-06
-2.7189083e-05
-1.1745036e-05
-2.7466966e-05
-1.4063921e-05
-2.7839408e-05
-1.6836786e-05
-2.8315552e-05
-2.0150572e-05
-2.8917735e-05
-2.4107383e-05
-2.9653009e-05
-2.8827404e-05
-3.0540744e-05
-3.4451229e-05
-3.168482e-05
-4.1136698e-05
-3.3252501e-05
-4.9062833e-05
-3.5443971e-05
-5.8432422e-05
-3.8394975e-05
-6.9469026e-05
-4.2245505e-05
-8.2393312e-05
-4.724811e-05
-9.7388177e-05
-5.3723546e-05
-0.00011460139
-6.2314958e-05
-0.00013406204
-7.3371237e-05
-0.00015572535
-8.774597e-05
-0.0001793731
-0.0001026317
-0.00020534717
-0.00012177917
-0.00023377366
-0.00015127866
-0.00026248857
-0.00019210871
-0.00028839118
-0.00023951099
-0.0003117014
-0.0002953636
-0.00033374104
-0.00036055742
-0.00035301405
-0.00043504071
-0.00036929409
-0.00052734686
-0.00037673736
-0.00062896741
-0.00037334254
-0.00074022512
-0.00036339387
-0.00085766468
-0.00034841591
-0.0009844857
-0.00033537137
-0.0011173351
-0.00032917308
-0.0012673012
-0.00031794976
-0.0014178333
-0.00029606825
-0.0015753677
-0.0002587885
-0.0017226128
-0.00019882364
-0.0018407386
-0.00011422715
-0.0018854237
2.333463e-05
-0.0018393553
0.00022225018
-0.0018491936
0.0004042448
-0.0016224029
0.00057984319
-0.0010934646
0.00095289809
0.00065162733
-1.9483519e-05
-2.748665e-06
-1.9405699e-05
-3.2797509e-06
-1.9325528e-05
-3.929318e-06
-1.9264222e-05
-4.7074694e-06
-1.9226777e-05
-5.6396007e-06
-1.9218692e-05
-6.7559626e-06
-1.9241794e-05
-8.0927541e-06
-1.9310448e-05
-9.6931189e-06
-1.943579e-05
-1.160844e-05
-1.9632553e-05
-1.3899749e-05
-1.9917912e-05
-1.6639395e-05
-2.0298972e-05
-1.9913227e-05
-2.0799659e-05
-2.382176e-05
-2.1411311e-05
-2.8483919e-05
-2.2168606e-05
-3.4037503e-05
-2.3158037e-05
-4.0636016e-05
-2.4529484e-05
-4.8451456e-05
-2.6444022e-05
-5.768006e-05
-2.9007203e-05
-6.8541065e-05
-3.239141e-05
-8.124524e-05
-3.6851858e-05
-9.5957744e-05
-4.2727214e-05
-0.00011279473
-5.0601597e-05
-0.00013175159
-6.084093e-05
-0.00015275462
-7.4349206e-05
-0.00017550782
-8.9169958e-05
-0.00020018526
-0.00010842096
-0.00022681368
-0.00013795551
-0.00025298824
-0.00017853854
-0.00027534322
-0.0002256197
-0.00029402916
-0.00028114045
-0.00031010246
-0.00034587511
-0.00032190622
-0.00042045625
-0.00032879929
-0.00051254272
-0.00032465749
-0.00061475169
-0.00030726071
-0.00072625728
-0.00028124563
-0.00084487368
-0.00024851938
-0.00097312733
-0.000215359
-0.001108706
-0.00018627804
-0.0012603387
-0.00015083095
-0.0014135388
-0.00010472555
-0.0015720106
-4.4505343e-05
-0.0017201217
3.4835902e-05
-0.001841707
0.00013332447
-0.0018917144
0.00027366874
-0.0018649705
0.00045500517
-0.0018705812
0.00061147188
-0.001639575
0.00075785452
-0.0011020497
0.0010662838
0.00068029794
-1.2549418e-05
-2.7267248e-06
-1.256047e-05
-3.2533022e-06
-1.2554456e-05
-3.897503e-06
-1.2532178e-05
-4.6692679e-06
-1.249673e-05
-5.5937328e-06
-1.2461357e-05
-6.7009704e-06
-1.2433231e-05
-8.0268802e-06
-1.2432837e-05
-9.6142411e-06
-1.2470968e-05
-1.151399e-05
-1.2568915e-05
-1.3786709e-05
-1.2739883e-05
-1.6504017e-05
-1.2996823e-05
-1.9751011e-05
-1.3362096e-05
-2.3627223e-05
-1.3833953e-05
-2.8250225e-05
-1.4444044e-05
-3.3756225e-05
-1.5275945e-05
-4.0294903e-05
-1.6451545e-05
-4.8032929e-05
-1.8079177e-05
-5.7162526e-05
-2.0269662e-05
-6.7897922e-05
-2.3208666e-05
-8.0440837e-05
-2.7153362e-05
-9.494294e-05
-3.244791e-05
-0.00011149286
-3.9637734e-05
-0.00013005371
-4.9079978e-05
-0.00015052416
-6.1762312e-05
-0.00017252576
-7.63218e-05
-0.00019606454
-9.55537e-05
-0.00022104003
-0.00012507836
-0.00024477342
-0.00016524754
-0.00026371077
-0.0002119295
-0.0002779531
-0.00026702368
-0.00028823637
-0.00033126581
-0.00029274275
-0.00040579009
-0.0002904026
-0.00049759311
-0.00027480239
-0.00060025422
-0.00024346147
-0.0007119646
-0.00020136668
-0.00083167445
-0.00015075317
-0.00096131469
-9.7185535e-05
-0.0010994741
-4.4786077e-05
-0.0012527467
1.543299e-05
-0.0014085839
8.6369174e-05
-0.001568403
0.00017022423
-0.0017180486
0.00026977863
-0.0018431093
0.00038329781
-0.0018986458
0.00052788505
-0.0018891605
0.00069537037
-0.001890277
0.00082899975
-0.0016545795
0.00094451634
-0.0011102336
0.0011867046
0.0007129913
-5.941935e-06
-2.7147235e-06
-5.9346077e-06
-3.238998e-06
-5.9099867e-06
-3.8805306e-06
-5.8753658e-06
-4.6490779e-06
-5.8361043e-06
-5.5696375e-06
-5.8030774e-06
-6.6720979e-06
-5.7808357e-06
-7.992189e-06
-5.7822815e-06
-9.5724479e-06
-5.8115037e-06
-1.146358e-05
-5.8824747e-06
-1.3725902e-05
-6.003295e-06
-1.6430687e-05
-6.184641e-06
-1.9662708e-05
-6.4490685e-06
-2.3520909e-05
-6.8018135e-06
-2.8122146e-05
-7.2821876e-06
-3.3601411e-05
-7.9641561e-06
-4.010581e-05
-8.9402211e-06
-4.7798265e-05
-1.0293075e-05
-5.6867102e-05
-1.2131176e-05
-6.7522794e-05
-1.4647812e-05
-7.9960499e-05
-1.8103745e-05
-9.4319286e-05
-2.284213e-05
-0.00011066326
-2.9382047e-05
-0.00012892783
-3.8062132e-05
-0.00014898266
-4.9929676e-05
-0.00017037253
-6.4076311e-05
-0.00019295155
-8.3207882e-05
-0.0002164356
-0.00011268243
-0.00023783065
-0.00015232975
-0.00025349254
-0.00019854709
-0.00026347957
-0.00025314411
-0.00026816889
-0.00031685862
-0.00026556735
-0.00039120702
-0.00025418393
-0.00048266763
-0.00022729201
-0.00058566906
-0.00018210556
-0.00069754089
-0.00012396057
-0.00081826691
-5.5361609e-05
-0.00094923969
1.885285e-05
-0.0010898516
9.4906356e-05
-0.0012447385
0.00018033222
-0.0014031875
0.00027665736
-0.0015647082
0.0003848797
-0.0017164371
0.00050568645
-0.0018450051
0.00063548164
-0.0019061965
0.00078583839
-0.0019119136
0.00094275583
-0.0019085688
0.0010557039
-0.0016682917
0.0011389005
-0.0011180883
0.0013135788
0.00074933281
2.3661596e-07
-2.7121131e-06
2.4765135e-07
-3.2356261e-06
2.7142645e-07
-3.8763123e-06
3.0126618e-07
-4.6438234e-06
3.3142835e-07
-5.5631793e-06
3.5496327e-07
-6.6642388e-06
3.7094446e-07
-7.9827204e-06
3.7165211e-07
-9.5611598e-06
3.5785654e-07
-1.1450267e-05
3.1933753e-07
-1.3710359e-05
2.5111414e-07
-1.641263e-05
1.4313512e-07
-1.9641785e-05
-2.6509296e-08
-2.3496538e-05
-2.6738517e-07
-2.8093329e-05
-6.2183758e-07
-3.3566482e-05
-1.1564083e-06
-4.0061284e-05
-1.9384404e-06
-4.7737929e-05
-3.0294115e-06
-5.6782269e-05
-4.5346423e-06
-6.7401988e-05
-6.6518143e-06
-7.9787467e-05
-9.6471674e-06
-9.4066713e-05
-1.3863261e-05
-0.00011028268
-1.979189e-05
-0.00012834397
-2.7743925e-05
-0.00014809456
-3.8799424e-05
-0.00016901504
-5.2422733e-05
-0.00019081475
-7.1402942e-05
-0.00021296776
-0.00010079099
-0.00023212807
-0.00013984098
-0.00024464675
-0.00018553976
-0.00025055981
-0.00023958384
-0.00024984205
-0.00030273971
-0.00024032306
-0.00037681369
-0.00022008065
-0.00046788381
-0.00018206363
-0.0005711262
-0.00012313699
-0.00068311796
-4.8980846e-05
-0.00080478498
3.7676549e-05
-0.00093703318
0.00013274877
-0.0010799803
0.00023280909
-0.0012364561
0.0003439132
-0.0013974932
0.00046619065
-0.0015610099
0.00059955559
-0.0017152946
0.00074264523
-0.0018474086
0.00088995231
-0.0019143445
0.0010475784
-0.0019334164
0.0011968903
-0.0019258569
0.0012908842
-0.0016812643
0.0013403105
-0.0011257151
0.0014462938
0.00078910469
5.9994238e-06
-2.7187724e-06
5.9878608e-06
-3.2435007e-06
5.9783149e-06
-3.8856738e-06
5.9757258e-06
-4.6548753e-06
5.9808804e-06
-5.5762138e-06
5.993275e-06
-6.679674e-06
6.0142752e-06
-8.0010897e-06
6.0371873e-06
-9.5831782e-06
6.0618969e-06
-1.1476797e-05
6.0766869e-06
-1.3742426e-05
6.0757029e-06
-1.645147e-05
6.046909e-06
-1.9688801e-05
5.9692313e-06
-2.3553263e-05
5.8315286e-06
-2.8161401e-05
5.5940813e-06
-3.3647232e-05
5.2016701e-06
-4.0155373e-05
4.6067313e-06
-4.784454e-05
3.7650193e-06
-5.689903e-05
2.5763604e-06
-6.7525339e-05
8.3660126e-07
-7.9910535e-05
-1.7292291e-06
-9.4171548e-05
-5.4641528e-06
-0.00011033109
-1.0821489e-05
-0.00012827505
-1.8079471e-05
-0.00014782388
-2.8334443e-05
-0.00016841004
-4.1365326e-05
-0.00018960508
-6.0157552e-05
-0.00021057266
-8.9425921e-05
-0.00022760856
-0.00012782673
-0.00023713725
-0.00017296554
-0.00023916109
-0.00022641835
-0.00023323089
-0.00028899043
-0.00021699016
-0.00036271654
-0.00018809221
-0.00045335587
-0.00013913819
-0.00055675842
-6.6601635e-05
-0.00066883487
2.3499712e-05
-0.00079137778
0.00012826137
-0.00092484508
0.0002443624
-0.0010700279
0.00036870626
-0.0012280731
0.00050587122
-0.0013916768
0.00065462497
-0.001557418
0.0008139089
-0.0017146161
0.00098041212
-0.0018503255
0.0011465164
-0.0019230476
0.0013129614
-0.0019538403
0.0014573171
-0.0019423846
0.001533868
-0.0016938212
0.0015484023
-0.0011331501
0.0015846853
0.00083211748
1.1403924e-05
-2.7342946e-06
1.1398021e-05
-3.2619987e-06
1.1393707e-05
-3.9078471e-06
1.1397883e-05
-4.6815569e-06
1.1413565e-05
-5.6083654e-06
1.1440698e-05
-6.7184119e-06
1.1479566e-05
-8.0477358e-06
1.1523803e-05
-9.639263e-06
1.1572167e-05
-1.1544042e-05
1.1614346e-05
-1.382296e-05
1.1645969e-05
-1.6547702e-05
1.1657656e-05
-1.9803614e-05
1.1633534e-05
-2.3690022e-05
1.1565907e-05
-2.8323971e-05
1.142344e-05
-3.3840349e-05
1.1161783e-05
-4.038399e-05
1.0746818e-05
-4.8113172e-05
1.0144492e-05
-5.7211911e-05
9.2561369e-06
-6.78867e-05
7.8704712e-06
-8.0320889e-05
5.7025893e-06
-9.4622161e-05
2.4129169e-06
-0.00011079386
-2.4087852e-06
-0.00012870206
-9.0162836e-06
-0.00014814798
-1.8496514e-05
-0.00016853168
-3.0892592e-05
-0.00018928564
-4.9466649e-05
-0.00020920822
-7.8586251e-05
-0.00022422532
-0.00011630483
-0.00023090302
-0.000160853
-0.00022921467
-0.00021368625
-0.00021825279
-0.00027565523
-0.00019547833
-0.0003489736
-0.00015811422
-0.00043915192
-9.8400483e-05
-0.00054264582
-1.2379752e-05
-0.00065477573
9.3602112e-05
-0.0007781332
0.00021650167
-0.00091276756
0.00035379262
-0.001060097
0.00050272679
-0.0012196933
0.00066637792
-0.0013858427
0.00084214022
-0.0015539848
0.0010281343
-0.0017143853
0.0012191392
-0.0018537355
0.001405307
-0.0019322703
0.0015820778
-0.0019734016
0.0017238633
-0.0019583479
0.0017841453
-0.0017061691
0.0017627482
-0.0011404651
0.0017283142
0.00087811242
1.6469681e-05
-2.7585731e-06
1.6500597e-05
-3.2912174e-06
1.65424e-05
-3.9431986e-06
1.6591742e-05
-4.7243459e-06
1.6645964e-05
-5.6600337e-06
1.6701126e-05
-6.7805622e-06
1.6756411e-05
-8.1222767e-06
1.6807186e-05
-9.7283726e-06
1.6854402e-05
-1.1650361e-05
1.6893013e-05
-1.3949406e-05
1.6924025e-05
-1.6697998e-05
1.6945386e-05
-1.9982037e-05
1.6949881e-05
-2.3902071e-05
1.6938499e-05
-2.8576356e-05
1.6888185e-05
-3.4141366e-05
1.6765334e-05
-4.0743663e-05
1.6533125e-05
-4.8541076e-05
1.6157724e-05
-5.7717607e-05
1.5551152e-05
-6.8481633e-05
1.449753e-05
-8.1014283e-05
1.2703242e-05
-9.5413832e-05
9.827596e-06
-0.00011166377
5.5113487e-06
-0.00012961507
-4.9672288e-07
-0.00014905015
-9.2513737e-06
-0.00016934314
-2.1014083e-05
-0.00018980351
-3.9349747e-05
-0.00020880689
-6.8271628e-05
-0.00022191469
-0.00010528711
-0.00022590065
-0.00014922115
-0.00022067741
-0.00020141658
-0.00020486821
-0.00026276709
-0.00017574853
-0.00033563416
-0.00013012026
-0.00042532544
-5.9838322e-05
-0.00052885243
3.9521815e-05
-0.00064100679
0.00016129539
-0.00076512216
0.00030234238
-0.00090087171
0.00046093781
-0.0010502635
0.00063467103
-0.0012113956
0.00082512914
-0.0013800656
0.0010283794
-0.0015507315
0.0012418299
-0.001714532
0.0014584282
-0.0018575722
0.0016659192
-0.001941916
0.001854572
-0.0019921905
0.0019960141
-0.0019738185
0.0020412454
-0.0017184306
0.0019832076
-0.0011476961
0.0018771407
0.00092698887
2.1172434e-05
-2.790999e-06
2.1208088e-05
-3.3296227e-06
2.1253225e-05
-3.9888718e-06
2.1304618e-05
-4.7786274e-06
2.1359721e-05
-5.7245485e-06
2.1416194e-05
-6.8575545e-06
2.1474058e-05
-8.2142284e-06
2.1530896e-05
-9.8385047e-06
2.158926e-05
-1.1782504e-05
2.1646451e-05
-1.4108319e-05
2.1706827e-05
-1.6889096e-05
2.1771881e-05
-2.0212264e-05
2.1842987e-05
-2.4179502e-05
2.19253e-05
-2.8911168e-05
2.2009113e-05
-3.4546631e-05
2.2046477e-05
-4.123236e-05
2.1993995e-05
-4.9125322e-05
2.1837433e-05
-5.841269e-05
2.149548e-05
-6.9306108e-05
2.0756824e-05
-8.1984855e-05
1.9322738e-05
-9.6540196e-05
1.6846554e-05
-0.00011293588
1.3012843e-05
-0.00013101381
7.5343725e-06
-0.00015052932
-5.7694956e-07
-0.0001708314
-1.1744237e-05
-0.00019112606
-2.9826715e-05
-0.00020932367
-5.8485025e-05
-0.00022062248
-9.4776262e-05
-0.0002220609
-0.00013807787
-0.00021346943
-0.00018962331
-0.00019298164
-0.00025034489
-0.00015769403
-0.0003227244
-0.00010398485
-0.00041191088
-2.3311716e-05
-0.00051541773
8.9253074e-05
-0.00062757336
0.00022673652
-0.00075239031
0.00038593571
-0.00088920609
0.0005659501
-0.0010405759
0.00076472412
-0.0012032314
0.000982354
-0.0013743937
0.0012135808
-0.0015476659
0.0014552344
-0.0017150088
0.0016984688
-0.0018617831
0.0019285189
-0.0019519223
0.0021305587
-0.0020103321
0.0022736952
-0.001988935
0.0023048128
-0.0017306714
0.0022094733
-0.0011548906
0.0020308747
0.00097853756
2.5533588e-05
-2.831604e-06
2.554509e-05
-3.3780668e-06
2.5553858e-05
-4.0466832e-06
2.5566015e-05
-4.8474925e-06
2.558492e-05
-5.8065316e-06
2.5614674e-05
-6.9549972e-06
2.5658686e-05
-8.3302688e-06
2.5717927e-05
-9.9768412e-06
2.5796512e-05
-1.194771e-05
2.5894618e-05
-1.4306169e-05
2.6017577e-05
-1.7126728e-05
2.6169047e-05
-2.0498654e-05
2.6351303e-05
-2.4525832e-05
2.6574283e-05
-2.9331913e-05
2.6811808e-05
-3.5056875e-05
2.699908e-05
-4.1846281e-05
2.7108432e-05
-4.9859819e-05
2.7162e-05
-5.9289444e-05
2.7094285e-05
-7.0352577e-05
2.6674206e-05
-8.3228217e-05
2.5601273e-05
-9.7998076e-05
2.3527572e-05
-0.00011461115
2.0155421e-05
-0.00013290193
1.5128157e-05
-0.00015258296
7.5703415e-06
-0.00017297705
-3.0625038e-06
-0.00019319736
-2.089049e-05
-0.00021067447
-4.9221958e-05
-0.00022027824
-8.4769185e-05
-0.00021932931
-0.00012742634
-0.00020753573
-0.0001783163
-0.00018253763
-0.000238404
-0.00014125432
-0.0003102712
-7.9652753e-05
-0.00039893981
1.123092e-05
-0.00050238367
0.00013685434
-0.00061452036
0.00028995138
-0.00073998983
0.00046728896
-0.0008778265
0.00066880147
-0.0010311011
0.00089278815
-0.0011952695
0.0011378761
-0.0013688958
0.001397528
-0.0015448281
0.001668084
-0.0017158007
0.0019389681
-0.0018663511
0.0021927876
-0.0019622532
0.0024097458
-0.0020279487
0.0025564823
-0.0020037771
0.0025745098
-0.001742916
0.0024414776
-0.0011620611
0.0021895114
0.0010327232
2.9531794e-05
-2.8796035e-06
2.9476937e-05
-3.4341625e-06
2.9422553e-05
-4.1127108e-06
2.9390616e-05
-4.9255723e-06
2.9387209e-05
-5.8994405e-06
2.9413992e-05
-7.0663465e-06
2.9474304e-05
-8.4642952e-06
2.9566661e-05
-1.013857e-05
2.9694918e-05
-1.2143439e-05
2.985798e-05
-1.454304e-05
3.0061888e-05
-1.741373e-05
3.0309399e-05
-2.0846174e-05
3.0602996e-05
-2.4946888e-05
3.0945019e-05
-2.9840968e-05
3.1286593e-05
-3.5668553e-05
3.1575167e-05
-4.2577775e-05
3.182963e-05
-5.0734806e-05
3.2104012e-05
-6.0340293e-05
3.2333299e-05
-7.1616238e-05
3.2254134e-05
-8.4737613e-05
3.1552265e-05
-9.9779e-05
2.9881055e-05
-0.00011667821
2.694495e-05
-0.00013526432
2.230056e-05
-0.00015519222
1.5225474e-05
-0.00017575577
5.0599369e-06
-0.00019598379
-1.2523112e-05
-0.00021281924
-4.0466359e-05
-0.00022082966
-7.5256119e-05
-0.00021764001
-0.00011726158
-0.00020279998
-0.0001674954
-0.00017344407
-0.00022694726
-0.00012632481
-0.00029828421
-5.6999182e-05
-0.00038642676
4.3929335e-05
-0.00048977118
0.00018247947
-0.00060187185
0.00035110347
-0.00072794854
0.0005465682
-0.00086676631
0.00076966803
-0.0010218755
0.0010190796
-0.001187547
0.0012919579
-0.0013636091
0.0015804947
-0.0015422309
0.0018806553
-0.0017168904
0.002180167
-0.0018712483
0.0024589484
-0.00197288
0.0026923021
-0.0020451373
0.0028444055
-0.0020183884
0.0028500618
-0.0017551696
0.0026788912
-0.0011692225
0.0023527429
0.0010893191
3.3325532e-05
-2.9363237e-06
3.3295031e-05
-3.5032848e-06
3.3269479e-05
-4.1970999e-06
3.3267309e-05
-5.0281764e-06
3.3291537e-05
-6.0236143e-06
3.3341328e-05
-7.2155776e-06
3.3420751e-05
-8.6427305e-06
3.3529054e-05
-1.0351365e-05
3.3674024e-05
-1.2396183e-05
3.3855774e-05
-1.4843223e-05
3.4084942e-05
-1.7770006e-05
3.4363393e-05
-2.1269402e-05
3.4697182e-05
-2.5450282e-05
3.5071613e-05
-3.0439343e-05
3.5448119e-05
-3.6379116e-05
3.5807618e-05
-4.3424788e-05
3.6202457e-05
-5.1751047e-05
3.6715752e-05
-6.1567753e-05
3.7248805e-05
-7.3098644e-05
3.7507278e-05
-8.6511888e-05
3.7172216e-05
-0.00010187659
3.589658e-05
-0.00011912761
3.3368087e-05
-0.00013808408
2.906687e-05
-0.00015833815
2.2434588e-05
-0.00017915482
1.2675163e-05
-0.00019945936
-4.6769888e-06
-0.00021571506
-3.2189124e-05
-0.00022223766
-6.6219533e-05
-0.0002169526
-0.00010756995
-0.00019921766
-0.00015715029
-0.0001656566
-0.00021596641
-0.00011286
-0.00028676092
-3.598619e-05
-0.00037437124
7.4815608e-05
-0.0004775845
0.00022614543
-0.00058963324
0.00041019053
-0.00071627449
0.00062374648
-0.0008560312
0.00086847122
-0.0010129072
0.0011434227
-0.0011800711
0.0014443249
-0.0013585368
0.001762148
-0.0015398578
0.0020925399
-0.0017182237
0.0024215828
-0.0018764157
0.0027264609
-0.0019837273
0.0029776998
-0.0020619285
0.003136864
-0.0020327712
0.0031311023
-0.0017674398
0.0029216635
-0.0011763767
0.0025205608
0.001148314
3.6908937e-05
-2.9998792e-06
3.6965929e-05
-3.5792692e-06
3.7027202e-05
-4.2883203e-06
3.7095789e-05
-5.1379499e-06
3.7170879e-05
-6.1555911e-06
3.7255812e-05
-7.3745153e-06
3.7354944e-05
-8.8342263e-06
3.7471465e-05
-1.0581772e-05
3.7615962e-05
-1.26737e-05
3.7792857e-05
-1.5176608e-05
3.8014302e-05
-1.8170125e-05
3.8285819e-05
-2.1748284e-05
3.8611109e-05
-2.6021792e-05
3.8982307e-05
-3.1119724e-05
3.9378661e-05
-3.7189816e-05
3.981032e-05
-4.439427e-05
4.0359491e-05
-5.2918889e-05
4.10978e-05
-6.2982758e-05
4.1894973e-05
-7.4802761e-05
4.2450992e-05
-8.8543105e-05
4.2453686e-05
-0.00010427801
4.1546617e-05
-0.00012193659
3.9399122e-05
-0.00014132701
3.543262e-05
-0.0001619816
2.9225443e-05
-0.00018313677
1.9817628e-05
-0.00020359225
2.6802306e-06
-0.00021932974
-2.4373409e-05
-0.00022445339
-5.764491e-05
-0.00021720036
-9.833952e-05
-0.00019671022
-0.00014727103
-0.00015908106
-0.00020545376
-0.0001007507
-0.00027569685
-1.6483945e-05
-0.00036277213
0.00010403626
-0.00046582433
0.00026801495
-0.00057780847
0.00046738846
-0.00070497065
0.00069900542
-0.0008456268
0.00096540791
-0.0010041982
0.0012660546
-0.0011728432
0.0015952567
-0.0013536764
0.0019427814
-0.0015376904
0.002304035
-0.0017197596
0.0026634898
-0.0018818044
0.0029955843
-0.0019947429
0.003266143
-0.0020783551
0.0034339757
-0.0020469699
0.003417475
-0.0017797125
0.0031695281
-0.0011835352
0.0026927421
0.0012095346
4.0152361e-05
-3.0705689e-06
4.0222835e-05
-3.6637264e-06
4.0303774e-05
-4.389682e-06
4.0397658e-05
-5.2594497e-06
4.050446e-05
-6.3013976e-06
4.0627407e-05
-7.5496474e-06
4.0768757e-05
-9.0445604e-06
4.0932193e-05
-1.0834706e-05
4.1123746e-05
-1.2977928e-05
4.1347787e-05
-1.5542534e-05
4.1612004e-05
-1.8610367e-05
4.1921553e-05
-2.2277172e-05
4.22793e-05
-2.6656381e-05
4.2685119e-05
-3.1880283e-05
4.3137631e-05
-3.8100958e-05
4.3669794e-05
-4.5489459e-05
4.4376722e-05
-5.4242819e-05
4.5296877e-05
-6.4581085e-05
4.6293125e-05
-7.6717994e-05
4.709711e-05
-9.082119e-05
4.7395015e-05
-0.00010696823
4.6815223e-05
-0.0001250857
4.5023934e-05
-0.00014497061
4.1405042e-05
-0.0001661021
3.562121e-05
-0.00018768997
2.6522382e-05
-0.00020836747
9.5795076e-06
-0.00022362997
-1.7002296e-05
-0.00022743492
-4.9517356e-05
-0.00021834097
-8.9558294e-05
-0.00019523089
-0.00013784837
-0.00015366909
-0.00019540248
-8.9945063e-05
-0.00026509051
1.5584418e-06
-0.00035163034
0.0001316422
-0.00045449792
0.00030813092
-0.00056640439
0.00052272606
-0.00069404925
0.00077235524
-0.00083556632
0.0010604496
-0.00099576877
0.0013868785
-0.0011658847
0.0017445892
-0.001349048
0.0021221853
-0.0015357408
0.0025148715
-0.001721493
0.0029055547
-0.0018874019
0.003265932
-0.002005903
0.0035572437
-0.0020944663
0.0037352539
-0.0020609911
0.0037088741
-0.001791967
0.0034224402
-0.001190693
0.0028692713
0.0012729883
4.3145178e-05
-3.1482005e-06
4.3224925e-05
-3.7565815e-06
4.3317823e-05
-4.5009884e-06
4.3426847e-05
-5.3929874e-06
4.3553022e-05
-6.4616185e-06
4.3699961e-05
-7.7419212e-06
4.3870702e-05
-9.2752854e-06
4.4069775e-05
-1.1111952e-05
4.4302645e-05
-1.3310761e-05
4.4574211e-05
-1.594268e-05
4.4890839e-05
-1.909118e-05
4.525763e-05
-2.2855157e-05
4.5680614e-05
-2.7351012e-05
4.6160518e-05
-3.2715944e-05
4.6707719e-05
-3.9106616e-05
4.7370884e-05
-4.670246e-05
4.822564e-05
-5.5708706e-05
4.929012e-05
-6.634798e-05
5.0445836e-05
-7.8832828e-05
5.14534e-05
-9.3333563e-05
5.2005459e-05
-0.00010993344
5.1717496e-05
-0.00012855756
5.0262784e-05
-0.00014899515
4.7005404e-05
-0.00017067879
4.1651996e-05
-0.0001927857
3.2827908e-05
-0.00021375567
1.605449e-05
-0.00022858581
-1.0049669e-05
-0.00023113661
-4.1817743e-05
-0.00022031327
-8.120949e-05
-0.00019470688
-0.00012886727
-0.0001493327
-0.00018579899
-8.0342236e-05
-0.00025493169
1.8259787e-05
-0.00034093933
0.00015777027
-0.00044360242
0.00034665008
-0.00055542182
0.00057637733
-0.00068351123
0.00084397907
-0.00082585407
0.0011538
-0.00098762773
0.0015061479
-0.0011592023
0.0018926177
-0.0013446587
0.002300671
-0.0015340075
0.0027253697
-0.0017234114
0.0031480905
-0.0018931916
0.0035378129
-0.0020171912
0.0038512566
-0.0021102938
0.0040408851
-0.0020748296
0.0040051498
-0.0018041677
0.0036800527
-0.0011978323
0.0030498558
0.0013384762
4.5900008e-05
-3.2326944e-06
4.5988356e-05
-3.857566e-06
4.6091922e-05
-4.6220394e-06
4.6213805e-05
-5.538025e-06
4.6356051e-05
-6.6357113e-06
4.6522466e-05
-7.9505775e-06
4.6717135e-05
-9.5258515e-06
4.6944713e-05
-1.1412597e-05
4.721181e-05
-1.3671903e-05
4.7523648e-05
-1.6376365e-05
4.7888694e-05
-1.9612123e-05
4.8313648e-05
-2.3481284e-05
4.8807947e-05
-2.8104254e-05
4.9378993e-05
-3.3622525e-05
5.0044211e-05
-4.0199196e-05
5.0848567e-05
-4.8022336e-05
5.1850452e-05
-5.7305259e-05
5.3051051e-05
-6.8272279e-05
5.4345131e-05
-8.1135815e-05
5.5526084e-05
-9.6070287e-05
5.6297341e-05
-0.00011316328
5.6274984e-05
-0.00013233988
5.5139384e-05
-0.00015338318
5.2243371e-05
-0.00017568572
4.7334148e-05
-0.00019840781
3.8766716e-05
-0.00021974635
2.2140367e-05
-0.00023418061
-3.4889625e-06
-0.00023554205
-3.4525951e-05
-0.00022309324
-7.3273358e-05
-0.00019511144
-0.00012030771
-0.0001460503
-0.00017662514
-7.1922608e-05
-0.00024520614
3.3635571e-05
-0.00033068667
0.00018243273
-0.00043312824
0.00038357056
-0.00054484906
0.00062832001
-0.00067334436
0.00091382415
-0.00081647673
0.001245348
-0.00097975862
0.0016236495
-0.0011527771
0.0020390357
-0.0013404851
0.002477865
-0.0015324603
0.0029350736
-0.0017254704
0.0033905456
-0.0018991131
0.0038105929
-0.0020285376
0.0041475217
-0.0021258265
0.004350145
-0.0020884581
0.0043058983
-0.0018162933
0.003942308
-0.0012049425
0.0032344696
0.0014060052
4.8431206e-05
-3.3238466e-06
4.8527644e-05
-3.9663681e-06
4.8641081e-05
-4.7525526e-06
4.8774975e-05
-5.6945278e-06
4.8931651e-05
-6.8233915e-06
4.9115744e-05
-8.1757295e-06
4.9331593e-05
-9.7960633e-06
4.9584557e-05
-1.1736756e-05
4.9881806e-05
-1.4060983e-05
5.0230108e-05
-1.6843485e-05
5.0640337e-05
-2.0173154e-05
5.1122165e-05
-2.4155304e-05
5.1688213e-05
-2.8915478e-05
5.2352685e-05
-3.4599361e-05
5.3138694e-05
-4.1377152e-05
5.4087068e-05
-4.9446299e-05
5.5235765e-05
-5.9027023e-05
5.6569773e-05
-7.0346797e-05
5.7994264e-05
-8.3619765e-05
5.9329412e-05
-9.9023391e-05
6.0290682e-05
-0.00011664728
6.0515025e-05
-0.00013642001
5.9677477e-05
-0.00015811725
5.7132388e-05
-0.00018110212
5.2683278e-05
-0.00020453028
4.4365152e-05
-0.00022631255
2.7863381e-05
-0.00024038309
2.6985579e-06
-0.00024060063
-2.7621993e-05
-0.00022661737
-6.5729771e-05
-0.00019637295
-0.00011215235
-0.00014373419
-0.00016786896
-6.4574647e-05
-0.00023590501
4.7826226e-05
-0.0003208635
0.00020578973
-0.00042306598
0.0004190704
-0.0005346783
0.00067874837
-0.00066354115
0.00098210169
-0.0008074218
0.0013353269
-0.00097214656
0.0017396609
-0.0011465906
0.0021841558
-0.0013365041
0.0026540958
-0.0015310693
0.0031443239
-0.0017276321
0.0036332645
-0.0019051253
0.0040846101
-0.0020398907
0.0044463282
-0.0021410396
0.0046632721
-0.0021018747
0.0046110707
-0.0018283235
0.004208958
-0.0012120203
0.0034229196
0.0014754399
5.0749666e-05
-3.4213627e-06
5.0854026e-05
-4.0828126e-06
5.0976912e-05
-4.892158e-06
5.1122279e-05
-5.8620595e-06
5.1292684e-05
-7.0241644e-06
5.1493345e-05
-8.4166253e-06
5.1728861e-05
-1.0085001e-05
5.2005351e-05
-1.2083377e-05
5.2331425e-05
-1.4477015e-05
5.27154e-05
-1.734297e-05
5.3170573e-05
-2.0773019e-05
5.3711534e-05
-2.4877212e-05
5.4353233e-05
-2.9784967e-05
5.5112104e-05
-3.5647512e-05
5.6019532e-05
-4.26426e-05
5.710686e-05
-5.0975873e-05
5.839082e-05
-6.0873909e-05
5.9851582e-05
-7.2569273e-05
6.1400181e-05
-8.6280262e-05
6.2873697e-05
-0.00010218594
6.4002348e-05
-0.00012037474
6.4455927e-05
-0.00014078527
6.3888545e-05
-0.00016317488
6.1688308e-05
-0.00018688854
5.7704017e-05
-0.00021111256
4.9619314e-05
-0.00023340335
3.3235527e-05
-0.00024713953
8.5283068e-06
-0.00024628103
-2.1088256e-05
-0.00023086099
-5.856811e-05
-0.00019845825
-0.00010439638
-0.00014234033
-0.00015952602
-5.8250193e-05
-0.00022702421
6.0876179e-05
-0.00031146403
0.00022788125
-0.00041341127
0.00045317537
-0.00052490602
0.00072767131
-0.0006541033
0.0010488002
-0.00079869386
0.0014236913
-0.00096479489
0.0018540644
-0.0011406453
0.0023277935
-0.0013327191
0.0028291335
-0.0015298346
0.0033528293
-0.0017298884
0.0038758848
-0.001911211
0.0043594417
-0.0020512244
0.004747216
-0.0021559575
0.0049797167
-0.0021150708
0.0049203317
-0.0018402239
0.0044799369
-0.0012190549
0.0036151634
0.0015467894
5.2865403e-05
-3.524969e-06
5.2977545e-05
-4.2068141e-06
5.3109747e-05
-5.0408561e-06
5.3265958e-05
-6.0402145e-06
5.3449586e-05