/*--------------------------------*- C++ -*----------------------------------*\
  =========                 |
  \\      /  F ield         | OpenFOAM: The Open Source CFD Toolbox
   \\    /   O peration     | Website:  https://openfoam.org
    \\  /    A nd           | Version:  8
     \\/     M anipulation  |
\*---------------------------------------------------------------------------*/
FoamFile
{
    version     2.0;
    format      ascii;
    class       volScalarField;
    location    "0.199992";
    object      nut;
}
// * * * * * * * * * * * * * * * * * * * * * * * * * * * * * * * * * * * * * //

dimensions      [0 2 -1 0 0 0 0];

internalField   nonuniform List<scalar> 
20000
(
0.0010998084
0.0025470596
0.0032168096
0.0032321384
0.0024985469
0.00072556277
1.1446751e-06
5.9104918e-09
5.442842e-09
5.4287284e-09
5.3172277e-09
5.3437325e-09
5.2763778e-09
5.3104029e-09
5.3095204e-09
5.3410343e-09
5.364181e-09
5.4066344e-09
5.4522509e-09
5.5135807e-09
5.5855645e-09
5.6748991e-09
5.775572e-09
5.8922329e-09
6.0220175e-09
6.1663965e-09
6.3218379e-09
6.4842228e-09
6.6470136e-09
6.8038036e-09
6.9484516e-09
7.0765533e-09
7.185243e-09
7.2735207e-09
7.3412182e-09
7.3912871e-09
7.42786e-09
7.4483999e-09
7.455712e-09
7.4563653e-09
7.4499366e-09
7.4382622e-09
7.4247462e-09
7.4135578e-09
7.4008756e-09
7.3767767e-09
7.34036e-09
7.3183831e-09
7.3025474e-09
7.2885986e-09
0.0010821589
0.0024895295
0.0031278465
0.0031079214
0.0023187432
0.00059678934
3.5023547e-07
5.8146382e-09
5.4131627e-09
5.4029344e-09
5.2939481e-09
5.3220897e-09
5.2554757e-09
5.2903552e-09
5.2903783e-09
5.3227578e-09
5.3468659e-09
5.3901803e-09
5.4371976e-09
5.501202e-09
5.577603e-09
5.6701286e-09
5.7746518e-09
5.8929201e-09
6.0264567e-09
6.1742318e-09
6.3327792e-09
6.4974882e-09
6.6615654e-09
6.8184212e-09
6.9620639e-09
7.0883783e-09
7.1949288e-09
7.2809001e-09
7.3464333e-09
7.3961111e-09
7.4311519e-09
7.449804e-09
7.455736e-09
7.4566994e-09
7.4498157e-09
7.4378436e-09
7.4243287e-09
7.4132526e-09
7.3999637e-09
7.3732266e-09
7.3376235e-09
7.3164162e-09
7.301789e-09
7.2884674e-09
0.001074829
0.0024455015
0.0030426127
0.00297508
0.0021189852
0.00046970474
1.1018219e-07
5.7505872e-09
5.3884056e-09
5.3802634e-09
5.2741887e-09
5.3032467e-09
5.2374763e-09
5.272782e-09
5.2737738e-09
5.3068272e-09
5.3320161e-09
5.3769403e-09
5.4274544e-09
5.4959416e-09
5.5752559e-09
5.6698306e-09
5.7751839e-09
5.8973732e-09
6.0343279e-09
6.1857008e-09
6.3473896e-09
6.5143687e-09
6.6795271e-09
6.8361471e-09
6.9784016e-09
7.102515e-09
7.2064976e-09
7.289701e-09
7.3527467e-09
7.4018862e-09
7.4350731e-09
7.4515532e-09
7.4564171e-09
7.4573907e-09
7.449872e-09
7.4375938e-09
7.4240735e-09
7.4131213e-09
7.3989553e-09
7.3682835e-09
7.3339771e-09
7.3131717e-09
7.3006342e-09
7.2904376e-09
0.0010662449
0.0023994843
0.0029573305
0.0028493017
0.0019202729
0.00036069785
4.2180211e-08
5.7037471e-09
5.3654697e-09
5.3599873e-09
5.2568071e-09
5.2869958e-09
5.2222572e-09
5.2581183e-09
5.2601077e-09
5.2941098e-09
5.3215001e-09
5.3700972e-09
5.423808e-09
5.4941634e-09
5.5747927e-09
5.6704023e-09
5.7799428e-09
5.905758e-09
6.0467162e-09
6.2017911e-09
6.366599e-09
6.535653e-09
6.7015577e-09
6.8574807e-09
6.9978136e-09
7.1192041e-09
7.2201211e-09
7.3000896e-09
7.3605304e-09
7.4085534e-09
7.4390794e-09
7.4534109e-09
7.4575242e-09
7.4581785e-09
7.4499459e-09
7.4372917e-09
7.4237683e-09
7.4129668e-09
7.397726e-09
7.3629052e-09
7.3299174e-09
7.3106562e-09
7.3002213e-09
7.2915142e-09
0.0010578016
0.0023533558
0.0028685937
0.0027189365
0.0017205226
0.00026523485
2.0265799e-08
5.6697232e-09
5.3465065e-09
5.3433372e-09
5.2429532e-09
5.2739671e-09
5.2104978e-09
5.2467749e-09
5.2504485e-09
5.2870608e-09
5.317272e-09
5.3675783e-09
5.422907e-09
5.4941657e-09
5.5767064e-09
5.6757168e-09
5.7885542e-09
5.9184376e-09
6.0634175e-09
6.2222679e-09
6.3901284e-09
6.5610374e-09
6.727311e-09
6.8820613e-09
7.0199566e-09
7.1381329e-09
7.2355071e-09
7.3118212e-09
7.3697082e-09
7.4157084e-09
7.4434244e-09
7.4555666e-09
7.4589861e-09
7.459011e-09
7.4500878e-09
7.4370269e-09
7.4235112e-09
7.4128379e-09
7.39622e-09
7.3569937e-09
7.32549e-09
7.3080332e-09
7.3000172e-09
7.2928369e-09
0.0010495539
0.0023086421
0.0027808201
0.0025890977
0.0015236978
0.00018107445
1.2174969e-08
5.6430484e-09
5.3309488e-09
5.3295138e-09
5.23204e-09
5.2625347e-09
5.2026435e-09
5.2405869e-09
5.2463751e-09
5.2843055e-09
5.3159375e-09
5.3671221e-09
5.4233069e-09
5.4969947e-09
5.5825502e-09
5.6846756e-09
5.8015347e-09
5.9355413e-09
6.0847558e-09
6.2474182e-09
6.4182182e-09
6.5906936e-09
6.7568949e-09
6.9099404e-09
7.0448467e-09
7.159297e-09
7.2526236e-09
7.324882e-09
7.3802682e-09
7.4233703e-09
7.4480644e-09
7.4580986e-09
7.4607871e-09
7.4597546e-09
7.4502649e-09
7.4367623e-09
7.423265e-09
7.4126434e-09
7.3942836e-09
7.3513526e-09
7.321115e-09
7.3054924e-09
7.2997599e-09
7.2942064e-09
0.0010416434
0.0022654507
0.0026989353
0.0024617807
0.0013324472
0.00010801145
8.8065788e-09
5.6215876e-09
5.3237804e-09
5.3181724e-09
5.2213788e-09
5.2508581e-09
5.1991182e-09
5.2379369e-09
5.2449638e-09
5.2835487e-09
5.3160056e-09
5.3686213e-09
5.4273462e-09
5.5035254e-09
5.5921976e-09
5.6979885e-09
5.8188784e-09
5.9572439e-09
6.1107865e-09
6.2772632e-09
6.4508331e-09
6.6245264e-09
6.7901622e-09
6.9409397e-09
7.0723004e-09
7.1825113e-09
7.2712765e-09
7.339127e-09
7.3919907e-09
7.4315112e-09
7.4530114e-09
7.4609893e-09
7.46292e-09
7.4605615e-09
7.4504837e-09
7.4365187e-09
7.42305e-09
7.4123312e-09
7.3917462e-09
7.3462471e-09
7.3170947e-09
7.3027506e-09
7.2989868e-09
7.2958313e-09
0.0010338679
0.0022226292
0.0026166903
0.0023345627
0.0011491157
5.172461e-05
7.2715824e-09
5.6044343e-09
5.3146529e-09
5.3078927e-09
5.2105401e-09
5.2427438e-09
5.1979152e-09
5.2369671e-09
5.244857e-09
5.2844603e-09
5.3189295e-09
5.3736167e-09
5.4347392e-09
5.5138108e-09
5.6059401e-09
5.7155372e-09
5.8407848e-09
5.9836729e-09
6.1416578e-09
6.3119064e-09
6.4880168e-09
6.6625118e-09
6.8270323e-09
6.9749454e-09
7.1021909e-09
7.2076318e-09
7.29132e-09
7.3545205e-09
7.404718e-09
7.4400717e-09
7.4582109e-09
7.4641855e-09
7.4653412e-09
7.4616274e-09
7.4507403e-09
7.4362955e-09
7.4228599e-09
7.4118322e-09
7.3884525e-09
7.3417914e-09
7.3136175e-09
7.30013e-09
7.2972827e-09
7.2977754e-09
0.0010261656
0.0021800035
0.0025346858
0.0022058969
0.00097642623
1.9155973e-05
6.5239031e-09
5.5937265e-09
5.3057799e-09
5.2981748e-09
5.2018759e-09
5.2356412e-09
5.1976687e-09
5.2377459e-09
5.2474433e-09
5.2886299e-09
5.3251147e-09
5.3819758e-09
5.4458969e-09
5.528036e-09
5.62384e-09
5.7375468e-09
5.8673494e-09
6.0149508e-09
6.1774463e-09
6.3513758e-09
6.5297302e-09
6.7045441e-09
6.8673503e-09
7.0117782e-09
7.1343269e-09
7.2344441e-09
7.3125758e-09
7.3711061e-09
7.4181819e-09
7.4489244e-09
7.4635936e-09
7.467791e-09
7.4679624e-09
7.4628372e-09
7.4510295e-09
7.4361018e-09
7.4226967e-09
7.411106e-09
7.3843698e-09
7.3378843e-09
7.3105023e-09
7.2976987e-09
7.2951407e-09
7.2997687e-09
0.0010184351
0.0021375455
0.0024527589
0.0020745904
0.00081614993
5.8031169e-06
6.1581789e-09
5.5814583e-09
5.3032287e-09
5.2941149e-09
5.1978169e-09
5.2311247e-09
5.2003152e-09
5.2417484e-09
5.2532192e-09
5.2959795e-09
5.3347341e-09
5.3939722e-09
5.4608318e-09
5.5462978e-09
5.6460447e-09
5.7640984e-09
5.8987061e-09
6.0511833e-09
6.2182302e-09
6.3956904e-09
6.5759211e-09
6.7505041e-09
6.9109518e-09
7.0512481e-09
7.1684959e-09
7.2627142e-09
7.3348991e-09
7.3890049e-09
7.4320506e-09
7.4579379e-09
7.4691276e-09
7.4718833e-09
7.4706747e-09
7.4640824e-09
7.4513432e-09
7.4359409e-09
7.4225581e-09
7.4101386e-09
7.3799017e-09
7.3341472e-09
7.3075699e-09
7.295387e-09
7.2930303e-09
7.3015707e-09
0.0010107025
0.0020955801
0.0023710291
0.0019429129
0.00067020604
1.6153032e-06
5.9679726e-09
5.5741458e-09
5.3049718e-09
5.2954725e-09
5.2005795e-09
5.2345192e-09
5.2064562e-09
5.2489017e-09
5.2622575e-09
5.3067292e-09
5.347873e-09
5.4096534e-09
5.479696e-09
5.5687148e-09
5.6726573e-09
5.7953241e-09
5.9349573e-09
6.0924591e-09
6.2640523e-09
6.4448281e-09
6.6264928e-09
6.8002326e-09
6.9576348e-09
7.0931226e-09
7.2044383e-09
7.2921919e-09
7.3581947e-09
7.4081386e-09
7.4460546e-09
7.4670045e-09
7.4749301e-09
7.4763032e-09
7.47346e-09
7.4653729e-09
7.4516691e-09
7.4358146e-09
7.422444e-09
7.4089357e-09
7.3751668e-09
7.3304784e-09
7.3047461e-09
7.2931793e-09
7.2910054e-09
7.303161e-09
0.0010028913
0.0020544536
0.0022894435
0.0018086501
0.00054011712
4.6567814e-07
5.8646027e-09
5.5686547e-09
5.3064404e-09
5.2992382e-09
5.206829e-09
5.2419696e-09
5.2157744e-09
5.259214e-09
5.2745891e-09
5.3208966e-09
5.3646222e-09
5.4291328e-09
5.5025726e-09
5.5953931e-09
5.7037968e-09
5.8313319e-09
5.9762108e-09
6.1388547e-09
6.314937e-09
6.49874e-09
6.6813202e-09
6.853542e-09
7.0071641e-09
7.1371273e-09
7.2418619e-09
7.3226599e-09
7.3824577e-09
7.4280859e-09
7.4600765e-09
7.4760253e-09
7.4811747e-09
7.4809187e-09
7.4762685e-09
7.4666637e-09
7.451993e-09
7.4357203e-09
7.4223511e-09
7.4074997e-09
7.3701927e-09
7.3268354e-09
7.3020588e-09
7.2911178e-09
7.2890911e-09
7.3046366e-09
0.0009952965
0.002015023
0.0022096123
0.0016700136
0.00042727527
1.5102817e-07
5.8052043e-09
5.56557e-09
5.3109784e-09
5.3050843e-09
5.2160339e-09
5.2520791e-09
5.2281958e-09
5.2727528e-09
5.2903008e-09
5.3385865e-09
5.3850583e-09
5.4524889e-09
5.5295555e-09
5.6264269e-09
5.7395602e-09
5.8722258e-09
6.0225545e-09
6.1904247e-09
6.3708773e-09
6.5573415e-09
6.7402429e-09
6.9102069e-09
7.0592567e-09
7.1829406e-09
7.2804684e-09
7.3539769e-09
7.4077479e-09
7.4483617e-09
7.4739368e-09
7.4850453e-09
7.4879266e-09
7.485587e-09
7.4790917e-09
7.4679383e-09
7.452294e-09
7.4356515e-09
7.4222654e-09
7.4058051e-09
7.364935e-09
7.3232066e-09
7.2995523e-09
7.2892846e-09
7.2873917e-09
7.3060711e-09
0.00098791522
0.0019771782
0.0021383057
0.0015271242
0.00033149592
5.8482645e-08
5.7720574e-09
5.5656486e-09
5.3180104e-09
5.314148e-09
5.2281006e-09
5.2654086e-09
5.2438679e-09
5.2896118e-09
5.309463e-09
5.3598532e-09
5.4092522e-09
5.479795e-09
5.5607269e-09
5.6619119e-09
5.7800515e-09
5.9181064e-09
6.0740743e-09
6.2472108e-09
6.4318448e-09
6.6205201e-09
6.8030675e-09
6.9699583e-09
7.113576e-09
7.2302156e-09
7.3200064e-09
7.3860966e-09
7.434015e-09
7.4684001e-09
7.4875137e-09
7.4943273e-09
7.494934e-09
7.4902964e-09
7.4819102e-09
7.4691717e-09
7.4525428e-09
7.4355976e-09
7.4221487e-09
7.4037798e-09
7.3593543e-09
7.3195722e-09
7.2972407e-09
7.2877653e-09
7.2859769e-09
7.3075383e-09
0.00098059721
0.0019393144
0.0020652038
0.0013794058
0.00024556278
2.7587823e-08
5.7550001e-09
5.5692022e-09
5.3281487e-09
5.3259395e-09
5.2433827e-09
5.2818908e-09
5.262812e-09
5.3098249e-09
5.3321106e-09
5.3847536e-09
5.4372529e-09
5.5111155e-09
5.5961632e-09
5.7019351e-09
5.8253616e-09
5.9690611e-09
6.1308332e-09
6.3092277e-09
6.4977788e-09
6.6881279e-09
6.8695578e-09
7.0324702e-09
7.1697416e-09
7.2786295e-09
7.3603225e-09
7.4190157e-09
7.4607007e-09
7.4879304e-09
7.5007488e-09
7.5041274e-09
7.501979e-09
7.4949938e-09
7.4847012e-09
7.4703516e-09
7.4527051e-09
7.4355462e-09
7.421928e-09
7.4012701e-09
7.3534637e-09
7.3159371e-09
7.2951343e-09
7.2865961e-09
7.2850748e-09
7.3091157e-09
0.00097351779
0.0019020848
0.001993426
0.0012294896
0.00016933649
1.6047864e-08
5.747893e-09
5.5756923e-09
5.3411926e-09
5.341384e-09
5.2617686e-09
5.3015635e-09
5.2850451e-09
5.333405e-09
5.3582733e-09
5.4133118e-09
5.4691119e-09
5.5465213e-09
5.6359509e-09
5.7465966e-09
5.8755947e-09
6.0251839e-09
6.1928919e-09
6.376475e-09
6.568595e-09
6.7599834e-09
6.9394262e-09
7.0973595e-09
7.2273722e-09
7.3279507e-09
7.4013598e-09
7.4526106e-09
7.4870741e-09
7.5068118e-09
7.5140309e-09
7.5141448e-09
7.5089865e-09
7.4996494e-09
7.487444e-09
7.4714633e-09
7.4527996e-09
7.4354861e-09
7.4214948e-09
7.3980118e-09
7.347412e-09
7.3123317e-09
7.2932418e-09
7.2857484e-09
7.2846895e-09
7.3108797e-09
0.00096666642
0.0018652211
0.0019216959
0.0010810878
0.00010340834
1.1194605e-08
5.7469874e-09
5.5853767e-09
5.3573008e-09
5.3597163e-09
5.2832713e-09
5.3243994e-09
5.3105543e-09
5.3603611e-09
5.3879652e-09
5.4455722e-09
5.5048862e-09
5.5860844e-09
5.6801747e-09
5.7959895e-09
5.9308457e-09
6.0865575e-09
6.2602939e-09
6.4489273e-09
6.6441753e-09
6.8358585e-09
7.0123228e-09
7.164206e-09
7.2861602e-09
7.3780755e-09
7.4430479e-09
7.4863349e-09
7.5126135e-09
7.5250302e-09
7.527689e-09
7.5240879e-09
7.5158961e-09
7.5042286e-09
7.490114e-09
7.4724837e-09
7.4529487e-09
7.4354086e-09
7.4207254e-09
7.3936841e-09
7.3414842e-09
7.3088137e-09
7.291504e-09
7.2849476e-09
7.2845704e-09
7.3128779e-09
0.00095991263
0.0018274645
0.0018495374
0.0009433739
5.2707312e-05
8.9423266e-09
5.7510218e-09
5.5980956e-09
5.3764975e-09
5.3811005e-09
5.3078414e-09
5.3503757e-09
5.3393451e-09
5.3907065e-09
5.4212314e-09
5.4815778e-09
5.5446429e-09
5.6298906e-09
5.7289334e-09
5.8502224e-09
5.9912219e-09
6.153269e-09
6.3330786e-09
6.5265423e-09
6.7243687e-09
6.9154692e-09
7.0878369e-09
7.2326104e-09
7.3459418e-09
7.4289521e-09
7.4850571e-09
7.5193225e-09
7.5371919e-09
7.5430893e-09
7.5413655e-09
7.5338567e-09
7.5226585e-09
7.5087e-09
7.4926765e-09
7.4733967e-09
7.453196e-09
7.435309e-09
7.419525e-09
7.3881031e-09
7.3359683e-09
7.3053871e-09
7.2897529e-09
7.2842349e-09
7.2845748e-09
7.3151182e-09
0.00095296756
0.0017871299
0.0017753411
0.0008148776
2.1806435e-05
7.8204004e-09
5.7588052e-09
5.613697e-09
5.3987129e-09
5.4054189e-09
5.3354764e-09
5.3795142e-09
5.3714459e-09
5.4244854e-09
5.4581116e-09
5.5214045e-09
5.5884608e-09
5.6780274e-09
5.7823223e-09
5.9093975e-09
6.0568211e-09
6.225392e-09
6.4112643e-09
6.609248e-09
6.8089756e-09
6.9984634e-09
7.1655249e-09
7.3022776e-09
7.4066782e-09
7.480333e-09
7.5264619e-09
7.5511997e-09
7.5609509e-09
7.5612774e-09
7.5547124e-09
7.5433759e-09
7.5292309e-09
7.5130272e-09
7.4950922e-09
7.474239e-09
7.4532547e-09
7.4351939e-09
7.4178696e-09
7.3815262e-09
7.3308797e-09
7.3020385e-09
7.287941e-09
7.2841003e-09
7.2862496e-09
7.3175784e-09
0.00094574643
0.0017445272
0.0016982242
0.00069613197
7.6520008e-06
7.2380497e-09
5.7703907e-09
5.6323167e-09
5.4238634e-09
5.4327748e-09
5.3662385e-09
5.4118549e-09
5.4069047e-09
5.4617427e-09
5.4986786e-09
5.5651162e-09
5.636423e-09
5.7305926e-09
5.8404511e-09
5.9736327e-09
6.1277533e-09
6.3030023e-09
6.4948582e-09
6.6969416e-09
6.8977389e-09
7.0844262e-09
7.2449723e-09
7.3730822e-09
7.468245e-09
7.5313626e-09
7.566687e-09
7.581824e-09
7.5845487e-09
7.5790178e-09
7.5676825e-09
7.552584e-09
7.5355764e-09
7.5171743e-09
7.4973382e-09
7.475087e-09
7.453246e-09
7.4350678e-09
7.4158129e-09
7.3744808e-09
7.3260001e-09
7.2989222e-09
7.2862749e-09
7.2840688e-09
7.3003905e-09
7.3201792e-09
0.00093802928
0.0016988497
0.0016164969
0.00058728287
2.4762857e-06
6.9284121e-09
5.7855758e-09
5.6539374e-09
5.4520257e-09
5.463175e-09
5.4001478e-09
5.4474327e-09
5.4457684e-09
5.502545e-09
5.5429931e-09
5.6128029e-09
5.6886159e-09
5.787681e-09
5.9034269e-09
6.0430416e-09
6.2041215e-09
6.3861629e-09
6.5838416e-09
6.7894706e-09
6.9903297e-09
7.1729048e-09
7.3258766e-09
7.4450141e-09
7.5299713e-09
7.5812553e-09
7.6053436e-09
7.6117608e-09
7.6076637e-09
7.5961932e-09
7.5801684e-09
7.5614321e-09
7.5416615e-09
7.5211064e-09
7.4994154e-09
7.4759357e-09
7.453265e-09
7.4349247e-09
7.4134313e-09
7.3671777e-09
7.3213126e-09
7.2963556e-09
7.2855268e-09
7.2840733e-09
7.3070474e-09
7.3229484e-09
0.0009297109
0.0016496874
0.0015230102
0.00048900696
8.0507805e-07
6.7625941e-09
5.8042171e-09
5.6786229e-09
5.4831967e-09
5.496653e-09
5.4372393e-09
5.4862994e-09
5.4881083e-09
5.5469583e-09
5.5911354e-09
5.6645308e-09
5.7451284e-09
5.8494059e-09
5.9713815e-09
6.1177637e-09
6.2860457e-09
6.4749429e-09
6.6781772e-09
6.88663e-09
7.0863523e-09
7.2634695e-09
7.4081066e-09
7.5178852e-09
7.5907814e-09
7.6293849e-09
7.642664e-09
7.6412495e-09
7.6299243e-09
7.6126776e-09
7.5921186e-09
7.569877e-09
7.5474501e-09
7.5247943e-09
7.5013448e-09
7.476693e-09
7.4532775e-09
7.4347199e-09
7.4107214e-09
7.3598329e-09
7.3168971e-09
7.2942571e-09
7.2852838e-09
7.2840246e-09
7.3013249e-09
7.3269129e-09
0.00092105138
0.0015985892
0.0014220407
0.00040254272
2.8082702e-07
6.6740198e-09
5.8261326e-09
5.7062521e-09
5.5173693e-09
5.5332196e-09
5.4775694e-09
5.5285108e-09
5.5340389e-09
5.5950435e-09
5.643157e-09
5.7203834e-09
5.8060562e-09
5.9158878e-09
6.0444533e-09
6.1979376e-09
6.3736395e-09
6.56939e-09
6.7777845e-09
6.9881412e-09
7.1853644e-09
7.3557872e-09
7.4916449e-09
7.5906709e-09
7.6499307e-09
7.6754746e-09
7.6794065e-09
7.6696336e-09
7.6512697e-09
7.6284031e-09
7.6034753e-09
7.5778825e-09
7.552908e-09
7.528212e-09
7.5031499e-09
7.4772349e-09
7.4532729e-09
7.4343517e-09
7.4074923e-09
7.3527656e-09
7.3128581e-09
7.2921876e-09
7.285185e-09
7.2843917e-09
7.3019415e-09
7.3383571e-09
0.00091198131
0.0015459184
0.0013135296
0.00032550088
1.1038203e-07
6.6284875e-09
5.8512673e-09
5.7369551e-09
5.5546334e-09
5.5729823e-09
5.5212037e-09
5.5741232e-09
5.5835226e-09
5.6468368e-09
5.6991178e-09
5.7804381e-09
5.8715216e-09
5.9872823e-09
6.1228133e-09
6.28373e-09
6.4670271e-09
6.6695396e-09
6.8825301e-09
7.0936543e-09
7.2869273e-09
7.4496798e-09
7.5762846e-09
7.6621764e-09
7.7067696e-09
7.7202422e-09
7.7150409e-09
7.6968243e-09
7.6715768e-09
7.643305e-09
7.6141993e-09
7.585419e-09
7.5580055e-09
7.5313342e-09
7.5048867e-09
7.4774784e-09
7.4532605e-09
7.4336841e-09
7.4033208e-09
7.3462525e-09
7.3096416e-09
7.2913993e-09
7.2851344e-09
7.2856072e-09
7.3044766e-09
7.3396907e-09
0.00090256449
0.0014917398
0.0012014062
0.000255176
5.0286998e-08
6.6080687e-09
5.8797362e-09
5.7708153e-09
5.5950519e-09
5.6159266e-09
5.5681497e-09
5.6231234e-09
5.6365136e-09
5.7023729e-09
5.7590896e-09
5.8448234e-09
5.9416765e-09
6.0637615e-09
6.2066374e-09
6.3753059e-09
6.5663214e-09
6.7753871e-09
6.9922037e-09
7.2027552e-09
7.390662e-09
7.5450905e-09
7.6608555e-09
7.731593e-09
7.7612205e-09
7.7641405e-09
7.7491118e-09
7.7226627e-09
7.6907857e-09
7.6573355e-09
7.6242581e-09
7.5924618e-09
7.5627177e-09
7.5341436e-09
7.5066005e-09
7.4775713e-09
7.4532079e-09
7.4325522e-09
7.3977005e-09
7.3406117e-09
7.3072068e-09
7.2912551e-09
7.285413e-09
7.2878664e-09
7.3081579e-09
7.3323834e-09
0.00089297604
0.0014350087
0.0010958969
0.00019095606
2.7008994e-08
6.6025559e-09
5.9111792e-09
5.8076718e-09
5.6385163e-09
5.6620243e-09
5.6183736e-09
5.6755211e-09
5.6930876e-09
5.7617391e-09
5.8232038e-09
5.9136965e-09
6.0167146e-09
6.1455363e-09
6.2961335e-09
6.4728318e-09
6.6716334e-09
6.8868835e-09
7.1065219e-09
7.3150088e-09
7.4963045e-09
7.6418435e-09
7.7440642e-09
7.7981865e-09
7.8141539e-09
7.8064065e-09
7.7815372e-09
7.7470747e-09
7.7088317e-09
7.6704575e-09
7.6336303e-09
7.5989891e-09
7.5670295e-09
7.5366743e-09
7.5077907e-09
7.4776058e-09
7.4531319e-09
7.4308532e-09
7.3905596e-09
7.3357335e-09
7.3049501e-09
7.2912073e-09
7.2862171e-09
7.291641e-09
7.3123607e-09
7.3303365e-09
0.00088367092
0.0013790977
0.00098854801
0.00013209538
1.7093975e-08
6.6067165e-09
5.9457475e-09
5.8475759e-09
5.6850453e-09
5.7112627e-09
5.6718868e-09
5.7313584e-09
5.7533523e-09
5.8250829e-09
5.8916411e-09
5.987272e-09
6.0968497e-09
6.2328225e-09
6.3915106e-09
6.5764877e-09
6.7830404e-09
7.0039046e-09
7.2251238e-09
7.4300016e-09
7.6037191e-09
7.738876e-09
7.8249254e-09
7.8619525e-09
7.8657878e-09
7.846661e-09
7.8121704e-09
7.7699858e-09
7.725673e-09
7.6826474e-09
7.6423028e-09
7.6049823e-09
7.5709394e-09
7.5390725e-09
7.5081578e-09
7.4776329e-09
7.4530246e-09
7.4285723e-09
7.3826971e-09
7.3310651e-09
7.302719e-09
7.2910998e-09
7.2874473e-09
7.3052851e-09
7.3169267e-09
7.3322322e-09
0.00087506062
0.0013269975
0.0008826754
8.1030054e-05
1.2439825e-08
6.6169588e-09
5.983222e-09
5.8903708e-09
5.7345697e-09
5.7636378e-09
5.7287812e-09
5.790793e-09
5.8174993e-09
5.8926175e-09
5.9646218e-09
6.0657662e-09
6.1823192e-09
6.3258646e-09
6.4930025e-09
6.6864568e-09
6.9005897e-09
7.1262629e-09
7.3475968e-09
7.5473804e-09
7.7127859e-09
7.8347866e-09
7.9025675e-09
7.9237555e-09
7.9153741e-09
7.8847772e-09
7.8409379e-09
7.7913471e-09
7.7412796e-09
7.6938935e-09
7.6502687e-09
7.6104299e-09
7.5744591e-09
7.5414572e-09
7.5082445e-09
7.4776259e-09
7.4528331e-09
7.4256934e-09
7.3742212e-09
7.3269699e-09
7.3019764e-09
7.2919624e-09
7.2892903e-09
7.3127358e-09
7.3263273e-09
7.3343775e-09
0.00086672045
0.001273606
0.00077916076
4.2332889e-05
1.0097267e-08
6.6317672e-09
6.0235172e-09
5.9361806e-09
5.7872437e-09
5.8193979e-09
5.789317e-09
5.8540786e-09
5.8857701e-09
5.9645313e-09
6.0423636e-09
6.1494271e-09
6.2733695e-09
6.4249116e-09
6.6008398e-09
6.8029026e-09
7.0242659e-09
7.2536858e-09
7.4735192e-09
7.6668843e-09
7.8228101e-09
7.9282894e-09
7.9767223e-09
7.9839684e-09
7.9624266e-09
7.92062e-09
7.8677719e-09
7.8111267e-09
7.7556412e-09
7.7041962e-09
7.6575224e-09
7.6153348e-09
7.5776315e-09
7.5432999e-09
7.5082426e-09
7.4775331e-09
7.4524378e-09
7.4220461e-09
7.36564e-09
7.3232094e-09
7.3016346e-09
7.2934176e-09
7.2918062e-09
7.3087969e-09
7.3369165e-09
7.336575e-09
0.00085885474
0.001219345
0.0006798612
1.8695963e-05
8.8598476e-09
6.6512067e-09
6.0670647e-09
5.9853678e-09
5.8434512e-09
5.8788631e-09
5.8537785e-09
5.9214433e-09
5.9583716e-09
6.0410417e-09
6.1250951e-09
6.2384974e-09
6.3702732e-09
6.5302404e-09
6.7152722e-09
6.9259657e-09
7.1539822e-09
7.3858045e-09
7.6024983e-09
7.7883602e-09
7.93229e-09
8.0184274e-09
8.0482294e-09
8.0417642e-09
8.0068318e-09
7.9541084e-09
7.8926358e-09
7.8293157e-09
7.7687651e-09
7.7135619e-09
7.6640554e-09
7.6197191e-09
7.5805799e-09
7.5439055e-09
7.5081877e-09
7.4773448e-09
7.4516468e-09
7.4171606e-09
7.3576507e-09
7.3197539e-09
7.3013859e-09
7.2952403e-09
7.2946578e-09
7.3100768e-09
7.3340147e-09
7.3399724e-09
0.00085164506
0.0011642111
0.00058604503
7.2678185e-06
8.1886475e-09
6.6770066e-09
6.1143348e-09
6.0383253e-09
5.9034763e-09
5.9422442e-09
5.9223385e-09
5.9930456e-09
6.0354745e-09
6.1224385e-09
6.2130615e-09
6.3332642e-09
6.4733181e-09
6.642136e-09
6.8365341e-09
7.0557354e-09
7.2895573e-09
7.5222048e-09
7.7341793e-09
7.9115349e-09
8.0395848e-09
8.1044271e-09
8.1178957e-09
8.0964681e-09
8.0484324e-09
7.9851836e-09
7.9155158e-09
7.8459284e-09
7.7806704e-09
7.7219931e-09
7.6698606e-09
7.6236206e-09
7.5834469e-09
7.5441313e-09
7.5078958e-09
7.4770848e-09
7.450273e-09
7.4104311e-09
7.3510894e-09
7.3167137e-09
7.301387e-09
7.2968313e-09
7.2974387e-09
7.312338e-09
7.3338955e-09
7.3491652e-09
0.00084527195
0.0011114983
0.00049853847
2.6511155e-06
7.8228324e-09
6.710819e-09
6.165166e-09
6.0950964e-09
5.9673844e-09
6.0095889e-09
5.9950872e-09
6.0690339e-09
6.1172758e-09
6.2089658e-09
6.3065425e-09
6.4340211e-09
6.5828254e-09
6.7609093e-09
6.9648626e-09
7.1922424e-09
7.4307202e-09
7.6624751e-09
7.8682607e-09
8.0350483e-09
8.1435835e-09
8.1870152e-09
8.1848017e-09
8.1479738e-09
8.0871464e-09
8.0138192e-09
7.9364245e-09
7.8609935e-09
7.7913694e-09
7.729478e-09
7.6749511e-09
7.6271045e-09
7.585979e-09
7.5441495e-09
7.5074711e-09
7.4767892e-09
7.4482065e-09
7.4020748e-09
7.3461152e-09
7.315141e-09
7.3018582e-09
7.2979951e-09
7.2994833e-09
7.3154223e-09
7.3361966e-09
7.3491984e-09
0.0008389984
0.001053303
0.00041758712
9.6865878e-07
7.6273991e-09
6.7474073e-09
6.2198073e-09
6.1554839e-09
6.0351485e-09
6.0809727e-09
6.0721834e-09
6.1496233e-09
6.2040283e-09
6.3008984e-09
6.4058525e-09
6.5411199e-09
6.6991348e-09
6.8868704e-09
7.100454e-09
7.3354327e-09
7.5771257e-09
7.8062306e-09
8.00451e-09
8.1572248e-09
8.2431479e-09
8.2670164e-09
8.2482835e-09
8.1960932e-09
8.1229141e-09
8.0400184e-09
7.9553942e-09
7.8745348e-09
7.8008501e-09
7.735998e-09
7.6793921e-09
7.6303e-09
7.5870526e-09
7.5441388e-09
7.5069203e-09
7.4764275e-09
7.44537e-09
7.3929274e-09
7.3419825e-09
7.3145334e-09
7.3025072e-09
7.2993886e-09
7.3009e-09
7.3192026e-09
7.3394899e-09
7.3438799e-09
0.00083271919
0.00099135097
0.00034398353
3.7765903e-07
7.5275091e-09
6.7877456e-09
6.2779599e-09
6.2196969e-09
6.1069697e-09
6.1566585e-09
6.1538972e-09
6.2350949e-09
6.2960278e-09
6.3985311e-09
6.5113472e-09
6.6549157e-09
6.8226142e-09
7.0203398e-09
7.2434568e-09
7.4851454e-09
7.7283674e-09
7.9530844e-09
8.1422979e-09
8.2763493e-09
8.3383065e-09
8.3441769e-09
8.3079102e-09
8.2407409e-09
8.1557196e-09
8.0638125e-09
7.9724611e-09
7.8865497e-09
7.8090821e-09
7.7415709e-09
7.6833172e-09
7.6333525e-09
7.587477e-09
7.5438472e-09
7.5062615e-09
7.4758473e-09
7.4415416e-09
7.3833761e-09
7.3382233e-09
7.3144505e-09
7.3038266e-09
7.3013306e-09
7.3032593e-09
7.3240952e-09
7.3422597e-09
7.3440009e-09
0.00082614821
0.00092492242
0.00027748702
1.6479737e-07
7.4799229e-09
6.8322162e-09
6.3400839e-09
6.2881239e-09
6.1831985e-09
6.2369263e-09
6.2405131e-09
6.3257426e-09
6.3936e-09
6.5022259e-09
6.6234012e-09
6.7758152e-09
6.9536451e-09
7.1616148e-09
7.3939397e-09
7.6411175e-09
7.8840366e-09
8.102683e-09
8.2798789e-09
8.3912233e-09
8.4298106e-09
8.4176359e-09
8.3635499e-09
8.2818491e-09
8.1855807e-09
8.0852504e-09
7.987646e-09
7.8970132e-09
7.8160797e-09
7.7463321e-09
7.6869166e-09
7.636018e-09
7.5875522e-09
7.5433383e-09
7.5055133e-09
7.4748283e-09
7.4361949e-09
7.3743878e-09
7.3348452e-09
7.3145046e-09
7.3057587e-09
7.3037263e-09
7.3080505e-09
7.3312994e-09
7.3442636e-09
7.3454987e-09
0.00081914902
0.0008546813
0.00021809482
8.2597703e-08
7.4644746e-09
6.8810645e-09
6.406502e-09
6.3609261e-09
6.2640594e-09
6.3220256e-09
6.3323153e-09
6.4218973e-09
6.4971049e-09
6.6123809e-09
6.7424341e-09
6.9042288e-09
7.0926278e-09
7.3109673e-09
7.5518803e-09
7.8029943e-09
8.0436982e-09
8.2546494e-09
8.4153268e-09
8.5008363e-09
8.5184208e-09
8.4865649e-09
8.415062e-09
8.31941e-09
8.2125455e-09
8.1043783e-09
8.000951e-09
7.9059434e-09
7.8220047e-09
7.7505689e-09
7.6903284e-09
7.6371354e-09
7.587545e-09
7.5426303e-09
7.5047329e-09
7.4732043e-09
7.4286617e-09
7.3670615e-09
7.3323378e-09
7.3151683e-09
7.3077586e-09
7.3061939e-09
7.3150914e-09
7.3445306e-09
7.3462835e-09
7.3471226e-09
0.00081127228
0.00078043766
0.00016693266
4.7839268e-08
7.4688597e-09
6.93439e-09
6.4772124e-09
6.4383235e-09
6.3498094e-09
6.4122734e-09
6.4296503e-09
6.5239344e-09
6.6069528e-09
6.7294271e-09
6.8688914e-09
7.0406219e-09
7.2399593e-09
7.4686038e-09
7.7171528e-09
7.9703839e-09
8.2068918e-09
8.4078602e-09
8.5468906e-09
8.6057708e-09
8.6030333e-09
8.5508663e-09
8.4623828e-09
8.3534531e-09
8.2366749e-09
8.1212225e-09
8.0123963e-09
7.913509e-09
7.8272109e-09
7.7545666e-09
7.6933519e-09
7.6376081e-09
7.5873454e-09
7.5417589e-09
7.5039787e-09
7.4709195e-09
7.4193899e-09
7.3616093e-09
7.3306177e-09
7.3161344e-09
7.3097974e-09
7.3097554e-09
7.3240593e-09
7.3451334e-09
7.3532723e-09
7.3489006e-09
0.00080238159
0.00069849082
0.00012195805
3.1319169e-08
7.4867708e-09
6.9921378e-09
6.5528114e-09
6.5206659e-09
6.4408124e-09
6.5080339e-09
6.5329028e-09
6.6322697e-09
6.7235755e-09
6.8538394e-09
7.0032637e-09
7.1854653e-09
7.3960265e-09
7.6346452e-09
7.8895016e-09
8.1428679e-09
8.3731755e-09
8.5602705e-09
8.6730779e-09
8.7069109e-09
8.682805e-09
8.6103292e-09
8.5054969e-09
8.3840427e-09
8.2580242e-09
8.1358012e-09
8.0220991e-09
7.9200824e-09
7.8320502e-09
7.7581955e-09
7.6949052e-09
7.6377268e-09
7.5868216e-09
7.5407771e-09
7.5032301e-09
7.4678404e-09
7.4098479e-09
7.3571217e-09
7.3295944e-09
7.3170891e-09
7.3123428e-09
7.3221992e-09
7.3320327e-09
7.3451114e-09
7.3567198e-09
7.3526642e-09
0.00079388542
0.00062347375
8.4945094e-05
2.2759897e-08
7.5148999e-09
7.055187e-09
6.6332774e-09
6.6083153e-09
6.5374355e-09
6.6096945e-09
6.6424906e-09
6.7473421e-09
6.8474638e-09
6.9861146e-09
7.1460673e-09
7.3392582e-09
7.5611732e-09
7.8090951e-09
8.0685726e-09
8.3199705e-09
8.5420432e-09
8.7096812e-09
8.7934112e-09
8.804088e-09
8.7571416e-09
8.6648806e-09
8.5444396e-09
8.4112513e-09
8.2766362e-09
8.1481927e-09
8.0303538e-09
7.9260608e-09
7.8363549e-09
7.7603996e-09
7.6956045e-09
7.6377551e-09
7.5860487e-09
7.5397163e-09
7.5023169e-09
7.4634448e-09
7.4004134e-09
7.3533616e-09
7.3293779e-09
7.3186784e-09
7.315624e-09
7.3263464e-09
7.3383047e-09
7.3469019e-09
7.3551069e-09
7.3590217e-09
0.00078646387
0.00056800195
5.6300099e-05
1.7945313e-08
7.5512929e-09
7.1233025e-09
6.7191838e-09
6.7015706e-09
6.6400697e-09
6.717701e-09
6.7588567e-09
6.8696531e-09
6.979111e-09
7.1268104e-09
7.2978629e-09
7.5024993e-09
7.7356724e-09
7.9918387e-09
8.2539292e-09
8.501079e-09
8.711782e-09
8.8542611e-09
8.9085519e-09
8.896199e-09
8.8259032e-09
8.7144805e-09
8.579281e-09
8.4351435e-09
8.2925742e-09
8.15864e-09
8.0375855e-09
7.9313482e-09
7.8388454e-09
7.7613865e-09
7.695855e-09
7.6375567e-09
7.5850417e-09
7.5385958e-09
7.5009205e-09
7.4569546e-09
7.3916106e-09
7.3500067e-09
7.3295192e-09
7.3209245e-09
7.3187707e-09
7.3250418e-09
7.3429224e-09
7.348847e-09
7.3562413e-09
7.3567377e-09
0.00077949632
0.00051721734
3.4990542e-05
1.504587e-08
7.5953311e-09
7.1968683e-09
6.8109358e-09
6.8008954e-09
6.7491582e-09
6.83247e-09
6.8824904e-09
6.9997159e-09
7.1191054e-09
7.2765287e-09
7.4592547e-09
7.6756753e-09
7.9196964e-09
8.1826356e-09
8.445127e-09
8.6856068e-09
8.8800003e-09
8.9922646e-09
9.0197089e-09
8.9821036e-09
8.8889282e-09
8.7591648e-09
8.6101028e-09
8.4557794e-09
8.3060043e-09
8.167585e-09
8.0440353e-09
7.9347108e-09
7.8399719e-09
7.7617909e-09
7.6959821e-09
7.6370227e-09
7.5838646e-09
7.5374281e-09
7.4987034e-09
7.447972e-09
7.3839939e-09
7.347299e-09
7.3302276e-09
7.3234654e-09
7.3218101e-09
7.3278995e-09
7.3457181e-09
7.3511991e-09
7.3577866e-09
7.3551523e-09
0.00077368719
0.00047404198
2.0698177e-05
1.3227376e-08
7.646827e-09
7.2763642e-09
6.9088154e-09
6.9067206e-09
6.8651582e-09
6.9544879e-09
7.013936e-09
7.1380637e-09
7.2680791e-09
7.4359452e-09
7.630874e-09
7.8592225e-09
8.1132833e-09
8.3811021e-09
8.6415898e-09
8.8727613e-09
9.0440462e-09
9.1240219e-09
9.125489e-09
9.0616173e-09
8.9461701e-09
8.7990066e-09
8.6369922e-09
8.4732815e-09
8.3172825e-09
8.1754516e-09
8.0491605e-09
7.9361988e-09
7.8404209e-09
7.7619964e-09
7.695934e-09
7.6362073e-09
7.5825822e-09
7.5362224e-09
7.4954813e-09
7.437369e-09
7.3782654e-09
7.3461193e-09
7.331677e-09
7.326412e-09
7.3253234e-09
7.3329806e-09
7.3477067e-09
7.3543109e-09
7.3590629e-09
7.356366e-09
0.00077010812
0.00043744761
1.1734358e-05
1.2043966e-08
7.7056058e-09
7.3623484e-09
7.0132879e-09
7.019483e-09
6.9885644e-09
7.0842959e-09
7.1538428e-09
7.2854357e-09
7.4267612e-09
7.6057796e-09
7.8133481e-09
8.0534769e-09
8.3163262e-09