/*--------------------------------*- C++ -*----------------------------------*\
  =========                 |
  \\      /  F ield         | OpenFOAM: The Open Source CFD Toolbox
   \\    /   O peration     | Website:  https://openfoam.org
    \\  /    A nd           | Version:  8
     \\/     M anipulation  |
\*---------------------------------------------------------------------------*/
FoamFile
{
    version     2.0;
    format      ascii;
    class       volScalarField;
    location    "0.199992";
    object      nuTilda;
}
// * * * * * * * * * * * * * * * * * * * * * * * * * * * * * * * * * * * * * //

dimensions      [0 2 -1 0 0 0 0];

internalField   nonuniform List<scalar> 
20000
(
0.0011016703
0.0025474069
0.003217025
0.0032323471
0.0024988819
0.00072921115
3.8759773e-05
1.03157e-05
1.0112064e-05
1.0096962e-05
1.0045825e-05
1.0049247e-05
1.0013775e-05
1.0018605e-05
1.0009497e-05
1.0009128e-05
1.0005222e-05
1.0004285e-05
1.0003192e-05
1.0003064e-05
1.0003312e-05
1.0003428e-05
1.000332e-05
1.0003041e-05
1.0002688e-05
1.0002321e-05
1.0001999e-05
1.0001728e-05
1.0001492e-05
1.0001267e-05
1.000107e-05
1.0000901e-05
1.0000752e-05
1.0000638e-05
1.0000599e-05
1.0000631e-05
1.0000685e-05
1.0000659e-05
1.0000621e-05
1.0000697e-05
1.0000699e-05
1.0000669e-05
1.0000577e-05
1.0000546e-05
1.0000552e-05
1.000058e-05
1.000058e-05
1.0000731e-05
1.0001352e-05
1.0002771e-05
0.0010840949
0.0024898953
0.0031280756
0.003108148
0.0023191324
0.00060212634
2.8736737e-05
1.0285851e-05
1.0109806e-05
1.0095897e-05
1.0045376e-05
1.0049144e-05
1.0013591e-05
1.0018441e-05
1.0009386e-05
1.0009011e-05
1.000519e-05
1.0004256e-05
1.0003173e-05
1.000304e-05
1.0003287e-05
1.0003408e-05
1.00033e-05
1.0003023e-05
1.0002673e-05
1.000231e-05
1.0001988e-05
1.0001714e-05
1.000147e-05
1.0001236e-05
1.0001032e-05
1.0000863e-05
1.0000716e-05
1.0000603e-05
1.0000569e-05
1.0000595e-05
1.0000658e-05
1.0000639e-05
1.0000615e-05
1.0000668e-05
1.000068e-05
1.0000654e-05
1.0000563e-05
1.0000535e-05
1.0000536e-05
1.0000565e-05
1.0000568e-05
1.0000714e-05
1.0001321e-05
1.0002752e-05
0.0010767996
0.002445882
0.0030428554
0.0029753275
0.00211945
0.00047808795
2.1504321e-05
1.0266625e-05
1.0107445e-05
1.0094293e-05
1.0044944e-05
1.0048905e-05
1.001343e-05
1.0018158e-05
1.0009267e-05
1.0008886e-05
1.0005145e-05
1.0004217e-05
1.0003153e-05
1.0003019e-05
1.0003263e-05
1.0003382e-05
1.0003279e-05
1.0003008e-05
1.0002666e-05
1.0002309e-05
1.0001995e-05
1.0001729e-05
1.0001482e-05
1.0001243e-05
1.0001037e-05
1.0000873e-05
1.0000729e-05
1.0000612e-05
1.0000568e-05
1.0000591e-05
1.0000657e-05
1.0000642e-05
1.0000605e-05
1.0000669e-05
1.0000677e-05
1.0000654e-05
1.0000563e-05
1.0000532e-05
1.0000533e-05
1.0000564e-05
1.000056e-05
1.00007e-05
1.0001301e-05
1.0002742e-05
0.0010682564
0.0023998809
0.0029575881
0.0028495719
0.0019208372
0.00037412615
1.692182e-05
1.0254225e-05
1.0105093e-05
1.0092736e-05
1.0044479e-05
1.0048646e-05
1.0013266e-05
1.0017901e-05
1.0009154e-05
1.0008756e-05
1.0005102e-05
1.0004177e-05
1.0003131e-05
1.0002994e-05
1.0003241e-05
1.0003359e-05
1.0003256e-05
1.000299e-05
1.0002653e-05
1.0002302e-05
1.0001992e-05
1.000173e-05
1.0001487e-05
1.0001245e-05
1.0001037e-05
1.0000874e-05
1.0000732e-05
1.0000612e-05
1.0000566e-05
1.0000581e-05
1.0000651e-05
1.0000642e-05
1.0000601e-05
1.0000664e-05
1.0000673e-05
1.0000651e-05
1.000056e-05
1.000053e-05
1.0000532e-05
1.0000566e-05
1.0000558e-05
1.0000688e-05
1.0001276e-05
1.0002705e-05
0.0010598518
0.0023537691
0.0028688679
0.0027192333
0.0017212226
0.00028707514
1.4097363e-05
1.0245378e-05
1.0102745e-05
1.0091093e-05
1.0043962e-05
1.0048351e-05
1.001316e-05
1.0017628e-05
1.0009042e-05
1.0008624e-05
1.0005058e-05
1.0004135e-05
1.0003107e-05
1.0002968e-05
1.0003218e-05
1.0003333e-05
1.0003232e-05
1.0002972e-05
1.0002641e-05
1.0002295e-05
1.0001991e-05
1.0001735e-05
1.0001495e-05
1.0001252e-05
1.0001041e-05
1.0000879e-05
1.0000739e-05
1.0000616e-05
1.0000566e-05
1.0000576e-05
1.0000648e-05
1.0000637e-05
1.0000599e-05
1.0000659e-05
1.0000669e-05
1.0000649e-05
1.0000559e-05
1.0000529e-05
1.0000532e-05
1.0000566e-05
1.0000556e-05
1.0000677e-05
1.0001259e-05
1.0002663e-05
0.0010516419
0.0023090723
0.0027811121
0.0025894248
0.0015245857
0.00021603326
1.2419035e-05
1.023832e-05
1.0100511e-05
1.0089288e-05
1.0043152e-05
1.004673e-05
1.0012927e-05
1.0017348e-05
1.0008933e-05
1.0008488e-05
1.0005012e-05
1.000409e-05
1.0003083e-05
1.0002944e-05
1.0003195e-05
1.0003307e-05
1.0003207e-05
1.0002952e-05
1.0002627e-05
1.0002287e-05
1.0001988e-05
1.0001737e-05
1.0001501e-05
1.0001258e-05
1.0001043e-05
1.0000882e-05
1.0000745e-05
1.0000619e-05
1.0000564e-05
1.0000571e-05
1.0000643e-05
1.0000639e-05
1.0000598e-05
1.0000647e-05
1.0000665e-05
1.0000646e-05
1.0000559e-05
1.0000527e-05
1.0000532e-05
1.0000567e-05
1.0000554e-05
1.000067e-05
1.0001239e-05
1.0002609e-05
0.0010437674
0.002265898
0.0026992454
0.002462142
0.0013336012
0.00015964213
1.1459025e-05
1.0232273e-05
1.010023e-05
1.0086914e-05
1.0040285e-05
1.0042933e-05
1.0012701e-05
1.001706e-05
1.0008825e-05
1.0008347e-05
1.0004966e-05
1.0004044e-05
1.000306e-05
1.0002921e-05
1.0003173e-05
1.0003281e-05
1.0003182e-05
1.0002932e-05
1.0002612e-05
1.0002278e-05
1.0001984e-05
1.0001739e-05
1.0001508e-05
1.0001265e-05
1.0001046e-05
1.0000885e-05
1.0000752e-05
1.0000624e-05
1.0000562e-05
1.0000565e-05
1.000064e-05
1.0000644e-05
1.0000599e-05
1.0000631e-05
1.0000661e-05
1.0000644e-05
1.0000558e-05
1.0000525e-05
1.0000531e-05
1.0000567e-05
1.0000554e-05
1.0000664e-05
1.0001215e-05
1.0002546e-05
0.0010360269
0.0022230941
0.0026170199
0.0023349636
0.0011506563
0.00011604316
1.0926878e-05
1.0226442e-05
1.0097469e-05
1.0082977e-05
1.0036124e-05
1.0039661e-05
1.0012536e-05
1.0016764e-05
1.0008719e-05
1.0008205e-05
1.000492e-05
1.0003999e-05
1.0003037e-05
1.0002897e-05
1.0003151e-05
1.0003255e-05
1.0003156e-05
1.000291e-05
1.0002597e-05
1.0002268e-05
1.0001979e-05
1.000174e-05
1.0001514e-05
1.0001271e-05
1.0001048e-05
1.0000887e-05
1.0000758e-05
1.0000628e-05
1.000056e-05
1.0000559e-05
1.0000636e-05
1.0000653e-05
1.0000604e-05
1.0000619e-05
1.0000657e-05
1.0000641e-05
1.0000558e-05
1.0000523e-05
1.000053e-05
1.0000566e-05
1.0000553e-05
1.0000658e-05
1.0001187e-05
1.0002468e-05
0.0010283587
0.0021804867
0.0025350366
0.0022063445
0.00097854171
8.335635e-05
1.0635992e-05
1.0222023e-05
1.0093785e-05
1.0078828e-05
1.0032297e-05
1.0036278e-05
1.0012285e-05
1.0016459e-05
1.0008616e-05
1.0008062e-05
1.0004874e-05
1.0003953e-05
1.0003014e-05
1.0002875e-05
1.0003129e-05
1.000323e-05
1.000313e-05
1.0002888e-05
1.000258e-05
1.0002257e-05
1.0001974e-05
1.000174e-05
1.000152e-05
1.0001279e-05
1.0001051e-05
1.0000888e-05
1.0000763e-05
1.0000633e-05
1.0000558e-05
1.0000554e-05
1.000063e-05
1.0000662e-05
1.0000619e-05
1.0000618e-05
1.0000654e-05
1.0000639e-05
1.0000557e-05
1.0000521e-05
1.0000529e-05
1.0000563e-05
1.0000551e-05
1.0000651e-05
1.0001155e-05
1.0002374e-05
0.0010206621
0.0021380477
0.0024531328
0.0020750944
0.0008191458
5.9426005e-05
1.0484279e-05
1.021647e-05
1.009266e-05
1.0076705e-05
1.0029931e-05
1.0033307e-05
1.001198e-05
1.0016151e-05
1.0008517e-05
1.0007918e-05
1.0004829e-05
1.0003906e-05
1.0002992e-05
1.0002852e-05
1.0003108e-05
1.0003204e-05
1.0003103e-05
1.0002865e-05
1.0002562e-05
1.0002246e-05
1.0001967e-05
1.0001739e-05
1.0001525e-05
1.0001286e-05
1.0001055e-05
1.0000889e-05
1.0000768e-05
1.0000639e-05
1.0000556e-05
1.0000549e-05
1.0000625e-05
1.0000669e-05
1.000064e-05
1.0000615e-05
1.000065e-05
1.0000637e-05
1.0000556e-05
1.0000519e-05
1.0000528e-05
1.0000555e-05
1.0000547e-05
1.0000644e-05
1.000112e-05
1.0002259e-05
0.0010129634
0.002096102
0.0023714281
0.0019434848
0.00067458387
4.2469032e-05
1.0401527e-05
1.0211311e-05
1.0091885e-05
1.0075067e-05
1.0029066e-05
1.0032262e-05
1.0011798e-05
1.0015844e-05
1.000842e-05
1.0007774e-05
1.0004783e-05
1.000386e-05
1.0002969e-05
1.0002831e-05
1.0003087e-05
1.0003178e-05
1.0003076e-05
1.0002841e-05
1.0002544e-05
1.0002233e-05
1.000196e-05
1.0001737e-05
1.0001529e-05
1.0001294e-05
1.0001059e-05
1.000089e-05
1.0000773e-05
1.0000646e-05
1.0000554e-05
1.0000545e-05
1.000062e-05
1.0000672e-05
1.0000658e-05
1.0000613e-05
1.0000646e-05
1.0000635e-05
1.0000553e-05
1.0000517e-05
1.0000526e-05
1.0000547e-05
1.0000539e-05
1.0000637e-05
1.0001083e-05
1.000214e-05
0.0010051857
0.0020549957
0.0022898699
0.001809306
0.00054670551
3.0929469e-05
1.0353819e-05
1.0205948e-05
1.0089429e-05
1.0073289e-05
1.0028392e-05
1.0031645e-05
1.0011692e-05
1.0015534e-05
1.0008325e-05
1.000763e-05
1.0004738e-05
1.0003813e-05
1.0002947e-05
1.000281e-05
1.0003066e-05
1.0003152e-05
1.0003049e-05
1.0002817e-05
1.0002525e-05
1.000222e-05
1.0001952e-05
1.0001735e-05
1.0001533e-05
1.0001302e-05
1.0001064e-05
1.000089e-05
1.0000776e-05
1.0000653e-05
1.0000553e-05
1.000054e-05
1.0000614e-05
1.0000673e-05
1.0000667e-05
1.0000612e-05
1.0000642e-05
1.0000633e-05
1.0000551e-05
1.0000515e-05
1.0000525e-05
1.0000537e-05
1.0000524e-05
1.000063e-05
1.0001046e-05
1.0002023e-05
0.00099762269
0.0020155851
0.0022100683
0.0016707773
0.00043739518
2.3284735e-05
1.032351e-05
1.0200475e-05
1.0087136e-05
1.0071514e-05
1.0027745e-05
1.0030957e-05
1.0011587e-05
1.0015221e-05
1.0008232e-05
1.0007487e-05
1.0004693e-05
1.0003767e-05
1.0002925e-05
1.000279e-05
1.0003046e-05
1.0003126e-05
1.0003021e-05
1.0002792e-05
1.0002505e-05
1.0002206e-05
1.0001944e-05
1.0001731e-05
1.0001537e-05
1.0001309e-05
1.000107e-05
1.0000889e-05
1.0000778e-05
1.0000661e-05
1.0000553e-05
1.0000535e-05
1.0000607e-05
1.0000674e-05
1.0000672e-05
1.0000612e-05
1.0000639e-05
1.000063e-05
1.0000548e-05
1.0000513e-05
1.0000523e-05
1.0000528e-05
1.0000506e-05
1.0000621e-05
1.0001007e-05
1.000191e-05
0.00099027149
0.0019777603
0.0021387904
0.0015280296
0.00034711311
1.8347431e-05
1.0303334e-05
1.0195038e-05
1.008482e-05
1.0069713e-05
1.002709e-05
1.0030265e-05
1.0011492e-05
1.0014907e-05
1.0008141e-05
1.0007345e-05
1.0004649e-05
1.0003721e-05
1.0002903e-05
1.0002771e-05
1.0003025e-05
1.00031e-05
1.0002993e-05
1.0002766e-05
1.0002485e-05
1.0002192e-05
1.0001934e-05
1.0001728e-05
1.0001539e-05
1.0001317e-05
1.0001076e-05
1.000089e-05
1.0000779e-05
1.0000669e-05
1.0000553e-05
1.000053e-05
1.0000599e-05
1.0000673e-05
1.0000675e-05
1.0000611e-05
1.0000637e-05
1.0000627e-05
1.0000546e-05
1.0000511e-05
1.0000521e-05
1.0000521e-05
1.0000488e-05
1.0000613e-05
1.0000969e-05
1.00018e-05
0.00098298271
0.0019399173
0.0020657208
0.0013805046
0.00026999612
1.5193865e-05
1.0289044e-05
1.0189562e-05
1.0082495e-05
1.0067889e-05
1.0026436e-05
1.0029563e-05
1.00114e-05
1.001459e-05
1.0008052e-05
1.0007207e-05
1.0004605e-05
1.0003675e-05
1.0002882e-05
1.0002753e-05
1.0003006e-05
1.0003074e-05
1.0002965e-05
1.000274e-05
1.0002463e-05
1.0002177e-05
1.0001925e-05
1.0001723e-05
1.0001541e-05
1.0001325e-05
1.0001083e-05
1.000089e-05
1.0000779e-05
1.0000676e-05
1.0000554e-05
1.0000524e-05
1.000059e-05
1.0000671e-05
1.0000676e-05
1.000061e-05
1.0000632e-05
1.0000624e-05
1.0000545e-05
1.0000509e-05
1.0000519e-05
1.0000516e-05
1.0000471e-05
1.0000604e-05
1.0000932e-05
1.0001692e-05
0.00097593028
0.0019027089
0.0019939777
0.0012308572
0.00020667836
1.3259864e-05
1.0277802e-05
1.0184082e-05
1.0080165e-05
1.0066045e-05
1.0025783e-05
1.0028854e-05
1.0011315e-05
1.0014274e-05
1.0007965e-05
1.0007072e-05
1.0004561e-05
1.000363e-05
1.0002862e-05
1.0002735e-05
1.0002986e-05
1.0003048e-05
1.0002936e-05
1.0002714e-05
1.0002442e-05
1.0002161e-05
1.0001915e-05
1.0001719e-05
1.0001543e-05
1.0001332e-05
1.000109e-05
1.0000892e-05
1.0000779e-05
1.0000683e-05
1.0000557e-05
1.0000518e-05
1.0000581e-05
1.0000668e-05
1.0000674e-05
1.0000607e-05
1.0000625e-05
1.0000619e-05
1.0000544e-05
1.0000508e-05
1.0000517e-05
1.0000512e-05
1.0000457e-05
1.0000596e-05
1.0000897e-05
1.0001593e-05
0.00096910401
0.001865867
0.0019222856
0.0010828348
0.00015606606
1.2109055e-05
1.0267967e-05
1.0178614e-05
1.0077833e-05
1.0064188e-05
1.0025132e-05
1.002814e-05
1.0011235e-05
1.0013957e-05
1.0007881e-05
1.0006939e-05
1.0004518e-05
1.0003587e-05
1.0002842e-05
1.0002719e-05
1.0002966e-05
1.0003022e-05
1.0002908e-05
1.0002688e-05
1.000242e-05
1.0002145e-05
1.0001904e-05
1.0001713e-05
1.0001543e-05
1.0001339e-05
1.0001098e-05
1.0000894e-05
1.0000779e-05
1.0000687e-05
1.0000561e-05
1.0000514e-05
1.0000572e-05
1.0000664e-05
1.0000671e-05
1.0000602e-05
1.0000617e-05
1.0000615e-05
1.0000543e-05
1.0000506e-05
1.0000516e-05
1.0000507e-05
1.0000446e-05
1.0000588e-05
1.0000867e-05
1.0001511e-05
0.00096237364
0.0018281336
0.0018501695
0.00094563583
0.00011663458
1.1436721e-05
1.0258913e-05
1.0173143e-05
1.00755e-05
1.0062317e-05
1.0024485e-05
1.0027423e-05
1.0011162e-05
1.0013642e-05
1.0007799e-05
1.0006807e-05
1.0004474e-05
1.0003544e-05
1.0002823e-05
1.0002703e-05
1.0002947e-05
1.0002996e-05
1.000288e-05
1.0002661e-05
1.0002398e-05
1.0002129e-05
1.0001894e-05
1.0001708e-05
1.0001544e-05
1.0001345e-05
1.0001107e-05
1.0000899e-05
1.0000778e-05
1.000069e-05
1.0000565e-05
1.0000512e-05
1.0000563e-05
1.0000659e-05
1.0000665e-05
1.0000597e-05
1.0000608e-05
1.000061e-05
1.0000542e-05
1.0000506e-05
1.0000514e-05
1.0000502e-05
1.0000433e-05
1.0000581e-05
1.0000842e-05
1.0001445e-05
0.0009554524
0.0017878254
0.0017760217
0.00081786085
8.6429108e-05
1.1047666e-05
1.0250295e-05
1.0167689e-05
1.0073168e-05
1.006044e-05
1.0023844e-05
1.0026705e-05
1.0011097e-05
1.0013329e-05
1.0007719e-05
1.0006678e-05
1.0004431e-05
1.0003502e-05
1.0002805e-05
1.0002689e-05
1.0002927e-05
1.000297e-05
1.0002851e-05
1.0002634e-05
1.0002375e-05
1.0002112e-05
1.0001883e-05
1.0001702e-05
1.0001543e-05
1.0001351e-05
1.0001117e-05
1.0000904e-05
1.0000778e-05
1.0000691e-05
1.0000568e-05
1.0000511e-05
1.0000553e-05
1.0000654e-05
1.0000658e-05
1.0000591e-05
1.00006e-05
1.0000606e-05
1.0000539e-05
1.0000506e-05
1.0000513e-05
1.0000497e-05
1.0000423e-05
1.0000579e-05
1.0000825e-05
1.000139e-05
0.00094825575
0.0017452522
0.0016989616
0.00070014312
6.3772834e-05
1.0822376e-05
1.0241971e-05
1.0162244e-05
1.007084e-05
1.0058557e-05
1.002321e-05
1.0025987e-05
1.001104e-05
1.0013018e-05
1.0007641e-05
1.0006552e-05
1.0004388e-05
1.0003462e-05
1.0002788e-05
1.0002676e-05
1.0002907e-05
1.0002944e-05
1.0002823e-05
1.0002607e-05
1.0002352e-05
1.0002095e-05
1.0001871e-05
1.0001695e-05
1.0001543e-05
1.0001358e-05
1.0001127e-05
1.0000911e-05
1.0000778e-05
1.0000692e-05
1.0000571e-05
1.000051e-05
1.0000544e-05
1.0000649e-05
1.0000654e-05
1.0000585e-05
1.0000591e-05
1.0000602e-05
1.0000536e-05
1.0000505e-05
1.0000511e-05
1.0000493e-05
1.0000409e-05
1.0000574e-05
1.0000811e-05
1.0001335e-05
0.00094056486
0.0016996087
0.001617303
0.0005927872
4.7150858e-05
1.0689753e-05
1.0233891e-05
1.0156812e-05
1.0068517e-05
1.0056673e-05
1.0022584e-05
1.0025272e-05
1.0010993e-05
1.0012712e-05
1.0007565e-05
1.0006429e-05
1.0004345e-05
1.0003423e-05
1.0002771e-05
1.0002664e-05
1.0002888e-05
1.0002917e-05
1.0002794e-05
1.0002581e-05
1.0002329e-05
1.0002078e-05
1.0001859e-05
1.0001688e-05
1.0001542e-05
1.0001365e-05
1.0001137e-05
1.0000918e-05
1.0000779e-05
1.0000691e-05
1.0000572e-05
1.0000509e-05
1.0000536e-05
1.0000643e-05
1.0000651e-05
1.000058e-05
1.0000583e-05
1.0000597e-05
1.0000532e-05
1.0000504e-05
1.000051e-05
1.0000491e-05
1.0000393e-05
1.0000562e-05
1.0000783e-05
1.000128e-05
0.00093227531
0.0016504862
0.0015239087
0.00049670018
3.5279098e-05
1.0608857e-05
1.0226035e-05
1.0151407e-05
1.0066204e-05
1.0054795e-05
1.0021969e-05
1.0024562e-05
1.0010958e-05
1.0012409e-05
1.000749e-05
1.0006308e-05
1.0004303e-05
1.0003386e-05
1.0002756e-05
1.0002653e-05
1.0002869e-05
1.0002891e-05
1.0002766e-05
1.0002554e-05
1.0002307e-05
1.000206e-05
1.0001847e-05
1.0001682e-05
1.0001542e-05
1.0001371e-05
1.0001147e-05
1.0000926e-05
1.0000782e-05
1.0000691e-05
1.0000573e-05
1.0000508e-05
1.0000529e-05
1.0000638e-05
1.000065e-05
1.0000575e-05
1.0000574e-05
1.0000589e-05
1.0000528e-05
1.0000502e-05
1.0000508e-05
1.0000486e-05
1.0000377e-05
1.0000545e-05
1.0000745e-05
1.0001228e-05
0.00092364559
0.0015994327
0.0014230595
0.00041339114
2.6985965e-05
1.0556308e-05
1.0218347e-05
1.0146022e-05
1.0063903e-05
1.0052923e-05
1.0021365e-05
1.0023857e-05
1.0010957e-05
1.0012113e-05
1.0007417e-05
1.0006192e-05
1.0004261e-05
1.0003351e-05
1.0002742e-05
1.0002644e-05
1.0002849e-05
1.0002865e-05
1.0002738e-05
1.0002528e-05
1.0002284e-05
1.0002042e-05
1.0001835e-05
1.0001676e-05
1.0001543e-05
1.0001377e-05
1.0001156e-05
1.0000936e-05
1.0000786e-05
1.000069e-05
1.0000573e-05
1.0000507e-05
1.0000524e-05
1.0000634e-05
1.0000652e-05
1.0000572e-05
1.0000564e-05
1.0000577e-05
1.0000524e-05
1.00005e-05
1.0000506e-05
1.000048e-05
1.0000366e-05
1.000054e-05
1.0000719e-05
1.0001181e-05
0.00091460732
0.0015468125
0.0013147088
0.00034094033
2.1305747e-05
1.051948e-05
1.0210808e-05
1.0140681e-05
1.0061618e-05
1.0051066e-05
1.0020775e-05
1.0023162e-05
1.001096e-05
1.0011821e-05
1.0007344e-05
1.0006079e-05
1.000422e-05
1.0003318e-05
1.0002728e-05
1.0002637e-05
1.0002827e-05
1.000284e-05
1.000271e-05
1.0002502e-05
1.0002261e-05
1.0002024e-05
1.0001822e-05
1.0001671e-05
1.0001543e-05
1.0001382e-05
1.0001166e-05
1.0000945e-05
1.0000791e-05
1.0000691e-05
1.0000573e-05
1.0000507e-05
1.0000519e-05
1.0000629e-05
1.0000655e-05
1.0000571e-05
1.0000554e-05
1.0000569e-05
1.0000522e-05
1.0000498e-05
1.0000505e-05
1.0000475e-05
1.0000361e-05
1.0000547e-05
1.0000685e-05
1.0001137e-05
0.00090522317
0.0014926909
0.0012027965
0.00027737316
1.7464766e-05
1.0491207e-05
1.0203362e-05
1.0135362e-05
1.0059349e-05
1.0049221e-05
1.00202e-05
1.0022476e-05
1.0010938e-05
1.0011536e-05
1.0007273e-05
1.000597e-05
1.0004181e-05
1.0003287e-05
1.0002716e-05
1.0002633e-05
1.0002806e-05
1.0002817e-05
1.0002683e-05
1.0002476e-05
1.0002238e-05
1.0002006e-05
1.0001811e-05
1.0001666e-05
1.0001543e-05
1.0001387e-05
1.0001175e-05
1.0000956e-05
1.0000799e-05
1.0000693e-05
1.0000572e-05
1.0000506e-05
1.0000516e-05
1.000062e-05
1.0000657e-05
1.0000576e-05
1.0000545e-05
1.0000563e-05
1.0000521e-05
1.0000496e-05
1.0000504e-05
1.0000467e-05
1.0000355e-05
1.0000541e-05
1.0000648e-05
1.0001095e-05
0.00089566756
0.0014360262
0.0010975435
0.00022266634
1.492105e-05
1.0467761e-05
1.0196016e-05
1.0130098e-05
1.0057104e-05
1.0047401e-05
1.0019642e-05
1.0021803e-05
1.0010911e-05
1.0011258e-05
1.0007203e-05
1.0005866e-05
1.0004142e-05
1.0003257e-05
1.0002705e-05
1.0002626e-05
1.0002784e-05
1.0002792e-05
1.0002656e-05
1.000245e-05
1.0002215e-05
1.0001988e-05
1.0001801e-05
1.0001661e-05
1.0001542e-05
1.0001391e-05
1.0001184e-05
1.0000966e-05
1.0000807e-05
1.0000697e-05
1.0000573e-05
1.0000506e-05
1.0000513e-05
1.0000605e-05
1.0000658e-05
1.0000582e-05
1.0000539e-05
1.0000556e-05
1.0000523e-05
1.0000495e-05
1.0000501e-05
1.0000448e-05
1.000035e-05
1.0000504e-05
1.0000607e-05
1.0001041e-05
0.00088639335
0.001380188
0.00099053949
0.00017598188
1.3281958e-05
1.0446985e-05
1.0188754e-05
1.0124887e-05
1.0054885e-05
1.0045607e-05
1.0019102e-05
1.0021147e-05
1.0010882e-05
1.0010987e-05
1.0007136e-05
1.0005766e-05
1.0004104e-05
1.000323e-05
1.0002695e-05
1.0002617e-05
1.0002763e-05
1.0002766e-05
1.0002629e-05
1.0002424e-05
1.0002192e-05
1.0001971e-05
1.0001791e-05
1.0001656e-05
1.0001541e-05
1.0001396e-05
1.0001192e-05
1.0000976e-05
1.0000816e-05
1.0000702e-05
1.0000574e-05
1.0000507e-05
1.0000512e-05
1.0000587e-05
1.0000652e-05
1.0000587e-05
1.0000536e-05
1.0000547e-05
1.0000523e-05
1.0000494e-05
1.0000497e-05
1.0000423e-05
1.0000345e-05
1.0000431e-05
1.0000561e-05
1.0000959e-05
0.00087780823
0.001328162
0.00088512999
0.000137181
1.2241809e-05
1.0427551e-05
1.0181561e-05
1.0119728e-05
1.0052695e-05
1.0043842e-05
1.0018583e-05
1.0020507e-05
1.001085e-05
1.0010723e-05
1.000707e-05
1.000567e-05
1.0004068e-05
1.0003205e-05
1.0002686e-05
1.0002608e-05
1.000274e-05
1.0002741e-05
1.0002603e-05
1.0002399e-05
1.0002169e-05
1.0001956e-05
1.0001782e-05
1.0001649e-05
1.000154e-05
1.0001401e-05
1.0001201e-05
1.0000985e-05
1.0000826e-05
1.0000709e-05
1.0000577e-05
1.0000509e-05
1.0000512e-05
1.000057e-05
1.0000642e-05
1.0000594e-05
1.0000532e-05
1.0000534e-05
1.0000522e-05
1.000049e-05
1.0000494e-05
1.0000413e-05
1.0000341e-05
1.0000353e-05
1.0000514e-05
1.0000863e-05
0.00086949109
0.0012748556
0.00078225106
0.0001057048
1.1594124e-05
1.0408948e-05
1.0174454e-05
1.0114643e-05
1.0050538e-05
1.0042114e-05
1.0018085e-05
1.0019885e-05
1.0010814e-05
1.0010451e-05
1.0007003e-05
1.000558e-05
1.0004032e-05
1.0003183e-05
1.0002679e-05
1.0002599e-05
1.0002718e-05
1.0002718e-05
1.0002576e-05
1.0002374e-05
1.0002148e-05
1.0001941e-05
1.0001771e-05
1.0001642e-05
1.0001538e-05
1.0001405e-05
1.0001209e-05
1.0000994e-05
1.0000835e-05
1.0000718e-05
1.000058e-05
1.000051e-05
1.0000513e-05
1.0000556e-05
1.0000636e-05
1.0000605e-05
1.0000528e-05
1.0000519e-05
1.000052e-05
1.0000479e-05
1.0000485e-05
1.0000414e-05
1.0000358e-05
1.000032e-05
1.0000469e-05
1.0000763e-05
0.0008616439
0.0012206915
0.00068383318
8.0752609e-05
1.1195171e-05
1.0391059e-05
1.0167426e-05
1.0109628e-05
1.0048418e-05
1.0040425e-05
1.0017611e-05
1.0019279e-05
1.0010776e-05
1.0010175e-05
1.0006938e-05
1.0005494e-05
1.0003999e-05
1.0003162e-05
1.0002673e-05
1.0002591e-05
1.0002696e-05
1.0002695e-05
1.000255e-05
1.0002349e-05
1.0002129e-05
1.0001928e-05
1.000176e-05
1.0001635e-05
1.0001537e-05
1.000141e-05
1.0001218e-05
1.0001003e-05
1.0000844e-05
1.0000728e-05
1.0000585e-05
1.0000512e-05
1.0000516e-05
1.0000545e-05
1.0000634e-05
1.0000617e-05
1.0000523e-05
1.0000504e-05
1.0000517e-05
1.0000468e-05
1.0000465e-05
1.0000423e-05
1.0000391e-05
1.00003e-05
1.0000428e-05
1.0000678e-05
0.00085444756
0.0011656688
0.00059125652
6.1435418e-05
1.0949752e-05
1.0374407e-05
1.0160486e-05
1.0104687e-05
1.0046338e-05
1.0038776e-05
1.0017162e-05
1.0018691e-05
1.0010734e-05
1.0009929e-05
1.0006872e-05
1.0005412e-05
1.0003967e-05
1.0003144e-05
1.0002668e-05
1.0002582e-05
1.0002675e-05
1.0002671e-05
1.0002525e-05
1.0002326e-05
1.0002112e-05
1.0001914e-05
1.0001748e-05
1.0001628e-05
1.0001535e-05
1.0001415e-05
1.0001227e-05
1.0001012e-05
1.0000852e-05
1.0000739e-05
1.0000591e-05
1.0000513e-05
1.0000521e-05
1.0000537e-05
1.0000633e-05
1.0000637e-05
1.0000519e-05
1.000049e-05
1.0000509e-05
1.0000462e-05
1.0000466e-05
1.000044e-05
1.0000375e-05
1.000029e-05
1.0000395e-05
1.0000608e-05
0.00084808059
0.0011130754
0.0005055158
4.6813933e-05
1.0796975e-05
1.0359297e-05
1.015363e-05
1.0099819e-05
1.00443e-05
1.0037173e-05
1.001674e-05
1.0018124e-05
1.0010687e-05
1.0009709e-05
1.0006808e-05
1.0005336e-05
1.0003937e-05
1.0003127e-05
1.0002664e-05
1.0002574e-05
1.0002654e-05
1.0002647e-05
1.00025e-05
1.0002304e-05
1.0002095e-05
1.0001899e-05
1.0001735e-05
1.000162e-05
1.0001534e-05
1.0001421e-05
1.0001236e-05
1.000102e-05
1.0000859e-05
1.000075e-05
1.0000599e-05
1.0000514e-05
1.0000522e-05
1.0000531e-05
1.0000628e-05
1.0000667e-05
1.0000522e-05
1.0000483e-05
1.0000497e-05
1.0000459e-05
1.0000455e-05
1.0000448e-05
1.000032e-05
1.0000282e-05
1.0000358e-05
1.000054e-05
0.000841811
0.0010550325
0.00042711569
3.6011372e-05
1.0699415e-05
1.0344104e-05
1.0146846e-05
1.0095036e-05
1.004231e-05
1.003562e-05
1.0016345e-05
1.001758e-05
1.0010636e-05
1.0009512e-05
1.0006744e-05
1.0005265e-05
1.0003909e-05
1.0003112e-05
1.0002661e-05
1.0002567e-05
1.0002634e-05
1.0002623e-05
1.0002476e-05
1.0002285e-05
1.000208e-05
1.0001883e-05
1.0001723e-05
1.0001612e-05
1.0001532e-05
1.0001426e-05
1.0001246e-05
1.0001028e-05
1.0000865e-05
1.000076e-05
1.0000608e-05
1.0000513e-05
1.0000518e-05
1.0000527e-05
1.000062e-05
1.0000697e-05
1.0000534e-05
1.0000481e-05
1.0000489e-05
1.000046e-05
1.0000405e-05
1.0000446e-05
1.0000311e-05
1.0000271e-05
1.0000316e-05
1.000047e-05
0.00083553475
0.00099327204
0.000357184
2.8275656e-05
1.063377e-05
1.0329213e-05
1.0140152e-05
1.009035e-05
1.0040373e-05
1.0034121e-05
1.001598e-05
1.0017058e-05
1.0010583e-05
1.0009325e-05
1.0006682e-05
1.0005198e-05
1.0003883e-05
1.00031e-05
1.0002659e-05
1.000256e-05
1.0002615e-05
1.00026e-05
1.0002454e-05
1.0002268e-05
1.0002063e-05
1.0001866e-05
1.0001711e-05
1.0001605e-05
1.000153e-05
1.0001432e-05
1.0001257e-05
1.0001037e-05
1.0000869e-05
1.0000769e-05
1.0000618e-05
1.0000512e-05
1.0000512e-05
1.0000524e-05
1.0000608e-05
1.0000718e-05
1.0000554e-05
1.000048e-05
1.0000485e-05
1.0000466e-05
1.0000377e-05
1.0000436e-05
1.0000308e-05
1.0000261e-05
1.0000272e-05
1.0000401e-05
0.00082896752
0.00092709097
0.00029591009
2.288145e-05
1.0585339e-05
1.0314526e-05
1.0133546e-05
1.008576e-05
1.0038492e-05
1.0032678e-05
1.0015645e-05
1.001656e-05
1.0010527e-05
1.0009149e-05
1.0006622e-05
1.0005137e-05
1.0003858e-05
1.0003088e-05
1.0002658e-05
1.0002553e-05
1.0002596e-05
1.0002578e-05
1.0002434e-05
1.0002252e-05
1.0002045e-05
1.000185e-05
1.0001698e-05
1.0001597e-05
1.0001528e-05
1.0001437e-05
1.0001268e-05
1.0001045e-05
1.0000873e-05
1.0000777e-05
1.0000629e-05
1.000051e-05
1.0000502e-05
1.0000519e-05
1.0000591e-05
1.0000725e-05
1.0000577e-05
1.0000479e-05
1.0000483e-05
1.0000476e-05
1.0000377e-05
1.0000459e-05
1.0000316e-05
1.0000251e-05
1.0000239e-05
1.0000332e-05
0.00082197352
0.00085717311
0.00024362257
1.9182904e-05
1.0546963e-05
1.030006e-05
1.0127033e-05
1.0081271e-05
1.003667e-05
1.0031295e-05
1.0015342e-05
1.0016087e-05
1.001047e-05
1.0008984e-05
1.0006564e-05
1.000508e-05
1.0003836e-05
1.0003078e-05
1.0002657e-05
1.0002546e-05
1.0002577e-05
1.0002556e-05
1.0002417e-05
1.0002236e-05
1.0002027e-05
1.0001834e-05
1.0001686e-05
1.0001588e-05
1.0001525e-05
1.0001443e-05
1.000128e-05
1.0001054e-05
1.0000875e-05
1.0000782e-05
1.0000641e-05
1.0000508e-05
1.000049e-05
1.0000509e-05
1.0000571e-05
1.0000726e-05
1.0000592e-05
1.0000474e-05
1.0000479e-05
1.0000475e-05
1.0000388e-05
1.0000473e-05
1.0000343e-05
1.0000246e-05
1.0000228e-05
1.0000261e-05
0.00081410677
0.00078336462
0.00020111416
1.6677131e-05
1.0514394e-05
1.0285832e-05
1.0120627e-05
1.0076898e-05
1.0034914e-05
1.0029975e-05
1.0015071e-05
1.0015638e-05
1.0010411e-05
1.000883e-05
1.0006508e-05
1.0005028e-05
1.0003815e-05
1.0003069e-05
1.0002657e-05
1.0002539e-05
1.000256e-05
1.0002536e-05
1.0002402e-05
1.0002218e-05
1.0002008e-05
1.0001818e-05
1.0001674e-05
1.000158e-05
1.0001522e-05
1.0001448e-05
1.0001292e-05
1.0001064e-05
1.0000878e-05
1.0000785e-05
1.0000652e-05
1.0000507e-05
1.0000477e-05
1.0000494e-05
1.0000551e-05
1.0000724e-05
1.0000593e-05
1.0000463e-05
1.0000471e-05
1.0000428e-05
1.0000391e-05
1.0000468e-05
1.0000388e-05
1.0000239e-05
1.0000221e-05
1.0000198e-05
0.00080523179
0.00070205969
0.00016581065
1.4949919e-05
1.0485312e-05
1.0271845e-05
1.0114337e-05
1.007265e-05
1.0033228e-05
1.0028722e-05
1.0014834e-05
1.0015214e-05
1.0010351e-05
1.0008688e-05
1.0006454e-05
1.0004981e-05
1.0003796e-05
1.0003061e-05
1.0002657e-05
1.0002533e-05
1.0002544e-05
1.0002518e-05
1.0002387e-05
1.0002199e-05
1.0001989e-05
1.0001803e-05
1.0001661e-05
1.0001572e-05
1.0001519e-05
1.0001453e-05
1.0001304e-05
1.0001075e-05
1.0000881e-05
1.0000786e-05
1.0000661e-05
1.0000508e-05
1.0000465e-05
1.0000475e-05
1.0000528e-05
1.0000707e-05
1.0000603e-05
1.0000456e-05
1.0000465e-05
1.0000355e-05
1.0000392e-05
1.0000441e-05
1.0000358e-05
1.0000233e-05
1.0000205e-05
1.0000151e-05
0.00079674766
0.00062784391
0.00013758375
1.3755408e-05
1.0458439e-05
1.0258088e-05
1.0108164e-05
1.006853e-05
1.0031615e-05
1.002754e-05
1.0014631e-05
1.0014814e-05
1.0010293e-05
1.0008557e-05
1.0006403e-05
1.0004938e-05
1.0003778e-05
1.0003052e-05
1.0002658e-05
1.0002528e-05
1.000253e-05
1.0002503e-05
1.0002373e-05
1.0002179e-05
1.0001971e-05
1.0001787e-05
1.0001649e-05
1.0001563e-05
1.0001515e-05
1.0001458e-05
1.0001317e-05
1.0001087e-05
1.0000886e-05
1.0000787e-05
1.0000668e-05
1.000051e-05
1.0000458e-05
1.0000458e-05
1.00005e-05
1.0000657e-05
1.0000605e-05
1.000045e-05
1.0000466e-05
1.0000333e-05
1.00004e-05
1.000043e-05
1.0000307e-05
1.0000229e-05
1.0000194e-05
1.0000116e-05
0.00078932965
0.00057312948
0.00011503357
1.2915099e-05
1.0433015e-05
1.0244557e-05
1.0102113e-05
1.0064543e-05
1.0030079e-05
1.0026438e-05
1.0014462e-05
1.0014441e-05
1.0010232e-05
1.0008436e-05
1.0006355e-05
1.00049e-05
1.0003761e-05
1.0003044e-05
1.0002659e-05
1.0002524e-05
1.0002519e-05
1.000249e-05
1.0002355e-05
1.0002159e-05
1.0001953e-05
1.0001771e-05
1.0001637e-05
1.0001555e-05
1.0001511e-05
1.0001462e-05
1.000133e-05
1.0001098e-05
1.0000892e-05
1.0000786e-05
1.0000671e-05
1.0000512e-05
1.0000452e-05
1.0000443e-05
1.0000469e-05
1.000055e-05
1.0000587e-05
1.0000444e-05
1.0000478e-05
1.0000325e-05
1.0000431e-05
1.0000459e-05
1.0000275e-05
1.0000228e-05
1.0000185e-05
1.000009e-05
0.00078236078
0.00052322647
9.6274896e-05
1.2312229e-05
1.0408655e-05
1.0231276e-05
1.0096198e-05
1.0060701e-05
1.0028626e-05
1.0025404e-05
1.0014326e-05
1.0014091e-05
1.001017e-05
1.0008326e-05
1.0006311e-05
1.0004864e-05
1.0003744e-05
1.0003036e-05
1.000266e-05
1.0002522e-05
1.0002513e-05
1.0002478e-05
1.0002336e-05
1.0002139e-05
1.0001935e-05
1.0001756e-05
1.0001625e-05
1.0001547e-05
1.0001506e-05
1.0001466e-05
1.0001343e-05
1.000111e-05
1.0000899e-05
1.0000786e-05
1.0000673e-05
1.0000513e-05
1.0000445e-05
1.0000433e-05
1.0000447e-05
1.0000457e-05
1.0000473e-05
1.0000431e-05
1.0000484e-05
1.0000321e-05
1.0000444e-05
1.0000482e-05
1.0000265e-05
1.0000228e-05
1.0000178e-05
1.0000067e-05
0.00077654075
0.00048098125
8.0872553e-05
1.1875585e-05
1.0385116e-05
1.021825e-05
1.0090429e-05
1.0057012e-05
1.0027258e-05
1.0024438e-05
1.0014227e-05
1.0013736e-05
1.0010107e-05
1.0008225e-05
1.0006268e-05
1.0004832e-05
1.0003729e-05
1.0003028e-05
1.0002659e-05
1.0002526e-05
1.0002508e-05
1.0002465e-05
1.0002315e-05
1.0002119e-05
1.0001917e-05
1.0001741e-05
1.0001613e-05
1.0001538e-05
1.0001501e-05
1.0001469e-05
1.0001355e-05
1.0001124e-05
1.0000908e-05
1.0000788e-05
1.0000676e-05
1.0000514e-05
1.0000442e-05
1.0000426e-05
1.0000439e-05
1.0000408e-05
1.0000396e-05
1.0000407e-05
1.0000429e-05
1.0000319e-05
1.0000419e-05
1.0000504e-05
1.0000267e-05
1.0000227e-05
1.0000174e-05
1.0000056e-05
0.00077293162
0.00044533677
6.8055863e-05
1.1554227e-05
1.0362266e-05
1.0205498e-05
1.0084821e-05
1.0053488e-05
1.0025981e-05
1.0023535e-05
1.0014172e-05
1.0013399e-05
1.0010044e-05
1.0008134e-05
1.0006229e-05
1.0004802e-05