/*--------------------------------*- C++ -*----------------------------------*\
  =========                 |
  \\      /  F ield         | OpenFOAM: The Open Source CFD Toolbox
   \\    /   O peration     | Website:  https://openfoam.org
    \\  /    A nd           | Version:  8
     \\/     M anipulation  |
\*---------------------------------------------------------------------------*/
FoamFile
{
    version     2.0;
    format      ascii;
    class       volScalarField;
    location    "0.199992";
    object      p;
}
// * * * * * * * * * * * * * * * * * * * * * * * * * * * * * * * * * * * * * //

dimensions      [1 -1 -2 0 0 0 0];

internalField   nonuniform List<scalar> 
20000
(
84153.168
84168.114
84184.611
84206.728
84237.666
84276.345
84328.789
84388.083
84461.858
84553.569
84655.726
84791.234
84935.596
85128.508
85334.988
85603.629
85897.09
86262.819
86669.636
87159.927
87720.442
88393.768
89155.478
90021.561
90970.205
92001.886
93093.132
94214.046
95322.194
96376.606
97338.912
98182.427
98891.515
99462.456
99896.165
100210.94
100438.02
100570.42
100618.05
100615.49
100574.75
100500.77
100415.42
100342.34
100262.16
100116.43
99879.566
99732.257
99619.385
99512.174
83949.467
83965.25
83982.29
84005.93
84040.504
84082.71
84140.786
84204.972
84283.334
84380.253
84486.498
84627.472
84775.937
84975.031
85186.737
85462.403
85761.596
86134.257
86550.62
87060.124
87654.778
88357.663
89143.934
90021.136
90991.96
92046.647
93158.899
94295.472
95412.336
96467.464
97423.541
98255.773
98951.415
99508.125
99928.334
100240.18
100461.22
100580.42
100618.15
100618.72
100574.75
100498.96
100413.45
100340.94
100257.01
100092.51
99860.936
99714.11
99604.609
99522.042
83790.859
83807.126
83824.639
83848.672
83884.711
83927.044
83986.536
84052.002
84131.656
84231.258
84339.616
84484.812
84636.845
84841.687
85057.828
85339.441
85645.055
86029.159
86467.861
87007.936
87626.348
88346.169
89143.631
90045.09
91040.498
92119.445
93252.41
94403.408
95526.772
96579.787
97526.425
98344.206
99023.399
99562.903
99967.673
100276.13
100485.69
100591.29
100622.1
100622.87
100575.16
100497.32
100411.62
100339.83
100250.96
100063.41
99838.592
99695.784
99597.437
99532.961
83648.128
83664.896
83682.997
83707.753
83745.498
83788.985
83850.26
83917.825
83999.45
84102.414
84213.181
84362.807
84518.79
84729.543
84950.266
85239.32
85558.012
85966.464
86429.032
86987.666
87618.108
88347.505
89169.326
90097.048
91119.068
92222.739
93375.918
94539.813
95667.145
96714.879
97648.598
98448.575
99108.147
99627.434
100015.5
100317.74
100511.55
100603.28
100628.8
100628
100575.88
100495.64
100409.76
100338.85
100243.69
100029.54
99812.877
99678.782
99594.101
99542.399
83531.594
83549.004
83567.827
83593.433
83633.049
83677.761
83740.825
83810.259
83893.247
83999.036
84111.703
84265.777
84424.969
84641.869
84871.217
85177.709
85514.739
85939.66
86416.169
86983.26
87626.467
88376.843
89223.728
90179.1
91228.424
92356.89
93529.41
94704.283
95832.711
96871.729
97788.931
98567.745
99204.523
99700.817
100072.13
100363.03
100539.11
100617.13
100637.73
100633.55
100576.93
100494.04
100408.03
100337.92
100234.85
99992.583
99784.78
99662.401
99592.604
99552.114
83438.568
83456.668
83476.292
83502.879
83544.577
83590.792
83655.833
83727.627
83812.488
83921.468
84036.862
84196.48
84361.326
84590.03
84831.404
85150.821
85498.94
85931.951
86415.447
86998.067
87661.291
88434.808
89308.707
90292.428
91369.731
92522.796
93713.445
94896.988
96023.291
97049.898
97946.881
98701.161
99311.895
99782.566
100137.4
100411.49
100568.62
100633.35
100648.76
100639.01
100578.25
100492.5
100406.4
100336.71
100223.61
99956.224
99756.559
99646.053
99591.207
99562.503
83367.755
83386.565
83406.936
83434.394
83477.841
83525.136
83591.844
83666.379
83754.365
83869.053
83990.24
84158.402
84329.903
84567.753
84816.627
85142.766
85496.123
85939.125
86437.893
87038.991
87724.386
88523.189
89425.094
90438.064
91543.697
92720.877
93928.054
95117.546
96238.159
97248.454
98121.473
98847.851
99429.242
99871.906
100210.29
100462.99
100600.03
100651.48
100661.83
100644.84
100579.84
100491.04
100404.91
100334.84
100208.87
99922.949
99730.303
99628.78
99587.035
99574.439
83316.714
83336.303
83357.47
83385.974
83431.713
83481.127
83550.712
83629.347
83721.218
83841.95
83967.551
84142.587
84318.586
84561.315
84813.88
85147.951
85512.328
85969.992
86486.025
87107.632
87816.985
88642.478
89573.758
90616.776
91750.947
92951.439
94173.136
95365.434
96476.473
97466.393
98311.68
99006.749
99555.513
99968.389
100289.72
100517.19
100633.08
100671.37
100676.7
100651.72
100581.65
100489.71
100403.56
100331.9
100189.58
99893.582
99707.304
99611.783
99577.54
99588.633
83287.177
83307.767
83330.017
83360.135
83408.598
83460.323
83532.352
83614.2
83707.996
83831.963
83959.345
84138.238
84317.693
84568.204
84829.111
85175.091
85552.55
86026.381
86561.459
87205.043
87939.866
88793.569
89755.414
90829.232
91991.892
93214.533
94448.294
95639.842
96737.135
97702.501
98516.256
99176.522
99689.59
100072.15
100374.17
100573.33
100667.34
100693.59
100692.83
100659.45
100583.66
100488.54
100402.36
100327.64
100165.39
99867.723
99686.808
99596.108
99565.031
99603.822
83275.011
83296.596
83319.794
83351.228
83401.267
83454.565
83527.732
83611.597
83706.57
83834.346
83964.39
84149.92
84336.422
84597.126
84867.71
85226.492
85618.298
86109.497
86664.916
87331.936
88093.763
88977.076
89970.676
91075.895
92266.738
93509.964
94752.877
95939.72
97018.862
97955.399
98733.752
99355.636
99830.46
100183.8
100461.64
100630.57
100702.55
100718.75
100709.55
100667.53
100585.83
100487.55
100401.31
100321.98
100138.19
99843.425
99667.651
99581.203
99552.393
99618.343
83278.81
83301.362
83325.454
83358.222
83410.546
83465.691
83540.95
83628.398
83726.523
83859.781
83993.785
84186.868
84379.433
84650.092
84930.805
85303.11
85710.29
86219.972
86797.149
87489.02
88279.349
89193.66
90220.077
91357.119
92575.507
93837.306
95085.989
96263.807
97320.181
98223.491
98962.468
99542.464
99977.397
100303.14
100550.29
100688.22
100739.2
100746.26
100726.76
100675.84
100588.07
100486.75
100400.43
100314.93
100109.1
99819.675
99649.341
99567.006
99540.211
99631.572
83299.926
83323.773
83349.222
83383.893
83438.841
83496.641
83574.58
83666.025
83767.588
83906.66
84045.411
84246.551
84445.671
84726.912
85018.617
85405.362
85829.075
86358.423
86958.719
87676.863
88497.179
89443.815
90504.004
91673.056
92917.978
94195.865
95446.477
96610.617
97639.391
98504.919
99200.487
99735.528
100130.18
100428.04
100639.11
100745.65
100778.31
100775.22
100744.33
100684.17
100590.3
100486.14
100399.68
100306.54
100078.35
99796.163
99631.975
99553.717
99528.707
99643.873
83343.892
83368.893
83395.435
83431.678
83488.917
83548.672
83629.132
83724.583
83829.427
83974.761
84118.435
84328.348
84535.163
84827.956
85131.628
85533.744
85975.13
86525.302
87150.126
87895.976
88747.755
89728
90822.767
92023.733
93293.744
94584.732
95832.982
96978.449
97974.522
98797.552
99445.844
99933.781
100289.03
100555.53
100727.05
100802.95
100820.45
100804.74
100762.11
100692.39
100592.39
100485.68
100399.01
100296.66
100045.69
99772.763
99615.779
99541.8
99518.307
99655.696
83407.146
83433.477
83461.295
83499.304
83559.028
83621.364
83704.716
83804.766
83913.184
84065.319
84214.29
84433.635
84648.724
84953.769
85270.26
85688.613
86148.804
86720.983
87371.736
88146.742
89031.45
90046.521
91176.504
92408.969
93702.157
95002.748
96243.898
97365.323
98323.28
99099.089
99696.814
100136.74
100453.75
100682.17
100813.25
100861.42
100864.53
100834.52
100779.93
100700.38
100594.16
100485.3
100398.2
100284.89
100010.86
99749.337
99600.874
99531.778
99509.377
99667.529
83490.785
83518.726
83548.267
83588.435
83651.174
83716.67
83802.97
83907.786
84019.848
84179.149
84333.606
84562.79
84786.666
85104.569
85434.714
85870.162
86350.33
86945.73
87623.879
88429.528
89348.615
90399.638
91565.26
92828.432
94142.385
95448.551
96677.382
97768.943
98683.117
99407.356
99952.243
100344.24
100621.54
100805.85
100897.26
100922.67
100909.14
100864.3
100797.65
100708.05
100595.45
100484.94
100396.82
100270.35
99973.889
99725.879
99587.281
99523.991
99503.613
99679.853
83596.681
83626.119
83657.211
83699.304
83765.197
83833.521
83922.855
84032.851
84148.916
84315.993
84476.259
84715.772
84948.962
85280.338
85625.012
86078.477
86579.852
87199.766
87906.827
88744.634
89699.516
90787.492
91988.91
93281.584
94613.362
95920.524
97131.267
98186.669
99051.455
99720.684
100211.58
100555.6
100788.08
100925.5
100980.88
100985.64
100953.58
100893.85
100815.13
100715.33
100596.32
100484.52
100394.25
100251.52
99935.545
99702.595
99574.954
99518.225
99501.155
99693.063
83722.086
83753.303
83786.377
83830.786
83900.132
83971.873
84064.55
84180.17
84300.378
84475.576
84641.956
84892.308
85135.405
85480.939
85841.128
86313.597
86837.519
87483.334
88220.884
89092.382
90084.425
91210.206
92447.26
93767.751
95113.839
96416.799
97603.045
98615.654
99426.134
100038.19
100474.34
100767.93
100949.82
101040.9
101066.21
101048.47
100997.45
100922.96
100832.21
100722.09
100597.34
100483.98
100389.75
100226.41
99897.47
99679.783
99563.516
99512.881
99500.615
99707.289
83870.372
83903.329
83938.352
83984.86
84057.4
84132.322
84228.12
84349.433
84473.781
84657.473
84830.269
85092.054
85345.797
85706.281
86083.07
86575.643
87123.524
87796.682
88566.319
89473.039
90503.533
91667.781
92939.957
94286.059
95642.307
96935.152
98089.842
99053.145
99805.827
100359.39
100738.71
100976.29
101105.44
101154.45
101152.03
101110.24
101040.43
100951.43
100848.71
100728.24
100598.85
100483.29
100382.74
100193.6
99861.538
99657.498
99552.186
99508.463
99501.198
99722.721
84037.096
84071.958
84109.135
84157.93
84233.927
84312.397
84411.705
84539.376
84668.218
84861.162
85040.937
85314.891
85580.115
85956.389
86350.954
86864.775
87438.098
88140.092
88943.435
89886.896
90957.039
92160.186
93466.56
94835.483
96197.001
97472.995
98588.612
99497.003
100190.04
100682.93
100999.76
101177.69
101255.52
101268.22
101236.18
101170.45
101082.24
100979.04
100864.38
100733.89
100599.74
100482.45
100373.04
100154.04
99828.264
99635.678
99540.668
99507.618
99512.311
99739.351
84222.297
84259.318
84299.067
84350.479
84430.205
84512.805
84615.851
84750.46
84884.007
85086.846
85274.097
85560.882
85838.436
86231.363
86644.933
87181.222
87781.486
88513.822
89352.491
90334.192
91445.056
92687.258
94026.445
95414.739
96775.784
98027.36
99096.461
99946.086
100578
101004.27
101253.41
101371.03
101403.36
101379.87
101317.93
101228.73
101122.65
101005.58
100879.01
100739.43
100600.16
100481.53
100360.96
100110.78
99796.436
99615.21
99530.178
99507.398
99600.137
99756.901
84427.766
84466.931
84509.29
84563.276
84646.809
84733.792
84840.632
84982.748
85121.239
85334.536
85529.764
85830.046
86120.855
86531.352
86965.222
87525.194
88153.918
88918.142
89793.786
90815.202
91967.713
93248.803
94618.867
96022.285
97376.135
98595.091
99611.165
100400.06
100966.21
101318.41
101497.11
101558.85
101548.39
101487.97
101396.72
101284.78
101161.42
101030.81
100892.53
100745.03
100600.36
100480.53
100346.97
100065.4
99765.844
99597.955
99524.82
99507.318
99637.974
99775.518
84651.682
84693.358
84738.884
84795.894
84883.375
84975.515
85086.112
85236.257
85379.799
85604.148
85807.911
86122.454
86427.53
86856.538
87311.997
87896.887
88555.602
89353.321
90267.627
91330.192
92525.09
93844.523
95242.885
96656.217
97995.134
99173.154
100131.52
100857.87
101348.52
101621.34
101731.54
101743.1
101688.34
101591.8
101472.16
101338.31
101198.34
101054.54
100905.03
100750.25
100600.48
100479.28
100331.17
100019.28
99736.984
99583.624
99522.468
99507.603
99601.682
99802.904
84897.446
84941.384
84989.735
85049.353
85140.388
85237.624
85351.84
85510.486
85659.481
85895.613
86108.666
86438.25
86758.63
87207.035
87685.36
88296.417
88986.76
89819.712
90774.419
91879.505
93117.291
94474.057
95897.328
97314.252
98629.622
99759.113
100657.11
101314.25
101719.89
101911.04
101960.66
101921.05
101822.39
101690.84
101543.91
101389.1
101233.19
101076.59
100916.67
100754.15
100600.57
100477.23
100312.56
99974.303
99710.598
99570.569
99521.674
99510.645
99607.107
99877.206
85157.789
85204.641
85256.656
85319.86
85415.152
85519.1
85637.41
85805.667
85960.497
86209.237
86432.202
86777.504
87114.145
87582.797
88085.322
88723.962
89447.722
90317.766
91314.623
92463.484
93744.355
95136.85
96580.663
97993.668
99276.47
100351.46
101186.76
101762.06
102076.38
102190.62
102183.12
102091.31
101949.92
101784.7
101611.7
101436.96
101265.79
101096.81
100927.78
100756.08
100600.63
100473.5
100288.69
99932.317
99689.058
99564.388
99521.587
99518.288
99623.899
99884.645
85440.168
85489.888
85545.544
85612.243
85711.405
85822.01
85944.252
86122.297
86283.118
86544.854
86778.351
87139.936
87493.851
87983.716
88511.984
89179.842
89938.999
90848.09
91888.811
93082.52
94406.275
95832.131
97290.942
98691.409
99932.936
100949.49
101714.53
102195.88
102416.91
102463.3
102396
102253.08
102070.49
101873.07
101675.32
101481.74
101295.98
101115.16
100938.56
100756.9
100600.39
100467.11
100256.36
99895.397
99672.369
99561.98
99523.272
99531.046
99648.332
99838.287
85741.582
85794.219
85853.576
85924
86026.877
86144.267
86270.635
86459.291
86626.537
86901.9
87146.618
87525.179
87897.6
88409.912
88965.734
89664.677
90461.303
91411.404
92497.59
93736.981
95102.912
96558.819
98025.765
99404.309
100596.98
101552.1
102232.65
102611.37
102745.62
102726.22
102598.34
102405.83
102183.74
101955.71
101734.64
101523.3
101323.67
101131.8
100946.69
100757.17
100599.9
100457.48
100214.41
99863.308
99657.991
99561.439
99527.247
99553.049
99676.384
99827.566
86059.689
86115.688
86179.298
86254.138
86360.732
86486.315
86616.577
86816.486
86990.361
87279.943
87536.668
87933.141
88325.646
88861.933
89447.314
90179.302
91015.489
92008.524
93141.631
94427.225
95833.968
97315.455
98782.319
100129.38
101267.37
102153.9
102734.85
103007.75
103064.84
102976.58
102789.4
102549.16
102289.42
102032.48
101789.54
101561.51
101348.83
101147.45
100950.53
100757.24
100599.18
100444.53
100166.62
99833.113
99644.126
99561.758
99535.962
99637.373
99707.483
99841.748
86397.252
86456.566
86524.268
86603.402
86713.31
86847.129
86981.526
87192.9
87374.003
87678.639
87948.701
88364.375
88778.835
89340.735
89957.689
90724.687
91602.477
92640.288
93821.59
95153.515
96598.869
98100.101
99557.503
100864.03
101943.13
102746.85
103215.95
103389.23
103371.52
103213.32
102968.69
102682.77
102387.37
102103.29
101840
101596.31
101371.5
101162.77
100951.93
100757
100597.99
100428.24
100114.6
99805.739
99636.649
99567.176
99549.47
99680.442
99770.06
99857.298
86750.382
86813.394
86885.442
86969.333
87082.659
87225.391
87364.496
87588.513
87777.859
88098.932
88383.913
88820.145
89258.355
89847.406
90497.868
91301.822
92223.24
93307.596
94538.147
95916.012
97396.696
98910.336
100348.2
101606.25
102620.68
103323.17
103673.86
103758.9
103662.47
103435.76
103135.87
102806.5
102477.52
102168.16
101885.97
101627.7
101391.88
101175.44
100952.29
100756.19
100595.68
100407.74
100060.95
99780.913
99633.24
99575.382
99565.754
99653.28
99837.119
99873.091
87119.558
87186.717
87263.394
87352.676
87470.034
87622.574
87767.238
88005.263
88203.897
88542.608
88843.881
89301.687
89765.239
90382.887
91068.8
91911.73
92878.786
94011.361
95291.926
96714.644
98226.032
99743.273
101151.53
102354.71
103292.01
103876.95
104112.34
104113.65
103936.58
103643.42
103290.73
102920.29
102559.92
102227.12
101927.41
101655.8
101410.61
101181.7
100951.94
100754.74
100591.19
100380.39
100009.73
99758.174
99631.96
99585.326
99582.93
99661.405
99818.728
99896.972
87507.507
87579.176
87660.543
87755.927
87878.199
88041.597
88192.229
88445.45
88653.905
89010.918
89329.539
89809.738
90300.232
90948.05
91671.484
92555.506
93570.21
94752.549
96083.506
97549.042
99084.952
100595.77
101964.88
103107.69
103947.62
104403.79
104536.47
104449.41
104193.14
103836.02
103433.22
103024.25
102634.71
102280.23
101964.3
101680.84
101428.57
101184.21
100950.35
100752.61
100583.37
100342.48
99966.168
99738.023
99631.684
99594.58
99598.076
99675.464
99819.905
99956.483
87916.972
87993.397
88079.533
88182.086
88309.535
88484.547
88640.806
88909.641
89128.286
89503.97
89841.153
90344.793
90864.092
91543.896
92307.072
93234.388
94298.682
95532.135
96913.312
98418.411
99971.004
101464.74
102786.04
103858.42
104580.5
104906.28
104943.43
104764.91
104431.67
104013.44
103563.43
103118.56
102702
102327.44
101996.68
101703.16
101444.92
101184.98
100947.94
100750.01
100571.5
100293.87
99932.439
99726
99633.309
99603.195
99607.31
99696.811
99836.577
99955.846
88348.634
88430.129
88521.313
88631.934
88763.569
88950.375
89112.031
89396.712
89626.492
90021.735
90379.181
90907.665
91457.866
92171.659
92976.878
93949.7
95065.444
96351.087
97781.549
99321.451
100881.31
102347.28
103613.23
104597.43
105184.46
105389.47
105329.17
105059.35
104651.95
104175.75
103681.58
103203.4
102761.76
102368.67
102024.9
101723.47
101454.08
101185.09
100944.76
100746.99
100555.2
100238.68
99904.892
99720.567
99637.684
99612.617
99612.868
99722.548
99858.905
99922.879
88798.407
88885.687
88982.337
89101.141
89236.543
89436.51
89604.606
89906.655
90149.016
90565.155
90944.753
91499.569
92082.843
92832.735
93682.351
94702.898
95871.788
97210.276
98688.027
100256.26
101812.74
103240.63
104443.04
105315.01
105758.54
105853.66
105691.08
105332.24
104853.93
104323.19
103787.93
103278.8
102813.85
102404.02
102049.69
101742.67
101458.16
101183.81
100940.93
100743.01
100533.39
100179.76
99880.075
99718.632
99645.705
99624.478
99625.689
99754.922
99877.461
99924.818
89266.676
89360.496
89462.776
89590.523
89730.936
89945.461
90120.708
90441.438
90697.576
91135.604
91539.196
92121.85
92740.444
93528.667
94425.054
95495.485
96719.029
98110.424
99632.077
101220.34
102762.13
104142.24
105266.63
106003.91
106306.6
106294.98
106028.2
105583.37
105037.79
104456.09
103882.66
103344.67
102858.32
102434.17
102072.11
101759.9
101459.6
101181.18
100936.58
100736.94
100503.22
100122.27
99857.272
99718.294
99657.089
99638.303
99653.403
99803.296
99890.799
99934.968
89758.387
89859.276
89967.105
90104.529
90249.574
90479.269
90662.126
91002.048
91273.327
91734.202
92163.796
92775.968
93432.261
94261.141
95206.654
96329.054
97608.454
99051.966
100612.46
102210.72
103726.35
105049.62
106073.22
106658.62
106833.39
106708.91
106339.96
105812.76
105203.89
104574.79
103965.88
103401.11
102895.97
102460.7
102093.07
101769.41
101460.08
101177.35
100931.98
100727.66
100460.71
100073.26
99839.141
99721.454
99669.592
99652.628
99696.129
99887.98
99904.954
99945.599
90272.319
90381.052
90494.429
90642.356
90792.01
91037.806
91229.189
91589.267
91877.313
92362.3
92820.066
93463.595
94160.06
95031.999
96028.945
97205.256
98541.271
100034.93
101627.31
103224.18
104702.16
105957
106852.92
107280.94
107335.52
107094.17
106626.14
106020.71
105352.67
104679.55
104037.7
103448.94
102928.71
102485.31
102111.84
101773.63
101459.58
101172.55
100927.49
100714.7
100406.96
100035.93
99826.475
99727.039
99682.895
99674.591
99753.391
99890.873
99950.414
99956.971
90807.883
90925.374
91044.352
91204
91358.877
91622.2
91823.093
92204.66
92511.106
93021.529
93509.74
94186.573
94925.739
95843.181
96893.807
98125.792
99518.496
101058.76
102674.1
104257.51
105686.54
106853.87
107597.48
107876.03
107808.24
107450.02
106886.8
106207.66
105484.53
104770.53
104098.74
103490.18
102958.64
102507.74
102123.22
101775.14
101457.31
101167.03
100923.12
100697.74
100348.95
100005.8
99818.946
99733.294
99699.678
99753.099
99806.489
99892.139
99972.382
99981.218
91366.949
91494.117
91619.134
91791.866
91952.45
92234.503
92445.518
92849.786
93176.396
93713.598
94234.651
94946.856
95731.292
96696.725
97803.198
99092.312
100540.8
102122.22
103749.69
105307.26
106676.25
107728.2
108303.55
108444.84
108248.23
107776.14
107122.27
106374.16
105599.84
104848.18
104150.58
103527.18
102985.41
102522.87
102128.53
101775.64
101453.33
101160.92
100918.05
100674.55
100290.09
99980.418
99816.151
99743.028
99720.008
99772.149
99848.994
99904.668
99963.011
100021
91950.595
92088.935
92221.252
92407.432
92573.713
92875.761
93098.041
93526.089
93874.926
94440.339
94996.758
95746.526
96578.854
97594.796
98759.17
100106.37
101608.36
103223.37
104850.63
106369.47
107662.97
108569.78
108974.04
108982.94
108654.45
108072.56
107333.1
106520.69
105699
104913.78
104195.58
103560.01
103002.82
102530.23
102130.53
101774.94
101447.85
101154.31
100910.53
100640.93
100233.8
99958.004
99815.846
99756.703
99738.873
99760.675
99879.157
99918.016
99971.325
100005.44
92559.213
92709.945
92850.07
93051.889
93223.965
93547.341
93782.247
94235.384
94608.598
95203.737
95798.137
96587.831
97470.75
98539.765
99763.873
101169.31
102720.71
104359.55
105973.39
107440.15
108634.17
109369.53
109615.57
109484.54
109026.39
108339.63
107519.89
106647.73
105782.94
104969.73
104235.41
103582.84
103011.13
102533.09
102131.32
101772.41
101441.17
101147.25
100898.4
100592.42
100185.16
99939.845
99819.557
99772.73
99758.158
99777.644
99897.2
99934.083
99981.683
99994.868
93198.417
93360.626
93506.909
93726.69
93905.248
94251.144
94500.129
94979.529
95379.398
96005.856
96641.044
97473.261
98409.562
99534.185
100819.46
102282.07
103876.6
105527.42
107114.07
108514.76
109576
110127.42
110224.52
109947.8
109364.01
108577.95
107683.28
106755.99
105853.53
105018.54
104267.92
103594.15
103014.27
102534.17
102131.08
101768.09
101433.67
101139.84
100880.45
100531.42
100147
99930.003
99829.035
99791.753
99780.064
99811.214
99910.074
99954.625
99990.14
100001.82
93869.866
94043.674
94193.854
94433.08
94619.339
94989.154
95253.258
95760.32
96189.357
96849.055
97528.099
98405.671
99398.149
100580.75
101927.9
103444.93
105073.91
106723.23
108267.88
109581.74
110477.71
110847.74
110795.33
110371.89
109667.62
108788.24
107824.02
106847.03
105913.6
105060.13
104285.72
103598.53
103015.23
102533.93
102128.85
101762.13
101425.64
101131.97
100856.35
100466.51
100116.05
99925.358
99840.645
99811.093
99801.495
99845.184
99925.422
99977.507
99999.35
100008.6
94573.611
94760.758
94915.568
95173.718
95367.423
95762.493
96043.859
96579.78
97041.064
97736.242
98462.439
99388.304
100439.63
101682.22
103090.86
104657.39
106309.64
107942.86
109429.69
110626.88
111332.22
111533.46
111323.04
110756.57
109937.84
108971.27
107943.26
106923.62
105965.34
105088.08
104293.44
103599.92
103013.83
102531.31
102124.67
101754.78
101417.21
101122.77
100825.27
100403.15
100090.21
99923.181
99851.279
99827.53
99818.484
99874.136
99948.898
100016.42
100019.34
100017.53
95303.133
95506.101
95667.509
95947.594
96150.197
96573.404
96873.897
97441.101
97937.882
98670.972
99447.64
100424.75
101537.34
102841.3
104309.45
105917.98
107580.05
109181.35
110591.95
111635.25
112140.75
112179.27
111806.28
111102.06
110175.46
109128.07
108043.04
106988.8
106006.86
105102.1
104296.25
103598.23
103009.33
102526.39
102118.73
101746.31
101408.33
101110.42
100783.59
100346.44
100068.56
99922.324
99860.281
99840.773
99833.064
99905.65
99992.014
100032.5
100054.35
100041.09
96067.972
96288.567
96457.062
96761.155
96972.861
97425.985
97747.999
98347.951
98883.733
99657.108
100487.52
101518.75
102694.61
104060.27
105583.82
107224.11
108880.71
110432.62
111739.93
112594.78
112909.51
112778.29
112244.47
111408.92
110381.48
109260.29
108126.45
107043.19
106030.21
105107.73
104295.8
103592.6
103001.89
102519.35
102111.26
101737.06
101398.95
101092.88
100727.24
100301.5
100050.69
99922.305
99868.789
99852.536
99850.634
99967.116
100017.64
100027.46
100049.18
100065.52
96869.679
97109.978
97285.334
97616.392
97838.169
98323.537
98669.641
99304.172
99882.65
100698.88
101586.18
102674.26
103914.7
105340.86
106913.09
108572.11
110206.47
111689.8
112857.03
113501.96
113635.86
113327.29
112637.65
111678.03
110557.24
109370.56
108196.59
107080.94
106040.47
105108.98
104290.54
103583.24
102991.79
102510.44
102102.54
101727.42
101389.05
101069.27
100664.13
100263.61
100036.66
99924.038
99877.834
99863.836
99877.683
99975.673
100015.04
100031.13
100050
100054.5
97711.8
97974.475
98157.006
98518.011
98750.745
99270.371
99643.329
100313.95
100939.07
101800.84
102747.94
103895.18
105200.45
106683.87
108295.1
109957.25
111550.62
112940.9
113927.56
114359.87
114312.97
113825.15
112986.29
111910.6
110704.85
109462.22
108253.47
107100.76
106044.22
105105.18
104280.72
103570.48
102979.31
102499.89
102092.85
101717.66
101378.51
101039.71
100599.02
100229.91
100025.93
99927.814
99888.584
99877.005
99908.325
99973.905
100017.9
100040.19
100054.07
100056.44
98600.351
98887.48
99076.097
99469.532
99714.128
100270.31
100673.72
101381.94
102057.8
102967.9
103977.23
105185.24
106554.13
108088.96
109726.46
111374.05
112905.17
114168.21
114940.56
115172.34
114934.11
114271.54
113291.36
112108.39
110827.48
109537.89
108288.7
107109.09
106042.77
105095.98
104266.72
103554.71
102964.74
102487.93
102082.47
101707.88
101366.45
101003.62
100535.69
100200.07
100018.09
99933.729
99901.369
99892.229
99935.063
99983.331
100025.11
100050.57
100059.72
100061.92
99536.251
99851.038
100045.06
100474.12
100732.68
101327.71
101766.17
102513.7
103244.14
104205.09
105278.36
106547.78
107977.15
109554.51
111202.47
112815.72
114260.54
115351.94
115895.74
115932.26
115497.42
114666.81
113554.27
112273.96
110928.78
109596.3
108305.7
107110.84
106034.88
105081.76
104249.01
103536.28
102948.36
102474.81
102071.67
101697.91
101350.95
100957.88
100478.55
100175.12
100013.9
99941.355
99914.804
99907.604
99955.877
99997.952
100036.32
100059.52
100067.18
100068.84
100521.1
100868.85
101069.53
101538.49
101813.52
102448.49
102926.84
103715.06
104503.2
105517.11
106655.29
107985.51
109469.77
111077.36
112717.08
114273.05
115597.87
116476.03
116799.22
116630.84
116002.05
115011.88
113777.14
112410.82
111010.93
109630.61
108312.39
107105.46
106021.03
105063.07
104228.03
103515.54
102930.41
102460.78
102060.77
101687.62
101329.72
100898.51
100432.33
100155.56
100012.31
99949.254
99926.951
99920.975
99972.132
100013.71
100049.1
100068.6
100081.23
100079.77
101566.17
101950.83
102156.76
102669.64
102963.47
103638.55
104161.27
104991.11
105839.47
106908.34
108111.7
109500.43
111030.81
112652.63
114262.61
115734.8
116896.02
117535.74
117645.54
117264.19
116448.13
115308.4
113962.97
112522.85
111070.91
109646.55
108311.65
107092.91
106001.8
105040.46
104204.2
103492.82
102911.13
102446.11
102050.14
101677.15
101302.25
100833.67
100393.18
100140.3
100012.1
99956.986
99937.672
99931.767
99986.275
100028.86
100060.47
100080.33
100094.78
100098.14
102679.14
103104.31
103312.37
103872.18
104187.83
104902.47
105473.81
106346.41
107257.46
108383.44
109651.28
111093.57
112657.37
114273.59
115828.72
117184.03
118134.33
118533.87
118425.29
117830.83
116836.52
115558.84
114115.71
112612.24
111105.38
109651.96
108302.19
107073.88
105977.89
105014.44
104177.94
103468.4
102890.76
102431.09
102040.15
101666.7
101269.1
100766.42
100358.62
100128.05
100013.56
99965.72
99948.44
99942.288
100001.19
100044.13
100074.85
100091.26
100093.05
100095.58
103862.36
104332.54
104540.66
105149.09
105490.54
106244.18
106869.01
107786.62
108762.86
109947.74
111277.33
112764.41
114344.41
115931.42
117402.3
118597.27
119301.38
119469.21
119131.51
118330.43
117169.01
115766.74
114239.56
112674.84
111121.32
109648.09
108284.84
107049.17
105949.94
104985.52
104149.61
103442.56
102869.53
102416.01
102030.93
101655.45
101229.29
100699.32
100326.83
100118.64
100017.43
99976.042
99961.399
99956.657
100017.69
100063.46
100086.63
100094.16
100095.44
100096.45
105119.07
105637.17
105843.72
106501.43
106874.59
107668.61
108353.82
109320.11
110363.17
111606.71
112991.83
114510.02
116084.17
117614.36
118966.49
119949.32
120396.9
120331.19
119761.88
118763.82
117448.52
115936.5
114336.9
112710.06
111125.49
109634.55
108260.52
107019.59
105918.54
104954.16
104119.57
103415.56
102847.67
102401.16
102022.29
101640.96
101178.97
100638.63
100298.43
100111.42
100022.38
99987.021
99976.474
99974.954
100035.58
100071.46
100089.51
100096.82
100099.19
100099.68
106450.74
107018.46
107225.98
107934.37
108347.13
109184.77
109937.8
110956.93
112066.37
113364.63
114794.19
116324.4
117865.98
119306.53
120494.65
121223.1
121422.07
121110.14
120315.57
119133.07
117679.34
116072.69
114402.76
112726.17
111118.55
109612.43
108230.22
106985.91
105884.29
104920.8
104088.15
103387.65
102825.43
102386.77
102013.86
101620.23
101115.47
100589.5
100274.52
100106.1
100028.37
99998.507
99990.075
99997.659
100048.52
100077.82
100093.59
100100.46
100103.27
100103.46
107863.25
108486.5
108706.32
109467.65
109927.84
110808.4
111631.07
112704.74
113878.2
115223.2
116680.33
118197.71
119675.35
120988.42
121957.62
122415.56
122364.54
121802.77
120793.36
119441.66
117866.64
116178.01
114438.94
112729.02
111100.97
109582.88
108194.91
106948.82
105847.72
104885.84
104055.65
103359.07
102803.08
102373.11
102005.61
101592.77
101048.36
100547.21
100255.55
100103.68
100034.95
100009.2
100001.94
100015.73
100058.41
100085.1
100098.58
100105.29
100108.65
100109.5
109391.08
110075.74
110314.98
111122.96
111642.87
112562.02
113447.75
114569.62
115801.36
117180.34
118641.79
120115.88
121492.3
122629.45
123333.89
123527.32
123212.5
122407.7
121197.73
119694.64
118014.97
116246.99
114455.09
112719.01
111074.12
109547.1
108155.48
106909.02
105809.34
104849.68
104022.35
103330.03
102780.85
102360.45
101997.83
101559.7
100980.25
100509.73
100240.49
100103.18
100041.88
100019.18
100012.77
100028.59
100068.93
100091.43
100103.86
100110.99
100115.34
100115.78
111053.06
111801.45
112063.78
112910.97
113488.26
114445.66
115393.78
116563.1
117837.28
119228.76
120664.81
122060.04
123292.67
124196.5
124618.31
124543.56
123961.64
122925.7
121532.97
119897.96
118125.94
116283.82
114456.33
112697.36
111039.44
109506.23
108112.77
106867.13
105769.61
104812.67
103988.53
103300.76
102758.98
102348.91
101990.45
101520.99
100912.9
100475.84
100228.09
100103.6
100049.11
100029.25
100023.8
100041.92
100077.98
100099.54
100111.17
100116.23
100117.37
100117.53
112854.03
113661.59
113947.48
114829.87
115466.75
116467.3
117476.96
118678.86
119977.09
121354.62
122730.03
124004.37
125041.12
125665.44