/*--------------------------------*- C++ -*----------------------------------*\
  =========                 |
  \\      /  F ield         | OpenFOAM: The Open Source CFD Toolbox
   \\    /   O peration     | Website:  https://openfoam.org
    \\  /    A nd           | Version:  8
     \\/     M anipulation  |
\*---------------------------------------------------------------------------*/
FoamFile
{
    version     2.0;
    format      ascii;
    class       surfaceScalarField;
    location    "0.199992";
    object      phi;
}
// * * * * * * * * * * * * * * * * * * * * * * * * * * * * * * * * * * * * * //

dimensions      [1 0 -1 0 0 0 0];

internalField   nonuniform List<scalar> 
39600
(
-8.8295131e-05
-0.0083214518
0.0084526231
-0.00010330435
-0.011742005
0.011756949
-0.00011573712
-0.015533965
0.015546347
-0.00012875071
-0.020196462
0.020209385
-0.00013656072
-0.026074579
0.026082051
-0.00024101612
-0.033264642
0.033368675
-0.00051524902
-0.040161898
0.040435882
-0.00084682355
-0.048348476
0.048679765
-0.0012408615
-0.057699147
0.058092851
-0.0017074642
-0.069291249
0.069757398
-0.0022618456
-0.082830638
0.083384543
-0.0029239784
-0.099358348
0.10001988
-0.003710999
-0.11886787
0.11965425
-0.004654047
-0.14248183
0.14342414
-0.0057759526
-0.17053915
0.17166029
-0.0071198567
-0.2043264
0.20566946
-0.0087217328
-0.24460308
0.24620423
-0.010641183
-0.29295375
0.29487263
-0.012934797
-0.35068363
0.35297695
-0.015676476
-0.4198555
0.42259721
-0.018931726
-0.50246673
0.50572267
-0.022761643
-0.60127315
0.60510432
-0.027352498
-0.71930624
0.72389906
-0.032859582
-0.86018713
0.86569688
-0.039478194
-1.0280632
1.0346855
-0.047429906
-1.2280245
1.2359747
-0.056982391
-1.465963
1.4755138
-0.068445595
-1.7489965
1.7604637
-0.082176255
-2.0857139
2.0994533
-0.098567174
-2.4866306
2.503027
-0.1180442
-2.9646168
2.9840946
-0.1410803
-3.5354504
3.5584801
-0.16822013
-4.2183265
4.2454459
-0.20006753
-5.036446
5.0682637
-0.23730524
-6.0177974
6.0549759
-0.28080211
-7.1958425
7.2392347
-0.33160503
-8.6093141
8.6599441
-0.38956307
-10.306589
10.364295
-0.45486563
-12.345288
12.410232
-0.52879699
-14.792719
14.866249
-0.61008406
-17.729158
17.809847
-0.696961
-21.252509
21.338565
-0.78565427
-25.479594
25.567401
-0.86983875
-30.55064
30.633773
-0.93975216
-36.633293
36.701104
-0.9788172
-43.933258
43.967236
-0.96032584
-52.712892
52.689194
-0.84168924
-63.247776
63.123284
-0.55714107
-75.893061
75.605307
-91.021769
90.491972
3.5729233e-05
-0.0083228932
2.9625927e-05
-0.011735972
1.8875225e-05
-0.015523423
5.0191536e-06
-0.020182662
-5.2430932e-06
-0.026064962
-0.00012268993
-0.033147624
-0.00038342037
-0.039901481
-0.00069859911
-0.048033609
-0.0010768394
-0.057321226
-0.0015310507
-0.068837432
-0.0020738264
-0.082288242
-0.0027257209
-0.098706929
-0.0035018229
-0.11809224
-0.0044332608
-0.14155097
-0.0055421952
-0.16943084
-0.0068731758
-0.20299613
-0.0084600815
-0.24301678
-0.010360945
-0.29105326
-0.012625929
-0.3484189
-0.015329526
-0.41715178
-0.018516922
-0.49927846
-0.022303855
-0.59748486
-0.02683992
-0.71476808
-0.03230561
-0.85471863
-0.038851062
-1.0215135
-0.046714113
-1.2201612
-0.056158898
-1.4565178
-0.067491092
-1.7376581
-0.081055954
-2.0721381
-0.09723628
-2.4704427
-0.11644181
-2.9454085
-0.13912896
-3.5127678
-0.16582518
-4.1916482
-0.19711473
-5.0051833
-0.23366795
-5.9813007
-0.27645556
-7.1531607
-0.32615508
-8.5597812
-0.38283433
-10.250151
-0.4470772
-12.281392
-0.51961913
-14.720607
-0.59951542
-17.649859
-0.68507548
-21.167766
-0.77268242
-25.392865
-0.85631279
-30.468064
-0.92666524
-36.565122
-0.96812151
-43.897081
-0.95390752
-52.732814
-0.84376854
-63.363674
-0.57463188
-76.165372
-91.528786
2.8438334e-05
-0.008324941
2.6247205e-05
-0.01173393
2.2805252e-05
-0.015520215
1.6952965e-05
-0.020177011
1.643629e-05
-0.02606504
-0.00010808308
-0.033023547
-0.00036436492
-0.039645499
-0.00067328642
-0.047724984
-0.0010427246
-0.05695206
-0.0014850103
-0.068395487
-0.0020122069
-0.081761343
-0.0026456735
-0.098073837
-0.0033971758
-0.11734111
-0.0042993735
-0.14064924
-0.0053740896
-0.16835664
-0.0066665407
-0.20170425
-0.0082037862
-0.24148017
-0.010046518
-0.28921087
-0.012225711
-0.3462394
-0.014813705
-0.41456316
-0.017894849
-0.49619615
-0.021570174
-0.59380806
-0.025998506
-0.71033738
-0.031311205
-0.84940243
-0.037689015
-1.0151307
-0.045368956
-1.2124788
-0.054617862
-1.447266
-0.06574112
-1.7265262
-0.079078828
-2.0587871
-0.095007109
-2.4545045
-0.11392194
-2.9264884
-0.13626634
-3.4904256
-0.16254887
-4.1653804
-0.19333723
-4.9744184
-0.22928469
-5.9454075
-0.27141498
-7.1111367
-0.32014806
-8.5112065
-0.37580474
-10.194719
-0.43907519
-12.218463
-0.51043757
-14.649697
-0.58915939
-17.571742
-0.67361495
-21.084124
-0.7603822
-25.306968
-0.84373475
-30.385771
-0.91481337
-36.496334
-0.95865106
-43.859107
-0.94916162
-52.74826
-0.84790281
-63.470621
-0.59444337
-76.421545
-92.012528
2.1059295e-05
-0.0083272173
1.8421275e-05
-0.011731613
1.5281853e-05
-0.015517417
1.0341303e-05
-0.020172389
9.481341e-06
-0.026064874
-0.00012168361
-0.03289288
-0.00036931372
-0.039398146
-0.00066583174
-0.047428763
-0.0010212262
-0.056596939
-0.0014468173
-0.06797022
-0.0019545501
-0.081253901
-0.0025689028
-0.097459826
-0.0032947062
-0.11661559
-0.0041692519
-0.13977508
-0.0052088422
-0.16731757
-0.0064617199
-0.20045189
-0.0079488592
-0.23999322
-0.0097079799
-0.28745166
-0.011798352
-0.34414865
-0.014297156
-0.41206364
-0.01728664
-0.49320572
-0.02087535
-0.5902177
-0.025174464
-0.70603565
-0.030341502
-0.8442317
-0.03656073
-1.0089062
-0.044068609
-1.204967
-0.053135653
-1.4381941
-0.064065179
-1.715586
-0.077195261
-2.0456417
-0.092890982
-2.4387968
-0.11153819
-2.9078336
-0.13356444
-3.4683993
-0.15946292
-4.1394934
-0.18978275
-4.9441184
-0.22516539
-5.9100775
-0.26666034
-7.0697447
-0.31450733
-8.4635082
-0.36927002
-10.140165
-0.43160121
-12.156463
-0.5019195
-14.579843
-0.57958911
-17.494683
-0.66309681
-21.00142
-0.74918724
-25.22174
-0.83247401
-30.303557
-0.90451434
-36.426681
-0.95060998
-43.819155
-0.946256
-52.758884
-0.854155
-63.568341
-0.61655382
-76.661713
-92.472439
1.5627975e-05
-0.0083304485
1.5253001e-05
-0.011731181
1.5503352e-05
-0.015517725
1.486902e-05
-0.020171852
1.4664877e-05
-0.02606523
-0.0001223357
-0.032756239
-0.00036194185
-0.039158784
-0.0006483013
-0.047142698
-0.00099303597
-0.056252451
-0.0014050387
-0.067558536
-0.0018967085
-0.080762485
-0.0024884177
-0.096868435
-0.0031903317
-0.11591401
-0.0040396128
-0.13892618
-0.0050484517
-0.16630896
-0.0062435499
-0.19925697
-0.0076610324
-0.23857577
-0.0093577012
-0.28575482
-0.011376075
-0.34212989
-0.013807626
-0.40963145
-0.016713931
-0.49029818
-0.020194598
-0.58673508
-0.024370884
-0.70185631
-0.02939948
-0.83919885
-0.03546927
-1.0028304
-0.042817686
-1.1976131
-0.051717457
-1.4292874
-0.062471674
-1.7048189
-0.075412514
-2.0326836
-0.090897525
-2.4232974
-0.10929926
-2.8894219
-0.13103385
-3.4466623
-0.15657778
-4.1139578
-0.18646844
-4.914244
-0.2213778
-5.8752211
-0.26222024
-7.0289993
-0.30926144
-8.4166068
-0.36321871
-10.086411
-0.42471265
-12.095288
-0.49408932
-14.510929
-0.57084084
-17.418554
-0.6535466
-20.919507
-0.73914828
-25.136993
-0.82257192
-30.221236
-0.89582366
-36.355939
-0.94378298
-43.777173
-0.944443
-52.764636
-0.86233245
-63.656044
-0.64140835
-76.885099
-92.908022
9.2241274e-06
-0.0083340285
9.8970491e-06
-0.011731958
1.2305705e-05
-0.015520316
1.5245862e-05
-0.02017493
1.2240791e-05
-0.026062777
-0.00013160885
-0.032612655
-0.00036452982
-0.03892604
-0.00064315681
-0.046864287
-0.00097440508
-0.055921395
-0.0013742698
-0.067158949
-0.0018461239
-0.080290829
-0.0024153632
-0.096299449
-0.0030958766
-0.11523365
-0.0039060815
-0.13811616
-0.0048658681
-0.16534933
-0.0060152718
-0.19810763
-0.0073809563
-0.23720996
-0.0090249078
-0.28411074
-0.010992698
-0.34016179
-0.013347515
-0.40727591
-0.01616149
-0.48748294
-0.019538552
-0.58335597
-0.023596912
-0.69779476
-0.028496026
-0.83429534
-0.034426152
-0.99689394
-0.041628645
-1.1904041
-0.050376976
-1.4205306
-0.060973691
-1.6942073
-0.073746271
-2.0198921
-0.089041689
-2.4079858
-0.10722206
-2.8712294
-0.12869013
-3.4251894
-0.15390904
-4.088744
-0.18340498
-4.8847609
-0.21791239
-5.8407652
-0.25812385
-6.9888802
-0.30445637
-8.3704058
-0.35766821
-10.033393
-0.41841901
-12.03484
-0.48696452
-14.442842
-0.56293643
-17.343215
-0.64499825
-20.838224
-0.73029011
-25.052551
-0.81407578
-30.1386
-0.88879482
-36.283893
-0.93893013
-43.732476
-0.94478258
-52.764912
-0.87270595
-63.734111
-0.66935318
-77.091567
-93.319044
3.7622479e-06
-0.0083379507
5.6670562e-06
-0.011733844
1.0613978e-05
-0.015525373
1.828851e-05
-0.020182694
1.0483205e-05
-0.026055509
-0.00013934213
-0.03246307
-0.00036558006
-0.038699951
-0.00063832167
-0.046591745
-0.00095715457
-0.055602694
-0.0013428905
-0.066773388
-0.0017940124
-0.079839824
-0.0023346735
-0.095758976
-0.0029834078
-0.11458502
-0.0037617253
-0.13733797
-0.004684205
-0.16442688
-0.0057970662
-0.19699486
-0.0071262248
-0.23588076
-0.0087215705
-0.28251518
-0.010623299
-0.33825959
-0.012901338
-0.404997
-0.015628056
-0.4847547
-0.018904119
-0.58007751
-0.022850859
-0.69384441
-0.027628079
-0.82951321
-0.033430537
-0.99108453
-0.040501039
-1.183326
-0.049115097
-1.4119062
-0.059573793
-1.6837318
-0.072198531
-2.0072468
-0.087327524
-2.3928385
-0.10530992
-2.8532326
-0.12653771
-3.4039545
-0.15146223
-4.0638215
-0.18060118
-4.8556319
-0.21473233
-5.8066834
-0.25437832
-6.9493221
-0.30007573
-8.3248326
-0.35262945
-9.9810185
-0.41272708
-11.975022
-0.48056916
-14.375461
-0.55589232
-17.268537
-0.63746868
-20.757413
-0.72264258
-24.968223
-0.80701242
-30.055442
-0.88347205
-36.210338
-0.93639071
-43.684356
-0.94758409
-52.75927
-0.88493527
-63.803114
-0.70053639
-77.280567
-93.705096
-1.8023024e-06
-0.0083419967
6.6026562e-07
-0.01173632
7.2548165e-06
-0.015532004
1.9073462e-05
-0.020194635
4.8345483e-06
-0.026041683
-0.00014667458
-0.032311686
-0.00036074024
-0.038485949
-0.00061925852
-0.046333375
-0.00092341448
-0.055298594
-0.001289742
-0.06640719
-0.0017256659
-0.079403976
-0.0022485692
-0.095236206
-0.0028703223
-0.11396336
-0.0036245982
-0.13658386
-0.0045217765
-0.16352979
-0.0056019705
-0.19591465
-0.0068863057
-0.23459625
-0.0084262565
-0.28097491
-0.010264626
-0.33642068
-0.012468859
-0.40279183
-0.015110212
-0.48211178
-0.018291275
-0.57689397
-0.02213319
-0.68999876
-0.02679764
-0.82484374
-0.032484193
-0.98539083
-0.039437809
-1.176364
-0.047935768
-1.4033966
-0.058276528
-1.6733724
-0.07077598
-1.9947254
-0.08576017
-2.3778342
-0.10356976
-2.8354066
-0.12458483
-3.38293
-0.14924448
-4.039161
-0.17805996
-4.8268237
-0.21184158
-5.772948
-0.25099591
-6.9102516
-0.29614473
-8.2798023
-0.34811304
-9.9292187
-0.40765269
-11.91574
-0.47491284
-14.308665
-0.54973074
-17.194371
-0.63099181
-20.676904
-0.71624068
-24.883817
-0.80143205
-29.971539
-0.8798394
-36.135077
-0.93610283
-43.632407
-0.95337847
-52.74692
-0.90093185
-63.861255
-0.73386772
-77.454288
-94.065016
-6.5454131e-06
-0.0083463855
-2.152797e-06
-0.01174066
8.2151316e-06
-0.015542307
2.9234003e-05
-0.020215734
1.1115434e-05
-0.026023923
-0.00013732667
-0.032163341
-0.00034113045
-0.038282158
-0.00058657348
-0.046088052
-0.00087833853
-0.0550069
-0.0012350332
-0.066050708
-0.0016565692
-0.078982544
-0.0021699076
-0.094723028
-0.0027748427
-0.1133585
-0.0035045856
-0.13585417
-0.0043696159
-0.16266472
-0.0054108406
-0.19487332
-0.0066507045
-0.23335613
-0.0081395298
-0.2794857
-0.0099165587
-0.33464298
-0.012050143
-0.40065712
-0.014610776
-0.47954928
-0.017701273
-0.5738006
-0.021445154
-0.6862507
-0.026007399
-0.82027597
-0.031590502
-0.97980001
-0.03844365
-1.1695016
-0.046845133
-1.3949818
-0.05708871
-1.6631084
-0.069484595
-1.9823061
-0.084347988
-2.3629489
-0.10200876
-2.8177274
-0.12283835
-3.3620887
-0.14726557
-4.0147301
-0.17579773
-4.7982976
-0.20926591
-5.7395214
-0.24798383
-6.8716134
-0.29265989
-8.2352398
-0.34412657
-9.877911
-0.40322539
-11.856876
-0.47001904
-14.24231
-0.5444802
-17.120563
-0.62559611
-20.596526
-0.71112937
-24.799124
-0.7973632
-29.886676
-0.87737762
-36.058416
-0.93794496
-43.575843
-0.96187704
-52.727589
-0.92029928
-63.908325
-0.76987929
-77.611469
-94.398967
-8.8184779e-06
-0.0083537026
-1.2448655e-06
-0.011748275
1.3219696e-05
-0.015556896
4.2723564e-05
-0.020245483
1.7544645e-05
-0.025999065
-0.00013077498
-0.032015145
-0.00032933792
-0.038083637
-0.00056796251
-0.045849514
-0.0008532167
-0.054721651
-0.0011974608
-0.065706487
-0.001606192
-0.078573784
-0.0021050696
-0.094224178
-0.0026854967
-0.112778
-0.003388337
-0.13515128
-0.0042231642
-0.16182976
-0.0052289158
-0.19386737
-0.0064272809
-0.23215742
-0.0078661171
-0.27804635
-0.0095852
-0.33292315
-0.011650904
-0.39859022
-0.014134963
-0.47706328
-0.017140858
-0.57079172
-0.020795007
-0.68259224
-0.02526502
-0.81580028
-0.030759485
-0.97429765
-0.037529687
-1.1627216
-0.045853487
-1.3866436
-0.056022249
-1.6529178
-0.068336879
-1.9699669
-0.083102955
-2.3481594
-0.1006404
-2.8001698
-0.12131175
-3.3414036
-0.14553999
-3.9904958
-0.17384895
-4.7699941
-0.20702196
-5.7063844
-0.24534105
-6.8333694
-0.28960728
-8.1910828
-0.34076464
-9.8269078
-0.39945664
-11.798401
-0.46591897
-14.176265
-0.54016258
-17.046966
-0.6213129
-20.516102
-0.70733761
-24.713936
-0.79487811
-29.800592
-0.87701827
-35.979722
-0.9419845
-43.514765
-0.97295834
-52.701015
-0.94248222
-63.944118
-0.80912715
-77.751536
-94.706832
-1.3236084e-05
-0.0083609849
-5.6304842e-06
-0.011755862
9.2029207e-06
-0.015571749
4.4059513e-05
-0.02028044
7.6097751e-06
-0.025962946
-0.00014140696
-0.031866129
-0.00033380827
-0.037891186
-0.00056459125
-0.045618756
-0.00083771503
-0.054448449
-0.0011677127
-0.065376483
-0.0015600005
-0.078181397
-0.0020374959
-0.093746629
-0.0025987772
-0.1122166
-0.0032782856
-0.13447168
-0.0040845542
-0.16102331
-0.0050564751
-0.19289519
-0.0062156407
-0.23099782
-0.0076076392
-0.27665376
-0.0092709268
-0.33125896
-0.011272322
-0.3965874
-0.013683819
-0.47464953
-0.016611387
-0.56786076
-0.020184752
-0.6790141
-0.024574651
-0.81140413
-0.029994499
-0.9688693
-0.036699899
-1.1560055
-0.044967271
-1.3783603
-0.05508308
-1.6427786
-0.067339836
-1.9576844
-0.082032108
-2.3334422
-0.099471547
-2.7827083
-0.12001231
-3.3208468
-0.14407603
-3.9664239
-0.17225735
-4.7418172
-0.20511894
-5.6735534
-0.24311709
-6.7954406
-0.28705156
-8.1472562
-0.33797645
-9.7761343
-0.39637121
-11.740207
-0.46263012
-14.110398
-0.53681806
-16.973409
-0.6181766
-20.435461
-0.70491873
-24.628028
-0.79401739
-29.713038
-0.87871853
-35.898552
-0.948291
-43.449018
-0.98660504
-52.666963
-0.96761357
-63.968309
-0.85184956
-77.873928
-94.988194
-1.5691914e-05
-0.0083700935
-6.0422797e-06
-0.011765428
1.0855004e-05
-0.015588606
5.2819922e-05
-0.020322519
7.3164381e-06
-0.025917643
-0.00014146793
-0.031717281
-0.00032535236
-0.037707195
-0.00054957113
-0.045394521
-0.00081133547
-0.054186576
-0.0011324698
-0.065055331
-0.0015090336
-0.077804725
-0.0019680531
-0.093287569
-0.0025096561
-0.11167487
-0.0031657041
-0.13381553
-0.0039444053
-0.16024442
-0.004883986
-0.19195529
-0.0060026323
-0.22987865
-0.007345072
-0.27531061
-0.0089537637
-0.3296493
-0.010894873
-0.39464482
-0.013244805
-0.47229728
-0.016106155
-0.56499592
-0.019608565
-0.67550675
-0.023929847
-0.8070763
-0.029292128
-0.9634982
-0.035951567
-1.149335
-0.044184156
-1.3701109
-0.054269539
-1.6326687
-0.066491863
-1.9454353
-0.081134655
-2.3187731
-0.098500997
-2.7653184
-0.11894015
-3.3003896
-0.14287199
-3.9424819
-0.17094191
-4.7137506
-0.2035431
-5.6409776
-0.24129165
-6.7577546
-0.28499856
-8.1036594
-0.33576203
-9.7255201
-0.3939847
-11.682177
-0.46016796
-14.04458
-0.5344562
-16.89973
-0.61621833
-20.354411
-0.70390484
-24.541174
-0.79483075
-29.623746
-0.88244396
-35.814575
-0.9569409
-43.378304
-1.0029809
-52.625048
-0.99581259
-63.980519
-0.89807795
-77.978158
-95.242341
-1.9081746e-05
-0.0083796013
-8.5848043e-06
-0.011775757
9.2595901e-06
-0.015606259
5.6805235e-05
-0.020370039
1.7390283e-06
-0.02586277
-0.00014820545
-0.03156719
-0.00032422337
-0.037531017
-0.00054098172
-0.045177748
-0.00079356219
-0.053933877
-0.0011041399
-0.06474474
-0.0014668104
-0.077441938
-0.0019098349
-0.092844496
-0.0024318671
-0.11115271
-0.0030654881
-0.13318179
-0.0038179736
-0.15949166
-0.0047238018
-0.19104905
-0.0057983273
-0.2288035
-0.0070907756
-0.27401741
-0.0086464623
-0.32809255
-0.010531832
-0.39275781
-0.012826396
-0.47000013
-0.015632117
-0.56218634
-0.019078649
-0.67205481
-0.02335055
-0.80279719
-0.028671557
-0.95816769
-0.035305325
-1.1426893
-0.043524837
-1.3618734
-0.053602765
-1.622565
-0.065813376
-1.933197
-0.080430706
-2.3041281
-0.097750246
-2.7479736
-0.11811712
-3.2800027
-0.14194867
-3.9186388
-0.16993154
-4.6857692
-0.20232721
-5.608603
-0.23986779
-6.7202722
-0.28353564
-8.0601004
-0.33417033
-9.6750364
-0.39232847
-11.62421
-0.45857905
-13.978671
-0.53312625
-16.825765
-0.61548753
-20.272756
-0.70435247
-24.453146
-0.79738239
-29.532457
-0.88821788
-35.727492
-0.96801232
-43.302271
-1.0221431
-52.574879
-1.0272376
-63.980206
-0.94802822
-78.063459
-95.468662
-2.1968722e-05
-0.0083900698
-9.966801e-06
-0.011787605
9.4858658e-06
-0.015625637
6.2148271e-05
-0.020422891
-2.8795968e-08
-0.025800458
-0.0001461504
-0.031421095
-0.00031593691
-0.037361088
-0.00052446807
-0.044969166
-0.00076827595
-0.053689897
-0.0010684023
-0.064444538
-0.0014180674
-0.077092086
-0.0018457106
-0.092416724
-0.0023495633
-0.11064863
-0.002962024
-0.13256909
-0.0036876843
-0.15876561
-0.0045576422
-0.19017854
-0.0055934602
-0.22776698
-0.0068450635
-0.272765
-0.0083549759
-0.32658158
-0.010188959
-0.39092217
-0.012426321
-0.46776016
-0.015176074
-0.55943266
-0.018583902
-0.66864144
-0.022824974
-0.79854857
-0.028123316
-0.95285949
-0.034752243
-1.1360479
-0.042981292
-1.3536254
-0.05307536
-1.6124444
-0.065297628
-1.9209463
-0.079913161
-2.2894838
-0.097211606
-2.7306485
-0.11753749
-3.259655
-0.14135783
-3.8948057
-0.16922028
-4.6579061
-0.20150195
-5.576339
-0.23889062
-6.6829382
-0.28259308
-8.0165051
-0.33319409
-9.6245888
-0.39141537
-11.566183
-0.45786687
-13.912543
-0.53284699
-16.751331
-0.616006
-20.190298
-0.70629938
-24.363704
-0.80171557
-29.438922
-0.89608193
-35.63698
-0.98151237
-43.220595
-1.0442498
-52.515982
-1.0620515
-63.966703
-1.0018804
-78.127902
-95.66656
-2.4730959e-05
-0.0084012795
-1.1561532e-05
-0.011800719
9.6589057e-06
-0.015646862
6.5500655e-05
-0.02047892
-3.9592773e-06
-0.025731024
-0.00014284502
-0.031282145
-0.00030687315
-0.037196888
-0.00050843779
-0.04476751
-0.00074331185
-0.053454795
-0.0010328985
-0.064154805
-0.0013697399
-0.076754968
-0.0017827385
-0.092003494
-0.002268808
-0.1101622
-0.0028597827
-0.13197774
-0.0035574356
-0.15806739
-0.0043961646
-0.18933916
-0.0054014138
-0.22676094
-0.0066178716
-0.27154764
-0.0080871113
-0.32511113
-0.0098765354
-0.38913089
-0.012064023
-0.46556981
-0.014765281
-0.55672712
-0.018136432
-0.66526429
-0.022360159
-0.79431667
-0.027658628
-0.94755054
-0.034303859
-1.1293894
-0.042565785
-1.3453435
-0.052698162
-1.6022844
-0.064955996
-1.9086593
-0.079593758
-2.2748161
-0.096897375
-2.7133167
-0.11721139
-3.2393174
-0.1410661
-3.8709368
-0.1688184
-4.6301511
-0.20098585
-5.5441868
-0.23845738
-6.6455191
-0.28218936
-7.9728784
-0.33286738
-9.5740686
-0.39126753
-11.507988
-0.4580716
-13.846056
-0.53365552
-16.676252
-0.6178259
-20.10682
-0.70979726
-24.272616
-0.80789529
-29.342892
-0.90608274
-35.542707
-0.9975117
-43.132906
-1.0692684
-52.447921
-1.1004842
-63.939319
-1.0597259
-78.172081
-95.835276
-2.7995648e-05
-0.0084124029
-1.4085586e-05
-0.011814542
9.0900794e-06
-0.015670024
6.4262416e-05
-0.020534255
-1.1898891e-05
-0.025654877
-0.00014677488
-0.031147185
-0.00030485766
-0.037038634
-0.00049975187
-0.044572542
-0.00072616831
-0.053228154
-0.0010053535
-0.063875467
-0.001330405
-0.076429616
-0.0017298507
-0.09160377
-0.0021997827
-0.10969185
-0.002768647
-0.13140838
-0.0034405868
-0.15739482
-0.0042539028
-0.18852505
-0.0052303099
-0.22578363
-0.0064128414
-0.27036413
-0.0078454416
-0.32367724
-0.0095948747
-0.38737955
-0.011744119
-0.46341764
-0.014410643
-0.55405624
-0.017749616
-0.66191918
-0.021967622
-0.79009024
-0.027290254
-0.94221711
-0.03397467
-1.1226911
-0.042291374
-1.337006
-0.052486276
-1.5920613
-0.064801537
-1.8963142
-0.079485861
-2.2601009
-0.096820977
-2.695952
-0.11717802
-3.2189353
-0.14105273
-3.8470465
-0.16877751
-4.6024215
-0.20088402
-5.5120935
-0.23851896
-6.6079355
-0.28235385
-7.9291475
-0.33321507
-9.5233701
-0.39192212
-11.449502
-0.45922757
-13.779066
-0.53559531
-16.600365
-0.62098442
-20.022107
-0.71489856
-24.179633
-0.81599328
-29.244098
-0.91826592
-35.444342
-1.0161051
-43.038779
-1.0973661
-52.370162
-1.1426495
-63.89727
-1.121842
-78.197525
-95.974001
-3.0445156e-05
-0.0084240325
-1.4913434e-05
-0.011829969
1.1829437e-05
-0.015696761
6.6706416e-05
-0.020589304
-1.3772365e-05
-0.025574373
-0.00014447756
-0.031016416
-0.00029665271
-0.036886276
-0.00048518011
-0.044383933
-0.00070331135
-0.053009781
-0.00097380656
-0.063604812
-0.0012879563
-0.076115143
-0.0016750063
-0.091216418
-0.0021295025
-0.10923689
-0.0026782276
-0.13085913
-0.0033283467
-0.15674397
-0.0041173651
-0.18773523
-0.0050659032
-0.22483413
-0.0062175625
-0.26921133
-0.0076180855
-0.32227522
-0.0093336061
-0.38566187
-0.011452375
-0.46129565
-0.014094299
-0.55140961
-0.017419174
-0.65858777
-0.021645553
-0.78585497
-0.02700865
-0.9368427
-0.033757954
-1.1159271
-0.042153906
-1.3285882
-0.052433083
-1.5817531
-0.064829301
-1.8838876
-0.079582902
-2.2453154
-0.096976976
-2.678527
-0.11744087
-3.1984451
-0.14130756
-3.8231627
-0.16899338
-4.5747288
-0.20127037
-5.4798278
-0.23906317
-6.5701937
-0.28309577
-7.8852188
-0.33424348
-9.472392
-0.39339137
-11.390594
-0.46135452
-13.711425
-0.53868881
-16.523519
-0.62552926
-19.935919
-0.72164462
-24.084511
-0.82605633
-29.142272
-0.93263295
-35.341529
-1.0374422
-42.937618
-1.1286959
-52.282016
-1.1886897
-63.836849
-1.188266
-78.204096
-96.082034
-3.386874e-05
-0.0084350284
-1.7778293e-05
-0.011845976
1.1982489e-05
-0.015726541
6.5245055e-05
-0.020642749
-1.931467e-05
-0.025489756
-0.0001462436
-0.030889418
-0.00029337694
-0.036738952
-0.00047661255
-0.044200616
-0.00068695783
-0.052799178
-0.00094906257
-0.063342536
-0.0012525976
-0.075811269
-0.0016271693
-0.090841522
-0.002065115
-0.10879847
-0.0025963355
-0.13032735
-0.0032285674
-0.15611102
-0.0039952894
-0.18696762
-0.0049190227
-0.22390936
-0.0060438569
-0.26808527
-0.0074167388
-0.32090073
-0.0091051539
-0.38397119
-0.011197348
-0.45920016
-0.013826245
-0.54877591
-0.017159102
-0.65524828
-0.021408882
-0.7815961
-0.026830026
-0.93141002
-0.033671166
-1.1090708
-0.042168317
-1.3200684
-0.052554689
-1.5713371
-0.065053329
-1.871358
-0.079896518
-2.2304393
-0.09742609
-2.6609652
-0.11795222
-3.1778917
-0.14185969
-3.7992365
-0.16957035
-4.5470094
-0.20210466
-5.4473031
-0.24011191
-6.5322371
-0.28443284
-7.8410021
-0.33599225
-9.4210094
-0.39570846
-11.331135
-0.46449255
-13.642981
-0.54298836
-16.445476
-0.63151614
-19.848011
-0.73009648
-23.986991
-0.83761669
-29.037622
-0.94924967
-35.233324
-1.061551
-42.828794
-1.1631725
-52.183197
-1.2389137
-63.765994
-1.2593733
-78.192246
-96.15851
-3.6523307e-05
-0.0084458971
-1.9629456e-05
-0.011862759
1.3842068e-05
-0.015760027
6.4002526e-05
-0.020693061
-2.2917101e-05
-0.025402745
-0.00014629461
-0.030765961
-0.00028786714
-0.036597165
-0.00046549939
-0.044022894
-0.00066820369
-0.052596193
-0.00092213915
-0.063088414
-0.0012153495
-0.075517695
-0.0015774393
-0.090479089
-0.0020009304
-0.10837447
-0.0025166415
-0.12981108
-0.0031321227
-0.15549478
-0.0038788696
-0.18622002
-0.0047806856
-0.22300647
-0.0058824856
-0.26698211
-0.0072297951
-0.3195516
-0.0088926221
-0.38230582
-0.010966135
-0.45712303
-0.013593462
-0.54614344
-0.016952773
-0.65188199
-0.021253557
-0.77728586
-0.026758557
-0.92589314
-0.033710787
-1.1021026
-0.042331822
-1.3114237
-0.052847162
-1.5607915
-0.065465326
-1.8587083
-0.080457895
-2.2154129
-0.098097594
-2.6432924
-0.11871839
-3.1572425
-0.14263314
-3.7753014
-0.17063049
-4.5190016
-0.203383
-5.414559
-0.24167386
-6.4939966
-0.28638322
-7.7963982
-0.33846102
-9.3691165
-0.39889807
-11.270977
-0.46866885
-13.57359
-0.54852712
-16.366011
-0.63898195
-19.758135
-0.74031232
-23.886785
-0.85089899
-28.929916
-0.96831629
-35.119038
-1.0881662
-42.71193
-1.2005996
-52.073881
-1.2939043
-63.679901
-1.3352779
-78.195039
-96.202535
-3.8497588e-05
-0.0084571312
-2.054088e-05
-0.011880579
1.7103604e-05
-0.015797679
6.2870893e-05
-0.020738961
-2.5154162e-05
-0.025314589
-0.00014508779
-0.030645947
-0.00028146572
-0.036460546
-0.0004541691
-0.043850098
-0.00065032955
-0.052399733
-0.00089725871
-0.062841286
-0.0011822574
-0.075232319
-0.0015331596
-0.09012783
-0.0019437864
-0.10796333
-0.0024451231
-0.12930915
-0.0030441504
-0.15489501
-0.0037724755
-0.18549077
-0.0046550242
-0.22212278
-0.0057350737
-0.26590063
-0.0070580889
-0.31822667
-0.0087012641
-0.38066
-0.010771887
-0.45504868
-0.013412419
-0.54349767
-0.016807605
-0.64847971
-0.021186995
-0.77289691
-0.026800236
-0.9202679
-0.033882666
-1.0950037
-0.042653085
-1.302629
-0.053313997
-1.5500999
-0.066090366
-1.8458999
-0.081239219
-2.2002295
-0.099006199
-2.6254916
-0.11969426
-3.1365252
-0.14382107
-3.7511524
-0.17208269
-4.4907281
-0.20511897
-5.3815302
-0.24377575
-6.4553899
-0.28896188
-7.7513184
-0.34168845
-9.3165824
-0.40298862
-11.20998
-0.47391524
-13.503075
-0.55534863
-16.28499
-0.64798675
-19.666032
-0.75236109
-23.783593
-0.86672261
-28.818352
-0.98999627
-34.998442
-1.1176169
-42.586745
-1.2429892
-51.952179
-1.352551
-63.578433
-1.416548
-78.386909
-96.213937
-4.0726036e-05
-0.0084683018
-2.2335779e-05
-0.011898824
1.9070901e-05
-0.015839098
5.776705e-05
-0.020777769
-3.090306e-05
-0.025225747
-0.00014772777
-0.030529061
-0.00027952123
-0.03632849
-0.00044767229
-0.043681856
-0.0006377984
-0.052209291
-0.00087833688
-0.062600543
-0.0011555737
-0.074954691
-0.001496933
-0.089786107
-0.0018959813
-0.10756375
-0.0023840145
-0.12882052
-0.0029686741
-0.15430957
-0.0036813997
-0.18477713
-0.0045484848
-0.22125449
-0.0056080606
-0.26483948
-0.0069137216
-0.31691888
-0.0085511101
-0.37901969
-0.010631799
-0.45296395
-0.013300229
-0.54082369
-0.016749297
-0.64502323
-0.021220908
-0.76841546
-0.026958574
-0.91451802
-0.034196318
-1.0877489
-0.043136444
-1.2936638
-0.053953488
-1.5392515
-0.066935164
-1.8328857
-0.082242287
-2.1848872
-0.100148
-2.6075514
-0.12096143
-3.1156809
-0.14539516
-3.726695
-0.17393721
-4.4621728
-0.2073299
-5.3481442
-0.24643536
-6.4163343
-0.29220656
-7.705654
-0.34570083
-9.2632887
-0.40801655
-11.147996
-0.48027773
-13.431231
-0.56350006
-16.202198
-0.6585911
-19.571437
-0.76631704
-23.677108
-0.88487028
-28.702389
-1.0142447
-34.871227
-1.1506229
-42.452925
-1.2891529
-51.818704
-1.4151482
-63.45984
-1.5025693
-78.192292
-96.196383
-4.1317971e-05
-0.0084809378
-2.1493585e-05
-0.011918556
2.4199327e-05
-0.015884843
5.5564555e-05
-0.020809264
-3.1626504e-05
-0.025138363
-0.00014572153
-0.030414952
-0.00027340956
-0.036200523
-0.00043768224
-0.043517513
-0.00062241459
-0.052024238
-0.00085697429
-0.062365779
-0.0011255123
-0.074685755
-0.0014574439
-0.089453803
-0.0018477522
-0.1071729
-0.0023248658
-0.1283428
-0.0028980194
-0.15373564
-0.0035976731
-0.18407649
-0.0044512608
-0.22039964
-0.0054971176
-0.26379197
-0.0067962554
-0.31561751
-0.0084387525
-0.37737418
-0.010538629
-0.45085992
-0.013250979
-0.53810571
-0.016775865
-0.64149077
-0.021354514
-0.76382692
-0.027237893
-0.9086224
-0.034651418
-1.080318
-0.043769283
-1.2845202
-0.054807535
-1.5281814
-0.067980343
-1.8196801
-0.083471061
-2.1693609
-0.10146929
-2.589518
-0.12260716
-3.0945112
-0.14731622
-3.7019609
-0.17619775
-4.4332767
-0.21001123
-5.3143366
-0.24966433
-6.3767305
-0.2961287
-7.659296
-0.3505114
-9.2091128
-0.41399584
-11.084859
-0.48778008
-13.357889
-0.57302584
-16.117381
-0.67083912
-19.474098
-0.7822421
-23.567032
-0.90533402
-28.581691
-1.0412305
-34.737087
-1.1875422
-42.308877
-1.3387992
-51.673156
-1.4818182
-63.324683
-1.5935355
-77.990647
-96.218636
-4.2995531e-05
-0.0084937647
-2.2811367e-05
-0.01193866
2.5351156e-05
-0.015933068
4.7076388e-05
-0.020831149
-3.9250781e-05
-0.025051753
-0.00015148922
-0.030302757
-0.00027567657
-0.036076007
-0.00043644284
-0.043356655
-0.00061611192
-0.051844205
-0.00084533597
-0.062136319
-0.0011066023
-0.074424059
-0.0014300982
-0.089129907
-0.0018126124
-0.10678984
-0.0022804576
-0.12787434
-0.0028441208
-0.15317117
-0.0035342878
-0.18338534
-0.0043748445
-0.21955774
-0.0054126149
-0.26275241
-0.0067148715
-0.31431282
-0.0083704867
-0.37571529
-0.01049866
-0.4487273
-0.013267322
-0.53533114
-0.016891643
-0.6378586
-0.021607167
-0.75910132
-0.027662734
-0.90255447
-0.035260599
-1.0727022
-0.044569995
-1.2751844
-0.055862521
-1.5168566
-0.069232842
-1.8062767
-0.084862008
-2.1536957
-0.10314014
-2.5712037
-0.12456965
-3.0730488
-0.1496036
-3.6769005
-0.17888463
-4.4039799
-0.21320077
-5.2800258
-0.25348567
-6.3364943
-0.30075252
-7.6121341
-0.35616349
-9.1539132
-0.420972
-11.020395
-0.49647166
-13.282866
-0.58396954
-16.030305
-0.68478813
-19.373761
-0.80021414
-23.453082
-0.92833226
-28.45585
-1.0709231
-34.596074
-1.2281223
-42.153697
-1.3923657
-51.514932
-1.5534018
-63.173938
-1.6922764
-77.818834
-96.291967
-4.2378828e-05
-0.0085089496
-1.9972784e-05
-0.011961034
3.1656275e-05
-0.015984855
4.4057858e-05
-0.020843672
-4.0013999e-05
-0.024967503
-0.00014924681
-0.030193523
-0.0002692413
-0.035955748
-0.0004262446
-0.043199562
-0.00060098221
-0.051669124
-0.00082466498
-0.061912404
-0.0010805442
-0.074167752
-0.0013980548
-0.088811995
-0.0017736177
-0.10641371
-0.0022337574
-0.12741357
-0.0027899463
-0.15261417
-0.0034719726
-0.18270227
-0.0043051831
-0.21872317
-0.0053411186
-0.26171462
-0.0066530685
-0.31299837
-0.0083282369
-0.37403675
-0.010494225
-0.44655677
-0.01333574
-0.53248361
-0.017081771
-0.63410457
-0.021964218
-0.75420872
-0.028211652
-0.89629465
-0.036012723
-1.0648829
-0.045582162
-1.265588
-0.05709698